ITEM: TIMESTEP
52000
ITEM: NUMBER OF ATOMS
1800
ITEM: BOX BOUNDS pp pp pp
2.9688514648189681e+00 1.5543114853518057e+02
2.9688514648189681e+00 1.5543114853518057e+02
0.0000000000000000e+00 5.2800000000000002e+00
ITEM: ATOMS id type xs ys zs
2 1 0.0173664 0.0172216 0
3 1 0.0424851 0.011324 0
33 1 0.0358193 0.0352219 0
31 1 0.0109946 0.0420017 0
4 1 0.0597325 0.0284365 0
6 1 0.0835128 0.020967 0
5 1 0.0665275 0.00453893 0
35 1 0.0771924 0.0451927 0
37 1 0.10047 0.0375427 0
8 1 0.109196 0.0146167 0
9 1 0.125876 0.0333338 0
880 1 0.13469 0.00928054 0
10 1 0.150352 0.0284115 0
39 1 0.14143 0.0523735 0
11 1 0.156972 0.00251861 0
12 1 0.173736 0.0206622 0
43 1 0.190876 0.0385215 0
41 1 0.167606 0.0457597 0
14 1 0.198136 0.0145109 0
44 1 0.215159 0.0332249 0
45 1 0.221922 0.009135 0
46 1 0.241079 0.0280613 0
16 1 0.246904 0.00435978 0
47 1 0.266074 0.0234436 0
49 1 0.291645 0.0188726 0
48 1 0.282347 0.0433452 0
77 1 0.258356 0.046515 0
50 1 0.308534 0.0372257 0
20 1 0.315865 0.0139343 0
51 1 0.332577 0.0328114 0
21 1 0.339573 0.00855971 0
23 1 0.364736 0.00290772 0
22 1 0.357107 0.0268535 0
24 1 0.383447 0.0216354 0
53 1 0.374895 0.0462026 0
55 1 0.399971 0.0381917 0
25 1 0.406519 0.0135687 0
26 1 0.434644 0.0322885 0
27 1 0.431602 0.00734924 0
898 1 0.454296 0.0146623 0
28 1 0.457884 0.0407002 0
29 1 0.477889 0.0251086 0
900 1 0.496389 0.0055138 0
30 1 0.499239 0.0340181 0
61 1 0.00179183 0.0650415 0
32 1 0.0279348 0.0587575 0
62 1 0.0188866 0.0820924 0
63 1 0.0441644 0.0781245 0
34 1 0.0528735 0.0527371 0
65 1 0.0684221 0.0701941 0
66 1 0.0858123 0.0876495 0
36 1 0.0926221 0.0632074 0
64 1 0.0627193 0.0939741 0
38 1 0.118956 0.0580347 0
67 1 0.109853 0.0807084 0
69 1 0.135037 0.0755706 0
68 1 0.128271 0.0981846 0
70 1 0.152167 0.0920103 0
40 1 0.159662 0.0691716 0
71 1 0.176727 0.0879809 0
42 1 0.183746 0.0626951 0
72 1 0.201279 0.0819899 0
73 1 0.207896 0.0569891 0
74 1 0.226848 0.0759533 0
75 1 0.2333 0.0512522 0
106 1 0.242749 0.0939549 0
103 1 0.21803 0.0996479 0
76 1 0.250298 0.0693716 0
78 1 0.274621 0.0668925 0
109 1 0.293504 0.0853431 0
107 1 0.266986 0.0893946 0
52 1 0.350003 0.0513432 0
79 1 0.299797 0.061305 0
80 1 0.318542 0.0800506 0
81 1 0.324265 0.0559856 0
82 1 0.342038 0.0751831 0
83 1 0.36609 0.0706211 0
113 1 0.382836 0.0869262 0
112 1 0.360629 0.0953544 0
54 1 0.399766 0.0679715 0
56 1 0.419332 0.0515488 0
57 1 0.441925 0.0607789 0
85 1 0.424597 0.0775943 0
87 1 0.44637 0.0841174 0
84 1 0.407175 0.0964454 0
59 1 0.480721 0.0493035 0
88 1 0.47023 0.0919293 0
58 1 0.465006 0.0667409 0
89 1 0.488055 0.0750006 0
90 1 0.49487 0.0988576 0
93 1 0.0360299 0.101247 0
92 1 0.0295353 0.125262 0
91 1 0.0110172 0.109636 0
123 1 0.0475136 0.141694 0
121 1 0.00446986 0.132681 0
122 1 0.0219363 0.148947 0
94 1 0.054634 0.117159 0
95 1 0.0805821 0.110708 0
125 1 0.0722627 0.135137 0
96 1 0.0976605 0.129625 0
97 1 0.104904 0.104924 0
98 1 0.121907 0.12223 0
99 1 0.145422 0.116603 0
129 1 0.138687 0.140292 0
127 1 0.114987 0.146828 0
100 1 0.17091 0.111175 0
130 1 0.163075 0.134229 0
131 1 0.187279 0.129202 0
101 1 0.193405 0.104621 0
133 1 0.203488 0.146149 0
102 1 0.210234 0.122454 0
105 1 0.236748 0.117988 0
104 1 0.227724 0.140131 0
136 1 0.25227 0.136941 0
135 1 0.259884 0.112685 0
137 1 0.276724 0.13156 0
108 1 0.285994 0.109909 0
111 1 0.335007 0.0980601 0
139 1 0.300935 0.133642 0
110 1 0.312433 0.112019 0
141 1 0.345523 0.120063 0
140 1 0.326152 0.136468 0
114 1 0.387712 0.111515 0
143 1 0.370026 0.128198 0
144 1 0.392132 0.136577 0
142 1 0.351128 0.145626 0
86 1 0.430463 0.102102 0
115 1 0.411745 0.120212 0
116 1 0.435483 0.126944 0
145 1 0.41662 0.145274 0
117 1 0.453738 0.111084 0
118 1 0.458269 0.134641 0
119 1 0.478076 0.115662 0
149 1 0.484706 0.140078 0
153 1 0.0407069 0.165451 0
152 1 0.0166388 0.173699 0
183 1 0.0345257 0.190145 0
1080 1 0.0104778 0.198194 0
124 1 0.0653594 0.158207 0
126 1 0.0889241 0.152709 0
155 1 0.0823671 0.175875 0
154 1 0.0588965 0.183385 0
156 1 0.0991851 0.194425 0
128 1 0.131262 0.163322 0
157 1 0.105877 0.170388 0
160 1 0.147063 0.181694 0
158 1 0.123423 0.18797 0
132 1 0.179168 0.15355 0
159 1 0.155228 0.157815 0
161 1 0.170996 0.177661 0
162 1 0.187663 0.194236 0
163 1 0.19773 0.172252 0
134 1 0.221614 0.162513 0
164 1 0.229211 0.184358 0
165 1 0.245316 0.160053 0
193 1 0.211259 0.201362 0
166 1 0.252884 0.188916 0
167 1 0.269235 0.169999 0
138 1 0.287478 0.153666 0
168 1 0.293276 0.177041 0
197 1 0.276299 0.194793 0
169 1 0.311783 0.159003 0
171 1 0.3359 0.164775 0
170 1 0.318163 0.182675 0
201 1 0.341366 0.189557 0
172 1 0.359214 0.171499 0
173 1 0.375121 0.153046 0
174 1 0.382231 0.180115 0
203 1 0.364342 0.196845 0
175 1 0.398734 0.161767 0
147 1 0.440503 0.150991 0
146 1 0.424214 0.168538 0
205 1 0.405883 0.185035 0
176 1 0.428532 0.194534 0
177 1 0.448101 0.174484 0
148 1 0.464914 0.157657 0
150 1 0.490151 0.164098 0
179 1 0.472616 0.180686 0
180 1 0.496361 0.18752 0
178 1 0.456288 0.19909 0
182 1 0.0271899 0.214891 0
213 1 0.0438249 0.23159 0
211 1 0.0200852 0.239982 0
181 1 0.00200672 0.221832 0
184 1 0.0507801 0.20835 0
185 1 0.0749806 0.199819 0
186 1 0.0908538 0.219528 0
215 1 0.0672902 0.225216 0
216 1 0.0847757 0.242904 0
214 1 0.0610098 0.2488 0
187 1 0.115339 0.212374 0
188 1 0.132379 0.228337 0
189 1 0.139601 0.205291 0
217 1 0.10902 0.234155 0
191 1 0.163128 0.200904 0
190 1 0.155573 0.224802 0
192 1 0.191022 0.218427 0
221 1 0.175654 0.236272 0
220 1 0.153971 0.251438 0
223 1 0.199695 0.242813 0
194 1 0.216499 0.223981 0
195 1 0.234951 0.206839 0
225 1 0.24054 0.230457 0
224 1 0.223086 0.248578 0
196 1 0.259141 0.213355 0
198 1 0.282264 0.218241 0
227 1 0.264759 0.237152 0
228 1 0.288755 0.243832 0
199 1 0.299535 0.200515 0
200 1 0.324164 0.207113 0
229 1 0.30513 0.225682 0
231 1 0.330737 0.233615 0
202 1 0.347247 0.216369 0
204 1 0.388479 0.203647 0
233 1 0.370853 0.220959 0
235 1 0.395001 0.226568 0
232 1 0.354629 0.240324 0
234 1 0.377575 0.245327 0
207 1 0.438941 0.216464 0
206 1 0.421014 0.23237 0
237 1 0.445359 0.241466 0
208 1 0.461155 0.223723 0
209 1 0.479774 0.205328 0
210 1 0.48646 0.229162 0
239 1 0.469109 0.248244 0
212 1 0.0131626 0.265043 0
243 1 0.0384398 0.257266 0
241 1 0.0101558 0.289352 0
242 1 0.0341587 0.298666 0
244 1 0.0519739 0.281283 0
245 1 0.0746842 0.268311 0
275 1 0.0742112 0.292674 0
247 1 0.0946682 0.280257 0
219 1 0.126229 0.251577 0
218 1 0.103374 0.257539 0
249 1 0.139517 0.270889 0
248 1 0.119396 0.285256 0
250 1 0.144007 0.294219 0
222 1 0.180522 0.260188 0
251 1 0.162392 0.276351 0
252 1 0.187442 0.282636 0
253 1 0.205246 0.266132 0
255 1 0.229232 0.271937 0
254 1 0.209896 0.289338 0
285 1 0.235133 0.296715 0
226 1 0.248032 0.255743 0
256 1 0.253137 0.280668 0
257 1 0.27158 0.262005 0
259 1 0.295406 0.267979 0
258 1 0.276876 0.286927 0
289 1 0.300667 0.293366 0
230 1 0.31268 0.25043 0
260 1 0.318906 0.275154 0
261 1 0.336568 0.257748 0
262 1 0.342107 0.282375 0
263 1 0.360872 0.263876 0
264 1 0.384873 0.269276 0
293 1 0.366622 0.28702 0
295 1 0.389714 0.2942 0
265 1 0.402507 0.250244 0
236 1 0.42666 0.258348 0
266 1 0.409789 0.275409 0
267 1 0.43229 0.282422 0
297 1 0.414467 0.299256 0
238 1 0.451336 0.26454 0
240 1 0.492756 0.254516 0
269 1 0.475074 0.272824 0
268 1 0.457162 0.28996 0
270 1 0.481349 0.295716 0
1141 1 0.499587 0.278114 0
271 1 0.013801 0.31376 0
272 1 0.0369833 0.324586 0
301 1 0.017691 0.339079 0
303 1 0.0431092 0.348484 0
273 1 0.0562987 0.307691 0
276 1 0.0824804 0.316132 0
274 1 0.06252 0.331773 0
305 1 0.0864883 0.340703 0
246 1 0.1017 0.303162 0
279 1 0.125426 0.3093 0
277 1 0.105208 0.327223 0
278 1 0.130333 0.333622 0
280 1 0.148541 0.31827 0
281 1 0.167219 0.300577 0
311 1 0.155102 0.342382 0
283 1 0.192217 0.306687 0
282 1 0.17437 0.324464 0
312 1 0.179876 0.348241 0
313 1 0.197994 0.330513 0
284 1 0.217047 0.313518 0
315 1 0.22218 0.336942 0
286 1 0.240893 0.321202 0
316 1 0.24599 0.345075 0
287 1 0.258134 0.30518 0
288 1 0.283336 0.311034 0
317 1 0.264957 0.329009 0
319 1 0.289042 0.335565 0
291 1 0.32498 0.300009 0
290 1 0.305983 0.318241 0
321 1 0.312712 0.343184 0
292 1 0.329428 0.324799 0
323 1 0.348028 0.306784 0
322 1 0.337322 0.350526 0
294 1 0.371984 0.311051 0
324 1 0.352886 0.330853 0
325 1 0.37881 0.334254 0
296 1 0.398277 0.317462 0
326 1 0.402957 0.341586 0
298 1 0.437954 0.306834 0
327 1 0.421315 0.324169 0
328 1 0.444679 0.331845 0
357 1 0.425402 0.347722 0
299 1 0.463263 0.313678 0
300 1 0.488363 0.320077 0
1201 1 0.494609 0.345667 0
329 1 0.469885 0.338556 0
331 1 0.00301138 0.3792 0
302 1 0.0238928 0.363862 0
332 1 0.0294741 0.388438 0
333 1 0.0487695 0.373336 0
334 1 0.0538223 0.397408 0
304 1 0.0669835 0.35607 0
306 1 0.090937 0.365151 0
335 1 0.0723611 0.380691 0
337 1 0.0972712 0.391678 0
307 1 0.112574 0.350789 0
309 1 0.136517 0.358355 0
308 1 0.115584 0.374546 0
339 1 0.1396 0.382426 0
338 1 0.122132 0.399417 0
310 1 0.159799 0.366536 0
341 1 0.166072 0.389978 0
343 1 0.183533 0.371585 0
342 1 0.190126 0.395244 0
314 1 0.203649 0.354312 0
345 1 0.22806 0.362264 0
344 1 0.207841 0.378848 0
375 1 0.233477 0.386424 0
346 1 0.252019 0.370142 0
377 1 0.257084 0.39563 0
318 1 0.270879 0.353196 0
349 1 0.294517 0.361083 0
347 1 0.276753 0.377807 0
350 1 0.300948 0.385595 0
320 1 0.319218 0.369018 0
351 1 0.344217 0.373831 0
381 1 0.324529 0.392444 0
353 1 0.361594 0.35411 0
355 1 0.385386 0.358384 0
354 1 0.368789 0.378278 0
385 1 0.391814 0.383861 0
356 1 0.409295 0.365506 0
387 1 0.433855 0.372391 0
386 1 0.416043 0.389925 0
388 1 0.438278 0.397488 0
358 1 0.457333 0.379332 0
359 1 0.451193 0.356031 0
330 1 0.47541 0.361986 0
360 1 0.480668 0.387586 0
361 1 0.0103454 0.403075 0
363 1 0.033167 0.412535 0
362 1 0.013951 0.427341 0
364 1 0.0395893 0.43637 0
336 1 0.0782975 0.406703 0
365 1 0.0588821 0.421336 0
395 1 0.0639003 0.445999 0
367 1 0.103061 0.415633 0
366 1 0.106668 0.440215 0
369 1 0.126812 0.422856 0
340 1 0.14777 0.405664 0
368 1 0.130493 0.447561 0
370 1 0.149317 0.430793 0
371 1 0.171416 0.413289 0
401 1 0.174602 0.436785 0
372 1 0.194339 0.420202 0
403 1 0.200427 0.442705 0
373 1 0.213928 0.403995 0
374 1 0.219731 0.427083 0
376 1 0.238056 0.41001 0
405 1 0.243854 0.436314 0
348 1 0.281615 0.402797 0
407 1 0.26774 0.442829 0
378 1 0.262772 0.419724 0
409 1 0.286536 0.426206 0
352 1 0.347062 0.403447 0
379 1 0.307994 0.410794 0
380 1 0.309907 0.43543 0
382 1 0.330241 0.420568 0
411 1 0.333522 0.44499 0
383 1 0.370252 0.408814 0
413 1 0.355521 0.427343 0
414 1 0.376637 0.439914 0
384 1 0.395768 0.407425 0
415 1 0.399422 0.430558 0
417 1 0.419553 0.414548 0
416 1 0.426172 0.438701 0
419 1 0.444229 0.42292 0
447 1 0.449221 0.446659 0
389 1 0.461308 0.4033 0
418 1 0.46769 0.428747 0
390 1 0.486154 0.41142 0
420 1 0.490687 0.437314 0
393 1 0.018387 0.452047 0
422 1 0.00491769 0.491248 0
423 1 0.0239583 0.476311 0
394 1 0.0445618 0.4604 0
425 1 0.0487368 0.486646 0
396 1 0.0683173 0.471214 0
426 1 0.0709152 0.494728 0
397 1 0.0880845 0.455986 0
427 1 0.0918089 0.480046 0
398 1 0.113498 0.464083 0
428 1 0.117083 0.488732 0
429 1 0.136528 0.472436 0
459 1 0.140396 0.498723 0
399 1 0.155059 0.45554 0
400 1 0.180351 0.460032 0
430 1 0.160271 0.481375 0
431 1 0.185157 0.48304 0
404 1 0.225083 0.451475 0
402 1 0.20441 0.467161 0
432 1 0.209516 0.490522 0
433 1 0.228059 0.47451 0
435 1 0.248154 0.459043 0
434 1 0.232171 0.498249 0
436 1 0.250917 0.483443 0
408 1 0.290706 0.450459 0
406 1 0.271483 0.467504 0
437 1 0.27518 0.492674 0
439 1 0.294782 0.476702 0
410 1 0.313738 0.460143 0
440 1 0.318396 0.484668 0
441 1 0.337925 0.46967 0
471 1 0.341123 0.494718 0
412 1 0.35711 0.453615 0
442 1 0.362225 0.477751 0
473 1 0.383904 0.490641 0
443 1 0.383478 0.463334 0
445 1 0.408271 0.453036 0
444 1 0.40491 0.477431 0
477 1 0.42844 0.486423 0
446 1 0.430551 0.463704 0
449 1 0.472139 0.453781 0
1321 1 0.495579 0.461922 0
448 1 0.456002 0.471218 0
450 1 0.479588 0.480303 0
478 1 0.456188 0.498891 0
453 1 0.0102146 0.51822 0
452 1 0.0150626 0.54109 0
454 1 0.0349528 0.526214 0
424 1 0.0284705 0.50099 0
485 1 0.0580168 0.53535 0
455 1 0.0540335 0.512056 0
456 1 0.0788964 0.519793 0
486 1 0.0823273 0.543929 0
457 1 0.096664 0.503394 0
487 1 0.102413 0.529852 0
458 1 0.122128 0.513491 0
488 1 0.126348 0.53939 0
489 1 0.145297 0.523539 0
460 1 0.164604 0.506969 0
461 1 0.189588 0.50556 0
462 1 0.191335 0.529141 0
491 1 0.167671 0.536688 0
493 1 0.213448 0.537922 0
463 1 0.211924 0.514213 0
464 1 0.234918 0.522355 0
495 1 0.236048 0.547712 0
466 1 0.257494 0.53129 0
465 1 0.255017 0.506908 0
467 1 0.278766 0.517177 0
497 1 0.280341 0.542591 0
438 1 0.297681 0.50127 0
468 1 0.301495 0.527221 0
469 1 0.321302 0.509259 0
499 1 0.323482 0.53747 0
470 1 0.343391 0.519957 0
501 1 0.346619 0.546776 0
472 1 0.364186 0.503995 0
503 1 0.365193 0.530665 0
474 1 0.385325 0.516032 0
505 1 0.388054 0.541616 0
476 1 0.407172 0.525623 0
507 1 0.430912 0.511876 0
509 1 0.429146 0.536439 0
475 1 0.407942 0.501386 0
479 1 0.467311 0.523008 0
480 1 0.452292 0.541921 0
1381 1 0.492035 0.528945 0
510 1 0.476489 0.54714 0
1351 1 0.48306 0.50519 0
483 1 0.0393805 0.55025 0
513 1 0.0189942 0.564809 0
514 1 0.0425564 0.575626 0
512 1 0.0221152 0.589509 0
543 1 0.0450171 0.601005 0
484 1 0.0627247 0.560179 0
515 1 0.0853902 0.568827 0
545 1 0.0657902 0.585 0
516 1 0.0875528 0.594993 0
490 1 0.148933 0.55129 0
517 1 0.106103 0.554675 0
518 1 0.107782 0.579667 0
519 1 0.128281 0.56502 0
549 1 0.130669 0.591918 0
520 1 0.14994 0.576795 0
521 1 0.170855 0.564732 0
492 1 0.191397 0.552047 0
523 1 0.193824 0.576245 0
522 1 0.173768 0.589591 0
494 1 0.213811 0.56198 0
524 1 0.217062 0.585754 0
525 1 0.236974 0.571142 0
555 1 0.239104 0.595813 0
496 1 0.259123 0.556622 0
526 1 0.261393 0.581025 0
527 1 0.282414 0.566073 0
528 1 0.283622 0.591378 0
498 1 0.302322 0.551432 0
529 1 0.305488 0.576788 0
500 1 0.325352 0.562542 0
530 1 0.32694 0.587454 0
531 1 0.347561 0.571989 0
502 1 0.368589 0.556976 0
504 1 0.392163 0.566614 0
533 1 0.370335 0.58183 0
534 1 0.395829 0.590653 0
532 1 0.350223 0.596862 0
506 1 0.411425 0.552421 0
535 1 0.414544 0.576549 0
508 1 0.434136 0.560398 0
537 1 0.440644 0.583598 0
539 1 0.458922 0.565499 0
540 1 0.484199 0.5706 0
538 1 0.465427 0.59025 0
569 1 0.489749 0.593997 0
541 1 0.00145748 0.605718 0
542 1 0.0253947 0.615232 0
571 1 0.00269628 0.630752 0
573 1 0.0258329 0.640352 0
544 1 0.0467228 0.624634 0
546 1 0.0678393 0.60941 0
547 1 0.0898594 0.620125 0
575 1 0.0694454 0.63298 0
576 1 0.0922135 0.644302 0
548 1 0.110163 0.604903 0
550 1 0.132341 0.616463 0
577 1 0.112341 0.630291 0
579 1 0.13563 0.642217 0
553 1 0.196583 0.600054 0
551 1 0.152433 0.603488 0
581 1 0.154701 0.628185 0
552 1 0.177195 0.615294 0
582 1 0.178448 0.640063 0
583 1 0.198977 0.625111 0
554 1 0.219149 0.610241 0
556 1 0.242289 0.620242 0
585 1 0.221355 0.634572 0
586 1 0.245122 0.644356 0
557 1 0.262499 0.605987 0
587 1 0.266416 0.632454 0
558 1 0.283963 0.616274 0
589 1 0.288885 0.640593 0
559 1 0.305481 0.601591 0
560 1 0.308109 0.626458 0
561 1 0.329236 0.610835 0
591 1 0.331067 0.636828 0
562 1 0.350432 0.621199 0
563 1 0.376067 0.606722 0
564 1 0.372062 0.630736 0
593 1 0.353521 0.64579 0
595 1 0.393414 0.641206 0
565 1 0.406109 0.619533 0
536 1 0.423173 0.601062 0
566 1 0.431726 0.623732 0
567 1 0.449044 0.607802 0
596 1 0.417732 0.643519 0
597 1 0.454022 0.632512 0
568 1 0.473263 0.61359 0
570 1 0.477778 0.638522 0
1442 1 0.497017 0.619872 0
574 1 0.0494476 0.649288 0
572 1 0.00634664 0.654611 0
603 1 0.0283452 0.664866 0
602 1 0.00845369 0.679528 0
633 1 0.0309955 0.689122 0
604 1 0.0511967 0.673651 0
605 1 0.0722963 0.659991 0
606 1 0.0747711 0.684351 0
607 1 0.0951733 0.669415 0
637 1 0.0968519 0.695373 0
635 1 0.0541887 0.697803 0
578 1 0.114523 0.655565 0
609 1 0.137203 0.667175 0
608 1 0.116364 0.681036 0
639 1 0.140932 0.691998 0
584 1 0.202148 0.65012 0
580 1 0.157772 0.653586 0
611 1 0.181331 0.664983 0
610 1 0.159921 0.677993 0
612 1 0.184111 0.689007 0
613 1 0.204181 0.675119 0
615 1 0.224506 0.660107 0
614 1 0.226612 0.684962 0
617 1 0.246046 0.669386 0
616 1 0.248669 0.694883 0
588 1 0.26796 0.65676 0
619 1 0.291576 0.667525 0
618 1 0.270109 0.68132 0
590 1 0.309676 0.651924 0
621 1 0.315039 0.677159 0
592 1 0.334174 0.66169 0
622 1 0.337181 0.688196 0
623 1 0.355186 0.672567 0
594 1 0.374655 0.656932 0
624 1 0.378536 0.680934 0
625 1 0.397082 0.665379 0
653 1 0.361516 0.697189 0
598 1 0.43943 0.652712 0
627 1 0.421402 0.669022 0
626 1 0.404122 0.688013 0
628 1 0.444543 0.67749 0
657 1 0.427765 0.694792 0
599 1 0.462436 0.65747 0
600 1 0.487193 0.662052 0
629 1 0.469068 0.681267 0
630 1 0.492968 0.687104 0
658 1 0.452766 0.700465 0
632 1 0.0105957 0.704258 0
634 1 0.0325122 0.714035 0
663 1 0.0126499 0.728549 0
664 1 0.0354808 0.737987 0
636 1 0.0767143 0.709054 0
665 1 0.0572409 0.722688 0
666 1 0.0798152 0.734217 0
695 1 0.0580114 0.74807 0
667 1 0.0999468 0.720899 0
638 1 0.120323 0.705155 0
640 1 0.143432 0.71748 0
669 1 0.123438 0.730939 0
668 1 0.103083 0.744678 0
670 1 0.144197 0.742728 0
641 1 0.163834 0.703151 0
642 1 0.186109 0.715104 0
671 1 0.165317 0.729035 0
673 1 0.187565 0.74035 0
643 1 0.20523 0.700341 0
645 1 0.228358 0.709453 0
644 1 0.207863 0.725754 0
675 1 0.229857 0.735711 0
646 1 0.251102 0.719757 0
647 1 0.272417 0.705445 0
677 1 0.252715 0.745916 0
648 1 0.272825 0.730608 0
649 1 0.295003 0.715684 0
679 1 0.295185 0.740915 0
620 1 0.315824 0.701787 0
651 1 0.3412 0.713001 0
650 1 0.318012 0.726818 0
652 1 0.340451 0.737176 0
655 1 0.386433 0.70634 0
654 1 0.365263 0.724143 0
685 1 0.395105 0.731435 0
683 1 0.378087 0.749137 0
656 1 0.412553 0.713261 0
687 1 0.435649 0.718412 0
686 1 0.419334 0.737847 0
717 1 0.443035 0.742976 0
659 1 0.475987 0.705816 0
689 1 0.459024 0.724094 0
660 1 0.482879 0.729268 0
688 1 0.468219 0.74717 0
662 1 0.0159745 0.753303 0
694 1 0.0385946 0.761764 0
693 1 0.0191603 0.777547 0
725 1 0.0421052 0.78553 0
697 1 0.0830887 0.758388 0
696 1 0.0626289 0.772249 0
727 1 0.085191 0.78346 0
726 1 0.0648812 0.797328 0
699 1 0.124713 0.756539 0
698 1 0.104514 0.769924 0
700 1 0.127186 0.781468 0
728 1 0.106148 0.795123 0
701 1 0.14727 0.768425 0
731 1 0.147657 0.792872 0
672 1 0.167577 0.754427 0
703 1 0.190338 0.763931 0
702 1 0.170207 0.778438 0
704 1 0.192999 0.788584 0
674 1 0.210742 0.750449 0
676 1 0.232916 0.761675 0
705 1 0.213714 0.775429 0
706 1 0.235103 0.786324 0
735 1 0.214822 0.800969 0
707 1 0.255224 0.770538 0
678 1 0.275644 0.755576 0
737 1 0.256992 0.79718 0
709 1 0.277583 0.782426 0
680 1 0.297299 0.766237 0
710 1 0.301635 0.790001 0
681 1 0.317794 0.750168 0
682 1 0.339079 0.760925 0
711 1 0.320495 0.774856 0
712 1 0.34393 0.785459 0
713 1 0.362177 0.767477 0
714 1 0.385111 0.774826 0
743 1 0.36833 0.792454 0
745 1 0.391713 0.799039 0
684 1 0.402513 0.755512 0
715 1 0.426712 0.760583 0
716 1 0.408885 0.779575 0
747 1 0.433994 0.784575 0
718 1 0.451016 0.767725 0
690 1 0.492386 0.751902 0
719 1 0.475128 0.771534 0
720 1 0.482256 0.796191 0
749 1 0.458172 0.79096 0
1591 1 0.50021 0.777341 0
723 1 0.0205477 0.80226 0
722 1 0.0219608 0.827955 0
724 1 0.0441848 0.809501 0
754 1 0.0446732 0.83415 0
1680 1 0.00315117 0.84422 0
751 1 0.000885355 0.815806 0
757 1 0.0862927 0.808407 0
755 1 0.0658719 0.821635 0
756 1 0.0864848 0.835633 0
785 1 0.0655057 0.848306 0
729 1 0.127763 0.805235 0
759 1 0.106199 0.82143 0
760 1 0.13066 0.829503 0
758 1 0.109229 0.845498 0
730 1 0.151208 0.817122 0
732 1 0.171057 0.802569 0
761 1 0.154538 0.843601 0
763 1 0.173633 0.82916 0
733 1 0.193643 0.813985 0
764 1 0.196507 0.839511 0
736 1 0.237117 0.811387 0
734 1 0.215953 0.825686 0
767 1 0.23889 0.835878 0
708 1 0.281414 0.806848 0
738 1 0.260755 0.821887 0
768 1 0.261944 0.845708 0
769 1 0.282682 0.831647 0
741 1 0.324248 0.801137 0
739 1 0.303645 0.816603 0
740 1 0.306214 0.839863 0
771 1 0.32981 0.829191 0
742 1 0.347814 0.810094 0
773 1 0.354555 0.833469 0
744 1 0.374588 0.816457 0
774 1 0.379447 0.840172 0
775 1 0.397936 0.824335 0
746 1 0.415476 0.804649 0
748 1 0.437796 0.812695 0
777 1 0.422095 0.831222 0
776 1 0.405934 0.849486 0
779 1 0.44509 0.836346 0
750 1 0.463997 0.814618 0
1621 1 0.488468 0.819715 0
780 1 0.469102 0.839915 0
1651 1 0.494707 0.844912 0
753 1 0.04063 0.856622 0
752 1 0.0172271 0.86431 0
783 1 0.0351925 0.880792 0
782 1 0.0100588 0.888289 0
815 1 0.0538104 0.897486 0
784 1 0.0595558 0.873171 0
786 1 0.0786148 0.888574 0
787 1 0.0885919 0.861628 0
817 1 0.101807 0.88246 0
789 1 0.131804 0.853294 0
788 1 0.127776 0.876842 0
790 1 0.14547 0.893242 0
762 1 0.175101 0.85454 0
791 1 0.152288 0.869944 0
793 1 0.175965 0.87881 0
795 1 0.197597 0.863837 0
765 1 0.218968 0.850387 0
796 1 0.219836 0.875204 0
825 1 0.238703 0.894413 0
766 1 0.243101 0.862861 0
797 1 0.26937 0.868547 0
827 1 0.261813 0.891194 0
799 1 0.294086 0.861614 0
798 1 0.2868 0.887583 0
772 1 0.341589 0.852542 0
770 1 0.318775 0.8605 0
800 1 0.311792 0.883118 0
801 1 0.337036 0.876369 0
802 1 0.353532 0.894486 0
803 1 0.361157 0.868 0
804 1 0.376966 0.887779 0
805 1 0.38645 0.864719 0
778 1 0.428767 0.85562 0
807 1 0.408667 0.877803 0
808 1 0.435368 0.879193 0
809 1 0.453484 0.8608 0
1681 1 0.479334 0.863211 0
1711 1 0.487069 0.88814 0
810 1 0.46219 0.883955 0
813 1 0.0292259 0.904465 0
843 1 0.0226094 0.929034 0
814 1 0.046287 0.919935 0
844 1 0.040258 0.943661 0
812 1 0.00443027 0.913001 0
816 1 0.0952642 0.90593 0
845 1 0.0719255 0.9124 0
846 1 0.06504 0.9376 0
847 1 0.0900072 0.929816 0
819 1 0.119769 0.899783 0
818 1 0.113563 0.924634 0
820 1 0.130754 0.943302 0
821 1 0.136636 0.917616 0
849 1 0.10462 0.949839 0
792 1 0.162478 0.909872 0
851 1 0.154411 0.933777 0
823 1 0.187351 0.90398 0
822 1 0.17945 0.928138 0
854 1 0.196288 0.949435 0
794 1 0.213982 0.900123 0
824 1 0.205692 0.922802 0
885 1 0.221695 0.942787 0
855 1 0.23062 0.918563 0
856 1 0.246673 0.938003 0
826 1 0.255454 0.913929 0
857 1 0.27238 0.932768 0
828 1 0.279734 0.909947 0
859 1 0.297596 0.929651 0
831 1 0.328895 0.899895 0
829 1 0.304517 0.905428 0
830 1 0.322967 0.922867 0
832 1 0.346256 0.918132 0
861 1 0.338516 0.941991 0
860 1 0.314333 0.947163 0
806 1 0.397927 0.901669 0
863 1 0.363022 0.935434 0
833 1 0.371066 0.910945 0
834 1 0.388388 0.927654 0
837 1 0.421752 0.900724 0
835 1 0.412591 0.922996 0
836 1 0.431568 0.940213 0
865 1 0.404569 0.946621 0
869 1 0.461796 0.948123 0
838 1 0.451736 0.926305 0
839 1 0.469724 0.907829 0
840 1 0.479369 0.931268 0
1712 1 0.494692 0.911502 0
842 1 0.0159499 0.953273 0
872 1 0.0252086 0.994354 0
873 1 0.0336847 0.968911 0
871 1 0.00891319 0.976482 0
874 1 0.0496925 0.986823 0
875 1 0.0574499 0.962418 0
876 1 0.0742628 0.97931 0
848 1 0.0806328 0.955171 0
7 1 0.09082 0.997206 0
877 1 0.097686 0.974107 0
878 1 0.116804 0.991136 0
879 1 0.122501 0.967441 0
881 1 0.141498 0.983819 0
850 1 0.148262 0.958923 0
882 1 0.180597 0.996378 0
853 1 0.171452 0.952838 0
852 1 0.164897 0.976997 0
883 1 0.189365 0.97214 0
13 1 0.20398 0.990503 0
15 1 0.229572 0.985255 0
884 1 0.214638 0.966852 0
886 1 0.238392 0.961539 0
858 1 0.289632 0.952561 0
887 1 0.263573 0.957004 0
17 1 0.254899 0.981113 0
888 1 0.281066 0.975889 0
19 1 0.298274 0.994307 0
18 1 0.272807 0.998847 0
889 1 0.306243 0.970661 0
890 1 0.322516 0.989531 0
892 1 0.347139 0.98478 0
891 1 0.329874 0.965763 0
862 1 0.355036 0.960475 0
864 1 0.379678 0.953662 0
893 1 0.371067 0.979229 0
895 1 0.3957 0.971324 0
894 1 0.389467 0.996098 0
866 1 0.420594 0.964084 0
896 1 0.413802 0.988968 0
867 1 0.44365 0.963878 0
897 1 0.450072 0.989568 0
870 1 0.486097 0.954577 0
868 1 0.468953 0.9737 0
899 1 0.474634 0.997996 0
1771 1 0.493046 0.979723 0
902 1 0.541884 0.0244878 0
901 1 0.517316 0.0177526 0
931 1 0.523791 0.0416822 0
933 1 0.548275 0.0484119 0
903 1 0.534648 0.00173503 0
904 1 0.565346 0.032263 0
906 1 0.583149 0.0136804 0
935 1 0.5893 0.0368963 0
905 1 0.558783 0.00741478 0
909 1 0.62384 0.00131852 0
908 1 0.607044 0.0196325 0
937 1 0.613413 0.0432501 0
939 1 0.630802 0.0257188 0
910 1 0.647789 0.00774381 0
941 1 0.657045 0.0310628 0
912 1 0.672105 0.0122081 0
942 1 0.680516 0.0369156 0
943 1 0.696855 0.0183057 0
973 1 0.704103 0.0443031 0
944 1 0.720408 0.0240358 0
945 1 0.739076 0.00521864 0
946 1 0.746068 0.0300573 0
975 1 0.729563 0.0485418 0
914 1 0.713729 -0.000449107 0
947 1 0.763233 0.0110972 0
948 1 0.771853 0.0347564 0
918 1 0.787271 0.0169994 0
921 1 0.822 0.00606864 0
949 1 0.810076 0.0275467 0
951 1 0.837149 0.0241261 0
950 1 0.826235 0.0462853 0
952 1 0.852684 0.0418533 0
953 1 0.859474 0.0167057 0
924 1 0.885044 0.0105447 0
954 1 0.876796 0.035378 0
955 1 0.901442 0.0290436 0
925 1 0.909316 0.00296116 0
926 1 0.925906 0.0213558 0
957 1 0.943594 0.0384782 0
956 1 0.917976 0.0466176 0
928 1 0.951135 0.0145598 0
959 1 0.968188 0.0313968 0
930 1 0.992243 0.0257192 0
929 1 0.975493 0.00798512 0
960 1 0.983773 0.0496413 0
1 1 1.00062 -0.00165004 0
932 1 0.530033 0.0654766 0
962 1 0.537043 0.0901612 0
961 1 0.512809 0.0827861 0
60 1 0.504915 0.0576966 0
934 1 0.572121 0.0555939 0
963 1 0.553877 0.0718829 0
965 1 0.578173 0.0793993 0
964 1 0.560506 0.0956701 0
936 1 0.596724 0.0617483 0
938 1 0.639173 0.0479844 0
966 1 0.602705 0.0851672 0
967 1 0.620306 0.0671917 0
968 1 0.627202 0.0912757 0
969 1 0.645371 0.071706 0
999 1 0.652038 0.0960387 0
940 1 0.662757 0.0541568 0
970 1 0.669447 0.0788072 0
971 1 0.686238 0.0609637 0
972 1 0.694176 0.0833371 0
1003 1 0.711877 0.0667366 0
1004 1 0.718679 0.0902419 0
974 1 0.73571 0.0712176 0
1005 1 0.74372 0.0937112 0
976 1 0.753479 0.0527404 0
1007 1 0.769701 0.0839669 0
977 1 0.776138 0.0602094 0
978 1 0.794703 0.0763539 0
979 1 0.800702 0.0507144 0
980 1 0.820112 0.06904 0
981 1 0.844024 0.0650417 0
1009 1 0.811976 0.0942636 0
1011 1 0.836153 0.0881203 0
985 1 0.89332 0.0534609 0
982 1 0.861504 0.083186 0
983 1 0.869563 0.0599424 0
984 1 0.885956 0.0772296 0
1015 1 0.904377 0.0932537 0
986 1 0.910715 0.0695112 0
987 1 0.935468 0.0628126 0
1017 1 0.929055 0.0882472 0
988 1 0.952812 0.0812225 0
958 1 0.960824 0.0558691 0
989 1 0.976826 0.0750201 0
990 1 0.994724 0.0914168 0
1019 1 0.970759 0.0985442 0
991 1 0.518758 0.106663 0
992 1 0.525658 0.130896 0
993 1 0.543247 0.113379 0
1021 1 0.507606 0.147874 0
120 1 0.501519 0.123237 0
1023 1 0.549973 0.137144 0
995 1 0.585975 0.101871 0
994 1 0.567825 0.120216 0
996 1 0.592768 0.125751 0
1025 1 0.575129 0.143313 0
997 1 0.610212 0.108367 0
998 1 0.634737 0.115327 0
1027 1 0.616429 0.131612 0
1029 1 0.642208 0.139464 0
1001 1 0.675224 0.100948 0
1000 1 0.659127 0.120476 0
1031 1 0.683934 0.124788 0
1030 1 0.666345 0.14346 0
1002 1 0.70234 0.108789 0
1033 1 0.708749 0.131571 0
1035 1 0.728023 0.113378 0
1034 1 0.732345 0.137662 0
1008 1 0.787879 0.101007 0
1006 1 0.764244 0.109903 0
1036 1 0.756374 0.133186 0
1037 1 0.782059 0.126029 0
1067 1 0.776213 0.150343 0
1038 1 0.799762 0.143214 0
1039 1 0.806169 0.119418 0
1010 1 0.829341 0.113094 0
1040 1 0.823784 0.137336 0
1041 1 0.847433 0.130925 0
1013 1 0.877966 0.100739 0
1012 1 0.853143 0.106357 0
1043 1 0.871319 0.124444 0
1014 1 0.895518 0.11778 0
1044 1 0.889174 0.143322 0
1042 1 0.865288 0.149662 0
1045 1 0.9136 0.13502 0
1016 1 0.920774 0.111254 0
1047 1 0.93883 0.12848 0
1018 1 0.945809 0.104965 0
1049 1 0.963585 0.121786 0
1020 1 0.987619 0.115431 0
1050 1 0.980226 0.139364 0
1046 1 0.956375 0.145671 0
1022 1 0.532495 0.155236 0
1053 1 0.540613 0.179441 0
1051 1 0.515354 0.172091 0
1052 1 0.521565 0.195199 0
1026 1 0.599282 0.149584 0
1024 1 0.557456 0.161165 0
1055 1 0.582593 0.168339 0
1054 1 0.564164 0.184888 0
1056 1 0.58862 0.192401 0
1028 1 0.62392 0.15602 0
1057 1 0.605644 0.174332 0
1058 1 0.629813 0.179316 0
1087 1 0.612435 0.197159 0
1059 1 0.647955 0.162615 0
1032 1 0.690974 0.14963 0
1060 1 0.655485 0.186227 0
1061 1 0.673515 0.166762 0
1091 1 0.679251 0.191794 0
1062 1 0.697278 0.174113 0
1063 1 0.715472 0.155734 0
1064 1 0.725317 0.178526 0
1065 1 0.747866 0.158785 0
1095 1 0.748266 0.186496 0
1093 1 0.705501 0.198315 0
1066 1 0.769265 0.174256 0
1068 1 0.79322 0.168151 0
1097 1 0.786647 0.193228 0
1069 1 0.817223 0.161161 0
1071 1 0.841701 0.155323 0
1070 1 0.833994 0.179684 0
1099 1 0.809533 0.186895 0
1101 1 0.852269 0.197521 0
1072 1 0.858222 0.173265 0
1073 1 0.88459 0.167575 0
1103 1 0.875629 0.191132 0
1074 1 0.901844 0.184314 0
1075 1 0.907089 0.15927 0
1077 1 0.929994 0.152394 0
1076 1 0.925066 0.177085 0
1107 1 0.943517 0.194261 0
1078 1 0.949379 0.169217 0
1048 1 0.974297 0.163484 0
151 1 0.998472 0.15684 0
1079 1 0.992475 0.181061 0
1109 1 0.965715 0.187465 0
1083 1 0.545439 0.201828 0
1081 1 0.503425 0.211464 0
1082 1 0.527628 0.220495 0
1111 1 0.509083 0.236316 0
1113 1 0.534246 0.243084 0
1084 1 0.551863 0.225269 0
1085 1 0.570628 0.208998 0
1086 1 0.59528 0.215401 0
1115 1 0.576277 0.231986 0
1089 1 0.635681 0.204083 0
1117 1 0.602628 0.240499 0
1088 1 0.618608 0.222976 0
1119 1 0.642495 0.227438 0
1118 1 0.62639 0.246299 0
1090 1 0.660652 0.209838 0
1092 1 0.685813 0.217208 0
1121 1 0.667642 0.233145 0
1122 1 0.694144 0.239674 0
1094 1 0.729027 0.203486 0
1123 1 0.712697 0.222552 0
1124 1 0.718111 0.245895 0
1125 1 0.735693 0.228064 0
1096 1 0.752025 0.210956 0
1127 1 0.775506 0.215636 0
1126 1 0.759744 0.235816 0
1128 1 0.796501 0.235864 0
1100 1 0.827358 0.204392 0
1098 1 0.80269 0.212283 0
1131 1 0.844702 0.221918 0
1129 1 0.821334 0.228123 0
1130 1 0.840023 0.245708 0
1102 1 0.870235 0.214995 0
1104 1 0.8951 0.207627 0
1132 1 0.864734 0.238358 0
1133 1 0.888278 0.232542 0
1105 1 0.919637 0.202692 0
1135 1 0.912084 0.226104 0
1106 1 0.937 0.219786 0
1136 1 0.930579 0.242765 0
1137 1 0.955374 0.237368 0
1108 1 0.96059 0.212491 0
1110 1 0.985234 0.204679 0
1139 1 0.978565 0.229182 0
1140 1 0.996295 0.246596 0
1112 1 0.51781 0.262263 0
1143 1 0.540927 0.267979 0
1142 1 0.524144 0.286565 0
1144 1 0.546909 0.292308 0
1114 1 0.557888 0.248442 0
1116 1 0.581869 0.255696 0
1145 1 0.565611 0.273602 0
1146 1 0.590813 0.28037 0
1175 1 0.56977 0.297669 0
1147 1 0.607531 0.263762 0
1149 1 0.63412 0.269649 0
1148 1 0.61429 0.288133 0
1179 1 0.639662 0.294107 0
1120 1 0.650899 0.252576 0
1151 1 0.676985 0.256806 0
1150 1 0.657636 0.276714 0