ITEM: TIMESTEP
120000
ITEM: NUMBER OF ATOMS
1800
ITEM: BOX BOUNDS pp pp pp
3.1007197141523761e+00 1.5529928028584459e+02
3.1007197141523761e+00 1.5529928028584459e+02
0.0000000000000000e+00 5.2800000000000002e+00
ITEM: ATOMS id type xs ys zs
2 1 0.0175546 0.0186479 0
3 1 0.0435259 0.0122781 0
33 1 0.0361564 0.0354431 0
31 1 0.0105176 0.0428115 0
1 1 0.00153672 -0.0001626 0
4 1 0.0610066 0.0299536 0
6 1 0.0867776 0.0233937 0
5 1 0.0696105 0.00538446 0
35 1 0.0769557 0.0463287 0
37 1 0.103254 0.041108 0
8 1 0.110658 0.0163212 0
9 1 0.127547 0.0345714 0
880 1 0.135679 0.00990767 0
10 1 0.153151 0.0280139 0
11 1 0.16042 0.00434271 0
12 1 0.177212 0.0230413 0
43 1 0.195339 0.0399725 0
41 1 0.168483 0.046185 0
14 1 0.201507 0.0162727 0
44 1 0.220693 0.0351088 0
45 1 0.227407 0.00987061 0
46 1 0.245687 0.0301951 0
16 1 0.251259 0.00410569 0
47 1 0.268686 0.0226282 0
49 1 0.29503 0.0188503 0
48 1 0.286113 0.0419721 0
77 1 0.261902 0.0480717 0
18 1 0.275529 -0.0012029 0
50 1 0.312207 0.0385 0
20 1 0.318457 0.0114076 0
51 1 0.334731 0.0313911 0
21 1 0.341657 0.00608456 0
22 1 0.358207 0.0240371 0
24 1 0.382393 0.0193166 0
53 1 0.374922 0.0430302 0
23 1 0.365144 8.39974e-05 0
55 1 0.398919 0.0374723 0
52 1 0.351266 0.0511335 0
25 1 0.406096 0.0139023 0
26 1 0.423711 0.0318294 0
27 1 0.434469 0.00713893 0
28 1 0.447343 0.0336199 0
30 1 0.49528 0.0406822 0
898 1 0.461327 0.013197 0
29 1 0.48579 0.0183668 0
59 1 0.471364 0.0414972 0
32 1 0.0283339 0.0593361 0
62 1 0.0201391 0.0836865 0
63 1 0.0454405 0.0771848 0
61 1 0.00435849 0.0657479 0
34 1 0.0536321 0.0532849 0
65 1 0.0701931 0.0709795 0
66 1 0.0877939 0.0883117 0
36 1 0.0951049 0.063963 0
64 1 0.0627406 0.0939816 0
39 1 0.144428 0.0512894 0
38 1 0.119969 0.0578771 0
67 1 0.112518 0.0822173 0
69 1 0.136055 0.0754867 0
68 1 0.129473 0.0995055 0
70 1 0.153655 0.0938032 0
40 1 0.161555 0.0706548 0
71 1 0.178087 0.0870706 0
42 1 0.188007 0.0640316 0
72 1 0.204937 0.0799896 0
73 1 0.21392 0.0574847 0
74 1 0.229419 0.0773002 0
75 1 0.237596 0.0538715 0
106 1 0.2457 0.0964306 0
76 1 0.255231 0.0732465 0
78 1 0.279694 0.0691509 0
109 1 0.295888 0.0887655 0
107 1 0.271954 0.0937722 0
79 1 0.304305 0.0637806 0
80 1 0.320836 0.0830632 0
81 1 0.328004 0.0571012 0
82 1 0.34719 0.0761566 0
83 1 0.371604 0.0665238 0
113 1 0.378396 0.0906956 0
54 1 0.39583 0.0679588 0
56 1 0.417501 0.0556214 0
57 1 0.441766 0.0593072 0
85 1 0.423673 0.0792366 0
87 1 0.446841 0.0846915 0
84 1 0.403101 0.0957788 0
88 1 0.468569 0.0963332 0
58 1 0.465425 0.0671985 0
89 1 0.485476 0.0811966 0
93 1 0.03937 0.100903 0
92 1 0.0298808 0.124251 0
91 1 0.0137355 0.106923 0
121 1 0.00437834 0.13094 0
123 1 0.0484215 0.141406 0
122 1 0.0235283 0.148719 0
94 1 0.055966 0.117445 0
95 1 0.0796545 0.110927 0
125 1 0.072804 0.13565 0
96 1 0.0967611 0.129547 0
97 1 0.10485 0.106793 0
98 1 0.122111 0.123989 0
99 1 0.145697 0.117661 0
129 1 0.138746 0.141522 0
127 1 0.114103 0.148078 0
100 1 0.171004 0.111739 0
130 1 0.16392 0.135838 0
131 1 0.187872 0.12875 0
101 1 0.195966 0.105474 0
103 1 0.220323 0.100015 0
102 1 0.212809 0.124507 0
105 1 0.236627 0.12042 0
104 1 0.229577 0.14251 0
133 1 0.203415 0.147481 0
135 1 0.261823 0.116704 0
137 1 0.280001 0.133155 0
108 1 0.295199 0.11329 0
136 1 0.254919 0.140125 0
111 1 0.337941 0.100469 0
139 1 0.304021 0.137345 0
110 1 0.319556 0.117105 0
141 1 0.344937 0.126055 0
140 1 0.328258 0.143912 0
112 1 0.361828 0.108261 0
114 1 0.386626 0.114925 0
143 1 0.36961 0.133717 0
144 1 0.393857 0.13932 0
86 1 0.427072 0.103439 0
115 1 0.410272 0.120988 0
116 1 0.43311 0.128843 0
145 1 0.417355 0.145855 0
117 1 0.452478 0.113446 0
90 1 0.494013 0.102924 0
118 1 0.458531 0.136293 0
119 1 0.476568 0.119696 0
149 1 0.482998 0.143247 0
153 1 0.0405409 0.167153 0
152 1 0.0158881 0.173578 0
183 1 0.0326048 0.190045 0
1080 1 0.00636741 0.19673 0
124 1 0.0651967 0.159364 0
126 1 0.088422 0.153239 0
155 1 0.0808456 0.178578 0
154 1 0.0580102 0.18428 0
156 1 0.0981985 0.196803 0
128 1 0.129633 0.166514 0
157 1 0.104873 0.172257 0
160 1 0.146879 0.184784 0
158 1 0.122092 0.189977 0
132 1 0.180163 0.154266 0
159 1 0.154222 0.160063 0
161 1 0.171335 0.177975 0
162 1 0.187166 0.195483 0
163 1 0.195868 0.172877 0
134 1 0.219319 0.164517 0
164 1 0.230214 0.185148 0
165 1 0.244611 0.163537 0
166 1 0.25308 0.191028 0
167 1 0.26909 0.17161 0
138 1 0.288807 0.155766 0
168 1 0.295387 0.179359 0
197 1 0.276775 0.195214 0
169 1 0.312465 0.162648 0
171 1 0.336336 0.16856 0
170 1 0.319037 0.186941 0
201 1 0.342038 0.19316 0
142 1 0.352872 0.150533 0
172 1 0.359416 0.175495 0
173 1 0.376945 0.158047 0
174 1 0.383605 0.181936 0
175 1 0.400694 0.165496 0
147 1 0.440991 0.153673 0
146 1 0.424693 0.171379 0
205 1 0.408416 0.188345 0
176 1 0.431602 0.196401 0
177 1 0.448435 0.177443 0
148 1 0.46564 0.159977 0
150 1 0.490977 0.167089 0
179 1 0.47251 0.183868 0
180 1 0.496965 0.19213 0
182 1 0.0237128 0.212087 0
213 1 0.0391094 0.232419 0
211 1 0.0152097 0.238224 0
184 1 0.0481028 0.209107 0
185 1 0.0737029 0.202433 0
186 1 0.0890129 0.220781 0
215 1 0.0646737 0.228214 0
216 1 0.0821914 0.245853 0
187 1 0.115681 0.215484 0
188 1 0.131714 0.241953 0
189 1 0.139121 0.208124 0
217 1 0.106319 0.237485 0
191 1 0.164332 0.205079 0
190 1 0.152686 0.227596 0
192 1 0.193932 0.218428 0
221 1 0.175628 0.235215 0
223 1 0.198714 0.242608 0
193 1 0.211603 0.199935 0
194 1 0.217075 0.225089 0
195 1 0.235502 0.208346 0
225 1 0.240006 0.231824 0
196 1 0.258616 0.214233 0
198 1 0.282949 0.221207 0
227 1 0.264787 0.238104 0
228 1 0.288598 0.245749 0
199 1 0.299991 0.204731 0
200 1 0.324305 0.211777 0
229 1 0.306483 0.22953 0
231 1 0.330042 0.236866 0
202 1 0.349095 0.218149 0
203 1 0.366263 0.199524 0
204 1 0.391033 0.206366 0
233 1 0.373196 0.223693 0
235 1 0.397093 0.230337 0
232 1 0.354253 0.241983 0
234 1 0.379033 0.248652 0
207 1 0.436982 0.220788 0
206 1 0.418757 0.238938 0
237 1 0.443094 0.246273 0
178 1 0.455052 0.20169 0
208 1 0.461014 0.226487 0
209 1 0.47928 0.209641 0
210 1 0.484491 0.233738 0
212 1 0.00666946 0.261872 0
243 1 0.0315203 0.25717 0
242 1 0.023205 0.279685 0
273 1 0.0374337 0.299057 0
244 1 0.0488509 0.277176 0
214 1 0.0556842 0.251053 0
245 1 0.0731343 0.269707 0
247 1 0.0791813 0.292948 0
218 1 0.0970494 0.275827 0
219 1 0.113769 0.259951 0
249 1 0.138312 0.266778 0
248 1 0.121081 0.283526 0
250 1 0.144565 0.290975 0
220 1 0.157192 0.252424 0
222 1 0.18052 0.259283 0
251 1 0.163765 0.276404 0
252 1 0.186297 0.284969 0
224 1 0.221873 0.249586 0
253 1 0.203395 0.266841 0
255 1 0.227082 0.273791 0
254 1 0.209272 0.290806 0
226 1 0.246346 0.255363 0
285 1 0.234351 0.297601 0
256 1 0.251542 0.280477 0
257 1 0.270638 0.263452 0
259 1 0.295258 0.270089 0
258 1 0.275435 0.288243 0
289 1 0.29895 0.294822 0
230 1 0.311929 0.253066 0
260 1 0.318737 0.278158 0
261 1 0.33607 0.260605 0
262 1 0.342183 0.284686 0
263 1 0.360171 0.266859 0
264 1 0.382945 0.273851 0
293 1 0.366185 0.291504 0
295 1 0.389229 0.298666 0
265 1 0.402001 0.257341 0
236 1 0.426196 0.26291 0
266 1 0.407465 0.280188 0
267 1 0.43253 0.286646 0
238 1 0.450559 0.269278 0
239 1 0.466946 0.250801 0
240 1 0.491581 0.256586 0
269 1 0.47596 0.275256 0
268 1 0.456399 0.292678 0
1141 1 0.499067 0.282117 0
270 1 0.480674 0.299214 0
271 1 0.0165557 0.310805 0
272 1 0.0391319 0.323085 0
301 1 0.0194194 0.33555 0
303 1 0.0423625 0.347777 0
275 1 0.0605211 0.308357 0
276 1 0.0833594 0.316315 0
274 1 0.0625045 0.331851 0
305 1 0.086862 0.340839 0
246 1 0.1027 0.300206 0
279 1 0.126382 0.308708 0
277 1 0.106395 0.324913 0
278 1 0.129938 0.333298 0
307 1 0.110454 0.34931 0
280 1 0.149954 0.317159 0
281 1 0.168185 0.300648 0
311 1 0.153396 0.341495 0
283 1 0.192133 0.309118 0
282 1 0.172363 0.32476 0
313 1 0.197025 0.332173 0
312 1 0.17738 0.348444 0
284 1 0.215671 0.315007 0
315 1 0.220749 0.33963 0
286 1 0.238748 0.323136 0
316 1 0.244344 0.3473 0
287 1 0.257644 0.305322 0
288 1 0.280714 0.31376 0
317 1 0.263073 0.331371 0
319 1 0.288192 0.337576 0
291 1 0.323518 0.30329 0
290 1 0.305425 0.32021 0
321 1 0.312773 0.344916 0
292 1 0.330245 0.326785 0
323 1 0.3479 0.309927 0
294 1 0.371578 0.316507 0
324 1 0.354332 0.335127 0
325 1 0.378902 0.340673 0
296 1 0.39564 0.322087 0
326 1 0.402691 0.346788 0
297 1 0.413507 0.304016 0
298 1 0.437869 0.310292 0
327 1 0.420159 0.327358 0
328 1 0.444247 0.334847 0
299 1 0.462223 0.317384 0
300 1 0.487466 0.322955 0
1201 1 0.494626 0.347052 0
329 1 0.469107 0.340304 0
331 1 0.00356246 0.377207 0
302 1 0.0229387 0.361833 0
332 1 0.0285926 0.386749 0
333 1 0.0474147 0.371941 0
334 1 0.0529815 0.396842 0
304 1 0.0665944 0.356623 0
306 1 0.0905693 0.364646 0
335 1 0.0716184 0.381335 0
337 1 0.0966984 0.389327 0
309 1 0.134499 0.356812 0
308 1 0.116036 0.373906 0
339 1 0.139823 0.381955 0
338 1 0.122332 0.398127 0
310 1 0.158581 0.365249 0
341 1 0.164387 0.388977 0
343 1 0.18362 0.372802 0
342 1 0.188595 0.39636 0
314 1 0.201733 0.355982 0
345 1 0.225468 0.364251 0
344 1 0.207734 0.380286 0
375 1 0.230573 0.389166 0
346 1 0.250794 0.372346 0
377 1 0.256615 0.39596 0
318 1 0.269149 0.355249 0
349 1 0.293687 0.362121 0
347 1 0.274954 0.380035 0
350 1 0.299936 0.385832 0
322 1 0.336106 0.350869 0
320 1 0.318313 0.368764 0
351 1 0.342824 0.375714 0
381 1 0.32366 0.393028 0
352 1 0.348739 0.399296 0
353 1 0.360259 0.359525 0
355 1 0.385954 0.365109 0
354 1 0.368337 0.381842 0
385 1 0.393223 0.389191 0
357 1 0.4261 0.352206 0
356 1 0.410431 0.371184 0
387 1 0.433818 0.376992 0
386 1 0.417522 0.394947 0
359 1 0.451976 0.358732 0
358 1 0.45881 0.38308 0
330 1 0.477014 0.364751 0
360 1 0.483126 0.389462 0
361 1 0.00935216 0.402079 0
363 1 0.0338654 0.411349 0
362 1 0.0152528 0.427341 0
364 1 0.0407145 0.436093 0
336 1 0.0786985 0.405647 0
365 1 0.0591905 0.420237 0
395 1 0.0649298 0.444855 0
367 1 0.102742 0.413349 0
366 1 0.107177 0.439177 0
369 1 0.126116 0.422523 0
340 1 0.145186 0.405658 0
368 1 0.132377 0.446803 0
370 1 0.150708 0.429568 0
371 1 0.170373 0.412438 0
401 1 0.17585 0.436886 0
372 1 0.194095 0.420023 0
403 1 0.200879 0.444271 0
373 1 0.212669 0.404105 0
374 1 0.220651 0.428023 0
376 1 0.23808 0.411333 0
405 1 0.244583 0.435934 0
348 1 0.281481 0.403228 0
407 1 0.267682 0.444051 0
378 1 0.262862 0.420106 0
409 1 0.287773 0.428434 0
379 1 0.306609 0.411025 0
380 1 0.312723 0.434497 0
382 1 0.330737 0.417302 0
411 1 0.33655 0.440588 0
413 1 0.354494 0.424005 0
383 1 0.373639 0.406388 0
414 1 0.379451 0.429658 0
384 1 0.399345 0.412728 0
412 1 0.360144 0.449212 0
388 1 0.441979 0.400325 0
415 1 0.403894 0.438014 0
417 1 0.423778 0.418919 0
416 1 0.428651 0.442757 0
419 1 0.44825 0.424774 0
389 1 0.466041 0.405752 0
418 1 0.472 0.431066 0
390 1 0.489881 0.413347 0
420 1 0.49699 0.437287 0
447 1 0.451716 0.449769 0
393 1 0.0202255 0.451471 0
422 1 0.00693274 0.490396 0
423 1 0.0265256 0.476021 0
394 1 0.0449473 0.461107 0
425 1 0.0490679 0.48591 0
392 1 0.0023499 0.466553 0
397 1 0.0880103 0.454888 0
396 1 0.0691799 0.470492 0
426 1 0.0721974 0.494615 0
427 1 0.0919604 0.479367 0
398 1 0.111769 0.463267 0
428 1 0.116681 0.488124 0
429 1 0.137143 0.471819 0
459 1 0.138617 0.496761 0
399 1 0.155792 0.454405 0
400 1 0.18121 0.460091 0
430 1 0.161801 0.480404 0
431 1 0.185691 0.482585 0
404 1 0.226056 0.451641 0
402 1 0.205238 0.467754 0
432 1 0.21044 0.492417 0
433 1 0.230371 0.476175 0
435 1 0.249311 0.460215 0
408 1 0.293194 0.452695 0
436 1 0.253007 0.485118 0
406 1 0.273061 0.467467 0
437 1 0.277029 0.49126 0
439 1 0.298008 0.476824 0
410 1 0.316991 0.458913 0
440 1 0.322512 0.483451 0
441 1 0.339801 0.46551 0
471 1 0.346373 0.490801 0
442 1 0.364929 0.472389 0
473 1 0.389385 0.477786 0
443 1 0.385067 0.453888 0
472 1 0.370757 0.49831 0
477 1 0.440161 0.490302 0
446 1 0.434905 0.466109 0
445 1 0.410579 0.462231 0
444 1 0.415555 0.485584 0
478 1 0.466396 0.495509 0
448 1 0.459275 0.472242 0
449 1 0.476271 0.454824 0
450 1 0.484084 0.47772 0
453 1 0.010832 0.514715 0
452 1 0.0143257 0.539833 0
454 1 0.0335755 0.526196 0
424 1 0.0305763 0.500721 0
485 1 0.0572959 0.535516 0
455 1 0.05292 0.509887 0
456 1 0.075975 0.519497 0
486 1 0.0797238 0.545143 0
457 1 0.0954948 0.504674 0
487 1 0.099645 0.528934 0
458 1 0.118359 0.513397 0
488 1 0.124714 0.539474 0
489 1 0.14372 0.520881 0
461 1 0.190179 0.505278 0
462 1 0.191821 0.528591 0
491 1 0.167885 0.53378 0
460 1 0.165445 0.507264 0
493 1 0.216818 0.539234 0
463 1 0.212568 0.516403 0
464 1 0.23666 0.524274 0
495 1 0.239796 0.548333 0
434 1 0.233625 0.500371 0
466 1 0.260407 0.531893 0
465 1 0.259019 0.508072 0
467 1 0.281618 0.516225 0
497 1 0.284029 0.541637 0
468 1 0.304205 0.526687 0
469 1 0.325352 0.509392 0
499 1 0.331187 0.533453 0
438 1 0.301687 0.500897 0
470 1 0.349636 0.516191 0
503 1 0.380521 0.521395 0
474 1 0.397534 0.501556 0
505 1 0.386235 0.545311 0
501 1 0.360632 0.538776 0
476 1 0.405262 0.527143 0
509 1 0.429044 0.532727 0
475 1 0.422793 0.509251 0
507 1 0.447578 0.514347 0
479 1 0.473856 0.519617 0
480 1 0.454926 0.53818 0
1381 1 0.497279 0.526322 0
510 1 0.478542 0.544617 0
1351 1 0.491033 0.502158 0
483 1 0.0368631 0.549857 0
513 1 0.0164912 0.564514 0
514 1 0.0397984 0.574342 0
512 1 0.0188208 0.588765 0
543 1 0.0425691 0.599624 0
484 1 0.0594255 0.559558 0
515 1 0.0833673 0.569183 0
545 1 0.0623609 0.584866 0
516 1 0.087209 0.594526 0
490 1 0.147719 0.549142 0
517 1 0.103558 0.553594 0
518 1 0.107222 0.579746 0
519 1 0.126607 0.563617 0
549 1 0.12994 0.589051 0
520 1 0.150655 0.574396 0
521 1 0.170125 0.560283 0
492 1 0.194679 0.552559 0
522 1 0.172719 0.586622 0
523 1 0.195441 0.576808 0
494 1 0.218926 0.562755 0
524 1 0.220176 0.587665 0
525 1 0.240681 0.572915 0
555 1 0.241444 0.597202 0
496 1 0.261307 0.557697 0
526 1 0.261727 0.583866 0
527 1 0.284408 0.567923 0
528 1 0.2833 0.592643 0
498 1 0.305982 0.552097 0
529 1 0.307062 0.577667 0
500 1 0.330591 0.563247 0
530 1 0.329579 0.588359 0
531 1 0.35223 0.581711 0
502 1 0.370015 0.563435 0
504 1 0.394109 0.568482 0
533 1 0.377584 0.586756 0
506 1 0.41224 0.551873 0
534 1 0.40228 0.591797 0
535 1 0.419859 0.575018 0
508 1 0.436992 0.556294 0
537 1 0.44376 0.580362 0
536 1 0.426353 0.598098 0
539 1 0.461174 0.562663 0
540 1 0.485364 0.567639 0
538 1 0.467966 0.586005 0
569 1 0.492181 0.591375 0
542 1 0.022179 0.613507 0
571 1 0.0014448 0.629051 0
573 1 0.0238474 0.637999 0
544 1 0.0451953 0.623941 0
574 1 0.0467577 0.647326 0
546 1 0.0669837 0.609023 0
547 1 0.0904022 0.619952 0
575 1 0.0678915 0.633063 0
576 1 0.0915651 0.64489 0
548 1 0.110799 0.604019 0
550 1 0.132108 0.615751 0
577 1 0.112334 0.62972 0
579 1 0.135465 0.63998 0
553 1 0.198439 0.600544 0
551 1 0.152044 0.601737 0
581 1 0.155134 0.625926 0
552 1 0.176241 0.611958 0
582 1 0.178379 0.636238 0
583 1 0.199669 0.62406 0
580 1 0.158053 0.650593 0
554 1 0.220463 0.611619 0
556 1 0.242884 0.621983 0
585 1 0.22157 0.635964 0
586 1 0.242587 0.647418 0
584 1 0.200236 0.649812 0
557 1 0.263209 0.60859 0
587 1 0.264565 0.63268 0
558 1 0.286419 0.617423 0
589 1 0.287237 0.644343 0
559 1 0.306355 0.601113 0
560 1 0.307066 0.628579 0
561 1 0.326727 0.613287 0
591 1 0.328794 0.640207 0
562 1 0.347063 0.62478 0
532 1 0.360306 0.604654 0
563 1 0.384943 0.610174 0
564 1 0.36936 0.630716 0
595 1 0.391612 0.63677 0
593 1 0.352038 0.64812 0
565 1 0.40993 0.616338 0
566 1 0.433162 0.622925 0
596 1 0.415181 0.640502 0
598 1 0.439138 0.647631 0
567 1 0.450309 0.604664 0
597 1 0.456829 0.630321 0
568 1 0.474142 0.611778 0
570 1 0.480411 0.635428 0
1442 1 0.497744 0.614998 0
572 1 0.0038595 0.652949 0
603 1 0.0262354 0.662847 0
602 1 0.00583261 0.676595 0
633 1 0.0294453 0.68735 0
604 1 0.0498611 0.672337 0
605 1 0.0698503 0.658841 0
606 1 0.0743624 0.683741 0
607 1 0.0935075 0.669369 0
637 1 0.0969024 0.694715 0
635 1 0.0532762 0.69663 0
578 1 0.113304 0.654058 0
609 1 0.137159 0.66442 0
608 1 0.115654 0.679714 0
639 1 0.13899 0.689268 0
611 1 0.179643 0.661483 0
610 1 0.159366 0.674419 0
612 1 0.1814 0.68769 0
613 1 0.202296 0.674331 0
615 1 0.221713 0.660443 0
614 1 0.226121 0.685576 0
617 1 0.246455 0.671557 0
616 1 0.248596 0.696227 0
643 1 0.204132 0.698518 0
588 1 0.266823 0.656888 0
619 1 0.289874 0.670829 0
618 1 0.26848 0.682863 0
590 1 0.309169 0.655473 0
621 1 0.315288 0.682214 0
592 1 0.332229 0.665117 0
622 1 0.339353 0.689658 0
623 1 0.356627 0.67157 0
594 1 0.375578 0.654839 0
624 1 0.381872 0.677944 0
653 1 0.365025 0.69566 0
625 1 0.398746 0.659393 0
627 1 0.422611 0.665358 0
626 1 0.405562 0.683591 0
657 1 0.430095 0.689427 0
628 1 0.448265 0.672098 0
599 1 0.463904 0.653221 0
600 1 0.489587 0.65857 0
629 1 0.471823 0.677347 0
630 1 0.495994 0.683165 0
658 1 0.454328 0.696525 0
632 1 0.00807142 0.700014 0
634 1 0.0334729 0.710899 0
663 1 0.0110459 0.725469 0
664 1 0.0364304 0.735321 0
662 1 0.0155143 0.75033 0
636 1 0.0763122 0.707765 0
665 1 0.0564837 0.721963 0
666 1 0.0784841 0.73413 0
695 1 0.0579502 0.747182 0
667 1 0.0987843 0.718878 0
638 1 0.119186 0.704721 0
640 1 0.140433 0.716109 0
669 1 0.119574 0.730446 0
668 1 0.101414 0.744609 0
670 1 0.143561 0.741115 0
641 1 0.160441 0.701313 0
642 1 0.183463 0.712719 0
671 1 0.163099 0.727011 0
673 1 0.186392 0.737085 0
645 1 0.228144 0.709523 0
644 1 0.206585 0.724248 0
675 1 0.227969 0.733989 0
674 1 0.208801 0.748375 0
646 1 0.250015 0.720176 0
647 1 0.270956 0.707036 0
648 1 0.271925 0.730124 0
679 1 0.293096 0.740386 0
649 1 0.294106 0.71477 0
677 1 0.251788 0.745291 0
620 1 0.319689 0.706682 0
651 1 0.346567 0.713013 0
650 1 0.329338 0.730501 0
652 1 0.354276 0.738316 0
655 1 0.388925 0.702209 0
654 1 0.371215 0.72088 0
685 1 0.395414 0.726048 0
683 1 0.379103 0.745002 0
656 1 0.411699 0.708138 0
687 1 0.436412 0.713435 0
686 1 0.419108 0.731772 0
717 1 0.442627 0.738729 0
659 1 0.480123 0.701258 0
689 1 0.461845 0.720487 0
660 1 0.486762 0.726511 0
688 1 0.469582 0.744219 0
694 1 0.0373003 0.761903 0
693 1 0.0169814 0.774927 0
725 1 0.0400969 0.785808 0
697 1 0.0811958 0.75887 0
696 1 0.0609144 0.772541 0
727 1 0.0837269 0.78375 0
726 1 0.0640781 0.797444 0
699 1 0.123309 0.755148 0
698 1 0.102564 0.770232 0
700 1 0.127122 0.780971 0
728 1 0.106195 0.794686 0
701 1 0.146134 0.765698 0
731 1 0.149677 0.794237 0
672 1 0.166222 0.751743 0
703 1 0.188476 0.763091 0
702 1 0.168314 0.777193 0
704 1 0.19098 0.78728 0
676 1 0.231821 0.759934 0
705 1 0.211449 0.773958 0
706 1 0.2336 0.78529 0
735 1 0.213039 0.799377 0
707 1 0.253653 0.770656 0
678 1 0.273611 0.755088 0
709 1 0.276145 0.779877 0
680 1 0.29606 0.765419 0
737 1 0.257074 0.794197 0
710 1 0.299159 0.789611 0
681 1 0.315688 0.751103 0
682 1 0.338372 0.757288 0
711 1 0.319493 0.775529 0
712 1 0.34286 0.782195 0
713 1 0.361391 0.763057 0
714 1 0.386173 0.771062 0
743 1 0.368259 0.788052 0
745 1 0.392614 0.793836 0
684 1 0.402196 0.751273 0
715 1 0.425597 0.756086 0
716 1 0.409536 0.775775 0
747 1 0.433745 0.780814 0
718 1 0.450683 0.762061 0
1591 1 0.50022 0.77537 0
690 1 0.492764 0.751603 0
719 1 0.474957 0.767984 0
720 1 0.482034 0.793647 0
749 1 0.458417 0.787048 0
723 1 0.0211712 0.801305 0
722 1 0.0222555 0.82644 0
724 1 0.0444165 0.809797 0
754 1 0.0455843 0.833813 0
1680 1 0.0021564 0.84202 0
751 1 0.000357438 0.816401 0
757 1 0.08629 0.808097 0
755 1 0.0662966 0.821908 0
756 1 0.087229 0.834755 0
785 1 0.0667903 0.848151 0
729 1 0.128665 0.805741 0
759 1 0.10754 0.819491 0
760 1 0.128918 0.831582 0
758 1 0.106976 0.849211 0
730 1 0.151684 0.819256 0
732 1 0.172259 0.803606 0
761 1 0.151853 0.845142 0
763 1 0.173775 0.832363 0
733 1 0.193218 0.81472 0
764 1 0.195191 0.846927 0
736 1 0.237537 0.809412 0
734 1 0.215687 0.824487 0
767 1 0.239584 0.833635 0
765 1 0.219704 0.849598 0
708 1 0.280787 0.804726 0
738 1 0.259601 0.818861 0
769 1 0.283251 0.828456 0
768 1 0.261416 0.84457 0
741 1 0.326643 0.801781 0
739 1 0.304367 0.81333 0
740 1 0.306996 0.836402 0
771 1 0.33186 0.827628 0
742 1 0.350766 0.808716 0
773 1 0.357767 0.830367 0
744 1 0.375711 0.811533 0
774 1 0.382086 0.835981 0
775 1 0.400764 0.819243 0
746 1 0.416209 0.7998 0
748 1 0.441992 0.805306 0
777 1 0.4248 0.823259 0
776 1 0.404886 0.843353 0
779 1 0.446968 0.830418 0
778 1 0.428688 0.848584 0
750 1 0.465441 0.812483 0
1621 1 0.488539 0.8194 0
780 1 0.471154 0.836522 0
1651 1 0.4964 0.842522 0
753 1 0.0448649 0.856517 0
752 1 0.020271 0.858425 0
783 1 0.0365247 0.878905 0
782 1 0.013626 0.889243 0
784 1 0.0640561 0.87314 0
786 1 0.0802694 0.89043 0
787 1 0.0860473 0.863608 0
815 1 0.0533014 0.89681 0
817 1 0.10451 0.884293 0
789 1 0.130044 0.856171 0
788 1 0.127988 0.880857 0
790 1 0.148596 0.895021 0
791 1 0.151596 0.871166 0
762 1 0.173606 0.859039 0
793 1 0.172472 0.88717 0
795 1 0.19386 0.874233 0
796 1 0.219892 0.87356 0
766 1 0.242374 0.859634 0
825 1 0.237401 0.893869 0
794 1 0.21248 0.898619 0
797 1 0.270936 0.866826 0
827 1 0.261856 0.889397 0
799 1 0.295544 0.859286 0
798 1 0.286943 0.884876 0
772 1 0.344526 0.850845 0
770 1 0.320359 0.855461 0
800 1 0.312149 0.879471 0
801 1 0.336316 0.874804 0
831 1 0.328355 0.897334 0
802 1 0.354433 0.891427 0
803 1 0.362702 0.868681 0
804 1 0.378998 0.885615 0
805 1 0.387689 0.862456 0
807 1 0.40606 0.877404 0
808 1 0.436491 0.872704 0
837 1 0.423219 0.895697 0
809 1 0.454205 0.854765 0
1681 1 0.479021 0.861111 0
1711 1 0.486117 0.884301 0
810 1 0.460684 0.879042 0
813 1 0.0294532 0.905483 0
843 1 0.0242139 0.93004 0
844 1 0.0420498 0.945548 0
812 1 0.00650894 0.913234 0
814 1 0.0484088 0.921411 0
841 1 -0.000447566 0.938432 0
816 1 0.096577 0.908326 0
845 1 0.0725996 0.914004 0
846 1 0.0659959 0.938612 0
847 1 0.0894945 0.931873 0
819 1 0.121422 0.904322 0
818 1 0.115486 0.926969 0
820 1 0.132509 0.944775 0
821 1 0.140035 0.919804 0
792 1 0.166621 0.914165 0
851 1 0.15696 0.938562 0
823 1 0.18961 0.906194 0
822 1 0.183099 0.932255 0
824 1 0.207496 0.923435 0
885 1 0.223113 0.942774 0
855 1 0.231274 0.918571 0
856 1 0.248178 0.937579 0
826 1 0.254691 0.913399 0
857 1 0.271698 0.931661 0
828 1 0.279241 0.908458 0
859 1 0.296347 0.92741 0
829 1 0.303545 0.902641 0
830 1 0.320451 0.920741 0
861 1 0.337357 0.93823 0
832 1 0.34707 0.915078 0
860 1 0.314307 0.945131 0
863 1 0.364454 0.934233 0
833 1 0.370824 0.909986 0
834 1 0.388646 0.927183 0
806 1 0.399159 0.902497 0
835 1 0.415463 0.922192 0
836 1 0.433982 0.942769 0
865 1 0.406641 0.946679 0
838 1 0.451413 0.922544 0
869 1 0.46029 0.94664 0
839 1 0.468311 0.902774 0
840 1 0.476091 0.926142 0
1712 1 0.493686 0.909011 0
842 1 0.0185479 0.953046 0
872 1 0.0258194 0.994943 0
873 1 0.0344527 0.97042 0
871 1 0.00869279 0.976073 0
874 1 0.0518411 0.989333 0
875 1 0.0593066 0.962432 0
876 1 0.076053 0.980652 0
848 1 0.0837252 0.956353 0
7 1 0.0939172 0.998167 0
877 1 0.101437 0.97525 0
849 1 0.107909 0.949818 0
878 1 0.118561 0.992207 0
879 1 0.125778 0.968201 0
881 1 0.142977 0.986102 0
850 1 0.150589 0.962212 0
854 1 0.19987 0.949826 0
853 1 0.174893 0.956002 0
852 1 0.166713 0.9808 0
883 1 0.191521 0.975291 0
882 1 0.18412 0.999511 0
13 1 0.209838 0.99244 0
15 1 0.233555 0.986284 0
884 1 0.216438 0.967385 0
886 1 0.239743 0.961435 0
858 1 0.289931 0.950752 0
887 1 0.265354 0.955926 0
17 1 0.258312 0.980379 0
888 1 0.283196 0.975461 0
19 1 0.300072 0.995333 0
889 1 0.307632 0.970324 0
890 1 0.324373 0.988318 0
891 1 0.330671 0.962756 0
892 1 0.349172 0.982719 0
862 1 0.355378 0.957832 0
864 1 0.381837 0.952799 0
893 1 0.373029 0.975658 0
894 1 0.390038 0.995323 0
895 1 0.39798 0.971001 0
866 1 0.42201 0.967376 0
896 1 0.416918 0.990708 0
867 1 0.445248 0.965951 0
870 1 0.4851 0.950649 0
1771 1 0.494626 0.975391 0
899 1 0.478469 0.993784 0
897 1 0.45224 0.989643 0
868 1 0.469507 0.970521 0
902 1 0.535111 0.0270653 0
901 1 0.51098 0.0206 0
931 1 0.519105 0.0450265 0
903 1 0.52754 0.00288462 0
933 1 0.543376 0.0509487 0
904 1 0.559198 0.0325373 0
906 1 0.576986 0.0141752 0
935 1 0.583376 0.0377127 0
905 1 0.552477 0.0083608 0
908 1 0.601868 0.0199264 0
937 1 0.608323 0.0433601 0
939 1 0.626449 0.0256332 0
910 1 0.643059 0.00783377 0
938 1 0.633501 0.0484594 0
909 1 0.619216 0.00124608 0
941 1 0.650266 0.030616 0
912 1 0.667833 0.0129956 0
942 1 0.6749 0.0366186 0
943 1 0.691327 0.0195168 0
973 1 0.699818 0.0427069 0
944 1 0.716125 0.0249759 0
945 1 0.732137 0.00626928 0
946 1 0.74063 0.0300557 0
975 1 0.723536 0.0486755 0
914 1 0.707327 0.000882378 0
947 1 0.756931 0.0105676 0
948 1 0.764632 0.0339272 0
918 1 0.78241 0.0162232 0
979 1 0.798836 0.0468555 0
949 1 0.80648 0.0231203 0
951 1 0.835072 0.0189845 0
950 1 0.826061 0.0410854 0
921 1 0.819041 0.00155011 0
952 1 0.851145 0.0372153 0
953 1 0.85862 0.0123757 0
924 1 0.884741 0.00665496 0
954 1 0.875901 0.0315085 0
985 1 0.893118 0.0486599 0
925 1 0.908466 0.00097107 0
955 1 0.902052 0.0245067 0
926 1 0.926249 0.0192645 0
957 1 0.944829 0.0371993 0
956 1 0.918562 0.0429251 0
928 1 0.951192 0.0127559 0
959 1 0.968117 0.0307065 0
930 1 0.993701 0.0244352 0
929 1 0.976356 0.00773617 0
960 1 0.98496 0.0480762 0
932 1 0.52743 0.0690297 0
962 1 0.536689 0.092233 0
961 1 0.512021 0.0865877 0
60 1 0.503386 0.064065 0
963 1 0.551701 0.0750173 0
934 1 0.567648 0.0564366 0
965 1 0.576042 0.0799565 0
964 1 0.560089 0.0988758 0
936 1 0.59217 0.0610689 0
966 1 0.600814 0.083854 0
967 1 0.617258 0.0665199 0
968 1 0.624637 0.0904905 0
969 1 0.641454 0.0722609 0
999 1 0.65004 0.0970177 0
940 1 0.658405 0.0541105 0
970 1 0.666869 0.0786355 0
971 1 0.683386 0.0596862 0
972 1 0.69115 0.083474 0
1003 1 0.708576 0.067413 0
1004 1 0.71627 0.0906974 0
974 1 0.732446 0.0720779 0
1005 1 0.741401 0.0950219 0
976 1 0.749538 0.0538226 0
1007 1 0.758288 0.0756537 0
977 1 0.775101 0.0568602 0
978 1 0.793652 0.0713151 0
1008 1 0.787926 0.0954589 0
980 1 0.816956 0.0651493 0
981 1 0.841911 0.0605597 0
1009 1 0.811884 0.089279 0
1011 1 0.835857 0.0843203 0
982 1 0.860085 0.0784503 0
983 1 0.867602 0.056173 0
984 1 0.885812 0.0733627 0
1013 1 0.876431 0.0959425 0
1015 1 0.902477 0.0919181 0
986 1 0.910021 0.0669923 0
987 1 0.934945 0.0604338 0
1017 1 0.927908 0.0833354 0
988 1 0.954367 0.0776455 0
958 1 0.961352 0.0546762 0
989 1 0.978986 0.0718114 0
990 1 0.994957 0.090829 0
1019 1 0.970422 0.096999 0
120 1 0.501915 0.126776 0
991 1 0.519503 0.109767 0
992 1 0.525486 0.133887 0
993 1 0.543218 0.116526 0
1023 1 0.549312 0.140911 0
995 1 0.583981 0.103274 0
994 1 0.565915 0.122645 0
996 1 0.590289 0.127421 0
1025 1 0.573285 0.145797 0
997 1 0.607479 0.109352 0
998 1 0.632427 0.11433 0
1027 1 0.615434 0.133525 0
1029 1 0.63962 0.138824 0
1001 1 0.675198 0.102583 0
1000 1 0.657253 0.121588 0
1031 1 0.681556 0.127563 0
1030 1 0.663752 0.145733 0
1002 1 0.699618 0.109193 0
1033 1 0.707533 0.133429 0
1035 1 0.723789 0.114192 0
1034 1 0.731382 0.138302 0
1036 1 0.749666 0.120864 0
1006 1 0.764149 0.100998 0
1037 1 0.777675 0.122535 0
1038 1 0.794955 0.138313 0
1067 1 0.770143 0.144778 0
1039 1 0.803064 0.114224 0
1010 1 0.827928 0.108528 0
1040 1 0.820456 0.131719 0
1041 1 0.844956 0.126462 0
1012 1 0.851746 0.101624 0
1043 1 0.87011 0.120212 0
1014 1 0.894116 0.113938 0
1044 1 0.886655 0.137427 0
1042 1 0.862212 0.144951 0
1018 1 0.944126 0.100841 0
1045 1 0.912432 0.131338 0
1016 1 0.920395 0.108461 0
1047 1 0.937816 0.12568 0
1049 1 0.963714 0.119913 0
1020 1 0.988746 0.114135 0
1050 1 0.98101 0.137853 0
1046 1 0.955286 0.143232 0
1021 1 0.508393 0.150536 0
1022 1 0.532213 0.157211 0
1053 1 0.539189 0.180592 0
1051 1 0.514308 0.174733 0
1052 1 0.520667 0.198644 0
1026 1 0.598605 0.151501 0
1024 1 0.55774 0.163904 0
1055 1 0.581554 0.169793 0
1054 1 0.562005 0.186787 0
1056 1 0.58652 0.193466 0
1028 1 0.623398 0.157557 0
1057 1 0.605139 0.174735 0
1058 1 0.628508 0.181791 0
1059 1 0.647035 0.164097 0
1087 1 0.611962 0.19916 0
1032 1 0.68956 0.151286 0
1060 1 0.654278 0.186797 0
1061 1 0.671729 0.168574 0
1091 1 0.678918 0.192799 0
1062 1 0.6975 0.175594 0
1063 1 0.71481 0.157216 0
1064 1 0.721763 0.18162 0
1095 1 0.747106 0.186413 0
1065 1 0.740421 0.162152 0
1093 1 0.704313 0.199639 0
1066 1 0.764308 0.168195 0
1068 1 0.788369 0.163455 0
1097 1 0.780839 0.187879 0
1071 1 0.838048 0.150004 0
1069 1 0.811701 0.156839 0
1070 1 0.831053 0.174238 0
1099 1 0.805889 0.18096 0
1101 1 0.848394 0.192601 0
1100 1 0.823557 0.198255 0
1072 1 0.855274 0.168918 0
1073 1 0.879421 0.162797 0
1103 1 0.87192 0.187063 0
1074 1 0.896175 0.180876 0
1077 1 0.928903 0.149502 0
1075 1 0.90374 0.155005 0
1076 1 0.920612 0.173402 0
1107 1 0.939148 0.191033 0
1078 1 0.945686 0.166935 0
1105 1 0.914267 0.197367 0
1048 1 0.971561 0.161532 0
151 1 0.998443 0.155254 0
1079 1 0.990043 0.178613 0
1109 1 0.964291 0.184776 0
1083 1 0.545399 0.203906 0
1082 1 0.527706 0.222081 0
1111 1 0.509773 0.239673 0
1113 1 0.534502 0.246216 0
1081 1 0.502661 0.215753 0
1084 1 0.551285 0.228587 0
1085 1 0.568838 0.210578 0
1086 1 0.59422 0.21745 0
1115 1 0.576596 0.233833 0
1117 1 0.601871 0.240543 0
1089 1 0.636534 0.205738 0
1088 1 0.618699 0.223068 0
1119 1 0.645936 0.228885 0
1118 1 0.627389 0.246708 0
1090 1 0.662716 0.211004 0
1092 1 0.686248 0.216397 0
1121 1 0.669642 0.235427 0
1122 1 0.693166 0.240563 0
1094 1 0.728223 0.205599 0
1123 1 0.710899 0.222932 0
1124 1 0.717558 0.247783 0
1125 1 0.735301 0.229068 0
1096 1 0.752864 0.210541 0
1127 1 0.778077 0.214652 0
1126 1 0.761643 0.23282 0
1128 1 0.784593 0.240827 0
1098 1 0.799926 0.206632 0
1131 1 0.840743 0.217036 0
1129 1 0.817082 0.224077 0
1130 1 0.835305 0.242075 0
1159 1 0.810176 0.248171 0
1102 1 0.865463 0.211412 0
1104 1 0.88955 0.20435 0
1132 1 0.859039 0.234996 0
1133 1 0.885211 0.229245 0
1134 1 0.901918 0.247345 0
1135 1 0.909223 0.222271 0
1106 1 0.932784 0.215535 0
1136 1 0.927003 0.24047 0
1137 1 0.949945 0.233416 0
1108 1 0.956689 0.20897 0
1110 1 0.980941 0.202367 0
1139 1 0.973595 0.226209 0
1140 1 0.990238 0.243321 0
181 1 0.997875 0.219882 0
1112 1 0.516277 0.26338 0
1143 1 0.541508 0.269942 0
1142 1 0.524228 0.286799 0
1144 1 0.547848 0.293613 0
1114 1 0.559711 0.25131 0
1116 1 0.583641 0.257517 0
1145 1 0.565329 0.276606 0
1146 1 0.589884 0.282497 0
1147 1 0.609692 0.263912 0
1149 1 0.633604 0.270747 0
1148 1 0.613522 0.288437 0
1179 1 0.639697 0.295007 0
1120 1 0.652383 0.253025 0
1151 1 0.676183 0.259654 0
1150 1 0.657936 0.277296 0