ITEM: TIMESTEP
10000
ITEM: NUMBER OF ATOMS
1800
ITEM: BOX BOUNDS pp pp pp
1.2687603613227623e+00 1.5713123963867648e+02
1.2687603613227623e+00 1.5713123963867648e+02
0.0000000000000000e+00 5.2800000000000002e+00
ITEM: ATOMS id type xs ys zs
2 1 0.0100741 0.0166442 0
3 1 0.0355775 0.011018 0
33 1 0.0286059 0.0346885 0
31 1 0.00222386 0.0401889 0
4 1 0.0543887 0.0271626 0
6 1 0.0779573 0.0218693 0
5 1 0.0600533 0.00394522 0
8 1 0.104547 0.01981 0
9 1 0.124511 0.034567 0
37 1 0.0965378 0.0419373 0
10 1 0.150944 0.0314292 0
41 1 0.175837 0.0323929 0
11 1 0.163972 0.00994795 0
880 1 0.137517 0.0117191 0
12 1 0.186985 0.0101257 0
14 1 0.211558 0.0130163 0
43 1 0.199023 0.0337556 0
44 1 0.224596 0.0339253 0
16 1 0.256632 0.00634123 0
45 1 0.235371 0.0138164 0
46 1 0.248352 0.0332486 0
47 1 0.27079 0.0254187 0
1231 1 0.498884 0.37218 0
49 1 0.295515 0.017968 0
50 1 0.31447 0.0368233 0
20 1 0.319972 0.0128843 0
22 1 0.35908 0.0245839 0
51 1 0.3365 0.030076 0
21 1 0.343936 0.00622003 0
24 1 0.381939 0.0229943 0
55 1 0.399056 0.0383366 0
25 1 0.407914 0.0144448 0
26 1 0.431384 0.0331063 0
27 1 0.431598 0.00876061 0
28 1 0.459478 0.0369669 0
448 1 0.460421 0.493851 0
59 1 0.48329 0.0447633 0
29 1 0.47861 0.0195567 0
900 1 0.496381 0.00491097 0
898 1 0.457328 0.00321663 0
32 1 0.0207326 0.0578815 0
62 1 0.0161916 0.0798068 0
63 1 0.0405136 0.0746265 0
34 1 0.0475075 0.0522934 0
35 1 0.0714559 0.0456231 0
36 1 0.086823 0.0630401 0
65 1 0.063601 0.0693762 0
66 1 0.0813902 0.0861329 0
38 1 0.116255 0.057412 0
67 1 0.10544 0.0790287 0
69 1 0.13061 0.0765682 0
39 1 0.141555 0.0548949 0
40 1 0.163973 0.0535005 0
71 1 0.170639 0.0801229 0
42 1 0.187664 0.055898 0
72 1 0.201725 0.0760669 0
73 1 0.21401 0.0547612 0
74 1 0.225585 0.075491 0
75 1 0.239132 0.0560882 0
76 1 0.258285 0.0729111 0
77 1 0.264613 0.0483591 0
48 1 0.287814 0.0419611 0
78 1 0.281329 0.0674945 0
79 1 0.305057 0.0607719 0
109 1 0.29715 0.0852323 0
80 1 0.321309 0.0791441 0
52 1 0.351869 0.0507466 0
81 1 0.329409 0.0554423 0
82 1 0.345519 0.0736358 0
53 1 0.376155 0.0453032 0
54 1 0.394857 0.0626764 0
83 1 0.369188 0.0703645 0
84 1 0.406778 0.0866592 0
57 1 0.442197 0.0556254 0
56 1 0.417081 0.0518961 0
85 1 0.425596 0.0718425 0
87 1 0.448795 0.0789584 0
88 1 0.471074 0.0898995 0
58 1 0.466905 0.0614226 0
89 1 0.488326 0.0708359 0
93 1 0.0287003 0.102177 0
92 1 0.0180855 0.124998 0
94 1 0.0439889 0.118768 0
64 1 0.0530453 0.0948162 0
95 1 0.0695539 0.111316 0
125 1 0.0618414 0.134432 0
96 1 0.0880553 0.126618 0
68 1 0.120042 0.098918 0
97 1 0.0964063 0.103914 0
98 1 0.11376 0.122608 0
70 1 0.148443 0.0924946 0
99 1 0.13849 0.116117 0
100 1 0.163959 0.109569 0
131 1 0.183754 0.121713 0
130 1 0.155425 0.132329 0
103 1 0.208479 0.0998616 0
101 1 0.18551 0.0978034 0
102 1 0.209455 0.122007 0
105 1 0.234624 0.113775 0
106 1 0.242499 0.0914462 0
135 1 0.258385 0.115297 0
107 1 0.274135 0.0931769 0
137 1 0.283795 0.117643 0
108 1 0.305819 0.109407 0
139 1 0.306726 0.133991 0
110 1 0.326226 0.118362 0
111 1 0.340979 0.0981069 0
141 1 0.34879 0.126054 0
112 1 0.364363 0.104662 0
113 1 0.382635 0.0887188 0
114 1 0.389641 0.115778 0
143 1 0.37205 0.133217 0
115 1 0.412025 0.112033 0
145 1 0.415459 0.136809 0
86 1 0.428984 0.0953762 0
116 1 0.436178 0.122093 0
117 1 0.452514 0.103544 0
90 1 0.494163 0.0936528 0
118 1 0.458397 0.128306 0
119 1 0.477606 0.111288 0
149 1 0.482747 0.137886 0
450 1 0.486882 0.487766 0
123 1 0.0367511 0.14139 0
122 1 0.0140774 0.14954 0
153 1 0.0318527 0.164793 0
152 1 0.00995289 0.173202 0
124 1 0.0566225 0.15647 0
126 1 0.0824103 0.148946 0
155 1 0.0721419 0.175045 0
154 1 0.0493039 0.182923 0
129 1 0.131409 0.139529 0
127 1 0.105468 0.144248 0
128 1 0.121437 0.162142 0
157 1 0.0977965 0.167683 0
159 1 0.146727 0.157469 0
161 1 0.163218 0.174516 0
132 1 0.172805 0.152014 0
160 1 0.139197 0.17983 0
133 1 0.195092 0.142952 0
134 1 0.215232 0.155562 0
163 1 0.192701 0.167447 0
164 1 0.222697 0.179431 0
104 1 0.235179 0.140018 0
136 1 0.260126 0.139619 0
165 1 0.240529 0.161762 0
167 1 0.269151 0.165215 0
138 1 0.284295 0.142033 0
169 1 0.312104 0.157144 0
168 1 0.292624 0.171821 0
170 1 0.31461 0.182471 0
140 1 0.330459 0.141767 0
142 1 0.352682 0.1498 0
171 1 0.332944 0.165019 0
172 1 0.355398 0.175507 0
144 1 0.393619 0.143841 0
173 1 0.375965 0.160571 0
175 1 0.397119 0.169383 0
147 1 0.441239 0.146487 0
146 1 0.42123 0.161085 0
177 1 0.444107 0.170998 0
148 1 0.4653 0.154045 0
150 1 0.488078 0.161876 0
179 1 0.468884 0.178941 0
182 1 0.0215039 0.214849 0
183 1 0.025876 0.18994 0
184 1 0.0439826 0.208642 0
185 1 0.0696732 0.199538 0
186 1 0.0861243 0.215311 0
215 1 0.0626797 0.223005 0
156 1 0.090661 0.190242 0
158 1 0.114889 0.18422 0
187 1 0.109528 0.205823 0
189 1 0.134286 0.202695 0
188 1 0.123767 0.223995 0
190 1 0.15202 0.222869 0
191 1 0.158929 0.199457 0
162 1 0.182507 0.190743 0
192 1 0.187219 0.214509 0
193 1 0.207101 0.196549 0
194 1 0.212812 0.219613 0
166 1 0.247499 0.185934 0
195 1 0.228873 0.203347 0
196 1 0.251636 0.209728 0
197 1 0.270795 0.189811 0
225 1 0.234811 0.227293 0
198 1 0.275215 0.21376 0
199 1 0.295234 0.195692 0
229 1 0.299299 0.219593 0
200 1 0.319203 0.207119 0
201 1 0.337699 0.191329 0
202 1 0.3413 0.221639 0
203 1 0.359193 0.200501 0
233 1 0.366564 0.224592 0
174 1 0.377554 0.185243 0
204 1 0.383257 0.208406 0
205 1 0.40256 0.194137 0
176 1 0.425633 0.185473 0
178 1 0.448965 0.195442 0
207 1 0.431127 0.212935 0
208 1 0.455625 0.218803 0
180 1 0.49317 0.185758 0
209 1 0.475683 0.203443 0
1081 1 0.499456 0.208853 0
212 1 0.00724589 0.262352 0
213 1 0.0392955 0.231929 0
243 1 0.0323322 0.257663 0
211 1 0.0165574 0.238618 0
214 1 0.0539228 0.248902 0
216 1 0.0773489 0.241253 0
245 1 0.0718049 0.266345 0
244 1 0.0483224 0.274204 0
217 1 0.101933 0.233503 0
218 1 0.116859 0.25144 0
247 1 0.0935871 0.259515 0
219 1 0.137279 0.242173 0
221 1 0.175145 0.234016 0
249 1 0.137153 0.264673 0
220 1 0.159003 0.25142 0
222 1 0.182316 0.258706 0
223 1 0.197635 0.23746 0
224 1 0.219755 0.245611 0
253 1 0.206089 0.263757 0
255 1 0.228537 0.26832 0
226 1 0.242972 0.251182 0
227 1 0.258699 0.233128 0
257 1 0.266522 0.257648 0
228 1 0.281189 0.238368 0
230 1 0.305476 0.241763 0
259 1 0.289911 0.260971 0
260 1 0.313739 0.2649 0
231 1 0.328611 0.245649 0
232 1 0.351926 0.243802 0
261 1 0.336891 0.268725 0
263 1 0.361366 0.266773 0
234 1 0.375518 0.248653 0
235 1 0.392289 0.230082 0
265 1 0.404621 0.252777 0
264 1 0.386606 0.270295 0
206 1 0.418855 0.232036 0
236 1 0.427498 0.258545 0
237 1 0.443598 0.240607 0
238 1 0.452022 0.265442 0
210 1 0.485994 0.229351 0
239 1 0.468052 0.247102 0
240 1 0.491904 0.256325 0
269 1 0.47401 0.273877 0
271 1 0.00529066 0.30811 0
242 1 0.0239346 0.28324 0
272 1 0.0273033 0.315512 0
273 1 0.0447878 0.298109 0
275 1 0.0666639 0.289147 0
276 1 0.0757094 0.311056 0
274 1 0.0552974 0.319597 0
246 1 0.0904452 0.288116 0
248 1 0.114203 0.275733 0
277 1 0.102391 0.309785 0
279 1 0.124135 0.300633 0
251 1 0.162537 0.274037 0
250 1 0.143757 0.287031 0
280 1 0.150859 0.311231 0
281 1 0.169252 0.297192 0
252 1 0.187962 0.281148 0
254 1 0.212649 0.286875 0
283 1 0.193071 0.305129 0
284 1 0.215961 0.312816 0
256 1 0.25047 0.27625 0
285 1 0.233547 0.296994 0
287 1 0.257187 0.300748 0
258 1 0.273261 0.281794 0
288 1 0.281842 0.304163 0
289 1 0.297397 0.283256 0
290 1 0.304013 0.307886 0
262 1 0.345391 0.291458 0
291 1 0.321174 0.28706 0
292 1 0.327902 0.311052 0
323 1 0.35048 0.316747 0
293 1 0.369578 0.288868 0
295 1 0.391564 0.29472 0
294 1 0.376049 0.312156 0
296 1 0.399021 0.316757 0
266 1 0.409638 0.275691 0
267 1 0.433132 0.282949 0
297 1 0.417751 0.300148 0
298 1 0.439982 0.305972 0
268 1 0.456174 0.28896 0
270 1 0.478506 0.29742 0
299 1 0.462208 0.314902 0
1141 1 0.496495 0.280756 0
302 1 0.020497 0.354639 0
303 1 0.0388879 0.337285 0
301 1 0.010613 0.332938 0
333 1 0.04274 0.361829 0
304 1 0.0628167 0.341609 0
305 1 0.0850924 0.332014 0
306 1 0.0883553 0.354621 0
278 1 0.130826 0.323997 0
307 1 0.112202 0.33975 0
309 1 0.133897 0.3482 0
310 1 0.156216 0.357593 0
311 1 0.154123 0.333997 0
312 1 0.176819 0.344034 0
282 1 0.174048 0.320177 0
313 1 0.196226 0.329241 0
314 1 0.199558 0.353831 0
315 1 0.224571 0.338192 0
345 1 0.222875 0.362332 0
286 1 0.239873 0.318525 0
316 1 0.247194 0.350629 0
317 1 0.263863 0.32197 0
318 1 0.270546 0.346188 0
319 1 0.290937 0.33094 0
349 1 0.289639 0.36258 0
320 1 0.311629 0.35515 0
321 1 0.313672 0.331419 0
322 1 0.334819 0.342823 0
353 1 0.355109 0.361695 0
324 1 0.360126 0.338934 0
325 1 0.383821 0.33598 0
355 1 0.378815 0.359024 0
326 1 0.408003 0.341439 0
327 1 0.422547 0.32235 0
328 1 0.446326 0.334019 0
359 1 0.453248 0.359689 0
300 1 0.486159 0.319231 0
1201 1 0.495444 0.346848 0
329 1 0.469261 0.33847 0
330 1 0.476743 0.361525 0
332 1 0.0260761 0.377189 0
363 1 0.0355537 0.403487 0
361 1 0.0124923 0.396925 0
331 1 0.00230064 0.372073 0
335 1 0.0672661 0.369544 0
334 1 0.0509841 0.386485 0
336 1 0.0741703 0.390931 0
365 1 0.0586364 0.411477 0
308 1 0.110928 0.362224 0
337 1 0.0926921 0.377164 0
338 1 0.117327 0.386372 0
367 1 0.0975899 0.401291 0
339 1 0.138549 0.371813 0
340 1 0.139519 0.397565 0
341 1 0.160431 0.384582 0
371 1 0.16465 0.406946 0
343 1 0.179609 0.370012 0
342 1 0.185528 0.391836 0
344 1 0.203574 0.377167 0
375 1 0.224055 0.389698 0
373 1 0.205115 0.404408 0
347 1 0.266505 0.369829 0
346 1 0.244109 0.376807 0
377 1 0.262455 0.394643 0
376 1 0.240996 0.406335 0
348 1 0.285421 0.386359 0
350 1 0.309973 0.378305 0
379 1 0.304706 0.402402 0
351 1 0.333297 0.370003 0
352 1 0.351631 0.389625 0
381 1 0.328709 0.393559 0
354 1 0.37763 0.383754 0
383 1 0.369403 0.408755 0
385 1 0.395445 0.399411 0
356 1 0.399084 0.373123 0
357 1 0.426928 0.365566 0
358 1 0.441933 0.384992 0
387 1 0.417841 0.389511 0
1261 1 0.484912 0.396799 0
360 1 0.465378 0.381854 0
389 1 0.461131 0.405625 0
362 1 0.0197599 0.421017 0
393 1 0.0241714 0.446384 0
364 1 0.0417312 0.429041 0
391 1 0.00243994 0.438587 0
394 1 0.0522574 0.452773 0
395 1 0.0712606 0.432347 0
369 1 0.120309 0.411127 0
366 1 0.0939049 0.424412 0
368 1 0.119214 0.434775 0
397 1 0.0980342 0.448097 0
399 1 0.143631 0.44562 0
370 1 0.143518 0.421553 0
400 1 0.165777 0.455554 0
401 1 0.164709 0.431664 0
372 1 0.184887 0.42108 0
403 1 0.20293 0.439808 0
374 1 0.221313 0.424709 0
404 1 0.229217 0.447095 0
405 1 0.246729 0.429461 0
406 1 0.260062 0.453663 0
407 1 0.271247 0.430464 0
378 1 0.280596 0.40985 0
408 1 0.289092 0.450407 0
409 1 0.297115 0.426849 0
410 1 0.312523 0.448571 0
382 1 0.343667 0.411815 0
380 1 0.319884 0.421079 0
411 1 0.338862 0.436747 0
413 1 0.362977 0.430267 0
384 1 0.388851 0.421904 0
414 1 0.383146 0.44679 0
415 1 0.406423 0.439523 0
386 1 0.413068 0.415339 0
388 1 0.435676 0.40854 0
417 1 0.430149 0.434948 0
418 1 0.449841 0.452426 0
419 1 0.454551 0.429941 0
1291 1 0.49537 0.44051 0
390 1 0.478411 0.42257 0
420 1 0.473422 0.448944 0
392 1 0.0103825 0.465444 0
422 1 0.016313 0.488352 0
423 1 0.0339047 0.472039 0
424 1 0.0390809 0.497095 0
396 1 0.0784482 0.462067 0
425 1 0.0596069 0.479693 0
426 1 0.0831608 0.488243 0
457 1 0.106033 0.496702 0
398 1 0.120173 0.458089 0
427 1 0.100063 0.472118 0
428 1 0.126454 0.482949 0
429 1 0.145793 0.469144 0
430 1 0.153919 0.490539 0
431 1 0.173302 0.477328 0
461 1 0.178357 0.499903 0
402 1 0.188919 0.459151 0
432 1 0.196224 0.481433 0
433 1 0.212082 0.46274 0
434 1 0.222458 0.490887 0
435 1 0.235649 0.469533 0
436 1 0.255571 0.479646 0
465 1 0.247062 0.500882 0
437 1 0.277743 0.476918 0
438 1 0.294462 0.494912 0
439 1 0.301158 0.470853 0
412 1 0.359441 0.454429 0
471 1 0.341424 0.496779 0
442 1 0.353257 0.477881 0
441 1 0.336099 0.461942 0
440 1 0.321654 0.48343 0
473 1 0.372523 0.492802 0
443 1 0.377886 0.469335 0
445 1 0.404498 0.46419 0
444 1 0.395762 0.487246 0
446 1 0.421708 0.483134 0
416 1 0.426372 0.458547 0
447 1 0.444496 0.475767 0
1321 1 0.491018 0.464893 0
449 1 0.466858 0.471264 0
241 1 -0.000679556 0.284485 0
7 1 0.0880678 6.52036e-05 0
452 1 0.0263125 0.545722 0
453 1 0.0220146 0.513303 0
451 1 -0.000849961 0.504731 0
481 1 0.00481002 0.531767 0
454 1 0.0458763 0.52059 0
483 1 0.0494144 0.545284 0
456 1 0.0895141 0.512464 0
485 1 0.0710957 0.528207 0
455 1 0.0651047 0.506174 0
458 1 0.115296 0.51917 0
459 1 0.133071 0.504642 0
487 1 0.0953368 0.536059 0
488 1 0.119936 0.543577 0
489 1 0.138137 0.527983 0
460 1 0.158095 0.514563 0
491 1 0.162747 0.538314 0
462 1 0.181024 0.523643 0
464 1 0.226716 0.514676 0
493 1 0.207225 0.529594 0
463 1 0.202252 0.506409 0
466 1 0.250117 0.524769 0
495 1 0.231564 0.538819 0
467 1 0.273071 0.502072 0
497 1 0.274181 0.535132 0
468 1 0.29483 0.521226 0
498 1 0.298072 0.544513 0
469 1 0.314969 0.508097 0
499 1 0.321657 0.537301 0
470 1 0.339333 0.52291 0
472 1 0.358478 0.511558 0
474 1 0.381342 0.517676 0
503 1 0.361885 0.533678 0
476 1 0.4067 0.528199 0
505 1 0.385756 0.541133 0
475 1 0.411815 0.504774 0
507 1 0.429055 0.522908 0
477 1 0.438023 0.500098 0
509 1 0.448392 0.542152 0
478 1 0.455193 0.516623 0
479 1 0.480061 0.511203 0
480 1 0.471881 0.536264 0
1381 1 0.494253 0.531907 0
482 1 0.00500269 0.556589 0
513 1 0.0241098 0.572022 0
514 1 0.0442707 0.583327 0
511 1 0.00390956 0.583227 0
486 1 0.078911 0.551059 0
484 1 0.0602137 0.566758 0
515 1 0.0832706 0.576003 0
517 1 0.10182 0.558362 0
518 1 0.10537 0.582873 0
519 1 0.124597 0.568779 0
490 1 0.144918 0.55481 0
520 1 0.14899 0.577759 0
521 1 0.168803 0.562631 0
522 1 0.172676 0.586328 0
492 1 0.189242 0.546954 0
494 1 0.210436 0.557696 0
523 1 0.191807 0.571286 0
524 1 0.215498 0.581559 0
496 1 0.253291 0.550252 0
525 1 0.233693 0.565892 0
526 1 0.257274 0.574946 0
555 1 0.238218 0.590517 0
527 1 0.275873 0.558677 0
528 1 0.280316 0.583411 0
529 1 0.300753 0.569855 0
501 1 0.343837 0.547642 0
500 1 0.324578 0.562208 0
530 1 0.326345 0.585705 0
531 1 0.347168 0.570982 0
502 1 0.366253 0.557736 0
504 1 0.3928 0.564197 0
533 1 0.371444 0.582024 0
535 1 0.415444 0.575591 0
506 1 0.412711 0.550565 0
508 1 0.436772 0.561634 0
537 1 0.438934 0.586727 0
510 1 0.487502 0.554256 0
539 1 0.458266 0.57166 0
540 1 0.482185 0.582235 0
512 1 0.0243241 0.596196 0
541 1 0.00359486 0.607968 0
542 1 0.0264981 0.620566 0
571 1 0.00770055 0.636239 0
545 1 0.0668805 0.592509 0
543 1 0.0466704 0.606426 0
516 1 0.0894525 0.598856 0
544 1 0.0490052 0.631191 0
546 1 0.0682393 0.616842 0
547 1 0.0916124 0.62256 0
548 1 0.110981 0.60804 0
577 1 0.115802 0.632617 0
549 1 0.129172 0.591375 0
550 1 0.135352 0.615658 0
551 1 0.153687 0.600457 0
581 1 0.158776 0.62606 0
552 1 0.176954 0.610279 0
582 1 0.181447 0.633576 0
553 1 0.196193 0.595472 0
554 1 0.218382 0.605192 0
583 1 0.2008 0.620059 0
585 1 0.223723 0.628553 0
556 1 0.24135 0.613788 0
557 1 0.260947 0.600063 0
587 1 0.266109 0.626154 0
559 1 0.303712 0.593071 0
558 1 0.284502 0.609668 0
560 1 0.307979 0.616026 0
589 1 0.291954 0.633398 0
532 1 0.350444 0.594968 0
561 1 0.332096 0.60943 0
562 1 0.355578 0.620437 0
591 1 0.33362 0.632897 0
534 1 0.392792 0.589555 0
563 1 0.37235 0.606035 0
564 1 0.377267 0.630015 0
565 1 0.396947 0.615413 0
536 1 0.416387 0.599872 0
566 1 0.420865 0.623909 0
567 1 0.443054 0.611775 0
597 1 0.444351 0.636761 0
538 1 0.462682 0.598536 0
568 1 0.464557 0.622512 0
569 1 0.485089 0.611286 0
570 1 0.48864 0.633849 0
573 1 0.0296724 0.64476 0
572 1 0.00945719 0.661502 0
603 1 0.0324917 0.669063 0
575 1 0.0726084 0.640374 0
574 1 0.0531481 0.654463 0
605 1 0.0758816 0.664544 0
604 1 0.0570373 0.680241 0
576 1 0.0951954 0.648532 0
578 1 0.11891 0.657348 0
607 1 0.0973242 0.673002 0
608 1 0.119117 0.679754 0
579 1 0.138264 0.641024 0
609 1 0.141607 0.663921 0
580 1 0.160129 0.649621 0
610 1 0.16273 0.674091 0
611 1 0.183001 0.657971 0
584 1 0.202334 0.644648 0
613 1 0.206207 0.670213 0
615 1 0.225184 0.652632 0
586 1 0.246345 0.638429 0
614 1 0.227925 0.677467 0
617 1 0.251541 0.664447 0
588 1 0.269801 0.648945 0
618 1 0.275063 0.673119 0
590 1 0.312474 0.644248 0
619 1 0.291528 0.65653 0
621 1 0.31502 0.669968 0
593 1 0.358164 0.643742 0
592 1 0.334203 0.656521 0
623 1 0.3565 0.666492 0
595 1 0.399898 0.63864 0
594 1 0.380734 0.653203 0
625 1 0.40313 0.663596 0
624 1 0.378739 0.67678 0
596 1 0.423189 0.649257 0
598 1 0.447945 0.661392 0
627 1 0.424742 0.674 0
599 1 0.468218 0.647136 0
600 1 0.492694 0.660745 0
629 1 0.4725 0.679167 0
602 1 0.00968208 0.684394 0
632 1 0.013588 0.709083 0
633 1 0.0367917 0.694767 0
634 1 0.0385883 0.718751 0
606 1 0.0784053 0.688299 0
635 1 0.0591633 0.704121 0
636 1 0.0808977 0.712553 0
665 1 0.0620903 0.728351 0
637 1 0.101167 0.695061 0
638 1 0.122432 0.704254 0
667 1 0.103756 0.719655 0
639 1 0.14205 0.687745 0
640 1 0.145743 0.713824 0
641 1 0.166509 0.697465 0
671 1 0.17053 0.721914 0
612 1 0.185299 0.681887 0
642 1 0.188039 0.706463 0
643 1 0.208993 0.693514 0
644 1 0.212575 0.717457 0
616 1 0.25285 0.687367 0
645 1 0.231896 0.702984 0
646 1 0.254416 0.711687 0
675 1 0.235597 0.727662 0
647 1 0.274468 0.696352 0
648 1 0.277387 0.72438 0
649 1 0.299053 0.711475 0
620 1 0.317099 0.695163 0
622 1 0.338609 0.682097 0
650 1 0.32056 0.721169 0
651 1 0.339445 0.706857 0
653 1 0.361054 0.691891 0
654 1 0.363238 0.716174 0
655 1 0.383026 0.6999 0
626 1 0.402372 0.68675 0
685 1 0.385855 0.727103 0
656 1 0.405 0.710551 0
628 1 0.448195 0.684616 0
657 1 0.427995 0.697728 0
687 1 0.431361 0.724541 0
658 1 0.452175 0.70924 0
630 1 0.494989 0.691182 0
659 1 0.474964 0.703241 0
899 1 0.480221 0.988587 0
662 1 0.0197342 0.755687 0
663 1 0.0149051 0.73278 0
664 1 0.0419886 0.745144 0
666 1 0.0874496 0.736434 0
695 1 0.0661062 0.752704 0
697 1 0.0892935 0.76384 0
668 1 0.109414 0.743739 0
669 1 0.127482 0.728205 0
699 1 0.130522 0.754242 0
698 1 0.109897 0.772912 0
670 1 0.149836 0.738062 0
701 1 0.154853 0.761855 0
672 1 0.173394 0.746411 0
702 1 0.179129 0.770532 0
673 1 0.193621 0.731354 0
674 1 0.216041 0.741101 0
703 1 0.197279 0.755655 0
705 1 0.216987 0.766422 0
676 1 0.237518 0.752929 0
677 1 0.257412 0.738806 0
707 1 0.260581 0.764716 0
678 1 0.280828 0.751701 0
679 1 0.298716 0.735187 0
680 1 0.304217 0.761345 0
652 1 0.342419 0.731683 0
681 1 0.323147 0.746464 0
682 1 0.345331 0.754093 0
711 1 0.326011 0.771173 0
683 1 0.365923 0.7405 0
684 1 0.389262 0.750871 0
713 1 0.370313 0.763695 0
714 1 0.394007 0.774289 0
715 1 0.413581 0.759892 0
686 1 0.408119 0.734402 0
717 1 0.433487 0.746596 0
718 1 0.437291 0.769852 0
660 1 0.47992 0.72796 0
689 1 0.455875 0.734535 0
688 1 0.45931 0.758615 0
690 1 0.484751 0.752195 0
693 1 0.0218705 0.777501 0
692 1 0.0106006 0.79852 0
723 1 0.0341346 0.797297 0
694 1 0.0456429 0.770648 0
696 1 0.0699521 0.777389 0
725 1 0.0576038 0.795753 0
726 1 0.0765439 0.808301 0
727 1 0.0919498 0.790582 0
728 1 0.117479 0.796881 0
757 1 0.101791 0.814898 0
700 1 0.135975 0.777955 0
729 1 0.144707 0.802619 0
731 1 0.160881 0.784823 0
732 1 0.174505 0.805978 0
704 1 0.199581 0.78232 0
733 1 0.198709 0.805962 0
735 1 0.221963 0.790003 0
734 1 0.221314 0.813154 0
706 1 0.242113 0.779385 0
736 1 0.244823 0.804672 0
737 1 0.262605 0.787671 0
709 1 0.282065 0.774488 0
708 1 0.285955 0.795922 0
710 1 0.306977 0.785302 0
739 1 0.30539 0.813145 0
712 1 0.349484 0.776895 0
741 1 0.330698 0.79835 0
742 1 0.355689 0.801126 0
743 1 0.374703 0.78921 0
745 1 0.396377 0.802704 0
744 1 0.376182 0.814956 0
716 1 0.415242 0.785346 0
746 1 0.419216 0.809531 0
747 1 0.437472 0.792611 0
748 1 0.441881 0.815189 0
719 1 0.476598 0.776421 0
720 1 0.48438 0.799247 0
749 1 0.46025 0.793555 0
751 1 0.00078526 0.821327 0
722 1 0.0247341 0.817889 0
752 1 0.0205307 0.854806 0
753 1 0.0394012 0.83809 0
724 1 0.0585725 0.824098 0
754 1 0.0623177 0.848676 0
755 1 0.0837689 0.832931 0
785 1 0.0831242 0.858452 0
756 1 0.107415 0.840077 0
758 1 0.124211 0.85584 0
759 1 0.126081 0.818543 0
730 1 0.157083 0.822268 0
760 1 0.139958 0.839125 0
761 1 0.166136 0.845255 0
789 1 0.148174 0.861844 0
762 1 0.196739 0.854222 0
763 1 0.187819 0.829555 0
764 1 0.210955 0.835618 0
795 1 0.229067 0.852538 0
765 1 0.236663 0.83011 0
766 1 0.252406 0.848465 0
767 1 0.259699 0.825774 0
738 1 0.282766 0.821193 0
768 1 0.275007 0.844327 0
769 1 0.298418 0.837763 0
799 1 0.291435 0.862691 0
740 1 0.323806 0.831704 0
770 1 0.317466 0.854878 0
771 1 0.34723 0.823169 0
772 1 0.342516 0.847024 0
803 1 0.360395 0.864041 0
773 1 0.365754 0.838729 0
774 1 0.386987 0.849388 0
775 1 0.401229 0.827966 0
776 1 0.410332 0.851736 0
777 1 0.425765 0.831673 0
778 1 0.435592 0.855959 0
779 1 0.449655 0.836809 0
750 1 0.466504 0.81777 0
1621 1 0.491272 0.82127 0
780 1 0.472685 0.840965 0
809 1 0.457798 0.861156 0
1681 1 0.481633 0.863123 0
782 1 0.019108 0.879501 0
783 1 0.0439012 0.862401 0
813 1 0.0430172 0.887046 0
812 1 0.0222715 0.902578 0
784 1 0.0643932 0.8725 0
786 1 0.0853733 0.883889 0
815 1 0.0659554 0.898508 0
816 1 0.0892415 0.908685 0
787 1 0.104811 0.869695 0
788 1 0.130679 0.878573 0
817 1 0.108057 0.892793 0
819 1 0.131455 0.901469 0
791 1 0.17067 0.869423 0
790 1 0.154615 0.886147 0
792 1 0.177091 0.894178 0
793 1 0.192791 0.87808 0
794 1 0.217457 0.880011 0
823 1 0.200648 0.901771 0
796 1 0.243505 0.873067 0
797 1 0.26894 0.86782 0
825 1 0.236719 0.897477 0
827 1 0.261277 0.891331 0
798 1 0.285097 0.885508 0
800 1 0.312386 0.878551 0
829 1 0.304076 0.903614 0
801 1 0.336899 0.872542 0
802 1 0.351336 0.890812 0
831 1 0.327512 0.897152 0
804 1 0.375356 0.884223 0
805 1 0.397765 0.871954 0
806 1 0.397561 0.903587 0
807 1 0.421004 0.874929 0
808 1 0.441688 0.884331 0
837 1 0.421402 0.899572 0
839 1 0.453143 0.905272 0
1711 1 0.492267 0.887193 0
810 1 0.468708 0.886293 0
840 1 0.478049 0.90754 0
842 1 0.0124374 0.947942 0
843 1 0.0224837 0.927127 0
814 1 0.0447326 0.912708 0
1771 1 0.483411 0.96653 0
844 1 0.0498548 0.938626 0
845 1 0.0688439 0.923346 0
846 1 0.0723948 0.948141 0
847 1 0.0931794 0.931418 0
818 1 0.112694 0.917981 0
849 1 0.118259 0.948862 0
821 1 0.155364 0.913263 0
820 1 0.138614 0.932919 0
851 1 0.161763 0.938205 0
822 1 0.179432 0.921051 0
824 1 0.202689 0.925709 0
853 1 0.185248 0.943693 0
854 1 0.210777 0.94792 0
855 1 0.227938 0.929369 0
826 1 0.254451 0.914291 0
856 1 0.252115 0.9374 0
885 1 0.234199 0.953635 0
828 1 0.278705 0.909735 0
857 1 0.275828 0.935665 0
858 1 0.291166 0.953967 0
859 1 0.297884 0.929748 0
860 1 0.314277 0.946406 0
830 1 0.321126 0.920429 0
832 1 0.345527 0.915961 0
861 1 0.336928 0.940091 0
833 1 0.369595 0.907572 0
863 1 0.363333 0.93231 0
834 1 0.388749 0.928361 0
865 1 0.402721 0.949976 0
864 1 0.378503 0.951579 0
835 1 0.413097 0.921535 0
836 1 0.427592 0.942716 0
838 1 0.435295 0.919906 0
1712 1 0.497652 0.921998 0
870 1 0.461235 0.949627 0
1741 1 0.484057 0.941524 0
869 1 0.46277 0.92612 0
872 1 0.019506 0.99081 0
873 1 0.0292443 0.966482 0
871 1 0.00576933 0.970757 0
874 1 0.0418871 0.987325 0
875 1 0.0541944 0.964491 0
876 1 0.0763492 0.975273 0
1651 1 0.497387 0.844546 0
848 1 0.0952457 0.955213 0
877 1 0.101437 0.978484 0
878 1 0.115827 0.996938 0
879 1 0.124951 0.973516 0
850 1 0.144132 0.957263 0
852 1 0.168429 0.96221 0
881 1 0.150125 0.986319 0
882 1 0.175791 0.985421 0
15 1 0.224149 0.992287 0
13 1 0.200635 0.990803 0
883 1 0.1919 0.966635 0
884 1 0.216116 0.969639 0
886 1 0.239056 0.976527 0
887 1 0.267741 0.95927 0
17 1 0.261621 0.982725 0
888 1 0.286253 0.977076 0
889 1 0.30822 0.970369 0
19 1 0.302624 0.996154 0
862 1 0.355901 0.958534 0
890 1 0.326934 0.987786 0
892 1 0.349652 0.983008 0
891 1 0.33194 0.964233 0
893 1 0.371634 0.976701 0
895 1 0.394571 0.971764 0
894 1 0.390602 0.996149 0
23 1 0.367891 1.00182 0
867 1 0.441617 0.963121 0
896 1 0.413987 0.991786 0
866 1 0.419193 0.967795 0
897 1 0.439586 0.987007 0
868 1 0.460127 0.976187 0
1591 1 0.500375 0.782488 0
18 1 0.279716 1.00038 0
902 1 0.539689 0.0165523 0
901 1 0.517584 0.0111441 0
931 1 0.524217 0.0363158 0
904 1 0.560573 0.0267177 0
935 1 0.582913 0.0317165 0
906 1 0.57447 0.00712017 0
908 1 0.600392 0.0141566 0
937 1 0.604374 0.0409463 0
939 1 0.62203 0.0229225 0
120 1 0.500389 0.12203 0
910 1 0.640465 0.00494644 0
941 1 0.646836 0.0324172 0
912 1 0.663524 0.0147206 0
942 1 0.668736 0.0401502 0
914 1 0.708336 0.0114637 0
943 1 0.688316 0.0239058 0
944 1 0.711297 0.0363683 0
30 1 0.501424 0.0284767 0
945 1 0.731863 0.026236 0
947 1 0.759696 0.0234469 0
918 1 0.782983 0.0183704 0
949 1 0.799741 0.0360692 0
948 1 0.776028 0.0430333 0
920 1 0.806705 0.011126 0
922 1 0.846445 0.0227524 0
951 1 0.823861 0.0288599 0
921 1 0.830792 0.00526655 0
923 1 0.864465 0.0033922 0
953 1 0.870359 0.0289973 0
924 1 0.890118 0.0151875 0
954 1 0.890726 0.0412495 0
955 1 0.911187 0.0284696 0
926 1 0.93177 0.018973 0
928 1 0.953123 0.00961268 0
957 1 0.937195 0.0423127 0
925 1 0.911136 0.00374172 0
959 1 0.962305 0.0321568 0
930 1 0.984802 0.022482 0
929 1 0.97459 0.000947924 0
421 1 0.992475 0.48123 0
932 1 0.529196 0.0624802 0
962 1 0.534206 0.0858859 0
961 1 0.511732 0.0786445 0
60 1 0.505296 0.052913 0
933 1 0.545496 0.0444838 0
963 1 0.55136 0.0690204 0
934 1 0.569282 0.0503817 0
965 1 0.573757 0.078012 0
936 1 0.591007 0.0611734 0
966 1 0.596711 0.0848854 0
938 1 0.627632 0.0485137 0
967 1 0.613465 0.0688188 0
969 1 0.637806 0.0746061 0
940 1 0.650871 0.054699 0
970 1 0.660222 0.0756119 0
971 1 0.681446 0.0627719 0
972 1 0.681709 0.0860394 0
973 1 0.706106 0.0601746 0
974 1 0.725812 0.0750635 0
1003 1 0.70383 0.0824609 0
975 1 0.728764 0.0510145 0
946 1 0.75157 0.0444581 0
976 1 0.748046 0.0665557 0
977 1 0.770414 0.0654256 0
1007 1 0.767086 0.0902515 0
950 1 0.817 0.0515562 0
978 1 0.788998 0.0833928 0
979 1 0.792898 0.0600765 0
980 1 0.811265 0.0756689 0
952 1 0.84531 0.0475954 0
981 1 0.835008 0.0687884 0
982 1 0.850547 0.0887067 0
983 1 0.869183 0.0534516 0
984 1 0.870938 0.0789839 0
985 1 0.892092 0.0655777 0
986 1 0.911953 0.0805922 0
956 1 0.913834 0.053693 0
987 1 0.935366 0.0683936 0
988 1 0.954837 0.084334 0
958 1 0.958241 0.0589188 0
960 1 0.978897 0.049324 0
989 1 0.976171 0.0750722 0
990 1 0.994914 0.0905527 0
61 1 0.996974 0.0651972 0
991 1 0.515054 0.103322 0
992 1 0.523004 0.12969 0
993 1 0.54009 0.112714 0
964 1 0.557065 0.09584 0
994 1 0.564313 0.121601 0
995 1 0.580196 0.102482 0
996 1 0.586642 0.126881 0
968 1 0.620217 0.0914765 0
997 1 0.602462 0.110071 0
998 1 0.629224 0.1141 0
1027 1 0.611454 0.133135 0
999 1 0.647986 0.0975197 0
1000 1 0.650983 0.120491 0
1001 1 0.670195 0.10676 0
1031 1 0.683635 0.126339 0
1002 1 0.696049 0.105991 0
1004 1 0.719345 0.100909 0
1033 1 0.712832 0.127447 0
1005 1 0.743963 0.0946172 0
1006 1 0.758667 0.114708 0
1035 1 0.736361 0.119125 0
1036 1 0.753585 0.137625 0
1037 1 0.77934 0.131943 0
1008 1 0.781727 0.10717 0
1009 1 0.80534 0.0997899 0
1039 1 0.800018 0.122587 0
1010 1 0.822379 0.118709 0
1011 1 0.827628 0.0922172 0
1012 1 0.845638 0.111918 0
1041 1 0.841096 0.135684 0
1043 1 0.865324 0.127633 0
1013 1 0.869642 0.102801 0
1014 1 0.88864 0.116983 0
1015 1 0.890138 0.0911324 0
1016 1 0.909082 0.105473 0
1045 1 0.908006 0.130749 0
1017 1 0.932342 0.0945843 0
1018 1 0.95141 0.111118 0
1047 1 0.929131 0.119855 0
1049 1 0.94883 0.136001 0
1019 1 0.973733 0.101893 0
1020 1 0.971471 0.125463 0
91 1 0.99619 0.115172 0
1021 1 0.506681 0.14899 0
1022 1 0.530693 0.153809 0
1053 1 0.53716 0.180006 0
1051 1 0.511779 0.171716 0
1023 1 0.547185 0.135823 0
1024 1 0.553518 0.162187 0
1025 1 0.570561 0.14481 0
1055 1 0.577051 0.167452 0
1026 1 0.594761 0.149019 0
1029 1 0.634989 0.140529 0
1028 1 0.618069 0.155892 0
1057 1 0.600907 0.17332 0
1059 1 0.642524 0.163168 0
1030 1 0.66113 0.144487 0
1061 1 0.666519 0.168021 0
1032 1 0.682287 0.150772 0
1063 1 0.707217 0.151245 0
1062 1 0.695962 0.171067 0
1064 1 0.719472 0.171159 0
1034 1 0.729723 0.143075 0
1065 1 0.745646 0.161445 0
1067 1 0.771097 0.154791 0
1066 1 0.76405 0.177231 0
1038 1 0.795322 0.149452 0
1040 1 0.817283 0.141378 0
1069 1 0.812791 0.165031 0
1068 1 0.789314 0.171781 0
1042 1 0.860545 0.153823 0
1071 1 0.838321 0.161206 0
1072 1 0.853944 0.18019 0
1044 1 0.884194 0.144161 0
1073 1 0.880561 0.168745 0
1075 1 0.905008 0.156299 0
1046 1 0.927002 0.14453 0
1048 1 0.947994 0.158774 0
1077 1 0.924589 0.168146 0
121 1 0.992074 0.139206 0
1050 1 0.968675 0.149089 0
1079 1 0.971777 0.181214 0
151 1 0.988311 0.163516 0
1052 1 0.519817 0.194911 0
1082 1 0.523495 0.219184 0
1083 1 0.542193 0.204527 0
1054 1 0.561246 0.186478 0
1056 1 0.585356 0.190652 0
1085 1 0.567706 0.210055 0
1086 1 0.59186 0.217177 0
1058 1 0.624142 0.181532 0
1087 1 0.608917 0.198314 0
1088 1 0.616205 0.222 0
1089 1 0.632078 0.204669 0
1060 1 0.647759 0.186009 0
1090 1 0.656713 0.210232 0
1091 1 0.679462 0.188407 0
1092 1 0.682388 0.213626 0
1093 1 0.706015 0.193511 0
1123 1 0.706723 0.220021 0
1094 1 0.727233 0.205774 0
1095 1 0.739825 0.184678 0
1096 1 0.755771 0.203089 0
1127 1 0.774566 0.220115 0
1097 1 0.778996 0.195721 0
1098 1 0.79624 0.213711 0
1099 1 0.805053 0.190191 0
1100 1 0.82051 0.20693 0
1070 1 0.829775 0.183399 0
1101 1 0.846037 0.203157 0
1131 1 0.837883 0.227591 0
1102 1 0.863479 0.220686 0
1074 1 0.894393 0.191767 0
1103 1 0.86954 0.198526 0
1104 1 0.885814 0.215317 0
1105 1 0.908959 0.211341 0
1078 1 0.941346 0.186195 0
1076 1 0.918173 0.190105 0
1107 1 0.934829 0.209525 0
1080 1 0.994841 0.193854 0
1109 1 0.959965 0.202679 0
1110 1 0.973275 0.223817 0
181 1 0.996296 0.220165 0
1111 1 0.50803 0.238587 0
1112 1 0.516735 0.262005 0
1113 1 0.53241 0.243113 0
1143 1 0.539526 0.267338 0
1084 1 0.54821 0.226412 0
1114 1 0.555142 0.250285 0
1115 1 0.572033 0.234666 0
1116 1 0.578769 0.257283 0
1117 1 0.598135 0.239754 0
1118 1 0.620476 0.245166 0
1147 1 0.603265 0.263704 0
1149 1 0.628454 0.271347 0
1119 1 0.638735 0.229112 0
1120 1 0.646069 0.253556 0
1121 1 0.664518 0.234901 0
1151 1 0.668373 0.257775 0
1122 1 0.687745 0.238932 0
1124 1 0.710182 0.245997 0
1153 1 0.692436 0.26343 0
1154 1 0.716954 0.2691 0
1125 1 0.728727 0.22997 0
1126 1 0.755686 0.235045 0
1155 1 0.73338 0.252913 0
1157 1 0.760161 0.260666 0
1128 1 0.778502 0.244108 0
1129 1 0.813187 0.230319 0
1159 1 0.801919 0.250461 0
1158 1 0.783623 0.267683 0
1130 1 0.824656 0.251139 0
1132 1 0.84913 0.248691 0
1133 1 0.872798 0.24145 0
1134 1 0.888907 0.259312 0