ITEM: TIMESTEP
18000
ITEM: NUMBER OF ATOMS
1800
ITEM: BOX BOUNDS pp pp pp
2.0640116991867927e+00 1.5633598830081274e+02
2.0640116991867927e+00 1.5633598830081274e+02
0.0000000000000000e+00 5.2800000000000002e+00
ITEM: ATOMS id type xs ys zs
2 1 0.017398 0.0149291 0
3 1 0.0412796 0.00953238 0
33 1 0.032596 0.032988 0
31 1 0.00882045 0.0384141 0
4 1 0.0585153 0.0283135 0
6 1 0.0820795 0.0247569 0
5 1 0.0677351 0.00515825 0
7 1 0.0909926 0.000687713 0
8 1 0.106156 0.0190773 0
9 1 0.123135 0.0369905 0
37 1 0.0981148 0.0417132 0
880 1 0.133103 0.015007 0
10 1 0.146466 0.0355287 0
41 1 0.170775 0.0378223 0
11 1 0.157048 0.0140143 0
12 1 0.181499 0.0174966 0
14 1 0.205752 0.0165853 0
43 1 0.194826 0.0385081 0
44 1 0.218679 0.0367766 0
16 1 0.250755 0.00897586 0
45 1 0.228915 0.0126157 0
46 1 0.244315 0.0330861 0
47 1 0.268562 0.0272635 0
49 1 0.291224 0.0234085 0
50 1 0.308824 0.0431707 0
20 1 0.315815 0.0186569 0
18 1 0.274985 0.0047243 0
19 1 0.298078 -0.000940309 0
22 1 0.358403 0.029385 0
51 1 0.332515 0.0372853 0
21 1 0.341086 0.011932 0
23 1 0.363031 0.00348 0
24 1 0.381989 0.0221475 0
55 1 0.400652 0.0380341 0
25 1 0.40944 0.0159604 0
26 1 0.436056 0.0320199 0
27 1 0.432663 0.00784961 0
898 1 0.455594 0.0158092 0
28 1 0.460666 0.0413655 0
29 1 0.477851 0.0250571 0
900 1 0.492958 0.00575008 0
32 1 0.0257958 0.0559652 0
62 1 0.019983 0.0797799 0
63 1 0.0429951 0.0737081 0
61 1 0.0028573 0.0609442 0
35 1 0.0736877 0.0481522 0
34 1 0.0494767 0.051374 0
65 1 0.0666602 0.0707387 0
66 1 0.0793197 0.0897592 0
36 1 0.0896774 0.0653238 0
38 1 0.113582 0.0595203 0
67 1 0.105961 0.0828414 0
69 1 0.129278 0.0774774 0
39 1 0.138837 0.0561405 0
40 1 0.159447 0.0666883 0
71 1 0.175685 0.0870592 0
42 1 0.183608 0.0644868 0
72 1 0.200384 0.0809103 0
73 1 0.208414 0.0593623 0
74 1 0.223903 0.077261 0
75 1 0.233412 0.0559343 0
76 1 0.249919 0.0730871 0
77 1 0.259535 0.0509436 0
48 1 0.283525 0.0457851 0
78 1 0.273694 0.0687707 0
79 1 0.298524 0.0670097 0
109 1 0.290883 0.0900857 0
80 1 0.320901 0.0858932 0
52 1 0.352314 0.0523116 0
81 1 0.324679 0.0608301 0
82 1 0.344871 0.0753512 0
53 1 0.3772 0.0468445 0
54 1 0.396274 0.0633014 0
83 1 0.368122 0.070327 0
113 1 0.384916 0.0873278 0
57 1 0.443945 0.0575676 0
56 1 0.420185 0.0530546 0
85 1 0.425971 0.0764433 0
87 1 0.44922 0.0836198 0
59 1 0.485583 0.0488276 0
88 1 0.472928 0.089668 0
58 1 0.466714 0.0646225 0
89 1 0.489951 0.0723842 0
93 1 0.0294842 0.102272 0
92 1 0.0233621 0.125459 0
91 1 0.0052228 0.109431 0
64 1 0.0546429 0.0953002 0
94 1 0.0497035 0.11916 0
95 1 0.0724538 0.11236 0
125 1 0.0646317 0.137479 0
96 1 0.0881984 0.130474 0
68 1 0.123948 0.100319 0
97 1 0.0972313 0.105336 0
98 1 0.115232 0.122179 0
70 1 0.149758 0.0919848 0
99 1 0.142592 0.115633 0
100 1 0.16854 0.109316 0
130 1 0.159031 0.133385 0
131 1 0.184437 0.12821 0
103 1 0.216278 0.0993425 0
101 1 0.193266 0.106392 0
102 1 0.209484 0.129134 0
107 1 0.266148 0.091811 0
105 1 0.232779 0.118343 0
106 1 0.241774 0.0939299 0
135 1 0.25945 0.117136 0
137 1 0.280419 0.1293 0
108 1 0.298616 0.112298 0
139 1 0.305164 0.136416 0
110 1 0.323128 0.115968 0
111 1 0.340923 0.0999441 0
141 1 0.3469 0.125248 0
112 1 0.365922 0.103488 0
84 1 0.407819 0.0928924 0
114 1 0.389365 0.111125 0
143 1 0.371872 0.129948 0
144 1 0.39555 0.135641 0
115 1 0.412405 0.117214 0
86 1 0.431441 0.0996619 0
116 1 0.437755 0.124269 0
117 1 0.455757 0.108386 0
90 1 0.49671 0.0942409 0
118 1 0.46274 0.131185 0
119 1 0.47913 0.112909 0
149 1 0.484093 0.137062 0
123 1 0.041058 0.141714 0
122 1 0.0165374 0.148366 0
153 1 0.0350289 0.166686 0
152 1 0.0121262 0.172397 0
124 1 0.0589489 0.160251 0
126 1 0.0820435 0.153787 0
155 1 0.0759915 0.178283 0
129 1 0.133213 0.137517 0
127 1 0.106751 0.145092 0
128 1 0.124032 0.160547 0
157 1 0.0996074 0.169751 0
159 1 0.149355 0.156138 0
161 1 0.16799 0.174015 0
132 1 0.173928 0.151088 0
160 1 0.144612 0.178872 0
133 1 0.19775 0.150444 0
134 1 0.220791 0.154941 0
163 1 0.20102 0.174484 0
104 1 0.24097 0.140386 0
136 1 0.263928 0.147385 0
165 1 0.245311 0.163442 0
167 1 0.269235 0.17119 0
138 1 0.28743 0.152787 0
169 1 0.310388 0.159998 0
168 1 0.292014 0.176835 0
140 1 0.329141 0.142567 0
142 1 0.353504 0.148657 0
171 1 0.335066 0.165527 0
172 1 0.357898 0.172015 0
173 1 0.377477 0.152303 0
175 1 0.40013 0.160099 0
174 1 0.381817 0.175959 0
145 1 0.417798 0.140686 0
147 1 0.440718 0.148621 0
146 1 0.423918 0.166168 0
177 1 0.449204 0.171814 0
148 1 0.464828 0.154608 0
150 1 0.492427 0.160604 0
179 1 0.475533 0.177782 0
182 1 0.0231369 0.213484 0
183 1 0.0287766 0.190148 0
1080 1 0.00422265 0.195491 0
154 1 0.0537444 0.184736 0
184 1 0.0464859 0.208765 0
185 1 0.0703045 0.202333 0
186 1 0.0898381 0.217982 0
215 1 0.0648972 0.227145 0
156 1 0.0941484 0.194327 0
158 1 0.118493 0.185254 0
187 1 0.111988 0.208313 0
188 1 0.128616 0.224363 0
189 1 0.136211 0.201795 0
190 1 0.152159 0.22282 0
191 1 0.160599 0.197331 0
162 1 0.183416 0.19215 0
192 1 0.186447 0.215336 0
193 1 0.206265 0.200475 0
194 1 0.21431 0.222172 0
164 1 0.224893 0.177861 0
166 1 0.24923 0.187334 0
195 1 0.230297 0.203049 0
196 1 0.255804 0.211394 0
197 1 0.273578 0.194386 0
198 1 0.281574 0.218464 0
199 1 0.300217 0.202411 0
229 1 0.306439 0.225131 0
170 1 0.315824 0.184212 0
200 1 0.325739 0.207241 0
201 1 0.34066 0.187601 0
202 1 0.348174 0.214118 0
203 1 0.364132 0.195227 0
233 1 0.37242 0.218357 0
204 1 0.390453 0.198621 0
205 1 0.40793 0.182834 0
176 1 0.430553 0.19007 0
207 1 0.438069 0.214119 0
178 1 0.45588 0.194879 0
208 1 0.462138 0.219663 0
180 1 0.49884 0.185884 0
209 1 0.479274 0.202822 0
210 1 0.485733 0.227011 0
212 1 0.00953811 0.263478 0
213 1 0.0404434 0.232312 0
243 1 0.0335122 0.258502 0
211 1 0.017083 0.237637 0
214 1 0.0562653 0.249484 0
216 1 0.0826377 0.245464 0
245 1 0.0705929 0.268514 0
217 1 0.107204 0.234225 0
218 1 0.10883 0.25834 0
219 1 0.129543 0.247037 0
221 1 0.172317 0.234939 0
249 1 0.136505 0.268689 0
220 1 0.153802 0.24948 0
222 1 0.179519 0.257018 0
223 1 0.195939 0.238755 0
224 1 0.221323 0.245893 0
253 1 0.202984 0.263869 0
255 1 0.226678 0.270234 0
225 1 0.238496 0.228513 0
226 1 0.246838 0.254226 0
227 1 0.263452 0.235713 0
257 1 0.269411 0.260943 0
228 1 0.286906 0.24164 0
230 1 0.313025 0.2502 0
259 1 0.294317 0.266617 0
231 1 0.32908 0.231576 0
232 1 0.354536 0.23675 0
263 1 0.356128 0.261223 0
235 1 0.39536 0.224853 0
234 1 0.376339 0.245417 0
265 1 0.401161 0.247428 0
264 1 0.382718 0.269494 0
206 1 0.41894 0.230724 0
236 1 0.424956 0.256491 0
237 1 0.442219 0.237106 0
238 1 0.448845 0.262492 0
239 1 0.465007 0.244992 0
240 1 0.49102 0.25139 0
269 1 0.471618 0.269768 0
271 1 0.00996708 0.310334 0
242 1 0.0252124 0.282989 0
272 1 0.0364136 0.319763 0
244 1 0.0490159 0.278545 0
273 1 0.0560809 0.304489 0
275 1 0.0763642 0.292517 0
276 1 0.079639 0.315893 0
247 1 0.0928952 0.275764 0
246 1 0.0981663 0.300647 0
248 1 0.114838 0.282615 0
279 1 0.122423 0.306829 0
251 1 0.162014 0.273111 0
250 1 0.141746 0.29159 0
280 1 0.147612 0.315455 0
281 1 0.16664 0.298259 0
252 1 0.186038 0.279892 0
254 1 0.208845 0.287095 0
283 1 0.190917 0.304609 0
284 1 0.213611 0.312599 0
256 1 0.249868 0.278292 0
285 1 0.231959 0.294988 0
287 1 0.254747 0.302404 0
260 1 0.316311 0.275631 0
258 1 0.272822 0.284653 0
288 1 0.278081 0.308727 0
289 1 0.296012 0.290126 0
290 1 0.302132 0.315863 0
261 1 0.339169 0.279706 0
262 1 0.344848 0.302576 0
291 1 0.320641 0.299613 0
293 1 0.364371 0.285889 0
295 1 0.389243 0.292981 0
294 1 0.37079 0.308649 0
266 1 0.407783 0.27368 0
296 1 0.397697 0.315668 0
267 1 0.432205 0.280727 0
297 1 0.415641 0.29672 0
298 1 0.43714 0.304834 0
268 1 0.455531 0.287576 0
270 1 0.478987 0.293725 0
299 1 0.461971 0.310764 0
1141 1 0.496954 0.276444 0
300 1 0.486841 0.316271 0
302 1 0.0218695 0.361853 0
303 1 0.0399657 0.344279 0
301 1 0.0155422 0.334562 0
274 1 0.0590353 0.328536 0
304 1 0.0659122 0.353022 0
305 1 0.0864231 0.339144 0
306 1 0.0909216 0.363395 0
277 1 0.105631 0.323216 0
278 1 0.129037 0.330584 0
307 1 0.110395 0.346831 0
309 1 0.134087 0.354712 0
310 1 0.157759 0.361559 0
311 1 0.154325 0.337328 0
312 1 0.176542 0.346222 0
282 1 0.172149 0.322421 0
313 1 0.196423 0.329324 0
314 1 0.199339 0.355646 0
315 1 0.218711 0.337501 0
345 1 0.223796 0.363179 0
286 1 0.236599 0.321591 0
316 1 0.242811 0.345673 0
317 1 0.261859 0.326198 0
318 1 0.266942 0.350269 0
319 1 0.284716 0.332778 0
349 1 0.28919 0.358735 0
321 1 0.308579 0.339206 0
320 1 0.31553 0.361371 0
292 1 0.327239 0.323062 0
323 1 0.352054 0.32465 0
322 1 0.334551 0.346499 0
324 1 0.35904 0.346587 0
325 1 0.379255 0.332158 0
355 1 0.380666 0.356456 0
326 1 0.402599 0.343164 0
327 1 0.42092 0.327249 0
328 1 0.445625 0.327112 0
359 1 0.444284 0.351309 0
357 1 0.419643 0.364519 0
1201 1 0.493138 0.339465 0
329 1 0.469636 0.333673 0
330 1 0.475215 0.357841 0
332 1 0.0279609 0.38543 0
361 1 0.00909783 0.401147 0
331 1 0.00159727 0.377423 0
363 1 0.0331559 0.408265 0
333 1 0.046248 0.368534 0
335 1 0.070208 0.377455 0
334 1 0.0520156 0.393022 0
336 1 0.0756457 0.402665 0
308 1 0.114159 0.371123 0
337 1 0.0947703 0.387209 0
338 1 0.116848 0.395373 0
339 1 0.138643 0.37895 0
340 1 0.13933 0.40403 0
341 1 0.160762 0.386543 0
343 1 0.180058 0.369346 0
342 1 0.183602 0.393621 0
344 1 0.204028 0.378285 0
373 1 0.206395 0.401685 0
346 1 0.248923 0.370944 0
375 1 0.227444 0.385643 0
377 1 0.250439 0.394848 0
347 1 0.271661 0.378358 0
348 1 0.273237 0.404112 0
350 1 0.298188 0.382801 0
379 1 0.298304 0.407012 0
353 1 0.351241 0.368406 0
351 1 0.328981 0.379509 0
352 1 0.348554 0.39326 0
381 1 0.321336 0.401601 0
354 1 0.370374 0.382597 0
383 1 0.364264 0.4089 0
385 1 0.388736 0.39773 0
356 1 0.394857 0.37452 0
358 1 0.436318 0.383537 0
387 1 0.413824 0.391003 0
388 1 0.43263 0.406921 0
1261 1 0.48081 0.385459 0
360 1 0.459243 0.374505 0
389 1 0.458115 0.397745 0
1231 1 0.498628 0.363708 0
362 1 0.0155592 0.425494 0
393 1 0.0222499 0.449439 0
364 1 0.038781 0.43303 0
365 1 0.0555375 0.416403 0
395 1 0.06244 0.438606 0
367 1 0.0980394 0.413162 0
369 1 0.121896 0.41989 0
366 1 0.0973793 0.436341 0
368 1 0.124272 0.442791 0
371 1 0.162777 0.410724 0
399 1 0.149278 0.452942 0
370 1 0.145455 0.428163 0
401 1 0.169376 0.434991 0
372 1 0.188458 0.417651 0
403 1 0.193212 0.442538 0
374 1 0.212715 0.426399 0
404 1 0.218244 0.451983 0
376 1 0.231181 0.41076 0
405 1 0.234792 0.435489 0
407 1 0.263044 0.443682 0
378 1 0.256859 0.420978 0
409 1 0.281529 0.425577 0
410 1 0.308931 0.447886 0
380 1 0.313943 0.425465 0
382 1 0.339718 0.416226 0
411 1 0.333749 0.441126 0
413 1 0.35639 0.433193 0
412 1 0.351194 0.457141 0
384 1 0.384106 0.421416 0
414 1 0.377846 0.444735 0
415 1 0.403459 0.438342 0
386 1 0.407563 0.414629 0
417 1 0.427157 0.430479 0
418 1 0.443977 0.446852 0
419 1 0.451733 0.422823 0
416 1 0.42188 0.454618 0
1291 1 0.493445 0.434752 0
390 1 0.475844 0.416166 0
420 1 0.469492 0.441342 0
392 1 0.00500159 0.466848 0
422 1 0.00987652 0.49146 0
423 1 0.0290074 0.474029 0
424 1 0.038629 0.497323 0
394 1 0.0461211 0.457543 0
396 1 0.0714257 0.461576 0
425 1 0.0560055 0.481484 0
426 1 0.0826696 0.482745 0
397 1 0.103431 0.46245 0
398 1 0.128994 0.466978 0
427 1 0.107108 0.486157 0
428 1 0.131742 0.490178 0
400 1 0.175331 0.458105 0
429 1 0.15332 0.476327 0
430 1 0.160252 0.498979 0
431 1 0.179939 0.481477 0
402 1 0.197262 0.466676 0
432 1 0.202489 0.490609 0
433 1 0.22473 0.475159 0
434 1 0.227549 0.499201 0
406 1 0.267059 0.466865 0
435 1 0.243223 0.458732 0
436 1 0.248562 0.483544 0
408 1 0.285708 0.449587 0
437 1 0.274488 0.49148 0
439 1 0.297946 0.474002 0
442 1 0.349183 0.479748 0
441 1 0.327685 0.466016 0
440 1 0.318872 0.488721 0
473 1 0.368318 0.492734 0
443 1 0.372212 0.468371 0
445 1 0.396084 0.46127 0
444 1 0.390559 0.485553 0
447 1 0.4396 0.471596 0
477 1 0.434477 0.49531 0
446 1 0.414611 0.478879 0
450 1 0.482698 0.481905 0
448 1 0.458877 0.489786 0
1321 1 0.487787 0.458501 0
449 1 0.464057 0.464974 0
241 1 -0.000695683 0.28628 0
1262 1 0.499268 0.410612 0
1351 1 0.500482 0.500358 0
453 1 0.0186287 0.513933 0
452 1 0.0235573 0.536709 0
454 1 0.0427486 0.522064 0
899 1 0.468369 0.995733 0
485 1 0.0679301 0.530632 0
455 1 0.061678 0.504578 0
456 1 0.0857394 0.506575 0
458 1 0.124306 0.528685 0
487 1 0.0978229 0.528362 0
457 1 0.111252 0.509184 0
459 1 0.142268 0.513582 0
489 1 0.149382 0.537839 0
460 1 0.167313 0.521665 0
491 1 0.172533 0.546158 0
461 1 0.185327 0.506403 0
462 1 0.191051 0.529601 0
493 1 0.213161 0.538417 0
463 1 0.208498 0.514295 0
464 1 0.231146 0.523843 0
466 1 0.255574 0.53254 0
465 1 0.250651 0.507091 0
467 1 0.27562 0.516263 0
497 1 0.277917 0.542073 0
468 1 0.297984 0.529571 0
438 1 0.29584 0.502727 0
469 1 0.318637 0.51348 0
499 1 0.319045 0.538537 0
470 1 0.341119 0.526376 0
472 1 0.359946 0.513193 0
471 1 0.338974 0.501918 0
503 1 0.364446 0.536225 0
474 1 0.384568 0.512894 0
476 1 0.40532 0.526148 0
505 1 0.387859 0.543162 0
475 1 0.410717 0.502871 0
507 1 0.429566 0.521586 0
509 1 0.447805 0.537079 0
478 1 0.453112 0.513241 0
479 1 0.477222 0.5073 0
480 1 0.470786 0.531081 0
1381 1 0.493726 0.525776 0
867 1 0.445049 0.955932 0
482 1 0.00358242 0.555485 0
513 1 0.0259777 0.564601 0
511 1 0.00690141 0.579843 0
483 1 0.04846 0.547409 0
514 1 0.048084 0.578919 0
486 1 0.0871429 0.549627 0
484 1 0.0667759 0.56359 0
515 1 0.089359 0.574468 0
545 1 0.0708914 0.589044 0
488 1 0.129882 0.550427 0
517 1 0.10878 0.561587 0
518 1 0.112221 0.584007 0
519 1 0.133027 0.573919 0
490 1 0.154749 0.560335 0
520 1 0.155755 0.584209 0
521 1 0.175863 0.570219 0
492 1 0.194071 0.553411 0
494 1 0.215838 0.562204 0
523 1 0.198926 0.579821 0
524 1 0.220225 0.58876 0
495 1 0.236505 0.54767 0
496 1 0.258552 0.559085 0
525 1 0.237684 0.570541 0
526 1 0.260494 0.58338 0
498 1 0.299511 0.554348 0
527 1 0.281358 0.567999 0
529 1 0.303143 0.577648 0
501 1 0.343098 0.549138 0
500 1 0.32317 0.561784 0
530 1 0.326371 0.587647 0
531 1 0.346558 0.574226 0
502 1 0.366595 0.560696 0
504 1 0.390119 0.567326 0
533 1 0.369085 0.585021 0
506 1 0.412251 0.549477 0
535 1 0.413578 0.575207 0
508 1 0.437374 0.559897 0
537 1 0.434514 0.585256 0
510 1 0.487193 0.550556 0
539 1 0.463638 0.557395 0
540 1 0.481421 0.5787 0
512 1 0.0267351 0.592468 0
541 1 0.00684794 0.603662 0
542 1 0.0284988 0.616779 0
571 1 0.00858137 0.630655 0
543 1 0.0487984 0.60289 0
544 1 0.0508518 0.629099 0
546 1 0.0701871 0.613368 0
516 1 0.0922581 0.599981 0
547 1 0.0941515 0.6243 0
548 1 0.115329 0.609087 0
549 1 0.135795 0.596735 0
522 1 0.178345 0.593434 0
550 1 0.139228 0.619917 0
551 1 0.160879 0.608205 0
581 1 0.160564 0.632622 0
552 1 0.182607 0.618831 0
553 1 0.200851 0.604262 0
554 1 0.223923 0.615392 0
583 1 0.204112 0.629936 0
555 1 0.243207 0.599119 0
556 1 0.245942 0.624371 0
557 1 0.264848 0.609262 0
587 1 0.26769 0.634317 0
528 1 0.284484 0.594544 0
559 1 0.306914 0.603818 0
558 1 0.287529 0.61813 0
560 1 0.309503 0.628459 0
532 1 0.349291 0.597872 0
561 1 0.329467 0.612117 0
562 1 0.352894 0.621681 0
534 1 0.392723 0.590096 0
563 1 0.373528 0.60909 0
564 1 0.375218 0.63384 0
565 1 0.396392 0.616126 0
536 1 0.415193 0.600836 0
566 1 0.420758 0.624888 0
567 1 0.440922 0.608516 0
597 1 0.443286 0.635977 0
538 1 0.458867 0.591387 0
568 1 0.461058 0.620507 0
569 1 0.479918 0.605291 0
570 1 0.482659 0.631406 0
1442 1 0.502403 0.616614 0
573 1 0.03106 0.643587 0
572 1 0.00972432 0.655261 0
603 1 0.0334511 0.6679 0
575 1 0.0749208 0.638115 0
574 1 0.0540481 0.652541 0
605 1 0.0762922 0.663175 0
604 1 0.0560546 0.677404 0
577 1 0.117829 0.634081 0
576 1 0.0964958 0.648792 0
578 1 0.119748 0.659169 0
607 1 0.0987505 0.673345 0
579 1 0.140197 0.645037 0
609 1 0.142459 0.671486 0
580 1 0.163148 0.657551 0
610 1 0.165975 0.68143 0
582 1 0.183587 0.643823 0
585 1 0.227502 0.638415 0
611 1 0.186647 0.668442 0
584 1 0.207274 0.653591 0
613 1 0.211048 0.67752 0
615 1 0.228875 0.662987 0
586 1 0.249027 0.650219 0
617 1 0.253024 0.674223 0
588 1 0.271822 0.658589 0
589 1 0.290754 0.643468 0
590 1 0.31477 0.651983 0
619 1 0.294391 0.66665 0
621 1 0.31589 0.676339 0
591 1 0.333492 0.637912 0
593 1 0.35557 0.64823 0
592 1 0.335308 0.663602 0
623 1 0.358032 0.672838 0
595 1 0.399537 0.641149 0
594 1 0.378129 0.659516 0
625 1 0.402393 0.666108 0
596 1 0.421567 0.650544 0
598 1 0.444247 0.661776 0
627 1 0.425017 0.677849 0
599 1 0.465658 0.646554 0
600 1 0.488335 0.657932 0
629 1 0.46794 0.673317 0
602 1 0.0114348 0.679712 0
632 1 0.0151317 0.703679 0
633 1 0.0367752 0.693459 0
634 1 0.0382493 0.716717 0
606 1 0.0791906 0.687598 0
635 1 0.0593463 0.704799 0
636 1 0.0815576 0.712826 0
665 1 0.0602228 0.728901 0
608 1 0.121402 0.68498 0
637 1 0.101524 0.699816 0
638 1 0.123868 0.710614 0
667 1 0.103298 0.724485 0
639 1 0.142972 0.695661 0
640 1 0.147049 0.720339 0
641 1 0.167565 0.705936 0
612 1 0.188471 0.692502 0
642 1 0.192231 0.71544 0
643 1 0.213451 0.701345 0
644 1 0.214229 0.726705 0
614 1 0.233129 0.687209 0
616 1 0.256119 0.698719 0
645 1 0.234527 0.712974 0
646 1 0.257535 0.7249 0
618 1 0.277857 0.684077 0
647 1 0.278712 0.708762 0
649 1 0.29932 0.719715 0
620 1 0.316223 0.702938 0
622 1 0.338611 0.688135 0
651 1 0.338327 0.713275 0
653 1 0.360105 0.697973 0
624 1 0.37964 0.683337 0
654 1 0.361423 0.721662 0
655 1 0.383209 0.706774 0
626 1 0.403006 0.692023 0
656 1 0.407131 0.717047 0
628 1 0.447351 0.686149 0
657 1 0.426108 0.703688 0
687 1 0.432939 0.727792 0
658 1 0.450645 0.708257 0
1771 1 0.488356 0.976511 0
630 1 0.491255 0.682959 0
659 1 0.477121 0.704338 0
662 1 0.0177662 0.754603 0
663 1 0.0172323 0.729062 0
664 1 0.039945 0.74189 0
694 1 0.042085 0.765294 0
666 1 0.082598 0.73966 0
695 1 0.0621143 0.752842 0
697 1 0.0871682 0.763365 0
668 1 0.105574 0.749208 0
669 1 0.126165 0.735031 0
699 1 0.129011 0.758963 0
671 1 0.17134 0.729856 0
670 1 0.149294 0.745591 0
701 1 0.151548 0.770358 0
672 1 0.172925 0.754776 0
673 1 0.19404 0.740601 0
674 1 0.215872 0.750194 0
703 1 0.195397 0.765584 0
675 1 0.237034 0.736857 0
676 1 0.239545 0.761297 0
677 1 0.258976 0.748123 0
648 1 0.279952 0.734615 0
678 1 0.282204 0.759071 0
679 1 0.303105 0.742485 0
680 1 0.306243 0.769965 0
650 1 0.32131 0.728679 0
652 1 0.342581 0.737175 0
681 1 0.324846 0.754124 0
682 1 0.347439 0.761362 0
685 1 0.387712 0.733019 0
683 1 0.366397 0.746621 0
684 1 0.390533 0.756049 0
713 1 0.369466 0.770787 0
689 1 0.458148 0.730279 0
686 1 0.411997 0.742152 0
715 1 0.423137 0.766622 0
717 1 0.440729 0.749812 0
718 1 0.450927 0.771773 0
660 1 0.481896 0.731926 0
688 1 0.466893 0.751845 0
690 1 0.491604 0.756083 0
693 1 0.0226216 0.780082 0
723 1 0.0235179 0.804672 0
725 1 0.0437155 0.789987 0
751 1 9.53873e-05 0.815675 0
696 1 0.0654916 0.777797 0
726 1 0.0700331 0.805166 0
727 1 0.0895396 0.78913 0
698 1 0.10868 0.774574 0
728 1 0.112903 0.800732 0
757 1 0.0944442 0.815251 0
700 1 0.131387 0.784809 0
729 1 0.135174 0.811597 0
702 1 0.174925 0.77951 0
731 1 0.153842 0.793662 0
732 1 0.176898 0.803255 0
730 1 0.158444 0.81946 0
705 1 0.219834 0.774401 0
704 1 0.198143 0.788576 0
733 1 0.202114 0.812863 0
735 1 0.222317 0.799669 0
707 1 0.261828 0.772342 0
706 1 0.242455 0.786733 0
736 1 0.247292 0.810583 0
737 1 0.266335 0.795522 0
709 1 0.285965 0.783634 0
708 1 0.288887 0.807558 0
710 1 0.309877 0.793037 0
739 1 0.313678 0.81727 0
711 1 0.32952 0.778461 0
712 1 0.3513 0.785957 0
741 1 0.334442 0.80186 0
742 1 0.356427 0.812989 0
714 1 0.39054 0.780431 0
743 1 0.374417 0.797578 0
745 1 0.395813 0.806034 0
716 1 0.412565 0.787538 0
746 1 0.42029 0.809248 0
747 1 0.434887 0.791463 0
748 1 0.44359 0.813195 0
719 1 0.474907 0.776238 0
720 1 0.484396 0.797787 0
749 1 0.460598 0.795852 0
750 1 0.466666 0.819722 0
868 1 0.464175 0.9725 0
722 1 0.0212224 0.828185 0
752 1 0.0192113 0.851322 0
753 1 0.0426784 0.839078 0
724 1 0.0446244 0.816074 0
754 1 0.0621284 0.851979 0
755 1 0.072593 0.828747 0
785 1 0.082344 0.863804 0
756 1 0.0972848 0.842134 0
758 1 0.120666 0.851921 0
759 1 0.115939 0.826547 0
760 1 0.137694 0.835321 0
761 1 0.162297 0.843021 0
789 1 0.14423 0.859269 0
763 1 0.182633 0.828564 0
762 1 0.186948 0.851371 0
764 1 0.206462 0.836121 0
795 1 0.209588 0.863036 0
734 1 0.226227 0.822127 0
765 1 0.227835 0.846821 0
766 1 0.248857 0.858828 0
767 1 0.248827 0.83504 0
768 1 0.270982 0.847469 0
738 1 0.270239 0.8223 0
769 1 0.292081 0.834574 0
740 1 0.317053 0.839769 0
770 1 0.312784 0.864107 0
771 1 0.336846 0.825756 0
772 1 0.337273 0.854512 0
773 1 0.359397 0.840515 0
744 1 0.377681 0.824473 0
774 1 0.38262 0.847304 0
775 1 0.402415 0.828244 0
776 1 0.407889 0.85065 0
777 1 0.426765 0.832093 0
778 1 0.431727 0.856796 0
779 1 0.451189 0.837866 0
1621 1 0.491799 0.821893 0
780 1 0.475198 0.842174 0
1651 1 0.49885 0.844827 0
809 1 0.456137 0.860963 0
783 1 0.0390186 0.865559 0
782 1 0.0173048 0.876436 0
813 1 0.0387596 0.890445 0
812 1 0.0174227 0.902635 0
784 1 0.0610495 0.876225 0
786 1 0.0848413 0.886319 0
815 1 0.0633965 0.901402 0
816 1 0.0847749 0.910692 0
787 1 0.105174 0.871241 0
788 1 0.127169 0.876981 0
817 1 0.107916 0.895032 0
819 1 0.133677 0.900488 0
791 1 0.166271 0.866268 0
790 1 0.150939 0.884365 0
792 1 0.174303 0.892996 0
821 1 0.155364 0.907508 0
793 1 0.191064 0.8768 0
794 1 0.216743 0.888377 0
823 1 0.199091 0.903988 0
796 1 0.240194 0.881779 0
797 1 0.265828 0.875246 0
825 1 0.234722 0.90619 0
827 1 0.257846 0.897705 0
799 1 0.28899 0.867041 0
798 1 0.282426 0.892955 0
800 1 0.307346 0.886317 0
803 1 0.360889 0.864581 0
801 1 0.333663 0.878663 0
802 1 0.350824 0.89657 0
831 1 0.32474 0.903133 0
804 1 0.374265 0.892938 0
805 1 0.388658 0.871042 0
806 1 0.396916 0.901827 0
807 1 0.412656 0.875863 0
808 1 0.440126 0.879286 0
837 1 0.42262 0.898341 0
839 1 0.44811 0.902396 0
1681 1 0.479234 0.865207 0
1711 1 0.487025 0.890329 0
810 1 0.463738 0.884417 0
842 1 0.0171031 0.949031 0
843 1 0.0238168 0.925622 0
814 1 0.0435442 0.913756 0
844 1 0.0452501 0.940473 0
845 1 0.0640174 0.925778 0
846 1 0.0716599 0.947389 0
847 1 0.0910483 0.932751 0
818 1 0.112413 0.919259 0
849 1 0.114889 0.944372 0
820 1 0.136228 0.925031 0
851 1 0.15902 0.932046 0
853 1 0.167674 0.954055 0
850 1 0.139912 0.949725 0
822 1 0.178888 0.917173 0
824 1 0.198947 0.927986 0
854 1 0.193169 0.952255 0
885 1 0.217635 0.952283 0
855 1 0.222942 0.928634 0
826 1 0.25263 0.923325 0
856 1 0.242427 0.944744 0
857 1 0.268879 0.940099 0
829 1 0.299821 0.909167 0
828 1 0.275365 0.916391 0
859 1 0.293887 0.931607 0
860 1 0.312559 0.95021 0
830 1 0.318647 0.926274 0
832 1 0.342262 0.919055 0
861 1 0.337779 0.944324 0
863 1 0.361011 0.939202 0
833 1 0.366091 0.916394 0
834 1 0.385003 0.932665 0
865 1 0.402906 0.949071 0
835 1 0.408182 0.923927 0
836 1 0.424367 0.942467 0
838 1 0.432638 0.920167 0
869 1 0.453 0.932756 0
840 1 0.469398 0.914126 0
1712 1 0.492576 0.913321 0
1741 1 0.498449 0.936445 0
870 1 0.479899 0.953741 0
1 1 -6.6341e-05 0.996345 0
872 1 0.025813 0.990677 0
873 1 0.0331335 0.967488 0
871 1 0.00910088 0.973502 0
874 1 0.0496173 0.98731 0
875 1 0.0570741 0.96497 0
876 1 0.0768966 0.979647 0
848 1 0.093989 0.956248 0
877 1 0.10178 0.977281 0
878 1 0.115644 0.996932 0
879 1 0.124368 0.967784 0
852 1 0.151914 0.971187 0
881 1 0.140434 0.991773 0
882 1 0.166088 0.992241 0
883 1 0.180154 0.973724 0
15 1 0.225085 0.989685 0
13 1 0.19171 0.996416 0
884 1 0.204334 0.974264 0
886 1 0.236391 0.968831 0
887 1 0.263196 0.963415 0
17 1 0.256646 0.986562 0
858 1 0.287472 0.958647 0
888 1 0.28143 0.982149 0
889 1 0.305262 0.976172 0
862 1 0.355307 0.962079 0
890 1 0.323237 0.993721 0
892 1 0.347382 0.984927 0
891 1 0.330357 0.967226 0
894 1 0.391374 0.999372 0
864 1 0.379208 0.956418 0
893 1 0.372808 0.980266 0
895 1 0.396699 0.973941 0
866 1 0.422044 0.966328 0
896 1 0.416418 0.989998 0
897 1 0.440526 0.982987 0
902 1 0.540854 0.0164859 0
901 1 0.51606 0.0113564 0
931 1 0.525006 0.0366165 0
30 1 0.500832 0.0313229 0
933 1 0.549333 0.039564 0
904 1 0.564901 0.0206378 0
935 1 0.589282 0.0284716 0
906 1 0.583544 0.0043925 0
908 1 0.606454 0.0120944 0
937 1 0.612043 0.0360753 0
939 1 0.630638 0.0213669 0
938 1 0.636054 0.0438669 0
910 1 0.646689 0.00267404 0
941 1 0.654591 0.0259702 0
912 1 0.669874 0.0066797 0
942 1 0.676105 0.0332282 0
943 1 0.693835 0.017598 0
944 1 0.719906 0.0239269 0
973 1 0.700844 0.0418328 0
945 1 0.736006 0.00622755 0
947 1 0.75945 0.0144076 0
946 1 0.743217 0.0323195 0
948 1 0.765751 0.042064 0
918 1 0.78224 0.0232585 0
949 1 0.804444 0.0328626 0
920 1 0.801455 0.00724396 0
922 1 0.845589 0.00642055 0
951 1 0.827372 0.0219945 0
952 1 0.845745 0.0369671 0
953 1 0.864621 0.0211066 0
924 1 0.889116 0.00785454 0
954 1 0.885871 0.0323267 0
955 1 0.907514 0.0218173 0
926 1 0.930765 0.0156162 0
957 1 0.943902 0.0390123 0
928 1 0.95452 0.00817986 0
959 1 0.966282 0.0297021 0
930 1 0.991737 0.0213906 0
960 1 0.984153 0.0458691 0
929 1 0.977164 0.00211764 0
932 1 0.532763 0.0590663 0
962 1 0.538443 0.0847484 0
961 1 0.515864 0.0764106 0
60 1 0.508366 0.0544437 0
963 1 0.557081 0.0673497 0
934 1 0.571599 0.0476573 0
965 1 0.57995 0.0705756 0
936 1 0.596915 0.054266 0
966 1 0.603075 0.0785843 0
967 1 0.620277 0.0618173 0
968 1 0.626307 0.0863918 0
969 1 0.643062 0.0672641 0
940 1 0.661065 0.0515579 0
970 1 0.667442 0.0756878 0
971 1 0.68419 0.0593906 0
972 1 0.69114 0.0829829 0
1003 1 0.707336 0.0652578 0
975 1 0.726808 0.049176 0
974 1 0.729912 0.0725385 0
976 1 0.749695 0.0594833 0
1007 1 0.765945 0.0891373 0
977 1 0.771809 0.0658279 0
978 1 0.788678 0.082183 0
979 1 0.792516 0.0554929 0
980 1 0.810515 0.0738852 0
950 1 0.823751 0.0504257 0
981 1 0.846244 0.0607096 0
982 1 0.853239 0.0851643 0
983 1 0.867286 0.0481484 0
984 1 0.872691 0.0704982 0
985 1 0.893681 0.0560784 0
1015 1 0.895081 0.0847064 0
986 1 0.914047 0.0707828 0
956 1 0.917188 0.0444951 0
987 1 0.936169 0.0631538 0
1017 1 0.933039 0.0895058 0
988 1 0.956248 0.0776369 0
958 1 0.961322 0.0551843 0
989 1 0.980563 0.0701068 0
990 1 0.997575 0.0869591 0
991 1 0.520891 0.101662 0
992 1 0.526871 0.126336 0
993 1 0.545615 0.109894 0
120 1 0.503175 0.11921 0
964 1 0.56333 0.0911345 0
1023 1 0.552095 0.133916 0
994 1 0.570738 0.114523 0
995 1 0.586274 0.0946982 0
996 1 0.592828 0.120116 0
997 1 0.609561 0.102829 0
998 1 0.632913 0.109589 0
1027 1 0.615872 0.127748 0
1029 1 0.639163 0.133948 0
999 1 0.649849 0.0917192 0
1000 1 0.657925 0.118207 0
1001 1 0.673538 0.100193 0
1031 1 0.682152 0.125197 0
1002 1 0.69809 0.10698 0
1004 1 0.714238 0.0888351 0
1033 1 0.707939 0.129997 0
1005 1 0.740695 0.0925443 0
1006 1 0.756449 0.115612 0
1035 1 0.726241 0.112658 0
1037 1 0.776632 0.132184 0
1008 1 0.782596 0.107863 0
1009 1 0.806534 0.0981822 0
1039 1 0.801372 0.122068 0
1010 1 0.825023 0.116844 0
1011 1 0.829034 0.0918053 0
1012 1 0.847584 0.10961 0
1041 1 0.845059 0.133885 0
1043 1 0.868537 0.125272 0
1013 1 0.874364 0.0985128 0
1014 1 0.89111 0.114285 0
1045 1 0.911124 0.127792 0
1016 1 0.913037 0.102153 0
1047 1 0.933548 0.115278 0
1049 1 0.954607 0.130043 0
1018 1 0.954486 0.104924 0
1019 1 0.975144 0.0940337 0
1020 1 0.980352 0.118635 0
121 1 0.998931 0.132201 0
1021 1 0.509463 0.14234 0
1022 1 0.53289 0.150778 0
1053 1 0.540968 0.173709 0
1051 1 0.516312 0.168128 0
1024 1 0.558756 0.157112 0
1025 1 0.575904 0.139398 0
1055 1 0.582026 0.163877 0
1054 1 0.565022 0.181163 0
1026 1 0.599697 0.145908 0
1028 1 0.623934 0.15475 0
1057 1 0.604489 0.171867 0
1058 1 0.629605 0.178114 0
1059 1 0.647028 0.158768 0
1030 1 0.665971 0.141779 0
1061 1 0.672111 0.165887 0
1032 1 0.689629 0.149521 0
1063 1 0.713646 0.155119 0
1062 1 0.697304 0.17261 0
1064 1 0.72069 0.176682 0
1036 1 0.753933 0.140273 0
1034 1 0.72932 0.13667 0
1065 1 0.742049 0.161585 0
1066 1 0.766097 0.180074 0
1067 1 0.772896 0.156269 0
1038 1 0.795935 0.147052 0
1069 1 0.812467 0.165326 0
1068 1 0.790352 0.172666 0
1040 1 0.818548 0.141152 0
1071 1 0.838825 0.158961 0
1072 1 0.856419 0.176445 0
1042 1 0.8652 0.149956 0
1044 1 0.888837 0.1401 0
1073 1 0.886343 0.164909 0
1075 1 0.910209 0.152282 0
1046 1 0.931839 0.140805 0
1048 1 0.954367 0.15568 0
1077 1 0.930105 0.166155 0
1078 1 0.947204 0.182653 0
1050 1 0.975317 0.14239 0
151 1 0.994037 0.157105 0
1079 1 0.972945 0.168708 0
1081 1 0.505255 0.208951 0
1052 1 0.522369 0.191536 0
1082 1 0.528109 0.216623 0
1083 1 0.544863 0.197265 0
1056 1 0.587236 0.189008 0
1085 1 0.568706 0.204969 0
1084 1 0.551977 0.22175 0
1086 1 0.592381 0.21317 0
1087 1 0.611824 0.195161 0
1088 1 0.617674 0.218519 0
1089 1 0.636525 0.202203 0
1060 1 0.652881 0.181316 0
1090 1 0.660659 0.205677 0
1091 1 0.67878 0.188887 0
1119 1 0.643919 0.225479 0
1092 1 0.684403 0.216116 0
1093 1 0.700491 0.19777 0
1123 1 0.710046 0.221026 0
1094 1 0.726108 0.201777 0
1095 1 0.74332 0.185943 0
1096 1 0.754052 0.208035 0
1127 1 0.775095 0.219569 0
1097 1 0.781712 0.19735 0
1098 1 0.799529 0.213553 0
1099 1 0.805744 0.191219 0
1100 1 0.82426 0.207062 0
1070 1 0.828956 0.182331 0
1101 1 0.848373 0.201014 0
1131 1 0.840676 0.225379 0
1102 1 0.863824 0.219111 0
1074 1 0.897818 0.190074 0
1103 1 0.873721 0.193834 0
1104 1 0.887561 0.213958 0
1105 1 0.9117 0.209368 0
1076 1 0.922313 0.188712 0
1107 1 0.938087 0.20713 0
1108 1 0.952291 0.226456 0
1109 1 0.962072 0.203976 0
1110 1 0.976538 0.223542 0
181 1 1.00047 0.219335 0
1111 1 0.509302 0.233958 0
1112 1 0.514093 0.258685 0
1113 1 0.53219 0.240145 0
1143 1 0.539963 0.263588 0
1114 1 0.557614 0.245995 0
1115 1 0.574871 0.228791 0
1116 1 0.58108 0.251916 0
1145 1 0.564699 0.268489 0
1117 1 0.599099 0.236067 0
1118 1 0.623805 0.242411 0
1147 1 0.60542 0.259048 0
1149 1 0.629758 0.266636 0
1120 1 0.649558 0.249076 0
1121 1 0.667105 0.232225 0
1151 1 0.673074 0.256747 0
1150 1 0.6539 0.272459 0
1122 1 0.690568 0.238223 0
1124 1 0.716406 0.2455 0
1153 1 0.695715 0.261382 0
1154 1 0.722538 0.268354 0
1125 1 0.733238 0.224824 0
1126 1 0.755408 0.233526 0
1155 1 0.73836 0.250889 0
1157 1 0.761397 0.257079 0
1128 1 0.791737 0.235592 0
1129 1 0.816214 0.230911 0
1159 1 0.808368 0.252553 0
1158 1 0.785197 0.258586 0
1130 1 0.831822 0.248478 0
1132 1 0.855593 0.244062 0
1161 1 0.848023 0.269035 0
1163 1 0.871087 0.26287 0
1133 1 0.880172 0.238563 0
1134 1 0.89746 0.258271 0