ITEM: TIMESTEP
146000
ITEM: NUMBER OF ATOMS
1800
ITEM: BOX BOUNDS pp pp pp
3.0936780533720167e+00 1.5530632194662485e+02
3.0936780533720167e+00 1.5530632194662485e+02
0.0000000000000000e+00 5.2800000000000002e+00
ITEM: ATOMS id type xs ys zs
2 1 0.0179642 0.017462 0
3 1 0.0439059 0.0109956 0
33 1 0.0350586 0.0349458 0
31 1 0.01018 0.0418089 0
1 1 0.000118052 0.000155582 0
4 1 0.0592506 0.0305184 0
6 1 0.0841734 0.023817 0
5 1 0.0681049 0.00567724 0
35 1 0.07601 0.0477055 0
37 1 0.101531 0.0408137 0
8 1 0.110057 0.0170407 0
9 1 0.126708 0.0352552 0
880 1 0.134776 0.0106878 0
10 1 0.152157 0.028182 0
11 1 0.159919 0.00378925 0
12 1 0.177041 0.0225839 0
43 1 0.193981 0.04066 0
41 1 0.168456 0.0463232 0
14 1 0.200856 0.0157915 0
44 1 0.217612 0.0352444 0
45 1 0.225855 0.0112978 0
46 1 0.241588 0.0298669 0
16 1 0.250255 0.00700666 0
47 1 0.268161 0.0249832 0
49 1 0.292028 0.0193414 0
48 1 0.28551 0.042979 0
77 1 0.259191 0.0485245 0
18 1 0.27504 0.00121027 0
50 1 0.309657 0.0370587 0
20 1 0.317001 0.013649 0
51 1 0.334783 0.0319871 0
21 1 0.341952 0.00815469 0
22 1 0.360358 0.0250534 0
24 1 0.383915 0.0193357 0
53 1 0.375619 0.0439922 0
23 1 0.366126 0.00154933 0
55 1 0.400743 0.0372025 0
25 1 0.408693 0.0142034 0
26 1 0.424728 0.0329821 0
27 1 0.434588 0.0099204 0
28 1 0.44891 0.0364264 0
30 1 0.494475 0.0408704 0
898 1 0.45926 0.0151376 0
29 1 0.48602 0.0184415 0
59 1 0.470319 0.0480109 0
32 1 0.02827 0.0578897 0
62 1 0.0204924 0.0842572 0
63 1 0.0436987 0.0777275 0
61 1 0.00267951 0.0662588 0
34 1 0.0523588 0.0538639 0
65 1 0.0692966 0.0726648 0
66 1 0.0856335 0.0900904 0
36 1 0.0937886 0.0649721 0
64 1 0.0607967 0.0963046 0
39 1 0.144171 0.0518958 0
38 1 0.118094 0.0582169 0
67 1 0.109288 0.0834853 0
69 1 0.134787 0.077391 0
70 1 0.152797 0.0946039 0
40 1 0.159771 0.0707307 0
71 1 0.176887 0.088348 0
42 1 0.184497 0.0649519 0
72 1 0.202631 0.0819577 0
73 1 0.211215 0.0591213 0
74 1 0.227598 0.0771643 0
75 1 0.235403 0.0540656 0
106 1 0.244904 0.0949628 0
103 1 0.219728 0.100333 0
76 1 0.252198 0.0726889 0
78 1 0.277627 0.0663043 0
109 1 0.296259 0.0848284 0
107 1 0.270659 0.090655 0
79 1 0.303095 0.0617638 0
80 1 0.320025 0.0805551 0
81 1 0.327339 0.0569306 0
82 1 0.344891 0.0744084 0
111 1 0.338993 0.098217 0
52 1 0.351781 0.0505612 0
83 1 0.369126 0.0684449 0
113 1 0.379325 0.0910353 0
54 1 0.395847 0.0710405 0
56 1 0.416037 0.0563544 0
57 1 0.439811 0.0615122 0
85 1 0.422205 0.0807954 0
84 1 0.403637 0.0972455 0
87 1 0.445408 0.0871432 0
88 1 0.469319 0.0947388 0
58 1 0.463244 0.0706122 0
89 1 0.486852 0.077157 0
93 1 0.0378665 0.102248 0
92 1 0.0304284 0.126483 0
91 1 0.0134669 0.107824 0
121 1 0.00526586 0.132101 0
123 1 0.0477088 0.14446 0
122 1 0.0225438 0.149752 0
94 1 0.0552771 0.120348 0
95 1 0.0793091 0.113611 0
125 1 0.0719635 0.138205 0
96 1 0.0960059 0.132147 0
68 1 0.127918 0.101355 0
97 1 0.102971 0.108069 0
98 1 0.120741 0.125015 0
99 1 0.145163 0.119231 0
129 1 0.138083 0.143519 0
127 1 0.113946 0.14971 0
100 1 0.169874 0.112785 0
130 1 0.162921 0.135411 0
131 1 0.18679 0.128956 0
101 1 0.195049 0.105086 0
102 1 0.211642 0.124603 0
105 1 0.237334 0.117225 0
104 1 0.231523 0.141693 0
133 1 0.203041 0.147303 0
135 1 0.262978 0.114019 0
137 1 0.280767 0.131378 0
108 1 0.28814 0.108629 0
136 1 0.256371 0.137941 0
139 1 0.306551 0.132916 0
110 1 0.31311 0.104899 0
141 1 0.345076 0.123899 0
140 1 0.328697 0.143152 0
112 1 0.361719 0.106631 0
114 1 0.386129 0.115594 0
143 1 0.368984 0.132127 0
144 1 0.393791 0.139736 0
142 1 0.35194 0.149851 0
86 1 0.42816 0.105265 0
115 1 0.410117 0.122347 0
116 1 0.434975 0.129387 0
145 1 0.417915 0.146834 0
117 1 0.452179 0.112607 0
90 1 0.493736 0.101852 0
118 1 0.458159 0.137894 0
119 1 0.47624 0.119631 0
149 1 0.48318 0.143467 0
153 1 0.0396426 0.168209 0
152 1 0.0138654 0.174624 0
183 1 0.0318614 0.192505 0
1080 1 0.00690355 0.198373 0
124 1 0.0634461 0.162752 0
126 1 0.0893097 0.156417 0
155 1 0.0808817 0.178701 0
154 1 0.0571293 0.186031 0
156 1 0.0992103 0.196449 0
128 1 0.131742 0.166354 0
157 1 0.107184 0.17239 0
160 1 0.148444 0.18443 0
158 1 0.122381 0.190882 0
132 1 0.18056 0.154366 0
159 1 0.155304 0.159879 0
161 1 0.171617 0.177806 0
162 1 0.188562 0.193913 0
163 1 0.19777 0.172029 0
134 1 0.22073 0.162661 0
164 1 0.230963 0.183769 0
165 1 0.247543 0.164836 0
193 1 0.212349 0.199551 0
166 1 0.253648 0.190741 0
167 1 0.270464 0.17239 0
138 1 0.288986 0.154223 0
168 1 0.29591 0.18016 0
197 1 0.276773 0.197587 0
169 1 0.311807 0.160151 0
171 1 0.33549 0.16741 0
170 1 0.31897 0.185877 0
201 1 0.342214 0.195218 0
172 1 0.358436 0.175794 0
173 1 0.376023 0.156055 0
174 1 0.382355 0.1828 0
175 1 0.399778 0.164485 0
147 1 0.44075 0.154796 0
146 1 0.423836 0.171843 0
205 1 0.406372 0.189011 0
176 1 0.430791 0.196212 0
177 1 0.448377 0.17863 0
148 1 0.465219 0.161295 0
150 1 0.490188 0.168403 0
179 1 0.472561 0.185623 0
180 1 0.495866 0.193522 0
182 1 0.0248159 0.215383 0
213 1 0.042173 0.232346 0
211 1 0.0180175 0.239678 0
184 1 0.0501572 0.20856 0
185 1 0.075361 0.202765 0
186 1 0.0917075 0.220486 0
215 1 0.0669224 0.227012 0
216 1 0.0844694 0.244911 0
187 1 0.11758 0.214336 0
188 1 0.133629 0.240863 0
189 1 0.140266 0.207285 0
217 1 0.109021 0.237606 0
191 1 0.165608 0.203725 0
190 1 0.153163 0.226217 0
192 1 0.193707 0.217221 0
221 1 0.175767 0.233069 0
223 1 0.200351 0.240607 0
194 1 0.217582 0.223929 0
195 1 0.235024 0.208248 0
225 1 0.241928 0.23176 0
224 1 0.223917 0.248424 0
196 1 0.25874 0.214875 0
198 1 0.282853 0.221196 0
227 1 0.265537 0.238854 0
228 1 0.289652 0.246519 0
199 1 0.30077 0.204143 0
200 1 0.324722 0.210586 0
229 1 0.306588 0.22794 0
231 1 0.330206 0.236123 0
202 1 0.347819 0.218861 0
203 1 0.366098 0.201005 0
204 1 0.389906 0.207679 0
233 1 0.371663 0.225352 0
235 1 0.39505 0.232219 0
232 1 0.354034 0.243053 0
234 1 0.376915 0.249682 0
207 1 0.436827 0.220718 0
206 1 0.418801 0.237745 0
237 1 0.443057 0.245346 0
178 1 0.456207 0.203499 0
208 1 0.461585 0.228583 0
209 1 0.480296 0.21171 0
210 1 0.485119 0.234782 0
212 1 0.010484 0.262674 0
243 1 0.0350669 0.255937 0
242 1 0.0290755 0.278305 0
241 1 0.00559476 0.287756 0
214 1 0.0595474 0.250386 0
244 1 0.053098 0.276926 0
245 1 0.0757098 0.268258 0
247 1 0.0795754 0.292124 0
218 1 0.0987361 0.276171 0
219 1 0.115859 0.260273 0
249 1 0.139622 0.266651 0
248 1 0.121987 0.284214 0
250 1 0.145829 0.291206 0
220 1 0.157882 0.250274 0
222 1 0.182088 0.257675 0
251 1 0.164147 0.274665 0
252 1 0.187629 0.281144 0
281 1 0.169852 0.298415 0
253 1 0.205736 0.264166 0
255 1 0.229922 0.272163 0
254 1 0.211236 0.287608 0
226 1 0.246582 0.255739 0
285 1 0.235327 0.29699 0
256 1 0.253904 0.280324 0
257 1 0.270955 0.263998 0
259 1 0.29498 0.270399 0
258 1 0.277904 0.288876 0
289 1 0.300707 0.295183 0
230 1 0.31242 0.252537 0
260 1 0.318252 0.27805 0
261 1 0.336901 0.260157 0
262 1 0.342056 0.284622 0
263 1 0.360215 0.267098 0
264 1 0.383728 0.273419 0
293 1 0.365962 0.291691 0
295 1 0.390578 0.298389 0
265 1 0.401291 0.256511 0
236 1 0.42576 0.262718 0
266 1 0.407898 0.28043 0
267 1 0.432123 0.287245 0
239 1 0.466907 0.252197 0
238 1 0.450433 0.268806 0
240 1 0.492635 0.257767 0
269 1 0.474522 0.275756 0
268 1 0.456025 0.29323 0
1141 1 0.498072 0.281462 0
273 1 0.0384715 0.299435 0
271 1 0.0166578 0.310516 0
272 1 0.040577 0.323668 0
301 1 0.0196722 0.336003 0
303 1 0.0447866 0.346727 0
275 1 0.0612243 0.308559 0
276 1 0.0843102 0.316081 0
274 1 0.0652639 0.33166 0
305 1 0.0893129 0.339864 0
246 1 0.102895 0.300592 0
279 1 0.126962 0.308651 0
277 1 0.1094 0.324492 0
278 1 0.13175 0.33186 0
307 1 0.113278 0.349157 0
280 1 0.150245 0.314889 0
311 1 0.154647 0.338153 0
283 1 0.192569 0.305116 0
282 1 0.173425 0.322386 0
313 1 0.197963 0.329614 0
312 1 0.178765 0.3464 0
284 1 0.216661 0.312293 0
315 1 0.221673 0.337606 0
286 1 0.24067 0.32124 0
316 1 0.245548 0.346701 0
287 1 0.258453 0.304909 0
288 1 0.283526 0.312655 0
317 1 0.265063 0.330174 0
319 1 0.287826 0.336981 0
291 1 0.32383 0.302977 0
290 1 0.306092 0.31956 0
321 1 0.313195 0.343519 0
292 1 0.330877 0.32675 0
323 1 0.348119 0.308565 0
294 1 0.372355 0.314854 0
324 1 0.355252 0.333691 0
325 1 0.378458 0.339498 0
296 1 0.396842 0.322084 0
326 1 0.401436 0.347148 0
297 1 0.414294 0.303748 0
298 1 0.438828 0.311581 0
327 1 0.419408 0.328648 0
328 1 0.443756 0.335823 0
270 1 0.480704 0.299843 0
299 1 0.462962 0.316819 0
300 1 0.487284 0.32468 0
329 1 0.467577 0.342328 0
1201 1 0.492899 0.347096 0
331 1 0.00586743 0.375495 0
302 1 0.0255667 0.361062 0
332 1 0.0297357 0.386476 0
333 1 0.0488498 0.371439 0
1230 1 0.00100062 0.351535 0
361 1 0.00843552 0.399932 0
334 1 0.054549 0.396396 0
304 1 0.0678561 0.355527 0
306 1 0.0932728 0.363977 0
335 1 0.0746807 0.37961 0
337 1 0.098184 0.388355 0
309 1 0.136553 0.35599 0
308 1 0.118132 0.373949 0
339 1 0.142445 0.381901 0
338 1 0.122045 0.397908 0
310 1 0.160103 0.363815 0
341 1 0.165381 0.388761 0
343 1 0.184204 0.371029 0
342 1 0.188256 0.394342 0
314 1 0.203096 0.353984 0
345 1 0.227022 0.361859 0
344 1 0.207301 0.378746 0
375 1 0.23096 0.385396 0
346 1 0.250932 0.370334 0
377 1 0.256073 0.395038 0
318 1 0.269501 0.354333 0
349 1 0.294858 0.361198 0
347 1 0.27466 0.378416 0
350 1 0.299305 0.385217 0
322 1 0.336614 0.350184 0
320 1 0.318263 0.368721 0
351 1 0.343448 0.375405 0
381 1 0.32259 0.393145 0
353 1 0.359915 0.357614 0
355 1 0.38381 0.364168 0
354 1 0.366443 0.382504 0
385 1 0.390258 0.388644 0
357 1 0.425743 0.353366 0
356 1 0.408115 0.371262 0
387 1 0.432591 0.377673 0
386 1 0.414157 0.394851 0
359 1 0.450298 0.359366 0
358 1 0.457038 0.382786 0
330 1 0.474935 0.365697 0
360 1 0.483331 0.39 0
1231 1 0.499997 0.371046 0
363 1 0.0343891 0.410822 0
362 1 0.0137159 0.42591 0
364 1 0.0406467 0.435103 0
393 1 0.0201896 0.45018 0
336 1 0.0794517 0.406202 0
365 1 0.0595914 0.419672 0
395 1 0.0650744 0.443548 0
367 1 0.103587 0.413176 0
366 1 0.107529 0.437292 0
369 1 0.127139 0.422312 0
340 1 0.146499 0.405972 0
368 1 0.130103 0.446863 0
370 1 0.151991 0.430374 0
371 1 0.170883 0.412498 0
401 1 0.176102 0.436378 0
372 1 0.195082 0.419396 0
403 1 0.199541 0.443207 0
373 1 0.212635 0.40218 0
374 1 0.218632 0.426237 0
376 1 0.236049 0.409399 0
405 1 0.242371 0.43368 0
348 1 0.281137 0.402587 0
407 1 0.267541 0.442907 0
378 1 0.261038 0.419239 0
409 1 0.28612 0.427874 0
352 1 0.347286 0.400385 0
379 1 0.305004 0.410644 0
380 1 0.310234 0.436478 0
382 1 0.329832 0.419129 0
411 1 0.335443 0.44313 0
413 1 0.353406 0.424265 0
383 1 0.370992 0.406769 0
414 1 0.37802 0.43145 0
384 1 0.395299 0.412967 0
412 1 0.358892 0.44904 0
415 1 0.40159 0.437394 0
388 1 0.439187 0.400934 0
417 1 0.419326 0.420086 0
416 1 0.427576 0.443484 0
419 1 0.445094 0.425937 0
389 1 0.463544 0.406601 0
418 1 0.47011 0.431764 0
390 1 0.488503 0.413598 0
420 1 0.494896 0.437463 0
447 1 0.451786 0.449827 0
422 1 0.00765804 0.490164 0
423 1 0.0266179 0.474796 0
394 1 0.0453118 0.459086 0
424 1 0.0315793 0.499146 0
392 1 0.00168324 0.465841 0
425 1 0.0505242 0.483652 0
397 1 0.0873861 0.455058 0
396 1 0.0688611 0.469087 0
426 1 0.0727621 0.494686 0
427 1 0.0911395 0.479143 0
398 1 0.11124 0.463153 0
428 1 0.116001 0.487692 0
429 1 0.135616 0.472239 0
459 1 0.14051 0.497679 0
399 1 0.156031 0.455423 0
400 1 0.18114 0.459984 0
430 1 0.158839 0.482479 0
431 1 0.185349 0.483186 0
404 1 0.223589 0.451801 0
402 1 0.205006 0.467948 0
432 1 0.208994 0.491472 0
433 1 0.227667 0.476177 0
435 1 0.247141 0.458662 0
434 1 0.233098 0.49996 0
408 1 0.292917 0.452343 0
436 1 0.25169 0.483465 0
406 1 0.271841 0.468901 0
437 1 0.276692 0.493177 0
439 1 0.296892 0.478063 0
410 1 0.316505 0.460322 0
440 1 0.321682 0.48525 0
441 1 0.34143 0.46712 0
471 1 0.345651 0.492311 0
442 1 0.365224 0.474469 0
473 1 0.391334 0.479592 0
443 1 0.382082 0.456782 0
472 1 0.37339 0.497245 0
477 1 0.43886 0.491489 0
446 1 0.433469 0.468248 0
445 1 0.409958 0.462092 0
444 1 0.414194 0.486165 0
478 1 0.46413 0.496991 0
450 1 0.483671 0.479438 0
449 1 0.47587 0.456453 0
448 1 0.458327 0.47339 0
453 1 0.0112086 0.515843 0
452 1 0.0149432 0.539944 0
454 1 0.0343733 0.525607 0
485 1 0.057824 0.534383 0
455 1 0.0542835 0.510147 0
456 1 0.0775932 0.518376 0
486 1 0.0818426 0.544253 0
457 1 0.0965495 0.503146 0
487 1 0.100648 0.528344 0
458 1 0.121118 0.51272 0
488 1 0.123778 0.538868 0
489 1 0.144719 0.522125 0
490 1 0.147226 0.548881 0
461 1 0.189887 0.506803 0
462 1 0.191806 0.529813 0
491 1 0.167266 0.534382 0
460 1 0.165577 0.506771 0
493 1 0.215546 0.538633 0
463 1 0.2126 0.515323 0
464 1 0.235257 0.523631 0
495 1 0.239122 0.547932 0
466 1 0.260168 0.532581 0
465 1 0.257589 0.508653 0
467 1 0.281652 0.516204 0
497 1 0.283947 0.541915 0
468 1 0.305156 0.52699 0
469 1 0.327651 0.511028 0
499 1 0.333294 0.534653 0
438 1 0.30364 0.501679 0
470 1 0.354706 0.515267 0
503 1 0.380952 0.521929 0
474 1 0.397808 0.503403 0
505 1 0.388471 0.546819 0
501 1 0.362617 0.539975 0
476 1 0.404555 0.528002 0
509 1 0.429646 0.533508 0
475 1 0.422343 0.50961 0
507 1 0.445851 0.514757 0
479 1 0.472251 0.521338 0
480 1 0.454188 0.538668 0
1381 1 0.496654 0.527066 0
510 1 0.477689 0.545536 0
1351 1 0.491254 0.502952 0
483 1 0.0386214 0.550028 0
513 1 0.0181863 0.564768 0
514 1 0.040298 0.57555 0
512 1 0.0197174 0.588581 0
484 1 0.0612376 0.559746 0
515 1 0.0851812 0.569626 0
545 1 0.0628584 0.584767 0
516 1 0.0860012 0.594772 0
517 1 0.10549 0.554587 0
518 1 0.106514 0.580311 0
519 1 0.127506 0.564379 0
549 1 0.131515 0.590988 0
520 1 0.151953 0.576087 0
521 1 0.171345 0.559335 0
492 1 0.194953 0.553502 0
522 1 0.173707 0.58818 0
523 1 0.196597 0.577698 0
494 1 0.217763 0.562442 0
524 1 0.219398 0.587876 0
525 1 0.240614 0.572843 0
555 1 0.242012 0.597072 0
496 1 0.261812 0.557219 0
526 1 0.263214 0.582292 0
527 1 0.284614 0.566563 0
528 1 0.285432 0.591266 0
498 1 0.309141 0.550604 0
529 1 0.30791 0.575809 0
500 1 0.330445 0.56264 0
530 1 0.328696 0.589168 0
531 1 0.352931 0.583622 0
502 1 0.369621 0.563854 0
504 1 0.395614 0.569449 0
533 1 0.378119 0.588341 0
506 1 0.412762 0.550429 0
534 1 0.402845 0.593274 0
535 1 0.419057 0.575036 0
508 1 0.436421 0.557599 0
537 1 0.443343 0.582105 0
536 1 0.426857 0.599674 0
539 1 0.461181 0.564323 0
540 1 0.485154 0.570201 0
538 1 0.468117 0.588731 0
569 1 0.493307 0.592979 0
543 1 0.0423295 0.600029 0
571 1 0.00164271 0.627961 0
542 1 0.0224224 0.614495 0
573 1 0.0237841 0.639351 0
544 1 0.0449918 0.625555 0
574 1 0.0467933 0.648507 0
546 1 0.0656136 0.61047 0
547 1 0.0899383 0.621356 0
575 1 0.0688365 0.634233 0
576 1 0.0907802 0.646031 0
548 1 0.110766 0.606134 0
550 1 0.133428 0.616279 0
577 1 0.113195 0.630201 0
579 1 0.135339 0.641886 0
551 1 0.153759 0.60186 0
581 1 0.155879 0.626812 0
552 1 0.176465 0.612854 0
582 1 0.179631 0.638519 0
553 1 0.198728 0.603455 0
583 1 0.20125 0.62685 0
554 1 0.221554 0.611709 0
556 1 0.243802 0.621593 0
585 1 0.223893 0.63636 0
586 1 0.245869 0.648053 0
557 1 0.263254 0.606341 0
587 1 0.266932 0.630613 0
558 1 0.287731 0.616065 0
589 1 0.288441 0.641982 0
559 1 0.306672 0.600197 0
560 1 0.309148 0.627233 0
561 1 0.328707 0.613404 0
591 1 0.329019 0.642407 0
562 1 0.348229 0.626639 0
532 1 0.362325 0.607271 0
563 1 0.385683 0.613358 0
564 1 0.370638 0.632446 0
595 1 0.394281 0.639074 0
565 1 0.409471 0.618698 0
566 1 0.43339 0.625067 0
596 1 0.417512 0.643326 0
598 1 0.440378 0.648964 0
567 1 0.450572 0.606945 0
597 1 0.45697 0.6308 0
568 1 0.474736 0.613354 0
570 1 0.481429 0.637689 0
1442 1 0.499173 0.618941 0
572 1 0.00286526 0.652784 0
603 1 0.0271252 0.664143 0
602 1 0.00612786 0.678976 0
633 1 0.029638 0.688023 0
604 1 0.0491887 0.674069 0
605 1 0.0697218 0.659621 0
606 1 0.0731414 0.684277 0
607 1 0.092414 0.669534 0
637 1 0.0968169 0.693987 0
635 1 0.0526576 0.698954 0
578 1 0.113654 0.654769 0
609 1 0.137161 0.666952 0
608 1 0.116146 0.678819 0
639 1 0.137366 0.69223 0
580 1 0.158166 0.651693 0
611 1 0.18074 0.66233 0
610 1 0.15963 0.677522 0
612 1 0.181869 0.688692 0
584 1 0.2027 0.651082 0
613 1 0.204137 0.674936 0
615 1 0.225041 0.660728 0
614 1 0.226349 0.685197 0
617 1 0.247174 0.672194 0
616 1 0.247996 0.696835 0
643 1 0.204392 0.69997 0
588 1 0.268665 0.655901 0
619 1 0.290143 0.669747 0
618 1 0.26966 0.682788 0
590 1 0.310151 0.656683 0
621 1 0.313604 0.682145 0
592 1 0.334012 0.666524 0
622 1 0.337574 0.692987 0
593 1 0.352903 0.650594 0
623 1 0.357344 0.675211 0
594 1 0.376317 0.657904 0
624 1 0.381541 0.682613 0
653 1 0.362748 0.699507 0
625 1 0.400101 0.662505 0
627 1 0.423461 0.668152 0
626 1 0.406652 0.686323 0
657 1 0.431125 0.691744 0
628 1 0.44771 0.672613 0
599 1 0.464316 0.655575 0
600 1 0.488335 0.661529 0
629 1 0.471615 0.677767 0
630 1 0.497213 0.684363 0
658 1 0.454149 0.697776 0
632 1 0.00934903 0.702732 0
634 1 0.0321098 0.712586 0
663 1 0.012129 0.727644 0
664 1 0.0341644 0.737993 0
636 1 0.0747687 0.70898 0
665 1 0.054091 0.723282 0
666 1 0.0764261 0.73356 0
695 1 0.0575762 0.748948 0
667 1 0.0972088 0.719392 0
668 1 0.0995139 0.744043 0
638 1 0.117132 0.706082 0
640 1 0.139786 0.71749 0
669 1 0.119202 0.730553 0
670 1 0.141326 0.741558 0
641 1 0.160219 0.701517 0
642 1 0.182867 0.712803 0
671 1 0.163113 0.727622 0
673 1 0.185383 0.738599 0
645 1 0.226585 0.711855 0
644 1 0.20559 0.725044 0
675 1 0.227607 0.736944 0
646 1 0.249044 0.720826 0
677 1 0.251089 0.745308 0
647 1 0.270048 0.707537 0
648 1 0.27163 0.731559 0
679 1 0.29394 0.74221 0
649 1 0.29439 0.715586 0
620 1 0.320473 0.712054 0
651 1 0.346284 0.716725 0
650 1 0.330645 0.734873 0
652 1 0.354374 0.740742 0
655 1 0.388892 0.705779 0
654 1 0.371979 0.723931 0
685 1 0.397193 0.72991 0
683 1 0.379231 0.748203 0
656 1 0.412832 0.711139 0
687 1 0.436522 0.717236 0
686 1 0.420274 0.735982 0
717 1 0.443836 0.741241 0
659 1 0.479294 0.702816 0
689 1 0.460945 0.721731 0
660 1 0.486864 0.726445 0
688 1 0.468289 0.744499 0
662 1 0.0143384 0.752267 0
694 1 0.0373811 0.761865 0
693 1 0.0178838 0.777247 0
725 1 0.039597 0.787157 0
697 1 0.0802146 0.758025 0
696 1 0.0598798 0.773032 0
727 1 0.0823809 0.784487 0
726 1 0.0624184 0.7981 0
699 1 0.122607 0.75706 0
698 1 0.1023 0.769536 0
700 1 0.124504 0.781834 0
728 1 0.104737 0.795668 0
701 1 0.145032 0.767754 0
731 1 0.147365 0.792768 0
672 1 0.164962 0.753423 0
703 1 0.186607 0.76365 0
702 1 0.167832 0.778914 0
704 1 0.190363 0.789362 0
674 1 0.207392 0.750892 0
676 1 0.230928 0.76082 0
705 1 0.210385 0.775575 0
706 1 0.232734 0.786355 0
707 1 0.252472 0.77136 0
678 1 0.272718 0.756442 0
709 1 0.274388 0.781552 0
680 1 0.295066 0.767754 0
737 1 0.255599 0.79731 0
710 1 0.297698 0.791944 0
681 1 0.31442 0.753121 0
682 1 0.33857 0.758532 0
711 1 0.318125 0.777577 0
712 1 0.341658 0.784254 0
713 1 0.360692 0.765877 0
714 1 0.384212 0.773377 0
743 1 0.36624 0.788973 0
745 1 0.391643 0.796015 0
684 1 0.403849 0.753977 0
715 1 0.42756 0.75988 0
716 1 0.409095 0.777813 0
747 1 0.4342 0.782473 0
718 1 0.452763 0.764177 0
690 1 0.492775 0.751013 0
719 1 0.476387 0.769506 0
720 1 0.482666 0.793691 0
749 1 0.458171 0.789052 0
723 1 0.0196144 0.802356 0
722 1 0.0194984 0.828474 0
724 1 0.0421764 0.810642 0
754 1 0.0432117 0.834728 0
757 1 0.0844616 0.809876 0
755 1 0.064767 0.823528 0
756 1 0.0869888 0.834613 0
785 1 0.0676472 0.847426 0
729 1 0.127771 0.806702 0
759 1 0.106567 0.820444 0
760 1 0.128909 0.830718 0
758 1 0.107861 0.847079 0
730 1 0.148921 0.81715 0
761 1 0.152048 0.842494 0
732 1 0.169861 0.804233 0
763 1 0.171607 0.828556 0
733 1 0.191992 0.81435 0
764 1 0.193018 0.842368 0
735 1 0.212073 0.800608 0
736 1 0.23498 0.811372 0
734 1 0.213875 0.826041 0
767 1 0.236274 0.8362 0
708 1 0.278293 0.806784 0
738 1 0.258651 0.823138 0
769 1 0.28121 0.831558 0
768 1 0.256578 0.848219 0
741 1 0.321928 0.801952 0
739 1 0.30245 0.816498 0
740 1 0.303959 0.840627 0
771 1 0.330657 0.829447 0
742 1 0.34634 0.808406 0
773 1 0.355934 0.831017 0
744 1 0.37261 0.811529 0
774 1 0.379969 0.835393 0
775 1 0.398095 0.81931 0
746 1 0.415886 0.801191 0
748 1 0.440397 0.807532 0
777 1 0.423418 0.824701 0
776 1 0.403107 0.843373 0
779 1 0.447987 0.831158 0
778 1 0.42815 0.850045 0
750 1 0.46533 0.812314 0
1621 1 0.489176 0.819403 0
780 1 0.472198 0.836581 0
1651 1 0.496458 0.842974 0
753 1 0.0442716 0.858349 0
752 1 0.0193319 0.855859 0
783 1 0.0389913 0.881408 0
782 1 0.0145915 0.886075 0
784 1 0.062604 0.873471 0
786 1 0.0802215 0.891131 0
787 1 0.0858728 0.863075 0
815 1 0.0561512 0.897506 0
817 1 0.103246 0.881603 0
789 1 0.131677 0.855501 0
788 1 0.127589 0.879252 0
790 1 0.146032 0.897001 0
791 1 0.151641 0.870066 0
762 1 0.172732 0.857796 0
793 1 0.170439 0.887126 0
795 1 0.195614 0.867491 0
765 1 0.216142 0.852307 0
796 1 0.219769 0.877694 0
825 1 0.238018 0.897035 0
766 1 0.244303 0.871345 0
797 1 0.269884 0.870349 0
827 1 0.262168 0.892864 0
798 1 0.287021 0.887621 0
799 1 0.293141 0.863079 0
772 1 0.342147 0.851426 0
770 1 0.319054 0.858701 0
800 1 0.311122 0.88197 0
801 1 0.336871 0.87678 0
802 1 0.355165 0.892797 0
803 1 0.36117 0.86694 0
804 1 0.37907 0.884928 0
805 1 0.385218 0.860749 0
807 1 0.409674 0.86759 0
808 1 0.43534 0.875816 0
837 1 0.439273 0.900303 0
809 1 0.453619 0.855243 0
1681 1 0.478633 0.860383 0
1711 1 0.48511 0.884311 0
810 1 0.461253 0.879054 0
813 1 0.0319769 0.904759 0
843 1 0.0239517 0.928778 0
844 1 0.0422159 0.946324 0
812 1 0.00777056 0.910335 0
814 1 0.0480878 0.921749 0
816 1 0.0989553 0.90736 0
845 1 0.0722957 0.914379 0
846 1 0.0666555 0.938849 0
847 1 0.0909941 0.931597 0
819 1 0.12215 0.902883 0
818 1 0.114775 0.925764 0
820 1 0.132494 0.943695 0
821 1 0.139902 0.920193 0
849 1 0.108069 0.949329 0
792 1 0.164564 0.912025 0
851 1 0.156874 0.938766 0
823 1 0.190099 0.906896 0
822 1 0.181413 0.930363 0
854 1 0.198742 0.948157 0
794 1 0.213664 0.90065 0
824 1 0.207049 0.925056 0
885 1 0.222247 0.944872 0
855 1 0.231762 0.922391 0
856 1 0.2479 0.940418 0
826 1 0.255964 0.917076 0
857 1 0.27383 0.934868 0
828 1 0.27973 0.910242 0
859 1 0.298218 0.929275 0
831 1 0.328363 0.900327 0
829 1 0.30398 0.905675 0
830 1 0.322282 0.924657 0
861 1 0.338556 0.942291 0
860 1 0.314724 0.947609 0
832 1 0.348019 0.918267 0
863 1 0.364273 0.936312 0
833 1 0.371346 0.912299 0
834 1 0.388594 0.929672 0
806 1 0.395077 0.903978 0
835 1 0.415035 0.924637 0
836 1 0.435029 0.943285 0
865 1 0.405525 0.948059 0
838 1 0.449666 0.923771 0
869 1 0.459544 0.946735 0
839 1 0.466515 0.902704 0
840 1 0.475857 0.927609 0
1712 1 0.492879 0.909086 0
842 1 0.0165724 0.951967 0
872 1 0.0251543 0.994607 0
873 1 0.0342068 0.969402 0
871 1 0.00913661 0.976765 0
874 1 0.0509186 0.98785 0
875 1 0.0593835 0.963729 0
876 1 0.0757913 0.981122 0
848 1 0.0834068 0.956105 0
7 1 0.0924829 0.999923 0
877 1 0.0996313 0.973688 0
878 1 0.117409 0.99342 0
879 1 0.124064 0.96939 0
881 1 0.142611 0.986287 0
850 1 0.148491 0.961761 0
853 1 0.174727 0.955083 0
852 1 0.166969 0.978988 0
883 1 0.191689 0.974601 0
882 1 0.184789 0.997078 0
13 1 0.209139 0.99288 0
15 1 0.233536 0.988173 0
884 1 0.215867 0.968996 0
886 1 0.241774 0.964082 0
858 1 0.290173 0.953083 0
887 1 0.266172 0.958865 0
17 1 0.258597 0.983323 0
888 1 0.282341 0.977999 0
19 1 0.299647 0.996024 0
889 1 0.307436 0.972513 0
890 1 0.325271 0.989514 0
891 1 0.331487 0.96642 0
892 1 0.350553 0.983546 0
862 1 0.35666 0.960617 0
864 1 0.38171 0.953285 0
893 1 0.374169 0.978701 0
895 1 0.397264 0.972273 0
894 1 0.391141 0.996604 0
867 1 0.445442 0.968012 0
866 1 0.421457 0.965478 0
896 1 0.41664 0.990638 0
1771 1 0.494391 0.975355 0
897 1 0.451855 0.991157 0
899 1 0.476624 0.995547 0
870 1 0.4856 0.952183 0
868 1 0.46957 0.97114 0
902 1 0.536226 0.0262716 0
901 1 0.510165 0.021738 0
931 1 0.520339 0.0438626 0
903 1 0.527101 0.00349336 0
904 1 0.561748 0.0321526 0
906 1 0.576791 0.0130386 0
935 1 0.584921 0.0366957 0
905 1 0.551133 0.00859435 0
908 1 0.600842 0.018397 0
937 1 0.608807 0.0430038 0
939 1 0.625278 0.0246362 0
910 1 0.642735 0.00579024 0
909 1 0.618137 0.000747113 0
938 1 0.633931 0.0483578 0
941 1 0.650589 0.0308155 0
912 1 0.665938 0.0133463 0
942 1 0.675475 0.0359962 0
943 1 0.691681 0.0179638 0
973 1 0.699657 0.0421487 0
944 1 0.716218 0.0239142 0
945 1 0.732807 0.00620757 0
946 1 0.742004 0.029365 0
975 1 0.723748 0.0473574 0
947 1 0.757467 0.00969337 0
948 1 0.766068 0.0347719 0
918 1 0.781999 0.0167359 0
979 1 0.790468 0.0421195 0
949 1 0.809123 0.0231868 0
951 1 0.837755 0.0190763 0
950 1 0.825689 0.0406229 0
921 1 0.821017 0.00198012 0
952 1 0.85289 0.0377434 0
953 1 0.862433 0.0117348 0
924 1 0.885513 0.00788533 0
954 1 0.877178 0.0310716 0
985 1 0.894972 0.0489205 0
955 1 0.901689 0.0256126 0
926 1 0.927474 0.0191971 0
957 1 0.944729 0.0373829 0
956 1 0.919114 0.0434043 0
925 1 0.909605 0.00227501 0
928 1 0.951853 0.0133737 0
959 1 0.969289 0.0304329 0
930 1 0.993086 0.0243615 0
929 1 0.976399 0.00729805 0
960 1 0.986053 0.0480604 0
933 1 0.545031 0.0499412 0
932 1 0.528871 0.067925 0
962 1 0.536327 0.0910395 0
961 1 0.511863 0.0858789 0
60 1 0.505499 0.0625036 0
963 1 0.552709 0.0738941 0
934 1 0.569264 0.0554251 0
965 1 0.577275 0.078643 0
936 1 0.592705 0.0611952 0
964 1 0.559834 0.0982412 0
966 1 0.600034 0.0847411 0
967 1 0.617301 0.0668113 0
968 1 0.624576 0.0904412 0
969 1 0.641537 0.072659 0
999 1 0.649583 0.0953905 0
940 1 0.657276 0.0536652 0
970 1 0.666325 0.0772511 0
971 1 0.68329 0.0602529 0
972 1 0.690415 0.0833587 0
1003 1 0.707995 0.0661451 0
1004 1 0.7149 0.0896286 0
974 1 0.733148 0.0717246 0
1005 1 0.739359 0.0973703 0
976 1 0.74803 0.0530378 0
1007 1 0.756969 0.0792475 0
977 1 0.771821 0.0593986 0
978 1 0.794263 0.071523 0
1008 1 0.787492 0.0944992 0
980 1 0.818821 0.0668503 0
981 1 0.844004 0.0600715 0
1009 1 0.811138 0.0903521 0
1011 1 0.835276 0.0849589 0
982 1 0.85922 0.0789525 0
983 1 0.869765 0.0554779 0
984 1 0.88609 0.0730233 0
1013 1 0.878158 0.0974637 0
1015 1 0.90213 0.091107 0
986 1 0.910225 0.0666694 0
987 1 0.935414 0.0611161 0
1017 1 0.928647 0.0851347 0
988 1 0.953297 0.0786863 0
958 1 0.961142 0.0549227 0
989 1 0.977141 0.0730939 0
990 1 0.99671 0.090233 0
1019 1 0.971719 0.0964071 0
120 1 0.50058 0.126046 0
991 1 0.518593 0.109496 0
992 1 0.525656 0.133157 0
993 1 0.542953 0.115325 0
1023 1 0.549403 0.139728 0
1021 1 0.507374 0.149846 0
995 1 0.583939 0.1023 0
994 1 0.567455 0.121744 0
996 1 0.591606 0.126911 0
1025 1 0.574924 0.144957 0
997 1 0.607394 0.109232 0
998 1 0.633003 0.113771 0
1027 1 0.616937 0.132527 0
1029 1 0.640225 0.139286 0
1001 1 0.673639 0.102038 0
1000 1 0.65658 0.121237 0
1031 1 0.68134 0.125733 0
1030 1 0.665215 0.144712 0
1002 1 0.697583 0.107616 0
1032 1 0.689427 0.149813 0
1033 1 0.705954 0.131569 0
1035 1 0.723333 0.114332 0
1034 1 0.732683 0.139256 0
1006 1 0.76377 0.10217 0
1036 1 0.756816 0.126991 0
1037 1 0.780605 0.120176 0
1038 1 0.796823 0.13882 0
1067 1 0.77225 0.144802 0
1039 1 0.804638 0.116457 0
1010 1 0.829119 0.109512 0
1040 1 0.822018 0.134958 0
1041 1 0.847216 0.127756 0
1012 1 0.85201 0.102739 0
1043 1 0.872043 0.120954 0
1014 1 0.895646 0.115939 0
1044 1 0.888664 0.140438 0
1042 1 0.864717 0.145836 0
1018 1 0.945178 0.102371 0
1045 1 0.913396 0.133789 0
1016 1 0.918899 0.108363 0
1047 1 0.936721 0.125048 0
1049 1 0.961811 0.119952 0
1020 1 0.987835 0.114212 0
1050 1 0.979935 0.137704 0
1046 1 0.954433 0.14255 0
1022 1 0.530676 0.156819 0
1053 1 0.538711 0.180619 0
1051 1 0.513545 0.175566 0
1052 1 0.520249 0.198812 0
1026 1 0.599008 0.150817 0
1024 1 0.556734 0.163276 0
1055 1 0.580951 0.168781 0
1054 1 0.56407 0.187139 0
1056 1 0.588604 0.192005 0
1028 1 0.623467 0.15709 0
1057 1 0.605889 0.174572 0
1058 1 0.630029 0.181979 0
1059 1 0.647469 0.162908 0
1087 1 0.612168 0.1993 0
1060 1 0.653848 0.187855 0
1061 1 0.671693 0.169013 0
1091 1 0.679368 0.192788 0
1062 1 0.69532 0.174273 0
1063 1 0.713792 0.155991 0
1064 1 0.721268 0.181152 0
1095 1 0.745711 0.185944 0
1065 1 0.73934 0.162327 0
1093 1 0.703284 0.198009 0
1066 1 0.764093 0.168455 0
1068 1 0.78987 0.16309 0
1097 1 0.780288 0.187359 0
1071 1 0.841501 0.151376 0
1069 1 0.813934 0.158194 0
1070 1 0.83196 0.175333 0
1099 1 0.806824 0.182165 0
1100 1 0.823332 0.199268 0
1101 1 0.849169 0.193219 0
1072 1 0.857489 0.169775 0
1073 1 0.882435 0.16387 0
1103 1 0.874551 0.187751 0
1074 1 0.898892 0.182938 0
1077 1 0.930442 0.150477 0
1075 1 0.906759 0.158853 0
1076 1 0.924535 0.175572 0
1107 1 0.941816 0.192772 0
1078 1 0.948724 0.166386 0
1105 1 0.917243 0.199021 0
1048 1 0.972554 0.161327 0
151 1 0.99719 0.156006 0
1079 1 0.989836 0.178999 0
1109 1 0.964844 0.185724 0
1083 1 0.545294 0.204424 0
1082 1 0.527896 0.222759 0
1111 1 0.510958 0.240446 0
1113 1 0.535072 0.246115 0
1081 1 0.50402 0.217513 0
1084 1 0.552961 0.2286 0
1085 1 0.569525 0.210626 0
1086 1 0.59524 0.216155 0
1115 1 0.576989 0.233923 0
1117 1 0.600071 0.240382 0
1089 1 0.636867 0.206064 0
1088 1 0.619377 0.222952 0
1119 1 0.642908 0.230539 0
1118 1 0.624766 0.247165 0
1090 1 0.662434 0.210777 0
1092 1 0.685974 0.217762 0
1121 1 0.667924 0.234733 0
1122 1 0.69307 0.240916 0
1094 1 0.727646 0.206023 0
1123 1 0.710589 0.222497 0
1124 1 0.717196 0.246458 0
1125 1 0.734371 0.22856 0
1096 1 0.751985 0.210456 0
1127 1 0.777379 0.21391 0
1126 1 0.760609 0.233592 0
1128 1 0.785573 0.240051 0
1098 1 0.799698 0.205888 0
1131 1 0.839843 0.217235 0
1129 1 0.816781 0.225578 0
1130 1 0.834466 0.244099 0
1159 1 0.809696 0.249313 0
1102 1 0.867505 0.210652 0
1104 1 0.892844 0.205906 0
1132 1 0.858498 0.234248 0
1133 1 0.885012 0.229478 0
1134 1 0.901644 0.246465 0
1135 1 0.910418 0.223501 0
1106 1 0.935153 0.218868 0
1136 1 0.927044 0.242829 0
1137 1 0.951724 0.235783 0
1108 1 0.959098 0.20968 0
1110 1 0.983444 0.203878 0
1139 1 0.975034 0.227924 0
1140 1 0.992886 0.246668 0
181 1 0.998956 0.22278 0
1112 1 0.517475 0.264368 0
1143 1 0.54269 0.271823 0
1142 1 0.522565 0.28904 0
1144 1 0.548484 0.295781 0
1114 1 0.559298 0.252584 0
1116 1 0.582881 0.258618 0
1145 1 0.565883 0.277938 0
1146 1 0.58969 0.28367 0
1147 1 0.607373 0.265409 0
1149 1 0.631853 0.271663 0
1148 1 0.613413 0.288992 0
1179 1 0.637679 0.295913 0
1120 1 0.64839 0.253221 0
1151 1 0.67383 0.258182 0
1150 1 0.655235 0.277524 0
1152 1 0.681488 0.281549 0
1153 1 0.699125 0.263147 0
1155 1 0.742703 0.251035 0