ITEM: TIMESTEP
64000
ITEM: NUMBER OF ATOMS
1800
ITEM: BOX BOUNDS pp pp pp
3.0493453083003601e+00 1.5535065469169751e+02
3.0493453083003601e+00 1.5535065469169751e+02
0.0000000000000000e+00 5.2800000000000002e+00
ITEM: ATOMS id type xs ys zs
2 1 0.017498 0.0175994 0
3 1 0.0435008 0.0119981 0
33 1 0.0349398 0.0346914 0
31 1 0.0098018 0.0402995 0
1 1 -0.000701685 -0.000732897 0
4 1 0.0598807 0.0297052 0
6 1 0.085336 0.0222157 0
5 1 0.0683099 0.00516166 0
35 1 0.0766368 0.0456501 0
37 1 0.101601 0.040303 0
8 1 0.108601 0.0174519 0
9 1 0.126732 0.0345453 0
880 1 0.132975 0.0093815 0
10 1 0.149934 0.027659 0
11 1 0.156499 0.00391627 0
12 1 0.173727 0.0217248 0
43 1 0.191056 0.0400592 0
41 1 0.167174 0.0456112 0
14 1 0.198716 0.0172833 0
44 1 0.215794 0.0335493 0
45 1 0.22384 0.0108707 0
46 1 0.241512 0.0290182 0
16 1 0.248493 0.00581717 0
47 1 0.265304 0.0239919 0
49 1 0.290352 0.0209128 0
48 1 0.283493 0.0436787 0
77 1 0.25864 0.0478825 0
50 1 0.308041 0.039512 0
20 1 0.316144 0.0148132 0
51 1 0.333463 0.0334044 0
21 1 0.341571 0.00913942 0
22 1 0.358283 0.0279008 0
24 1 0.382894 0.0224272 0
53 1 0.376406 0.046791 0
23 1 0.366662 0.00383399 0
55 1 0.400055 0.0398362 0
25 1 0.408077 0.0176547 0
26 1 0.425827 0.0357965 0
27 1 0.432802 0.0108578 0
30 1 0.495645 0.0377083 0
898 1 0.459391 0.0174256 0
28 1 0.452584 0.0410203 0
29 1 0.484609 0.0165188 0
32 1 0.0273951 0.058455 0
62 1 0.01912 0.0831987 0
63 1 0.0440479 0.0763138 0
61 1 0.00339598 0.064733 0
34 1 0.051349 0.05346 0
65 1 0.0683343 0.0696578 0
66 1 0.0852512 0.0871797 0
36 1 0.0929063 0.0632978 0
64 1 0.0613297 0.0945186 0
39 1 0.142203 0.0525593 0
38 1 0.118149 0.058157 0
67 1 0.109419 0.0807531 0
69 1 0.133164 0.0764139 0
70 1 0.15108 0.0946132 0
40 1 0.159603 0.0708636 0
71 1 0.176263 0.0888301 0
42 1 0.183349 0.0647084 0
72 1 0.200287 0.0818956 0
73 1 0.209338 0.0567993 0
74 1 0.226085 0.0770837 0
75 1 0.233912 0.0533686 0
106 1 0.242673 0.0964198 0
76 1 0.25121 0.0723626 0
78 1 0.27694 0.0670993 0
109 1 0.293275 0.0862271 0
107 1 0.268394 0.0911001 0
79 1 0.301139 0.0627766 0
52 1 0.34907 0.0539279 0
80 1 0.317411 0.0815795 0
81 1 0.325213 0.0570407 0
82 1 0.341574 0.0774496 0
83 1 0.367712 0.0703468 0
113 1 0.37952 0.0913633 0
54 1 0.392301 0.0688854 0
56 1 0.413974 0.0593869 0
57 1 0.437599 0.0621014 0
85 1 0.420823 0.0825926 0
87 1 0.444635 0.0876207 0
84 1 0.402496 0.099953 0
59 1 0.477701 0.0517913 0
88 1 0.466517 0.0958175 0
58 1 0.461914 0.0706498 0
89 1 0.484961 0.0769065 0
93 1 0.0367663 0.0996588 0
92 1 0.02832 0.125426 0
91 1 0.0119387 0.10787 0
123 1 0.0455 0.14198 0
121 1 0.00268341 0.132308 0
94 1 0.0521607 0.118864 0
95 1 0.0778064 0.111843 0
125 1 0.0691574 0.135047 0
96 1 0.0951983 0.129644 0
68 1 0.126628 0.0995037 0
97 1 0.102721 0.105533 0
98 1 0.119322 0.12413 0
99 1 0.14375 0.1192 0
129 1 0.136397 0.142326 0
127 1 0.111176 0.147673 0
100 1 0.167601 0.112038 0
130 1 0.160062 0.137626 0
131 1 0.183537 0.129362 0
101 1 0.192249 0.106608 0
103 1 0.216216 0.100659 0
133 1 0.199836 0.14665 0
102 1 0.209376 0.124187 0
105 1 0.233691 0.11928 0
104 1 0.22508 0.142652 0
136 1 0.249745 0.138181 0
135 1 0.259195 0.11486 0
137 1 0.274138 0.134651 0
108 1 0.285955 0.1107 0
111 1 0.33372 0.100851 0
139 1 0.302873 0.131637 0
110 1 0.309575 0.105453 0
141 1 0.342824 0.125621 0
140 1 0.32637 0.144846 0
112 1 0.361627 0.108908 0
114 1 0.385743 0.117006 0
143 1 0.368516 0.133243 0
144 1 0.3901 0.141026 0
86 1 0.425453 0.106716 0
115 1 0.408557 0.124501 0
116 1 0.432414 0.131746 0
145 1 0.413941 0.149237 0
120 1 0.498845 0.125695 0
90 1 0.491754 0.101222 0
117 1 0.44882 0.113242 0
118 1 0.455738 0.136757 0
119 1 0.474899 0.119383 0
149 1 0.481053 0.143872 0
122 1 0.0218839 0.149092 0
153 1 0.0375169 0.166859 0
152 1 0.0129639 0.172695 0
183 1 0.0304412 0.190628 0
1080 1 0.00676362 0.196402 0
124 1 0.0628612 0.158879 0
126 1 0.0867552 0.152345 0
155 1 0.0790689 0.177366 0
154 1 0.0551479 0.183742 0
156 1 0.0960336 0.194354 0
128 1 0.128562 0.165591 0
157 1 0.103013 0.169911 0
160 1 0.144445 0.184463 0
158 1 0.120606 0.188481 0
132 1 0.177433 0.154977 0
159 1 0.152694 0.161235 0
161 1 0.169324 0.178181 0
162 1 0.18627 0.194595 0
163 1 0.193269 0.171883 0
134 1 0.216005 0.165392 0
164 1 0.227137 0.186079 0
165 1 0.243518 0.163993 0
166 1 0.250108 0.191149 0
167 1 0.266463 0.173243 0
138 1 0.286016 0.155599 0
168 1 0.29088 0.179931 0
197 1 0.274476 0.198859 0
169 1 0.309845 0.162584 0
171 1 0.332674 0.169749 0
170 1 0.315572 0.188383 0
201 1 0.338363 0.195086 0
142 1 0.349502 0.151615 0
172 1 0.355854 0.177302 0
173 1 0.373422 0.15952 0
174 1 0.37978 0.184389 0
175 1 0.397702 0.165976 0
147 1 0.439844 0.155111 0
146 1 0.422713 0.172249 0
205 1 0.40555 0.190568 0
176 1 0.429579 0.197114 0
177 1 0.445925 0.178586 0
148 1 0.463837 0.161998 0
150 1 0.489075 0.167955 0
179 1 0.471476 0.18509 0
180 1 0.497052 0.192433 0
182 1 0.02319 0.214547 0
213 1 0.0392462 0.232498 0
211 1 0.0155731 0.240496 0
184 1 0.0472905 0.207567 0
185 1 0.0718072 0.201458 0
186 1 0.0884212 0.218376 0
215 1 0.063293 0.225738 0
216 1 0.079807 0.241862 0
187 1 0.11283 0.210886 0
188 1 0.128804 0.230586 0
189 1 0.137042 0.207225 0
217 1 0.105355 0.234233 0
191 1 0.163092 0.202444 0
190 1 0.153301 0.224912 0
192 1 0.191887 0.218436 0
221 1 0.17496 0.236375 0
223 1 0.196993 0.243923 0
193 1 0.210203 0.202495 0
194 1 0.214874 0.227043 0
195 1 0.233522 0.20979 0
225 1 0.238589 0.233984 0
196 1 0.256657 0.21602 0
198 1 0.280828 0.222763 0
227 1 0.263457 0.240712 0
228 1 0.287462 0.247721 0
199 1 0.299099 0.207377 0
200 1 0.322279 0.213237 0
229 1 0.30448 0.231254 0
231 1 0.329793 0.236764 0
202 1 0.347122 0.220631 0
203 1 0.362843 0.202455 0
204 1 0.386443 0.206794 0
233 1 0.371073 0.227112 0
235 1 0.39581 0.230767 0
232 1 0.353661 0.245668 0
207 1 0.437143 0.220007 0
206 1 0.418886 0.238659 0
237 1 0.443176 0.244131 0
178 1 0.454613 0.201431 0
208 1 0.460916 0.225357 0
209 1 0.479618 0.207929 0
210 1 0.484494 0.232828 0
212 1 0.00742711 0.263777 0
243 1 0.032974 0.257714 0
241 1 0.00968092 0.288854 0
242 1 0.0339651 0.29728 0
214 1 0.0566401 0.250216 0
244 1 0.0507405 0.276611 0
245 1 0.0749793 0.265575 0
275 1 0.0724508 0.2905 0
247 1 0.0939007 0.280342 0
218 1 0.0985146 0.25657 0
219 1 0.122639 0.252238 0
249 1 0.138285 0.270691 0
248 1 0.118315 0.284805 0
250 1 0.144389 0.293498 0
220 1 0.155865 0.251135 0
222 1 0.18011 0.260769 0
251 1 0.162012 0.277508 0
252 1 0.185149 0.28474 0
281 1 0.167635 0.301979 0
224 1 0.221256 0.250021 0
253 1 0.204184 0.267712 0
255 1 0.227422 0.274893 0
254 1 0.209207 0.291627 0
285 1 0.233262 0.298864 0
226 1 0.246008 0.257976 0
256 1 0.251474 0.283083 0
257 1 0.26977 0.265233 0
259 1 0.293235 0.272583 0
258 1 0.274586 0.288557 0
289 1 0.298704 0.297309 0
230 1 0.310647 0.255077 0
260 1 0.31763 0.279026 0
261 1 0.334023 0.261625 0
262 1 0.341555 0.285385 0
234 1 0.378698 0.249489 0
263 1 0.360025 0.269124 0
264 1 0.383736 0.274716 0
293 1 0.364955 0.293747 0
295 1 0.3895 0.298949 0
265 1 0.402273 0.255644 0
236 1 0.426124 0.263053 0
266 1 0.408344 0.281758 0
267 1 0.431814 0.28662 0
238 1 0.450829 0.267253 0
239 1 0.467402 0.249663 0
1141 1 0.496685 0.282007 0
240 1 0.492644 0.256941 0
269 1 0.474177 0.274132 0
268 1 0.455143 0.291477 0
270 1 0.478767 0.298064 0
271 1 0.0140093 0.313244 0
272 1 0.0373348 0.323041 0
301 1 0.0179869 0.338313 0
303 1 0.0422754 0.347751 0
273 1 0.0557033 0.306701 0
276 1 0.0808901 0.315239 0
274 1 0.0613517 0.330478 0
305 1 0.0857342 0.340619 0
246 1 0.101727 0.302052 0
279 1 0.126344 0.309505 0
277 1 0.10578 0.325779 0
278 1 0.130585 0.334336 0
280 1 0.148518 0.318889 0
311 1 0.153681 0.342799 0
283 1 0.191611 0.308398 0
282 1 0.173547 0.325417 0
313 1 0.196664 0.333318 0
312 1 0.177839 0.350086 0
284 1 0.215138 0.31562 0
315 1 0.220463 0.339857 0
286 1 0.238595 0.324064 0
316 1 0.244072 0.347482 0
287 1 0.256341 0.307654 0
288 1 0.280216 0.313742 0
317 1 0.263124 0.331047 0
319 1 0.287225 0.33887 0
291 1 0.32261 0.303597 0
290 1 0.306566 0.321918 0
321 1 0.311936 0.345658 0
292 1 0.330475 0.327531 0
323 1 0.347593 0.309283 0
294 1 0.372023 0.318271 0
324 1 0.353643 0.333594 0
325 1 0.377948 0.34074 0
296 1 0.395221 0.323599 0
297 1 0.414471 0.305359 0
326 1 0.401641 0.347237 0
298 1 0.439227 0.310087 0
327 1 0.420142 0.329923 0
328 1 0.444037 0.334391 0
299 1 0.461817 0.316555 0
300 1 0.48652 0.322442 0
1201 1 0.492065 0.345677 0
329 1 0.467891 0.340452 0
331 1 0.00330158 0.377819 0
302 1 0.0228038 0.362379 0
332 1 0.0273375 0.38717 0
333 1 0.0461936 0.371338 0
334 1 0.0505823 0.394353 0
304 1 0.0648966 0.355673 0
306 1 0.0904739 0.364403 0
335 1 0.0696562 0.379207 0
337 1 0.0949316 0.388753 0
307 1 0.110791 0.350718 0
309 1 0.135328 0.359179 0
308 1 0.11546 0.375294 0
339 1 0.139622 0.38256 0
338 1 0.11811 0.3989 0
310 1 0.158137 0.366439 0
341 1 0.164111 0.39019 0
343 1 0.182108 0.374232 0
342 1 0.187608 0.398625 0
314 1 0.202433 0.358091 0
345 1 0.225819 0.364829 0
344 1 0.20743 0.382034 0
375 1 0.231118 0.389494 0
346 1 0.249545 0.372859 0
377 1 0.257084 0.396102 0
318 1 0.267329 0.355441 0
349 1 0.293765 0.362174 0
347 1 0.273996 0.378945 0
350 1 0.29965 0.386802 0
322 1 0.337009 0.352385 0
320 1 0.318039 0.369001 0
351 1 0.341763 0.375785 0
381 1 0.323814 0.394698 0
353 1 0.36021 0.358001 0
355 1 0.384575 0.365893 0
354 1 0.365883 0.382963 0
385 1 0.390702 0.390047 0
357 1 0.426488 0.352619 0
356 1 0.408823 0.371414 0
387 1 0.431875 0.376836 0
386 1 0.413852 0.395807 0
359 1 0.450236 0.358583 0
1231 1 0.498132 0.369142 0
358 1 0.456096 0.382908 0
330 1 0.473447 0.364536 0
360 1 0.480226 0.388579 0
361 1 0.0104881 0.403265 0
363 1 0.0342158 0.411782 0
362 1 0.0132495 0.427207 0
364 1 0.0393867 0.436613 0
336 1 0.075567 0.403308 0
365 1 0.0594238 0.420224 0
395 1 0.0646223 0.445214 0
367 1 0.0984951 0.413416 0
366 1 0.105837 0.437381 0
369 1 0.125278 0.422767 0
340 1 0.14493 0.406662 0
368 1 0.130897 0.446512 0
370 1 0.149681 0.430649 0
371 1 0.168786 0.414158 0
401 1 0.174445 0.437695 0
372 1 0.192572 0.422098 0
403 1 0.197549 0.44498 0
373 1 0.211974 0.405389 0
374 1 0.216544 0.429049 0
376 1 0.236914 0.412943 0
405 1 0.24148 0.437204 0
348 1 0.280695 0.402787 0
407 1 0.264846 0.445675 0
378 1 0.261502 0.421244 0
409 1 0.284664 0.428252 0
352 1 0.347742 0.401216 0
379 1 0.304138 0.411236 0
380 1 0.309374 0.436517 0
382 1 0.327901 0.418353 0
411 1 0.331596 0.444009 0
383 1 0.371143 0.40827 0
413 1 0.353046 0.427398 0
414 1 0.376809 0.431092 0
384 1 0.395793 0.414388 0
388 1 0.438705 0.401112 0
415 1 0.402436 0.437738 0
417 1 0.42103 0.419779 0
416 1 0.428037 0.443584 0
419 1 0.445923 0.42489 0
389 1 0.463023 0.406197 0
418 1 0.470502 0.431229 0
390 1 0.488187 0.412074 0
420 1 0.495648 0.436702 0
447 1 0.454018 0.449581 0
392 1 0.000749619 0.467313 0
393 1 0.0194647 0.451277 0
422 1 0.00664496 0.489976 0
423 1 0.0266038 0.475814 0
394 1 0.0455869 0.459128 0
424 1 0.0303175 0.500742 0
425 1 0.0495426 0.484883 0
396 1 0.0679896 0.469283 0
426 1 0.0725098 0.49413 0
397 1 0.0879844 0.453884 0
427 1 0.0921049 0.477361 0
398 1 0.112132 0.463497 0
428 1 0.117229 0.487593 0
429 1 0.137305 0.471067 0
459 1 0.141355 0.495915 0
399 1 0.154544 0.453773 0
400 1 0.178798 0.46178 0
430 1 0.16104 0.479245 0
431 1 0.184816 0.484263 0
404 1 0.221437 0.453001 0
402 1 0.20363 0.468598 0
432 1 0.208389 0.492017 0
433 1 0.227532 0.476831 0
435 1 0.246264 0.460753 0
408 1 0.288316 0.451974 0
436 1 0.251057 0.486329 0
406 1 0.268972 0.470131 0
437 1 0.275682 0.493849 0
439 1 0.294293 0.477668 0
410 1 0.314268 0.460581 0
440 1 0.317893 0.48614 0
441 1 0.338383 0.467934 0
471 1 0.343168 0.49305 0
412 1 0.357802 0.451406 0
442 1 0.362059 0.477363 0
473 1 0.385106 0.490785 0
443 1 0.384455 0.460554 0
477 1 0.443201 0.49115 0
446 1 0.435408 0.467567 0
445 1 0.409934 0.462468 0
444 1 0.410686 0.487506 0
478 1 0.467219 0.496911 0
448 1 0.460696 0.472941 0
450 1 0.485108 0.479019 0
449 1 0.479231 0.455084 0
453 1 0.0118647 0.515242 0
452 1 0.0147712 0.539643 0
454 1 0.0348889 0.525888 0
483 1 0.0397479 0.550031 0
485 1 0.0587223 0.535227 0
455 1 0.0551669 0.511638 0
456 1 0.077919 0.52001 0
486 1 0.0816014 0.543931 0
457 1 0.096288 0.502604 0
487 1 0.101795 0.528491 0
458 1 0.121048 0.51248 0
488 1 0.126307 0.53792 0
489 1 0.144537 0.520782 0
490 1 0.150229 0.546959 0
460 1 0.164057 0.504608 0
461 1 0.189221 0.507096 0
462 1 0.192748 0.530992 0
491 1 0.168256 0.530932 0
493 1 0.216215 0.540062 0
463 1 0.212726 0.515831 0
464 1 0.235856 0.524393 0
495 1 0.237661 0.550438 0
434 1 0.23124 0.501019 0
466 1 0.259095 0.535075 0
465 1 0.256406 0.511062 0
467 1 0.278461 0.519464 0
497 1 0.281323 0.544267 0
438 1 0.298634 0.503815 0
468 1 0.301887 0.528742 0
469 1 0.322566 0.512695 0
499 1 0.32447 0.537646 0
470 1 0.345057 0.520931 0
501 1 0.346895 0.546874 0
503 1 0.367018 0.531493 0
474 1 0.386996 0.516235 0
505 1 0.389843 0.542112 0
472 1 0.364624 0.506317 0
476 1 0.409355 0.526062 0
507 1 0.449959 0.515487 0
509 1 0.433959 0.533761 0
475 1 0.425496 0.508733 0
479 1 0.474861 0.51994 0
480 1 0.457431 0.539871 0
1381 1 0.498823 0.526999 0
510 1 0.481455 0.544723 0
1351 1 0.492156 0.502153 0
511 1 0.00044718 0.580288 0
513 1 0.0201303 0.564674 0
514 1 0.0441419 0.57412 0
512 1 0.0242249 0.588034 0
543 1 0.0455948 0.598559 0
484 1 0.0631575 0.559965 0
515 1 0.085761 0.570386 0
545 1 0.0659964 0.584642 0
516 1 0.0887228 0.595279 0
517 1 0.106038 0.55312 0
518 1 0.109317 0.578448 0
519 1 0.128532 0.563703 0
549 1 0.13128 0.590881 0
520 1 0.151363 0.576851 0
521 1 0.17106 0.560201 0
492 1 0.194949 0.554563 0
523 1 0.195562 0.577997 0
522 1 0.174393 0.588313 0
494 1 0.218071 0.565021 0
524 1 0.219833 0.58924 0
525 1 0.24023 0.575167 0
555 1 0.242336 0.599576 0
496 1 0.261882 0.559373 0
526 1 0.26211 0.583979 0
527 1 0.283808 0.568179 0
528 1 0.285501 0.593146 0
498 1 0.304315 0.552943 0
529 1 0.306733 0.57725 0
500 1 0.326105 0.56414 0
530 1 0.329824 0.587451 0
531 1 0.350422 0.573141 0
532 1 0.35403 0.598331 0
502 1 0.370446 0.557721 0
504 1 0.394731 0.567911 0
533 1 0.374292 0.582138 0
534 1 0.401772 0.591246 0
506 1 0.414738 0.549532 0
535 1 0.420396 0.573545 0
508 1 0.439903 0.557827 0
537 1 0.445573 0.581609 0
536 1 0.427199 0.598582 0
539 1 0.463348 0.564747 0
540 1 0.486848 0.568902 0
538 1 0.470189 0.588818 0
569 1 0.493912 0.59332 0
541 1 0.00293392 0.60415 0
542 1 0.0258838 0.613359 0
571 1 0.00533734 0.628572 0
573 1 0.0273533 0.63884 0
544 1 0.0475525 0.623387 0
546 1 0.0685273 0.610014 0
547 1 0.0917108 0.620295 0
575 1 0.0704719 0.635343 0
576 1 0.0926325 0.646114 0
548 1 0.111802 0.605573 0
550 1 0.133283 0.616883 0
577 1 0.113547 0.631571 0
579 1 0.136612 0.642227 0
553 1 0.199125 0.601766 0
551 1 0.153336 0.602968 0
581 1 0.157166 0.627419 0
552 1 0.177709 0.613535 0
582 1 0.180165 0.638029 0
583 1 0.200736 0.627048 0
554 1 0.221 0.612835 0
556 1 0.245012 0.623727 0
585 1 0.223929 0.637621 0
586 1 0.247132 0.647948 0
584 1 0.203076 0.650988 0
557 1 0.265293 0.608942 0
587 1 0.267937 0.633861 0
558 1 0.288775 0.619116 0
589 1 0.289956 0.644315 0
559 1 0.307217 0.601794 0
560 1 0.310223 0.628962 0
561 1 0.328615 0.61322 0
591 1 0.331506 0.638824 0
562 1 0.350755 0.622369 0
563 1 0.381676 0.607951 0
564 1 0.372546 0.631853 0
593 1 0.353598 0.648752 0
595 1 0.395435 0.637975 0
565 1 0.408353 0.616947 0
566 1 0.434356 0.623523 0
596 1 0.418793 0.642127 0
598 1 0.443135 0.648489 0
567 1 0.452413 0.605264 0
597 1 0.460328 0.62993 0
568 1 0.477078 0.61171 0
570 1 0.48444 0.635965 0
574 1 0.0494166 0.649318 0
572 1 0.00564736 0.653225 0
603 1 0.0287722 0.663417 0
602 1 0.00942159 0.677495 0
633 1 0.0316946 0.688089 0
604 1 0.0509393 0.673263 0
605 1 0.0721825 0.660209 0
606 1 0.0763462 0.685708 0
607 1 0.0950697 0.671424 0
637 1 0.0984089 0.696362 0
635 1 0.054254 0.698023 0
578 1 0.115669 0.6565 0
609 1 0.138772 0.666891 0
608 1 0.116591 0.680591 0
639 1 0.139517 0.691323 0
580 1 0.159395 0.651854 0
611 1 0.18162 0.66339 0
610 1 0.161197 0.677853 0
612 1 0.184012 0.688708 0
613 1 0.205171 0.676119 0
615 1 0.226492 0.662025 0
614 1 0.228195 0.686943 0
617 1 0.248805 0.673037 0
616 1 0.250248 0.697033 0
643 1 0.205582 0.700263 0
588 1 0.269338 0.659157 0
619 1 0.292633 0.66912 0
618 1 0.270859 0.684185 0
590 1 0.312624 0.653729 0
621 1 0.315361 0.681797 0
592 1 0.334168 0.665416 0
622 1 0.33961 0.690407 0
623 1 0.360399 0.67216 0
594 1 0.378357 0.655497 0
624 1 0.383732 0.680393 0
653 1 0.3666 0.697495 0
625 1 0.401897 0.661497 0
627 1 0.42584 0.666266 0
626 1 0.4091 0.684344 0
657 1 0.43327 0.690522 0
628 1 0.450412 0.671394 0
599 1 0.467354 0.653811 0
600 1 0.491772 0.660669 0
629 1 0.473657 0.677927 0
630 1 0.498869 0.684084 0
658 1 0.457793 0.695901 0
632 1 0.0112767 0.702532 0
634 1 0.0333744 0.712501 0
663 1 0.0128779 0.726455 0
664 1 0.0358414 0.737222 0
636 1 0.0765611 0.70976 0
665 1 0.056011 0.724192 0
666 1 0.0796656 0.734586 0
695 1 0.0587718 0.74905 0
667 1 0.0996546 0.720782 0
638 1 0.120526 0.705629 0
640 1 0.142906 0.715948 0
669 1 0.122436 0.731539 0
668 1 0.101667 0.745955 0
670 1 0.145284 0.741631 0
641 1 0.163684 0.702372 0
642 1 0.185213 0.714215 0
671 1 0.16445 0.727969 0
673 1 0.188245 0.739219 0
645 1 0.228515 0.712213 0
644 1 0.208535 0.725283 0
675 1 0.229543 0.737939 0
646 1 0.251454 0.722995 0
647 1 0.273286 0.709497 0
677 1 0.251806 0.748219 0
648 1 0.272319 0.735391 0
649 1 0.30022 0.719153 0
679 1 0.294208 0.743931 0
620 1 0.325201 0.711291 0
651 1 0.349833 0.71711 0
650 1 0.333356 0.735721 0
652 1 0.357356 0.740362 0
655 1 0.391773 0.703711 0
654 1 0.373908 0.721631 0
685 1 0.397436 0.727605 0
683 1 0.381083 0.745751 0
656 1 0.413894 0.708409 0
687 1 0.437761 0.714758 0
686 1 0.420984 0.732818 0
717 1 0.44517 0.73792 0
659 1 0.481835 0.702236 0
689 1 0.462564 0.720635 0
660 1 0.487449 0.725976 0
688 1 0.468438 0.745435 0
662 1 0.0152022 0.751434 0
694 1 0.038234 0.761696 0
693 1 0.0177861 0.776405 0
725 1 0.0407607 0.787051 0
697 1 0.0817634 0.760261 0
696 1 0.0616038 0.774712 0
727 1 0.0844909 0.784349 0
726 1 0.0646213 0.799809 0
699 1 0.12449 0.756005 0
698 1 0.10394 0.771497 0
700 1 0.126433 0.782225 0
728 1 0.105487 0.796673 0
701 1 0.146274 0.766823 0
731 1 0.148588 0.793047 0
672 1 0.166133 0.753854 0
703 1 0.189299 0.764587 0
702 1 0.16919 0.778971 0
704 1 0.191651 0.789236 0
674 1 0.209512 0.750085 0
676 1 0.231358 0.762949 0
705 1 0.211685 0.775644 0
706 1 0.233221 0.788801 0
707 1 0.254667 0.774904 0
678 1 0.27429 0.760989 0
737 1 0.256541 0.80083 0
709 1 0.277015 0.786646 0
680 1 0.296632 0.769249 0
710 1 0.300787 0.794007 0
681 1 0.316063 0.753802 0
682 1 0.340232 0.758577 0
711 1 0.320862 0.77785 0
712 1 0.345655 0.783421 0
713 1 0.363547 0.763722 0
714 1 0.387343 0.769814 0
743 1 0.370039 0.787771 0
745 1 0.393851 0.793231 0
684 1 0.403594 0.751573 0
715 1 0.42799 0.756717 0
716 1 0.411606 0.776189 0
747 1 0.435066 0.781492 0
718 1 0.452049 0.762612 0
690 1 0.492161 0.750968 0
719 1 0.475748 0.769446 0
720 1 0.48376 0.793539 0
749 1 0.459614 0.78732 0
723 1 0.0206796 0.80214 0
722 1 0.0216014 0.827662 0
724 1 0.043884 0.812045 0
754 1 0.0440479 0.835375 0
751 1 0.000919739 0.817229 0
757 1 0.0864169 0.811536 0
755 1 0.0654235 0.82448 0
756 1 0.0886352 0.838373 0
785 1 0.064183 0.848386 0
729 1 0.128465 0.807147 0
759 1 0.10938 0.822347 0
760 1 0.131605 0.831881 0
730 1 0.152041 0.818922 0
732 1 0.173038 0.805469 0
761 1 0.154693 0.845671 0
763 1 0.17361 0.831563 0
733 1 0.194302 0.816684 0
764 1 0.196021 0.841514 0
735 1 0.214741 0.803494 0
736 1 0.236624 0.81578 0
734 1 0.215821 0.828261 0
767 1 0.238221 0.84024 0
708 1 0.281541 0.812109 0
738 1 0.260065 0.825317 0
768 1 0.26043 0.850103 0
769 1 0.283624 0.838366 0
741 1 0.326465 0.803871 0
739 1 0.304616 0.819005 0
740 1 0.30805 0.841697 0
771 1 0.331775 0.828479 0
742 1 0.35147 0.806694 0
773 1 0.358711 0.831779 0
744 1 0.375968 0.812355 0
774 1 0.382081 0.837558 0
775 1 0.398564 0.818576 0
746 1 0.417129 0.800891 0
748 1 0.442017 0.806055 0
777 1 0.422409 0.825141 0
776 1 0.405047 0.843008 0
779 1 0.447736 0.829687 0
778 1 0.430367 0.848163 0
750 1 0.466135 0.810832 0
1621 1 0.490201 0.818245 0
780 1 0.471594 0.836339 0
1651 1 0.495989 0.841907 0
753 1 0.0419377 0.858567 0
752 1 0.0176314 0.862636 0
783 1 0.0353642 0.882032 0
782 1 0.011452 0.886338 0
784 1 0.0600248 0.874588 0
786 1 0.0765781 0.8905 0
787 1 0.0825129 0.865159 0
815 1 0.0535483 0.898266 0
817 1 0.100598 0.881926 0
758 1 0.106069 0.855973 0
789 1 0.131275 0.855645 0
788 1 0.125574 0.879137 0
790 1 0.145494 0.894782 0
762 1 0.174793 0.864417 0
791 1 0.15124 0.870438 0
793 1 0.169252 0.888025 0
795 1 0.195228 0.884287 0
765 1 0.216527 0.854657 0
796 1 0.221729 0.878577 0
825 1 0.239295 0.894677 0
766 1 0.24953 0.872401 0
797 1 0.274182 0.869194 0
827 1 0.263704 0.891928 0
799 1 0.298567 0.864207 0
798 1 0.288922 0.887801 0
772 1 0.345938 0.85251 0
770 1 0.323516 0.859454 0
800 1 0.31448 0.882916 0
801 1 0.3406 0.877345 0
802 1 0.357555 0.895697 0
803 1 0.364061 0.869268 0
804 1 0.382011 0.888453 0
805 1 0.387735 0.862881 0
807 1 0.412009 0.868182 0
808 1 0.43809 0.872611 0
837 1 0.420448 0.893522 0
809 1 0.455317 0.855365 0
1681 1 0.478597 0.861663 0
1711 1 0.48518 0.885259 0
810 1 0.461425 0.879434 0
813 1 0.0277273 0.905072 0
843 1 0.0205765 0.928312 0
814 1 0.0462933 0.922427 0
844 1 0.0380367 0.945667 0
812 1 0.00304612 0.910479 0
816 1 0.0954129 0.905884 0
845 1 0.0706934 0.9154 0
846 1 0.0635839 0.939444 0
847 1 0.0875094 0.93325 0
819 1 0.120094 0.901712 0
818 1 0.112628 0.925765 0
820 1 0.130471 0.943075 0
821 1 0.137183 0.919133 0
792 1 0.16234 0.914184 0
851 1 0.154616 0.938149 0
823 1 0.187155 0.908522 0
822 1 0.179335 0.932783 0
854 1 0.197776 0.951001 0
794 1 0.213893 0.901446 0
824 1 0.204025 0.926057 0
885 1 0.220638 0.944729 0
855 1 0.22887 0.920793 0
856 1 0.246699 0.938522 0
826 1 0.254543 0.914444 0
857 1 0.27105 0.933117 0
828 1 0.280458 0.911434 0
859 1 0.299145 0.929155 0
831 1 0.330949 0.899575 0
829 1 0.304998 0.905782 0
830 1 0.324788 0.924127 0
832 1 0.347687 0.917612 0
861 1 0.339258 0.943255 0
806 1 0.396845 0.907722 0
863 1 0.363662 0.938449 0
833 1 0.373382 0.913924 0
834 1 0.391202 0.931899 0
835 1 0.41687 0.925243 0
836 1 0.43396 0.944649 0
838 1 0.450017 0.923508 0
865 1 0.407567 0.949808 0
870 1 0.484843 0.951004 0
869 1 0.460059 0.946083 0
839 1 0.469917 0.903583 0
840 1 0.476568 0.927516 0
1712 1 0.495123 0.908943 0
842 1 0.0136186 0.952535 0
872 1 0.0249769 0.994978 0
873 1 0.0302817 0.96991 0
871 1 0.00739712 0.976509 0
874 1 0.049062 0.988378 0
875 1 0.0546718 0.96442 0
876 1 0.0733559 0.980468 0
848 1 0.0806694 0.957124 0
877 1 0.098495 0.974248 0
7 1 0.0921959 0.997593 0
849 1 0.105815 0.949269 0
878 1 0.115666 0.991371 0
879 1 0.12285 0.967603 0
881 1 0.139591 0.984612 0
850 1 0.148378 0.961355 0
853 1 0.1729 0.957172 0
852 1 0.164645 0.979906 0
883 1 0.188515 0.975097 0
882 1 0.181454 0.997846 0
13 1 0.206476 0.993508 0
15 1 0.231143 0.985754 0
884 1 0.213855 0.969408 0
886 1 0.238576 0.961726 0
858 1 0.289823 0.953291 0
887 1 0.262939 0.956685 0
17 1 0.255532 0.98076 0
888 1 0.280841 0.976122 0
19 1 0.300307 0.996279 0
18 1 0.275617 0.999442 0
860 1 0.315474 0.947181 0
889 1 0.309033 0.972042 0
890 1 0.325285 0.99163 0
892 1 0.349512 0.985762 0
891 1 0.332445 0.967204 0
862 1 0.35645 0.961853 0
864 1 0.380725 0.956376 0
893 1 0.373262 0.98045 0
895 1 0.398721 0.974065 0
894 1 0.391955 0.999039 0
866 1 0.423259 0.968787 0
896 1 0.415785 0.992656 0
867 1 0.447194 0.966252 0
868 1 0.470343 0.97086 0
1771 1 0.493912 0.974749 0
897 1 0.448087 0.990765 0
899 1 0.476293 0.994022 0
1680 1 0.0014869 0.844593 0
902 1 0.535087 0.0250928 0
901 1 0.511596 0.0199294 0
931 1 0.519551 0.0436771 0
903 1 0.527454 0.00179396 0
933 1 0.543098 0.0495614 0
904 1 0.56094 0.0314073 0
906 1 0.577094 0.0112117 0
935 1 0.585225 0.0356485 0
905 1 0.552605 0.00669467 0
908 1 0.601862 0.0176802 0
937 1 0.609656 0.0414167 0
939 1 0.626071 0.0238543 0
910 1 0.643401 0.00672331 0
938 1 0.634182 0.0480101 0
909 1 0.618587 0.000230449 0
941 1 0.650497 0.0300399 0
912 1 0.666162 0.0124115 0
942 1 0.674457 0.0355077 0
943 1 0.691211 0.01762 0
973 1 0.700944 0.0414573 0
944 1 0.71564 0.0225121 0
945 1 0.732352 0.00337921 0
946 1 0.739045 0.0264573 0
975 1 0.725224 0.0475477 0
947 1 0.756939 0.00901095 0
948 1 0.762758 0.0341337 0
918 1 0.780439 0.0155979 0
979 1 0.799797 0.0466332 0
949 1 0.805929 0.020977 0
951 1 0.834408 0.0188471 0
950 1 0.826492 0.0416194 0
952 1 0.85082 0.0369387 0
953 1 0.859182 0.0139475 0
924 1 0.883532 0.00824979 0
954 1 0.875062 0.0321406 0
955 1 0.900352 0.0246237 0
925 1 0.907487 0.00151902 0
926 1 0.925165 0.0202293 0
957 1 0.942361 0.0373379 0
956 1 0.91902 0.0443393 0
928 1 0.947691 0.0132874 0
959 1 0.967385 0.0301697 0
930 1 0.991401 0.02357 0
929 1 0.975762 0.00669673 0
960 1 0.98414 0.0476482 0
932 1 0.525504 0.0670524 0
962 1 0.532461 0.0900478 0
961 1 0.50819 0.0842952 0
60 1 0.501817 0.060868 0
963 1 0.550481 0.0728281 0
934 1 0.567292 0.0548678 0
965 1 0.576075 0.0777484 0
964 1 0.55893 0.0963569 0
936 1 0.593088 0.059135 0
966 1 0.599789 0.0837897 0
967 1 0.61664 0.0660379 0
968 1 0.62607 0.0910836 0
969 1 0.641519 0.0720255 0
999 1 0.651802 0.0963347 0
940 1 0.658626 0.0542487 0
970 1 0.667086 0.0778095 0
971 1 0.682633 0.0586198 0
972 1 0.690882 0.0832415 0
1003 1 0.706516 0.0651477 0
1004 1 0.715096 0.0900538 0
974 1 0.730611 0.0708059 0
1005 1 0.740068 0.0952549 0
976 1 0.748552 0.0548883 0
1007 1 0.757651 0.0775705 0
977 1 0.772984 0.0574147 0
978 1 0.794609 0.0710159 0
1008 1 0.78694 0.095662 0
980 1 0.81828 0.0654279 0
981 1 0.843315 0.0611044 0
1009 1 0.811608 0.0893697 0
1011 1 0.835662 0.0845266 0
985 1 0.892309 0.0490109 0
982 1 0.860823 0.0788256 0
983 1 0.866963 0.0550226 0
984 1 0.885655 0.0730845 0
1013 1 0.878091 0.0968817 0
1015 1 0.902844 0.0908436 0
986 1 0.909281 0.0665404 0
987 1 0.93668 0.0612583 0
1017 1 0.927615 0.0852978 0
988 1 0.953435 0.0804141 0
958 1 0.959345 0.0547583 0
989 1 0.979109 0.0717559 0
990 1 0.995377 0.0900133 0
1019 1 0.972431 0.0959414 0
991 1 0.516885 0.108602 0
992 1 0.524023 0.13188 0
993 1 0.540672 0.114011 0
1023 1 0.548127 0.138415 0
995 1 0.582585 0.102125 0
994 1 0.567717 0.12086 0
996 1 0.590276 0.126164 0
1025 1 0.574432 0.145733 0
1026 1 0.598032 0.151094 0
997 1 0.608847 0.107889 0
998 1 0.633717 0.114174 0
1027 1 0.61624 0.132239 0
1029 1 0.640182 0.137675 0
1001 1 0.675259 0.103414 0
1000 1 0.658508 0.120441 0
1031 1 0.682962 0.126223 0
1030 1 0.665817 0.143482 0
1002 1 0.699647 0.108066 0
1033 1 0.707116 0.132882 0
1035 1 0.723377 0.113778 0
1034 1 0.730634 0.137267 0
1036 1 0.74804 0.120461 0
1006 1 0.763571 0.101222 0
1037 1 0.779711 0.120138 0
1038 1 0.796184 0.138523 0
1067 1 0.773318 0.143982 0
1039 1 0.802809 0.11348 0
1010 1 0.829288 0.10844 0
1040 1 0.819779 0.13192 0
1041 1 0.845658 0.127428 0
1012 1 0.853883 0.103094 0
1043 1 0.871293 0.120849 0
1014 1 0.897098 0.114007 0
1044 1 0.888386 0.13843 0
1042 1 0.864025 0.14494 0
1045 1 0.913359 0.132293 0
1016 1 0.920542 0.108827 0
1047 1 0.938632 0.125996 0
1018 1 0.946039 0.102493 0
1049 1 0.962277 0.120565 0
1020 1 0.98766 0.114429 0
1050 1 0.978767 0.138517 0
1046 1 0.954551 0.144587 0
1021 1 0.505218 0.149786 0
1022 1 0.530876 0.156446 0
1053 1 0.538787 0.180115 0
1051 1 0.513683 0.174152 0
1052 1 0.521337 0.197678 0
1024 1 0.555763 0.162861 0
1055 1 0.580941 0.169222 0
1054 1 0.563367 0.186089 0
1056 1 0.589118 0.19378 0
1028 1 0.622891 0.156573 0
1057 1 0.605913 0.174832 0
1058 1 0.630667 0.180489 0
1087 1 0.614283 0.198738 0
1059 1 0.648289 0.161877 0
1032 1 0.690253 0.14989 0
1060 1 0.655755 0.184272 0
1061 1 0.673868 0.166831 0
1091 1 0.679825 0.190478 0
1062 1 0.697944 0.173559 0
1063 1 0.716014 0.156041 0
1064 1 0.721827 0.179506 0
1095 1 0.747702 0.186303 0
1093 1 0.704054 0.198896 0
1065 1 0.739479 0.162039 0
1066 1 0.764672 0.16743 0
1068 1 0.789813 0.163634 0
1097 1 0.779077 0.189288 0
1069 1 0.814833 0.155374 0
1071 1 0.838977 0.150207 0
1070 1 0.831893 0.173415 0
1099 1 0.806776 0.180429 0
1101 1 0.849021 0.191583 0
1100 1 0.824621 0.196688 0
1072 1 0.856886 0.168006 0
1073 1 0.881607 0.162979 0
1103 1 0.873794 0.185864 0
1074 1 0.899284 0.181344 0
1075 1 0.904954 0.155893 0
1077 1 0.929501 0.151729 0
1076 1 0.923102 0.174143 0
1107 1 0.94064 0.191813 0
1078 1 0.946799 0.167609 0
1105 1 0.916516 0.198307 0
1048 1 0.9713 0.161758 0
151 1 0.996073 0.156912 0
1079 1 0.987874 0.180128 0
1109 1 0.963464 0.185768 0
1083 1 0.546618 0.204139 0
1081 1 0.504301 0.216295 0
1082 1 0.528714 0.222987 0
1111 1 0.509023 0.239388 0
1113 1 0.533036 0.246401 0
1084 1 0.552668 0.228129 0
1085 1 0.570728 0.210773 0
1086 1 0.595505 0.21678 0
1115 1 0.57754 0.234243 0
1089 1 0.638277 0.2025 0
1117 1 0.601175 0.239959 0
1088 1 0.620674 0.221729 0
1119 1 0.645141 0.227708 0
1118 1 0.625232 0.246109 0
1090 1 0.662745 0.20857 0
1092 1 0.686501 0.215769 0
1121 1 0.668304 0.234484 0
1122 1 0.693718 0.240235 0
1094 1 0.727522 0.203652 0
1123 1 0.712869 0.222474 0
1124 1 0.717899 0.247247 0
1125 1 0.734945 0.2293 0
1096 1 0.752999 0.210188 0
1127 1 0.776626 0.213991 0
1126 1 0.760054 0.234182 0
1128 1 0.785372 0.239808 0
1098 1 0.799809 0.204276 0
1131 1 0.84071 0.215502 0
1129 1 0.816636 0.222304 0
1130 1 0.833936 0.240316 0
1159 1 0.809342 0.247267 0
1102 1 0.865017 0.208868 0
1104 1 0.891971 0.203886 0
1132 1 0.860918 0.233668 0
1133 1 0.885108 0.227539 0
1134 1 0.901864 0.247086 0
1135 1 0.909714 0.222138 0
1106 1 0.932835 0.215695 0
1136 1 0.925502 0.241384 0
1137 1 0.949349 0.234266 0
1108 1 0.957569 0.210443 0
1110 1 0.980947 0.20406 0
1139 1 0.97266 0.228497 0
181 1 0.999145 0.22116 0
1140 1 0.990545 0.244463 0
1112 1 0.515583 0.264053 0
1143 1 0.540976 0.270188 0
1142 1 0.520554 0.287491 0
1144 1 0.546621 0.293142 0
1114 1 0.557954 0.252762 0
1116 1 0.584826 0.258435 0
1145 1 0.564789 0.275072 0
1146 1 0.588858 0.282609 0
1175 1 0.57194 0.298689 0
1147 1 0.60837 0.264867 0
1149 1 0.632949 0.270232 0
1148 1 0.613297 0.288305 0
1179 1 0.638652 0.294043 0
1120 1 0.648268 0.252372 0
1151 1 0.673486 0.258091 0
1150 1 0.656496 0.276458 0