ITEM: TIMESTEP
58000
ITEM: NUMBER OF ATOMS
1800
ITEM: BOX BOUNDS pp pp pp
2.9363713708476951e+00 1.5546362862915259e+02
2.9363713708476951e+00 1.5546362862915259e+02
0.0000000000000000e+00 5.2800000000000002e+00
ITEM: ATOMS id type xs ys zs
2 1 0.0148492 0.0198937 0
3 1 0.0393679 0.0140078 0
33 1 0.0312767 0.0378321 0
31 1 0.00773943 0.0429308 0
4 1 0.0571945 0.030536 0
6 1 0.0838449 0.022989 0
5 1 0.0647522 0.00678591 0
35 1 0.0745025 0.0470026 0
120 1 0.499375 0.124667 0
37 1 0.100827 0.0400542 0
8 1 0.107845 0.015732 0
9 1 0.125192 0.0343165 0
880 1 0.131795 0.0108951 0
10 1 0.15031 0.0269647 0
11 1 0.157668 0.00430452 0
12 1 0.174991 0.0221006 0
43 1 0.192293 0.0404555 0
41 1 0.16801 0.0458095 0
14 1 0.2002 0.0168153 0
44 1 0.217613 0.0354368 0
45 1 0.225379 0.0109198 0
46 1 0.24121 0.0304984 0
16 1 0.249903 0.00785353 0
47 1 0.267517 0.0251616 0
49 1 0.291186 0.0205928 0
48 1 0.284478 0.0434441 0
77 1 0.259373 0.0483097 0
18 1 0.274018 0.00173813 0
50 1 0.309721 0.03845 0
20 1 0.315525 0.0144064 0
51 1 0.333417 0.03222 0
21 1 0.340878 0.00765391 0
22 1 0.357332 0.0253857 0
24 1 0.38046 0.0193543 0
53 1 0.375931 0.0443754 0
55 1 0.400357 0.0354386 0
448 1 0.459195 0.47212 0
25 1 0.405564 0.0124288 0
26 1 0.425259 0.0305318 0
27 1 0.42966 0.00736581 0
30 1 0.497225 0.0366362 0
898 1 0.453614 0.0158633 0
28 1 0.455804 0.03991 0
29 1 0.476784 0.023647 0
900 1 0.494029 0.00450455 0
59 1 0.478358 0.0513601 0
32 1 0.0265953 0.0609661 0
62 1 0.0174035 0.0857434 0
63 1 0.0439732 0.077661 0
61 1 0.00154851 0.0651597 0
34 1 0.0508591 0.0533437 0
65 1 0.067331 0.0706963 0
66 1 0.0848673 0.0874171 0
36 1 0.0942045 0.0634922 0
64 1 0.061104 0.0955986 0
39 1 0.142797 0.0520073 0
38 1 0.118515 0.0583154 0
67 1 0.111111 0.0821571 0
69 1 0.135094 0.0756023 0
68 1 0.127722 0.0999996 0
70 1 0.152735 0.0937532 0
40 1 0.160503 0.0700031 0
71 1 0.177694 0.0873477 0
42 1 0.185379 0.0633064 0
72 1 0.202103 0.0824717 0
73 1 0.209139 0.0593382 0
74 1 0.226347 0.0771868 0
75 1 0.234541 0.0543831 0
106 1 0.243453 0.0945879 0
76 1 0.252117 0.0717694 0
78 1 0.277047 0.066356 0
109 1 0.294228 0.0864077 0
107 1 0.269456 0.0928519 0
79 1 0.300896 0.0627904 0
80 1 0.320314 0.0813123 0
81 1 0.32647 0.0574929 0
82 1 0.343385 0.0751133 0
111 1 0.337 0.100279 0
52 1 0.350244 0.0512036 0
83 1 0.367745 0.0675263 0
113 1 0.378791 0.0903159 0
54 1 0.392713 0.0640421 0
56 1 0.416769 0.0533069 0
57 1 0.439733 0.0597081 0
85 1 0.42027 0.0764237 0
87 1 0.444335 0.0853299 0
84 1 0.404853 0.0958494 0
88 1 0.46938 0.0917406 0
58 1 0.462235 0.068352 0
89 1 0.486432 0.0765535 0
90 1 0.492639 0.100754 0
93 1 0.0361828 0.101645 0
92 1 0.0282234 0.127681 0
91 1 0.0106818 0.110061 0
123 1 0.0459193 0.142867 0
121 1 0.00246504 0.134574 0
94 1 0.0533766 0.119578 0
95 1 0.0785777 0.113388 0
125 1 0.0705823 0.13652 0
96 1 0.0958928 0.130457 0
97 1 0.102787 0.106627 0
98 1 0.120983 0.124013 0
99 1 0.144842 0.11734 0
129 1 0.138194 0.141682 0
127 1 0.112665 0.147328 0
100 1 0.169381 0.11136 0
130 1 0.161853 0.134618 0
131 1 0.184943 0.130543 0
101 1 0.194274 0.106556 0
103 1 0.21864 0.101209 0
133 1 0.202603 0.145565 0
102 1 0.211578 0.12405 0
105 1 0.236126 0.118215 0
104 1 0.227277 0.142566 0
136 1 0.251461 0.137946 0
135 1 0.26004 0.114837 0
137 1 0.27662 0.132151 0
108 1 0.286838 0.110076 0
139 1 0.303281 0.133805 0
110 1 0.311045 0.103946 0
141 1 0.342364 0.124962 0
140 1 0.326467 0.143807 0
112 1 0.361805 0.108045 0
114 1 0.388193 0.114493 0
143 1 0.368606 0.132711 0
144 1 0.393105 0.138288 0
142 1 0.349228 0.150245 0
86 1 0.428097 0.103382 0
115 1 0.411578 0.120555 0
116 1 0.436259 0.128108 0
145 1 0.417025 0.144055 0
117 1 0.452074 0.109983 0
118 1 0.460211 0.135595 0
119 1 0.475619 0.11823 0
149 1 0.483152 0.142946 0
122 1 0.0213838 0.151169 0
153 1 0.0365266 0.16864 0
152 1 0.0134381 0.175143 0
183 1 0.0312483 0.192338 0
1080 1 0.00634789 0.199066 0
124 1 0.0608368 0.162696 0
126 1 0.0874774 0.154026 0
155 1 0.0807306 0.178113 0
154 1 0.054639 0.18594 0
156 1 0.0976077 0.194244 0
128 1 0.129699 0.164964 0
157 1 0.105449 0.171853 0
160 1 0.147555 0.182587 0
158 1 0.122478 0.189666 0
132 1 0.177828 0.153547 0
159 1 0.154051 0.159015 0
161 1 0.171835 0.176708 0
162 1 0.189405 0.194975 0
163 1 0.194951 0.170359 0
134 1 0.21844 0.165209 0
164 1 0.229972 0.186136 0
165 1 0.243296 0.162927 0
193 1 0.212099 0.202614 0
166 1 0.255184 0.190717 0
167 1 0.26679 0.169293 0
138 1 0.286673 0.15378 0
168 1 0.291533 0.178157 0
197 1 0.278091 0.196874 0
169 1 0.30966 0.16233 0
171 1 0.334393 0.169194 0
170 1 0.316405 0.185523 0
201 1 0.340738 0.192585 0
172 1 0.358819 0.174759 0
173 1 0.374963 0.15642 0
174 1 0.382536 0.18156 0
203 1 0.364436 0.198605 0
175 1 0.399881 0.162941 0
147 1 0.439956 0.151391 0
146 1 0.422692 0.169999 0
205 1 0.406576 0.189265 0
176 1 0.431479 0.195384 0
177 1 0.447297 0.17705 0
148 1 0.464663 0.159603 0
150 1 0.489817 0.167612 0
179 1 0.471683 0.183974 0
180 1 0.49585 0.190945 0
181 1 0.0004273 0.224449 0
182 1 0.0254198 0.217173 0
213 1 0.0416076 0.234999 0
211 1 0.0183126 0.240891 0
184 1 0.0482002 0.210146 0
185 1 0.0721775 0.2031 0
186 1 0.0896591 0.219151 0
215 1 0.0657934 0.227976 0
216 1 0.0829836 0.243481 0
187 1 0.113959 0.212886 0
188 1 0.133231 0.2297 0
189 1 0.140855 0.206216 0
217 1 0.108676 0.23546 0
191 1 0.164848 0.200764 0
190 1 0.156219 0.224391 0
192 1 0.194603 0.219485 0
221 1 0.176707 0.235775 0
223 1 0.200677 0.242984 0
194 1 0.21935 0.225672 0
195 1 0.237414 0.209399 0
225 1 0.243135 0.233344 0
224 1 0.224067 0.249614 0
196 1 0.260205 0.21503 0
198 1 0.283334 0.222013 0
227 1 0.265444 0.240479 0
228 1 0.28953 0.246346 0
199 1 0.300756 0.203818 0
200 1 0.323829 0.210656 0
229 1 0.306712 0.228422 0
231 1 0.329835 0.236204 0
202 1 0.347195 0.217668 0
204 1 0.389623 0.207 0
233 1 0.370604 0.223079 0
235 1 0.395523 0.23042 0
232 1 0.354173 0.240679 0
234 1 0.37924 0.247785 0
207 1 0.436107 0.219867 0
206 1 0.418694 0.238911 0
237 1 0.442734 0.245041 0
178 1 0.455504 0.201091 0
208 1 0.460714 0.226485 0
209 1 0.479601 0.209824 0
210 1 0.486628 0.232815 0
212 1 0.0112465 0.264306 0
243 1 0.0381913 0.26231 0
241 1 0.0117884 0.288182 0
242 1 0.0356018 0.297076 0
214 1 0.0599852 0.252303 0
244 1 0.0558485 0.280185 0
245 1 0.078217 0.267277 0
275 1 0.0773442 0.292165 0
247 1 0.099352 0.280532 0
218 1 0.101444 0.257379 0
219 1 0.125239 0.253312 0
249 1 0.142496 0.270915 0
248 1 0.123148 0.285426 0
250 1 0.145128 0.294443 0
220 1 0.158173 0.251709 0
222 1 0.183234 0.259976 0
251 1 0.165049 0.276492 0
252 1 0.188088 0.283942 0
253 1 0.206426 0.268141 0
255 1 0.229647 0.273546 0
254 1 0.212746 0.291037 0
285 1 0.235281 0.297921 0
226 1 0.248478 0.257182 0
256 1 0.253524 0.28135 0
257 1 0.271668 0.263944 0
259 1 0.295633 0.271199 0
258 1 0.27735 0.287763 0
230 1 0.313581 0.253719 0
289 1 0.302315 0.295098 0
260 1 0.320662 0.27861 0
261 1 0.337418 0.25921 0
262 1 0.343939 0.28541 0
263 1 0.361879 0.265078 0
264 1 0.384207 0.272531 0
293 1 0.367202 0.290128 0
295 1 0.39134 0.297758 0
265 1 0.402045 0.25672 0
236 1 0.426261 0.261928 0
266 1 0.408657 0.280294 0
267 1 0.433239 0.287599 0
239 1 0.4672 0.249559 0
238 1 0.449793 0.269258 0
1141 1 0.499348 0.281569 0
240 1 0.492287 0.256786 0
269 1 0.47408 0.275843 0
268 1 0.456167 0.294339 0
270 1 0.481235 0.29915 0
271 1 0.0136447 0.313346 0
272 1 0.0373809 0.323063 0
301 1 0.0179519 0.338451 0
303 1 0.0428605 0.347404 0
273 1 0.0577569 0.30779 0
276 1 0.0806753 0.316018 0
274 1 0.0614286 0.331758 0
305 1 0.0863766 0.340305 0
246 1 0.102786 0.303704 0
279 1 0.127279 0.310439 0
277 1 0.106761 0.327162 0
278 1 0.131663 0.334591 0
281 1 0.169987 0.299959 0
280 1 0.150837 0.318088 0
311 1 0.156318 0.342862 0
283 1 0.193653 0.307518 0
282 1 0.173466 0.324431 0
312 1 0.17991 0.348861 0
313 1 0.19779 0.330577 0
284 1 0.217412 0.314801 0
315 1 0.221718 0.338541 0
286 1 0.242078 0.321273 0
316 1 0.245972 0.346117 0
287 1 0.259877 0.304985 0
288 1 0.283772 0.311884 0
317 1 0.264918 0.329627 0
319 1 0.289314 0.336327 0
291 1 0.32563 0.302869 0
290 1 0.307051 0.319563 0
321 1 0.311792 0.343894 0
292 1 0.330392 0.328173 0
323 1 0.348211 0.310076 0
294 1 0.373199 0.31502 0
324 1 0.353906 0.334106 0
325 1 0.378833 0.33866 0
296 1 0.397325 0.321695 0
297 1 0.415142 0.305345 0
326 1 0.402728 0.345684 0
298 1 0.439438 0.311924 0
327 1 0.420983 0.328756 0
328 1 0.44478 0.336697 0
299 1 0.462469 0.318485 0
300 1 0.487033 0.324066 0
1201 1 0.49421 0.347791 0
329 1 0.470275 0.34219 0
331 1 0.00492352 0.378516 0
302 1 0.0245376 0.363012 0
332 1 0.0287522 0.387204 0
333 1 0.0486403 0.371739 0
334 1 0.0531034 0.394596 0
304 1 0.0669157 0.355417 0
306 1 0.0930408 0.364459 0
335 1 0.0717097 0.379285 0
337 1 0.0977584 0.38776 0
307 1 0.113059 0.350148 0
309 1 0.137797 0.358096 0
308 1 0.117482 0.373786 0
339 1 0.141602 0.383062 0
338 1 0.122209 0.398129 0
310 1 0.161196 0.366397 0
341 1 0.166706 0.389466 0
343 1 0.186151 0.372645 0
342 1 0.190577 0.396875 0
314 1 0.203348 0.354979 0
345 1 0.227478 0.36264 0
344 1 0.209164 0.379912 0
375 1 0.232577 0.386986 0
346 1 0.251142 0.370872 0
377 1 0.258289 0.394378 0
318 1 0.269888 0.354085 0
349 1 0.292777 0.359762 0
347 1 0.276101 0.378488 0
350 1 0.299235 0.38605 0
322 1 0.336141 0.350944 0
320 1 0.31532 0.368566 0
351 1 0.340892 0.376021 0
381 1 0.322118 0.392037 0
352 1 0.345856 0.400923 0
353 1 0.360812 0.357859 0
355 1 0.384777 0.364434 0
354 1 0.365562 0.383133 0
385 1 0.390583 0.390485 0
357 1 0.426886 0.353833 0
356 1 0.409884 0.369238 0
387 1 0.433574 0.37785 0
386 1 0.415953 0.394022 0
388 1 0.439861 0.402472 0
359 1 0.452111 0.360634 0
358 1 0.458464 0.383983 0
330 1 0.477047 0.366335 0
360 1 0.484033 0.391212 0
449 1 0.477295 0.45487 0
361 1 0.00904818 0.402546 0
363 1 0.0368799 0.411689 0
362 1 0.0155753 0.426128 0
364 1 0.0388323 0.43604 0
336 1 0.0781698 0.402593 0
365 1 0.0601519 0.419978 0
395 1 0.0644846 0.444755 0
367 1 0.102396 0.412999 0
366 1 0.110296 0.43908 0
369 1 0.128139 0.422535 0
340 1 0.149673 0.406002 0
368 1 0.132938 0.447845 0
370 1 0.152258 0.431216 0
371 1 0.172499 0.412865 0
401 1 0.176302 0.43614 0
372 1 0.196884 0.419545 0
403 1 0.200848 0.442987 0
373 1 0.215227 0.402954 0
374 1 0.21959 0.42795 0
376 1 0.239304 0.410562 0
405 1 0.244705 0.433811 0
348 1 0.279668 0.402596 0
407 1 0.266809 0.442296 0
378 1 0.262773 0.418859 0
409 1 0.28614 0.426438 0
379 1 0.304816 0.40996 0
380 1 0.310148 0.433258 0
382 1 0.32895 0.417076 0
411 1 0.333302 0.443354 0
383 1 0.370964 0.407114 0
413 1 0.352785 0.425941 0
414 1 0.377354 0.430904 0
384 1 0.39723 0.41368 0
412 1 0.359322 0.449654 0
415 1 0.40304 0.439047 0
417 1 0.423104 0.419185 0
416 1 0.427449 0.443203 0
419 1 0.447629 0.426054 0
447 1 0.45219 0.44886 0
389 1 0.465651 0.407943 0
418 1 0.470631 0.431658 0
390 1 0.488592 0.413918 0
420 1 0.493871 0.437796 0
392 1 0.00128426 0.467373 0
393 1 0.0201315 0.450812 0
422 1 0.00734565 0.490808 0
423 1 0.0258707 0.474454 0
394 1 0.0450891 0.459407 0
425 1 0.0508671 0.484129 0
396 1 0.0700864 0.468858 0
426 1 0.0739833 0.493244 0
397 1 0.090764 0.453673 0
427 1 0.0948673 0.478738 0
398 1 0.113049 0.462605 0
428 1 0.116946 0.487798 0
429 1 0.13568 0.472769 0
459 1 0.140533 0.498572 0
399 1 0.155534 0.456796 0
400 1 0.180879 0.459198 0
430 1 0.159496 0.482826 0
431 1 0.18382 0.482896 0
404 1 0.223995 0.451343 0
402 1 0.203603 0.466565 0
432 1 0.209001 0.490481 0
433 1 0.229503 0.474494 0
435 1 0.24789 0.458114 0
434 1 0.233073 0.499916 0
408 1 0.290859 0.450276 0
436 1 0.253328 0.483956 0
406 1 0.270624 0.465134 0
437 1 0.276829 0.491365 0
439 1 0.295346 0.475385 0
450 1 0.48285 0.478935 0
410 1 0.314206 0.458622 0
440 1 0.319149 0.483002 0
441 1 0.337451 0.46822 0
471 1 0.342733 0.491555 0
442 1 0.361224 0.474056 0
473 1 0.389025 0.482047 0
443 1 0.382766 0.458915 0
445 1 0.407953 0.46424 0
444 1 0.416194 0.486349 0
477 1 0.44176 0.489945 0
446 1 0.433101 0.467041 0
478 1 0.466143 0.49735 0
424 1 0.0318983 0.498618 0
472 1 0.36723 0.498905 0
453 1 0.0131073 0.515081 0
452 1 0.0161982 0.53974 0
454 1 0.0352136 0.525021 0
483 1 0.039066 0.550776 0
868 1 0.469223 0.971724 0
485 1 0.0573439 0.534879 0
455 1 0.0546695 0.510404 0
456 1 0.078498 0.51913 0
486 1 0.0806485 0.544634 0
457 1 0.0983456 0.504159 0
487 1 0.101337 0.529004 0
458 1 0.120968 0.51546 0
488 1 0.125007 0.539657 0
489 1 0.144481 0.522902 0
460 1 0.163542 0.507963 0
461 1 0.18974 0.505202 0
462 1 0.192771 0.527862 0
491 1 0.167938 0.533713 0
493 1 0.21662 0.537675 0
463 1 0.213373 0.514371 0
464 1 0.236614 0.523758 0
495 1 0.23903 0.547878 0
466 1 0.260773 0.532009 0
465 1 0.257175 0.507639 0
467 1 0.280203 0.516065 0
497 1 0.283613 0.539447 0
468 1 0.304567 0.524039 0
469 1 0.324395 0.507832 0
499 1 0.327575 0.53226 0
470 1 0.34752 0.515749 0
501 1 0.349363 0.542289 0
899 1 0.470336 0.997065 0
503 1 0.369873 0.524634 0
474 1 0.391155 0.506806 0
505 1 0.388926 0.541927 0
476 1 0.405609 0.525637 0
507 1 0.449251 0.51731 0
509 1 0.430645 0.534133 0
475 1 0.426455 0.510029 0
479 1 0.474212 0.521528 0
480 1 0.454172 0.54026 0
1381 1 0.496354 0.5283 0
510 1 0.478185 0.546378 0
1351 1 0.489955 0.503577 0
513 1 0.0186305 0.565637 0
514 1 0.0414455 0.576165 0
512 1 0.0217126 0.592004 0
484 1 0.0607418 0.560899 0
515 1 0.0844083 0.569309 0
545 1 0.065699 0.585655 0
516 1 0.0892516 0.596203 0
490 1 0.147587 0.548972 0
517 1 0.104032 0.556078 0
518 1 0.108466 0.580872 0
519 1 0.12891 0.565339 0
549 1 0.13184 0.590813 0
520 1 0.152209 0.5758 0
521 1 0.171604 0.560075 0
492 1 0.195381 0.551062 0
523 1 0.196104 0.575149 0
522 1 0.174363 0.588453 0
553 1 0.198082 0.599782 0
494 1 0.216984 0.561954 0
524 1 0.218059 0.586212 0
525 1 0.239701 0.572251 0
555 1 0.240973 0.595567 0
496 1 0.262216 0.555706 0
526 1 0.261948 0.580702 0
527 1 0.28584 0.564087 0
528 1 0.283383 0.589991 0
498 1 0.306722 0.548211 0
529 1 0.307861 0.571744 0
500 1 0.329086 0.557735 0
530 1 0.329834 0.584199 0
531 1 0.349835 0.56976 0
532 1 0.353006 0.594534 0
502 1 0.369397 0.555291 0
504 1 0.3942 0.566667 0
533 1 0.372848 0.580789 0
534 1 0.397972 0.592231 0
506 1 0.412945 0.550875 0
535 1 0.417633 0.57719 0
508 1 0.437055 0.557702 0
537 1 0.442898 0.581168 0
539 1 0.4603 0.563801 0
540 1 0.484949 0.569701 0
538 1 0.468006 0.588018 0
569 1 0.491684 0.594489 0
543 1 0.0456834 0.599898 0
541 1 0.000795588 0.606446 0
542 1 0.0247218 0.616192 0
571 1 0.00368161 0.630154 0
573 1 0.026528 0.640977 0
544 1 0.0477587 0.625323 0
546 1 0.0679218 0.610193 0
547 1 0.0909749 0.619843 0
575 1 0.0699511 0.634043 0
576 1 0.0935528 0.645435 0
574 1 0.0507696 0.649718 0
548 1 0.112364 0.605716 0
550 1 0.134573 0.616692 0
577 1 0.114034 0.630177 0
579 1 0.136516 0.640758 0
551 1 0.154578 0.603439 0
581 1 0.157623 0.62657 0
552 1 0.178363 0.613314 0
582 1 0.181647 0.639163 0
583 1 0.200795 0.624718 0
554 1 0.221558 0.609391 0
556 1 0.244185 0.619953 0
585 1 0.222369 0.633558 0
586 1 0.244486 0.64446 0
584 1 0.20391 0.648774 0
557 1 0.263361 0.605144 0
587 1 0.266711 0.62966 0
558 1 0.286963 0.614925 0
589 1 0.287914 0.640885 0
559 1 0.306914 0.599355 0
560 1 0.309387 0.627295 0
561 1 0.328693 0.611186 0
591 1 0.331373 0.63466 0
562 1 0.350586 0.61904 0
563 1 0.37482 0.606284 0
564 1 0.371044 0.6306 0
593 1 0.352185 0.646053 0
595 1 0.393733 0.637098 0
536 1 0.424977 0.600872 0
565 1 0.404978 0.61658 0
566 1 0.43156 0.625069 0
567 1 0.448405 0.606428 0
596 1 0.416866 0.64365 0
598 1 0.439035 0.6504 0
597 1 0.455541 0.630455 0
568 1 0.47521 0.612738 0
570 1 0.481307 0.636922 0
1442 1 0.498723 0.617988 0
572 1 0.00650245 0.654599 0
603 1 0.0284605 0.66541 0
602 1 0.00910903 0.680144 0
633 1 0.0321237 0.689984 0
604 1 0.051897 0.674917 0
605 1 0.0730544 0.659768 0
606 1 0.0746236 0.685049 0
607 1 0.09453 0.670717 0
637 1 0.0970764 0.694968 0
635 1 0.0548993 0.700099 0
578 1 0.116239 0.655543 0
609 1 0.137577 0.666991 0
608 1 0.117747 0.680418 0
639 1 0.142069 0.693308 0
580 1 0.160358 0.650916 0
611 1 0.181856 0.662578 0
610 1 0.162885 0.677218 0
612 1 0.184447 0.689298 0
613 1 0.204579 0.672934 0
615 1 0.225741 0.659594 0
614 1 0.226426 0.685387 0
617 1 0.246905 0.671466 0
643 1 0.207174 0.699815 0
616 1 0.248979 0.695399 0
588 1 0.266954 0.655115 0
619 1 0.290467 0.666726 0
618 1 0.269873 0.679403 0
590 1 0.310382 0.652181 0
621 1 0.313193 0.677 0
592 1 0.333419 0.662132 0
622 1 0.337501 0.685901 0
620 1 0.317134 0.701891 0
623 1 0.357164 0.671689 0
594 1 0.375418 0.655374 0
624 1 0.380486 0.679607 0
653 1 0.361796 0.697239 0
625 1 0.399898 0.662967 0
627 1 0.422344 0.668586 0
626 1 0.403409 0.687301 0
628 1 0.445266 0.674765 0
657 1 0.428491 0.693012 0
599 1 0.462351 0.656463 0
600 1 0.486975 0.66025 0
629 1 0.47052 0.680662 0
630 1 0.494684 0.684591 0
658 1 0.452582 0.698313 0
632 1 0.0109126 0.704074 0
634 1 0.0343141 0.715317 0
663 1 0.0137825 0.728828 0
664 1 0.0374702 0.739368 0
636 1 0.0783 0.710229 0
665 1 0.0575156 0.724428 0
666 1 0.0806446 0.734643 0
667 1 0.100515 0.718932 0
638 1 0.120936 0.705715 0
640 1 0.143655 0.718585 0
669 1 0.122785 0.730766 0
668 1 0.104652 0.745982 0
670 1 0.146647 0.74311 0
641 1 0.16473 0.704205 0
642 1 0.187102 0.71444 0
671 1 0.166821 0.729437 0
673 1 0.190737 0.73967 0
645 1 0.228701 0.710175 0
644 1 0.210446 0.724774 0
675 1 0.232659 0.735015 0
674 1 0.212788 0.749714 0
646 1 0.25162 0.720366 0
647 1 0.272213 0.704727 0
677 1 0.255331 0.743597 0
648 1 0.274208 0.729681 0
649 1 0.29594 0.713911 0
679 1 0.297162 0.739242 0
651 1 0.339332 0.709682 0
650 1 0.318465 0.726274 0
652 1 0.34175 0.735256 0
681 1 0.318617 0.750629 0
655 1 0.384425 0.705328 0
654 1 0.368018 0.723352 0
685 1 0.394442 0.728699 0
683 1 0.376349 0.74821 0
656 1 0.411678 0.711448 0
687 1 0.436044 0.717731 0
686 1 0.419244 0.735125 0
717 1 0.443512 0.741239 0
659 1 0.477222 0.703695 0
689 1 0.461075 0.722296 0
660 1 0.48481 0.728677 0
688 1 0.467624 0.74685 0
662 1 0.017218 0.752612 0
694 1 0.040019 0.764154 0
693 1 0.019205 0.777776 0
725 1 0.0424397 0.788526 0
1771 1 0.492905 0.978994 0
695 1 0.0607754 0.749457 0
697 1 0.0837563 0.759192 0
696 1 0.0619558 0.77504 0
727 1 0.0856672 0.78426 0
699 1 0.126877 0.757205 0
698 1 0.106037 0.769897 0
700 1 0.129078 0.782231 0
728 1 0.10962 0.794844 0
701 1 0.149442 0.768303 0
731 1 0.152484 0.793364 0
672 1 0.169435 0.753462 0
703 1 0.191917 0.764565 0
702 1 0.172261 0.77898 0
704 1 0.194215 0.789715 0
676 1 0.236087 0.759982 0
705 1 0.214281 0.774819 0
706 1 0.237493 0.784653 0
707 1 0.257988 0.770894 0
678 1 0.276761 0.754945 0
737 1 0.260811 0.795448 0
709 1 0.280208 0.780183 0
680 1 0.300289 0.765484 0
710 1 0.304633 0.790581 0
682 1 0.341114 0.759726 0
711 1 0.322768 0.774334 0
712 1 0.34617 0.784537 0
741 1 0.328012 0.800378 0
713 1 0.363038 0.767905 0
714 1 0.386573 0.773947 0
743 1 0.370472 0.792858 0
745 1 0.392851 0.799694 0
684 1 0.402018 0.754051 0
715 1 0.425392 0.758398 0
716 1 0.409751 0.778345 0
747 1 0.43331 0.783776 0
1591 1 0.500627 0.77592 0
718 1 0.449541 0.764513 0
690 1 0.49109 0.752376 0
719 1 0.473394 0.77166 0
720 1 0.481731 0.795839 0
749 1 0.457516 0.790113 0
723 1 0.0223122 0.803394 0
722 1 0.0242443 0.829009 0
724 1 0.0450186 0.812176 0
754 1 0.0465551 0.836389 0
1680 1 0.00102667 0.846744 0
751 1 0.00175136 0.816296 0
726 1 0.0663289 0.799565 0
757 1 0.0895498 0.810498 0
755 1 0.0689958 0.824389 0
756 1 0.0891258 0.839784 0
729 1 0.131744 0.808394 0
759 1 0.110391 0.824996 0
760 1 0.134274 0.832763 0
730 1 0.155 0.818876 0
732 1 0.174777 0.80464 0
761 1 0.157913 0.844672 0
763 1 0.179407 0.828117 0
733 1 0.198424 0.813831 0
764 1 0.200685 0.840427 0
735 1 0.218643 0.79913 0
736 1 0.242401 0.810389 0
734 1 0.221571 0.824643 0
767 1 0.24386 0.836106 0
708 1 0.284481 0.804759 0
738 1 0.264033 0.821643 0
768 1 0.267537 0.845652 0
769 1 0.288216 0.829271 0
739 1 0.307052 0.813723 0
740 1 0.310722 0.837857 0
771 1 0.331473 0.823819 0
772 1 0.336264 0.849933 0
742 1 0.35114 0.809211 0
773 1 0.356277 0.833292 0
744 1 0.375024 0.816258 0
774 1 0.383032 0.839493 0
775 1 0.39974 0.821998 0
746 1 0.416927 0.802685 0
748 1 0.440857 0.808342 0
777 1 0.423884 0.827383 0
776 1 0.406048 0.845544 0
779 1 0.446675 0.834232 0
750 1 0.464899 0.815893 0
1621 1 0.488947 0.81916 0
780 1 0.470707 0.840492 0
1651 1 0.495627 0.844221 0
753 1 0.040142 0.85853 0
752 1 0.0167578 0.86535 0
783 1 0.0352662 0.882365 0
782 1 0.0109861 0.889731 0
785 1 0.0663497 0.850352 0
784 1 0.0588903 0.87378 0
786 1 0.0768667 0.890252 0
787 1 0.0852552 0.86543 0
815 1 0.0539508 0.897967 0
758 1 0.109446 0.857837 0
817 1 0.102598 0.884013 0
789 1 0.136562 0.856637 0
788 1 0.126972 0.879387 0
790 1 0.146491 0.895346 0
762 1 0.178306 0.858297 0
791 1 0.156322 0.871597 0
793 1 0.179167 0.883636 0
795 1 0.20081 0.86724 0
765 1 0.221616 0.851796 0
796 1 0.223276 0.876561 0
825 1 0.237491 0.897292 0
766 1 0.24545 0.861414 0
797 1 0.268658 0.870742 0
827 1 0.262308 0.893833 0
799 1 0.290131 0.85686 0
798 1 0.286477 0.886171 0
770 1 0.313329 0.860711 0
800 1 0.310613 0.883137 0
801 1 0.335286 0.876606 0
802 1 0.352805 0.89376 0
803 1 0.360639 0.863846 0
804 1 0.377146 0.886022 0
805 1 0.386552 0.863676 0
778 1 0.430267 0.852205 0
807 1 0.412248 0.868903 0
808 1 0.437992 0.877613 0
837 1 0.41809 0.895463 0
809 1 0.453475 0.858382 0
1681 1 0.479623 0.864564 0
1711 1 0.488839 0.887458 0
810 1 0.462998 0.882959 0
813 1 0.0293704 0.906554 0
843 1 0.0200595 0.930791 0
814 1 0.0448623 0.924733 0
844 1 0.0373858 0.948774 0
812 1 0.0031748 0.913975 0
816 1 0.093398 0.907247 0
845 1 0.0698372 0.91641 0
846 1 0.0626313 0.940647 0
847 1 0.0874783 0.933688 0
819 1 0.119201 0.902917 0
818 1 0.111683 0.926078 0
820 1 0.130772 0.942938 0
821 1 0.138422 0.91943 0
792 1 0.16252 0.914687 0
851 1 0.154674 0.938441 0
823 1 0.18773 0.90745 0
822 1 0.179744 0.93277 0
794 1 0.21276 0.902571 0
824 1 0.205359 0.926466 0
885 1 0.220874 0.945406 0
855 1 0.229357 0.921712 0
856 1 0.24617 0.94054 0
826 1 0.253416 0.917849 0
857 1 0.271477 0.9358 0
828 1 0.278315 0.912078 0
859 1 0.296329 0.928924 0
831 1 0.327548 0.899603 0
829 1 0.303803 0.905833 0
830 1 0.320515 0.922954 0
832 1 0.344818 0.91697 0
861 1 0.337278 0.940685 0
860 1 0.313726 0.948055 0
806 1 0.393099 0.903549 0
863 1 0.362179 0.934032 0
833 1 0.370371 0.911513 0
834 1 0.387309 0.928449 0
835 1 0.411695 0.922607 0
836 1 0.431699 0.940267 0
865 1 0.407181 0.946174 0
838 1 0.455445 0.924321 0
869 1 0.462681 0.948199 0
839 1 0.472113 0.905327 0
840 1 0.480109 0.929957 0
1712 1 0.497167 0.91061 0
842 1 0.0130611 0.955699 0
872 1 0.0225008 0.996375 0
873 1 0.0306223 0.973575 0
871 1 0.00587013 0.979066 0
874 1 0.0464095 0.991353 0
875 1 0.0547605 0.965995 0
876 1 0.0730646 0.982281 0
848 1 0.0800977 0.956738 0
877 1 0.0966558 0.974719 0
849 1 0.106335 0.95041 0
878 1 0.116361 0.991872 0
879 1 0.122147 0.968023 0
881 1 0.140281 0.986186 0
850 1 0.147559 0.961712 0
854 1 0.196725 0.952066 0
853 1 0.171856 0.957654 0
852 1 0.163803 0.980777 0
883 1 0.189496 0.976013 0
882 1 0.18213 0.998639 0
13 1 0.208482 0.993382 0
15 1 0.233885 0.987662 0
884 1 0.215768 0.96926 0
886 1 0.240362 0.964034 0
858 1 0.289665 0.952766 0
887 1 0.265161 0.959358 0
17 1 0.256511 0.982935 0
888 1 0.281223 0.978467 0
19 1 0.297589 0.996405 0
889 1 0.305888 0.97159 0
890 1 0.321902 0.989675 0
892 1 0.34668 0.984005 0
891 1 0.330691 0.965801 0
862 1 0.355085 0.958696 0
864 1 0.380812 0.952357 0
893 1 0.372676 0.975785 0
895 1 0.397596 0.969127 0
894 1 0.390153 0.992336 0
866 1 0.421653 0.964084 0
896 1 0.414374 0.986873 0
867 1 0.445774 0.964238 0
897 1 0.447024 0.989967 0
870 1 0.486844 0.954047 0
7 1 0.0910897 0.998519 0
23 1 0.366026 0.998773 0
438 1 0.299782 0.499924 0
902 1 0.536359 0.0267073 0
901 1 0.513467 0.0183461 0
931 1 0.519916 0.0440197 0
933 1 0.544892 0.0485207 0
903 1 0.531179 0.00243698 0
904 1 0.562781 0.0313188 0
906 1 0.57949 0.0131914 0
935 1 0.586603 0.0369948 0
905 1 0.554865 0.00834583 0
908 1 0.602922 0.0194661 0
937 1 0.610835 0.0431586 0
939 1 0.62741 0.0251239 0
910 1 0.644859 0.0067133 0
938 1 0.635664 0.0475283 0
909 1 0.620087 0.000944178 0
941 1 0.652949 0.0300021 0
912 1 0.668524 0.0114053 0
942 1 0.67716 0.0342644 0
943 1 0.693264 0.0170197 0
973 1 0.700507 0.0408378 0
944 1 0.718283 0.0219984 0
945 1 0.735691 0.00439767 0
946 1 0.741021 0.0276096 0
975 1 0.724495 0.0460112 0
947 1 0.759071 0.00781312 0
948 1 0.767662 0.0319022 0
918 1 0.78497 0.014532 0
921 1 0.819653 0.00265004 0
949 1 0.809844 0.0275545 0
951 1 0.833778 0.0223045 0
950 1 0.825374 0.0459725 0
979 1 0.800796 0.0508886 0
952 1 0.8499 0.0405502 0
953 1 0.857923 0.0161512 0
924 1 0.881948 0.00983402 0
954 1 0.873834 0.0335628 0
955 1 0.898873 0.028993 0
925 1 0.907309 0.00477436 0
926 1 0.923523 0.0218988 0
957 1 0.941935 0.0381125 0
956 1 0.916601 0.0450544 0
928 1 0.948493 0.0150278 0
1 1 0.996696 0.00242863 0
959 1 0.965753 0.0325178 0
930 1 0.990018 0.0268002 0
929 1 0.972536 0.00906176 0
932 1 0.527843 0.066723 0
962 1 0.535192 0.0907647 0
961 1 0.509462 0.0835525 0
60 1 0.502566 0.0602406 0
934 1 0.569681 0.0548142 0
963 1 0.552754 0.0714819 0
965 1 0.57616 0.0789895 0
964 1 0.558813 0.0959863 0
936 1 0.595375 0.0606594 0
966 1 0.601708 0.0843566 0
967 1 0.618198 0.0664315 0
968 1 0.625757 0.090634 0
969 1 0.642856 0.0718752 0
999 1 0.648945 0.0960926 0
940 1 0.659806 0.0536069 0
970 1 0.667199 0.0781076 0
971 1 0.683479 0.0589307 0
972 1 0.689925 0.0831226 0
1003 1 0.707399 0.0645396 0
1004 1 0.715735 0.0893486 0
974 1 0.732568 0.0704945 0
1005 1 0.740309 0.0950333 0
976 1 0.750289 0.0511286 0
1007 1 0.758569 0.0762454 0
977 1 0.775249 0.0581135 0
978 1 0.795031 0.073976 0
1008 1 0.787107 0.0973393 0
980 1 0.819777 0.069415 0
981 1 0.842821 0.0638183 0
1009 1 0.810769 0.0933032 0
1011 1 0.83502 0.0884862 0
985 1 0.890158 0.0529761 0
982 1 0.859614 0.0822959 0
983 1 0.867039 0.0585003 0
984 1 0.88366 0.0763275 0
1013 1 0.876229 0.0999233 0
1015 1 0.901634 0.0928638 0
986 1 0.90895 0.0687643 0
987 1 0.935261 0.0628905 0
1017 1 0.926464 0.0863705 0
960 1 0.982633 0.0489476 0
988 1 0.952028 0.080345 0
958 1 0.959334 0.0554645 0
989 1 0.975486 0.0739725 0
990 1 0.993742 0.0905675 0
1019 1 0.969482 0.0982152 0
991 1 0.516683 0.107972 0
992 1 0.52394 0.131604 0
993 1 0.542541 0.114527 0
1021 1 0.506748 0.148742 0
1023 1 0.550424 0.137137 0
1349 1 0.957763 0.474414 0
995 1 0.584155 0.102212 0
994 1 0.565914 0.119262 0
996 1 0.591379 0.127439 0
1025 1 0.573372 0.143592 0
1026 1 0.598607 0.150213 0
997 1 0.607315 0.108354 0
998 1 0.632464 0.114359 0
1027 1 0.614755 0.132164 0
1029 1 0.639601 0.137537 0
1001 1 0.672615 0.103126 0
1000 1 0.655964 0.120578 0
1031 1 0.679981 0.125634 0
1030 1 0.663424 0.143994 0
1032 1 0.688449 0.149829 0
1002 1 0.698574 0.107401 0
1033 1 0.705369 0.132328 0
1035 1 0.72368 0.11348 0
1034 1 0.730028 0.137987 0
1006 1 0.762782 0.101492 0
1036 1 0.750807 0.125094 0
1037 1 0.777022 0.121705 0
1038 1 0.794141 0.141156 0
1067 1 0.768439 0.146342 0
1039 1 0.801901 0.118088 0
1010 1 0.828413 0.112527 0
1040 1 0.821014 0.136356 0
1041 1 0.846032 0.130137 0
1012 1 0.851457 0.105487 0
1043 1 0.869886 0.123905 0
1014 1 0.894602 0.116879 0
1044 1 0.887409 0.141539 0
1042 1 0.862559 0.147774 0
1045 1 0.911272 0.13461 0
1016 1 0.920525 0.109699 0
1047 1 0.937766 0.127096 0
1018 1 0.944749 0.103784 0
1049 1 0.961423 0.121122 0
1020 1 0.986412 0.115827 0
1050 1 0.977617 0.140231 0
1046 1 0.954888 0.144725 0
1022 1 0.530977 0.154768 0
1053 1 0.539085 0.179538 0
1051 1 0.513876 0.173105 0
1052 1 0.520636 0.196862 0
1024 1 0.555906 0.161406 0
1055 1 0.580102 0.1668 0
1054 1 0.562785 0.185225 0
1056 1 0.586944 0.190897 0
1028 1 0.622818 0.156407 0
1057 1 0.603931 0.172882 0
1058 1 0.629133 0.179529 0
1087 1 0.611744 0.196897 0
1059 1 0.646658 0.162161 0
1060 1 0.654443 0.186429 0
1061 1 0.670917 0.168588 0
1091 1 0.679618 0.19081 0
1062 1 0.695713 0.173013 0
1063 1 0.712794 0.155868 0
1064 1 0.719277 0.179478 0
1095 1 0.742866 0.183529 0
1093 1 0.703315 0.197659 0
1065 1 0.742715 0.159283 0
1066 1 0.764817 0.170398 0
1068 1 0.788151 0.164922 0
1097 1 0.782297 0.188545 0
1069 1 0.811004 0.158799 0
1071 1 0.839101 0.154993 0
1070 1 0.832948 0.177507 0
1099 1 0.80655 0.184108 0
1101 1 0.849473 0.194155 0
1072 1 0.857386 0.171231 0
1073 1 0.881622 0.166255 0
1103 1 0.874088 0.188965 0
1074 1 0.898864 0.182203 0
1075 1 0.906372 0.158578 0
1077 1 0.929404 0.152488 0
1076 1 0.923154 0.176684 0
1107 1 0.940861 0.194818 0
1078 1 0.947841 0.169148 0
1048 1 0.971527 0.164259 0
151 1 0.995783 0.158331 0
1079 1 0.989348 0.182096 0
1109 1 0.965522 0.188163 0
1083 1 0.545958 0.20357 0
1081 1 0.502653 0.213978 0
1082 1 0.529752 0.220549 0
1111 1 0.511208 0.2381 0
1113 1 0.534936 0.245615 0
1084 1 0.552303 0.226918 0
1085 1 0.570039 0.208492 0
1086 1 0.592603 0.216264 0
1115 1 0.575595 0.232572 0
1114 1 0.559418 0.250627 0
1089 1 0.636793 0.20263 0
1117 1 0.601125 0.23917 0
1088 1 0.618858 0.220558 0
1119 1 0.642965 0.227712 0
1118 1 0.625073 0.245043 0
1090 1 0.661473 0.209758 0
1092 1 0.684881 0.214751 0
1121 1 0.666689 0.233115 0
1122 1 0.692288 0.239002 0
1094 1 0.726551 0.202418 0
1123 1 0.710134 0.221087 0
1124 1 0.716697 0.246243 0
1125 1 0.734833 0.226482 0
1096 1 0.751332 0.208503 0
1127 1 0.775419 0.212568 0
1126 1 0.758642 0.232209 0
1128 1 0.790472 0.233431 0
1100 1 0.824226 0.200967 0
1098 1 0.79898 0.207065 0
1131 1 0.843403 0.21844 0
1129 1 0.816057 0.225516 0
1130 1 0.835172 0.241804 0
1159 1 0.810168 0.248402 0
1102 1 0.866632 0.21268 0
1104 1 0.892027 0.204917 0
1132 1 0.86017 0.236219 0
1133 1 0.883628 0.229229 0
1105 1 0.916866 0.200739 0
1135 1 0.907846 0.223661 0
1106 1 0.933266 0.220283 0
1136 1 0.927479 0.245926 0
1134 1 0.90167 0.24779 0
1137 1 0.952919 0.238063 0
1108 1 0.957337 0.212818 0
1110 1 0.980998 0.207159 0
1139 1 0.975888 0.231206 0
1140 1 0.993956 0.248604 0
1112 1 0.517158 0.263917 0
1143 1 0.540703 0.269633 0
1142 1 0.52297 0.28762 0
1144 1 0.546792 0.292907 0
1116 1 0.583944 0.256612 0
1145 1 0.565061 0.275153 0
1146 1 0.58935 0.280936 0
1175 1 0.571094 0.298363 0
1147 1 0.60741 0.263367 0
1149 1 0.631839 0.268738 0
1148 1 0.613227 0.286186 0
1179 1 0.63786 0.293265 0
1120 1 0.651094 0.250887 0