ITEM: TIMESTEP
80000
ITEM: NUMBER OF ATOMS
1800
ITEM: BOX BOUNDS pp pp pp
3.0106024959425355e+00 1.5538939750405439e+02
3.0106024959425355e+00 1.5538939750405439e+02
0.0000000000000000e+00 5.2800000000000002e+00
ITEM: ATOMS id type xs ys zs
2 1 0.0178541 0.0193822 0
3 1 0.0435712 0.0112641 0
33 1 0.0368711 0.0361365 0
31 1 0.0118112 0.0429089 0
1 1 -0.000164438 0.00240425 0
4 1 0.0630457 0.0288072 0
6 1 0.0871218 0.0223076 0
5 1 0.0681379 0.00516208 0
35 1 0.0795879 0.047595 0
37 1 0.104919 0.0406185 0
8 1 0.113308 0.0148549 0
9 1 0.130039 0.0347518 0
880 1 0.136883 0.00881057 0
10 1 0.153627 0.0291172 0
11 1 0.161215 0.00448754 0
12 1 0.176768 0.0221588 0
43 1 0.194602 0.0401996 0
41 1 0.170533 0.0462468 0
14 1 0.201394 0.0150508 0
44 1 0.219259 0.0342639 0
45 1 0.225458 0.0088635 0
46 1 0.24271 0.0269893 0
16 1 0.250932 0.00472161 0
47 1 0.26726 0.0233236 0
49 1 0.292204 0.0185432 0
48 1 0.28501 0.0430344 0
77 1 0.260701 0.0471215 0
50 1 0.310886 0.037942 0
20 1 0.316669 0.013956 0
51 1 0.336164 0.0311016 0
21 1 0.342018 0.00682979 0
22 1 0.359001 0.0246923 0
24 1 0.383714 0.0198388 0
53 1 0.376981 0.043802 0
23 1 0.36761 0.0006441 0
52 1 0.351025 0.0500054 0
55 1 0.400334 0.0380657 0
25 1 0.409921 0.0161703 0
26 1 0.425675 0.0345621 0
27 1 0.435729 0.0108887 0
28 1 0.450589 0.0332343 0
30 1 0.494501 0.0394351 0
898 1 0.460187 0.0105998 0
29 1 0.484402 0.0168578 0
59 1 0.471602 0.0469675 0
61 1 0.00401646 0.0658192 0
32 1 0.0294792 0.0598671 0
62 1 0.0218316 0.083995 0
63 1 0.0452777 0.0776222 0
34 1 0.0545302 0.0542073 0
65 1 0.0713564 0.07163 0
66 1 0.0891112 0.088155 0
36 1 0.0972456 0.0641137 0
64 1 0.0637081 0.0936494 0
39 1 0.146766 0.0530868 0
38 1 0.122317 0.058595 0
67 1 0.113895 0.0821286 0
69 1 0.139042 0.0765739 0
68 1 0.129245 0.10031 0
70 1 0.155413 0.0939116 0
40 1 0.163953 0.0704073 0
71 1 0.18075 0.0888201 0
42 1 0.187362 0.0635697 0
72 1 0.203554 0.0826105 0
73 1 0.212178 0.0568088 0
74 1 0.228274 0.0759533 0
75 1 0.236724 0.0520265 0
106 1 0.245884 0.0953431 0
76 1 0.253238 0.0703362 0
78 1 0.278168 0.0671275 0
109 1 0.295926 0.0847995 0
107 1 0.271667 0.0909148 0
79 1 0.302676 0.0607172 0
80 1 0.320292 0.0810123 0
81 1 0.326543 0.0555517 0
82 1 0.34506 0.0755832 0
111 1 0.335994 0.100098 0
83 1 0.3686 0.0666566 0
113 1 0.380505 0.08933 0
54 1 0.396865 0.0706757 0
56 1 0.415519 0.0558243 0
57 1 0.440349 0.0587254 0
85 1 0.419818 0.0790409 0
87 1 0.444448 0.084404 0
84 1 0.403856 0.0961213 0
88 1 0.467986 0.0928532 0
58 1 0.462347 0.0697101 0
89 1 0.485873 0.0763389 0
90 1 0.492157 0.100247 0
93 1 0.0394944 0.101238 0
92 1 0.0323838 0.126111 0
91 1 0.0155628 0.10807 0
123 1 0.0490223 0.142998 0
121 1 0.00752093 0.13198 0
94 1 0.056823 0.117935 0
95 1 0.0814987 0.11131 0
125 1 0.0737523 0.135258 0
96 1 0.0982589 0.128839 0
97 1 0.105335 0.105885 0
98 1 0.122727 0.12294 0
99 1 0.146823 0.117078 0
129 1 0.13946 0.141815 0
127 1 0.115089 0.146747 0
100 1 0.171732 0.110494 0
130 1 0.164023 0.133591 0
131 1 0.188689 0.127972 0
101 1 0.198675 0.106135 0
103 1 0.222135 0.10099 0
133 1 0.2036 0.146733 0
102 1 0.215256 0.124106 0
105 1 0.239351 0.119429 0
104 1 0.230833 0.142428 0
136 1 0.256601 0.143343 0
135 1 0.264911 0.113512 0
137 1 0.279008 0.132793 0
108 1 0.291128 0.109383 0
139 1 0.302722 0.136959 0
110 1 0.317714 0.116908 0
141 1 0.341273 0.12453 0
140 1 0.326096 0.144243 0
112 1 0.360527 0.104111 0
114 1 0.383466 0.113412 0
143 1 0.365582 0.13137 0
144 1 0.389743 0.138539 0
86 1 0.426504 0.102793 0
115 1 0.408734 0.120667 0
116 1 0.432244 0.127575 0
145 1 0.415197 0.14445 0
117 1 0.450648 0.110002 0
118 1 0.456886 0.13345 0
119 1 0.47398 0.116813 0
149 1 0.481017 0.142429 0
120 1 0.497772 0.124176 0
122 1 0.0224605 0.151376 0
153 1 0.0414946 0.166438 0
152 1 0.0150593 0.17493 0
183 1 0.034195 0.189812 0
1080 1 0.00729305 0.198403 0
124 1 0.0662833 0.159119 0
126 1 0.0900657 0.153048 0
155 1 0.0828728 0.176858 0
154 1 0.0590613 0.183088 0
156 1 0.098475 0.194963 0
128 1 0.129987 0.164759 0
157 1 0.107047 0.171322 0
160 1 0.147388 0.18165 0
158 1 0.123026 0.188285 0
132 1 0.18019 0.153976 0
159 1 0.154827 0.158904 0
161 1 0.172041 0.176991 0
162 1 0.188982 0.195683 0
163 1 0.197484 0.1721 0
134 1 0.21952 0.163562 0
164 1 0.226546 0.186948 0
165 1 0.243933 0.167403 0
166 1 0.251258 0.19144 0
167 1 0.267222 0.17293 0
138 1 0.285458 0.155424 0
168 1 0.291165 0.180292 0
197 1 0.274622 0.197038 0
142 1 0.349835 0.150637 0
169 1 0.310149 0.16228 0
171 1 0.333556 0.169369 0
170 1 0.315057 0.185221 0
201 1 0.33822 0.191812 0
172 1 0.356499 0.175983 0
173 1 0.373167 0.156989 0
174 1 0.379921 0.181378 0
175 1 0.397534 0.161884 0
203 1 0.362875 0.199474 0
147 1 0.438318 0.152134 0
146 1 0.422005 0.169165 0
205 1 0.403047 0.186029 0
176 1 0.426404 0.19308 0
177 1 0.445417 0.177135 0
148 1 0.463469 0.159321 0
150 1 0.487882 0.165577 0
179 1 0.47024 0.182645 0
180 1 0.495218 0.19034 0
178 1 0.452328 0.199232 0
182 1 0.0256397 0.213997 0
213 1 0.0418634 0.231837 0
211 1 0.0183639 0.241998 0
181 1 0.0015536 0.223943 0
184 1 0.0510337 0.207797 0
185 1 0.0748882 0.201712 0
186 1 0.0933072 0.219302 0
215 1 0.0670574 0.226044 0
216 1 0.0838094 0.242755 0
187 1 0.117652 0.212102 0
188 1 0.134564 0.229267 0
189 1 0.141643 0.204734 0
217 1 0.11049 0.236066 0
191 1 0.165251 0.199966 0
190 1 0.157552 0.22313 0
192 1 0.192519 0.221538 0
221 1 0.17553 0.238238 0
223 1 0.199606 0.245049 0
220 1 0.152445 0.247671 0
193 1 0.210766 0.204939 0
194 1 0.217123 0.227653 0
195 1 0.234752 0.210459 0
225 1 0.240612 0.234374 0
196 1 0.258341 0.216095 0
198 1 0.282176 0.222075 0
227 1 0.264455 0.239753 0
228 1 0.288268 0.246722 0
199 1 0.298442 0.203781 0
200 1 0.322509 0.210621 0
229 1 0.305582 0.229212 0
231 1 0.33077 0.235277 0
202 1 0.346915 0.216382 0
204 1 0.387906 0.205455 0
233 1 0.370785 0.222685 0
235 1 0.394283 0.23052 0
232 1 0.354178 0.241795 0
234 1 0.377758 0.247984 0
207 1 0.433603 0.218484 0
206 1 0.418074 0.236635 0
237 1 0.443039 0.244435 0
208 1 0.458112 0.224883 0
209 1 0.477145 0.207093 0
210 1 0.483804 0.232865 0
239 1 0.467164 0.249647 0
212 1 0.0125522 0.264803 0
243 1 0.0375497 0.262794 0
241 1 0.00752746 0.288322 0
242 1 0.032137 0.289522 0
214 1 0.0585447 0.251215 0
244 1 0.0549167 0.278816 0
245 1 0.0769925 0.267105 0
275 1 0.0760635 0.29308 0
247 1 0.0983146 0.281672 0
218 1 0.102784 0.258544 0
219 1 0.126531 0.253444 0
249 1 0.14195 0.270446 0
248 1 0.121708 0.286056 0
250 1 0.145084 0.294773 0
222 1 0.182356 0.260838 0
251 1 0.164596 0.276821 0
252 1 0.187496 0.286094 0
224 1 0.223636 0.251236 0
253 1 0.204842 0.270097 0
255 1 0.22924 0.275029 0
254 1 0.210901 0.292617 0
226 1 0.246997 0.25769 0
256 1 0.251997 0.282662 0
257 1 0.270209 0.26602 0
259 1 0.295286 0.270914 0
258 1 0.278269 0.288992 0
289 1 0.300633 0.295342 0
230 1 0.312857 0.254354 0
260 1 0.319554 0.277917 0
261 1 0.336082 0.259836 0
262 1 0.343213 0.284236 0
263 1 0.360407 0.265992 0
264 1 0.384171 0.273329 0
293 1 0.366122 0.291209 0
295 1 0.389594 0.298001 0
265 1 0.400413 0.255295 0
236 1 0.424921 0.261833 0
266 1 0.406941 0.280259 0
267 1 0.431077 0.286888 0
238 1 0.447644 0.269393 0
1141 1 0.496733 0.279776 0
240 1 0.4903 0.257045 0
269 1 0.471544 0.273729 0
268 1 0.455463 0.292297 0
270 1 0.480095 0.298341 0
271 1 0.0129544 0.310834 0
272 1 0.035187 0.31963 0
301 1 0.0178009 0.33674 0
303 1 0.0419968 0.345384 0
273 1 0.0550378 0.304959 0
276 1 0.0807833 0.31857 0
274 1 0.0588546 0.328761 0
305 1 0.0879159 0.342549 0
246 1 0.100782 0.304885 0
279 1 0.125692 0.310534 0
277 1 0.107617 0.328173 0
278 1 0.132556 0.333922 0
280 1 0.150954 0.318011 0
281 1 0.169064 0.301846 0
311 1 0.156653 0.342555 0
283 1 0.192512 0.310283 0
282 1 0.175063 0.326769 0
313 1 0.198933 0.333805 0
285 1 0.235322 0.300681 0
284 1 0.216971 0.316236 0
315 1 0.22205 0.339949 0
286 1 0.241358 0.323314 0
316 1 0.246862 0.348037 0
287 1 0.260012 0.306637 0
288 1 0.28279 0.313712 0
317 1 0.264914 0.330491 0
319 1 0.288261 0.337241 0
291 1 0.325597 0.301956 0
290 1 0.30744 0.318716 0
321 1 0.313098 0.342474 0
292 1 0.331435 0.326668 0
323 1 0.349625 0.30918 0
294 1 0.373085 0.314637 0
324 1 0.355033 0.333023 0
325 1 0.378578 0.340109 0
296 1 0.396451 0.32263 0
326 1 0.403342 0.345739 0
297 1 0.414162 0.304843 0
298 1 0.43831 0.310367 0
327 1 0.420749 0.328837 0
328 1 0.444073 0.334736 0
299 1 0.461407 0.316537 0
300 1 0.485653 0.321371 0
1201 1 0.493915 0.346301 0
329 1 0.469569 0.339862 0
331 1 0.00426271 0.378511 0
302 1 0.0232772 0.362232 0
332 1 0.0272289 0.387425 0
333 1 0.0461583 0.370753 0
1230 1 -0.000434336 0.352422 0
334 1 0.0527538 0.394668 0
304 1 0.0664871 0.354721 0
306 1 0.091572 0.365789 0
335 1 0.0722848 0.379841 0
337 1 0.0955672 0.389797 0
307 1 0.111061 0.350988 0
309 1 0.135743 0.358139 0
308 1 0.116674 0.3746 0
339 1 0.141106 0.381589 0
338 1 0.11941 0.398275 0
312 1 0.179556 0.349634 0
310 1 0.159863 0.366409 0
341 1 0.163722 0.390036 0
343 1 0.18445 0.373196 0
342 1 0.186718 0.396494 0
314 1 0.203459 0.357238 0
345 1 0.227702 0.36356 0
344 1 0.207549 0.380638 0
375 1 0.232988 0.388398 0
346 1 0.251182 0.371486 0
377 1 0.255805 0.396206 0
318 1 0.269634 0.354643 0
349 1 0.293049 0.361741 0
347 1 0.274149 0.378635 0
350 1 0.298786 0.385433 0
322 1 0.336609 0.350953 0
320 1 0.317641 0.369268 0
351 1 0.342166 0.376151 0
381 1 0.324354 0.393333 0
353 1 0.361456 0.358381 0
355 1 0.385215 0.363488 0
354 1 0.366161 0.38322 0
385 1 0.389772 0.388146 0
357 1 0.427076 0.353004 0
356 1 0.408978 0.370099 0
387 1 0.433279 0.376102 0
386 1 0.415345 0.3957 0
359 1 0.451018 0.359008 0
358 1 0.457669 0.38287 0
330 1 0.475703 0.363305 0
360 1 0.481411 0.388017 0
361 1 0.00863977 0.402808 0
363 1 0.0326559 0.411349 0
362 1 0.0130918 0.427211 0
364 1 0.0389864 0.437311 0
336 1 0.0757601 0.40569 0
365 1 0.0554071 0.419922 0
395 1 0.0622339 0.444226 0
367 1 0.10031 0.414712 0
366 1 0.106272 0.440097 0
369 1 0.125569 0.422199 0
340 1 0.143942 0.405655 0
368 1 0.130079 0.447648 0
370 1 0.148784 0.431097 0
371 1 0.167428 0.413611 0
401 1 0.173795 0.435846 0
372 1 0.192239 0.420448 0
403 1 0.198098 0.443858 0
373 1 0.210987 0.405005 0
374 1 0.21816 0.427753 0
376 1 0.236484 0.412802 0
405 1 0.243168 0.43703 0
348 1 0.28215 0.403367 0
407 1 0.267012 0.444791 0
378 1 0.262262 0.420343 0
409 1 0.287798 0.42799 0
352 1 0.348722 0.400481 0
379 1 0.305929 0.409778 0
380 1 0.3112 0.435057 0
382 1 0.330292 0.417679 0
411 1 0.335371 0.440295 0
413 1 0.354064 0.424808 0
383 1 0.372483 0.408442 0
414 1 0.379176 0.431742 0
384 1 0.396356 0.412568 0
412 1 0.360003 0.448375 0
415 1 0.404256 0.436547 0
388 1 0.440014 0.399903 0
417 1 0.421142 0.419065 0
416 1 0.427615 0.443036 0
419 1 0.445078 0.424403 0
389 1 0.463721 0.406323 0
418 1 0.471573 0.430975 0
390 1 0.48769 0.412127 0
420 1 0.494448 0.435975 0
447 1 0.452534 0.448633 0
393 1 0.0182441 0.45212 0
422 1 0.00512783 0.491383 0
423 1 0.0244829 0.475346 0
394 1 0.0437074 0.461723 0
425 1 0.0492952 0.485975 0
424 1 0.0292559 0.499629 0
397 1 0.0858276 0.454338 0
396 1 0.0669835 0.469351 0
426 1 0.0733871 0.493997 0
427 1 0.0922654 0.477856 0
398 1 0.111975 0.46347 0
428 1 0.116847 0.487219 0
429 1 0.135735 0.471054 0
459 1 0.140323 0.496655 0
399 1 0.154326 0.454831 0
400 1 0.178123 0.459374 0
430 1 0.158503 0.479402 0
431 1 0.183796 0.482259 0
434 1 0.231741 0.498681 0
404 1 0.222808 0.451989 0
402 1 0.202826 0.467051 0
432 1 0.209413 0.49046 0
433 1 0.229028 0.475378 0
435 1 0.248198 0.461179 0
436 1 0.251853 0.484955 0
408 1 0.292805 0.452851 0
406 1 0.271585 0.469557 0
437 1 0.276788 0.49368 0
439 1 0.295512 0.477535 0
410 1 0.315892 0.460424 0
440 1 0.321466 0.485225 0
441 1 0.340341 0.465369 0
471 1 0.345526 0.491191 0
442 1 0.363837 0.47201 0
473 1 0.389167 0.479894 0
443 1 0.384677 0.455997 0
472 1 0.370878 0.496957 0
477 1 0.439003 0.490448 0
446 1 0.432958 0.466636 0
445 1 0.40877 0.460974 0
444 1 0.413877 0.484759 0
448 1 0.457393 0.473683 0
478 1 0.464857 0.495839 0
449 1 0.476175 0.454534 0
450 1 0.482603 0.479019 0
453 1 0.0105769 0.515583 0
452 1 0.0151546 0.541403 0
454 1 0.0336527 0.524164 0
485 1 0.0573874 0.533977 0
455 1 0.0534226 0.509953 0
456 1 0.0768895 0.518765 0
486 1 0.0816429 0.545253 0
457 1 0.0982152 0.50242 0
487 1 0.0995096 0.528836 0
458 1 0.122097 0.51336 0
488 1 0.124789 0.537771 0
489 1 0.145037 0.52115 0
490 1 0.148041 0.546365 0
461 1 0.190239 0.505272 0
462 1 0.194034 0.528829 0
491 1 0.169259 0.530602 0
460 1 0.165493 0.505342 0
493 1 0.215883 0.538566 0
463 1 0.2136 0.514456 0
464 1 0.237619 0.522095 0
495 1 0.239595 0.547297 0
466 1 0.259383 0.532772 0
465 1 0.257367 0.508011 0
467 1 0.280977 0.517095 0
497 1 0.282815 0.541691 0
438 1 0.301189 0.500864 0
468 1 0.304397 0.525423 0
469 1 0.329485 0.509457 0
499 1 0.327194 0.535056 0
501 1 0.34961 0.544571 0
470 1 0.353175 0.516181 0
503 1 0.379137 0.519155 0
474 1 0.397679 0.502767 0
505 1 0.38711 0.542574 0
476 1 0.404969 0.526214 0
509 1 0.429448 0.533093 0
475 1 0.421981 0.509172 0
507 1 0.446721 0.513809 0
506 1 0.410737 0.550306 0
479 1 0.472589 0.520018 0
480 1 0.453371 0.53821 0
1381 1 0.496172 0.527011 0
510 1 0.477417 0.544604 0
1351 1 0.490562 0.502104 0
483 1 0.0386471 0.55051 0
513 1 0.0191285 0.565406 0
514 1 0.0417644 0.57709 0
512 1 0.0222184 0.591817 0
511 1 6.74278e-05 0.581097 0
484 1 0.0616813 0.561178 0
515 1 0.0858784 0.570173 0
545 1 0.0645954 0.5854 0
516 1 0.0876344 0.595267 0
517 1 0.105117 0.555097 0
518 1 0.109432 0.580532 0
519 1 0.128236 0.564252 0
549 1 0.132677 0.588625 0
520 1 0.154182 0.572899 0
521 1 0.172191 0.556105 0
492 1 0.196338 0.553189 0
522 1 0.175171 0.588681 0
523 1 0.196856 0.57716 0
494 1 0.218513 0.562409 0
524 1 0.220617 0.586923 0
525 1 0.241224 0.571554 0
555 1 0.243446 0.595447 0
496 1 0.262262 0.557741 0
526 1 0.263406 0.581376 0
527 1 0.28452 0.56596 0
528 1 0.286659 0.590361 0
498 1 0.306253 0.551072 0
529 1 0.306888 0.575494 0
500 1 0.329038 0.560294 0
530 1 0.32993 0.58728 0
531 1 0.350422 0.573734 0
502 1 0.370406 0.559407 0
504 1 0.392994 0.566781 0
533 1 0.373261 0.583864 0
534 1 0.398544 0.590952 0
532 1 0.352747 0.598656 0
535 1 0.417293 0.574507 0
508 1 0.434475 0.556008 0
537 1 0.442087 0.579979 0
536 1 0.423874 0.59905 0
539 1 0.460465 0.561619 0
540 1 0.484131 0.568061 0
538 1 0.466915 0.585716 0
569 1 0.491262 0.592603 0
543 1 0.0448949 0.601211 0
542 1 0.0253348 0.616944 0
571 1 0.0052458 0.630869 0
573 1 0.0279738 0.640654 0
544 1 0.047781 0.626519 0
541 1 0.00230061 0.60705 0
574 1 0.0514218 0.650637 0
546 1 0.0677851 0.610587 0
547 1 0.0912661 0.620887 0
575 1 0.0708937 0.635703 0
576 1 0.0935577 0.646285 0
548 1 0.111704 0.605706 0
550 1 0.133618 0.615624 0
577 1 0.11399 0.630874 0
579 1 0.136877 0.641296 0
553 1 0.199019 0.601114 0
551 1 0.153756 0.601819 0
581 1 0.155972 0.626324 0
552 1 0.177789 0.6134 0
582 1 0.180329 0.638183 0
583 1 0.201639 0.624535 0
554 1 0.221601 0.610879 0
556 1 0.245073 0.62002 0
585 1 0.225943 0.634766 0
586 1 0.248616 0.645841 0
584 1 0.205255 0.649573 0
557 1 0.265901 0.605667 0
587 1 0.267469 0.631037 0
558 1 0.288618 0.615647 0
589 1 0.289419 0.642522 0
559 1 0.308651 0.600976 0
560 1 0.309795 0.626909 0
561 1 0.330984 0.61213 0
591 1 0.330865 0.638788 0
562 1 0.350879 0.624568 0
563 1 0.380438 0.608005 0
564 1 0.374269 0.630693 0
595 1 0.39651 0.639055 0
593 1 0.353598 0.648474 0
565 1 0.404826 0.61613 0
566 1 0.43115 0.621829 0
596 1 0.419569 0.642903 0
598 1 0.441819 0.649005 0
567 1 0.448637 0.604038 0
597 1 0.455234 0.627594 0
568 1 0.472888 0.610561 0
570 1 0.479094 0.634872 0
1442 1 0.497958 0.616372 0
572 1 0.00659882 0.65524 0
603 1 0.030188 0.66485 0
602 1 0.0102825 0.679381 0
633 1 0.0321177 0.690934 0
604 1 0.0526786 0.674589 0
605 1 0.0738406 0.661275 0
606 1 0.0759084 0.685381 0
607 1 0.0966294 0.67092 0
637 1 0.0988478 0.695391 0
635 1 0.0545518 0.699339 0
578 1 0.116864 0.656368 0
609 1 0.139797 0.665335 0
608 1 0.12006 0.682403 0
639 1 0.142327 0.691435 0
580 1 0.160007 0.651759 0
611 1 0.182678 0.662211 0
610 1 0.1613 0.677155 0
612 1 0.183874 0.686883 0
613 1 0.2051 0.674057 0
615 1 0.226577 0.659581 0
614 1 0.227682 0.685854 0
617 1 0.247501 0.67061 0
643 1 0.207164 0.699226 0
616 1 0.250387 0.696072 0
588 1 0.26891 0.657972 0
619 1 0.293024 0.668182 0
618 1 0.272765 0.682162 0
590 1 0.312883 0.653164 0
621 1 0.315291 0.679732 0
592 1 0.335678 0.66506 0
622 1 0.33989 0.689127 0
623 1 0.358273 0.673168 0
594 1 0.376873 0.655621 0
624 1 0.384759 0.680236 0
653 1 0.365635 0.696533 0
625 1 0.402125 0.662432 0
627 1 0.425162 0.668618 0
626 1 0.408244 0.687082 0
657 1 0.432073 0.690777 0
628 1 0.449241 0.672723 0
599 1 0.464701 0.654545 0
600 1 0.489968 0.658645 0
629 1 0.472283 0.67836 0
630 1 0.496974 0.68445 0
658 1 0.455551 0.696619 0
632 1 0.0118692 0.704508 0
634 1 0.0343474 0.715751 0
663 1 0.0125214 0.729019 0
664 1 0.0349573 0.739758 0
636 1 0.0759386 0.71061 0
665 1 0.0573059 0.725417 0
666 1 0.0794727 0.736159 0
667 1 0.0994549 0.7212 0
638 1 0.120427 0.706871 0
640 1 0.142039 0.71675 0
669 1 0.122085 0.732496 0
668 1 0.101145 0.74642 0
670 1 0.145841 0.742328 0
641 1 0.162892 0.702679 0
642 1 0.185383 0.713333 0
671 1 0.164609 0.725939 0
673 1 0.187933 0.738889 0
645 1 0.228403 0.710931 0
644 1 0.208492 0.725066 0
675 1 0.231178 0.734963 0
674 1 0.210358 0.749475 0
646 1 0.251941 0.720354 0
647 1 0.272613 0.706153 0
677 1 0.252996 0.744776 0
648 1 0.272595 0.73087 0
679 1 0.295368 0.740915 0
649 1 0.296932 0.715682 0
620 1 0.321872 0.706909 0
651 1 0.347372 0.714898 0
650 1 0.331572 0.731805 0
652 1 0.354636 0.739607 0
655 1 0.389535 0.705025 0
654 1 0.371744 0.722461 0
685 1 0.396288 0.728681 0
683 1 0.378259 0.746576 0
656 1 0.413498 0.711 0
687 1 0.437364 0.715617 0
686 1 0.42154 0.734882 0
717 1 0.44398 0.73982 0
659 1 0.480241 0.702146 0
689 1 0.461743 0.720395 0
660 1 0.485963 0.726642 0
688 1 0.468517 0.744602 0
662 1 0.0148708 0.754279 0
694 1 0.0380352 0.764507 0
693 1 0.0176562 0.778641 0
725 1 0.040911 0.788624 0
695 1 0.0589448 0.749952 0
697 1 0.0816042 0.761862 0
696 1 0.0610515 0.775153 0
727 1 0.084105 0.786275 0
726 1 0.0641114 0.799549 0
699 1 0.125228 0.756943 0
698 1 0.106034 0.771296 0
700 1 0.12784 0.782629 0
728 1 0.10628 0.795679 0
701 1 0.147851 0.76809 0
731 1 0.149822 0.793338 0
672 1 0.167816 0.752812 0
703 1 0.189481 0.764919 0
702 1 0.169659 0.778498 0
704 1 0.193361 0.789964 0
676 1 0.233622 0.760618 0
705 1 0.212414 0.773948 0
706 1 0.235347 0.785321 0
707 1 0.255391 0.770427 0
678 1 0.275508 0.755182 0
709 1 0.27838 0.779362 0
680 1 0.298073 0.765724 0
737 1 0.258703 0.794834 0
710 1 0.301438 0.790395 0
681 1 0.318151 0.751275 0
682 1 0.340168 0.759816 0
711 1 0.321698 0.774843 0
712 1 0.345113 0.783064 0
741 1 0.324364 0.798937 0
713 1 0.363804 0.76639 0
714 1 0.386531 0.772015 0
743 1 0.367586 0.78916 0
745 1 0.391737 0.796793 0
684 1 0.403013 0.752522 0
715 1 0.427434 0.758723 0
716 1 0.410684 0.776524 0
747 1 0.435268 0.782877 0
718 1 0.452374 0.763602 0
690 1 0.492109 0.749876 0
719 1 0.475852 0.768492 0
720 1 0.482025 0.794152 0
749 1 0.458413 0.788214 0
1591 1 0.499365 0.775718 0
1680 1 0.000121832 0.84402 0
723 1 0.0214314 0.803297 0
722 1 0.023238 0.834363 0
724 1 0.0430316 0.812119 0
754 1 0.04633 0.836199 0
751 1 0.000842567 0.818803 0
757 1 0.0855688 0.810138 0
755 1 0.0686671 0.825527 0
756 1 0.0889078 0.840644 0
729 1 0.128148 0.807539 0
759 1 0.107845 0.820204 0
760 1 0.130824 0.831751 0
730 1 0.151832 0.818543 0
732 1 0.172564 0.804844 0
761 1 0.153387 0.843484 0
763 1 0.175306 0.830787 0
733 1 0.195504 0.815582 0
764 1 0.196824 0.842604 0
735 1 0.215171 0.800541 0
736 1 0.238078 0.810213 0
734 1 0.217478 0.826713 0
767 1 0.240448 0.83683 0
708 1 0.282051 0.806181 0
738 1 0.260996 0.819826 0
769 1 0.284269 0.830144 0
768 1 0.264221 0.844447 0
739 1 0.307766 0.816144 0
740 1 0.306782 0.839429 0
771 1 0.331775 0.826087 0
742 1 0.349432 0.806447 0
773 1 0.356299 0.830561 0
744 1 0.374344 0.813189 0
774 1 0.379781 0.840103 0
775 1 0.398802 0.820971 0
746 1 0.415614 0.8003 0
748 1 0.439517 0.805777 0
777 1 0.423629 0.825585 0
776 1 0.405909 0.844999 0
779 1 0.447639 0.829599 0
750 1 0.465253 0.812839 0
1621 1 0.489409 0.817975 0
780 1 0.471413 0.837181 0
1651 1 0.496598 0.841107 0
753 1 0.0405253 0.85807 0
752 1 0.0168297 0.8621 0
783 1 0.0344193 0.881267 0
782 1 0.0111686 0.88829 0
785 1 0.0648919 0.851323 0
784 1 0.0579588 0.875537 0
786 1 0.07717 0.891236 0
787 1 0.0829861 0.86735 0
817 1 0.101262 0.885786 0
758 1 0.106675 0.860617 0
789 1 0.130935 0.855521 0
788 1 0.125611 0.878595 0
790 1 0.144601 0.894235 0
762 1 0.176488 0.858058 0
791 1 0.150065 0.869975 0
793 1 0.170596 0.886357 0
795 1 0.194443 0.878393 0
765 1 0.220781 0.850546 0
796 1 0.222001 0.875969 0
825 1 0.23803 0.894754 0
766 1 0.24629 0.862356 0
794 1 0.210357 0.899718 0
797 1 0.273042 0.867167 0
827 1 0.264467 0.890357 0
799 1 0.296727 0.861969 0
798 1 0.289909 0.886467 0
772 1 0.346092 0.853225 0
770 1 0.321474 0.858993 0
800 1 0.313745 0.882028 0
801 1 0.338373 0.877917 0
802 1 0.356516 0.893819 0
803 1 0.364096 0.869332 0
804 1 0.381719 0.88661 0
805 1 0.39036 0.864834 0
778 1 0.429664 0.850872 0
807 1 0.413821 0.86993 0
808 1 0.438135 0.873715 0
837 1 0.42157 0.893247 0
809 1 0.45557 0.855238 0
1681 1 0.480573 0.859952 0
1711 1 0.486767 0.885 0
810 1 0.462991 0.878495 0
813 1 0.0282804 0.90569 0
843 1 0.0201332 0.929231 0
814 1 0.0459208 0.923089 0
844 1 0.0380255 0.946779 0
812 1 0.00292898 0.91119 0
815 1 0.0529771 0.900174 0
816 1 0.0956296 0.910576 0
845 1 0.070957 0.917181 0
846 1 0.0623834 0.940692 0
847 1 0.0886941 0.933708 0
819 1 0.120498 0.902198 0
818 1 0.113894 0.927498 0
820 1 0.132288 0.943673 0
821 1 0.138773 0.918857 0
792 1 0.162796 0.911339 0
851 1 0.155956 0.936637 0
823 1 0.187123 0.904347 0
822 1 0.181108 0.92906 0
854 1 0.198608 0.948135 0
824 1 0.206259 0.923066 0
885 1 0.225734 0.94196 0
855 1 0.228694 0.917139 0
856 1 0.248972 0.937624 0
826 1 0.25323 0.91347 0
857 1 0.27333 0.933565 0
828 1 0.279334 0.910264 0
859 1 0.297739 0.929357 0
831 1 0.330814 0.901164 0
829 1 0.305795 0.905998 0
830 1 0.322635 0.923726 0
861 1 0.342049 0.940461 0
860 1 0.314131 0.947536 0
832 1 0.349108 0.916979 0
806 1 0.39901 0.904153 0
863 1 0.366455 0.935026 0
833 1 0.373584 0.910972 0
834 1 0.393073 0.929533 0
835 1 0.416016 0.922561 0
836 1 0.434507 0.940497 0
838 1 0.451566 0.92206 0
869 1 0.463373 0.944945 0
839 1 0.469751 0.902699 0
840 1 0.478546 0.925821 0
1712 1 0.494848 0.908442 0
842 1 0.0135599 0.953797 0
872 1 0.0256558 0.994626 0
873 1 0.0316901 0.970566 0
871 1 0.0069411 0.978508 0
874 1 0.0489927 0.988047 0
875 1 0.055431 0.963397 0
876 1 0.0753249 0.98165 0
848 1 0.0810458 0.956711 0
7 1 0.0928541 0.998951 0
877 1 0.0986976 0.974 0
849 1 0.105981 0.950731 0
878 1 0.118255 0.990236 0
879 1 0.124836 0.966905 0
881 1 0.143326 0.985065 0
850 1 0.149697 0.960316 0
853 1 0.175485 0.954419 0
852 1 0.168907 0.980099 0
883 1 0.192052 0.972777 0
882 1 0.184598 0.997639 0
13 1 0.208346 0.990846 0
15 1 0.233328 0.984524 0
884 1 0.216927 0.966565 0
886 1 0.24097 0.961795 0
858 1 0.289719 0.952628 0
887 1 0.265874 0.957443 0
17 1 0.258821 0.981825 0
888 1 0.283025 0.977662 0
18 1 0.275539 0.999988 0
19 1 0.301069 0.994932 0
889 1 0.306326 0.969923 0
890 1 0.324825 0.987742 0
891 1 0.333618 0.963815 0
892 1 0.349815 0.983408 0
862 1 0.359054 0.961196 0
864 1 0.384438 0.954661 0
893 1 0.37676 0.978727 0
894 1 0.393664 0.996658 0
865 1 0.409851 0.950257 0
895 1 0.401414 0.97324 0
866 1 0.424577 0.97022 0
896 1 0.418379 0.992965 0
897 1 0.44568 0.988782 0
867 1 0.446359 0.961852 0
868 1 0.470414 0.969456 0
899 1 0.478102 0.993189 0
1771 1 0.494413 0.9743 0
870 1 0.486933 0.949589 0
902 1 0.535997 0.0269916 0
901 1 0.509446 0.0206132 0
931 1 0.519284 0.0444919 0
933 1 0.543093 0.0494739 0
903 1 0.527704 0.00495876 0
904 1 0.559416 0.031898 0
906 1 0.577838 0.0133641 0
935 1 0.583503 0.0378276 0
905 1 0.552522 0.00859804 0
908 1 0.602338 0.0182978 0
937 1 0.609096 0.042445 0
939 1 0.626771 0.0238283 0
910 1 0.643773 0.00662538 0
938 1 0.634474 0.0482539 0
909 1 0.619016 0.000799854 0
941 1 0.651745 0.0313269 0
912 1 0.667817 0.0126564 0
942 1 0.676953 0.0361085 0
943 1 0.693019 0.0181442 0
973 1 0.701133 0.0410169 0
944 1 0.717339 0.0240838 0
945 1 0.734559 0.00418259 0
946 1 0.743581 0.028601 0
975 1 0.725621 0.0465016 0
947 1 0.759921 0.0099598 0
948 1 0.769235 0.0362048 0
918 1 0.783696 0.0167013 0
979 1 0.79648 0.0465112 0
949 1 0.806925 0.0228498 0
951 1 0.835824 0.0212272 0
950 1 0.822459 0.0436873 0
921 1 0.819908 0.00329806 0
952 1 0.853178 0.03876 0
953 1 0.860588 0.014656 0
924 1 0.885106 0.00905213 0
954 1 0.877438 0.0326116 0
955 1 0.900093 0.0276314 0
926 1 0.92497 0.0214368 0
957 1 0.943539 0.0399561 0
956 1 0.918119 0.0451709 0
925 1 0.90833 0.00344592 0
928 1 0.950071 0.0155026 0
959 1 0.967066 0.0329841 0
930 1 0.992177 0.0259576 0
929 1 0.973981 0.01004 0
932 1 0.526863 0.0675229 0
962 1 0.534087 0.0914975 0
961 1 0.510298 0.0844346 0
60 1 0.503045 0.061735 0
963 1 0.549547 0.0737588 0
934 1 0.566837 0.0560833 0
965 1 0.573298 0.0789938 0
964 1 0.557631 0.0978071 0
936 1 0.592802 0.0605102 0
966 1 0.600043 0.0851597 0
967 1 0.617249 0.067051 0
968 1 0.625441 0.092483 0
969 1 0.641209 0.0722291 0
999 1 0.649517 0.0966003 0
940 1 0.65917 0.053711 0
970 1 0.666291 0.0790148 0
971 1 0.684504 0.0602099 0
972 1 0.692787 0.0843914 0
1003 1 0.708871 0.0651533 0
1004 1 0.716673 0.0887961 0
974 1 0.733633 0.071533 0
1005 1 0.740549 0.0960023 0
976 1 0.751627 0.0532238 0
1007 1 0.756949 0.0783941 0
977 1 0.774964 0.0592914 0
978 1 0.79218 0.0745832 0
1008 1 0.787516 0.0987201 0
980 1 0.818149 0.0665382 0
981 1 0.841795 0.0602285 0
1009 1 0.810411 0.0911216 0
1011 1 0.835494 0.0850047 0
985 1 0.893029 0.0517539 0
982 1 0.859881 0.0816983 0
983 1 0.866909 0.0578489 0
984 1 0.885694 0.0751747 0
1013 1 0.877426 0.0994101 0
1015 1 0.903638 0.0944005 0
986 1 0.910717 0.0690712 0
987 1 0.935773 0.0629496 0
1017 1 0.929248 0.0865827 0
960 1 0.98474 0.0504567 0
988 1 0.95317 0.0812064 0
958 1 0.960803 0.0581156 0
989 1 0.97839 0.0745762 0
990 1 0.997129 0.0908363 0
1019 1 0.972301 0.097418 0
991 1 0.516589 0.107612 0
992 1 0.521593 0.131774 0
993 1 0.540163 0.115461 0
1023 1 0.545595 0.139319 0
1021 1 0.504613 0.150259 0
995 1 0.58268 0.103373 0
994 1 0.565169 0.121661 0
996 1 0.588877 0.127174 0
1025 1 0.570347 0.144571 0
997 1 0.606717 0.109886 0
998 1 0.631574 0.117277 0
1027 1 0.614064 0.133621 0
1029 1 0.640764 0.140046 0
1001 1 0.67509 0.102138 0
1000 1 0.658476 0.120064 0
1031 1 0.682691 0.127443 0
1030 1 0.663541 0.145677 0
1002 1 0.698791 0.107818 0
1033 1 0.707805 0.13217 0
1035 1 0.72445 0.113825 0
1034 1 0.73259 0.138225 0
1036 1 0.750117 0.121366 0
1006 1 0.763625 0.101587 0
1037 1 0.777175 0.123542 0
1038 1 0.796152 0.14076 0
1067 1 0.761064 0.145436 0
1039 1 0.803543 0.11577 0
1010 1 0.827739 0.109579 0
1040 1 0.819997 0.133528 0
1041 1 0.843889 0.127463 0
1012 1 0.853106 0.104759 0
1043 1 0.869925 0.123334 0
1014 1 0.895393 0.118185 0
1044 1 0.8872 0.141436 0
1042 1 0.862785 0.146701 0
1045 1 0.913172 0.135447 0
1016 1 0.920527 0.110883 0
1047 1 0.936832 0.128083 0
1018 1 0.945698 0.105086 0
1049 1 0.966083 0.121159 0
1020 1 0.989381 0.114936 0
1050 1 0.981324 0.139992 0
1046 1 0.955237 0.143249 0
1022 1 0.528904 0.155808 0
1053 1 0.536567 0.180622 0
1051 1 0.511799 0.17397 0
1052 1 0.519173 0.198373 0
1026 1 0.596086 0.151614 0
1024 1 0.553245 0.162417 0
1055 1 0.577837 0.167527 0
1054 1 0.561603 0.185503 0
1056 1 0.586415 0.192569 0
1028 1 0.621145 0.156926 0
1057 1 0.605334 0.17495 0
1058 1 0.62987 0.180766 0
1087 1 0.610871 0.199276 0
1059 1 0.647522 0.163767 0
1032 1 0.688871 0.151967 0
1060 1 0.654717 0.186847 0
1061 1 0.671454 0.169052 0
1091 1 0.679739 0.193208 0
1062 1 0.697199 0.174854 0
1063 1 0.713783 0.155354 0
1064 1 0.722113 0.178843 0
1095 1 0.745342 0.185439 0
1093 1 0.703944 0.199468 0
1065 1 0.741566 0.160628 0
1066 1 0.766578 0.170027 0
1068 1 0.79073 0.165422 0
1097 1 0.783612 0.18865 0
1071 1 0.83638 0.151262 0
1069 1 0.81404 0.158539 0
1070 1 0.831247 0.176805 0
1099 1 0.807782 0.182008 0
1101 1 0.848519 0.195103 0
1072 1 0.855296 0.170519 0
1073 1 0.8811 0.164802 0
1103 1 0.874706 0.189506 0
1074 1 0.899864 0.182661 0
1077 1 0.931306 0.152306 0
1075 1 0.904383 0.159181 0
1076 1 0.923135 0.176842 0
1107 1 0.941809 0.195312 0
1078 1 0.94829 0.169509 0
1048 1 0.972179 0.163281 0
151 1 0.998695 0.156583 0
1079 1 0.990065 0.181143 0
1109 1 0.966665 0.188782 0
1083 1 0.544277 0.203441 0
1082 1 0.528581 0.220799 0
1111 1 0.507815 0.238941 0
1113 1 0.532839 0.245557 0
1081 1 0.500834 0.214967 0
1084 1 0.551855 0.228273 0
1085 1 0.568838 0.209825 0
1086 1 0.593407 0.217979 0
1115 1 0.576307 0.234221 0
1117 1 0.6014 0.24019 0
1089 1 0.63684 0.204242 0
1088 1 0.619099 0.222775 0
1119 1 0.643866 0.228141 0
1118 1 0.624778 0.246344 0
1090 1 0.660571 0.209863 0
1092 1 0.68513 0.216749 0
1121 1 0.669017 0.234947 0
1122 1 0.692114 0.241665 0
1094 1 0.727539 0.203697 0
1123 1 0.708479 0.22314 0
1124 1 0.716647 0.246674 0
1125 1 0.734781 0.228546 0
1096 1 0.752248 0.209349 0
1127 1 0.77539 0.214355 0
1126 1 0.75931 0.23432 0
1128 1 0.784088 0.2379 0
1100 1 0.825519 0.200415 0
1098 1 0.800869 0.20615 0
1131 1 0.844285 0.219392 0
1129 1 0.821157 0.224512 0
1130 1 0.834924 0.246026 0
1159 1 0.809031 0.246799 0
1102 1 0.868035 0.212533 0
1104 1 0.891338 0.206072 0
1132 1 0.860179 0.237835 0
1133 1 0.885765 0.231777 0
1105 1 0.917997 0.20112 0
1135 1 0.909836 0.225431 0
1106 1 0.934586 0.219787 0
1136 1 0.926806 0.244812 0
1137 1 0.950979 0.238969 0
1108 1 0.959294 0.212856 0
1110 1 0.984083 0.207797 0
1139 1 0.976328 0.23383 0
1112 1 0.514769 0.26235 0
1143 1 0.538771 0.268873 0
1142 1 0.52082 0.286891 0
1144 1 0.544583 0.293475 0
1114 1 0.557744 0.252102 0
1116 1 0.581432 0.257953 0
1145 1 0.563376 0.275847 0
1146 1 0.58731 0.282186 0
1175 1 0.570451 0.300612 0
1147 1 0.607838 0.264582 0
1149 1 0.632397 0.270621 0
1148 1 0.61223 0.288286 0
1179 1 0.63705 0.294362 0
1120 1 0.64956 0.252196 0
1151 1 0.674554 0.258878 0
1150 1 0.655863 0.275449 0
1152 1 0.682209 0.282233 0