ITEM: TIMESTEP
48000
ITEM: NUMBER OF ATOMS
1800
ITEM: BOX BOUNDS pp pp pp
2.8290415961609483e+00 1.5557095840383937e+02
2.8290415961609483e+00 1.5557095840383937e+02
0.0000000000000000e+00 5.2800000000000002e+00
ITEM: ATOMS id type xs ys zs
2 1 0.0155983 0.0174827 0
3 1 0.041059 0.0108548 0
33 1 0.0353089 0.0346628 0
31 1 0.00907634 0.0418462 0
4 1 0.0586612 0.0283954 0
6 1 0.0823002 0.0215339 0
5 1 0.065342 0.00421453 0
35 1 0.0754304 0.0454566 0
37 1 0.100176 0.038692 0
8 1 0.107126 0.0155594 0
9 1 0.125268 0.0327354 0
880 1 0.132597 0.00909329 0
10 1 0.151016 0.0260985 0
11 1 0.157312 0.00344213 0
12 1 0.176041 0.0198836 0
43 1 0.191637 0.0391499 0
41 1 0.166613 0.0444267 0
14 1 0.200093 0.0149573 0
44 1 0.215599 0.0346483 0
45 1 0.22361 0.00881016 0
46 1 0.239988 0.0278664 0
16 1 0.249028 0.00427257 0
47 1 0.26493 0.0238806 0
49 1 0.290021 0.0194207 0
48 1 0.281992 0.0426689 0
18 1 0.275099 0.000644783 0
77 1 0.257932 0.0484033 0
50 1 0.306356 0.036839 0
20 1 0.314466 0.0138301 0
51 1 0.331358 0.031364 0
21 1 0.338703 0.00798941 0
23 1 0.366238 0.00302404 0
22 1 0.355174 0.0261836 0
24 1 0.381989 0.0224864 0
53 1 0.372322 0.0455838 0
55 1 0.396075 0.0431107 0
25 1 0.407123 0.0201583 0
26 1 0.43731 0.0342335 0
27 1 0.43044 0.00954735 0
899 1 0.47309 -0.00253135 0
898 1 0.454833 0.0176756 0
28 1 0.459699 0.0436759 0
29 1 0.478005 0.0253029 0
900 1 0.494731 0.00811677 0
61 1 0.00289255 0.0664644 0
32 1 0.0260735 0.0585504 0
62 1 0.0196419 0.0826742 0
63 1 0.0436688 0.0765441 0
34 1 0.0515093 0.0532658 0
65 1 0.0678059 0.0699649 0
66 1 0.0842296 0.0883917 0
36 1 0.0928942 0.0632568 0
64 1 0.0609215 0.095234 0
39 1 0.140888 0.0504991 0
38 1 0.116316 0.0572714 0
67 1 0.109899 0.0811134 0
69 1 0.134324 0.074725 0
68 1 0.127515 0.0977808 0
70 1 0.15319 0.0916164 0
40 1 0.159936 0.0682034 0
71 1 0.177388 0.0852485 0
42 1 0.18527 0.0631926 0
72 1 0.201749 0.0815404 0
73 1 0.208669 0.0577766 0
74 1 0.226408 0.0762929 0
75 1 0.231907 0.0529567 0
106 1 0.243802 0.0944639 0
103 1 0.219395 0.0993805 0
76 1 0.250748 0.0707174 0
78 1 0.275762 0.0672728 0
109 1 0.294021 0.0859561 0
107 1 0.267677 0.0895922 0
79 1 0.299994 0.0611114 0
80 1 0.319109 0.0802573 0
81 1 0.324119 0.0559404 0
82 1 0.343051 0.0755516 0
52 1 0.34702 0.0506636 0
111 1 0.339218 0.101089 0
54 1 0.401098 0.0687974 0
83 1 0.366222 0.0685036 0
113 1 0.38302 0.086689 0
56 1 0.418414 0.0503871 0
57 1 0.441876 0.0598287 0
85 1 0.423611 0.0757487 0
87 1 0.447525 0.0856126 0
84 1 0.405758 0.0941492 0
59 1 0.482909 0.0513744 0
88 1 0.471338 0.0917609 0
58 1 0.464833 0.0671227 0
89 1 0.488902 0.0755181 0
93 1 0.037121 0.100924 0
92 1 0.0291456 0.124759 0
91 1 0.0126114 0.1069 0
123 1 0.0471025 0.14171 0
121 1 0.00638191 0.131853 0
122 1 0.0223823 0.149203 0
94 1 0.0543646 0.118048 0
95 1 0.0782089 0.112016 0
125 1 0.0713357 0.135718 0
96 1 0.0976563 0.127696 0
97 1 0.104005 0.104072 0
98 1 0.121175 0.121319 0
99 1 0.144803 0.11424 0
129 1 0.138736 0.138124 0
127 1 0.113554 0.146041 0
100 1 0.170978 0.108224 0
130 1 0.161984 0.132194 0
131 1 0.187173 0.128009 0
101 1 0.195868 0.104671 0
133 1 0.202619 0.146079 0
102 1 0.211221 0.12258 0
105 1 0.235513 0.117907 0
104 1 0.228075 0.141776 0
136 1 0.252027 0.137864 0
135 1 0.259133 0.11254 0
137 1 0.277704 0.131783 0
108 1 0.285202 0.109355 0
139 1 0.302234 0.132045 0
110 1 0.31311 0.107247 0
141 1 0.344488 0.124774 0
140 1 0.325448 0.138998 0
112 1 0.363905 0.106351 0
114 1 0.386798 0.112293 0
143 1 0.368674 0.130172 0
144 1 0.393816 0.136843 0
142 1 0.350451 0.149688 0
86 1 0.428537 0.101052 0
115 1 0.410691 0.119463 0
116 1 0.434403 0.127788 0
145 1 0.417449 0.144831 0
90 1 0.494924 0.100324 0
117 1 0.452998 0.10966 0
118 1 0.459842 0.133255 0
119 1 0.477193 0.115916 0
149 1 0.483319 0.140265 0
153 1 0.0414069 0.165753 0
152 1 0.0151433 0.175076 0
183 1 0.0336219 0.190187 0
1080 1 0.00842232 0.200649 0
124 1 0.0645361 0.158661 0
126 1 0.089533 0.15279 0
155 1 0.0822522 0.176255 0
154 1 0.0576341 0.184117 0
156 1 0.0981492 0.19347 0
128 1 0.130313 0.162504 0
157 1 0.106362 0.170278 0
160 1 0.147672 0.179561 0
158 1 0.124491 0.186649 0
159 1 0.154703 0.156734 0
161 1 0.170954 0.174942 0
132 1 0.178795 0.151766 0
162 1 0.190362 0.193316 0
163 1 0.196128 0.170567 0
191 1 0.165504 0.198601 0
134 1 0.218211 0.163879 0
164 1 0.230486 0.183598 0
165 1 0.2448 0.162628 0
166 1 0.252899 0.188917 0
167 1 0.269955 0.171308 0
138 1 0.288709 0.152778 0
168 1 0.293397 0.178047 0
197 1 0.275744 0.195856 0
169 1 0.311439 0.161434 0
171 1 0.334078 0.167403 0
170 1 0.31717 0.18557 0
201 1 0.341081 0.191534 0
172 1 0.35805 0.173537 0
173 1 0.375981 0.154379 0
174 1 0.38309 0.178809 0
203 1 0.366051 0.197112 0
175 1 0.400046 0.161037 0
147 1 0.443829 0.151583 0
146 1 0.425453 0.169788 0
205 1 0.407021 0.185678 0
176 1 0.431153 0.19304 0
177 1 0.450162 0.176284 0
148 1 0.466564 0.157294 0
150 1 0.491679 0.165291 0
179 1 0.474344 0.182108 0
180 1 0.498697 0.189744 0
182 1 0.0282916 0.215575 0
213 1 0.0456595 0.231372 0
211 1 0.0205166 0.242945 0
181 1 0.00270106 0.225155 0
184 1 0.0513067 0.208174 0
185 1 0.0739831 0.201279 0
186 1 0.0941014 0.217128 0
215 1 0.0696368 0.225066 0
216 1 0.0891042 0.24436 0
214 1 0.0620348 0.248208 0
187 1 0.11816 0.210253 0
188 1 0.136398 0.227302 0
189 1 0.142609 0.203675 0
217 1 0.112253 0.234824 0
190 1 0.160585 0.222549 0
192 1 0.192321 0.218941 0
221 1 0.177264 0.238516 0
220 1 0.158043 0.25246 0
223 1 0.200447 0.242072 0
193 1 0.213477 0.199526 0
194 1 0.216785 0.22464 0
195 1 0.235794 0.20748 0
225 1 0.240893 0.232361 0
196 1 0.258858 0.213903 0
198 1 0.281866 0.220912 0
227 1 0.263311 0.23912 0
228 1 0.28681 0.245112 0
199 1 0.299442 0.203275 0
200 1 0.323614 0.209924 0
229 1 0.305113 0.22638 0
231 1 0.329138 0.2337 0
202 1 0.347528 0.215992 0
204 1 0.390697 0.205042 0
233 1 0.372522 0.221588 0
235 1 0.395997 0.229376 0
232 1 0.353061 0.240023 0
234 1 0.378064 0.246797 0
207 1 0.439158 0.217496 0
206 1 0.421756 0.235767 0
237 1 0.445006 0.24233 0
178 1 0.456221 0.199394 0
208 1 0.462546 0.224388 0
209 1 0.480486 0.207292 0
210 1 0.487055 0.232259 0
239 1 0.46878 0.249272 0
212 1 0.0149604 0.266194 0
243 1 0.0393956 0.261225 0
241 1 0.00954718 0.288623 0
242 1 0.0332559 0.295906 0
244 1 0.0539258 0.282553 0
245 1 0.0764217 0.267317 0
275 1 0.0774453 0.29174 0
247 1 0.0977144 0.278399 0
219 1 0.133881 0.25036 0
218 1 0.112224 0.259486 0
249 1 0.141017 0.272078 0
248 1 0.120183 0.284743 0
250 1 0.146078 0.294971 0
222 1 0.18107 0.26186 0
251 1 0.163798 0.27779 0
252 1 0.186364 0.285423 0
224 1 0.223167 0.250058 0
253 1 0.204927 0.266461 0
255 1 0.228067 0.274895 0
254 1 0.21001 0.291382 0
285 1 0.233202 0.298206 0
226 1 0.245743 0.257141 0
256 1 0.252023 0.281414 0
257 1 0.269477 0.26276 0
259 1 0.29406 0.26943 0
258 1 0.275995 0.285946 0
230 1 0.310503 0.25058 0
289 1 0.298747 0.294296 0
260 1 0.317547 0.27727 0
261 1 0.334156 0.258417 0
262 1 0.34194 0.2851 0
291 1 0.322816 0.302765 0
263 1 0.360838 0.265255 0
264 1 0.38497 0.270755 0
293 1 0.366451 0.289003 0
295 1 0.391223 0.295191 0
265 1 0.402733 0.253054 0
236 1 0.426576 0.259548 0
266 1 0.40896 0.277214 0
267 1 0.432927 0.285072 0
238 1 0.450973 0.267007 0
240 1 0.49307 0.25628 0
269 1 0.475594 0.273162 0
268 1 0.45786 0.29006 0
270 1 0.482004 0.296285 0
1141 1 0.499771 0.279392 0
271 1 0.0135585 0.313878 0
272 1 0.0372085 0.321504 0
301 1 0.019313 0.338207 0
303 1 0.0430627 0.347374 0
273 1 0.0572061 0.30672 0
276 1 0.0814202 0.315029 0
274 1 0.0629075 0.329982 0
305 1 0.0870384 0.34081 0
246 1 0.101366 0.301391 0
279 1 0.126172 0.30868 0
277 1 0.106694 0.324995 0
278 1 0.131412 0.334379 0
307 1 0.110794 0.348248 0
280 1 0.150798 0.319298 0
281 1 0.168397 0.302348 0
311 1 0.154325 0.343345 0
283 1 0.191905 0.309153 0
282 1 0.173132 0.326341 0
312 1 0.178836 0.3494 0
313 1 0.197674 0.332799 0
284 1 0.215491 0.314853 0
315 1 0.221325 0.338758 0
286 1 0.239452 0.322083 0
316 1 0.244708 0.346638 0
287 1 0.25704 0.305152 0
288 1 0.280542 0.310636 0
317 1 0.263915 0.32972 0
319 1 0.287732 0.336532 0
290 1 0.304638 0.3201 0
321 1 0.310799 0.345639 0
292 1 0.328314 0.326258 0
323 1 0.349026 0.308121 0
294 1 0.372165 0.31511 0
324 1 0.353055 0.33326 0
325 1 0.377151 0.338078 0
296 1 0.3963 0.318831 0
297 1 0.414954 0.301604 0
326 1 0.401998 0.34329 0
298 1 0.439871 0.308838 0
327 1 0.420398 0.325634 0
328 1 0.445472 0.332886 0
299 1 0.463938 0.314984 0
300 1 0.488153 0.320221 0
1201 1 0.494316 0.344511 0
329 1 0.468936 0.338308 0
331 1 0.00507934 0.378758 0
302 1 0.0254585 0.364119 0
332 1 0.0302258 0.38756 0
333 1 0.0498093 0.371676 0
334 1 0.0533903 0.395942 0
304 1 0.0663293 0.355413 0
306 1 0.091398 0.364275 0
335 1 0.0728087 0.380483 0
337 1 0.0954592 0.388654 0
309 1 0.134014 0.357447 0
308 1 0.114074 0.371998 0
339 1 0.138383 0.38161 0
338 1 0.119452 0.397966 0
310 1 0.158739 0.366773 0
341 1 0.162199 0.389678 0
343 1 0.182657 0.374036 0
342 1 0.185368 0.397326 0
314 1 0.203183 0.356195 0
345 1 0.2261 0.364068 0
344 1 0.206631 0.380723 0
375 1 0.2294 0.38944 0
346 1 0.249458 0.372746 0
377 1 0.253858 0.397466 0
318 1 0.268828 0.354439 0
349 1 0.291901 0.360763 0
347 1 0.273757 0.378788 0
350 1 0.30078 0.387395 0
322 1 0.33639 0.352855 0
320 1 0.318345 0.370086 0
351 1 0.341225 0.378747 0
381 1 0.324799 0.396559 0
353 1 0.36005 0.35749 0
355 1 0.384819 0.360815 0
354 1 0.365259 0.381827 0
385 1 0.390857 0.386636 0
357 1 0.427651 0.349021 0
356 1 0.411069 0.367096 0
387 1 0.434686 0.374524 0
386 1 0.415835 0.390716 0
388 1 0.441243 0.398522 0
358 1 0.459457 0.380479 0
359 1 0.452177 0.356743 0
330 1 0.475893 0.361781 0
360 1 0.485392 0.385409 0
361 1 0.008951 0.40378 0
363 1 0.03432 0.411474 0
362 1 0.0147391 0.426836 0
364 1 0.0389529 0.43595 0
336 1 0.0763109 0.404295 0
365 1 0.0582805 0.419745 0
395 1 0.0620804 0.44533 0
367 1 0.101184 0.414408 0
366 1 0.103614 0.438756 0
369 1 0.124949 0.423137 0
340 1 0.14343 0.40498 0
368 1 0.12841 0.4472 0
370 1 0.148308 0.430584 0
371 1 0.167086 0.415115 0
401 1 0.172379 0.437488 0
372 1 0.189231 0.420302 0
403 1 0.196164 0.443151 0
373 1 0.209078 0.404548 0
374 1 0.213548 0.428028 0
376 1 0.233317 0.4131 0
405 1 0.240513 0.435962 0
348 1 0.278849 0.402977 0
407 1 0.264226 0.44483 0
378 1 0.260908 0.420928 0
409 1 0.28555 0.428041 0
379 1 0.303236 0.411968 0
380 1 0.311366 0.437367 0
382 1 0.331064 0.420045 0
411 1 0.335008 0.443814 0
352 1 0.348731 0.402709 0
383 1 0.373135 0.409188 0
413 1 0.356587 0.428398 0
414 1 0.381088 0.432567 0
384 1 0.398226 0.409627 0
415 1 0.407451 0.432123 0
417 1 0.423312 0.413771 0
416 1 0.430375 0.440606 0
419 1 0.448092 0.423593 0
389 1 0.466261 0.403376 0
418 1 0.474507 0.425648 0
390 1 0.491211 0.407611 0
420 1 0.499215 0.433239 0
393 1 0.0211701 0.453343 0
422 1 0.0050001 0.492008 0
423 1 0.0252568 0.477566 0
394 1 0.0436086 0.460587 0
425 1 0.048238 0.48547 0
396 1 0.0672543 0.470441 0
426 1 0.0716383 0.495595 0
397 1 0.0852964 0.453898 0
427 1 0.0909697 0.479153 0
398 1 0.109479 0.464032 0
428 1 0.114964 0.489345 0
429 1 0.133309 0.471458 0
459 1 0.138407 0.497766 0
399 1 0.153128 0.455713 0
400 1 0.176978 0.460912 0
430 1 0.156303 0.480417 0
431 1 0.181325 0.484336 0
404 1 0.221549 0.450299 0
402 1 0.200732 0.467056 0
432 1 0.205571 0.490715 0
433 1 0.223645 0.475331 0
435 1 0.243899 0.459454 0
436 1 0.249952 0.483781 0
408 1 0.28887 0.451992 0
406 1 0.269067 0.468661 0
437 1 0.273052 0.492981 0
439 1 0.292741 0.478084 0
410 1 0.311221 0.461888 0
440 1 0.315789 0.487745 0
441 1 0.335255 0.471659 0
471 1 0.339009 0.499118 0
412 1 0.354377 0.457161 0
442 1 0.358166 0.484119 0
473 1 0.381085 0.493154 0
443 1 0.377376 0.467969 0
445 1 0.400015 0.453636 0
444 1 0.401402 0.479617 0
477 1 0.424698 0.490603 0
446 1 0.423911 0.46455 0
478 1 0.448114 0.497806 0
450 1 0.485818 0.473906 0
449 1 0.47958 0.45038 0
447 1 0.453245 0.451319 0
448 1 0.460855 0.475317 0
453 1 0.00993612 0.516305 0
452 1 0.0146206 0.539705 0
454 1 0.0331988 0.525242 0
424 1 0.0290704 0.501431 0
485 1 0.0559274 0.534261 0
455 1 0.05257 0.509615 0
456 1 0.0760969 0.5201 0
486 1 0.0801415 0.54412 0
457 1 0.096068 0.504529 0
487 1 0.0997175 0.530506 0
458 1 0.119256 0.514127 0
488 1 0.123376 0.539791 0
489 1 0.142754 0.523775 0
490 1 0.147641 0.549453 0
460 1 0.16192 0.504945 0
461 1 0.186537 0.507103 0
462 1 0.190763 0.530252 0
491 1 0.166086 0.532498 0
493 1 0.2138 0.536653 0
463 1 0.210884 0.513524 0
464 1 0.233185 0.522371 0
495 1 0.235992 0.547936 0
434 1 0.229692 0.497678 0
466 1 0.255036 0.53283 0
465 1 0.253679 0.508952 0
467 1 0.276365 0.517565 0
497 1 0.278165 0.541389 0
438 1 0.295109 0.503361 0
468 1 0.298494 0.528075 0
469 1 0.317856 0.511952 0
499 1 0.321397 0.536942 0
470 1 0.341493 0.523249 0
501 1 0.34346 0.548077 0
472 1 0.362384 0.509466 0
503 1 0.3642 0.533783 0
474 1 0.384337 0.518825 0
505 1 0.386586 0.543601 0
476 1 0.407419 0.530816 0
507 1 0.427196 0.516591 0
509 1 0.431 0.539763 0
475 1 0.402579 0.504818 0
479 1 0.471496 0.508795 0
480 1 0.452118 0.525785 0
1381 1 0.494433 0.522557 0
1351 1 0.492124 0.497847 0
510 1 0.471554 0.541877 0
483 1 0.0383784 0.549977 0
513 1 0.0181274 0.564059 0
514 1 0.0402963 0.574302 0
512 1 0.021026 0.588469 0
484 1 0.061539 0.559786 0
515 1 0.083819 0.570398 0
545 1 0.063611 0.585805 0
516 1 0.0869676 0.59521 0
517 1 0.104345 0.555281 0
518 1 0.108676 0.581039 0
519 1 0.127366 0.566006 0
549 1 0.1311 0.591681 0
520 1 0.150721 0.575552 0
521 1 0.169968 0.559966 0
492 1 0.193797 0.55387 0
523 1 0.194967 0.576887 0
522 1 0.173176 0.58639 0
494 1 0.215925 0.562505 0
524 1 0.21713 0.586742 0
525 1 0.238755 0.572507 0
555 1 0.241387 0.597023 0
496 1 0.258244 0.558872 0
526 1 0.260949 0.582968 0
527 1 0.281742 0.567341 0
528 1 0.282406 0.592716 0
498 1 0.299757 0.552405 0
529 1 0.303058 0.578243 0
500 1 0.323859 0.561541 0
530 1 0.325852 0.58633 0
531 1 0.345394 0.571984 0
532 1 0.348384 0.59763 0
502 1 0.36632 0.557572 0
504 1 0.38947 0.569508 0
533 1 0.368278 0.582944 0
534 1 0.39252 0.594238 0
506 1 0.40843 0.554647 0
535 1 0.412939 0.57812 0
508 1 0.432096 0.563483 0
537 1 0.437206 0.586928 0
1382 1 0.498805 0.550318 0
539 1 0.457133 0.563842 0
540 1 0.481894 0.567825 0
538 1 0.463817 0.587515 0
569 1 0.487348 0.594519 0
542 1 0.0229951 0.613433 0
571 1 0.00201777 0.630754 0
543 1 0.0432715 0.59947 0
573 1 0.0261044 0.637413 0
544 1 0.0457808 0.623399 0
541 1 -0.000146875 0.603359 0
546 1 0.0675248 0.609951 0
547 1 0.0900901 0.619846 0
575 1 0.0705303 0.63523 0
576 1 0.0930137 0.646412 0
548 1 0.109325 0.605609 0
550 1 0.132155 0.616055 0
577 1 0.112223 0.631544 0
579 1 0.135152 0.640776 0
553 1 0.196291 0.600857 0
551 1 0.15338 0.600857 0
581 1 0.156397 0.626876 0
552 1 0.175122 0.612311 0
582 1 0.176831 0.638423 0
583 1 0.197327 0.625151 0
554 1 0.220029 0.611166 0
556 1 0.242317 0.621648 0
585 1 0.221767 0.636352 0
586 1 0.243892 0.646143 0
557 1 0.262843 0.607707 0
587 1 0.26413 0.631726 0
558 1 0.285815 0.617132 0
589 1 0.287755 0.642057 0
559 1 0.30552 0.60106 0
560 1 0.307864 0.626926 0
561 1 0.327578 0.611573 0
591 1 0.330463 0.637429 0
562 1 0.349748 0.623168 0
563 1 0.370148 0.607508 0
564 1 0.371103 0.63212 0
593 1 0.352385 0.647667 0
595 1 0.392636 0.642358 0
565 1 0.395426 0.618172 0
536 1 0.418044 0.604981 0
566 1 0.42848 0.627651 0
567 1 0.447353 0.608325 0
596 1 0.41637 0.646631 0
597 1 0.453241 0.632043 0
568 1 0.470728 0.614045 0
570 1 0.478677 0.63804 0
1442 1 0.495425 0.617979 0
572 1 0.00474056 0.6549 0
603 1 0.0277494 0.662988 0
602 1 0.00596096 0.67894 0
633 1 0.0313354 0.688085 0
574 1 0.0503247 0.648678 0
605 1 0.0725453 0.659604 0
604 1 0.0512375 0.673171 0
606 1 0.0742956 0.68523 0
607 1 0.0945531 0.67082 0
637 1 0.095745 0.696151 0
578 1 0.115114 0.656311 0
609 1 0.13746 0.667231 0
608 1 0.116824 0.680947 0
639 1 0.139499 0.692044 0
580 1 0.158295 0.652629 0
611 1 0.180634 0.66326 0
610 1 0.160057 0.677335 0
612 1 0.182192 0.687573 0
584 1 0.199827 0.648623 0
613 1 0.202622 0.674098 0
615 1 0.222183 0.660623 0
614 1 0.226035 0.685411 0
617 1 0.246209 0.670788 0
616 1 0.248672 0.695871 0
643 1 0.203549 0.700556 0
588 1 0.267576 0.65595 0
619 1 0.290951 0.666278 0
618 1 0.270066 0.680939 0
590 1 0.311425 0.652118 0
621 1 0.312088 0.677175 0
592 1 0.332679 0.664064 0
622 1 0.338808 0.687672 0
623 1 0.356367 0.672435 0
594 1 0.374183 0.657284 0
624 1 0.379063 0.682623 0
625 1 0.397407 0.665767 0
598 1 0.439018 0.651616 0
627 1 0.42125 0.671931 0
626 1 0.402211 0.690193 0
628 1 0.4445 0.677451 0
657 1 0.427081 0.69571 0
599 1 0.462739 0.656448 0
600 1 0.486007 0.663474 0
629 1 0.46822 0.680967 0
630 1 0.492666 0.687188 0
632 1 0.0110354 0.70212 0
634 1 0.0330735 0.712408 0
663 1 0.0128885 0.727635 0
664 1 0.0359915 0.739145 0
635 1 0.0532327 0.69933 0
636 1 0.0760409 0.70972 0
665 1 0.054964 0.723523 0
666 1 0.0786794 0.734457 0
695 1 0.058292 0.747817 0
667 1 0.0987425 0.721209 0
638 1 0.118065 0.705677 0
640 1 0.140691 0.718426 0
669 1 0.120817 0.731655 0
668 1 0.101889 0.745777 0
670 1 0.14361 0.742757 0
641 1 0.162208 0.701972 0
642 1 0.184401 0.715697 0
671 1 0.163006 0.728839 0
673 1 0.187115 0.740734 0
645 1 0.227611 0.70964 0
644 1 0.209061 0.724672 0
675 1 0.23111 0.73558 0
646 1 0.250542 0.721117 0
647 1 0.271645 0.70743 0
677 1 0.2544 0.746439 0
648 1 0.273006 0.730507 0
649 1 0.294619 0.71591 0
679 1 0.297739 0.740206 0
620 1 0.317065 0.701247 0
651 1 0.339112 0.711941 0
650 1 0.318609 0.726584 0
652 1 0.340147 0.736793 0
653 1 0.360149 0.698052 0
655 1 0.383889 0.708518 0
654 1 0.363149 0.724287 0
685 1 0.391159 0.733429 0
683 1 0.37161 0.748502 0
656 1 0.40961 0.716317 0
687 1 0.43425 0.72183 0
686 1 0.416512 0.740902 0
717 1 0.443211 0.744618 0
658 1 0.450811 0.700886 0
659 1 0.475991 0.705915 0
689 1 0.458814 0.725783 0
660 1 0.483816 0.7296 0
688 1 0.467693 0.748613 0
662 1 0.0158581 0.752225 0
694 1 0.0384963 0.762385 0
693 1 0.0184224 0.776182 0
725 1 0.040798 0.786711 0
697 1 0.0809227 0.759643 0
696 1 0.0604206 0.772228 0
727 1 0.0826266 0.784385 0
726 1 0.0621056 0.798141 0
699 1 0.123961 0.756709 0
698 1 0.103316 0.771089 0
700 1 0.125718 0.781938 0
728 1 0.105762 0.795552 0
701 1 0.14608 0.766887 0
731 1 0.148576 0.794956 0
672 1 0.166942 0.754051 0
703 1 0.189512 0.765306 0
702 1 0.168395 0.780172 0
704 1 0.191906 0.790951 0
674 1 0.210953 0.750805 0
676 1 0.233769 0.761749 0
705 1 0.212014 0.775831 0
706 1 0.236621 0.785636 0
735 1 0.215397 0.801555 0
707 1 0.257907 0.770138 0
678 1 0.27779 0.755599 0
737 1 0.258645 0.79621 0
709 1 0.278841 0.780227 0
680 1 0.300627 0.765657 0
710 1 0.302068 0.79057 0
681 1 0.319273 0.750584 0
682 1 0.342877 0.760385 0
711 1 0.32308 0.777051 0
712 1 0.345172 0.787635 0
713 1 0.364459 0.771348 0
714 1 0.386759 0.778611 0
743 1 0.36898 0.796233 0
684 1 0.399406 0.757488 0
715 1 0.427297 0.763613 0
716 1 0.41115 0.782391 0
747 1 0.434909 0.786927 0
718 1 0.450872 0.76854 0
690 1 0.491662 0.754568 0
719 1 0.475206 0.773444 0
720 1 0.484241 0.797912 0
749 1 0.459073 0.792091 0
723 1 0.0203445 0.800004 0
722 1 0.0197471 0.832741 0
724 1 0.0422291 0.810605 0
754 1 0.0436645 0.833457 0
757 1 0.0863328 0.810192 0
755 1 0.0655828 0.823643 0
756 1 0.0861724 0.836994 0
785 1 0.0623853 0.848057 0
729 1 0.128297 0.807107 0
759 1 0.107807 0.822284 0
760 1 0.13039 0.832076 0
758 1 0.109415 0.847847 0
732 1 0.17087 0.805646 0
730 1 0.151822 0.821505 0
761 1 0.155243 0.845681 0
763 1 0.175976 0.830209 0
733 1 0.195401 0.815899 0
764 1 0.197422 0.841717 0
736 1 0.238411 0.810216 0
734 1 0.217641 0.826689 0
767 1 0.242278 0.836664 0
708 1 0.281938 0.80462 0
738 1 0.261561 0.820476 0
768 1 0.264665 0.846406 0
769 1 0.2836 0.831842 0
741 1 0.325709 0.802989 0
739 1 0.30523 0.815833 0
740 1 0.309088 0.838873 0
771 1 0.331273 0.828794 0
745 1 0.394188 0.801819 0
742 1 0.350991 0.812258 0
773 1 0.359564 0.83471 0
744 1 0.377287 0.819295 0
774 1 0.382379 0.843437 0
775 1 0.400876 0.82497 0
746 1 0.419308 0.806065 0
748 1 0.44305 0.810157 0
777 1 0.425712 0.830052 0
779 1 0.449487 0.834275 0
750 1 0.466847 0.816731 0
1621 1 0.492821 0.820391 0
780 1 0.475826 0.840131 0
1651 1 0.498598 0.844918 0
753 1 0.0377286 0.856684 0
752 1 0.0129602 0.862948 0
783 1 0.0336999 0.879544 0
782 1 0.00842524 0.888026 0
815 1 0.051636 0.898126 0
784 1 0.0570387 0.873825 0
786 1 0.0753416 0.890497 0
787 1 0.0802734 0.863964 0
817 1 0.0988884 0.883341 0
789 1 0.134476 0.85675 0
788 1 0.124463 0.877369 0
790 1 0.145699 0.895175 0
762 1 0.176369 0.857495 0
791 1 0.155805 0.870479 0
793 1 0.17769 0.881513 0
765 1 0.220718 0.850835 0
795 1 0.199704 0.866945 0
796 1 0.223535 0.874877 0
825 1 0.238979 0.894801 0
766 1 0.244227 0.860791 0
797 1 0.271388 0.869645 0
827 1 0.264289 0.891538 0
799 1 0.291662 0.85633 0
798 1 0.290157 0.885438 0
772 1 0.343583 0.851562 0
770 1 0.321043 0.859175 0
800 1 0.315148 0.88176 0
801 1 0.339769 0.875715 0
802 1 0.355089 0.895031 0
803 1 0.366295 0.865495 0
804 1 0.379922 0.888934 0
805 1 0.39214 0.866152 0
776 1 0.409312 0.84825 0
778 1 0.431956 0.855505 0
807 1 0.417099 0.874735 0
808 1 0.440409 0.879113 0
837 1 0.42499 0.898567 0
809 1 0.456645 0.858906 0
1681 1 0.482448 0.864744 0
1711 1 0.490719 0.889168 0
810 1 0.464944 0.885578 0
813 1 0.0274031 0.903492 0
843 1 0.0203328 0.927519 0
814 1 0.0451784 0.921203 0
844 1 0.0370797 0.944998 0
812 1 0.00243212 0.91103 0
816 1 0.09407 0.90727 0
845 1 0.0696138 0.915165 0
846 1 0.0619938 0.939247 0
847 1 0.0881935 0.931371 0
819 1 0.116649 0.900557 0
818 1 0.112029 0.925286 0
820 1 0.129111 0.943174 0
821 1 0.135423 0.919314 0
849 1 0.105086 0.948929 0
792 1 0.160956 0.913618 0
851 1 0.154923 0.935979 0
823 1 0.187917 0.905881 0
822 1 0.179475 0.931019 0
854 1 0.198446 0.948194 0
794 1 0.211837 0.898767 0
824 1 0.205683 0.923917 0
885 1 0.222733 0.942256 0
855 1 0.230164 0.918789 0
856 1 0.246323 0.938818 0
826 1 0.255313 0.914367 0
857 1 0.272289 0.93256 0
828 1 0.282157 0.908958 0
859 1 0.297635 0.928974 0
831 1 0.33158 0.900193 0
829 1 0.306874 0.906146 0
830 1 0.324281 0.924644 0
832 1 0.347525 0.918507 0
861 1 0.339867 0.943051 0
860 1 0.314959 0.94701 0
806 1 0.399356 0.904278 0
863 1 0.364497 0.936905 0
833 1 0.371439 0.91352 0
834 1 0.389601 0.929895 0
865 1 0.40425 0.949418 0
835 1 0.414265 0.925304 0
836 1 0.431052 0.94348 0
838 1 0.453215 0.927131 0
839 1 0.474163 0.910049 0
840 1 0.483222 0.932796 0
1712 1 0.499075 0.913091 0
842 1 0.013634 0.952447 0
872 1 0.0228389 0.993349 0
873 1 0.0319483 0.968977 0
871 1 0.00652072 0.975849 0
874 1 0.0481013 0.987214 0
875 1 0.0553656 0.963341 0
876 1 0.073741 0.980472 0
848 1 0.0800071 0.956695 0
877 1 0.0985573 0.97333 0
7 1 0.0893637 0.998333 0
878 1 0.11504 0.991977 0
879 1 0.12347 0.967523 0
881 1 0.140475 0.985952 0
850 1 0.147019 0.960289 0
882 1 0.181996 0.995742 0
853 1 0.171982 0.954388 0
852 1 0.163855 0.979384 0
883 1 0.188516 0.972052 0
13 1 0.207188 0.989941 0
15 1 0.232175 0.986961 0
884 1 0.215348 0.966814 0
886 1 0.239791 0.963359 0
858 1 0.290224 0.952608 0
887 1 0.266668 0.957273 0
17 1 0.256564 0.981579 0
888 1 0.281333 0.977348 0
19 1 0.299348 0.99546 0
889 1 0.307549 0.97185 0
890 1 0.322983 0.991147 0
892 1 0.348313 0.985923 0
891 1 0.331795 0.96759 0
862 1 0.35612 0.962281 0
864 1 0.380635 0.955084 0
893 1 0.372595 0.979083 0
895 1 0.396966 0.973862 0
894 1 0.390101 0.99743 0
866 1 0.42104 0.966691 0
896 1 0.414031 0.990523 0
867 1 0.445917 0.965297 0
897 1 0.449726 0.993043 0
870 1 0.489422 0.95622 0
1771 1 0.493302 0.980866 0
868 1 0.469648 0.97265 0
869 1 0.464512 0.94832 0
902 1 0.542168 0.0249858 0
901 1 0.519033 0.0172246 0
931 1 0.524691 0.0421269 0
933 1 0.549807 0.0482482 0
903 1 0.535881 0.000908785 0
30 1 0.500301 0.035292 0
904 1 0.566877 0.0306589 0
906 1 0.583635 0.0135238 0
935 1 0.591633 0.0369743 0
905 1 0.559311 0.00840131 0
908 1 0.607856 0.0185725 0
937 1 0.614804 0.0434176 0
939 1 0.632563 0.0249188 0
938 1 0.639316 0.0483162 0
910 1 0.6477 0.00632303 0
909 1 0.624145 0.000590926 0
941 1 0.656062 0.0302399 0
912 1 0.672422 0.0111656 0
942 1 0.679907 0.0348634 0
943 1 0.696128 0.0157217 0
973 1 0.704842 0.0410784 0
944 1 0.720295 0.0227141 0
945 1 0.737117 0.00431794 0
946 1 0.747548 0.0279489 0
975 1 0.730468 0.0455313 0
947 1 0.761297 0.00874003 0
948 1 0.772451 0.0328262 0
918 1 0.788915 0.0128072 0
921 1 0.819634 0.00773253 0
949 1 0.807708 0.0285696 0
951 1 0.83862 0.0233255 0
950 1 0.826725 0.0458741 0
952 1 0.853447 0.0409845 0
953 1 0.861786 0.015333 0
924 1 0.885968 0.00879631 0
954 1 0.879033 0.034238 0
955 1 0.903254 0.0267329 0
925 1 0.910393 0.00279952 0
926 1 0.926491 0.0206746 0
957 1 0.944778 0.0372655 0
956 1 0.921378 0.0447558 0
928 1 0.950699 0.0136832 0
959 1 0.968848 0.0307789 0
930 1 0.992148 0.025111 0
929 1 0.975071 0.00531222 0
960 1 0.985935 0.0490542 0
1 1 0.998954 0.00114795 0
932 1 0.532244 0.0642968 0
962 1 0.538025 0.0890447 0
961 1 0.514546 0.0831203 0
60 1 0.508157 0.0606783 0
934 1 0.57412 0.0547923 0
963 1 0.555986 0.072351 0
965 1 0.58125 0.0784942 0
964 1 0.562575 0.0965107 0
936 1 0.597713 0.060878 0
966 1 0.605818 0.0852746 0
967 1 0.622726 0.0681698 0
968 1 0.629433 0.0921525 0
969 1 0.646492 0.0734477 0
999 1 0.6536 0.0971492 0
940 1 0.663041 0.0543648 0
970 1 0.670955 0.0775694 0
971 1 0.687891 0.0599006 0
972 1 0.696333 0.083154 0
1003 1 0.712544 0.0657255 0
1004 1 0.72128 0.0895674 0
974 1 0.737425 0.0713037 0
1005 1 0.744626 0.0945361 0
976 1 0.754104 0.0521975 0
1007 1 0.762324 0.0763308 0
977 1 0.779236 0.0579996 0
978 1 0.797601 0.0762068 0
979 1 0.802266 0.0516829 0
980 1 0.821084 0.0691785 0
981 1 0.846164 0.0644709 0
1009 1 0.81525 0.0943515 0
1011 1 0.839735 0.0878592 0
985 1 0.896654 0.0510124 0
982 1 0.864483 0.0818089 0
983 1 0.871095 0.0572531 0
984 1 0.889862 0.0739825 0
1015 1 0.905593 0.0924143 0
986 1 0.914109 0.068554 0
987 1 0.937214 0.0621947 0
1017 1 0.930107 0.0862735 0
988 1 0.955275 0.0779161 0
958 1 0.962636 0.0539646 0
989 1 0.978892 0.0721627 0
990 1 0.994416 0.0911185 0
1019 1 0.970719 0.0971528 0
991 1 0.518608 0.107066 0
992 1 0.525918 0.129941 0
993 1 0.545417 0.113293 0
1021 1 0.510064 0.148371 0
120 1 0.5015 0.124377 0
995 1 0.588324 0.102663 0
1023 1 0.55082 0.136199 0
994 1 0.570882 0.120011 0
996 1 0.595615 0.125999 0
1025 1 0.578378 0.145214 0
997 1 0.611793 0.10915 0
998 1 0.636167 0.116108 0
1027 1 0.618517 0.132837 0
1029 1 0.64443 0.138533 0
1026 1 0.602354 0.15033 0
1001 1 0.67787 0.101041 0
1000 1 0.66159 0.12069 0
1031 1 0.686601 0.125204 0
1030 1 0.669804 0.144427 0
1032 1 0.694354 0.150264 0
1002 1 0.702727 0.107041 0
1033 1 0.710916 0.131077 0
1035 1 0.729792 0.114278 0
1034 1 0.737111 0.139481 0
1006 1 0.767703 0.100114 0
1008 1 0.791532 0.10072 0
1036 1 0.758638 0.124289 0
1037 1 0.783319 0.122863 0
1067 1 0.775851 0.146268 0
1038 1 0.800783 0.141335 0
1039 1 0.808258 0.118051 0
1010 1 0.833295 0.111472 0
1041 1 0.850996 0.130761 0
1040 1 0.825469 0.135464 0
1013 1 0.882728 0.0986435 0
1012 1 0.857843 0.106682 0
1043 1 0.875256 0.125354 0
1014 1 0.898925 0.118035 0
1044 1 0.892169 0.142151 0
1042 1 0.86738 0.148097 0
1045 1 0.916041 0.136336 0
1016 1 0.92305 0.11042 0
1047 1 0.939284 0.128407 0
1018 1 0.946417 0.105614 0
1049 1 0.963777 0.12344 0
1020 1 0.986961 0.114419 0
1050 1 0.980636 0.140587 0
1046 1 0.956968 0.146702 0
1022 1 0.534258 0.154845 0
1053 1 0.541204 0.177902 0
1051 1 0.51646 0.172265 0
1052 1 0.522492 0.196267 0
1024 1 0.559654 0.159646 0
1055 1 0.585115 0.168093 0
1054 1 0.564177 0.18433 0
1056 1 0.589573 0.190778 0
1028 1 0.626731 0.155511 0
1057 1 0.608236 0.174532 0
1058 1 0.632574 0.179409 0
1087 1 0.615603 0.197604 0
1059 1 0.650643 0.162498 0
1060 1 0.657358 0.184789 0
1061 1 0.677187 0.168671 0
1091 1 0.682709 0.192804 0
1062 1 0.700556 0.17595 0
1063 1 0.718863 0.155882 0
1064 1 0.724438 0.180683 0
1065 1 0.745749 0.162345 0
1095 1 0.749152 0.188125 0
1093 1 0.706136 0.199324 0
1066 1 0.769417 0.172204 0
1068 1 0.793257 0.167257 0
1097 1 0.785889 0.191756 0
1069 1 0.816808 0.158194 0
1071 1 0.842768 0.153998 0
1070 1 0.835447 0.178924 0
1099 1 0.811882 0.183392 0
1101 1 0.852972 0.195929 0
1072 1 0.859648 0.171843 0
1073 1 0.884904 0.166947 0
1103 1 0.877271 0.190017 0
1074 1 0.901626 0.185686 0
1075 1 0.908833 0.16073 0
1077 1 0.933464 0.153162 0
1076 1 0.925288 0.178377 0
1107 1 0.941865 0.195735 0
1078 1 0.950269 0.172704 0
1048 1 0.973571 0.165738 0
151 1 0.997439 0.157981 0
1079 1 0.990669 0.182411 0
1109 1 0.967469 0.190589 0
1083 1 0.547368 0.20311 0
1081 1 0.50486 0.213538 0
1082 1 0.528976 0.220041 0
1111 1 0.512305 0.237803 0
1113 1 0.536148 0.243963 0
1084 1 0.553501 0.226155 0
1085 1 0.572175 0.208346 0
1086 1 0.596255 0.21379 0
1115 1 0.576559 0.233896 0
1114 1 0.56025 0.251101 0
1089 1 0.638682 0.203928 0
1117 1 0.601766 0.239186 0
1088 1 0.622075 0.221638 0
1119 1 0.645534 0.227251 0
1118 1 0.626674 0.245239 0
1090 1 0.663035 0.20803 0
1092 1 0.688036 0.21619 0
1121 1 0.66887 0.234678 0
1122 1 0.693861 0.240444 0
1094 1 0.728906 0.205587 0
1123 1 0.711888 0.222721 0
1124 1 0.71873 0.247664 0
1125 1 0.735974 0.228868 0
1096 1 0.753663 0.211533 0
1127 1 0.777895 0.21584 0
1126 1 0.762356 0.236044 0
1128 1 0.79721 0.232426 0
1100 1 0.828131 0.202112 0
1098 1 0.803721 0.209112 0
1131 1 0.846165 0.219377 0
1129 1 0.822238 0.226503 0
1130 1 0.839863 0.244369 0
1159 1 0.815057 0.24995 0
1102 1 0.870479 0.21551 0
1104 1 0.894725 0.209153 0
1132 1 0.863779 0.238983 0
1133 1 0.888518 0.233034 0
1105 1 0.918505 0.204031 0
1135 1 0.911669 0.227288 0
1106 1 0.937266 0.221691 0
1136 1 0.928616 0.245908 0
1137 1 0.953582 0.239735 0
1108 1 0.959881 0.214573 0
1110 1 0.983661 0.208453 0
1139 1 0.978058 0.233378 0
1140 1 0.996629 0.252319 0
1112 1 0.518096 0.260948 0
1143 1 0.541816 0.267658 0
1142 1 0.523474 0.285849 0
1144 1 0.547592 0.291649 0
1116 1 0.584022 0.257107 0
1145 1 0.565643 0.275557 0
1146 1 0.590355 0.280608 0
1175 1 0.571717 0.299142 0
1147 1 0.607565 0.263659 0
1149 1 0.633901 0.270974 0
1148 1 0.615105 0.288915 0
1179 1 0.639303 0.294322 0
1120 1 0.650308 0.252291 0
1151 1 0.677821 0.258807 0
1150 1 0.659319 0.275913 0
1181 1 0.664989 0.300204 0
1152 1 0.68434 0.283393 0
1153 1 0.700234 0.265599 0