ITEM: TIMESTEP
160000
ITEM: NUMBER OF ATOMS
1800
ITEM: BOX BOUNDS pp pp pp
3.1841081907871995e+00 1.5521589180921103e+02
3.1841081907871995e+00 1.5521589180921103e+02
0.0000000000000000e+00 5.2800000000000002e+00
ITEM: ATOMS id type xs ys zs
2 1 0.0180529 0.0181048 0
3 1 0.0413793 0.0128652 0
33 1 0.0349963 0.0364997 0
31 1 0.0103247 0.0418231 0
4 1 0.0595847 0.030488 0
6 1 0.0828862 0.0249421 0
5 1 0.0663601 0.00681361 0
35 1 0.0759417 0.0483278 0
7 1 0.0916093 0.000507766 0
37 1 0.10036 0.0417932 0
8 1 0.109616 0.0185284 0
9 1 0.126368 0.0351545 0
880 1 0.134299 0.0115392 0
10 1 0.150448 0.0294046 0
11 1 0.158703 0.00578641 0
12 1 0.175434 0.0231089 0
43 1 0.192099 0.0422821 0
41 1 0.167416 0.0475291 0
882 1 0.18301 -0.000552764 0
14 1 0.20082 0.0187106 0
44 1 0.216767 0.0378709 0
45 1 0.224709 0.0140571 0
46 1 0.241775 0.0316945 0
16 1 0.248628 0.00856374 0
47 1 0.265968 0.025647 0
49 1 0.290952 0.0200447 0
48 1 0.283091 0.0456543 0
18 1 0.273438 0.000928037 0
50 1 0.30819 0.0390573 0
20 1 0.315356 0.0147986 0
51 1 0.33251 0.0332864 0
21 1 0.340713 0.0091607 0
22 1 0.358436 0.0278855 0
24 1 0.382525 0.0224336 0
53 1 0.373263 0.0469298 0
23 1 0.366279 0.00322314 0
55 1 0.397608 0.0410377 0
25 1 0.406456 0.017488 0
26 1 0.422666 0.0363443 0
27 1 0.434553 0.0136766 0
28 1 0.447033 0.0370138 0
30 1 0.494013 0.0403354 0
898 1 0.45893 0.0163996 0
29 1 0.483986 0.0181014 0
59 1 0.470423 0.0412667 0
32 1 0.0268834 0.0602159 0
62 1 0.0192374 0.0842788 0
63 1 0.0438801 0.0778666 0
61 1 0.000961357 0.0657627 0
34 1 0.0520981 0.0549539 0
65 1 0.0693394 0.0713661 0
66 1 0.0852766 0.0909647 0
36 1 0.0932512 0.066212 0
64 1 0.0591758 0.0970451 0
39 1 0.142811 0.0535989 0
38 1 0.117745 0.0605734 0
67 1 0.108844 0.0853122 0
69 1 0.134895 0.0768553 0
70 1 0.150971 0.0952255 0
40 1 0.159612 0.0713184 0
71 1 0.176754 0.0895235 0
42 1 0.185352 0.0652011 0
72 1 0.202394 0.084213 0
73 1 0.209323 0.0612135 0
74 1 0.225662 0.078525 0
75 1 0.233284 0.0551258 0
106 1 0.242346 0.0967064 0
76 1 0.250155 0.0737745 0
77 1 0.258339 0.0505103 0
78 1 0.275381 0.0695416 0
109 1 0.292477 0.0866164 0
107 1 0.266868 0.0925572 0
79 1 0.301246 0.0637228 0
80 1 0.317777 0.0829064 0
81 1 0.325377 0.0579399 0
82 1 0.342212 0.0780071 0
52 1 0.349003 0.0519735 0
83 1 0.365555 0.070131 0
113 1 0.378571 0.0905809 0
54 1 0.390474 0.0680066 0
56 1 0.413616 0.0586747 0
57 1 0.43969 0.0610009 0
85 1 0.42015 0.0823519 0
84 1 0.402045 0.0990778 0
87 1 0.444568 0.0867196 0
88 1 0.467114 0.0956448 0
58 1 0.462345 0.0671772 0
89 1 0.48424 0.0783511 0
93 1 0.0350616 0.103762 0
92 1 0.0273577 0.126206 0
91 1 0.0109872 0.108242 0
121 1 0.0017808 0.131861 0
123 1 0.0447133 0.144837 0
94 1 0.0522443 0.120584 0
95 1 0.076882 0.115369 0
125 1 0.0697308 0.138552 0
96 1 0.0952901 0.133385 0
68 1 0.125435 0.102293 0
97 1 0.101595 0.108888 0
98 1 0.119182 0.125907 0
99 1 0.145742 0.119444 0
129 1 0.136658 0.143561 0
100 1 0.169077 0.113218 0
130 1 0.161117 0.137422 0
131 1 0.185711 0.131517 0
101 1 0.192941 0.107954 0
103 1 0.218103 0.102282 0
102 1 0.21023 0.125367 0
105 1 0.235161 0.120248 0
104 1 0.227043 0.143145 0
133 1 0.203025 0.148645 0
135 1 0.258901 0.11723 0
137 1 0.275598 0.133793 0
108 1 0.284321 0.110204 0
136 1 0.252496 0.141989 0
111 1 0.334377 0.102049 0
139 1 0.301349 0.131761 0
110 1 0.309612 0.106267 0
141 1 0.343253 0.12446 0
140 1 0.325107 0.141848 0
112 1 0.359001 0.105975 0
114 1 0.383762 0.115867 0
143 1 0.36876 0.134624 0
144 1 0.392286 0.142408 0
86 1 0.426322 0.105983 0
115 1 0.408748 0.123779 0
116 1 0.432898 0.131089 0
145 1 0.41677 0.148929 0
117 1 0.449252 0.113219 0
90 1 0.491081 0.102327 0
118 1 0.457405 0.136349 0
119 1 0.474054 0.119589 0
149 1 0.481594 0.145099 0
120 1 0.499622 0.125075 0
122 1 0.0198583 0.150462 0
153 1 0.036112 0.169176 0
152 1 0.0121021 0.175466 0
183 1 0.0299541 0.193553 0
1080 1 0.00520209 0.199053 0
124 1 0.0618574 0.16264 0
126 1 0.0872015 0.156324 0
155 1 0.0802138 0.179721 0
154 1 0.0550403 0.186955 0
156 1 0.0975103 0.196723 0
127 1 0.111829 0.149271 0
128 1 0.129618 0.167145 0
157 1 0.104939 0.173254 0
160 1 0.14735 0.185033 0
158 1 0.121981 0.190079 0
132 1 0.178016 0.154377 0
159 1 0.155465 0.161772 0
161 1 0.170806 0.179131 0
162 1 0.18778 0.195321 0
163 1 0.195943 0.172565 0
134 1 0.219009 0.166497 0
164 1 0.230845 0.186598 0
165 1 0.244499 0.165773 0
166 1 0.253214 0.192145 0
167 1 0.268456 0.172743 0
138 1 0.286994 0.154505 0
168 1 0.293115 0.179044 0
197 1 0.277762 0.198391 0
142 1 0.350045 0.150935 0
169 1 0.310246 0.161456 0
171 1 0.334175 0.170025 0
170 1 0.316632 0.186484 0
201 1 0.340685 0.19391 0
172 1 0.356893 0.176283 0
173 1 0.373771 0.158323 0
174 1 0.380688 0.18204 0
175 1 0.397901 0.165481 0
147 1 0.439976 0.154736 0
146 1 0.422637 0.172144 0
205 1 0.404135 0.189329 0
176 1 0.427476 0.196622 0
177 1 0.445266 0.179214 0
148 1 0.463076 0.16123 0
150 1 0.486969 0.167932 0
179 1 0.469637 0.184942 0
180 1 0.495385 0.191599 0
182 1 0.0205182 0.217265 0
213 1 0.0392227 0.233714 0
211 1 0.0131706 0.240868 0
184 1 0.0466386 0.210646 0
185 1 0.0726807 0.203028 0
186 1 0.0888241 0.221398 0
215 1 0.0651286 0.228666 0
216 1 0.0847733 0.24786 0
187 1 0.113873 0.214616 0
188 1 0.133828 0.243485 0
189 1 0.138699 0.207467 0
217 1 0.107349 0.238428 0
191 1 0.163951 0.204229 0
190 1 0.152088 0.226926 0
192 1 0.192979 0.219574 0
221 1 0.174611 0.234194 0
223 1 0.19889 0.242779 0
193 1 0.211445 0.202398 0
194 1 0.216889 0.226514 0
195 1 0.235614 0.20955 0
225 1 0.240678 0.232905 0
196 1 0.259618 0.216083 0
198 1 0.283388 0.223287 0
227 1 0.264837 0.240747 0
228 1 0.289216 0.247298 0
199 1 0.300047 0.204405 0
200 1 0.324238 0.211295 0
229 1 0.306747 0.228762 0
231 1 0.331582 0.237095 0
202 1 0.347446 0.217918 0
203 1 0.363802 0.200541 0
204 1 0.387022 0.20656 0
233 1 0.371388 0.224561 0
235 1 0.395019 0.229809 0
232 1 0.354713 0.243211 0
234 1 0.378071 0.249302 0
207 1 0.436882 0.221741 0
206 1 0.418166 0.237308 0
237 1 0.441959 0.246123 0
178 1 0.452497 0.203644 0
208 1 0.460728 0.228789 0
209 1 0.476608 0.209364 0
210 1 0.484746 0.232998 0
212 1 0.00648579 0.264436 0
243 1 0.0317374 0.25851 0
242 1 0.022486 0.282513 0
244 1 0.0492039 0.276852 0
273 1 0.0383906 0.300175 0
214 1 0.0552476 0.252617 0
245 1 0.0727893 0.26993 0
247 1 0.0779311 0.292877 0
218 1 0.096936 0.276403 0
219 1 0.115471 0.26079 0
249 1 0.139001 0.267642 0
248 1 0.120188 0.284363 0
250 1 0.143707 0.291945 0
220 1 0.15712 0.250739 0
222 1 0.180364 0.259584 0
251 1 0.162571 0.276104 0
252 1 0.185828 0.283457 0
224 1 0.222831 0.249963 0
253 1 0.203901 0.267748 0
255 1 0.227359 0.274634 0
254 1 0.211135 0.291836 0
226 1 0.246428 0.257005 0
285 1 0.235375 0.29925 0
256 1 0.252966 0.281068 0
257 1 0.271122 0.264432 0
259 1 0.295573 0.272561 0
258 1 0.276839 0.290176 0
289 1 0.301766 0.296897 0
230 1 0.313147 0.253866 0
260 1 0.318876 0.278798 0
261 1 0.33702 0.26176 0
262 1 0.342062 0.286043 0
263 1 0.36119 0.268185 0
264 1 0.385397 0.272874 0
293 1 0.366254 0.291207 0
295 1 0.389516 0.29705 0
265 1 0.401499 0.254441 0
236 1 0.424225 0.262337 0
266 1 0.407665 0.280488 0
267 1 0.43213 0.285716 0
238 1 0.449954 0.26941 0
239 1 0.466889 0.251958 0
1141 1 0.498563 0.279294 0
240 1 0.492085 0.256094 0
269 1 0.474633 0.275401 0
268 1 0.456823 0.293287 0
270 1 0.481078 0.298638 0
271 1 0.0165663 0.312827 0
272 1 0.0413651 0.32424 0
301 1 0.0213448 0.338067 0
303 1 0.0437247 0.348319 0
275 1 0.0604242 0.310003 0
276 1 0.0832173 0.317964 0
274 1 0.0645201 0.334331 0
305 1 0.0883476 0.34199 0
246 1 0.102627 0.3001 0
279 1 0.125888 0.308609 0
277 1 0.10634 0.324075 0
278 1 0.130541 0.332715 0
280 1 0.149063 0.317354 0
307 1 0.112071 0.349139 0
281 1 0.167783 0.29999 0
311 1 0.154451 0.34125 0
283 1 0.192488 0.307635 0
282 1 0.173821 0.324101 0
313 1 0.197428 0.332674 0
312 1 0.178845 0.348961 0
284 1 0.215752 0.315695 0
315 1 0.22265 0.340166 0
286 1 0.240335 0.323186 0
316 1 0.246332 0.347372 0
287 1 0.259265 0.30668 0
288 1 0.283426 0.313298 0
317 1 0.263924 0.331133 0
319 1 0.288561 0.337463 0
291 1 0.324918 0.303925 0
290 1 0.30717 0.321284 0
321 1 0.312616 0.344725 0
292 1 0.332457 0.326819 0
323 1 0.349798 0.309375 0
294 1 0.372517 0.315122 0
324 1 0.355966 0.333362 0
325 1 0.379104 0.340173 0
296 1 0.395942 0.321404 0
326 1 0.402884 0.346326 0
297 1 0.414727 0.303994 0
298 1 0.438765 0.310207 0
327 1 0.419286 0.327848 0
328 1 0.443659 0.333975 0
299 1 0.462344 0.316595 0
300 1 0.487675 0.321527 0
329 1 0.468971 0.339358 0
1201 1 0.49241 0.346869 0
331 1 0.00521647 0.377553 0
302 1 0.0249429 0.362401 0
332 1 0.0309044 0.387264 0
1230 1 0.00127776 0.351948 0
333 1 0.0495243 0.372441 0
334 1 0.0546926 0.396809 0
304 1 0.0693168 0.357092 0
306 1 0.0934376 0.365712 0
335 1 0.0738396 0.381442 0
337 1 0.0971141 0.389243 0
309 1 0.13533 0.357395 0
308 1 0.116187 0.373139 0
339 1 0.139938 0.382526 0
338 1 0.120313 0.397304 0
310 1 0.159512 0.364964 0
341 1 0.164813 0.38862 0
343 1 0.184493 0.372782 0
342 1 0.189916 0.395811 0
314 1 0.202663 0.355471 0
345 1 0.228339 0.363452 0
344 1 0.209161 0.379099 0
375 1 0.233427 0.387356 0
346 1 0.25315 0.371631 0
377 1 0.259528 0.394624 0
318 1 0.270238 0.354378 0
349 1 0.295468 0.361487 0
347 1 0.277978 0.378913 0
350 1 0.301184 0.387168 0
322 1 0.336956 0.352129 0
320 1 0.318536 0.370487 0
351 1 0.342361 0.376248 0
381 1 0.325567 0.393953 0
353 1 0.360346 0.357891 0
355 1 0.385128 0.364008 0
354 1 0.367109 0.381571 0
385 1 0.391287 0.388361 0
357 1 0.426233 0.352127 0
356 1 0.409228 0.370764 0
387 1 0.434348 0.376393 0
386 1 0.415733 0.394974 0
359 1 0.451069 0.359069 0
358 1 0.458164 0.383091 0
330 1 0.474663 0.364355 0
360 1 0.481567 0.388563 0
1231 1 0.49929 0.370167 0
361 1 0.00999652 0.401816 0
363 1 0.034416 0.411805 0
362 1 0.0145419 0.426059 0
364 1 0.0399057 0.435051 0
336 1 0.0804045 0.406863 0
365 1 0.0594887 0.420266 0
395 1 0.0630219 0.4444 0
367 1 0.103032 0.41487 0
366 1 0.107888 0.439028 0
369 1 0.12768 0.422961 0
340 1 0.145576 0.407169 0
368 1 0.133391 0.447071 0
370 1 0.153318 0.430825 0
371 1 0.17104 0.412395 0
401 1 0.177313 0.436159 0
372 1 0.195168 0.418635 0
403 1 0.200863 0.442416 0
373 1 0.214945 0.402736 0
374 1 0.219976 0.427343 0
376 1 0.239928 0.412757 0
405 1 0.245323 0.436123 0
348 1 0.283383 0.404449 0
407 1 0.26921 0.444334 0
378 1 0.264092 0.419813 0
409 1 0.289255 0.428611 0
352 1 0.348555 0.401968 0
379 1 0.307498 0.411067 0
380 1 0.313551 0.435397 0
382 1 0.330895 0.418149 0
411 1 0.336697 0.443501 0
413 1 0.354711 0.425875 0
383 1 0.372684 0.40568 0
414 1 0.377587 0.431342 0
384 1 0.397139 0.411556 0
388 1 0.439274 0.400936 0
415 1 0.401329 0.437291 0
417 1 0.420768 0.418325 0
416 1 0.426551 0.441548 0
419 1 0.445331 0.424581 0
389 1 0.463479 0.406195 0
418 1 0.470069 0.429836 0
390 1 0.48966 0.413188 0
420 1 0.495508 0.436806 0
447 1 0.452395 0.448648 0
393 1 0.0206051 0.450157 0
422 1 0.00709833 0.491382 0
423 1 0.0268021 0.475796 0
394 1 0.0452892 0.459764 0
392 1 0.00197327 0.465949 0
424 1 0.0322903 0.501594 0
425 1 0.0509189 0.484941 0
397 1 0.0874115 0.451744 0
396 1 0.0686103 0.469185 0
426 1 0.0750518 0.494009 0
427 1 0.0930908 0.47679 0
398 1 0.11316 0.463595 0
428 1 0.118821 0.487813 0
429 1 0.137333 0.472735 0
459 1 0.142571 0.496459 0
399 1 0.156302 0.455422 0
400 1 0.181874 0.459573 0
430 1 0.161855 0.479605 0
431 1 0.186376 0.482515 0
404 1 0.224888 0.45125 0
402 1 0.205685 0.465861 0
432 1 0.210371 0.490987 0
433 1 0.229545 0.474745 0
434 1 0.234584 0.499498 0
435 1 0.250277 0.461337 0
408 1 0.293512 0.45355 0
436 1 0.255022 0.485305 0
406 1 0.274173 0.468786 0
437 1 0.280264 0.492513 0
439 1 0.300208 0.477322 0
410 1 0.318512 0.459775 0
440 1 0.323807 0.485374 0
441 1 0.342606 0.467661 0
471 1 0.347432 0.490729 0
412 1 0.36098 0.450782 0
472 1 0.37349 0.496527 0
442 1 0.365636 0.473956 0
473 1 0.391906 0.480597 0
443 1 0.384121 0.456731 0
477 1 0.440432 0.489368 0
446 1 0.434629 0.465834 0
445 1 0.408915 0.462056 0
444 1 0.416072 0.484801 0
449 1 0.476993 0.454708 0
478 1 0.46585 0.496133 0
448 1 0.458402 0.473029 0
450 1 0.48258 0.478375 0
453 1 0.0111156 0.515498 0
452 1 0.0151331 0.540191 0
454 1 0.0367655 0.525365 0
483 1 0.0399029 0.550597 0
485 1 0.0592555 0.534376 0
455 1 0.0557076 0.509556 0
456 1 0.0787774 0.518739 0
486 1 0.083337 0.544362 0
457 1 0.0983162 0.503874 0
487 1 0.10277 0.52853 0
458 1 0.122851 0.513402 0
488 1 0.126388 0.539882 0
489 1 0.147294 0.52378 0
461 1 0.191187 0.505188 0
462 1 0.192405 0.52841 0
491 1 0.1703 0.538905 0
460 1 0.166652 0.506458 0
493 1 0.21475 0.539451 0
463 1 0.213693 0.515342 0
464 1 0.237838 0.524164 0
495 1 0.237704 0.547359 0
466 1 0.260443 0.533128 0
465 1 0.258193 0.508837 0
467 1 0.282492 0.519789 0
497 1 0.293584 0.543445 0
438 1 0.303754 0.501351 0
468 1 0.312629 0.526811 0
469 1 0.328634 0.508346 0
499 1 0.338076 0.533483 0
470 1 0.355375 0.514294 0
503 1 0.381016 0.521541 0
474 1 0.39834 0.503343 0
505 1 0.388612 0.546734 0
501 1 0.363335 0.539019 0
476 1 0.404778 0.526747 0
509 1 0.429638 0.533151 0
475 1 0.423594 0.509791 0
507 1 0.447434 0.514162 0
506 1 0.412257 0.550632 0
479 1 0.47008 0.521291 0
480 1 0.452757 0.540139 0
1381 1 0.495121 0.527686 0
510 1 0.478412 0.544812 0
1351 1 0.489852 0.503089 0
513 1 0.0200877 0.564957 0
514 1 0.0434974 0.576421 0
512 1 0.0239676 0.59033 0
484 1 0.0631358 0.560277 0
515 1 0.0851743 0.569748 0
545 1 0.066038 0.586572 0
516 1 0.0879154 0.596144 0
517 1 0.106032 0.555045 0
518 1 0.108219 0.580827 0
519 1 0.128876 0.566115 0
549 1 0.129576 0.592383 0
490 1 0.148587 0.552043 0
520 1 0.150799 0.577135 0
521 1 0.171638 0.563556 0
492 1 0.193612 0.55285 0
522 1 0.174212 0.589787 0
523 1 0.195376 0.577107 0
494 1 0.216781 0.563094 0
524 1 0.2191 0.588117 0
525 1 0.239466 0.573295 0
555 1 0.242305 0.596912 0
496 1 0.258463 0.558503 0
526 1 0.263056 0.582645 0
527 1 0.280897 0.566742 0
528 1 0.28747 0.592818 0
498 1 0.31945 0.551497 0
529 1 0.305139 0.573112 0
500 1 0.346607 0.556677 0
530 1 0.32944 0.574716 0
559 1 0.311343 0.596423 0
561 1 0.336456 0.598805 0
531 1 0.353561 0.581581 0
502 1 0.370286 0.563357 0
504 1 0.394517 0.56959 0
533 1 0.376755 0.587694 0
534 1 0.401371 0.59335 0
535 1 0.41845 0.575933 0
508 1 0.4372 0.557763 0
537 1 0.442195 0.581677 0
539 1 0.461142 0.564297 0
540 1 0.485069 0.570173 0
538 1 0.467211 0.587932 0
569 1 0.491983 0.593348 0
543 1 0.0464351 0.600893 0
542 1 0.0255282 0.61463 0
573 1 0.0261669 0.640019 0
544 1 0.0480612 0.624429 0
571 1 0.00460299 0.629289 0
541 1 0.0038945 0.604484 0
546 1 0.0690177 0.610395 0
547 1 0.0907284 0.621038 0
575 1 0.0704829 0.635182 0
576 1 0.0935161 0.644373 0
548 1 0.110029 0.606145 0
550 1 0.134234 0.617329 0
577 1 0.114329 0.631294 0
579 1 0.136753 0.641381 0
551 1 0.154084 0.603319 0
553 1 0.197663 0.601842 0
581 1 0.159097 0.629321 0
552 1 0.178649 0.614688 0
582 1 0.181427 0.639769 0
583 1 0.202017 0.626219 0
554 1 0.221753 0.612468 0
556 1 0.246934 0.622377 0
585 1 0.224867 0.635913 0
586 1 0.246995 0.647336 0
557 1 0.266234 0.60821 0
587 1 0.269302 0.633679 0
558 1 0.291085 0.617397 0
589 1 0.292148 0.642954 0
560 1 0.316674 0.620649 0
591 1 0.326049 0.643754 0
562 1 0.341666 0.623923 0
532 1 0.359834 0.606065 0
563 1 0.383498 0.61277 0
564 1 0.36583 0.631201 0
595 1 0.391293 0.637735 0
536 1 0.425371 0.599766 0
565 1 0.408032 0.61895 0
566 1 0.433151 0.624414 0
596 1 0.415224 0.643234 0
598 1 0.441323 0.648514 0
1442 1 0.500093 0.617409 0
567 1 0.449644 0.606231 0
597 1 0.457425 0.62959 0
568 1 0.475159 0.611532 0
570 1 0.482182 0.636112 0
574 1 0.0506435 0.650171 0
572 1 0.00367841 0.653192 0
603 1 0.0288432 0.664896 0
602 1 0.00714938 0.677977 0
633 1 0.0317845 0.689514 0
604 1 0.0535402 0.675059 0
605 1 0.0740845 0.660292 0
606 1 0.0768732 0.6857 0
607 1 0.0963745 0.670505 0
637 1 0.099159 0.695464 0
635 1 0.0561082 0.69944 0
578 1 0.115629 0.656074 0
609 1 0.13881 0.66547 0
608 1 0.119573 0.681525 0
639 1 0.141667 0.69208 0
580 1 0.160525 0.653166 0
611 1 0.182885 0.663781 0
610 1 0.161714 0.67739 0
612 1 0.183638 0.689292 0
584 1 0.204089 0.65099 0
613 1 0.204699 0.676043 0
615 1 0.225637 0.660801 0
614 1 0.226044 0.686796 0
617 1 0.246332 0.672321 0
616 1 0.247934 0.697449 0
588 1 0.269886 0.659491 0
619 1 0.290805 0.677869 0
618 1 0.268129 0.683692 0
593 1 0.349287 0.650221 0
590 1 0.308946 0.660888 0
621 1 0.313534 0.685538 0
592 1 0.332324 0.669261 0
622 1 0.338546 0.693889 0
623 1 0.356449 0.674279 0
594 1 0.37368 0.655686 0
624 1 0.380284 0.680899 0
653 1 0.362598 0.698275 0
625 1 0.397742 0.661476 0
627 1 0.422126 0.666744 0
626 1 0.404913 0.685334 0
657 1 0.429032 0.690669 0
628 1 0.446844 0.671917 0
599 1 0.464717 0.654744 0
600 1 0.488933 0.659521 0
629 1 0.471617 0.678395 0
630 1 0.496256 0.683569 0
658 1 0.453438 0.696507 0
632 1 0.0101445 0.70314 0
634 1 0.0352202 0.713991 0
663 1 0.0119722 0.727656 0
664 1 0.0371007 0.738037 0
636 1 0.0791432 0.710713 0
665 1 0.0580724 0.72406 0
666 1 0.0802056 0.735399 0
695 1 0.0593274 0.748903 0
667 1 0.10193 0.72141 0
668 1 0.104129 0.746363 0
638 1 0.120911 0.707537 0
640 1 0.144271 0.718479 0
669 1 0.123417 0.731772 0
670 1 0.144405 0.744469 0
641 1 0.163442 0.703364 0
642 1 0.185085 0.715533 0
671 1 0.166168 0.730569 0
673 1 0.188367 0.740578 0
643 1 0.205172 0.699638 0
645 1 0.228257 0.712014 0
644 1 0.208087 0.726788 0
675 1 0.230188 0.736274 0
646 1 0.249975 0.722161 0
677 1 0.252436 0.746747 0
647 1 0.271532 0.708667 0
648 1 0.272557 0.732443 0
679 1 0.293783 0.742632 0
649 1 0.294327 0.718631 0
620 1 0.319914 0.712839 0
651 1 0.346599 0.716289 0
650 1 0.329438 0.734295 0
652 1 0.353788 0.740857 0
655 1 0.388274 0.704785 0
654 1 0.370423 0.723033 0
685 1 0.395426 0.729336 0
683 1 0.377808 0.746667 0
656 1 0.411588 0.709739 0
687 1 0.435275 0.713872 0
686 1 0.418991 0.733837 0
717 1 0.4439 0.738459 0
659 1 0.477495 0.702324 0
689 1 0.461052 0.720327 0
660 1 0.486398 0.72655 0
688 1 0.467702 0.745116 0
692 1 -0.000889645 0.791668 0
662 1 0.0157256 0.751701 0
694 1 0.0382777 0.762655 0
693 1 0.0189322 0.776478 0
725 1 0.0412321 0.787349 0
697 1 0.083443 0.75992 0
696 1 0.0624577 0.773119 0
727 1 0.0843616 0.786362 0
726 1 0.0635724 0.799212 0
699 1 0.124678 0.75822 0
698 1 0.103598 0.772131 0
700 1 0.126507 0.784423 0
728 1 0.106015 0.796827 0
701 1 0.148099 0.770188 0
731 1 0.149866 0.795654 0
672 1 0.167438 0.754919 0
703 1 0.189711 0.765581 0
702 1 0.1701 0.780112 0
704 1 0.191604 0.792034 0
674 1 0.209715 0.751498 0
676 1 0.232936 0.761844 0
705 1 0.212084 0.775634 0
706 1 0.234393 0.786859 0
707 1 0.255322 0.772076 0
678 1 0.274644 0.757551 0
709 1 0.276986 0.783447 0
680 1 0.297291 0.768596 0
737 1 0.256897 0.796855 0
710 1 0.3009 0.792582 0
681 1 0.315497 0.752843 0
682 1 0.338605 0.75838 0
711 1 0.32139 0.776104 0
712 1 0.344259 0.783107 0
713 1 0.361565 0.765502 0
714 1 0.385721 0.7698 0
743 1 0.36816 0.789009 0
745 1 0.392163 0.793745 0
684 1 0.402382 0.752371 0
715 1 0.42596 0.756805 0
716 1 0.409846 0.776244 0
747 1 0.433955 0.781489 0
718 1 0.450335 0.763084 0
690 1 0.493471 0.749646 0
719 1 0.476344 0.769589 0
720 1 0.483105 0.79294 0
749 1 0.459102 0.786796 0
1591 1 0.501102 0.773824 0
723 1 0.0211605 0.802425 0
722 1 0.0196935 0.829695 0
724 1 0.0437101 0.812282 0
754 1 0.0447322 0.836249 0
757 1 0.0854312 0.811019 0
755 1 0.0653829 0.824222 0
756 1 0.0863871 0.837892 0
729 1 0.128321 0.809055 0
759 1 0.106663 0.823897 0
760 1 0.13089 0.834153 0
758 1 0.108139 0.849413 0
730 1 0.15013 0.820481 0
761 1 0.1536 0.845579 0
732 1 0.171796 0.80605 0
763 1 0.173535 0.832058 0
733 1 0.194224 0.818367 0
764 1 0.19645 0.844608 0
735 1 0.21485 0.803522 0
736 1 0.237451 0.811864 0
734 1 0.218024 0.828617 0
767 1 0.239996 0.836579 0
708 1 0.280696 0.807949 0
738 1 0.259712 0.821515 0
769 1 0.284627 0.833858 0
768 1 0.262712 0.845437 0
741 1 0.32488 0.801356 0
739 1 0.306321 0.816892 0
740 1 0.307792 0.840864 0
771 1 0.331762 0.826709 0
742 1 0.348631 0.808132 0
773 1 0.358584 0.833244 0
744 1 0.374989 0.812884 0
774 1 0.381809 0.837661 0
775 1 0.398765 0.819302 0
746 1 0.415846 0.800612 0
748 1 0.441156 0.80553 0
777 1 0.42286 0.824687 0
776 1 0.40627 0.843693 0
779 1 0.448607 0.828928 0
778 1 0.430471 0.847981 0
750 1 0.466224 0.810609 0
1621 1 0.49104 0.817024 0
780 1 0.472879 0.835236 0
1651 1 0.497949 0.840102 0
753 1 0.0422505 0.859222 0
752 1 0.0185366 0.861788 0
783 1 0.0364275 0.881969 0
782 1 0.0130803 0.888092 0
785 1 0.0644707 0.84983 0
784 1 0.0607399 0.87452 0
786 1 0.0793174 0.892318 0
787 1 0.085687 0.866131 0
815 1 0.0547795 0.898408 0
817 1 0.103347 0.885351 0
789 1 0.132081 0.85837 0
788 1 0.127998 0.881759 0
790 1 0.147371 0.896536 0
791 1 0.151484 0.871208 0
762 1 0.175719 0.859822 0
793 1 0.171576 0.888855 0
795 1 0.199652 0.869972 0
765 1 0.221495 0.853711 0
796 1 0.225157 0.878067 0
825 1 0.239531 0.897957 0
766 1 0.247031 0.866403 0
797 1 0.272688 0.868503 0
827 1 0.262945 0.890516 0
798 1 0.288335 0.887272 0
799 1 0.298351 0.864882 0
772 1 0.344124 0.852352 0
770 1 0.321725 0.859565 0
800 1 0.3139 0.882901 0
801 1 0.337925 0.876213 0
802 1 0.355123 0.892526 0
803 1 0.363831 0.869421 0
804 1 0.380866 0.887333 0
805 1 0.388395 0.861856 0
807 1 0.413754 0.866686 0
808 1 0.437599 0.872702 0
837 1 0.444882 0.896988 0
809 1 0.455554 0.853145 0
1681 1 0.48099 0.859577 0
1711 1 0.487866 0.883917 0
810 1 0.462524 0.877793 0
813 1 0.0291654 0.905532 0
843 1 0.0224686 0.929144 0
844 1 0.0395745 0.947154 0
812 1 0.00539547 0.911894 0
814 1 0.047187 0.922077 0
816 1 0.0962537 0.910122 0
845 1 0.0717636 0.915886 0
846 1 0.064172 0.939646 0
847 1 0.0888313 0.93479 0
819 1 0.120609 0.90447 0
818 1 0.112977 0.92789 0
820 1 0.13099 0.946701 0
821 1 0.139551 0.920607 0
792 1 0.165175 0.914355 0
851 1 0.156774 0.939364 0
823 1 0.188999 0.906208 0
822 1 0.181993 0.932763 0
794 1 0.214289 0.902154 0
824 1 0.205732 0.927252 0
885 1 0.222775 0.945972 0
855 1 0.23103 0.922174 0
856 1 0.246843 0.942206 0
826 1 0.254906 0.917161 0
857 1 0.27042 0.935696 0
828 1 0.278931 0.911792 0
859 1 0.296897 0.930535 0
831 1 0.330841 0.899192 0
829 1 0.305294 0.907055 0
830 1 0.323616 0.923719 0
861 1 0.341486 0.941842 0
860 1 0.314094 0.947304 0
832 1 0.348184 0.91813 0
863 1 0.365353 0.935916 0
833 1 0.373187 0.911073 0
834 1 0.3902 0.930239 0
806 1 0.399112 0.90499 0
835 1 0.414326 0.923394 0
836 1 0.433641 0.94759 0
838 1 0.451447 0.921682 0
869 1 0.460072 0.945001 0
839 1 0.468073 0.902564 0
840 1 0.478043 0.925314 0
1712 1 0.495935 0.90857 0
870 1 0.486098 0.95042 0
842 1 0.0157229 0.953409 0
872 1 0.0238781 0.995049 0
873 1 0.030711 0.972552 0
871 1 0.00709005 0.97762 0
874 1 0.0494753 0.989102 0
875 1 0.0561787 0.964639 0
876 1 0.0730264 0.983284 0
848 1 0.0799897 0.959086 0
877 1 0.0984344 0.974867 0
849 1 0.106045 0.952545 0
878 1 0.114915 0.994515 0
879 1 0.123302 0.969888 0
881 1 0.140337 0.987961 0
850 1 0.148513 0.964829 0
853 1 0.172731 0.958193 0
852 1 0.164744 0.98201 0
883 1 0.190152 0.976361 0
854 1 0.19792 0.951166 0
13 1 0.207052 0.993806 0
15 1 0.232092 0.989129 0
884 1 0.214694 0.970758 0
886 1 0.238644 0.965044 0
858 1 0.287663 0.953113 0
887 1 0.263636 0.959823 0
17 1 0.256011 0.984283 0
888 1 0.280889 0.977512 0
19 1 0.299226 0.995868 0
889 1 0.306145 0.971637 0
890 1 0.323706 0.990015 0
891 1 0.331534 0.964932 0
892 1 0.349104 0.98379 0
862 1 0.357201 0.960202 0
864 1 0.381897 0.954721 0
893 1 0.374958 0.978884 0
895 1 0.399224 0.974649 0
894 1 0.391192 0.998202 0
865 1 0.407141 0.950552 0
867 1 0.447001 0.969896 0
866 1 0.422977 0.970936 0
896 1 0.416583 0.995061 0
897 1 0.449638 0.993908 0
899 1 0.477502 0.99429 0
1771 1 0.49374 0.975679 0
868 1 0.470818 0.969645 0
902 1 0.53474 0.0267165 0
901 1 0.510624 0.0217558 0
931 1 0.518383 0.0445637 0
903 1 0.526693 0.00345366 0
933 1 0.543365 0.0489056 0
904 1 0.559761 0.0299867 0
906 1 0.576061 0.0115256 0
935 1 0.583658 0.0356375 0
905 1 0.550911 0.00699073 0
908 1 0.600832 0.0185582 0
937 1 0.608024 0.0420723 0
939 1 0.626226 0.0246687 0
910 1 0.642473 0.00634538 0
909 1 0.617047 0.000648651 0
938 1 0.633927 0.0477376 0
941 1 0.650225 0.0295567 0
912 1 0.666503 0.0108168 0
942 1 0.673805 0.0349196 0
943 1 0.69043 0.0172373 0
973 1 0.69844 0.0407353 0
944 1 0.71455 0.0233628 0
945 1 0.731212 0.00379022 0
946 1 0.739752 0.0276117 0
975 1 0.72314 0.0460651 0
947 1 0.756533 0.00997648 0
948 1 0.76449 0.0345688 0
918 1 0.783189 0.0174801 0
979 1 0.792111 0.0421819 0
949 1 0.80695 0.023189 0
951 1 0.836993 0.016576 0
950 1 0.82543 0.0388706 0
921 1 0.818404 0.00158841 0
952 1 0.852078 0.0343369 0
953 1 0.861457 0.0109276 0
924 1 0.885213 0.0048105 0
954 1 0.878169 0.0294646 0
985 1 0.893562 0.0481753 0
955 1 0.901384 0.0236692 0
926 1 0.925766 0.0173362 0
957 1 0.943016 0.0355876 0
956 1 0.91791 0.0423104 0
928 1 0.950268 0.0119601 0
959 1 0.967733 0.0311026 0
930 1 0.993333 0.0234857 0
929 1 0.97482 0.00545821 0
960 1 0.985542 0.0471831 0
1 1 0.999824 0.000378745 0
932 1 0.527536 0.0673806 0
962 1 0.533647 0.089899 0
961 1 0.509137 0.0857846 0
60 1 0.502625 0.0628958 0
963 1 0.550975 0.0728114 0
934 1 0.567317 0.0541716 0
965 1 0.575201 0.0790997 0
936 1 0.5908 0.0595898 0
964 1 0.559261 0.0972357 0
966 1 0.598963 0.0837457 0
967 1 0.615826 0.0659003 0
968 1 0.624315 0.0910826 0
969 1 0.640492 0.0722327 0
999 1 0.651218 0.0954293 0
940 1 0.657367 0.0536566 0
970 1 0.666336 0.0769184 0
971 1 0.682018 0.0583575 0
972 1 0.690619 0.0823961 0
1003 1 0.705852 0.0636859 0
1004 1 0.71588 0.0892239 0
974 1 0.730269 0.0695896 0
1005 1 0.739656 0.094242 0
976 1 0.747489 0.0516329 0
1007 1 0.755882 0.0757489 0
977 1 0.772915 0.0574797 0
978 1 0.794967 0.0686334 0
1008 1 0.786913 0.0925765 0
1006 1 0.763371 0.099206 0
980 1 0.818139 0.0620699 0
981 1 0.841823 0.0580017 0
1009 1 0.81097 0.0877277 0
1011 1 0.835348 0.0825881 0
982 1 0.85976 0.076699 0
983 1 0.868205 0.0517536 0
984 1 0.885307 0.0707702 0
1013 1 0.878217 0.0947778 0
1015 1 0.902432 0.0901791 0
986 1 0.909438 0.0658714 0
987 1 0.934799 0.0596771 0
1017 1 0.928369 0.0829713 0
988 1 0.952136 0.0770297 0
958 1 0.960213 0.0539931 0
989 1 0.97588 0.0718743 0
990 1 0.993898 0.0897153 0
1019 1 0.968039 0.0962971 0
991 1 0.516951 0.108759 0
992 1 0.524505 0.132594 0
993 1 0.541497 0.114777 0
1023 1 0.548763 0.138751 0
1021 1 0.506244 0.148161 0
995 1 0.582883 0.102722 0
994 1 0.566887 0.120635 0
996 1 0.59097 0.126696 0
1025 1 0.573137 0.143879 0
997 1 0.606533 0.107773 0
998 1 0.632499 0.113876 0
1027 1 0.615502 0.132617 0
1029 1 0.641011 0.138114 0
1001 1 0.674286 0.101867 0
1000 1 0.657325 0.120057 0
1031 1 0.68151 0.12497 0
1030 1 0.665551 0.144025 0
1002 1 0.698037 0.106213 0
1033 1 0.705953 0.130425 0
1035 1 0.722775 0.113326 0
1034 1 0.73092 0.137275 0
1036 1 0.748182 0.119567 0
1037 1 0.776189 0.119041 0
1038 1 0.791838 0.137738 0
1067 1 0.763218 0.140639 0
1039 1 0.801453 0.112453 0
1010 1 0.827577 0.106929 0
1040 1 0.818824 0.130511 0
1041 1 0.844121 0.126079 0
1071 1 0.836968 0.149736 0
1012 1 0.851837 0.10183 0
1043 1 0.869104 0.119473 0
1014 1 0.894001 0.115266 0
1044 1 0.884787 0.139139 0
1042 1 0.861093 0.143388 0
1018 1 0.943298 0.102745 0
1045 1 0.910756 0.132991 0
1016 1 0.919072 0.108415 0
1047 1 0.934893 0.127021 0
1049 1 0.961255 0.120267 0
1020 1 0.986551 0.11412 0
1050 1 0.978485 0.138395 0
1046 1 0.954143 0.143984 0
1022 1 0.531078 0.155183 0
1053 1 0.536952 0.179436 0
1051 1 0.512465 0.172538 0
1052 1 0.518919 0.197915 0
1026 1 0.596702 0.150309 0
1024 1 0.554547 0.161516 0
1055 1 0.57903 0.166944 0
1054 1 0.562601 0.18571 0
1056 1 0.58698 0.190186 0
1028 1 0.621557 0.156176 0
1057 1 0.604994 0.173392 0
1058 1 0.628893 0.178943 0
1059 1 0.647267 0.161714 0
1087 1 0.611812 0.197537 0
1032 1 0.690527 0.149408 0
1060 1 0.65417 0.185071 0
1061 1 0.672721 0.168186 0
1091 1 0.679083 0.192018 0
1062 1 0.696748 0.173627 0
1063 1 0.714274 0.155498 0
1064 1 0.722762 0.179041 0
1095 1 0.745885 0.185386 0
1065 1 0.739386 0.159847 0
1093 1 0.704431 0.197689 0
1066 1 0.762355 0.166686 0
1068 1 0.78758 0.162799 0
1097 1 0.77272 0.191061 0
1069 1 0.812941 0.154515 0
1070 1 0.831244 0.174012 0
1099 1 0.806994 0.179844 0
1101 1 0.848086 0.192642 0
1100 1 0.822716 0.196966 0
1072 1 0.855166 0.16837 0
1073 1 0.878781 0.162594 0
1103 1 0.872296 0.185557 0
1074 1 0.896975 0.180625 0
1077 1 0.928805 0.15047 0
1075 1 0.904364 0.156485 0
1076 1 0.921794 0.175595 0
1107 1 0.937642 0.194557 0
1078 1 0.945059 0.168455 0
1048 1 0.971594 0.162508 0
151 1 0.994694 0.156494 0
1079 1 0.987975 0.181598 0
1109 1 0.963408 0.186328 0
1083 1 0.543309 0.203163 0
1082 1 0.525547 0.221642 0
1111 1 0.508643 0.238669 0
1113 1 0.533867 0.245011 0
1081 1 0.501854 0.21558 0
1084 1 0.550563 0.22732 0
1085 1 0.567178 0.209829 0
1086 1 0.593437 0.214675 0
1115 1 0.576098 0.23339 0
1117 1 0.60116 0.23961 0
1089 1 0.636404 0.20317 0
1088 1 0.617543 0.220927 0
1119 1 0.643516 0.226731 0
1118 1 0.625739 0.24517 0
1090 1 0.661076 0.209201 0
1092 1 0.68688 0.215942 0
1121 1 0.667456 0.232704 0
1122 1 0.692299 0.239517 0
1094 1 0.728928 0.203575 0
1123 1 0.71046 0.220943 0
1124 1 0.717464 0.245789 0
1125 1 0.735296 0.228622 0
1096 1 0.754381 0.209211 0
1127 1 0.777764 0.216157 0
1126 1 0.760713 0.234178 0
1128 1 0.785768 0.241162 0
1098 1 0.79903 0.203648 0
1131 1 0.84053 0.217383 0
1129 1 0.816281 0.221106 0
1130 1 0.833939 0.240782 0
1159 1 0.810342 0.245196 0
1102 1 0.865586 0.210774 0
1104 1 0.889583 0.205841 0
1132 1 0.858492 0.234523 0
1133 1 0.882574 0.22959 0
1105 1 0.914082 0.199553 0
1134 1 0.900715 0.247727 0
1135 1 0.906632 0.223771 0
1106 1 0.931703 0.218074 0
1136 1 0.924889 0.243823 0
1137 1 0.948883 0.234472 0
1108 1 0.956217 0.211292 0
1110 1 0.980191 0.205263 0
1139 1 0.973203 0.229191 0
1140 1 0.989068 0.246501 0
181 1 0.996829 0.223371 0
1112 1 0.516367 0.262099 0
1143 1 0.542357 0.269088 0
1142 1 0.523703 0.286938 0
1144 1 0.548386 0.293471 0
1114 1 0.558949 0.251155 0
1116 1 0.583467 0.257966 0
1145 1 0.566668 0.274961 0
1146 1 0.591019 0.281076 0
1175 1 0.573855 0.298219 0
1147 1 0.608077 0.263437 0
1149 1 0.633491 0.268841 0
1148 1 0.614549 0.287534 0
1179 1 0.639212 0.292879 0
1120 1 0.650107 0.250331 0
1151 1 0.674669 0.256513 0