ITEM: TIMESTEP
84000
ITEM: NUMBER OF ATOMS
1800
ITEM: BOX BOUNDS pp pp pp
3.0652966145800633e+00 1.5533470338541673e+02
3.0652966145800633e+00 1.5533470338541673e+02
0.0000000000000000e+00 5.2800000000000002e+00
ITEM: ATOMS id type xs ys zs
2 1 0.0149277 0.0179478 0
3 1 0.040403 0.0116826 0
33 1 0.0333517 0.035374 0
31 1 0.00875438 0.041862 0
4 1 0.0566526 0.0288924 0
6 1 0.081701 0.0224783 0
5 1 0.0646441 0.00466903 0
35 1 0.0743408 0.0459349 0
37 1 0.0991502 0.0399931 0
8 1 0.107422 0.0177047 0
9 1 0.123337 0.0344351 0
880 1 0.131035 0.0100196 0
10 1 0.148028 0.0282179 0
11 1 0.155039 0.00536802 0
12 1 0.174888 0.0224923 0
43 1 0.193305 0.0406195 0
41 1 0.166661 0.0447347 0
14 1 0.198844 0.0168402 0
44 1 0.21657 0.0346984 0
45 1 0.222566 0.0104763 0
46 1 0.241693 0.0298132 0
16 1 0.249017 0.00490807 0
47 1 0.266944 0.0252441 0
49 1 0.292826 0.0176965 0
48 1 0.284644 0.0428844 0
77 1 0.258569 0.0478903 0
50 1 0.308116 0.037581 0
20 1 0.316746 0.0123735 0
51 1 0.333317 0.0330572 0
21 1 0.34057 0.008774 0
22 1 0.358619 0.0263247 0
24 1 0.383541 0.0190769 0
53 1 0.376655 0.0431858 0
23 1 0.365608 0.00182229 0
55 1 0.400413 0.0372513 0
25 1 0.408935 0.0132281 0
26 1 0.424817 0.0323605 0
27 1 0.433285 0.00900134 0
28 1 0.450833 0.0368718 0
30 1 0.494325 0.0382503 0
898 1 0.458351 0.0128131 0
29 1 0.483707 0.0162103 0
59 1 0.472336 0.0489411 0
32 1 0.0266394 0.0591807 0
62 1 0.0164573 0.0842677 0
63 1 0.0441983 0.0784383 0
61 1 0.000522379 0.0654359 0
34 1 0.0504435 0.0540781 0
65 1 0.0681697 0.0701169 0
66 1 0.0853603 0.0864152 0
36 1 0.0920976 0.0632222 0
64 1 0.0611796 0.0939919 0
39 1 0.141589 0.0512096 0
38 1 0.116204 0.0570286 0
67 1 0.109776 0.0809905 0
69 1 0.134151 0.0738805 0
70 1 0.150482 0.0923319 0
40 1 0.15831 0.0684122 0
71 1 0.175692 0.0867768 0
42 1 0.183148 0.0639398 0
72 1 0.201407 0.080956 0
73 1 0.208945 0.0584537 0
74 1 0.226467 0.0773357 0
75 1 0.233371 0.0525386 0
106 1 0.244116 0.093732 0
103 1 0.219611 0.100049 0
76 1 0.252476 0.0712905 0
78 1 0.277811 0.0669972 0
109 1 0.293614 0.0859207 0
107 1 0.269901 0.0915047 0
79 1 0.303554 0.0620771 0
80 1 0.320987 0.0827792 0
81 1 0.328295 0.0581269 0
82 1 0.345842 0.0762419 0
52 1 0.352947 0.0512399 0
83 1 0.370292 0.0671931 0
113 1 0.378654 0.090025 0
54 1 0.394937 0.0715968 0
56 1 0.417113 0.0563241 0
57 1 0.44 0.0613461 0
85 1 0.421169 0.0799609 0
87 1 0.4442 0.0874895 0
84 1 0.402864 0.0966274 0
88 1 0.4683 0.096264 0
58 1 0.463981 0.071334 0
89 1 0.486754 0.0791735 0
93 1 0.037287 0.100642 0
92 1 0.0300222 0.124234 0
91 1 0.0103785 0.108613 0
121 1 0.00312125 0.133486 0
123 1 0.0460688 0.143825 0
94 1 0.0537537 0.118462 0
95 1 0.0782172 0.111787 0
125 1 0.0703386 0.136428 0
96 1 0.0957007 0.12973 0
68 1 0.126267 0.0980918 0
97 1 0.101615 0.105243 0
98 1 0.120274 0.122674 0
99 1 0.143824 0.116963 0
129 1 0.136296 0.140758 0
127 1 0.112039 0.146666 0
100 1 0.168149 0.109667 0
130 1 0.160864 0.133245 0
131 1 0.185861 0.127186 0
101 1 0.193016 0.104102 0
133 1 0.201784 0.145945 0
102 1 0.210726 0.122668 0
105 1 0.237043 0.118143 0
104 1 0.227088 0.141358 0
136 1 0.255912 0.142996 0
135 1 0.261316 0.115932 0
137 1 0.279757 0.130814 0
108 1 0.29272 0.110071 0
111 1 0.338029 0.100891 0
139 1 0.303638 0.138411 0
110 1 0.321825 0.120586 0
141 1 0.34573 0.126934 0
140 1 0.327744 0.144961 0
112 1 0.361919 0.107464 0
114 1 0.386125 0.116941 0
143 1 0.368422 0.13376 0
144 1 0.392542 0.14107 0
86 1 0.425905 0.104659 0
115 1 0.409019 0.122778 0
116 1 0.433289 0.129747 0
145 1 0.416927 0.147193 0
478 1 0.464781 0.496996 0
117 1 0.450703 0.11347 0
90 1 0.492352 0.102636 0
118 1 0.459085 0.136612 0
119 1 0.475964 0.119818 0
149 1 0.484985 0.144838 0
122 1 0.0217152 0.150309 0
153 1 0.0386107 0.167795 0
152 1 0.0141058 0.174286 0
183 1 0.0308916 0.191481 0
1080 1 0.00848996 0.198418 0
124 1 0.0633119 0.160783 0
126 1 0.0871502 0.15286 0
155 1 0.0798757 0.177246 0
154 1 0.0549592 0.185513 0
156 1 0.0967512 0.194408 0
128 1 0.129442 0.163513 0
157 1 0.104743 0.17086 0
160 1 0.147838 0.181764 0
158 1 0.122618 0.186213 0
132 1 0.177364 0.151587 0
159 1 0.153373 0.158478 0
161 1 0.170654 0.174834 0
162 1 0.187405 0.192749 0
163 1 0.194212 0.169192 0
191 1 0.164888 0.20115 0
134 1 0.217694 0.163723 0
164 1 0.229807 0.184554 0
165 1 0.243146 0.164324 0
193 1 0.209674 0.199851 0
166 1 0.253239 0.190767 0
167 1 0.267218 0.171378 0
138 1 0.284932 0.154507 0
168 1 0.291904 0.178792 0
197 1 0.276673 0.198011 0
169 1 0.310526 0.16182 0
171 1 0.334855 0.169511 0
170 1 0.317097 0.185928 0
201 1 0.340451 0.193315 0
142 1 0.350937 0.151454 0
172 1 0.358661 0.17711 0
173 1 0.375755 0.15792 0
174 1 0.383157 0.183353 0
175 1 0.399365 0.16587 0
147 1 0.440981 0.152921 0
146 1 0.423299 0.171344 0
205 1 0.406876 0.190322 0
176 1 0.430515 0.197955 0
177 1 0.447415 0.178552 0
148 1 0.465143 0.159931 0
150 1 0.490513 0.168286 0
179 1 0.471521 0.184506 0
180 1 0.497269 0.19164 0
182 1 0.0246898 0.216561 0
213 1 0.0422716 0.235075 0
211 1 0.0190796 0.240626 0
181 1 0.000766782 0.223548 0
184 1 0.0487445 0.20766 0
185 1 0.0723285 0.201258 0
186 1 0.0902188 0.218004 0
215 1 0.0648617 0.22516 0
216 1 0.0845057 0.241304 0
214 1 0.0613311 0.249147 0
187 1 0.114653 0.210297 0
188 1 0.132208 0.228231 0
189 1 0.139292 0.203993 0
217 1 0.108645 0.234121 0
190 1 0.155275 0.223655 0
192 1 0.189616 0.217414 0
221 1 0.174677 0.237114 0
223 1 0.198305 0.241767 0
220 1 0.154547 0.248418 0
194 1 0.215365 0.224609 0
195 1 0.233958 0.208296 0
225 1 0.239414 0.233535 0
196 1 0.257702 0.215645 0
198 1 0.282818 0.222926 0
227 1 0.262327 0.240055 0
228 1 0.288514 0.245924 0
199 1 0.300148 0.202919 0
200 1 0.323852 0.211192 0
229 1 0.307136 0.228406 0
231 1 0.330147 0.236613 0
202 1 0.348121 0.218 0
203 1 0.365632 0.200943 0
204 1 0.389832 0.20825 0
233 1 0.372061 0.2253 0
235 1 0.396361 0.231272 0
232 1 0.353996 0.241608 0
234 1 0.377969 0.248853 0
207 1 0.438338 0.220894 0
206 1 0.419412 0.239039 0
237 1 0.444216 0.243378 0
178 1 0.454866 0.201684 0
208 1 0.462741 0.226114 0
209 1 0.479614 0.207645 0
210 1 0.487617 0.232402 0
212 1 0.0134433 0.263982 0
243 1 0.0358842 0.259551 0
241 1 0.00752313 0.28898 0
242 1 0.0315704 0.284612 0
244 1 0.0546717 0.275787 0
245 1 0.0788916 0.266087 0
275 1 0.0758452 0.290883 0
247 1 0.098117 0.280268 0
218 1 0.103425 0.257156 0
219 1 0.12799 0.250767 0
249 1 0.140818 0.270633 0
248 1 0.121732 0.285862 0
250 1 0.144844 0.294383 0
222 1 0.180829 0.259836 0
251 1 0.164602 0.277428 0
252 1 0.187384 0.282922 0
224 1 0.221715 0.249259 0
253 1 0.205056 0.266226 0
255 1 0.227901 0.273335 0
254 1 0.210718 0.290713 0
226 1 0.245733 0.257316 0
285 1 0.234234 0.297784 0
256 1 0.253236 0.280741 0
257 1 0.27104 0.263107 0
259 1 0.295559 0.271072 0
258 1 0.276743 0.288903 0
289 1 0.30024 0.29494 0
230 1 0.311287 0.252169 0
260 1 0.318447 0.27793 0
261 1 0.335342 0.260283 0
262 1 0.341592 0.28612 0
263 1 0.359337 0.267224 0
264 1 0.384195 0.272833 0
293 1 0.364746 0.291412 0
295 1 0.391069 0.297169 0
265 1 0.401827 0.255756 0
236 1 0.426772 0.261974 0
266 1 0.409359 0.279816 0
267 1 0.434247 0.285775 0
238 1 0.450911 0.267537 0
239 1 0.470373 0.250469 0
240 1 0.494224 0.256407 0
269 1 0.476012 0.273325 0
268 1 0.458495 0.291169 0
270 1 0.481337 0.29711 0
271 1 0.0154363 0.311408 0
272 1 0.0391596 0.32204 0
301 1 0.0178829 0.335812 0
303 1 0.0418748 0.345751 0
273 1 0.0529221 0.301911 0
276 1 0.0816071 0.316897 0
274 1 0.0612182 0.331682 0
305 1 0.0858639 0.342209 0
246 1 0.10348 0.303601 0
279 1 0.126348 0.310927 0
277 1 0.105031 0.328023 0
278 1 0.128558 0.334603 0
280 1 0.149766 0.318178 0
281 1 0.168929 0.302016 0
311 1 0.154689 0.342021 0
283 1 0.192001 0.307693 0
282 1 0.174018 0.32625 0
313 1 0.197425 0.33224 0
312 1 0.178854 0.349902 0
284 1 0.215636 0.315544 0
315 1 0.220912 0.339766 0
286 1 0.239607 0.322893 0
316 1 0.246219 0.347175 0
287 1 0.258146 0.305993 0
288 1 0.282356 0.313347 0
317 1 0.265014 0.329957 0
319 1 0.289034 0.337577 0
291 1 0.323088 0.303458 0
290 1 0.305892 0.320995 0
321 1 0.31237 0.345551 0
292 1 0.330368 0.327154 0
323 1 0.347624 0.309266 0
294 1 0.372586 0.31531 0
324 1 0.35495 0.332961 0
325 1 0.380276 0.338707 0
296 1 0.397877 0.320963 0
326 1 0.402951 0.34582 0
297 1 0.41578 0.30346 0
298 1 0.439412 0.310206 0
327 1 0.421371 0.328767 0
328 1 0.444807 0.333983 0
357 1 0.426779 0.353131 0
299 1 0.462821 0.316939 0
300 1 0.487317 0.322635 0
1201 1 0.493414 0.346946 0
329 1 0.469327 0.340974 0
331 1 0.00291073 0.376209 0
302 1 0.0213099 0.360294 0
332 1 0.0270309 0.385352 0
333 1 0.0462781 0.370345 0
334 1 0.0508388 0.395134 0
304 1 0.0660656 0.355038 0
306 1 0.0890216 0.366773 0
335 1 0.0722396 0.383095 0
337 1 0.0964626 0.390036 0
307 1 0.109 0.351685 0
309 1 0.133356 0.358473 0
308 1 0.114319 0.374149 0
339 1 0.139259 0.382859 0
338 1 0.120502 0.398998 0
310 1 0.157655 0.366923 0
341 1 0.166143 0.38986 0
343 1 0.184446 0.373536 0
342 1 0.189414 0.396256 0
314 1 0.202971 0.356359 0
345 1 0.226792 0.364025 0
344 1 0.208551 0.381131 0
375 1 0.232573 0.388518 0
346 1 0.250413 0.371102 0
377 1 0.256349 0.396635 0
318 1 0.269876 0.354863 0
349 1 0.294415 0.362703 0
347 1 0.275097 0.380072 0
350 1 0.298611 0.387935 0
322 1 0.337732 0.351583 0
320 1 0.318415 0.370429 0
351 1 0.34303 0.375065 0
381 1 0.323287 0.394199 0
352 1 0.347404 0.401581 0
353 1 0.360847 0.357305 0
355 1 0.384038 0.363401 0
354 1 0.366324 0.382616 0
385 1 0.389911 0.388895 0
356 1 0.408238 0.371388 0
387 1 0.432189 0.378325 0
386 1 0.413878 0.395848 0
388 1 0.439537 0.402518 0
359 1 0.449136 0.359275 0
358 1 0.458081 0.383797 0
330 1 0.47545 0.365268 0
360 1 0.481619 0.388454 0
361 1 0.00946856 0.4015 0
363 1 0.0337593 0.411077 0
362 1 0.0150352 0.427465 0
364 1 0.0398023 0.435844 0
336 1 0.0777567 0.408315 0
365 1 0.0560141 0.419728 0
395 1 0.0652656 0.444014 0
367 1 0.101497 0.414377 0
366 1 0.108449 0.438049 0
369 1 0.126193 0.423183 0
340 1 0.146852 0.406562 0
368 1 0.130708 0.447187 0
370 1 0.150457 0.430099 0
371 1 0.170359 0.41367 0
401 1 0.173211 0.437752 0
372 1 0.195441 0.4198 0
403 1 0.199823 0.444719 0
373 1 0.213913 0.404707 0
374 1 0.217632 0.428451 0
376 1 0.23704 0.41272 0
405 1 0.242463 0.436473 0
348 1 0.280048 0.40407 0
407 1 0.267672 0.445295 0
378 1 0.261141 0.421674 0
409 1 0.286201 0.428805 0
379 1 0.305532 0.41244 0
380 1 0.310725 0.436819 0
382 1 0.330931 0.419896 0
411 1 0.335947 0.44454 0
413 1 0.355155 0.425703 0
383 1 0.373365 0.409338 0
414 1 0.378786 0.43233 0
384 1 0.396945 0.413541 0
412 1 0.360715 0.449837 0
415 1 0.402251 0.437768 0
417 1 0.4207 0.419358 0
416 1 0.425534 0.444473 0
419 1 0.444721 0.426366 0
389 1 0.46418 0.4087 0
418 1 0.468813 0.432258 0
390 1 0.489127 0.41124 0
420 1 0.493602 0.43707 0
447 1 0.451932 0.450203 0
393 1 0.0218012 0.451797 0
422 1 0.00631333 0.490716 0
423 1 0.0260741 0.475724 0
394 1 0.0454635 0.458629 0
392 1 0.00186512 0.467042 0
425 1 0.0494234 0.485434 0
397 1 0.0898882 0.452969 0
396 1 0.0688902 0.469142 0
426 1 0.0735562 0.494664 0
427 1 0.0926918 0.478718 0
398 1 0.112894 0.463769 0
428 1 0.117179 0.488361 0
429 1 0.136226 0.471698 0
459 1 0.140659 0.497254 0
399 1 0.154688 0.455401 0
400 1 0.180586 0.461168 0
430 1 0.15992 0.479417 0
431 1 0.183268 0.484421 0
404 1 0.223209 0.452369 0
402 1 0.20382 0.467657 0
432 1 0.20887 0.491821 0
433 1 0.227825 0.476861 0
435 1 0.247275 0.460986 0
436 1 0.253817 0.485146 0
408 1 0.290633 0.453689 0
406 1 0.271372 0.468689 0
437 1 0.277602 0.493629 0
439 1 0.297089 0.477741 0
410 1 0.315325 0.460971 0
440 1 0.321175 0.486785 0
441 1 0.340829 0.468291 0
471 1 0.345777 0.493979 0
442 1 0.364435 0.475241 0
473 1 0.390377 0.480761 0
443 1 0.384846 0.455391 0
472 1 0.372131 0.498624 0
477 1 0.440922 0.489997 0
446 1 0.433308 0.466458 0
445 1 0.40891 0.462849 0
444 1 0.41528 0.486476 0
448 1 0.458263 0.473204 0
450 1 0.483203 0.479859 0
449 1 0.476452 0.45655 0
1141 1 0.499235 0.281365 0
1321 1 0.502303 0.461591 0
7 1 0.0898055 -0.00108347 0
453 1 0.0105087 0.515481 0
452 1 0.0154865 0.541726 0
454 1 0.0339462 0.526332 0
424 1 0.0295651 0.499826 0
485 1 0.0575876 0.535053 0
455 1 0.0528759 0.510152 0
456 1 0.0762997 0.51988 0
486 1 0.0819442 0.545114 0
457 1 0.0983173 0.503776 0
487 1 0.101067 0.529592 0
458 1 0.120968 0.513456 0
488 1 0.126883 0.536841 0
489 1 0.145394 0.521036 0
490 1 0.151323 0.546235 0
461 1 0.189664 0.507931 0
462 1 0.193697 0.530839 0
491 1 0.169404 0.529009 0
460 1 0.165893 0.503307 0
493 1 0.218201 0.539301 0
463 1 0.213333 0.515848 0
464 1 0.238685 0.524921 0
495 1 0.240793 0.548945 0
434 1 0.234537 0.500555 0
466 1 0.261577 0.53386 0
465 1 0.257906 0.509785 0
467 1 0.281013 0.517833 0
497 1 0.28478 0.544086 0
468 1 0.303677 0.52802 0
469 1 0.327913 0.51267 0
499 1 0.327522 0.538668 0
438 1 0.302081 0.503304 0
470 1 0.35161 0.518022 0
503 1 0.379828 0.524297 0
474 1 0.397355 0.505143 0
505 1 0.390419 0.546372 0
476 1 0.4059 0.527542 0
509 1 0.432234 0.53284 0
475 1 0.423892 0.509695 0
507 1 0.448396 0.514734 0
479 1 0.472252 0.520305 0
480 1 0.456269 0.539321 0
1381 1 0.497977 0.526772 0
510 1 0.480173 0.544902 0
1351 1 0.489439 0.504137 0
483 1 0.0389732 0.551605 0
513 1 0.01898 0.566529 0
514 1 0.0433324 0.575082 0
512 1 0.0223965 0.589561 0
543 1 0.0464664 0.600085 0
484 1 0.0633959 0.561219 0
515 1 0.0876972 0.569568 0
545 1 0.065858 0.586012 0
516 1 0.0899499 0.593608 0
517 1 0.108564 0.554018 0
518 1 0.109664 0.57976 0
519 1 0.131292 0.562629 0
549 1 0.131979 0.590518 0
520 1 0.152631 0.576687 0
521 1 0.173518 0.56378 0
492 1 0.197174 0.553937 0
522 1 0.176656 0.587824 0
523 1 0.198718 0.577037 0
494 1 0.219473 0.563412 0
524 1 0.22205 0.587537 0
525 1 0.241233 0.573061 0
555 1 0.243618 0.598068 0
496 1 0.263283 0.559693 0
526 1 0.263454 0.583406 0
527 1 0.285274 0.569159 0
528 1 0.285261 0.593728 0
498 1 0.306164 0.55422 0
529 1 0.308561 0.579267 0
500 1 0.329303 0.563654 0
530 1 0.331482 0.588252 0
501 1 0.350864 0.546294 0
531 1 0.352467 0.575984 0
502 1 0.371742 0.56079 0
504 1 0.394845 0.571073 0
533 1 0.374351 0.58849 0
506 1 0.41454 0.550168 0
534 1 0.403028 0.594483 0
535 1 0.419111 0.574135 0
508 1 0.439137 0.556219 0
537 1 0.445005 0.579746 0
536 1 0.427239 0.598407 0
539 1 0.463804 0.562194 0
540 1 0.487825 0.568121 0
538 1 0.469083 0.586859 0
569 1 0.494162 0.592773 0
542 1 0.0240673 0.61595 0
571 1 0.0044256 0.629871 0
573 1 0.0268375 0.63948 0
544 1 0.0477904 0.625557 0
541 1 0.00142314 0.605809 0
546 1 0.069131 0.610519 0
547 1 0.0927376 0.620853 0
575 1 0.0703217 0.635839 0
576 1 0.0945109 0.64625 0
548 1 0.111811 0.604715 0
550 1 0.134277 0.614793 0
577 1 0.11488 0.63157 0
579 1 0.136597 0.640639 0
553 1 0.199205 0.600673 0
551 1 0.155201 0.602517 0
581 1 0.156804 0.627561 0
552 1 0.177763 0.613402 0
582 1 0.179808 0.639777 0
583 1 0.20071 0.62512 0
554 1 0.221744 0.61173 0
556 1 0.243836 0.62339 0
585 1 0.22221 0.635971 0
586 1 0.245213 0.647404 0
584 1 0.202229 0.650504 0
557 1 0.265291 0.608455 0
587 1 0.266274 0.633207 0
558 1 0.287095 0.619746 0
589 1 0.288503 0.644551 0
559 1 0.307017 0.604239 0
560 1 0.309227 0.631121 0
561 1 0.329208 0.612881 0
591 1 0.330853 0.639616 0
532 1 0.352238 0.600325 0
562 1 0.349555 0.624229 0
563 1 0.385654 0.611677 0
564 1 0.371805 0.632402 0
595 1 0.395086 0.634976 0
593 1 0.353398 0.648846 0
565 1 0.412508 0.618039 0
566 1 0.435666 0.623656 0
596 1 0.418501 0.641514 0
598 1 0.442734 0.648046 0
567 1 0.45124 0.604602 0
597 1 0.45939 0.629893 0
568 1 0.476695 0.611143 0
570 1 0.484259 0.63545 0
574 1 0.0490805 0.651016 0
572 1 0.00542255 0.654294 0
603 1 0.0273454 0.664628 0
602 1 0.00693465 0.679419 0
633 1 0.0306991 0.689378 0
604 1 0.0509179 0.674785 0
605 1 0.0743444 0.660538 0
606 1 0.0746243 0.685211 0
607 1 0.0972219 0.670392 0
637 1 0.0976834 0.694957 0
635 1 0.0537181 0.699264 0
578 1 0.116863 0.65678 0
609 1 0.138634 0.668034 0
608 1 0.118372 0.681898 0
639 1 0.141105 0.692784 0
580 1 0.158236 0.652895 0
611 1 0.182258 0.663895 0
610 1 0.161001 0.677676 0
612 1 0.18234 0.689972 0
613 1 0.203611 0.67458 0
615 1 0.224883 0.660707 0
614 1 0.225626 0.684803 0
617 1 0.246885 0.672329 0
643 1 0.205045 0.700116 0
616 1 0.248813 0.696529 0
588 1 0.268446 0.659943 0
619 1 0.291051 0.671386 0
618 1 0.270465 0.683599 0
590 1 0.312372 0.656146 0
621 1 0.314894 0.681507 0
592 1 0.33577 0.666066 0
622 1 0.340012 0.690103 0
623 1 0.358906 0.673672 0
594 1 0.377887 0.655489 0
624 1 0.384367 0.679854 0
653 1 0.365232 0.697289 0
625 1 0.401519 0.660582 0
627 1 0.425302 0.664768 0
626 1 0.408947 0.684945 0
657 1 0.432092 0.688915 0
628 1 0.449434 0.671627 0
599 1 0.466764 0.653361 0
600 1 0.489595 0.658146 0
629 1 0.472288 0.677554 0
630 1 0.496731 0.684071 0
658 1 0.455734 0.696091 0
632 1 0.00915469 0.703913 0
634 1 0.0334176 0.713492 0
663 1 0.0133488 0.727095 0
664 1 0.0359872 0.738348 0
636 1 0.0773576 0.710056 0
665 1 0.056138 0.723661 0
666 1 0.0791146 0.734398 0
667 1 0.0996143 0.719458 0
695 1 0.0593338 0.748503 0
638 1 0.120833 0.706152 0
640 1 0.14235 0.717609 0
669 1 0.122089 0.731406 0
668 1 0.102077 0.746073 0
670 1 0.145988 0.741811 0
641 1 0.162783 0.703357 0
642 1 0.186311 0.71462 0
671 1 0.164895 0.728389 0
673 1 0.186651 0.740063 0
645 1 0.227419 0.709966 0
644 1 0.207579 0.725342 0
675 1 0.228887 0.737049 0
646 1 0.249224 0.722777 0
647 1 0.272665 0.709732 0
677 1 0.251072 0.747637 0
648 1 0.271855 0.734253 0
679 1 0.294295 0.740655 0
649 1 0.296714 0.71587 0
620 1 0.32063 0.705654 0
651 1 0.346226 0.71371 0
650 1 0.328122 0.731528 0
652 1 0.35234 0.738112 0
655 1 0.390206 0.702952 0
654 1 0.370958 0.720591 0
685 1 0.393982 0.727432 0
683 1 0.377882 0.747166 0
656 1 0.41315 0.709828 0
687 1 0.437786 0.714562 0
686 1 0.420635 0.732444 0
717 1 0.444291 0.739677 0
659 1 0.480004 0.701846 0
689 1 0.460578 0.719953 0
660 1 0.485557 0.726303 0
688 1 0.467575 0.746616 0
662 1 0.0162692 0.752559 0
694 1 0.0399031 0.763534 0
693 1 0.0200777 0.777767 0
725 1 0.0425867 0.787085 0
697 1 0.0812295 0.758726 0
696 1 0.0627138 0.773785 0
727 1 0.0853128 0.784823 0
726 1 0.0658837 0.798398 0
699 1 0.125413 0.756968 0
698 1 0.10493 0.769615 0
700 1 0.12554 0.782181 0
728 1 0.107917 0.797232 0
701 1 0.147703 0.769536 0
731 1 0.14854 0.794232 0
672 1 0.16779 0.75473 0
703 1 0.189151 0.766674 0
702 1 0.169682 0.781552 0
704 1 0.191633 0.791905 0
674 1 0.208669 0.750722 0
676 1 0.230212 0.761766 0
705 1 0.211759 0.776879 0
706 1 0.233537 0.786574 0
707 1 0.254496 0.771668 0
678 1 0.273594 0.758912 0
709 1 0.276953 0.783219 0
680 1 0.296549 0.766413 0
737 1 0.25598 0.796782 0
710 1 0.300304 0.791295 0
681 1 0.315492 0.752867 0
682 1 0.33795 0.759441 0
711 1 0.320138 0.776311 0
712 1 0.343152 0.784534 0
741 1 0.326538 0.802048 0
713 1 0.360973 0.766201 0
714 1 0.385142 0.770797 0
743 1 0.368227 0.789944 0
745 1 0.392434 0.795554 0
684 1 0.403612 0.750929 0
715 1 0.426614 0.757461 0
716 1 0.408945 0.777162 0
747 1 0.433524 0.78331 0
1591 1 0.498624 0.777347 0
718 1 0.451332 0.76543 0
690 1 0.491846 0.750294 0
719 1 0.476184 0.770582 0
720 1 0.481191 0.794379 0
749 1 0.457783 0.789055 0
751 1 0.00348217 0.820452 0
723 1 0.0216116 0.803376 0
722 1 0.0212603 0.838005 0
724 1 0.0442706 0.811026 0
754 1 0.045424 0.834605 0
757 1 0.088645 0.811705 0
755 1 0.0672363 0.824181 0
756 1 0.0867359 0.840082 0
785 1 0.0644154 0.850025 0
729 1 0.129434 0.809729 0
759 1 0.107887 0.825321 0
760 1 0.131108 0.834323 0
730 1 0.151798 0.820361 0
732 1 0.171653 0.805963 0
761 1 0.155043 0.845433 0
763 1 0.173526 0.831247 0
733 1 0.195046 0.817415 0
764 1 0.197655 0.843593 0
735 1 0.213876 0.801791 0
736 1 0.236563 0.811158 0
734 1 0.217185 0.826098 0
767 1 0.23977 0.836477 0
708 1 0.281366 0.806741 0
738 1 0.25995 0.819875 0
769 1 0.282984 0.831908 0
768 1 0.262079 0.844783 0
739 1 0.304822 0.815023 0
740 1 0.305619 0.839764 0
771 1 0.331876 0.828388 0
742 1 0.350869 0.807747 0
773 1 0.357027 0.832778 0
744 1 0.374162 0.814076 0
774 1 0.38091 0.83729 0
775 1 0.397448 0.818815 0
746 1 0.415658 0.801286 0
748 1 0.439697 0.808258 0
777 1 0.42158 0.82507 0
776 1 0.405954 0.843292 0
779 1 0.448088 0.831311 0
750 1 0.465787 0.812955 0
1621 1 0.490041 0.818189 0
780 1 0.471805 0.839145 0
1651 1 0.496172 0.842322 0
753 1 0.0411776 0.8583 0
752 1 0.0167023 0.862056 0
783 1 0.0344287 0.881692 0
782 1 0.010655 0.887226 0
784 1 0.0590566 0.874345 0
786 1 0.0775156 0.89094 0
787 1 0.082863 0.86638 0
815 1 0.0532422 0.897821 0
817 1 0.101272 0.886237 0
758 1 0.109032 0.85245 0
789 1 0.132075 0.858283 0
788 1 0.124741 0.880758 0
790 1 0.143963 0.895275 0
791 1 0.153749 0.870451 0
762 1 0.177649 0.858667 0
793 1 0.168939 0.889302 0
795 1 0.194764 0.881856 0
765 1 0.220144 0.851001 0
796 1 0.218642 0.874981 0
825 1 0.234493 0.894613 0
766 1 0.243634 0.863232 0
797 1 0.268604 0.868374 0
827 1 0.259459 0.891215 0
799 1 0.294036 0.861463 0
798 1 0.286133 0.885401 0
772 1 0.343223 0.851431 0
770 1 0.319785 0.858614 0
800 1 0.312337 0.882417 0
801 1 0.336571 0.875338 0
831 1 0.33024 0.90012 0
802 1 0.354303 0.8929 0
803 1 0.362151 0.867747 0
804 1 0.378732 0.887334 0
805 1 0.387959 0.863846 0
778 1 0.430257 0.8492 0
807 1 0.41141 0.866597 0
808 1 0.436869 0.87411 0
837 1 0.415937 0.891655 0
809 1 0.45306 0.85579 0
1681 1 0.48029 0.862097 0
1711 1 0.48566 0.884954 0
810 1 0.461403 0.878827 0
813 1 0.0287118 0.904816 0
843 1 0.0205351 0.9291 0
814 1 0.0460177 0.921297 0
844 1 0.0382214 0.946188 0
812 1 0.00404039 0.912682 0
816 1 0.0948691 0.910515 0
845 1 0.0708707 0.916838 0
846 1 0.0625117 0.939635 0
847 1 0.0881114 0.934767 0
819 1 0.118505 0.904255 0
818 1 0.111862 0.92828 0
820 1 0.129685 0.94633 0
821 1 0.136248 0.920533 0
849 1 0.104726 0.952429 0
792 1 0.160827 0.913326 0
851 1 0.153547 0.937868 0
823 1 0.185665 0.906573 0
822 1 0.179523 0.931032 0
854 1 0.198074 0.950417 0
794 1 0.20977 0.901261 0
824 1 0.203271 0.925757 0
885 1 0.222628 0.944733 0
855 1 0.229058 0.91973 0
856 1 0.246783 0.937899 0
826 1 0.253251 0.91481 0
857 1 0.270948 0.932826 0
828 1 0.277568 0.909167 0
859 1 0.294536 0.928573 0
829 1 0.302529 0.905359 0
830 1 0.321496 0.923493 0
861 1 0.339034 0.943168 0
860 1 0.312755 0.946789 0
832 1 0.347699 0.917297 0
863 1 0.363059 0.935793 0
833 1 0.370697 0.911185 0
834 1 0.388106 0.929402 0
806 1 0.396504 0.906421 0
835 1 0.418054 0.920398 0
836 1 0.434302 0.943402 0
865 1 0.406046 0.944475 0
838 1 0.450778 0.922477 0
869 1 0.459636 0.94575 0
839 1 0.467687 0.903474 0
840 1 0.476537 0.926133 0
1712 1 0.492501 0.908342 0
842 1 0.0139974 0.952718 0
872 1 0.0233085 0.993972 0
873 1 0.0302497 0.970666 0
871 1 0.00582117 0.976483 0
874 1 0.0481053 0.986502 0
875 1 0.0552822 0.964146 0
876 1 0.0722623 0.981949 0
848 1 0.0804146 0.957987 0
868 1 0.468603 0.969353 0
877 1 0.0967552 0.976519 0
878 1 0.113948 0.993589 0
879 1 0.120686 0.970037 0
881 1 0.138926 0.986758 0
850 1 0.147434 0.962469 0
853 1 0.1724 0.955057 0
852 1 0.165014 0.978996 0
883 1 0.190996 0.972759 0
882 1 0.180232 0.99756 0
13 1 0.204528 0.99258 0
15 1 0.230628 0.988564 0
884 1 0.215471 0.96827 0
886 1 0.239577 0.963164 0
858 1 0.287517 0.951879 0
887 1 0.262621 0.956395 0
17 1 0.255931 0.981386 0
888 1 0.280832 0.976392 0
19 1 0.298907 0.993444 0
18 1 0.274154 1.00047 0
889 1 0.304867 0.969388 0
890 1 0.324279 0.989638 0
891 1 0.33077 0.966253 0
892 1 0.347824 0.984719 0
862 1 0.355638 0.961514 0
864 1 0.379664 0.954991 0
893 1 0.373627 0.977946 0
894 1 0.39057 0.995404 0
895 1 0.397021 0.970601 0
866 1 0.420787 0.964473 0
896 1 0.41619 0.988958 0
867 1 0.444913 0.965912 0
897 1 0.449434 0.990458 0
1771 1 0.492388 0.973938 0
899 1 0.475606 0.993298 0
870 1 0.484487 0.950294 0
902 1 0.534451 0.0254232 0
901 1 0.510005 0.0201121 0
931 1 0.51838 0.0434525 0
903 1 0.526286 0.00160463 0
904 1 0.558892 0.0315487 0
906 1 0.576203 0.0112491 0
935 1 0.583875 0.0368279 0
905 1 0.551427 0.00728148 0
908 1 0.601327 0.0187008 0
937 1 0.608651 0.0430518 0
939 1 0.624955 0.0242982 0
910 1 0.640359 0.00526 0
938 1 0.632783 0.0472098 0
941 1 0.650241 0.0296087 0
912 1 0.666061 0.0110707 0
942 1 0.676249 0.0346055 0
943 1 0.692008 0.0160173 0
973 1 0.69977 0.0400041 0
944 1 0.716833 0.0198339 0
945 1 0.733044 0.00282729 0
946 1 0.742367 0.0262632 0
975 1 0.725658 0.0445185 0
947 1 0.758594 0.00890021 0
948 1 0.76846 0.0328056 0
918 1 0.785879 0.0170954 0
921 1 0.819374 0.00330749 0
949 1 0.810281 0.0262811 0
951 1 0.834746 0.0223918 0
950 1 0.824061 0.0450584 0
952 1 0.850566 0.0402384 0
953 1 0.857428 0.0161238 0
924 1 0.881005 0.00947814 0
954 1 0.875009 0.0339686 0
955 1 0.898206 0.0269236 0
926 1 0.923037 0.0207647 0
957 1 0.940878 0.0380103 0
956 1 0.916316 0.0451694 0
925 1 0.906454 0.00295586 0
928 1 0.948618 0.0138033 0
959 1 0.965983 0.030739 0
930 1 0.989955 0.0249012 0
929 1 0.972238 0.00755073 0
1 1 0.997815 -0.000230302 0
960 1 0.983021 0.0492888 0
933 1 0.542542 0.0499869 0
932 1 0.525441 0.0671876 0
962 1 0.534555 0.091341 0
961 1 0.510129 0.0859457 0
60 1 0.501784 0.0614318 0
963 1 0.550467 0.0734667 0
934 1 0.566744 0.0554706 0
965 1 0.574945 0.0794212 0
964 1 0.558956 0.097376 0
936 1 0.592262 0.0608452 0
966 1 0.598789 0.0841222 0
967 1 0.617482 0.0667374 0
968 1 0.625558 0.088451 0
969 1 0.64323 0.0706636 0
999 1 0.650027 0.0954322 0
940 1 0.660313 0.0532408 0
970 1 0.66794 0.077072 0
971 1 0.684447 0.0590132 0
972 1 0.691814 0.0837554 0
1001 1 0.673844 0.100979 0
1003 1 0.708561 0.0640383 0
1004 1 0.716849 0.0877821 0
974 1 0.733062 0.0680848 0
1005 1 0.740551 0.0926528 0
976 1 0.750363 0.0501221 0
1007 1 0.759037 0.0751298 0
977 1 0.775611 0.0572033 0
978 1 0.790597 0.0761023 0
1008 1 0.788072 0.0996591 0
1006 1 0.763367 0.099489 0
979 1 0.799938 0.0508641 0
980 1 0.817699 0.069591 0
981 1 0.841729 0.0643179 0
1009 1 0.811312 0.093037 0
1011 1 0.834904 0.0899709 0
985 1 0.892764 0.0513723 0
982 1 0.859219 0.0825104 0
983 1 0.867093 0.0576554 0
984 1 0.884442 0.0757778 0
1013 1 0.877145 0.100342 0
1015 1 0.902345 0.0926772 0
986 1 0.909969 0.0686392 0
987 1 0.93472 0.0632555 0
1017 1 0.927318 0.0864351 0
988 1 0.951973 0.0807928 0
958 1 0.957895 0.0556542 0
989 1 0.976732 0.0739051 0
990 1 0.9937 0.0922145 0
1019 1 0.969951 0.0986251 0
991 1 0.517012 0.108786 0
992 1 0.524638 0.132517 0
993 1 0.540901 0.115297 0
1023 1 0.549904 0.138489 0
1021 1 0.508094 0.150067 0
995 1 0.583022 0.102832 0
994 1 0.566616 0.120705 0
996 1 0.591443 0.12567 0
1025 1 0.57546 0.1455 0
1026 1 0.599731 0.149928 0
997 1 0.607562 0.107635 0
998 1 0.632844 0.112212 0
1027 1 0.616529 0.131774 0
1029 1 0.641115 0.136563 0
1000 1 0.656884 0.118056 0
1031 1 0.683101 0.123745 0
1030 1 0.665857 0.141369 0
1002 1 0.700795 0.107509 0
1032 1 0.68975 0.148219 0
1033 1 0.707865 0.130926 0
1035 1 0.724714 0.112221 0
1034 1 0.732669 0.136248 0
1036 1 0.749178 0.119038 0
1037 1 0.776429 0.123789 0
1038 1 0.795322 0.142758 0
1067 1 0.757889 0.141805 0
1039 1 0.802247 0.119236 0
1010 1 0.826347 0.112243 0
1040 1 0.818753 0.136396 0
1041 1 0.84487 0.129739 0
1012 1 0.851885 0.105976 0
1043 1 0.869729 0.122694 0
1014 1 0.895104 0.11735 0
1044 1 0.886114 0.141286 0
1042 1 0.863149 0.148464 0
1045 1 0.912116 0.134549 0
1016 1 0.919112 0.111384 0
1047 1 0.935868 0.128968 0
1018 1 0.943296 0.104984 0
1049 1 0.960879 0.122151 0
1020 1 0.985469 0.116821 0
1050 1 0.976745 0.141542 0
1046 1 0.953667 0.14732 0
1022 1 0.532545 0.156042 0
1053 1 0.540303 0.179432 0
1051 1 0.514823 0.174156 0
1052 1 0.520817 0.1975 0
1024 1 0.557998 0.161497 0
1055 1 0.581363 0.167195 0
1054 1 0.564596 0.186325 0
1056 1 0.589323 0.191039 0
1028 1 0.623956 0.154248 0
1057 1 0.606026 0.172861 0
1058 1 0.629629 0.178286 0
1087 1 0.612814 0.196456 0
1059 1 0.647959 0.160205 0
1060 1 0.655529 0.183963 0
1061 1 0.672763 0.166791 0
1091 1 0.681854 0.188794 0
1062 1 0.69856 0.171487 0
1063 1 0.71484 0.153593 0
1064 1 0.723889 0.177117 0
1095 1 0.747404 0.183245 0
1093 1 0.707049 0.195409 0
1065 1 0.740484 0.159378 0
1066 1 0.764941 0.165725 0
1068 1 0.788896 0.166378 0
1097 1 0.772969 0.188843 0
1071 1 0.838583 0.15312 0
1069 1 0.812883 0.160548 0
1070 1 0.830319 0.17817 0
1099 1 0.805703 0.184628 0
1101 1 0.848583 0.195553 0
1072 1 0.85556 0.171786 0
1073 1 0.881002 0.165895 0
1103 1 0.875769 0.190029 0
1074 1 0.899239 0.183198 0
1077 1 0.92952 0.152946 0
1075 1 0.905392 0.158816 0
1076 1 0.922148 0.177565 0
1107 1 0.942267 0.195198 0
1078 1 0.947662 0.17163 0
1048 1 0.971584 0.165473 0
151 1 0.996634 0.156981 0
1079 1 0.989716 0.181167 0
1109 1 0.966834 0.188962 0
1083 1 0.547399 0.203758 0
1082 1 0.528933 0.220022 0
1111 1 0.512067 0.238058 0
1113 1 0.535424 0.246235 0
1081 1 0.5044 0.214689 0
1084 1 0.552955 0.227506 0
1085 1 0.571451 0.209855 0
1086 1 0.596782 0.21535 0
1115 1 0.57751 0.233731 0
1117 1 0.604236 0.237995 0
1089 1 0.637957 0.201331 0
1088 1 0.621752 0.219871 0
1119 1 0.644649 0.227268 0
1118 1 0.627271 0.244977 0
1090 1 0.663957 0.207729 0
1092 1 0.689146 0.213423 0
1121 1 0.672323 0.231446 0
1122 1 0.697161 0.237835 0
1094 1 0.73122 0.201488 0
1123 1 0.714352 0.220327 0
1124 1 0.72042 0.245985 0
1125 1 0.738092 0.226405 0
1096 1 0.755014 0.207572 0
1127 1 0.778121 0.214551 0
1126 1 0.762863 0.233356 0
1128 1 0.788045 0.24062 0
1098 1 0.801228 0.208469 0
1100 1 0.824866 0.201399 0
1131 1 0.843425 0.218952 0
1129 1 0.820281 0.225107 0
1130 1 0.83617 0.245049 0
1159 1 0.81241 0.247672 0
1102 1 0.869032 0.212298 0
1104 1 0.893743 0.207007 0
1132 1 0.859819 0.236372 0
1133 1 0.885843 0.231377 0
1105 1 0.918426 0.202004 0
1135 1 0.910067 0.226727 0
1106 1 0.934887 0.219327 0
1136 1 0.929021 0.243317 0
1134 1 0.903392 0.249878 0
1137 1 0.952608 0.237788 0
1108 1 0.959468 0.213784 0
1110 1 0.985012 0.204836 0
1139 1 0.977198 0.231076 0
1140 1 0.994615 0.246924 0
1112 1 0.517574 0.264626 0
1143 1 0.541683 0.269248 0
1142 1 0.523484 0.288389 0
1144 1 0.549167 0.29195 0
1320 1 0.977162 0.458013 0
1114 1 0.560435 0.251602 0
1116 1 0.584761 0.257718 0
1145 1 0.5669 0.274107 0
1146 1 0.592625 0.280498 0
1147 1 0.609569 0.262369 0
1149 1 0.634362 0.267393 0
1148 1 0.618084 0.285759 0
1179 1 0.641346 0.293688 0
1120 1 0.65287 0.250618 0
1151 1 0.677033 0.255209 0
1150 1 0.659573 0.275006 0
1152 1 0.684083 0.279787 0
1181 1 0.665781 0.29923 0