ITEM: TIMESTEP
202000
ITEM: NUMBER OF ATOMS
1800
ITEM: BOX BOUNDS pp pp pp
3.3383562454068567e+00 1.5506164375459036e+02
3.3383562454068567e+00 1.5506164375459036e+02
0.0000000000000000e+00 5.2800000000000002e+00
ITEM: ATOMS id type xs ys zs
2 1 0.0170217 0.0194833 0
3 1 0.0426522 0.0120392 0
33 1 0.0341671 0.0371748 0
31 1 0.0098701 0.0433786 0
1 1 -0.000716296 0.00221738 0
4 1 0.0583978 0.0302537 0
6 1 0.0839732 0.023945 0
5 1 0.0665001 0.00704431 0
35 1 0.074875 0.0483075 0
7 1 0.0909244 0.000935958 0
37 1 0.100064 0.0427229 0
8 1 0.108562 0.017402 0
9 1 0.124803 0.0363049 0
880 1 0.132198 0.0122133 0
10 1 0.149301 0.0309096 0
11 1 0.156871 0.00639343 0
12 1 0.175163 0.0236985 0
43 1 0.192421 0.0429349 0
14 1 0.199865 0.0194411 0
882 1 0.183784 0.000294962 0
41 1 0.166658 0.0480496 0
44 1 0.216864 0.0370358 0
45 1 0.224119 0.0128337 0
46 1 0.242634 0.0304563 0
16 1 0.247881 0.00687856 0
47 1 0.267164 0.024344 0
49 1 0.29075 0.0182785 0
48 1 0.28417 0.0416013 0
18 1 0.272324 -0.000690231 0
77 1 0.258866 0.0487579 0
50 1 0.307852 0.0370959 0
20 1 0.315627 0.0125249 0
51 1 0.332324 0.0311293 0
21 1 0.340116 0.00571474 0
52 1 0.348354 0.0496409 0
22 1 0.355385 0.0245112 0
24 1 0.381408 0.0210221 0
53 1 0.372578 0.045096 0
55 1 0.397669 0.0398914 0
23 1 0.365975 0.00173794 0
25 1 0.409541 0.0146453 0
26 1 0.422006 0.0346808 0
27 1 0.43456 0.0102027 0
28 1 0.44617 0.0335272 0
30 1 0.494674 0.0367146 0
898 1 0.459479 0.012043 0
29 1 0.484175 0.0142553 0
59 1 0.470924 0.0357283 0
32 1 0.0266668 0.061819 0
62 1 0.0185325 0.0857902 0
63 1 0.0428208 0.0792051 0
61 1 0.00195878 0.0666157 0
34 1 0.0509671 0.0545388 0
65 1 0.0678404 0.0721382 0
66 1 0.0838655 0.0913175 0
36 1 0.0914975 0.066086 0
64 1 0.0593957 0.0970708 0
39 1 0.142498 0.054375 0
38 1 0.117457 0.0607173 0
67 1 0.108056 0.0840429 0
69 1 0.134818 0.0772145 0
70 1 0.150601 0.0969449 0
40 1 0.159508 0.0717763 0
71 1 0.176798 0.0911552 0
42 1 0.184088 0.0665272 0
72 1 0.200993 0.0853616 0
73 1 0.210021 0.0603056 0
74 1 0.225865 0.0784149 0
75 1 0.234465 0.0541376 0
106 1 0.243833 0.0968907 0
76 1 0.250436 0.0725547 0
78 1 0.276023 0.067751 0
109 1 0.29208 0.0872129 0
107 1 0.268119 0.092189 0
79 1 0.300179 0.0617317 0
80 1 0.315649 0.0822376 0
81 1 0.32348 0.0562361 0
82 1 0.340333 0.0745929 0
111 1 0.335012 0.0996819 0
83 1 0.366131 0.0684883 0
113 1 0.37967 0.0887802 0
54 1 0.390414 0.0644859 0
56 1 0.412938 0.0579023 0
57 1 0.438276 0.0576312 0
85 1 0.422577 0.0796009 0
87 1 0.446768 0.0850408 0
84 1 0.403629 0.0955361 0
88 1 0.469433 0.0948726 0
58 1 0.463214 0.0651558 0
89 1 0.485896 0.0773894 0
93 1 0.0354308 0.10316 0
92 1 0.0278326 0.127046 0
91 1 0.0108937 0.109182 0
121 1 0.00264213 0.133589 0
123 1 0.0445449 0.145057 0
94 1 0.0521227 0.120118 0
95 1 0.0766904 0.114764 0
125 1 0.0685073 0.138506 0
96 1 0.0942966 0.132206 0
68 1 0.12675 0.100688 0
97 1 0.101652 0.108551 0
98 1 0.118163 0.125161 0
99 1 0.143082 0.120835 0
129 1 0.13546 0.143994 0
100 1 0.167666 0.113869 0
130 1 0.160041 0.137257 0
131 1 0.184459 0.131685 0
101 1 0.193732 0.108705 0
103 1 0.218871 0.103169 0
102 1 0.21112 0.126086 0
105 1 0.236372 0.120288 0
104 1 0.228993 0.143997 0
133 1 0.201684 0.149173 0
136 1 0.253694 0.140356 0
135 1 0.261595 0.116611 0
137 1 0.277541 0.135032 0
108 1 0.287201 0.111471 0
139 1 0.30146 0.134577 0
110 1 0.311271 0.110247 0
141 1 0.343976 0.123948 0
140 1 0.325328 0.14085 0
142 1 0.349371 0.150092 0
112 1 0.36173 0.106313 0
114 1 0.386686 0.11276 0
143 1 0.368536 0.130006 0
144 1 0.392112 0.137321 0
86 1 0.428573 0.103277 0
115 1 0.409792 0.119707 0
116 1 0.434203 0.127689 0
145 1 0.415031 0.1447 0
117 1 0.451815 0.110915 0
90 1 0.492936 0.101975 0
118 1 0.458256 0.134245 0
119 1 0.476068 0.118937 0
149 1 0.483138 0.142692 0
120 1 0.500468 0.124758 0
122 1 0.0199382 0.150673 0
153 1 0.0372477 0.168817 0
152 1 0.0126379 0.17576 0
183 1 0.0299502 0.193002 0
1080 1 0.00519325 0.200123 0
124 1 0.0616838 0.163661 0
126 1 0.0865934 0.155412 0
155 1 0.0794577 0.180002 0
154 1 0.0548094 0.186934 0
156 1 0.0960942 0.198082 0
127 1 0.111856 0.149132 0
128 1 0.128441 0.167653 0
157 1 0.104173 0.173177 0
160 1 0.146422 0.185656 0
158 1 0.119454 0.190699 0
132 1 0.178109 0.155742 0
159 1 0.15432 0.161803 0
161 1 0.170324 0.179896 0
162 1 0.186222 0.198469 0
163 1 0.195537 0.174683 0
134 1 0.218962 0.165058 0
164 1 0.228751 0.186216 0
165 1 0.244083 0.166197 0
166 1 0.252376 0.191159 0
167 1 0.267393 0.172301 0
138 1 0.28537 0.156766 0
168 1 0.293399 0.180776 0
197 1 0.275297 0.197372 0
169 1 0.309756 0.160262 0
171 1 0.332624 0.168096 0
170 1 0.316405 0.186768 0
201 1 0.340577 0.191882 0
172 1 0.357551 0.17442 0
173 1 0.374514 0.155544 0
174 1 0.381293 0.18115 0
175 1 0.397747 0.1632 0
203 1 0.364602 0.199367 0
147 1 0.440868 0.15245 0
146 1 0.422765 0.169457 0
205 1 0.405543 0.187839 0
176 1 0.429026 0.195134 0
177 1 0.446581 0.177636 0
148 1 0.464021 0.159867 0
150 1 0.489985 0.166567 0
179 1 0.472199 0.183258 0
180 1 0.496291 0.190836 0
182 1 0.0219095 0.218209 0
213 1 0.0406757 0.235507 0
211 1 0.0145997 0.242494 0
184 1 0.0476571 0.210709 0
185 1 0.0717148 0.204536 0
186 1 0.0884144 0.221675 0
215 1 0.0644287 0.227738 0
216 1 0.0827928 0.247169 0
187 1 0.113173 0.216019 0
188 1 0.132601 0.243503 0
189 1 0.136892 0.208714 0
217 1 0.105737 0.238845 0
191 1 0.162079 0.205585 0
190 1 0.152927 0.228107 0
192 1 0.19325 0.22124 0
221 1 0.175618 0.237096 0
223 1 0.199816 0.245039 0
193 1 0.209693 0.202055 0
194 1 0.217318 0.226907 0
195 1 0.234653 0.208919 0
225 1 0.241295 0.232703 0
196 1 0.258578 0.215804 0
198 1 0.282321 0.221384 0
227 1 0.265279 0.239849 0
228 1 0.288172 0.246232 0
199 1 0.299368 0.204284 0
200 1 0.323968 0.211196 0
229 1 0.305868 0.229261 0
231 1 0.329645 0.235332 0
202 1 0.34713 0.216912 0
204 1 0.388702 0.205606 0
233 1 0.371233 0.223865 0
235 1 0.394544 0.229795 0
232 1 0.353866 0.241431 0
234 1 0.378182 0.247266 0
207 1 0.4367 0.219156 0
206 1 0.418332 0.234801 0
237 1 0.442576 0.242166 0
178 1 0.454256 0.201723 0
208 1 0.461133 0.225106 0
209 1 0.479308 0.207859 0
210 1 0.486262 0.232308 0
239 1 0.466047 0.249542 0
212 1 0.00657626 0.266321 0
243 1 0.034213 0.259716 0
242 1 0.00816822 0.290054 0
273 1 0.0333241 0.298682 0
244 1 0.0502342 0.281685 0
214 1 0.0575099 0.25201 0
245 1 0.0739709 0.270706 0
247 1 0.0775837 0.294208 0
218 1 0.0973135 0.278309 0
219 1 0.115085 0.261526 0
249 1 0.138415 0.268318 0
248 1 0.120378 0.28707 0
250 1 0.143705 0.294338 0
220 1 0.156549 0.252686 0
222 1 0.180218 0.261779 0
251 1 0.162192 0.277172 0
252 1 0.185798 0.285364 0
224 1 0.222701 0.251054 0
253 1 0.204749 0.268909 0
255 1 0.229283 0.276107 0
254 1 0.209907 0.292671 0
226 1 0.246283 0.257286 0
285 1 0.234139 0.30017 0
256 1 0.253703 0.281764 0
257 1 0.27048 0.263898 0
259 1 0.294126 0.27 0
258 1 0.277007 0.287703 0
289 1 0.300908 0.294976 0
230 1 0.312248 0.25251 0
260 1 0.318963 0.276695 0
261 1 0.336082 0.258666 0
262 1 0.342233 0.281984 0
291 1 0.324955 0.301381 0
263 1 0.360375 0.265296 0
264 1 0.38471 0.271511 0
293 1 0.366804 0.289223 0
295 1 0.391426 0.295176 0
265 1 0.402584 0.254284 0
236 1 0.426049 0.259663 0
266 1 0.408287 0.278466 0
267 1 0.433099 0.284838 0
238 1 0.450096 0.266642 0
240 1 0.490523 0.257603 0
269 1 0.473571 0.275101 0
268 1 0.45583 0.292311 0
270 1 0.479606 0.29897 0
1141 1 0.498094 0.28129 0
271 1 0.0128974 0.314969 0
272 1 0.0371056 0.324208 0
301 1 0.0181653 0.33915 0
303 1 0.0424671 0.347963 0
275 1 0.0561853 0.307277 0
276 1 0.0807459 0.317665 0
274 1 0.0610176 0.332508 0
305 1 0.0863605 0.341312 0
246 1 0.100319 0.303326 0
279 1 0.125457 0.311572 0
277 1 0.106635 0.326992 0
278 1 0.130938 0.335502 0
280 1 0.149956 0.31962 0
281 1 0.167081 0.302443 0
311 1 0.155343 0.343385 0
283 1 0.191438 0.309211 0
282 1 0.174412 0.327162 0
313 1 0.197876 0.334346 0
284 1 0.216228 0.318174 0
315 1 0.220786 0.342919 0
286 1 0.240176 0.323654 0
316 1 0.245126 0.347829 0
287 1 0.25863 0.305382 0
288 1 0.282852 0.311919 0
317 1 0.263809 0.329932 0
319 1 0.287414 0.33598 0
290 1 0.306203 0.318855 0
321 1 0.312823 0.341854 0
292 1 0.331679 0.326424 0
323 1 0.348788 0.306382 0
322 1 0.338202 0.349244 0
294 1 0.373154 0.313123 0
324 1 0.356095 0.331264 0
325 1 0.37951 0.337823 0
296 1 0.396163 0.320752 0
326 1 0.403736 0.345309 0
297 1 0.414741 0.302628 0
298 1 0.438521 0.310001 0
327 1 0.421521 0.327204 0
328 1 0.444809 0.334251 0
357 1 0.428108 0.352564 0
299 1 0.462867 0.316888 0
300 1 0.486826 0.322963 0
329 1 0.47026 0.340393 0
1201 1 0.494126 0.346917 0
331 1 0.00361471 0.378613 0
302 1 0.0232421 0.363469 0
332 1 0.0269342 0.387884 0
333 1 0.047886 0.371798 0
334 1 0.0507579 0.396496 0
304 1 0.0677585 0.355689 0
306 1 0.0906115 0.36613 0
335 1 0.0727234 0.382514 0
337 1 0.0966873 0.390491 0
307 1 0.111291 0.35088 0
309 1 0.135963 0.359106 0
308 1 0.116043 0.375239 0
339 1 0.140509 0.383816 0
312 1 0.17845 0.351575 0
310 1 0.160131 0.367569 0
341 1 0.163981 0.391973 0
343 1 0.183121 0.375688 0
314 1 0.202804 0.359385 0
345 1 0.2262 0.367993 0
344 1 0.207628 0.385084 0
375 1 0.232484 0.391523 0
346 1 0.251122 0.372287 0
318 1 0.269737 0.354135 0
349 1 0.29403 0.361215 0
347 1 0.27673 0.379585 0
377 1 0.258178 0.395784 0
350 1 0.301162 0.38455 0
320 1 0.318247 0.367174 0
351 1 0.345195 0.372414 0
381 1 0.328178 0.389969 0
352 1 0.35175 0.397039 0
353 1 0.362014 0.355519 0
355 1 0.387544 0.362783 0
354 1 0.369185 0.379162 0
385 1 0.393235 0.387099 0
356 1 0.411109 0.369762 0
387 1 0.435219 0.375291 0
386 1 0.418009 0.392866 0
359 1 0.452384 0.357679 0
358 1 0.459573 0.38158 0
330 1 0.477414 0.36451 0
360 1 0.484397 0.388966 0
361 1 0.008552 0.404015 0
363 1 0.032141 0.411787 0
362 1 0.0142949 0.428466 0
364 1 0.0376472 0.437041 0
336 1 0.0768693 0.407173 0
365 1 0.0572604 0.421118 0
395 1 0.0617003 0.445348 0
367 1 0.100582 0.416199 0
338 1 0.120223 0.399528 0
366 1 0.105129 0.440464 0
369 1 0.124853 0.423497 0
340 1 0.145178 0.408441 0
368 1 0.129237 0.44805 0
370 1 0.149501 0.433106 0
342 1 0.187838 0.400451 0
371 1 0.168455 0.417061 0
401 1 0.172298 0.441679 0
372 1 0.191341 0.426142 0
373 1 0.210745 0.409178 0
374 1 0.215279 0.435529 0
376 1 0.234105 0.417197 0
405 1 0.238523 0.442772 0
348 1 0.281624 0.403037 0
407 1 0.276591 0.439779 0
378 1 0.260741 0.420529 0
409 1 0.294086 0.424247 0
408 1 0.29881 0.449116 0
379 1 0.310689 0.407817 0
380 1 0.317695 0.431984 0
382 1 0.334557 0.414515 0
411 1 0.342415 0.438752 0
413 1 0.358767 0.420293 0
383 1 0.376491 0.403755 0
414 1 0.383521 0.427808 0
412 1 0.364979 0.445538 0
384 1 0.400977 0.410936 0
388 1 0.443218 0.39922 0
415 1 0.407079 0.434956 0
417 1 0.42543 0.416185 0
416 1 0.430989 0.441664 0
419 1 0.448681 0.424318 0
389 1 0.466747 0.406461 0
418 1 0.472304 0.429844 0
390 1 0.491515 0.412601 0
420 1 0.496548 0.436271 0
447 1 0.455274 0.447772 0
393 1 0.0190999 0.453715 0
422 1 0.00336475 0.494041 0
423 1 0.0231798 0.478645 0
394 1 0.0427266 0.462721 0
425 1 0.0461032 0.487779 0
397 1 0.0858808 0.455879 0
396 1 0.0656521 0.470861 0
426 1 0.0695487 0.497413 0
427 1 0.0892732 0.480697 0
398 1 0.109241 0.465443 0
428 1 0.113039 0.489784 0
429 1 0.132334 0.473262 0
459 1 0.13777 0.497267 0
403 1 0.194619 0.451384 0
399 1 0.151749 0.457435 0
400 1 0.175841 0.466118 0
430 1 0.156402 0.482215 0
431 1 0.17969 0.492823 0
402 1 0.198326 0.477901 0
404 1 0.219467 0.461096 0
432 1 0.220886 0.486513 0
433 1 0.240531 0.471817 0
434 1 0.244624 0.497555 0
435 1 0.258674 0.456334 0
436 1 0.263152 0.481048 0
406 1 0.281439 0.465628 0
437 1 0.286897 0.491009 0
439 1 0.305023 0.47279 0
410 1 0.323847 0.45585 0
440 1 0.329031 0.479722 0
441 1 0.347533 0.463506 0
438 1 0.311692 0.496959 0
471 1 0.353402 0.488287 0
472 1 0.377193 0.494339 0
442 1 0.371268 0.469668 0
473 1 0.394702 0.476021 0
443 1 0.389096 0.452315 0
444 1 0.418217 0.48303 0
477 1 0.442621 0.489727 0
446 1 0.437013 0.466106 0
445 1 0.412122 0.459289 0
478 1 0.467145 0.49548 0
450 1 0.486291 0.477858 0
449 1 0.479196 0.453307 0
448 1 0.4619 0.471948 0
453 1 0.0074458 0.518345 0
452 1 0.0128449 0.54301 0
454 1 0.0311003 0.527324 0
424 1 0.0267119 0.503357 0
455 1 0.0498335 0.512269 0
485 1 0.0542771 0.537523 0
456 1 0.0743416 0.52139 0
486 1 0.0794251 0.546099 0
457 1 0.0940413 0.505011 0
487 1 0.098559 0.530294 0
458 1 0.118219 0.514017 0
488 1 0.123041 0.539686 0
489 1 0.141068 0.522843 0
490 1 0.145241 0.549732 0
462 1 0.184104 0.518239 0
491 1 0.163912 0.533262 0
460 1 0.161022 0.50787 0
492 1 0.187983 0.543012 0
461 1 0.203317 0.502654 0
493 1 0.207082 0.528692 0
463 1 0.226006 0.513051 0
495 1 0.230966 0.537521 0
464 1 0.250205 0.522465 0
466 1 0.27473 0.530703 0
465 1 0.268987 0.50753 0
467 1 0.293714 0.514659 0
497 1 0.298421 0.538366 0
496 1 0.255622 0.546972 0
468 1 0.316543 0.521239 0
469 1 0.334812 0.504027 0
499 1 0.340471 0.528624 0
498 1 0.322121 0.545196 0
470 1 0.359659 0.512426 0
503 1 0.383557 0.519473 0
505 1 0.389611 0.543427 0
501 1 0.364255 0.537142 0
474 1 0.401205 0.500764 0
476 1 0.407595 0.525645 0
509 1 0.433116 0.531174 0
475 1 0.424755 0.50708 0
507 1 0.449932 0.513549 0
506 1 0.41506 0.549509 0
479 1 0.475395 0.520822 0
480 1 0.45634 0.537674 0
1381 1 0.499797 0.526336 0
510 1 0.481543 0.544873 0
1351 1 0.491572 0.502353 0
483 1 0.0355336 0.552273 0
513 1 0.0159146 0.567785 0
514 1 0.0399227 0.575774 0
512 1 0.0202267 0.592543 0
484 1 0.0593659 0.561019 0
515 1 0.0818521 0.570927 0
545 1 0.0621084 0.586148 0
516 1 0.0854109 0.595992 0
517 1 0.102776 0.554403 0
518 1 0.104748 0.579719 0
519 1 0.125224 0.5647 0
549 1 0.128469 0.589179 0
520 1 0.148497 0.574349 0
521 1 0.168837 0.559102 0
522 1 0.171289 0.583321 0
523 1 0.19228 0.567715 0
553 1 0.195384 0.592053 0
551 1 0.151942 0.599158 0
494 1 0.212294 0.552434 0
524 1 0.215623 0.577464 0
525 1 0.2365 0.563035 0
555 1 0.240513 0.588031 0
526 1 0.262339 0.573652 0
527 1 0.280073 0.555841 0
528 1 0.286962 0.581719 0
557 1 0.267518 0.597366 0
529 1 0.304381 0.563251 0
500 1 0.347116 0.553622 0
530 1 0.329434 0.571015 0
559 1 0.312299 0.588331 0
561 1 0.335598 0.595699 0
531 1 0.353651 0.578046 0
502 1 0.371897 0.562326 0
504 1 0.397769 0.56839 0
533 1 0.37867 0.584779 0
534 1 0.40369 0.592191 0
535 1 0.422301 0.574396 0
508 1 0.439865 0.556785 0
537 1 0.445534 0.580731 0
536 1 0.428472 0.598417 0
539 1 0.463082 0.562269 0
540 1 0.487737 0.569113 0
538 1 0.469279 0.586726 0
569 1 0.493227 0.593717 0
543 1 0.0424082 0.602116 0
542 1 0.0231925 0.618086 0
573 1 0.0255994 0.642385 0
544 1 0.0460672 0.626304 0
571 1 0.00197055 0.63234 0
546 1 0.0664324 0.611754 0
547 1 0.0897927 0.620743 0
575 1 0.0696586 0.635241 0
576 1 0.0928683 0.644817 0
548 1 0.108471 0.604825 0
550 1 0.131662 0.614419 0
577 1 0.113798 0.629828 0
579 1 0.136201 0.638097 0
581 1 0.15586 0.623744 0
552 1 0.175063 0.60814 0
582 1 0.178895 0.63246 0
580 1 0.158533 0.647816 0
583 1 0.199339 0.61809 0
584 1 0.202507 0.642594 0
554 1 0.218508 0.602303 0
556 1 0.244748 0.611618 0
585 1 0.222571 0.626655 0
586 1 0.247534 0.63571 0
587 1 0.271008 0.624588 0
558 1 0.292388 0.606019 0
588 1 0.283023 0.648445 0
589 1 0.30078 0.630395 0
560 1 0.317254 0.613066 0
591 1 0.324769 0.638233 0
562 1 0.342162 0.619417 0
593 1 0.349877 0.64412 0
532 1 0.35977 0.602208 0
563 1 0.386051 0.609525 0
564 1 0.36706 0.627113 0
595 1 0.391668 0.633616 0
565 1 0.41061 0.615643 0
566 1 0.434196 0.622859 0
596 1 0.415221 0.6394 0
598 1 0.438962 0.647308 0
567 1 0.451593 0.605682 0
597 1 0.457308 0.630146 0
568 1 0.475283 0.611937 0
570 1 0.481823 0.636131 0
1442 1 0.498581 0.618513 0
572 1 0.00522086 0.65704 0
603 1 0.028855 0.666691 0
602 1 0.00901959 0.681767 0
633 1 0.0323808 0.691232 0
574 1 0.0492522 0.651296 0
604 1 0.0527942 0.675762 0
605 1 0.0727043 0.660492 0
606 1 0.0774947 0.685128 0
607 1 0.0967793 0.669878 0
637 1 0.100342 0.694614 0
578 1 0.116477 0.655024 0
609 1 0.139592 0.663365 0
608 1 0.12049 0.679892 0
639 1 0.144028 0.68851 0
611 1 0.182683 0.657989 0
610 1 0.162726 0.672383 0
612 1 0.185541 0.683912 0
641 1 0.165699 0.699475 0
615 1 0.225032 0.65239 0
613 1 0.205164 0.667858 0
614 1 0.22783 0.677225 0
643 1 0.208948 0.695159 0
617 1 0.247388 0.660959 0
616 1 0.251655 0.686198 0
619 1 0.29297 0.676592 0
618 1 0.269742 0.67026 0
647 1 0.274909 0.695029 0
590 1 0.306159 0.655869 0
621 1 0.316055 0.682547 0
592 1 0.331255 0.662683 0
622 1 0.340176 0.687258 0
623 1 0.355997 0.668624 0
594 1 0.373423 0.651568 0
624 1 0.381206 0.677056 0
653 1 0.363463 0.694273 0
625 1 0.397952 0.658522 0
627 1 0.42134 0.665058 0
626 1 0.404996 0.683888 0
657 1 0.428492 0.689625 0
628 1 0.445362 0.67216 0
599 1 0.462922 0.653106 0
600 1 0.488457 0.659299 0
629 1 0.471676 0.677989 0
630 1 0.495652 0.683169 0
658 1 0.453497 0.694934 0
632 1 0.0125053 0.705804 0
634 1 0.0368209 0.715536 0
663 1 0.0169314 0.729261 0
664 1 0.0401629 0.740047 0
635 1 0.0561549 0.700425 0
636 1 0.0812684 0.710549 0
665 1 0.0603032 0.725574 0
666 1 0.0842787 0.734897 0
695 1 0.0635982 0.749734 0
667 1 0.104445 0.720379 0
668 1 0.107784 0.74504 0
638 1 0.124448 0.704209 0
640 1 0.147494 0.714667 0
669 1 0.127841 0.730385 0
670 1 0.151789 0.740087 0
642 1 0.190338 0.70968 0
671 1 0.170407 0.724416 0
673 1 0.195585 0.734318 0
645 1 0.233174 0.702471 0
644 1 0.214314 0.719269 0
675 1 0.237819 0.726833 0
674 1 0.219543 0.743967 0
649 1 0.297958 0.701348 0
646 1 0.256369 0.711009 0
677 1 0.262557 0.736301 0
648 1 0.280168 0.71898 0
678 1 0.28633 0.744126 0
679 1 0.303303 0.725199 0
620 1 0.322103 0.705397 0
651 1 0.345846 0.713223 0
650 1 0.327218 0.730453 0
681 1 0.309443 0.749846 0
652 1 0.351328 0.73773 0
655 1 0.386905 0.702646 0
654 1 0.369059 0.720072 0
685 1 0.393785 0.726641 0
683 1 0.376555 0.743898 0
656 1 0.410481 0.70759 0
687 1 0.435812 0.713682 0
686 1 0.418782 0.732142 0
717 1 0.443166 0.738625 0
659 1 0.479012 0.701625 0
689 1 0.460467 0.720954 0
660 1 0.485194 0.726207 0
688 1 0.468256 0.744669 0
662 1 0.019857 0.753877 0
694 1 0.042097 0.764413 0
693 1 0.0219573 0.779105 0
725 1 0.0462223 0.787982 0
692 1 0.00207963 0.792879 0
691 1 -2.42985e-05 0.768908 0
697 1 0.0890703 0.760738 0
696 1 0.067906 0.773798 0
727 1 0.0926101 0.785762 0
726 1 0.0708081 0.798762 0
699 1 0.132637 0.75525 0
698 1 0.112355 0.771008 0
700 1 0.134831 0.781485 0
728 1 0.114574 0.797051 0
672 1 0.174718 0.748878 0
701 1 0.155224 0.765267 0
731 1 0.157269 0.790691 0
703 1 0.20062 0.759707 0
702 1 0.178736 0.773812 0
732 1 0.181731 0.797078 0
676 1 0.243397 0.753147 0
704 1 0.204329 0.786502 0
705 1 0.223819 0.768938 0
706 1 0.247135 0.778624 0
735 1 0.228156 0.79511 0
707 1 0.268087 0.761864 0
709 1 0.271445 0.786735 0
680 1 0.291018 0.768409 0
710 1 0.297306 0.791852 0
682 1 0.334115 0.755623 0
711 1 0.315541 0.775773 0
712 1 0.34019 0.779034 0
741 1 0.322096 0.800645 0
713 1 0.359269 0.76161 0
714 1 0.383746 0.76878 0
743 1 0.365372 0.787306 0
745 1 0.389819 0.793052 0
684 1 0.401542 0.749876 0
715 1 0.424973 0.75632 0
716 1 0.407435 0.774814 0
747 1 0.432626 0.782244 0
746 1 0.414489 0.799652 0
718 1 0.449906 0.76239 0
690 1 0.493037 0.750096 0
719 1 0.474761 0.768607 0
720 1 0.481817 0.792717 0
749 1 0.456913 0.787311 0
1591 1 0.498533 0.774428 0
723 1 0.0259918 0.802754 0
722 1 0.0262093 0.837341 0
1680 1 0.00333557 0.843835 0
751 1 0.00776819 0.820711 0
724 1 0.0491883 0.811746 0
754 1 0.0500015 0.835725 0
757 1 0.0923347 0.810643 0
755 1 0.0726392 0.824286 0
756 1 0.092677 0.842451 0
785 1 0.0692134 0.851889 0
729 1 0.136648 0.806841 0
759 1 0.114304 0.824735 0
760 1 0.138194 0.831517 0
730 1 0.159711 0.818497 0
761 1 0.157248 0.848142 0
763 1 0.185398 0.820862 0
764 1 0.1828 0.845501 0
733 1 0.20966 0.811094 0
736 1 0.232321 0.82199 0
734 1 0.208438 0.835682 0
737 1 0.252561 0.80321 0
708 1 0.277433 0.811575 0
738 1 0.256756 0.827021 0
769 1 0.273591 0.84392 0
740 1 0.297351 0.839866 0
739 1 0.302537 0.815785 0
771 1 0.327179 0.829452 0
742 1 0.346839 0.804559 0
773 1 0.353672 0.829212 0
744 1 0.371395 0.810251 0
774 1 0.377667 0.835121 0
775 1 0.396506 0.817664 0
776 1 0.402822 0.842067 0
748 1 0.438224 0.806252 0
777 1 0.421472 0.824452 0
779 1 0.446074 0.829753 0
778 1 0.427484 0.848337 0
750 1 0.464225 0.811188 0
1621 1 0.48846 0.816997 0
780 1 0.470936 0.834825 0
1651 1 0.494793 0.840676 0
753 1 0.0426427 0.858047 0
752 1 0.0195543 0.861904 0
783 1 0.0357517 0.881269 0
782 1 0.0113476 0.886337 0
784 1 0.0608819 0.875401 0
786 1 0.0785218 0.893584 0
787 1 0.0862109 0.868205 0
815 1 0.0536061 0.898734 0
758 1 0.110177 0.860666 0
817 1 0.103487 0.885621 0
789 1 0.133963 0.856099 0
788 1 0.126907 0.880326 0
790 1 0.144132 0.899139 0
791 1 0.150736 0.873703 0
762 1 0.174862 0.868424 0
793 1 0.168024 0.892293 0
795 1 0.192709 0.886174 0
765 1 0.200593 0.861184 0
768 1 0.248573 0.849966 0
767 1 0.224085 0.85561 0
796 1 0.216271 0.88051 0
766 1 0.240272 0.874292 0
825 1 0.234225 0.89776 0
797 1 0.265985 0.868689 0
827 1 0.258186 0.893064 0
798 1 0.28339 0.888189 0
799 1 0.290107 0.863832 0
772 1 0.340464 0.851423 0
770 1 0.315391 0.857046 0
800 1 0.307499 0.881261 0
801 1 0.332467 0.875573 0
831 1 0.326254 0.899301 0
802 1 0.352403 0.892531 0
803 1 0.359223 0.867581 0
804 1 0.378603 0.88615 0
805 1 0.384175 0.862123 0
807 1 0.408704 0.86697 0
808 1 0.43642 0.871676 0
837 1 0.442631 0.894746 0
809 1 0.453096 0.853622 0
1681 1 0.477147 0.859376 0
1711 1 0.484818 0.883234 0
810 1 0.460851 0.878355 0
813 1 0.0293835 0.904929 0
843 1 0.0230893 0.928231 0
844 1 0.0388004 0.948609 0
812 1 0.00570523 0.91132 0
814 1 0.0478937 0.923444 0
845 1 0.0719878 0.916604 0
846 1 0.0646042 0.941432 0
847 1 0.0888734 0.935191 0
816 1 0.0964698 0.9113 0
819 1 0.120754 0.9056 0
818 1 0.113486 0.929125 0
820 1 0.131259 0.946156 0
821 1 0.138367 0.922145 0
792 1 0.161764 0.916845 0
851 1 0.154014 0.941107 0
823 1 0.186114 0.910141 0
822 1 0.17914 0.934298 0
794 1 0.210129 0.904254 0
824 1 0.203075 0.92802 0
885 1 0.220947 0.94569 0
855 1 0.228318 0.92237 0
856 1 0.245247 0.940618 0
826 1 0.252063 0.917043 0
857 1 0.270529 0.935194 0
828 1 0.276443 0.911524 0
859 1 0.295714 0.928564 0
829 1 0.301163 0.904511 0
830 1 0.32125 0.923252 0
861 1 0.339989 0.942062 0
860 1 0.312754 0.947275 0
832 1 0.345656 0.916329 0
863 1 0.363326 0.935453 0
833 1 0.370211 0.911297 0
834 1 0.386565 0.928567 0
806 1 0.393758 0.905827 0
835 1 0.412252 0.924125 0
836 1 0.431147 0.943119 0
865 1 0.404254 0.947494 0
838 1 0.44896 0.920074 0
870 1 0.484233 0.949863 0
869 1 0.459982 0.944003 0
839 1 0.467358 0.902633 0
840 1 0.475269 0.925858 0
1712 1 0.493912 0.906437 0
842 1 0.0145148 0.953681 0
872 1 0.0240946 0.996881 0
873 1 0.0309962 0.971982 0
871 1 0.00703215 0.978333 0
874 1 0.0500313 0.988365 0
875 1 0.0568615 0.964715 0
876 1 0.0742139 0.982777 0
848 1 0.0811495 0.959528 0
877 1 0.100033 0.976696 0
849 1 0.10544 0.952786 0
878 1 0.115894 0.994341 0
879 1 0.123505 0.969526 0
881 1 0.139638 0.988437 0
850 1 0.148373 0.965771 0
853 1 0.173265 0.958946 0
852 1 0.166177 0.982297 0
883 1 0.18998 0.976261 0
854 1 0.196818 0.952231 0
13 1 0.207544 0.993619 0
15 1 0.23132 0.987871 0
884 1 0.213643 0.969957 0
886 1 0.238074 0.96411 0
858 1 0.28873 0.951739 0
887 1 0.262991 0.958283 0
17 1 0.256314 0.981787 0
888 1 0.280731 0.976001 0
19 1 0.297991 0.994476 0
889 1 0.305602 0.970596 0
890 1 0.323303 0.988232 0
891 1 0.330003 0.96466 0
892 1 0.347364 0.981834 0
894 1 0.390052 0.996894 0
862 1 0.356695 0.960007 0
864 1 0.380886 0.95362 0
893 1 0.372999 0.978354 0
895 1 0.398181 0.97203 0
867 1 0.445195 0.963731 0
866 1 0.421394 0.966484 0
896 1 0.415187 0.991324 0
897 1 0.449816 0.989444 0
868 1 0.469006 0.969 0
899 1 0.475093 0.992578 0
1771 1 0.493345 0.973947 0
902 1 0.535713 0.0249407 0
901 1 0.510623 0.0195017 0
931 1 0.519628 0.0432394 0
903 1 0.52636 0.00137048 0
933 1 0.544105 0.0482683 0
904 1 0.560282 0.0301199 0
906 1 0.576224 0.0117361 0
935 1 0.583851 0.0358699 0
905 1 0.552427 0.00655667 0
908 1 0.601122 0.0189054 0
937 1 0.608333 0.0422745 0
939 1 0.625439 0.0239488 0
910 1 0.6423 0.00564868 0
938 1 0.633219 0.0493083 0
941 1 0.650719 0.030156 0
912 1 0.666944 0.0114829 0
942 1 0.674745 0.0351448 0
943 1 0.690546 0.0171822 0
973 1 0.698699 0.0417383 0
944 1 0.715164 0.0236815 0
945 1 0.73179 0.00516045 0
946 1 0.739104 0.030702 0
975 1 0.722393 0.0493468 0
914 1 0.707726 1.8342e-05 0
947 1 0.756817 0.011875 0
948 1 0.764858 0.0361739 0
918 1 0.781793 0.0167272 0
979 1 0.790034 0.0414546 0
949 1 0.808243 0.0245386 0
951 1 0.836034 0.0203585 0
950 1 0.828203 0.0426697 0
921 1 0.820196 0.00310754 0
952 1 0.852596 0.0369817 0
953 1 0.859017 0.0113627 0
924 1 0.882694 0.00610203 0
954 1 0.87627 0.0298639 0
985 1 0.893341 0.0477762 0
955 1 0.901468 0.0242692 0
926 1 0.925842 0.0190094 0
957 1 0.944086 0.0375165 0
956 1 0.918417 0.0428524 0
928 1 0.950874 0.013727 0
925 1 0.907306 0.000591471 0
959 1 0.967913 0.0316992 0
930 1 0.991909 0.0253109 0
929 1 0.975028 0.00769289 0
960 1 0.985241 0.0494051 0
932 1 0.526586 0.0664346 0
962 1 0.534693 0.0898131 0
961 1 0.509969 0.0842547 0
60 1 0.501825 0.059813 0
963 1 0.551669 0.0729609 0
934 1 0.567686 0.0538838 0
965 1 0.575358 0.0772389 0
936 1 0.591667 0.0591501 0
964 1 0.558991 0.096758 0
966 1 0.598992 0.0837978 0
967 1 0.615802 0.0664296 0
968 1 0.624105 0.090266 0
969 1 0.640406 0.0722667 0
999 1 0.649474 0.0966264 0
940 1 0.657742 0.0544519 0
970 1 0.664261 0.0774003 0
971 1 0.682398 0.0608367 0
972 1 0.689413 0.08429 0
1003 1 0.705804 0.0667726 0
1004 1 0.713931 0.0908723 0
974 1 0.731431 0.0729476 0
1005 1 0.739049 0.0968153 0
976 1 0.747123 0.0544624 0
1007 1 0.756074 0.0777397 0
977 1 0.772129 0.0592407 0
978 1 0.79694 0.066554 0
1008 1 0.780901 0.0841773 0
980 1 0.820569 0.0648577 0
981 1 0.8456 0.0607871 0
1009 1 0.810717 0.0879449 0
1011 1 0.836895 0.0837795 0
982 1 0.862586 0.0777263 0
983 1 0.869989 0.0534826 0
984 1 0.886423 0.0721931 0
1013 1 0.878812 0.096169 0
1015 1 0.903707 0.0906697 0
986 1 0.910845 0.066504 0
987 1 0.935683 0.060636 0
1017 1 0.9286 0.0848058 0
988 1 0.953403 0.0776037 0
958 1 0.961358 0.0546821 0
989 1 0.977827 0.0733413 0
990 1 0.995003 0.0910928 0
1019 1 0.97009 0.0972368 0
991 1 0.516928 0.107085 0
992 1 0.524466 0.130954 0
993 1 0.541505 0.113532 0
1023 1 0.548883 0.136661 0
1021 1 0.507758 0.148586 0
995 1 0.583076 0.101613 0
994 1 0.566246 0.119789 0
996 1 0.590023 0.126034 0
1025 1 0.573115 0.143838 0
997 1 0.607481 0.10742 0
998 1 0.63118 0.114681 0
1027 1 0.614009 0.132637 0
1029 1 0.638082 0.138136 0
1001 1 0.673576 0.102618 0
1000 1 0.655716 0.121218 0
1031 1 0.681123 0.127161 0
1030 1 0.663208 0.144737 0
1002 1 0.697513 0.109153 0
1033 1 0.706034 0.13262 0
1035 1 0.721729 0.114986 0
1034 1 0.732314 0.138916 0
1036 1 0.748537 0.119121 0
1006 1 0.764421 0.101211 0
1037 1 0.773642 0.125414 0
1038 1 0.797609 0.130483 0
1067 1 0.756971 0.14416 0
1039 1 0.792676 0.105616 0
1068 1 0.781801 0.150825 0
1010 1 0.828683 0.106671 0
1040 1 0.822166 0.131219 0
1041 1 0.847044 0.12536 0
1012 1 0.854025 0.101256 0
1043 1 0.870191 0.119771 0
1014 1 0.895217 0.114132 0
1044 1 0.887312 0.137787 0
1042 1 0.863469 0.144831 0
1018 1 0.945764 0.102093 0
1045 1 0.912128 0.131287 0
1016 1 0.919977 0.108339 0
1047 1 0.935821 0.125497 0
1077 1 0.929011 0.150354 0
1049 1 0.961329 0.121357 0
1020 1 0.986906 0.115045 0
1050 1 0.977847 0.139553 0
1046 1 0.953232 0.143806 0
1022 1 0.531766 0.154297 0
1053 1 0.538871 0.178121 0
1051 1 0.514965 0.173007 0
1052 1 0.521176 0.196041 0
1024 1 0.55559 0.160384 0
1055 1 0.580717 0.167907 0
1054 1 0.563411 0.1846 0
1056 1 0.587692 0.192071 0
1026 1 0.596895 0.149959 0
1028 1 0.621574 0.15664 0
1057 1 0.605318 0.174664 0
1058 1 0.629525 0.180408 0
1059 1 0.646066 0.162373 0
1087 1 0.613718 0.198726 0
1032 1 0.689338 0.151637 0
1060 1 0.654823 0.186541 0
1061 1 0.671807 0.168394 0
1091 1 0.680062 0.192619 0
1062 1 0.697827 0.174806 0
1063 1 0.713866 0.156044 0
1064 1 0.722669 0.179297 0
1065 1 0.738756 0.161776 0
1093 1 0.706153 0.198503 0
1095 1 0.747615 0.18655 0
1066 1 0.764232 0.167663 0
1097 1 0.771335 0.190935 0
1099 1 0.788866 0.173892 0
1098 1 0.795944 0.197283 0
1071 1 0.838806 0.148818 0
1069 1 0.809614 0.152742 0
1070 1 0.826724 0.171238 0
1101 1 0.846964 0.190519 0
1100 1 0.820946 0.196154 0
1072 1 0.855899 0.167954 0
1073 1 0.880353 0.162411 0
1103 1 0.872871 0.186121 0
1074 1 0.896926 0.18052 0
1075 1 0.904683 0.157206 0
1076 1 0.922107 0.174245 0
1107 1 0.93901 0.192698 0
1078 1 0.946502 0.169557 0
1048 1 0.970869 0.162867 0
151 1 0.995672 0.157159 0
1079 1 0.988412 0.181143 0
1109 1 0.963425 0.186778 0
1083 1 0.544972 0.202556 0
1082 1 0.527542 0.220187 0
1111 1 0.510008 0.239935 0
1113 1 0.535121 0.244319 0
1081 1 0.502766 0.214446 0
1084 1 0.552609 0.226107 0
1085 1 0.57004 0.209331 0
1086 1 0.595456 0.215831 0
1115 1 0.576753 0.233088 0
1117 1 0.601664 0.239791 0
1089 1 0.637731 0.203975 0
1088 1 0.619902 0.221966 0
1119 1 0.644554 0.229125 0
1118 1 0.626539 0.245169 0
1090 1 0.662247 0.209977 0
1092 1 0.687436 0.21633 0
1121 1 0.668401 0.233628 0
1122 1 0.693838 0.240493 0
1094 1 0.730489 0.20325 0
1123 1 0.711205 0.22262 0
1124 1 0.720092 0.246162 0
1125 1 0.735695 0.227374 0
1096 1 0.75403 0.210446 0
1127 1 0.779347 0.21535 0
1126 1 0.760241 0.235053 0
1128 1 0.784682 0.240816 0
1131 1 0.838209 0.21372 0
1129 1 0.807185 0.220175 0
1130 1 0.831543 0.237331 0
1159 1 0.809391 0.24608 0
1102 1 0.863029 0.209403 0
1104 1 0.889244 0.204571 0
1132 1 0.85516 0.234011 0
1133 1 0.881353 0.230759 0
1134 1 0.898797 0.247532 0
1105 1 0.914209 0.198625 0
1135 1 0.905821 0.223111 0
1106 1 0.929538 0.217643 0
1136 1 0.922482 0.241699 0
1137 1 0.947256 0.236051 0
1108 1 0.956233 0.210201 0
1110 1 0.981052 0.205057 0
1139 1 0.972477 0.229603 0
1140 1 0.990271 0.24772 0
181 1 0.996764 0.223065 0
1112 1 0.516507 0.262692 0
1143 1 0.540245 0.268806 0
1142 1 0.522807 0.28776 0
1144 1 0.546722 0.293803 0
1114 1 0.559885 0.250208 0
1116 1 0.582931 0.256827 0
1145 1 0.565446 0.275318 0
1146 1 0.590155 0.281163 0
1175 1 0.571692 0.299345 0
1147 1 0.608211 0.263666 0
1149 1 0.63211 0.26892 0
1148 1 0.614753 0.287106 0
1179 1 0.641361 0.293141 0
1120 1 0.651635 0.251567 0
1151 1 0.675478 0.257439 0