ITEM: TIMESTEP
158000
ITEM: NUMBER OF ATOMS
1800
ITEM: BOX BOUNDS pp pp pp
3.1428626753112781e+00 1.5525713732468665e+02
3.1428626753112781e+00 1.5525713732468665e+02
0.0000000000000000e+00 5.2800000000000002e+00
ITEM: ATOMS id type xs ys zs
2 1 0.0177374 0.018456 0
3 1 0.0418253 0.0130066 0
33 1 0.0340095 0.0364334 0
31 1 0.0100772 0.0426758 0
1 1 0.000140543 0.00110305 0
4 1 0.0597461 0.029375 0
6 1 0.0842681 0.0238666 0
5 1 0.0667951 0.00625133 0
35 1 0.0755501 0.0474342 0
7 1 0.092304 0.000497877 0
37 1 0.101414 0.0421837 0
8 1 0.108465 0.0182789 0
9 1 0.126169 0.0359532 0
880 1 0.134697 0.0127001 0
10 1 0.15172 0.0310186 0
11 1 0.158739 0.0072978 0
12 1 0.177876 0.0244893 0
43 1 0.193429 0.0431876 0
41 1 0.16837 0.0482718 0
241 1 0.00020644 0.290052 0
14 1 0.201854 0.0175691 0
44 1 0.217352 0.0360913 0
45 1 0.22538 0.0115933 0
46 1 0.242525 0.0295168 0
16 1 0.249568 0.00564457 0
47 1 0.267863 0.0239741 0
49 1 0.291524 0.0194249 0
48 1 0.283489 0.0438598 0
18 1 0.275057 0.000651005 0
50 1 0.307502 0.0391572 0
20 1 0.315019 0.0155935 0
51 1 0.331935 0.0342596 0
21 1 0.339568 0.0107492 0
22 1 0.356769 0.0279503 0
24 1 0.381559 0.0244445 0
53 1 0.374114 0.0467037 0
23 1 0.366105 0.00511573 0
55 1 0.397558 0.0418178 0
25 1 0.406634 0.018417 0
26 1 0.422296 0.0375212 0
27 1 0.431464 0.0151966 0
28 1 0.445966 0.0346464 0
30 1 0.494183 0.0391327 0
898 1 0.459334 0.0142589 0
29 1 0.484585 0.0172306 0
59 1 0.470624 0.0370295 0
32 1 0.0269079 0.0603722 0
62 1 0.0182488 0.0842878 0
63 1 0.0427266 0.0788854 0
61 1 0.0026964 0.0658473 0
34 1 0.0514507 0.0544097 0
65 1 0.0673406 0.0724399 0
66 1 0.0841765 0.089716 0
36 1 0.0920717 0.0655843 0
64 1 0.0603169 0.0963327 0
39 1 0.143753 0.0547675 0
38 1 0.117802 0.060618 0
67 1 0.110841 0.0838675 0
69 1 0.13444 0.0799287 0
70 1 0.150474 0.0971639 0
40 1 0.160383 0.0723789 0
71 1 0.176371 0.0904256 0
42 1 0.185288 0.0659879 0
72 1 0.202019 0.0833567 0
73 1 0.210761 0.0605584 0
74 1 0.227993 0.0784317 0
75 1 0.235077 0.0534291 0
106 1 0.244147 0.0971139 0
77 1 0.259379 0.0482062 0
76 1 0.25143 0.0725244 0
78 1 0.275753 0.0670532 0
109 1 0.292442 0.0865208 0
107 1 0.269194 0.0930207 0
79 1 0.300405 0.0631519 0
80 1 0.317064 0.0821867 0
81 1 0.324805 0.0581491 0
82 1 0.341413 0.0764375 0
52 1 0.348603 0.0515556 0
83 1 0.365194 0.0697315 0
113 1 0.379612 0.0905048 0
54 1 0.390263 0.0664873 0
56 1 0.413416 0.0596338 0
57 1 0.43734 0.0607557 0
85 1 0.421128 0.0809575 0
84 1 0.403418 0.0984026 0
87 1 0.445337 0.0864449 0
88 1 0.468449 0.0948431 0
58 1 0.463028 0.0666308 0
89 1 0.486173 0.0778739 0
93 1 0.0354723 0.101989 0
92 1 0.0285925 0.125578 0
91 1 0.0107706 0.108527 0
121 1 0.00516556 0.131649 0
123 1 0.0461859 0.143804 0
122 1 0.0212146 0.149674 0
94 1 0.0534308 0.119711 0
95 1 0.0777501 0.114136 0
125 1 0.0695085 0.139 0
96 1 0.0939226 0.132988 0
68 1 0.126151 0.103113 0
97 1 0.101601 0.107195 0
98 1 0.117991 0.125819 0
99 1 0.143311 0.120077 0
129 1 0.135488 0.142772 0
100 1 0.167762 0.11312 0
130 1 0.161324 0.137699 0
131 1 0.184495 0.130115 0
101 1 0.19395 0.107388 0
103 1 0.219009 0.103062 0
102 1 0.210438 0.125931 0
105 1 0.236071 0.121396 0
104 1 0.228609 0.144531 0
135 1 0.260768 0.115706 0
137 1 0.277324 0.133701 0
108 1 0.286023 0.110772 0
136 1 0.252558 0.141211 0
111 1 0.336669 0.10077 0
139 1 0.302092 0.13475 0
110 1 0.312365 0.107008 0
141 1 0.343052 0.125777 0
140 1 0.326244 0.144385 0
112 1 0.361615 0.107413 0
114 1 0.385 0.11509 0
143 1 0.367357 0.132445 0
144 1 0.391122 0.138915 0
142 1 0.349857 0.149888 0
86 1 0.427535 0.104838 0
115 1 0.409049 0.122037 0
116 1 0.432509 0.129413 0
145 1 0.415398 0.146488 0
117 1 0.451062 0.112512 0
90 1 0.492784 0.102629 0
118 1 0.459238 0.135829 0
119 1 0.475618 0.119113 0
149 1 0.482901 0.142224 0
153 1 0.039046 0.167431 0
152 1 0.0125052 0.174375 0
183 1 0.0312866 0.191316 0
1080 1 0.00557096 0.198288 0
124 1 0.0643755 0.162733 0
126 1 0.0887474 0.157226 0
155 1 0.0794083 0.1812 0
154 1 0.0552428 0.186503 0
156 1 0.0956429 0.198854 0
127 1 0.111755 0.150764 0
128 1 0.127937 0.168967 0
157 1 0.10432 0.176053 0
160 1 0.144739 0.186522 0
158 1 0.120394 0.193294 0
132 1 0.17755 0.15677 0
159 1 0.152414 0.161922 0
161 1 0.168627 0.179515 0
162 1 0.186149 0.19664 0
163 1 0.194126 0.174137 0
133 1 0.200094 0.148983 0
134 1 0.217094 0.165663 0
164 1 0.230136 0.185453 0
165 1 0.244131 0.164644 0
166 1 0.252946 0.19248 0
167 1 0.268178 0.172395 0
138 1 0.285536 0.156735 0
168 1 0.292805 0.180659 0
197 1 0.276094 0.199243 0
169 1 0.308956 0.161527 0
171 1 0.332989 0.168398 0
170 1 0.317153 0.187355 0
201 1 0.340122 0.192153 0
172 1 0.356516 0.175082 0
173 1 0.373955 0.156959 0
174 1 0.381582 0.182067 0
175 1 0.397727 0.163489 0
203 1 0.36434 0.19978 0
147 1 0.440662 0.152905 0
146 1 0.423338 0.170815 0
205 1 0.405033 0.18816 0
176 1 0.430269 0.195869 0
177 1 0.447215 0.177469 0
148 1 0.46468 0.1599 0
150 1 0.489106 0.166179 0
179 1 0.471946 0.18353 0
180 1 0.495431 0.189394 0
182 1 0.0239361 0.214664 0
213 1 0.0411955 0.233634 0
211 1 0.0158756 0.239856 0
184 1 0.0481907 0.209918 0
185 1 0.0710824 0.204535 0
186 1 0.0886846 0.223404 0
215 1 0.0645709 0.228629 0
216 1 0.0814079 0.247572 0
187 1 0.112432 0.216257 0
188 1 0.13262 0.24086 0
189 1 0.136805 0.212065 0
217 1 0.106371 0.240415 0
191 1 0.163182 0.206036 0
190 1 0.153468 0.228721 0
192 1 0.192506 0.219075 0
221 1 0.175583 0.235912 0
223 1 0.199584 0.244065 0
193 1 0.209282 0.199934 0
194 1 0.216225 0.22719 0
195 1 0.234106 0.20999 0
225 1 0.240311 0.234281 0
196 1 0.257729 0.216416 0
198 1 0.283129 0.222644 0
227 1 0.265662 0.240108 0
228 1 0.288729 0.246698 0
199 1 0.299998 0.204571 0
200 1 0.323694 0.211454 0
229 1 0.306979 0.229219 0
231 1 0.330945 0.236392 0
202 1 0.347201 0.218339 0
204 1 0.388014 0.206336 0
233 1 0.371208 0.224873 0
235 1 0.394552 0.229899 0
232 1 0.35331 0.242869 0
234 1 0.377394 0.249288 0
207 1 0.436568 0.219793 0
206 1 0.419571 0.237802 0
237 1 0.44353 0.243323 0
178 1 0.453533 0.201716 0
208 1 0.460303 0.225617 0
209 1 0.478097 0.208027 0
210 1 0.484491 0.232335 0
212 1 0.00705171 0.263171 0
243 1 0.0322822 0.258386 0
242 1 0.0230241 0.281277 0
244 1 0.0482417 0.278489 0
273 1 0.0363432 0.300305 0
214 1 0.0567194 0.253141 0
245 1 0.0724272 0.270742 0
247 1 0.0779598 0.293087 0
218 1 0.0962601 0.27635 0
219 1 0.116124 0.262358 0
249 1 0.139493 0.268945 0
248 1 0.121437 0.285464 0
250 1 0.145259 0.29319 0
220 1 0.15687 0.252678 0
222 1 0.181134 0.260577 0
251 1 0.163449 0.276267 0
252 1 0.187466 0.285224 0
224 1 0.22249 0.251049 0
253 1 0.204284 0.268353 0
255 1 0.227979 0.275424 0
254 1 0.21043 0.29266 0
226 1 0.246606 0.257762 0
285 1 0.234395 0.298324 0
256 1 0.252277 0.281013 0
257 1 0.269897 0.263938 0
259 1 0.295343 0.271013 0
258 1 0.275509 0.28776 0
289 1 0.299578 0.294465 0
230 1 0.312191 0.253225 0
260 1 0.317805 0.278244 0
261 1 0.335592 0.26064 0
262 1 0.342281 0.284398 0
263 1 0.35979 0.267138 0
264 1 0.384041 0.273862 0
293 1 0.366883 0.291868 0
295 1 0.391244 0.298081 0
265 1 0.401673 0.254259 0
236 1 0.426453 0.26115 0
266 1 0.408594 0.278541 0
267 1 0.431307 0.286688 0
238 1 0.450076 0.26853 0
239 1 0.466947 0.249799 0
240 1 0.49082 0.256088 0
269 1 0.473236 0.274206 0
268 1 0.455129 0.293748 0
271 1 0.0150617 0.312253 0
272 1 0.038392 0.324944 0
301 1 0.0180482 0.338395 0
303 1 0.0422486 0.349536 0
275 1 0.059189 0.309112 0
276 1 0.082593 0.317976 0
274 1 0.0628019 0.334283 0
305 1 0.0867588 0.341269 0
246 1 0.101885 0.300475 0
279 1 0.12638 0.308921 0
277 1 0.106671 0.324555 0
278 1 0.130938 0.33356 0
280 1 0.150041 0.316678 0
281 1 0.16864 0.299977 0
311 1 0.155931 0.341276 0
283 1 0.19291 0.309844 0
282 1 0.173444 0.323997 0
313 1 0.197776 0.333297 0
312 1 0.179151 0.348527 0
284 1 0.215865 0.316261 0
315 1 0.220888 0.34126 0
286 1 0.239414 0.322834 0
316 1 0.244723 0.347616 0
287 1 0.257695 0.306371 0
288 1 0.281061 0.312471 0
317 1 0.262861 0.330832 0
319 1 0.287791 0.33682 0
291 1 0.324539 0.302041 0
290 1 0.305623 0.318583 0
321 1 0.312374 0.343543 0
292 1 0.328938 0.325828 0
323 1 0.347767 0.309332 0
322 1 0.336729 0.350233 0
294 1 0.372247 0.315863 0
324 1 0.354058 0.332786 0
325 1 0.377953 0.339992 0
296 1 0.395546 0.322561 0
326 1 0.403385 0.346664 0
297 1 0.41456 0.305408 0
298 1 0.437253 0.310657 0
327 1 0.420697 0.329671 0
328 1 0.445662 0.334658 0
270 1 0.480098 0.297123 0
299 1 0.461929 0.316707 0
300 1 0.48789 0.321554 0
329 1 0.469663 0.340343 0
1201 1 0.493865 0.346089 0
331 1 0.00376429 0.377972 0
302 1 0.0239404 0.364007 0
332 1 0.0289032 0.387808 0
333 1 0.0485951 0.372487 0
334 1 0.0535768 0.397452 0
304 1 0.0688975 0.35778 0
306 1 0.0925502 0.365716 0
335 1 0.0724152 0.382384 0
337 1 0.0972644 0.390909 0
307 1 0.112106 0.349611 0
309 1 0.135086 0.35743 0
308 1 0.116381 0.374452 0
339 1 0.140517 0.381566 0
310 1 0.15931 0.364567 0
341 1 0.163824 0.388621 0
343 1 0.18234 0.372536 0
342 1 0.188363 0.395626 0
314 1 0.202451 0.356541 0
345 1 0.226407 0.364554 0
344 1 0.207102 0.380569 0
375 1 0.233789 0.38807 0
346 1 0.251642 0.371233 0
377 1 0.25774 0.395048 0
318 1 0.26871 0.35398 0
349 1 0.292716 0.360656 0
347 1 0.275097 0.377334 0
350 1 0.299699 0.385598 0
320 1 0.317359 0.367825 0
351 1 0.341565 0.374734 0
381 1 0.322897 0.391919 0
353 1 0.359822 0.357278 0
355 1 0.38496 0.364384 0
354 1 0.365111 0.382051 0
385 1 0.390516 0.388153 0
357 1 0.428357 0.353545 0
356 1 0.409167 0.372353 0
387 1 0.435364 0.378029 0
386 1 0.416521 0.39436 0
359 1 0.452255 0.359465 0
358 1 0.459167 0.382055 0
330 1 0.477985 0.363923 0
360 1 0.483338 0.38879 0
1231 1 0.501731 0.369495 0
361 1 0.00935178 0.403098 0
363 1 0.033545 0.412172 0
362 1 0.0140764 0.427885 0
364 1 0.038567 0.436202 0
336 1 0.0788757 0.406622 0
365 1 0.0586964 0.421493 0
395 1 0.066684 0.444271 0
338 1 0.121849 0.398771 0
367 1 0.102714 0.414859 0
366 1 0.108732 0.439893 0
369 1 0.126963 0.423015 0
340 1 0.145927 0.405987 0
368 1 0.132084 0.448347 0
370 1 0.150963 0.430024 0
371 1 0.170569 0.412187 0
401 1 0.175166 0.436508 0
372 1 0.195519 0.418866 0
403 1 0.199324 0.442411 0
373 1 0.215626 0.403045 0
374 1 0.219648 0.427448 0
376 1 0.23868 0.41218 0
405 1 0.245616 0.435993 0
348 1 0.281833 0.402167 0
407 1 0.269287 0.444649 0
378 1 0.263873 0.420602 0
409 1 0.286975 0.427093 0
352 1 0.347294 0.398961 0
379 1 0.305117 0.409587 0
380 1 0.310438 0.434173 0
382 1 0.329723 0.416887 0
411 1 0.337019 0.441747 0
413 1 0.354115 0.424161 0
383 1 0.372665 0.40695 0
414 1 0.378297 0.431803 0
384 1 0.397158 0.412936 0
412 1 0.360124 0.449444 0
388 1 0.440936 0.400285 0
415 1 0.403515 0.436054 0
417 1 0.4217 0.418922 0
416 1 0.427331 0.444053 0
419 1 0.444988 0.424457 0
389 1 0.464448 0.406832 0
418 1 0.469896 0.431769 0
390 1 0.487882 0.412648 0
420 1 0.49462 0.438146 0
447 1 0.451103 0.449596 0
393 1 0.0202222 0.451096 0
422 1 0.00792014 0.490371 0
423 1 0.0272401 0.474319 0
394 1 0.0466529 0.459406 0
425 1 0.0516507 0.485313 0
448 1 0.459168 0.473796 0
397 1 0.0913506 0.455459 0
396 1 0.07093 0.470404 0
426 1 0.0753276 0.495585 0
427 1 0.0958973 0.480817 0
398 1 0.114632 0.464673 0
428 1 0.121097 0.490332 0
429 1 0.138523 0.472291 0
459 1 0.144328 0.498402 0
399 1 0.156595 0.454007 0
400 1 0.181551 0.46003 0
430 1 0.162421 0.480655 0
431 1 0.188199 0.482666 0
404 1 0.226484 0.452016 0
402 1 0.206181 0.46618 0
432 1 0.211225 0.489331 0
433 1 0.231039 0.475474 0
435 1 0.250562 0.460818 0
408 1 0.292041 0.451598 0
436 1 0.255049 0.485029 0
406 1 0.274486 0.469839 0
437 1 0.281696 0.494724 0
439 1 0.299189 0.47803 0
410 1 0.317046 0.459003 0
440 1 0.323798 0.483421 0
441 1 0.343091 0.466841 0
471 1 0.349484 0.490564 0
472 1 0.373373 0.498379 0
442 1 0.368551 0.474662 0
473 1 0.391855 0.480025 0
443 1 0.385439 0.455514 0
477 1 0.441886 0.491335 0
446 1 0.43455 0.468033 0
445 1 0.409535 0.461987 0
444 1 0.416884 0.485947 0
450 1 0.484185 0.479146 0
478 1 0.46543 0.497738 0
449 1 0.476323 0.455675 0
120 1 0.500311 0.125171 0
1141 1 0.497714 0.27969 0
453 1 0.0130701 0.51631 0
452 1 0.0159804 0.541096 0
454 1 0.035971 0.524988 0
424 1 0.0316663 0.500863 0
483 1 0.0386466 0.549732 0
485 1 0.0594083 0.53539 0
455 1 0.0558422 0.510672 0
456 1 0.0794644 0.521631 0
486 1 0.0821241 0.545441 0
457 1 0.0989025 0.505357 0
487 1 0.102055 0.530437 0
458 1 0.122692 0.515347 0
488 1 0.126083 0.539978 0
489 1 0.148158 0.525622 0
461 1 0.192728 0.505535 0
462 1 0.194041 0.528376 0
491 1 0.17007 0.535406 0
460 1 0.168514 0.510911 0
493 1 0.217147 0.537841 0
463 1 0.215361 0.514652 0
464 1 0.240372 0.523808 0
434 1 0.235287 0.498888 0
495 1 0.238284 0.548393 0
466 1 0.262165 0.535464 0
465 1 0.261411 0.510901 0
467 1 0.288326 0.520086 0
497 1 0.296633 0.546818 0
438 1 0.306821 0.501592 0
468 1 0.314475 0.52784 0
469 1 0.330816 0.508327 0
499 1 0.337873 0.534124 0
470 1 0.355229 0.516509 0
503 1 0.380516 0.521634 0
474 1 0.398075 0.504081 0
505 1 0.385922 0.546436 0
501 1 0.361701 0.541099 0
476 1 0.405347 0.528665 0
509 1 0.4289 0.533962 0
475 1 0.422421 0.510153 0
507 1 0.44737 0.51508 0
479 1 0.472492 0.521169 0
480 1 0.455127 0.539411 0
1381 1 0.496934 0.527096 0
510 1 0.479342 0.547337 0
1351 1 0.488748 0.50391 0
513 1 0.0200874 0.564896 0
514 1 0.04308 0.574626 0
512 1 0.0220281 0.589692 0
543 1 0.0452494 0.599691 0
484 1 0.0621785 0.560186 0
515 1 0.0859711 0.570574 0
545 1 0.0663975 0.584668 0
516 1 0.0878206 0.595686 0
517 1 0.105666 0.55524 0
518 1 0.108499 0.580181 0
519 1 0.127617 0.564302 0
549 1 0.13075 0.591129 0
490 1 0.149587 0.55103 0
520 1 0.150808 0.576279 0
521 1 0.171681 0.562843 0
492 1 0.193858 0.551773 0
522 1 0.173645 0.589071 0
523 1 0.194999 0.575838 0
494 1 0.216132 0.56288 0
524 1 0.218257 0.586703 0
525 1 0.238317 0.57274 0
496 1 0.259963 0.559696 0
526 1 0.261935 0.582995 0
527 1 0.282005 0.567513 0
528 1 0.283901 0.592761 0
498 1 0.320698 0.552652 0
529 1 0.305218 0.572476 0
500 1 0.345596 0.558467 0
530 1 0.32923 0.576592 0
559 1 0.308526 0.598359 0
531 1 0.353704 0.583333 0
502 1 0.369688 0.565184 0
504 1 0.394412 0.568832 0
533 1 0.379086 0.588039 0
506 1 0.411897 0.552649 0
534 1 0.403676 0.594742 0
535 1 0.420439 0.575007 0
508 1 0.43621 0.557298 0
537 1 0.444042 0.582885 0
536 1 0.427679 0.601319 0
539 1 0.460443 0.563544 0
540 1 0.485302 0.570573 0
538 1 0.468618 0.587519 0
569 1 0.493499 0.593644 0
542 1 0.0258252 0.615025 0
573 1 0.0275491 0.639713 0
544 1 0.0478817 0.625986 0
571 1 0.00464112 0.629269 0
541 1 0.00246209 0.605197 0
574 1 0.049242 0.65096 0
546 1 0.0678945 0.610913 0
547 1 0.0904468 0.620387 0
575 1 0.0700036 0.635553 0
576 1 0.093443 0.6448 0
548 1 0.10991 0.605392 0
550 1 0.132885 0.61716 0
577 1 0.113277 0.631639 0
579 1 0.135623 0.641226 0
551 1 0.152156 0.602449 0
553 1 0.196079 0.600319 0
581 1 0.155261 0.62782 0
552 1 0.175927 0.613962 0
582 1 0.178627 0.63869 0
583 1 0.199722 0.625421 0
555 1 0.241844 0.597574 0
554 1 0.219486 0.611395 0
556 1 0.243274 0.622786 0
585 1 0.222245 0.636453 0
586 1 0.246052 0.647217 0
557 1 0.264564 0.607711 0
587 1 0.26599 0.631816 0
558 1 0.288083 0.61658 0
589 1 0.289164 0.642826 0
560 1 0.313306 0.623111 0
561 1 0.332594 0.603892 0
591 1 0.330049 0.641673 0
562 1 0.347073 0.624868 0
532 1 0.363024 0.606984 0
563 1 0.387741 0.612702 0
564 1 0.37068 0.631054 0
595 1 0.394494 0.637136 0
593 1 0.353681 0.649104 0
565 1 0.411201 0.618749 0
566 1 0.4357 0.625208 0
596 1 0.418132 0.642427 0
598 1 0.441669 0.649405 0
567 1 0.451407 0.606719 0
597 1 0.459207 0.63098 0
568 1 0.475553 0.610937 0
570 1 0.4832 0.636373 0
572 1 0.0060786 0.653727 0
603 1 0.0286885 0.664317 0
602 1 0.00832332 0.678152 0
633 1 0.0308737 0.689421 0
604 1 0.0514711 0.675611 0
605 1 0.0721291 0.661393 0
606 1 0.0742801 0.685631 0
607 1 0.0947073 0.669063 0
637 1 0.0961089 0.697975 0
635 1 0.054835 0.699642 0
578 1 0.115456 0.655485 0
609 1 0.137215 0.666264 0
608 1 0.116167 0.681392 0
639 1 0.139254 0.692915 0
580 1 0.157452 0.65362 0
611 1 0.181499 0.663714 0
610 1 0.16017 0.678386 0
612 1 0.18269 0.689902 0
584 1 0.201419 0.650222 0
613 1 0.203444 0.674824 0
615 1 0.22415 0.661047 0
614 1 0.226105 0.687394 0
617 1 0.245623 0.672039 0
616 1 0.249409 0.696984 0
588 1 0.2673 0.657151 0
619 1 0.288648 0.668488 0
618 1 0.268728 0.681354 0
590 1 0.3105 0.656833 0
621 1 0.314817 0.680788 0
592 1 0.334868 0.66598 0
622 1 0.340453 0.689639 0
623 1 0.358797 0.673023 0
594 1 0.377053 0.656954 0
624 1 0.383259 0.679574 0
653 1 0.365718 0.696221 0
625 1 0.401479 0.661564 0
627 1 0.425105 0.668764 0
626 1 0.407639 0.685881 0
657 1 0.432197 0.692425 0
628 1 0.449015 0.673586 0
599 1 0.467094 0.654362 0
600 1 0.490986 0.662949 0
629 1 0.472958 0.680122 0
630 1 0.496191 0.686191 0
658 1 0.455921 0.697396 0
632 1 0.0113367 0.701828 0
634 1 0.0345825 0.714625 0
663 1 0.0136813 0.728377 0
664 1 0.0367856 0.739997 0
636 1 0.077007 0.712722 0
665 1 0.0564268 0.726616 0
666 1 0.079733 0.736754 0
667 1 0.100183 0.723024 0
695 1 0.0606452 0.751739 0
668 1 0.100471 0.749721 0
638 1 0.11975 0.707037 0
640 1 0.142033 0.718718 0
669 1 0.121503 0.733682 0
670 1 0.145184 0.74362 0
641 1 0.161409 0.703636 0
642 1 0.184847 0.715159 0
671 1 0.164919 0.729423 0
673 1 0.187609 0.740364 0
643 1 0.204663 0.700523 0
645 1 0.22735 0.71186 0
644 1 0.207009 0.725908 0
675 1 0.229859 0.73595 0
646 1 0.249753 0.721105 0
677 1 0.252348 0.747727 0
647 1 0.272761 0.705605 0
648 1 0.27321 0.73113 0
679 1 0.294134 0.742717 0
649 1 0.296382 0.716597 0
620 1 0.323882 0.708097 0
651 1 0.347716 0.713906 0
650 1 0.330011 0.733398 0
652 1 0.354152 0.7391 0
655 1 0.389912 0.704277 0
654 1 0.372262 0.722646 0
685 1 0.39744 0.728451 0
683 1 0.381055 0.747762 0
656 1 0.414009 0.709099 0
687 1 0.438529 0.715671 0
686 1 0.421563 0.733924 0
717 1 0.445984 0.740068 0
659 1 0.47964 0.704277 0
689 1 0.462317 0.721698 0
660 1 0.48753 0.7284 0
688 1 0.470028 0.745963 0
662 1 0.016137 0.753424 0
694 1 0.0386142 0.766101 0
693 1 0.0180851 0.780141 0
725 1 0.0402004 0.790428 0
697 1 0.0809708 0.763166 0
696 1 0.0612492 0.776679 0
727 1 0.0846245 0.78728 0
726 1 0.0631489 0.800681 0
699 1 0.124275 0.75738 0
698 1 0.103893 0.773648 0
700 1 0.12661 0.783674 0
728 1 0.106956 0.797757 0
701 1 0.145893 0.768672 0
731 1 0.148452 0.795049 0
672 1 0.167039 0.754404 0
703 1 0.189095 0.766218 0
702 1 0.168349 0.778338 0
704 1 0.190552 0.790904 0
674 1 0.209199 0.750166 0
676 1 0.231194 0.76243 0
705 1 0.210909 0.777126 0
706 1 0.233972 0.788481 0
707 1 0.253522 0.772727 0
678 1 0.274427 0.757016 0
709 1 0.276319 0.783243 0
680 1 0.296447 0.768069 0
737 1 0.257146 0.798434 0
710 1 0.300876 0.792144 0
681 1 0.315576 0.752023 0
682 1 0.338866 0.758396 0
711 1 0.320672 0.775606 0
712 1 0.34459 0.782719 0
713 1 0.362435 0.762809 0
714 1 0.386692 0.771561 0
743 1 0.368405 0.788262 0
745 1 0.393952 0.795397 0
684 1 0.403897 0.753321 0
715 1 0.428505 0.758045 0
716 1 0.412119 0.776785 0
747 1 0.435254 0.782378 0
718 1 0.452581 0.764508 0
690 1 0.493595 0.751929 0
719 1 0.476658 0.770324 0
720 1 0.483463 0.794274 0
749 1 0.459738 0.78854 0
1591 1 0.501538 0.775575 0
723 1 0.0193163 0.803755 0
722 1 0.0218603 0.827768 0
724 1 0.0431876 0.81373 0
754 1 0.0442583 0.837266 0
1680 1 0.00132129 0.8428 0
757 1 0.0854112 0.812719 0
755 1 0.0648665 0.825599 0
756 1 0.087984 0.83813 0
729 1 0.128022 0.809369 0
759 1 0.107847 0.823601 0
760 1 0.130044 0.833778 0
758 1 0.109471 0.849452 0
730 1 0.151474 0.820116 0
761 1 0.152432 0.845419 0
732 1 0.171399 0.805292 0
763 1 0.173175 0.831158 0
733 1 0.192043 0.817343 0
764 1 0.194083 0.843423 0
735 1 0.213649 0.801688 0
736 1 0.236282 0.813601 0
734 1 0.215104 0.827945 0
767 1 0.23788 0.838894 0
708 1 0.279449 0.808545 0
738 1 0.258241 0.823197 0
769 1 0.280101 0.836001 0
768 1 0.259402 0.849367 0
741 1 0.325166 0.801106 0
739 1 0.303676 0.816121 0
740 1 0.306068 0.840042 0
771 1 0.332088 0.830799 0
742 1 0.349848 0.80724 0
773 1 0.35697 0.831101 0
744 1 0.375544 0.813349 0
774 1 0.383229 0.838559 0
775 1 0.399257 0.819214 0
746 1 0.418326 0.800985 0
748 1 0.441411 0.807262 0
777 1 0.423393 0.824948 0
776 1 0.406553 0.844428 0
779 1 0.447147 0.830998 0
778 1 0.430321 0.849575 0
750 1 0.466302 0.812439 0
1621 1 0.490676 0.818199 0
780 1 0.472184 0.837663 0
1651 1 0.496556 0.841999 0
753 1 0.0446473 0.861092 0
752 1 0.0195911 0.859856 0
783 1 0.0391207 0.883681 0
782 1 0.0149836 0.888556 0
785 1 0.0662104 0.850986 0
784 1 0.0641738 0.876124 0
786 1 0.0815628 0.894434 0
787 1 0.0870582 0.864274 0
815 1 0.0578289 0.899958 0
817 1 0.104866 0.88522 0
789 1 0.132402 0.858006 0
788 1 0.128826 0.881586 0
790 1 0.148382 0.897367 0
791 1 0.153658 0.869832 0
762 1 0.174036 0.857655 0
793 1 0.172296 0.88793 0
795 1 0.195303 0.870324 0
765 1 0.216521 0.854515 0
796 1 0.219345 0.878955 0
825 1 0.238422 0.896935 0
766 1 0.248064 0.872797 0
797 1 0.273303 0.870375 0
827 1 0.262896 0.893103 0
798 1 0.290224 0.888322 0
799 1 0.29732 0.863106 0
772 1 0.346709 0.85388 0
770 1 0.321872 0.858785 0
800 1 0.31331 0.881185 0
801 1 0.338925 0.877142 0
802 1 0.357101 0.89521 0
803 1 0.363744 0.872467 0
804 1 0.380593 0.890294 0
805 1 0.38791 0.864958 0
807 1 0.412487 0.869285 0
808 1 0.436503 0.873528 0
837 1 0.443867 0.899065 0
809 1 0.454195 0.85544 0
1681 1 0.477735 0.861352 0
1711 1 0.485591 0.884719 0
810 1 0.460734 0.88083 0
813 1 0.0317145 0.906619 0
843 1 0.0247476 0.93048 0
844 1 0.0419088 0.948149 0
812 1 0.00751512 0.912942 0
814 1 0.0486822 0.923481 0
1771 1 0.492886 0.974889 0
816 1 0.0993271 0.909965 0
845 1 0.0728634 0.918407 0
846 1 0.0654952 0.941099 0
847 1 0.091307 0.93381 0
819 1 0.122748 0.90494 0
818 1 0.116011 0.928937 0
820 1 0.13452 0.94598 0
821 1 0.141587 0.922198 0
792 1 0.165903 0.915295 0
851 1 0.159082 0.939501 0
823 1 0.189689 0.908419 0
822 1 0.182522 0.933443 0
794 1 0.213303 0.903846 0
824 1 0.206616 0.927494 0
885 1 0.223665 0.945947 0
855 1 0.231392 0.921785 0
856 1 0.248667 0.939919 0
826 1 0.255326 0.916433 0
857 1 0.274518 0.934547 0
828 1 0.28091 0.911821 0
859 1 0.298729 0.929027 0
831 1 0.332758 0.900478 0
829 1 0.307641 0.905129 0
830 1 0.324895 0.924176 0
861 1 0.34038 0.944087 0
860 1 0.315771 0.948482 0
832 1 0.348544 0.919149 0
863 1 0.364256 0.937154 0
833 1 0.37289 0.913513 0
834 1 0.388604 0.932191 0
806 1 0.396897 0.909445 0
835 1 0.413219 0.926633 0
836 1 0.433379 0.94238 0
838 1 0.450222 0.922305 0
869 1 0.458902 0.944536 0
839 1 0.468552 0.903469 0
840 1 0.474999 0.927241 0
1712 1 0.493517 0.907768 0
870 1 0.486131 0.950364 0
842 1 0.0165438 0.95438 0
872 1 0.0268291 0.994317 0
873 1 0.0341525 0.9708 0
871 1 0.00750905 0.976848 0
874 1 0.0506603 0.988467 0
875 1 0.059219 0.96556 0
876 1 0.0750908 0.983309 0
848 1 0.0839219 0.95718 0
877 1 0.099318 0.976886 0
849 1 0.10785 0.952889 0
878 1 0.117885 0.994051 0
879 1 0.125343 0.969668 0
881 1 0.142472 0.988719 0
850 1 0.149921 0.964684 0
853 1 0.175261 0.958036 0
852 1 0.16838 0.981804 0
883 1 0.191752 0.975399 0
854 1 0.199549 0.951367 0
13 1 0.209075 0.993842 0
15 1 0.233248 0.987426 0
884 1 0.215868 0.969962 0
886 1 0.240753 0.963879 0
858 1 0.291983 0.9532 0
887 1 0.265702 0.958272 0
17 1 0.257299 0.981111 0
888 1 0.282728 0.976156 0
19 1 0.297748 0.9955 0
889 1 0.307293 0.972948 0
890 1 0.323612 0.991956 0
891 1 0.331705 0.967203 0
892 1 0.348244 0.98778 0
862 1 0.356785 0.962914 0
864 1 0.380537 0.955779 0
893 1 0.373177 0.981036 0
895 1 0.397136 0.974306 0
894 1 0.391068 0.998741 0
865 1 0.406668 0.949929 0
867 1 0.44404 0.965189 0
866 1 0.420594 0.970672 0
896 1 0.416334 0.994658 0
897 1 0.444794 0.991916 0
868 1 0.467963 0.968818 0
899 1 0.475098 0.992464 0
882 1 0.184028 0.999605 0
902 1 0.535627 0.0260348 0
901 1 0.510322 0.0203616 0
931 1 0.518551 0.0423731 0
903 1 0.526641 0.00299378 0
904 1 0.559157 0.0310926 0
906 1 0.576311 0.0129173 0
935 1 0.584055 0.0363124 0
905 1 0.551858 0.00698049 0
908 1 0.600778 0.01782 0
937 1 0.608066 0.0433798 0
939 1 0.625218 0.0232368 0
910 1 0.642732 0.00484652 0
909 1 0.618421 -8.1761e-05 0
938 1 0.632304 0.0488471 0
941 1 0.648945 0.0305659 0
912 1 0.665884 0.0105624 0
942 1 0.67352 0.035308 0
943 1 0.689459 0.0170829 0
973 1 0.698215 0.0413449 0
944 1 0.714143 0.0229185 0
945 1 0.731211 0.00477397 0
946 1 0.739501 0.0288511 0
975 1 0.723477 0.0468227 0
947 1 0.7558 0.0100589 0
948 1 0.763523 0.0349796 0
918 1 0.781992 0.0155343 0
979 1 0.790407 0.0414243 0
949 1 0.809302 0.0226131 0
951 1 0.836066 0.0172027 0
950 1 0.827782 0.0408292 0
921 1 0.820623 -0.0015203 0
952 1 0.851703 0.0348063 0
953 1 0.860229 0.0109658 0
924 1 0.884758 0.00619036 0
954 1 0.875983 0.0297569 0
985 1 0.892603 0.0473282 0
955 1 0.902419 0.0244953 0
926 1 0.927041 0.0188123 0
957 1 0.943602 0.0368184 0
956 1 0.919713 0.0419886 0
392 1 1.00094 0.466253 0
928 1 0.951899 0.0123822 0
959 1 0.967633 0.0304521 0
930 1 0.992608 0.0249876 0
929 1 0.976357 0.00583843 0
960 1 0.985326 0.0478268 0
933 1 0.543752 0.0495166 0
932 1 0.526942 0.0669028 0
962 1 0.535048 0.0899948 0
961 1 0.509906 0.0855013 0
60 1 0.504036 0.0609344 0
963 1 0.55149 0.0734871 0
934 1 0.567886 0.0561398 0
965 1 0.574889 0.079034 0
936 1 0.591847 0.0610789 0
964 1 0.558894 0.0978397 0
966 1 0.600365 0.084929 0
967 1 0.616063 0.0667601 0
968 1 0.623875 0.0901588 0
969 1 0.640385 0.0710805 0
999 1 0.647781 0.0955773 0
940 1 0.65811 0.0535795 0
970 1 0.665819 0.0786084 0
971 1 0.682264 0.0614317 0
972 1 0.690174 0.0844981 0
1003 1 0.707348 0.0655768 0
1004 1 0.714669 0.089914 0
974 1 0.730765 0.0713546 0
1005 1 0.738673 0.0945419 0
976 1 0.746318 0.0524874 0
1007 1 0.755043 0.0758751 0
977 1 0.772354 0.0586211 0
978 1 0.795397 0.068187 0
1008 1 0.786044 0.0898556 0
1006 1 0.763004 0.0993482 0
980 1 0.820345 0.0643638 0
981 1 0.843748 0.0592431 0
1009 1 0.811016 0.0874108 0
1011 1 0.836179 0.0833845 0
982 1 0.859884 0.0763087 0
983 1 0.867916 0.0536989 0
984 1 0.885584 0.0708443 0
1013 1 0.875675 0.0947077 0
1015 1 0.902306 0.0882522 0
986 1 0.910249 0.0642369 0
987 1 0.93539 0.0603889 0
1017 1 0.926007 0.0840737 0
988 1 0.953601 0.0782416 0
958 1 0.961161 0.0536593 0
989 1 0.977165 0.0721714 0
990 1 0.994093 0.090358 0
1019 1 0.969715 0.0966926 0
421 1 0.983733 0.482605 0
991 1 0.517417 0.108271 0
992 1 0.524839 0.132598 0
993 1 0.542124 0.114758 0
1023 1 0.54934 0.139308 0
995 1 0.584008 0.103172 0
994 1 0.565931 0.120826 0
996 1 0.591051 0.127135 0
1025 1 0.57381 0.145089 0
997 1 0.607647 0.109414 0
998 1 0.630967 0.114584 0
1027 1 0.61398 0.133548 0
1029 1 0.638602 0.137603 0
1001 1 0.672727 0.103063 0
1000 1 0.656193 0.120306 0
1031 1 0.68144 0.126611 0
1030 1 0.663481 0.144011 0
1002 1 0.697786 0.108118 0
1032 1 0.688269 0.149268 0
1033 1 0.705775 0.131778 0
1035 1 0.721928 0.113435 0
1034 1 0.73204 0.136646 0
1036 1 0.748176 0.11878 0
1037 1 0.776797 0.120044 0
1038 1 0.79653 0.135869 0
1067 1 0.764678 0.141075 0
1039 1 0.801095 0.111796 0
1010 1 0.827391 0.106146 0
1040 1 0.820218 0.131155 0
1041 1 0.845397 0.124961 0
1071 1 0.83849 0.148899 0
1012 1 0.852582 0.101485 0
1043 1 0.868808 0.118972 0
1014 1 0.894985 0.113048 0
1044 1 0.888406 0.136874 0
1042 1 0.862784 0.142387 0
1018 1 0.94494 0.100911 0
1045 1 0.912787 0.131326 0
1016 1 0.919486 0.108005 0
1047 1 0.937161 0.124789 0
1077 1 0.929712 0.150399 0
1049 1 0.962153 0.119592 0
1020 1 0.986375 0.114203 0
1050 1 0.979713 0.138056 0
1046 1 0.953594 0.142726 0
1021 1 0.506998 0.149964 0
1022 1 0.53108 0.15574 0
1053 1 0.537598 0.179738 0
1051 1 0.513468 0.173951 0
1052 1 0.520446 0.197394 0
1026 1 0.597747 0.151443 0
1024 1 0.556507 0.162687 0
1055 1 0.580281 0.169666 0
1054 1 0.562752 0.186223 0
1056 1 0.585907 0.193976 0
1028 1 0.62238 0.156405 0
1057 1 0.603635 0.174736 0
1058 1 0.627769 0.180226 0
1059 1 0.646111 0.163231 0
1087 1 0.610293 0.197439 0
1060 1 0.652675 0.185845 0
1061 1 0.671884 0.167422 0
1091 1 0.679253 0.191247 0
1062 1 0.697193 0.172832 0
1063 1 0.714256 0.15614 0
1064 1 0.720188 0.180135 0
1095 1 0.745809 0.186164 0
1065 1 0.739149 0.161996 0
1093 1 0.703334 0.198524 0
1066 1 0.763739 0.166353 0
1068 1 0.787225 0.159548 0
1097 1 0.776808 0.188205 0
1069 1 0.812726 0.15468 0
1070 1 0.829167 0.172336 0
1099 1 0.80502 0.176986 0
1101 1 0.847445 0.19073 0
1100 1 0.8222 0.197059 0
1072 1 0.854515 0.166674 0
1073 1 0.878967 0.160051 0
1103 1 0.87351 0.186314 0
1074 1 0.897981 0.179132 0
1075 1 0.904331 0.154933 0
1076 1 0.922056 0.173197 0
1107 1 0.939698 0.190572 0
1078 1 0.947669 0.167026 0
1105 1 0.915187 0.197329 0
1048 1 0.971989 0.161962 0
151 1 0.997599 0.156059 0
1079 1 0.988575 0.180515 0
1109 1 0.964916 0.185017 0
1083 1 0.544292 0.203339 0
1082 1 0.52735 0.221235 0
1111 1 0.508586 0.237708 0
1113 1 0.532573 0.245011 0
1081 1 0.502099 0.21341 0
1084 1 0.552256 0.228428 0
1085 1 0.568659 0.210778 0
1086 1 0.593576 0.21639 0
1115 1 0.576909 0.233773 0
1117 1 0.60142 0.240075 0
1089 1 0.63508 0.203777 0
1088 1 0.618782 0.22128 0
1119 1 0.643618 0.227727 0
1118 1 0.626591 0.245582 0
1090 1 0.660271 0.20947 0
1092 1 0.685787 0.215915 0
1121 1 0.668659 0.23402 0
1122 1 0.693467 0.238307 0
1094 1 0.7281 0.203244 0
1123 1 0.711686 0.221468 0
1124 1 0.718467 0.244699 0
1125 1 0.735624 0.226931 0
1096 1 0.753224 0.209426 0
1127 1 0.777124 0.214171 0
1126 1 0.759574 0.234347 0
1128 1 0.783791 0.23951 0
1098 1 0.797895 0.200465 0
1131 1 0.84094 0.215933 0
1129 1 0.814963 0.221241 0
1130 1 0.834796 0.239919 0
1159 1 0.810208 0.245635 0
1102 1 0.864 0.207647 0
1104 1 0.890682 0.202867 0
1132 1 0.858642 0.232431 0
1133 1 0.882313 0.225239 0
1134 1 0.901127 0.246817 0
1135 1 0.908679 0.220856 0
1106 1 0.932427 0.214375 0
1136 1 0.924939 0.240167 0
1137 1 0.948407 0.233493 0
1108 1 0.956652 0.208405 0
1110 1 0.981415 0.203482 0
1139 1 0.972944 0.226761 0
1140 1 0.990255 0.244549 0
181 1 0.999637 0.221099 0
1112 1 0.516465 0.262395 0
1143 1 0.540312 0.268748 0
1142 1 0.522185 0.286045 0
1144 1 0.548308 0.292346 0
1320 1 0.975922 0.458843 0
1114 1 0.557997 0.251628 0
1116 1 0.582684 0.256945 0
1145 1 0.565398 0.274967 0
1146 1 0.59098 0.278931 0
1175 1 0.571367 0.299537 0
1147 1 0.609324 0.262787 0
1149 1 0.634186 0.269642 0
1148 1 0.615726 0.285684 0
1179 1 0.640097 0.29385 0
1120 1 0.65129 0.25188 0
1151 1 0.676194 0.257044 0
1150 1 0.658613 0.275946 0