ITEM: TIMESTEP
128000
ITEM: NUMBER OF ATOMS
1800
ITEM: BOX BOUNDS pp pp pp
3.1198643460139266e+00 1.5528013565398209e+02
3.1198643460139266e+00 1.5528013565398209e+02
0.0000000000000000e+00 5.2800000000000002e+00
ITEM: ATOMS id type xs ys zs
2 1 0.0167153 0.0192245 0
3 1 0.0418829 0.0106179 0
33 1 0.033791 0.0361002 0
31 1 0.00810274 0.0431831 0
4 1 0.0596277 0.0290625 0
6 1 0.0844472 0.0228629 0
5 1 0.0668615 0.00582062 0
35 1 0.0757941 0.0472018 0
37 1 0.1012 0.0416979 0
8 1 0.10906 0.0166862 0
9 1 0.125808 0.0340845 0
880 1 0.133784 0.010468 0
10 1 0.151237 0.0286351 0
11 1 0.157922 0.00474571 0
12 1 0.175574 0.0239108 0
43 1 0.193443 0.0417314 0
41 1 0.166658 0.0463474 0
882 1 0.183024 -0.000469322 0
14 1 0.199883 0.0168422 0
44 1 0.216989 0.0350537 0
45 1 0.223941 0.0109346 0
46 1 0.240952 0.0297724 0
16 1 0.248978 0.00557493 0
47 1 0.2657 0.0248702 0
49 1 0.289212 0.019994 0
48 1 0.282755 0.0436103 0
77 1 0.258475 0.0500687 0
18 1 0.273523 8.22115e-05 0
50 1 0.307755 0.0367175 0
20 1 0.315015 0.0137306 0
51 1 0.331966 0.0324791 0
21 1 0.339103 0.00937344 0
22 1 0.356707 0.0292518 0
24 1 0.380691 0.0225761 0
53 1 0.372482 0.0486709 0
55 1 0.39734 0.0421926 0
23 1 0.364186 0.00432064 0
25 1 0.406704 0.0183616 0
26 1 0.421509 0.0369879 0
27 1 0.433223 0.0155694 0
28 1 0.445714 0.0358047 0
30 1 0.492743 0.0390994 0
898 1 0.459412 0.0124879 0
29 1 0.483491 0.0169934 0
59 1 0.469239 0.0378747 0
32 1 0.0268265 0.0601315 0
62 1 0.0194023 0.082835 0
63 1 0.0432487 0.0762534 0
61 1 0.00135847 0.0661456 0
34 1 0.0507731 0.0526997 0
65 1 0.0678712 0.0699099 0
66 1 0.0845956 0.0881847 0
36 1 0.0933396 0.06403 0
64 1 0.0604362 0.093962 0
39 1 0.14218 0.0517522 0
38 1 0.118031 0.0590241 0
67 1 0.110283 0.0832004 0
69 1 0.134437 0.0765505 0
70 1 0.151907 0.0943134 0
40 1 0.158736 0.0702036 0
71 1 0.176195 0.0896693 0
42 1 0.184658 0.0649595 0
72 1 0.20067 0.0838272 0
73 1 0.209507 0.0602137 0
74 1 0.225367 0.0796438 0
75 1 0.234094 0.0542643 0
106 1 0.242591 0.0983204 0
76 1 0.249544 0.074165 0
78 1 0.276183 0.0675421 0
109 1 0.292352 0.0868092 0
107 1 0.267272 0.0931028 0
79 1 0.300605 0.0636681 0
80 1 0.316606 0.081499 0
81 1 0.323 0.0563624 0
82 1 0.339815 0.0761596 0
52 1 0.347717 0.0526845 0
83 1 0.36363 0.0725192 0
113 1 0.38197 0.0891051 0
54 1 0.389484 0.0660933 0
56 1 0.4138 0.0593018 0
57 1 0.439737 0.0610059 0
85 1 0.421607 0.0817874 0
87 1 0.44554 0.0854265 0
84 1 0.405011 0.0997065 0
88 1 0.468153 0.0941146 0
58 1 0.464023 0.0673919 0
89 1 0.486061 0.0785946 0
93 1 0.0362767 0.100568 0
92 1 0.0288004 0.125626 0
91 1 0.0119681 0.107076 0
121 1 0.00289824 0.131596 0
123 1 0.0456362 0.143033 0
122 1 0.0201727 0.149502 0
94 1 0.0535542 0.118879 0
95 1 0.0780299 0.113017 0
125 1 0.0703392 0.136421 0
96 1 0.0964672 0.131064 0
68 1 0.12789 0.100638 0
97 1 0.101816 0.105249 0
98 1 0.119963 0.123488 0
99 1 0.145308 0.118893 0
129 1 0.13763 0.141877 0
127 1 0.113971 0.148525 0
100 1 0.169973 0.1134 0
130 1 0.1612 0.136908 0
131 1 0.185533 0.13137 0
101 1 0.193112 0.106618 0
103 1 0.217617 0.102243 0
102 1 0.210487 0.125717 0
105 1 0.235483 0.121619 0
104 1 0.227922 0.145598 0
133 1 0.20213 0.149116 0
135 1 0.260104 0.117799 0
137 1 0.277431 0.134613 0
108 1 0.285408 0.11158 0
136 1 0.252902 0.142445 0
111 1 0.333679 0.0995009 0
139 1 0.303839 0.134965 0
110 1 0.31088 0.106863 0
141 1 0.3433 0.124071 0
140 1 0.32627 0.144009 0
112 1 0.360837 0.10635 0
114 1 0.384308 0.114697 0
143 1 0.368568 0.134473 0
144 1 0.392721 0.140253 0
86 1 0.428834 0.106262 0
115 1 0.410813 0.122456 0
116 1 0.435611 0.131806 0
145 1 0.416487 0.14687 0
117 1 0.452416 0.113402 0
90 1 0.493604 0.102059 0
118 1 0.459767 0.138363 0
119 1 0.475382 0.120415 0
149 1 0.483642 0.143544 0
153 1 0.0392849 0.167187 0
152 1 0.0126475 0.172277 0
183 1 0.0313344 0.190312 0
1080 1 0.00512384 0.196575 0
124 1 0.0644083 0.159894 0
126 1 0.089246 0.154011 0
155 1 0.0807245 0.177844 0
154 1 0.0574091 0.184471 0
156 1 0.0976494 0.195653 0
128 1 0.131154 0.166006 0
157 1 0.104853 0.172007 0
160 1 0.146923 0.184521 0
158 1 0.122847 0.190019 0
132 1 0.178074 0.154988 0
159 1 0.15406 0.160827 0
161 1 0.171172 0.178549 0
162 1 0.185806 0.197135 0
163 1 0.195379 0.174165 0
134 1 0.217847 0.167223 0
164 1 0.231718 0.185592 0
165 1 0.244282 0.165318 0
166 1 0.25404 0.191935 0
167 1 0.269665 0.173485 0
138 1 0.287478 0.157031 0
168 1 0.294068 0.17979 0
197 1 0.277108 0.198032 0
169 1 0.311628 0.162686 0
171 1 0.334105 0.168606 0
170 1 0.318015 0.187029 0
201 1 0.341471 0.19396 0
142 1 0.351498 0.151356 0
172 1 0.357564 0.175992 0
173 1 0.375169 0.159069 0
174 1 0.381131 0.181914 0
175 1 0.399732 0.164089 0
147 1 0.442716 0.156001 0
146 1 0.424114 0.171686 0
205 1 0.40581 0.187588 0
176 1 0.429782 0.19691 0
177 1 0.448068 0.179542 0
148 1 0.46678 0.161453 0
150 1 0.491108 0.166392 0
179 1 0.472305 0.185694 0
180 1 0.497338 0.191154 0
182 1 0.0235035 0.213594 0
213 1 0.0404383 0.231855 0
211 1 0.0148254 0.237645 0
184 1 0.0483627 0.208162 0
185 1 0.0745189 0.201434 0
186 1 0.0899825 0.220805 0
215 1 0.0660259 0.225219 0
216 1 0.0823846 0.243701 0
214 1 0.0578047 0.247856 0
187 1 0.115816 0.215388 0
188 1 0.132551 0.238766 0
189 1 0.139465 0.20774 0
217 1 0.10727 0.238045 0
191 1 0.163291 0.204583 0
190 1 0.153801 0.226844 0
192 1 0.195529 0.218465 0
221 1 0.177328 0.233986 0
193 1 0.212895 0.200331 0
223 1 0.20138 0.241482 0
194 1 0.219919 0.225296 0
195 1 0.237869 0.209089 0
225 1 0.243464 0.232794 0
196 1 0.261112 0.215933 0
198 1 0.28455 0.222448 0
227 1 0.267126 0.239409 0
228 1 0.289492 0.247209 0
199 1 0.300316 0.203937 0
200 1 0.324261 0.210151 0
229 1 0.306964 0.228914 0
231 1 0.330988 0.236011 0
202 1 0.34797 0.219421 0
203 1 0.365285 0.200174 0
204 1 0.389475 0.206661 0
233 1 0.372534 0.225135 0
235 1 0.396844 0.230891 0
232 1 0.354897 0.243728 0
234 1 0.378999 0.248593 0
207 1 0.437714 0.221445 0
206 1 0.420446 0.238041 0
237 1 0.443062 0.245532 0
178 1 0.454284 0.203665 0
208 1 0.461282 0.228123 0
209 1 0.478841 0.2099 0
210 1 0.485237 0.233159 0
241 1 0.000802934 0.28842 0
212 1 0.00634754 0.263551 0
243 1 0.0308057 0.25664 0
242 1 0.023799 0.281694 0
273 1 0.0426755 0.298212 0
244 1 0.0493339 0.274352 0
245 1 0.0736738 0.267979 0
247 1 0.0800395 0.292461 0
218 1 0.0994546 0.275172 0
219 1 0.118283 0.260062 0
249 1 0.141619 0.266878 0
248 1 0.123359 0.283834 0
250 1 0.146388 0.291027 0
220 1 0.159261 0.251636 0
222 1 0.183273 0.258033 0
251 1 0.165506 0.275092 0
252 1 0.188554 0.283946 0
281 1 0.170406 0.299906 0
224 1 0.224756 0.249437 0
253 1 0.205639 0.26658 0
255 1 0.229772 0.273181 0
254 1 0.213237 0.290683 0
226 1 0.248106 0.256223 0
285 1 0.236536 0.298437 0
256 1 0.253903 0.280942 0
257 1 0.271156 0.263238 0
259 1 0.295487 0.271764 0
258 1 0.277593 0.28939 0
289 1 0.301457 0.295065 0
230 1 0.313724 0.253273 0
260 1 0.319578 0.278138 0
261 1 0.337596 0.261356 0
262 1 0.342316 0.285913 0
263 1 0.361296 0.267539 0
264 1 0.385119 0.273753 0
293 1 0.366799 0.291293 0
295 1 0.3897 0.298268 0
265 1 0.402637 0.255189 0
236 1 0.426339 0.262623 0
266 1 0.408358 0.279463 0
267 1 0.432409 0.286235 0
238 1 0.450184 0.269248 0
239 1 0.468163 0.25175 0
240 1 0.492169 0.258418 0
269 1 0.473602 0.275246 0
268 1 0.456568 0.293624 0
1141 1 0.498077 0.281986 0
271 1 0.0194881 0.305779 0
272 1 0.0435024 0.322579 0
301 1 0.0186324 0.333896 0
303 1 0.0456226 0.346962 0
275 1 0.0634844 0.309254 0
276 1 0.0872736 0.316031 0
274 1 0.0660896 0.332894 0
305 1 0.0894753 0.341102 0
246 1 0.105121 0.300792 0
279 1 0.127985 0.308145 0
277 1 0.10924 0.326561 0
278 1 0.13191 0.33343 0
280 1 0.150687 0.315962 0
311 1 0.155726 0.341524 0
283 1 0.193744 0.308166 0
282 1 0.17558 0.325118 0
313 1 0.198661 0.332513 0
312 1 0.180115 0.349754 0
284 1 0.218852 0.315225 0
315 1 0.224719 0.339526 0
286 1 0.2422 0.323095 0
316 1 0.248398 0.346294 0
287 1 0.259158 0.306222 0
288 1 0.284534 0.312385 0
317 1 0.265996 0.330068 0
319 1 0.289455 0.336387 0
291 1 0.32512 0.302187 0
290 1 0.307432 0.320102 0
321 1 0.313451 0.343964 0
292 1 0.330237 0.32667 0
323 1 0.348263 0.309154 0
294 1 0.373184 0.316605 0
324 1 0.355964 0.333941 0
325 1 0.379577 0.341748 0
296 1 0.396703 0.322852 0
326 1 0.403417 0.348038 0
297 1 0.413654 0.304719 0
298 1 0.439724 0.311427 0
327 1 0.420967 0.328493 0
328 1 0.444761 0.335551 0
270 1 0.479988 0.299873 0
299 1 0.462878 0.318597 0
300 1 0.48704 0.32399 0
1201 1 0.492196 0.348583 0
329 1 0.468216 0.342819 0
331 1 0.00422311 0.37468 0
302 1 0.0244066 0.357901 0
332 1 0.0272591 0.384216 0
361 1 0.00934138 0.400458 0
333 1 0.0477272 0.370928 0
334 1 0.0541196 0.396493 0
304 1 0.0681647 0.356377 0
306 1 0.0939121 0.366045 0
335 1 0.0729023 0.38067 0
337 1 0.0989994 0.390586 0
307 1 0.11232 0.350412 0
309 1 0.136939 0.357268 0
308 1 0.118579 0.373724 0
339 1 0.142781 0.382172 0
338 1 0.123027 0.399092 0
310 1 0.160967 0.365899 0
341 1 0.16604 0.389585 0
343 1 0.186204 0.372622 0
342 1 0.192267 0.397096 0
314 1 0.204245 0.356181 0
345 1 0.230637 0.363328 0
344 1 0.210487 0.38024 0
375 1 0.234691 0.387244 0
346 1 0.25411 0.371671 0
377 1 0.259559 0.395299 0
318 1 0.271705 0.354514 0
349 1 0.295128 0.361545 0
347 1 0.277054 0.378418 0
350 1 0.299901 0.386764 0
322 1 0.337304 0.350804 0
320 1 0.319125 0.368997 0
351 1 0.342228 0.376148 0
381 1 0.324001 0.393963 0
352 1 0.348241 0.399727 0
353 1 0.36019 0.358277 0
355 1 0.384466 0.365882 0
354 1 0.366232 0.382549 0
385 1 0.390138 0.389288 0
357 1 0.42852 0.353892 0
356 1 0.408773 0.370744 0
387 1 0.432934 0.378019 0
386 1 0.414936 0.394831 0
359 1 0.451936 0.360776 0
358 1 0.458318 0.384582 0
330 1 0.476055 0.367671 0
360 1 0.481455 0.39258 0
1231 1 0.499566 0.373566 0
363 1 0.0331717 0.408445 0
362 1 0.0153194 0.424473 0
364 1 0.0391332 0.433274 0
393 1 0.0206595 0.448897 0
336 1 0.0812981 0.408028 0
365 1 0.0608326 0.421326 0
395 1 0.0681642 0.445291 0
367 1 0.105354 0.415342 0
366 1 0.111126 0.442159 0
369 1 0.129051 0.424354 0
340 1 0.147957 0.407435 0
368 1 0.134602 0.449429 0
370 1 0.153845 0.432119 0
371 1 0.171315 0.414303 0
401 1 0.177571 0.437101 0
372 1 0.196241 0.420309 0
403 1 0.201732 0.443829 0
373 1 0.216032 0.403233 0
374 1 0.220937 0.427536 0
376 1 0.240077 0.411461 0
405 1 0.245647 0.436175 0
348 1 0.282394 0.403514 0
407 1 0.269547 0.443604 0
378 1 0.262924 0.419715 0
409 1 0.287795 0.426895 0
379 1 0.305682 0.41137 0
380 1 0.311503 0.435156 0
382 1 0.329626 0.416853 0
411 1 0.335245 0.442318 0
413 1 0.352963 0.423957 0
383 1 0.372191 0.40609 0
414 1 0.378024 0.431029 0
384 1 0.395643 0.413392 0
412 1 0.360674 0.448866 0
388 1 0.438456 0.401992 0
415 1 0.402965 0.437934 0
417 1 0.420654 0.420316 0
416 1 0.427113 0.444882 0
419 1 0.444692 0.425632 0
389 1 0.462402 0.408812 0
418 1 0.469273 0.433778 0
390 1 0.487207 0.416442 0
420 1 0.494157 0.439331 0
422 1 0.0058682 0.489006 0
423 1 0.0250991 0.472902 0
394 1 0.046105 0.457717 0
392 1 0.00184771 0.463643 0
424 1 0.0287218 0.498489 0
425 1 0.0482588 0.482618 0
397 1 0.0917265 0.456631 0
396 1 0.0714311 0.469943 0
426 1 0.0733562 0.495714 0
427 1 0.0944258 0.481569 0
398 1 0.11529 0.465552 0
428 1 0.118928 0.490617 0
429 1 0.138874 0.474346 0
459 1 0.142696 0.498271 0
399 1 0.159345 0.455991 0
400 1 0.182551 0.459938 0
430 1 0.163087 0.481462 0
431 1 0.187936 0.483716 0
404 1 0.224857 0.451736 0
402 1 0.206408 0.467746 0
432 1 0.211157 0.491517 0
433 1 0.230286 0.47603 0
434 1 0.235033 0.500079 0
435 1 0.250669 0.459601 0
408 1 0.294027 0.451023 0
436 1 0.255857 0.484208 0
406 1 0.274197 0.467648 0
437 1 0.279229 0.492464 0
439 1 0.296914 0.476803 0
410 1 0.317561 0.459753 0
440 1 0.322069 0.483894 0
441 1 0.341639 0.467651 0
471 1 0.346664 0.492381 0
442 1 0.365693 0.473462 0
473 1 0.390668 0.481209 0
443 1 0.385155 0.45679 0
472 1 0.37233 0.497615 0
477 1 0.43946 0.492207 0
446 1 0.432769 0.468443 0
445 1 0.409396 0.463615 0
444 1 0.415378 0.48661 0
1321 1 0.501885 0.461978 0
450 1 0.48326 0.480954 0
447 1 0.451626 0.449723 0
478 1 0.464521 0.497531 0
448 1 0.457606 0.474148 0
449 1 0.477004 0.456782 0
453 1 0.0108044 0.513417 0
452 1 0.0142626 0.539126 0
454 1 0.0341208 0.523923 0
483 1 0.0382561 0.548442 0
485 1 0.059384 0.53459 0
455 1 0.0526898 0.50836 0
456 1 0.0789432 0.520663 0
486 1 0.0827329 0.546013 0
457 1 0.0994885 0.506081 0
487 1 0.103815 0.530247 0
458 1 0.123244 0.514005 0
488 1 0.128771 0.540291 0
489 1 0.147222 0.523457 0
461 1 0.192045 0.507042 0
462 1 0.196779 0.53062 0
491 1 0.171438 0.535288 0
460 1 0.1666 0.506989 0
493 1 0.218749 0.539218 0
463 1 0.216777 0.515184 0
464 1 0.239188 0.524806 0
466 1 0.262313 0.534123 0
465 1 0.259606 0.509099 0
467 1 0.283081 0.518024 0
497 1 0.286478 0.542669 0
468 1 0.306741 0.526638 0
469 1 0.326851 0.510202 0
499 1 0.333438 0.534328 0
438 1 0.302587 0.501985 0
470 1 0.353904 0.516953 0
503 1 0.379536 0.522388 0
474 1 0.397593 0.505253 0
505 1 0.387236 0.546658 0
501 1 0.36205 0.540821 0
476 1 0.404633 0.528653 0
509 1 0.429832 0.533787 0
475 1 0.422265 0.510606 0
507 1 0.447078 0.516111 0
479 1 0.472131 0.521032 0
480 1 0.454393 0.539488 0
1381 1 0.496497 0.527909 0
510 1 0.478722 0.545307 0
1351 1 0.491407 0.503769 0
513 1 0.0186557 0.563568 0
514 1 0.0416761 0.574822 0
512 1 0.0206721 0.589358 0
543 1 0.0431114 0.598579 0
484 1 0.0607479 0.559969 0
515 1 0.0859396 0.569678 0
545 1 0.0649641 0.585234 0
516 1 0.0880258 0.594222 0
517 1 0.105928 0.554686 0
518 1 0.108079 0.579561 0
519 1 0.130034 0.564725 0
549 1 0.131965 0.590465 0
490 1 0.152072 0.55131 0
520 1 0.152673 0.576145 0
521 1 0.174391 0.564733 0
492 1 0.197547 0.554524 0
522 1 0.176592 0.59011 0
523 1 0.198275 0.577478 0
495 1 0.239542 0.549224 0
494 1 0.219147 0.563871 0
524 1 0.219534 0.588883 0
525 1 0.241407 0.573885 0
555 1 0.242181 0.599371 0
496 1 0.262407 0.559744 0
526 1 0.262088 0.585001 0
527 1 0.284747 0.569303 0
528 1 0.283586 0.594097 0
498 1 0.309282 0.555105 0
529 1 0.305973 0.579185 0
500 1 0.332846 0.56823 0
530 1 0.328979 0.592193 0
531 1 0.352939 0.584016 0
502 1 0.368954 0.56526 0
504 1 0.393806 0.570383 0
533 1 0.376938 0.588304 0
506 1 0.411565 0.551383 0
534 1 0.402245 0.594319 0
535 1 0.419807 0.576943 0
508 1 0.435381 0.557418 0
537 1 0.444173 0.582376 0
539 1 0.460528 0.56244 0
540 1 0.485262 0.56925 0
538 1 0.468222 0.586374 0
569 1 0.491588 0.59303 0
571 1 0.000582822 0.627985 0
542 1 0.0225338 0.613352 0
573 1 0.0241817 0.638802 0
544 1 0.0457099 0.622592 0
574 1 0.0479733 0.648409 0
546 1 0.066886 0.610026 0
547 1 0.08901 0.620747 0
575 1 0.0695006 0.634321 0
576 1 0.0919709 0.645704 0
548 1 0.109812 0.606827 0
550 1 0.133895 0.617705 0
577 1 0.112711 0.632017 0
579 1 0.134801 0.64274 0
553 1 0.197654 0.600754 0
551 1 0.153462 0.60169 0
581 1 0.156163 0.628542 0
552 1 0.176216 0.614322 0
582 1 0.178029 0.638938 0
583 1 0.199284 0.626108 0
554 1 0.220433 0.612558 0
556 1 0.242391 0.622843 0
585 1 0.22137 0.636568 0
586 1 0.24514 0.647093 0
557 1 0.264483 0.609587 0
587 1 0.267011 0.634299 0
558 1 0.286248 0.619036 0
589 1 0.289641 0.646323 0
559 1 0.305968 0.604355 0
560 1 0.307753 0.631186 0
561 1 0.327415 0.616078 0
591 1 0.329432 0.642049 0
562 1 0.3486 0.627991 0
532 1 0.363079 0.607486 0
563 1 0.387121 0.612795 0
564 1 0.372047 0.632316 0
595 1 0.395348 0.638192 0
536 1 0.427737 0.601001 0
565 1 0.411007 0.619254 0
566 1 0.435225 0.623789 0
596 1 0.418734 0.643225 0
598 1 0.441816 0.647684 0
1442 1 0.498558 0.617226 0
567 1 0.451585 0.606163 0
597 1 0.459087 0.630691 0
568 1 0.474803 0.611075 0
570 1 0.483636 0.636234 0
572 1 0.00294346 0.652801 0
603 1 0.0275571 0.66289 0
602 1 0.00607723 0.677306 0
633 1 0.0283404 0.688152 0
604 1 0.0503127 0.673512 0
605 1 0.0703607 0.658892 0
606 1 0.0731427 0.683903 0
607 1 0.0928075 0.670541 0
637 1 0.0962675 0.694711 0
635 1 0.0530351 0.699099 0
578 1 0.114695 0.657483 0
609 1 0.137218 0.667658 0
608 1 0.11611 0.68144 0
639 1 0.138675 0.692272 0
580 1 0.157318 0.653189 0
611 1 0.180671 0.663732 0
610 1 0.159376 0.677854 0
612 1 0.182564 0.688509 0
584 1 0.200674 0.650262 0
613 1 0.202724 0.675113 0
615 1 0.22381 0.662025 0
614 1 0.225221 0.686889 0
617 1 0.246088 0.673226 0
616 1 0.247258 0.698091 0
588 1 0.26816 0.659006 0
619 1 0.291706 0.672038 0
618 1 0.269435 0.683036 0
590 1 0.311133 0.658133 0
621 1 0.315556 0.684102 0
592 1 0.33407 0.666825 0
622 1 0.339722 0.691915 0
593 1 0.352902 0.651161 0
623 1 0.358018 0.673865 0
594 1 0.375811 0.657378 0
624 1 0.384012 0.681071 0
653 1 0.365282 0.697914 0
625 1 0.400525 0.661835 0
627 1 0.424779 0.66721 0
626 1 0.407677 0.685356 0
657 1 0.431521 0.691422 0
628 1 0.449321 0.673527 0
599 1 0.465792 0.654365 0
600 1 0.490795 0.660358 0
629 1 0.473421 0.679393 0
630 1 0.497253 0.684457 0
658 1 0.456209 0.696989 0
632 1 0.00776032 0.701429 0
634 1 0.0321045 0.713016 0
663 1 0.0124351 0.725799 0
664 1 0.0351352 0.737187 0
636 1 0.0764948 0.709434 0
665 1 0.0553841 0.722919 0
666 1 0.0790255 0.734349 0
695 1 0.0579239 0.748343 0
667 1 0.0998014 0.720574 0
668 1 0.101246 0.74552 0
638 1 0.118821 0.70595 0
640 1 0.140719 0.717249 0
669 1 0.121595 0.731431 0
670 1 0.143742 0.741368 0
641 1 0.161277 0.702617 0
642 1 0.183244 0.714204 0
671 1 0.16394 0.727994 0
673 1 0.187245 0.738012 0
643 1 0.204572 0.699859 0
645 1 0.227438 0.71138 0
644 1 0.207926 0.725645 0
675 1 0.228778 0.737521 0
646 1 0.249221 0.72266 0
647 1 0.270531 0.708259 0
648 1 0.271203 0.734299 0
679 1 0.293637 0.743401 0
649 1 0.294696 0.718207 0
677 1 0.251756 0.74734 0
620 1 0.319448 0.711712 0
651 1 0.347407 0.715427 0
650 1 0.332154 0.735052 0
652 1 0.356404 0.741308 0
655 1 0.389867 0.703625 0
654 1 0.371019 0.722071 0
685 1 0.396845 0.728343 0
683 1 0.379571 0.747615 0
656 1 0.415071 0.709393 0
687 1 0.438942 0.715734 0
686 1 0.420664 0.734937 0
717 1 0.445077 0.73977 0
659 1 0.480353 0.70323 0
689 1 0.463654 0.722158 0
660 1 0.486636 0.726951 0
688 1 0.469629 0.745901 0
662 1 0.014985 0.750806 0
694 1 0.0367155 0.761833 0
693 1 0.0175841 0.777192 0
725 1 0.0393564 0.787125 0
697 1 0.0801743 0.760662 0
696 1 0.0597999 0.774398 0
727 1 0.082369 0.784801 0
726 1 0.0622818 0.79847 0
699 1 0.123607 0.755499 0
698 1 0.104555 0.769998 0
700 1 0.12609 0.782406 0
728 1 0.104883 0.794357 0
701 1 0.145926 0.766979 0
731 1 0.148448 0.793129 0
672 1 0.166005 0.752206 0
703 1 0.188707 0.763263 0
702 1 0.168119 0.77874 0
704 1 0.19062 0.789861 0
674 1 0.208799 0.750543 0
676 1 0.231693 0.761356 0
705 1 0.210355 0.776126 0
706 1 0.233311 0.785312 0
707 1 0.254136 0.772615 0
678 1 0.274693 0.759 0
709 1 0.276873 0.783462 0
680 1 0.296759 0.76908 0
737 1 0.25547 0.797186 0
710 1 0.300142 0.794339 0
681 1 0.31615 0.752688 0
682 1 0.338841 0.75956 0
711 1 0.319634 0.778192 0
712 1 0.342466 0.784776 0
713 1 0.361278 0.766316 0
714 1 0.385039 0.772905 0
743 1 0.366958 0.790498 0
745 1 0.390348 0.796987 0
684 1 0.403165 0.752917 0
715 1 0.426802 0.759614 0
716 1 0.409011 0.776173 0
747 1 0.432842 0.784243 0
718 1 0.451583 0.762442 0
690 1 0.494449 0.7509 0
719 1 0.474154 0.770425 0
720 1 0.48308 0.793275 0
749 1 0.458235 0.787885 0
723 1 0.0187369 0.801999 0
722 1 0.0211223 0.828263 0
724 1 0.0422443 0.811703 0
754 1 0.0433952 0.834893 0
757 1 0.0845219 0.809173 0
755 1 0.0648688 0.822521 0
756 1 0.0856419 0.837115 0
729 1 0.127016 0.806728 0
759 1 0.106307 0.821122 0
760 1 0.128425 0.831506 0
758 1 0.107996 0.846804 0
730 1 0.149553 0.819282 0
732 1 0.170621 0.804402 0
761 1 0.152932 0.843321 0
763 1 0.172002 0.829326 0
733 1 0.193206 0.813789 0
764 1 0.193883 0.839394 0
735 1 0.214331 0.800686 0
736 1 0.237006 0.814165 0
734 1 0.215767 0.826796 0
767 1 0.238125 0.839149 0
708 1 0.279814 0.808395 0
738 1 0.259594 0.821997 0
769 1 0.281732 0.8342 0
768 1 0.261409 0.847369 0
741 1 0.325948 0.803225 0
739 1 0.305768 0.817797 0
740 1 0.308391 0.841916 0
771 1 0.330234 0.82801 0
742 1 0.350148 0.807994 0
773 1 0.356504 0.832084 0
744 1 0.374376 0.815853 0
774 1 0.380528 0.841362 0
775 1 0.397823 0.823466 0
746 1 0.414473 0.803334 0
748 1 0.439027 0.809479 0
777 1 0.422599 0.828757 0
776 1 0.406918 0.846855 0
779 1 0.446316 0.833698 0
750 1 0.465382 0.812485 0
1621 1 0.491151 0.817484 0
780 1 0.472536 0.837077 0
1651 1 0.497628 0.842251 0
753 1 0.0416872 0.85889 0
752 1 0.0163094 0.860812 0
783 1 0.0375934 0.881702 0
782 1 0.0116033 0.886009 0
785 1 0.0653186 0.84806 0
784 1 0.0622854 0.873596 0
786 1 0.0808493 0.889568 0
787 1 0.0855901 0.864678 0
815 1 0.0559346 0.898213 0
817 1 0.10375 0.883612 0
789 1 0.131143 0.85487 0
788 1 0.128638 0.878844 0
790 1 0.147872 0.894579 0
791 1 0.151527 0.870065 0
762 1 0.173852 0.855898 0
793 1 0.172334 0.884897 0
795 1 0.196336 0.871301 0
765 1 0.216223 0.850972 0
796 1 0.222162 0.876691 0
766 1 0.247672 0.872442 0
825 1 0.239553 0.897183 0
797 1 0.275053 0.866958 0
827 1 0.264875 0.889801 0
798 1 0.290446 0.887523 0
799 1 0.299819 0.864152 0
772 1 0.349302 0.855447 0
770 1 0.325597 0.858592 0
800 1 0.316432 0.883091 0
801 1 0.339809 0.87775 0
802 1 0.357962 0.895469 0
803 1 0.365386 0.873001 0
804 1 0.383116 0.889496 0
805 1 0.390313 0.866007 0
778 1 0.430725 0.855503 0
807 1 0.409442 0.881181 0
808 1 0.437487 0.879855 0
809 1 0.455278 0.85688 0
1681 1 0.481193 0.860417 0
1711 1 0.487633 0.883574 0
810 1 0.462829 0.881302 0
813 1 0.0300375 0.904007 0
843 1 0.0225068 0.92643 0
844 1 0.0402588 0.944457 0
812 1 0.00513659 0.909398 0
814 1 0.0485819 0.920944 0
816 1 0.0978896 0.908608 0
845 1 0.0733936 0.914376 0
846 1 0.0643892 0.938428 0
847 1 0.0893759 0.932277 0
819 1 0.122881 0.902516 0
818 1 0.113943 0.926243 0
820 1 0.131732 0.944876 0
821 1 0.138567 0.92069 0
792 1 0.162787 0.914052 0
851 1 0.155557 0.938096 0
823 1 0.187674 0.905603 0
822 1 0.18023 0.931426 0
794 1 0.214065 0.90098 0
824 1 0.205086 0.926092 0
885 1 0.223015 0.943944 0
855 1 0.230548 0.92021 0
856 1 0.24816 0.938828 0
826 1 0.255731 0.915377 0
857 1 0.272001 0.934932 0
828 1 0.281726 0.911144 0
859 1 0.298084 0.931344 0
831 1 0.333001 0.90185 0
829 1 0.30597 0.906468 0
830 1 0.324555 0.924103 0
861 1 0.339194 0.944243 0
860 1 0.314782 0.949027 0
832 1 0.349398 0.919841 0
863 1 0.366196 0.937242 0
833 1 0.37544 0.913745 0
834 1 0.391466 0.931567 0
806 1 0.400836 0.906539 0
837 1 0.42549 0.903855 0
835 1 0.417638 0.927269 0
836 1 0.43397 0.946718 0
838 1 0.443022 0.922892 0
869 1 0.460948 0.946324 0
839 1 0.463195 0.906361 0
840 1 0.47719 0.926958 0
1712 1 0.494631 0.907447 0
842 1 0.0150629 0.950305 0
872 1 0.0254354 0.992848 0
873 1 0.0317137 0.968814 0
871 1 0.00871018 0.975588 0
874 1 0.0500552 0.987546 0
1 1 0.000366376 1.00092 0
875 1 0.0575996 0.962241 0
876 1 0.0744547 0.980793 0
848 1 0.0809144 0.956249 0
7 1 0.0913364 0.998949 0
877 1 0.098423 0.974581 0
849 1 0.107304 0.950835 0
878 1 0.115374 0.992871 0
879 1 0.124088 0.96979 0
881 1 0.140515 0.987366 0
850 1 0.149576 0.962585 0
854 1 0.197433 0.950431 0
853 1 0.173895 0.956677 0
852 1 0.16642 0.980242 0
883 1 0.190847 0.975357 0
13 1 0.208655 0.992066 0
15 1 0.233155 0.986697 0
884 1 0.215285 0.968831 0
886 1 0.23984 0.963012 0
858 1 0.289541 0.953389 0
887 1 0.263901 0.958369 0
17 1 0.257119 0.981773 0
888 1 0.281844 0.975984 0
19 1 0.298799 0.995761 0
889 1 0.305202 0.97133 0
890 1 0.322485 0.989886 0
891 1 0.330797 0.967094 0
892 1 0.347637 0.985473 0
862 1 0.357786 0.961946 0
864 1 0.383212 0.956502 0
893 1 0.373529 0.979591 0
894 1 0.390832 0.999241 0
895 1 0.39914 0.97624 0
865 1 0.407405 0.951052 0
866 1 0.423945 0.971562 0
896 1 0.417413 0.996174 0
867 1 0.447568 0.966301 0
897 1 0.443992 0.991094 0
868 1 0.470456 0.969531 0
1771 1 0.493822 0.973883 0
870 1 0.487182 0.949781 0
899 1 0.474937 0.993671 0
902 1 0.535517 0.0255282 0
901 1 0.509085 0.0210912 0
931 1 0.520005 0.0436096 0
903 1 0.525731 0.00289485 0
933 1 0.545002 0.0487039 0
904 1 0.560367 0.0310863 0
906 1 0.576922 0.0121189 0
935 1 0.584913 0.035848 0
905 1 0.552192 0.00765379 0
908 1 0.600791 0.0180679 0
937 1 0.608411 0.0414016 0
939 1 0.626271 0.0240176 0
910 1 0.641593 0.00607899 0
909 1 0.617812 5.1272e-05 0
938 1 0.633867 0.046637 0
941 1 0.651693 0.030217 0
912 1 0.666669 0.0112678 0
942 1 0.67558 0.0364257 0
943 1 0.691066 0.0179775 0
973 1 0.699722 0.0430696 0
944 1 0.715509 0.0228373 0
945 1 0.731867 0.00489485 0
946 1 0.740853 0.0285352 0
975 1 0.723632 0.0471058 0
947 1 0.756536 0.010917 0
948 1 0.765769 0.0341416 0
918 1 0.785207 0.0184412 0
979 1 0.80172 0.0470024 0
949 1 0.809321 0.0219926 0
951 1 0.83455 0.019005 0
950 1 0.82567 0.0406554 0
921 1 0.820956 -0.00107699 0
952 1 0.851714 0.0367855 0
953 1 0.857937 0.0124935 0
924 1 0.88404 0.00721508 0
954 1 0.876041 0.0307502 0
985 1 0.893298 0.0486602 0
955 1 0.901405 0.0253507 0
926 1 0.925923 0.0182931 0
957 1 0.943225 0.0355511 0
956 1 0.919397 0.0429489 0
925 1 0.908443 0.00136153 0
928 1 0.950438 0.0109146 0
959 1 0.967018 0.0293412 0
930 1 0.991971 0.0239876 0
929 1 0.974714 0.00556214 0
960 1 0.984445 0.048124 0
932 1 0.527351 0.0676333 0
962 1 0.535708 0.0913419 0
961 1 0.510127 0.0847198 0
60 1 0.502628 0.0609568 0
963 1 0.551667 0.0735873 0
934 1 0.569063 0.0549181 0
965 1 0.575878 0.0787683 0
936 1 0.592791 0.0593711 0
964 1 0.560132 0.0971374 0
966 1 0.599659 0.0835088 0
967 1 0.617466 0.0651266 0
968 1 0.625187 0.0892492 0
969 1 0.642673 0.0717424 0
999 1 0.649962 0.0964497 0
940 1 0.659609 0.0552831 0
970 1 0.666799 0.0790591 0
971 1 0.683664 0.0604536 0
972 1 0.691303 0.0862612 0
1003 1 0.707992 0.0666676 0
1004 1 0.715552 0.0897996 0
974 1 0.732256 0.0715406 0
1005 1 0.74041 0.0950173 0
976 1 0.748039 0.0525926 0
1007 1 0.7572 0.0746232 0
977 1 0.77578 0.0562106 0
978 1 0.793626 0.0713255 0
1008 1 0.787678 0.0952499 0
1006 1 0.763628 0.0995512 0
980 1 0.818519 0.0663092 0
981 1 0.843064 0.0606121 0
1009 1 0.811398 0.0893568 0
1011 1 0.835059 0.0840649 0
982 1 0.85931 0.0786829 0
983 1 0.868346 0.0562199 0
984 1 0.887355 0.0723695 0
1013 1 0.878971 0.0968633 0
1015 1 0.903165 0.0910363 0
986 1 0.911195 0.0659873 0
987 1 0.936446 0.0595874 0
1017 1 0.927701 0.0838582 0
988 1 0.953006 0.0775043 0
958 1 0.960356 0.0530391 0
989 1 0.977106 0.071418 0
990 1 0.995886 0.0897978 0
1019 1 0.97121 0.0947 0
991 1 0.519152 0.10909 0
992 1 0.526498 0.131569 0
993 1 0.543796 0.114613 0
1023 1 0.549788 0.138464 0
120 1 0.500494 0.125811 0
1021 1 0.509247 0.148917 0
995 1 0.584114 0.102331 0
994 1 0.567279 0.121438 0
996 1 0.590981 0.125301 0
1025 1 0.573221 0.14527 0
997 1 0.607884 0.107569 0
998 1 0.632659 0.114353 0
1027 1 0.615667 0.13253 0
1029 1 0.639243 0.138172 0
1001 1 0.674178 0.103885 0
1000 1 0.656158 0.121036 0
1031 1 0.681867 0.126416 0
1030 1 0.665298 0.144218 0
1002 1 0.698816 0.109804 0
1032 1 0.689063 0.150397 0
1033 1 0.706919 0.132079 0
1035 1 0.72497 0.113502 0
1034 1 0.731647 0.138487 0
1036 1 0.752386 0.121645 0
1037 1 0.778525 0.120453 0
1038 1 0.794784 0.139066 0
1067 1 0.766722 0.143285 0
1039 1 0.803176 0.114783 0
1010 1 0.827894 0.108245 0
1040 1 0.820544 0.13296 0
1041 1 0.844539 0.126825 0
1012 1 0.851712 0.102499 0
1043 1 0.86911 0.119642 0
1014 1 0.896604 0.115014 0
1044 1 0.886504 0.136831 0
1042 1 0.861948 0.144361 0
1018 1 0.945495 0.100917 0
1045 1 0.912828 0.13167 0
1016 1 0.920798 0.107621 0
1047 1 0.937636 0.125357 0
1077 1 0.92889 0.149354 0
1049 1 0.961837 0.118861 0
1020 1 0.986142 0.114248 0
1050 1 0.978251 0.138105 0
1046 1 0.954544 0.142578 0
1022 1 0.532986 0.15612 0
1053 1 0.53873 0.181742 0
1051 1 0.514968 0.173895 0
1052 1 0.520381 0.199455 0
1026 1 0.597155 0.150329 0
1024 1 0.556313 0.162974 0
1055 1 0.580239 0.169224 0
1054 1 0.562306 0.187308 0
1056 1 0.588031 0.192564 0
1028 1 0.623232 0.15567 0
1057 1 0.605587 0.173056 0
1058 1 0.630076 0.178902 0
1059 1 0.647497 0.160964 0
1087 1 0.612031 0.197997 0
1060 1 0.654285 0.186591 0
1061 1 0.67036 0.168296 0
1091 1 0.679149 0.191238 0
1062 1 0.696385 0.174119 0
1063 1 0.7146 0.156567 0
1064 1 0.720374 0.180348 0
1095 1 0.745469 0.18789 0
1065 1 0.738464 0.163041 0
1093 1 0.702273 0.197991 0
1066 1 0.763252 0.169562 0
1068 1 0.78748 0.161308 0
1097 1 0.781589 0.187108 0
1071 1 0.837351 0.151107 0
1069 1 0.812885 0.156762 0
1070 1 0.829994 0.174914 0
1099 1 0.805102 0.180688 0
1100 1 0.822813 0.199511 0
1101 1 0.847712 0.192592 0
1072 1 0.854446 0.168751 0
1073 1 0.878955 0.160852 0
1103 1 0.87247 0.184712 0
1074 1 0.89719 0.177808 0
1075 1 0.904138 0.154621 0
1076 1 0.921666 0.172458 0
1107 1 0.938623 0.19204 0
1078 1 0.945731 0.167763 0
1105 1 0.913954 0.19617 0
1048 1 0.970009 0.16067 0
151 1 0.995374 0.155129 0
1079 1 0.987546 0.178969 0
1109 1 0.963496 0.1855 0
1083 1 0.544848 0.205137 0
1082 1 0.527676 0.222665 0
1111 1 0.510149 0.240866 0
1113 1 0.535547 0.245562 0
1081 1 0.50371 0.216198 0
1084 1 0.553285 0.228651 0
1085 1 0.571115 0.209967 0
1086 1 0.595616 0.21609 0
1115 1 0.577813 0.234508 0
1117 1 0.602059 0.24074 0
1089 1 0.636458 0.204289 0
1088 1 0.619291 0.222563 0
1119 1 0.643279 0.226783 0
1118 1 0.62565 0.245296 0
1090 1 0.660504 0.209982 0
1092 1 0.685263 0.215304 0
1121 1 0.667391 0.234201 0
1122 1 0.69277 0.239297 0
1094 1 0.727559 0.203936 0
1123 1 0.710059 0.221991 0
1124 1 0.717233 0.246312 0
1125 1 0.735181 0.228676 0
1096 1 0.753205 0.210747 0
1127 1 0.776482 0.214288 0
1126 1 0.758448 0.235606 0
1128 1 0.783527 0.24045 0
1098 1 0.799408 0.205388 0
1131 1 0.840635 0.216038 0
1129 1 0.816168 0.223845 0
1130 1 0.834449 0.241434 0
1159 1 0.808804 0.248161 0
1102 1 0.866808 0.2095 0
1104 1 0.890429 0.203068 0
1132 1 0.858504 0.232402 0
1133 1 0.883902 0.227127 0
1134 1 0.900952 0.245659 0
1135 1 0.907585 0.22089 0
1106 1 0.932026 0.216292 0
1136 1 0.926164 0.240442 0
181 1 0.9977 0.220021 0
1137 1 0.949395 0.234542 0
1108 1 0.955923 0.20939 0
1110 1 0.980303 0.203255 0
1139 1 0.97369 0.227477 0
1140 1 0.991395 0.24377 0
1112 1 0.516274 0.264465 0
1143 1 0.541397 0.269814 0
1142 1 0.521372 0.288637 0
1144 1 0.547293 0.294315 0
1114 1 0.559286 0.252329 0
1116 1 0.583191 0.258124 0
1145 1 0.56442 0.276634 0
1146 1 0.589703 0.281038 0
1175 1 0.570723 0.301102 0
1147 1 0.608173 0.263927 0
1149 1 0.63236 0.269662 0
1148 1 0.614366 0.287717 0
1179 1 0.639097 0.292797 0
1120 1 0.649357 0.250167 0
1151 1 0.673815 0.259019 0
1150 1 0.656227 0.275571 0
1152 1 0.679582 0.282922 0