ITEM: TIMESTEP
216000
ITEM: NUMBER OF ATOMS
1800
ITEM: BOX BOUNDS pp pp pp
3.3009312538173106e+00 1.5509906874618076e+02
3.3009312538173106e+00 1.5509906874618076e+02
0.0000000000000000e+00 5.2800000000000002e+00
ITEM: ATOMS id type xs ys zs
2 1 0.0175822 0.0184352 0
3 1 0.0419273 0.0130705 0
33 1 0.0343112 0.0366259 0
31 1 0.0110873 0.0428978 0
4 1 0.0605052 0.0288308 0
6 1 0.0849231 0.0248 0
5 1 0.0691423 0.00540165 0
35 1 0.0758601 0.0480941 0
37 1 0.102423 0.0422343 0
8 1 0.109266 0.0184191 0
9 1 0.12695 0.03484 0
880 1 0.134528 0.0115359 0
10 1 0.151201 0.0304109 0
11 1 0.158078 0.00508735 0
12 1 0.175186 0.0239126 0
43 1 0.192514 0.0411396 0
41 1 0.167886 0.0474546 0
882 1 0.18254 -0.00164384 0
14 1 0.198886 0.0164979 0
44 1 0.217292 0.0353451 0
45 1 0.223134 0.010375 0
46 1 0.242219 0.0299686 0
16 1 0.248106 0.00650611 0
47 1 0.266889 0.0258554 0
49 1 0.290835 0.0201109 0
48 1 0.282782 0.044806 0
18 1 0.273853 0.00151563 0
77 1 0.258826 0.0493956 0
50 1 0.307103 0.0390917 0
20 1 0.316046 0.014209 0
51 1 0.331991 0.0333856 0
21 1 0.33997 0.00861743 0
22 1 0.357064 0.028137 0
24 1 0.380853 0.0221553 0
53 1 0.37439 0.0475593 0
55 1 0.396989 0.04057 0
23 1 0.364918 0.00244901 0
25 1 0.40492 0.017126 0
26 1 0.42102 0.0340929 0
27 1 0.434151 0.0125477 0
28 1 0.445337 0.0352208 0
30 1 0.494888 0.0409402 0
898 1 0.460694 0.0152205 0
29 1 0.48604 0.0174243 0
59 1 0.470257 0.0392389 0
32 1 0.028318 0.0606681 0
62 1 0.0198381 0.0842538 0
63 1 0.0444381 0.0786423 0
61 1 0.00249561 0.0664994 0
34 1 0.052201 0.0527577 0
65 1 0.0687852 0.0718813 0
66 1 0.0860274 0.0905188 0
36 1 0.0929912 0.0658504 0
64 1 0.0610036 0.0957093 0
39 1 0.143112 0.0535789 0
38 1 0.11753 0.0600561 0
67 1 0.109822 0.0838313 0
69 1 0.135012 0.0778366 0
70 1 0.151694 0.0947614 0
40 1 0.160271 0.070975 0
71 1 0.176725 0.0894509 0
42 1 0.184484 0.0654965 0
72 1 0.201009 0.0849091 0
73 1 0.209286 0.0608037 0
74 1 0.225885 0.0792463 0
75 1 0.233701 0.0554134 0
106 1 0.242683 0.0974037 0
76 1 0.250811 0.0733881 0
78 1 0.275756 0.0681888 0
109 1 0.291938 0.0874423 0
107 1 0.266997 0.091139 0
79 1 0.300534 0.0645307 0
52 1 0.349282 0.0522292 0
80 1 0.316437 0.0824089 0
81 1 0.324395 0.0572519 0
82 1 0.340731 0.0750365 0
83 1 0.365633 0.0702908 0
113 1 0.379276 0.0908302 0
54 1 0.391582 0.0663135 0
56 1 0.414444 0.0581173 0
57 1 0.437964 0.06066 0
85 1 0.421006 0.0814271 0
87 1 0.445845 0.0881008 0
84 1 0.402641 0.0976736 0
88 1 0.468691 0.0963143 0
58 1 0.462818 0.0667687 0
89 1 0.485579 0.0788356 0
93 1 0.0357738 0.101983 0
92 1 0.028264 0.12543 0
91 1 0.0111282 0.10769 0
121 1 0.00299965 0.131088 0
123 1 0.0452044 0.143813 0
94 1 0.0538021 0.118719 0
95 1 0.0792593 0.114439 0
125 1 0.0697075 0.138073 0
96 1 0.0951501 0.132793 0
68 1 0.127308 0.102295 0
97 1 0.102961 0.107686 0
98 1 0.119633 0.125692 0
99 1 0.144451 0.120185 0
129 1 0.137119 0.144449 0
100 1 0.168475 0.11464 0
130 1 0.161611 0.137773 0
131 1 0.186035 0.131489 0
101 1 0.19359 0.108771 0
103 1 0.21831 0.102187 0
102 1 0.210938 0.126813 0
105 1 0.235119 0.121289 0
104 1 0.22779 0.144667 0
133 1 0.202762 0.14955 0
136 1 0.252968 0.139533 0
135 1 0.259114 0.114971 0
137 1 0.276609 0.133775 0
108 1 0.284027 0.11039 0
111 1 0.334739 0.0996333 0
139 1 0.301827 0.134137 0
110 1 0.310045 0.105923 0
141 1 0.342634 0.127023 0
140 1 0.32572 0.144218 0
112 1 0.359812 0.108246 0
114 1 0.385698 0.114794 0
143 1 0.366621 0.132837 0
144 1 0.391266 0.13975 0
86 1 0.427344 0.105361 0
115 1 0.410124 0.122006 0
116 1 0.432723 0.129219 0
145 1 0.415592 0.14576 0
120 1 0.500367 0.126999 0
117 1 0.451135 0.11255 0
90 1 0.49371 0.102923 0
118 1 0.457059 0.136212 0
119 1 0.476257 0.120039 0
149 1 0.481617 0.143857 0
122 1 0.0207681 0.149833 0
153 1 0.0376867 0.168818 0
152 1 0.0131718 0.173186 0
183 1 0.0304848 0.19196 0
1080 1 0.00490895 0.198576 0
124 1 0.0620197 0.162154 0
126 1 0.0878572 0.156503 0
155 1 0.080457 0.18059 0
154 1 0.054162 0.186535 0
156 1 0.0976133 0.198887 0
127 1 0.113258 0.150918 0
128 1 0.1315 0.167708 0
157 1 0.105597 0.173955 0
160 1 0.147039 0.186483 0
158 1 0.121988 0.191874 0
132 1 0.179232 0.156359 0
159 1 0.155145 0.162184 0
161 1 0.172291 0.179755 0
162 1 0.187713 0.19774 0
163 1 0.19555 0.173912 0
134 1 0.219644 0.167115 0
164 1 0.230238 0.18688 0
165 1 0.244777 0.165558 0
166 1 0.252489 0.193772 0
167 1 0.268301 0.17471 0
138 1 0.285978 0.157125 0
168 1 0.292193 0.180729 0
197 1 0.276023 0.199044 0
169 1 0.309151 0.162115 0
171 1 0.333111 0.168277 0
170 1 0.315762 0.186272 0
201 1 0.339466 0.192255 0
142 1 0.349828 0.150533 0
172 1 0.358084 0.175572 0
173 1 0.374311 0.157717 0
174 1 0.381998 0.181826 0
175 1 0.399713 0.164435 0
147 1 0.440538 0.152574 0
146 1 0.422961 0.171934 0
205 1 0.406116 0.190043 0
176 1 0.429955 0.197217 0
177 1 0.446483 0.179145 0
148 1 0.464792 0.161649 0
150 1 0.488952 0.167678 0
179 1 0.472555 0.186043 0
180 1 0.496405 0.191877 0
182 1 0.0230214 0.21752 0
213 1 0.0397743 0.234455 0
211 1 0.0160585 0.241271 0
184 1 0.0474954 0.210163 0
185 1 0.0726512 0.204575 0
186 1 0.0902536 0.222446 0
215 1 0.0652178 0.228674 0
216 1 0.0842467 0.245488 0
187 1 0.115224 0.215851 0
188 1 0.132964 0.243352 0
189 1 0.138598 0.209849 0
217 1 0.107825 0.238742 0
191 1 0.164709 0.206009 0
190 1 0.153073 0.229691 0
192 1 0.194966 0.221399 0
221 1 0.176861 0.237682 0
223 1 0.200782 0.245585 0
193 1 0.211614 0.202711 0
194 1 0.218301 0.22826 0
195 1 0.234678 0.210848 0
225 1 0.241507 0.235539 0
196 1 0.257799 0.217255 0
198 1 0.281891 0.222479 0
227 1 0.26539 0.241691 0
228 1 0.289341 0.246072 0
199 1 0.299728 0.205653 0
200 1 0.323179 0.210475 0
229 1 0.306185 0.228993 0
231 1 0.329869 0.236388 0
202 1 0.346515 0.216465 0
203 1 0.364077 0.199143 0
204 1 0.387438 0.206911 0
233 1 0.370884 0.224441 0
235 1 0.396606 0.229946 0
232 1 0.35376 0.242966 0
234 1 0.378857 0.248147 0
207 1 0.437349 0.220334 0
206 1 0.419932 0.237233 0
237 1 0.444341 0.244595 0
178 1 0.455185 0.203463 0
208 1 0.463165 0.22713 0
209 1 0.479009 0.209526 0
210 1 0.487159 0.233724 0
212 1 0.00768941 0.26433 0
243 1 0.0329491 0.258823 0
242 1 0.00877617 0.288901 0
273 1 0.0329578 0.295938 0
244 1 0.0515399 0.278503 0
214 1 0.0564277 0.252861 0
245 1 0.0745045 0.268526 0
247 1 0.0782881 0.292732 0
218 1 0.0974225 0.277615 0
219 1 0.116977 0.261387 0
249 1 0.140152 0.270361 0
248 1 0.120891 0.286131 0
250 1 0.145653 0.295147 0
220 1 0.158063 0.253083 0
222 1 0.183128 0.262284 0
251 1 0.16478 0.278417 0
252 1 0.188186 0.286343 0
224 1 0.224257 0.252455 0
253 1 0.207442 0.269059 0
255 1 0.230847 0.276513 0
254 1 0.212479 0.294142 0
226 1 0.247425 0.25963 0
256 1 0.253808 0.283726 0
257 1 0.27113 0.26526 0
259 1 0.294752 0.27073 0
258 1 0.277762 0.29035 0
289 1 0.300689 0.297929 0
230 1 0.313502 0.253781 0
260 1 0.318232 0.278305 0
261 1 0.336053 0.260966 0
262 1 0.343708 0.28463 0
263 1 0.361511 0.267074 0
264 1 0.384782 0.273086 0
293 1 0.367984 0.290483 0
295 1 0.39102 0.297833 0
265 1 0.403135 0.255853 0
236 1 0.426611 0.261926 0
266 1 0.40908 0.278888 0
267 1 0.433892 0.285281 0
239 1 0.46847 0.251397 0
238 1 0.45128 0.267661 0
240 1 0.493478 0.257025 0
269 1 0.476211 0.27451 0
268 1 0.457864 0.292136 0
270 1 0.482227 0.29961 0
271 1 0.0142265 0.313019 0
272 1 0.0391538 0.320597 0
301 1 0.0192728 0.337727 0
303 1 0.042848 0.345675 0
275 1 0.0577383 0.303996 0
276 1 0.0821715 0.31756 0
274 1 0.0631897 0.333548 0
305 1 0.0863137 0.342839 0
246 1 0.101219 0.302012 0
279 1 0.125369 0.310196 0
277 1 0.106283 0.326737 0
278 1 0.12955 0.33581 0
307 1 0.109862 0.350734 0
280 1 0.148386 0.318977 0
281 1 0.169164 0.302416 0
311 1 0.154001 0.342894 0
283 1 0.192983 0.311067 0
282 1 0.172764 0.326175 0
313 1 0.19649 0.335792 0
285 1 0.235639 0.301334 0
284 1 0.216882 0.3185 0
315 1 0.220205 0.342744 0
286 1 0.240703 0.324788 0
287 1 0.258523 0.308019 0
288 1 0.282626 0.314833 0
317 1 0.264128 0.332598 0
319 1 0.287459 0.338871 0
291 1 0.325413 0.30222 0
290 1 0.306541 0.321677 0
321 1 0.313649 0.344409 0
292 1 0.331622 0.325011 0
323 1 0.350426 0.308651 0
294 1 0.374929 0.315192 0
324 1 0.355408 0.331661 0
325 1 0.379537 0.339225 0
296 1 0.397751 0.322977 0
326 1 0.405482 0.34642 0
297 1 0.416582 0.303985 0
298 1 0.440023 0.309639 0
327 1 0.423124 0.327324 0
328 1 0.447463 0.334083 0
299 1 0.464224 0.316126 0
300 1 0.488545 0.324234 0
329 1 0.470697 0.339418 0
1201 1 0.494435 0.348037 0
331 1 0.00350576 0.376165 0
302 1 0.0229918 0.361747 0
332 1 0.0267614 0.386022 0
333 1 0.0473217 0.37049 0
334 1 0.0512422 0.395179 0
304 1 0.0669837 0.357112 0
306 1 0.0913141 0.3661 0
335 1 0.0714545 0.381812 0
337 1 0.0967213 0.390267 0
309 1 0.134662 0.360001 0
308 1 0.115771 0.374569 0
339 1 0.139736 0.384189 0
312 1 0.177376 0.351199 0
310 1 0.158086 0.36776 0
341 1 0.163844 0.391807 0
343 1 0.183396 0.376001 0
316 1 0.245856 0.350052 0
314 1 0.202403 0.359483 0
345 1 0.22725 0.367305 0
344 1 0.206823 0.383394 0
375 1 0.231371 0.392842 0
346 1 0.252019 0.37476 0
318 1 0.269458 0.35688 0
349 1 0.294398 0.36214 0
347 1 0.275821 0.381855 0
377 1 0.256156 0.400313 0
322 1 0.337345 0.349508 0
350 1 0.301307 0.385695 0
320 1 0.319591 0.367538 0
351 1 0.34421 0.373715 0
381 1 0.327485 0.391262 0
352 1 0.351252 0.398125 0
353 1 0.361981 0.356944 0
355 1 0.387136 0.36413 0
354 1 0.369145 0.380953 0
385 1 0.393728 0.388249 0
357 1 0.429604 0.352209 0
356 1 0.411738 0.370107 0
387 1 0.436128 0.376102 0
386 1 0.418833 0.393857 0
359 1 0.454173 0.358603 0
358 1 0.460574 0.383419 0
330 1 0.477275 0.364895 0
360 1 0.483543 0.390484 0
361 1 0.00751646 0.40165 0
363 1 0.0314944 0.410087 0
362 1 0.0119228 0.426126 0
364 1 0.036012 0.435424 0
336 1 0.0770874 0.406846 0
365 1 0.0550775 0.419008 0
395 1 0.0605291 0.445072 0
367 1 0.100469 0.414888 0
338 1 0.11973 0.399378 0
366 1 0.104639 0.439518 0
369 1 0.124149 0.423404 0
340 1 0.144255 0.408495 0
370 1 0.146995 0.432869 0
368 1 0.127899 0.448015 0
342 1 0.188188 0.399499 0
371 1 0.168063 0.416072 0
401 1 0.17105 0.440736 0
372 1 0.191911 0.424856 0
373 1 0.211213 0.409026 0
374 1 0.21432 0.43473 0
376 1 0.234742 0.417113 0
405 1 0.237129 0.444233 0
348 1 0.280975 0.405998 0
407 1 0.276819 0.442812 0
378 1 0.258642 0.425514 0
409 1 0.294637 0.426288 0
379 1 0.309999 0.407368 0
380 1 0.317861 0.432765 0
382 1 0.334039 0.415187 0
411 1 0.341806 0.440635 0
413 1 0.358426 0.422266 0
383 1 0.375923 0.405778 0
414 1 0.382933 0.429884 0
412 1 0.364937 0.447427 0
388 1 0.442193 0.400265 0
384 1 0.400765 0.411915 0
415 1 0.406225 0.436327 0
417 1 0.424629 0.417512 0
416 1 0.429898 0.44184 0
419 1 0.447919 0.424544 0
389 1 0.466628 0.407766 0
418 1 0.4733 0.431064 0
390 1 0.490841 0.413611 0
420 1 0.496296 0.437143 0
447 1 0.45441 0.44906 0
393 1 0.0177159 0.450971 0
422 1 0.00298104 0.491515 0
423 1 0.0223234 0.476124 0
394 1 0.041211 0.459834 0
425 1 0.0467158 0.485391 0
397 1 0.0842947 0.454559 0
396 1 0.064952 0.469342 0
426 1 0.0706341 0.49355 0
427 1 0.0893443 0.478868 0
398 1 0.108397 0.464611 0
428 1 0.113136 0.488824 0
429 1 0.132019 0.472027 0
459 1 0.137258 0.49706 0
403 1 0.195146 0.450075 0
399 1 0.151788 0.457654 0
400 1 0.176646 0.466517 0
430 1 0.15697 0.482443 0
431 1 0.180765 0.491165 0
402 1 0.199404 0.47596 0
404 1 0.21865 0.460963 0
432 1 0.222749 0.487465 0
433 1 0.240335 0.471631 0
434 1 0.245199 0.49595 0
435 1 0.258353 0.457307 0
436 1 0.264421 0.480932 0
406 1 0.283185 0.465851 0
437 1 0.287682 0.489261 0
408 1 0.301812 0.450218 0
439 1 0.30672 0.474574 0
410 1 0.324573 0.458329 0
440 1 0.329297 0.481366 0
441 1 0.347951 0.465095 0
438 1 0.310677 0.498658 0
471 1 0.353243 0.489213 0
472 1 0.377333 0.496058 0
442 1 0.371726 0.471217 0
473 1 0.395834 0.478029 0
443 1 0.389935 0.453993 0
444 1 0.420015 0.483704 0
477 1 0.443665 0.491348 0
446 1 0.438039 0.466408 0
445 1 0.413962 0.459839 0
478 1 0.468669 0.497049 0
448 1 0.461447 0.473111 0
449 1 0.478651 0.454975 0
450 1 0.485741 0.477754 0
453 1 0.00769332 0.515636 0
452 1 0.0124273 0.540434 0
454 1 0.0316074 0.525244 0
424 1 0.0285645 0.500449 0
455 1 0.0520776 0.509762 0
485 1 0.0553018 0.534482 0
456 1 0.0749289 0.51915 0
486 1 0.0786577 0.544438 0
457 1 0.0944526 0.503938 0
487 1 0.0975005 0.528273 0
458 1 0.117582 0.513831 0
488 1 0.121421 0.537697 0
489 1 0.141842 0.522696 0
490 1 0.145958 0.546638 0
462 1 0.184071 0.516637 0
491 1 0.1647 0.531507 0
460 1 0.160973 0.506706 0
492 1 0.188628 0.542388 0
461 1 0.204192 0.502137 0
493 1 0.207135 0.527524 0
463 1 0.226798 0.512927 0
495 1 0.230782 0.537763 0
464 1 0.249073 0.521986 0
466 1 0.273329 0.531312 0
465 1 0.267681 0.506165 0
467 1 0.291943 0.51413 0
497 1 0.298177 0.53964 0
496 1 0.25467 0.546973 0
468 1 0.316348 0.523117 0
469 1 0.334479 0.505563 0
499 1 0.341528 0.529048 0
498 1 0.321894 0.546843 0
470 1 0.359227 0.512988 0
503 1 0.383213 0.520265 0
505 1 0.388761 0.544109 0
501 1 0.365039 0.536957 0
474 1 0.401681 0.502181 0
476 1 0.407448 0.526123 0
509 1 0.431693 0.532442 0
475 1 0.426691 0.509237 0
507 1 0.450254 0.51511 0
479 1 0.474335 0.520599 0
480 1 0.455376 0.539798 0
510 1 0.479212 0.545571 0
1351 1 0.491772 0.501841 0
1381 1 0.49678 0.527084 0
483 1 0.0354817 0.550422 0
513 1 0.0160443 0.565032 0
514 1 0.0384091 0.57566 0
512 1 0.020069 0.592181 0
543 1 0.0430171 0.600044 0
484 1 0.0588041 0.55997 0
515 1 0.081325 0.569045 0
545 1 0.0619394 0.584831 0
516 1 0.0853112 0.593514 0
517 1 0.101376 0.553965 0
518 1 0.104506 0.5785 0
519 1 0.125597 0.561761 0
549 1 0.128253 0.588748 0
520 1 0.148849 0.571392 0
521 1 0.168255 0.557267 0
522 1 0.171498 0.581302 0
523 1 0.192067 0.568572 0
553 1 0.19552 0.592045 0
551 1 0.152688 0.597578 0
494 1 0.211489 0.552929 0
524 1 0.215336 0.576668 0
525 1 0.235877 0.561855 0
555 1 0.238808 0.58691 0
526 1 0.258788 0.571651 0
527 1 0.277909 0.555847 0
528 1 0.282684 0.580262 0
557 1 0.263103 0.596601 0
529 1 0.302557 0.563572 0
500 1 0.346843 0.553867 0
530 1 0.325877 0.57328 0
559 1 0.307751 0.590208 0
561 1 0.331871 0.59772 0
531 1 0.351355 0.579188 0
502 1 0.37107 0.561892 0
504 1 0.39459 0.567423 0
533 1 0.377082 0.586181 0
534 1 0.401621 0.592923 0
506 1 0.413312 0.549878 0
535 1 0.418942 0.574703 0
508 1 0.436931 0.556769 0
537 1 0.442964 0.581687 0
536 1 0.425671 0.599049 0
539 1 0.461046 0.564475 0
540 1 0.485274 0.56987 0
538 1 0.466686 0.587457 0
569 1 0.491028 0.594558 0
542 1 0.0241614 0.616331 0
573 1 0.0274149 0.64001 0
544 1 0.0467168 0.625389 0
571 1 0.00368915 0.631296 0
546 1 0.0655176 0.609862 0
547 1 0.0909486 0.618948 0
575 1 0.0712127 0.633094 0
576 1 0.0936202 0.643112 0
548 1 0.109154 0.603366 0
550 1 0.132731 0.613156 0
577 1 0.11345 0.628363 0
579 1 0.13656 0.638742 0
581 1 0.155352 0.624017 0
552 1 0.176454 0.607252 0
582 1 0.179015 0.632121 0
580 1 0.160464 0.647463 0
583 1 0.19816 0.617889 0
584 1 0.203139 0.641873 0
554 1 0.219224 0.60166 0
556 1 0.241648 0.611463 0
585 1 0.222147 0.625834 0
586 1 0.246657 0.634998 0
587 1 0.267592 0.620241 0
558 1 0.287482 0.605066 0
588 1 0.271321 0.644152 0
589 1 0.293581 0.630143 0
560 1 0.313307 0.614098 0
591 1 0.322268 0.637689 0
562 1 0.339305 0.621305 0
593 1 0.346939 0.645407 0
532 1 0.357962 0.603228 0
563 1 0.382556 0.609575 0
564 1 0.365135 0.627936 0
595 1 0.389564 0.633484 0
565 1 0.407133 0.617053 0
566 1 0.431814 0.623995 0
596 1 0.413722 0.641495 0
598 1 0.436727 0.64816 0
567 1 0.449656 0.605858 0
597 1 0.454822 0.63017 0
568 1 0.473751 0.612669 0
570 1 0.478736 0.636671 0
1442 1 0.497867 0.617709 0
574 1 0.0511956 0.649072 0
572 1 0.00821385 0.655437 0
603 1 0.031257 0.663641 0
602 1 0.0108656 0.679869 0
633 1 0.0344805 0.688762 0
604 1 0.0540995 0.673492 0
605 1 0.0748621 0.658238 0
606 1 0.0776985 0.682755 0
607 1 0.0980381 0.667972 0
635 1 0.058179 0.697869 0
637 1 0.100625 0.692015 0
578 1 0.116498 0.653029 0
609 1 0.14079 0.663479 0
608 1 0.120381 0.677359 0
639 1 0.144308 0.687223 0
611 1 0.182901 0.656262 0
610 1 0.164059 0.672348 0
612 1 0.187236 0.682307 0
641 1 0.167759 0.697592 0
615 1 0.225995 0.650324 0
613 1 0.205829 0.666047 0
614 1 0.229918 0.675158 0
643 1 0.209756 0.690554 0
617 1 0.248413 0.658707 0
616 1 0.252461 0.683908 0
619 1 0.292352 0.676477 0
618 1 0.270399 0.667847 0
647 1 0.274346 0.692602 0
590 1 0.303296 0.654249 0
621 1 0.315213 0.682757 0
592 1 0.330607 0.664047 0
622 1 0.338982 0.689403 0
623 1 0.355095 0.670231 0
594 1 0.371511 0.651819 0
624 1 0.379441 0.67685 0
653 1 0.36277 0.694804 0
625 1 0.395431 0.658286 0
627 1 0.418943 0.664359 0
626 1 0.404033 0.683819 0
657 1 0.426454 0.689952 0
628 1 0.445058 0.672431 0
599 1 0.461082 0.654034 0
600 1 0.486124 0.659532 0
629 1 0.470071 0.677632 0
630 1 0.493246 0.686807 0
658 1 0.451141 0.696275 0
632 1 0.0147118 0.703823 0
634 1 0.0390189 0.713697 0
663 1 0.0187225 0.728985 0
664 1 0.0423266 0.738407 0
636 1 0.0818465 0.708338 0
665 1 0.0627902 0.722299 0
666 1 0.0865345 0.732746 0
695 1 0.0673662 0.74795 0
667 1 0.106176 0.717921 0
668 1 0.109195 0.743918 0
638 1 0.124676 0.702086 0
640 1 0.147267 0.712355 0
669 1 0.128804 0.727086 0
670 1 0.152247 0.737075 0
642 1 0.190174 0.70654 0
671 1 0.171907 0.723128 0
673 1 0.194898 0.732374 0
672 1 0.175877 0.748094 0
645 1 0.233767 0.699832 0
644 1 0.21343 0.715596 0
675 1 0.237122 0.724673 0
674 1 0.217577 0.741502 0
649 1 0.297432 0.701095 0
646 1 0.256569 0.710075 0
677 1 0.260581 0.735067 0
648 1 0.278716 0.717453 0
678 1 0.28486 0.741332 0
679 1 0.302914 0.724368 0
620 1 0.321598 0.707642 0
651 1 0.344221 0.713691 0
650 1 0.327122 0.73169 0
681 1 0.308591 0.749444 0
652 1 0.350137 0.738165 0
655 1 0.387021 0.702114 0
654 1 0.368791 0.71997 0
685 1 0.392549 0.727239 0
683 1 0.374607 0.744963 0
656 1 0.410105 0.709083 0
687 1 0.434398 0.713969 0
686 1 0.417116 0.732812 0
717 1 0.440472 0.738727 0
659 1 0.474459 0.702842 0
689 1 0.457826 0.721061 0
660 1 0.482563 0.727328 0
688 1 0.46536 0.744662 0
662 1 0.0225856 0.75352 0
694 1 0.0475156 0.762626 0
693 1 0.0257684 0.777966 0
692 1 0.00736163 0.794081 0
691 1 0.00368191 0.769618 0
725 1 0.0491494 0.787113 0
697 1 0.0895129 0.758493 0
696 1 0.0695458 0.773891 0
727 1 0.0936842 0.783189 0
726 1 0.0750021 0.79865 0
699 1 0.132996 0.754102 0
698 1 0.113334 0.768804 0
700 1 0.136825 0.779396 0
728 1 0.116848 0.793639 0
701 1 0.156008 0.763274 0
731 1 0.158735 0.788967 0
702 1 0.179149 0.773661 0
732 1 0.182571 0.797435 0
703 1 0.198874 0.758051 0
676 1 0.241315 0.750301 0
704 1 0.20305 0.78346 0
705 1 0.223156 0.767442 0
735 1 0.228847 0.791955 0
706 1 0.247964 0.775173 0
707 1 0.266819 0.759789 0
709 1 0.272345 0.783085 0
680 1 0.290629 0.76612 0
710 1 0.298147 0.789938 0
737 1 0.253377 0.799579 0
682 1 0.332485 0.756392 0
711 1 0.315334 0.773778 0
712 1 0.338885 0.780652 0
741 1 0.321978 0.798399 0
713 1 0.356974 0.761887 0
714 1 0.381799 0.769309 0
743 1 0.363307 0.786846 0
745 1 0.38959 0.794119 0
684 1 0.398252 0.75179 0
715 1 0.423102 0.757305 0
716 1 0.406642 0.776261 0
747 1 0.42978 0.783352 0
718 1 0.448597 0.76218 0
746 1 0.413171 0.800451 0
690 1 0.489623 0.75099 0
719 1 0.47131 0.76893 0
720 1 0.477902 0.7938 0
749 1 0.453751 0.789159 0
1591 1 0.495214 0.77553 0
723 1 0.0298639 0.803269 0
722 1 0.0275234 0.83711 0
751 1 0.00963331 0.818572 0
1680 1 0.00146378 0.841629 0
754 1 0.0529213 0.833776 0
724 1 0.0535927 0.810156 0
757 1 0.0979274 0.811761 0
755 1 0.075706 0.823725 0
756 1 0.0940341 0.841117 0
785 1 0.0711087 0.849243 0
729 1 0.139035 0.804824 0
759 1 0.118632 0.835489 0
760 1 0.143971 0.830449 0
730 1 0.163767 0.814549 0
763 1 0.188281 0.820733 0
764 1 0.185527 0.84392 0
761 1 0.16061 0.848071 0
733 1 0.21202 0.809904 0
736 1 0.233101 0.827819 0
734 1 0.208236 0.835584 0
708 1 0.27758 0.808967 0
738 1 0.258115 0.825594 0
769 1 0.277405 0.84199 0
768 1 0.251214 0.848423 0
740 1 0.303345 0.838078 0
739 1 0.303391 0.813714 0
771 1 0.328389 0.827424 0
742 1 0.345832 0.804433 0
773 1 0.354014 0.828895 0
744 1 0.37109 0.810462 0
774 1 0.378137 0.836462 0
775 1 0.394859 0.818213 0
776 1 0.402414 0.84356 0
748 1 0.437046 0.806764 0
777 1 0.420361 0.825635 0
779 1 0.444029 0.832257 0
750 1 0.461673 0.813043 0
1621 1 0.486262 0.818139 0
780 1 0.46814 0.838218 0
1651 1 0.493117 0.841659 0
753 1 0.044787 0.856137 0
752 1 0.0198344 0.860195 0
783 1 0.037741 0.879114 0
782 1 0.0123866 0.884853 0
784 1 0.0627312 0.872913 0
786 1 0.0790506 0.890759 0
787 1 0.0869745 0.866927 0
815 1 0.0542006 0.896262 0
758 1 0.11117 0.860317 0
817 1 0.10446 0.884496 0
789 1 0.135924 0.855645 0
788 1 0.129513 0.879031 0
790 1 0.145512 0.897581 0
791 1 0.153884 0.873562 0
762 1 0.17738 0.867567 0
793 1 0.170669 0.891864 0
795 1 0.195183 0.883883 0
765 1 0.202439 0.860075 0
767 1 0.226168 0.853273 0
796 1 0.219988 0.878443 0
766 1 0.244768 0.873187 0
825 1 0.237344 0.897345 0
797 1 0.269158 0.86753 0
827 1 0.26178 0.892597 0
798 1 0.287003 0.886177 0
799 1 0.293998 0.861125 0
772 1 0.34197 0.849528 0
770 1 0.318889 0.856824 0
800 1 0.311108 0.879954 0
801 1 0.335876 0.875201 0
831 1 0.328855 0.898611 0
802 1 0.35361 0.893086 0
803 1 0.359627 0.868774 0
804 1 0.379401 0.888133 0
805 1 0.385349 0.860983 0
778 1 0.426818 0.849496 0
807 1 0.409286 0.868883 0
808 1 0.433015 0.873222 0
837 1 0.442509 0.898516 0
809 1 0.451344 0.855213 0
1681 1 0.475306 0.860654 0
1711 1 0.482547 0.88445 0
810 1 0.457969 0.87946 0
1652 1 0.500032 0.867404 0
813 1 0.0303498 0.903773 0
843 1 0.023678 0.928301 0
844 1 0.0415532 0.945536 0
812 1 0.00669302 0.908685 0
814 1 0.0478196 0.921935 0
845 1 0.0720294 0.914223 0
846 1 0.0657716 0.939977 0
847 1 0.0901539 0.932493 0
816 1 0.096466 0.90943 0
819 1 0.121775 0.903147 0
818 1 0.114656 0.927014 0
820 1 0.130976 0.946246 0
821 1 0.139114 0.921144 0
792 1 0.162343 0.915458 0
851 1 0.154782 0.939196 0
823 1 0.187521 0.909607 0
822 1 0.180447 0.933242 0
794 1 0.212103 0.902679 0
824 1 0.204941 0.926345 0
885 1 0.222014 0.945524 0
855 1 0.230162 0.921774 0
856 1 0.246727 0.939941 0
826 1 0.254857 0.915838 0
857 1 0.272699 0.934924 0
828 1 0.278333 0.91054 0
859 1 0.297449 0.929007 0
829 1 0.303861 0.904719 0
830 1 0.320594 0.922431 0
861 1 0.338911 0.940341 0
860 1 0.314905 0.947764 0
832 1 0.346033 0.916682 0
863 1 0.363669 0.934318 0
833 1 0.37141 0.91148 0
834 1 0.388687 0.931431 0
806 1 0.397861 0.90487 0
835 1 0.415755 0.924675 0
836 1 0.431252 0.945887 0
838 1 0.449151 0.923902 0
869 1 0.45927 0.946152 0
839 1 0.466464 0.903771 0
840 1 0.475385 0.925973 0
1712 1 0.491839 0.9078 0
842 1 0.0165218 0.951845 0
872 1 0.0270553 0.993858 0
873 1 0.0347039 0.969612 0
871 1 0.00885836 0.976599 0
874 1 0.0520015 0.987525 0
1 1 0.00157872 1.0007 0
875 1 0.0588708 0.963439 0
876 1 0.0759 0.981892 0
848 1 0.0832224 0.956825 0
877 1 0.0996068 0.975369 0
7 1 0.0920417 0.999553 0
849 1 0.106725 0.950543 0
878 1 0.117201 0.993765 0
879 1 0.123439 0.968971 0
881 1 0.141173 0.987186 0
850 1 0.147708 0.963161 0
853 1 0.172185 0.957236 0
852 1 0.165382 0.981075 0
883 1 0.189977 0.975056 0
854 1 0.197077 0.950636 0
13 1 0.207529 0.992358 0
15 1 0.232544 0.987734 0
884 1 0.215391 0.969845 0
886 1 0.239753 0.96334 0
858 1 0.289721 0.953701 0
887 1 0.26427 0.958774 0
17 1 0.256684 0.981887 0
888 1 0.282568 0.977053 0
19 1 0.299464 0.995619 0
889 1 0.306951 0.97204 0
890 1 0.323711 0.989455 0
891 1 0.330948 0.966377 0
892 1 0.348499 0.982982 0
894 1 0.389049 0.997958 0
862 1 0.356004 0.959548 0
864 1 0.380028 0.954945 0
893 1 0.372569 0.979541 0
895 1 0.397369 0.973852 0
865 1 0.406162 0.949755 0
867 1 0.444368 0.966984 0
866 1 0.42092 0.96839 0
896 1 0.414149 0.994269 0
897 1 0.451572 0.991584 0
899 1 0.477255 0.993822 0
870 1 0.484724 0.950639 0
868 1 0.469369 0.970894 0
1771 1 0.493638 0.974161 0
902 1 0.534353 0.0260169 0
901 1 0.510382 0.0216706 0
931 1 0.51945 0.0449469 0
903 1 0.527144 0.00248551 0
933 1 0.543835 0.0506944 0
905 1 0.551839 0.00856027 0
904 1 0.559781 0.0313959 0
906 1 0.577398 0.0154697 0
935 1 0.584769 0.0388388 0
908 1 0.601941 0.0205339 0
937 1 0.609486 0.0439609 0
939 1 0.626057 0.0251086 0
910 1 0.642653 0.0076855 0
909 1 0.61792 0.00157041 0
941 1 0.650351 0.0322859 0
912 1 0.667566 0.0137257 0
942 1 0.67585 0.0371335 0
943 1 0.691219 0.0177418 0
973 1 0.700199 0.0425189 0
944 1 0.716366 0.0239176 0
945 1 0.732099 0.00528958 0
946 1 0.740408 0.0294078 0
975 1 0.724228 0.0488788 0
914 1 0.707628 -0.000371831 0
947 1 0.757463 0.0109874 0
948 1 0.765311 0.0350481 0
918 1 0.781189 0.0155232 0
979 1 0.790135 0.0402457 0
949 1 0.805928 0.0214354 0
951 1 0.837919 0.0155968 0
950 1 0.824946 0.0382204 0
952 1 0.854334 0.0334374 0
953 1 0.860823 0.00893174 0
924 1 0.885609 0.00357774 0
954 1 0.878259 0.0282467 0
985 1 0.893628 0.0469492 0
955 1 0.902537 0.0226027 0
926 1 0.928119 0.0179709 0
957 1 0.94415 0.0360441 0
956 1 0.919154 0.0417978 0
928 1 0.953574 0.011929 0
959 1 0.969814 0.0295157 0
930 1 0.993255 0.0246688 0
929 1 0.977103 0.00635499 0
960 1 0.986457 0.0485777 0
932 1 0.527245 0.0701432 0
962 1 0.535662 0.0937197 0
961 1 0.510462 0.0868465 0
60 1 0.503195 0.0637139 0
963 1 0.551312 0.0746348 0
934 1 0.566866 0.0560601 0
965 1 0.576243 0.0802117 0
936 1 0.593247 0.0624446 0
964 1 0.561038 0.0994578 0
938 1 0.633424 0.0499893 0
966 1 0.600943 0.086164 0
967 1 0.61777 0.0685534 0
968 1 0.626565 0.0914384 0
969 1 0.642821 0.074105 0
999 1 0.652689 0.0975457 0
940 1 0.659372 0.055526 0
970 1 0.666872 0.078942 0
971 1 0.683297 0.0611851 0
972 1 0.691735 0.0850924 0
1003 1 0.707926 0.0670152 0
1004 1 0.7159 0.090599 0
974 1 0.732304 0.0718633 0
1005 1 0.741547 0.0958499 0
976 1 0.749256 0.0541202 0
1007 1 0.757457 0.0770791 0
977 1 0.77364 0.0590094 0
978 1 0.797081 0.0641167 0
1008 1 0.782774 0.0827618 0
980 1 0.820198 0.0619732 0
981 1 0.844638 0.0557622 0
1009 1 0.810555 0.085696 0
1011 1 0.835671 0.0809444 0
982 1 0.860007 0.0765271 0
983 1 0.869891 0.0520737 0
984 1 0.885227 0.0722833 0
1013 1 0.876348 0.0944985 0
1015 1 0.903911 0.089433 0
986 1 0.909898 0.0659917 0
987 1 0.936396 0.059228 0
1017 1 0.928642 0.083326 0
988 1 0.953028 0.0782434 0
958 1 0.960608 0.0543218 0
989 1 0.977551 0.070815 0
990 1 0.994344 0.0895813 0
1019 1 0.969896 0.0954996 0
991 1 0.517438 0.10979 0
992 1 0.524893 0.133574 0
993 1 0.542206 0.116728 0
1023 1 0.550918 0.139766 0
995 1 0.584846 0.103339 0
994 1 0.567296 0.122588 0
996 1 0.593111 0.127003 0
1025 1 0.575388 0.145194 0
997 1 0.609091 0.108871 0
998 1 0.63471 0.115787 0
1027 1 0.616333 0.133441 0
1029 1 0.643195 0.140386 0
1001 1 0.676439 0.104161 0
1000 1 0.658502 0.122319 0
1031 1 0.683841 0.127945 0
1030 1 0.667506 0.1468 0
1002 1 0.7007 0.10972 0
1033 1 0.710076 0.133953 0
1035 1 0.725205 0.114674 0
1034 1 0.73354 0.139064 0
1036 1 0.75009 0.121294 0
1006 1 0.76595 0.101108 0
1037 1 0.774286 0.124999 0
1038 1 0.79767 0.13088 0
1067 1 0.757634 0.144729 0
1039 1 0.79282 0.106602 0
1010 1 0.827592 0.104743 0
1040 1 0.821116 0.127778 0
1041 1 0.845586 0.124086 0
1071 1 0.836061 0.148023 0
1012 1 0.851791 0.0996081 0
1043 1 0.869941 0.118315 0
1014 1 0.894079 0.11333 0
1044 1 0.887068 0.136061 0
1042 1 0.86153 0.142695 0
1018 1 0.944971 0.101315 0
1045 1 0.912948 0.130994 0
1016 1 0.919678 0.107637 0
1047 1 0.93791 0.125835 0
1077 1 0.92888 0.149585 0
1049 1 0.961973 0.120291 0
1020 1 0.98592 0.113461 0
1050 1 0.978279 0.13761 0
1046 1 0.953072 0.144179 0
1021 1 0.506391 0.150642 0
1022 1 0.531775 0.156809 0
1053 1 0.539584 0.18042 0
1051 1 0.513592 0.17427 0
1052 1 0.521355 0.197605 0
1026 1 0.599908 0.1516 0
1024 1 0.558137 0.163587 0
1055 1 0.58169 0.169356 0
1054 1 0.56382 0.187565 0
1056 1 0.588553 0.192204 0
1028 1 0.624981 0.157486 0
1057 1 0.607536 0.174593 0
1058 1 0.631842 0.18156 0
1059 1 0.649686 0.163657 0
1087 1 0.61299 0.198671 0
1032 1 0.692787 0.150907 0
1060 1 0.657453 0.187022 0
1061 1 0.675081 0.169464 0
1091 1 0.682033 0.193323 0
1062 1 0.699635 0.175182 0
1063 1 0.716645 0.157198 0
1064 1 0.723498 0.181625 0
1065 1 0.740017 0.162939 0
1093 1 0.706578 0.199526 0
1095 1 0.748529 0.186534 0
1068 1 0.782877 0.150832 0
1066 1 0.763335 0.167581 0
1097 1 0.774198 0.19062 0
1099 1 0.792418 0.17298 0
1098 1 0.797299 0.199539 0
1069 1 0.810705 0.153228 0
1070 1 0.827876 0.172127 0
1101 1 0.846511 0.189333 0
1100 1 0.823001 0.19594 0
1072 1 0.853478 0.165237 0
1073 1 0.878887 0.159807 0
1103 1 0.87145 0.183725 0
1074 1 0.896755 0.17921 0
1075 1 0.90398 0.155303 0
1076 1 0.921302 0.173639 0
1107 1 0.939061 0.191729 0
1078 1 0.946426 0.167876 0
1105 1 0.914068 0.197026 0
1048 1 0.971465 0.160984 0
151 1 0.99578 0.155399 0
1079 1 0.988691 0.178665 0
1109 1 0.963997 0.185031 0
1083 1 0.546398 0.204286 0
1082 1 0.528186 0.221947 0
1111 1 0.510535 0.239737 0
1113 1 0.535087 0.245156 0
1081 1 0.504616 0.215596 0
1084 1 0.552442 0.227979 0
1085 1 0.571417 0.210907 0
1086 1 0.595877 0.21737 0
1115 1 0.577591 0.234349 0
1117 1 0.601723 0.240923 0
1089 1 0.63948 0.204609 0
1088 1 0.621682 0.222774 0
1119 1 0.644814 0.228829 0
1118 1 0.626798 0.246359 0
1090 1 0.663522 0.210968 0
1092 1 0.688096 0.217762 0
1121 1 0.670407 0.234901 0
1122 1 0.694346 0.242171 0
1094 1 0.731458 0.206567 0
1123 1 0.712976 0.22345 0
1124 1 0.719818 0.248352 0
1125 1 0.737817 0.23085 0
1096 1 0.756269 0.21088 0
1127 1 0.779961 0.21632 0
1126 1 0.761841 0.234806 0
1128 1 0.788377 0.240876 0
1131 1 0.840198 0.213322 0
1129 1 0.805991 0.224249 0
1130 1 0.831688 0.235735 0
1159 1 0.811454 0.249378 0
1102 1 0.863912 0.208138 0
1104 1 0.888969 0.203829 0
1132 1 0.856726 0.231858 0
1133 1 0.881372 0.227071 0
1134 1 0.898414 0.247962 0
1135 1 0.907442 0.221995 0
1106 1 0.931109 0.214352 0
1136 1 0.922636 0.241121 0
1137 1 0.949133 0.233317 0
1108 1 0.956153 0.20958 0
1110 1 0.980852 0.203486 0
1139 1 0.974343 0.227778 0
1140 1 0.990853 0.24598 0
181 1 0.998008 0.22231 0
1141 1 0.501186 0.280631 0
1112 1 0.517953 0.262965 0
1143 1 0.542615 0.269735 0
1142 1 0.524576 0.288686 0
1144 1 0.548728 0.29315 0
1114 1 0.558946 0.251554 0
1116 1 0.582568 0.259154 0
1145 1 0.567409 0.276158 0
1146 1 0.592174 0.282484 0
1175 1 0.57336 0.299294 0
1147 1 0.608967 0.264199 0
1149 1 0.633776 0.271059 0
1148 1 0.61702 0.28992 0
1179 1 0.641928 0.294607 0
1120 1 0.651085 0.252569 0
1151 1 0.676823 0.259666 0
1150 1 0.65878 0.276493 0
1152 1 0.68343 0.2835 0