ITEM: TIMESTEP
210000
ITEM: NUMBER OF ATOMS
1800
ITEM: BOX BOUNDS pp pp pp
3.2452475218195076e+00 1.5515475247817758e+02
3.2452475218195076e+00 1.5515475247817758e+02
0.0000000000000000e+00 5.2800000000000002e+00
ITEM: ATOMS id type xs ys zs
2 1 0.0188939 0.0179029 0
3 1 0.0431459 0.0134651 0
33 1 0.034565 0.0367169 0
31 1 0.0109026 0.0438383 0
1 1 0.000224763 0.00147401 0
4 1 0.0592316 0.0311818 0
6 1 0.0833941 0.0258517 0
5 1 0.0673455 0.00779389 0
7 1 0.0913979 0.00159261 0
37 1 0.100424 0.0432853 0
8 1 0.108195 0.0194634 0
9 1 0.124543 0.0374104 0
880 1 0.132961 0.0134397 0
10 1 0.150347 0.0311172 0
11 1 0.157278 0.00607186 0
12 1 0.174706 0.0236497 0
43 1 0.192199 0.0422413 0
41 1 0.167419 0.050192 0
882 1 0.18166 -0.000253731 0
14 1 0.199498 0.0180478 0
44 1 0.21772 0.0375966 0
45 1 0.224297 0.0143541 0
46 1 0.241412 0.0328702 0
16 1 0.249359 0.00933844 0
47 1 0.266053 0.0274002 0
49 1 0.290851 0.0202458 0
48 1 0.282597 0.0466487 0
18 1 0.272866 0.00322792 0
50 1 0.306705 0.0388873 0
20 1 0.315049 0.0140917 0
51 1 0.331627 0.0341485 0
21 1 0.338322 0.00879845 0
22 1 0.355232 0.0280819 0
24 1 0.38016 0.0221548 0
53 1 0.37408 0.0458175 0
55 1 0.398377 0.038784 0
23 1 0.363762 0.00207361 0
25 1 0.404815 0.0137437 0
26 1 0.422112 0.0315182 0
27 1 0.432123 0.00864395 0
28 1 0.444941 0.0365881 0
30 1 0.492915 0.0391845 0
898 1 0.458941 0.0133943 0
29 1 0.483978 0.0160408 0
59 1 0.469685 0.0383869 0
32 1 0.0270261 0.0617682 0
62 1 0.0200074 0.0862727 0
63 1 0.0439267 0.079384 0
61 1 0.00299405 0.0687421 0
34 1 0.0503813 0.0553055 0
35 1 0.0753851 0.0493899 0
65 1 0.0674027 0.0738105 0
66 1 0.0847341 0.0925835 0
36 1 0.0927141 0.0675962 0
64 1 0.0601445 0.0967995 0
39 1 0.141953 0.0550887 0
38 1 0.117091 0.0610809 0
67 1 0.108122 0.0858574 0
69 1 0.134149 0.0791377 0
70 1 0.151638 0.0967688 0
40 1 0.159186 0.0738782 0
71 1 0.177045 0.090329 0
42 1 0.184955 0.0666712 0
72 1 0.202183 0.0856387 0
73 1 0.209845 0.0605231 0
74 1 0.226745 0.0798026 0
75 1 0.234158 0.0560042 0
106 1 0.243659 0.0983182 0
77 1 0.258568 0.0511086 0
76 1 0.251344 0.0744685 0
78 1 0.276721 0.071143 0
109 1 0.294142 0.0885821 0
107 1 0.267878 0.0949035 0
79 1 0.301004 0.0639568 0
52 1 0.349083 0.0513809 0
80 1 0.317919 0.0826866 0
81 1 0.324348 0.0586701 0
82 1 0.342118 0.075349 0
83 1 0.366369 0.0701678 0
113 1 0.378086 0.0903097 0
54 1 0.392339 0.0648634 0
56 1 0.416324 0.0553242 0
57 1 0.439353 0.0613017 0
85 1 0.421801 0.0796237 0
87 1 0.44581 0.0864076 0
84 1 0.401912 0.0957594 0
88 1 0.468488 0.0944764 0
58 1 0.463652 0.0638552 0
89 1 0.484703 0.076645 0
93 1 0.0368068 0.104369 0
92 1 0.0289975 0.128092 0
91 1 0.0119219 0.108702 0
121 1 0.00413194 0.133727 0
123 1 0.044834 0.146446 0
94 1 0.0533423 0.122417 0
95 1 0.0771765 0.116632 0
125 1 0.0688644 0.140182 0
96 1 0.0947874 0.133915 0
68 1 0.125638 0.104175 0
97 1 0.101477 0.110521 0
98 1 0.119106 0.127254 0
99 1 0.143543 0.120786 0
129 1 0.13637 0.144849 0
100 1 0.168172 0.113328 0
130 1 0.160894 0.138313 0
131 1 0.183645 0.132716 0
101 1 0.193448 0.108729 0
103 1 0.219581 0.103932 0
102 1 0.208889 0.12676 0
105 1 0.234949 0.12262 0
104 1 0.225367 0.145063 0
136 1 0.251864 0.141209 0
135 1 0.258868 0.117584 0
137 1 0.275669 0.134555 0
108 1 0.285978 0.111998 0
111 1 0.335522 0.100955 0
139 1 0.300081 0.132652 0
110 1 0.310849 0.108306 0
141 1 0.341515 0.12563 0
140 1 0.32416 0.142944 0
142 1 0.349808 0.149364 0
112 1 0.359372 0.107283 0
114 1 0.385436 0.114717 0
143 1 0.366942 0.131571 0
144 1 0.391151 0.139559 0
86 1 0.42652 0.104211 0
115 1 0.409001 0.121728 0
116 1 0.432865 0.128084 0
145 1 0.416985 0.145837 0
117 1 0.449872 0.109827 0
90 1 0.491998 0.10157 0
118 1 0.458101 0.136315 0
119 1 0.474188 0.117917 0
149 1 0.481133 0.14396 0
120 1 0.498578 0.125868 0
122 1 0.0208055 0.152128 0
153 1 0.0377298 0.169967 0
152 1 0.0130877 0.175629 0
183 1 0.0309635 0.193226 0
124 1 0.0627384 0.16394 0
126 1 0.0873243 0.157617 0
155 1 0.080879 0.181102 0
154 1 0.0555968 0.187228 0
156 1 0.0974108 0.199405 0
127 1 0.112616 0.15169 0
128 1 0.129081 0.170048 0
157 1 0.105024 0.176053 0
160 1 0.146293 0.188209 0
158 1 0.121436 0.193235 0
132 1 0.177284 0.156865 0
159 1 0.153428 0.162093 0
161 1 0.169422 0.180784 0
162 1 0.186813 0.197493 0
163 1 0.192764 0.174406 0
133 1 0.200893 0.149836 0
134 1 0.217303 0.168516 0
164 1 0.231938 0.187351 0
165 1 0.244112 0.16426 0
166 1 0.253842 0.195461 0
167 1 0.267877 0.176193 0
138 1 0.284236 0.156684 0
168 1 0.291428 0.181674 0
197 1 0.276686 0.200837 0
169 1 0.309017 0.164132 0
171 1 0.333276 0.167248 0
170 1 0.31599 0.186859 0
201 1 0.339957 0.192925 0
172 1 0.356639 0.174145 0
173 1 0.374022 0.15646 0
174 1 0.38111 0.180341 0
175 1 0.399579 0.162756 0
203 1 0.363999 0.198489 0
147 1 0.440676 0.153338 0
146 1 0.423013 0.171912 0
205 1 0.405612 0.188821 0
176 1 0.430026 0.19561 0
177 1 0.447458 0.178634 0
148 1 0.464537 0.161857 0
150 1 0.489091 0.168661 0
179 1 0.47197 0.185635 0
180 1 0.496135 0.191874 0
1080 1 0.00593623 0.199751 0
182 1 0.0233737 0.217347 0
213 1 0.0413301 0.235244 0
211 1 0.0151765 0.241496 0
184 1 0.0473947 0.210924 0
185 1 0.0724451 0.204416 0
186 1 0.0889723 0.223059 0
215 1 0.0646112 0.227873 0
216 1 0.0822017 0.245298 0
187 1 0.113231 0.218015 0
188 1 0.131699 0.242589 0
189 1 0.1373 0.211718 0
217 1 0.106082 0.24099 0
191 1 0.162918 0.205608 0
190 1 0.153571 0.229597 0
192 1 0.192868 0.221032 0
221 1 0.175295 0.238334 0
223 1 0.198815 0.246413 0
193 1 0.211095 0.20004 0
194 1 0.21594 0.228951 0
195 1 0.23405 0.21246 0
225 1 0.240139 0.236348 0
196 1 0.257857 0.218863 0
198 1 0.281522 0.224267 0
227 1 0.263703 0.243378 0
228 1 0.286603 0.248973 0
199 1 0.300356 0.204921 0
200 1 0.323271 0.211795 0
229 1 0.305679 0.229796 0
231 1 0.328984 0.236835 0
202 1 0.347684 0.218078 0
204 1 0.388667 0.206235 0
233 1 0.371163 0.223378 0
235 1 0.394729 0.230161 0
232 1 0.352592 0.242518 0
234 1 0.376253 0.248499 0
207 1 0.436688 0.220709 0
206 1 0.419455 0.237546 0
237 1 0.444616 0.243582 0
178 1 0.453079 0.202232 0
208 1 0.462004 0.226256 0
209 1 0.478654 0.209104 0
210 1 0.486229 0.232181 0
239 1 0.467875 0.250663 0
212 1 0.00718697 0.264941 0
243 1 0.0328009 0.260503 0
242 1 0.0137892 0.288205 0
273 1 0.0360179 0.297359 0
244 1 0.0521921 0.279408 0
214 1 0.0573638 0.253292 0
245 1 0.0746687 0.270706 0
247 1 0.0790803 0.293686 0
218 1 0.098098 0.276316 0
219 1 0.116549 0.261458 0
249 1 0.138992 0.270442 0
248 1 0.120769 0.286664 0
250 1 0.144164 0.294319 0
220 1 0.157213 0.254394 0
222 1 0.180698 0.263249 0
251 1 0.16254 0.278567 0
252 1 0.186505 0.286788 0
224 1 0.222982 0.253139 0
253 1 0.204584 0.269963 0
255 1 0.228301 0.278378 0
254 1 0.209899 0.294774 0
226 1 0.246442 0.260768 0
256 1 0.252107 0.284925 0
257 1 0.269829 0.267348 0
259 1 0.293895 0.272688 0
258 1 0.275549 0.290883 0
289 1 0.299564 0.297309 0
230 1 0.311039 0.255036 0
260 1 0.318051 0.279501 0
261 1 0.33546 0.261396 0
262 1 0.342526 0.284406 0
263 1 0.360395 0.267285 0
264 1 0.384418 0.273286 0
293 1 0.367016 0.2914 0
295 1 0.391879 0.297075 0
265 1 0.400774 0.255323 0
236 1 0.426615 0.261556 0
266 1 0.410197 0.27948 0
267 1 0.433708 0.285728 0
238 1 0.45046 0.268102 0
240 1 0.493145 0.25607 0
269 1 0.475232 0.273456 0
268 1 0.457536 0.291153 0
270 1 0.48365 0.297397 0
271 1 0.0172165 0.313961 0
272 1 0.0399129 0.32402 0
301 1 0.0188749 0.33917 0
303 1 0.043479 0.347424 0
275 1 0.0590787 0.308118 0
276 1 0.083003 0.31708 0
274 1 0.0643371 0.332183 0
305 1 0.0867912 0.34148 0
246 1 0.101008 0.301388 0
279 1 0.124159 0.310356 0
277 1 0.106109 0.326853 0
278 1 0.12986 0.335144 0
280 1 0.148738 0.318678 0
281 1 0.167454 0.303588 0
311 1 0.153996 0.342948 0
283 1 0.190851 0.310541 0
282 1 0.173326 0.328044 0
313 1 0.196951 0.334924 0
285 1 0.233806 0.301371 0
284 1 0.215518 0.318248 0
315 1 0.220763 0.342307 0
286 1 0.239299 0.32543 0
287 1 0.257045 0.308732 0
288 1 0.281357 0.314602 0
317 1 0.263094 0.332501 0
319 1 0.286285 0.339017 0
291 1 0.324689 0.302192 0
290 1 0.305772 0.321142 0
321 1 0.310612 0.34524 0
292 1 0.3304 0.327422 0
323 1 0.348622 0.309938 0
294 1 0.373344 0.315698 0
324 1 0.355316 0.334008 0
325 1 0.37991 0.33928 0
296 1 0.397922 0.321437 0
326 1 0.405439 0.344803 0
297 1 0.416289 0.303775 0
298 1 0.441258 0.309661 0
327 1 0.422709 0.327223 0
328 1 0.448317 0.3344 0
299 1 0.465464 0.315471 0
300 1 0.490153 0.320529 0
329 1 0.472302 0.339415 0
1201 1 0.496622 0.345061 0
331 1 0.00305709 0.379387 0
302 1 0.0231666 0.363007 0
332 1 0.0277466 0.388225 0
333 1 0.0472018 0.372724 0
1230 1 -0.00120697 0.354511 0
334 1 0.051255 0.397649 0
304 1 0.0663045 0.356997 0
306 1 0.0918786 0.365979 0
335 1 0.0710387 0.381024 0
337 1 0.0970706 0.390475 0
307 1 0.110793 0.350882 0
309 1 0.136464 0.358887 0
308 1 0.117101 0.375004 0
339 1 0.140284 0.383334 0
338 1 0.120077 0.399241 0
312 1 0.177332 0.352532 0
310 1 0.159244 0.368234 0
341 1 0.164392 0.393359 0
343 1 0.183212 0.37745 0
316 1 0.245839 0.350074 0
314 1 0.20202 0.360577 0
345 1 0.226381 0.367486 0
344 1 0.20677 0.38545 0
375 1 0.232432 0.391247 0
346 1 0.250423 0.374163 0
318 1 0.268811 0.356494 0
349 1 0.293348 0.363226 0
347 1 0.274611 0.380712 0
377 1 0.255771 0.398453 0
322 1 0.336747 0.351026 0
350 1 0.299597 0.386192 0
320 1 0.318458 0.369134 0
351 1 0.346474 0.375537 0
381 1 0.328305 0.392487 0
352 1 0.353455 0.3989 0
353 1 0.363436 0.358258 0
355 1 0.388731 0.363781 0
354 1 0.370945 0.381434 0
385 1 0.394222 0.387029 0
357 1 0.429772 0.350952 0
356 1 0.412833 0.370256 0
387 1 0.436825 0.374304 0
386 1 0.420051 0.393077 0
388 1 0.444482 0.399109 0
359 1 0.455609 0.357875 0
358 1 0.461098 0.381174 0
330 1 0.479547 0.362293 0
360 1 0.484993 0.386777 0
361 1 0.0086666 0.403561 0
363 1 0.0327735 0.412115 0
362 1 0.0135345 0.42841 0
364 1 0.0384473 0.43916 0
336 1 0.0760258 0.405358 0
365 1 0.0564285 0.422241 0
395 1 0.0621322 0.446384 0
367 1 0.0997182 0.416106 0
366 1 0.105883 0.440513 0
369 1 0.123683 0.424835 0
340 1 0.143928 0.40848 0
370 1 0.14726 0.4321 0
368 1 0.129401 0.449356 0
342 1 0.188736 0.401637 0
371 1 0.167687 0.417237 0
401 1 0.17156 0.441767 0
372 1 0.191159 0.426503 0
373 1 0.21206 0.409247 0
374 1 0.21509 0.435205 0
376 1 0.236063 0.416707 0
405 1 0.238898 0.441884 0
348 1 0.281331 0.403952 0
407 1 0.277218 0.441575 0
378 1 0.260718 0.423544 0
409 1 0.293975 0.425229 0
408 1 0.301037 0.450557 0
379 1 0.309645 0.407774 0
380 1 0.31792 0.432591 0
382 1 0.33539 0.415854 0
411 1 0.342235 0.439504 0
413 1 0.360079 0.42285 0
383 1 0.377228 0.404748 0
414 1 0.384692 0.428257 0
412 1 0.366092 0.446752 0
384 1 0.402238 0.411118 0
415 1 0.409452 0.43448 0
417 1 0.427295 0.416486 0
416 1 0.432558 0.441396 0
419 1 0.451279 0.424065 0
389 1 0.46757 0.406957 0
418 1 0.475555 0.430085 0
390 1 0.492373 0.410993 0
420 1 0.49933 0.436023 0
447 1 0.457107 0.448831 0
393 1 0.0176457 0.453773 0
422 1 0.00476557 0.493703 0
423 1 0.0233604 0.478121 0
394 1 0.0415914 0.4632 0
425 1 0.0457972 0.48766 0
397 1 0.0858035 0.454597 0
396 1 0.0655864 0.471056 0
426 1 0.0697892 0.497137 0
427 1 0.0889244 0.481168 0
398 1 0.108262 0.464104 0
428 1 0.111837 0.488468 0
429 1 0.132818 0.473934 0
459 1 0.135836 0.498767 0
403 1 0.196091 0.450661 0
399 1 0.151859 0.458239 0
400 1 0.176745 0.467386 0
430 1 0.156269 0.483299 0
431 1 0.180001 0.491832 0
402 1 0.199833 0.475866 0
404 1 0.219757 0.461082 0
432 1 0.221897 0.488329 0
433 1 0.241234 0.473468 0
434 1 0.244719 0.498588 0
435 1 0.259081 0.458356 0
436 1 0.263382 0.483403 0
406 1 0.28167 0.467434 0
437 1 0.287874 0.49119 0
439 1 0.305767 0.474672 0
410 1 0.32452 0.45689 0
440 1 0.330093 0.481885 0
441 1 0.347266 0.465231 0
438 1 0.312026 0.499106 0
471 1 0.354634 0.488871 0
472 1 0.377958 0.496062 0
442 1 0.372316 0.470548 0
473 1 0.397193 0.478173 0
443 1 0.390714 0.452369 0
444 1 0.420058 0.484326 0
477 1 0.444732 0.490249 0
446 1 0.438584 0.466466 0
445 1 0.414512 0.458431 0
449 1 0.481832 0.453827 0
448 1 0.4627 0.473246 0
478 1 0.469145 0.496222 0
450 1 0.487567 0.478656 0
453 1 0.00780313 0.518508 0
452 1 0.0116197 0.543545 0
454 1 0.0312629 0.528518 0
424 1 0.0273206 0.503833 0
455 1 0.0503644 0.513011 0
485 1 0.0550781 0.537067 0
456 1 0.0742837 0.521838 0
486 1 0.077386 0.5476 0
457 1 0.0930795 0.505404 0
487 1 0.0972772 0.529589 0
458 1 0.115901 0.513761 0
488 1 0.119992 0.538035 0
489 1 0.13975 0.52331 0
490 1 0.142927 0.548136 0
462 1 0.183192 0.518339 0
491 1 0.163595 0.533002 0
460 1 0.159695 0.508082 0
492 1 0.186186 0.542621 0
461 1 0.202922 0.50344 0
493 1 0.206717 0.527782 0
463 1 0.22632 0.512688 0
495 1 0.229606 0.537935 0
464 1 0.249392 0.522419 0
466 1 0.273868 0.532668 0
465 1 0.268889 0.508646 0
467 1 0.293738 0.516034 0
497 1 0.299338 0.540522 0
496 1 0.255027 0.545973 0
468 1 0.31752 0.523153 0
469 1 0.336581 0.505671 0
499 1 0.341143 0.531123 0
498 1 0.322766 0.54816 0
470 1 0.360528 0.51354 0
503 1 0.383429 0.519377 0
505 1 0.389617 0.543183 0
501 1 0.365417 0.537143 0
474 1 0.402542 0.502265 0
476 1 0.407821 0.525525 0
509 1 0.432902 0.532777 0
475 1 0.426362 0.508077 0
506 1 0.413499 0.549865 0
507 1 0.450531 0.513615 0
479 1 0.474816 0.520263 0
480 1 0.456432 0.537801 0
1381 1 0.498506 0.526539 0
510 1 0.480456 0.544079 0
1351 1 0.492505 0.502613 0
483 1 0.0362977 0.552259 0
513 1 0.0170148 0.568077 0
514 1 0.0395985 0.577796 0
512 1 0.0195962 0.593143 0
484 1 0.0583426 0.561953 0
515 1 0.0819286 0.571852 0
545 1 0.0634439 0.58653 0
516 1 0.0860603 0.596893 0
517 1 0.101359 0.553891 0
518 1 0.105271 0.580003 0
519 1 0.124365 0.563397 0
549 1 0.128143 0.588884 0
520 1 0.147595 0.57375 0
521 1 0.166679 0.5574 0
522 1 0.171499 0.581912 0
523 1 0.190261 0.567145 0
553 1 0.195787 0.592604 0
551 1 0.152624 0.597848 0
494 1 0.209605 0.552965 0
524 1 0.216628 0.577514 0
525 1 0.235159 0.561405 0
555 1 0.239577 0.586944 0
526 1 0.259391 0.571676 0
527 1 0.27856 0.556845 0
528 1 0.283923 0.581347 0
557 1 0.264208 0.595477 0
529 1 0.303819 0.564343 0
500 1 0.347061 0.5552 0
530 1 0.326595 0.573244 0
559 1 0.307574 0.590974 0
561 1 0.332661 0.596699 0
531 1 0.351409 0.579716 0
502 1 0.372707 0.560587 0
504 1 0.395253 0.567838 0
533 1 0.376406 0.585147 0
534 1 0.402699 0.592067 0
535 1 0.420127 0.574099 0
508 1 0.437821 0.556706 0
537 1 0.443902 0.580085 0
536 1 0.426801 0.597444 0
539 1 0.462924 0.561941 0
540 1 0.488159 0.568516 0
538 1 0.469945 0.585833 0
569 1 0.493679 0.593004 0
543 1 0.0419861 0.602021 0
542 1 0.0222307 0.617459 0
573 1 0.0257002 0.641221 0
544 1 0.0461446 0.625732 0
571 1 0.00195539 0.632886 0
546 1 0.0655873 0.610935 0
547 1 0.090243 0.620922 0
575 1 0.0695332 0.635038 0
576 1 0.092371 0.645894 0
548 1 0.108869 0.604761 0
550 1 0.13144 0.612958 0
577 1 0.11308 0.630182 0
579 1 0.136345 0.638846 0
581 1 0.154999 0.622865 0
552 1 0.175799 0.607784 0
582 1 0.178273 0.633514 0
580 1 0.159243 0.648473 0
583 1 0.198475 0.617628 0
584 1 0.200763 0.642324 0
554 1 0.219787 0.602016 0
556 1 0.243179 0.611004 0
585 1 0.221768 0.626679 0
586 1 0.246327 0.635772 0
587 1 0.268303 0.621715 0
558 1 0.286678 0.605945 0
588 1 0.269817 0.645456 0
589 1 0.292736 0.630105 0
560 1 0.313585 0.615392 0
591 1 0.321516 0.64014 0
562 1 0.338506 0.621718 0
593 1 0.345225 0.647084 0
532 1 0.358941 0.604977 0
563 1 0.383556 0.609706 0
564 1 0.364579 0.629923 0
595 1 0.390101 0.63332 0
565 1 0.408027 0.616786 0
566 1 0.433656 0.622605 0
596 1 0.415342 0.641309 0
598 1 0.439668 0.645377 0
567 1 0.451523 0.604083 0
597 1 0.457506 0.627793 0
568 1 0.475277 0.61023 0
570 1 0.482305 0.634926 0
1442 1 0.500156 0.617558 0
572 1 0.00665907 0.657205 0
603 1 0.029084 0.666162 0
602 1 0.00853696 0.682693 0
633 1 0.0324848 0.690504 0
574 1 0.049772 0.650496 0
604 1 0.0523455 0.674512 0
605 1 0.0733468 0.660169 0
606 1 0.076906 0.685055 0
607 1 0.0964649 0.670077 0
637 1 0.100432 0.694291 0
578 1 0.117399 0.654755 0
609 1 0.13941 0.664058 0
608 1 0.119807 0.679512 0
639 1 0.14401 0.689137 0
611 1 0.181118 0.657865 0
610 1 0.162881 0.674145 0
612 1 0.185393 0.683326 0
641 1 0.166401 0.699885 0
615 1 0.224633 0.650582 0
613 1 0.204227 0.666953 0
614 1 0.227235 0.676215 0
643 1 0.209068 0.693452 0
617 1 0.247304 0.65953 0
616 1 0.250891 0.684094 0
619 1 0.293963 0.677082 0
618 1 0.270341 0.669358 0
647 1 0.274661 0.692974 0
590 1 0.301198 0.653295 0
621 1 0.315656 0.685767 0
592 1 0.330337 0.666664 0
622 1 0.338923 0.690089 0
623 1 0.355694 0.671338 0
594 1 0.372627 0.652984 0
624 1 0.38109 0.676652 0
653 1 0.363651 0.696154 0
625 1 0.397728 0.658297 0
627 1 0.422287 0.6651 0
626 1 0.405346 0.682426 0
657 1 0.429778 0.688695 0
628 1 0.447133 0.670754 0
599 1 0.464078 0.653574 0
600 1 0.487845 0.659658 0
629 1 0.47103 0.678669 0
630 1 0.495504 0.68338 0
658 1 0.453358 0.695356 0
632 1 0.0120087 0.706295 0
634 1 0.0359227 0.714753 0
663 1 0.015406 0.729836 0
664 1 0.0401613 0.739688 0
635 1 0.0561404 0.698925 0
636 1 0.0800029 0.709253 0
665 1 0.0604167 0.724889 0
666 1 0.0836681 0.735177 0
695 1 0.0633419 0.749296 0
667 1 0.103408 0.719222 0
668 1 0.107037 0.744492 0
638 1 0.122439 0.704371 0
640 1 0.146185 0.714925 0
669 1 0.126675 0.730669 0
670 1 0.150325 0.740157 0
642 1 0.189749 0.708888 0
671 1 0.169857 0.724867 0
673 1 0.194578 0.733929 0
672 1 0.174278 0.749317 0
645 1 0.231764 0.701119 0
644 1 0.213791 0.718444 0
675 1 0.237134 0.726838 0
674 1 0.217553 0.743019 0
646 1 0.25498 0.708975 0
677 1 0.261322 0.73509 0
648 1 0.278238 0.718552 0
678 1 0.284718 0.743049 0
649 1 0.297833 0.701633 0
679 1 0.302366 0.725841 0
620 1 0.320642 0.708649 0
651 1 0.344735 0.71416 0
650 1 0.326886 0.732638 0
652 1 0.351374 0.73893 0
655 1 0.387434 0.701153 0
654 1 0.368995 0.719977 0
685 1 0.393653 0.724675 0
683 1 0.376201 0.743452 0
656 1 0.411713 0.708002 0
687 1 0.435322 0.713306 0
686 1 0.4179 0.730982 0
717 1 0.442665 0.738247 0
659 1 0.47747 0.702845 0
689 1 0.46024 0.720579 0
660 1 0.483367 0.726196 0
688 1 0.46634 0.744746 0
662 1 0.0193708 0.753459 0
694 1 0.042957 0.763535 0
693 1 0.0239968 0.779329 0
692 1 0.00595407 0.794967 0
691 1 0.00148571 0.770047 0
725 1 0.0479494 0.786822 0
697 1 0.0874376 0.759208 0
696 1 0.0678456 0.774227 0
727 1 0.0919655 0.784119 0
699 1 0.130065 0.7549 0
698 1 0.11183 0.770696 0
700 1 0.134934 0.781078 0
728 1 0.113781 0.795978 0
701 1 0.154125 0.764783 0
731 1 0.157885 0.789346 0
702 1 0.180131 0.773488 0
732 1 0.180821 0.797719 0
703 1 0.198647 0.759071 0
676 1 0.242551 0.750951 0
704 1 0.204092 0.784627 0
705 1 0.222904 0.76746 0
735 1 0.228251 0.793028 0
706 1 0.247245 0.775859 0
707 1 0.265938 0.759505 0
709 1 0.271474 0.784603 0
680 1 0.290005 0.767451 0
710 1 0.296816 0.791914 0
681 1 0.309099 0.750037 0
682 1 0.333112 0.756901 0
711 1 0.314139 0.77518 0
712 1 0.339378 0.780841 0
741 1 0.322354 0.798919 0
713 1 0.357369 0.762899 0
714 1 0.382264 0.767589 0
743 1 0.3645 0.78737 0
745 1 0.389039 0.792404 0
684 1 0.40016 0.748816 0
715 1 0.425247 0.75567 0
716 1 0.406813 0.773735 0
747 1 0.431531 0.781055 0
746 1 0.4124 0.798388 0
718 1 0.449518 0.762391 0
690 1 0.491128 0.751116 0
719 1 0.473149 0.768726 0
720 1 0.480813 0.792374 0
749 1 0.456359 0.788497 0
1591 1 0.497087 0.77472 0
723 1 0.0289757 0.803181 0
722 1 0.0241574 0.840259 0
751 1 0.00987169 0.819528 0
754 1 0.0494213 0.834687 0
726 1 0.0726246 0.799785 0
724 1 0.0516095 0.810882 0
757 1 0.0980016 0.818634 0
755 1 0.0740083 0.824767 0
756 1 0.0923828 0.842149 0
729 1 0.137768 0.806068 0
759 1 0.117559 0.83545 0
760 1 0.141952 0.831075 0
730 1 0.162725 0.814202 0
763 1 0.188168 0.820658 0
764 1 0.183255 0.845624 0
733 1 0.210239 0.811261 0
736 1 0.230287 0.828339 0
734 1 0.205921 0.837797 0
768 1 0.250854 0.84944 0
737 1 0.252398 0.802222 0
708 1 0.276876 0.810671 0
738 1 0.256108 0.825507 0
769 1 0.274811 0.84232 0
740 1 0.299548 0.838693 0
739 1 0.302453 0.814715 0
771 1 0.326316 0.823372 0
742 1 0.347641 0.804228 0
773 1 0.350397 0.8286 0
744 1 0.372042 0.810765 0
774 1 0.375203 0.835351 0
775 1 0.395123 0.817993 0
776 1 0.400623 0.841493 0
748 1 0.437137 0.806149 0
777 1 0.419414 0.823594 0
779 1 0.444248 0.8292 0
778 1 0.426126 0.848705 0
750 1 0.462018 0.811875 0
1621 1 0.487324 0.81743 0
780 1 0.469418 0.836614 0
1651 1 0.495189 0.840626 0
753 1 0.0428997 0.857282 0
752 1 0.0191576 0.863431 0
783 1 0.0376211 0.881039 0
782 1 0.0133739 0.886885 0
785 1 0.0690959 0.850619 0
784 1 0.0609639 0.873424 0
786 1 0.07987 0.891676 0
787 1 0.0865892 0.868498 0
815 1 0.0540992 0.898234 0
758 1 0.110732 0.861371 0
817 1 0.103385 0.887165 0
789 1 0.134409 0.855867 0
788 1 0.127524 0.880233 0
790 1 0.145338 0.898282 0
761 1 0.158649 0.849685 0
791 1 0.151815 0.874918 0
762 1 0.176024 0.869766 0
793 1 0.169219 0.893201 0
795 1 0.19408 0.887365 0
765 1 0.201615 0.862737 0
767 1 0.225319 0.856711 0
796 1 0.218019 0.880605 0
766 1 0.242749 0.874213 0
825 1 0.236403 0.897898 0
797 1 0.267733 0.86728 0
827 1 0.26113 0.891045 0
798 1 0.285171 0.886703 0
799 1 0.291721 0.86169 0
772 1 0.341163 0.852048 0
770 1 0.317161 0.856604 0
800 1 0.30908 0.880897 0
801 1 0.334056 0.876422 0
831 1 0.327705 0.90047 0
802 1 0.352495 0.892966 0
803 1 0.358764 0.868533 0
804 1 0.377342 0.885564 0
805 1 0.383882 0.859991 0
807 1 0.408576 0.86722 0
808 1 0.433251 0.872392 0
837 1 0.441326 0.896857 0
809 1 0.451612 0.854226 0
1681 1 0.477271 0.859933 0
1711 1 0.483699 0.884213 0
810 1 0.458407 0.877651 0
813 1 0.0305617 0.904511 0
843 1 0.0230401 0.928685 0
844 1 0.0400972 0.947091 0
812 1 0.00716105 0.911041 0
814 1 0.0469736 0.922401 0
845 1 0.0714303 0.915822 0
846 1 0.0646132 0.94062 0
847 1 0.0895447 0.936022 0
816 1 0.0960092 0.911438 0
819 1 0.120021 0.905875 0
818 1 0.113505 0.929689 0
820 1 0.130133 0.947468 0
821 1 0.138665 0.923281 0
792 1 0.162959 0.91814 0
851 1 0.154701 0.941924 0
823 1 0.186556 0.910867 0
822 1 0.179653 0.935876 0
794 1 0.21138 0.903685 0
824 1 0.204233 0.927913 0
885 1 0.221934 0.94544 0
855 1 0.228875 0.921723 0
856 1 0.246048 0.940604 0
826 1 0.252845 0.916894 0
857 1 0.269861 0.936427 0
828 1 0.276734 0.911406 0
859 1 0.293907 0.928951 0
829 1 0.301963 0.904558 0
830 1 0.318683 0.924387 0
861 1 0.335956 0.941644 0
860 1 0.311399 0.948578 0
832 1 0.34459 0.917667 0
863 1 0.360339 0.935851 0
833 1 0.368677 0.910674 0
834 1 0.385601 0.929736 0
806 1 0.393074 0.905561 0
835 1 0.410794 0.923244 0
836 1 0.429557 0.94246 0
865 1 0.404149 0.946849 0
838 1 0.446998 0.922825 0
869 1 0.458129 0.945314 0
839 1 0.465541 0.90278 0
840 1 0.47231 0.926131 0
1712 1 0.491137 0.907631 0
870 1 0.483623 0.950756 0
842 1 0.0160686 0.953029 0
872 1 0.0256418 0.99473 0
873 1 0.0331395 0.971282 0
871 1 0.00845889 0.976808 0
874 1 0.0494793 0.988657 0
875 1 0.0569283 0.964168 0
876 1 0.0739983 0.983344 0
848 1 0.0813259 0.959401 0
877 1 0.0985919 0.977714 0
849 1 0.105301 0.95417 0
878 1 0.115364 0.995733 0
879 1 0.122304 0.972116 0
881 1 0.139651 0.989269 0
850 1 0.14735 0.96551 0
853 1 0.172463 0.958956 0
852 1 0.164828 0.981963 0
883 1 0.189765 0.976765 0
854 1 0.198245 0.953186 0
13 1 0.206669 0.995553 0
15 1 0.230918 0.989572 0
884 1 0.214121 0.970856 0
886 1 0.237366 0.965071 0
858 1 0.285892 0.953968 0
887 1 0.262116 0.96024 0
17 1 0.254462 0.985027 0
888 1 0.278102 0.978116 0
19 1 0.296812 0.996692 0
889 1 0.303845 0.972467 0
890 1 0.321876 0.989873 0
891 1 0.328938 0.966226 0
892 1 0.345435 0.984305 0
894 1 0.387815 0.996388 0
862 1 0.353032 0.960607 0
864 1 0.376982 0.954796 0
893 1 0.371456 0.978359 0
895 1 0.395153 0.971516 0
867 1 0.443285 0.964738 0
866 1 0.419681 0.96589 0
896 1 0.413523 0.990663 0
899 1 0.474961 0.993756 0
897 1 0.449136 0.988445 0
1771 1 0.492441 0.974306 0
868 1 0.467604 0.969253 0
900 1 0.500803 0.99738 0
902 1 0.534722 0.0245195 0
901 1 0.509426 0.0202911 0
931 1 0.518116 0.0420472 0
903 1 0.526108 0.00082225 0
933 1 0.541986 0.0487947 0
905 1 0.550318 0.00629289 0
904 1 0.558878 0.0306788 0
906 1 0.57473 0.0125718 0
935 1 0.582404 0.0369342 0
908 1 0.598885 0.0172726 0
937 1 0.606294 0.0429063 0
939 1 0.623156 0.02484 0
910 1 0.639114 0.00535616 0
938 1 0.63166 0.0476038 0
941 1 0.648523 0.0291141 0
912 1 0.66437 0.0107286 0
942 1 0.673138 0.0342876 0
943 1 0.6894 0.0164609 0
973 1 0.697173 0.0402985 0
944 1 0.713157 0.0223822 0
945 1 0.730229 0.00404775 0
946 1 0.736464 0.0281941 0
975 1 0.721274 0.0474554 0
947 1 0.754033 0.0104383 0
948 1 0.761858 0.0334982 0
918 1 0.777915 0.0156467 0
979 1 0.787188 0.0381482 0
921 1 0.819455 -0.000165882 0
949 1 0.805146 0.0208641 0
951 1 0.836694 0.0158646 0
950 1 0.825308 0.0371908 0
952 1 0.853047 0.0335283 0
953 1 0.86089 0.00906845 0
924 1 0.885373 0.00477615 0
954 1 0.877341 0.0281624 0
985 1 0.892942 0.0467526 0
955 1 0.90142 0.0237842 0
926 1 0.926557 0.0190769 0
957 1 0.943391 0.0380758 0
956 1 0.918303 0.0425111 0
925 1 0.90895 0.000699574 0
928 1 0.951171 0.0133828 0
959 1 0.969467 0.0314388 0
930 1 0.993428 0.0251612 0
929 1 0.976153 0.00821866 0
960 1 0.986182 0.0488096 0
932 1 0.525879 0.0676396 0
962 1 0.533122 0.0918607 0
961 1 0.509203 0.0846319 0
60 1 0.503478 0.0613903 0
963 1 0.549999 0.0732576 0
934 1 0.566027 0.0550603 0
965 1 0.573768 0.0793315 0
936 1 0.590489 0.0609383 0
964 1 0.556411 0.0965515 0
966 1 0.599099 0.085186 0
967 1 0.615813 0.0663011 0
968 1 0.623407 0.0906455 0
969 1 0.640158 0.0720524 0
999 1 0.647509 0.0961456 0
940 1 0.654999 0.0525613 0
970 1 0.663752 0.0775855 0
971 1 0.680146 0.0595956 0
972 1 0.688662 0.0840449 0
1003 1 0.704827 0.0657336 0
1004 1 0.712603 0.0900467 0
974 1 0.729828 0.070557 0
1005 1 0.738895 0.0949452 0
976 1 0.746329 0.0518566 0
1007 1 0.755432 0.0758711 0
977 1 0.771209 0.0564878 0
978 1 0.79755 0.0600241 0
1008 1 0.78107 0.0801966 0
1006 1 0.765359 0.0990168 0
980 1 0.820536 0.0624867 0
981 1 0.843631 0.057602 0
1009 1 0.806474 0.0828159 0
1011 1 0.835348 0.0838871 0
982 1 0.860322 0.0761111 0
983 1 0.867543 0.0530332 0
984 1 0.885251 0.071613 0
1013 1 0.877688 0.0952354 0
1015 1 0.902274 0.0894797 0
986 1 0.909462 0.0654342 0
987 1 0.934537 0.0609959 0
1017 1 0.928432 0.0836399 0
988 1 0.952591 0.0788023 0
958 1 0.961732 0.0547952 0
989 1 0.977853 0.0739553 0
990 1 0.994081 0.0923362 0
1019 1 0.969362 0.0970521 0
991 1 0.515724 0.108404 0
992 1 0.523558 0.132748 0
993 1 0.542164 0.115448 0
1023 1 0.548301 0.139143 0
1021 1 0.505881 0.150699 0
995 1 0.581891 0.101702 0
994 1 0.565833 0.120255 0
996 1 0.589677 0.127059 0
1025 1 0.573278 0.145364 0
1026 1 0.596699 0.151104 0
997 1 0.605771 0.1091 0
998 1 0.629594 0.114843 0
1027 1 0.613135 0.132936 0
1029 1 0.638077 0.137573 0
1001 1 0.671099 0.101683 0
1000 1 0.654619 0.120281 0
1031 1 0.679063 0.125339 0
1030 1 0.66326 0.14401 0
1002 1 0.696712 0.108485 0
1032 1 0.68845 0.148151 0
1033 1 0.70546 0.131255 0
1035 1 0.722432 0.11261 0
1034 1 0.731468 0.136343 0
1036 1 0.748316 0.118009 0
1037 1 0.772647 0.12274 0
1038 1 0.797146 0.125834 0
1067 1 0.757018 0.140745 0
1039 1 0.790737 0.102563 0
1068 1 0.782516 0.146395 0
1010 1 0.815637 0.105269 0
1040 1 0.82095 0.129385 0
1041 1 0.846305 0.12454 0
1071 1 0.836432 0.148305 0
1012 1 0.85354 0.100558 0
1043 1 0.870524 0.119392 0
1014 1 0.894425 0.112906 0
1044 1 0.886835 0.138286 0
1042 1 0.862557 0.143278 0
1018 1 0.944302 0.102735 0
1045 1 0.910214 0.131012 0
1016 1 0.918795 0.107514 0
1047 1 0.93699 0.125004 0
1049 1 0.962278 0.120646 0
1020 1 0.986627 0.115057 0
1050 1 0.978805 0.13923 0
1046 1 0.952269 0.144097 0
1022 1 0.5314 0.156849 0
1053 1 0.538391 0.180992 0
1051 1 0.513486 0.173819 0
1052 1 0.52182 0.198795 0
1024 1 0.555118 0.162247 0
1055 1 0.579595 0.168054 0
1054 1 0.562359 0.18588 0
1056 1 0.587238 0.19222 0
1028 1 0.621637 0.15562 0
1057 1 0.604504 0.174712 0
1058 1 0.630269 0.178636 0
1059 1 0.646094 0.161492 0
1087 1 0.613195 0.197282 0
1060 1 0.65477 0.184426 0
1061 1 0.67181 0.167002 0
1091 1 0.680047 0.190202 0
1062 1 0.696696 0.17245 0
1063 1 0.714833 0.154917 0
1064 1 0.721258 0.178758 0
1065 1 0.739071 0.160012 0
1093 1 0.704507 0.196606 0
1095 1 0.74693 0.184227 0
1066 1 0.764859 0.165064 0
1097 1 0.773181 0.188607 0
1099 1 0.78989 0.16968 0
1098 1 0.797793 0.194642 0
1069 1 0.81002 0.153303 0
1070 1 0.827735 0.172275 0
1101 1 0.846408 0.18957 0
1100 1 0.821764 0.196835 0
1072 1 0.852735 0.167005 0
1073 1 0.879191 0.161401 0
1103 1 0.870817 0.185313 0
1074 1 0.89569 0.179979 0
1077 1 0.928383 0.148857 0
1075 1 0.903418 0.15603 0
1076 1 0.919755 0.174591 0
1107 1 0.937731 0.191156 0
1078 1 0.945675 0.167001 0
1105 1 0.912294 0.198371 0
1048 1 0.97061 0.162992 0
151 1 0.995982 0.15679 0
1079 1 0.988531 0.181528 0
1109 1 0.963085 0.18574 0
1083 1 0.54664 0.203973 0
1082 1 0.529936 0.222461 0
1111 1 0.51142 0.237804 0
1113 1 0.537625 0.24598 0
1081 1 0.503415 0.214904 0
1084 1 0.554564 0.22721 0
1085 1 0.57053 0.209476 0
1086 1 0.595833 0.215739 0
1115 1 0.578942 0.233364 0
1117 1 0.603646 0.238406 0
1089 1 0.638073 0.202972 0
1088 1 0.621269 0.221066 0
1119 1 0.646487 0.225636 0
1118 1 0.629569 0.244474 0
1090 1 0.663578 0.207258 0
1092 1 0.68741 0.214729 0
1121 1 0.670849 0.231911 0
1122 1 0.695116 0.238686 0
1094 1 0.730792 0.202451 0
1123 1 0.712851 0.220753 0
1124 1 0.720713 0.24513 0
1125 1 0.737713 0.225608 0
1155 1 0.746 0.251082 0
1096 1 0.756611 0.208127 0
1127 1 0.782816 0.21395 0
1126 1 0.762861 0.232247 0
1128 1 0.787448 0.23802 0
1131 1 0.839041 0.213124 0
1129 1 0.808024 0.219449 0
1130 1 0.831844 0.235532 0
1159 1 0.811225 0.247126 0
1102 1 0.862403 0.20817 0
1104 1 0.888182 0.20298 0
1132 1 0.85648 0.232077 0
1133 1 0.881977 0.227439 0
1134 1 0.899792 0.245878 0
1135 1 0.906259 0.22173 0
1106 1 0.929922 0.21691 0
1136 1 0.923745 0.240997 0
1137 1 0.948188 0.234483 0
1108 1 0.956308 0.209303 0
1110 1 0.981982 0.204759 0
1139 1 0.972257 0.229011 0
1140 1 0.991195 0.246208 0
181 1 0.997998 0.223145 0
1138 1 0.966202 0.251767 0
1112 1 0.518056 0.261983 0
1143 1 0.54475 0.268584 0
1142 1 0.52524 0.285607 0
1141 1 0.49973 0.279492 0
1144 1 0.551397 0.291687 0
1114 1 0.561673 0.251277 0
1116 1 0.586375 0.256257 0
1145 1 0.568923 0.274824 0
1146 1 0.593074 0.2802 0
1175 1 0.575791 0.298042 0
1147 1 0.611796 0.262245 0
1149 1 0.636523 0.26792 0
1148 1 0.617543 0.286102 0
1179 1 0.642451 0.292235 0
1120 1 0.65478 0.249778 0