ITEM: TIMESTEP
68000
ITEM: NUMBER OF ATOMS
1800
ITEM: BOX BOUNDS pp pp pp
3.0299023586325120e+00 1.5537009764136505e+02
3.0299023586325120e+00 1.5537009764136505e+02
0.0000000000000000e+00 5.2800000000000002e+00
ITEM: ATOMS id type xs ys zs
2 1 0.0160132 0.0190041 0
3 1 0.0403122 0.0121064 0
33 1 0.0336531 0.0367476 0
31 1 0.00811417 0.0422395 0
4 1 0.0582509 0.0286243 0
6 1 0.0842206 0.0225734 0
5 1 0.0661946 0.00521277 0
35 1 0.0761964 0.0466763 0
37 1 0.100431 0.0407555 0
8 1 0.11066 0.0165353 0
9 1 0.128004 0.0346392 0
880 1 0.135327 0.00968716 0
10 1 0.151567 0.0271598 0
11 1 0.160115 0.00424379 0
12 1 0.175829 0.0229563 0
43 1 0.194052 0.0407411 0
41 1 0.167791 0.0455154 0
14 1 0.202865 0.0162895 0
44 1 0.218325 0.0349629 0
45 1 0.226282 0.0116931 0
46 1 0.244592 0.0294972 0
16 1 0.251439 0.00620646 0
47 1 0.269199 0.0269702 0
49 1 0.29273 0.0201407 0
48 1 0.286825 0.0452737 0
18 1 0.274703 0.00115654 0
77 1 0.261534 0.0496988 0
50 1 0.310365 0.0390584 0
20 1 0.317437 0.0157763 0
51 1 0.335351 0.0341313 0
21 1 0.340649 0.0103505 0
22 1 0.358858 0.0275691 0
24 1 0.384058 0.0204698 0
53 1 0.377615 0.0472253 0
23 1 0.3671 0.00271152 0
55 1 0.40053 0.0381529 0
25 1 0.409369 0.015609 0
26 1 0.42478 0.0343175 0
27 1 0.434198 0.0112117 0
30 1 0.494108 0.038356 0
898 1 0.459935 0.011991 0
28 1 0.448577 0.0327881 0
29 1 0.485567 0.0160985 0
59 1 0.469995 0.0460327 0
32 1 0.0251302 0.0588813 0
62 1 0.0193974 0.0825966 0
63 1 0.0437868 0.0770216 0
61 1 0.00084948 0.0664965 0
93 1 0.0355142 0.101151 0
34 1 0.0511206 0.0540367 0
65 1 0.0684013 0.0705766 0
66 1 0.085381 0.0879203 0
36 1 0.0929296 0.0647044 0
64 1 0.0615121 0.0942368 0
39 1 0.144044 0.0529242 0
38 1 0.118257 0.0580979 0
67 1 0.110013 0.081198 0
69 1 0.135988 0.0753577 0
68 1 0.12691 0.0992458 0
70 1 0.153508 0.0931656 0
40 1 0.161444 0.0703474 0
71 1 0.178172 0.088125 0
42 1 0.185993 0.06493 0
72 1 0.203739 0.0820053 0
73 1 0.210642 0.0581808 0
74 1 0.227726 0.0768328 0
75 1 0.236142 0.0532409 0
106 1 0.243799 0.0966818 0
76 1 0.253008 0.0719459 0
78 1 0.278522 0.0677318 0
109 1 0.296466 0.0876256 0
107 1 0.270107 0.0903794 0
79 1 0.304966 0.0638884 0
80 1 0.321305 0.0827148 0
81 1 0.328511 0.0582363 0
82 1 0.34503 0.0773857 0
52 1 0.352891 0.0530368 0
83 1 0.370531 0.0711006 0
113 1 0.378602 0.0938008 0
54 1 0.395644 0.0740343 0
56 1 0.414114 0.0579973 0
57 1 0.439239 0.0555535 0
85 1 0.419787 0.081201 0
87 1 0.443938 0.0895198 0
88 1 0.46773 0.0948081 0
58 1 0.460792 0.0690378 0
89 1 0.484001 0.0778603 0
92 1 0.0285946 0.125388 0
91 1 0.0115278 0.106109 0
123 1 0.046083 0.142758 0
121 1 0.00450956 0.131695 0
122 1 0.0207464 0.148702 0
94 1 0.0543208 0.118105 0
95 1 0.0790999 0.111077 0
125 1 0.0701684 0.135613 0
96 1 0.0952053 0.128026 0
97 1 0.102617 0.105534 0
98 1 0.120339 0.123283 0
99 1 0.14513 0.116656 0
129 1 0.137859 0.140624 0
127 1 0.112266 0.146166 0
100 1 0.170469 0.111512 0
130 1 0.162384 0.134512 0
131 1 0.187108 0.129598 0
101 1 0.195494 0.105919 0
103 1 0.220136 0.10079 0
133 1 0.203925 0.148787 0
102 1 0.211638 0.124993 0
105 1 0.236203 0.121029 0
104 1 0.22828 0.143617 0
136 1 0.252242 0.137775 0
135 1 0.261674 0.114487 0
137 1 0.27692 0.133575 0
108 1 0.285822 0.109536 0
139 1 0.301471 0.133302 0
111 1 0.336965 0.10121 0
110 1 0.311083 0.110038 0
141 1 0.343263 0.126438 0
140 1 0.324787 0.144932 0
112 1 0.360662 0.110007 0
114 1 0.386056 0.118879 0
143 1 0.367076 0.134227 0
144 1 0.393874 0.142015 0
84 1 0.402524 0.0991348 0
86 1 0.427077 0.106329 0
115 1 0.410036 0.123738 0
116 1 0.434346 0.13021 0
145 1 0.418065 0.14776 0
117 1 0.451019 0.112756 0
90 1 0.491602 0.102289 0
118 1 0.458281 0.136449 0
119 1 0.474739 0.118768 0
149 1 0.481566 0.143054 0
120 1 0.500198 0.125628 0
153 1 0.03756 0.166527 0
152 1 0.0130186 0.173775 0
183 1 0.0290597 0.190163 0
1080 1 0.00488398 0.196931 0
124 1 0.0627857 0.158904 0
126 1 0.0882157 0.151855 0
155 1 0.0802922 0.17534 0
154 1 0.0562934 0.183377 0
156 1 0.0976304 0.195037 0
185 1 0.0734525 0.200861 0
128 1 0.129889 0.163413 0
157 1 0.104516 0.170398 0
160 1 0.146755 0.180835 0
158 1 0.121914 0.18608 0
132 1 0.179401 0.152587 0
159 1 0.154696 0.158366 0
161 1 0.172576 0.175881 0
162 1 0.18758 0.194782 0
163 1 0.196695 0.172187 0
134 1 0.220402 0.166004 0
164 1 0.231017 0.186626 0
165 1 0.245717 0.164132 0
166 1 0.253518 0.192969 0
167 1 0.269441 0.173535 0
138 1 0.286783 0.155768 0
168 1 0.293136 0.181154 0
197 1 0.276152 0.197926 0
169 1 0.309828 0.163933 0
171 1 0.333992 0.170176 0
170 1 0.317859 0.18808 0
201 1 0.340205 0.195515 0
142 1 0.350251 0.151319 0
172 1 0.359014 0.176872 0
173 1 0.374686 0.159444 0
174 1 0.380882 0.185924 0
175 1 0.399365 0.165688 0
147 1 0.441399 0.154694 0
146 1 0.421938 0.17263 0
205 1 0.40539 0.190555 0
176 1 0.429242 0.196851 0
177 1 0.446008 0.179358 0
148 1 0.463636 0.163856 0
150 1 0.487875 0.169847 0
179 1 0.472151 0.187677 0
180 1 0.496298 0.193254 0
182 1 0.0237543 0.214887 0
213 1 0.0437562 0.232543 0
211 1 0.0196675 0.239115 0
184 1 0.0474771 0.207028 0
186 1 0.0913533 0.218127 0
215 1 0.0666659 0.223634 0
216 1 0.0823984 0.241828 0
214 1 0.0590286 0.250368 0
187 1 0.115504 0.210722 0
188 1 0.132129 0.228671 0
189 1 0.138604 0.203372 0
217 1 0.109533 0.234354 0
191 1 0.163139 0.19976 0
190 1 0.156182 0.222444 0
192 1 0.192359 0.218837 0
221 1 0.174205 0.239257 0
220 1 0.150244 0.246431 0
223 1 0.197888 0.243531 0
193 1 0.211018 0.201627 0
194 1 0.216072 0.22684 0
195 1 0.234183 0.210136 0
225 1 0.239617 0.235336 0
196 1 0.258101 0.216226 0
198 1 0.282826 0.2223 0
227 1 0.264921 0.241052 0
228 1 0.288093 0.247818 0
199 1 0.29956 0.205457 0
200 1 0.32307 0.213717 0
229 1 0.305501 0.230784 0
231 1 0.329609 0.238221 0
202 1 0.346959 0.219991 0
203 1 0.363785 0.203197 0
204 1 0.388246 0.209354 0
233 1 0.371955 0.226823 0
235 1 0.396132 0.232244 0
232 1 0.353698 0.244136 0
207 1 0.435267 0.221376 0
206 1 0.419019 0.239772 0
237 1 0.44208 0.245231 0
178 1 0.452437 0.203528 0
208 1 0.460835 0.229318 0
209 1 0.478513 0.212343 0
210 1 0.48418 0.235984 0
212 1 0.0110013 0.26308 0
243 1 0.0356852 0.259817 0
241 1 0.00743563 0.28661 0
242 1 0.0321846 0.292745 0
244 1 0.0537197 0.277734 0
245 1 0.0770237 0.265806 0
275 1 0.0754131 0.290742 0
247 1 0.0975737 0.27958 0
218 1 0.101526 0.257043 0
219 1 0.124961 0.252513 0
249 1 0.141233 0.269097 0
248 1 0.121739 0.28537 0
250 1 0.145426 0.29337 0
222 1 0.182293 0.262924 0
251 1 0.164735 0.279242 0
252 1 0.188855 0.286674 0
224 1 0.220808 0.250394 0
253 1 0.205759 0.268216 0
255 1 0.22987 0.274103 0
254 1 0.211757 0.291656 0
226 1 0.247741 0.257855 0
256 1 0.253278 0.281913 0
257 1 0.271357 0.265459 0
259 1 0.294386 0.272717 0
258 1 0.276446 0.289984 0
289 1 0.301371 0.296283 0
230 1 0.312776 0.254776 0
260 1 0.319043 0.280221 0
261 1 0.336616 0.262108 0
262 1 0.341785 0.286773 0
234 1 0.377297 0.251177 0
263 1 0.359452 0.267645 0
264 1 0.383398 0.276416 0
293 1 0.364632 0.293081 0
295 1 0.389515 0.300024 0
265 1 0.400402 0.257929 0
236 1 0.424797 0.264323 0
266 1 0.407168 0.28239 0
267 1 0.430909 0.287684 0
238 1 0.449 0.269801 0
239 1 0.468204 0.253674 0
1141 1 0.499155 0.283245 0
240 1 0.493198 0.259054 0
269 1 0.475819 0.277397 0
268 1 0.455207 0.292922 0
271 1 0.0124304 0.310132 0
272 1 0.0354167 0.31957 0
301 1 0.0171479 0.334571 0
303 1 0.0418188 0.344387 0
273 1 0.0545474 0.304475 0
276 1 0.0814259 0.314596 0
274 1 0.0611485 0.32903 0
305 1 0.0863947 0.3389 0
246 1 0.102159 0.302647 0
279 1 0.125793 0.310251 0
277 1 0.106345 0.326032 0
278 1 0.130833 0.334702 0
280 1 0.151309 0.317029 0
281 1 0.169922 0.302229 0
311 1 0.155234 0.341298 0
283 1 0.193601 0.309669 0
282 1 0.174619 0.325972 0
313 1 0.198135 0.33333 0
312 1 0.179672 0.350086 0
285 1 0.236116 0.29991 0
284 1 0.217294 0.315752 0
315 1 0.222383 0.339911 0
286 1 0.240921 0.323591 0
316 1 0.245385 0.347814 0
287 1 0.2591 0.306585 0
288 1 0.282578 0.314499 0
317 1 0.263992 0.330977 0
319 1 0.287186 0.339244 0
291 1 0.324801 0.304539 0
290 1 0.305444 0.321525 0
321 1 0.311614 0.346681 0
292 1 0.329131 0.328655 0
323 1 0.347782 0.311816 0
294 1 0.370906 0.317453 0
324 1 0.353888 0.336709 0
325 1 0.37955 0.341345 0
296 1 0.396472 0.323561 0
297 1 0.414027 0.306377 0
326 1 0.402782 0.347891 0
298 1 0.437984 0.311805 0
327 1 0.420078 0.330296 0
328 1 0.443748 0.336312 0
270 1 0.479262 0.300323 0
299 1 0.461777 0.319191 0
300 1 0.486424 0.324971 0
1201 1 0.493094 0.348234 0
329 1 0.467414 0.343802 0
331 1 0.00288616 0.373726 0
302 1 0.022454 0.358095 0
332 1 0.0275997 0.383848 0
333 1 0.0467853 0.368695 0
361 1 0.00875695 0.399387 0
334 1 0.0524577 0.393363 0
304 1 0.0663643 0.353592 0
306 1 0.0923214 0.364312 0
335 1 0.0728606 0.37828 0
337 1 0.0956618 0.390403 0
307 1 0.11124 0.349912 0
309 1 0.135673 0.359504 0
308 1 0.115165 0.374121 0
339 1 0.140344 0.383581 0
338 1 0.121 0.397905 0
310 1 0.160595 0.366926 0
341 1 0.164438 0.390869 0
343 1 0.185159 0.373849 0
342 1 0.18908 0.398221 0
314 1 0.204039 0.358013 0
345 1 0.22792 0.365591 0
344 1 0.208793 0.383246 0
375 1 0.232442 0.389221 0
346 1 0.25056 0.372801 0
377 1 0.257181 0.397444 0
318 1 0.269232 0.355874 0
349 1 0.294237 0.364451 0
347 1 0.274003 0.380402 0
350 1 0.298932 0.388216 0
322 1 0.335335 0.353817 0
320 1 0.317087 0.371412 0
351 1 0.340885 0.379027 0
381 1 0.32292 0.395756 0
353 1 0.358668 0.362084 0
355 1 0.383774 0.365476 0
354 1 0.366722 0.38535 0
385 1 0.390354 0.389575 0
357 1 0.426742 0.354441 0
356 1 0.408021 0.372879 0
387 1 0.431511 0.379914 0
386 1 0.414512 0.396914 0
359 1 0.450356 0.360486 0
358 1 0.455014 0.385669 0
330 1 0.473446 0.368025 0
360 1 0.481415 0.390752 0
1231 1 0.499757 0.372965 0
363 1 0.0330846 0.408855 0
362 1 0.0132333 0.424705 0
364 1 0.0381699 0.434336 0
393 1 0.0184868 0.45019 0
336 1 0.0744855 0.40312 0
365 1 0.0554683 0.417549 0
395 1 0.0643331 0.442276 0
367 1 0.101007 0.414366 0
366 1 0.107203 0.438418 0
369 1 0.124088 0.422088 0
340 1 0.144271 0.407367 0
368 1 0.130619 0.447209 0
370 1 0.148328 0.431156 0
371 1 0.168594 0.414418 0
401 1 0.173438 0.437388 0
372 1 0.193819 0.422288 0
403 1 0.198833 0.44556 0
373 1 0.214269 0.406434 0
374 1 0.217904 0.43002 0
376 1 0.237408 0.414071 0
405 1 0.242761 0.438279 0
348 1 0.281049 0.405166 0
407 1 0.268082 0.446978 0
378 1 0.262346 0.421266 0
409 1 0.286171 0.430265 0
352 1 0.34782 0.401797 0
379 1 0.303082 0.412831 0
380 1 0.310319 0.437994 0
382 1 0.330145 0.420997 0
411 1 0.334853 0.447401 0
383 1 0.371761 0.411294 0
413 1 0.353858 0.428231 0
414 1 0.376751 0.434348 0
384 1 0.39576 0.415089 0
388 1 0.437661 0.40337 0
415 1 0.401477 0.439153 0
417 1 0.420567 0.420839 0
416 1 0.425033 0.445209 0
419 1 0.444061 0.429133 0
389 1 0.463125 0.410282 0
418 1 0.468748 0.434695 0
390 1 0.49017 0.413586 0
420 1 0.494484 0.438626 0
392 1 -0.00087974 0.464664 0
422 1 0.00469154 0.489677 0
423 1 0.0246383 0.474779 0
394 1 0.0441677 0.458109 0
424 1 0.0289996 0.499413 0
425 1 0.0486811 0.484175 0
396 1 0.0677915 0.468492 0
426 1 0.0745617 0.493391 0
397 1 0.0878066 0.453601 0
427 1 0.0920053 0.47816 0
398 1 0.112689 0.462485 0
428 1 0.115397 0.486271 0
429 1 0.135396 0.471386 0
459 1 0.139487 0.495753 0
399 1 0.154785 0.454334 0
400 1 0.178649 0.460899 0
430 1 0.159036 0.478136 0
431 1 0.182973 0.484695 0
404 1 0.22215 0.45357 0
402 1 0.202772 0.469575 0
432 1 0.20706 0.493151 0
433 1 0.228491 0.476947 0
435 1 0.248355 0.46197 0
408 1 0.292137 0.454193 0
436 1 0.252574 0.485335 0
406 1 0.272785 0.470289 0
437 1 0.275941 0.49543 0
439 1 0.296201 0.480015 0
410 1 0.315189 0.462286 0
440 1 0.321425 0.487293 0
441 1 0.340383 0.471259 0
471 1 0.346564 0.496672 0
412 1 0.359449 0.453931 0
442 1 0.363653 0.479054 0
473 1 0.388946 0.481826 0
443 1 0.383132 0.45788 0
477 1 0.4391 0.492006 0
446 1 0.432458 0.468883 0
445 1 0.407135 0.463589 0
444 1 0.415416 0.486775 0
447 1 0.450237 0.452588 0
478 1 0.465167 0.498178 0
449 1 0.475606 0.45744 0
450 1 0.482524 0.481257 0
448 1 0.458213 0.475649 0
453 1 0.0104445 0.515995 0
452 1 0.0176792 0.540353 0
454 1 0.0344976 0.52357 0
483 1 0.0400862 0.549741 0
485 1 0.0575897 0.532807 0
455 1 0.0538517 0.508032 0
456 1 0.0778123 0.51823 0
486 1 0.0820104 0.544557 0
457 1 0.0981634 0.503187 0
487 1 0.100622 0.527361 0
458 1 0.120926 0.513346 0
488 1 0.125964 0.538654 0
489 1 0.14531 0.521228 0
490 1 0.148727 0.546856 0
460 1 0.1635 0.502835 0
461 1 0.187221 0.509086 0
462 1 0.192145 0.532902 0
491 1 0.168196 0.529083 0
493 1 0.217864 0.540417 0
463 1 0.2105 0.517687 0
464 1 0.237223 0.524819 0
434 1 0.231542 0.50106 0
466 1 0.259833 0.535143 0
465 1 0.257088 0.510105 0
467 1 0.279681 0.519789 0
497 1 0.282388 0.545167 0
438 1 0.301274 0.503808 0
468 1 0.303831 0.52919 0
469 1 0.32515 0.51273 0
499 1 0.328211 0.536965 0
470 1 0.347761 0.522137 0
501 1 0.352207 0.547823 0
503 1 0.371847 0.530724 0
474 1 0.396937 0.503818 0
505 1 0.389175 0.546229 0
472 1 0.372323 0.5033 0
476 1 0.403898 0.527286 0
509 1 0.428791 0.535018 0
475 1 0.423691 0.511028 0
507 1 0.447832 0.515455 0
479 1 0.472309 0.522623 0
480 1 0.452662 0.539425 0
1381 1 0.496561 0.529385 0
510 1 0.478738 0.546275 0
1351 1 0.489033 0.504592 0
513 1 0.0205787 0.565362 0
514 1 0.0428084 0.575955 0
512 1 0.0224037 0.590104 0
511 1 -0.000653892 0.581117 0
484 1 0.0631068 0.561011 0
515 1 0.0876173 0.569909 0
545 1 0.0678578 0.584526 0
516 1 0.0907345 0.594142 0
517 1 0.107828 0.555618 0
518 1 0.11225 0.58126 0
519 1 0.131226 0.565144 0
549 1 0.134245 0.590747 0
520 1 0.154319 0.571508 0
521 1 0.172014 0.554465 0
492 1 0.197274 0.55559 0
523 1 0.200419 0.57979 0
522 1 0.176818 0.586559 0
495 1 0.240089 0.55081 0
494 1 0.219735 0.565634 0
524 1 0.221407 0.589994 0
525 1 0.242728 0.575441 0
555 1 0.243592 0.600146 0
496 1 0.262441 0.560482 0
526 1 0.263477 0.585511 0
527 1 0.284892 0.569371 0
528 1 0.286469 0.593508 0
498 1 0.307542 0.553575 0
529 1 0.307609 0.578395 0
500 1 0.329577 0.561549 0
530 1 0.329327 0.589049 0
531 1 0.351067 0.57519 0
502 1 0.372491 0.562768 0
504 1 0.395383 0.570079 0
533 1 0.376969 0.589146 0
534 1 0.400154 0.593862 0
506 1 0.412536 0.5534 0
535 1 0.419925 0.577332 0
508 1 0.435885 0.55893 0
537 1 0.442821 0.583527 0
536 1 0.425093 0.60227 0
539 1 0.458905 0.564034 0
540 1 0.484699 0.570765 0
538 1 0.467321 0.588724 0
569 1 0.492252 0.59453 0
543 1 0.0469963 0.600129 0
541 1 0.00291199 0.604637 0
542 1 0.0260721 0.615002 0
571 1 0.00525784 0.629034 0
573 1 0.0278712 0.638908 0
544 1 0.0489648 0.624009 0
546 1 0.0697463 0.609396 0
547 1 0.0923827 0.619442 0
575 1 0.0713707 0.634257 0
576 1 0.0948582 0.644216 0
548 1 0.112844 0.605967 0
550 1 0.135582 0.616781 0
577 1 0.115777 0.629289 0
579 1 0.137613 0.642143 0
551 1 0.156939 0.602119 0
581 1 0.157524 0.627682 0
552 1 0.17908 0.61488 0
582 1 0.179936 0.639439 0
553 1 0.201464 0.604195 0
583 1 0.202006 0.627768 0
554 1 0.223709 0.614794 0
556 1 0.245848 0.624572 0
585 1 0.224869 0.638605 0
586 1 0.248069 0.649531 0
557 1 0.266806 0.609336 0
587 1 0.268037 0.633626 0
558 1 0.28794 0.619518 0
589 1 0.290419 0.6446 0
559 1 0.307428 0.604125 0
560 1 0.309978 0.629326 0
561 1 0.329819 0.61306 0
591 1 0.331584 0.640226 0
532 1 0.352122 0.599894 0
562 1 0.350743 0.624459 0
563 1 0.384288 0.612733 0
564 1 0.371914 0.633651 0
593 1 0.354026 0.649675 0
595 1 0.395566 0.640158 0
565 1 0.408712 0.619675 0
566 1 0.433438 0.62612 0
596 1 0.417988 0.645529 0
598 1 0.442373 0.649632 0
567 1 0.448711 0.606816 0
597 1 0.458473 0.6295 0
568 1 0.475693 0.612494 0
570 1 0.481874 0.636777 0
572 1 0.00701785 0.652921 0
603 1 0.0297855 0.663914 0
602 1 0.00948479 0.677805 0
633 1 0.032036 0.688425 0
574 1 0.0502191 0.648372 0
604 1 0.0522434 0.673731 0
605 1 0.0727506 0.65886 0
606 1 0.0750635 0.684345 0
607 1 0.095076 0.669119 0
637 1 0.0986363 0.694971 0
578 1 0.116152 0.655594 0
609 1 0.139076 0.667183 0
608 1 0.118616 0.680793 0
639 1 0.141888 0.691513 0
580 1 0.15993 0.652997 0
611 1 0.181909 0.664635 0
610 1 0.162394 0.67869 0
612 1 0.185148 0.688903 0
584 1 0.203388 0.652693 0
613 1 0.206013 0.676042 0
615 1 0.227281 0.662179 0
614 1 0.230543 0.687266 0
617 1 0.25066 0.673739 0
616 1 0.252007 0.698365 0
588 1 0.270852 0.659294 0
619 1 0.292564 0.670502 0
618 1 0.272049 0.683463 0
590 1 0.312934 0.655908 0
621 1 0.316004 0.682082 0
592 1 0.335727 0.666472 0
622 1 0.339648 0.690668 0
623 1 0.358302 0.67375 0
594 1 0.377253 0.656523 0
624 1 0.382534 0.682138 0
653 1 0.363878 0.698905 0
625 1 0.400805 0.66357 0
627 1 0.423887 0.669939 0
626 1 0.407481 0.688025 0
657 1 0.43192 0.693128 0
628 1 0.448658 0.674092 0
599 1 0.465663 0.65467 0
600 1 0.490565 0.661022 0
629 1 0.472648 0.679033 0
630 1 0.497635 0.686766 0
658 1 0.457704 0.697279 0
632 1 0.0113084 0.702606 0
634 1 0.0363565 0.714132 0
663 1 0.0145285 0.728222 0
664 1 0.0381156 0.738653 0
635 1 0.0561415 0.699127 0
636 1 0.0797056 0.710581 0
665 1 0.0590452 0.724505 0
666 1 0.0808499 0.736176 0
695 1 0.060743 0.749879 0
667 1 0.102159 0.722203 0
638 1 0.121187 0.705586 0
640 1 0.144401 0.716484 0
669 1 0.12473 0.731895 0
668 1 0.104465 0.746596 0
670 1 0.145549 0.74277 0
641 1 0.164921 0.70318 0
642 1 0.186607 0.713532 0
671 1 0.16564 0.729002 0
673 1 0.18857 0.738313 0
643 1 0.208114 0.699788 0
645 1 0.229492 0.711313 0
644 1 0.209684 0.72507 0
675 1 0.232423 0.736304 0
646 1 0.250998 0.722375 0
647 1 0.273429 0.708498 0
677 1 0.252813 0.748477 0
648 1 0.272048 0.733224 0
679 1 0.294752 0.741621 0
649 1 0.297257 0.715631 0
620 1 0.322158 0.707206 0
651 1 0.345608 0.71498 0
650 1 0.327921 0.730972 0
652 1 0.353448 0.739449 0
655 1 0.389506 0.705629 0
654 1 0.369379 0.72194 0
685 1 0.396306 0.728344 0
683 1 0.378091 0.745312 0
656 1 0.4137 0.710556 0
687 1 0.437508 0.717214 0
686 1 0.419437 0.734779 0
717 1 0.446155 0.73923 0
659 1 0.480296 0.704213 0
689 1 0.462857 0.720692 0
660 1 0.486522 0.728429 0
688 1 0.468825 0.745429 0
662 1 0.0177998 0.751649 0
694 1 0.0399032 0.762828 0
693 1 0.0199204 0.776323 0
725 1 0.0420043 0.788676 0
697 1 0.0839459 0.761346 0
696 1 0.0633763 0.775056 0
727 1 0.0851479 0.786283 0
726 1 0.0660826 0.80011 0
699 1 0.127345 0.757387 0
698 1 0.106231 0.771754 0
700 1 0.128164 0.782224 0
728 1 0.107676 0.796787 0
701 1 0.149496 0.767218 0
731 1 0.151051 0.79306 0
672 1 0.168485 0.753396 0
703 1 0.191591 0.764871 0
702 1 0.171297 0.778937 0
704 1 0.192352 0.79006 0
674 1 0.21003 0.750124 0
676 1 0.233207 0.76253 0
705 1 0.213269 0.776984 0
706 1 0.235459 0.78677 0
707 1 0.256809 0.773018 0
678 1 0.276457 0.757689 0
709 1 0.278926 0.783895 0
680 1 0.298626 0.767311 0
737 1 0.256968 0.79892 0
710 1 0.302295 0.791672 0
681 1 0.316225 0.751271 0
682 1 0.338711 0.759149 0
711 1 0.32139 0.775504 0
712 1 0.344469 0.78437 0
713 1 0.36294 0.76539 0
714 1 0.38726 0.771504 0
743 1 0.367772 0.789965 0
745 1 0.392835 0.794954 0
684 1 0.401856 0.752297 0
715 1 0.427537 0.757774 0
716 1 0.4107 0.777338 0
747 1 0.433944 0.7829 0
718 1 0.451809 0.764487 0
690 1 0.492479 0.75338 0
719 1 0.476057 0.770725 0
720 1 0.48193 0.795189 0
749 1 0.458588 0.789493 0
1591 1 0.499675 0.776848 0
723 1 0.0219642 0.801708 0
722 1 0.0219939 0.826248 0
724 1 0.0453005 0.812363 0
754 1 0.0452467 0.836532 0
751 1 0.000962109 0.815197 0
1680 1 0.000985546 0.841484 0
757 1 0.0882503 0.813192 0
755 1 0.0676443 0.824995 0
756 1 0.0899923 0.838822 0
729 1 0.131436 0.807602 0
759 1 0.111272 0.822481 0
760 1 0.133437 0.832292 0
730 1 0.154022 0.820181 0
732 1 0.172717 0.80448 0
761 1 0.155512 0.844724 0
763 1 0.176605 0.833181 0
733 1 0.195465 0.815768 0
764 1 0.197269 0.845772 0
735 1 0.214914 0.801436 0
736 1 0.236947 0.812864 0
734 1 0.215879 0.828192 0
767 1 0.239021 0.837389 0
708 1 0.281895 0.808228 0
738 1 0.259654 0.824224 0
769 1 0.28302 0.834444 0
768 1 0.26112 0.849125 0
741 1 0.325529 0.800503 0
739 1 0.305836 0.816531 0
740 1 0.310267 0.839424 0
771 1 0.333663 0.828392 0
742 1 0.350035 0.807547 0
773 1 0.358261 0.830825 0
744 1 0.374744 0.813217 0
774 1 0.38186 0.837222 0
775 1 0.399775 0.818246 0
746 1 0.417219 0.801661 0
748 1 0.441301 0.808106 0
777 1 0.423739 0.826444 0
776 1 0.406251 0.844482 0
779 1 0.44798 0.833422 0
778 1 0.429913 0.853721 0
750 1 0.465373 0.814373 0
1621 1 0.489641 0.819109 0
780 1 0.472018 0.838609 0
1651 1 0.496965 0.842559 0
753 1 0.0439295 0.859897 0
752 1 0.0197555 0.862964 0
783 1 0.0369481 0.881816 0
782 1 0.0125301 0.886477 0
785 1 0.0682389 0.850154 0
784 1 0.0620558 0.875195 0
786 1 0.0811234 0.891448 0
787 1 0.0848182 0.867282 0
815 1 0.0560941 0.89855 0
817 1 0.104395 0.884159 0
758 1 0.108695 0.858328 0
789 1 0.134425 0.856449 0
788 1 0.127459 0.878787 0
790 1 0.145156 0.89526 0
762 1 0.175767 0.859428 0
791 1 0.152857 0.87258 0
793 1 0.17221 0.886684 0
795 1 0.198264 0.873244 0
765 1 0.220297 0.855169 0
796 1 0.223592 0.87958 0
825 1 0.240197 0.89677 0
766 1 0.248927 0.872844 0
797 1 0.27308 0.87024 0
827 1 0.265485 0.893015 0
799 1 0.296395 0.861142 0
798 1 0.289945 0.887128 0
772 1 0.345234 0.851139 0
770 1 0.321639 0.859609 0
800 1 0.314628 0.882882 0
801 1 0.34004 0.875769 0
802 1 0.356862 0.89413 0
803 1 0.365116 0.869909 0
804 1 0.382436 0.888183 0
805 1 0.39013 0.862225 0
807 1 0.41232 0.87163 0
808 1 0.436744 0.878415 0
837 1 0.424747 0.90009 0
809 1 0.455668 0.857356 0
1681 1 0.480421 0.862498 0
1711 1 0.487913 0.884468 0
810 1 0.461857 0.881832 0
813 1 0.0291841 0.905384 0
843 1 0.0223749 0.928718 0
814 1 0.0477604 0.923524 0
844 1 0.0395679 0.946275 0
812 1 0.00412541 0.910862 0
816 1 0.0972997 0.909902 0
845 1 0.0731977 0.91711 0
846 1 0.0652519 0.940197 0
847 1 0.0908355 0.933726 0
819 1 0.122687 0.902335 0
818 1 0.115714 0.927505 0
820 1 0.133584 0.944275 0
821 1 0.139063 0.920812 0
792 1 0.164819 0.91391 0
851 1 0.157844 0.936335 0
823 1 0.189333 0.908092 0
822 1 0.18254 0.932986 0
794 1 0.214671 0.902561 0
824 1 0.207124 0.926732 0
885 1 0.224621 0.944288 0
855 1 0.231647 0.920476 0
854 1 0.199308 0.951032 0
856 1 0.249966 0.93927 0
826 1 0.258477 0.915976 0
857 1 0.274819 0.93493 0
828 1 0.283532 0.911031 0
859 1 0.299312 0.930903 0
831 1 0.332515 0.898847 0
829 1 0.308812 0.907319 0
830 1 0.323964 0.926273 0
832 1 0.349057 0.917603 0
861 1 0.341163 0.943742 0
860 1 0.316622 0.948629 0
806 1 0.401144 0.905294 0
863 1 0.364886 0.937902 0
833 1 0.374985 0.91226 0
834 1 0.389761 0.930832 0
835 1 0.415485 0.926617 0
836 1 0.430877 0.94358 0
865 1 0.405962 0.948856 0
838 1 0.438629 0.920132 0
869 1 0.460607 0.94327 0
839 1 0.47262 0.902852 0
840 1 0.478444 0.926288 0
1712 1 0.495836 0.908328 0
842 1 0.0145965 0.952487 0
872 1 0.022921 0.99474 0
873 1 0.0316018 0.96896 0
871 1 0.0072698 0.97696 0
874 1 0.0473202 0.987624 0
875 1 0.0566092 0.963877 0
876 1 0.0738586 0.98102 0
848 1 0.0831439 0.957723 0
7 1 0.0913493 0.999128 0
877 1 0.100816 0.97399 0
849 1 0.108023 0.950749 0
878 1 0.117697 0.991917 0
879 1 0.124396 0.968712 0
881 1 0.143265 0.98671 0
850 1 0.149508 0.96235 0
853 1 0.173773 0.957493 0
852 1 0.16642 0.980451 0
883 1 0.193052 0.974753 0
882 1 0.183889 0.998951 0
13 1 0.209813 0.99312 0
15 1 0.233187 0.986689 0
884 1 0.216976 0.968328 0
886 1 0.241224 0.962689 0
858 1 0.290665 0.954207 0
887 1 0.265599 0.959648 0
17 1 0.257991 0.982433 0
888 1 0.283074 0.978111 0
19 1 0.3005 0.996138 0
889 1 0.30762 0.970677 0
890 1 0.323822 0.991704 0
891 1 0.333229 0.967677 0
892 1 0.349152 0.985348 0
862 1 0.357149 0.960545 0
864 1 0.381716 0.954959 0
893 1 0.373892 0.978434 0
895 1 0.39855 0.974435 0
894 1 0.392495 0.997073 0
866 1 0.422274 0.968242 0
896 1 0.418875 0.992513 0
867 1 0.446633 0.963856 0
897 1 0.444707 0.987268 0
868 1 0.470047 0.968618 0
1771 1 0.493622 0.972868 0
870 1 0.485267 0.949705 0
899 1 0.476553 0.993234 0
902 1 0.535444 0.0246436 0
901 1 0.510246 0.0202938 0
931 1 0.518689 0.042691 0
903 1 0.527169 0.00205384 0
933 1 0.54163 0.0493718 0
904 1 0.558939 0.0325506 0
906 1 0.574654 0.0130006 0
935 1 0.583331 0.0364329 0
905 1 0.55117 0.00675344 0
908 1 0.600626 0.0185578 0
937 1 0.607462 0.0425466 0
939 1 0.624817 0.0246426 0
910 1 0.640629 0.00576767 0
938 1 0.633421 0.0487055 0
909 1 0.616722 -0.000328023 0
941 1 0.650466 0.0304184 0
912 1 0.667006 0.0111179 0
942 1 0.674562 0.0346375 0
943 1 0.691102 0.0173462 0
973 1 0.699006 0.0404568 0
944 1 0.716101 0.0223261 0
945 1 0.732931 0.0037206 0
946 1 0.740739 0.0271086 0
975 1 0.723345 0.0473374 0
947 1 0.757968 0.0100713 0
948 1 0.766131 0.032302 0
918 1 0.783669 0.0162885 0
979 1 0.800529 0.0474141 0
949 1 0.808997 0.0224837 0
951 1 0.835782 0.0194089 0
950 1 0.825399 0.0421338 0
921 1 0.820387 0.0017944 0
952 1 0.850284 0.0376889 0
953 1 0.859409 0.0147586 0
924 1 0.884311 0.00651896 0
954 1 0.877933 0.0318232 0
985 1 0.893555 0.0489166 0
955 1 0.900509 0.0254156 0
926 1 0.926118 0.0193326 0
957 1 0.94298 0.0375187 0
956 1 0.918327 0.0429663 0
928 1 0.950879 0.0149119 0
959 1 0.967631 0.0313833 0
930 1 0.990936 0.0256522 0
929 1 0.975389 0.00577747 0
960 1 0.983295 0.0492329 0
932 1 0.52546 0.0675529 0
962 1 0.532576 0.0916713 0
961 1 0.507838 0.0847612 0
60 1 0.50186 0.0611652 0
963 1 0.549073 0.0740956 0
934 1 0.567019 0.0565861 0
965 1 0.573273 0.0808358 0
964 1 0.556868 0.0976732 0
936 1 0.590328 0.0612772 0
966 1 0.598006 0.0848412 0
967 1 0.614819 0.066441 0
968 1 0.622421 0.0906663 0
969 1 0.640085 0.0724622 0
999 1 0.646929 0.0970484 0
940 1 0.658416 0.0543957 0
970 1 0.664104 0.0782691 0
971 1 0.682278 0.058547 0
972 1 0.688796 0.0839568 0
1003 1 0.707886 0.0648681 0
1004 1 0.716171 0.0887832 0
974 1 0.733104 0.0697995 0
1005 1 0.740798 0.0941294 0
976 1 0.749088 0.0509619 0
1007 1 0.760029 0.0754547 0
977 1 0.774048 0.0559473 0
978 1 0.793321 0.0709295 0
1008 1 0.787952 0.0970931 0
980 1 0.818329 0.0662199 0
981 1 0.842797 0.0616912 0
1009 1 0.811809 0.0894767 0
1011 1 0.835209 0.0844423 0
982 1 0.860164 0.0784353 0
983 1 0.868407 0.0550173 0
984 1 0.885259 0.0723337 0
1013 1 0.876797 0.0959875 0
1015 1 0.902386 0.0912213 0
986 1 0.910353 0.066866 0
987 1 0.93503 0.0598352 0
1017 1 0.927666 0.0847202 0
988 1 0.951677 0.0792393 0
958 1 0.959408 0.0545028 0
989 1 0.976115 0.0728347 0
990 1 0.993294 0.0902153 0
1019 1 0.968575 0.0959721 0
991 1 0.515514 0.107916 0
992 1 0.523082 0.134033 0
993 1 0.539375 0.115126 0
1023 1 0.546765 0.138258 0
995 1 0.581645 0.103987 0
994 1 0.562884 0.121841 0
996 1 0.586898 0.127406 0
1025 1 0.570294 0.145212 0
997 1 0.605492 0.108505 0
998 1 0.630691 0.114502 0
1027 1 0.613967 0.131898 0
1029 1 0.640187 0.137347 0
1001 1 0.67204 0.101277 0
1000 1 0.656706 0.119813 0
1031 1 0.681898 0.125124 0
1030 1 0.664654 0.143054 0
1002 1 0.698791 0.107518 0
1032 1 0.688364 0.148949 0
1033 1 0.707036 0.130881 0
1035 1 0.72412 0.112667 0
1034 1 0.733447 0.137724 0
1036 1 0.750331 0.120656 0
1006 1 0.764804 0.0992962 0
1037 1 0.777642 0.121896 0
1038 1 0.794091 0.140527 0
1067 1 0.760302 0.144765 0
1039 1 0.80224 0.116331 0
1010 1 0.827703 0.108749 0
1040 1 0.820122 0.134174 0
1041 1 0.8452 0.127428 0
1012 1 0.851511 0.103089 0
1043 1 0.870396 0.120711 0
1014 1 0.894257 0.114628 0
1044 1 0.887306 0.139316 0
1042 1 0.862153 0.145291 0
1045 1 0.911925 0.132344 0
1016 1 0.918125 0.108717 0
1047 1 0.936533 0.126566 0
1018 1 0.943481 0.103211 0
1049 1 0.963268 0.119256 0
1020 1 0.986936 0.113554 0
1050 1 0.977466 0.137935 0
1046 1 0.952954 0.143318 0
1021 1 0.504802 0.150221 0
1022 1 0.530714 0.158072 0
1053 1 0.536211 0.180694 0
1051 1 0.512482 0.174224 0
1052 1 0.518873 0.199281 0
1026 1 0.595365 0.150387 0
1024 1 0.554259 0.162893 0
1055 1 0.580397 0.169119 0
1054 1 0.562689 0.18709 0
1056 1 0.586349 0.193182 0
1028 1 0.621505 0.155482 0
1057 1 0.603712 0.174873 0
1058 1 0.628558 0.180077 0
1087 1 0.611031 0.197807 0
1059 1 0.645307 0.160887 0
1060 1 0.65371 0.185168 0
1061 1 0.670293 0.166463 0
1091 1 0.678544 0.189978 0
1062 1 0.697306 0.172918 0
1063 1 0.714527 0.154445 0
1064 1 0.722232 0.17851 0
1095 1 0.744992 0.186129 0
1093 1 0.703058 0.196225 0
1065 1 0.739851 0.160354 0
1066 1 0.763741 0.169889 0
1068 1 0.78757 0.164455 0
1097 1 0.780924 0.189143 0
1071 1 0.837289 0.150718 0
1069 1 0.813594 0.157335 0
1070 1 0.831757 0.175138 0
1099 1 0.80597 0.182834 0
1101 1 0.849336 0.193973 0
1100 1 0.824651 0.198548 0
1072 1 0.8561 0.169195 0
1073 1 0.880249 0.163471 0
1103 1 0.873607 0.187087 0
1074 1 0.898701 0.179696 0
1077 1 0.92879 0.150453 0
1075 1 0.904839 0.156488 0
1076 1 0.923209 0.17424 0
1107 1 0.940485 0.192893 0
1078 1 0.947162 0.16835 0
1105 1 0.915708 0.197691 0
1048 1 0.971164 0.160806 0
151 1 0.996003 0.1555 0
1079 1 0.987679 0.180032 0
1109 1 0.964535 0.185468 0
1083 1 0.545277 0.204279 0
1081 1 0.502547 0.217942 0
1082 1 0.526691 0.222417 0
1111 1 0.50974 0.240454 0
1113 1 0.533627 0.245168 0
1084 1 0.552669 0.227434 0
1085 1 0.570013 0.21059 0
1086 1 0.594025 0.21632 0
1115 1 0.57656 0.234147 0
1117 1 0.599685 0.239555 0
1089 1 0.637224 0.204328 0
1088 1 0.61825 0.221656 0
1119 1 0.643187 0.227044 0
1118 1 0.624809 0.24572 0
1090 1 0.661309 0.209325 0
1092 1 0.684716 0.214882 0
1121 1 0.666663 0.233064 0
1122 1 0.692063 0.238562 0
1094 1 0.726742 0.202274 0
1123 1 0.709665 0.221328 0
1124 1 0.717324 0.245109 0
1125 1 0.735674 0.226933 0
1096 1 0.752514 0.209113 0
1127 1 0.778665 0.21495 0
1126 1 0.758862 0.233924 0
1128 1 0.783951 0.238523 0
1098 1 0.800975 0.206822 0
1131 1 0.841702 0.217255 0
1129 1 0.818574 0.223553 0
1130 1 0.835403 0.241711 0
1159 1 0.807868 0.24544 0
1102 1 0.866653 0.21064 0
1104 1 0.890556 0.204551 0
1132 1 0.859024 0.234032 0
1133 1 0.882923 0.229307 0
1134 1 0.902074 0.245915 0
1135 1 0.909374 0.220984 0
1106 1 0.934912 0.217092 0
1136 1 0.926186 0.240346 0
181 1 0.999718 0.220383 0
1137 1 0.952554 0.234308 0
1108 1 0.959512 0.210546 0
1110 1 0.982291 0.205086 0
1139 1 0.976921 0.228606 0
1140 1 0.994847 0.245061 0
1112 1 0.515714 0.26329 0
1143 1 0.540212 0.270419 0
1142 1 0.522104 0.287121 0
1144 1 0.546215 0.294503 0
1114 1 0.557348 0.252572 0
1116 1 0.582608 0.258173 0
1145 1 0.563812 0.276252 0
1146 1 0.588254 0.282892 0
1147 1 0.605899 0.264973 0
1149 1 0.63101 0.269757 0
1148 1 0.613343 0.288366 0
1179 1 0.637954 0.292705 0
1120 1 0.649196 0.251058 0
1151 1 0.674465 0.256726 0
1150 1 0.655885 0.274924 0
1152 1 0.680355 0.282266 0