ITEM: TIMESTEP
3650000
ITEM: NUMBER OF ATOMS
1800
ITEM: BOX BOUNDS pp pp pp
-1.3340448796037776e+02 2.9180448796037973e+02
3.4758777617386301e+00 1.5492412223826335e+02
0.0000000000000000e+00 5.2800000000000002e+00
ITEM: ATOMS id type xs ys zs
1 1 0.0106998 0.0112506 0
60 1 0.0116328 0.0369292 0
2 1 0.0334109 0.0220417 0
3 1 0.0548709 0.00706439 0
63 1 0.0560562 0.0333552 0
4 1 0.0757023 0.019702 0
64 1 0.0781115 0.0450512 0
6 1 0.0992273 0.00504382 0
65 1 0.100383 0.0302229 0
67 1 0.123218 0.0148332 0
127 1 0.123712 0.040267 0
68 1 0.14517 0.0269734 0
8 1 0.143229 0.00126539 0
69 1 0.166023 0.0118378 0
70 1 0.166788 0.0368906 0
71 1 0.187739 0.0225349 0
131 1 0.190113 0.0470744 0
73 1 0.20895 0.00935305 0
72 1 0.210952 0.0347356 0
75 1 0.231518 0.0204307 0
74 1 0.234973 0.0441509 0
16 1 0.252356 0.00691053 0
76 1 0.255801 0.0310604 0
77 1 0.275621 0.0162731 0
137 1 0.278479 0.0416976 0
78 1 0.298946 0.0272553 0
18 1 0.29721 0.00183259 0
79 1 0.319891 0.0130498 0
80 1 0.321789 0.0385446 0
20 1 0.341463 0.00034557 0
81 1 0.343341 0.0235685 0
22 1 0.364397 0.0114023 0
82 1 0.365295 0.0360941 0
83 1 0.387833 0.0217981 0
84 1 0.388778 0.0469865 0
85 1 0.409926 0.0325471 0
25 1 0.409404 0.0078553 0
26 1 0.431022 0.0189337 0
87 1 0.43251 0.0436708 0
1768 1 0.452465 0.00418138 0
28 1 0.453668 0.0291205 0
29 1 0.473738 0.0155572 0
89 1 0.475672 0.0403905 0
30 1 0.49862 0.0276314 0
1770 1 0.495653 0.00259195 0
120 1 0.01444 0.063077 0
180 1 0.0157684 0.0877042 0
61 1 0.034926 0.0480374 0
121 1 0.0379768 0.073878 0
62 1 0.0580619 0.0597742 0
123 1 0.060229 0.0840672 0
125 1 0.0811848 0.0701777 0
184 1 0.0828851 0.0945828 0
66 1 0.102245 0.0544979 0
124 1 0.105058 0.0796368 0
126 1 0.124921 0.0657863 0
185 1 0.126945 0.0908156 0
129 1 0.145932 0.0516328 0
128 1 0.147936 0.0763428 0
189 1 0.171099 0.0867521 0
130 1 0.169264 0.0617759 0
132 1 0.191848 0.072259 0
133 1 0.212356 0.0592494 0
193 1 0.215042 0.084594 0
134 1 0.236152 0.0695843 0
135 1 0.257829 0.0574066 0
195 1 0.25961 0.0814851 0
136 1 0.280821 0.0659842 0
197 1 0.281508 0.0922018 0
139 1 0.300976 0.0521835 0
138 1 0.302462 0.0774476 0
140 1 0.322808 0.0641497 0
199 1 0.324548 0.0891705 0
141 1 0.344832 0.0492193 0
142 1 0.34666 0.0744088 0
143 1 0.367884 0.0604039 0
203 1 0.368506 0.0849417 0
144 1 0.389613 0.0716224 0
145 1 0.40969 0.0577266 0
146 1 0.412895 0.0816456 0
86 1 0.432916 0.0684375 0
147 1 0.433916 0.0933463 0
88 1 0.45443 0.0540643 0
149 1 0.456026 0.0787756 0
90 1 0.478734 0.065737 0
150 1 0.4786 0.0901889 0
91 1 0.499224 0.0518056 0
242 1 0.0152427 0.137731 0
181 1 0.0184423 0.11204 0
122 1 0.0395458 0.0986923 0
182 1 0.0409754 0.121863 0
183 1 0.0621501 0.10912 0
243 1 0.0646669 0.132846 0
245 1 0.0860564 0.119432 0
186 1 0.106461 0.105653 0
246 1 0.10931 0.130658 0
247 1 0.129532 0.115774 0
307 1 0.132177 0.140957 0
187 1 0.14978 0.101201 0
248 1 0.152809 0.125873 0
188 1 0.173215 0.111122 0
249 1 0.175612 0.137188 0
191 1 0.19381 0.0977569 0
190 1 0.195276 0.123606 0
192 1 0.216131 0.109246 0
251 1 0.218452 0.133562 0
194 1 0.238695 0.0954404 0
253 1 0.239303 0.119788 0
196 1 0.26069 0.106072 0
255 1 0.261725 0.132048 0
257 1 0.283216 0.11731 0
256 1 0.2848 0.142015 0
198 1 0.304285 0.10295 0
259 1 0.305794 0.129093 0
200 1 0.325629 0.113468 0
260 1 0.327568 0.139594 0
201 1 0.347188 0.100071 0
261 1 0.347797 0.124894 0
202 1 0.369173 0.11074 0
263 1 0.369514 0.135833 0
205 1 0.391827 0.0957643 0
204 1 0.391468 0.121243 0
207 1 0.41325 0.107471 0
265 1 0.413801 0.132073 0
208 1 0.435921 0.118265 0
148 1 0.457115 0.103767 0
209 1 0.458099 0.128818 0
211 1 0.480601 0.115346 0
210 1 0.480511 0.139991 0
361 1 0.0214103 0.187974 0
301 1 0.0224768 0.16224 0
303 1 0.0419284 0.146984 0
363 1 0.0451694 0.173976 0
244 1 0.0653129 0.158892 0
304 1 0.0675587 0.183094 0
305 1 0.0864238 0.144227 0
365 1 0.0886674 0.168232 0
306 1 0.110755 0.155222 0
366 1 0.110931 0.179848 0
367 1 0.133754 0.165294 0
368 1 0.135033 0.190346 0
308 1 0.154541 0.151306 0
369 1 0.15538 0.175294 0
309 1 0.176897 0.162499 0
310 1 0.177431 0.187517 0
250 1 0.197333 0.148006 0
311 1 0.198556 0.172882 0
252 1 0.219932 0.15987 0
312 1 0.221685 0.183887 0
254 1 0.241052 0.14477 0
313 1 0.242228 0.170191 0
315 1 0.262834 0.156964 0
314 1 0.26374 0.181727 0
317 1 0.286055 0.168019 0
258 1 0.307883 0.153408 0
318 1 0.307786 0.178899 0
319 1 0.329383 0.165846 0
379 1 0.33125 0.190435 0
262 1 0.34963 0.151767 0
321 1 0.351471 0.176109 0
323 1 0.371519 0.160924 0
322 1 0.373756 0.186694 0
264 1 0.39224 0.147484 0
324 1 0.39404 0.172981 0
325 1 0.416319 0.18247 0
266 1 0.414905 0.157157 0
206 1 0.436811 0.144155 0
327 1 0.43759 0.169465 0
267 1 0.45976 0.153694 0
268 1 0.460412 0.178825 0
269 1 0.482177 0.16428 0
329 1 0.482351 0.189561 0
420 1 0.00594942 0.209201 0
421 1 0.0295991 0.211794 0
422 1 0.0303145 0.237049 0
364 1 0.0482426 0.197943 0
362 1 0.0512698 0.223812 0
423 1 0.0707133 0.208936 0
483 1 0.0729578 0.233785 0
425 1 0.0905248 0.194569 0
424 1 0.0930051 0.219131 0
427 1 0.113237 0.205037 0
426 1 0.117068 0.230106 0
428 1 0.137607 0.215433 0
429 1 0.157082 0.20095 0
430 1 0.160021 0.225753 0
370 1 0.181259 0.212736 0
371 1 0.201032 0.197415 0
431 1 0.203621 0.223096 0
372 1 0.223324 0.208749 0
433 1 0.224883 0.235438 0
373 1 0.243412 0.195489 0
374 1 0.244816 0.22109 0
375 1 0.264466 0.206545 0
435 1 0.267391 0.232534 0
316 1 0.285914 0.194009 0
376 1 0.288485 0.219349 0
377 1 0.309064 0.205201 0
378 1 0.311413 0.22991 0
380 1 0.332638 0.215154 0
320 1 0.353399 0.201271 0
441 1 0.354805 0.226263 0
381 1 0.375972 0.21177 0
382 1 0.376969 0.237382 0
383 1 0.395974 0.197895 0
384 1 0.398306 0.222575 0
385 1 0.419178 0.208034 0
445 1 0.420568 0.233061 0
326 1 0.438229 0.193773 0
386 1 0.441553 0.218533 0
328 1 0.461799 0.203724 0
387 1 0.463444 0.229553 0
389 1 0.483748 0.215301 0
481 1 0.0104018 0.251881 0
539 1 0.00916053 0.278313 0
540 1 0.0325312 0.262303 0
482 1 0.0532245 0.24871 0
543 1 0.0540248 0.274035 0
484 1 0.0762519 0.259207 0
544 1 0.0774481 0.285123 0
485 1 0.0964788 0.244681 0
545 1 0.0982767 0.271229 0
486 1 0.118496 0.254934 0
547 1 0.120509 0.281261 0
487 1 0.139988 0.240583 0
488 1 0.141027 0.266302 0
489 1 0.162079 0.252714 0
549 1 0.163286 0.277554 0
491 1 0.18233 0.238192 0
490 1 0.184703 0.263615 0
432 1 0.204841 0.249966 0
492 1 0.208005 0.275216 0
493 1 0.227192 0.259963 0
434 1 0.247307 0.24635 0
494 1 0.249739 0.272881 0
495 1 0.270045 0.257902 0
496 1 0.273121 0.283969 0
437 1 0.290552 0.244623 0
436 1 0.293519 0.269433 0
438 1 0.31372 0.253885 0
499 1 0.315633 0.279858 0
439 1 0.33475 0.240126 0
440 1 0.335671 0.265735 0
442 1 0.357112 0.250864 0
501 1 0.357632 0.277711 0
503 1 0.378707 0.262571 0
443 1 0.398619 0.247683 0
444 1 0.400701 0.274551 0
446 1 0.420686 0.258759 0
505 1 0.423747 0.283636 0
447 1 0.442995 0.242842 0
507 1 0.444437 0.26981 0
448 1 0.464541 0.254556 0
508 1 0.465683 0.279723 0
388 1 0.485758 0.240361 0
509 1 0.48585 0.265869 0
541 1 0.0141723 0.302655 0
601 1 0.0137821 0.327627 0
542 1 0.0338378 0.287401 0
602 1 0.0360699 0.313575 0
603 1 0.0565901 0.299643 0
604 1 0.0582777 0.324467 0
605 1 0.0787436 0.31047 0
546 1 0.100596 0.297577 0
606 1 0.101874 0.321717 0
607 1 0.122591 0.306372 0
608 1 0.124397 0.33139 0
548 1 0.143082 0.292307 0
609 1 0.144394 0.316854 0
550 1 0.165829 0.301596 0
610 1 0.166675 0.330441 0
551 1 0.186148 0.28855 0
611 1 0.187994 0.314987 0
552 1 0.207658 0.299759 0
612 1 0.209684 0.327885 0
553 1 0.228315 0.287274 0
613 1 0.230277 0.313097 0
554 1 0.251093 0.298254 0
615 1 0.253205 0.323335 0
555 1 0.273815 0.308755 0
557 1 0.294838 0.296013 0
558 1 0.295736 0.320688 0
497 1 0.317298 0.304843 0
559 1 0.319425 0.331547 0
500 1 0.337262 0.290824 0
498 1 0.339227 0.316306 0
561 1 0.359983 0.30245 0
562 1 0.362729 0.327117 0
502 1 0.380923 0.287963 0
563 1 0.382384 0.31272 0
504 1 0.403552 0.299312 0
564 1 0.405268 0.323492 0
565 1 0.425901 0.309988 0
506 1 0.445732 0.29514 0
627 1 0.449417 0.320335 0
567 1 0.468103 0.305427 0
568 1 0.471429 0.330943 0
510 1 0.488079 0.290707 0
569 1 0.49145 0.316462 0
662 1 0.0158736 0.353063 0
722 1 0.0172992 0.377511 0
663 1 0.0366378 0.337623 0
723 1 0.0384678 0.362828 0
664 1 0.0584413 0.34935 0
725 1 0.0604893 0.373895 0
665 1 0.080851 0.335373 0
666 1 0.0816599 0.360987 0
667 1 0.103141 0.345904 0
727 1 0.104009 0.370405 0
668 1 0.125092 0.356919 0
669 1 0.146411 0.343033 0
729 1 0.147606 0.368189 0
670 1 0.169262 0.356107 0
731 1 0.171134 0.380818 0
671 1 0.189422 0.340549 0
672 1 0.192336 0.365826 0
673 1 0.211788 0.353519 0
674 1 0.213831 0.378568 0
614 1 0.232939 0.338579 0
675 1 0.234926 0.363569 0
616 1 0.255544 0.349092 0
676 1 0.257976 0.373243 0
556 1 0.275768 0.334691 0
677 1 0.278698 0.359532 0
617 1 0.29843 0.344933 0
618 1 0.301749 0.370165 0
619 1 0.321284 0.355689 0
620 1 0.324437 0.380402 0
560 1 0.342433 0.341992 0
621 1 0.344413 0.366922 0
622 1 0.36426 0.351628 0
683 1 0.367628 0.376749 0
623 1 0.385088 0.338544 0
624 1 0.38877 0.363284 0
625 1 0.408525 0.34885 0
685 1 0.409731 0.374542 0
566 1 0.428598 0.334749 0
626 1 0.430083 0.360613 0
628 1 0.450272 0.346446 0
689 1 0.453438 0.37116 0
629 1 0.473534 0.355543 0
630 1 0.475546 0.380891 0
570 1 0.494151 0.341968 0
631 1 0.496033 0.366882 0
781 1 0.0195897 0.402318 0
782 1 0.0219528 0.427409 0
724 1 0.039498 0.387102 0
783 1 0.0419059 0.412607 0
785 1 0.0626708 0.398441 0
847 1 0.0644769 0.424538 0
726 1 0.0843625 0.385503 0
786 1 0.086033 0.409595 0
787 1 0.10654 0.396746 0
788 1 0.107339 0.421335 0
728 1 0.12753 0.382581 0
789 1 0.129366 0.408359 0
730 1 0.149891 0.393064 0
732 1 0.152182 0.418913 0
793 1 0.172604 0.405129 0
733 1 0.193382 0.39135 0
794 1 0.195548 0.416098 0
734 1 0.21627 0.402774 0
795 1 0.217971 0.427908 0
735 1 0.236295 0.388558 0
736 1 0.238209 0.412725 0
737 1 0.259717 0.398142 0
738 1 0.260738 0.423543 0
678 1 0.280894 0.384275 0
739 1 0.281674 0.409456 0
679 1 0.303549 0.395249 0
740 1 0.303661 0.420759 0
680 1 0.325349 0.406651 0
681 1 0.346646 0.392703 0
682 1 0.347622 0.417046 0
743 1 0.369525 0.40283 0
744 1 0.371105 0.427915 0
745 1 0.391191 0.41457 0
684 1 0.389483 0.388994 0
686 1 0.411663 0.400722 0
746 1 0.414218 0.424739 0
687 1 0.431342 0.386041 0
747 1 0.4344 0.410802 0
688 1 0.454869 0.395514 0
749 1 0.457637 0.420439 0
690 1 0.476724 0.406319 0
691 1 0.498445 0.393748 0
841 1 0.00113566 0.464214 0
843 1 0.0228873 0.451567 0
842 1 0.0237311 0.475648 0
784 1 0.0441373 0.438677 0
844 1 0.0451807 0.463078 0
845 1 0.0664528 0.449772 0
905 1 0.0675865 0.474599 0
848 1 0.0868321 0.435233 0
846 1 0.0891937 0.460619 0
849 1 0.109746 0.446778 0
909 1 0.111085 0.471264 0
791 1 0.131603 0.432252 0
790 1 0.13199 0.457399 0
851 1 0.154045 0.444533 0
852 1 0.154242 0.469663 0
792 1 0.174958 0.430528 0
853 1 0.175711 0.455786 0
855 1 0.197133 0.441653 0
854 1 0.197583 0.466365 0
796 1 0.220172 0.453745 0
797 1 0.239589 0.437814 0
857 1 0.242887 0.464879 0
798 1 0.262458 0.448565 0
858 1 0.265221 0.474645 0
799 1 0.283808 0.435453 0
859 1 0.285273 0.459679 0
800 1 0.306307 0.445918 0
861 1 0.309039 0.471735 0
741 1 0.329025 0.431319 0
801 1 0.329283 0.456913 0
742 1 0.351046 0.442327 0
803 1 0.352008 0.467967 0
804 1 0.374521 0.453207 0
805 1 0.394271 0.43934 0
806 1 0.396828 0.465204 0
807 1 0.416313 0.449803 0
808 1 0.419934 0.475068 0
748 1 0.437483 0.435254 0
809 1 0.439061 0.460213 0
750 1 0.460778 0.445497 0
869 1 0.461353 0.47001 0
751 1 0.481321 0.430188 0
810 1 0.488472 0.467666 0
752 1 0.499868 0.446011 0
901 1 0.00315494 0.490154 0
961 1 0.00511332 0.515384 0
902 1 0.0265493 0.50002 0
903 1 0.0466439 0.487732 0
963 1 0.0478122 0.512252 0
904 1 0.0691287 0.499137 0
906 1 0.0896247 0.485903 0
967 1 0.0910969 0.510817 0
907 1 0.111551 0.496765 0
908 1 0.114396 0.521853 0
850 1 0.133734 0.483559 0
910 1 0.13479 0.507972 0
911 1 0.156317 0.494413 0
971 1 0.158143 0.519098 0
913 1 0.176733 0.481012 0
912 1 0.178471 0.505779 0
915 1 0.199731 0.491748 0
914 1 0.202477 0.516943 0
856 1 0.220845 0.478033 0
916 1 0.22319 0.503141 0
917 1 0.244709 0.489456 0
977 1 0.246756 0.514734 0
919 1 0.26725 0.500755 0
860 1 0.287844 0.484876 0
920 1 0.290817 0.510023 0
921 1 0.311475 0.495749 0
922 1 0.312289 0.520967 0
802 1 0.332435 0.481991 0
862 1 0.333346 0.507652 0
863 1 0.355774 0.493423 0
923 1 0.358322 0.517582 0
865 1 0.375222 0.478124 0
864 1 0.378868 0.504034 0
866 1 0.399922 0.489052 0
927 1 0.401012 0.514843 0
867 1 0.421925 0.500183 0
929 1 0.444324 0.510885 0
868 1 0.443343 0.485946 0
931 1 0.469034 0.514301 0
870 1 0.478654 0.490496 0
872 1 0.49302 0.511027 0
1021 1 0.00516116 0.541193 0
1022 1 0.0064471 0.56613 0
962 1 0.0267188 0.527206 0
1023 1 0.0280304 0.55269 0
964 1 0.0494762 0.537263 0
1025 1 0.0518436 0.562638 0
965 1 0.0702033 0.524259 0
966 1 0.0722551 0.54803 0
968 1 0.0929187 0.534998 0
1029 1 0.0952335 0.560183 0
970 1 0.115722 0.546639 0
969 1 0.136612 0.532763 0
1031 1 0.13843 0.55803 0
972 1 0.16019 0.544223 0
1032 1 0.163013 0.5711 0
973 1 0.181214 0.530036 0
1033 1 0.183256 0.556086 0
974 1 0.203938 0.541994 0
1035 1 0.206461 0.567133 0
975 1 0.224802 0.527925 0
976 1 0.226229 0.552691 0
978 1 0.247201 0.539451 0
1037 1 0.248531 0.564285 0
918 1 0.268676 0.525236 0
979 1 0.270122 0.550005 0
981 1 0.291395 0.535182 0
980 1 0.293054 0.559868 0
983 1 0.315043 0.545883 0
1043 1 0.335154 0.532044 0
982 1 0.337453 0.556529 0
924 1 0.357652 0.542003 0
984 1 0.360842 0.567905 0
925 1 0.379768 0.529807 0
985 1 0.382746 0.554732 0
926 1 0.403312 0.539552 0
986 1 0.405619 0.565389 0
928 1 0.424927 0.525211 0
987 1 0.426586 0.551963 0
989 1 0.448781 0.560786 0
930 1 0.455116 0.536419 0
990 1 0.472452 0.556194 0
991 1 0.48313 0.534189 0
992 1 0.497725 0.55379 0
1083 1 0.0105105 0.590157 0
1084 1 0.0122659 0.615137 0
1024 1 0.0310259 0.576069 0
1085 1 0.0321988 0.60141 0
1026 1 0.0530991 0.587626 0
1086 1 0.0544669 0.613257 0
1027 1 0.0742239 0.573877 0
1087 1 0.0748355 0.599651 0
1028 1 0.0962418 0.58703 0
1088 1 0.0984462 0.611752 0
1030 1 0.11808 0.571731 0
1089 1 0.119378 0.596999 0
1091 1 0.141195 0.583748 0
1090 1 0.141875 0.609194 0
1092 1 0.163678 0.595088 0
1034 1 0.18589 0.581857 0
1093 1 0.186953 0.605337 0
1095 1 0.208896 0.591913 0
1094 1 0.209523 0.617469 0
1036 1 0.228777 0.578156 0
1096 1 0.231253 0.602216 0
1038 1 0.251559 0.588321 0
1097 1 0.252895 0.613274 0
1039 1 0.272192 0.574256 0
1099 1 0.274165 0.598928 0
1040 1 0.294183 0.585372 0
1100 1 0.295184 0.610282 0
1041 1 0.315225 0.571637 0
1101 1 0.316625 0.59634 0
1042 1 0.338642 0.581542 0
1103 1 0.338758 0.606635 0
1044 1 0.359698 0.593022 0
1105 1 0.36177 0.616581 0
1045 1 0.382522 0.579652 0
1046 1 0.383549 0.604083 0
1047 1 0.406042 0.590017 0
1107 1 0.405696 0.616048 0
1048 1 0.426503 0.603458 0
988 1 0.428646 0.577426 0
1109 1 0.451496 0.602016 0
1049 1 0.463329 0.580019 0
1050 1 0.47641 0.599117 0
1051 1 0.487243 0.576879 0
1143 1 0.01259 0.641243 0
1145 1 0.0338014 0.627404 0
1205 1 0.0351792 0.652798 0
1146 1 0.0558258 0.63838 0
1206 1 0.0571526 0.663843 0
1147 1 0.0778386 0.624046 0
1207 1 0.0787285 0.648652 0
1148 1 0.100649 0.636342 0
1209 1 0.10057 0.660229 0
1150 1 0.122925 0.647072 0
1149 1 0.120865 0.622341 0
1151 1 0.14299 0.633131 0
1211 1 0.144087 0.657857 0
1153 1 0.164511 0.620363 0
1152 1 0.165928 0.645291 0
1154 1 0.187299 0.631907 0
1213 1 0.189129 0.656784 0
1155 1 0.209924 0.642595 0
1157 1 0.231282 0.627837 0
1156 1 0.232928 0.652593 0
1158 1 0.253887 0.638813 0
1217 1 0.256257 0.664603 0
1098 1 0.275509 0.623679 0
1219 1 0.276146 0.649399 0
1159 1 0.296756 0.635375 0
1160 1 0.298654 0.660447 0
1102 1 0.317434 0.621064 0
1161 1 0.319377 0.646594 0
1163 1 0.340877 0.631631 0
1164 1 0.342575 0.656731 0
1104 1 0.363182 0.642532 0
1106 1 0.383426 0.629225 0
1165 1 0.386617 0.654224 0
1167 1 0.407385 0.640443 0
1166 1 0.410659 0.665118 0
1168 1 0.431089 0.647132 0
1108 1 0.4406 0.624294 0
1169 1 0.456532 0.645373 0
1110 1 0.466922 0.62201 0
1170 1 0.471644 0.665747 0
1171 1 0.481934 0.642645 0
1111 1 0.491565 0.619622 0
1172 1 0.496636 0.662438 0
1144 1 0.0125189 0.667176 0
1265 1 0.0158873 0.691071 0
1204 1 0.0362419 0.677661 0
1325 1 0.0388931 0.703693 0
1267 1 0.0592397 0.688432 0
1266 1 0.0604145 0.714098 0
1208 1 0.080742 0.674702 0
1268 1 0.0807157 0.699823 0
1269 1 0.10259 0.685704 0
1270 1 0.10421 0.71085 0
1210 1 0.124581 0.672243 0
1271 1 0.125164 0.698457 0
1272 1 0.146145 0.683249 0
1332 1 0.147752 0.708109 0
1212 1 0.1667 0.669082 0
1333 1 0.169097 0.695202 0
1273 1 0.189684 0.680494 0
1274 1 0.192263 0.705255 0
1215 1 0.212284 0.666952 0
1214 1 0.213115 0.690856 0
1216 1 0.234823 0.677982 0
1275 1 0.235911 0.702139 0
1277 1 0.256941 0.688416 0
1218 1 0.278696 0.674446 0
1278 1 0.278684 0.700288 0
1279 1 0.300075 0.686874 0
1339 1 0.301203 0.711267 0
1162 1 0.321926 0.671339 0
1220 1 0.32355 0.696638 0
1221 1 0.344545 0.682593 0
1281 1 0.344923 0.707749 0
1223 1 0.364909 0.668071 0
1222 1 0.366766 0.693983 0
1225 1 0.38806 0.680055 0
1224 1 0.388948 0.704711 0
1226 1 0.410581 0.690847 0
1227 1 0.43483 0.695299 0
1229 1 0.447421 0.669587 0
1228 1 0.454198 0.713511 0
1230 1 0.461831 0.688878 0
1289 1 0.478309 0.70828 0
1231 1 0.48839 0.685894 0
1264 1 0.0175267 0.717289 0
1322 1 0.0196726 0.742129 0
1324 1 0.0402339 0.728836 0
1326 1 0.0404523 0.754845 0
1327 1 0.0614366 0.739815 0
1329 1 0.0822307 0.725049 0
1328 1 0.0835578 0.750962 0
1330 1 0.106171 0.736853 0
1391 1 0.128231 0.748199 0
1331 1 0.126533 0.723888 0
1393 1 0.148381 0.733456 0
1392 1 0.151107 0.759456 0
1334 1 0.171068 0.719464 0
1394 1 0.171725 0.745017 0
1335 1 0.193638 0.730885 0
1396 1 0.194724 0.756604 0
1276 1 0.215495 0.71758 0
1395 1 0.216554 0.7428 0
1336 1 0.237649 0.728265 0
1397 1 0.239669 0.753791 0
1337 1 0.258637 0.714427 0
1398 1 0.260032 0.739554 0
1338 1 0.281034 0.726117 0
1399 1 0.281902 0.751762 0
1340 1 0.303626 0.735992 0
1400 1 0.304382 0.761158 0
1280 1 0.323428 0.721353 0
1341 1 0.325704 0.747602 0
1282 1 0.345545 0.732906 0
1342 1 0.347804 0.759814 0
1283 1 0.367826 0.718766 0
1343 1 0.368788 0.745306 0
1284 1 0.391067 0.756181 0
1285 1 0.390805 0.73017 0
1287 1 0.410856 0.715263 0
1286 1 0.411937 0.74274 0
1288 1 0.433402 0.72693 0
1347 1 0.434124 0.753007 0
1348 1 0.458497 0.754559 0
1349 1 0.469583 0.732537 0
1291 1 0.494506 0.729581 0
1290 1 0.483998 0.751893 0
1443 1 0.0010733 0.807416 0
1385 1 0.0182965 0.767078 0
1384 1 0.0219319 0.792331 0
1386 1 0.0424921 0.779331 0
1445 1 0.0446361 0.80467 0
1387 1 0.0616091 0.764719 0
1447 1 0.0649404 0.789927 0
1388 1 0.0848064 0.776053 0
1448 1 0.0886187 0.800805 0
1389 1 0.106887 0.763095 0
1449 1 0.109602 0.788199 0
1390 1 0.130404 0.773778 0
1450 1 0.132128 0.799006 0
1451 1 0.152819 0.78494 0
1453 1 0.174001 0.771239 0
1452 1 0.17597 0.795459 0
1455 1 0.196369 0.781323 0
1454 1 0.19812 0.806171 0
1456 1 0.217423 0.767411 0
1515 1 0.218827 0.792075 0
1457 1 0.240426 0.779184 0
1517 1 0.240552 0.803925 0
1459 1 0.260636 0.764787 0
1458 1 0.262875 0.789668 0
1460 1 0.283424 0.776214 0
1519 1 0.28521 0.802505 0
1461 1 0.306297 0.787211 0
1401 1 0.326047 0.772967 0
1463 1 0.328313 0.798181 0
1402 1 0.349206 0.786031 0
1344 1 0.369332 0.771139 0
1403 1 0.372281 0.796379 0
1405 1 0.392581 0.782507 0
1404 1 0.394447 0.807802 0
1345 1 0.413636 0.768267 0
1346 1 0.415984 0.792396 0
1407 1 0.438951 0.802179 0
1409 1 0.446837 0.777458 0
1408 1 0.464788 0.796081 0
1350 1 0.47379 0.774249 0
1351 1 0.499973 0.771777 0
1410 1 0.489862 0.794023 0
1442 1 0.00190829 0.832938 0
1502 1 0.00349263 0.856754 0
1444 1 0.0235078 0.818332 0
1503 1 0.0253852 0.843924 0
1505 1 0.046714 0.829591 0
1504 1 0.0485469 0.853871 0
1446 1 0.0669086 0.81495 0
1506 1 0.0691975 0.839698 0
1507 1 0.0910963 0.826864 0
1567 1 0.0918528 0.851397 0
1509 1 0.111646 0.812591 0
1508 1 0.113429 0.837559 0
1510 1 0.134725 0.825096 0
1569 1 0.135998 0.85056 0
1511 1 0.154547 0.80984 0
1512 1 0.156255 0.835097 0
1513 1 0.176194 0.821176 0
1573 1 0.179737 0.846567 0
1514 1 0.198846 0.831879 0
1574 1 0.2013 0.856915 0
1575 1 0.219586 0.817062 0
1576 1 0.221628 0.842299 0
1516 1 0.242372 0.828593 0
1577 1 0.244179 0.854142 0
1579 1 0.264209 0.840744 0
1518 1 0.263438 0.815768 0
1520 1 0.286483 0.82657 0
1580 1 0.287985 0.851534 0
1462 1 0.30821 0.813032 0
1521 1 0.309358 0.837242 0
1523 1 0.330259 0.823642 0
1522 1 0.330875 0.84876 0
1464 1 0.350957 0.809838 0
1524 1 0.35131 0.835596 0
1525 1 0.37253 0.821618 0
1585 1 0.373832 0.847154 0
1465 1 0.395021 0.832076 0
1406 1 0.417394 0.81752 0
1466 1 0.417136 0.844119 0
1467 1 0.437706 0.831239 0
1527 1 0.441015 0.856015 0
1468 1 0.457855 0.819414 0
1529 1 0.469928 0.841753 0
1469 1 0.481518 0.816933 0
1470 1 0.495323 0.837854 0
1561 1 0.00556101 0.883445 0
1563 1 0.0259882 0.868725 0
1562 1 0.0286426 0.894398 0
1564 1 0.0501959 0.878584 0
1623 1 0.0512127 0.904211 0
1565 1 0.0707009 0.864072 0
1625 1 0.0721504 0.890866 0
1566 1 0.0915663 0.875466 0
1627 1 0.0937923 0.901922 0
1568 1 0.114265 0.862552 0
1629 1 0.113899 0.887643 0
1570 1 0.135197 0.874797 0
1630 1 0.136793 0.90027 0
1631 1 0.157405 0.885403 0
1571 1 0.158174 0.860512 0
1572 1 0.179824 0.872439 0
1632 1 0.180236 0.896779 0
1633 1 0.201855 0.883329 0
1635 1 0.223955 0.868372 0
1634 1 0.224524 0.895447 0
1637 1 0.246172 0.881214 0
1578 1 0.267463 0.866225 0
1638 1 0.268069 0.891281 0
1639 1 0.289241 0.87868 0
1699 1 0.290096 0.903741 0
1581 1 0.310167 0.862285 0
1641 1 0.311305 0.888326 0
1582 1 0.331644 0.874448 0
1642 1 0.334128 0.899852 0
1583 1 0.352817 0.860565 0
1643 1 0.354526 0.885794 0
1584 1 0.375188 0.87218 0
1644 1 0.377009 0.89806 0
1526 1 0.396143 0.857909 0
1586 1 0.39774 0.88352 0
1587 1 0.418165 0.86949 0
1647 1 0.420966 0.893983 0
1588 1 0.442911 0.880337 0
1528 1 0.462794 0.866603 0
1589 1 0.465706 0.891271 0
1530 1 0.486231 0.860585 0
1590 1 0.488867 0.903297 0
1621 1 0.00781292 0.908036 0
1681 1 0.00962144 0.934667 0
1622 1 0.0291566 0.91898 0
1683 1 0.0317679 0.945072 0
1624 1 0.0511581 0.929617 0
1626 1 0.0731168 0.916736 0
1685 1 0.0737746 0.941572 0
1687 1 0.0958628 0.92826 0
1628 1 0.11603 0.914771 0
1688 1 0.117729 0.939801 0
1689 1 0.138782 0.925676 0
1748 1 0.139797 0.950719 0
1691 1 0.159633 0.910494 0
1749 1 0.161161 0.935549 0
1690 1 0.181484 0.922055 0
1751 1 0.183986 0.946744 0
1692 1 0.203482 0.908337 0
1753 1 0.204893 0.933032 0
1693 1 0.22594 0.919811 0
1694 1 0.227973 0.945064 0
1636 1 0.247764 0.906926 0
1695 1 0.24835 0.932022 0
1697 1 0.269224 0.918051 0
1696 1 0.271785 0.942799 0
1698 1 0.292133 0.928263 0
1640 1 0.312657 0.913738 0
1700 1 0.315171 0.937913 0
1701 1 0.336424 0.925408 0
1761 1 0.338482 0.950805 0
1703 1 0.356673 0.910686 0
1702 1 0.359134 0.935936 0
1704 1 0.379646 0.922522 0
1763 1 0.382209 0.947258 0
1645 1 0.399989 0.908793 0
1705 1 0.402358 0.933739 0
1646 1 0.423926 0.920089 0
1706 1 0.425396 0.945176 0
1648 1 0.444636 0.905282 0
1707 1 0.446855 0.931228 0
1649 1 0.46724 0.91628 0
1709 1 0.470387 0.940247 0
1650 1 0.493511 0.949679 0
1682 1 0.00897427 0.959629 0
1741 1 0.00928286 0.985845 0
1742 1 0.0322547 0.996459 0
1743 1 0.031379 0.970822 0
1684 1 0.0535685 0.956935 0
1744 1 0.0531942 0.982794 0
1745 1 0.0749461 0.967814 0
5 1 0.0770651 0.993746 0
1686 1 0.0963427 0.95308 0
1746 1 0.0982667 0.979577 0
1747 1 0.120067 0.965289 0
7 1 0.121548 0.990296 0
9 1 0.14294 0.975641 0
10 1 0.165272 0.987478 0
1750 1 0.162794 0.960483 0
11 1 0.184288 0.972076 0
12 1 0.187596 0.997741 0
13 1 0.206537 0.983123 0
1752 1 0.206964 0.958024 0
1754 1 0.228772 0.971248 0
14 1 0.229902 0.995548 0
1755 1 0.249223 0.958094 0
15 1 0.251548 0.982395 0
1756 1 0.271725 0.967276 0
17 1 0.273419 0.992242 0
1757 1 0.293673 0.953557 0
1758 1 0.29552 0.977925 0
1759 1 0.315744 0.963489 0
19 1 0.319322 0.98821 0
1760 1 0.33833 0.974848 0
21 1 0.361561 0.9858 0
1762 1 0.361266 0.960612 0
24 1 0.38441 0.996412 0
23 1 0.383899 0.972372 0
1765 1 0.404365 0.958794 0
1764 1 0.40526 0.98344 0
1766 1 0.425726 0.969287 0
27 1 0.429595 0.994021 0
1767 1 0.449788 0.955887 0
1708 1 0.450062 0.980097 0
1710 1 0.472688 0.964874 0
1769 1 0.472893 0.9902 0
1771 1 0.494851 0.976949 0
31 1 0.51789 0.0131664 0
32 1 0.52146 0.0391696 0
1772 1 0.54194 0.00772768 0
33 1 0.555674 0.0280576 0
1774 1 0.56636 0.00574479 0
34 1 0.581263 0.0253435 0
1775 1 0.590621 0.00188474 0
36 1 0.596793 0.0448985 0
35 1 0.607406 0.0209744 0
97 1 0.622165 0.0413596 0
38 1 0.632419 0.0178962 0
99 1 0.646824 0.0374709 0
40 1 0.657822 0.015095 0
101 1 0.673153 0.0344669 0
41 1 0.682124 0.0106787 0
42 1 0.69809 0.0309482 0
43 1 0.706926 0.00804342 0
44 1 0.723515 0.0287628 0
45 1 0.731844 0.00439825 0
105 1 0.748283 0.0235392 0
46 1 0.757835 0.00187508 0
106 1 0.764728 0.0427775 0
107 1 0.77325 0.0201251 0
108 1 0.789181 0.0396788 0
48 1 0.7982 0.016965 0
109 1 0.814726 0.0376566 0
50 1 0.82389 0.0145211 0
111 1 0.839694 0.0346824 0
51 1 0.84957 0.0119093 0
52 1 0.865513 0.0305544 0
53 1 0.876284 0.00909985 0
54 1 0.892054 0.0283023 0
56 1 0.900307 0.00566769 0
115 1 0.909018 0.046817 0
117 1 0.916852 0.0227871 0
118 1 0.935154 0.0423202 0
58 1 0.942179 0.018798 0
119 1 0.96016 0.0370718 0
1798 1 0.96645 0.0118046 0
59 1 0.988851 0.0257756 0
1800 1 0.9882 0.000656056 0
151 1 0.50056 0.0769166 0
92 1 0.522009 0.0639263 0
153 1 0.523454 0.0886138 0
93 1 0.545661 0.0518744 0
94 1 0.556839 0.0733455 0
95 1 0.570396 0.0487943 0
155 1 0.575995 0.0907558 0
96 1 0.585561 0.0687174 0
156 1 0.601944 0.0882158 0
98 1 0.611676 0.0642374 0
157 1 0.626906 0.0835713 0
159 1 0.638104 0.060624 0
219 1 0.653208 0.0800306 0
100 1 0.663031 0.0573742 0
160 1 0.678191 0.0773391 0
102 1 0.689163 0.0553438 0
161 1 0.704579 0.0733807 0
103 1 0.713816 0.0511348 0
162 1 0.720373 0.0932217 0
163 1 0.730322 0.0711466 0
104 1 0.740192 0.0476513 0
164 1 0.746001 0.0905155 0
165 1 0.755236 0.0671875 0
166 1 0.771422 0.0871141 0
167 1 0.77981 0.0625322 0
168 1 0.795287 0.0824161 0
169 1 0.804604 0.0592808 0
170 1 0.820429 0.0796555 0
110 1 0.829978 0.0571105 0
171 1 0.846687 0.0769512 0
112 1 0.855573 0.0537329 0
173 1 0.871264 0.0729377 0
113 1 0.880788 0.0498738 0
174 1 0.887718 0.0913553 0
114 1 0.898128 0.0686363 0
175 1 0.913675 0.0879987 0
116 1 0.925226 0.0651839 0
177 1 0.939477 0.0848984 0
178 1 0.950366 0.0613716 0
238 1 0.963997 0.0822869 0
179 1 0.990064 0.0521518 0
239 1 0.991999 0.078853 0
212 1 0.502104 0.126607 0
152 1 0.502334 0.10155 0
213 1 0.524675 0.113455 0
273 1 0.524909 0.138978 0
214 1 0.546423 0.125229 0
154 1 0.548388 0.0978114 0
215 1 0.568001 0.11449 0
275 1 0.584408 0.135855 0
216 1 0.592436 0.11053 0
277 1 0.610417 0.129123 0
158 1 0.619643 0.107146 0
217 1 0.63472 0.125738 0
218 1 0.642917 0.101979 0
279 1 0.659661 0.121419 0
220 1 0.671142 0.100498 0
281 1 0.685847 0.119567 0
221 1 0.694831 0.0963919 0
282 1 0.701632 0.138757 0
222 1 0.711465 0.116892 0
283 1 0.727555 0.136017 0
223 1 0.736173 0.113033 0
224 1 0.752156 0.132087 0
225 1 0.762804 0.110215 0
226 1 0.778526 0.128648 0
227 1 0.78735 0.106205 0
228 1 0.803889 0.124866 0
229 1 0.811297 0.102375 0
230 1 0.828601 0.122294 0
231 1 0.836272 0.0990303 0
291 1 0.843985 0.14169 0
232 1 0.853332 0.11956 0
172 1 0.862611 0.0961978 0
293 1 0.868628 0.139093 0
233 1 0.878627 0.115061 0
234 1 0.894607 0.133827 0
235 1 0.903851 0.111193 0
236 1 0.920078 0.131275 0
176 1 0.928296 0.108833 0
297 1 0.945196 0.128087 0
237 1 0.954853 0.10514 0
299 1 0.970017 0.125307 0
240 1 0.980669 0.102184 0
241 1 0.995175 0.122634 0
271 1 0.502881 0.150815 0
270 1 0.503518 0.175742 0
272 1 0.525276 0.163425 0
331 1 0.525181 0.18794 0
332 1 0.54807 0.17459 0
274 1 0.54792 0.149848 0
333 1 0.569998 0.184322 0
335 1 0.572564 0.158749 0
334 1 0.593528 0.175678 0
276 1 0.601651 0.153002 0
337 1 0.618977 0.171451 0
278 1 0.626578 0.148709 0
338 1 0.642834 0.168134 0
339 1 0.651467 0.145081 0
399 1 0.659888 0.18799 0
340 1 0.667555 0.165491 0
280 1 0.676903 0.142863 0
401 1 0.683605 0.185518 0
341 1 0.692854 0.162541 0
342 1 0.708684 0.182272 0
343 1 0.717087 0.159211 0
344 1 0.73426 0.178448 0
284 1 0.742266 0.155405 0
345 1 0.758108 0.175535 0
285 1 0.768448 0.152789 0
286 1 0.783503 0.172999 0
287 1 0.79381 0.149284 0
288 1 0.809034 0.168586 0
289 1 0.818834 0.144734 0
349 1 0.825526 0.188422 0
290 1 0.833979 0.163942 0
350 1 0.849574 0.184282 0
292 1 0.858677 0.161991 0
351 1 0.875355 0.181109 0
294 1 0.884177 0.158261 0
353 1 0.899648 0.177069 0
295 1 0.908935 0.154265 0
355 1 0.924369 0.175844 0
296 1 0.933943 0.152414 0
358 1 0.949713 0.171076 0
298 1 0.960018 0.147281 0
359 1 0.974744 0.168026 0
302 1 0.999302 0.167611 0
300 1 0.984537 0.145231 0
360 1 0.988673 0.190426 0
390 1 0.505446 0.22727 0
330 1 0.503918 0.201585 0
391 1 0.526181 0.213117 0
451 1 0.527903 0.238015 0
393 1 0.545884 0.19936 0
392 1 0.547675 0.225061 0
394 1 0.567467 0.210133 0
454 1 0.570063 0.233287 0
395 1 0.588403 0.199018 0
396 1 0.601475 0.219386 0
336 1 0.612291 0.197136 0
398 1 0.626877 0.215336 0
397 1 0.635594 0.19156 0
458 1 0.64174 0.235069 0
459 1 0.65087 0.211525 0
460 1 0.666731 0.231477 0
400 1 0.675465 0.208193 0
461 1 0.691189 0.227956 0
402 1 0.700435 0.205137 0
463 1 0.716305 0.224771 0
403 1 0.725921 0.201673 0
404 1 0.742112 0.221975 0
405 1 0.749753 0.198309 0
406 1 0.766786 0.218509 0
346 1 0.77467 0.195472 0
407 1 0.790544 0.214412 0
347 1 0.799844 0.191322 0
408 1 0.805626 0.235973 0
348 1 0.815526 0.211479 0
410 1 0.830528 0.231349 0
409 1 0.840787 0.20828 0
412 1 0.855872 0.22728 0
411 1 0.865059 0.203478 0
413 1 0.879974 0.224582 0
352 1 0.8903 0.20082 0
415 1 0.905485 0.221426 0
354 1 0.914683 0.198696 0
417 1 0.930149 0.218996 0
356 1 0.938735 0.195346 0
418 1 0.954064 0.216391 0
357 1 0.964041 0.19263 0
479 1 0.970508 0.237484 0
419 1 0.978745 0.213377 0
480 1 0.995209 0.232311 0
449 1 0.507117 0.252861 0
450 1 0.509374 0.277039 0
452 1 0.529541 0.263881 0
453 1 0.550743 0.249087 0
513 1 0.552356 0.273093 0
515 1 0.573567 0.258815 0
514 1 0.573885 0.2844 0
455 1 0.59218 0.242742 0
516 1 0.597867 0.284398 0
456 1 0.6076 0.262061 0
457 1 0.616796 0.238216 0
518 1 0.62247 0.281538 0
517 1 0.631911 0.257581 0
521 1 0.647418 0.277657 0