ITEM: TIMESTEP
152000
ITEM: NUMBER OF ATOMS
1800
ITEM: BOX BOUNDS pp pp pp
3.1426360568817273e+00 1.5525736394311579e+02
3.1426360568817273e+00 1.5525736394311579e+02
0.0000000000000000e+00 5.2800000000000002e+00
ITEM: ATOMS id type xs ys zs
2 1 0.0171694 0.0168393 0
3 1 0.0430776 0.0120948 0
33 1 0.0358505 0.035058 0
31 1 0.00995573 0.0426546 0
4 1 0.0602298 0.0301701 0
6 1 0.0857739 0.0233006 0
5 1 0.0668333 0.00600582 0
35 1 0.0762969 0.0471672 0
37 1 0.101195 0.0410169 0
8 1 0.109745 0.0173355 0
9 1 0.126163 0.035082 0
880 1 0.134195 0.0116387 0
10 1 0.150747 0.0301501 0
11 1 0.158686 0.00511993 0
12 1 0.175114 0.0236403 0
43 1 0.191407 0.0408196 0
41 1 0.167991 0.0473607 0
14 1 0.19885 0.0177352 0
44 1 0.217342 0.0367135 0
45 1 0.225036 0.013192 0
46 1 0.242092 0.03136 0
16 1 0.249587 0.00602295 0
47 1 0.26653 0.0247919 0
49 1 0.292759 0.0212038 0
48 1 0.283289 0.043498 0
18 1 0.275539 0.00165767 0
77 1 0.259261 0.0489076 0
50 1 0.308622 0.0389646 0
20 1 0.317613 0.014084 0
51 1 0.333281 0.0340817 0
21 1 0.341104 0.00913649 0
22 1 0.357706 0.0277689 0
24 1 0.382034 0.0215156 0
53 1 0.37572 0.0479993 0
23 1 0.364853 0.00358535 0
55 1 0.398581 0.0395184 0
25 1 0.408445 0.0165383 0
26 1 0.423193 0.0363444 0
27 1 0.434722 0.012582 0
28 1 0.447205 0.0395648 0
30 1 0.49754 0.0397065 0
898 1 0.461152 0.0163409 0
29 1 0.485799 0.0169783 0
59 1 0.4727 0.0413739 0
32 1 0.026761 0.0596168 0
62 1 0.0192953 0.0836475 0
63 1 0.0427496 0.0781528 0
61 1 0.00168434 0.0670078 0
34 1 0.0525855 0.0536752 0
65 1 0.0686597 0.0715214 0
66 1 0.0851683 0.0890164 0
36 1 0.0932997 0.0654386 0
64 1 0.0599849 0.0967876 0
39 1 0.142098 0.0531017 0
38 1 0.11757 0.0588602 0
67 1 0.111202 0.0826321 0
69 1 0.136028 0.0760106 0
70 1 0.150663 0.0964193 0
40 1 0.160092 0.0704182 0
71 1 0.17578 0.0900665 0
42 1 0.184415 0.0659142 0
72 1 0.200751 0.0829344 0
73 1 0.209533 0.0596512 0
74 1 0.226285 0.078425 0
75 1 0.233885 0.0554927 0
106 1 0.243162 0.0961018 0
76 1 0.251366 0.0729032 0
78 1 0.275999 0.0673784 0
109 1 0.293133 0.0879359 0
107 1 0.267583 0.0916159 0
79 1 0.300967 0.0646714 0
80 1 0.318552 0.082987 0
81 1 0.325429 0.0590768 0
82 1 0.342204 0.077332 0
52 1 0.349299 0.053027 0
83 1 0.366219 0.0708843 0
113 1 0.37983 0.0913732 0
54 1 0.393431 0.070883 0
56 1 0.414478 0.0582761 0
57 1 0.439185 0.0620376 0
85 1 0.421959 0.0806296 0
84 1 0.402833 0.0977747 0
87 1 0.445329 0.087584 0
88 1 0.469302 0.0942987 0
58 1 0.46442 0.0678048 0
89 1 0.486852 0.0776934 0
93 1 0.0361668 0.102613 0
92 1 0.0283802 0.12619 0
91 1 0.0117223 0.107808 0
121 1 0.0039214 0.131052 0
123 1 0.0448122 0.144471 0
94 1 0.0533045 0.120918 0
95 1 0.0782365 0.113688 0
125 1 0.0699935 0.138334 0
96 1 0.0944317 0.132871 0
68 1 0.126347 0.101238 0
97 1 0.102437 0.10787 0
98 1 0.118618 0.125518 0
99 1 0.142707 0.120155 0
129 1 0.134398 0.143726 0
127 1 0.11156 0.150047 0
100 1 0.167613 0.115187 0
130 1 0.161351 0.138053 0
131 1 0.185686 0.131309 0
101 1 0.19239 0.108268 0
103 1 0.218569 0.101527 0
102 1 0.210881 0.126147 0
105 1 0.235423 0.120663 0
104 1 0.227846 0.144295 0
133 1 0.202406 0.149055 0
135 1 0.259907 0.114492 0
137 1 0.27608 0.133134 0
108 1 0.284747 0.111084 0
136 1 0.251795 0.138931 0
111 1 0.335905 0.102358 0
139 1 0.301321 0.131242 0
110 1 0.309725 0.107197 0
141 1 0.34406 0.126151 0
140 1 0.325717 0.142788 0
142 1 0.350704 0.150626 0
112 1 0.360896 0.106329 0
114 1 0.385903 0.115613 0
143 1 0.368527 0.133074 0
144 1 0.393003 0.13991 0
86 1 0.427981 0.105208 0
115 1 0.409543 0.121632 0
116 1 0.433566 0.129155 0
145 1 0.416462 0.146577 0
117 1 0.451641 0.112599 0
90 1 0.492818 0.101997 0
118 1 0.458248 0.136605 0
119 1 0.47547 0.119076 0
149 1 0.482758 0.143402 0
120 1 0.499951 0.12553 0
122 1 0.0209244 0.149486 0
153 1 0.0369571 0.16778 0
152 1 0.0130944 0.17491 0
183 1 0.0299934 0.192655 0
1080 1 0.0067007 0.198968 0
124 1 0.062177 0.161801 0
126 1 0.0872214 0.156242 0
155 1 0.0805469 0.178855 0
154 1 0.0554943 0.1854 0
156 1 0.0970588 0.197547 0
128 1 0.128511 0.168374 0
157 1 0.104706 0.173306 0
160 1 0.14521 0.185518 0
158 1 0.121164 0.19138 0
132 1 0.179613 0.15661 0
159 1 0.154459 0.161246 0
161 1 0.170434 0.180242 0
162 1 0.186873 0.197592 0
163 1 0.196262 0.175624 0
134 1 0.218605 0.166072 0
164 1 0.229898 0.186502 0
165 1 0.24513 0.16534 0
166 1 0.253273 0.190408 0
167 1 0.268044 0.170497 0
138 1 0.287787 0.153994 0
168 1 0.292509 0.179087 0
197 1 0.276255 0.197926 0
169 1 0.310402 0.161735 0
171 1 0.334571 0.169662 0
170 1 0.316422 0.186477 0
201 1 0.340243 0.193243 0
172 1 0.358742 0.17542 0
173 1 0.374736 0.15677 0
174 1 0.381901 0.181499 0
175 1 0.40065 0.164867 0
147 1 0.439847 0.153852 0
146 1 0.423125 0.172115 0
205 1 0.406168 0.189621 0
176 1 0.429301 0.197359 0
177 1 0.44732 0.178186 0
148 1 0.464332 0.160585 0
150 1 0.489589 0.167934 0
179 1 0.472214 0.185776 0
180 1 0.496327 0.191883 0
182 1 0.0229201 0.217694 0
213 1 0.0399819 0.234222 0
211 1 0.0147824 0.241288 0
184 1 0.0476726 0.21008 0
185 1 0.0721793 0.203226 0
186 1 0.0895146 0.220807 0
215 1 0.0649573 0.228758 0
216 1 0.0834415 0.247309 0
187 1 0.114208 0.215765 0
188 1 0.133158 0.243392 0
189 1 0.137234 0.20929 0
217 1 0.106899 0.238913 0
191 1 0.162104 0.204223 0
190 1 0.153734 0.22834 0
192 1 0.194831 0.220341 0
221 1 0.177359 0.236439 0
223 1 0.201069 0.244205 0
193 1 0.21145 0.201796 0
194 1 0.219015 0.226185 0
195 1 0.236124 0.209386 0
225 1 0.241997 0.233985 0
196 1 0.259785 0.216641 0
198 1 0.282095 0.222626 0
227 1 0.265265 0.240969 0
228 1 0.288743 0.247771 0
199 1 0.300457 0.204096 0
200 1 0.323765 0.212704 0
229 1 0.306376 0.230432 0
231 1 0.330887 0.236192 0
202 1 0.347709 0.21754 0
203 1 0.365647 0.200747 0
204 1 0.389832 0.208887 0
233 1 0.370674 0.225419 0
235 1 0.39516 0.233313 0
232 1 0.35412 0.243746 0
207 1 0.437351 0.22243 0
206 1 0.419565 0.238686 0
237 1 0.442897 0.246495 0
178 1 0.453734 0.203396 0
208 1 0.460626 0.228868 0
209 1 0.47849 0.210151 0
210 1 0.484326 0.234919 0
212 1 0.00790993 0.265556 0
243 1 0.0328372 0.25906 0
242 1 0.0238679 0.283588 0
273 1 0.0408606 0.299907 0
244 1 0.050874 0.27671 0
214 1 0.057007 0.252651 0
245 1 0.0738316 0.269898 0
247 1 0.0805761 0.293211 0
218 1 0.097984 0.276137 0
219 1 0.11676 0.260986 0
249 1 0.140178 0.268375 0
248 1 0.121097 0.284234 0
250 1 0.144226 0.292023 0
246 1 0.103869 0.300648 0
220 1 0.159096 0.252902 0
222 1 0.182708 0.260591 0
251 1 0.163754 0.276853 0
252 1 0.186937 0.28417 0
224 1 0.225269 0.251394 0
253 1 0.205887 0.268678 0
255 1 0.229353 0.275607 0
254 1 0.2116 0.292492 0
226 1 0.247896 0.258421 0
285 1 0.235541 0.299836 0
256 1 0.253111 0.28208 0
257 1 0.271192 0.265062 0
259 1 0.295068 0.271432 0
258 1 0.278202 0.288545 0
289 1 0.301509 0.296514 0
230 1 0.312147 0.254775 0
260 1 0.318737 0.278635 0
261 1 0.337366 0.260587 0
262 1 0.343463 0.284851 0
234 1 0.378008 0.249986 0
263 1 0.361657 0.267676 0
264 1 0.384638 0.275335 0
293 1 0.36711 0.291482 0
295 1 0.390907 0.298948 0
265 1 0.401726 0.257299 0
236 1 0.42537 0.263279 0
266 1 0.409458 0.282629 0
267 1 0.432709 0.288287 0
239 1 0.467146 0.253278 0
238 1 0.449152 0.270952 0
240 1 0.492124 0.257453 0
269 1 0.474143 0.276304 0
268 1 0.456099 0.294601 0
270 1 0.48161 0.300664 0
271 1 0.0171003 0.309456 0
272 1 0.0398828 0.325304 0
301 1 0.017395 0.335665 0
303 1 0.0464688 0.349228 0
275 1 0.063201 0.308865 0
276 1 0.0855154 0.317254 0
274 1 0.0663481 0.333248 0
305 1 0.0898384 0.341284 0
279 1 0.127248 0.308471 0
277 1 0.108057 0.32486 0
278 1 0.132229 0.333892 0
307 1 0.113527 0.349126 0
281 1 0.168512 0.301564 0
280 1 0.150072 0.31703 0
311 1 0.155995 0.341062 0
283 1 0.193258 0.308821 0
282 1 0.174586 0.324904 0
313 1 0.198951 0.333419 0
312 1 0.180692 0.349145 0
284 1 0.217413 0.317566 0
315 1 0.224429 0.340398 0
286 1 0.242755 0.324897 0
316 1 0.247861 0.348516 0
287 1 0.259326 0.306595 0
288 1 0.283415 0.313805 0
317 1 0.265976 0.331218 0
319 1 0.289861 0.338701 0
291 1 0.325117 0.302344 0
290 1 0.307169 0.321013 0
321 1 0.314175 0.345037 0
292 1 0.331921 0.328383 0
323 1 0.348979 0.310401 0
294 1 0.372884 0.31588 0
324 1 0.356307 0.33437 0
325 1 0.379338 0.341038 0
296 1 0.395923 0.323587 0
326 1 0.403557 0.347619 0
297 1 0.414244 0.306411 0
298 1 0.438224 0.312076 0
327 1 0.42003 0.329734 0
328 1 0.444111 0.335863 0
299 1 0.464255 0.318013 0
300 1 0.488991 0.323621 0
329 1 0.46969 0.341065 0
1201 1 0.49424 0.34762 0
331 1 0.00488411 0.376035 0
302 1 0.0240636 0.360941 0
332 1 0.0312258 0.384871 0
478 1 0.46617 0.49723 0
333 1 0.0520239 0.372845 0
334 1 0.056896 0.396537 0
304 1 0.071483 0.357061 0
306 1 0.0952748 0.365891 0
335 1 0.0764718 0.382172 0
337 1 0.0994416 0.390991 0
309 1 0.137617 0.358334 0
308 1 0.119127 0.374154 0
339 1 0.142502 0.381848 0
338 1 0.123046 0.398358 0
310 1 0.161412 0.364908 0
341 1 0.16631 0.388305 0
343 1 0.184535 0.37316 0
342 1 0.191763 0.396054 0
314 1 0.204969 0.356891 0
345 1 0.228468 0.365072 0
344 1 0.210411 0.380861 0
375 1 0.233383 0.390066 0
346 1 0.25263 0.373034 0
377 1 0.25656 0.396463 0
318 1 0.270937 0.355134 0
349 1 0.294819 0.362452 0
347 1 0.276447 0.380061 0
322 1 0.338798 0.353411 0
350 1 0.300763 0.3878 0
320 1 0.31817 0.369777 0
351 1 0.341764 0.377672 0
381 1 0.324343 0.395203 0
353 1 0.362436 0.358186 0
355 1 0.38549 0.366034 0
354 1 0.366406 0.384527 0
385 1 0.391203 0.391411 0
357 1 0.427665 0.353434 0
356 1 0.409009 0.372214 0
387 1 0.433218 0.377877 0
386 1 0.416543 0.396117 0
359 1 0.451496 0.35878 0
358 1 0.457858 0.381798 0
330 1 0.475538 0.365403 0
360 1 0.483296 0.388853 0
361 1 0.0108407 0.399861 0
363 1 0.0357332 0.410461 0
362 1 0.0155303 0.425776 0
364 1 0.0405487 0.435815 0
336 1 0.0802875 0.407163 0
365 1 0.0606852 0.421217 0
395 1 0.0670624 0.445331 0
367 1 0.103654 0.415586 0
366 1 0.110659 0.439109 0
369 1 0.12909 0.422635 0
340 1 0.14782 0.405481 0
368 1 0.133403 0.448565 0
370 1 0.152318 0.432144 0
371 1 0.172191 0.411806 0
401 1 0.176533 0.436037 0
372 1 0.195673 0.420375 0
403 1 0.20066 0.444736 0
373 1 0.214907 0.405097 0
374 1 0.219466 0.428969 0
376 1 0.239176 0.413878 0
405 1 0.244435 0.437658 0
348 1 0.28119 0.402808 0
407 1 0.268483 0.444404 0
378 1 0.263495 0.421223 0
409 1 0.286457 0.428158 0
352 1 0.348257 0.401672 0
379 1 0.305224 0.41152 0
380 1 0.310836 0.435986 0
382 1 0.329508 0.418609 0
411 1 0.334643 0.444129 0
413 1 0.353343 0.426116 0
383 1 0.37288 0.408151 0
414 1 0.377534 0.432906 0
384 1 0.396835 0.415393 0
415 1 0.403291 0.438821 0
388 1 0.439562 0.402344 0
417 1 0.420858 0.421011 0
416 1 0.427877 0.444293 0
419 1 0.446632 0.424601 0
447 1 0.453099 0.449239 0
389 1 0.463517 0.40597 0
418 1 0.470436 0.4295 0
390 1 0.488956 0.412317 0
420 1 0.495472 0.436257 0
393 1 0.0213251 0.450417 0
422 1 0.00775375 0.490664 0
423 1 0.0280819 0.476459 0
394 1 0.0459612 0.45952 0
392 1 0.00310535 0.465919 0
425 1 0.0511213 0.485282 0
397 1 0.0906171 0.453648 0
396 1 0.0710232 0.469373 0
426 1 0.0743571 0.494741 0
427 1 0.0947113 0.478721 0
398 1 0.113702 0.464128 0
428 1 0.118362 0.488739 0
429 1 0.137498 0.473383 0
459 1 0.141834 0.498993 0
399 1 0.156368 0.456248 0
400 1 0.18009 0.460665 0
430 1 0.161954 0.4823 0
431 1 0.187585 0.483589 0
404 1 0.225488 0.452999 0
402 1 0.205568 0.468 0
432 1 0.210337 0.491766 0
433 1 0.230503 0.476044 0
435 1 0.250655 0.460597 0
408 1 0.292403 0.452897 0
436 1 0.254702 0.485443 0
406 1 0.274148 0.470027 0
437 1 0.278822 0.495114 0
439 1 0.298531 0.477929 0
410 1 0.316429 0.460446 0
440 1 0.322304 0.484879 0
441 1 0.341536 0.468364 0
471 1 0.348036 0.491625 0
412 1 0.360343 0.450297 0
442 1 0.365888 0.473409 0
473 1 0.391587 0.480421 0
443 1 0.38562 0.45685 0
477 1 0.441437 0.490402 0
446 1 0.435026 0.467069 0
445 1 0.409106 0.46311 0
444 1 0.416572 0.485813 0
450 1 0.482512 0.477471 0
448 1 0.459192 0.472679 0
449 1 0.47708 0.454259 0
1141 1 0.499839 0.28233 0
241 1 9.21698e-05 0.291677 0
472 1 0.372302 0.497395 0
453 1 0.0114999 0.515319 0
452 1 0.0152733 0.539824 0
454 1 0.0347526 0.524718 0
483 1 0.0377849 0.549404 0
485 1 0.0577369 0.535179 0
455 1 0.0545211 0.51017 0
456 1 0.0772842 0.519751 0
486 1 0.0803615 0.544825 0
457 1 0.097417 0.503748 0
487 1 0.0997508 0.529304 0
458 1 0.121171 0.513468 0
488 1 0.123551 0.539415 0
489 1 0.147158 0.524579 0
461 1 0.19082 0.506871 0
462 1 0.194061 0.530428 0
491 1 0.169544 0.536144 0
460 1 0.165584 0.507259 0
493 1 0.216836 0.539498 0
463 1 0.214442 0.515469 0
464 1 0.236474 0.52563 0
495 1 0.23797 0.550543 0
434 1 0.234807 0.501177 0
466 1 0.259769 0.535319 0
465 1 0.257822 0.510049 0
467 1 0.28407 0.520634 0
497 1 0.289788 0.544632 0
438 1 0.304354 0.502884 0
468 1 0.308942 0.527426 0
469 1 0.328652 0.510355 0
499 1 0.335111 0.534768 0
470 1 0.353114 0.51447 0
503 1 0.37948 0.520922 0
474 1 0.398206 0.504673 0
505 1 0.386511 0.545331 0
501 1 0.360658 0.539732 0
899 1 0.478247 0.994272 0
476 1 0.405801 0.527037 0
509 1 0.429951 0.533663 0
475 1 0.423944 0.508967 0
507 1 0.447871 0.516041 0
479 1 0.471777 0.52011 0
480 1 0.4554 0.539668 0
1381 1 0.49581 0.525321 0
510 1 0.47856 0.543727 0
1351 1 0.490307 0.501022 0
513 1 0.0169738 0.564714 0
514 1 0.0403454 0.574614 0
512 1 0.0209064 0.589245 0
543 1 0.0432503 0.598615 0
484 1 0.061602 0.560399 0
515 1 0.083841 0.569158 0
545 1 0.06373 0.584351 0
516 1 0.0866503 0.594302 0
490 1 0.148612 0.549383 0
517 1 0.103499 0.554707 0
518 1 0.107301 0.580761 0
519 1 0.126568 0.565322 0
549 1 0.129692 0.590885 0
520 1 0.149748 0.574905 0
521 1 0.170001 0.560791 0
492 1 0.194624 0.553796 0
522 1 0.174223 0.58795 0
523 1 0.195181 0.577432 0
494 1 0.2167 0.563843 0
524 1 0.216829 0.588563 0
525 1 0.238622 0.574343 0
555 1 0.239547 0.59858 0
496 1 0.261439 0.560042 0
526 1 0.260304 0.584235 0
527 1 0.284173 0.567795 0
528 1 0.283494 0.592634 0
498 1 0.315862 0.551462 0
529 1 0.306351 0.576087 0
500 1 0.342137 0.558829 0
530 1 0.325923 0.590255 0
531 1 0.349748 0.583964 0
502 1 0.367514 0.564953 0
504 1 0.39266 0.568598 0
533 1 0.377509 0.587227 0
506 1 0.411739 0.551864 0
534 1 0.401149 0.593213 0
535 1 0.418762 0.574829 0
508 1 0.437677 0.557771 0
537 1 0.444511 0.580476 0
539 1 0.462129 0.563954 0
540 1 0.485777 0.569212 0
538 1 0.469752 0.587899 0
569 1 0.493872 0.593128 0
542 1 0.0221842 0.613431 0
573 1 0.024608 0.637612 0
544 1 0.0452499 0.623557 0
574 1 0.0482119 0.648694 0
571 1 0.00218935 0.627911 0
546 1 0.0651328 0.608956 0
547 1 0.0880795 0.619039 0
575 1 0.0685504 0.633369 0
576 1 0.0906018 0.644945 0
548 1 0.108578 0.605382 0
550 1 0.131722 0.616438 0
577 1 0.111168 0.63066 0
579 1 0.132347 0.642018 0
551 1 0.153129 0.599573 0
553 1 0.196754 0.602333 0
581 1 0.153602 0.626696 0
552 1 0.174846 0.614124 0
582 1 0.176022 0.639787 0
583 1 0.197822 0.626486 0
554 1 0.219734 0.612517 0
556 1 0.241053 0.624123 0
585 1 0.220387 0.637877 0
586 1 0.243019 0.647675 0
557 1 0.262073 0.608047 0
587 1 0.264226 0.632736 0
558 1 0.285199 0.619675 0
589 1 0.28667 0.644847 0
559 1 0.305031 0.604315 0
560 1 0.306522 0.629991 0
561 1 0.326491 0.616674 0
591 1 0.327717 0.641593 0
562 1 0.34731 0.626918 0
532 1 0.361457 0.606808 0
563 1 0.384699 0.612115 0
564 1 0.370339 0.631533 0
595 1 0.393733 0.638495 0
593 1 0.35102 0.650301 0
536 1 0.426767 0.599263 0
565 1 0.408694 0.617431 0
566 1 0.43471 0.623095 0
596 1 0.417628 0.641813 0
598 1 0.4416 0.64789 0
567 1 0.451058 0.604461 0
597 1 0.458637 0.628783 0
568 1 0.476613 0.611277 0
570 1 0.483097 0.635822 0
1442 1 0.499913 0.61892 0
572 1 0.00444124 0.65275 0
603 1 0.0267475 0.662301 0
602 1 0.00677693 0.677132 0
633 1 0.0286267 0.687547 0
604 1 0.050311 0.673552 0
605 1 0.0704358 0.658232 0
606 1 0.0725163 0.683553 0
607 1 0.0931003 0.669591 0
637 1 0.0949679 0.69496 0
635 1 0.0524688 0.697827 0
578 1 0.113127 0.655924 0
609 1 0.136701 0.667718 0
608 1 0.115905 0.681326 0
639 1 0.13808 0.693591 0
580 1 0.155556 0.652202 0
611 1 0.179532 0.664544 0
610 1 0.15893 0.67798 0
612 1 0.18165 0.689474 0
584 1 0.199649 0.650985 0
613 1 0.201693 0.675155 0
615 1 0.221637 0.661921 0
614 1 0.22426 0.686763 0
617 1 0.244978 0.671982 0
616 1 0.246881 0.69679 0
588 1 0.266188 0.65824 0
619 1 0.289059 0.670312 0
618 1 0.267644 0.682733 0
590 1 0.309018 0.656724 0
621 1 0.31316 0.685208 0
592 1 0.331116 0.666307 0
622 1 0.337131 0.690951 0
623 1 0.3567 0.673383 0
594 1 0.375453 0.654042 0
624 1 0.382584 0.679243 0
653 1 0.363449 0.697362 0
625 1 0.401294 0.660643 0
627 1 0.425367 0.667074 0
626 1 0.406563 0.684777 0
657 1 0.431942 0.690749 0
628 1 0.449558 0.672268 0
599 1 0.466143 0.654156 0
600 1 0.490077 0.660952 0
629 1 0.473375 0.67948 0
630 1 0.496892 0.68601 0
658 1 0.456826 0.698282 0
632 1 0.00931448 0.701942 0
634 1 0.0330144 0.712214 0
663 1 0.0128234 0.726002 0
664 1 0.0364884 0.737154 0
636 1 0.0758556 0.708577 0
665 1 0.0558814 0.722883 0
666 1 0.078006 0.734189 0
695 1 0.0585463 0.748921 0
667 1 0.0980116 0.720412 0
668 1 0.0992727 0.745938 0
638 1 0.117246 0.705988 0
640 1 0.140194 0.718856 0
669 1 0.119863 0.731684 0
670 1 0.142121 0.743052 0
641 1 0.160485 0.703825 0
642 1 0.182211 0.714555 0
671 1 0.162375 0.728745 0
673 1 0.184711 0.740722 0
643 1 0.203927 0.700168 0
645 1 0.22674 0.71231 0
644 1 0.205464 0.725756 0
675 1 0.228992 0.736931 0
646 1 0.250363 0.723031 0
677 1 0.25128 0.747917 0
647 1 0.269972 0.707511 0
648 1 0.27185 0.733145 0
679 1 0.2935 0.744078 0
649 1 0.294178 0.718563 0
620 1 0.31946 0.71134 0
651 1 0.347219 0.715403 0
650 1 0.330923 0.734426 0
652 1 0.354033 0.739964 0
655 1 0.389091 0.702293 0
654 1 0.37186 0.721313 0
685 1 0.394664 0.72631 0
683 1 0.377851 0.74506 0
656 1 0.413611 0.708466 0
687 1 0.437587 0.715758 0
686 1 0.419535 0.73414 0
717 1 0.444429 0.740357 0
659 1 0.480741 0.703344 0
689 1 0.461243 0.722006 0
660 1 0.487678 0.726035 0
688 1 0.468922 0.744744 0
662 1 0.0149779 0.751994 0
694 1 0.0372587 0.763806 0
693 1 0.0163766 0.776281 0
725 1 0.0396167 0.787795 0
697 1 0.0804839 0.760291 0
696 1 0.060081 0.77479 0
727 1 0.0828823 0.785353 0
726 1 0.0629799 0.799296 0
699 1 0.122836 0.756818 0
698 1 0.102812 0.771263 0
700 1 0.123895 0.783708 0
728 1 0.104929 0.797334 0
701 1 0.14475 0.769465 0
731 1 0.147576 0.79354 0
672 1 0.165525 0.755706 0
703 1 0.187987 0.765775 0
702 1 0.168328 0.77912 0
704 1 0.191036 0.791812 0
674 1 0.20921 0.74978 0
676 1 0.23044 0.761216 0
705 1 0.2109 0.775823 0
706 1 0.233735 0.78727 0
707 1 0.252613 0.771892 0
678 1 0.273715 0.758294 0
709 1 0.277121 0.783461 0
680 1 0.296406 0.769058 0
737 1 0.256315 0.797895 0
710 1 0.301114 0.793044 0
681 1 0.315798 0.752717 0
682 1 0.339259 0.758692 0
711 1 0.320351 0.776804 0
712 1 0.344069 0.783628 0
713 1 0.36182 0.764522 0
714 1 0.385085 0.769879 0
743 1 0.367756 0.788997 0
745 1 0.391702 0.796004 0
684 1 0.403138 0.75184 0
715 1 0.427577 0.757887 0
716 1 0.409357 0.776219 0
747 1 0.433118 0.781325 0
868 1 0.469892 0.970761 0
718 1 0.451286 0.763579 0
690 1 0.493084 0.751063 0
719 1 0.475542 0.771004 0
720 1 0.48319 0.793262 0
749 1 0.458376 0.78803 0
723 1 0.0190542 0.80157 0
722 1 0.0189713 0.827655 0
724 1 0.0413886 0.811666 0
754 1 0.0422467 0.835622 0
757 1 0.0844479 0.810794 0
755 1 0.0630519 0.823412 0
756 1 0.0863625 0.83563 0
729 1 0.128263 0.808164 0
759 1 0.107037 0.822279 0
760 1 0.128362 0.833765 0
758 1 0.107646 0.848876 0
730 1 0.150119 0.820863 0
761 1 0.151903 0.845402 0
732 1 0.170126 0.806311 0
763 1 0.172532 0.831855 0
733 1 0.192228 0.816861 0
764 1 0.195701 0.844255 0
735 1 0.21249 0.802074 0
736 1 0.23453 0.812685 0
734 1 0.215359 0.82688 0
767 1 0.237126 0.837996 0
708 1 0.28098 0.808835 0
738 1 0.259703 0.823562 0
769 1 0.28252 0.834545 0
768 1 0.258809 0.848239 0
741 1 0.325133 0.800769 0
739 1 0.304588 0.817364 0
740 1 0.308883 0.840708 0
771 1 0.329666 0.826528 0
742 1 0.349767 0.807062 0
773 1 0.356489 0.830964 0
744 1 0.373381 0.813493 0
774 1 0.381514 0.837639 0
775 1 0.39845 0.819491 0
746 1 0.417231 0.800714 0
748 1 0.441332 0.805545 0
777 1 0.423001 0.825084 0
776 1 0.405663 0.843291 0
779 1 0.448756 0.829503 0
778 1 0.431289 0.848207 0
750 1 0.466841 0.81192 0
1621 1 0.490102 0.817514 0
780 1 0.472683 0.835458 0
1651 1 0.496104 0.840693 0
753 1 0.0440813 0.859375 0
752 1 0.0180897 0.854136 0
783 1 0.036389 0.881404 0
782 1 0.0121067 0.886872 0
785 1 0.0649535 0.8485 0
784 1 0.0623102 0.874224 0
786 1 0.0798016 0.891009 0
787 1 0.0863925 0.865714 0
815 1 0.056151 0.898848 0
817 1 0.10302 0.885093 0
789 1 0.129989 0.857974 0
788 1 0.127133 0.880889 0
790 1 0.148603 0.895092 0
791 1 0.152529 0.869822 0
762 1 0.17491 0.857661 0
793 1 0.175342 0.887637 0
795 1 0.198803 0.870774 0
765 1 0.218482 0.853437 0
796 1 0.223237 0.879182 0
825 1 0.240077 0.897019 0
766 1 0.248625 0.873894 0
797 1 0.273009 0.868967 0
827 1 0.266052 0.893178 0
798 1 0.290305 0.887985 0
799 1 0.298515 0.864496 0
772 1 0.346841 0.853223 0
770 1 0.323805 0.860003 0
800 1 0.314984 0.884097 0
801 1 0.340036 0.878094 0
802 1 0.357345 0.895875 0
803 1 0.365761 0.86988 0
804 1 0.383703 0.888429 0
805 1 0.389815 0.862193 0
807 1 0.414645 0.866046 0
808 1 0.438252 0.872719 0
837 1 0.445777 0.896585 0
809 1 0.455543 0.853823 0
1681 1 0.479667 0.859904 0
1711 1 0.486609 0.883406 0
810 1 0.462217 0.877716 0
813 1 0.0299462 0.904408 0
843 1 0.0234428 0.928172 0
844 1 0.0415406 0.946542 0
812 1 0.00471019 0.911131 0
814 1 0.0476963 0.923013 0
816 1 0.0969848 0.908766 0
845 1 0.0735258 0.916452 0
846 1 0.0654098 0.939632 0
847 1 0.0906042 0.933108 0
819 1 0.121308 0.903664 0
818 1 0.114752 0.92738 0
820 1 0.132536 0.944828 0
821 1 0.140479 0.920332 0
792 1 0.164871 0.914041 0
851 1 0.157441 0.93822 0
823 1 0.189694 0.909261 0
822 1 0.182413 0.932587 0
794 1 0.217025 0.903558 0
824 1 0.207539 0.926918 0
885 1 0.223489 0.945727 0
855 1 0.232575 0.922624 0
856 1 0.247872 0.941897 0
826 1 0.256591 0.916113 0
857 1 0.273795 0.934837 0
828 1 0.282199 0.91146 0
859 1 0.29874 0.931284 0
831 1 0.332142 0.902291 0
829 1 0.306523 0.907301 0
830 1 0.324069 0.92616 0
861 1 0.341204 0.942913 0
860 1 0.315402 0.948808 0
832 1 0.350571 0.919451 0
863 1 0.366415 0.937311 0
833 1 0.375217 0.912713 0
834 1 0.390874 0.932396 0
806 1 0.400746 0.908085 0
835 1 0.415479 0.927113 0
836 1 0.435224 0.943146 0
838 1 0.452735 0.919489 0
869 1 0.460409 0.943664 0
839 1 0.470119 0.902279 0
840 1 0.477428 0.927621 0
1712 1 0.493483 0.907793 0
842 1 0.0169764 0.951319 0
872 1 0.0250892 0.993878 0
873 1 0.0335454 0.969885 0
871 1 0.0071899 0.974813 0
1771 1 0.494455 0.973889 0
874 1 0.0503031 0.987436 0
875 1 0.0590525 0.963473 0
876 1 0.0754796 0.981651 0
848 1 0.0824038 0.958117 0
7 1 0.0914962 0.999704 0
877 1 0.099821 0.975875 0
849 1 0.10741 0.952372 0
878 1 0.116116 0.993613 0
879 1 0.124077 0.969743 0
881 1 0.141639 0.987089 0
854 1 0.198782 0.951179 0
850 1 0.149073 0.963301 0
853 1 0.173231 0.956746 0
852 1 0.16642 0.980487 0
883 1 0.191032 0.975363 0
882 1 0.183441 0.999593 0
13 1 0.208726 0.993752 0
15 1 0.232699 0.988212 0
884 1 0.214736 0.969295 0
886 1 0.240049 0.965388 0
858 1 0.289562 0.955072 0
887 1 0.265775 0.958706 0
17 1 0.258039 0.982565 0
888 1 0.282606 0.978231 0
19 1 0.29978 0.997498 0
889 1 0.306572 0.972618 0
890 1 0.324265 0.989553 0
891 1 0.332639 0.966578 0
892 1 0.348998 0.984773 0
862 1 0.35729 0.961665 0
864 1 0.38295 0.956288 0
893 1 0.374344 0.979558 0
895 1 0.398934 0.974177 0
894 1 0.389891 0.998589 0
865 1 0.407706 0.950893 0
867 1 0.446299 0.964535 0
866 1 0.423156 0.969763 0
896 1 0.417396 0.994296 0
897 1 0.441473 0.987708 0
870 1 0.484323 0.950324 0
424 1 0.0311869 0.500317 0
902 1 0.536479 0.0248418 0
901 1 0.511867 0.0205594 0
931 1 0.521087 0.0430076 0
903 1 0.528515 0.00194149 0
933 1 0.545374 0.0490262 0
904 1 0.559978 0.0303531 0
906 1 0.577139 0.0127211 0
935 1 0.585639 0.0369942 0
905 1 0.55242 0.00673683 0
908 1 0.602192 0.0191301 0
937 1 0.610086 0.0434892 0
939 1 0.626977 0.0261116 0
910 1 0.643353 0.00655582 0
909 1 0.618565 0.000368501 0
938 1 0.633665 0.0496708 0
941 1 0.650538 0.0316985 0
912 1 0.666221 0.0126525 0
942 1 0.674348 0.0373429 0
943 1 0.689873 0.0182517 0
973 1 0.698691 0.0416535 0
944 1 0.714558 0.02317 0
945 1 0.73162 0.00562205 0
946 1 0.739198 0.029041 0
975 1 0.722853 0.0466594 0
914 1 0.706686 7.78875e-05 0
947 1 0.755555 0.011143 0
948 1 0.764008 0.0339507 0
918 1 0.780143 0.0165503 0
979 1 0.791305 0.0408257 0
949 1 0.806341 0.0216971 0
951 1 0.838371 0.0171931 0
950 1 0.824949 0.0391248 0
921 1 0.820538 0.00213004 0
952 1 0.853878 0.0353697 0
953 1 0.861495 0.0106782 0
924 1 0.886182 0.00426823 0
954 1 0.87784 0.0285714 0
985 1 0.896219 0.0464108 0
955 1 0.902046 0.0227653 0
926 1 0.927579 0.0168179 0
957 1 0.944053 0.036275 0
956 1 0.919991 0.0408423 0
928 1 0.95247 0.0121669 0
959 1 0.968324 0.0311017 0
930 1 0.992118 0.0253361 0
929 1 0.975845 0.0072686 0
960 1 0.985956 0.0483119 0
932 1 0.528776 0.0671038 0
962 1 0.535077 0.0898801 0
961 1 0.510553 0.0842834 0
60 1 0.505441 0.061457 0
963 1 0.551908 0.0719082 0
934 1 0.569406 0.0540754 0
965 1 0.575271 0.0775856 0
936 1 0.593847 0.0608776 0
964 1 0.559017 0.096398 0
966 1 0.600118 0.0854599 0
967 1 0.617714 0.067648 0
968 1 0.624192 0.0913642 0
969 1 0.641657 0.0729112 0
999 1 0.648094 0.0978406 0
940 1 0.657575 0.0550495 0
970 1 0.664819 0.0800517 0
971 1 0.681524 0.0615381 0
972 1 0.689356 0.0844551 0
1003 1 0.706997 0.066303 0
1004 1 0.714576 0.0899366 0
974 1 0.731403 0.0713748 0
1005 1 0.738537 0.0955013 0
976 1 0.748049 0.0532884 0
1007 1 0.756883 0.0757317 0
977 1 0.772469 0.0566476 0
978 1 0.795064 0.0679633 0
1008 1 0.785958 0.0923788 0
980 1 0.81951 0.0631118 0
981 1 0.844001 0.0582714 0
1009 1 0.810793 0.0878705 0
1011 1 0.836096 0.0831215 0
982 1 0.862754 0.0764088 0
983 1 0.870994 0.0534596 0
984 1 0.888107 0.0700056 0
1013 1 0.880247 0.0930691 0
1012 1 0.853943 0.100701 0
1015 1 0.904064 0.0884892 0
986 1 0.91251 0.0643855 0
987 1 0.936954 0.0603602 0
1017 1 0.929175 0.0840415 0
988 1 0.953611 0.0780681 0
958 1 0.961126 0.0543508 0
989 1 0.977842 0.0716209 0
990 1 0.995712 0.0899946 0
1019 1 0.970324 0.0957143 0
991 1 0.5176 0.108019 0
992 1 0.523474 0.132285 0
993 1 0.542011 0.114646 0
1023 1 0.547509 0.139319 0
1021 1 0.507418 0.149893 0
995 1 0.582211 0.102229 0
994 1 0.565938 0.120024 0
996 1 0.589594 0.127321 0
1025 1 0.571347 0.144509 0
997 1 0.60739 0.108817 0
998 1 0.63185 0.116026 0
1027 1 0.614184 0.132924 0
1029 1 0.638447 0.140289 0
1001 1 0.672432 0.10354 0
1000 1 0.65651 0.122106 0
1031 1 0.681004 0.127489 0
1030 1 0.663419 0.145446 0
1002 1 0.697489 0.107318 0
1033 1 0.705889 0.130819 0
1035 1 0.722888 0.114022 0
1034 1 0.730207 0.137823 0
1036 1 0.747304 0.12053 0
1006 1 0.762798 0.101554 0
1037 1 0.778277 0.119692 0
1038 1 0.794805 0.13797 0
1067 1 0.766454 0.140753 0
1039 1 0.801752 0.110827 0
1010 1 0.828315 0.106233 0
1040 1 0.818402 0.131054 0
1041 1 0.843527 0.124086 0
1071 1 0.836763 0.147089 0
1043 1 0.871161 0.119212 0
1014 1 0.895459 0.112506 0
1044 1 0.887376 0.137019 0
1042 1 0.862099 0.142017 0
1018 1 0.945424 0.101292 0
1045 1 0.912785 0.130678 0
1016 1 0.920759 0.107959 0
1047 1 0.938162 0.124982 0
1077 1 0.929495 0.149857 0
1049 1 0.962233 0.12006 0
1020 1 0.987367 0.114228 0
1050 1 0.978589 0.138275 0
1046 1 0.954109 0.143922 0
1022 1 0.531163 0.155291 0
1053 1 0.537651 0.180879 0
1051 1 0.514027 0.174292 0
1052 1 0.520283 0.19831 0
1026 1 0.596296 0.15108 0
1024 1 0.555486 0.162426 0
1055 1 0.578582 0.168688 0
1054 1 0.561649 0.186531 0
1056 1 0.587254 0.191851 0
1028 1 0.620521 0.156007 0
1057 1 0.604475 0.174826 0
1058 1 0.628315 0.180382 0
1059 1 0.645962 0.163932 0
1087 1 0.611384 0.198884 0
1032 1 0.689168 0.1501 0
1060 1 0.653121 0.187313 0
1061 1 0.6705 0.168236 0
1091 1 0.67787 0.19209 0
1062 1 0.696048 0.173588 0
1063 1 0.713001 0.155473 0
1064 1 0.720061 0.179866 0
1095 1 0.744176 0.185293 0
1065 1 0.736749 0.16075 0
1093 1 0.703612 0.197903 0
1066 1 0.760791 0.167818 0
1068 1 0.785442 0.161952 0
1097 1 0.779622 0.187197 0
1069 1 0.812291 0.155628 0
1070 1 0.829342 0.173835 0
1099 1 0.804931 0.179123 0
1101 1 0.847697 0.190543 0
1100 1 0.823707 0.196723 0
1072 1 0.854944 0.165874 0
1073 1 0.87937 0.160535 0
1103 1 0.871555 0.183923 0
1074 1 0.898156 0.178952 0
1075 1 0.904184 0.154195 0
1076 1 0.921948 0.173234 0
1107 1 0.93985 0.191655 0
1078 1 0.946842 0.166949 0
1105 1 0.914705 0.197157 0
1048 1 0.971998 0.161336 0
151 1 0.996654 0.155944 0
1079 1 0.987977 0.181003 0
1109 1 0.963498 0.185002 0
1083 1 0.544316 0.204324 0
1082 1 0.527794 0.222761 0
1111 1 0.508223 0.239179 0
1113 1 0.534566 0.245755 0
1081 1 0.501507 0.215832 0
1084 1 0.552173 0.229162 0
1085 1 0.568936 0.210072 0
1086 1 0.59248 0.216097 0
1115 1 0.576549 0.235193 0
1117 1 0.600031 0.240442 0
1089 1 0.635184 0.204813 0
1088 1 0.616823 0.222453 0
1119 1 0.642997 0.227171 0
1118 1 0.625501 0.245142 0
1090 1 0.662534 0.210871 0
1092 1 0.686648 0.216428 0
1121 1 0.6688 0.235076 0
1122 1 0.693347 0.240071 0
1094 1 0.727981 0.205418 0
1123 1 0.709713 0.221897 0
1124 1 0.717461 0.246306 0
1125 1 0.734024 0.228183 0
1096 1 0.752932 0.207981 0
1127 1 0.776636 0.213643 0
1126 1 0.760455 0.23178 0
1128 1 0.784824 0.239109 0
1098 1 0.798749 0.203937 0
1131 1 0.841302 0.214199 0
1129 1 0.817694 0.220818 0
1130 1 0.832802 0.240849 0
1159 1 0.808299 0.244282 0
1102 1 0.86601 0.208099 0
1104 1 0.890458 0.20247 0
1132 1 0.856977 0.233033 0
1133 1 0.882299 0.226341 0
1134 1 0.899035 0.24464 0
1135 1 0.907462 0.220529 0
1106 1 0.93215 0.215709 0
1136 1 0.924404 0.240463 0
1137 1 0.950167 0.234418 0
1108 1 0.956354 0.210491 0
1110 1 0.980745 0.204396 0
1139 1 0.975449 0.228135 0
1140 1 0.990387 0.247207 0
181 1 0.998706 0.222378 0
1112 1 0.516676 0.264669 0
1143 1 0.540652 0.269305 0
1142 1 0.524035 0.288378 0
1144 1 0.548326 0.293368 0
1320 1 0.978105 0.455538 0
1114 1 0.55961 0.252953 0
1116 1 0.583199 0.259359 0
1145 1 0.565055 0.276393 0
1146 1 0.59007 0.282794 0
1175 1 0.572 0.300168 0
1147 1 0.607472 0.264383 0
1149 1 0.633318 0.269343 0
1148 1 0.615962 0.287775 0
1179 1 0.638863 0.294133 0
1120 1 0.650231 0.251315 0
1151 1 0.674291 0.258628 0
1150 1 0.658064 0.276468 0
1152 1 0.683658 0.281398 0
1181 1 0.664644 0.299477 0
1153 1 0.700009 0.263345 0
1155 1 0.743558 0.251126 0