ITEM: TIMESTEP
178000
ITEM: NUMBER OF ATOMS
1800
ITEM: BOX BOUNDS pp pp pp
3.2271275566896520e+00 1.5517287244330674e+02
3.2271275566896520e+00 1.5517287244330674e+02
0.0000000000000000e+00 5.2800000000000002e+00
ITEM: ATOMS id type xs ys zs
2 1 0.0164963 0.0186197 0
3 1 0.0412795 0.0127944 0
33 1 0.0343283 0.0365117 0
31 1 0.0088145 0.042666 0
4 1 0.0582271 0.0308531 0
6 1 0.084639 0.0256594 0
5 1 0.0665688 0.00817711 0
35 1 0.0764946 0.0473733 0
7 1 0.0932283 0.00167244 0
37 1 0.102335 0.0430352 0
8 1 0.110534 0.0192941 0
9 1 0.127118 0.0368859 0
880 1 0.13439 0.0121917 0
10 1 0.152084 0.0288045 0
11 1 0.160707 0.00599571 0
12 1 0.176952 0.0248102 0
43 1 0.194209 0.0427911 0
41 1 0.168972 0.0474552 0
882 1 0.184855 0.000167296 0
14 1 0.203017 0.0175339 0
44 1 0.220304 0.0359868 0
45 1 0.226936 0.0114911 0
46 1 0.245091 0.0307692 0
16 1 0.250773 0.00577499 0
47 1 0.268493 0.0238277 0
49 1 0.293167 0.0181345 0
48 1 0.28679 0.0428862 0
18 1 0.275848 0.000469846 0
77 1 0.261747 0.0498513 0
50 1 0.30951 0.0361532 0
20 1 0.317202 0.0130003 0
51 1 0.334864 0.033202 0
21 1 0.343243 0.00819073 0
22 1 0.359321 0.0270162 0
24 1 0.383414 0.0193816 0
53 1 0.376712 0.044546 0
23 1 0.367225 0.00171727 0
55 1 0.399938 0.0375963 0
52 1 0.352415 0.0499987 0
25 1 0.409126 0.0145108 0
26 1 0.424062 0.0342173 0
27 1 0.435141 0.0101839 0
28 1 0.448108 0.0368964 0
30 1 0.496521 0.0402456 0
898 1 0.460942 0.0165014 0
29 1 0.485197 0.0179063 0
59 1 0.471435 0.0418319 0
32 1 0.0265619 0.0599942 0
62 1 0.019003 0.0838129 0
63 1 0.043865 0.0778862 0
61 1 0.0013538 0.066171 0
34 1 0.0515563 0.0539392 0
65 1 0.0687748 0.0713967 0
66 1 0.0854445 0.089528 0
36 1 0.0938845 0.065607 0
64 1 0.0601158 0.0946725 0
39 1 0.143768 0.054554 0
38 1 0.119649 0.0593593 0
67 1 0.110246 0.0825312 0
69 1 0.136424 0.0787102 0
70 1 0.153673 0.0965033 0
40 1 0.161861 0.0727746 0
71 1 0.177739 0.0912404 0
42 1 0.185644 0.0661172 0
72 1 0.203291 0.0836522 0
73 1 0.211353 0.0598178 0
74 1 0.228731 0.0781478 0
75 1 0.236486 0.0545914 0
106 1 0.242999 0.0973093 0
76 1 0.252893 0.0733493 0
78 1 0.278616 0.0684096 0
109 1 0.296259 0.0878659 0
107 1 0.269605 0.0919587 0
79 1 0.303838 0.0615097 0
80 1 0.32209 0.0805926 0
81 1 0.329435 0.0562489 0
82 1 0.347062 0.0748717 0
111 1 0.33719 0.0986668 0
83 1 0.370914 0.0681935 0
113 1 0.378537 0.0914647 0
54 1 0.396508 0.0743259 0
56 1 0.414866 0.0580261 0
57 1 0.439964 0.0604401 0
85 1 0.421448 0.0809059 0
84 1 0.402422 0.0977363 0
87 1 0.446218 0.0853796 0
88 1 0.4686 0.0935503 0
58 1 0.463944 0.0681081 0
89 1 0.487575 0.0782098 0
93 1 0.0357744 0.101846 0
92 1 0.0296158 0.125707 0
91 1 0.0118424 0.108328 0
121 1 0.00445489 0.132852 0
123 1 0.046109 0.143881 0
122 1 0.0219345 0.14922 0
94 1 0.0537822 0.11879 0
95 1 0.0786991 0.112967 0
125 1 0.070135 0.136128 0
96 1 0.0949751 0.131648 0
68 1 0.126961 0.101681 0
97 1 0.102887 0.108523 0
98 1 0.120079 0.126285 0
99 1 0.144135 0.120094 0
129 1 0.137243 0.144326 0
127 1 0.1128 0.149632 0
100 1 0.168682 0.114873 0
130 1 0.161134 0.139019 0
131 1 0.185391 0.133119 0
101 1 0.194719 0.107519 0
103 1 0.219254 0.102195 0
102 1 0.210751 0.126165 0
105 1 0.235727 0.121701 0
104 1 0.228641 0.145142 0
133 1 0.203126 0.14919 0
136 1 0.25288 0.139685 0
135 1 0.260442 0.115689 0
137 1 0.277617 0.133139 0
108 1 0.287308 0.111235 0
139 1 0.302288 0.138455 0
110 1 0.319382 0.11796 0
141 1 0.342376 0.125067 0
140 1 0.325898 0.143842 0
112 1 0.359973 0.107851 0
114 1 0.384349 0.114647 0
143 1 0.366528 0.132004 0
144 1 0.392971 0.139181 0
86 1 0.428381 0.104337 0
115 1 0.410542 0.121717 0
116 1 0.435117 0.128521 0
145 1 0.416566 0.145805 0
117 1 0.452254 0.111616 0
90 1 0.494594 0.102043 0
118 1 0.458185 0.135774 0
119 1 0.476314 0.117941 0
149 1 0.483468 0.141104 0
153 1 0.0388734 0.168401 0
152 1 0.0147486 0.17483 0
183 1 0.0319415 0.192989 0
1080 1 0.00691167 0.198443 0
124 1 0.0633217 0.161997 0
126 1 0.0882894 0.155606 0
155 1 0.0806565 0.179581 0
154 1 0.0562408 0.186667 0
156 1 0.0970339 0.198233 0
128 1 0.128793 0.168208 0
157 1 0.10485 0.173735 0
160 1 0.144973 0.185654 0
158 1 0.119759 0.192454 0
132 1 0.178712 0.15665 0
159 1 0.153665 0.162682 0
161 1 0.169483 0.179642 0
162 1 0.186779 0.196291 0
163 1 0.195508 0.173823 0
134 1 0.219128 0.166776 0
164 1 0.230377 0.187361 0
165 1 0.244125 0.163579 0
166 1 0.253283 0.193549 0
167 1 0.26671 0.173271 0
138 1 0.28528 0.156444 0
168 1 0.291341 0.180051 0
197 1 0.276244 0.19878 0
169 1 0.308508 0.16317 0
171 1 0.332733 0.169077 0
170 1 0.31603 0.187002 0
201 1 0.339896 0.193252 0
142 1 0.350687 0.150051 0
172 1 0.357493 0.174079 0
173 1 0.375186 0.155827 0
174 1 0.380448 0.181132 0
175 1 0.399892 0.163126 0
203 1 0.364579 0.199217 0
147 1 0.441032 0.152829 0
146 1 0.423686 0.170184 0
205 1 0.40505 0.186714 0
176 1 0.429359 0.194249 0
177 1 0.447576 0.176897 0
148 1 0.464463 0.160179 0
150 1 0.490351 0.165667 0
179 1 0.472712 0.183608 0
180 1 0.497592 0.190053 0
182 1 0.0246121 0.21673 0
213 1 0.0412055 0.233918 0
211 1 0.0187635 0.242735 0
184 1 0.0484789 0.210069 0
181 1 0.000879973 0.223785 0
185 1 0.0733254 0.204337 0
186 1 0.0895739 0.223472 0
215 1 0.0658637 0.228532 0
216 1 0.0833369 0.247446 0
187 1 0.114465 0.217137 0
188 1 0.131744 0.239728 0
189 1 0.138945 0.210046 0
217 1 0.106112 0.241547 0
191 1 0.163062 0.204621 0
190 1 0.153759 0.228767 0
192 1 0.193226 0.219368 0
221 1 0.175463 0.236712 0
223 1 0.198189 0.244945 0
193 1 0.210655 0.202202 0
194 1 0.216544 0.227615 0
195 1 0.233444 0.211025 0
225 1 0.240227 0.23412 0
196 1 0.257902 0.218021 0
198 1 0.281528 0.222445 0
227 1 0.263724 0.240681 0
228 1 0.286525 0.248095 0
199 1 0.299288 0.206317 0
200 1 0.322319 0.211531 0
229 1 0.305092 0.230322 0
231 1 0.32966 0.235199 0
202 1 0.34764 0.217653 0
204 1 0.387886 0.204876 0
233 1 0.372054 0.223206 0
235 1 0.396064 0.227184 0
232 1 0.354613 0.242011 0
234 1 0.378917 0.246724 0
207 1 0.436306 0.219164 0
206 1 0.419538 0.236385 0
237 1 0.443906 0.243195 0
178 1 0.453564 0.201002 0
208 1 0.460904 0.223722 0
209 1 0.479191 0.207457 0
210 1 0.485851 0.231184 0
239 1 0.468313 0.247639 0
212 1 0.00973146 0.265327 0
243 1 0.0351836 0.260843 0
242 1 0.0134558 0.28912 0
273 1 0.0361064 0.298333 0
244 1 0.0534923 0.280261 0
214 1 0.0580495 0.252606 0
245 1 0.0761181 0.269751 0
247 1 0.078824 0.294226 0
218 1 0.0979466 0.278106 0
219 1 0.120146 0.261229 0
249 1 0.140671 0.272247 0
248 1 0.12108 0.286557 0
250 1 0.145093 0.295558 0
220 1 0.155477 0.253397 0
222 1 0.180912 0.262214 0
251 1 0.163574 0.278749 0
252 1 0.185665 0.286245 0
224 1 0.221919 0.25134 0
253 1 0.205162 0.269461 0
255 1 0.228072 0.275738 0
254 1 0.209522 0.294641 0
226 1 0.245858 0.25891 0
256 1 0.251909 0.282907 0
257 1 0.269525 0.264659 0
259 1 0.293667 0.27203 0
258 1 0.275132 0.289513 0
289 1 0.29953 0.296998 0
230 1 0.311821 0.254211 0
260 1 0.317388 0.277919 0
261 1 0.336056 0.259872 0
262 1 0.342163 0.284655 0
263 1 0.360957 0.266462 0
264 1 0.385672 0.272424 0
293 1 0.36694 0.291113 0
295 1 0.389799 0.297509 0
265 1 0.402017 0.25458 0
236 1 0.425524 0.26037 0
266 1 0.408921 0.279764 0
267 1 0.43186 0.284087 0
238 1 0.449193 0.266805 0
1141 1 0.496846 0.279422 0
240 1 0.492173 0.254726 0
269 1 0.473112 0.271968 0
268 1 0.456075 0.289965 0
270 1 0.480358 0.296741 0
271 1 0.0154026 0.313862 0
272 1 0.0400301 0.323047 0
301 1 0.0199943 0.338609 0
303 1 0.0435653 0.34799 0
275 1 0.0587978 0.308017 0
276 1 0.0832456 0.318079 0
274 1 0.0642487 0.333938 0
305 1 0.0880079 0.343079 0
246 1 0.103147 0.30387 0
279 1 0.126043 0.310903 0
277 1 0.107655 0.328138 0
278 1 0.130798 0.336059 0
280 1 0.150335 0.320238 0
281 1 0.16829 0.303458 0
311 1 0.155296 0.345396 0
283 1 0.191604 0.310926 0
282 1 0.173265 0.328923 0
313 1 0.195969 0.335875 0
285 1 0.233526 0.299587 0
284 1 0.21586 0.318983 0
315 1 0.221134 0.343539 0
286 1 0.239331 0.324988 0
316 1 0.245004 0.350346 0
287 1 0.257329 0.307124 0
288 1 0.281606 0.314327 0
317 1 0.264401 0.331011 0
319 1 0.288921 0.337994 0
291 1 0.323279 0.30271 0
290 1 0.306639 0.320849 0
321 1 0.313341 0.344643 0
292 1 0.329839 0.327686 0
323 1 0.347891 0.308916 0
294 1 0.372283 0.31621 0
324 1 0.355223 0.33359 0
325 1 0.37865 0.339973 0
296 1 0.395854 0.321934 0
326 1 0.404031 0.345048 0
297 1 0.413977 0.303527 0
298 1 0.438076 0.309321 0
327 1 0.42043 0.326999 0
328 1 0.444567 0.333296 0
299 1 0.46244 0.315313 0
300 1 0.486961 0.321661 0
329 1 0.469948 0.339994 0
1201 1 0.492982 0.345869 0
331 1 0.003975 0.378028 0
302 1 0.0243717 0.363056 0
332 1 0.0289104 0.38779 0
333 1 0.0482687 0.372406 0
334 1 0.053481 0.396978 0
304 1 0.0678769 0.357698 0
306 1 0.0931837 0.366978 0
335 1 0.0732776 0.382674 0
337 1 0.0978531 0.39296 0
307 1 0.111364 0.351638 0
309 1 0.136171 0.360637 0
308 1 0.116715 0.377137 0
339 1 0.141339 0.385389 0
312 1 0.178988 0.353406 0
310 1 0.159991 0.368527 0
341 1 0.165407 0.39431 0
343 1 0.183084 0.377332 0
314 1 0.202116 0.361301 0
345 1 0.227247 0.366666 0
344 1 0.207416 0.38511 0
375 1 0.232696 0.390722 0
346 1 0.251565 0.373231 0
318 1 0.270083 0.354795 0
349 1 0.294984 0.361857 0
347 1 0.276081 0.379478 0
377 1 0.258578 0.397312 0
322 1 0.337297 0.350635 0
350 1 0.301166 0.38606 0
320 1 0.319288 0.368983 0
351 1 0.342823 0.375287 0
381 1 0.325185 0.392415 0
352 1 0.349908 0.398521 0
353 1 0.36115 0.357806 0
355 1 0.38553 0.363632 0
354 1 0.367897 0.381376 0
385 1 0.392428 0.387658 0
357 1 0.428202 0.350826 0
356 1 0.410676 0.369475 0
387 1 0.43404 0.375263 0
386 1 0.416822 0.394396 0
388 1 0.44127 0.400215 0
359 1 0.452292 0.357301 0
358 1 0.459148 0.380742 0
330 1 0.476602 0.363172 0
360 1 0.484228 0.387786 0
361 1 0.00785809 0.401892 0
363 1 0.032269 0.412848 0
362 1 0.0131633 0.426099 0
364 1 0.0387084 0.438669 0
336 1 0.0775659 0.40588 0
365 1 0.0562166 0.421234 0
395 1 0.0651848 0.443903 0
338 1 0.122637 0.401919 0
367 1 0.102056 0.417438 0
366 1 0.107854 0.442084 0
369 1 0.127247 0.426921 0
340 1 0.145883 0.410197 0
370 1 0.15127 0.434115 0
342 1 0.188711 0.402382 0
371 1 0.171072 0.419297 0
401 1 0.175728 0.443293 0
372 1 0.195932 0.425956 0
373 1 0.215327 0.40963 0
374 1 0.220316 0.432857 0
376 1 0.239228 0.415972 0
405 1 0.243278 0.440577 0
348 1 0.283808 0.403897 0
407 1 0.273239 0.444564 0
378 1 0.266041 0.422053 0
409 1 0.29159 0.428584 0
379 1 0.307916 0.411018 0
380 1 0.316288 0.434112 0
382 1 0.332909 0.415895 0
411 1 0.340521 0.440331 0
413 1 0.357207 0.423002 0
383 1 0.374697 0.406455 0
414 1 0.380648 0.430127 0
412 1 0.363703 0.448089 0
384 1 0.398004 0.411873 0
415 1 0.40494 0.436751 0
417 1 0.422005 0.417858 0
416 1 0.42884 0.443043 0
419 1 0.447001 0.424412 0
389 1 0.46573 0.405648 0
418 1 0.472354 0.429811 0
390 1 0.490159 0.412087 0
420 1 0.496714 0.436044 0
447 1 0.453514 0.447838 0
393 1 0.018129 0.451108 0
422 1 0.00479866 0.491398 0
423 1 0.0230706 0.475498 0
394 1 0.0434401 0.461315 0
425 1 0.0470759 0.485355 0
397 1 0.0873979 0.455828 0
396 1 0.0673866 0.469319 0
426 1 0.0700737 0.494003 0
427 1 0.0914791 0.480506 0
368 1 0.132377 0.45135 0
398 1 0.112988 0.465416 0
428 1 0.115305 0.491855 0
429 1 0.136124 0.476692 0
399 1 0.156069 0.458892 0
400 1 0.179708 0.467392 0
430 1 0.15982 0.48321 0
431 1 0.181374 0.493739 0
403 1 0.201168 0.450835 0
404 1 0.225299 0.457278 0
402 1 0.20186 0.477856 0
432 1 0.220008 0.493113 0
433 1 0.237838 0.478091 0
435 1 0.255792 0.461613 0
436 1 0.261649 0.485579 0
406 1 0.279681 0.469937 0
437 1 0.285151 0.493622 0
408 1 0.298167 0.45213 0
439 1 0.30422 0.477185 0
410 1 0.321379 0.458621 0
440 1 0.327769 0.484735 0
441 1 0.344957 0.466823 0
471 1 0.351615 0.491515 0
472 1 0.375742 0.497337 0
442 1 0.368562 0.473141 0
473 1 0.394128 0.479022 0
443 1 0.38696 0.454862 0
444 1 0.418056 0.484657 0
477 1 0.442163 0.491629 0
446 1 0.435803 0.466078 0
445 1 0.411132 0.460248 0
450 1 0.483997 0.478414 0
478 1 0.467252 0.497284 0
448 1 0.460642 0.472319 0
449 1 0.478929 0.453621 0
453 1 0.00925521 0.515978 0
452 1 0.0133838 0.541208 0
454 1 0.032785 0.526592 0
424 1 0.0285998 0.501607 0
485 1 0.0544486 0.537157 0
455 1 0.0530169 0.511581 0
456 1 0.0750164 0.521987 0
486 1 0.0781757 0.54653 0
457 1 0.0938809 0.505886 0
487 1 0.0977308 0.532446 0
458 1 0.117534 0.516828 0
488 1 0.122389 0.541859 0
489 1 0.141657 0.525725 0
459 1 0.13832 0.500511 0
462 1 0.182105 0.523795 0
491 1 0.163269 0.538586 0
460 1 0.161137 0.508618 0
492 1 0.186237 0.549247 0
461 1 0.200893 0.507832 0
493 1 0.206736 0.533757 0
463 1 0.224442 0.517936 0
495 1 0.228518 0.543362 0
434 1 0.24422 0.503242 0
464 1 0.247569 0.52799 0
466 1 0.272614 0.5355 0
465 1 0.267233 0.510893 0
467 1 0.290186 0.517228 0
497 1 0.295702 0.544872 0
468 1 0.313693 0.526021 0
469 1 0.333735 0.50989 0
499 1 0.337188 0.534184 0
438 1 0.308815 0.50151 0
470 1 0.356568 0.516003 0
503 1 0.381301 0.520329 0
505 1 0.384864 0.546129 0
501 1 0.361295 0.540417 0
474 1 0.3991 0.503608 0
476 1 0.404333 0.527419 0
509 1 0.429117 0.533352 0
475 1 0.423542 0.510102 0
507 1 0.448154 0.51498 0
479 1 0.472315 0.521202 0
480 1 0.453344 0.540178 0
1381 1 0.495826 0.527359 0
510 1 0.478304 0.545886 0
1351 1 0.490947 0.502674 0
483 1 0.0354631 0.551879 0
513 1 0.015575 0.566781 0
514 1 0.0384216 0.577986 0
512 1 0.0182469 0.59278 0
484 1 0.0576191 0.561337 0
515 1 0.0805958 0.57137 0
545 1 0.0613036 0.586473 0
516 1 0.0836331 0.597405 0
490 1 0.143241 0.553283 0
517 1 0.101198 0.556135 0
518 1 0.103769 0.582107 0
519 1 0.123272 0.567737 0
549 1 0.126522 0.592705 0
520 1 0.14773 0.578475 0
521 1 0.166007 0.56341 0
522 1 0.170636 0.588241 0
523 1 0.189463 0.573636 0
553 1 0.193241 0.59806 0
494 1 0.208683 0.558852 0
524 1 0.212888 0.583826 0
525 1 0.233068 0.568329 0
555 1 0.237673 0.592996 0
496 1 0.253834 0.551521 0
526 1 0.257406 0.577422 0
527 1 0.276018 0.561783 0
528 1 0.280013 0.58725 0
529 1 0.299817 0.570298 0
498 1 0.318801 0.552655 0
500 1 0.343494 0.558386 0
530 1 0.324563 0.575731 0
559 1 0.304644 0.594804 0
531 1 0.348953 0.582132 0
502 1 0.36767 0.564835 0
504 1 0.393144 0.569626 0
533 1 0.374898 0.588222 0
534 1 0.399099 0.594861 0
506 1 0.411241 0.551838 0
535 1 0.418561 0.576295 0
508 1 0.435374 0.557809 0
537 1 0.442891 0.582634 0
539 1 0.46057 0.564643 0
540 1 0.485166 0.57034 0
538 1 0.46778 0.587835 0
569 1 0.491725 0.594012 0
543 1 0.0413629 0.603204 0
542 1 0.020706 0.617215 0
573 1 0.023879 0.642048 0
544 1 0.0440893 0.628349 0
571 1 0.000267747 0.631344 0
546 1 0.0642884 0.611319 0
547 1 0.0878668 0.622387 0
575 1 0.0678409 0.637555 0
576 1 0.0916109 0.646942 0
548 1 0.106874 0.607413 0
550 1 0.130576 0.616848 0
577 1 0.110967 0.631659 0
579 1 0.133337 0.642248 0
551 1 0.151098 0.603463 0
581 1 0.153506 0.627559 0
552 1 0.174299 0.612997 0
582 1 0.176317 0.636977 0
583 1 0.197234 0.622584 0
584 1 0.200711 0.647016 0
554 1 0.217795 0.60776 0
556 1 0.24196 0.617143 0
585 1 0.22091 0.632247 0
586 1 0.245268 0.642844 0
557 1 0.260812 0.602175 0
587 1 0.265439 0.626679 0
558 1 0.285545 0.610212 0
589 1 0.292504 0.638578 0
561 1 0.331469 0.601903 0
560 1 0.312944 0.619485 0
591 1 0.320475 0.643912 0
562 1 0.337832 0.625997 0
593 1 0.346374 0.649076 0
532 1 0.356369 0.606729 0
563 1 0.381545 0.612395 0
564 1 0.363803 0.631511 0
595 1 0.387596 0.637405 0
536 1 0.424426 0.599573 0
565 1 0.406861 0.618481 0
566 1 0.431004 0.625077 0
596 1 0.412839 0.642733 0
598 1 0.43863 0.649484 0
567 1 0.44928 0.606613 0
597 1 0.455482 0.630975 0
568 1 0.473223 0.611676 0
570 1 0.48111 0.636127 0
1442 1 0.498231 0.617876 0
574 1 0.0480962 0.652488 0
572 1 0.00202711 0.655982 0
603 1 0.0254065 0.665781 0
602 1 0.00561348 0.679908 0
633 1 0.0291952 0.691655 0
604 1 0.05003 0.67642 0
605 1 0.0699844 0.662477 0
606 1 0.0730863 0.687391 0
607 1 0.0939092 0.671908 0
637 1 0.0966358 0.697436 0
578 1 0.113935 0.657574 0
609 1 0.136396 0.667101 0
608 1 0.115735 0.682874 0
639 1 0.139866 0.693114 0
580 1 0.156625 0.652359 0
611 1 0.180047 0.661934 0
610 1 0.16052 0.677146 0
612 1 0.182981 0.686411 0
613 1 0.202904 0.671655 0
615 1 0.223584 0.657026 0
614 1 0.224955 0.682535 0
643 1 0.205579 0.69687 0
617 1 0.246024 0.668068 0
616 1 0.248175 0.693561 0
588 1 0.269316 0.65256 0
619 1 0.291183 0.68872 0
618 1 0.26907 0.67771 0
590 1 0.304014 0.66564 0
621 1 0.314637 0.687298 0
592 1 0.330157 0.667942 0
622 1 0.338743 0.69152 0
623 1 0.355393 0.673368 0
594 1 0.371619 0.655884 0
624 1 0.381367 0.679876 0
653 1 0.363982 0.696577 0
625 1 0.396627 0.661263 0
627 1 0.42125 0.667882 0
626 1 0.405201 0.686029 0
657 1 0.429963 0.691806 0
628 1 0.446061 0.673548 0
599 1 0.46254 0.653825 0
600 1 0.48787 0.659788 0
629 1 0.470799 0.67819 0
630 1 0.494553 0.684351 0
658 1 0.453634 0.696798 0
632 1 0.00904751 0.704217 0
634 1 0.0322371 0.715243 0
663 1 0.0120162 0.727863 0
664 1 0.0360285 0.740169 0
635 1 0.0522816 0.701204 0
636 1 0.0756816 0.711482 0
665 1 0.0562939 0.72611 0
666 1 0.0790419 0.736756 0
667 1 0.0997834 0.722284 0
668 1 0.103188 0.747251 0
638 1 0.118973 0.70729 0
640 1 0.142996 0.717407 0
669 1 0.122804 0.731795 0
670 1 0.145625 0.742756 0
641 1 0.161629 0.701798 0
642 1 0.184556 0.712056 0
671 1 0.1653 0.728039 0
673 1 0.18703 0.738648 0
645 1 0.2274 0.707561 0
644 1 0.207457 0.722313 0
675 1 0.229218 0.733218 0
674 1 0.210163 0.747206 0
646 1 0.249069 0.718281 0
677 1 0.251082 0.743528 0
647 1 0.270912 0.703368 0
648 1 0.271097 0.72856 0
679 1 0.29393 0.737713 0
649 1 0.296327 0.713371 0
620 1 0.321397 0.710368 0
651 1 0.348863 0.714597 0
650 1 0.331754 0.732521 0
655 1 0.388383 0.704479 0
652 1 0.355637 0.739133 0
654 1 0.372441 0.721962 0
685 1 0.396317 0.727429 0
683 1 0.379013 0.746071 0
656 1 0.412384 0.709307 0
687 1 0.436806 0.715867 0
686 1 0.420206 0.734252 0
717 1 0.444683 0.73934 0
659 1 0.477751 0.702323 0
689 1 0.46075 0.720264 0
660 1 0.48534 0.725699 0
688 1 0.468468 0.74461 0
690 1 0.493064 0.749429 0
662 1 0.0161538 0.752904 0
694 1 0.0387232 0.763909 0
693 1 0.0194357 0.778079 0
725 1 0.0402272 0.788836 0
695 1 0.0590161 0.75037 0
697 1 0.0833331 0.762392 0
696 1 0.062376 0.776468 0
727 1 0.0834623 0.787268 0
699 1 0.125757 0.757377 0
698 1 0.105703 0.773602 0
700 1 0.126904 0.783663 0
728 1 0.107321 0.799707 0
701 1 0.147675 0.767138 0
731 1 0.149652 0.793554 0
672 1 0.167598 0.753428 0
703 1 0.189495 0.763378 0
702 1 0.169796 0.77748 0
704 1 0.192343 0.790449 0
676 1 0.231364 0.76016 0
705 1 0.211912 0.77507 0
706 1 0.234653 0.785204 0
707 1 0.254983 0.769761 0
678 1 0.273593 0.753572 0
709 1 0.27659 0.779605 0
680 1 0.296007 0.764515 0
737 1 0.257193 0.794829 0
710 1 0.300208 0.789978 0
681 1 0.315746 0.750726 0
682 1 0.339288 0.757651 0
711 1 0.320164 0.774858 0
712 1 0.344138 0.782042 0
741 1 0.325574 0.799269 0
713 1 0.362264 0.763822 0
714 1 0.38586 0.771835 0
743 1 0.367492 0.789423 0
745 1 0.391308 0.795288 0
684 1 0.402725 0.752579 0
715 1 0.427078 0.758233 0
716 1 0.410242 0.77588 0
747 1 0.43391 0.782886 0
718 1 0.451442 0.763245 0
719 1 0.476294 0.768878 0
720 1 0.482815 0.792693 0
749 1 0.458251 0.787093 0
1680 1 0.000324453 0.844643 0
723 1 0.020435 0.803982 0
722 1 0.0222058 0.830358 0
724 1 0.042385 0.813656 0
754 1 0.0446905 0.837955 0
726 1 0.0631567 0.800545 0
757 1 0.0859608 0.812731 0
755 1 0.0659043 0.825134 0
756 1 0.0870327 0.83904 0
729 1 0.129545 0.809049 0
759 1 0.108507 0.823525 0
760 1 0.131087 0.833976 0
758 1 0.11001 0.849936 0
730 1 0.151871 0.820056 0
761 1 0.155719 0.846583 0
732 1 0.173387 0.805736 0
763 1 0.175467 0.830324 0
733 1 0.195529 0.815429 0
764 1 0.197013 0.841884 0
735 1 0.215006 0.8008 0
736 1 0.238286 0.811347 0
734 1 0.217635 0.825623 0
767 1 0.240812 0.835761 0
708 1 0.280561 0.804609 0
738 1 0.26147 0.819547 0
769 1 0.284471 0.831248 0
768 1 0.263138 0.844173 0
739 1 0.305724 0.813469 0
740 1 0.308885 0.837499 0
771 1 0.330557 0.824944 0
742 1 0.348628 0.806655 0
773 1 0.356051 0.830433 0
744 1 0.374369 0.813551 0
774 1 0.380236 0.839403 0
775 1 0.397778 0.820176 0
746 1 0.415577 0.800872 0
748 1 0.439814 0.807182 0
777 1 0.422378 0.826114 0
776 1 0.405541 0.844759 0
779 1 0.447605 0.829657 0
778 1 0.430719 0.849867 0
750 1 0.465388 0.810734 0
1621 1 0.490069 0.818282 0
780 1 0.472036 0.835797 0
1651 1 0.496079 0.842577 0
753 1 0.0427423 0.860398 0
752 1 0.0187833 0.860817 0
783 1 0.0384883 0.883436 0
782 1 0.0145958 0.886603 0
785 1 0.0660436 0.851581 0
784 1 0.0620646 0.876008 0
786 1 0.0801803 0.891778 0
787 1 0.0853236 0.86664 0
815 1 0.0559156 0.900103 0
817 1 0.103533 0.885952 0
789 1 0.133173 0.857569 0
788 1 0.128134 0.880889 0
790 1 0.146355 0.897771 0
791 1 0.153476 0.872052 0
762 1 0.176875 0.863228 0
793 1 0.170778 0.890109 0
795 1 0.195774 0.88312 0
765 1 0.221614 0.852012 0
796 1 0.220328 0.876672 0
825 1 0.237781 0.894708 0
766 1 0.244895 0.871079 0
797 1 0.271368 0.867007 0
827 1 0.26349 0.890355 0
798 1 0.288346 0.885166 0
799 1 0.296406 0.859329 0
772 1 0.345361 0.852329 0
770 1 0.321533 0.85765 0
800 1 0.313905 0.880997 0
801 1 0.338669 0.875595 0
831 1 0.33051 0.899006 0
802 1 0.356974 0.893171 0
803 1 0.364024 0.868817 0
804 1 0.381428 0.887711 0
805 1 0.388141 0.864094 0
807 1 0.414429 0.868795 0
808 1 0.438588 0.873427 0
837 1 0.444496 0.897784 0
809 1 0.456141 0.853815 0
1681 1 0.48075 0.860241 0
1711 1 0.488788 0.88506 0
810 1 0.462979 0.879872 0
813 1 0.0311965 0.906158 0
843 1 0.0240944 0.929268 0
844 1 0.0420701 0.947368 0
812 1 0.0071941 0.910761 0
814 1 0.0484164 0.923286 0
841 1 0.000786117 0.935085 0
816 1 0.0971604 0.911069 0
845 1 0.0741494 0.916965 0
846 1 0.0662209 0.940193 0
847 1 0.0902882 0.934601 0
819 1 0.120737 0.903432 0
818 1 0.114982 0.928188 0
820 1 0.131921 0.946752 0
821 1 0.139634 0.920891 0
792 1 0.164289 0.91634 0
851 1 0.156887 0.940108 0
823 1 0.189049 0.908674 0
822 1 0.181515 0.933891 0
794 1 0.213849 0.901754 0
824 1 0.207029 0.926418 0
885 1 0.224506 0.94446 0
855 1 0.232012 0.919712 0
856 1 0.249229 0.937858 0
826 1 0.256706 0.913385 0
857 1 0.274623 0.933344 0
828 1 0.281578 0.90958 0
859 1 0.298786 0.927544 0
829 1 0.305781 0.903415 0
830 1 0.323256 0.922325 0
861 1 0.339612 0.940436 0
860 1 0.316055 0.946307 0
832 1 0.347777 0.916645 0
863 1 0.36472 0.935943 0
833 1 0.37225 0.911932 0
834 1 0.388729 0.929612 0
806 1 0.396833 0.90734 0
835 1 0.413587 0.923853 0
836 1 0.434211 0.940898 0
865 1 0.40777 0.947535 0
838 1 0.452932 0.922992 0
869 1 0.46183 0.947679 0
839 1 0.470174 0.904076 0
840 1 0.477989 0.927587 0
1712 1 0.494631 0.909003 0
842 1 0.0172081 0.95389 0
872 1 0.0244893 0.994799 0
873 1 0.0334144 0.971479 0
871 1 0.00750678 0.976149 0
874 1 0.0503993 0.989477 0
875 1 0.0591001 0.96458 0
876 1 0.0754108 0.98375 0
848 1 0.0824219 0.958456 0
877 1 0.0991839 0.976601 0
849 1 0.107846 0.953622 0
878 1 0.117501 0.994835 0
879 1 0.125389 0.969586 0
881 1 0.141625 0.988112 0
850 1 0.149991 0.963324 0
853 1 0.174773 0.957214 0
852 1 0.167421 0.981806 0
883 1 0.191239 0.976531 0
854 1 0.200234 0.950922 0
13 1 0.209174 0.99448 0
15 1 0.234343 0.986837 0
884 1 0.216841 0.97012 0
886 1 0.241587 0.961949 0
858 1 0.291158 0.952113 0
887 1 0.265509 0.95773 0
17 1 0.258374 0.981283 0
888 1 0.283866 0.976103 0
19 1 0.30112 0.995031 0
889 1 0.30925 0.970411 0
890 1 0.32565 0.988763 0
891 1 0.333497 0.965068 0
892 1 0.35027 0.984487 0
862 1 0.357523 0.959368 0
864 1 0.382229 0.953558 0
893 1 0.374937 0.9791 0
895 1 0.397972 0.972356 0
894 1 0.392856 0.996728 0
867 1 0.44533 0.967653 0
866 1 0.421481 0.965953 0
896 1 0.41692 0.990796 0
868 1 0.46938 0.971589 0
899 1 0.475629 0.995547 0
1771 1 0.493009 0.975689 0
897 1 0.452371 0.990606 0
870 1 0.486083 0.952722 0
902 1 0.537532 0.0257432 0
901 1 0.512134 0.0218187 0
931 1 0.521667 0.0439399 0
903 1 0.527592 0.00283701 0
933 1 0.54599 0.0492831 0
904 1 0.562337 0.0318576 0
906 1 0.578061 0.0134772 0
935 1 0.587536 0.0365726 0
905 1 0.5536 0.0082131 0
908 1 0.603393 0.0181697 0
937 1 0.610683 0.0423439 0
939 1 0.627766 0.0244984 0
910 1 0.643484 0.00620388 0
938 1 0.635376 0.0490227 0
909 1 0.619471 0.000223806 0
941 1 0.652388 0.0315024 0
912 1 0.666994 0.0125928 0
942 1 0.675852 0.0376343 0
943 1 0.690303 0.017143 0
973 1 0.699731 0.0421607 0
944 1 0.716108 0.0233897 0
945 1 0.7329 0.00496205 0
946 1 0.740684 0.0292879 0
975 1 0.724182 0.046696 0
947 1 0.756741 0.01059 0
948 1 0.765205 0.03411 0
918 1 0.782746 0.0159817 0
979 1 0.790384 0.0385163 0
949 1 0.810236 0.0220585 0
951 1 0.837114 0.0172758 0
950 1 0.828933 0.0412107 0
952 1 0.852806 0.0362024 0
953 1 0.86074 0.0125323 0
924 1 0.884648 0.00720725 0
954 1 0.876273 0.0305961 0
985 1 0.893411 0.0491645 0
955 1 0.901914 0.024762 0
926 1 0.925137 0.0183061 0
957 1 0.942221 0.036656 0
956 1 0.918524 0.0434402 0
925 1 0.908879 0.000849377 0
928 1 0.949207 0.0128009 0
959 1 0.968143 0.0302311 0
930 1 0.99244 0.0248367 0
929 1 0.975136 0.00673335 0
960 1 0.984354 0.0481354 0
1 1 0.999444 0.000500788 0
932 1 0.529633 0.0676488 0
962 1 0.537141 0.0915882 0
961 1 0.512779 0.084972 0
60 1 0.505785 0.0623653 0
963 1 0.554629 0.0730837 0
934 1 0.570767 0.0547901 0
965 1 0.578308 0.0790639 0
936 1 0.595396 0.0612817 0
964 1 0.561742 0.0970391 0
966 1 0.601977 0.0863119 0
967 1 0.61915 0.0679021 0
968 1 0.626538 0.0917738 0
969 1 0.642755 0.074056 0
999 1 0.651404 0.0973901 0
940 1 0.659051 0.0562695 0
970 1 0.668731 0.0802165 0
971 1 0.684319 0.06113 0
972 1 0.693288 0.085427 0
1003 1 0.709545 0.0665272 0
1004 1 0.717213 0.0917552 0
974 1 0.732739 0.0712519 0
1005 1 0.742988 0.0966634 0
976 1 0.749383 0.0525733 0
1007 1 0.758034 0.0772159 0
977 1 0.773687 0.0583624 0
978 1 0.797605 0.0627822 0
1008 1 0.783484 0.0819963 0
980 1 0.820649 0.0647868 0
981 1 0.844361 0.059722 0
1009 1 0.808894 0.0872003 0
1011 1 0.836457 0.0828617 0
982 1 0.861827 0.0777085 0
983 1 0.868864 0.0549015 0
984 1 0.885851 0.0727501 0
1013 1 0.879702 0.0964125 0
1015 1 0.903197 0.0906219 0
986 1 0.911758 0.0673706 0
987 1 0.935614 0.0609664 0
1017 1 0.92785 0.0844684 0
988 1 0.951995 0.0784862 0
958 1 0.959626 0.0543999 0
989 1 0.976507 0.0715327 0
990 1 0.994502 0.0901945 0
1019 1 0.970218 0.0962071 0
991 1 0.519289 0.108744 0
992 1 0.527442 0.131594 0
993 1 0.544689 0.114671 0
120 1 0.501106 0.125115 0
1021 1 0.508451 0.148885 0
1023 1 0.551228 0.139315 0
995 1 0.585226 0.103882 0
994 1 0.568749 0.122225 0
996 1 0.593139 0.128224 0
1025 1 0.576163 0.145483 0
997 1 0.609996 0.110165 0
998 1 0.634553 0.114377 0
1027 1 0.616927 0.133844 0
1029 1 0.641026 0.138991 0
1001 1 0.67597 0.103328 0
1000 1 0.658603 0.121277 0
1031 1 0.684031 0.127663 0
1030 1 0.666368 0.145409 0
1002 1 0.700318 0.109551 0
1033 1 0.707875 0.133147 0
1035 1 0.724319 0.114561 0
1034 1 0.732886 0.137815 0
1036 1 0.749008 0.119598 0
1006 1 0.76681 0.0995016 0
1037 1 0.772616 0.124285 0
1038 1 0.798799 0.129864 0
1067 1 0.75752 0.143969 0
1039 1 0.790651 0.106076 0
1068 1 0.782575 0.147125 0
1010 1 0.827639 0.105586 0
1040 1 0.822608 0.130017 0
1041 1 0.847138 0.124964 0
1071 1 0.837713 0.149212 0
1012 1 0.853923 0.100944 0
1043 1 0.871234 0.119975 0
1014 1 0.895843 0.113609 0
1044 1 0.888996 0.138649 0
1042 1 0.864083 0.143825 0
1018 1 0.944256 0.103443 0
1045 1 0.913964 0.131979 0
1016 1 0.919599 0.10791 0
1047 1 0.939106 0.1272 0
1049 1 0.962507 0.120013 0
1020 1 0.987168 0.115741 0
1050 1 0.979663 0.139109 0
1046 1 0.955389 0.145084 0
1022 1 0.533115 0.155386 0
1053 1 0.538392 0.178988 0
1051 1 0.51442 0.173185 0
1052 1 0.521382 0.195862 0
1024 1 0.55695 0.163262 0
1055 1 0.581917 0.17032 0
1054 1 0.563229 0.18681 0
1056 1 0.587581 0.193912 0
1026 1 0.599643 0.152516 0
1028 1 0.623826 0.157944 0
1057 1 0.607268 0.175763 0
1058 1 0.632343 0.181448 0
1059 1 0.648707 0.162473 0
1087 1 0.612659 0.19985 0
1032 1 0.690191 0.151456 0
1060 1 0.655426 0.188046 0
1061 1 0.672059 0.168968 0
1091 1 0.679702 0.1921 0
1062 1 0.697051 0.174968 0
1063 1 0.716214 0.156717 0
1064 1 0.721907 0.180299 0
1095 1 0.747728 0.185129 0
1065 1 0.740673 0.161867 0
1093 1 0.704485 0.19949 0
1066 1 0.766189 0.166149 0
1097 1 0.77237 0.189528 0
1099 1 0.790375 0.171453 0
1098 1 0.798337 0.196545 0
1069 1 0.810872 0.152725 0
1070 1 0.829343 0.172225 0
1101 1 0.846909 0.190119 0
1100 1 0.823622 0.196103 0
1072 1 0.855152 0.166833 0
1073 1 0.881055 0.162087 0
1103 1 0.872363 0.184885 0
1074 1 0.89748 0.180536 0
1077 1 0.931529 0.150318 0
1075 1 0.905704 0.156708 0
1076 1 0.923549 0.174264 0
1107 1 0.941429 0.192871 0
1078 1 0.948587 0.169041 0
1105 1 0.915056 0.197846 0
1048 1 0.972266 0.163075 0
151 1 0.996632 0.156414 0
1079 1 0.989271 0.180562 0
1109 1 0.965234 0.187683 0
1083 1 0.545062 0.202382 0
1082 1 0.528149 0.220648 0
1111 1 0.509757 0.237487 0
1113 1 0.533411 0.245154 0
1081 1 0.504351 0.213808 0
1084 1 0.551336 0.228319 0
1085 1 0.569141 0.211249 0
1086 1 0.594871 0.217499 0
1115 1 0.576763 0.234823 0
1117 1 0.600785 0.240966 0
1089 1 0.638349 0.205799 0
1088 1 0.619577 0.2224 0
1119 1 0.643513 0.229853 0
1118 1 0.62526 0.246531 0
1090 1 0.662366 0.210798 0
1092 1 0.684926 0.216973 0
1121 1 0.667463 0.234844 0
1122 1 0.692549 0.24084 0
1094 1 0.729731 0.203218 0
1123 1 0.711499 0.222334 0
1124 1 0.718178 0.246598 0
1125 1 0.736117 0.227453 0
1096 1 0.755382 0.209267 0
1127 1 0.780027 0.214374 0
1126 1 0.762034 0.23293 0
1128 1 0.786299 0.238852 0
1131 1 0.841315 0.213976 0
1129 1 0.808121 0.220456 0
1130 1 0.832502 0.236581 0
1159 1 0.80971 0.244864 0
1102 1 0.865388 0.208295 0
1104 1 0.889394 0.205499 0
1132 1 0.857202 0.231936 0
1133 1 0.881583 0.228375 0
1134 1 0.899346 0.245777 0
1135 1 0.907986 0.222848 0
1106 1 0.932151 0.217113 0
1136 1 0.923735 0.241853 0
1137 1 0.948964 0.236053 0
1108 1 0.956593 0.212099 0
1110 1 0.981989 0.205572 0
1139 1 0.974022 0.229312 0
1140 1 0.991256 0.248029 0
1112 1 0.51604 0.262027 0
1143 1 0.54025 0.269166 0
1142 1 0.522253 0.286387 0
1144 1 0.547352 0.293028 0
1114 1 0.558664 0.251956 0
1116 1 0.583209 0.259577 0
1145 1 0.565412 0.275797 0
1146 1 0.590216 0.282772 0
1147 1 0.607947 0.265759 0
1149 1 0.631552 0.271027 0
1148 1 0.614202 0.289012 0
1179 1 0.640017 0.294929 0
1120 1 0.650127 0.253941 0
1151 1 0.674313 0.258648 0
1150 1 0.656933 0.277432 0
1152 1 0.681676 0.282086 0
1153 1 0.698838 0.263986 0
1155 1 0.743651 0.252253 0
1154 1 0.725826 0.269771 0
1183 1 0.707163 0.287693 0