ITEM: TIMESTEP
88000
ITEM: NUMBER OF ATOMS
1800
ITEM: BOX BOUNDS pp pp pp
2.9953835472300909e+00 1.5540461645276628e+02
2.9953835472300909e+00 1.5540461645276628e+02
0.0000000000000000e+00 5.2800000000000002e+00
ITEM: ATOMS id type xs ys zs
2 1 0.0167412 0.0172143 0
3 1 0.0417997 0.0113871 0
33 1 0.0337226 0.0351906 0
31 1 0.00782665 0.0420682 0
4 1 0.0584588 0.029294 0
6 1 0.0816925 0.0230752 0
5 1 0.0667035 0.00410867 0
35 1 0.0758014 0.0472775 0
37 1 0.0986835 0.0401757 0
8 1 0.105996 0.0167355 0
9 1 0.124196 0.0345794 0
880 1 0.133758 0.00993342 0
10 1 0.148208 0.0292355 0
11 1 0.157799 0.00478913 0
12 1 0.173441 0.0227639 0
43 1 0.191381 0.0398357 0
41 1 0.166672 0.0464412 0
14 1 0.19881 0.0161413 0
44 1 0.215468 0.0343686 0
45 1 0.224055 0.0103114 0
46 1 0.241065 0.0295145 0
16 1 0.249063 0.00483632 0
47 1 0.266393 0.0262029 0
49 1 0.290067 0.017945 0
48 1 0.284454 0.0435883 0
77 1 0.259311 0.0498626 0
18 1 0.273315 0.000504343 0
50 1 0.309596 0.0384448 0
20 1 0.31631 0.0143522 0
51 1 0.333396 0.032508 0
21 1 0.342696 0.00842258 0
22 1 0.356664 0.0273721 0
24 1 0.381241 0.0216269 0
53 1 0.374407 0.0459479 0
23 1 0.365285 0.00344594 0
55 1 0.398967 0.0379938 0
25 1 0.405779 0.0149969 0
26 1 0.423135 0.0306951 0
27 1 0.434544 0.00795615 0
28 1 0.446688 0.0311353 0
30 1 0.493753 0.0397658 0
898 1 0.460422 0.012105 0
29 1 0.483809 0.0179232 0
59 1 0.470053 0.0386175 0
32 1 0.0263039 0.059579 0
62 1 0.01843 0.0839302 0
63 1 0.0442529 0.0771137 0
61 1 0.00153525 0.0658027 0
34 1 0.0512968 0.0529486 0
65 1 0.0682826 0.0709628 0
66 1 0.085485 0.0897287 0
36 1 0.0927312 0.065955 0
64 1 0.0603989 0.0946887 0
39 1 0.141533 0.0536047 0
38 1 0.115859 0.0579808 0
67 1 0.110434 0.0821668 0
69 1 0.134622 0.0765843 0
70 1 0.151615 0.0935265 0
40 1 0.159037 0.0700887 0
71 1 0.177617 0.0880572 0
42 1 0.184769 0.0649334 0
72 1 0.202386 0.0818662 0
73 1 0.209018 0.0586761 0
74 1 0.226294 0.0755968 0
75 1 0.23442 0.0533668 0
106 1 0.242624 0.0954373 0
76 1 0.251276 0.0726783 0
78 1 0.277382 0.0667941 0
109 1 0.293946 0.0878164 0
107 1 0.268914 0.0910598 0
79 1 0.301574 0.0620455 0
80 1 0.318159 0.0820633 0
81 1 0.326058 0.0578475 0
82 1 0.343572 0.0765639 0
111 1 0.336427 0.100466 0
52 1 0.349132 0.0509532 0
83 1 0.36736 0.0686986 0
113 1 0.380544 0.08922 0
54 1 0.394045 0.0664773 0
56 1 0.415804 0.0540682 0
57 1 0.440723 0.0557086 0
85 1 0.422073 0.0772597 0
87 1 0.44592 0.0851428 0
84 1 0.404895 0.095092 0
88 1 0.468617 0.094863 0
58 1 0.463472 0.0666724 0
89 1 0.484677 0.0780902 0
93 1 0.0351909 0.100595 0
92 1 0.0297816 0.124572 0
91 1 0.0108441 0.107956 0
121 1 0.00476658 0.130604 0
123 1 0.0463883 0.142863 0
122 1 0.0217662 0.148206 0
94 1 0.0534434 0.118463 0
95 1 0.0778914 0.112316 0
125 1 0.0709731 0.13644 0
96 1 0.0950363 0.130547 0
68 1 0.127659 0.100325 0
97 1 0.102916 0.106445 0
98 1 0.119922 0.124317 0
99 1 0.143888 0.119456 0
129 1 0.136923 0.14358 0
127 1 0.112869 0.148367 0
100 1 0.167372 0.111975 0
130 1 0.161171 0.137314 0
131 1 0.184621 0.131421 0
101 1 0.191864 0.10755 0
103 1 0.21663 0.10118 0
133 1 0.203433 0.148376 0
102 1 0.208806 0.124526 0
105 1 0.234042 0.119921 0
104 1 0.227043 0.143291 0
136 1 0.251285 0.13908 0
135 1 0.260641 0.11463 0
137 1 0.276309 0.133412 0
108 1 0.289611 0.111823 0
139 1 0.302339 0.13524 0
110 1 0.318184 0.117355 0
141 1 0.342631 0.123865 0
140 1 0.326985 0.143204 0
112 1 0.360907 0.106055 0
114 1 0.386553 0.113777 0
143 1 0.367641 0.130254 0
144 1 0.393355 0.13761 0
142 1 0.35046 0.147922 0
86 1 0.428695 0.102831 0
115 1 0.410541 0.120239 0
116 1 0.434312 0.128486 0
145 1 0.41737 0.144696 0
117 1 0.451743 0.110926 0
90 1 0.493331 0.101233 0
118 1 0.457992 0.135116 0
119 1 0.475554 0.117703 0
149 1 0.481065 0.142468 0
120 1 0.499125 0.12519 0
153 1 0.0374634 0.167118 0
152 1 0.0140216 0.174302 0
183 1 0.0315519 0.191724 0
1080 1 0.00485392 0.196895 0
124 1 0.0629737 0.160938 0
126 1 0.0877358 0.155052 0
155 1 0.0797431 0.179062 0
154 1 0.0553862 0.185093 0
156 1 0.0979747 0.195148 0
128 1 0.128905 0.166071 0
157 1 0.105206 0.171761 0
160 1 0.147723 0.186021 0
158 1 0.121301 0.189716 0
132 1 0.1787 0.156247 0
159 1 0.154599 0.161402 0
161 1 0.170459 0.179257 0
162 1 0.186833 0.196579 0
163 1 0.195122 0.174114 0
134 1 0.218324 0.166959 0
164 1 0.229968 0.187067 0
165 1 0.243268 0.163321 0
166 1 0.252968 0.19178 0
167 1 0.269607 0.173427 0
138 1 0.287757 0.155477 0
168 1 0.294081 0.180238 0
197 1 0.275993 0.199907 0
169 1 0.310635 0.162413 0
171 1 0.335983 0.169369 0
170 1 0.319328 0.186682 0
201 1 0.343338 0.194077 0
172 1 0.360135 0.173058 0
173 1 0.375858 0.154304 0
174 1 0.382258 0.181289 0
175 1 0.399765 0.162443 0
203 1 0.366491 0.199458 0
147 1 0.440828 0.152409 0
146 1 0.422524 0.168588 0
205 1 0.405421 0.187283 0
176 1 0.428756 0.19327 0
177 1 0.44668 0.177233 0
148 1 0.463799 0.159927 0
150 1 0.487652 0.165829 0
179 1 0.470809 0.184351 0
180 1 0.495167 0.191878 0
182 1 0.0230124 0.214615 0
213 1 0.0411696 0.231216 0
211 1 0.0168936 0.238219 0
184 1 0.0486079 0.208378 0
185 1 0.0730097 0.20341 0
186 1 0.090113 0.219957 0
215 1 0.0662159 0.226695 0
216 1 0.0831932 0.244177 0
214 1 0.0571553 0.250407 0
187 1 0.115561 0.213844 0
188 1 0.131354 0.232487 0
189 1 0.138989 0.208217 0
217 1 0.10675 0.237333 0
191 1 0.163605 0.204368 0
190 1 0.154675 0.227254 0
192 1 0.192572 0.220621 0
221 1 0.175938 0.237162 0
223 1 0.200144 0.243784 0
193 1 0.209818 0.203112 0
194 1 0.21736 0.226532 0
195 1 0.234497 0.209564 0
225 1 0.241261 0.234718 0
196 1 0.258007 0.216994 0
198 1 0.282912 0.222416 0
227 1 0.265949 0.240943 0
228 1 0.290311 0.246328 0
199 1 0.300557 0.20416 0
200 1 0.324771 0.209785 0
229 1 0.308446 0.22868 0
231 1 0.332171 0.234547 0
202 1 0.348541 0.217842 0
204 1 0.389982 0.20656 0
233 1 0.373152 0.224124 0
235 1 0.398699 0.229 0
232 1 0.356216 0.242214 0
234 1 0.379864 0.24802 0
207 1 0.435881 0.218317 0
206 1 0.42035 0.238175 0
237 1 0.444085 0.242808 0
178 1 0.45335 0.202578 0
208 1 0.461513 0.226412 0
209 1 0.477195 0.207962 0
210 1 0.484993 0.234258 0
212 1 0.0102154 0.263331 0
243 1 0.0331878 0.25588 0
241 1 0.00409782 0.288906 0
242 1 0.0275301 0.280441 0
273 1 0.0424731 0.297362 0
244 1 0.0510246 0.274991 0
245 1 0.0749487 0.267181 0
275 1 0.0689934 0.292673 0
247 1 0.0906144 0.285363 0
218 1 0.0998832 0.26202 0
219 1 0.122928 0.255873 0
249 1 0.140361 0.270809 0
248 1 0.116852 0.281815 0
250 1 0.145414 0.293631 0
220 1 0.155735 0.25136 0
222 1 0.181787 0.260093 0
251 1 0.164184 0.27705 0
252 1 0.187599 0.286035 0
224 1 0.225107 0.251148 0
253 1 0.205494 0.26813 0
255 1 0.229886 0.276667 0
254 1 0.211184 0.292676 0
226 1 0.24798 0.258245 0
285 1 0.235825 0.300055 0
256 1 0.254674 0.283471 0
257 1 0.271552 0.2645 0
259 1 0.295142 0.270302 0
258 1 0.278351 0.288946 0
289 1 0.301325 0.29486 0
230 1 0.314021 0.252221 0
260 1 0.320601 0.277597 0
261 1 0.337607 0.25994 0
262 1 0.34257 0.285738 0
263 1 0.360685 0.267627 0
264 1 0.384801 0.273008 0
293 1 0.366876 0.290847 0
295 1 0.38995 0.296975 0
265 1 0.40279 0.25542 0
236 1 0.426885 0.261889 0
266 1 0.408113 0.278745 0
267 1 0.431738 0.286773 0
238 1 0.449444 0.268486 0
239 1 0.466905 0.251258 0
240 1 0.491968 0.258038 0
269 1 0.472331 0.275315 0
268 1 0.455476 0.292529 0
270 1 0.479726 0.299106 0
1141 1 0.498187 0.281635 0
271 1 0.0158514 0.312128 0
272 1 0.03877 0.322009 0
301 1 0.0193405 0.337098 0
303 1 0.0432194 0.347122 0
276 1 0.082223 0.314586 0
274 1 0.0639439 0.330177 0
305 1 0.085717 0.339314 0
246 1 0.103702 0.304514 0
279 1 0.127062 0.310998 0
277 1 0.107802 0.328047 0
278 1 0.131874 0.335247 0
281 1 0.168039 0.301315 0
280 1 0.149734 0.317983 0
311 1 0.156299 0.342445 0
283 1 0.191529 0.309377 0
282 1 0.173142 0.325533 0
313 1 0.196922 0.332262 0
312 1 0.180144 0.349196 0
284 1 0.21697 0.317578 0
315 1 0.222188 0.340671 0
286 1 0.241517 0.323795 0
316 1 0.245435 0.34793 0
287 1 0.260844 0.306223 0
288 1 0.283643 0.314791 0
317 1 0.264393 0.331152 0
319 1 0.288016 0.338882 0
291 1 0.324535 0.3025 0
290 1 0.306465 0.321318 0
321 1 0.313081 0.346754 0
292 1 0.331302 0.326583 0
323 1 0.349432 0.309271 0
294 1 0.372705 0.316327 0
324 1 0.355105 0.333898 0
325 1 0.378098 0.340919 0
296 1 0.396881 0.321888 0
326 1 0.402799 0.345595 0
297 1 0.412986 0.30301 0
298 1 0.437866 0.310288 0
327 1 0.420544 0.327528 0
328 1 0.445118 0.33481 0
299 1 0.461805 0.317208 0
300 1 0.485582 0.322298 0
1201 1 0.493676 0.347122 0
329 1 0.469429 0.340858 0
331 1 0.00277487 0.377202 0
302 1 0.0228609 0.361727 0
332 1 0.0278612 0.385191 0
333 1 0.0478915 0.370595 0
334 1 0.0550505 0.396025 0
304 1 0.0673346 0.356606 0
306 1 0.0914008 0.363512 0
335 1 0.0735035 0.38015 0
337 1 0.097921 0.38789 0
307 1 0.113054 0.351487 0
309 1 0.13651 0.358833 0
308 1 0.117698 0.374185 0
339 1 0.141658 0.382943 0
338 1 0.122214 0.398426 0
310 1 0.160175 0.365999 0
341 1 0.166313 0.389908 0
343 1 0.184645 0.37247 0
342 1 0.191286 0.396928 0
314 1 0.202904 0.356693 0
345 1 0.226775 0.364916 0
344 1 0.209527 0.3817 0
375 1 0.23298 0.389114 0
346 1 0.249931 0.372825 0
377 1 0.256152 0.396537 0
318 1 0.269894 0.355851 0
349 1 0.294159 0.363182 0
347 1 0.274538 0.380256 0
350 1 0.299716 0.387256 0
322 1 0.337959 0.351699 0
320 1 0.318699 0.37008 0
351 1 0.34236 0.377242 0
381 1 0.323768 0.395712 0
353 1 0.360842 0.359798 0
355 1 0.384611 0.364909 0
354 1 0.366498 0.383786 0
385 1 0.391042 0.389379 0
357 1 0.427191 0.352674 0
356 1 0.410375 0.3707 0
387 1 0.433968 0.377832 0
386 1 0.416241 0.394072 0
359 1 0.451237 0.3578 0
358 1 0.458432 0.381616 0
330 1 0.476489 0.363455 0
360 1 0.483947 0.389061 0
361 1 0.0101284 0.402988 0
363 1 0.034201 0.410571 0
362 1 0.0165501 0.427775 0
364 1 0.0402497 0.436051 0
336 1 0.0774537 0.404647 0
365 1 0.057974 0.419742 0
395 1 0.0641465 0.443454 0
367 1 0.101534 0.411782 0
366 1 0.107642 0.436918 0
369 1 0.127332 0.422252 0
340 1 0.146629 0.406876 0
368 1 0.130227 0.446407 0
370 1 0.151616 0.430533 0
371 1 0.170923 0.4138 0
401 1 0.175624 0.437648 0
372 1 0.195631 0.420884 0
403 1 0.198911 0.444678 0
373 1 0.215174 0.405416 0
374 1 0.218562 0.429172 0
376 1 0.238876 0.412998 0
405 1 0.243678 0.436844 0
348 1 0.28045 0.404163 0
407 1 0.268454 0.445082 0
378 1 0.263387 0.420851 0
409 1 0.287056 0.428438 0
352 1 0.348643 0.401464 0
379 1 0.305008 0.411392 0
380 1 0.311237 0.436955 0
382 1 0.329289 0.418547 0
411 1 0.334567 0.443358 0
413 1 0.354697 0.426093 0
383 1 0.372752 0.406159 0
414 1 0.378313 0.430877 0
384 1 0.397714 0.412579 0
412 1 0.359039 0.450885 0
388 1 0.441008 0.401499 0
415 1 0.403097 0.437317 0
417 1 0.421735 0.418445 0
416 1 0.42764 0.443606 0
419 1 0.446436 0.425351 0
389 1 0.465365 0.406811 0
418 1 0.47065 0.431895 0
390 1 0.489238 0.413378 0
420 1 0.495754 0.438079 0
447 1 0.452905 0.448877 0
393 1 0.0215582 0.451055 0
422 1 0.00767097 0.490963 0
423 1 0.0257512 0.475744 0
394 1 0.0458875 0.460785 0
425 1 0.0523891 0.485458 0
392 1 0.00200714 0.466555 0
397 1 0.0886711 0.453326 0
396 1 0.0693327 0.468834 0
426 1 0.0750162 0.493407 0
427 1 0.0938681 0.478385 0
398 1 0.112618 0.462928 0
428 1 0.117609 0.486934 0
429 1 0.136271 0.47088 0
459 1 0.140484 0.497218 0
399 1 0.154716 0.455509 0
400 1 0.180409 0.461063 0
430 1 0.159825 0.479407 0
431 1 0.185974 0.48394 0
404 1 0.225527 0.452439 0
402 1 0.20491 0.468318 0
432 1 0.209966 0.492084 0
433 1 0.230353 0.476764 0
435 1 0.250268 0.461267 0
436 1 0.252432 0.486781 0
408 1 0.290939 0.453237 0
406 1 0.273668 0.47053 0
437 1 0.277626 0.495511 0
439 1 0.296785 0.478079 0
410 1 0.315915 0.460898 0
440 1 0.320782 0.48711 0
441 1 0.340381 0.46955 0
471 1 0.346817 0.493654 0
442 1 0.365859 0.473768 0
473 1 0.388864 0.478789 0
443 1 0.38343 0.454821 0
472 1 0.371786 0.49744 0
477 1 0.440787 0.491672 0
446 1 0.43113 0.468263 0
445 1 0.407835 0.461628 0
444 1 0.413302 0.484738 0
478 1 0.464859 0.497053 0
448 1 0.456461 0.473323 0
449 1 0.477486 0.454578 0
450 1 0.481625 0.47903 0
453 1 0.0119002 0.516585 0
452 1 0.0160005 0.540113 0
454 1 0.0359943 0.524394 0
483 1 0.0389681 0.549277 0
424 1 0.0321187 0.500047 0
485 1 0.0589168 0.533916 0
455 1 0.0561159 0.509047 0
456 1 0.0786504 0.518783 0
486 1 0.0817876 0.543484 0
457 1 0.098235 0.503828 0
487 1 0.101466 0.528363 0
458 1 0.121612 0.512745 0
488 1 0.124513 0.537807 0
489 1 0.14622 0.5215 0
490 1 0.148203 0.546933 0
461 1 0.189408 0.507426 0
462 1 0.195305 0.530545 0
491 1 0.169744 0.530421 0
460 1 0.163458 0.50598 0
493 1 0.218567 0.539493 0
463 1 0.21544 0.515643 0
464 1 0.237864 0.525546 0
495 1 0.241098 0.549198 0
434 1 0.233682 0.501456 0
466 1 0.260794 0.535962 0
465 1 0.257364 0.511005 0
467 1 0.280744 0.520241 0
497 1 0.283493 0.544529 0
468 1 0.303655 0.528722 0
469 1 0.330223 0.51324 0
499 1 0.325906 0.539414 0
438 1 0.302118 0.503771 0
470 1 0.353896 0.516674 0
503 1 0.379609 0.521556 0
474 1 0.396475 0.501854 0
505 1 0.387299 0.545317 0
476 1 0.403983 0.526917 0
509 1 0.428491 0.53448 0
475 1 0.421727 0.510501 0
507 1 0.445639 0.515149 0
479 1 0.4711 0.520473 0
480 1 0.453707 0.539713 0
1381 1 0.49581 0.526517 0
510 1 0.479218 0.544231 0
1351 1 0.489155 0.50261 0
513 1 0.0191496 0.56607 0
514 1 0.0427994 0.575864 0
512 1 0.0231959 0.589943 0
543 1 0.046836 0.600767 0
511 1 -0.000207576 0.580809 0
484 1 0.0618882 0.560065 0
515 1 0.0847783 0.569256 0
545 1 0.0647979 0.585632 0
516 1 0.0887014 0.594275 0
517 1 0.105265 0.553306 0
518 1 0.108441 0.579221 0
519 1 0.128111 0.56351 0
549 1 0.130722 0.590422 0
520 1 0.15138 0.571797 0
521 1 0.171408 0.556071 0
492 1 0.196706 0.554045 0
522 1 0.174943 0.584601 0
523 1 0.197701 0.577546 0
494 1 0.218963 0.563543 0
524 1 0.219285 0.588351 0
525 1 0.241008 0.57305 0
555 1 0.241889 0.597805 0
496 1 0.262464 0.559565 0
526 1 0.263286 0.583869 0
527 1 0.284904 0.569937 0
528 1 0.285311 0.594281 0
498 1 0.305581 0.55399 0
529 1 0.306781 0.580318 0
500 1 0.326885 0.565241 0
530 1 0.328627 0.591128 0
501 1 0.348358 0.548765 0
531 1 0.34915 0.577668 0
502 1 0.368432 0.562843 0
504 1 0.39364 0.571365 0
533 1 0.376145 0.591368 0
506 1 0.410975 0.552324 0
534 1 0.402155 0.594423 0
535 1 0.418998 0.576303 0
508 1 0.435696 0.557698 0
537 1 0.444506 0.581447 0
539 1 0.463143 0.563255 0
540 1 0.486043 0.568603 0
538 1 0.468733 0.588381 0
569 1 0.493558 0.593316 0
542 1 0.0253085 0.615009 0
571 1 0.00361094 0.628603 0
573 1 0.0274577 0.638193 0
544 1 0.0485065 0.624814 0
541 1 0.0022997 0.605265 0
546 1 0.068735 0.610561 0
547 1 0.0919025 0.620592 0
575 1 0.0714025 0.634954 0
576 1 0.0938561 0.645932 0
574 1 0.0510273 0.649206 0
548 1 0.111126 0.606032 0
550 1 0.135005 0.616407 0
577 1 0.114446 0.631041 0
579 1 0.137844 0.641499 0
553 1 0.197252 0.601247 0
551 1 0.153692 0.598741 0
581 1 0.157249 0.62719 0
552 1 0.17602 0.612418 0
582 1 0.178691 0.638293 0
583 1 0.198683 0.623805 0
554 1 0.220503 0.612567 0
556 1 0.242935 0.623871 0
585 1 0.222806 0.638097 0
586 1 0.245642 0.648646 0
557 1 0.264246 0.608279 0
587 1 0.265485 0.634534 0
558 1 0.286104 0.620005 0
589 1 0.287988 0.645625 0
559 1 0.306775 0.605409 0
560 1 0.308604 0.630796 0
561 1 0.327861 0.615946 0
591 1 0.329619 0.64197 0
562 1 0.349174 0.626814 0
532 1 0.350026 0.601671 0
563 1 0.386127 0.615146 0
564 1 0.371481 0.635093 0
595 1 0.39537 0.639016 0
536 1 0.426712 0.599874 0
565 1 0.411347 0.619715 0
566 1 0.43558 0.624314 0
596 1 0.419233 0.642956 0
598 1 0.442218 0.649135 0
567 1 0.451721 0.605593 0
597 1 0.460491 0.630316 0
568 1 0.477626 0.612127 0
570 1 0.483946 0.635681 0
572 1 0.00578395 0.652632 0
603 1 0.0295214 0.663471 0
602 1 0.00820616 0.677746 0
633 1 0.0306475 0.687993 0
604 1 0.052014 0.674376 0
605 1 0.0740915 0.660428 0
606 1 0.0757347 0.685899 0
607 1 0.0963399 0.671073 0
637 1 0.0981019 0.695936 0
635 1 0.0551116 0.699109 0
578 1 0.116118 0.656905 0
609 1 0.139348 0.667734 0
608 1 0.118945 0.681892 0
639 1 0.141677 0.693165 0
580 1 0.158818 0.65271 0
611 1 0.181091 0.663406 0
610 1 0.161504 0.678677 0
612 1 0.183934 0.689946 0
584 1 0.200492 0.649539 0
613 1 0.204413 0.674409 0
615 1 0.22493 0.662478 0
614 1 0.225839 0.687944 0
617 1 0.246917 0.67436 0
616 1 0.248311 0.698171 0
588 1 0.268157 0.660023 0
619 1 0.290715 0.672153 0
618 1 0.26956 0.684175 0
590 1 0.310659 0.657257 0
621 1 0.31477 0.681264 0
592 1 0.334122 0.666486 0
622 1 0.339029 0.690944 0
593 1 0.353201 0.651013 0
623 1 0.358605 0.675751 0
594 1 0.379557 0.65865 0
624 1 0.384278 0.682573 0
653 1 0.366468 0.698935 0
625 1 0.402852 0.662932 0
627 1 0.426187 0.667715 0
626 1 0.407718 0.686957 0
657 1 0.431131 0.692638 0
628 1 0.449889 0.674599 0
599 1 0.466402 0.654959 0
600 1 0.490016 0.660482 0
629 1 0.473898 0.679566 0
630 1 0.498017 0.685997 0
658 1 0.455445 0.699041 0
632 1 0.00992204 0.702391 0
634 1 0.0335617 0.713233 0
663 1 0.0135879 0.727755 0
664 1 0.0362585 0.736812 0
636 1 0.0774385 0.711153 0
665 1 0.0576383 0.723609 0
666 1 0.0801656 0.73565 0
695 1 0.058773 0.748507 0
667 1 0.101754 0.721387 0
638 1 0.12111 0.707015 0
640 1 0.144292 0.718409 0
669 1 0.123619 0.731285 0
668 1 0.102777 0.746845 0
670 1 0.145387 0.744406 0
641 1 0.164126 0.70388 0
642 1 0.185191 0.715589 0
671 1 0.165619 0.730571 0
673 1 0.1868 0.741438 0
643 1 0.20532 0.700923 0
645 1 0.227597 0.71247 0
644 1 0.206991 0.727607 0
675 1 0.229702 0.73718 0
646 1 0.250113 0.722804 0
647 1 0.271224 0.707503 0
677 1 0.25148 0.747899 0
648 1 0.271937 0.732191 0
679 1 0.293629 0.741504 0
649 1 0.293738 0.716844 0
620 1 0.321516 0.707279 0
651 1 0.347831 0.713562 0
650 1 0.330552 0.731808 0
652 1 0.354478 0.741189 0
655 1 0.389742 0.705759 0
654 1 0.371332 0.723924 0
685 1 0.395752 0.729672 0
683 1 0.379897 0.747206 0
656 1 0.412806 0.711492 0
687 1 0.437894 0.716809 0
686 1 0.420258 0.736038 0
717 1 0.444891 0.741016 0
659 1 0.479898 0.704427 0
689 1 0.463038 0.723122 0
660 1 0.487218 0.727885 0
688 1 0.468 0.747872 0
662 1 0.015929 0.752347 0
694 1 0.0387265 0.76089 0
693 1 0.0176765 0.777374 0
725 1 0.0401937 0.78589 0
697 1 0.0810976 0.759199 0
696 1 0.0601097 0.772366 0
727 1 0.0839075 0.784611 0
726 1 0.0634663 0.796189 0
699 1 0.125939 0.757451 0
698 1 0.10488 0.770692 0
700 1 0.126123 0.78256 0
728 1 0.106582 0.796657 0
701 1 0.146588 0.769577 0
731 1 0.14826 0.794748 0
672 1 0.168011 0.756687 0
703 1 0.18945 0.766005 0
702 1 0.169287 0.78174 0
704 1 0.190728 0.79132 0
674 1 0.209267 0.7522 0
676 1 0.231219 0.763022 0
705 1 0.211369 0.777748 0
706 1 0.233275 0.788479 0
707 1 0.253544 0.77241 0
678 1 0.274173 0.756949 0
709 1 0.27828 0.781179 0
680 1 0.296851 0.767296 0
737 1 0.257478 0.796558 0
710 1 0.300147 0.790816 0
681 1 0.315199 0.750978 0
682 1 0.338172 0.759645 0
711 1 0.320074 0.776042 0
712 1 0.344775 0.783004 0
713 1 0.362475 0.766604 0
714 1 0.385591 0.771643 0
743 1 0.367597 0.790967 0
745 1 0.391598 0.796432 0
684 1 0.402826 0.751953 0
715 1 0.426979 0.759023 0
716 1 0.408385 0.777783 0
747 1 0.433317 0.784572 0
718 1 0.450213 0.765315 0
690 1 0.491877 0.752053 0
719 1 0.475157 0.770843 0
720 1 0.482038 0.795448 0
749 1 0.45781 0.789308 0
1591 1 0.499359 0.776525 0
723 1 0.0199963 0.802071 0
722 1 0.0198812 0.833906 0
724 1 0.0429569 0.811001 0
754 1 0.0436481 0.834694 0
757 1 0.0857967 0.809327 0
755 1 0.065033 0.821638 0
756 1 0.0853224 0.836745 0
729 1 0.127269 0.808454 0
759 1 0.105921 0.821019 0
760 1 0.128617 0.831642 0
758 1 0.106485 0.84946 0
730 1 0.149706 0.81925 0
732 1 0.170593 0.807612 0
761 1 0.151561 0.845376 0
763 1 0.172696 0.83386 0
733 1 0.194491 0.819149 0
764 1 0.19548 0.84423 0
735 1 0.21439 0.803535 0
736 1 0.238473 0.813276 0
734 1 0.217649 0.827849 0
767 1 0.240266 0.839203 0
708 1 0.281116 0.806551 0
738 1 0.261224 0.822509 0
769 1 0.284076 0.833454 0
768 1 0.264486 0.846397 0
741 1 0.3242 0.801133 0
739 1 0.303782 0.815647 0
740 1 0.30854 0.838861 0
771 1 0.330766 0.825262 0
742 1 0.349687 0.807827 0
772 1 0.341039 0.850739 0
773 1 0.356378 0.83146 0
744 1 0.373056 0.814507 0
774 1 0.380296 0.839001 0
775 1 0.398223 0.821367 0
746 1 0.415923 0.802769 0
748 1 0.440451 0.807569 0
777 1 0.423383 0.826718 0
776 1 0.405906 0.843893 0
779 1 0.448764 0.832303 0
750 1 0.46344 0.812556 0
1621 1 0.488918 0.81877 0
780 1 0.472899 0.83802 0
1651 1 0.496424 0.843194 0
753 1 0.0414558 0.858894 0
752 1 0.0159008 0.861081 0
783 1 0.0346813 0.880543 0
782 1 0.00923808 0.8866 0
785 1 0.0640474 0.85018 0
784 1 0.0603944 0.875514 0
786 1 0.0773461 0.892852 0
787 1 0.0835616 0.865086 0
815 1 0.0530052 0.899005 0
817 1 0.100811 0.884057 0
789 1 0.131037 0.856728 0
788 1 0.126498 0.88123 0
790 1 0.144496 0.898183 0
791 1 0.150017 0.873212 0
762 1 0.172744 0.860564 0
793 1 0.170203 0.889473 0
795 1 0.195844 0.883774 0
765 1 0.218303 0.852422 0
796 1 0.220302 0.876923 0
825 1 0.23749 0.896348 0
766 1 0.24391 0.864239 0
797 1 0.268634 0.870741 0
827 1 0.261258 0.893537 0
799 1 0.29297 0.858191 0
798 1 0.285987 0.88727 0
770 1 0.318865 0.860254 0
800 1 0.310005 0.882485 0
801 1 0.338892 0.874619 0
831 1 0.328659 0.89919 0
802 1 0.353581 0.893252 0
803 1 0.363999 0.862636 0
804 1 0.378742 0.886095 0
805 1 0.388503 0.861988 0
778 1 0.430186 0.851281 0
807 1 0.413257 0.868524 0
808 1 0.436494 0.875124 0
837 1 0.41996 0.894133 0
809 1 0.454041 0.856331 0
1681 1 0.479367 0.862045 0
1711 1 0.485357 0.885627 0
810 1 0.461002 0.87987 0
813 1 0.0283907 0.905101 0
843 1 0.0210462 0.929425 0
814 1 0.0458483 0.923481 0
844 1 0.0390407 0.946232 0
812 1 0.00265648 0.911251 0
816 1 0.0938788 0.910424 0
845 1 0.0700157 0.917131 0
846 1 0.0624964 0.94138 0
847 1 0.0881928 0.934478 0
819 1 0.119369 0.904892 0
818 1 0.113072 0.927875 0
820 1 0.131172 0.945702 0
821 1 0.137942 0.92142 0
792 1 0.162316 0.914152 0
851 1 0.156002 0.938408 0
823 1 0.188019 0.907285 0
822 1 0.180364 0.932743 0
794 1 0.214138 0.902272 0
824 1 0.205118 0.924981 0
885 1 0.222373 0.944352 0
855 1 0.230535 0.920215 0
856 1 0.246836 0.941178 0
826 1 0.254733 0.917546 0
857 1 0.271834 0.935613 0
828 1 0.278743 0.912018 0
859 1 0.296814 0.930204 0
829 1 0.303037 0.906946 0
830 1 0.321234 0.923303 0
861 1 0.339525 0.940135 0
860 1 0.315113 0.946799 0
832 1 0.34821 0.916454 0
863 1 0.364275 0.934048 0
833 1 0.372778 0.910173 0
834 1 0.389516 0.926978 0
806 1 0.396203 0.903914 0
835 1 0.414605 0.920368 0
836 1 0.430215 0.942933 0
865 1 0.404871 0.947355 0
838 1 0.44931 0.919727 0
869 1 0.459204 0.944566 0
839 1 0.46936 0.90351 0
840 1 0.477639 0.927992 0
1712 1 0.494478 0.908995 0
842 1 0.0147351 0.952856 0
872 1 0.0245343 0.994166 0
873 1 0.030968 0.969955 0
871 1 0.00594251 0.976156 0
874 1 0.0487255 0.987997 0
875 1 0.0553143 0.964299 0
876 1 0.0736569 0.980066 0
848 1 0.0820139 0.957563 0
877 1 0.0990157 0.975406 0
7 1 0.0907989 0.997956 0
849 1 0.105532 0.951508 0
878 1 0.115555 0.992718 0
879 1 0.123309 0.969139 0
881 1 0.141459 0.986224 0
850 1 0.148329 0.962662 0
854 1 0.198214 0.949259 0
853 1 0.173598 0.957167 0
852 1 0.165116 0.980314 0
883 1 0.190683 0.974509 0
882 1 0.181527 0.999239 0
13 1 0.206081 0.99343 0
15 1 0.231455 0.987582 0
884 1 0.215194 0.969189 0
886 1 0.238632 0.964067 0
858 1 0.290074 0.953987 0
887 1 0.264354 0.959003 0
17 1 0.255042 0.981851 0
888 1 0.281772 0.977166 0
19 1 0.299604 0.994488 0
889 1 0.307437 0.971571 0
890 1 0.325078 0.989925 0
891 1 0.332111 0.964794 0
892 1 0.349698 0.983541 0
862 1 0.357144 0.956733 0
864 1 0.3821 0.951886 0
893 1 0.372334 0.975881 0
894 1 0.389972 0.995321 0
895 1 0.396771 0.971359 0
866 1 0.420391 0.965834 0
896 1 0.414467 0.98998 0
867 1 0.444158 0.963536 0
897 1 0.451113 0.98958 0
899 1 0.476066 0.993972 0
870 1 0.483261 0.950905 0
1771 1 0.493188 0.975221 0
868 1 0.469199 0.969272 0
902 1 0.535454 0.0260935 0
901 1 0.510317 0.0217773 0
931 1 0.519137 0.0438214 0
903 1 0.526194 0.0019969 0
933 1 0.544586 0.0493024 0
904 1 0.560441 0.0313502 0
906 1 0.576244 0.013145 0
935 1 0.585343 0.0376204 0
905 1 0.551895 0.00727839 0
908 1 0.600443 0.0184257 0
937 1 0.608775 0.0436591 0
939 1 0.624852 0.0237479 0
910 1 0.642191 0.00625475 0
938 1 0.633666 0.0490954 0
909 1 0.61747 0.000720398 0
941 1 0.650643 0.0306394 0
912 1 0.668199 0.0106056 0
942 1 0.676266 0.0357923 0
943 1 0.691913 0.0174889 0
973 1 0.699777 0.0400884 0
944 1 0.716518 0.0218304 0
945 1 0.732511 0.00396362 0
946 1 0.740906 0.0267358 0
975 1 0.7247 0.0464586 0
947 1 0.757146 0.00982643 0
948 1 0.76646 0.0329442 0
918 1 0.782534 0.0122908 0
979 1 0.800821 0.0482165 0
921 1 0.820212 0.00225445 0
949 1 0.806958 0.0229372 0
951 1 0.833962 0.0209381 0
950 1 0.82573 0.0435614 0
952 1 0.851124 0.0380223 0
953 1 0.859377 0.0145618 0
924 1 0.884471 0.00674403 0
954 1 0.876514 0.0316596 0
985 1 0.891525 0.051272 0
955 1 0.899931 0.0259304 0
926 1 0.923297 0.0202229 0
957 1 0.941496 0.036863 0
956 1 0.915454 0.0439567 0
925 1 0.907934 0.00101185 0
928 1 0.948913 0.0130003 0
959 1 0.965993 0.0309854 0
930 1 0.99113 0.0235145 0
929 1 0.973573 0.00613771 0
1 1 1.0002 -0.000392964 0
960 1 0.984218 0.0476174 0
932 1 0.527937 0.0675968 0
962 1 0.533371 0.0913339 0
961 1 0.509771 0.0853485 0
60 1 0.503023 0.0623302 0
963 1 0.552255 0.0745023 0
934 1 0.568313 0.0546392 0
965 1 0.57595 0.0789578 0
964 1 0.559525 0.0972899 0
936 1 0.591565 0.0614054 0
966 1 0.601005 0.0847303 0
967 1 0.617259 0.0666364 0
968 1 0.625437 0.0893843 0
969 1 0.643199 0.0722943 0
999 1 0.65031 0.0959612 0
940 1 0.65859 0.0531803 0
970 1 0.667283 0.0779223 0
971 1 0.683422 0.059464 0
972 1 0.691362 0.0825504 0
1003 1 0.707917 0.0641031 0
1004 1 0.716787 0.0874339 0
974 1 0.734302 0.0693745 0
1005 1 0.739757 0.0950284 0
976 1 0.749659 0.0513002 0
1007 1 0.759697 0.0731923 0
977 1 0.776445 0.0550002 0
978 1 0.79383 0.0725486 0
1006 1 0.763225 0.0985557 0
1008 1 0.786831 0.0983596 0
980 1 0.81836 0.0672817 0
981 1 0.842925 0.0625606 0
1009 1 0.809716 0.0903507 0
1011 1 0.833675 0.0871454 0
982 1 0.860149 0.0804126 0
983 1 0.867782 0.0567878 0
984 1 0.884363 0.074761 0
1013 1 0.876951 0.098296 0
1015 1 0.901722 0.0921209 0
986 1 0.908976 0.0673203 0
987 1 0.934265 0.0621807 0
1017 1 0.925474 0.085082 0
988 1 0.952476 0.0783534 0
958 1 0.958002 0.0551956 0
989 1 0.977773 0.0710136 0
990 1 0.993349 0.0900503 0
1019 1 0.969002 0.0968519 0
991 1 0.517417 0.109329 0
992 1 0.524638 0.133488 0
993 1 0.543322 0.114076 0
1021 1 0.505953 0.149084 0
1023 1 0.548919 0.140543 0
995 1 0.584207 0.103668 0
994 1 0.567309 0.120612 0
996 1 0.592951 0.127111 0
1025 1 0.573106 0.144456 0
997 1 0.608096 0.107756 0
998 1 0.632243 0.113058 0
1027 1 0.616606 0.131929 0
1029 1 0.641051 0.138595 0
1001 1 0.675057 0.102268 0
1000 1 0.657082 0.120581 0
1031 1 0.681835 0.126139 0
1030 1 0.665159 0.14331 0
1032 1 0.690148 0.149965 0
1002 1 0.699921 0.106503 0
1033 1 0.706426 0.130324 0
1035 1 0.723485 0.112552 0
1034 1 0.732861 0.137044 0
1036 1 0.747663 0.118201 0
1037 1 0.776944 0.122587 0
1038 1 0.795179 0.143807 0
1067 1 0.759971 0.140984 0
1039 1 0.802757 0.118635 0
1010 1 0.8265 0.110425 0
1040 1 0.820579 0.134217 0
1041 1 0.844625 0.129007 0
1012 1 0.850919 0.104227 0
1043 1 0.868315 0.123296 0
1014 1 0.892973 0.116174 0
1044 1 0.886013 0.140082 0
1042 1 0.862418 0.147047 0
1045 1 0.911661 0.133034 0
1016 1 0.919237 0.108551 0
1047 1 0.937135 0.125788 0
1018 1 0.943716 0.101386 0
1077 1 0.930579 0.150635 0
1049 1 0.961481 0.119832 0
1020 1 0.987174 0.113238 0
1050 1 0.980808 0.137129 0
1046 1 0.955285 0.143007 0
1022 1 0.530329 0.156658 0
1053 1 0.538147 0.181109 0
1051 1 0.512993 0.174535 0
1052 1 0.519078 0.198702 0
1026 1 0.597286 0.151461 0
1024 1 0.55567 0.163854 0
1055 1 0.579952 0.168765 0
1054 1 0.561549 0.187062 0
1056 1 0.586687 0.19164 0
1028 1 0.622079 0.156516 0
1057 1 0.604472 0.174733 0
1058 1 0.62845 0.179788 0
1087 1 0.611592 0.198507 0
1059 1 0.646362 0.16206 0
1060 1 0.653764 0.185236 0
1061 1 0.671855 0.16735 0
1091 1 0.679824 0.191856 0
1062 1 0.697859 0.17337 0
1063 1 0.715349 0.155109 0
1064 1 0.722425 0.179435 0
1095 1 0.748662 0.185184 0
1093 1 0.703333 0.197999 0
1065 1 0.740681 0.160373 0
1066 1 0.764356 0.16708 0
1068 1 0.78905 0.168129 0
1097 1 0.773985 0.190015 0
1071 1 0.838125 0.152464 0
1069 1 0.813092 0.159674 0
1070 1 0.831529 0.178013 0
1099 1 0.806951 0.184115 0
1101 1 0.849478 0.195168 0
1072 1 0.856188 0.170867 0
1073 1 0.880187 0.163467 0
1103 1 0.873838 0.188532 0
1074 1 0.897698 0.182524 0
1075 1 0.905334 0.156623 0
1076 1 0.922129 0.175257 0
1107 1 0.940681 0.192323 0
1078 1 0.946992 0.16741 0
1048 1 0.972108 0.160941 0
151 1 0.998683 0.155876 0
1079 1 0.988014 0.179205 0
1109 1 0.964357 0.184519 0
1083 1 0.543951 0.204569 0
1082 1 0.527158 0.222451 0
1111 1 0.509161 0.239727 0
1113 1 0.534466 0.246767 0
1081 1 0.502997 0.216188 0
1084 1 0.550865 0.227975 0
1085 1 0.567726 0.21087 0
1086 1 0.593012 0.215726 0
1115 1 0.575126 0.233798 0
1117 1 0.600916 0.239291 0
1089 1 0.637026 0.203262 0
1088 1 0.618194 0.221561 0
1119 1 0.642108 0.228097 0
1118 1 0.624943 0.245829 0
1090 1 0.661254 0.209151 0
1092 1 0.68664 0.216334 0
1121 1 0.668085 0.234145 0
1122 1 0.694462 0.239076 0
1120 1 0.649391 0.251246 0
1094 1 0.730341 0.202476 0
1123 1 0.712271 0.221411 0
1124 1 0.72008 0.245413 0
1125 1 0.736622 0.225979 0
1096 1 0.754938 0.20771 0
1127 1 0.778811 0.215978 0
1126 1 0.760692 0.233929 0
1128 1 0.794501 0.233738 0
1098 1 0.800889 0.208194 0
1100 1 0.824408 0.201546 0
1131 1 0.844852 0.219284 0
1129 1 0.819724 0.225244 0
1130 1 0.837002 0.242634 0
1159 1 0.813463 0.249585 0
1102 1 0.868438 0.213355 0
1104 1 0.892188 0.207168 0
1132 1 0.862241 0.237038 0
1133 1 0.886435 0.23139 0
1105 1 0.916412 0.199924 0
1135 1 0.909709 0.225271 0
1106 1 0.932856 0.218346 0
1136 1 0.927923 0.2427 0
1134 1 0.903608 0.249647 0
181 1 0.99959 0.221142 0
1137 1 0.951498 0.234825 0
1108 1 0.957008 0.211339 0
1110 1 0.980309 0.202886 0
1139 1 0.975731 0.227464 0
1140 1 0.993644 0.245374 0
1112 1 0.517451 0.264417 0
1143 1 0.540432 0.270906 0
1142 1 0.522635 0.289134 0
1144 1 0.547675 0.293343 0
1114 1 0.558733 0.2522 0
1116 1 0.583626 0.256918 0
1145 1 0.565756 0.275441 0
1146 1 0.589591 0.280679 0
1175 1 0.572136 0.299231 0
1147 1 0.608605 0.264396 0
1149 1 0.632404 0.268827 0
1148 1 0.615072 0.287254 0
1179 1 0.639102 0.293349 0
1151 1 0.676092 0.257319 0
1150 1 0.656394 0.274052 0
1152 1 0.680823 0.281454 0