ITEM: TIMESTEP
46000
ITEM: NUMBER OF ATOMS
1800
ITEM: BOX BOUNDS pp pp pp
2.9234275522282616e+00 1.5547657244777156e+02
2.9234275522282616e+00 1.5547657244777156e+02
0.0000000000000000e+00 5.2800000000000002e+00
ITEM: ATOMS id type xs ys zs
2 1 0.016037 0.0183368 0
3 1 0.0416228 0.0116365 0
33 1 0.0330126 0.035966 0
31 1 0.00900278 0.0428358 0
4 1 0.0599819 0.0286312 0
6 1 0.0838604 0.0215572 0
5 1 0.0661986 0.00456214 0
35 1 0.0756771 0.0468501 0
37 1 0.100651 0.0394574 0
8 1 0.108195 0.0144401 0
9 1 0.126485 0.0333622 0
880 1 0.13221 0.0074847 0
10 1 0.149541 0.0250417 0
39 1 0.143125 0.0505619 0
11 1 0.156578 0.00155208 0
12 1 0.174101 0.0201493 0
43 1 0.192242 0.0412323 0
41 1 0.168295 0.0443213 0
14 1 0.198672 0.0169896 0
44 1 0.216471 0.0344774 0
45 1 0.22426 0.0110775 0
46 1 0.241856 0.0294019 0
16 1 0.249025 0.0061501 0
47 1 0.267434 0.0236029 0
49 1 0.291835 0.0191778 0
48 1 0.2839 0.0424249 0
18 1 0.273596 0.00103704 0
77 1 0.259277 0.0470838 0
50 1 0.309528 0.0371047 0
20 1 0.31733 0.0141957 0
51 1 0.335876 0.0336698 0
21 1 0.341162 0.00937122 0
23 1 0.365982 0.00302312 0
22 1 0.359762 0.0286489 0
24 1 0.38228 0.021298 0
53 1 0.377649 0.0456267 0
55 1 0.402779 0.0393457 0
25 1 0.40578 0.0155807 0
26 1 0.432293 0.0376574 0
27 1 0.430992 0.0131384 0
899 1 0.471046 0.00158954 0
898 1 0.45351 0.0196591 0
28 1 0.45782 0.0446984 0
29 1 0.476254 0.0283638 0
900 1 0.493618 0.00658967 0
30 1 0.499875 0.035363 0
61 1 0.00093111 0.0667034 0
32 1 0.0267111 0.0604917 0
62 1 0.0188458 0.0840503 0
63 1 0.0446969 0.0772101 0
34 1 0.0507609 0.0518454 0
65 1 0.0696621 0.0701554 0
66 1 0.0860479 0.0878591 0
36 1 0.0939841 0.0643663 0
64 1 0.0607749 0.0952664 0
38 1 0.118026 0.056956 0
67 1 0.110675 0.0821407 0
69 1 0.134964 0.0741873 0
68 1 0.129164 0.0986324 0
70 1 0.153341 0.0916201 0
40 1 0.159862 0.0678953 0
71 1 0.176373 0.0866402 0
42 1 0.184784 0.0640711 0
72 1 0.201118 0.0810654 0
73 1 0.209112 0.0579619 0
74 1 0.226162 0.0756038 0
75 1 0.234636 0.0525509 0
106 1 0.242967 0.0937986 0
103 1 0.21841 0.0983161 0
76 1 0.252122 0.0708604 0
78 1 0.276608 0.0658806 0
109 1 0.294673 0.0862316 0
107 1 0.268981 0.090558 0
79 1 0.30217 0.0621081 0
80 1 0.319358 0.0805722 0
81 1 0.327795 0.0574659 0
82 1 0.344521 0.0749489 0
52 1 0.352355 0.0511989 0
54 1 0.393367 0.0652138 0
83 1 0.369112 0.0686096 0
113 1 0.382234 0.0889927 0
56 1 0.417243 0.0577189 0
57 1 0.441432 0.0620548 0
85 1 0.424933 0.0803863 0
87 1 0.44825 0.0879578 0
84 1 0.407016 0.0966896 0
59 1 0.481347 0.0524101 0
88 1 0.470896 0.0938786 0
58 1 0.466171 0.071134 0
89 1 0.489425 0.0768169 0
93 1 0.035539 0.1015 0
92 1 0.0288898 0.12438 0
91 1 0.0111223 0.10835 0
123 1 0.0475802 0.141564 0
121 1 0.00500356 0.13177 0
122 1 0.0221939 0.148268 0
94 1 0.0536111 0.118583 0
95 1 0.0784051 0.111857 0
125 1 0.0715885 0.136271 0
96 1 0.0966803 0.12999 0
97 1 0.102219 0.105283 0
98 1 0.122033 0.122631 0
99 1 0.14614 0.115829 0
129 1 0.138647 0.140133 0
127 1 0.114104 0.145632 0
100 1 0.170643 0.110439 0
130 1 0.162471 0.133391 0
131 1 0.187176 0.128599 0
101 1 0.194757 0.104078 0
133 1 0.202871 0.147004 0
102 1 0.212195 0.121524 0
105 1 0.236908 0.118333 0
104 1 0.227805 0.141283 0
136 1 0.252922 0.140166 0
135 1 0.262408 0.114 0
137 1 0.275879 0.133623 0
108 1 0.286618 0.109687 0
139 1 0.30187 0.134866 0
111 1 0.337935 0.101441 0
110 1 0.312038 0.110157 0
141 1 0.346979 0.124223 0
140 1 0.32987 0.143082 0
112 1 0.363686 0.105645 0
114 1 0.388977 0.113116 0
143 1 0.371738 0.131717 0
144 1 0.396048 0.138186 0
142 1 0.352949 0.150024 0
86 1 0.429837 0.105316 0
115 1 0.412575 0.120692 0
116 1 0.437883 0.129142 0
145 1 0.418682 0.145977 0
90 1 0.496304 0.101082 0
117 1 0.45444 0.112189 0
118 1 0.461414 0.135976 0
119 1 0.478867 0.118976 0
149 1 0.486518 0.141597 0
153 1 0.0401081 0.166446 0
152 1 0.0161149 0.173004 0
183 1 0.0333376 0.189581 0
1080 1 0.0103491 0.198051 0
124 1 0.0633795 0.159457 0
126 1 0.0889926 0.152813 0
155 1 0.0798761 0.177713 0
154 1 0.0569043 0.183497 0
156 1 0.0982178 0.194004 0
128 1 0.130283 0.163836 0
157 1 0.106648 0.168538 0
160 1 0.146824 0.181034 0
158 1 0.122447 0.186896 0
159 1 0.154902 0.157726 0
161 1 0.171396 0.176005 0
132 1 0.17822 0.152116 0
162 1 0.189468 0.194869 0
163 1 0.196793 0.170482 0
191 1 0.164863 0.199122 0
134 1 0.220365 0.164263 0
164 1 0.230224 0.185406 0
165 1 0.247229 0.164651 0
166 1 0.253552 0.18891 0
167 1 0.270625 0.173134 0
138 1 0.28657 0.155526 0
168 1 0.295634 0.178309 0
197 1 0.277466 0.196396 0
169 1 0.312271 0.159669 0
171 1 0.335335 0.166568 0
170 1 0.318724 0.183814 0
201 1 0.342656 0.190694 0
172 1 0.359546 0.173744 0
173 1 0.377433 0.153758 0
174 1 0.383955 0.181417 0
203 1 0.366667 0.198952 0
175 1 0.401028 0.162603 0
147 1 0.444187 0.152809 0
146 1 0.425414 0.169566 0
205 1 0.408476 0.187696 0
176 1 0.431868 0.192948 0
177 1 0.450147 0.176825 0
148 1 0.46809 0.160146 0
150 1 0.4933 0.166122 0
179 1 0.475088 0.183353 0
182 1 0.02551 0.216181 0
213 1 0.0432259 0.232657 0
211 1 0.0199236 0.241102 0
181 1 0.00321121 0.222579 0
184 1 0.0497561 0.207021 0
185 1 0.0747344 0.201379 0
186 1 0.090661 0.219212 0
215 1 0.0667454 0.225572 0
216 1 0.0829973 0.242627 0
187 1 0.115152 0.210709 0
188 1 0.133289 0.226921 0
189 1 0.140599 0.204207 0
217 1 0.109565 0.233918 0
190 1 0.157936 0.222904 0
192 1 0.194662 0.21851 0
221 1 0.176762 0.237303 0
220 1 0.152804 0.246609 0
193 1 0.212925 0.201859 0
223 1 0.200636 0.242349 0
194 1 0.21911 0.225244 0
195 1 0.23582 0.207801 0
225 1 0.243821 0.231693 0
196 1 0.259792 0.214176 0
198 1 0.284513 0.220458 0
227 1 0.267079 0.239515 0
228 1 0.290948 0.244586 0
199 1 0.301602 0.202597 0
200 1 0.32455 0.207568 0
229 1 0.308516 0.226998 0
231 1 0.331613 0.232996 0
202 1 0.348832 0.214943 0
204 1 0.390895 0.205161 0
233 1 0.371797 0.223556 0
235 1 0.395291 0.230327 0
232 1 0.354495 0.242387 0
234 1 0.377692 0.248564 0
207 1 0.438508 0.21872 0
206 1 0.419271 0.235617 0
237 1 0.443294 0.242574 0
178 1 0.45548 0.200208 0
208 1 0.461347 0.224211 0
209 1 0.479317 0.206881 0
210 1 0.48549 0.231612 0
239 1 0.468094 0.248904 0
212 1 0.0133779 0.264036 0
243 1 0.0386125 0.259205 0
241 1 0.0112355 0.287665 0
242 1 0.0356208 0.296759 0
214 1 0.0600662 0.249594 0
244 1 0.0552847 0.277219 0
245 1 0.077 0.266713 0
275 1 0.0755336 0.291786 0
247 1 0.0966581 0.279715 0
218 1 0.102566 0.256635 0
219 1 0.127164 0.250568 0
249 1 0.14022 0.26977 0
248 1 0.120187 0.28321 0
250 1 0.144989 0.293464 0
222 1 0.183144 0.260369 0
251 1 0.163743 0.275526 0
252 1 0.18741 0.283634 0
224 1 0.226118 0.250153 0
253 1 0.206744 0.266026 0
255 1 0.230579 0.274547 0
254 1 0.21129 0.290067 0
285 1 0.234389 0.29796 0
226 1 0.249441 0.256986 0
256 1 0.25349 0.280834 0
257 1 0.273723 0.263215 0
259 1 0.2981 0.270255 0
258 1 0.278744 0.286866 0
230 1 0.314386 0.251459 0
289 1 0.302785 0.294602 0
260 1 0.321605 0.277993 0
261 1 0.337342 0.260374 0
262 1 0.344958 0.285462 0
263 1 0.361312 0.267628 0
264 1 0.385297 0.272938 0
293 1 0.369201 0.291375 0
295 1 0.392218 0.29628 0
265 1 0.402452 0.253556 0
236 1 0.426294 0.260396 0
266 1 0.408994 0.278535 0
267 1 0.432939 0.284714 0
238 1 0.451356 0.266633 0
240 1 0.492147 0.25436 0
269 1 0.4749 0.272563 0
268 1 0.459489 0.290811 0
270 1 0.483534 0.2958 0
271 1 0.0156464 0.311594 0
272 1 0.0376453 0.321926 0
301 1 0.0195882 0.337711 0
303 1 0.0426625 0.346918 0
273 1 0.0576019 0.306851 0
276 1 0.0807083 0.316641 0
274 1 0.0626401 0.332568 0
305 1 0.086048 0.340364 0
246 1 0.0999611 0.303009 0
279 1 0.124986 0.308355 0
277 1 0.106099 0.326291 0
278 1 0.129798 0.333645 0
307 1 0.109962 0.350359 0
280 1 0.148948 0.316719 0
281 1 0.167654 0.300397 0
311 1 0.15401 0.340517 0
283 1 0.19288 0.306307 0
282 1 0.173508 0.325003 0
312 1 0.180244 0.348589 0
313 1 0.199801 0.331227 0
284 1 0.217113 0.314746 0
315 1 0.223305 0.339649 0
286 1 0.240792 0.3223 0
316 1 0.248106 0.346103 0
287 1 0.260199 0.304211 0
288 1 0.284268 0.312005 0
317 1 0.264982 0.328026 0
319 1 0.290183 0.335621 0
291 1 0.326938 0.303546 0
290 1 0.308762 0.318909 0
321 1 0.315046 0.345892 0
292 1 0.332712 0.327387 0
323 1 0.350303 0.309818 0
294 1 0.374847 0.314497 0
324 1 0.35718 0.333586 0
325 1 0.380677 0.339032 0
296 1 0.397499 0.32057 0
297 1 0.415746 0.303758 0
326 1 0.404249 0.344402 0
298 1 0.441062 0.308755 0
327 1 0.422224 0.327485 0
328 1 0.445866 0.332744 0
299 1 0.464233 0.313957 0
300 1 0.488003 0.319221 0
1201 1 0.493664 0.344412 0
329 1 0.471152 0.338254 0
331 1 0.00425153 0.376634 0
302 1 0.0229978 0.36199 0
332 1 0.0281584 0.386264 0
333 1 0.0476978 0.371509 0
334 1 0.0516075 0.39611 0
304 1 0.0669384 0.356351 0
306 1 0.0898125 0.365104 0
335 1 0.072572 0.38153 0
337 1 0.096635 0.389872 0
309 1 0.13398 0.357754 0
308 1 0.114913 0.372916 0
339 1 0.138104 0.380863 0
338 1 0.119421 0.397292 0
310 1 0.158853 0.365431 0
341 1 0.163238 0.388834 0
343 1 0.183526 0.372678 0
342 1 0.187696 0.396309 0
314 1 0.203528 0.355504 0
345 1 0.228034 0.363935 0
344 1 0.207581 0.379612 0
375 1 0.231968 0.389305 0
346 1 0.252066 0.371815 0
377 1 0.256767 0.396191 0
318 1 0.271236 0.353767 0
349 1 0.297215 0.361857 0
347 1 0.276273 0.377765 0
350 1 0.301155 0.386971 0
322 1 0.339921 0.35169 0
320 1 0.320194 0.370079 0
351 1 0.343805 0.375926 0
381 1 0.326695 0.393123 0
353 1 0.362423 0.358388 0
355 1 0.387332 0.362305 0
354 1 0.367178 0.383083 0
385 1 0.390659 0.38916 0
357 1 0.429158 0.350963 0
356 1 0.411639 0.36839 0
387 1 0.435103 0.374159 0
386 1 0.417027 0.393002 0
388 1 0.443351 0.396747 0
358 1 0.459741 0.37967 0
359 1 0.453265 0.356347 0
330 1 0.477203 0.362446 0
360 1 0.484005 0.38561 0
361 1 0.00770705 0.401591 0
363 1 0.0324312 0.411064 0
362 1 0.0136815 0.426526 0
364 1 0.0374112 0.43519 0
336 1 0.0784016 0.406388 0
365 1 0.0568826 0.419489 0
395 1 0.0623743 0.444557 0
367 1 0.102363 0.412827 0
366 1 0.106443 0.438235 0
369 1 0.125215 0.421455 0
340 1 0.144249 0.404077 0
368 1 0.130295 0.445616 0
370 1 0.14953 0.428857 0
371 1 0.167956 0.412716 0
401 1 0.173193 0.436643 0
372 1 0.192369 0.419941 0
403 1 0.196938 0.443951 0
373 1 0.211493 0.403279 0
374 1 0.217676 0.426958 0
376 1 0.238111 0.412407 0
405 1 0.240881 0.43713 0
348 1 0.281441 0.402395 0
407 1 0.265022 0.44481 0
378 1 0.261357 0.419663 0
409 1 0.285454 0.428256 0
379 1 0.306374 0.411526 0
380 1 0.309454 0.435427 0
382 1 0.329861 0.418929 0
411 1 0.334031 0.444143 0
352 1 0.349733 0.401498 0
383 1 0.375868 0.410202 0
413 1 0.353044 0.427619 0
414 1 0.38001 0.436402 0
384 1 0.399485 0.41314 0
415 1 0.411048 0.435324 0
417 1 0.424774 0.415857 0
416 1 0.434474 0.43978 0
419 1 0.450702 0.420279 0
389 1 0.4688 0.404157 0
418 1 0.469793 0.436007 0
390 1 0.491309 0.413301 0
420 1 0.493837 0.436343 0
393 1 0.0187687 0.451202 0
422 1 0.00604808 0.492693 0
423 1 0.0239779 0.476862 0
394 1 0.0438438 0.461422 0
425 1 0.0477757 0.485836 0
396 1 0.0675509 0.470255 0
426 1 0.0717393 0.494656 0
397 1 0.0861802 0.453102 0
427 1 0.0908731 0.477334 0
398 1 0.110421 0.462211 0
428 1 0.113933 0.48596 0
429 1 0.133675 0.469489 0
459 1 0.138745 0.494152 0
399 1 0.153453 0.453122 0
400 1 0.177137 0.460311 0
430 1 0.156619 0.477133 0
431 1 0.180757 0.484983 0
404 1 0.219481 0.451814 0
402 1 0.200306 0.467755 0
432 1 0.204876 0.492458 0
433 1 0.225067 0.476843 0
435 1 0.244529 0.460812 0
436 1 0.248231 0.485013 0
408 1 0.289181 0.45325 0
406 1 0.267927 0.470916 0
437 1 0.271581 0.494883 0
439 1 0.291312 0.47772 0
410 1 0.312307 0.46135 0
440 1 0.315171 0.487506 0
441 1 0.335809 0.470192 0
471 1 0.338844 0.496871 0
412 1 0.356282 0.452829 0
442 1 0.358556 0.48109 0
473 1 0.383129 0.492246 0
443 1 0.378005 0.465823 0
445 1 0.39746 0.453491 0
444 1 0.403134 0.476924 0
477 1 0.42899 0.488319 0
446 1 0.422195 0.461622 0
447 1 0.450419 0.459182 0
448 1 0.460383 0.481934 0
449 1 0.475968 0.459759 0
450 1 0.48457 0.482919 0
453 1 0.00893575 0.516702 0
452 1 0.0141654 0.541205 0
454 1 0.0325291 0.525474 0
424 1 0.0282486 0.501167 0
483 1 0.0366249 0.549279 0
485 1 0.0564681 0.534796 0
455 1 0.0518192 0.509829 0
456 1 0.0759 0.518791 0
486 1 0.0801169 0.543814 0
457 1 0.0960632 0.503342 0
487 1 0.0990849 0.528987 0
458 1 0.119637 0.511672 0
488 1 0.122096 0.538344 0
489 1 0.140537 0.522096 0
460 1 0.161573 0.507095 0
461 1 0.185358 0.507911 0
462 1 0.187852 0.53233 0
491 1 0.164242 0.532556 0
493 1 0.210527 0.541678 0
463 1 0.207972 0.517454 0
464 1 0.232946 0.524599 0
495 1 0.235333 0.548436 0
434 1 0.227612 0.500274 0
466 1 0.255715 0.532496 0
465 1 0.251478 0.50891 0
467 1 0.274778 0.518273 0
497 1 0.27675 0.545257 0
438 1 0.295809 0.502134 0
468 1 0.297487 0.527501 0
469 1 0.318921 0.513236 0
499 1 0.320445 0.537008 0
470 1 0.342089 0.522809 0
501 1 0.343563 0.546276 0
472 1 0.362612 0.506553 0
503 1 0.364761 0.532578 0
474 1 0.385014 0.517144 0
505 1 0.387419 0.542379 0
476 1 0.407307 0.527126 0
507 1 0.428055 0.514178 0
509 1 0.428609 0.538918 0
475 1 0.406591 0.502688 0
478 1 0.448446 0.503263 0
479 1 0.470342 0.513328 0
480 1 0.450804 0.52825 0
1381 1 0.489021 0.530163 0
1351 1 0.49336 0.506456 0
510 1 0.469392 0.547309 0
513 1 0.0177681 0.566021 0
514 1 0.0392185 0.576083 0
512 1 0.0190454 0.59166 0
484 1 0.0590408 0.560228 0
515 1 0.0835966 0.570113 0
545 1 0.0645319 0.585595 0
516 1 0.0867021 0.596651 0
517 1 0.102532 0.554039 0
518 1 0.105088 0.580918 0
519 1 0.125596 0.56478 0
549 1 0.128104 0.591542 0
490 1 0.145142 0.549118 0
520 1 0.147082 0.576328 0
521 1 0.167001 0.563214 0
492 1 0.19039 0.556105 0
523 1 0.192155 0.580371 0
522 1 0.169092 0.58892 0
494 1 0.21475 0.564762 0
524 1 0.216429 0.588609 0
525 1 0.237452 0.5734 0
555 1 0.239665 0.598444 0
496 1 0.256373 0.558429 0
526 1 0.259342 0.583589 0
527 1 0.279776 0.568205 0
528 1 0.282737 0.592814 0
498 1 0.301346 0.552189 0
529 1 0.303682 0.576882 0
500 1 0.323224 0.562644 0
530 1 0.325783 0.586935 0
531 1 0.345633 0.573109 0
532 1 0.349019 0.596721 0
502 1 0.366544 0.558266 0
504 1 0.388555 0.568557 0
533 1 0.368978 0.583539 0
534 1 0.392696 0.592657 0
506 1 0.409027 0.553765 0
535 1 0.41288 0.578254 0
508 1 0.431259 0.562368 0
537 1 0.437367 0.586072 0
1382 1 0.496753 0.553574 0
539 1 0.455183 0.568421 0
540 1 0.480142 0.572109 0
538 1 0.462111 0.59205 0
569 1 0.487163 0.59619 0
542 1 0.021996 0.616224 0
571 1 0.00277917 0.631278 0
543 1 0.043674 0.599652 0
573 1 0.0252236 0.641124 0
544 1 0.0464896 0.625639 0
546 1 0.0669772 0.610605 0
547 1 0.0886346 0.622288 0
575 1 0.068874 0.635928 0
576 1 0.091142 0.646334 0
548 1 0.109021 0.606145 0
550 1 0.130455 0.618502 0
577 1 0.111355 0.633072 0
579 1 0.134906 0.642596 0
553 1 0.196389 0.603703 0
551 1 0.150171 0.604554 0
581 1 0.155097 0.627892 0
552 1 0.17416 0.614385 0
582 1 0.176544 0.640536 0
583 1 0.197498 0.627894 0
554 1 0.218872 0.612496 0
556 1 0.243057 0.621974 0
585 1 0.222162 0.637266 0
586 1 0.245352 0.648361 0
557 1 0.263024 0.607823 0
587 1 0.265516 0.631674 0
558 1 0.28627 0.616781 0
589 1 0.287282 0.642187 0
559 1 0.305333 0.601859 0
560 1 0.307958 0.628663 0
561 1 0.327484 0.611084 0
591 1 0.329953 0.638577 0
562 1 0.34927 0.622813 0
563 1 0.371267 0.608719 0
564 1 0.370991 0.63308 0
593 1 0.352061 0.649417 0
595 1 0.392103 0.641333 0
565 1 0.394468 0.616711 0
536 1 0.418542 0.603295 0
566 1 0.428683 0.629593 0
567 1 0.444819 0.611586 0
596 1 0.414966 0.648604 0
597 1 0.453727 0.633829 0
568 1 0.470202 0.615379 0
570 1 0.47851 0.639073 0
1442 1 0.494195 0.619434 0
572 1 0.0062994 0.656012 0
603 1 0.0290468 0.665124 0
602 1 0.00904744 0.681247 0
633 1 0.0306478 0.690559 0
574 1 0.048124 0.650099 0
605 1 0.0712684 0.66268 0
604 1 0.0511166 0.67603 0
606 1 0.0746651 0.686969 0
607 1 0.0932566 0.673201 0
637 1 0.0976848 0.6962 0
578 1 0.11493 0.65715 0
609 1 0.136718 0.666732 0
608 1 0.116852 0.681389 0
639 1 0.139532 0.692086 0
580 1 0.157214 0.654257 0
611 1 0.18098 0.664807 0
610 1 0.159857 0.678194 0
612 1 0.183377 0.690511 0
584 1 0.201955 0.651669 0
613 1 0.203662 0.676292 0
615 1 0.224819 0.662522 0
614 1 0.226488 0.685518 0
617 1 0.248148 0.672676 0
616 1 0.248788 0.696151 0
588 1 0.268478 0.657704 0
619 1 0.290114 0.667736 0
618 1 0.270934 0.682451 0
590 1 0.310445 0.653697 0
621 1 0.312266 0.681079 0
592 1 0.332992 0.664816 0
622 1 0.335852 0.688522 0
623 1 0.354957 0.674641 0
594 1 0.374456 0.658689 0
653 1 0.360929 0.69949 0
624 1 0.379035 0.682806 0
625 1 0.398014 0.665939 0
598 1 0.438567 0.652829 0
627 1 0.422229 0.671466 0
626 1 0.402845 0.689392 0
628 1 0.446507 0.676154 0
657 1 0.42659 0.69526 0
599 1 0.462867 0.657727 0
600 1 0.48697 0.662409 0
629 1 0.471159 0.681703 0
630 1 0.494774 0.686312 0
658 1 0.452065 0.698744 0
632 1 0.0119444 0.705142 0
634 1 0.033728 0.71501 0
663 1 0.014657 0.730103 0
664 1 0.0372944 0.740128 0
635 1 0.0543767 0.700623 0
636 1 0.0779523 0.711118 0
665 1 0.0566727 0.725497 0
666 1 0.0790446 0.735827 0
667 1 0.100609 0.721485 0
638 1 0.120595 0.707958 0
640 1 0.142278 0.718046 0
669 1 0.122227 0.73268 0
668 1 0.102269 0.747525 0
670 1 0.145251 0.742604 0
641 1 0.16283 0.703934 0
642 1 0.186128 0.71503 0
671 1 0.165338 0.729203 0
673 1 0.188644 0.739794 0
643 1 0.205514 0.701397 0
645 1 0.228984 0.710706 0
644 1 0.210343 0.725321 0
675 1 0.231605 0.736532 0
646 1 0.252143 0.721441 0
647 1 0.271952 0.70658 0
677 1 0.25421 0.745089 0
648 1 0.275174 0.733257 0
649 1 0.29606 0.71798 0
679 1 0.297277 0.743986 0
620 1 0.317117 0.704347 0
651 1 0.339577 0.713296 0
650 1 0.319667 0.729509 0
652 1 0.344806 0.738489 0
655 1 0.387189 0.707184 0
654 1 0.369781 0.725154 0
685 1 0.39545 0.731204 0
683 1 0.378038 0.748641 0
656 1 0.411487 0.714086 0
687 1 0.434577 0.719811 0
686 1 0.419264 0.737718 0
717 1 0.443369 0.743128 0
659 1 0.475939 0.706364 0
689 1 0.458522 0.72415 0
660 1 0.484512 0.73036 0
688 1 0.466411 0.749988 0
662 1 0.0161966 0.755161 0
694 1 0.0386519 0.7641 0
693 1 0.0182577 0.778511 0
725 1 0.0418783 0.787669 0
695 1 0.0601377 0.750317 0
697 1 0.0830835 0.761619 0
696 1 0.0627375 0.775895 0
727 1 0.0845042 0.786911 0
699 1 0.125835 0.757686 0
698 1 0.105895 0.771691 0
700 1 0.128432 0.782896 0
728 1 0.106655 0.797115 0
701 1 0.149091 0.767336 0
731 1 0.150868 0.79321 0
672 1 0.168622 0.754338 0
703 1 0.191242 0.765318 0
702 1 0.17203 0.780109 0
704 1 0.194231 0.790582 0
674 1 0.212422 0.751995 0
676 1 0.235482 0.761089 0
705 1 0.215114 0.777227 0
706 1 0.237499 0.787134 0
707 1 0.258491 0.772364 0
678 1 0.277605 0.758455 0
737 1 0.260966 0.796969 0
709 1 0.280576 0.783261 0
680 1 0.300278 0.768339 0
710 1 0.304309 0.791987 0
681 1 0.318362 0.753478 0
682 1 0.341483 0.76226 0
711 1 0.323528 0.778588 0
712 1 0.345415 0.786677 0
713 1 0.364135 0.768644 0
714 1 0.386684 0.774262 0
743 1 0.368483 0.794643 0
684 1 0.402367 0.755006 0
715 1 0.425468 0.762919 0
716 1 0.408967 0.782996 0
747 1 0.433329 0.786915 0
718 1 0.449893 0.768514 0
690 1 0.489832 0.754974 0
719 1 0.472785 0.774741 0
720 1 0.481097 0.799069 0
749 1 0.456018 0.793455 0
1591 1 0.496331 0.77784 0
723 1 0.0207614 0.802713 0
751 1 0.00302871 0.819499 0
722 1 0.0219668 0.838258 0
724 1 0.0417407 0.813684 0
754 1 0.0468604 0.836895 0
726 1 0.0631316 0.801324 0
757 1 0.0865549 0.810197 0
755 1 0.0677928 0.825176 0
756 1 0.0880662 0.837722 0
729 1 0.129752 0.807706 0
759 1 0.109244 0.822766 0
760 1 0.131787 0.831012 0
732 1 0.174517 0.80457 0
730 1 0.152784 0.818491 0
761 1 0.156104 0.843211 0
763 1 0.175304 0.828949 0
733 1 0.195468 0.815423 0
764 1 0.197933 0.84018 0
735 1 0.216639 0.802736 0
736 1 0.238783 0.811571 0
734 1 0.220087 0.827512 0
767 1 0.241641 0.836932 0
708 1 0.283246 0.809286 0
738 1 0.262192 0.821544 0
768 1 0.265989 0.845068 0
769 1 0.286915 0.833236 0
741 1 0.327673 0.802815 0
739 1 0.306115 0.815385 0
740 1 0.311197 0.839228 0
771 1 0.33216 0.827261 0
745 1 0.392487 0.800876 0
742 1 0.351208 0.811903 0
773 1 0.356494 0.836102 0
744 1 0.374486 0.818807 0
774 1 0.381512 0.842053 0
775 1 0.399921 0.825425 0
746 1 0.417831 0.807092 0
748 1 0.441341 0.81265 0
777 1 0.423474 0.830069 0
779 1 0.448985 0.836378 0
776 1 0.405078 0.849324 0
750 1 0.465375 0.817 0
1621 1 0.48879 0.822906 0
780 1 0.471854 0.840571 0
1651 1 0.496353 0.845493 0
753 1 0.038334 0.85929 0
752 1 0.0141194 0.863343 0
783 1 0.0317688 0.882841 0
782 1 0.00796674 0.886541 0
815 1 0.0507734 0.898217 0
785 1 0.0668105 0.849956 0
784 1 0.0571743 0.873861 0
786 1 0.0746814 0.89126 0
787 1 0.0877209 0.862662 0
817 1 0.0994356 0.884833 0
758 1 0.110431 0.851389 0
789 1 0.134252 0.855188 0
788 1 0.123854 0.877566 0
790 1 0.143579 0.891854 0
762 1 0.177155 0.853896 0
791 1 0.156554 0.869859 0
793 1 0.180181 0.879466 0
765 1 0.222157 0.852062 0
795 1 0.200496 0.865227 0
796 1 0.22302 0.876108 0
825 1 0.237848 0.896663 0
766 1 0.243319 0.861434 0
794 1 0.213613 0.899369 0
797 1 0.265832 0.869793 0
827 1 0.262137 0.892596 0
799 1 0.290992 0.859156 0
798 1 0.286121 0.886705 0
772 1 0.338631 0.852249 0
770 1 0.315264 0.862185 0
800 1 0.311283 0.886045 0
801 1 0.334219 0.877085 0
802 1 0.352251 0.895422 0
803 1 0.3622 0.860681 0
804 1 0.376535 0.888234 0
805 1 0.386937 0.865995 0
778 1 0.430608 0.856371 0
807 1 0.410872 0.872523 0
808 1 0.440382 0.881244 0
837 1 0.41835 0.896417 0
809 1 0.455633 0.861113 0
1681 1 0.480256 0.864775 0
1711 1 0.488451 0.890871 0
810 1 0.464894 0.884195 0
813 1 0.0245923 0.905673 0
843 1 0.0188201 0.928839 0
814 1 0.0437905 0.921909 0
844 1 0.0366432 0.945295 0
812 1 0.000141451 0.910943 0
816 1 0.0928018 0.908637 0
845 1 0.068392 0.915518 0
846 1 0.0617904 0.938905 0
847 1 0.0850306 0.932211 0
819 1 0.116922 0.901202 0
818 1 0.110332 0.925278 0
820 1 0.132056 0.940383 0
821 1 0.134854 0.916589 0
849 1 0.102932 0.948556 0
792 1 0.164779 0.906947 0
851 1 0.156348 0.930229 0
823 1 0.18855 0.902842 0
822 1 0.181069 0.929083 0
854 1 0.19657 0.948906 0
824 1 0.204492 0.923022 0
885 1 0.221296 0.945654 0
855 1 0.229363 0.920301 0
856 1 0.247084 0.940719 0
826 1 0.25338 0.916869 0
857 1 0.271425 0.934448 0
828 1 0.279298 0.910961 0
859 1 0.2971 0.930613 0
831 1 0.328942 0.902291 0
829 1 0.303229 0.90797 0
830 1 0.32135 0.924983 0
832 1 0.346502 0.919669 0
861 1 0.339892 0.942494 0
860 1 0.313055 0.949122 0
806 1 0.394104 0.906333 0
863 1 0.363434 0.936309 0
833 1 0.370628 0.912691 0
834 1 0.388351 0.930174 0
865 1 0.405749 0.947182 0
835 1 0.415331 0.923685 0
836 1 0.433015 0.944223 0
838 1 0.449997 0.92467 0
839 1 0.471064 0.910864 0
840 1 0.477843 0.934141 0
1712 1 0.496042 0.914187 0
842 1 0.0113336 0.952504 0
872 1 0.0235183 0.995753 0
873 1 0.0302268 0.970021 0
871 1 0.00679256 0.976976 0
874 1 0.0475067 0.987358 0
875 1 0.0536942 0.963112 0
876 1 0.0714249 0.980188 0
848 1 0.0785307 0.955969 0
877 1 0.0967436 0.972955 0
7 1 0.0904911 0.996482 0
878 1 0.116071 0.990403 0
879 1 0.12166 0.965613 0
881 1 0.138937 0.983067 0
850 1 0.147131 0.959721 0
882 1 0.181235 0.997352 0
853 1 0.171292 0.951987 0
852 1 0.165287 0.977589 0
883 1 0.188587 0.97281 0
13 1 0.207201 0.992824 0
15 1 0.231826 0.988166 0
884 1 0.213209 0.969317 0
886 1 0.238936 0.964664 0
858 1 0.287602 0.953501 0
887 1 0.262857 0.959135 0
17 1 0.257233 0.983101 0
888 1 0.280656 0.97775 0
19 1 0.299981 0.995616 0
889 1 0.304547 0.971812 0
890 1 0.324243 0.990094 0
892 1 0.349143 0.985947 0
891 1 0.332007 0.96623 0
862 1 0.355701 0.961613 0
864 1 0.380039 0.954204 0
893 1 0.372878 0.978857 0
895 1 0.39724 0.972623 0
894 1 0.390279 0.997184 0
866 1 0.421106 0.967176 0
896 1 0.41537 0.9934 0
867 1 0.44403 0.969578 0
897 1 0.446168 0.99473 0
870 1 0.485675 0.957073 0
869 1 0.459709 0.950679 0
868 1 0.466991 0.975384 0
1771 1 0.489813 0.982235 0
902 1 0.542092 0.0256737 0
901 1 0.515768 0.0172298 0
931 1 0.524506 0.0423229 0
933 1 0.549476 0.0492738 0
903 1 0.534558 0.0023566 0
904 1 0.56586 0.0301766 0
906 1 0.584021 0.014204 0
935 1 0.590923 0.0374037 0
905 1 0.55896 0.00708029 0
908 1 0.608203 0.0194102 0
937 1 0.616175 0.0431426 0
939 1 0.633783 0.0248869 0
938 1 0.641288 0.0486415 0
910 1 0.648928 0.00668545 0
909 1 0.62504 0.00145424 0
941 1 0.657641 0.0297152 0
912 1 0.673968 0.0120663 0
942 1 0.682227 0.0354932 0
943 1 0.698262 0.0169875 0
973 1 0.706327 0.0422978 0
944 1 0.721921 0.0228467 0
945 1 0.738185 0.00394864 0
946 1 0.748149 0.027151 0
975 1 0.732204 0.0459689 0
947 1 0.763439 0.00739101 0
948 1 0.772125 0.0318809 0
918 1 0.790463 0.0139385 0
921 1 0.819197 0.00499328 0
949 1 0.809912 0.0288575 0
951 1 0.835386 0.0214476 0
950 1 0.828471 0.0449161 0
952 1 0.852429 0.0394866 0
953 1 0.858879 0.0152989 0
924 1 0.882873 0.0111709 0
954 1 0.875759 0.0341476 0
955 1 0.900538 0.0291027 0
925 1 0.907348 0.00398289 0
926 1 0.92466 0.0213258 0
957 1 0.943847 0.0400336 0
956 1 0.920008 0.0446339 0
928 1 0.94958 0.0151507 0
959 1 0.967127 0.0318048 0
930 1 0.992332 0.0254011 0
929 1 0.973452 0.0082656 0
960 1 0.983935 0.0488772 0
1 1 0.998654 0.00100845 0
932 1 0.531982 0.0662327 0
962 1 0.540595 0.0896047 0
961 1 0.513243 0.0833652 0
60 1 0.506397 0.0590336 0
934 1 0.573023 0.0537315 0
963 1 0.558287 0.0726777 0
965 1 0.582574 0.0778171 0
964 1 0.563915 0.0945762 0
936 1 0.598865 0.0605527 0
966 1 0.606051 0.0848199 0
967 1 0.623484 0.0674059 0
968 1 0.629305 0.0915709 0
969 1 0.647049 0.0738097 0
999 1 0.655126 0.0962073 0
940 1 0.664732 0.0541735 0
970 1 0.670785 0.0787967 0
971 1 0.689439 0.0585488 0
972 1 0.696388 0.0828666 0
1003 1 0.715215 0.0648296 0
1004 1 0.721071 0.0888062 0
974 1 0.739223 0.070179 0
1005 1 0.744928 0.0944402 0
976 1 0.755734 0.0506238 0
1007 1 0.764847 0.0748257 0
977 1 0.780158 0.0555383 0
978 1 0.795522 0.0734972 0
1008 1 0.791852 0.0969728 0
1006 1 0.768363 0.0989299 0
979 1 0.80553 0.0514295 0
980 1 0.821016 0.0707536 0
981 1 0.843979 0.0639733 0
1009 1 0.815685 0.093927 0
1011 1 0.838985 0.0885821 0
985 1 0.893228 0.0520064 0
982 1 0.861527 0.0821916 0
983 1 0.86931 0.0581281 0
984 1 0.886275 0.0763297 0
1013 1 0.879669 0.0993586 0
1015 1 0.903207 0.093673 0
986 1 0.911707 0.0673928 0
987 1 0.936779 0.0634166 0
1017 1 0.926941 0.0857748 0
988 1 0.952669 0.082399 0
958 1 0.961073 0.0567419 0
989 1 0.977303 0.073897 0
990 1 0.994929 0.0906204 0
1019 1 0.970661 0.0987934 0
991 1 0.522269 0.107053 0
992 1 0.527169 0.130656 0
993 1 0.545496 0.11557 0
1021 1 0.510588 0.149511 0
120 1 0.503398 0.124569 0
995 1 0.588855 0.103597 0
1023 1 0.554998 0.138269 0
994 1 0.57156 0.119673 0
996 1 0.595709 0.126572 0
1025 1 0.57876 0.144246 0
997 1 0.613575 0.109876 0
998 1 0.637036 0.114272 0
1027 1 0.61938 0.132702 0
1029 1 0.643247 0.137364 0
1026 1 0.602485 0.151423 0
1001 1 0.68056 0.100946 0
1000 1 0.662503 0.118447 0
1031 1 0.687081 0.125211 0
1030 1 0.668784 0.143106 0
1032 1 0.692887 0.150018 0
1002 1 0.704267 0.107206 0
1033 1 0.711254 0.131058 0
1035 1 0.728776 0.112829 0
1034 1 0.735796 0.137601 0
1036 1 0.753646 0.119746 0
1037 1 0.779511 0.1204 0
1038 1 0.796661 0.140926 0
1067 1 0.769899 0.143192 0
1039 1 0.805481 0.118447 0
1010 1 0.830824 0.113979 0
1041 1 0.849019 0.131471 0
1040 1 0.82297 0.13729 0
1012 1 0.856508 0.106428 0
1043 1 0.873439 0.123993 0
1014 1 0.897316 0.116698 0
1044 1 0.889993 0.143074 0
1042 1 0.866769 0.149674 0
1045 1 0.912516 0.135112 0
1016 1 0.921552 0.110526 0
1047 1 0.936874 0.128702 0
1018 1 0.944956 0.105111 0
1049 1 0.964303 0.121892 0
1020 1 0.988302 0.114345 0
1050 1 0.981144 0.139019 0
1046 1 0.955869 0.144979 0
1022 1 0.536259 0.15531 0
1053 1 0.540465 0.179792 0
1051 1 0.516987 0.173079 0
1052 1 0.522869 0.198242 0
180 1 0.499204 0.190405 0
1024 1 0.560122 0.161504 0
1055 1 0.584599 0.167592 0
1054 1 0.564406 0.185551 0
1056 1 0.589972 0.192764 0
1028 1 0.626297 0.156158 0
1057 1 0.607945 0.17504 0
1058 1 0.632053 0.179047 0
1087 1 0.615665 0.196877 0
1059 1 0.651081 0.162449 0
1060 1 0.657756 0.18533 0
1061 1 0.675192 0.167319 0
1091 1 0.682286 0.192948 0
1062 1 0.698685 0.174061 0
1093 1 0.706464 0.19756 0
1063 1 0.717805 0.156318 0
1064 1 0.723304 0.179917 0
1065 1 0.742585 0.163104 0
1095 1 0.748308 0.187196 0
1066 1 0.767909 0.168608 0
1068 1 0.792312 0.166052 0
1097 1 0.784553 0.189867 0
1069 1 0.815581 0.160086 0
1071 1 0.842275 0.153969 0
1070 1 0.834282 0.177491 0
1099 1 0.809332 0.184747 0
1101 1 0.852936 0.196464 0
1072 1 0.859764 0.172283 0
1073 1 0.884489 0.16714 0
1103 1 0.877576 0.191508 0
1074 1 0.901668 0.184224 0
1075 1 0.909799 0.160055 0
1077 1 0.932624 0.152988 0
1076 1 0.927116 0.178233 0
1107 1 0.945251 0.19526 0
1078 1 0.952038 0.170173 0
1048 1 0.975391 0.163417 0
151 1 0.998927 0.155809 0
1079 1 0.99221 0.179434 0
1109 1 0.968696 0.187773 0
1083 1 0.547705 0.203262 0
1081 1 0.503626 0.213304 0
1082 1 0.531607 0.220561 0
1111 1 0.511101 0.236896 0
1113 1 0.537165 0.245312 0
1084 1 0.554269 0.226697 0
1085 1 0.571959 0.209129 0
1086 1 0.596007 0.215944 0
1115 1 0.579045 0.233719 0
1089 1 0.63939 0.203066 0
1117 1 0.604301 0.239412 0
1088 1 0.620926 0.221952 0
1119 1 0.646101 0.227243 0
1118 1 0.628019 0.244339 0
1090 1 0.663059 0.209018 0
1092 1 0.690299 0.216287 0
1121 1 0.670283 0.232825 0
1122 1 0.696341 0.238949 0
1120 1 0.654432 0.250364 0
1094 1 0.730292 0.204764 0
1123 1 0.713952 0.22183 0
1124 1 0.720715 0.246822 0
1125 1 0.739253 0.228485 0
1096 1 0.755861 0.211424 0
1127 1 0.779929 0.215661 0
1126 1 0.762909 0.233957 0
1128 1 0.797823 0.232922 0
1100 1 0.828377 0.202061 0
1098 1 0.803771 0.208264 0
1131 1 0.846254 0.220737 0
1129 1 0.82216 0.225776 0
1130 1 0.841046 0.244775 0
1159 1 0.816296 0.248754 0
1102 1 0.871378 0.215126 0
1104 1 0.897007 0.208907 0
1132 1 0.865026 0.238523 0
1133 1 0.889036 0.232408 0
1105 1 0.920517 0.202955 0
1135 1 0.913669 0.226246 0
1106 1 0.93752 0.219273 0
1136 1 0.933116 0.243418 0
1134 1 0.907298 0.251024 0
1137 1 0.956035 0.235482 0
1108 1 0.961327 0.212729 0
1110 1 0.986522 0.204381 0
1139 1 0.97924 0.229452 0
1140 1 0.99583 0.24677 0
1112 1 0.518498 0.261597 0
1143 1 0.543893 0.268105 0
1142 1 0.525743 0.284869 0
1144 1 0.54958 0.291981 0
1141 1 0.501119 0.278563 0
1114 1 0.560054 0.250456 0
1116 1 0.585689 0.256542 0
1145 1 0.568368 0.274713 0
1146 1 0.592349 0.280642 0
1175 1 0.574802 0.297825 0
1147 1 0.612218 0.263498 0
1149 1 0.636423 0.269108 0
1148 1 0.618226 0.286391 0
1179 1 0.642192 0.293022 0
1151 1 0.678351 0.256 0
1150 1 0.660532 0.273372 0