ITEM: TIMESTEP
30000
ITEM: NUMBER OF ATOMS
1800
ITEM: BOX BOUNDS pp pp pp
2.8016381493974762e+00 1.5559836185060152e+02
2.8016381493974762e+00 1.5559836185060152e+02
0.0000000000000000e+00 5.2800000000000002e+00
ITEM: ATOMS id type xs ys zs
2 1 0.015174 0.0213804 0
3 1 0.0406214 0.0135233 0
33 1 0.0330217 0.037843 0
31 1 0.00929534 0.0448367 0
4 1 0.0592461 0.0303564 0
6 1 0.0841517 0.0225906 0
5 1 0.0672088 0.0065835 0
35 1 0.0759706 0.0472624 0
37 1 0.100229 0.0409355 0
8 1 0.107617 0.0165478 0
9 1 0.122996 0.0347264 0
880 1 0.13191 0.00987093 0
10 1 0.148317 0.028311 0
11 1 0.15547 0.00456711 0
12 1 0.172433 0.0211509 0
43 1 0.189433 0.0401877 0
41 1 0.166082 0.0467291 0
14 1 0.196126 0.0155659 0
44 1 0.213293 0.0348009 0
45 1 0.220356 0.0100497 0
46 1 0.237338 0.0278379 0
16 1 0.244378 0.00401694 0
47 1 0.261818 0.0223561 0
49 1 0.286234 0.0166972 0
48 1 0.279123 0.0411457 0
77 1 0.25477 0.045327 0
1230 1 6.51361e-05 0.355501 0
50 1 0.303665 0.0378246 0
20 1 0.310521 0.0136185 0
51 1 0.328968 0.0324801 0
21 1 0.335478 0.00629053 0
22 1 0.35344 0.0244743 0
23 1 0.359079 0.000735188 0
24 1 0.377485 0.0194873 0
55 1 0.393028 0.0402423 0
53 1 0.369242 0.0419356 0
25 1 0.400622 0.0156267 0
26 1 0.429594 0.0340659 0
27 1 0.424071 0.0106241 0
898 1 0.448386 0.0151936 0
28 1 0.454401 0.0389966 0
29 1 0.472912 0.0214991 0
900 1 0.490013 0.00378742 0
59 1 0.479036 0.0451569 0
30 1 0.49679 0.0279554 0
32 1 0.025361 0.061844 0
62 1 0.0166266 0.08547 0
63 1 0.0432934 0.0776569 0
61 1 0.000379153 0.068061 0
34 1 0.0509117 0.0544204 0
65 1 0.0687897 0.071218 0
66 1 0.0857773 0.0884524 0
36 1 0.0943113 0.0646584 0
64 1 0.060812 0.0937375 0
39 1 0.141729 0.0510394 0
38 1 0.118423 0.0577339 0
67 1 0.109947 0.0818697 0
69 1 0.134791 0.0755312 0
68 1 0.127894 0.0995824 0
70 1 0.151716 0.0938704 0
40 1 0.159116 0.069857 0
71 1 0.175773 0.0878481 0
42 1 0.18361 0.0638625 0
72 1 0.198729 0.0826606 0
73 1 0.207395 0.0584057 0
74 1 0.223629 0.0755939 0
75 1 0.231374 0.0521251 0
106 1 0.240554 0.0948964 0
76 1 0.247785 0.0711879 0
78 1 0.27135 0.0647522 0
109 1 0.289046 0.0837406 0
107 1 0.264174 0.0890498 0
79 1 0.296797 0.0613718 0
52 1 0.34593 0.0494401 0
80 1 0.314303 0.0811157 0
81 1 0.32353 0.0580926 0
82 1 0.340877 0.075817 0
111 1 0.333461 0.0991806 0
54 1 0.396269 0.068821 0
83 1 0.365461 0.0666048 0
113 1 0.377331 0.0875017 0
56 1 0.414375 0.0522607 0
57 1 0.437336 0.0580129 0
85 1 0.420251 0.0760173 0
87 1 0.443878 0.082399 0
84 1 0.402562 0.0941957 0
86 1 0.426985 0.0990587 0
88 1 0.467156 0.0869776 0
58 1 0.461335 0.0633961 0
89 1 0.484985 0.0696468 0
90 1 0.491549 0.0924829 0
93 1 0.0346446 0.102223 0
449 1 0.46972 0.465906 0
92 1 0.0278732 0.127853 0
91 1 0.0101678 0.112404 0
123 1 0.0450505 0.144518 0
122 1 0.0176958 0.152656 0
94 1 0.0523271 0.118514 0
95 1 0.076862 0.111366 0
125 1 0.0692746 0.13628 0
96 1 0.0934979 0.128681 0
97 1 0.1021 0.105658 0
98 1 0.118467 0.122808 0
99 1 0.1434 0.117596 0
129 1 0.135945 0.140008 0
127 1 0.110997 0.146583 0
100 1 0.168637 0.111622 0
130 1 0.160699 0.134681 0
131 1 0.184486 0.129717 0
101 1 0.192694 0.105836 0
103 1 0.216267 0.0986373 0
102 1 0.21071 0.124043 0
105 1 0.232844 0.117467 0
104 1 0.227386 0.140958 0
133 1 0.202442 0.147012 0
135 1 0.256583 0.114113 0
137 1 0.276579 0.127505 0
108 1 0.291095 0.108473 0
136 1 0.258968 0.143598 0
139 1 0.300005 0.134095 0
110 1 0.316198 0.115322 0
141 1 0.343398 0.121615 0
140 1 0.32651 0.138878 0
142 1 0.348776 0.148124 0
112 1 0.357795 0.102649 0
114 1 0.384236 0.112608 0
143 1 0.367374 0.128702 0
144 1 0.391234 0.135289 0
115 1 0.408908 0.117065 0
116 1 0.433289 0.124049 0
145 1 0.415886 0.141266 0
147 1 0.439896 0.147565 0
117 1 0.450819 0.105897 0
118 1 0.456554 0.128812 0
119 1 0.474239 0.11153 0
149 1 0.482034 0.135036 0
120 1 0.498323 0.117027 0
153 1 0.0378191 0.16802 0
152 1 0.0123513 0.176153 0
183 1 0.0312012 0.190986 0
1080 1 0.0049678 0.199854 0
124 1 0.0627273 0.160265 0
126 1 0.0867725 0.152589 0
155 1 0.0801118 0.17646 0
154 1 0.0565092 0.185489 0
156 1 0.0972369 0.19337 0
128 1 0.12848 0.162792 0
157 1 0.105328 0.16942 0
160 1 0.145281 0.181669 0
158 1 0.120609 0.188065 0
159 1 0.153482 0.158582 0
161 1 0.171164 0.175229 0
132 1 0.177315 0.152057 0
162 1 0.186224 0.194957 0
163 1 0.194377 0.171368 0
191 1 0.163219 0.198595 0
134 1 0.218067 0.163762 0
164 1 0.224522 0.185536 0
165 1 0.241776 0.163168 0
167 1 0.265924 0.170912 0
138 1 0.282603 0.150955 0
168 1 0.290522 0.17482 0
166 1 0.248308 0.189461 0
197 1 0.272879 0.192696 0
169 1 0.30646 0.157748 0
171 1 0.330503 0.164767 0
170 1 0.314022 0.181411 0
201 1 0.337881 0.189196 0
172 1 0.356066 0.172337 0
173 1 0.37288 0.153849 0
174 1 0.380583 0.178004 0
203 1 0.364224 0.195791 0
175 1 0.398497 0.158553 0
146 1 0.422449 0.164575 0
177 1 0.446438 0.171183 0
205 1 0.404392 0.182702 0
176 1 0.430289 0.189434 0
148 1 0.464661 0.152287 0
150 1 0.488572 0.15964 0
179 1 0.469849 0.17784 0
178 1 0.453565 0.195928 0
180 1 0.494343 0.182712 0
182 1 0.0250993 0.215486 0
213 1 0.0432546 0.233047 0
211 1 0.0198572 0.241081 0
181 1 0.00149182 0.223999 0
184 1 0.0502319 0.20873 0
185 1 0.074124 0.20083 0
186 1 0.0908258 0.21814 0
215 1 0.0671089 0.225671 0
216 1 0.083222 0.242869 0
214 1 0.0601287 0.251549 0
187 1 0.115967 0.211406 0
188 1 0.133379 0.229292 0
189 1 0.139658 0.20511 0
217 1 0.108245 0.234825 0
220 1 0.150876 0.248731 0
190 1 0.156305 0.224034 0
192 1 0.190859 0.219143 0
221 1 0.174805 0.238448 0
223 1 0.197375 0.244 0
193 1 0.208235 0.20189 0
194 1 0.213809 0.226459 0
195 1 0.231223 0.208901 0
225 1 0.236813 0.232417 0
196 1 0.255414 0.214309 0
198 1 0.279018 0.218287 0
227 1 0.262983 0.237331 0
228 1 0.288165 0.243555 0
199 1 0.296497 0.1984 0
200 1 0.320375 0.206209 0
202 1 0.344123 0.21422 0
229 1 0.302882 0.224866 0
231 1 0.326711 0.232057 0
230 1 0.311037 0.251581 0
204 1 0.389508 0.202498 0
233 1 0.369769 0.218934 0
235 1 0.392724 0.227097 0
232 1 0.351332 0.236648 0
234 1 0.374894 0.245249 0
207 1 0.432657 0.214033 0
206 1 0.416547 0.231003 0
237 1 0.440776 0.236821 0
208 1 0.457701 0.220213 0
209 1 0.476234 0.202166 0
210 1 0.482075 0.226083 0
239 1 0.464926 0.243553 0
212 1 0.0130206 0.263931 0
243 1 0.0378188 0.259592 0
242 1 0.033439 0.298167 0
241 1 0.00799677 0.288618 0
244 1 0.0540388 0.278776 0
245 1 0.0763344 0.267813 0
275 1 0.0767402 0.291256 0
247 1 0.0973409 0.280703 0
218 1 0.102221 0.25813 0
219 1 0.126253 0.253062 0
249 1 0.139704 0.27157 0
248 1 0.119868 0.286077 0
250 1 0.14424 0.295876 0
222 1 0.179897 0.261849 0
251 1 0.162284 0.279035 0
252 1 0.187657 0.284639 0
224 1 0.22161 0.250795 0
253 1 0.204498 0.267186 0
255 1 0.227963 0.274243 0
226 1 0.245185 0.255263 0
254 1 0.210231 0.290127 0
285 1 0.235888 0.297377 0
256 1 0.252873 0.279632 0
257 1 0.269895 0.261321 0
259 1 0.294274 0.268756 0
258 1 0.277109 0.286959 0
289 1 0.300742 0.292101 0
260 1 0.318163 0.276703 0
261 1 0.335859 0.255703 0
262 1 0.342092 0.280616 0
291 1 0.324085 0.299132 0
263 1 0.358948 0.263021 0
264 1 0.383378 0.268942 0
293 1 0.365953 0.287156 0
295 1 0.392322 0.292855 0
265 1 0.400089 0.250043 0
236 1 0.423377 0.254636 0
266 1 0.40731 0.273022 0
267 1 0.431352 0.278562 0
297 1 0.416013 0.298764 0
238 1 0.447615 0.260725 0
240 1 0.490157 0.249527 0
269 1 0.472366 0.265849 0
268 1 0.456593 0.286199 0
270 1 0.481064 0.293497 0
1141 1 0.498265 0.273323 0
271 1 0.0131549 0.313959 0
272 1 0.0372975 0.323473 0
303 1 0.0430882 0.347301 0
301 1 0.0192934 0.338148 0
273 1 0.0558245 0.306718 0
276 1 0.081008 0.317075 0
274 1 0.06322 0.332801 0
305 1 0.0871496 0.3418 0
246 1 0.101612 0.303432 0
279 1 0.12604 0.310147 0
280 1 0.150029 0.318797 0
277 1 0.10646 0.327629 0
278 1 0.12973 0.335796 0
281 1 0.170387 0.301809 0
311 1 0.153983 0.3421 0
283 1 0.193425 0.308878 0
282 1 0.174899 0.325289 0
313 1 0.19837 0.332368 0
312 1 0.178627 0.349498 0
284 1 0.218021 0.314619 0
315 1 0.222909 0.338872 0
286 1 0.241324 0.321297 0
316 1 0.246848 0.346051 0
287 1 0.259663 0.303967 0
288 1 0.283474 0.311203 0
317 1 0.264994 0.328486 0
319 1 0.28742 0.335224 0
290 1 0.305853 0.317301 0
321 1 0.311819 0.340842 0
292 1 0.329588 0.323037 0
323 1 0.346814 0.304803 0
294 1 0.37085 0.310281 0
296 1 0.398431 0.317521 0
324 1 0.353008 0.327753 0
325 1 0.379941 0.334308 0
326 1 0.403426 0.34369 0
298 1 0.438122 0.304338 0
327 1 0.420706 0.325372 0
328 1 0.445908 0.328516 0
299 1 0.462942 0.310596 0
300 1 0.487016 0.316323 0
1201 1 0.495679 0.340705 0
329 1 0.470253 0.33326 0
331 1 0.00586276 0.379868 0
302 1 0.0246193 0.363321 0
332 1 0.0294572 0.387629 0
333 1 0.0496382 0.373516 0
334 1 0.0543128 0.39811 0
304 1 0.0685011 0.356229 0
306 1 0.0922014 0.365984 0
335 1 0.0737177 0.382348 0
337 1 0.0968941 0.391366 0
307 1 0.111528 0.351093 0
309 1 0.135395 0.358869 0
308 1 0.115455 0.374909 0
338 1 0.121677 0.399504 0
339 1 0.140194 0.382597 0
310 1 0.159429 0.365793 0
341 1 0.163408 0.389486 0
343 1 0.182368 0.37357 0
342 1 0.188478 0.397642 0
314 1 0.203381 0.355895 0
345 1 0.227307 0.363007 0
344 1 0.206948 0.37993 0
375 1 0.230307 0.386756 0
346 1 0.25153 0.370957 0
377 1 0.255755 0.395115 0
318 1 0.268964 0.352991 0
349 1 0.291127 0.359811 0
347 1 0.274561 0.378563 0
350 1 0.298476 0.384647 0
322 1 0.335758 0.347107 0
320 1 0.316106 0.36445 0
351 1 0.34172 0.373731 0
381 1 0.321148 0.391626 0
353 1 0.358694 0.355161 0
355 1 0.38229 0.358056 0
354 1 0.369858 0.377749 0
385 1 0.39438 0.391955 0
356 1 0.403755 0.367984 0
357 1 0.427431 0.361379 0
358 1 0.444072 0.380832 0
387 1 0.419193 0.386918 0
359 1 0.452709 0.355037 0
330 1 0.477574 0.356084 0
1261 1 0.486413 0.392594 0
360 1 0.468546 0.377508 0
361 1 0.0117854 0.403691 0
363 1 0.0359006 0.4133 0
362 1 0.0181574 0.429424 0
364 1 0.0420877 0.437566 0
336 1 0.0781893 0.406736 0
365 1 0.060257 0.421383 0
395 1 0.0665023 0.445361 0
367 1 0.101627 0.415188 0
366 1 0.108195 0.439485 0
340 1 0.144912 0.40551 0
369 1 0.125336 0.423495 0
368 1 0.131499 0.446876 0
370 1 0.148933 0.430773 0
371 1 0.168621 0.414257 0
401 1 0.174524 0.437256 0
372 1 0.193214 0.420621 0
403 1 0.197593 0.44532 0
373 1 0.212361 0.403265 0
374 1 0.215833 0.427798 0
376 1 0.236491 0.410012 0
405 1 0.239355 0.435283 0
348 1 0.280731 0.403101 0
407 1 0.265419 0.443692 0
378 1 0.259519 0.419212 0
409 1 0.283599 0.426497 0
352 1 0.345239 0.397637 0
379 1 0.306186 0.409907 0
380 1 0.310248 0.434855 0
382 1 0.328651 0.418681 0
411 1 0.333738 0.444269 0
383 1 0.368703 0.406711 0
413 1 0.351912 0.424615 0
384 1 0.389892 0.416898 0
414 1 0.37883 0.439518 0
388 1 0.437436 0.404012 0
415 1 0.406958 0.434035 0
386 1 0.413878 0.410392 0
417 1 0.431526 0.427624 0
418 1 0.449749 0.447691 0
389 1 0.462917 0.399683 0
419 1 0.456103 0.42229 0
390 1 0.4804 0.416502 0
420 1 0.473605 0.440309 0
1291 1 0.497964 0.434285 0
393 1 0.0239593 0.453999 0
422 1 0.0103359 0.494296 0
423 1 0.0285616 0.478577 0
392 1 0.00508559 0.470296 0
394 1 0.0464879 0.46217 0
425 1 0.0528633 0.486738 0
396 1 0.0700673 0.471171 0
426 1 0.0758898 0.498063 0
397 1 0.0890762 0.456387 0
427 1 0.0944297 0.481566 0
459 1 0.14099 0.49727 0
398 1 0.113229 0.463677 0
428 1 0.118307 0.489048 0
429 1 0.13525 0.471509 0
399 1 0.155771 0.453371 0
400 1 0.179501 0.460756 0
430 1 0.161459 0.477651 0
431 1 0.185126 0.483914 0
1231 1 0.499301 0.366382 0
404 1 0.221999 0.452068 0
402 1 0.203384 0.468797 0
432 1 0.208364 0.492039 0
433 1 0.22681 0.476014 0
435 1 0.245037 0.458835 0
436 1 0.249656 0.483791 0
408 1 0.28823 0.452154 0
406 1 0.267909 0.46888 0
437 1 0.272321 0.493504 0
439 1 0.292073 0.475469 0
410 1 0.310837 0.459344 0
440 1 0.315398 0.48262 0
441 1 0.334524 0.468443 0
471 1 0.336119 0.495194 0
412 1 0.356513 0.452859 0
442 1 0.355924 0.479198 0
473 1 0.378459 0.489378 0
443 1 0.377339 0.465355 0
444 1 0.400763 0.480629 0
445 1 0.400473 0.457389 0
416 1 0.42553 0.450561 0
447 1 0.446965 0.471579 0
446 1 0.424254 0.476797 0
477 1 0.440261 0.495026 0
448 1 0.464157 0.489536 0
450 1 0.488003 0.482762 0
1321 1 0.493077 0.457509 0
453 1 0.0150084 0.518762 0
452 1 0.0198218 0.545683 0
454 1 0.0385308 0.529157 0
424 1 0.0335547 0.50357 0
485 1 0.0631124 0.538934 0
455 1 0.058 0.51315 0
456 1 0.0814755 0.523306 0
486 1 0.0860855 0.548456 0
457 1 0.0996322 0.50796 0
458 1 0.124519 0.516101 0
487 1 0.105166 0.531502 0
488 1 0.129641 0.541132 0
489 1 0.146829 0.524368 0
460 1 0.163867 0.501814 0
461 1 0.188814 0.507139 0
462 1 0.192417 0.53213 0
491 1 0.169746 0.538923 0
493 1 0.215837 0.540048 0
463 1 0.212298 0.516031 0
464 1 0.235136 0.523329 0
495 1 0.238394 0.548666 0
466 1 0.257899 0.533423 0
465 1 0.253521 0.507231 0
467 1 0.277465 0.517806 0
497 1 0.280048 0.542425 0
438 1 0.295683 0.500233 0
468 1 0.299346 0.526865 0
469 1 0.318163 0.51103 0
499 1 0.322003 0.536605 0
470 1 0.34124 0.519126 0
501 1 0.345869 0.545598 0
472 1 0.359315 0.503534 0
503 1 0.364927 0.529105 0
474 1 0.383505 0.513436 0
505 1 0.388507 0.538247 0
476 1 0.409026 0.5239 0
475 1 0.415932 0.500236 0
507 1 0.433206 0.519069 0
509 1 0.451428 0.536454 0
506 1 0.413414 0.548301 0
478 1 0.4572 0.513151 0
479 1 0.482752 0.507802 0
480 1 0.475284 0.530283 0
1381 1 0.498916 0.525856 0
513 1 0.0236839 0.569497 0
511 1 0.00101635 0.583441 0
483 1 0.0431384 0.554141 0
514 1 0.0471223 0.577697 0
512 1 0.0235066 0.594258 0
1771 1 0.483082 0.979739 0
484 1 0.0668985 0.563302 0
515 1 0.0905019 0.573458 0
545 1 0.0701035 0.587524 0
516 1 0.0918527 0.598871 0
517 1 0.109126 0.557098 0
518 1 0.111843 0.582746 0
519 1 0.130944 0.569518 0
549 1 0.132736 0.594556 0
490 1 0.150373 0.554634 0
520 1 0.152841 0.579851 0
521 1 0.174451 0.565614 0
492 1 0.194862 0.555543 0
523 1 0.198535 0.57847 0
522 1 0.176628 0.59075 0
494 1 0.217754 0.564248 0
524 1 0.221317 0.5885 0
525 1 0.241909 0.573044 0
555 1 0.243879 0.597816 0
496 1 0.260954 0.557791 0
526 1 0.263878 0.583586 0
527 1 0.282958 0.568023 0
528 1 0.286149 0.592501 0
498 1 0.302531 0.551598 0
529 1 0.305964 0.577075 0
500 1 0.325802 0.561604 0
530 1 0.329291 0.585357 0
531 1 0.34905 0.56986 0
532 1 0.351236 0.593931 0
502 1 0.368876 0.554247 0
504 1 0.391374 0.564316 0
533 1 0.371084 0.579122 0
534 1 0.394054 0.587624 0
535 1 0.415513 0.572332 0
508 1 0.438464 0.557104 0
537 1 0.438598 0.580864 0
536 1 0.41853 0.596268 0
510 1 0.490159 0.549875 0
539 1 0.463503 0.557153 0
540 1 0.482672 0.572901 0
538 1 0.461619 0.585824 0
569 1 0.483626 0.59861 0
541 1 0.00422969 0.608848 0
542 1 0.0264942 0.618335 0
571 1 0.00529404 0.633396 0
543 1 0.0475373 0.603623 0
573 1 0.0298697 0.642602 0
544 1 0.0500573 0.627866 0
546 1 0.0720251 0.611233 0
547 1 0.0945375 0.624365 0
575 1 0.0746575 0.636766 0
576 1 0.0961681 0.647922 0
548 1 0.112963 0.608839 0
550 1 0.136768 0.618989 0
577 1 0.116695 0.634624 0
579 1 0.139396 0.642895 0
551 1 0.156722 0.605093 0
581 1 0.160751 0.62934 0
552 1 0.179499 0.614369 0
582 1 0.183166 0.639547 0
553 1 0.20107 0.601715 0
554 1 0.223831 0.611694 0
583 1 0.203134 0.625415 0
556 1 0.245738 0.622066 0
585 1 0.225961 0.63628 0
586 1 0.249927 0.645283 0
557 1 0.266183 0.607928 0
587 1 0.269626 0.631696 0
558 1 0.289581 0.616934 0
589 1 0.291973 0.640921 0
559 1 0.310011 0.602497 0
560 1 0.313081 0.626343 0
561 1 0.332423 0.609833 0
591 1 0.334654 0.634533 0
562 1 0.354549 0.619112 0
563 1 0.374957 0.603841 0
564 1 0.377847 0.628341 0
565 1 0.398286 0.611304 0
593 1 0.35787 0.642937 0
595 1 0.400386 0.636061 0
566 1 0.422034 0.620561 0
567 1 0.44274 0.605936 0
597 1 0.446456 0.629961 0
596 1 0.423044 0.643857 0
1442 1 0.495541 0.620993 0
568 1 0.469309 0.618433 0
570 1 0.480695 0.63997 0
572 1 0.00905881 0.657796 0
603 1 0.032992 0.666292 0
602 1 0.0139975 0.683205 0
633 1 0.0364851 0.691903 0
574 1 0.0540972 0.653821 0
605 1 0.0756423 0.66359 0
604 1 0.0570527 0.678996 0
606 1 0.0798982 0.687533 0
607 1 0.0999547 0.673861 0
578 1 0.118006 0.659802 0
609 1 0.143011 0.667631 0
608 1 0.123051 0.684181 0
639 1 0.1457 0.695292 0
637 1 0.102476 0.698512 0
580 1 0.163964 0.653311 0
611 1 0.186136 0.665883 0
610 1 0.164157 0.678774 0
612 1 0.187639 0.690214 0
584 1 0.205729 0.650152 0
613 1 0.208667 0.675361 0
615 1 0.227561 0.659485 0
614 1 0.230845 0.684822 0
617 1 0.25052 0.669619 0
588 1 0.271744 0.655696 0
619 1 0.294028 0.665476 0
616 1 0.252612 0.695286 0
618 1 0.272049 0.680916 0
590 1 0.315398 0.649801 0
621 1 0.317658 0.674766 0
592 1 0.337953 0.658999 0
622 1 0.339488 0.684946 0
620 1 0.319748 0.697908 0
623 1 0.360406 0.668457 0
594 1 0.380566 0.652077 0
653 1 0.364113 0.6939 0
624 1 0.383313 0.676813 0
655 1 0.386744 0.703645 0
625 1 0.402923 0.660466 0
598 1 0.444075 0.654141 0
627 1 0.4248 0.669893 0
626 1 0.405905 0.686642 0
628 1 0.448614 0.678759 0
657 1 0.429709 0.695818 0
599 1 0.466861 0.659827 0
600 1 0.490953 0.663771 0
629 1 0.472397 0.68386 0
630 1 0.495877 0.688707 0
632 1 0.0170413 0.708053 0
634 1 0.0392232 0.716287 0
663 1 0.0196909 0.731806 0
664 1 0.041074 0.743713 0
635 1 0.0588812 0.702255 0
636 1 0.0806297 0.712927 0
665 1 0.0616853 0.727455 0
666 1 0.0831534 0.73808 0
638 1 0.124331 0.708649 0
667 1 0.103356 0.724706 0
640 1 0.146887 0.719652 0
669 1 0.126602 0.733967 0
668 1 0.107286 0.749606 0
670 1 0.149355 0.744173 0
641 1 0.166939 0.704965 0
642 1 0.190042 0.713932 0
671 1 0.169363 0.729067 0
673 1 0.192636 0.738107 0
643 1 0.211451 0.698914 0
645 1 0.232777 0.709407 0
644 1 0.211905 0.723534 0
675 1 0.23575 0.733159 0
674 1 0.215972 0.748253 0
646 1 0.256315 0.719028 0
647 1 0.276439 0.705082 0
677 1 0.259299 0.743737 0
648 1 0.279249 0.729441 0
649 1 0.29948 0.713799 0
679 1 0.302778 0.737793 0
651 1 0.342164 0.708788 0
650 1 0.322108 0.723537 0
652 1 0.344025 0.732632 0
681 1 0.324006 0.748142 0
654 1 0.364853 0.717675 0
685 1 0.389734 0.72945 0
683 1 0.368316 0.742923 0
656 1 0.411037 0.711778 0
687 1 0.434393 0.720257 0
686 1 0.415327 0.736642 0
717 1 0.440972 0.744914 0
658 1 0.453779 0.703232 0
659 1 0.478192 0.707953 0
689 1 0.459204 0.72669 0
660 1 0.486134 0.731173 0
662 1 0.0206133 0.758066 0
694 1 0.0441363 0.76857 0
693 1 0.0247916 0.783478 0
725 1 0.045489 0.794646 0
692 1 0.0038134 0.795982 0
695 1 0.0638968 0.753048 0
697 1 0.0855062 0.763113 0
696 1 0.0651152 0.780411 0
727 1 0.0881558 0.790921 0
699 1 0.128499 0.761082 0
698 1 0.108428 0.775094 0
700 1 0.131962 0.784645 0
728 1 0.112687 0.799738 0
701 1 0.154059 0.770435 0
672 1 0.173459 0.75367 0
703 1 0.196807 0.764151 0
702 1 0.177212 0.779148 0
731 1 0.155701 0.793801 0
704 1 0.198814 0.78964 0
676 1 0.237557 0.75791 0
705 1 0.218924 0.773637 0
706 1 0.241497 0.783515 0
735 1 0.22182 0.799475 0
707 1 0.261955 0.76862 0
678 1 0.283608 0.753016 0
737 1 0.263642 0.792922 0
709 1 0.284411 0.779272 0
680 1 0.304523 0.764374 0
682 1 0.348426 0.756978 0
710 1 0.307388 0.787403 0
711 1 0.329351 0.772165 0
741 1 0.329721 0.798389 0
712 1 0.349203 0.783516 0
713 1 0.369513 0.768175 0
714 1 0.391085 0.77642 0
743 1 0.371191 0.793348 0
684 1 0.394079 0.752647 0
715 1 0.423693 0.763799 0
716 1 0.41172 0.784993 0
747 1 0.435815 0.787675 0
718 1 0.450662 0.766867 0
688 1 0.469904 0.749558 0
690 1 0.493595 0.755886 0
719 1 0.47573 0.773595 0
720 1 0.482421 0.7993 0
749 1 0.45912 0.793295 0
1591 1 0.500903 0.779876 0
723 1 0.0239964 0.809186 0
751 1 0.00302991 0.82289 0
722 1 0.0259413 0.836612 0
724 1 0.0469414 0.82029 0
1680 1 -0.000663356 0.847271 0
726 1 0.0692267 0.80504 0
757 1 0.0926411 0.815362 0
755 1 0.07221 0.830284 0
756 1 0.0938241 0.840115 0
754 1 0.0534544 0.84443 0
729 1 0.135351 0.808917 0
759 1 0.115387 0.824972 0
760 1 0.138225 0.833234 0
732 1 0.17882 0.803014 0
730 1 0.158003 0.818448 0
761 1 0.161341 0.84602 0
763 1 0.181207 0.830875 0
733 1 0.201706 0.814189 0
736 1 0.243343 0.808411 0
764 1 0.203944 0.840623 0
734 1 0.223605 0.824746 0
767 1 0.246897 0.833296 0
708 1 0.286732 0.802244 0
738 1 0.265924 0.818129 0
768 1 0.269476 0.842322 0
769 1 0.289487 0.826514 0
739 1 0.310279 0.811288 0
740 1 0.311006 0.835674 0
771 1 0.332887 0.823255 0
772 1 0.340061 0.849152 0
745 1 0.394133 0.802075 0
742 1 0.352522 0.808095 0
773 1 0.35741 0.834079 0
744 1 0.375381 0.817763 0
774 1 0.379411 0.841783 0
775 1 0.398393 0.82612 0
746 1 0.417844 0.808362 0
748 1 0.442461 0.811962 0
777 1 0.422929 0.833094 0
779 1 0.446086 0.837001 0
776 1 0.403091 0.850328 0
750 1 0.465899 0.816799 0
1621 1 0.489121 0.822334 0
780 1 0.471547 0.841119 0
1651 1 0.493896 0.847566 0
753 1 0.035543 0.858556 0
752 1 0.0127845 0.866159 0
783 1 0.031566 0.88233 0
782 1 0.00773082 0.890505 0
785 1 0.0752207 0.856324 0
784 1 0.05521 0.872064 0
786 1 0.0751084 0.885728 0
787 1 0.0985608 0.862898 0
815 1 0.049786 0.898625 0
758 1 0.119667 0.848654 0
789 1 0.142955 0.860097 0
788 1 0.121808 0.87383 0
817 1 0.101834 0.886792 0
790 1 0.143558 0.886028 0
819 1 0.122898 0.900545 0
762 1 0.185277 0.85639 0
791 1 0.165668 0.871302 0
792 1 0.166195 0.895737 0
793 1 0.188098 0.882274 0
765 1 0.226346 0.848637 0
795 1 0.207912 0.865593 0
794 1 0.210093 0.893964 0
796 1 0.230017 0.873587 0
825 1 0.233914 0.899117 0
766 1 0.250979 0.858339 0
797 1 0.27394 0.86696 0
827 1 0.253975 0.884271 0
799 1 0.292251 0.851939 0
798 1 0.283694 0.888503 0
770 1 0.315705 0.858707 0
800 1 0.308441 0.88124 0
801 1 0.334925 0.874717 0
831 1 0.326257 0.897605 0
802 1 0.352856 0.892271 0
803 1 0.361835 0.859348 0
804 1 0.376363 0.888353 0
805 1 0.384787 0.865641 0
778 1 0.428095 0.857791 0
807 1 0.409702 0.876481 0
808 1 0.435758 0.880534 0
809 1 0.453011 0.860705 0
1681 1 0.47622 0.866091 0
1711 1 0.483891 0.889182 0
810 1 0.45947 0.884613 0
813 1 0.0266888 0.907346 0
843 1 0.0208641 0.932247 0
814 1 0.0434133 0.924505 0
844 1 0.0380911 0.948389 0
812 1 0.00331874 0.914081 0
816 1 0.0888304 0.906782 0
845 1 0.0662705 0.916701 0
846 1 0.0612849 0.942587 0
847 1 0.0850682 0.933397 0
818 1 0.109223 0.92149 0
820 1 0.128434 0.940815 0
821 1 0.146357 0.912016 0
849 1 0.104189 0.949631 0
851 1 0.152093 0.935641 0
823 1 0.188598 0.906987 0
822 1 0.176311 0.929169 0
824 1 0.20404 0.92539 0
885 1 0.219858 0.945212 0
855 1 0.226883 0.922293 0
856 1 0.244144 0.939648 0
826 1 0.251638 0.917172 0
857 1 0.267674 0.933428 0
828 1 0.275604 0.910783 0
859 1 0.292856 0.927719 0
829 1 0.30214 0.904612 0
860 1 0.309186 0.94557 0
830 1 0.318472 0.923013 0
832 1 0.341861 0.914625 0
861 1 0.334301 0.940303 0
806 1 0.39554 0.903722 0
863 1 0.358768 0.93353 0
833 1 0.368506 0.910745 0
834 1 0.383325 0.928754 0
865 1 0.40007 0.947486 0
837 1 0.423353 0.901195 0
835 1 0.408406 0.924358 0
836 1 0.423792 0.945145 0
838 1 0.438004 0.926394 0
869 1 0.453429 0.948264 0
839 1 0.459992 0.909805 0
840 1 0.47042 0.931392 0
1712 1 0.488505 0.912788 0
1741 1 0.494201 0.937466 0
842 1 0.0124256 0.955147 0
872 1 0.0211508 0.997419 0
873 1 0.0296995 0.973755 0
871 1 0.00487726 0.979226 0
874 1 0.0489168 0.990846 0
7 1 0.0925015 0.997831 0
875 1 0.055497 0.965798 0
876 1 0.0749313 0.982344 0
848 1 0.0799465 0.957137 0
877 1 0.0981859 0.972903 0
878 1 0.115182 0.991558 0
879 1 0.123573 0.965457 0
881 1 0.140029 0.984063 0
850 1 0.145963 0.959447 0
854 1 0.196436 0.9491 0
853 1 0.169949 0.954565 0
852 1 0.163466 0.978687 0
883 1 0.186846 0.973121 0
882 1 0.178593 0.99817 0
13 1 0.203166 0.991488 0
15 1 0.228374 0.986208 0
884 1 0.210685 0.968084 0
886 1 0.235766 0.962454 0
858 1 0.284652 0.951725 0
887 1 0.260935 0.956755 0
17 1 0.253994 0.980211 0
888 1 0.277556 0.974916 0
19 1 0.293519 0.992947 0
889 1 0.302068 0.969869 0
890 1 0.317529 0.989294 0
892 1 0.341333 0.98323 0
891 1 0.326169 0.965074 0
862 1 0.350311 0.957651 0
864 1 0.374549 0.952446 0
894 1 0.383111 0.994829 0
893 1 0.365387 0.976279 0
895 1 0.390015 0.971296 0
866 1 0.414475 0.967421 0
896 1 0.408758 0.991156 0
867 1 0.437821 0.966258 0
897 1 0.440514 0.991059 0
868 1 0.459582 0.973997 0
899 1 0.465295 0.997662 0
870 1 0.477102 0.954959 0
18 1 0.270468 0.998645 0
434 1 0.230039 0.499893 0
902 1 0.537136 0.0162582 0
901 1 0.512867 0.00984018 0
931 1 0.520228 0.0346499 0
933 1 0.54434 0.0419725 0
904 1 0.561726 0.0247255 0
906 1 0.581638 0.00583781 0
935 1 0.585595 0.0297828 0
934 1 0.569133 0.0492359 0
908 1 0.604429 0.0124603 0
937 1 0.60831 0.0369189 0
939 1 0.627083 0.0211697 0
938 1 0.634141 0.0445356 0
910 1 0.643759 0.00212024 0
941 1 0.651576 0.0258685 0
912 1 0.670155 0.00869588 0
942 1 0.676199 0.0319892 0
943 1 0.69453 0.0129721 0
940 1 0.659745 0.0493029 0
973 1 0.70149 0.0361637 0
944 1 0.719097 0.0200758 0
945 1 0.736099 0.00311767 0
946 1 0.742497 0.0271361 0
975 1 0.725097 0.0448215 0
947 1 0.758486 0.00869745 0
948 1 0.765667 0.0319411 0
918 1 0.781922 0.0149789 0
979 1 0.790596 0.0399052 0
921 1 0.820598 0.00143632 0
949 1 0.806397 0.0205085 0
951 1 0.832857 0.0222099 0
950 1 0.825501 0.0451357 0
952 1 0.851119 0.0411837 0
922 1 0.844036 -0.000419526 0
953 1 0.860822 0.0179284 0
924 1 0.885205 0.01196 0
954 1 0.875509 0.0353434 0
955 1 0.901038 0.0303839 0
925 1 0.908623 0.00586069 0
926 1 0.925081 0.0233581 0
957 1 0.941601 0.0415195 0
956 1 0.918206 0.0480793 0
928 1 0.950013 0.0176128 0
959 1 0.965968 0.0362417 0
930 1 0.991634 0.0269368 0
929 1 0.973534 0.0120687 0
1 1 0.997504 0.00363689 0
932 1 0.526202 0.0594016 0
962 1 0.533649 0.082286 0
961 1 0.508668 0.0756053 0
60 1 0.502809 0.0528706 0
963 1 0.550947 0.0662585 0
965 1 0.575996 0.072062 0
964 1 0.557253 0.0898278 0
936 1 0.593247 0.0553893 0
995 1 0.582895 0.0963468 0
966 1 0.599804 0.0800016 0
967 1 0.61606 0.0615132 0
968 1 0.625593 0.0860526 0
969 1 0.642348 0.0676163 0
999 1 0.648907 0.0912127 0
970 1 0.666033 0.0721956 0
971 1 0.68457 0.0554384 0
972 1 0.69069 0.0789558 0
1001 1 0.673495 0.0970776 0
1003 1 0.707355 0.0614496 0
1004 1 0.715372 0.0865466 0
974 1 0.733556 0.0678232 0
1005 1 0.739043 0.0935894 0
976 1 0.749965 0.0501371 0
1007 1 0.756806 0.0767118 0
977 1 0.774027 0.0587971 0
978 1 0.793609 0.0754413 0
980 1 0.817697 0.0702348 0
981 1 0.842572 0.0626668 0
1009 1 0.81106 0.0932457 0
1011 1 0.834068 0.0863623 0
985 1 0.892097 0.0554569 0
982 1 0.858426 0.0829926 0
983 1 0.867939 0.0612104 0
984 1 0.884998 0.078732 0
1015 1 0.902391 0.0952987 0
986 1 0.909328 0.0716955 0
987 1 0.933855 0.0658585 0
1017 1 0.92808 0.0895063 0
960 1 0.984356 0.0505381 0
988 1 0.951062 0.082668 0
958 1 0.958852 0.0588748 0
989 1 0.97601 0.0752275 0
990 1 0.99351 0.0937421 0
1019 1 0.968692 0.0989449 0
991 1 0.516897 0.0995328 0
992 1 0.523017 0.124428 0
993 1 0.540311 0.10659 0
1023 1 0.547236 0.129733 0
1021 1 0.506122 0.142262 0
1022 1 0.530274 0.148152 0
994 1 0.564726 0.11368 0
996 1 0.589302 0.12011 0
1025 1 0.570282 0.137851 0
1026 1 0.596027 0.143773 0
997 1 0.607771 0.103143 0
998 1 0.630676 0.109697 0
1027 1 0.613391 0.126646 0
1029 1 0.638012 0.133075 0
1000 1 0.654951 0.114175 0
1031 1 0.678189 0.122238 0
1002 1 0.696847 0.103904 0
1030 1 0.661951 0.139826 0
1032 1 0.68427 0.14602 0
1033 1 0.702115 0.127646 0
1035 1 0.720239 0.110054 0
1034 1 0.72723 0.13399 0
1008 1 0.7862 0.0985117 0
1006 1 0.763289 0.102924 0
1037 1 0.778313 0.121575 0
1036 1 0.752561 0.124372 0
1038 1 0.7941 0.13901 0
1067 1 0.768828 0.144904 0
1039 1 0.803023 0.116786 0
1010 1 0.828236 0.110276 0
1041 1 0.84384 0.130109 0
1040 1 0.819837 0.134397 0
1013 1 0.875286 0.102683 0
1012 1 0.851964 0.106645 0
1043 1 0.868492 0.12618 0
1014 1 0.893944 0.1189 0
1044 1 0.886796 0.144391 0
1045 1 0.912096 0.139928 0
1016 1 0.918777 0.114287 0
1047 1 0.937079 0.132027 0
1018 1 0.945306 0.106871 0
1049 1 0.961009 0.125284 0
1020 1 0.9843 0.117366 0
1050 1 0.976187 0.142442 0
1053 1 0.536142 0.172625 0
1051 1 0.51268 0.165849 0
1052 1 0.518341 0.189689 0
1083 1 0.543777 0.196147 0
1024 1 0.552656 0.154148 0
1055 1 0.579159 0.161094 0
1054 1 0.560998 0.177935 0
1056 1 0.583729 0.185801 0
1028 1 0.620035 0.14958 0
1057 1 0.603131 0.168525 0
1058 1 0.626609 0.174586 0
1059 1 0.643872 0.157434 0
1087 1 0.608895 0.191534 0
1060 1 0.651695 0.182436 0
1089 1 0.632972 0.197785 0
1061 1 0.668669 0.163858 0
1062 1 0.693231 0.169651 0
1091 1 0.675427 0.187876 0
1093 1 0.699202 0.193625 0
1063 1 0.710311 0.151458 0
1064 1 0.718864 0.176279 0
1065 1 0.738333 0.157962 0
1095 1 0.74255 0.18218 0
1066 1 0.763814 0.169227 0
1068 1 0.787407 0.163087 0
1097 1 0.781232 0.189466 0
1069 1 0.811706 0.157866 0
1071 1 0.836416 0.154648 0
1070 1 0.828911 0.178252 0
1099 1 0.805475 0.181782 0
1101 1 0.845195 0.197893 0
1042 1 0.860915 0.150288 0
1072 1 0.853518 0.1735 0
1073 1 0.878357 0.168005 0
1103 1 0.871749 0.193748 0
1074 1 0.896214 0.188717 0
1075 1 0.903838 0.16468 0
1077 1 0.929475 0.15672 0
1076 1 0.921193 0.182408 0
1078 1 0.945275 0.175077 0
1046 1 0.952551 0.149761 0
1048 1 0.968874 0.169062 0
151 1 0.992676 0.160818 0
1079 1 0.984241 0.188282 0
1109 1 0.960253 0.194082 0
1081 1 0.501441 0.206782 0
1082 1 0.525613 0.214925 0
1111 1 0.506831 0.231104 0
1113 1 0.532485 0.239485 0
1084 1 0.550061 0.220675 0
1085 1 0.567437 0.203636 0
1086 1 0.590678 0.209966 0
1114 1 0.556657 0.246396 0
1115 1 0.574461 0.227616 0
1117 1 0.597822 0.234487 0
1088 1 0.61488 0.216695 0
1119 1 0.640511 0.221817 0
1118 1 0.622023 0.239686 0
1120 1 0.646535 0.246209 0
1090 1 0.659061 0.205686 0
1092 1 0.682163 0.211859 0
1121 1 0.664893 0.229367 0
1122 1 0.688791 0.235739 0
1094 1 0.724398 0.199698 0
1123 1 0.706459 0.21811 0
1124 1 0.713311 0.241135 0
1125 1 0.730579 0.222107 0
1155 1 0.738184 0.247894 0
1096 1 0.750439 0.205486 0
1127 1 0.774149 0.213132 0
1126 1 0.755083 0.230106 0
1128 1 0.791941 0.231465 0
1098 1 0.798301 0.206986 0
1100 1 0.821403 0.20128 0
1131 1 0.839721 0.221294 0
1129 1 0.815804 0.227039 0
1130 1 0.832514 0.246482 0
1159 1 0.809054 0.250162 0
1102 1 0.863652 0.217865 0
1104 1 0.888468 0.212871 0
1132 1 0.855559 0.241622 0
1133 1 0.878468 0.237458 0
1105 1 0.912491 0.206752 0
1107 1 0.937142 0.201928 0
1135 1 0.904291 0.231539 0
1106 1 0.929097 0.226866 0
1137 1 0.945719 0.245435 0
1108 1 0.952959 0.220044 0
1110 1 0.977255 0.215346 0
1139 1 0.971186 0.240884 0
1140 1 0.995073 0.248314 0
1112 1 0.514677 0.255752 0
1143 1 0.53929 0.263474 0
1142 1 0.523255 0.280543 0
1144 1 0.546501 0.288354 0
1171 1 0.504859 0.299595 0
1116 1 0.581044 0.252429 0
1145 1 0.564553 0.270391 0
1146 1 0.589512 0.276789 0
1175 1 0.571908 0.294469 0