ITEM: TIMESTEP
8000
ITEM: NUMBER OF ATOMS
1800
ITEM: BOX BOUNDS pp pp pp
1.0186774732377870e+00 1.5738132252676166e+02
1.0186774732377870e+00 1.5738132252676166e+02
0.0000000000000000e+00 5.2800000000000002e+00
ITEM: ATOMS id type xs ys zs
2 1 0.0159092 0.0169126 0
3 1 0.039657 0.0113562 0
33 1 0.0303384 0.0366109 0
31 1 0.00650711 0.0407597 0
4 1 0.0538658 0.0306679 0
6 1 0.0778813 0.0225062 0
5 1 0.0629938 0.00643 0
8 1 0.100537 0.0164652 0
9 1 0.123758 0.016373 0
37 1 0.0947435 0.0388076 0
39 1 0.125656 0.0410895 0
10 1 0.14684 0.0265728 0
41 1 0.171815 0.031249 0
11 1 0.162681 0.00856718 0
12 1 0.187912 0.0127849 0
14 1 0.211739 0.0136984 0
43 1 0.198346 0.0346781 0
44 1 0.221708 0.0369896 0
16 1 0.257164 0.00756281 0
45 1 0.234481 0.0145906 0
46 1 0.246743 0.0335663 0
47 1 0.270749 0.0270835 0
18 1 0.281209 0.00364992 0
20 1 0.315053 0.008726 0
49 1 0.294815 0.0234603 0
50 1 0.312673 0.0405178 0
22 1 0.356859 0.0281148 0
51 1 0.332905 0.0264738 0
21 1 0.341098 0.00396094 0
23 1 0.364628 0.000117957 0
24 1 0.381537 0.0203131 0
55 1 0.398318 0.0359171 0
25 1 0.404243 0.013991 0
53 1 0.37501 0.0444273 0
26 1 0.424693 0.0292673 0
28 1 0.452096 0.0315687 0
27 1 0.428637 0.00605916 0
449 1 0.467333 0.470606 0
30 1 0.497105 0.0278787 0
59 1 0.477031 0.0407783 0
29 1 0.47379 0.0161739 0
900 1 0.496037 0.00352076 0
32 1 0.023038 0.0594075 0
62 1 0.015059 0.0827664 0
63 1 0.0398187 0.0776125 0
35 1 0.0703213 0.0482978 0
34 1 0.0474336 0.0534813 0
36 1 0.0862751 0.0645666 0
65 1 0.0629032 0.0712159 0
66 1 0.0797875 0.0902415 0
38 1 0.107748 0.0588364 0
67 1 0.101994 0.0827143 0
69 1 0.127435 0.0744392 0
40 1 0.156835 0.0500968 0
71 1 0.166929 0.0729844 0
42 1 0.18132 0.0534046 0
72 1 0.189603 0.0768412 0
73 1 0.205595 0.0576238 0
103 1 0.208425 0.0908447 0
74 1 0.228945 0.0749583 0
75 1 0.238466 0.0552576 0
76 1 0.256248 0.0711453 0
77 1 0.26664 0.0488143 0
48 1 0.289372 0.0474436 0
78 1 0.282653 0.0710856 0
79 1 0.306318 0.0650748 0
109 1 0.301374 0.0890779 0
80 1 0.324683 0.0813862 0
52 1 0.352554 0.0534678 0
81 1 0.329962 0.0589274 0
82 1 0.348539 0.0777637 0
54 1 0.394079 0.0606246 0
83 1 0.370362 0.0685256 0
84 1 0.404725 0.0872922 0
57 1 0.438786 0.0514165 0
56 1 0.415625 0.0513617 0
85 1 0.423066 0.0732953 0
87 1 0.446176 0.0757517 0
88 1 0.471983 0.0858226 0
58 1 0.461245 0.0579456 0
89 1 0.484125 0.0660513 0
93 1 0.0302892 0.101133 0
92 1 0.011629 0.124609 0
94 1 0.0479733 0.117455 0
64 1 0.0571545 0.0951592 0
95 1 0.0715668 0.112182 0
96 1 0.0908417 0.128854 0
125 1 0.0647316 0.13448 0
68 1 0.121149 0.0971341 0
97 1 0.0981432 0.106667 0
98 1 0.114158 0.123976 0
129 1 0.130651 0.138887 0
99 1 0.138759 0.115639 0
70 1 0.145869 0.0897118 0
100 1 0.162278 0.106285 0
131 1 0.178509 0.122319 0
130 1 0.156202 0.129654 0
101 1 0.186607 0.100401 0
102 1 0.202062 0.120677 0
104 1 0.22865 0.133121 0
105 1 0.224792 0.109114 0
106 1 0.244397 0.0953095 0
107 1 0.271024 0.0921141 0
135 1 0.250788 0.12044 0
137 1 0.27446 0.127146 0
108 1 0.290009 0.110436 0
139 1 0.298268 0.134346 0
110 1 0.31704 0.112388 0
111 1 0.33962 0.102548 0
141 1 0.34334 0.125314 0
112 1 0.364408 0.113403 0
113 1 0.381407 0.0947284 0
114 1 0.389127 0.119245 0
115 1 0.413664 0.11117 0
145 1 0.414984 0.135217 0
86 1 0.431533 0.0950724 0
116 1 0.43734 0.118658 0
117 1 0.454349 0.101196 0
90 1 0.494762 0.0948551 0
118 1 0.459379 0.12758 0
119 1 0.477277 0.111744 0
457 1 0.104112 0.496621 0
123 1 0.0393936 0.140314 0
122 1 0.0135574 0.149767 0
153 1 0.0327027 0.163601 0
152 1 0.00516415 0.174189 0
124 1 0.0569623 0.158492 0
126 1 0.0799702 0.153053 0
155 1 0.0752279 0.174873 0
154 1 0.0518769 0.182437 0
127 1 0.10699 0.145578 0
128 1 0.123647 0.162729 0
157 1 0.100074 0.167313 0
159 1 0.148812 0.15324 0
161 1 0.169288 0.170548 0
132 1 0.171522 0.148088 0
160 1 0.142571 0.17691 0
133 1 0.194727 0.14387 0
134 1 0.214967 0.154242 0
163 1 0.195902 0.170527 0
164 1 0.224239 0.176661 0
136 1 0.25667 0.143827 0
165 1 0.238941 0.159137 0
167 1 0.262665 0.166312 0
138 1 0.279607 0.150205 0
169 1 0.305121 0.156067 0
168 1 0.286481 0.173039 0
170 1 0.312853 0.179479 0
140 1 0.323015 0.139615 0
142 1 0.351967 0.147526 0
171 1 0.333827 0.162412 0
172 1 0.356654 0.17288 0
143 1 0.373073 0.136 0
144 1 0.396127 0.146556 0
173 1 0.376407 0.161448 0
175 1 0.400473 0.172642 0
147 1 0.438139 0.143444 0
146 1 0.420487 0.160348 0
177 1 0.44537 0.167701 0
176 1 0.425319 0.185746 0
149 1 0.48257 0.135968 0
148 1 0.463191 0.152063 0
150 1 0.487845 0.162871 0
179 1 0.467825 0.176855 0
182 1 0.0175597 0.208757 0
183 1 0.0285379 0.187377 0
184 1 0.0429591 0.205469 0
185 1 0.0663857 0.1997 0
186 1 0.0855509 0.217091 0
215 1 0.0593334 0.221896 0
156 1 0.0914056 0.193022 0
158 1 0.117861 0.184096 0
187 1 0.107928 0.209468 0
189 1 0.132053 0.20163 0
188 1 0.124091 0.224851 0
190 1 0.147214 0.21846 0
191 1 0.157054 0.196899 0
162 1 0.180864 0.191082 0
192 1 0.188441 0.213861 0
193 1 0.203724 0.194179 0
194 1 0.211527 0.21916 0
166 1 0.246265 0.183437 0
195 1 0.227083 0.202241 0
196 1 0.25011 0.208504 0
197 1 0.269433 0.190446 0
225 1 0.234536 0.224677 0
198 1 0.275006 0.213178 0
199 1 0.29394 0.195032 0
229 1 0.297305 0.218925 0
200 1 0.316812 0.205162 0
201 1 0.337304 0.186355 0
202 1 0.341564 0.211331 0
203 1 0.360015 0.195631 0
233 1 0.363487 0.223957 0
174 1 0.382384 0.186123 0
204 1 0.381743 0.210306 0
205 1 0.404306 0.197199 0
178 1 0.449222 0.193501 0
207 1 0.427514 0.208662 0
208 1 0.451812 0.217549 0
180 1 0.490437 0.18682 0
209 1 0.472076 0.20345 0
1081 1 0.500166 0.217315 0
210 1 0.478395 0.226899 0
212 1 0.00852834 0.256681 0
213 1 0.032479 0.22835 0
243 1 0.0332517 0.252312 0
214 1 0.0549807 0.246951 0
216 1 0.079374 0.241855 0
245 1 0.0731342 0.265251 0
244 1 0.0471637 0.270814 0
217 1 0.104265 0.236646 0
218 1 0.120233 0.253313 0
247 1 0.0952052 0.259217 0
219 1 0.139431 0.242601 0
221 1 0.171329 0.22973 0
249 1 0.144092 0.267021 0
220 1 0.160441 0.250878 0
222 1 0.182149 0.259411 0
223 1 0.19336 0.238375 0
224 1 0.217496 0.241164 0
253 1 0.20564 0.263871 0
255 1 0.228058 0.270912 0
226 1 0.239454 0.249071 0
227 1 0.258693 0.231584 0
257 1 0.263267 0.257333 0
228 1 0.28129 0.236577 0
230 1 0.306859 0.240728 0
259 1 0.288657 0.259083 0
260 1 0.313175 0.263054 0
231 1 0.329813 0.233387 0
232 1 0.351668 0.24418 0
261 1 0.336466 0.265325 0
263 1 0.361534 0.267243 0
234 1 0.377348 0.250227 0
235 1 0.392266 0.232955 0
265 1 0.402777 0.253296 0
206 1 0.417617 0.230907 0
236 1 0.426262 0.258319 0
237 1 0.442431 0.238547 0
238 1 0.451124 0.264666 0
239 1 0.465391 0.247132 0
240 1 0.488043 0.25578 0
241 1 0.00027069 0.279166 0
271 1 0.00908397 0.303088 0
242 1 0.0241671 0.276961 0
272 1 0.0314076 0.311726 0
273 1 0.0426843 0.29227 0
275 1 0.066679 0.289197 0
276 1 0.0809771 0.306849 0
274 1 0.0566277 0.313088 0
248 1 0.11473 0.279119 0
246 1 0.0902383 0.283887 0
277 1 0.101852 0.31622 0
279 1 0.121658 0.301935 0
251 1 0.162894 0.277725 0
250 1 0.141238 0.290114 0
280 1 0.150858 0.312951 0
281 1 0.170477 0.298979 0
252 1 0.186623 0.281618 0
254 1 0.210904 0.288106 0
283 1 0.193048 0.305411 0
284 1 0.216094 0.312023 0
256 1 0.250002 0.276602 0
285 1 0.233297 0.295819 0
287 1 0.25904 0.300102 0
258 1 0.275526 0.279563 0
288 1 0.282916 0.302928 0
289 1 0.298093 0.2834 0
290 1 0.307425 0.305143 0
262 1 0.347773 0.287965 0
291 1 0.322621 0.285391 0
292 1 0.331481 0.310277 0
323 1 0.356111 0.313752 0
264 1 0.387645 0.271835 0
293 1 0.371428 0.291184 0
295 1 0.393785 0.29467 0
294 1 0.380202 0.315035 0
266 1 0.409292 0.277149 0
267 1 0.432326 0.282555 0
297 1 0.417353 0.299769 0
298 1 0.43906 0.31244 0
268 1 0.455197 0.291088 0
269 1 0.474244 0.274789 0
270 1 0.480343 0.296757 0
299 1 0.464237 0.314423 0
1141 1 0.49634 0.279029 0
302 1 0.0211335 0.352516 0
303 1 0.0395817 0.333338 0
301 1 0.0138233 0.328137 0
304 1 0.0619892 0.340788 0
305 1 0.085424 0.330544 0
306 1 0.0906719 0.353067 0
333 1 0.0441725 0.358849 0
278 1 0.130871 0.325141 0
307 1 0.112462 0.341744 0
308 1 0.112562 0.367294 0
309 1 0.135874 0.350316 0
310 1 0.15761 0.359403 0
311 1 0.156828 0.335768 0
312 1 0.179792 0.345827 0
282 1 0.176006 0.322517 0
313 1 0.197458 0.33187 0
314 1 0.20154 0.356427 0
315 1 0.22246 0.34254 0
286 1 0.238484 0.321709 0
316 1 0.245482 0.351688 0
317 1 0.263533 0.322563 0
318 1 0.274032 0.34375 0
319 1 0.293197 0.326751 0
349 1 0.29319 0.359982 0
320 1 0.317799 0.35314 0
321 1 0.315749 0.330461 0
322 1 0.340804 0.345798 0
353 1 0.359448 0.362222 0
296 1 0.404019 0.318898 0
324 1 0.364253 0.337376 0
325 1 0.389529 0.336349 0
355 1 0.381905 0.358265 0
326 1 0.406439 0.351672 0
327 1 0.424815 0.33282 0
328 1 0.449103 0.334777 0
359 1 0.44811 0.361513 0
300 1 0.486749 0.321417 0
1201 1 0.494289 0.346604 0
329 1 0.471888 0.338866 0
330 1 0.47609 0.361976 0
332 1 0.0284331 0.377539 0
363 1 0.0337924 0.402293 0
361 1 0.0110835 0.393195 0
331 1 0.00510687 0.370059 0
335 1 0.0675103 0.366009 0
334 1 0.0488844 0.384033 0
336 1 0.070922 0.391274 0
339 1 0.134322 0.376133 0
337 1 0.0913163 0.378355 0
338 1 0.115008 0.389413 0
367 1 0.0942322 0.401147 0
340 1 0.138256 0.398295 0
341 1 0.157387 0.383292 0
371 1 0.162677 0.406292 0
343 1 0.178971 0.370327 0
342 1 0.18172 0.3939 0
345 1 0.222403 0.367002 0
344 1 0.201966 0.380804 0
375 1 0.225335 0.394235 0
373 1 0.202608 0.40594 0
347 1 0.268275 0.367218 0
346 1 0.244146 0.377086 0
377 1 0.265524 0.389801 0
376 1 0.247072 0.403056 0
348 1 0.289601 0.383871 0
350 1 0.311866 0.376512 0
379 1 0.305628 0.401297 0
378 1 0.281061 0.409268 0
351 1 0.335016 0.370194 0
352 1 0.352985 0.388309 0
381 1 0.328329 0.39347 0
354 1 0.375615 0.381643 0
383 1 0.368376 0.406077 0
385 1 0.392858 0.399011 0
356 1 0.398174 0.375965 0
357 1 0.423421 0.368116 0
358 1 0.440143 0.389871 0
387 1 0.415986 0.392491 0
1261 1 0.482229 0.396637 0
1231 1 0.498203 0.370464 0
360 1 0.462372 0.380416 0
389 1 0.460713 0.404615 0
362 1 0.0167669 0.419721 0
393 1 0.0224963 0.441892 0
364 1 0.0398028 0.425398 0
365 1 0.0570931 0.409951 0
394 1 0.0493603 0.447038 0
395 1 0.0720785 0.437927 0
369 1 0.116665 0.41206 0
366 1 0.0948867 0.425124 0
368 1 0.119168 0.435786 0
397 1 0.0970674 0.449291 0
399 1 0.141775 0.445132 0
370 1 0.139027 0.420747 0
400 1 0.165813 0.453577 0
401 1 0.160346 0.43096 0
372 1 0.182071 0.41944 0
403 1 0.205363 0.433092 0
402 1 0.188851 0.449628 0
374 1 0.226458 0.418945 0
404 1 0.23175 0.444405 0
405 1 0.248433 0.427776 0
406 1 0.254167 0.453366 0
407 1 0.271743 0.433498 0
408 1 0.290883 0.448063 0
409 1 0.297552 0.426372 0
410 1 0.315192 0.44351 0
382 1 0.345201 0.412491 0
380 1 0.32244 0.417323 0
411 1 0.337802 0.435369 0
412 1 0.35665 0.453432 0
413 1 0.362615 0.42956 0
384 1 0.38791 0.424306 0
414 1 0.379509 0.445362 0
415 1 0.405814 0.440718 0
386 1 0.40873 0.417085 0
388 1 0.432477 0.411343 0
417 1 0.427555 0.43433 0
418 1 0.44887 0.453112 0
419 1 0.451911 0.427284 0
1291 1 0.497041 0.43733 0
390 1 0.478895 0.419494 0
420 1 0.471258 0.445698 0
450 1 0.484121 0.487786 0
392 1 0.00392467 0.457441 0
422 1 0.0134237 0.480509 0
423 1 0.0314616 0.464174 0
424 1 0.0311993 0.498205 0
396 1 0.0758438 0.463202 0
425 1 0.0548165 0.472161 0
426 1 0.0782417 0.485585 0
448 1 0.46153 0.495744 0
398 1 0.120847 0.459761 0
427 1 0.0990497 0.471859 0
428 1 0.129642 0.483091 0
429 1 0.147053 0.46728 0
430 1 0.152771 0.491424 0
431 1 0.169983 0.475412 0
461 1 0.176985 0.498463 0
432 1 0.193352 0.473688 0
433 1 0.211193 0.458152 0
434 1 0.215583 0.482569 0
1321 1 0.491666 0.461568 0
435 1 0.234595 0.46934 0
436 1 0.258614 0.479712 0
465 1 0.238791 0.493435 0
211 1 0.00394601 0.230147 0
437 1 0.282509 0.471425 0
438 1 0.298608 0.488574 0
439 1 0.306408 0.465248 0
442 1 0.351019 0.477279 0
441 1 0.333693 0.45836 0
440 1 0.322953 0.48298 0
473 1 0.371473 0.490666 0
443 1 0.377483 0.468906 0
445 1 0.403461 0.4649 0
444 1 0.397275 0.490023 0
447 1 0.444153 0.475842 0
416 1 0.42608 0.459854 0
446 1 0.420626 0.483218 0
471 1 0.339373 0.499142 0
452 1 0.0275148 0.543952 0
454 1 0.0445717 0.520336 0
453 1 0.0209924 0.519174 0
483 1 0.051242 0.542961 0
456 1 0.0853153 0.511147 0
485 1 0.0675325 0.52651 0
458 1 0.11761 0.522497 0
459 1 0.13461 0.506287 0
487 1 0.0965409 0.531801 0
1771 1 0.484617 0.966486 0
489 1 0.140937 0.529451 0
460 1 0.160273 0.516281 0
491 1 0.166674 0.538944 0
462 1 0.18479 0.520702 0
464 1 0.224711 0.513461 0
493 1 0.206837 0.530489 0
492 1 0.189365 0.546205 0
466 1 0.247598 0.520614 0
495 1 0.232425 0.538362 0
497 1 0.271051 0.528667 0
468 1 0.291576 0.515453 0
499 1 0.314974 0.536259 0
498 1 0.292191 0.538451 0
469 1 0.316591 0.509446 0
470 1 0.338874 0.525133 0
472 1 0.361048 0.511429 0
501 1 0.35091 0.546548 0
455 1 0.0598441 0.501629 0
474 1 0.387827 0.512893 0
503 1 0.37033 0.533354 0
476 1 0.409973 0.528946 0
505 1 0.391373 0.543096 0
475 1 0.415414 0.506028 0
507 1 0.432921 0.529626 0
477 1 0.438789 0.504861 0
478 1 0.455447 0.52197 0
479 1 0.478959 0.512389 0
480 1 0.476446 0.538658 0
509 1 0.453103 0.545132 0
1381 1 0.499511 0.528425 0
899 1 0.477438 0.989993 0
482 1 0.00485266 0.555722 0
513 1 0.0217961 0.56886 0
514 1 0.0420133 0.579747 0
486 1 0.0785745 0.54766 0
484 1 0.0595261 0.564151 0
515 1 0.0856306 0.573345 0
545 1 0.0645742 0.588824 0
488 1 0.120767 0.545477 0
517 1 0.0999677 0.555966 0
518 1 0.104899 0.585822 0
519 1 0.121757 0.568875 0
490 1 0.144725 0.552346 0
520 1 0.143835 0.577473 0
521 1 0.168509 0.563313 0
522 1 0.169276 0.587426 0
494 1 0.213839 0.553803 0
523 1 0.192289 0.569784 0
524 1 0.215333 0.579437 0
496 1 0.254954 0.546872 0
525 1 0.236746 0.563512 0
526 1 0.259218 0.572876 0
555 1 0.239026 0.590233 0
527 1 0.279176 0.557892 0
528 1 0.282557 0.582886 0
529 1 0.303881 0.562221 0
500 1 0.329178 0.558914 0
530 1 0.327369 0.582664 0
531 1 0.35168 0.569748 0
502 1 0.37183 0.557421 0
504 1 0.394585 0.566899 0
533 1 0.373859 0.580848 0
534 1 0.396115 0.592041 0
535 1 0.416377 0.577775 0
506 1 0.415943 0.551879 0
508 1 0.436315 0.56362 0
537 1 0.43864 0.586397 0
510 1 0.493337 0.553619 0
539 1 0.45996 0.569268 0
540 1 0.48296 0.577345 0
512 1 0.0229933 0.591469 0
541 1 0.0028379 0.603372 0
542 1 0.0232443 0.615956 0
571 1 0.00681442 0.63267 0
543 1 0.0433989 0.604205 0
516 1 0.0865573 0.598791 0
544 1 0.0469298 0.627866 0
546 1 0.0664152 0.611958 0
547 1 0.0875671 0.622344 0
548 1 0.108369 0.609778 0
577 1 0.111905 0.633459 0
549 1 0.128083 0.595488 0
550 1 0.131337 0.617719 0
551 1 0.151622 0.603591 0
581 1 0.154193 0.625809 0
552 1 0.174381 0.61051 0
582 1 0.180977 0.633252 0
553 1 0.193273 0.594299 0
554 1 0.218176 0.602528 0
583 1 0.198279 0.618322 0
585 1 0.221484 0.627517 0
556 1 0.241027 0.613888 0
557 1 0.261994 0.597149 0
587 1 0.26528 0.622435 0
586 1 0.245526 0.636533 0
559 1 0.306281 0.594149 0
558 1 0.28451 0.607378 0
560 1 0.309769 0.618377 0
589 1 0.290565 0.632578 0
532 1 0.351589 0.592797 0
561 1 0.330071 0.606766 0
562 1 0.355395 0.615839 0
591 1 0.332444 0.631618 0
563 1 0.374926 0.605465 0
564 1 0.376842 0.62989 0
565 1 0.396647 0.616311 0
536 1 0.416374 0.602493 0
566 1 0.419593 0.627061 0
567 1 0.439236 0.608573 0
597 1 0.44222 0.634894 0
538 1 0.462064 0.59366 0
568 1 0.462285 0.617856 0
569 1 0.483272 0.604346 0
570 1 0.483205 0.628428 0
573 1 0.0274353 0.644887 0
572 1 0.00820969 0.656282 0
603 1 0.032488 0.667501 0
575 1 0.0687608 0.636971 0
574 1 0.0521127 0.651779 0
605 1 0.0735327 0.661958 0
604 1 0.0533268 0.67626 0
576 1 0.0925263 0.647374 0
578 1 0.117592 0.656048 0
607 1 0.0972808 0.669858 0
608 1 0.118913 0.67993 0
579 1 0.135568 0.640344 0
609 1 0.138846 0.664161 0
580 1 0.157012 0.649895 0
610 1 0.163528 0.672101 0
611 1 0.184299 0.656185 0
584 1 0.203221 0.642388 0
613 1 0.204954 0.667182 0
615 1 0.224505 0.651165 0
614 1 0.229265 0.675522 0
617 1 0.247335 0.659735 0
588 1 0.269195 0.646206 0
618 1 0.269447 0.670832 0
590 1 0.311095 0.643283 0
619 1 0.291089 0.658769 0
621 1 0.312518 0.669121 0
593 1 0.355159 0.641145 0
592 1 0.335401 0.655932 0
622 1 0.337335 0.680273 0
623 1 0.359494 0.666948 0
595 1 0.39768 0.639288 0
594 1 0.379171 0.652707 0
625 1 0.401613 0.663533 0
624 1 0.383145 0.678578 0
596 1 0.422827 0.649767 0
598 1 0.444768 0.659657 0
627 1 0.42618 0.674842 0
599 1 0.464054 0.643575 0
600 1 0.484818 0.652272 0
629 1 0.46613 0.669387 0
630 1 0.48973 0.681254 0
602 1 0.0110627 0.681409 0
632 1 0.0128305 0.706094 0
633 1 0.0354062 0.695453 0
634 1 0.0387457 0.718039 0
606 1 0.0772 0.686185 0
635 1 0.0603414 0.703266 0
636 1 0.0823856 0.710402 0
665 1 0.0614504 0.728737 0
637 1 0.0997433 0.696326 0
638 1 0.124053 0.703031 0
667 1 0.105221 0.720276 0
639 1 0.144644 0.687352 0
640 1 0.14467 0.713013 0
641 1 0.166333 0.695944 0
671 1 0.16968 0.721911 0
612 1 0.184879 0.681473 0
642 1 0.189374 0.706538 0
643 1 0.210584 0.692518 0
644 1 0.212751 0.715548 0
616 1 0.252106 0.687428 0
645 1 0.232494 0.70243 0
646 1 0.256272 0.71336 0
647 1 0.275492 0.700639 0
648 1 0.280867 0.72514 0
649 1 0.298039 0.704694 0
620 1 0.317418 0.693099 0
650 1 0.322778 0.719568 0
651 1 0.340457 0.70533 0
653 1 0.361908 0.690832 0
654 1 0.365677 0.7154 0
655 1 0.386017 0.702149 0
626 1 0.407243 0.687374 0
685 1 0.387906 0.725798 0
628 1 0.44978 0.6853 0
656 1 0.407607 0.710972 0
657 1 0.427406 0.698759 0
687 1 0.429378 0.722217 0
658 1 0.452168 0.710494 0
659 1 0.474453 0.701906 0
660 1 0.491439 0.723407 0
689 1 0.466841 0.729714 0
662 1 0.00891291 0.760559 0
663 1 0.0150046 0.729719 0
664 1 0.0339194 0.75448 0
666 1 0.0855059 0.735958 0
695 1 0.0652029 0.753073 0
697 1 0.0875382 0.759174 0
668 1 0.107665 0.742927 0
669 1 0.126624 0.728646 0
699 1 0.131699 0.751854 0
698 1 0.112704 0.766204 0
670 1 0.151221 0.737547 0
701 1 0.153836 0.761974 0
672 1 0.173664 0.747768 0
702 1 0.178874 0.772654 0
673 1 0.192612 0.731502 0
674 1 0.216503 0.739675 0
703 1 0.19738 0.755404 0
705 1 0.221469 0.76727 0
675 1 0.236197 0.727433 0
676 1 0.23933 0.751791 0
677 1 0.259207 0.738609 0
707 1 0.263406 0.764664 0
678 1 0.280195 0.748363 0
679 1 0.302372 0.733822 0
680 1 0.303342 0.758102 0
709 1 0.284918 0.773489 0
652 1 0.345278 0.728111 0
681 1 0.324298 0.744671 0
682 1 0.348047 0.753383 0
711 1 0.327131 0.77057 0
683 1 0.368414 0.738852 0
684 1 0.388476 0.750478 0
713 1 0.36921 0.765086 0
715 1 0.411081 0.758008 0
686 1 0.41034 0.734468 0
717 1 0.435998 0.744227 0
718 1 0.439738 0.769047 0
688 1 0.460563 0.753134 0
690 1 0.486165 0.75021 0
693 1 0.0245646 0.777461 0
692 1 0.0144666 0.799395 0
723 1 0.0371257 0.7997 0
694 1 0.0479676 0.778249 0
696 1 0.0724017 0.777521 0
725 1 0.0614307 0.801385 0
726 1 0.0849604 0.805389 0
727 1 0.095559 0.782129 0
728 1 0.115793 0.797443 0
700 1 0.13328 0.777833 0
729 1 0.139457 0.801277 0
731 1 0.15649 0.785419 0
732 1 0.173243 0.802593 0
704 1 0.201514 0.77865 0
733 1 0.196127 0.802206 0
735 1 0.222522 0.793061 0
734 1 0.215267 0.815272 0
706 1 0.241785 0.777495 0
736 1 0.238081 0.809381 0
737 1 0.258772 0.797685 0
708 1 0.283506 0.79657 0
710 1 0.308516 0.786456 0
739 1 0.303873 0.809967 0
738 1 0.279658 0.819074 0
712 1 0.349511 0.778827 0
741 1 0.329885 0.799133 0
742 1 0.355513 0.801612 0
714 1 0.392475 0.775016 0
743 1 0.374328 0.78724 0
745 1 0.395543 0.800713 0
744 1 0.375243 0.814696 0
716 1 0.414928 0.781638 0
746 1 0.419088 0.807108 0
747 1 0.435869 0.792225 0
748 1 0.441772 0.814329 0
719 1 0.47645 0.775827 0
720 1 0.483347 0.79954 0
749 1 0.46087 0.792817 0
750 1 0.466651 0.815922 0
751 1 0.00423633 0.829581 0
722 1 0.02636 0.819598 0
752 1 0.0133434 0.853438 0
753 1 0.0337857 0.841131 0
724 1 0.0512783 0.824997 0
754 1 0.0599191 0.847537 0
755 1 0.0840837 0.830279 0
785 1 0.0833731 0.857102 0
756 1 0.10283 0.843895 0
757 1 0.105029 0.819065 0
758 1 0.123858 0.85631 0
759 1 0.128167 0.824698 0
730 1 0.155538 0.819306 0
760 1 0.14555 0.844527 0
761 1 0.168504 0.839651 0
762 1 0.190216 0.850313 0
763 1 0.190049 0.825282 0
764 1 0.213367 0.840753 0
765 1 0.23506 0.833046 0
766 1 0.254309 0.849579 0
767 1 0.256881 0.823944 0
795 1 0.229646 0.857105 0
768 1 0.277374 0.841924 0
769 1 0.300887 0.834206 0
799 1 0.294904 0.858165 0
740 1 0.32282 0.826379 0
770 1 0.318812 0.852406 0
771 1 0.345958 0.822073 0
772 1 0.341775 0.844916 0
773 1 0.366356 0.836033 0
774 1 0.385253 0.848696 0
775 1 0.399182 0.825171 0
803 1 0.36162 0.86537 0
776 1 0.410425 0.849792 0
777 1 0.425012 0.831613 0
778 1 0.433871 0.855547 0
779 1 0.4507 0.836703 0
1621 1 0.491559 0.82311 0
780 1 0.475294 0.841446 0
809 1 0.460807 0.859975 0
1681 1 0.483059 0.863707 0
782 1 0.0139059 0.881628 0
783 1 0.0369442 0.864766 0
813 1 0.0367109 0.889582 0
812 1 0.0179715 0.906367 0
784 1 0.0600688 0.87461 0
786 1 0.0831313 0.88353 0
815 1 0.0616894 0.897405 0
816 1 0.0856825 0.907626 0
787 1 0.102623 0.871337 0
788 1 0.126137 0.882741 0
817 1 0.109106 0.902104 0
819 1 0.131783 0.908738 0
791 1 0.172328 0.868572 0
789 1 0.147722 0.869336 0
790 1 0.152837 0.892045 0
792 1 0.177404 0.893561 0
793 1 0.199337 0.872468 0
794 1 0.221982 0.882434 0
823 1 0.201527 0.896317 0
796 1 0.248143 0.875422 0
797 1 0.271248 0.865316 0
825 1 0.240446 0.899222 0
827 1 0.265878 0.890747 0
798 1 0.289566 0.881806 0
800 1 0.31367 0.875633 0
829 1 0.307475 0.899266 0
828 1 0.284938 0.906304 0
801 1 0.338486 0.869864 0
802 1 0.353097 0.888871 0
831 1 0.331658 0.894544 0
804 1 0.376846 0.88549 0
805 1 0.39511 0.86878 0
833 1 0.374507 0.908972 0
806 1 0.399776 0.893903 0
807 1 0.418259 0.873377 0
808 1 0.44519 0.877412 0
837 1 0.431437 0.896541 0
839 1 0.456652 0.904113 0
1711 1 0.492687 0.888177 0
810 1 0.468783 0.882285 0
840 1 0.480426 0.907748 0
842 1 0.0145955 0.950651 0
843 1 0.0248655 0.929596 0
814 1 0.0425544 0.912819 0
841 1 0.00186203 0.924543 0
844 1 0.0481812 0.936136 0
845 1 0.0666934 0.921969 0
846 1 0.0734069 0.946142 0
847 1 0.0910393 0.931435 0
818 1 0.113864 0.925757 0
848 1 0.0972216 0.954969 0
849 1 0.12028 0.949865 0
821 1 0.155263 0.915227 0
820 1 0.138 0.932002 0
851 1 0.163183 0.938185 0
822 1 0.178764 0.918503 0
824 1 0.201702 0.923814 0
853 1 0.186312 0.941723 0
854 1 0.208982 0.946912 0
855 1 0.22635 0.92943 0
826 1 0.258345 0.913835 0
856 1 0.250918 0.936403 0
885 1 0.231974 0.952355 0
857 1 0.278262 0.92918 0
858 1 0.294559 0.946249 0
859 1 0.303252 0.923876 0
860 1 0.319106 0.942852 0
830 1 0.325244 0.917325 0
832 1 0.349195 0.912924 0
861 1 0.34321 0.935714 0
863 1 0.366926 0.931674 0
834 1 0.392669 0.924992 0
865 1 0.401212 0.947037 0
835 1 0.415542 0.914298 0
836 1 0.42237 0.937973 0
838 1 0.438739 0.920564 0
867 1 0.438365 0.958086 0
870 1 0.459552 0.948833 0
1741 1 0.485154 0.941715 0
869 1 0.46445 0.925513 0
872 1 0.0247948 0.990528 0
873 1 0.0321061 0.968084 0
871 1 0.00746461 0.976137 0
467 1 0.271734 0.50261 0
874 1 0.049197 0.987181 0
875 1 0.0563388 0.963284 0
876 1 0.0773033 0.974857 0
7 1 0.0865423 0.997651 0
877 1 0.101297 0.97851 0
878 1 0.116235 0.995806 0
879 1 0.126687 0.972687 0
850 1 0.143328 0.954767 0
852 1 0.171059 0.961263 0
880 1 0.139761 0.998718 0
881 1 0.151399 0.977155 0
882 1 0.176178 0.988329 0
15 1 0.225565 0.994198 0
13 1 0.199577 0.99046 0
883 1 0.193507 0.965557 0
884 1 0.216543 0.971126 0
886 1 0.241381 0.975246 0
887 1 0.26028 0.958512 0
17 1 0.26536 0.984459 0
888 1 0.283235 0.969223 0
889 1 0.307353 0.96573 0
19 1 0.299234 0.987307 0
862 1 0.355021 0.955192 0
890 1 0.323616 0.985217 0
892 1 0.346488 0.981112 0
891 1 0.332483 0.961376 0
864 1 0.378512 0.952694 0
893 1 0.369597 0.975825 0
895 1 0.394354 0.970968 0
894 1 0.386889 0.995236 0
896 1 0.413928 0.989563 0
866 1 0.4164 0.965839 0
897 1 0.436281 0.981043 0
868 1 0.461105 0.974199 0
898 1 0.453578 0.999759 0
451 1 0.00117415 0.50212 0
463 1 0.20271 0.501999 0
902 1 0.540132 0.0185745 0
933 1 0.544299 0.0447281 0
901 1 0.516177 0.0134774 0
931 1 0.521246 0.0368953 0
904 1 0.560934 0.0268133 0
935 1 0.584266 0.0326263 0
906 1 0.577803 0.00729907 0
120 1 0.500843 0.118059 0
1397 1 0.771959 0.499266 0
908 1 0.602955 0.0170115 0
937 1 0.60848 0.0427214 0
939 1 0.628774 0.0244515 0
910 1 0.645903 0.00753318 0
941 1 0.65107 0.0313855 0
912 1 0.668942 0.015512 0
914 1 0.719401 0.0124227 0
943 1 0.695696 0.0189457 0
942 1 0.677515 0.0402397 0
944 1 0.706939 0.0405269 0
916 1 0.751627 0.00245649 0
945 1 0.73041 0.0330593 0
947 1 0.754097 0.0270034 0
918 1 0.775434 0.0179772 0
949 1 0.795512 0.0351086 0
948 1 0.772856 0.0425059 0
920 1 0.808286 0.0125782 0
922 1 0.845316 0.0213465 0
951 1 0.823844 0.0286184 0
1262 1 0.502655 0.413801 0
923 1 0.866106 0.00506132 0
953 1 0.867975 0.0293095 0
924 1 0.891345 0.0133069 0
954 1 0.889969 0.0385355 0
925 1 0.911156 0.000591501 0
955 1 0.911809 0.0283008 0
926 1 0.931349 0.0155734 0
928 1 0.954519 0.00814459 0
957 1 0.93126 0.0408671 0
959 1 0.962392 0.0293394 0
930 1 0.991748 0.0225407 0
929 1 0.977246 0.00370176 0
932 1 0.526814 0.0620803 0
962 1 0.531699 0.0843279 0
961 1 0.508784 0.0767193 0
60 1 0.501476 0.0509819 0
963 1 0.548307 0.0678627 0
934 1 0.567568 0.0514262 0
936 1 0.591251 0.0579455 0
965 1 0.572895 0.0769955 0
966 1 0.596248 0.0826347 0
938 1 0.633813 0.0463403 0
967 1 0.614161 0.0660838 0
969 1 0.635358 0.0755486 0
968 1 0.617951 0.0911338 0
940 1 0.65543 0.0559049 0
970 1 0.657952 0.0790754 0
971 1 0.677678 0.0641203 0
972 1 0.678461 0.0872706 0
973 1 0.702972 0.0655622 0
974 1 0.722775 0.0801025 0
975 1 0.724344 0.0573591 0
1003 1 0.701759 0.0887027 0
946 1 0.749986 0.0502492 0
976 1 0.746725 0.0742317 0
977 1 0.768588 0.0665065 0
1007 1 0.761195 0.0913323 0
950 1 0.816875 0.0508071 0
978 1 0.784239 0.0829014 0
979 1 0.79149 0.0577985 0
980 1 0.808693 0.077217 0
952 1 0.842564 0.0459408 0
981 1 0.831954 0.0698227 0
982 1 0.849443 0.0864232 0
983 1 0.87066 0.052896 0
984 1 0.870663 0.0781721 0
985 1 0.889781 0.0663059 0
986 1 0.909671 0.0821463 0
956 1 0.90955 0.0542179 0
987 1 0.931687 0.0638293 0
958 1 0.955348 0.0519708 0
960 1 0.979959 0.0470058 0
988 1 0.95016 0.0812561 0
989 1 0.972364 0.0706494 0
990 1 0.991024 0.0866093 0
61 1 0.999228 0.0631783 0
991 1 0.5199 0.105065 0
992 1 0.52169 0.128734 0
993 1 0.541692 0.111065 0
964 1 0.555188 0.0931563 0
994 1 0.564994 0.116951 0
995 1 0.581492 0.0996899 0
996 1 0.585412 0.128703 0
997 1 0.601652 0.112892 0
998 1 0.625806 0.114308 0
1027 1 0.609662 0.135011 0
999 1 0.644564 0.0991718 0
1000 1 0.651632 0.123347 0
1001 1 0.667318 0.107318 0
1031 1 0.67538 0.131787 0
1002 1 0.690241 0.110004 0
1004 1 0.71573 0.105194 0
1033 1 0.709834 0.127565 0
1005 1 0.738435 0.0990926 0
1006 1 0.754377 0.11598 0
1035 1 0.73306 0.123245 0
1037 1 0.771648 0.132343 0
1008 1 0.776991 0.109004 0
1009 1 0.80384 0.101125 0
1039 1 0.795496 0.123514 0
1010 1 0.821035 0.119095 0
1011 1 0.825991 0.0933538 0
1012 1 0.844613 0.112249 0
1043 1 0.862324 0.129504 0
1013 1 0.866943 0.103593 0
1014 1 0.883414 0.118869 0
1015 1 0.888656 0.0926889 0
1016 1 0.906606 0.107353 0
1045 1 0.902779 0.133554 0
1017 1 0.930816 0.0951814 0
1018 1 0.949364 0.109608 0
1047 1 0.925979 0.118754 0
1049 1 0.948711 0.132482 0
1019 1 0.969226 0.0975405 0
1020 1 0.970755 0.123262 0
91 1 0.990788 0.110319 0
121 1 0.990478 0.135856 0
1023 1 0.546901 0.134249 0
1021 1 0.505349 0.146068 0
1022 1 0.529271 0.154702 0
1053 1 0.533944 0.178376 0
1051 1 0.5117 0.168622 0
1024 1 0.552882 0.161894 0
1025 1 0.569593 0.145361 0
1055 1 0.57366 0.170215 0
1026 1 0.592005 0.15081 0
1029 1 0.634653 0.138674 0
1028 1 0.616668 0.159328 0
1057 1 0.59924 0.174294 0
1059 1 0.642194 0.166206 0
1030 1 0.65724 0.147551 0
1061 1 0.668336 0.176037 0
1032 1 0.678688 0.154329 0
1034 1 0.725742 0.146326 0
1063 1 0.701125 0.149905 0
1062 1 0.692246 0.172668 0
1064 1 0.715673 0.171118 0
1036 1 0.749091 0.139677 0
1065 1 0.740568 0.164242 0
1067 1 0.765398 0.155299 0
1038 1 0.788493 0.148675 0
1040 1 0.815063 0.142461 0
1069 1 0.806331 0.164241 0
1068 1 0.783808 0.171557 0
1041 1 0.839816 0.135268 0
1042 1 0.857884 0.153118 0
1071 1 0.834672 0.161462 0
1072 1 0.854093 0.17504 0
1044 1 0.881291 0.142552 0
1073 1 0.877398 0.168339 0
1075 1 0.899815 0.158618 0
1046 1 0.925021 0.141533 0
1048 1 0.943608 0.156446 0
1077 1 0.923326 0.167262 0
1078 1 0.941194 0.182236 0
1050 1 0.968271 0.146925 0
1079 1 0.964106 0.170618 0
151 1 0.990402 0.157767 0
1052 1 0.513609 0.195566 0
1082 1 0.523482 0.221126 0
1083 1 0.538244 0.202409 0
1054 1 0.55707 0.188361 0
1056 1 0.583805 0.193872 0
1085 1 0.564461 0.210334 0
1086 1 0.588673 0.217131 0
1058 1 0.622751 0.182491 0
1087 1 0.60696 0.199464 0
1088 1 0.615978 0.224502 0
1089 1 0.630655 0.205715 0
1060 1 0.647418 0.189892 0
1090 1 0.662228 0.210564 0
1091 1 0.681949 0.194135 0
1092 1 0.683816 0.217746 0
1093 1 0.70697 0.194149 0
1094 1 0.726708 0.208982 0
1066 1 0.758659 0.181186 0
1095 1 0.734338 0.187389 0
1096 1 0.752514 0.208818 0
1097 1 0.775891 0.195306 0
1098 1 0.794221 0.212734 0
1099 1 0.800743 0.187823 0
1127 1 0.772748 0.221495 0
1100 1 0.818624 0.209161 0
1070 1 0.825528 0.184892 0
1101 1 0.843268 0.202142 0
1131 1 0.8366 0.227545 0
1102 1 0.860839 0.217202 0
1074 1 0.893016 0.185551 0
1103 1 0.868523 0.193928 0
1104 1 0.883764 0.214543 0
1076 1 0.916343 0.190056 0
1105 1 0.909406 0.213363 0
1107 1 0.932738 0.207528 0
1108 1 0.947325 0.229022 0
1080 1 0.984909 0.184092 0
1109 1 0.96211 0.197959 0
1110 1 0.970639 0.223676 0
181 1 0.992119 0.207673 0
1111 1 0.505809 0.239217 0
1112 1 0.511827 0.260882 0
1113 1 0.531271 0.245156 0
1143 1 0.538268 0.26912 0
1084 1 0.547128 0.225252 0
1114 1 0.555441 0.252026 0
1115 1 0.573205 0.234003 0
1116 1 0.581778 0.259594 0
1117 1 0.597987 0.239797 0
1118 1 0.622502 0.246593 0
1147 1 0.605186 0.263945 0
1149 1 0.631355 0.268752 0
1119 1 0.640825 0.226486 0
1120 1 0.647415 0.249314 0
1121 1 0.666684 0.235819 0
1151 1 0.670965 0.258491 0
1123 1 0.708427 0.224056 0
1122 1 0.691385 0.242866 0
1124 1 0.715485 0.246828 0
1153 1 0.69719 0.265864 0
1125 1 0.734556 0.231044 0
1126 1 0.756617 0.239467 0
1155 1 0.736933 0.25549 0
1157 1 0.761394 0.263783 0
1128 1 0.781619 0.242202 0
1129 1 0.814054 0.232843 0
1159 1 0.804905 0.256169 0
1158 1 0.784405 0.271484 0
1130 1 0.829001 0.251631 0
1132 1 0.852731 0.244123 0
1161 1 0.841827 0.270029 0
1133 1 0.874477 0.236933 0
1134 1 0.887024 0.259504 0
1135 1 0.899627 0.235354 0
1163 1 0.865523 0.266032 0