ITEM: TIMESTEP
56000
ITEM: NUMBER OF ATOMS
1800
ITEM: BOX BOUNDS pp pp pp
2.8955974529133357e+00 1.5550440254708718e+02
2.8955974529133357e+00 1.5550440254708718e+02
0.0000000000000000e+00 5.2800000000000002e+00
ITEM: ATOMS id type xs ys zs
2 1 0.0154119 0.0188551 0
3 1 0.0405068 0.0127558 0
33 1 0.0337484 0.0359786 0
31 1 0.00719727 0.0434186 0
4 1 0.0578215 0.030744 0
6 1 0.0848759 0.0241662 0
5 1 0.0663848 0.00754571 0
35 1 0.0758478 0.0481166 0
37 1 0.101516 0.0421161 0
8 1 0.108366 0.0188935 0
9 1 0.12646 0.0358292 0
880 1 0.132396 0.0122653 0
10 1 0.150975 0.0302746 0
11 1 0.158276 0.00707566 0
12 1 0.17608 0.0245504 0
43 1 0.193717 0.0407937 0
41 1 0.169103 0.0482015 0
882 1 0.182931 0.000554665 0
14 1 0.199684 0.0174316 0
44 1 0.217607 0.0365967 0
45 1 0.224026 0.0132529 0
46 1 0.243008 0.0294389 0
16 1 0.249911 0.00623345 0
47 1 0.266902 0.0244708 0
49 1 0.292033 0.0200827 0
48 1 0.284339 0.0425608 0
77 1 0.260126 0.0480834 0
392 1 0.00100197 0.467144 0
50 1 0.309983 0.0389724 0
20 1 0.316147 0.0136791 0
51 1 0.334747 0.0323871 0
21 1 0.339818 0.00766079 0
22 1 0.358188 0.0257245 0
24 1 0.382796 0.0188578 0
53 1 0.375483 0.0446568 0
55 1 0.398103 0.0381046 0
23 1 0.364286 0.00157022 0
25 1 0.407246 0.0162548 0
26 1 0.429957 0.0330128 0
27 1 0.429822 0.00845181 0
30 1 0.49758 0.0337495 0
898 1 0.45212 0.0177388 0
28 1 0.455169 0.0410487 0
29 1 0.475411 0.0245486 0
900 1 0.492509 0.00651833 0
61 1 0.000881129 0.0669182 0
32 1 0.0246019 0.0602919 0
62 1 0.0177532 0.0846587 0
63 1 0.0421762 0.0782797 0
34 1 0.0506589 0.053738 0
65 1 0.0693035 0.0718798 0
66 1 0.085574 0.0902245 0
36 1 0.0941474 0.0665536 0
64 1 0.0613334 0.0945954 0
39 1 0.144296 0.0546082 0
38 1 0.117656 0.0595934 0
67 1 0.110769 0.0827526 0
69 1 0.13615 0.0763937 0
70 1 0.154779 0.0953676 0
40 1 0.160251 0.0722484 0
71 1 0.178755 0.0897419 0
42 1 0.185823 0.064866 0
72 1 0.202474 0.0829111 0
73 1 0.210054 0.0596479 0
74 1 0.229247 0.0774394 0
75 1 0.235967 0.0535315 0
106 1 0.245602 0.0953346 0
76 1 0.253586 0.0717337 0
78 1 0.277746 0.0678497 0
109 1 0.293624 0.0862222 0
107 1 0.26928 0.0903959 0
52 1 0.351695 0.0504528 0
79 1 0.302634 0.0624129 0
80 1 0.317845 0.0816609 0
81 1 0.325907 0.0568212 0
82 1 0.342291 0.0768931 0
111 1 0.335939 0.0998535 0
83 1 0.366252 0.0710949 0
113 1 0.383197 0.088438 0
54 1 0.392367 0.0642857 0
56 1 0.416047 0.0541623 0
57 1 0.438448 0.0600602 0
85 1 0.421147 0.0781927 0
87 1 0.444855 0.086346 0
84 1 0.405794 0.0960876 0
59 1 0.478628 0.0494276 0
88 1 0.468682 0.0917953 0
58 1 0.461451 0.0670613 0
89 1 0.485498 0.0723485 0
90 1 0.492461 0.0979391 0
93 1 0.0351281 0.102341 0
92 1 0.0267234 0.126124 0
91 1 0.0101656 0.108165 0
123 1 0.0466945 0.143242 0
121 1 0.0035189 0.133353 0
94 1 0.0521907 0.119086 0
95 1 0.0782218 0.113077 0
125 1 0.0711429 0.137345 0
96 1 0.0961525 0.130335 0
68 1 0.128416 0.0999598 0
97 1 0.103925 0.107349 0
98 1 0.121769 0.123592 0
99 1 0.145707 0.117145 0
129 1 0.140733 0.141029 0
127 1 0.114875 0.148703 0
100 1 0.170854 0.112649 0
130 1 0.163927 0.135296 0
131 1 0.18849 0.130803 0
101 1 0.195121 0.106733 0
103 1 0.220087 0.100017 0
133 1 0.203961 0.148339 0
102 1 0.212889 0.125418 0
105 1 0.237802 0.118618 0
104 1 0.230542 0.1419 0
136 1 0.255393 0.139089 0
135 1 0.262124 0.115242 0
137 1 0.279172 0.133022 0
108 1 0.288131 0.111652 0
139 1 0.304655 0.133092 0
110 1 0.312203 0.106399 0
141 1 0.344601 0.121641 0
140 1 0.328284 0.141844 0
112 1 0.362051 0.101686 0
114 1 0.386284 0.112481 0
143 1 0.368584 0.127343 0
144 1 0.393113 0.135657 0
142 1 0.354277 0.148444 0
86 1 0.428233 0.10284 0
115 1 0.410913 0.119358 0
116 1 0.434858 0.127788 0
145 1 0.41608 0.143064 0
117 1 0.452616 0.11091 0
118 1 0.457897 0.13479 0
119 1 0.475208 0.116195 0
149 1 0.483256 0.139958 0
122 1 0.0227195 0.150688 0
153 1 0.0394004 0.168097 0
152 1 0.0150978 0.175143 0
183 1 0.0316877 0.192723 0
124 1 0.0636811 0.160776 0
126 1 0.0887958 0.155032 0
155 1 0.0811428 0.177401 0
154 1 0.0570408 0.184438 0
156 1 0.0987571 0.195459 0
128 1 0.131515 0.165975 0
157 1 0.105334 0.171359 0
160 1 0.147973 0.184507 0
158 1 0.123321 0.189922 0
132 1 0.181348 0.155125 0
159 1 0.156339 0.158647 0
161 1 0.170934 0.177383 0
162 1 0.189089 0.1935 0
163 1 0.198826 0.172686 0
134 1 0.22255 0.164152 0
164 1 0.23093 0.185245 0
165 1 0.246556 0.163872 0
166 1 0.254284 0.189753 0
167 1 0.271279 0.170002 0
138 1 0.290056 0.154164 0
168 1 0.296453 0.178817 0
197 1 0.277511 0.196371 0
169 1 0.312913 0.15963 0
171 1 0.33678 0.165672 0
170 1 0.319616 0.184614 0
201 1 0.34353 0.192422 0
172 1 0.359976 0.174604 0
173 1 0.376378 0.155122 0
174 1 0.384167 0.180098 0
203 1 0.368114 0.20058 0
175 1 0.399072 0.161592 0
147 1 0.438575 0.151386 0
146 1 0.422008 0.168295 0
205 1 0.407193 0.18673 0
176 1 0.430177 0.192936 0
177 1 0.447249 0.175028 0
148 1 0.464981 0.15798 0
150 1 0.487995 0.163927 0
179 1 0.470463 0.181827 0
180 1 0.494846 0.188295 0
178 1 0.453868 0.199621 0
181 1 0.00169694 0.223933 0
1080 1 0.00730788 0.199464 0
182 1 0.024487 0.217844 0
213 1 0.0431375 0.233815 0
211 1 0.0195378 0.241667 0
184 1 0.048211 0.209601 0
185 1 0.0736348 0.202412 0
186 1 0.0918918 0.217859 0
215 1 0.0657831 0.22544 0
216 1 0.0823318 0.241976 0
187 1 0.115502 0.213206 0
188 1 0.132383 0.231394 0
189 1 0.138959 0.207211 0
217 1 0.107372 0.23552 0
191 1 0.165395 0.201218 0
190 1 0.155014 0.223944 0
192 1 0.192441 0.216716 0
221 1 0.17663 0.23445 0
193 1 0.211919 0.200543 0
223 1 0.200138 0.240571 0
194 1 0.218933 0.224143 0
195 1 0.236273 0.208074 0
225 1 0.241122 0.232279 0
224 1 0.223667 0.248812 0
196 1 0.259822 0.214031 0
198 1 0.283737 0.220451 0
227 1 0.265022 0.237558 0
228 1 0.289744 0.244493 0
199 1 0.301505 0.202801 0
200 1 0.32515 0.209515 0
229 1 0.308198 0.227731 0
231 1 0.331629 0.234249 0
202 1 0.34915 0.217036 0
204 1 0.390371 0.205253 0
233 1 0.372659 0.224057 0
235 1 0.397043 0.229179 0
232 1 0.354976 0.241591 0
234 1 0.378028 0.247614 0
207 1 0.437603 0.218105 0
206 1 0.420399 0.235366 0
237 1 0.444506 0.240965 0
208 1 0.461126 0.222774 0
209 1 0.477192 0.205673 0
210 1 0.485954 0.229528 0
239 1 0.468306 0.247388 0
212 1 0.0128119 0.266345 0
243 1 0.0364871 0.261433 0
241 1 0.00852241 0.289511 0
242 1 0.0339228 0.294545 0
214 1 0.059524 0.250772 0
244 1 0.0559464 0.278016 0
245 1 0.0767191 0.266815 0
275 1 0.0768877 0.292492 0
247 1 0.0968326 0.280541 0
219 1 0.123057 0.253639 0
218 1 0.099746 0.257741 0
249 1 0.141075 0.269306 0
248 1 0.120532 0.282493 0
250 1 0.144759 0.292518 0
220 1 0.156936 0.250277 0
222 1 0.18102 0.25798 0
251 1 0.164358 0.275535 0
252 1 0.187867 0.281929 0
281 1 0.168968 0.299915 0
253 1 0.205216 0.264226 0
255 1 0.230167 0.272524 0
254 1 0.210822 0.2879 0
285 1 0.235098 0.296994 0
226 1 0.247968 0.255203 0
256 1 0.25294 0.279572 0
257 1 0.271179 0.26144 0
259 1 0.295001 0.268196 0
258 1 0.277678 0.285836 0
230 1 0.314618 0.251054 0
289 1 0.300625 0.292506 0
260 1 0.319382 0.274305 0
261 1 0.338098 0.259076 0
262 1 0.343693 0.283339 0
291 1 0.325541 0.299932 0
263 1 0.360896 0.266862 0
264 1 0.385974 0.269417 0
293 1 0.368195 0.289191 0
295 1 0.392101 0.294126 0
265 1 0.402521 0.252049 0
236 1 0.426078 0.259384 0
266 1 0.409649 0.276443 0
267 1 0.43277 0.283142 0
238 1 0.449831 0.265273 0
1141 1 0.497391 0.278242 0
240 1 0.49168 0.254084 0
269 1 0.47317 0.271018 0
268 1 0.456386 0.290831 0
270 1 0.480418 0.297629 0
271 1 0.0146633 0.312759 0
272 1 0.0405083 0.323831 0
301 1 0.0196204 0.337863 0
303 1 0.0454262 0.348568 0
273 1 0.0573525 0.306921 0
276 1 0.0821197 0.317441 0
274 1 0.0643802 0.333958 0
305 1 0.0879402 0.342298 0
246 1 0.101718 0.303074 0
279 1 0.125218 0.308185 0
277 1 0.107681 0.326697 0
278 1 0.132403 0.333198 0
280 1 0.149931 0.316044 0
311 1 0.155963 0.340496 0
283 1 0.19399 0.30714 0
282 1 0.174054 0.323579 0
312 1 0.18016 0.34655 0
313 1 0.198994 0.330112 0
284 1 0.217609 0.313014 0
315 1 0.222578 0.33668 0
286 1 0.241211 0.321507 0
316 1 0.247396 0.345208 0
287 1 0.258759 0.302285 0
288 1 0.283652 0.310047 0
317 1 0.264823 0.327596 0
319 1 0.289011 0.333721 0
290 1 0.308208 0.31696 0
321 1 0.312385 0.34159 0
292 1 0.33157 0.324351 0
322 1 0.336453 0.349677 0
323 1 0.348842 0.306411 0
294 1 0.37229 0.313274 0
324 1 0.355382 0.332181 0
325 1 0.379076 0.336742 0
296 1 0.396469 0.318837 0
297 1 0.414748 0.301073 0
326 1 0.402169 0.343363 0
298 1 0.4376 0.307791 0
327 1 0.420938 0.325291 0
328 1 0.443278 0.333966 0
299 1 0.462662 0.314871 0
300 1 0.486615 0.32119 0
1201 1 0.491059 0.3465 0
329 1 0.467901 0.339037 0
331 1 0.00457541 0.377803 0
302 1 0.0255501 0.361342 0
332 1 0.0286956 0.386188 0
333 1 0.0484105 0.372709 0
1230 1 0.00063363 0.352676 0
334 1 0.0529852 0.396841 0
304 1 0.0689343 0.358453 0
306 1 0.0924649 0.367168 0
335 1 0.0736779 0.383986 0
337 1 0.0973523 0.390637 0
307 1 0.111438 0.35058 0
309 1 0.135537 0.358022 0
308 1 0.117091 0.374329 0
339 1 0.140687 0.382284 0
338 1 0.121686 0.399792 0
310 1 0.159043 0.364644 0
341 1 0.165724 0.38753 0
343 1 0.184128 0.370492 0
342 1 0.189286 0.394188 0
314 1 0.203711 0.352722 0
345 1 0.228984 0.360932 0
344 1 0.209491 0.3767 0
375 1 0.233415 0.385475 0
346 1 0.250962 0.370076 0
377 1 0.257283 0.39328 0
318 1 0.269444 0.353248 0
349 1 0.294623 0.357711 0
347 1 0.27553 0.376577 0
350 1 0.299883 0.38246 0
320 1 0.317843 0.366107 0
351 1 0.342926 0.374214 0
381 1 0.325996 0.391612 0
352 1 0.348503 0.398932 0
353 1 0.360562 0.356886 0
355 1 0.384906 0.360864 0
354 1 0.367368 0.380914 0
385 1 0.389772 0.387726 0
357 1 0.425236 0.350711 0
356 1 0.408467 0.368785 0
387 1 0.432172 0.375908 0
386 1 0.414608 0.39353 0
358 1 0.458063 0.381593 0
359 1 0.448559 0.357818 0
330 1 0.474205 0.365033 0
360 1 0.480471 0.389523 0
361 1 0.0100323 0.403423 0
363 1 0.033491 0.411822 0
362 1 0.0157577 0.42747 0
364 1 0.0395617 0.436677 0
336 1 0.0796471 0.40791 0
365 1 0.0588175 0.422 0
395 1 0.0642523 0.445746 0
367 1 0.103261 0.417192 0
366 1 0.109251 0.440412 0
369 1 0.126972 0.423452 0
340 1 0.146156 0.405201 0
368 1 0.132753 0.446877 0
370 1 0.150916 0.43069 0
371 1 0.169098 0.412666 0
401 1 0.176634 0.43526 0
372 1 0.194385 0.417612 0
403 1 0.199896 0.440661 0
373 1 0.212825 0.399864 0
374 1 0.220074 0.425501 0
376 1 0.239054 0.408935 0
405 1 0.245811 0.432912 0
404 1 0.225479 0.448467 0
348 1 0.283247 0.401299 0
407 1 0.269807 0.440571 0
378 1 0.264514 0.41663 0
409 1 0.289227 0.424694 0
408 1 0.293133 0.450917 0
379 1 0.307243 0.407486 0
380 1 0.313098 0.434857 0
382 1 0.330626 0.415736 0
411 1 0.33734 0.442611 0
383 1 0.372725 0.405686 0
413 1 0.354662 0.421807 0
414 1 0.37793 0.433084 0
384 1 0.396981 0.410819 0
388 1 0.439985 0.399647 0
415 1 0.402701 0.434523 0
417 1 0.419613 0.417528 0
416 1 0.42721 0.4414 0
419 1 0.443896 0.42415 0
447 1 0.450586 0.448749 0
389 1 0.462661 0.407984 0
418 1 0.469036 0.432479 0
390 1 0.486098 0.413491 0
420 1 0.493388 0.436719 0
393 1 0.0202856 0.4529 0
422 1 0.00669259 0.492728 0
423 1 0.0254348 0.476226 0
394 1 0.044946 0.461008 0
425 1 0.0487187 0.484615 0
396 1 0.068726 0.470631 0
426 1 0.0751918 0.495983 0
397 1 0.0889013 0.455774 0
427 1 0.0940485 0.479652 0
398 1 0.112692 0.464983 0
428 1 0.11834 0.489706 0
429 1 0.137121 0.470968 0
459 1 0.143005 0.497011 0
399 1 0.157216 0.455074 0
400 1 0.181425 0.458211 0
430 1 0.162379 0.479066 0
431 1 0.185751 0.48086 0
402 1 0.205908 0.464689 0
432 1 0.209931 0.488412 0
433 1 0.229168 0.472972 0
435 1 0.249784 0.456933 0
434 1 0.233491 0.497238 0
1231 1 0.49845 0.370955 0
436 1 0.254177 0.481671 0
406 1 0.273993 0.466809 0
437 1 0.275654 0.491313 0
439 1 0.296303 0.475936 0
410 1 0.315664 0.459936 0
440 1 0.320278 0.484989 0
441 1 0.338555 0.467951 0
471 1 0.342452 0.494941 0
412 1 0.360096 0.452388 0
442 1 0.363959 0.477692 0
473 1 0.387372 0.491413 0
443 1 0.383557 0.460339 0
445 1 0.408892 0.458485 0
444 1 0.413866 0.481894 0
477 1 0.43755 0.492788 0
446 1 0.433599 0.467196 0
449 1 0.474925 0.456554 0
450 1 0.480661 0.480141 0
448 1 0.45632 0.474116 0
1321 1 0.499082 0.461574 0
478 1 0.463742 0.498196 0
424 1 0.0301188 0.50136 0
7 1 0.0912195 0.000237744 0
453 1 0.0104264 0.516376 0
452 1 0.0145196 0.540828 0
454 1 0.0332616 0.525325 0
899 1 0.469288 0.997883 0
483 1 0.0383093 0.549836 0
485 1 0.0575793 0.533772 0
455 1 0.0539405 0.510374 0
456 1 0.0792331 0.520219 0
486 1 0.0806665 0.5448 0
457 1 0.0986341 0.505797 0
487 1 0.101814 0.530791 0
458 1 0.122573 0.514791 0
488 1 0.125209 0.53952 0
489 1 0.145957 0.525675 0
460 1 0.165678 0.506612 0
461 1 0.190362 0.503861 0
462 1 0.192524 0.526565 0
491 1 0.168775 0.53484 0
493 1 0.215466 0.536159 0
463 1 0.213242 0.512925 0
464 1 0.236401 0.521752 0
495 1 0.23854 0.546682 0
466 1 0.258363 0.532329 0
465 1 0.255718 0.505966 0
467 1 0.278277 0.516406 0
497 1 0.280581 0.539989 0
468 1 0.300738 0.525472 0
469 1 0.322222 0.510994 0
499 1 0.323211 0.535252 0
470 1 0.344344 0.521659 0
501 1 0.346018 0.545725 0
472 1 0.363752 0.50583 0
503 1 0.366455 0.532594 0
474 1 0.386271 0.515472 0
505 1 0.387719 0.542718 0
476 1 0.406644 0.528497 0
507 1 0.446234 0.515836 0
509 1 0.429473 0.533165 0
475 1 0.412113 0.506442 0
479 1 0.470351 0.522528 0
480 1 0.453085 0.539882 0
1381 1 0.494873 0.527083 0
510 1 0.478631 0.546572 0
1351 1 0.487428 0.503662 0
513 1 0.017744 0.565385 0
514 1 0.0419902 0.57483 0
512 1 0.0225488 0.590452 0
484 1 0.0617075 0.558951 0
515 1 0.0846292 0.569895 0
545 1 0.0654116 0.586117 0
516 1 0.08799 0.593846 0
490 1 0.148589 0.549668 0
517 1 0.105362 0.554461 0
518 1 0.108453 0.580125 0
519 1 0.128418 0.56367 0
549 1 0.130875 0.590264 0
520 1 0.152095 0.577154 0
521 1 0.171876 0.56118 0
492 1 0.192727 0.549699 0
523 1 0.19612 0.574355 0
522 1 0.175016 0.586961 0
553 1 0.197152 0.599571 0
494 1 0.215291 0.560144 0
524 1 0.217176 0.586395 0
525 1 0.238576 0.571639 0
555 1 0.240298 0.595804 0
496 1 0.259161 0.557654 0
526 1 0.261725 0.581411 0
527 1 0.283803 0.566036 0
528 1 0.285746 0.591337 0
498 1 0.303081 0.55066 0
529 1 0.305638 0.577201 0
500 1 0.325231 0.56117 0
530 1 0.32869 0.585649 0
531 1 0.349039 0.571199 0
532 1 0.351565 0.596242 0
502 1 0.368941 0.558589 0
504 1 0.392671 0.567 0
533 1 0.372572 0.582931 0
534 1 0.399471 0.59364 0
506 1 0.411814 0.551651 0
535 1 0.416968 0.574968 0
508 1 0.436116 0.557853 0
537 1 0.441257 0.582241 0
539 1 0.460501 0.56459 0
540 1 0.485144 0.570877 0
538 1 0.466137 0.58891 0
569 1 0.491105 0.594288 0
543 1 0.0458999 0.600716 0
541 1 0.00177462 0.605406 0
542 1 0.0242261 0.614683 0
571 1 0.00430537 0.630905 0
573 1 0.0283885 0.638634 0
544 1 0.0476803 0.625322 0
546 1 0.0679585 0.611013 0
547 1 0.0902072 0.620762 0
575 1 0.0700359 0.63646 0
576 1 0.092431 0.646948 0
548 1 0.11018 0.605688 0
550 1 0.133559 0.61566 0
577 1 0.112607 0.630548 0
579 1 0.135294 0.641179 0
551 1 0.1536 0.601384 0
581 1 0.156334 0.626558 0
552 1 0.176039 0.612619 0
582 1 0.180163 0.635547 0
583 1 0.201123 0.624343 0
554 1 0.221333 0.610817 0
556 1 0.244092 0.620363 0
585 1 0.223184 0.635454 0
586 1 0.245351 0.645196 0
584 1 0.203061 0.648348 0
557 1 0.263604 0.606128 0
587 1 0.267248 0.630689 0
558 1 0.287044 0.615652 0
589 1 0.289781 0.639777 0
559 1 0.307876 0.601459 0
560 1 0.311601 0.626284 0
561 1 0.330495 0.609634 0
591 1 0.333683 0.638404 0
562 1 0.351961 0.62067 0
563 1 0.375448 0.60676 0
564 1 0.372875 0.632712 0
593 1 0.35524 0.648388 0
595 1 0.395441 0.639181 0
565 1 0.406767 0.617672 0
536 1 0.423453 0.599561 0
566 1 0.431426 0.624824 0
567 1 0.447639 0.607014 0
596 1 0.41866 0.645103 0
597 1 0.456084 0.631747 0
568 1 0.473112 0.61328 0
570 1 0.481298 0.63792 0
1442 1 0.497646 0.619549 0
572 1 0.00720463 0.654623 0
603 1 0.0312714 0.663808 0
602 1 0.00990159 0.678908 0
633 1 0.0330666 0.689628 0
574 1 0.050635 0.65035 0
604 1 0.0531665 0.675601 0
605 1 0.0734661 0.661044 0
606 1 0.0762086 0.685989 0
607 1 0.0953655 0.671533 0
637 1 0.0990708 0.696023 0
578 1 0.115497 0.656654 0
609 1 0.139541 0.666866 0
608 1 0.119393 0.68152 0
639 1 0.141682 0.692024 0
580 1 0.159157 0.650966 0
611 1 0.181339 0.661192 0
610 1 0.162041 0.677006 0
612 1 0.183207 0.686829 0
613 1 0.203998 0.673394 0
615 1 0.224788 0.659685 0
614 1 0.228427 0.684828 0
617 1 0.248105 0.669105 0
643 1 0.207807 0.699447 0
616 1 0.250679 0.694083 0
588 1 0.269809 0.653756 0
619 1 0.290895 0.6654 0
618 1 0.269906 0.678999 0
590 1 0.313008 0.65082 0
621 1 0.313319 0.676552 0
592 1 0.334702 0.662879 0
622 1 0.338704 0.68721 0
623 1 0.359122 0.671648 0
594 1 0.377123 0.657245 0
624 1 0.381554 0.682066 0
625 1 0.400112 0.663824 0
653 1 0.362831 0.697837 0
598 1 0.440722 0.651942 0
627 1 0.423001 0.671267 0
626 1 0.40545 0.688502 0
628 1 0.44656 0.676045 0
657 1 0.430822 0.69515 0
599 1 0.464168 0.655789 0
600 1 0.487686 0.661436 0
629 1 0.470472 0.679117 0
630 1 0.493107 0.685546 0
632 1 0.0123046 0.70452 0
634 1 0.0357774 0.715281 0
663 1 0.0154267 0.729549 0
664 1 0.03871 0.740211 0
635 1 0.0564715 0.700256 0
636 1 0.0786023 0.710507 0
665 1 0.0590243 0.725614 0
666 1 0.0822405 0.736461 0
667 1 0.101569 0.72171 0
638 1 0.122096 0.707457 0
640 1 0.144739 0.716886 0
669 1 0.124732 0.732076 0
668 1 0.104692 0.746766 0
670 1 0.148211 0.742379 0
641 1 0.164579 0.702432 0
642 1 0.187379 0.712964 0
671 1 0.166982 0.726853 0
673 1 0.191291 0.73759 0
645 1 0.231102 0.709483 0
644 1 0.21109 0.7232 0
675 1 0.234001 0.735246 0
674 1 0.21261 0.750197 0
646 1 0.254223 0.719612 0
647 1 0.273987 0.704049 0
677 1 0.256502 0.745196 0
648 1 0.276786 0.728472 0
649 1 0.297815 0.714273 0
679 1 0.299753 0.738439 0
620 1 0.317324 0.700723 0
651 1 0.341588 0.711188 0
650 1 0.319939 0.724409 0
652 1 0.342163 0.735204 0
681 1 0.321479 0.749985 0
655 1 0.387564 0.706213 0
654 1 0.365911 0.722334 0
685 1 0.392922 0.729459 0
683 1 0.374346 0.744555 0
656 1 0.412352 0.712756 0
687 1 0.43604 0.719025 0
686 1 0.419285 0.737552 0
717 1 0.443112 0.743616 0
658 1 0.454301 0.700101 0
659 1 0.47781 0.704854 0
689 1 0.459288 0.725413 0
660 1 0.484099 0.730183 0
688 1 0.467172 0.750519 0
662 1 0.019573 0.754331 0
694 1 0.040754 0.765356 0
693 1 0.0210973 0.779365 0
725 1 0.0431431 0.789623 0
692 1 0.00161138 0.79451 0
695 1 0.0611281 0.751249 0
697 1 0.0843197 0.761577 0
696 1 0.0627986 0.775904 0
727 1 0.0858536 0.785499 0
699 1 0.126909 0.757516 0
698 1 0.106449 0.771859 0
700 1 0.129692 0.78173 0
728 1 0.108115 0.796604 0
701 1 0.148897 0.767201 0
731 1 0.151967 0.793218 0
672 1 0.170279 0.752678 0
703 1 0.190787 0.763463 0
702 1 0.170584 0.777924 0
704 1 0.193036 0.789503 0
676 1 0.234025 0.760129 0
705 1 0.213786 0.77489 0
706 1 0.237213 0.785425 0
707 1 0.256777 0.769664 0
678 1 0.278699 0.75333 0
737 1 0.258254 0.794942 0
709 1 0.279286 0.778908 0
680 1 0.300071 0.764783 0
710 1 0.302986 0.788206 0
682 1 0.34402 0.758874 0
711 1 0.322985 0.773954 0
712 1 0.346396 0.783316 0
713 1 0.365075 0.767716 0
714 1 0.38818 0.774616 0
743 1 0.369343 0.792144 0
684 1 0.401659 0.753629 0
715 1 0.425752 0.760844 0
716 1 0.410702 0.779925 0
747 1 0.434578 0.784893 0
1591 1 0.49952 0.778658 0
718 1 0.450334 0.767847 0
690 1 0.491437 0.754554 0
719 1 0.474708 0.773119 0
720 1 0.483737 0.797906 0
749 1 0.458497 0.791728 0
723 1 0.02403 0.804841 0
722 1 0.0245686 0.830518 0
724 1 0.0465854 0.814557 0
754 1 0.0470148 0.837618 0
1680 1 0.00384162 0.845472 0
751 1 0.00347418 0.819146 0
726 1 0.0656964 0.800386 0
757 1 0.0879913 0.810454 0
755 1 0.0687806 0.824885 0
756 1 0.0914213 0.838989 0
729 1 0.130585 0.807557 0
759 1 0.110152 0.822276 0
760 1 0.133881 0.833454 0
730 1 0.154576 0.818708 0
732 1 0.175513 0.8047 0
761 1 0.15555 0.846012 0
763 1 0.176302 0.831074 0
733 1 0.19708 0.815499 0
764 1 0.199365 0.840952 0
735 1 0.215156 0.799764 0
736 1 0.2382 0.81132 0
734 1 0.219033 0.825975 0
767 1 0.242685 0.836695 0
708 1 0.280882 0.803509 0
738 1 0.261878 0.819977 0
768 1 0.266816 0.844518 0
769 1 0.285466 0.829758 0
741 1 0.326803 0.79729 0
739 1 0.305517 0.811269 0
740 1 0.309616 0.834993 0
771 1 0.330393 0.823377 0
772 1 0.338022 0.849324 0
745 1 0.392458 0.799739 0
742 1 0.349401 0.808074 0
773 1 0.356105 0.832743 0
744 1 0.374413 0.816455 0
774 1 0.379065 0.842746 0
775 1 0.399084 0.822776 0
746 1 0.417436 0.805391 0
748 1 0.440763 0.809829 0
777 1 0.422735 0.829078 0
776 1 0.406363 0.847784 0
779 1 0.447262 0.833791 0
750 1 0.464927 0.815789 0
1621 1 0.489157 0.820901 0
780 1 0.472296 0.839399 0
1651 1 0.496518 0.845036 0
753 1 0.0441882 0.861507 0
752 1 0.0211385 0.862827 0
783 1 0.036789 0.883926 0
782 1 0.0117339 0.88604 0
785 1 0.0692024 0.849993 0
784 1 0.0629091 0.876451 0
786 1 0.078924 0.894296 0
787 1 0.0861008 0.869201 0
758 1 0.110228 0.863193 0
817 1 0.104172 0.886408 0
789 1 0.133593 0.85756 0
788 1 0.128896 0.882356 0
790 1 0.14951 0.894465 0
762 1 0.177973 0.85639 0
791 1 0.156495 0.870728 0
793 1 0.17845 0.883155 0
795 1 0.199846 0.866415 0
765 1 0.221285 0.851427 0
796 1 0.222371 0.877357 0
825 1 0.238468 0.89594 0
766 1 0.243449 0.863578 0
797 1 0.268507 0.868582 0
827 1 0.262782 0.893102 0
799 1 0.289886 0.857103 0
798 1 0.285744 0.886391 0
770 1 0.313754 0.858653 0
800 1 0.309393 0.881425 0
801 1 0.333796 0.874725 0
831 1 0.327426 0.898425 0
802 1 0.350694 0.892613 0
803 1 0.3576 0.863634 0
804 1 0.374839 0.885564 0
805 1 0.388299 0.865554 0
778 1 0.429744 0.853586 0
807 1 0.411105 0.873573 0
808 1 0.436836 0.877518 0
837 1 0.4216 0.896343 0
809 1 0.454572 0.858745 0
1681 1 0.479745 0.862917 0
1711 1 0.486781 0.887793 0
810 1 0.462367 0.88178 0
813 1 0.0273336 0.90724 0
843 1 0.0204829 0.931285 0
814 1 0.0481109 0.92299 0
844 1 0.0392519 0.946438 0
812 1 0.00356743 0.911298 0
815 1 0.0563175 0.900538 0
816 1 0.0974879 0.910202 0
845 1 0.0730347 0.918191 0
846 1 0.0664154 0.940698 0
847 1 0.0906738 0.93513 0
819 1 0.122581 0.905737 0
818 1 0.113654 0.9284 0
820 1 0.131162 0.946443 0
821 1 0.139031 0.922862 0
792 1 0.163884 0.913991 0
851 1 0.156334 0.939871 0
823 1 0.187762 0.905631 0
822 1 0.180936 0.933011 0
794 1 0.21282 0.900622 0
824 1 0.206294 0.92517 0
885 1 0.222228 0.944565 0
855 1 0.229862 0.920298 0
856 1 0.247376 0.941152 0
826 1 0.254336 0.917967 0
857 1 0.271654 0.934469 0
828 1 0.278991 0.911816 0
859 1 0.297389 0.928893 0
829 1 0.302506 0.903699 0
830 1 0.321606 0.923046 0
832 1 0.345987 0.915791 0
861 1 0.338384 0.939924 0
860 1 0.314519 0.946881 0
806 1 0.398002 0.901155 0
863 1 0.363888 0.933837 0
833 1 0.371094 0.910271 0
834 1 0.389665 0.926583 0
835 1 0.413644 0.920482 0
836 1 0.43116 0.943761 0
865 1 0.40626 0.945707 0
838 1 0.449002 0.925526 0
869 1 0.459424 0.948106 0
839 1 0.466397 0.905441 0
840 1 0.474491 0.928626 0
1712 1 0.491239 0.911879 0
842 1 0.0125884 0.953469 0
872 1 0.0238478 0.995038 0
873 1 0.0325089 0.970027 0
871 1 0.00666735 0.977441 0
874 1 0.0485753 0.989859 0
875 1 0.05604 0.965632 0
876 1 0.075068 0.981691 0
848 1 0.0824417 0.959065 0
877 1 0.0984546 0.976705 0
868 1 0.467356 0.973487 0
849 1 0.107565 0.95275 0
878 1 0.11543 0.993852 0
879 1 0.124715 0.971103 0
881 1 0.141928 0.988294 0
854 1 0.198605 0.951175 0
850 1 0.149208 0.964781 0
853 1 0.172878 0.959313 0
852 1 0.166426 0.983096 0
883 1 0.191017 0.975311 0
13 1 0.207021 0.993333 0
15 1 0.23237 0.987467 0
884 1 0.215655 0.969117 0
886 1 0.240426 0.964484 0
858 1 0.289349 0.951404 0
887 1 0.264812 0.95841 0
17 1 0.256988 0.982286 0
888 1 0.281763 0.976106 0
19 1 0.298744 0.995104 0
889 1 0.305074 0.970662 0
890 1 0.323354 0.989646 0
892 1 0.347298 0.983453 0
891 1 0.33087 0.966513 0
862 1 0.356586 0.958748 0
864 1 0.381371 0.951634 0
893 1 0.371323 0.978478 0
895 1 0.396589 0.97115 0
894 1 0.389176 0.995696 0
866 1 0.420541 0.965569 0
896 1 0.412947 0.991383 0
867 1 0.444701 0.965899 0
897 1 0.446278 0.990522 0
1771 1 0.490768 0.980884 0
870 1 0.484783 0.955886 0
18 1 0.273917 1.00126 0
438 1 0.299935 0.499062 0
902 1 0.540099 0.0236461 0
901 1 0.51471 0.0163365 0
931 1 0.521264 0.0400417 0
933 1 0.545336 0.0483286 0
903 1 0.532525 0.000734067 0
904 1 0.564041 0.0308826 0
906 1 0.581697 0.0128206 0
935 1 0.588454 0.0375117 0
905 1 0.557363 0.00672377 0
908 1 0.605278 0.0188317 0
937 1 0.612686 0.0420504 0
939 1 0.629994 0.0245343 0
910 1 0.6454 0.00524356 0
938 1 0.636601 0.0485479 0
1318 1 0.953535 0.449537 0
941 1 0.653145 0.0291364 0
912 1 0.670163 0.0115397 0
942 1 0.678852 0.0350888 0
943 1 0.694608 0.0163259 0
973 1 0.70116 0.0409932 0
944 1 0.718988 0.0243511 0
945 1 0.734619 0.0045573 0
946 1 0.743779 0.0277714 0
975 1 0.726667 0.0482976 0
947 1 0.760234 0.0103474 0
948 1 0.770396 0.0340957 0
918 1 0.78547 0.0129576 0
979 1 0.800963 0.0501695 0
921 1 0.818333 0.00431686 0
949 1 0.808553 0.0268783 0
951 1 0.834287 0.021693 0
950 1 0.825884 0.0445237 0
952 1 0.852674 0.0369906 0
953 1 0.859305 0.0138912 0
924 1 0.88299 0.00999573 0
954 1 0.876624 0.0323804 0
985 1 0.893456 0.0518893 0
955 1 0.900416 0.0270012 0
925 1 0.907527 0.00256399 0
926 1 0.924768 0.0203361 0
957 1 0.942851 0.0391637 0
956 1 0.918217 0.0451618 0
928 1 0.950291 0.0132786 0
1 1 0.998941 0.000378604 0
959 1 0.967651 0.0307641 0
930 1 0.990647 0.0251148 0
929 1 0.974656 0.00724272 0
960 1 0.983866 0.048953 0
932 1 0.526879 0.0642655 0
962 1 0.535615 0.0879766 0
961 1 0.509095 0.0820871 0
60 1 0.503371 0.0572695 0
934 1 0.570744 0.0540741 0
963 1 0.553506 0.0706093 0
965 1 0.577631 0.0796304 0
964 1 0.560232 0.0959002 0
936 1 0.595941 0.0608599 0
966 1 0.60164 0.0848429 0
967 1 0.619966 0.0665756 0
968 1 0.627382 0.0913775 0
969 1 0.644534 0.0724023 0
999 1 0.65145 0.0957028 0
940 1 0.660282 0.052839 0
970 1 0.668994 0.077927 0
971 1 0.684939 0.0595779 0
972 1 0.693764 0.0837116 0
1003 1 0.709837 0.0655432 0
1004 1 0.718222 0.0896774 0
974 1 0.735599 0.0702868 0
1005 1 0.742967 0.094259 0
976 1 0.75243 0.0506367 0
1007 1 0.764319 0.0822785 0
977 1 0.776042 0.0581944 0
978 1 0.793089 0.0759831 0
980 1 0.817952 0.0682922 0
981 1 0.843231 0.0622674 0
1009 1 0.811468 0.0926647 0
1011 1 0.83614 0.0852651 0
982 1 0.860987 0.0796429 0
983 1 0.8679 0.0569127 0
984 1 0.884792 0.0750347 0
1013 1 0.877863 0.09866 0
1015 1 0.901595 0.0938855 0
986 1 0.909458 0.0698616 0
987 1 0.933916 0.0639229 0
1017 1 0.927728 0.0887976 0
988 1 0.951489 0.0807352 0
958 1 0.958924 0.056957 0
989 1 0.976465 0.0732974 0
990 1 0.993622 0.0914985 0
1019 1 0.96881 0.0974751 0
991 1 0.517888 0.104141 0
992 1 0.524399 0.128474 0
993 1 0.541857 0.111417 0
1021 1 0.50746 0.145622 0
120 1 0.500573 0.122246 0
1023 1 0.54775 0.135863 0
995 1 0.584693 0.102395 0
994 1 0.566678 0.120144 0
996 1 0.590982 0.124685 0
1025 1 0.573285 0.143216 0
1026 1 0.599246 0.149615 0
997 1 0.610272 0.108749 0
998 1 0.634623 0.114758 0
1027 1 0.617589 0.133118 0
1029 1 0.642105 0.137898 0
1001 1 0.676459 0.100566 0
1000 1 0.65977 0.119459 0
1031 1 0.684102 0.125249 0
1030 1 0.665821 0.14312 0
1032 1 0.69175 0.148179 0
1002 1 0.701316 0.107375 0
1033 1 0.70842 0.130336 0
1035 1 0.72613 0.112666 0
1034 1 0.73199 0.13569 0
1008 1 0.787728 0.100196 0
1006 1 0.763569 0.107674 0
1036 1 0.757107 0.131027 0
1037 1 0.781181 0.125608 0
1038 1 0.798632 0.142912 0
1067 1 0.774533 0.149064 0
1039 1 0.805517 0.118332 0
1010 1 0.829568 0.111837 0
1040 1 0.82356 0.136096 0
1041 1 0.846435 0.130163 0
1012 1 0.854475 0.103717 0
1043 1 0.86933 0.122981 0
1014 1 0.894355 0.117653 0
1044 1 0.888114 0.141698 0
1042 1 0.863467 0.148254 0
1045 1 0.9125 0.13539 0
1016 1 0.919676 0.113136 0
1047 1 0.938174 0.129582 0
1018 1 0.945704 0.105881 0
1049 1 0.962499 0.123357 0
1020 1 0.986662 0.115509 0
1050 1 0.980839 0.14025 0
1046 1 0.955707 0.148609 0
1022 1 0.530447 0.153035 0
1053 1 0.537557 0.176947 0
1051 1 0.512197 0.170103 0
1052 1 0.519956 0.195125 0
1024 1 0.556114 0.16021 0
1055 1 0.580296 0.16698 0
1054 1 0.56153 0.184855 0
1056 1 0.586003 0.190586 0
1028 1 0.622557 0.156203 0
1057 1 0.604887 0.173839 0
1058 1 0.629776 0.180738 0
1087 1 0.611254 0.197061 0
1059 1 0.647888 0.160885 0
1060 1 0.653526 0.184764 0
1061 1 0.67275 0.165722 0
1091 1 0.678 0.189939 0
1062 1 0.696547 0.172376 0
1063 1 0.715348 0.155086 0
1064 1 0.721875 0.178662 0
1095 1 0.744832 0.184265 0
1093 1 0.703962 0.196283 0
1065 1 0.748804 0.155004 0
1066 1 0.767235 0.173184 0
1068 1 0.792591 0.166327 0
1097 1 0.781959 0.191732 0
1069 1 0.816426 0.160138 0
1071 1 0.840378 0.152919 0
1070 1 0.830934 0.179155 0
1099 1 0.806543 0.186233 0
1101 1 0.84864 0.196583 0
1072 1 0.856443 0.172562 0
1073 1 0.879609 0.166649 0
1103 1 0.874834 0.190636 0
1074 1 0.898151 0.184238 0
1075 1 0.904869 0.160544 0
1077 1 0.930552 0.152942 0
1076 1 0.922757 0.177424 0
1107 1 0.940218 0.197348 0
1078 1 0.94847 0.172061 0
1048 1 0.974218 0.164187 0
151 1 0.998657 0.15654 0
1079 1 0.990939 0.181808 0
1109 1 0.966226 0.189502 0
1083 1 0.544294 0.202113 0
1081 1 0.501723 0.212303 0
1082 1 0.527257 0.220122 0
1111 1 0.509268 0.236577 0
1113 1 0.53174 0.242857 0
1084 1 0.551288 0.226095 0
1085 1 0.569643 0.209707 0
1086 1 0.59313 0.214656 0
1115 1 0.576074 0.233994 0
1114 1 0.556259 0.249388 0
1089 1 0.636827 0.20343 0
1117 1 0.600416 0.238379 0
1088 1 0.61851 0.220235 0
1119 1 0.643249 0.227101 0
1118 1 0.625176 0.244449 0
1090 1 0.660657 0.207728 0
1092 1 0.687018 0.213799 0
1121 1 0.667717 0.232524 0
1122 1 0.693173 0.239922 0
1094 1 0.727429 0.203157 0
1123 1 0.710939 0.222367 0
1124 1 0.717903 0.245595 0
1125 1 0.735911 0.226656 0
1096 1 0.752329 0.207226 0
1127 1 0.777361 0.215099 0
1126 1 0.760144 0.233516 0
1128 1 0.792877 0.234955 0
1100 1 0.824277 0.203426 0
1098 1 0.801354 0.211604 0
1131 1 0.840754 0.221153 0
1129 1 0.818059 0.228163 0
1130 1 0.836343 0.246369 0
1102 1 0.866749 0.214237 0
1104 1 0.892703 0.208735 0
1132 1 0.860779 0.23721 0
1133 1 0.884861 0.23293 0
1105 1 0.916299 0.201525 0
1135 1 0.909947 0.226226 0
1106 1 0.935848 0.2204 0
1136 1 0.927102 0.243573 0
1137 1 0.952267 0.237843 0
1108 1 0.959471 0.21342 0
1110 1 0.983754 0.207109 0
1139 1 0.977356 0.231813 0
1140 1 0.995057 0.246829 0
1112 1 0.515 0.261217 0
1143 1 0.540247 0.266174 0
1142 1 0.522347 0.286196 0
1144 1 0.545315 0.29196 0
1116 1 0.581591 0.257898 0
1145 1 0.563456 0.274223 0
1146 1 0.590434 0.280611 0
1175 1 0.571329 0.298276 0
1147 1 0.608358 0.262752 0
1149 1 0.631906 0.269695 0
1148 1 0.613707 0.287771 0