ITEM: TIMESTEP
70000
ITEM: NUMBER OF ATOMS
1800
ITEM: BOX BOUNDS pp pp pp
3.0302506069883037e+00 1.5536974939300964e+02
3.0302506069883037e+00 1.5536974939300964e+02
0.0000000000000000e+00 5.2800000000000002e+00
ITEM: ATOMS id type xs ys zs
2 1 0.0182269 0.0193775 0
3 1 0.0442497 0.0126326 0
33 1 0.0357084 0.0352673 0
31 1 0.0108221 0.0422359 0
1 1 0.00116257 0.000149326 0
4 1 0.0613587 0.0301258 0
6 1 0.0846305 0.0242342 0
5 1 0.0691985 0.00575106 0
35 1 0.0778129 0.0477869 0
7 1 0.09291 0.000489299 0
37 1 0.102475 0.0404017 0
8 1 0.110723 0.0176776 0
9 1 0.127789 0.035469 0
880 1 0.133705 0.010141 0
10 1 0.15215 0.0284952 0
11 1 0.157795 0.00478771 0
12 1 0.175764 0.0215447 0
43 1 0.192209 0.0387765 0
41 1 0.168229 0.0470476 0
14 1 0.200151 0.014633 0
44 1 0.218207 0.0339884 0
45 1 0.226501 0.0100511 0
46 1 0.244102 0.0300706 0
16 1 0.252436 0.00696341 0
47 1 0.269834 0.0239954 0
49 1 0.294326 0.0187335 0
48 1 0.286167 0.0428773 0
77 1 0.262037 0.0477653 0
50 1 0.311149 0.0372734 0
20 1 0.318556 0.0110916 0
51 1 0.335108 0.0307648 0
21 1 0.342871 0.00754374 0
22 1 0.35994 0.0264002 0
24 1 0.384044 0.0221604 0
53 1 0.37688 0.0455486 0
23 1 0.366684 0.00299955 0
52 1 0.352896 0.0493645 0
55 1 0.401432 0.041425 0
25 1 0.407859 0.0167994 0
26 1 0.426172 0.0340629 0
27 1 0.433682 0.0113619 0
28 1 0.451616 0.0298764 0
30 1 0.491892 0.0386914 0
898 1 0.457578 0.0066855 0
29 1 0.481907 0.0146747 0
59 1 0.469322 0.0493542 0
32 1 0.0275707 0.0600887 0
62 1 0.0200473 0.0837504 0
63 1 0.0445478 0.0779084 0
61 1 0.00304224 0.0660172 0
34 1 0.053363 0.0528297 0
65 1 0.0703589 0.0718811 0
66 1 0.0871735 0.0889371 0
36 1 0.0945035 0.0647206 0
64 1 0.0619545 0.0960023 0
39 1 0.144503 0.0532878 0
38 1 0.11856 0.0594841 0
67 1 0.111467 0.0823771 0
69 1 0.137046 0.0760036 0
68 1 0.129751 0.100312 0
70 1 0.15377 0.0943487 0
40 1 0.161801 0.0707201 0
71 1 0.179342 0.0881537 0
42 1 0.185719 0.063902 0
72 1 0.203023 0.081383 0
73 1 0.211299 0.0578604 0
74 1 0.228025 0.0767866 0
75 1 0.236273 0.0534343 0
106 1 0.246868 0.0952128 0
76 1 0.254664 0.0715454 0
78 1 0.281011 0.0670748 0
109 1 0.297271 0.0869567 0
107 1 0.272515 0.0918315 0
79 1 0.304013 0.0609577 0
80 1 0.320669 0.0822579 0
81 1 0.32866 0.0569284 0
82 1 0.344996 0.0756802 0
83 1 0.370855 0.0695337 0
113 1 0.377279 0.0930242 0
54 1 0.397041 0.0690305 0
56 1 0.420169 0.0574379 0
57 1 0.443936 0.0532519 0
85 1 0.420411 0.0816928 0
87 1 0.443792 0.0892338 0
84 1 0.401637 0.0995452 0
88 1 0.468777 0.0962687 0
58 1 0.460781 0.0722477 0
89 1 0.485963 0.077839 0
93 1 0.037161 0.101879 0
92 1 0.0300535 0.125631 0
91 1 0.0124212 0.10735 0
123 1 0.0467401 0.143468 0
121 1 0.00525226 0.13083 0
122 1 0.0218213 0.149431 0
94 1 0.0536352 0.11967 0
95 1 0.0797837 0.11328 0
125 1 0.0721375 0.135941 0
96 1 0.09765 0.130102 0
97 1 0.104745 0.10641 0
98 1 0.122461 0.124603 0
99 1 0.145502 0.118388 0
129 1 0.139963 0.142394 0
127 1 0.11388 0.148091 0
100 1 0.171983 0.112015 0
130 1 0.16353 0.135565 0
131 1 0.18808 0.129167 0
101 1 0.196354 0.106444 0
103 1 0.220881 0.100421 0
133 1 0.204762 0.146697 0
102 1 0.213437 0.124375 0
105 1 0.238588 0.119861 0
104 1 0.23059 0.143167 0
136 1 0.254649 0.139303 0
135 1 0.263509 0.115597 0
137 1 0.279865 0.133151 0
108 1 0.289889 0.110783 0
139 1 0.303483 0.132309 0
111 1 0.338761 0.0999649 0
110 1 0.314118 0.107052 0
141 1 0.342852 0.126372 0
140 1 0.327068 0.145283 0
112 1 0.360988 0.110363 0
114 1 0.384229 0.116751 0
143 1 0.367101 0.134015 0
144 1 0.390737 0.141771 0
86 1 0.426413 0.107353 0
115 1 0.407165 0.124292 0
116 1 0.432321 0.131399 0
145 1 0.414349 0.148198 0
117 1 0.450032 0.113111 0
90 1 0.493275 0.103088 0
118 1 0.456244 0.136794 0
119 1 0.475631 0.121156 0
149 1 0.482266 0.143994 0
120 1 0.499834 0.126815 0
153 1 0.0399382 0.166251 0
152 1 0.0136935 0.173633 0
183 1 0.0321621 0.189366 0
1080 1 0.00699304 0.19855 0
124 1 0.0646599 0.15962 0
126 1 0.0898346 0.15367 0
155 1 0.0816882 0.177447 0
154 1 0.0573686 0.183554 0
156 1 0.0995293 0.195871 0
128 1 0.131637 0.165852 0
157 1 0.106666 0.170492 0
160 1 0.149165 0.182098 0
158 1 0.123659 0.188168 0
132 1 0.180474 0.153072 0
159 1 0.155906 0.159439 0
161 1 0.172739 0.17568 0
162 1 0.190894 0.194031 0
163 1 0.196784 0.170404 0
191 1 0.16722 0.198727 0
134 1 0.220193 0.164321 0
164 1 0.227126 0.187365 0
165 1 0.247091 0.163972 0
166 1 0.25192 0.19004 0
167 1 0.269652 0.173945 0
138 1 0.288459 0.156069 0
168 1 0.294067 0.180917 0
197 1 0.27538 0.198081 0
169 1 0.312124 0.164563 0
171 1 0.334926 0.171067 0
170 1 0.316695 0.189251 0
201 1 0.339832 0.196674 0
142 1 0.350769 0.152101 0
172 1 0.35795 0.17921 0
173 1 0.373285 0.160632 0
174 1 0.381321 0.185199 0
175 1 0.398016 0.166212 0
147 1 0.43891 0.155476 0
146 1 0.421053 0.173951 0
205 1 0.405158 0.191393 0
176 1 0.428852 0.197009 0
177 1 0.445615 0.17896 0
148 1 0.463015 0.161318 0
150 1 0.488724 0.168722 0
179 1 0.470704 0.187165 0
180 1 0.493735 0.193172 0
182 1 0.0260888 0.214039 0
213 1 0.0415251 0.232233 0
211 1 0.0182121 0.23809 0
184 1 0.0503386 0.207387 0
185 1 0.0739869 0.200998 0
186 1 0.0898872 0.218849 0
215 1 0.0653626 0.225917 0
216 1 0.0823143 0.242845 0
214 1 0.0578784 0.249794 0
187 1 0.117327 0.21212 0
188 1 0.132965 0.230083 0
189 1 0.140877 0.205542 0
217 1 0.108079 0.234946 0
190 1 0.156113 0.223778 0
192 1 0.192185 0.219472 0
221 1 0.175207 0.23658 0
223 1 0.198842 0.245531 0
193 1 0.21102 0.205407 0
194 1 0.216307 0.229039 0
195 1 0.234766 0.210796 0
225 1 0.240489 0.234318 0
196 1 0.257887 0.216837 0
198 1 0.28111 0.224018 0
227 1 0.264619 0.241995 0
228 1 0.288433 0.249217 0
199 1 0.298393 0.206738 0
200 1 0.322008 0.213989 0
229 1 0.304362 0.230955 0
231 1 0.327833 0.237928 0
202 1 0.345568 0.221301 0
203 1 0.363236 0.203343 0
204 1 0.387392 0.209247 0
233 1 0.370525 0.227374 0
235 1 0.395115 0.232986 0
232 1 0.352374 0.245973 0
207 1 0.434861 0.221671 0
206 1 0.418182 0.240208 0
237 1 0.443217 0.245886 0
178 1 0.453555 0.204116 0
208 1 0.461383 0.228607 0
209 1 0.477901 0.211703 0
210 1 0.486813 0.234273 0
212 1 0.0104414 0.262158 0
243 1 0.0345356 0.257085 0
241 1 0.00847979 0.285538 0
242 1 0.0336327 0.295076 0
244 1 0.0540116 0.277906 0
245 1 0.0758964 0.265732 0
275 1 0.075429 0.290137 0
247 1 0.0954032 0.279375 0
218 1 0.102876 0.257493 0
219 1 0.126175 0.252497 0
249 1 0.139699 0.271428 0
248 1 0.119939 0.286518 0
250 1 0.143243 0.295424 0
220 1 0.155006 0.252102 0
222 1 0.180888 0.261091 0
251 1 0.162448 0.276873 0
252 1 0.186201 0.284713 0
224 1 0.223167 0.250987 0
253 1 0.204494 0.268528 0
255 1 0.228746 0.276628 0
254 1 0.209419 0.292654 0
226 1 0.246356 0.259106 0
256 1 0.252572 0.282828 0
257 1 0.271475 0.266195 0
259 1 0.295161 0.273864 0
258 1 0.274748 0.291003 0
289 1 0.299167 0.297483 0
230 1 0.311511 0.255011 0
260 1 0.318804 0.280385 0
261 1 0.334999 0.262067 0
262 1 0.342876 0.284661 0
234 1 0.377453 0.251313 0
263 1 0.36055 0.269094 0
264 1 0.384341 0.274859 0
293 1 0.366664 0.294823 0
265 1 0.402439 0.257283 0
236 1 0.426079 0.263928 0
266 1 0.406792 0.281532 0
267 1 0.431111 0.288733 0
238 1 0.449772 0.269463 0
239 1 0.468177 0.252019 0
1141 1 0.498096 0.283824 0
240 1 0.491502 0.260658 0
269 1 0.472992 0.277651 0
268 1 0.455522 0.29403 0
271 1 0.0123003 0.31037 0
272 1 0.0362375 0.320094 0
301 1 0.0166624 0.336178 0
303 1 0.04033 0.345057 0
273 1 0.0555815 0.30489 0
276 1 0.078186 0.3158 0
274 1 0.0597878 0.330547 0
305 1 0.0827336 0.340609 0
246 1 0.0993593 0.303412 0
279 1 0.122991 0.310882 0
277 1 0.103417 0.327515 0
278 1 0.128221 0.33513 0
280 1 0.148131 0.320693 0
281 1 0.166249 0.30218 0
311 1 0.152848 0.344293 0
283 1 0.189742 0.308568 0
282 1 0.171391 0.327258 0
313 1 0.197312 0.333179 0
312 1 0.177921 0.350197 0
285 1 0.235133 0.300261 0
284 1 0.214972 0.317826 0
315 1 0.220107 0.343045 0
286 1 0.238064 0.326385 0
287 1 0.257568 0.308287 0
288 1 0.281395 0.315001 0
317 1 0.263265 0.332265 0
319 1 0.287658 0.339148 0
291 1 0.324581 0.305073 0
290 1 0.30467 0.32201 0
321 1 0.310893 0.346367 0
292 1 0.328201 0.329131 0
323 1 0.347515 0.311222 0
295 1 0.388933 0.300211 0
294 1 0.37159 0.319163 0
324 1 0.353113 0.334841 0
325 1 0.378192 0.342305 0
296 1 0.397158 0.324196 0
297 1 0.412642 0.305141 0
326 1 0.402566 0.349444 0
298 1 0.436795 0.311711 0
327 1 0.420329 0.331927 0
328 1 0.444464 0.33756 0
270 1 0.479834 0.301485 0
299 1 0.461235 0.317833 0
300 1 0.486143 0.324008 0
1201 1 0.493383 0.34671 0
329 1 0.469513 0.341328 0
331 1 0.000834635 0.376308 0
302 1 0.0196381 0.360666 0
332 1 0.0236046 0.385638 0
333 1 0.0422153 0.36991 0
334 1 0.0477764 0.394006 0
304 1 0.0636588 0.354872 0
306 1 0.0891452 0.36527 0
335 1 0.0673519 0.378118 0
337 1 0.0923166 0.390189 0
307 1 0.109576 0.351148 0
309 1 0.132025 0.359129 0
308 1 0.112805 0.375386 0
339 1 0.139838 0.382218 0
338 1 0.120007 0.397881 0
310 1 0.158879 0.367022 0
341 1 0.164181 0.390172 0
343 1 0.183042 0.373899 0
342 1 0.188714 0.398549 0
316 1 0.244979 0.35029 0
314 1 0.201705 0.358804 0
345 1 0.226656 0.367061 0
344 1 0.207059 0.382392 0
375 1 0.231088 0.390499 0
346 1 0.250942 0.373907 0
377 1 0.256643 0.397767 0
318 1 0.269021 0.357006 0
349 1 0.292312 0.363993 0
347 1 0.274615 0.381379 0
350 1 0.298694 0.389122 0
322 1 0.335253 0.352848 0
320 1 0.315388 0.371654 0
351 1 0.340957 0.378046 0
381 1 0.32402 0.395452 0
353 1 0.360183 0.35891 0
355 1 0.383152 0.366054 0
354 1 0.364789 0.383998 0
385 1 0.388932 0.391337 0
357 1 0.425476 0.355932 0
356 1 0.407432 0.373385 0
387 1 0.431462 0.38008 0
386 1 0.412642 0.397226 0
359 1 0.449216 0.362067 0
1231 1 0.499128 0.371604 0
358 1 0.455145 0.386009 0
330 1 0.47454 0.365475 0
360 1 0.481323 0.388617 0
361 1 0.00513626 0.400856 0
363 1 0.0286071 0.409506 0
362 1 0.0110664 0.425173 0
364 1 0.0348469 0.434343 0
393 1 0.0163828 0.449761 0
336 1 0.0711054 0.402604 0
365 1 0.05271 0.418403 0
395 1 0.0598153 0.441145 0
397 1 0.0828558 0.449246 0
367 1 0.1016 0.412967 0
366 1 0.105542 0.438451 0
369 1 0.124785 0.422562 0
340 1 0.143924 0.40595 0
368 1 0.130323 0.446342 0
370 1 0.148574 0.429547 0
371 1 0.168365 0.414131 0
401 1 0.173434 0.437938 0
372 1 0.192247 0.422904 0
403 1 0.197886 0.446326 0
373 1 0.211842 0.406204 0
374 1 0.217204 0.430168 0
376 1 0.236305 0.414456 0
405 1 0.24214 0.43719 0
348 1 0.279711 0.404445 0
407 1 0.26633 0.446065 0
378 1 0.260756 0.421971 0
409 1 0.285658 0.429863 0
352 1 0.348136 0.402765 0
379 1 0.304155 0.412028 0
380 1 0.310409 0.436289 0
382 1 0.329914 0.41979 0
411 1 0.33501 0.444498 0
383 1 0.371749 0.40774 0
413 1 0.354538 0.426516 0
414 1 0.378179 0.431618 0
384 1 0.396835 0.415658 0
412 1 0.359585 0.450099 0
388 1 0.438213 0.404102 0
415 1 0.40153 0.439593 0
417 1 0.420917 0.420604 0
416 1 0.426575 0.445751 0
419 1 0.444479 0.427485 0
389 1 0.462724 0.409554 0
418 1 0.469196 0.433256 0
390 1 0.487405 0.414344 0
420 1 0.4944 0.437886 0
422 1 0.00322999 0.489636 0
423 1 0.0227032 0.472419 0
394 1 0.0429322 0.458732 0
424 1 0.0286444 0.498755 0
425 1 0.0477839 0.48283 0
396 1 0.0660919 0.466631 0
426 1 0.0711716 0.489734 0
427 1 0.0913728 0.475051 0
457 1 0.0961882 0.499732 0
398 1 0.111478 0.461855 0
428 1 0.116705 0.486073 0
429 1 0.135384 0.469598 0
459 1 0.138591 0.493646 0
399 1 0.153706 0.454167 0
400 1 0.178261 0.461257 0
430 1 0.159037 0.478453 0
431 1 0.184564 0.484825 0
404 1 0.223066 0.452426 0
402 1 0.203891 0.468724 0
432 1 0.206957 0.493047 0
433 1 0.226662 0.477158 0
435 1 0.246845 0.462172 0
408 1 0.292303 0.452964 0
436 1 0.253093 0.485485 0
406 1 0.271286 0.469375 0
437 1 0.276169 0.493435 0
439 1 0.295689 0.476439 0
410 1 0.316491 0.461162 0
440 1 0.319979 0.486163 0
441 1 0.339501 0.468616 0
471 1 0.345075 0.494829 0
442 1 0.365023 0.473723 0
473 1 0.389379 0.481059 0
443 1 0.383321 0.456423 0
472 1 0.37113 0.498773 0
477 1 0.439766 0.493596 0
446 1 0.432318 0.46878 0
445 1 0.407617 0.462607 0
444 1 0.413362 0.487759 0
449 1 0.476498 0.455591 0
448 1 0.458625 0.473841 0
450 1 0.482422 0.48028 0
447 1 0.451132 0.451029 0
478 1 0.464812 0.498901 0
453 1 0.00984334 0.513896 0
452 1 0.0145656 0.539773 0
454 1 0.0335899 0.523044 0
483 1 0.0379974 0.547901 0
485 1 0.0573678 0.531904 0
455 1 0.0527568 0.506114 0
456 1 0.0769409 0.515595 0
486 1 0.0798165 0.541216 0
487 1 0.0994154 0.52641 0
458 1 0.119255 0.50974 0
488 1 0.123724 0.532978 0
489 1 0.143172 0.517828 0
490 1 0.146699 0.545138 0
460 1 0.163245 0.503022 0
461 1 0.187987 0.508382 0
462 1 0.193315 0.531471 0
491 1 0.1684 0.526838 0
493 1 0.217147 0.540617 0
463 1 0.213671 0.515514 0
464 1 0.23694 0.525309 0
434 1 0.233321 0.500343 0
495 1 0.240417 0.549922 0
466 1 0.260549 0.534164 0
465 1 0.255174 0.509787 0
467 1 0.28022 0.519459 0
497 1 0.283593 0.543741 0
438 1 0.299823 0.502642 0
468 1 0.304604 0.527357 0
469 1 0.325523 0.510834 0
499 1 0.327009 0.537262 0
470 1 0.350969 0.521159 0
503 1 0.378276 0.522329 0
474 1 0.39668 0.506011 0
505 1 0.387948 0.544148 0
476 1 0.405994 0.527954 0
509 1 0.429708 0.535179 0
475 1 0.422353 0.511388 0
507 1 0.446512 0.517518 0
479 1 0.470481 0.523363 0
480 1 0.453054 0.543494 0
1381 1 0.495335 0.528565 0
510 1 0.477903 0.54683 0
1351 1 0.489083 0.504815 0
511 1 0.00053082 0.579376 0
513 1 0.0192661 0.564896 0
514 1 0.0422979 0.573455 0
512 1 0.0238801 0.58993 0
543 1 0.0471529 0.598442 0
484 1 0.0600161 0.556997 0
515 1 0.0842966 0.567337 0
545 1 0.0650148 0.582604 0
516 1 0.08897 0.593718 0
517 1 0.104466 0.550519 0
518 1 0.107932 0.577043 0
519 1 0.128295 0.562668 0
549 1 0.131149 0.587676 0
520 1 0.152796 0.573036 0
521 1 0.169792 0.553757 0
492 1 0.196127 0.554054 0
522 1 0.177806 0.589164 0
523 1 0.198882 0.577954 0
551 1 0.154873 0.599601 0
494 1 0.219354 0.564417 0
524 1 0.220439 0.588937 0
525 1 0.24257 0.57398 0
555 1 0.243307 0.59822 0
496 1 0.262803 0.558202 0
526 1 0.264433 0.583403 0
527 1 0.284927 0.568285 0
528 1 0.286011 0.593999 0
501 1 0.347963 0.550593 0
498 1 0.306206 0.554005 0
529 1 0.307787 0.579465 0
500 1 0.327966 0.564802 0
530 1 0.330785 0.590214 0
531 1 0.350025 0.575562 0
502 1 0.370489 0.562484 0
504 1 0.393338 0.57051 0
533 1 0.375167 0.58782 0
534 1 0.400037 0.596692 0
506 1 0.41011 0.552317 0
535 1 0.417386 0.577936 0
508 1 0.436233 0.560328 0
537 1 0.444225 0.583975 0
539 1 0.461629 0.566652 0
540 1 0.485825 0.570268 0
538 1 0.468459 0.58982 0
569 1 0.492657 0.596035 0
541 1 0.00250674 0.603749 0
542 1 0.0272056 0.613764 0
571 1 0.00685988 0.628399 0
573 1 0.0295229 0.638251 0
544 1 0.0494512 0.623628 0
546 1 0.0688119 0.607368 0
547 1 0.0921578 0.618506 0
575 1 0.0721664 0.63259 0
576 1 0.0950968 0.644514 0
574 1 0.0519928 0.648066 0
548 1 0.111886 0.602687 0
550 1 0.134679 0.614236 0
577 1 0.115532 0.628304 0
579 1 0.136555 0.640184 0
581 1 0.156198 0.625748 0
552 1 0.17858 0.6135 0
582 1 0.180193 0.639034 0
553 1 0.199873 0.602428 0
583 1 0.200421 0.626464 0
554 1 0.2216 0.613107 0
556 1 0.244669 0.622532 0
585 1 0.224022 0.637699 0
586 1 0.246901 0.646552 0
557 1 0.266089 0.607906 0
587 1 0.266548 0.631836 0
558 1 0.288583 0.619286 0
589 1 0.290041 0.643959 0
559 1 0.309027 0.603397 0
560 1 0.310412 0.629399 0
561 1 0.329371 0.614549 0
591 1 0.331907 0.639845 0
532 1 0.353984 0.601176 0
562 1 0.351271 0.624814 0
563 1 0.379308 0.611589 0
564 1 0.372513 0.634555 0
595 1 0.395289 0.64085 0
536 1 0.426097 0.601587 0
565 1 0.408248 0.61963 0
566 1 0.432298 0.627689 0
596 1 0.418468 0.647288 0
567 1 0.449896 0.607499 0
597 1 0.457433 0.630995 0
568 1 0.475531 0.613843 0
570 1 0.481858 0.636775 0
1442 1 0.499549 0.61998 0
572 1 0.00690389 0.652485 0
603 1 0.0308693 0.662631 0
602 1 0.00883436 0.677561 0
633 1 0.0332764 0.688969 0
604 1 0.0528819 0.673426 0
605 1 0.0739902 0.658247 0
606 1 0.0764096 0.682981 0
607 1 0.096595 0.668911 0
637 1 0.0975384 0.694044 0
635 1 0.0564551 0.698534 0
578 1 0.116975 0.654926 0
609 1 0.139554 0.667724 0
608 1 0.118381 0.681627 0
639 1 0.140817 0.693075 0
580 1 0.159392 0.652645 0
611 1 0.181742 0.66394 0
610 1 0.160852 0.67873 0
612 1 0.183433 0.689742 0
584 1 0.202668 0.651078 0
613 1 0.203956 0.676377 0
615 1 0.225479 0.662759 0
614 1 0.226992 0.686488 0
617 1 0.247785 0.670962 0
616 1 0.249753 0.696937 0
588 1 0.26834 0.657681 0
619 1 0.291547 0.668952 0
618 1 0.26922 0.682062 0
590 1 0.313081 0.656851 0
621 1 0.315927 0.684337 0
592 1 0.334746 0.668203 0
622 1 0.338598 0.692517 0
593 1 0.354011 0.650647 0
623 1 0.358692 0.673879 0
594 1 0.378264 0.657686 0
624 1 0.382949 0.682908 0
653 1 0.3644 0.697872 0
598 1 0.441771 0.650501 0
625 1 0.401271 0.665518 0
627 1 0.425258 0.670428 0
626 1 0.406384 0.689125 0
657 1 0.431766 0.692657 0
628 1 0.44969 0.6743 0
599 1 0.465185 0.656945 0
600 1 0.488934 0.66157 0
629 1 0.472872 0.680661 0
630 1 0.495872 0.686748 0
658 1 0.45467 0.698953 0
632 1 0.0120428 0.701962 0
634 1 0.0356624 0.713887 0
663 1 0.0139488 0.728158 0
664 1 0.0365594 0.737808 0
636 1 0.0780379 0.709044 0
665 1 0.0586198 0.72476 0
666 1 0.0807066 0.734983 0
695 1 0.0600223 0.748826 0
667 1 0.10142 0.720055 0
638 1 0.120245 0.706534 0
640 1 0.143404 0.71912 0
669 1 0.122444 0.732977 0
668 1 0.103058 0.745849 0
670 1 0.146035 0.743142 0
641 1 0.162863 0.703161 0
642 1 0.185586 0.713979 0
671 1 0.166271 0.729473 0
673 1 0.187633 0.740185 0
643 1 0.206183 0.700689 0
645 1 0.228878 0.711366 0
644 1 0.209092 0.726809 0
675 1 0.231543 0.736071 0
646 1 0.251928 0.7224 0
647 1 0.271477 0.707892 0
677 1 0.253804 0.74761 0
648 1 0.273197 0.73275 0
679 1 0.295233 0.74286 0
649 1 0.295268 0.719036 0
620 1 0.322205 0.711248 0
651 1 0.348025 0.716295 0
650 1 0.331158 0.734002 0
652 1 0.355478 0.742172 0
655 1 0.388373 0.706634 0
654 1 0.371345 0.724716 0
685 1 0.394035 0.731521 0
683 1 0.378888 0.7501 0
656 1 0.412781 0.711974 0
687 1 0.437018 0.716113 0
686 1 0.41947 0.735199 0
717 1 0.443465 0.741064 0
659 1 0.478245 0.705766 0
689 1 0.461143 0.723186 0
660 1 0.485932 0.728883 0
688 1 0.46865 0.74766 0
662 1 0.0167408 0.752395 0
694 1 0.0401814 0.76325 0
693 1 0.0197581 0.777916 0
725 1 0.0415797 0.788462 0
697 1 0.0830903 0.760008 0
696 1 0.0625347 0.774234 0
727 1 0.0859214 0.784029 0
726 1 0.065561 0.798671 0
699 1 0.125753 0.757683 0
698 1 0.10546 0.77069 0
700 1 0.12653 0.781849 0
728 1 0.106838 0.796225 0
701 1 0.14795 0.76916 0
731 1 0.150629 0.794082 0
672 1 0.167841 0.755149 0
703 1 0.189819 0.766266 0
702 1 0.170456 0.781705 0
704 1 0.193928 0.790577 0
674 1 0.209149 0.751218 0
676 1 0.233926 0.761145 0
705 1 0.213251 0.775496 0
706 1 0.236097 0.786077 0
735 1 0.217283 0.799726 0
707 1 0.25662 0.774227 0
678 1 0.276856 0.758575 0
709 1 0.279694 0.78401 0
680 1 0.298725 0.768544 0
737 1 0.26056 0.799185 0
710 1 0.302947 0.792394 0
681 1 0.316691 0.753676 0
682 1 0.339704 0.760261 0
711 1 0.323057 0.778682 0
712 1 0.34677 0.786216 0
713 1 0.362234 0.767693 0
714 1 0.386129 0.774375 0
743 1 0.369894 0.792362 0
745 1 0.393719 0.799697 0
684 1 0.402329 0.755385 0
715 1 0.427753 0.759397 0
716 1 0.410047 0.780588 0
747 1 0.434335 0.785192 0
718 1 0.451095 0.766305 0
690 1 0.493468 0.752109 0
719 1 0.477576 0.771302 0
720 1 0.484565 0.794493 0
749 1 0.459459 0.789842 0
723 1 0.0223087 0.803256 0
722 1 0.0229299 0.829706 0
724 1 0.0457205 0.812419 0
754 1 0.0461829 0.83607 0
751 1 0.00150741 0.816846 0
1680 1 0.00299511 0.844514 0
757 1 0.0864575 0.808662 0
755 1 0.0689265 0.824002 0
756 1 0.0891179 0.838907 0
785 1 0.0661962 0.849569 0
729 1 0.129309 0.806997 0
759 1 0.107903 0.821164 0
760 1 0.129351 0.832193 0
730 1 0.152692 0.820362 0
732 1 0.172984 0.805853 0
761 1 0.153845 0.845345 0
763 1 0.175358 0.831781 0
733 1 0.193949 0.816042 0
764 1 0.198463 0.841452 0
736 1 0.239898 0.811358 0
734 1 0.21867 0.823769 0
767 1 0.240565 0.838048 0
708 1 0.283244 0.808205 0
738 1 0.262072 0.823233 0
769 1 0.283809 0.833808 0
768 1 0.263515 0.8477 0
741 1 0.325106 0.804583 0
739 1 0.305383 0.818482 0
740 1 0.307287 0.84163 0
771 1 0.332451 0.832875 0
742 1 0.348935 0.811107 0
773 1 0.358324 0.834165 0
744 1 0.376347 0.817433 0
774 1 0.38224 0.842629 0
775 1 0.401574 0.822869 0
746 1 0.418728 0.803932 0
748 1 0.442731 0.809434 0
777 1 0.42531 0.828733 0
776 1 0.405453 0.848179 0
779 1 0.449986 0.833306 0
750 1 0.467812 0.812922 0
1621 1 0.49108 0.817688 0
780 1 0.473982 0.836945 0
1651 1 0.498908 0.840181 0
753 1 0.0430395 0.85871 0
752 1 0.0185679 0.863309 0
783 1 0.0357317 0.881445 0
782 1 0.0105919 0.887251 0
784 1 0.0606338 0.874633 0
786 1 0.0777821 0.891087 0
787 1 0.0837707 0.866483 0
815 1 0.0534367 0.897582 0
817 1 0.101696 0.885246 0
758 1 0.107791 0.86145 0
789 1 0.132064 0.855532 0
788 1 0.126065 0.879459 0
790 1 0.145431 0.897521 0
762 1 0.176852 0.855279 0
791 1 0.151493 0.872834 0
793 1 0.170588 0.88966 0
795 1 0.200592 0.867398 0
765 1 0.220222 0.851158 0
796 1 0.224809 0.877216 0
825 1 0.240827 0.896103 0
766 1 0.246907 0.866905 0
794 1 0.213612 0.899279 0
797 1 0.274147 0.870404 0
827 1 0.265693 0.892482 0
799 1 0.297967 0.864404 0
798 1 0.29105 0.887694 0
772 1 0.346724 0.854905 0
770 1 0.32371 0.859334 0
800 1 0.314675 0.88197 0
801 1 0.339768 0.877326 0
802 1 0.358166 0.894486 0
803 1 0.363716 0.870643 0
804 1 0.381751 0.888581 0
805 1 0.38885 0.865726 0
778 1 0.429346 0.853243 0
807 1 0.41353 0.871861 0
808 1 0.439581 0.876188 0
837 1 0.424427 0.895597 0
809 1 0.456194 0.856337 0
1681 1 0.481314 0.861086 0
1711 1 0.487415 0.884673 0
810 1 0.464003 0.880046 0
813 1 0.0284754 0.905013 0
843 1 0.0224268 0.929454 0
814 1 0.047536 0.922332 0
844 1 0.0406462 0.947525 0
812 1 0.00484755 0.912001 0
816 1 0.0944951 0.909019 0
845 1 0.0711568 0.916311 0
846 1 0.0645642 0.939639 0
847 1 0.0896686 0.933043 0
819 1 0.120395 0.902083 0
818 1 0.112793 0.926762 0
820 1 0.132285 0.94379 0
821 1 0.13858 0.920537 0
792 1 0.164769 0.912921 0
851 1 0.156114 0.936815 0
823 1 0.190092 0.906943 0
822 1 0.182701 0.93243 0
824 1 0.206824 0.926097 0
885 1 0.224101 0.944287 0
855 1 0.23142 0.919838 0
856 1 0.249909 0.938748 0
826 1 0.257927 0.914987 0
857 1 0.274603 0.934255 0
828 1 0.28158 0.910272 0
859 1 0.298102 0.92834 0
831 1 0.331693 0.900542 0
829 1 0.307814 0.905853 0
830 1 0.326503 0.923539 0
861 1 0.343734 0.940581 0
860 1 0.316611 0.945992 0
832 1 0.3513 0.917837 0
863 1 0.367629 0.936296 0
833 1 0.375828 0.912447 0
834 1 0.393809 0.929423 0
806 1 0.400771 0.902994 0
835 1 0.418014 0.923314 0
836 1 0.436598 0.941345 0
865 1 0.410801 0.947593 0
838 1 0.447424 0.915136 0
869 1 0.460696 0.942849 0
839 1 0.471827 0.903387 0
840 1 0.476718 0.926262 0
1712 1 0.495387 0.908063 0
870 1 0.487682 0.948818 0
842 1 0.0144259 0.953157 0
872 1 0.0250735 0.996626 0
873 1 0.0328493 0.972332 0
871 1 0.00848784 0.976768 0
874 1 0.0511718 0.989455 0
875 1 0.0574964 0.964177 0
876 1 0.0760245 0.981268 0
848 1 0.0809445 0.958332 0
877 1 0.0997211 0.974821 0
849 1 0.106092 0.950869 0
878 1 0.116904 0.992596 0
879 1 0.125525 0.96747 0
881 1 0.141792 0.986062 0
850 1 0.149741 0.960492 0
854 1 0.199443 0.950017 0
853 1 0.175253 0.954551 0
852 1 0.165525 0.97939 0
883 1 0.190981 0.973633 0
882 1 0.183033 0.996926 0
13 1 0.207901 0.991478 0
15 1 0.234275 0.986179 0
884 1 0.216269 0.96875 0
886 1 0.240785 0.963316 0
858 1 0.292007 0.951149 0
887 1 0.266417 0.957714 0
17 1 0.25936 0.980988 0
888 1 0.283055 0.974825 0
18 1 0.277008 0.999009 0
19 1 0.3016 0.992542 0
889 1 0.309109 0.970128 0
890 1 0.326535 0.98852 0
891 1 0.3342 0.964348 0
892 1 0.351052 0.983788 0
862 1 0.360255 0.95972 0
864 1 0.386016 0.954913 0
893 1 0.37532 0.978583 0
894 1 0.391398 0.996448 0
895 1 0.400329 0.972644 0
866 1 0.423548 0.968507 0
896 1 0.415409 0.994143 0
867 1 0.446496 0.964098 0
897 1 0.441446 0.98793 0
900 1 0.499909 0.995686 0
1771 1 0.494847 0.97237 0
868 1 0.471252 0.966113 0
899 1 0.476407 0.989052 0
902 1 0.535266 0.0248687 0
901 1 0.508405 0.0187176 0
931 1 0.517474 0.0419529 0
903 1 0.526816 0.00185547 0
933 1 0.5421 0.0483139 0
904 1 0.560394 0.0310808 0
906 1 0.577772 0.0135046 0
935 1 0.585553 0.0366638 0
905 1 0.552661 0.0081666 0
908 1 0.602461 0.0197602 0
937 1 0.610108 0.0429366 0
939 1 0.627801 0.0250916 0
910 1 0.643733 0.00492494 0
938 1 0.633384 0.047619 0
909 1 0.618788 0.000652376 0
941 1 0.651518 0.0286667 0
912 1 0.668379 0.0114198 0
942 1 0.675332 0.0341489 0
943 1 0.692198 0.0161396 0
973 1 0.699726 0.0401036 0
944 1 0.715929 0.0217894 0
945 1 0.734307 0.00374406 0
946 1 0.741193 0.0278652 0
975 1 0.724508 0.0463161 0
947 1 0.757477 0.00944364 0
948 1 0.766737 0.0331238 0
918 1 0.782496 0.0153532 0
979 1 0.799177 0.045751 0
949 1 0.807888 0.0217701 0
951 1 0.835296 0.0198702 0
950 1 0.824907 0.0418479 0
952 1 0.85021 0.0380707 0
953 1 0.859667 0.0140979 0
924 1 0.883676 0.0074385 0
954 1 0.875777 0.0330289 0
955 1 0.899289 0.0265115 0
926 1 0.926418 0.0204781 0
957 1 0.942857 0.0369646 0
956 1 0.918687 0.0426687 0
925 1 0.90893 0.00307818 0
928 1 0.952693 0.0133179 0
959 1 0.969673 0.0310556 0
930 1 0.993782 0.0236778 0
929 1 0.977178 0.00636644 0
960 1 0.986257 0.0485374 0
932 1 0.527554 0.0666346 0
962 1 0.53483 0.0905902 0
961 1 0.510031 0.0836719 0
60 1 0.503255 0.0609779 0
963 1 0.55162 0.073401 0
934 1 0.568546 0.0548581 0
965 1 0.576126 0.0780973 0
964 1 0.559444 0.0966491 0
936 1 0.592288 0.0611045 0
966 1 0.600779 0.084648 0
967 1 0.616456 0.0655623 0
968 1 0.624195 0.0902998 0
969 1 0.640293 0.0716054 0
999 1 0.648911 0.0958054 0
940 1 0.659235 0.0524266 0
970 1 0.665657 0.0778085 0
971 1 0.683886 0.0600843 0
972 1 0.691364 0.0837307 0
1003 1 0.70761 0.0643342 0
1004 1 0.714757 0.0898323 0
974 1 0.731429 0.0722897 0
1005 1 0.737803 0.0959303 0
976 1 0.749392 0.0527446 0
1007 1 0.755626 0.0761498 0
977 1 0.772835 0.0576784 0
978 1 0.792417 0.0718116 0
1008 1 0.785144 0.0956453 0
980 1 0.816228 0.0650411 0
981 1 0.842001 0.0618484 0
1009 1 0.811281 0.0891662 0
1011 1 0.835433 0.0862331 0
985 1 0.891724 0.0510321 0
982 1 0.861267 0.0806508 0
983 1 0.866991 0.0568367 0
984 1 0.885158 0.0737679 0
1013 1 0.87822 0.0978093 0
1015 1 0.904901 0.0916761 0
986 1 0.911201 0.0682879 0
987 1 0.934484 0.0612258 0
1017 1 0.928919 0.0851658 0
988 1 0.953828 0.0794278 0
958 1 0.95971 0.0541568 0
989 1 0.977962 0.0717028 0
990 1 0.993506 0.0899336 0
1019 1 0.970676 0.0978995 0
991 1 0.518231 0.108703 0
992 1 0.524753 0.131985 0
993 1 0.542428 0.114386 0
1023 1 0.549202 0.138439 0
995 1 0.583053 0.101327 0
994 1 0.56642 0.120424 0
996 1 0.590866 0.125569 0
1025 1 0.574046 0.143412 0
1026 1 0.598214 0.149406 0
997 1 0.607775 0.108724 0
998 1 0.631584 0.114141 0
1027 1 0.616073 0.131824 0
1029 1 0.639196 0.138631 0
1001 1 0.672348 0.10315 0
1000 1 0.654986 0.119771 0
1031 1 0.678643 0.126286 0
1030 1 0.662834 0.144857 0
1002 1 0.69632 0.108536 0
1033 1 0.703923 0.132701 0
1035 1 0.720349 0.113021 0
1034 1 0.728413 0.137405 0
1036 1 0.745649 0.11876 0
1006 1 0.762204 0.101662 0
1037 1 0.778442 0.122905 0
1038 1 0.797948 0.139568 0
1067 1 0.755336 0.141684 0
1039 1 0.803348 0.114855 0
1010 1 0.827709 0.110062 0
1040 1 0.821706 0.133879 0
1041 1 0.84551 0.127604 0
1012 1 0.852527 0.104339 0
1043 1 0.869355 0.121851 0
1014 1 0.896041 0.115377 0
1044 1 0.887812 0.139376 0
1042 1 0.863265 0.145691 0
1045 1 0.912489 0.133262 0
1016 1 0.920966 0.109113 0
1047 1 0.937552 0.126172 0
1018 1 0.946136 0.10283 0
1049 1 0.962189 0.122577 0
1020 1 0.987578 0.11444 0
1050 1 0.980546 0.138412 0
1046 1 0.953653 0.144808 0
1021 1 0.506613 0.1503 0
1022 1 0.529621 0.156812 0
1053 1 0.537788 0.179989 0
1051 1 0.512417 0.174436 0
1052 1 0.519144 0.196607 0
1024 1 0.55553 0.162408 0
1055 1 0.579254 0.169035 0
1054 1 0.562794 0.187392 0
1056 1 0.58615 0.19211 0
1028 1 0.622722 0.156242 0
1057 1 0.60371 0.174241 0
1058 1 0.628885 0.180186 0
1087 1 0.610892 0.19824 0
1059 1 0.64569 0.162469 0
1032 1 0.688113 0.15066 0
1060 1 0.653473 0.18669 0
1061 1 0.671068 0.169722 0
1091 1 0.677387 0.192909 0
1062 1 0.695208 0.174691 0
1063 1 0.712478 0.156465 0
1064 1 0.719384 0.180515 0
1095 1 0.744582 0.184901 0
1093 1 0.702481 0.198785 0
1065 1 0.738119 0.162013 0
1066 1 0.763493 0.165003 0
1068 1 0.787473 0.162647 0
1097 1 0.779921 0.186442 0
1071 1 0.838368 0.151908 0
1069 1 0.813368 0.158708 0
1070 1 0.829828 0.176696 0
1099 1 0.804935 0.181543 0
1101 1 0.847909 0.193709 0
1072 1 0.855296 0.170259 0
1073 1 0.880445 0.16427 0
1103 1 0.872539 0.188248 0
1074 1 0.897672 0.181354 0
1077 1 0.929571 0.150371 0
1075 1 0.905478 0.156345 0
1076 1 0.92208 0.174598 0
1107 1 0.941772 0.19295 0
1078 1 0.945956 0.168281 0
1105 1 0.915002 0.198985 0
1048 1 0.972041 0.164106 0
151 1 0.997174 0.156092 0
1079 1 0.989252 0.180213 0
1109 1 0.965277 0.188341 0
1083 1 0.544928 0.203971 0
1081 1 0.503232 0.216335 0
1082 1 0.527766 0.222017 0
1111 1 0.510063 0.241308 0
1113 1 0.533597 0.245762 0
1084 1 0.551612 0.22704 0
1085 1 0.569626 0.210163 0
1086 1 0.593666 0.21571 0
1115 1 0.576214 0.233998 0
1117 1 0.599633 0.240163 0
1089 1 0.634066 0.203253 0
1088 1 0.616649 0.2225 0
1119 1 0.642902 0.22717 0
1118 1 0.6249 0.245502 0
1090 1 0.660418 0.209014 0
1092 1 0.685171 0.216209 0
1121 1 0.668433 0.235133 0
1122 1 0.691896 0.241433 0
1094 1 0.726605 0.204302 0
1123 1 0.70918 0.222434 0
1124 1 0.717646 0.246987 0
1125 1 0.733563 0.229098 0
1096 1 0.751106 0.211215 0
1127 1 0.774652 0.214042 0
1126 1 0.758999 0.234354 0
1128 1 0.784005 0.239013 0
1098 1 0.797414 0.205126 0
1100 1 0.823641 0.200819 0
1131 1 0.842628 0.218376 0
1129 1 0.816431 0.223087 0
1130 1 0.83447 0.242001 0
1159 1 0.809331 0.246805 0
1102 1 0.866215 0.212311 0
1104 1 0.890533 0.206435 0
1132 1 0.860073 0.236649 0
1133 1 0.8846 0.229891 0
1134 1 0.902847 0.246436 0
1135 1 0.908449 0.222675 0
1106 1 0.932417 0.216504 0
1136 1 0.926725 0.241464 0
181 1 0.999854 0.222845 0
1137 1 0.950913 0.235724 0
1108 1 0.956717 0.211645 0
1110 1 0.983544 0.203711 0
1139 1 0.974394 0.227686 0
1140 1 0.991265 0.246274 0
1112 1 0.51621 0.265531 0
1143 1 0.541014 0.270725 0
1142 1 0.523113 0.289048 0
1144 1 0.547085 0.293999 0
1114 1 0.557388 0.251757 0
1116 1 0.581593 0.258648 0
1145 1 0.56475 0.276459 0
1146 1 0.587568 0.281954 0
1147 1 0.606846 0.263896 0
1149 1 0.631076 0.268923 0
1148 1 0.614277 0.287793 0
1179 1 0.639355 0.29293 0
1120 1 0.649275 0.252274 0
1151 1 0.673956 0.257383 0
1150 1 0.657787 0.274905 0