ITEM: TIMESTEP
104000
ITEM: NUMBER OF ATOMS
1800
ITEM: BOX BOUNDS pp pp pp
3.0763948125157725e+00 1.5532360518747998e+02
3.0763948125157725e+00 1.5532360518747998e+02
0.0000000000000000e+00 5.2800000000000002e+00
ITEM: ATOMS id type xs ys zs
2 1 0.0169137 0.0204356 0
3 1 0.0427232 0.013466 0
33 1 0.0364883 0.0369694 0
31 1 0.0108925 0.0431056 0
1 1 0.00172438 0.00130978 0
4 1 0.0612571 0.0313619 0
6 1 0.0856761 0.0236814 0
5 1 0.0676503 0.00742998 0
35 1 0.0780278 0.0471042 0
7 1 0.0935664 0.000503991 0
37 1 0.101865 0.0415802 0
8 1 0.109375 0.0183471 0
9 1 0.126841 0.0369512 0
880 1 0.135515 0.0114363 0
10 1 0.152335 0.0292515 0
11 1 0.160532 0.00517581 0
12 1 0.176604 0.0233774 0
43 1 0.192854 0.0422144 0
41 1 0.168313 0.0475503 0
14 1 0.201014 0.0178461 0
44 1 0.217677 0.0357466 0
45 1 0.226512 0.0124526 0
46 1 0.243124 0.0320038 0
16 1 0.249949 0.00718268 0
47 1 0.267936 0.0266787 0
49 1 0.293328 0.0213535 0
48 1 0.287988 0.044941 0
18 1 0.275263 0.00232672 0
50 1 0.311833 0.0390398 0
20 1 0.318441 0.0155002 0
51 1 0.337619 0.0317965 0
21 1 0.343132 0.00848859 0
22 1 0.361423 0.0264571 0
24 1 0.384602 0.0211231 0
53 1 0.377207 0.0470124 0
23 1 0.367743 0.00298773 0
52 1 0.352778 0.0513676 0
55 1 0.400169 0.0393922 0
25 1 0.410215 0.0155429 0
26 1 0.425971 0.0362226 0
27 1 0.434834 0.0123104 0
28 1 0.451029 0.0367768 0
30 1 0.493876 0.0384562 0
898 1 0.461095 0.0146131 0
29 1 0.48549 0.0160592 0
32 1 0.0288684 0.0600478 0
62 1 0.0199725 0.0841414 0
63 1 0.0451012 0.079102 0
61 1 0.00148164 0.0671909 0
34 1 0.0530643 0.0549983 0
65 1 0.0692727 0.0727335 0
66 1 0.0861619 0.0908941 0
36 1 0.0934195 0.0657018 0
64 1 0.0617017 0.0971193 0
39 1 0.14421 0.0528457 0
38 1 0.118665 0.059474 0
67 1 0.111059 0.0847457 0
69 1 0.135377 0.0770183 0
70 1 0.15216 0.0953458 0
40 1 0.160026 0.0719928 0
71 1 0.178326 0.090111 0
42 1 0.187115 0.0667272 0
72 1 0.20513 0.0844732 0
73 1 0.211374 0.0603693 0
74 1 0.229368 0.0789265 0
75 1 0.236028 0.0539439 0
106 1 0.244663 0.0966738 0
77 1 0.262196 0.0499081 0
76 1 0.254292 0.0733316 0
78 1 0.278408 0.0681076 0
109 1 0.295732 0.0866253 0
107 1 0.271342 0.0919693 0
79 1 0.304895 0.063374 0
80 1 0.320377 0.0821007 0
81 1 0.329849 0.0569341 0
82 1 0.344173 0.0777778 0
83 1 0.367738 0.0714801 0
113 1 0.378203 0.0928472 0
54 1 0.391994 0.0672597 0
56 1 0.41508 0.0575706 0
57 1 0.439458 0.05818 0
85 1 0.418701 0.081212 0
87 1 0.441881 0.0883679 0
84 1 0.40246 0.10043 0
59 1 0.473771 0.0521794 0
88 1 0.466497 0.0951942 0
58 1 0.459859 0.0726068 0
89 1 0.484017 0.0786603 0
93 1 0.0363582 0.1019 0
92 1 0.0276922 0.125742 0
91 1 0.0104066 0.107452 0
121 1 0.00294736 0.131651 0
123 1 0.0453898 0.142952 0
122 1 0.0199345 0.151069 0
94 1 0.0532102 0.120435 0
95 1 0.0789694 0.114789 0
125 1 0.0706899 0.137966 0
96 1 0.0948426 0.132138 0
68 1 0.127028 0.101718 0
97 1 0.102896 0.108692 0
98 1 0.120065 0.125323 0
99 1 0.144551 0.118835 0
129 1 0.135402 0.143133 0
100 1 0.168487 0.112761 0
130 1 0.161046 0.137527 0
131 1 0.185496 0.131873 0
101 1 0.194529 0.10916 0
133 1 0.201661 0.148609 0
103 1 0.220733 0.103339 0
102 1 0.211751 0.127448 0
105 1 0.236687 0.121115 0
104 1 0.230113 0.144004 0
135 1 0.260462 0.115659 0
137 1 0.277986 0.134195 0
108 1 0.287902 0.111414 0
136 1 0.254737 0.142773 0
111 1 0.337456 0.102808 0
139 1 0.300813 0.138987 0
110 1 0.318455 0.120794 0
141 1 0.343752 0.12762 0
140 1 0.32725 0.145675 0
112 1 0.360748 0.108471 0
114 1 0.383687 0.116822 0
143 1 0.367304 0.133732 0
144 1 0.390728 0.143099 0
86 1 0.425861 0.106863 0
115 1 0.408709 0.124695 0
116 1 0.432177 0.131397 0
145 1 0.415129 0.149552 0
117 1 0.450599 0.113889 0
90 1 0.491556 0.10205 0
118 1 0.456684 0.139921 0
119 1 0.474264 0.120229 0
149 1 0.482642 0.145062 0
120 1 0.499194 0.12681 0
153 1 0.0380286 0.167826 0
152 1 0.01263 0.174943 0
183 1 0.0301171 0.191906 0
1080 1 0.0038836 0.19819 0
124 1 0.0622937 0.16329 0
126 1 0.0867545 0.155765 0
155 1 0.0784432 0.181423 0
154 1 0.0547829 0.187131 0
156 1 0.0961856 0.199297 0
127 1 0.111996 0.149591 0
128 1 0.12846 0.167161 0
157 1 0.102692 0.174161 0
160 1 0.145962 0.185401 0
158 1 0.119537 0.191337 0
132 1 0.178531 0.155795 0
159 1 0.152579 0.161383 0
161 1 0.169609 0.178052 0
162 1 0.186104 0.196647 0
163 1 0.196146 0.175759 0
134 1 0.218613 0.165328 0
164 1 0.228152 0.186669 0
165 1 0.243504 0.167607 0
166 1 0.251163 0.193174 0
167 1 0.268334 0.174681 0
138 1 0.285511 0.156934 0
168 1 0.293383 0.18151 0
197 1 0.274726 0.198761 0
169 1 0.309209 0.162715 0
171 1 0.333601 0.169249 0
170 1 0.316788 0.187485 0
201 1 0.339183 0.194246 0
142 1 0.350611 0.151508 0
172 1 0.356443 0.1756 0
173 1 0.373741 0.15946 0
174 1 0.379468 0.183258 0
175 1 0.39828 0.167452 0
147 1 0.439741 0.156984 0
146 1 0.422533 0.174021 0
205 1 0.404784 0.192965 0
176 1 0.427994 0.198238 0
177 1 0.446527 0.180114 0
148 1 0.46488 0.162639 0
150 1 0.489344 0.16811 0
179 1 0.472061 0.187215 0
180 1 0.495608 0.193268 0
182 1 0.0221119 0.215118 0
213 1 0.0392332 0.23364 0
211 1 0.0138343 0.238881 0
184 1 0.0462746 0.209974 0
185 1 0.0716462 0.205045 0
186 1 0.0891554 0.222476 0
215 1 0.064108 0.227459 0
216 1 0.0806243 0.24586 0
187 1 0.114474 0.218679 0
188 1 0.130023 0.238838 0
189 1 0.136954 0.207692 0
217 1 0.104151 0.24147 0
191 1 0.16284 0.204151 0
190 1 0.151663 0.227937 0
192 1 0.191883 0.219824 0
221 1 0.17404 0.236462 0
223 1 0.197823 0.24362 0
193 1 0.208959 0.202074 0
194 1 0.21584 0.227152 0
195 1 0.233338 0.210166 0
225 1 0.239378 0.23452 0
196 1 0.256942 0.217146 0
198 1 0.281209 0.221748 0
227 1 0.264356 0.239512 0
228 1 0.28662 0.24651 0
199 1 0.299027 0.205323 0
200 1 0.322395 0.211646 0
229 1 0.304543 0.229646 0
231 1 0.328595 0.236326 0
202 1 0.346345 0.21901 0
203 1 0.362806 0.200343 0
204 1 0.385828 0.207164 0
233 1 0.369666 0.224788 0
235 1 0.394439 0.230991 0
232 1 0.35202 0.243201 0
234 1 0.376528 0.249443 0
207 1 0.435608 0.22313 0
206 1 0.419085 0.240324 0
237 1 0.4431 0.24599 0
178 1 0.452657 0.204333 0
208 1 0.459904 0.227994 0
209 1 0.47826 0.210256 0
210 1 0.48445 0.233378 0
212 1 0.00629537 0.26201 0
243 1 0.0326347 0.25882 0
242 1 0.0204305 0.280843 0
273 1 0.0362713 0.298605 0
214 1 0.055892 0.251235 0
244 1 0.0500858 0.278113 0
245 1 0.0723241 0.269181 0
247 1 0.0776233 0.293337 0
218 1 0.097444 0.276393 0
219 1 0.11725 0.260637 0
249 1 0.139503 0.26956 0
248 1 0.120389 0.285451 0
250 1 0.144539 0.294141 0
220 1 0.156089 0.251875 0
222 1 0.179904 0.260184 0
251 1 0.163065 0.277484 0
252 1 0.187233 0.285543 0
224 1 0.222871 0.250706 0
253 1 0.203842 0.267338 0
255 1 0.227875 0.274869 0
254 1 0.211384 0.292039 0
226 1 0.245916 0.258062 0
285 1 0.234821 0.299749 0
256 1 0.252904 0.282886 0
257 1 0.269172 0.263969 0
259 1 0.293897 0.271455 0
258 1 0.277363 0.287455 0
289 1 0.300186 0.295801 0
230 1 0.311743 0.253371 0
260 1 0.318488 0.277895 0
261 1 0.335376 0.261163 0
262 1 0.34185 0.285518 0
263 1 0.357889 0.267556 0
264 1 0.383713 0.273475 0
293 1 0.366201 0.29148 0
295 1 0.39116 0.297603 0
265 1 0.401107 0.255635 0
236 1 0.427434 0.264309 0
266 1 0.408562 0.280105 0
267 1 0.4329 0.287763 0
238 1 0.451218 0.271088 0
239 1 0.467144 0.25199 0
240 1 0.492887 0.25728 0
269 1 0.474899 0.276345 0
268 1 0.456997 0.295274 0
270 1 0.48209 0.300031 0
1141 1 0.499221 0.282056 0
271 1 0.0156375 0.310507 0
272 1 0.0386463 0.322644 0
301 1 0.0190804 0.336879 0
303 1 0.0417215 0.347834 0
275 1 0.0588384 0.309585 0
276 1 0.0820884 0.317547 0
274 1 0.0615796 0.333399 0
305 1 0.0869722 0.341663 0
246 1 0.101998 0.301849 0
279 1 0.125294 0.308354 0
277 1 0.106371 0.325724 0
278 1 0.130532 0.332995 0
307 1 0.111452 0.349487 0
280 1 0.150448 0.318186 0
281 1 0.169095 0.302706 0
311 1 0.154971 0.342575 0
283 1 0.193055 0.308102 0
282 1 0.173877 0.325939 0
313 1 0.197328 0.332536 0
312 1 0.178789 0.349258 0
284 1 0.216938 0.316602 0
315 1 0.221003 0.340788 0
286 1 0.241187 0.325441 0
316 1 0.247247 0.348719 0
287 1 0.259281 0.306177 0
288 1 0.282815 0.312789 0
317 1 0.265385 0.33202 0
319 1 0.289359 0.33838 0
291 1 0.324197 0.302018 0
290 1 0.306564 0.319736 0
321 1 0.312921 0.345257 0
292 1 0.331378 0.324999 0
323 1 0.349052 0.30977 0
294 1 0.373601 0.315577 0
324 1 0.356 0.333271 0
325 1 0.378692 0.34178 0
296 1 0.396774 0.321855 0
326 1 0.402673 0.347725 0
297 1 0.414641 0.303546 0
298 1 0.437083 0.311858 0
327 1 0.418923 0.329084 0
328 1 0.443465 0.33489 0
299 1 0.462742 0.31823 0
300 1 0.488248 0.323222 0
1201 1 0.49392 0.346821 0
329 1 0.469227 0.341295 0
331 1 0.00514588 0.377787 0
302 1 0.0223208 0.362588 0
332 1 0.0285078 0.386949 0
333 1 0.0480827 0.372377 0
1230 1 -0.000170488 0.352931 0
334 1 0.0524675 0.396418 0
304 1 0.0668976 0.356663 0
306 1 0.0907818 0.365248 0
335 1 0.071246 0.381054 0
337 1 0.0961099 0.388532 0
309 1 0.135212 0.357352 0
308 1 0.116069 0.374284 0
339 1 0.140304 0.381413 0
338 1 0.122168 0.397167 0
310 1 0.1598 0.366615 0
341 1 0.165852 0.389331 0
343 1 0.185848 0.373019 0
342 1 0.190642 0.396479 0
314 1 0.203507 0.357201 0
345 1 0.22773 0.364454 0
344 1 0.209398 0.380195 0
375 1 0.234222 0.388559 0
346 1 0.253436 0.373298 0
377 1 0.258834 0.397604 0
318 1 0.270811 0.355196 0
349 1 0.294745 0.361789 0
347 1 0.277149 0.379256 0
350 1 0.300071 0.387732 0
322 1 0.336732 0.351875 0
320 1 0.317333 0.369672 0
351 1 0.342864 0.375948 0
381 1 0.324807 0.393334 0
353 1 0.360722 0.358122 0
355 1 0.385165 0.366508 0
354 1 0.367851 0.383621 0
385 1 0.392022 0.390146 0
357 1 0.426575 0.353658 0
356 1 0.4089 0.371697 0
387 1 0.433315 0.376976 0
386 1 0.41653 0.395268 0
388 1 0.439772 0.400065 0
359 1 0.451234 0.358808 0
358 1 0.457856 0.383353 0
330 1 0.476474 0.364574 0
360 1 0.481574 0.389584 0
361 1 0.0110096 0.403976 0
363 1 0.0337297 0.411741 0
362 1 0.0145014 0.428443 0
364 1 0.0382206 0.436583 0
336 1 0.0776917 0.405906 0
365 1 0.0581301 0.420283 0
395 1 0.0631646 0.446245 0
367 1 0.101674 0.412836 0
366 1 0.1082 0.437054 0
369 1 0.126405 0.421828 0
340 1 0.145577 0.405004 0
368 1 0.131383 0.446586 0
370 1 0.149947 0.430205 0
371 1 0.169754 0.41263 0
401 1 0.174001 0.436886 0
372 1 0.195265 0.420861 0
403 1 0.197445 0.445013 0
373 1 0.214554 0.405153 0
374 1 0.220028 0.429323 0
376 1 0.238088 0.411493 0
405 1 0.242391 0.436416 0
348 1 0.282013 0.404593 0
407 1 0.267593 0.44473 0
378 1 0.263411 0.420757 0
409 1 0.287779 0.429057 0
352 1 0.347679 0.400293 0
379 1 0.306079 0.412231 0
380 1 0.311068 0.436854 0
382 1 0.329123 0.418218 0
411 1 0.334641 0.443748 0
413 1 0.35387 0.425556 0
383 1 0.371381 0.407132 0
414 1 0.378502 0.432145 0
384 1 0.39739 0.413717 0
412 1 0.359975 0.45005 0
415 1 0.401943 0.438329 0
417 1 0.420115 0.420149 0
416 1 0.42611 0.442438 0
419 1 0.444801 0.425518 0
389 1 0.463609 0.40811 0
418 1 0.469016 0.431414 0
390 1 0.487424 0.412781 0
420 1 0.493606 0.437636 0
447 1 0.451109 0.449414 0
393 1 0.0195236 0.452377 0
422 1 0.00506128 0.492828 0
423 1 0.0238496 0.476877 0
394 1 0.0411694 0.462354 0
425 1 0.0492764 0.484391 0
397 1 0.0875114 0.451728 0
396 1 0.0699319 0.469753 0
426 1 0.0727093 0.494403 0
427 1 0.0934259 0.476152 0
398 1 0.113062 0.461857 0
428 1 0.11646 0.486509 0
429 1 0.136854 0.471657 0
459 1 0.140025 0.495938 0
399 1 0.154639 0.454552 0
400 1 0.177888 0.460827 0
430 1 0.160529 0.479587 0
431 1 0.184656 0.484197 0
404 1 0.2246 0.454079 0
402 1 0.202522 0.467459 0
432 1 0.209156 0.490764 0
433 1 0.228827 0.477544 0
435 1 0.248976 0.46038 0
436 1 0.252318 0.486387 0
408 1 0.291433 0.453834 0
406 1 0.273429 0.47061 0
437 1 0.276672 0.494976 0
439 1 0.297683 0.478008 0
410 1 0.315178 0.461148 0
440 1 0.320587 0.487835 0
441 1 0.340444 0.467857 0
471 1 0.34495 0.492804 0
442 1 0.363231 0.474908 0
473 1 0.388588 0.48017 0
443 1 0.383255 0.456491 0
472 1 0.369762 0.498327 0
477 1 0.439068 0.490355 0
446 1 0.431671 0.465958 0
445 1 0.407064 0.462727 0
444 1 0.413766 0.485912 0
1321 1 0.500495 0.461717 0
448 1 0.456272 0.473775 0
449 1 0.475766 0.455734 0
478 1 0.463201 0.497171 0
450 1 0.480771 0.478659 0
453 1 0.0115551 0.516694 0
452 1 0.0160501 0.541523 0
454 1 0.0354261 0.526086 0
424 1 0.0301336 0.500831 0
485 1 0.05799 0.535706 0
455 1 0.0535024 0.509838 0
456 1 0.0780909 0.52003 0
486 1 0.0832611 0.545175 0
457 1 0.0969869 0.502688 0
487 1 0.101179 0.527765 0
458 1 0.120307 0.512354 0
488 1 0.123771 0.53824 0
489 1 0.143286 0.523627 0
490 1 0.148086 0.549684 0
461 1 0.19044 0.506979 0
462 1 0.191545 0.530815 0
491 1 0.167867 0.53502 0
460 1 0.162681 0.505122 0
493 1 0.214861 0.539303 0
463 1 0.213229 0.515187 0
464 1 0.234234 0.525276 0
495 1 0.238569 0.549183 0
434 1 0.233503 0.501492 0
466 1 0.258198 0.534668 0
465 1 0.257065 0.509831 0
467 1 0.28099 0.519495 0
497 1 0.281042 0.544152 0
468 1 0.304103 0.528354 0
469 1 0.326164 0.51448 0
499 1 0.327558 0.539328 0
438 1 0.300607 0.503415 0
470 1 0.353354 0.51607 0
503 1 0.378095 0.521609 0
474 1 0.395634 0.502388 0
505 1 0.388645 0.544273 0
501 1 0.360077 0.53834 0
476 1 0.404292 0.52582 0
509 1 0.429447 0.533292 0
475 1 0.421951 0.508419 0
507 1 0.446077 0.514868 0
479 1 0.472206 0.520709 0
480 1 0.453663 0.539329 0
1381 1 0.496125 0.526551 0
510 1 0.479422 0.544292 0
1351 1 0.488172 0.50217 0
483 1 0.0390916 0.551436 0
513 1 0.0186626 0.56679 0
514 1 0.0429651 0.575438 0
512 1 0.0239552 0.591078 0
484 1 0.0634792 0.561051 0
515 1 0.085962 0.571677 0
545 1 0.0656424 0.586137 0
516 1 0.0886802 0.595466 0
517 1 0.105576 0.556091 0
518 1 0.109893 0.581349 0
519 1 0.129143 0.565497 0
549 1 0.131754 0.593474 0
520 1 0.150804 0.577315 0
521 1 0.170429 0.562454 0
492 1 0.19538 0.554046 0
522 1 0.173823 0.586386 0
523 1 0.19806 0.578114 0
494 1 0.217998 0.564036 0
524 1 0.21986 0.588349 0
525 1 0.240006 0.573659 0
555 1 0.242107 0.599144 0
496 1 0.26127 0.560215 0
526 1 0.26369 0.585643 0
527 1 0.283939 0.570031 0
528 1 0.286466 0.594167 0
498 1 0.304305 0.553939 0
529 1 0.308236 0.579348 0
500 1 0.327135 0.564895 0
530 1 0.330188 0.590656 0
531 1 0.351446 0.577009 0
502 1 0.370916 0.562249 0
504 1 0.394974 0.568041 0
533 1 0.377656 0.586614 0
506 1 0.412425 0.551125 0
534 1 0.402365 0.591777 0
535 1 0.420126 0.575245 0
508 1 0.437181 0.558012 0
537 1 0.446007 0.581667 0
536 1 0.427354 0.598668 0
539 1 0.461747 0.563438 0
540 1 0.486394 0.568803 0
538 1 0.470258 0.587812 0
569 1 0.494606 0.59292 0
543 1 0.044352 0.601344 0
542 1 0.0251411 0.616506 0
571 1 0.003296 0.629813 0
573 1 0.0262411 0.640459 0
541 1 0.00289819 0.605262 0
544 1 0.0482154 0.626365 0
574 1 0.04854 0.651211 0
546 1 0.0692849 0.611098 0
547 1 0.0918198 0.622039 0
575 1 0.0706704 0.6361 0
576 1 0.0926381 0.646943 0
548 1 0.110922 0.607925 0
550 1 0.134533 0.617932 0
577 1 0.114065 0.632249 0
579 1 0.136708 0.643295 0
551 1 0.154792 0.602842 0
581 1 0.156708 0.628503 0
552 1 0.177001 0.613856 0
582 1 0.179364 0.639884 0
553 1 0.198624 0.601969 0
583 1 0.199557 0.625679 0
554 1 0.221552 0.612983 0
556 1 0.242528 0.625195 0
585 1 0.22122 0.637812 0
586 1 0.246235 0.649309 0
557 1 0.264084 0.609547 0
587 1 0.265749 0.633689 0
558 1 0.285924 0.618745 0
589 1 0.286885 0.645684 0
559 1 0.307311 0.604888 0
560 1 0.308264 0.630043 0
561 1 0.32777 0.615171 0
591 1 0.329819 0.642582 0
562 1 0.348284 0.625385 0
532 1 0.357714 0.600595 0
563 1 0.382853 0.610598 0
564 1 0.370653 0.632818 0
595 1 0.394565 0.636097 0
593 1 0.352846 0.649008 0
565 1 0.409261 0.616658 0
566 1 0.434285 0.622076 0
596 1 0.417391 0.642536 0
598 1 0.440442 0.64879 0
567 1 0.452658 0.605163 0
597 1 0.459225 0.63044 0
568 1 0.476942 0.611548 0
570 1 0.4829 0.636476 0
572 1 0.00483554 0.654023 0
603 1 0.0280539 0.665506 0
602 1 0.00734363 0.679373 0
633 1 0.0305907 0.688917 0
604 1 0.0514832 0.675192 0
605 1 0.0720132 0.660659 0
606 1 0.0735665 0.686331 0
607 1 0.0934684 0.671882 0
637 1 0.0956111 0.696261 0
578 1 0.113993 0.656987 0
609 1 0.138057 0.667999 0
608 1 0.116411 0.682906 0
639 1 0.139572 0.694594 0
580 1 0.159604 0.654381 0
611 1 0.180564 0.66566 0
610 1 0.160548 0.679219 0
612 1 0.18351 0.69027 0
584 1 0.200387 0.650645 0
613 1 0.203658 0.676066 0
615 1 0.224217 0.662263 0
614 1 0.227142 0.686701 0
617 1 0.24657 0.673252 0
616 1 0.248873 0.698737 0
588 1 0.267467 0.660788 0
619 1 0.289913 0.6705 0
618 1 0.269659 0.68552 0
590 1 0.309083 0.655599 0
621 1 0.312247 0.681893 0
592 1 0.333537 0.666361 0
622 1 0.338002 0.690412 0
623 1 0.35663 0.673135 0
594 1 0.37597 0.656129 0
624 1 0.383127 0.679313 0
653 1 0.364518 0.697128 0
625 1 0.400066 0.661474 0
627 1 0.423508 0.667589 0
626 1 0.406777 0.685932 0
657 1 0.432212 0.692256 0
628 1 0.4479 0.673214 0
599 1 0.465605 0.654373 0
600 1 0.490227 0.66089 0
629 1 0.47167 0.678861 0
630 1 0.496369 0.684586 0
658 1 0.456075 0.697086 0
632 1 0.0100945 0.704717 0
634 1 0.0340409 0.713176 0
663 1 0.0124897 0.728903 0
664 1 0.0363618 0.738854 0
635 1 0.053975 0.700131 0
636 1 0.0765192 0.712003 0
665 1 0.0560099 0.724967 0
666 1 0.0797916 0.736288 0
667 1 0.100038 0.722411 0
695 1 0.0592843 0.74953 0
638 1 0.119657 0.708658 0
640 1 0.143913 0.719907 0
669 1 0.122551 0.732998 0
668 1 0.101936 0.746726 0
670 1 0.145242 0.744802 0
641 1 0.162653 0.703855 0
642 1 0.186036 0.716071 0
671 1 0.165636 0.730866 0
673 1 0.187954 0.741703 0
643 1 0.206858 0.700069 0
645 1 0.22812 0.711706 0
644 1 0.208339 0.727081 0
675 1 0.230073 0.737491 0
646 1 0.250563 0.723898 0
647 1 0.271786 0.709933 0
677 1 0.252223 0.748533 0
648 1 0.272449 0.734441 0
679 1 0.293567 0.743839 0
649 1 0.29861 0.718396 0
620 1 0.322353 0.708364 0
651 1 0.346784 0.714507 0
650 1 0.330929 0.733095 0
652 1 0.35431 0.739445 0
655 1 0.388834 0.703029 0
654 1 0.371157 0.721137 0
685 1 0.396643 0.726189 0
683 1 0.379512 0.74457 0
656 1 0.413942 0.708826 0
687 1 0.437953 0.715947 0
686 1 0.420832 0.734506 0
717 1 0.44494 0.739475 0
659 1 0.480408 0.703316 0
689 1 0.462757 0.721021 0
660 1 0.486696 0.727625 0
688 1 0.470223 0.745532 0
662 1 0.0160811 0.753132 0
694 1 0.0380629 0.764005 0
693 1 0.0179144 0.77783 0
725 1 0.040749 0.788263 0
697 1 0.0815359 0.760954 0
696 1 0.0608032 0.774074 0
727 1 0.0862016 0.78588 0
726 1 0.0649697 0.797472 0
699 1 0.125378 0.758559 0
698 1 0.10445 0.77098 0
700 1 0.127543 0.783708 0
728 1 0.10811 0.797964 0
701 1 0.147967 0.770252 0
731 1 0.149387 0.794342 0
672 1 0.168055 0.756047 0
703 1 0.189859 0.765928 0
702 1 0.170231 0.78044 0
704 1 0.192072 0.793416 0
674 1 0.210944 0.752557 0
676 1 0.232664 0.763785 0
705 1 0.21132 0.777791 0
706 1 0.23329 0.789588 0
707 1 0.253853 0.77347 0
678 1 0.273718 0.759719 0
709 1 0.27733 0.784197 0
680 1 0.296861 0.768177 0
710 1 0.301757 0.792633 0
681 1 0.314638 0.752279 0
682 1 0.338578 0.75814 0
711 1 0.320634 0.775573 0
712 1 0.343981 0.782172 0
713 1 0.362847 0.762871 0
714 1 0.386046 0.769337 0
743 1 0.367848 0.787374 0
745 1 0.391428 0.794134 0
684 1 0.403358 0.750332 0
715 1 0.427526 0.758636 0
716 1 0.408585 0.776904 0
747 1 0.435079 0.783342 0
718 1 0.45185 0.763569 0
690 1 0.493772 0.751406 0
719 1 0.476105 0.770414 0
720 1 0.481282 0.794877 0
749 1 0.457701 0.789679 0
723 1 0.0203466 0.802391 0
722 1 0.0219581 0.826988 0
724 1 0.0444074 0.811782 0
754 1 0.045062 0.836033 0
1680 1 0.00150982 0.842214 0
751 1 -0.000295604 0.816548 0
757 1 0.0875672 0.810182 0
755 1 0.0667555 0.822534 0
756 1 0.0887491 0.836625 0
785 1 0.0665001 0.848439 0
729 1 0.129743 0.810251 0
759 1 0.109619 0.82292 0
760 1 0.131919 0.834908 0
758 1 0.109672 0.84823 0
730 1 0.151169 0.822308 0
732 1 0.17148 0.80627 0
761 1 0.153913 0.847321 0
763 1 0.173309 0.833327 0
733 1 0.194675 0.818014 0
764 1 0.195655 0.843916 0
735 1 0.213921 0.802694 0
736 1 0.236387 0.814521 0
734 1 0.215755 0.829463 0
767 1 0.236924 0.840688 0
737 1 0.256779 0.797499 0
708 1 0.27942 0.811762 0
738 1 0.25767 0.825077 0
769 1 0.281079 0.837634 0
768 1 0.258864 0.849335 0
741 1 0.324883 0.801122 0
739 1 0.305071 0.815519 0
740 1 0.306015 0.83948 0
771 1 0.328085 0.827669 0
742 1 0.349054 0.805248 0
773 1 0.354707 0.828529 0
744 1 0.373581 0.812202 0
774 1 0.380044 0.837364 0
775 1 0.397984 0.818825 0
746 1 0.416255 0.800906 0
748 1 0.440753 0.807173 0
777 1 0.42307 0.823753 0
776 1 0.407417 0.843421 0
779 1 0.447288 0.831343 0
750 1 0.464109 0.81339 0
1621 1 0.489533 0.818773 0
780 1 0.472719 0.837311 0
1651 1 0.49775 0.842472 0
753 1 0.0442672 0.859828 0
752 1 0.0195831 0.860012 0
783 1 0.0381074 0.883125 0
782 1 0.0144942 0.887184 0
784 1 0.0650797 0.873224 0
786 1 0.0813355 0.892082 0
787 1 0.0900614 0.86256 0
815 1 0.0574097 0.897322 0
817 1 0.105361 0.885446 0
789 1 0.132642 0.859578 0
788 1 0.130004 0.882782 0
790 1 0.148444 0.89797 0
791 1 0.155868 0.874322 0
762 1 0.176216 0.860334 0
793 1 0.177535 0.887375 0
795 1 0.197973 0.86948 0
765 1 0.217385 0.854779 0
796 1 0.221902 0.879194 0
825 1 0.24019 0.89678 0
766 1 0.247183 0.873545 0
797 1 0.273685 0.868641 0
827 1 0.264961 0.893049 0
799 1 0.297012 0.862872 0
798 1 0.289442 0.887579 0
772 1 0.344333 0.849371 0
770 1 0.321984 0.857924 0
800 1 0.313768 0.881185 0
801 1 0.341861 0.873966 0
831 1 0.333273 0.897938 0
802 1 0.357497 0.893183 0
803 1 0.364642 0.864404 0
804 1 0.380748 0.882255 0
805 1 0.389902 0.859658 0
806 1 0.399691 0.902711 0
778 1 0.430143 0.850427 0
807 1 0.413697 0.868853 0
808 1 0.438049 0.872842 0
837 1 0.423781 0.893111 0
809 1 0.454806 0.855619 0
1681 1 0.479487 0.861672 0
1711 1 0.487068 0.885084 0
810 1 0.462459 0.879238 0
813 1 0.0319409 0.905979 0
843 1 0.0242882 0.929784 0
844 1 0.0418325 0.947514 0
812 1 0.00782243 0.911886 0
814 1 0.0496216 0.922862 0
816 1 0.0981338 0.909608 0
845 1 0.0737397 0.917752 0
846 1 0.0661028 0.942029 0
847 1 0.0901024 0.935918 0
819 1 0.122048 0.906654 0
818 1 0.11347 0.92972 0
820 1 0.134581 0.946355 0
821 1 0.141051 0.921928 0
792 1 0.165358 0.916734 0
851 1 0.158607 0.940725 0
823 1 0.188863 0.908106 0
822 1 0.1837 0.932957 0
794 1 0.213927 0.903225 0
824 1 0.207583 0.927168 0
885 1 0.223782 0.944226 0
855 1 0.23175 0.921262 0
856 1 0.24966 0.939821 0
826 1 0.257657 0.916278 0
857 1 0.275671 0.935013 0
828 1 0.282413 0.912113 0
859 1 0.299443 0.92964 0
829 1 0.305854 0.904924 0
830 1 0.32446 0.922596 0
861 1 0.342108 0.943213 0
832 1 0.348407 0.917583 0
860 1 0.315985 0.947617 0
863 1 0.36593 0.935047 0
833 1 0.376046 0.909338 0
834 1 0.39183 0.929019 0
835 1 0.415712 0.92184 0
836 1 0.434445 0.94364 0
865 1 0.408013 0.947243 0
838 1 0.450256 0.922573 0
869 1 0.458822 0.946758 0
839 1 0.469987 0.903021 0
840 1 0.474386 0.927309 0
1712 1 0.494431 0.908825 0
842 1 0.0181141 0.954563 0
872 1 0.0251847 0.995837 0
873 1 0.0342343 0.973011 0
871 1 0.00964407 0.977444 0
874 1 0.0507555 0.989851 0
875 1 0.0584486 0.966735 0
876 1 0.0755159 0.983124 0
848 1 0.0814092 0.959407 0
877 1 0.101421 0.977021 0
849 1 0.107859 0.953149 0
878 1 0.118724 0.993789 0
879 1 0.125806 0.968535 0
881 1 0.143415 0.988416 0
850 1 0.150725 0.963888 0
853 1 0.177103 0.957609 0
852 1 0.168375 0.98119 0
883 1 0.192538 0.975854 0
854 1 0.200656 0.951315 0
882 1 0.183902 0.999066 0
13 1 0.208604 0.994271 0
15 1 0.234872 0.98722 0
884 1 0.215628 0.969499 0
886 1 0.241188 0.962944 0
858 1 0.290484 0.953343 0
887 1 0.266177 0.959156 0
17 1 0.25909 0.983177 0
888 1 0.283503 0.977216 0
19 1 0.299023 0.996999 0
889 1 0.307639 0.972113 0
890 1 0.324888 0.990954 0
891 1 0.332823 0.966315 0
892 1 0.350075 0.984085 0
862 1 0.360124 0.959618 0
864 1 0.383255 0.954042 0
893 1 0.374853 0.978987 0
894 1 0.393268 0.99698 0
895 1 0.399674 0.971964 0
896 1 0.419814 0.991308 0
867 1 0.445485 0.967008 0
866 1 0.422715 0.966037 0
897 1 0.449822 0.992878 0
1771 1 0.492558 0.974218 0
868 1 0.46938 0.968782 0
899 1 0.474967 0.99246 0
870 1 0.484453 0.949852 0
902 1 0.533601 0.026018 0
901 1 0.510235 0.0209379 0
931 1 0.517735 0.0442459 0
903 1 0.525854 0.0012469 0
904 1 0.557244 0.030894 0
906 1 0.57615 0.0132335 0
935 1 0.583491 0.0359862 0
905 1 0.550116 0.00783263 0
908 1 0.600808 0.0190424 0
937 1 0.609143 0.0420799 0
939 1 0.626271 0.0242171 0
910 1 0.640022 0.00595343 0
938 1 0.632604 0.0491395 0
909 1 0.616522 -0.000399814 0
941 1 0.652062 0.0299761 0
912 1 0.667677 0.0111573 0
942 1 0.675059 0.0351464 0
943 1 0.691878 0.0171858 0
973 1 0.699013 0.0411713 0
944 1 0.716049 0.0227544 0
945 1 0.733132 0.00528835 0
946 1 0.740543 0.028632 0
975 1 0.723007 0.0463096 0
947 1 0.757017 0.0111944 0
948 1 0.766383 0.0349081 0
918 1 0.781342 0.0160735 0
979 1 0.791393 0.0409739 0
949 1 0.806427 0.0205278 0
951 1 0.839617 0.0149544 0
950 1 0.829077 0.0378026 0
921 1 0.820915 -0.000577421 0
952 1 0.853712 0.0339819 0
953 1 0.86212 0.00939768 0
924 1 0.885226 0.00351488 0
954 1 0.879094 0.0286686 0
985 1 0.895409 0.0465714 0
955 1 0.903208 0.0218555 0
926 1 0.927346 0.0183777 0
957 1 0.943139 0.0364362 0
956 1 0.918718 0.0413155 0
928 1 0.950807 0.0135964 0
959 1 0.968676 0.0309642 0
930 1 0.993209 0.0265206 0
929 1 0.976944 0.00763216 0
960 1 0.984767 0.0493073 0
933 1 0.54085 0.049385 0
932 1 0.525575 0.0681872 0
962 1 0.534298 0.0901542 0
961 1 0.508168 0.0860582 0
60 1 0.499992 0.0613137 0
963 1 0.550331 0.0729956 0
934 1 0.566924 0.0544922 0
965 1 0.57597 0.0769103 0
964 1 0.558117 0.0975686 0
936 1 0.592653 0.0595854 0
966 1 0.599943 0.0846157 0
967 1 0.616181 0.067094 0
968 1 0.62383 0.0898468 0
969 1 0.640822 0.0713 0
999 1 0.648213 0.0949591 0
940 1 0.657888 0.0532187 0
970 1 0.665608 0.076635 0
971 1 0.683141 0.060166 0
972 1 0.691132 0.0833388 0
1003 1 0.708083 0.0645116 0
1004 1 0.715463 0.0896033 0
974 1 0.731537 0.0712703 0
1005 1 0.741363 0.0956644 0
976 1 0.747218 0.0524395 0
1007 1 0.755137 0.0763891 0
977 1 0.772659 0.0586446 0
978 1 0.797147 0.0657534 0
1008 1 0.788561 0.0916613 0
1006 1 0.765118 0.0980397 0
980 1 0.820331 0.062592 0
981 1 0.844302 0.057176 0
1009 1 0.811842 0.0865524 0
1011 1 0.837135 0.0809048 0
982 1 0.862358 0.0753577 0
983 1 0.868692 0.0521212 0
984 1 0.886492 0.0698731 0
1013 1 0.878922 0.0940094 0
1015 1 0.903109 0.0888127 0
986 1 0.911572 0.0654932 0
987 1 0.93611 0.0603326 0
1017 1 0.928999 0.0832458 0
988 1 0.954187 0.0774296 0
958 1 0.960141 0.0545288 0
989 1 0.977387 0.0720738 0
990 1 0.993907 0.0899928 0
1019 1 0.969052 0.0964228 0
991 1 0.516403 0.107949 0
992 1 0.523777 0.132233 0
993 1 0.540886 0.114731 0
1023 1 0.548874 0.137876 0
995 1 0.582305 0.101585 0
994 1 0.565439 0.120375 0
996 1 0.590276 0.126199 0
1025 1 0.572941 0.143389 0
1026 1 0.598022 0.149246 0
997 1 0.608771 0.108651 0
998 1 0.632595 0.114018 0
1027 1 0.615381 0.132286 0
1029 1 0.640257 0.137116 0
1001 1 0.674108 0.101393 0
1000 1 0.656809 0.118611 0
1031 1 0.681033 0.125439 0
1030 1 0.665245 0.143876 0
1002 1 0.698762 0.107808 0
1033 1 0.706028 0.13107 0
1035 1 0.724801 0.113003 0
1034 1 0.731045 0.137104 0
1036 1 0.749789 0.118393 0
1037 1 0.779601 0.117064 0
1038 1 0.797644 0.134303 0
1067 1 0.770734 0.140796 0
1039 1 0.804791 0.109933 0
1010 1 0.829587 0.105374 0
1040 1 0.820946 0.128976 0
1041 1 0.846536 0.12413 0
1071 1 0.83825 0.147144 0
1012 1 0.854511 0.0989854 0
1043 1 0.871203 0.118818 0
1014 1 0.894724 0.113277 0
1044 1 0.886658 0.137363 0
1042 1 0.862435 0.142432 0
1018 1 0.944327 0.101198 0
1045 1 0.911292 0.13096 0
1016 1 0.920096 0.10752 0
1047 1 0.93645 0.124565 0
1077 1 0.928258 0.149705 0
1049 1 0.961341 0.119884 0
1020 1 0.986248 0.114507 0
1050 1 0.978034 0.137902 0
1046 1 0.952845 0.143131 0
1021 1 0.506818 0.150244 0
1022 1 0.53037 0.155768 0
1053 1 0.538484 0.179118 0
1051 1 0.514098 0.174806 0
1052 1 0.520358 0.198727 0
1024 1 0.554933 0.161642 0
1055 1 0.579906 0.166704 0
1054 1 0.562756 0.184923 0
1056 1 0.587176 0.190794 0
1028 1 0.622168 0.154837 0
1057 1 0.604997 0.173216 0
1058 1 0.629737 0.177993 0
1059 1 0.646051 0.160667 0
1087 1 0.611873 0.196291 0
1032 1 0.68985 0.14887 0
1060 1 0.65419 0.184249 0
1061 1 0.672506 0.167105 0
1091 1 0.679114 0.190813 0
1062 1 0.696549 0.173117 0
1063 1 0.7143 0.154222 0
1064 1 0.720753 0.178704 0
1095 1 0.744879 0.184845 0
1093 1 0.704808 0.197409 0
1065 1 0.739057 0.160554 0
1066 1 0.765882 0.166067 0
1068 1 0.789954 0.157139 0
1097 1 0.77221 0.190655 0
1098 1 0.795598 0.198881 0
1069 1 0.814167 0.153168 0
1070 1 0.830211 0.170928 0
1099 1 0.806558 0.177737 0
1101 1 0.846987 0.189932 0
1100 1 0.822441 0.196608 0
1072 1 0.855943 0.166417 0
1073 1 0.879284 0.161709 0
1103 1 0.871967 0.185728 0
1074 1 0.895541 0.179571 0
1075 1 0.90464 0.155527 0
1076 1 0.91944 0.174076 0
1107 1 0.935069 0.194253 0
1078 1 0.94441 0.168144 0
1105 1 0.911636 0.198453 0
1048 1 0.969511 0.161625 0
151 1 0.996369 0.155507 0
1079 1 0.987663 0.178347 0
1109 1 0.961621 0.186464 0
1083 1 0.545496 0.203467 0
1082 1 0.527634 0.221724 0
1111 1 0.50971 0.239666 0
1113 1 0.534598 0.247055 0
1081 1 0.502796 0.216232 0
1084 1 0.553084 0.228178 0
1085 1 0.570206 0.20877 0
1086 1 0.593535 0.214444 0
1115 1 0.575976 0.233677 0
1117 1 0.602157 0.238536 0
1089 1 0.636557 0.203079 0
1088 1 0.618924 0.220293 0
1119 1 0.645005 0.226636 0
1118 1 0.62665 0.244253 0
1090 1 0.662116 0.2086 0
1092 1 0.685825 0.215631 0
1121 1 0.668175 0.23315 0
1122 1 0.692378 0.240559 0
1094 1 0.728754 0.204131 0
1123 1 0.709227 0.222484 0
1124 1 0.71768 0.244969 0
1125 1 0.735668 0.227108 0
1096 1 0.753811 0.208368 0
1127 1 0.777918 0.2168 0
1126 1 0.760416 0.232962 0
1128 1 0.785103 0.239795 0
1131 1 0.839634 0.213891 0
1129 1 0.812671 0.219078 0
1130 1 0.829925 0.235275 0
1159 1 0.808654 0.248959 0
1102 1 0.862346 0.208812 0
1104 1 0.887057 0.205014 0
1132 1 0.855773 0.235239 0
1133 1 0.879875 0.229154 0
1134 1 0.897447 0.246563 0
1135 1 0.904488 0.222567 0
1106 1 0.929324 0.217504 0
1136 1 0.920997 0.240436 0
1137 1 0.947214 0.233692 0
1108 1 0.954891 0.209853 0
1110 1 0.979992 0.203169 0
1139 1 0.972437 0.227216 0
1140 1 0.989114 0.245161 0
181 1 0.996708 0.22119 0
1112 1 0.516376 0.26381 0
1143 1 0.542167 0.269375 0
1142 1 0.523347 0.288599 0
1144 1 0.547921 0.294124 0
1114 1 0.5595 0.252041 0
1116 1 0.583959 0.256973 0
1145 1 0.567109 0.274626 0
1146 1 0.591523 0.28088 0
1175 1 0.573399 0.298152 0
1147 1 0.608406 0.263373 0
1149 1 0.633286 0.269092 0
1148 1 0.615298 0.287986 0
1179 1 0.640664 0.29255 0
1120 1 0.650721 0.251389 0
1151 1 0.675452 0.258262 0
1150 1 0.656936 0.275013 0
1152 1 0.681587 0.281862 0
1181 1 0.664162 0.298467 0