ITEM: TIMESTEP
26000
ITEM: NUMBER OF ATOMS
1800
ITEM: BOX BOUNDS pp pp pp
2.4853718465995769e+00 1.5591462815339929e+02
2.4853718465995769e+00 1.5591462815339929e+02
0.0000000000000000e+00 5.2800000000000002e+00
ITEM: ATOMS id type xs ys zs
2 1 0.0148097 0.0181109 0
3 1 0.0390709 0.0107761 0
33 1 0.0333596 0.0339991 0
31 1 0.00704949 0.041463 0
4 1 0.0574439 0.0279857 0
6 1 0.081519 0.0233821 0
5 1 0.0633269 0.00401554 0
35 1 0.0759692 0.0470826 0
37 1 0.0995598 0.0399591 0
8 1 0.105322 0.0164385 0
9 1 0.123508 0.0338089 0
880 1 0.130949 0.00992677 0
10 1 0.147937 0.0259649 0
11 1 0.154891 0.000883198 0
12 1 0.17097 0.0198423 0
43 1 0.189036 0.0400437 0
41 1 0.164552 0.0427355 0
14 1 0.196121 0.0156015 0
44 1 0.21226 0.0335434 0
45 1 0.221148 0.00970805 0
46 1 0.237676 0.0272809 0
16 1 0.246859 0.0041054 0
47 1 0.264141 0.0227276 0
49 1 0.288254 0.019502 0
48 1 0.281705 0.0420327 0
77 1 0.255106 0.0472166 0
18 1 0.271742 -0.000189054 0
50 1 0.305719 0.0373412 0
20 1 0.312505 0.0135537 0
51 1 0.329617 0.0321341 0
21 1 0.336717 0.00920757 0
22 1 0.353326 0.0258135 0
23 1 0.362348 0.00189467 0
24 1 0.377743 0.0209091 0
55 1 0.395086 0.0391558 0
53 1 0.371946 0.0447119 0
25 1 0.401299 0.0149681 0
26 1 0.427969 0.035707 0
27 1 0.425682 0.0110194 0
898 1 0.448585 0.017253 0
28 1 0.453653 0.0409677 0
29 1 0.471631 0.0232142 0
900 1 0.489834 0.00430604 0
59 1 0.477836 0.0470488 0
30 1 0.496708 0.0289236 0
32 1 0.0261675 0.0579803 0
62 1 0.0183385 0.0811225 0
63 1 0.04481 0.07538 0
93 1 0.0371248 0.0990728 0
61 1 0.00027975 0.0646905 0
34 1 0.0507397 0.0516605 0
65 1 0.0683857 0.0707024 0
66 1 0.0849944 0.0890816 0
36 1 0.0927039 0.0633241 0
64 1 0.0606585 0.0932642 0
38 1 0.117157 0.0567649 0
67 1 0.109526 0.0804276 0
69 1 0.134286 0.0745427 0
39 1 0.1417 0.0507425 0
40 1 0.1591 0.0691793 0
71 1 0.175957 0.0866104 0
42 1 0.182129 0.0634834 0
70 1 0.151082 0.0928867 0
72 1 0.200578 0.0823706 0
73 1 0.206483 0.0578295 0
74 1 0.224269 0.075427 0
75 1 0.231466 0.0500655 0
106 1 0.241287 0.0944553 0
103 1 0.218161 0.100223 0
76 1 0.248193 0.0706044 0
78 1 0.273967 0.0649125 0
109 1 0.293196 0.0845918 0
107 1 0.267597 0.0889852 0
79 1 0.29817 0.0617302 0
52 1 0.346576 0.0511341 0
80 1 0.317161 0.0807823 0
81 1 0.322664 0.0568932 0
82 1 0.340478 0.0754328 0
111 1 0.334585 0.100552 0
54 1 0.390629 0.0655821 0
83 1 0.364176 0.06924 0
113 1 0.378782 0.0881503 0
57 1 0.436827 0.0588992 0
56 1 0.411935 0.055888 0
85 1 0.421122 0.0778325 0
87 1 0.443926 0.0825276 0
84 1 0.401383 0.094676 0
88 1 0.468352 0.0867143 0
58 1 0.460694 0.0652237 0
89 1 0.485632 0.0694415 0
90 1 0.490735 0.094181 0
121 1 0.00397836 0.132486 0
92 1 0.0295963 0.122395 0
91 1 0.0107721 0.106035 0
123 1 0.0469374 0.141273 0
122 1 0.0227588 0.147322 0
94 1 0.0534926 0.117417 0
95 1 0.0767157 0.112191 0
125 1 0.0711993 0.134802 0
96 1 0.0954034 0.127334 0
68 1 0.127141 0.0977941 0
97 1 0.102706 0.105424 0
98 1 0.121189 0.122431 0
99 1 0.144995 0.116579 0
129 1 0.135895 0.140926 0
127 1 0.112317 0.14671 0
100 1 0.168406 0.110577 0
130 1 0.162326 0.135332 0
131 1 0.186293 0.129131 0
101 1 0.193328 0.105544 0
102 1 0.212599 0.122949 0
105 1 0.236525 0.119136 0
104 1 0.231139 0.143154 0
133 1 0.205158 0.145939 0
135 1 0.261923 0.112836 0
137 1 0.276783 0.133874 0
108 1 0.287353 0.109342 0
139 1 0.301433 0.136509 0
110 1 0.313614 0.114745 0
141 1 0.342027 0.123875 0
140 1 0.325182 0.141171 0
142 1 0.349 0.148602 0
112 1 0.359015 0.106403 0
114 1 0.383046 0.111491 0
143 1 0.365228 0.130761 0
144 1 0.389386 0.136558 0
86 1 0.426864 0.10133 0
115 1 0.407645 0.117895 0
116 1 0.433009 0.125107 0
145 1 0.415157 0.14068 0
117 1 0.452166 0.106437 0
147 1 0.439886 0.148838 0
118 1 0.457446 0.1302 0
119 1 0.475372 0.111867 0
149 1 0.480266 0.136573 0
120 1 0.497881 0.118382 0
153 1 0.0389377 0.165268 0
152 1 0.0142788 0.17151 0
183 1 0.0326532 0.188629 0
1080 1 0.0092102 0.195048 0
124 1 0.0651116 0.159238 0
126 1 0.0882856 0.152304 0
155 1 0.0813003 0.176865 0
154 1 0.0562269 0.182001 0
156 1 0.0983491 0.193151 0
185 1 0.074524 0.200541 0
128 1 0.12954 0.165795 0
157 1 0.104959 0.170125 0
160 1 0.147484 0.183338 0
158 1 0.121927 0.188681 0
159 1 0.153878 0.158451 0
161 1 0.170824 0.177508 0
132 1 0.179207 0.152378 0
162 1 0.189395 0.193802 0
163 1 0.195943 0.170816 0
134 1 0.220256 0.164117 0
164 1 0.226853 0.187214 0
165 1 0.243722 0.170155 0
136 1 0.259489 0.150855 0
167 1 0.269233 0.174609 0
138 1 0.283992 0.156794 0
168 1 0.291848 0.180103 0
166 1 0.251846 0.192837 0
197 1 0.276234 0.199702 0
169 1 0.308543 0.162381 0
171 1 0.33277 0.167557 0
170 1 0.315909 0.186193 0
201 1 0.340418 0.192269 0
172 1 0.357092 0.172983 0
173 1 0.372992 0.155895 0
174 1 0.381252 0.179019 0
203 1 0.365566 0.198722 0
175 1 0.397418 0.159613 0
146 1 0.422518 0.165979 0
177 1 0.445824 0.172856 0
205 1 0.404674 0.183925 0
176 1 0.429754 0.1912 0
148 1 0.463842 0.15389 0
150 1 0.487184 0.161062 0
179 1 0.468772 0.178812 0
178 1 0.453768 0.199049 0
180 1 0.493563 0.184707 0
182 1 0.0252103 0.212806 0
184 1 0.0489283 0.206049 0
213 1 0.0410994 0.229602 0
211 1 0.0174937 0.236914 0
181 1 0.000844356 0.218508 0
186 1 0.0897504 0.21782 0
215 1 0.0649756 0.223354 0
216 1 0.081014 0.242202 0
214 1 0.0571659 0.248047 0
187 1 0.114787 0.210423 0
188 1 0.131746 0.230061 0
189 1 0.140098 0.206529 0
217 1 0.107519 0.233872 0
191 1 0.165229 0.201077 0
220 1 0.14954 0.247621 0
190 1 0.156066 0.223852 0
192 1 0.192252 0.219147 0
221 1 0.176082 0.237005 0
223 1 0.199666 0.244479 0
193 1 0.210564 0.204144 0
194 1 0.215887 0.227295 0
195 1 0.234879 0.210007 0
225 1 0.242816 0.233732 0
196 1 0.259324 0.215674 0
198 1 0.28341 0.223679 0
227 1 0.265754 0.238559 0
228 1 0.2894 0.247988 0
199 1 0.299314 0.203701 0
200 1 0.323335 0.212111 0
202 1 0.347448 0.216761 0
229 1 0.306692 0.230425 0
231 1 0.331213 0.235626 0
233 1 0.374019 0.222246 0
204 1 0.389594 0.203634 0
235 1 0.399103 0.22585 0
232 1 0.356573 0.23864 0
234 1 0.381056 0.244974 0
207 1 0.436957 0.21588 0
206 1 0.422041 0.235331 0
237 1 0.445016 0.240874 0
208 1 0.46117 0.223275 0
209 1 0.476844 0.205682 0
210 1 0.484563 0.229026 0
239 1 0.468446 0.247071 0
212 1 0.00797138 0.261216 0
243 1 0.0343003 0.255689 0
242 1 0.0277945 0.292251 0
241 1 0.00459024 0.286536 0
244 1 0.0524522 0.276169 0
245 1 0.0736857 0.264922 0
275 1 0.072915 0.289637 0
247 1 0.0945468 0.279855 0
218 1 0.0997091 0.257482 0
219 1 0.122398 0.252792 0
249 1 0.138877 0.269888 0
248 1 0.11828 0.284131 0
250 1 0.144682 0.29357 0
222 1 0.181877 0.260964 0
251 1 0.162316 0.275081 0
252 1 0.1875 0.285008 0
224 1 0.223601 0.250704 0
253 1 0.206123 0.269194 0
255 1 0.228773 0.276616 0
226 1 0.245948 0.258764 0
254 1 0.211109 0.292995 0
285 1 0.234177 0.300956 0
256 1 0.252826 0.281375 0
257 1 0.271069 0.262878 0
259 1 0.294684 0.272859 0
258 1 0.276132 0.289202 0
289 1 0.297833 0.298118 0
230 1 0.314115 0.255159 0
260 1 0.31751 0.280737 0
261 1 0.3416 0.273758 0
262 1 0.346461 0.298389 0
263 1 0.361866 0.261726 0
264 1 0.386617 0.267624 0
293 1 0.367497 0.285829 0
295 1 0.393121 0.291226 0
265 1 0.40446 0.25074 0
236 1 0.426994 0.25887 0
266 1 0.410382 0.275383 0
267 1 0.43349 0.282946 0
238 1 0.450142 0.264169 0
240 1 0.493163 0.253096 0
269 1 0.474736 0.269736 0
268 1 0.457764 0.2884 0
270 1 0.482222 0.293721 0
271 1 0.0112573 0.310096 0
272 1 0.0350594 0.318914 0
303 1 0.0414289 0.344544 0
301 1 0.0183346 0.336383 0
273 1 0.050882 0.301058 0
276 1 0.0779754 0.31349 0
274 1 0.059697 0.329169 0
305 1 0.08409 0.337507 0
246 1 0.100938 0.302325 0
279 1 0.125115 0.30781 0
280 1 0.147931 0.317607 0
277 1 0.104608 0.325422 0
278 1 0.13002 0.332864 0
307 1 0.109132 0.348268 0
281 1 0.167591 0.300473 0
311 1 0.152794 0.342051 0
283 1 0.191033 0.308496 0
282 1 0.171796 0.324548 0
313 1 0.194461 0.33324 0
312 1 0.177078 0.349032 0
284 1 0.214135 0.3172 0
315 1 0.220008 0.339849 0
286 1 0.239856 0.32371 0
316 1 0.24538 0.347202 0
287 1 0.257373 0.306453 0
288 1 0.27998 0.315265 0
317 1 0.262799 0.33151 0
319 1 0.285753 0.339571 0
291 1 0.322122 0.304916 0
290 1 0.30343 0.321934 0
321 1 0.309907 0.346134 0
292 1 0.328726 0.327618 0
294 1 0.373742 0.308442 0
296 1 0.396888 0.316278 0
323 1 0.352148 0.321401 0
324 1 0.355349 0.345002 0
325 1 0.376661 0.33185 0
326 1 0.402872 0.34728 0
297 1 0.416248 0.300073 0
298 1 0.440383 0.307454 0
327 1 0.420134 0.325211 0
328 1 0.447427 0.330846 0
299 1 0.465946 0.311276 0
300 1 0.488687 0.317307 0
1201 1 0.495934 0.339352 0
329 1 0.471229 0.333657 0
331 1 0.0059703 0.379327 0
302 1 0.0225768 0.360882 0
332 1 0.0295122 0.386257 0
333 1 0.047466 0.369788 0
334 1 0.0522451 0.393903 0
304 1 0.0653665 0.352738 0
306 1 0.0891635 0.362773 0
335 1 0.0720161 0.378513 0
337 1 0.0955279 0.388091 0
309 1 0.132384 0.35744 0
308 1 0.114987 0.373804 0
338 1 0.119679 0.39847 0
339 1 0.138617 0.38085 0
310 1 0.157538 0.36473 0
341 1 0.162613 0.388595 0
343 1 0.181645 0.372349 0
342 1 0.185167 0.396358 0
314 1 0.201649 0.355685 0
345 1 0.227431 0.362895 0
344 1 0.206895 0.380843 0
375 1 0.230171 0.387513 0
346 1 0.249307 0.371242 0
377 1 0.254301 0.396794 0
318 1 0.267124 0.356399 0
349 1 0.290114 0.363131 0
347 1 0.271939 0.380441 0
350 1 0.296445 0.387379 0
322 1 0.33376 0.355682 0
320 1 0.313183 0.369882 0
351 1 0.334365 0.380154 0
352 1 0.350577 0.396397 0
353 1 0.355757 0.370335 0
355 1 0.379217 0.356742 0
354 1 0.375426 0.383228 0
356 1 0.398567 0.371665 0
359 1 0.448599 0.356731 0
357 1 0.423916 0.363357 0
358 1 0.440509 0.380542 0
387 1 0.417265 0.388531 0
330 1 0.476027 0.356656 0
1261 1 0.486615 0.391657 0
360 1 0.463952 0.377262 0
361 1 0.011514 0.404452 0
363 1 0.0343625 0.412029 0
362 1 0.0185898 0.429241 0
364 1 0.0422317 0.438003 0
336 1 0.0770239 0.403591 0
365 1 0.0583299 0.419483 0
395 1 0.0642632 0.444612 0
367 1 0.101275 0.413775 0
366 1 0.107233 0.43851 0
340 1 0.144385 0.404452 0
369 1 0.123915 0.422238 0
368 1 0.130015 0.446467 0
370 1 0.147684 0.430319 0
371 1 0.168331 0.413373 0
401 1 0.172255 0.436189 0
372 1 0.192917 0.419389 0
403 1 0.197098 0.442676 0
373 1 0.210893 0.403398 0
374 1 0.216605 0.426623 0
376 1 0.236117 0.411143 0
405 1 0.240705 0.434742 0
348 1 0.277255 0.404503 0
407 1 0.264744 0.444583 0
378 1 0.259373 0.419477 0
409 1 0.282578 0.429551 0
379 1 0.300595 0.413205 0
381 1 0.320053 0.40074 0
380 1 0.310031 0.437227 0
382 1 0.336877 0.418892 0
411 1 0.334094 0.444342 0
385 1 0.394942 0.39685 0
383 1 0.371144 0.407538 0
413 1 0.364249 0.431812 0
384 1 0.389906 0.421997 0
414 1 0.384786 0.447495 0
388 1 0.435908 0.406765 0
415 1 0.407669 0.440184 0
386 1 0.41329 0.414572 0
417 1 0.431938 0.429945 0
418 1 0.45174 0.449836 0
389 1 0.460031 0.400643 0
419 1 0.455954 0.425391 0
1291 1 0.497689 0.434481 0
390 1 0.479044 0.416995 0
420 1 0.4748 0.441492 0
393 1 0.0235396 0.453382 0
422 1 0.00870591 0.49475 0
423 1 0.0292571 0.480208 0
392 1 0.0038967 0.47052 0
394 1 0.0474356 0.462453 0
425 1 0.0528662 0.490547 0
396 1 0.0709828 0.47355 0
426 1 0.075536 0.497182 0
397 1 0.087701 0.454421 0
427 1 0.0942001 0.47939 0
398 1 0.111107 0.462853 0
428 1 0.116909 0.487361 0
429 1 0.13544 0.471366 0
399 1 0.152932 0.454292 0
400 1 0.177902 0.458465 0
430 1 0.158185 0.481723 0
431 1 0.182803 0.481742 0
434 1 0.229129 0.498825 0
404 1 0.220526 0.450129 0
402 1 0.200533 0.466088 0
432 1 0.205262 0.49066 0
433 1 0.224701 0.474166 0
435 1 0.244802 0.458743 0
436 1 0.248383 0.483209 0
408 1 0.28821 0.452739 0
406 1 0.268753 0.468655 0
437 1 0.270933 0.492967 0
439 1 0.29199 0.476343 0
410 1 0.313096 0.460724 0
440 1 0.31382 0.487381 0
441 1 0.334299 0.472901 0
471 1 0.337262 0.497564 0
412 1 0.357768 0.455388 0
442 1 0.356651 0.481383 0
473 1 0.378015 0.494532 0
443 1 0.378873 0.470419 0
444 1 0.399796 0.48649 0
445 1 0.403449 0.463915 0
416 1 0.428898 0.456238 0
447 1 0.444956 0.474419 0
477 1 0.439933 0.499534 0
446 1 0.422837 0.481574 0
448 1 0.46279 0.491998 0
1321 1 0.492825 0.458836 0
450 1 0.486429 0.482891 0
449 1 0.469139 0.46684 0
453 1 0.0145343 0.520056 0
452 1 0.0183905 0.544286 0
454 1 0.038395 0.529463 0
424 1 0.0336715 0.504568 0
485 1 0.0615003 0.538518 0
455 1 0.0576528 0.514392 0
456 1 0.0807745 0.522076 0
486 1 0.0858094 0.549124 0
457 1 0.0977691 0.50319 0
458 1 0.122688 0.514159 0
487 1 0.103525 0.530079 0
459 1 0.143667 0.50227 0
489 1 0.144582 0.530597 0
488 1 0.1259 0.542976 0
460 1 0.164448 0.516753 0
461 1 0.185514 0.505105 0
462 1 0.189186 0.527648 0
491 1 0.168213 0.541014 0
493 1 0.212282 0.536997 0
463 1 0.209379 0.51344 0
464 1 0.231933 0.522267 0
495 1 0.236778 0.54674 0
466 1 0.25463 0.532542 0
465 1 0.252564 0.508338 0
467 1 0.275221 0.518334 0
497 1 0.277207 0.542918 0
438 1 0.293628 0.501868 0
468 1 0.298238 0.525878 0
469 1 0.317031 0.511294 0
499 1 0.320641 0.535965 0
470 1 0.340054 0.522173 0
501 1 0.342248 0.548109 0
472 1 0.360338 0.509371 0
503 1 0.361059 0.533619 0
474 1 0.382586 0.518412 0
505 1 0.386109 0.542012 0
476 1 0.405725 0.52745 0
475 1 0.414511 0.50611 0
507 1 0.431449 0.526018 0
509 1 0.452037 0.542779 0
478 1 0.455743 0.519169 0
479 1 0.479373 0.508682 0
480 1 0.475252 0.533932 0
1381 1 0.498295 0.526097 0
510 1 0.492577 0.550537 0
513 1 0.0218224 0.569347 0
511 1 0.00252935 0.585472 0
483 1 0.0410155 0.553994 0
514 1 0.0453302 0.579476 0
512 1 0.0253449 0.594087 0
484 1 0.0658225 0.563797 0
515 1 0.0885033 0.573655 0
545 1 0.0685045 0.588124 0
516 1 0.0905508 0.597515 0
517 1 0.108576 0.5597 0
518 1 0.11148 0.584843 0
519 1 0.130857 0.569972 0
549 1 0.133822 0.5934 0
490 1 0.149227 0.555377 0
520 1 0.154313 0.579808 0
521 1 0.172572 0.564995 0
492 1 0.192498 0.551893 0
523 1 0.195697 0.575532 0
522 1 0.175288 0.590508 0
553 1 0.197738 0.600506 0
494 1 0.215784 0.561336 0
524 1 0.217819 0.585577 0
525 1 0.238826 0.570426 0
555 1 0.24032 0.596018 0
496 1 0.259587 0.55655 0
526 1 0.2613 0.581921 0
527 1 0.280702 0.56798 0
528 1 0.283975 0.592352 0
498 1 0.300866 0.55246 0
529 1 0.303278 0.576838 0
500 1 0.322771 0.562013 0
530 1 0.327368 0.587896 0
531 1 0.347032 0.572391 0
532 1 0.349567 0.596363 0
502 1 0.366672 0.55759 0
504 1 0.390249 0.566963 0
533 1 0.369843 0.581299 0
534 1 0.391819 0.591087 0
506 1 0.409971 0.549992 0
535 1 0.413672 0.574533 0
508 1 0.433856 0.559114 0
537 1 0.439072 0.583942 0
536 1 0.416436 0.600029 0
539 1 0.469524 0.558498 0
540 1 0.485197 0.576238 0
538 1 0.462483 0.586565 0
541 1 0.0064173 0.608873 0
542 1 0.0287105 0.618554 0
571 1 0.00895642 0.634957 0
543 1 0.0484966 0.603156 0
573 1 0.0320568 0.643055 0
544 1 0.0510294 0.629845 0
546 1 0.0706273 0.613772 0
547 1 0.0928455 0.62315 0
575 1 0.0737013 0.638465 0
576 1 0.0961937 0.648552 0
548 1 0.112776 0.608893 0
550 1 0.135471 0.61837 0
577 1 0.115697 0.632725 0
579 1 0.137908 0.643563 0
551 1 0.155932 0.605645 0
581 1 0.157234 0.629421 0
552 1 0.178217 0.614458 0
582 1 0.182577 0.637312 0
554 1 0.221824 0.609786 0
583 1 0.202369 0.623969 0
556 1 0.243853 0.620381 0
585 1 0.224893 0.633755 0
586 1 0.246657 0.645856 0
584 1 0.203286 0.649132 0
557 1 0.263913 0.606065 0
587 1 0.266816 0.631391 0
558 1 0.286943 0.616297 0
589 1 0.290802 0.640205 0
559 1 0.305927 0.60191 0
560 1 0.309881 0.626317 0
561 1 0.329082 0.612383 0
591 1 0.331782 0.63785 0
562 1 0.352834 0.621169 0
563 1 0.372748 0.606942 0
564 1 0.374736 0.630642 0
565 1 0.395982 0.615077 0
593 1 0.354803 0.645878 0
595 1 0.397093 0.640126 0
566 1 0.419103 0.623426 0
567 1 0.440283 0.609679 0
597 1 0.441914 0.634395 0
596 1 0.42053 0.648411 0
569 1 0.480379 0.603413 0
568 1 0.462723 0.619861 0
570 1 0.483234 0.632212 0
599 1 0.4661 0.648151 0
572 1 0.0114458 0.659586 0
603 1 0.0341971 0.668943 0
602 1 0.0143627 0.684064 0
633 1 0.0365092 0.693753 0
574 1 0.0540983 0.653144 0
605 1 0.0764247 0.664282 0
604 1 0.057071 0.678316 0
606 1 0.0788051 0.689575 0
607 1 0.0988256 0.674355 0
637 1 0.10114 0.700443 0
578 1 0.117988 0.658111 0
609 1 0.142107 0.668956 0
608 1 0.122509 0.684325 0
639 1 0.14505 0.693683 0
580 1 0.161531 0.654261 0
611 1 0.184572 0.663416 0
610 1 0.16411 0.677887 0
612 1 0.18652 0.688234 0
613 1 0.206864 0.674476 0
615 1 0.226191 0.658822 0
614 1 0.230151 0.683917 0
643 1 0.209382 0.698241 0
617 1 0.250158 0.670371 0
588 1 0.270862 0.656144 0
619 1 0.293371 0.66694 0
616 1 0.254767 0.695084 0
618 1 0.271998 0.679836 0
590 1 0.312606 0.651716 0
621 1 0.316163 0.676585 0
592 1 0.335391 0.661804 0
622 1 0.338179 0.686592 0
623 1 0.358524 0.671652 0
594 1 0.377562 0.655191 0
653 1 0.361994 0.695077 0
624 1 0.382628 0.680631 0
625 1 0.401183 0.663798 0
598 1 0.443989 0.658239 0
627 1 0.424712 0.673555 0
626 1 0.405385 0.688103 0
628 1 0.447786 0.681359 0
657 1 0.42872 0.697194 0
600 1 0.487973 0.659889 0
629 1 0.471622 0.682009 0
630 1 0.498557 0.686208 0
632 1 0.0168669 0.70751 0
634 1 0.0403285 0.718018 0
663 1 0.0195691 0.730552 0
664 1 0.042093 0.741629 0
635 1 0.0609711 0.704991 0
636 1 0.0824924 0.714647 0
665 1 0.0646156 0.730119 0
666 1 0.0863517 0.73979 0
638 1 0.125796 0.708695 0
667 1 0.105465 0.725069 0
640 1 0.148409 0.718375 0
669 1 0.127983 0.73371 0
668 1 0.109533 0.749355 0
670 1 0.15031 0.742669 0
641 1 0.168337 0.702869 0
642 1 0.191336 0.713513 0
671 1 0.170492 0.727727 0
673 1 0.193114 0.737917 0
645 1 0.23305 0.70997 0
644 1 0.213489 0.724145 0
675 1 0.235532 0.734093 0
674 1 0.214447 0.748928 0
646 1 0.25534 0.719945 0
647 1 0.276868 0.703361 0
677 1 0.25729 0.742801 0
648 1 0.278377 0.728767 0
649 1 0.298784 0.715846 0
620 1 0.320162 0.702405 0
679 1 0.300277 0.740525 0
651 1 0.342025 0.710416 0
650 1 0.321302 0.726415 0
652 1 0.34479 0.735658 0
681 1 0.323178 0.749628 0
654 1 0.366009 0.719477 0
655 1 0.385728 0.705007 0
685 1 0.391283 0.733832 0
683 1 0.368523 0.745268 0
656 1 0.409447 0.712977 0
687 1 0.433742 0.721117 0
686 1 0.416696 0.738502 0
717 1 0.447191 0.742232 0
658 1 0.453733 0.703887 0
659 1 0.480419 0.704369 0
689 1 0.464956 0.724687 0
660 1 0.488625 0.729533 0
688 1 0.471219 0.748311 0
662 1 0.0239311 0.755493 0
694 1 0.047046 0.767327 0
693 1 0.0268447 0.780214 0
725 1 0.0475896 0.794609 0
692 1 0.00460812 0.795892 0
691 1 0.00367624 0.77082 0
695 1 0.066741 0.754574 0
697 1 0.0910125 0.765932 0
696 1 0.069348 0.778982 0
727 1 0.092881 0.790377 0
699 1 0.13229 0.759642 0
698 1 0.112855 0.775236 0
700 1 0.134693 0.785149 0
728 1 0.1153 0.800592 0
701 1 0.155548 0.768741 0
672 1 0.173616 0.753862 0
703 1 0.195788 0.764563 0
702 1 0.176858 0.780661 0
731 1 0.157324 0.794152 0
704 1 0.198792 0.788974 0
676 1 0.237541 0.758509 0
705 1 0.217861 0.772838 0
706 1 0.241339 0.783709 0
735 1 0.221506 0.798784 0
707 1 0.259918 0.767923 0
678 1 0.27972 0.753562 0
737 1 0.263556 0.793836 0
709 1 0.282302 0.777388 0
680 1 0.301968 0.764251 0
682 1 0.344528 0.760487 0
710 1 0.306607 0.788488 0
711 1 0.325596 0.77383 0
741 1 0.328772 0.798722 0
712 1 0.347371 0.784149 0
713 1 0.367686 0.770015 0
714 1 0.389443 0.776351 0
743 1 0.371778 0.793953 0
684 1 0.402202 0.756597 0
715 1 0.429631 0.760069 0
716 1 0.412891 0.780309 0
747 1 0.436943 0.784185 0
718 1 0.45407 0.766654 0
690 1 0.495763 0.753951 0
719 1 0.478454 0.771319 0
720 1 0.485865 0.796111 0
749 1 0.461564 0.790518 0
1680 1 0.00310228 0.845062 0
723 1 0.0261082 0.80691 0
751 1 0.00411264 0.820473 0
722 1 0.0258885 0.836159 0
724 1 0.0513792 0.818784 0
726 1 0.0717039 0.803775 0
757 1 0.0953497 0.814058 0
755 1 0.0757721 0.828135 0
756 1 0.0962661 0.840467 0
754 1 0.0533765 0.841731 0
729 1 0.137533 0.809865 0
759 1 0.117077 0.825631 0
760 1 0.139649 0.836057 0
732 1 0.179332 0.804903 0
730 1 0.16004 0.819762 0
761 1 0.164224 0.845395 0
763 1 0.184467 0.828709 0
733 1 0.202545 0.813403 0
736 1 0.244384 0.808724 0
764 1 0.207162 0.840531 0
734 1 0.224371 0.824646 0
767 1 0.24732 0.83378 0
708 1 0.285965 0.80182 0
738 1 0.265887 0.819529 0
768 1 0.270834 0.843677 0
769 1 0.290741 0.825782 0
739 1 0.309407 0.812271 0
740 1 0.312956 0.8368 0
771 1 0.334606 0.824892 0
745 1 0.395679 0.799527 0
742 1 0.350586 0.808012 0
773 1 0.357999 0.836644 0
744 1 0.375584 0.817212 0
774 1 0.382271 0.840469 0
775 1 0.399701 0.82299 0
746 1 0.420811 0.802255 0
748 1 0.444453 0.808387 0
777 1 0.424592 0.826646 0
779 1 0.448098 0.832224 0
750 1 0.467442 0.813985 0
1621 1 0.490161 0.820427 0
780 1 0.471488 0.838233 0
1651 1 0.497075 0.844516 0
753 1 0.0412088 0.861482 0
752 1 0.0175436 0.865102 0
783 1 0.0335612 0.883943 0
782 1 0.00778804 0.889135 0
785 1 0.0746965 0.857079 0
784 1 0.0579188 0.877274 0
786 1 0.082074 0.884249 0
787 1 0.0981052 0.864506 0
758 1 0.117958 0.850434 0
789 1 0.144969 0.860519 0
788 1 0.124808 0.873488 0
817 1 0.105851 0.887518 0
790 1 0.146676 0.886321 0
762 1 0.186705 0.854809 0
791 1 0.168122 0.870149 0
792 1 0.168791 0.895729 0
793 1 0.189344 0.880875 0
765 1 0.229073 0.850048 0
795 1 0.208177 0.864492 0
794 1 0.212658 0.888925 0
796 1 0.233169 0.87343 0
825 1 0.235091 0.898009 0
766 1 0.251617 0.857852 0
797 1 0.274633 0.867609 0
827 1 0.257291 0.889367 0
799 1 0.294 0.852492 0
798 1 0.285281 0.888501 0
772 1 0.336617 0.849983 0
770 1 0.316066 0.861931 0
800 1 0.310355 0.885247 0
801 1 0.336668 0.876919 0
802 1 0.354204 0.894956 0
803 1 0.361862 0.871353 0
804 1 0.377862 0.88915 0
805 1 0.388086 0.865699 0
776 1 0.406374 0.848681 0
778 1 0.429599 0.849432 0
807 1 0.409596 0.875569 0
808 1 0.43585 0.876376 0
839 1 0.444577 0.89844 0
809 1 0.453611 0.858115 0
1681 1 0.478811 0.862527 0
1711 1 0.485744 0.885537 0
810 1 0.46112 0.880875 0
815 1 0.0495794 0.900779 0
813 1 0.0259272 0.907118 0
812 1 0.00105779 0.913598 0
843 1 0.0178239 0.93091 0
814 1 0.0424775 0.924112 0
844 1 0.0347271 0.947503 0
816 1 0.0901237 0.906545 0
845 1 0.0672981 0.914988 0
846 1 0.0601434 0.940955 0
847 1 0.0847039 0.931911 0
819 1 0.125895 0.903357 0
818 1 0.109192 0.922569 0
820 1 0.127621 0.942002 0
851 1 0.151293 0.935615 0
823 1 0.19087 0.905659 0
821 1 0.14953 0.910983 0
822 1 0.172196 0.924314 0
854 1 0.193648 0.949991 0
824 1 0.202844 0.926807 0
885 1 0.220038 0.94593 0
855 1 0.227853 0.922096 0
856 1 0.244753 0.939542 0
826 1 0.251924 0.915269 0
857 1 0.269178 0.935561 0
828 1 0.276096 0.911699 0
859 1 0.295335 0.930726 0
831 1 0.328445 0.900983 0
829 1 0.301765 0.908964 0
860 1 0.312685 0.948081 0
830 1 0.320151 0.925164 0
832 1 0.345544 0.9196 0
861 1 0.336829 0.943638 0
806 1 0.393636 0.908707 0
863 1 0.361991 0.93822 0
833 1 0.369835 0.91366 0
834 1 0.387105 0.932562 0
837 1 0.419316 0.899641 0
835 1 0.410199 0.925455 0
836 1 0.426258 0.944185 0
838 1 0.433779 0.9199 0
840 1 0.468064 0.920199 0
869 1 0.452375 0.93903 0
1712 1 0.490164 0.911086 0
1741 1 0.491802 0.935211 0
842 1 0.0115875 0.953916 0
872 1 0.0215991 0.994185 0
873 1 0.0283785 0.970869 0
871 1 0.00292681 0.978868 0
874 1 0.0471025 0.986508 0
7 1 0.0887506 0.999613 0
875 1 0.05413 0.963482 0
876 1 0.0723707 0.97963 0
848 1 0.0792002 0.95597 0
877 1 0.0979481 0.976499 0
849 1 0.103865 0.948778 0
878 1 0.113057 0.994003 0
879 1 0.119647 0.966761 0
881 1 0.135322 0.984576 0
850 1 0.144835 0.960756 0
853 1 0.168999 0.95121 0
852 1 0.162468 0.978107 0
883 1 0.187032 0.973211 0
882 1 0.178666 0.996484 0
13 1 0.204181 0.992349 0
15 1 0.228249 0.986541 0
884 1 0.210284 0.968115 0
886 1 0.238391 0.962301 0
858 1 0.286803 0.953228 0
887 1 0.262427 0.958441 0
17 1 0.253711 0.981112 0
888 1 0.278317 0.976475 0
19 1 0.29581 0.995481 0
889 1 0.302998 0.971992 0
890 1 0.319304 0.989513 0
892 1 0.342648 0.98551 0
891 1 0.328503 0.966025 0
864 1 0.37818 0.956408 0
862 1 0.352801 0.961382 0
894 1 0.385147 0.997344 0
893 1 0.369291 0.979371 0
895 1 0.394617 0.974259 0
865 1 0.402628 0.950778 0
866 1 0.419894 0.96962 0
896 1 0.410389 0.992193 0
867 1 0.442256 0.961653 0
897 1 0.440882 0.989592 0
870 1 0.473896 0.952869 0
1771 1 0.485277 0.979697 0
899 1 0.465168 1.00064 0
868 1 0.461628 0.976588 0
902 1 0.536659 0.0166663 0
901 1 0.513531 0.00959248 0
931 1 0.520305 0.0353669 0
933 1 0.544154 0.0406982 0
904 1 0.562304 0.0231819 0
906 1 0.577633 0.0059192 0
935 1 0.586226 0.0293034 0
934 1 0.5674 0.0465946 0
908 1 0.602563 0.0121987 0
937 1 0.608962 0.0374334 0
939 1 0.62723 0.0210805 0
938 1 0.633123 0.0440909 0
910 1 0.644716 0.00333146 0
941 1 0.650655 0.0266915 0
912 1 0.669299 0.0105755 0
942 1 0.675245 0.0353954 0
943 1 0.692788 0.0161751 0
973 1 0.69972 0.0413856 0
944 1 0.717233 0.0229263 0
945 1 0.734452 0.00634458 0
946 1 0.74197 0.0310268 0
975 1 0.723956 0.0476742 0
947 1 0.759474 0.0130435 0
948 1 0.766645 0.0374054 0
918 1 0.784707 0.0205261 0
920 1 0.79924 0.00148465 0
921 1 0.821915 0.00301545 0
949 1 0.808363 0.0259615 0
951 1 0.834662 0.0234518 0
950 1 0.823687 0.0458292 0
952 1 0.851851 0.040954 0
953 1 0.857028 0.0160718 0
924 1 0.88122 0.00811299 0
954 1 0.875757 0.0326634 0
955 1 0.899623 0.0253654 0
925 1 0.904776 0.000402262 0
926 1 0.923346 0.0203583 0
957 1 0.939841 0.0380669 0
928 1 0.947724 0.0143811 0
956 1 0.914373 0.0448947 0
959 1 0.966187 0.0312994 0
930 1 0.989268 0.0259779 0
929 1 0.971054 0.00675325 0
1 1 0.994719 0.00228818 0
960 1 0.982619 0.0494042 0
932 1 0.52518 0.0589362 0
962 1 0.532916 0.0830803 0
961 1 0.50882 0.0776544 0
60 1 0.502476 0.0527284 0
963 1 0.549177 0.0647219 0
965 1 0.573867 0.0711117 0
964 1 0.557179 0.089368 0
936 1 0.591207 0.0550214 0
995 1 0.582069 0.0955043 0
966 1 0.597816 0.07746 0
967 1 0.615741 0.0611476 0
968 1 0.621085 0.0850257 0
969 1 0.640925 0.0678208 0
999 1 0.645337 0.0923501 0
940 1 0.656421 0.0509005 0
970 1 0.663202 0.075908 0
971 1 0.680937 0.0579088 0
972 1 0.688603 0.081076 0
1001 1 0.670296 0.0991419 0
1003 1 0.706357 0.0643194 0
1004 1 0.713426 0.0874673 0
974 1 0.731705 0.0706764 0
1005 1 0.738007 0.0954367 0
976 1 0.749362 0.0554301 0
979 1 0.79729 0.0487804 0
1007 1 0.756917 0.0814968 0
977 1 0.773911 0.063321 0
978 1 0.795912 0.07722 0
980 1 0.819119 0.0692261 0
981 1 0.843595 0.0637105 0
1009 1 0.81291 0.0953923 0
1011 1 0.835791 0.0877104 0
985 1 0.891261 0.0526692 0
982 1 0.860844 0.0845905 0
983 1 0.867676 0.061557 0
984 1 0.884675 0.0802655 0
1015 1 0.905757 0.0947311 0
986 1 0.908731 0.0708225 0
987 1 0.934856 0.0624533 0
1017 1 0.929107 0.0864545 0
988 1 0.952565 0.0802464 0
958 1 0.957004 0.0547653 0
989 1 0.974991 0.0722275 0
990 1 0.99322 0.0890726 0
1019 1 0.969143 0.0981941 0
991 1 0.516687 0.0997976 0
992 1 0.521587 0.124529 0
993 1 0.540345 0.108122 0
1023 1 0.546329 0.131765 0
1021 1 0.50366 0.143445 0
994 1 0.563815 0.11404 0
996 1 0.586983 0.119398 0
1025 1 0.569835 0.137751 0
1026 1 0.593996 0.142845 0
997 1 0.604999 0.1027 0
998 1 0.62935 0.110635 0
1027 1 0.611246 0.126495 0
1029 1 0.635208 0.134093 0
1000 1 0.652781 0.115978 0
1031 1 0.678329 0.122227 0
1002 1 0.69508 0.105232 0
1030 1 0.660034 0.138763 0
1032 1 0.68481 0.145673 0
1033 1 0.701504 0.129175 0
1035 1 0.719726 0.110578 0
1034 1 0.725979 0.133983 0
1008 1 0.78792 0.100849 0
1006 1 0.764388 0.105865 0
1037 1 0.779814 0.124451 0
1036 1 0.753744 0.127879 0
1038 1 0.795702 0.142004 0
1067 1 0.769697 0.147072 0
1039 1 0.80359 0.119285 0
1010 1 0.829164 0.11443 0
1041 1 0.847147 0.133223 0
1040 1 0.81959 0.138216 0
1013 1 0.877377 0.103343 0
1012 1 0.853365 0.109519 0
1043 1 0.871602 0.126591 0
1014 1 0.89827 0.119336 0
1044 1 0.889594 0.145149 0
1042 1 0.864605 0.151203 0
1045 1 0.916363 0.139941 0
1016 1 0.923029 0.113739 0
1047 1 0.939768 0.132898 0
1018 1 0.945699 0.104917 0
1049 1 0.962851 0.122029 0
1020 1 0.986916 0.11396 0
1050 1 0.979404 0.137515 0
1022 1 0.527751 0.150169 0
1053 1 0.535003 0.173597 0
1051 1 0.511738 0.167896 0
1052 1 0.518688 0.192033 0
1083 1 0.542381 0.198127 0
1024 1 0.552277 0.154768 0
1055 1 0.577055 0.161302 0
1054 1 0.559181 0.180526 0
1056 1 0.584182 0.185077 0
1028 1 0.617689 0.149409 0
1057 1 0.600476 0.166999 0
1058 1 0.624383 0.173664 0
1059 1 0.642506 0.157127 0
1087 1 0.608689 0.19149 0
1089 1 0.631624 0.198504 0
1060 1 0.649753 0.18161 0
1061 1 0.665861 0.163786 0
1062 1 0.691665 0.168832 0
1091 1 0.673639 0.187981 0
1093 1 0.698827 0.191507 0
1063 1 0.709478 0.150385 0
1064 1 0.714481 0.174041 0
1065 1 0.743624 0.151323 0
1095 1 0.739157 0.179007 0
1094 1 0.723485 0.197238 0
1066 1 0.76286 0.170767 0
1068 1 0.787062 0.164984 0
1097 1 0.778687 0.189938 0
1069 1 0.811818 0.16096 0
1071 1 0.837045 0.156641 0
1070 1 0.829134 0.17981 0
1099 1 0.803385 0.184038 0
1101 1 0.846574 0.197209 0
1072 1 0.854792 0.175141 0
1073 1 0.881784 0.170254 0
1103 1 0.870881 0.193361 0
1074 1 0.894928 0.188479 0
1075 1 0.905841 0.163041 0
1077 1 0.93087 0.159725 0
1076 1 0.918819 0.183764 0
1078 1 0.944929 0.180432 0
1046 1 0.957404 0.151921 0
1048 1 0.973283 0.175893 0
151 1 0.994604 0.158424 0
1079 1 0.984827 0.198574 0
1081 1 0.500709 0.208395 0
1082 1 0.524065 0.215764 0
1111 1 0.507685 0.234792 0
1113 1 0.532119 0.240649 0
1084 1 0.549922 0.222753 0
1085 1 0.566117 0.203885 0
1086 1 0.591343 0.208367 0
1114 1 0.557534 0.246239 0
1115 1 0.574628 0.22743 0
1117 1 0.598133 0.234458 0
1088 1 0.613685 0.215545 0
1119 1 0.639579 0.221878 0
1118 1 0.621896 0.239414 0
1120 1 0.645934 0.246787 0
1090 1 0.657157 0.205073 0
1092 1 0.680932 0.210879 0
1121 1 0.663754 0.228685 0
1122 1 0.688128 0.23426 0
1123 1 0.705065 0.216333 0
1124 1 0.712665 0.240056 0
1125 1 0.729659 0.221042 0
1155 1 0.737298 0.244345 0
1096 1 0.750648 0.201714 0
1127 1 0.773505 0.213181 0
1126 1 0.753944 0.226735 0
1128 1 0.788848 0.233875 0
1098 1 0.797855 0.209372 0
1157 1 0.761457 0.249124 0
1100 1 0.821462 0.204383 0
1131 1 0.838439 0.222746 0
1129 1 0.813696 0.228205 0
1130 1 0.830182 0.246286 0
1102 1 0.862702 0.217248 0
1104 1 0.886511 0.212478 0
1132 1 0.854533 0.241312 0
1133 1 0.878375 0.239728 0
1105 1 0.909819 0.209143 0
1107 1 0.936567 0.205273 0
1135 1 0.902715 0.233927 0
1106 1 0.925995 0.23023 0
1137 1 0.942266 0.249348 0
1108 1 0.951065 0.224506 0
1109 1 0.960866 0.199759 0
1110 1 0.97604 0.220321 0
1139 1 0.96684 0.245261 0
1140 1 0.99126 0.241738 0
1112 1 0.515673 0.259871 0
1143 1 0.539685 0.265348 0
1142 1 0.523398 0.282562 0
1144 1 0.547202 0.289102 0
1141 1 0.498765 0.277294 0
1116 1 0.579787 0.251908 0
1145 1 0.563459 0.270787 0
1146 1 0.587817 0.278256 0
1175 1 0.570333 0.295189 0
1147 1 0.604553 0.259094 0
1149 1 0.629141 0.26444 0
1148 1 0.612044 0.283619 0