ITEM: TIMESTEP
38000
ITEM: NUMBER OF ATOMS
1800
ITEM: BOX BOUNDS pp pp pp
2.8777292945482174e+00 1.5552227070545212e+02
2.8777292945482174e+00 1.5552227070545212e+02
0.0000000000000000e+00 5.2800000000000002e+00
ITEM: ATOMS id type xs ys zs
2 1 0.0157364 0.0205109 0
3 1 0.0409599 0.0127332 0
33 1 0.03255 0.0371974 0
31 1 0.00795642 0.0431878 0
4 1 0.0575722 0.0313534 0
6 1 0.0839778 0.0243501 0
5 1 0.0654084 0.00749276 0
37 1 0.100968 0.0409598 0
35 1 0.0759439 0.0474891 0
1141 1 0.500112 0.276473 0
8 1 0.107359 0.0175331 0
9 1 0.123976 0.0360453 0
880 1 0.131885 0.0121474 0
10 1 0.148957 0.0305732 0
11 1 0.155362 0.00406451 0
12 1 0.17196 0.0228823 0
43 1 0.188248 0.0399997 0
41 1 0.165922 0.0487821 0
14 1 0.195973 0.0175463 0
61 1 0.00122356 0.0682636 0
44 1 0.212843 0.0369253 0
45 1 0.222146 0.0143124 0
46 1 0.239082 0.0319739 0
16 1 0.24549 0.00760524 0
47 1 0.26284 0.0263906 0
49 1 0.286234 0.021001 0
48 1 0.28021 0.0443156 0
77 1 0.255562 0.0512579 0
18 1 0.268975 0.00127423 0
50 1 0.303618 0.0394237 0
20 1 0.310915 0.0135167 0
51 1 0.327315 0.0313802 0
21 1 0.335954 0.00735062 0
52 1 0.34382 0.0498007 0
23 1 0.359729 0.00164501 0
22 1 0.353313 0.0270917 0
24 1 0.378601 0.0217874 0
55 1 0.393036 0.0407935 0
53 1 0.369496 0.0459601 0
25 1 0.403177 0.018065 0
26 1 0.430969 0.0318512 0
27 1 0.426286 0.00774978 0
898 1 0.448654 0.0138418 0
28 1 0.45416 0.039142 0
29 1 0.472833 0.0234566 0
900 1 0.489725 0.00537537 0
59 1 0.477985 0.0472274 0
30 1 0.496514 0.0295439 0
32 1 0.0258272 0.061375 0
62 1 0.018645 0.0846867 0
63 1 0.0447461 0.0778577 0
34 1 0.0507479 0.0546251 0
65 1 0.0680981 0.0712272 0
66 1 0.0845644 0.089377 0
36 1 0.0918859 0.0660911 0
64 1 0.0602496 0.0966297 0
39 1 0.141699 0.0551843 0
38 1 0.115921 0.0603721 0
67 1 0.108657 0.0845424 0
69 1 0.132954 0.0772231 0
70 1 0.149597 0.0958754 0
40 1 0.158006 0.0726351 0
71 1 0.173925 0.0896282 0
42 1 0.182807 0.0661119 0
72 1 0.198857 0.0851402 0
73 1 0.206909 0.0617253 0
74 1 0.223886 0.0788197 0
75 1 0.231039 0.056793 0
106 1 0.241117 0.0964986 0
76 1 0.250157 0.0744576 0
78 1 0.273501 0.0674549 0
109 1 0.290671 0.086697 0
107 1 0.267173 0.0922028 0
79 1 0.297839 0.062536 0
80 1 0.314986 0.0819713 0
81 1 0.320986 0.0569619 0
82 1 0.338515 0.0749922 0
111 1 0.333584 0.0985398 0
54 1 0.392097 0.0664646 0
83 1 0.361289 0.0687479 0
113 1 0.376597 0.0870458 0
56 1 0.414482 0.0507707 0
57 1 0.43712 0.0577035 0
85 1 0.4162 0.0748617 0
87 1 0.441732 0.0809269 0
84 1 0.40127 0.0946835 0
86 1 0.425702 0.100331 0
88 1 0.467814 0.0874012 0
58 1 0.460024 0.0642089 0
89 1 0.48571 0.0708106 0
90 1 0.491953 0.0957605 0
93 1 0.0364284 0.102846 0
92 1 0.0272271 0.126503 0
91 1 0.010583 0.109318 0
123 1 0.0445629 0.144503 0
121 1 0.00251937 0.132597 0
94 1 0.0519636 0.121532 0
95 1 0.0762672 0.113896 0
125 1 0.0691922 0.138608 0
96 1 0.0919341 0.13337 0
97 1 0.100247 0.108599 0
68 1 0.125549 0.101512 0
98 1 0.116515 0.127128 0
99 1 0.141712 0.119858 0
129 1 0.13616 0.143795 0
127 1 0.111335 0.150111 0
100 1 0.166117 0.113418 0
130 1 0.159512 0.137162 0
131 1 0.182728 0.130994 0
101 1 0.1923 0.108394 0
133 1 0.199627 0.148226 0
103 1 0.216641 0.101751 0
102 1 0.20902 0.126072 0
105 1 0.233895 0.119549 0
104 1 0.22638 0.143117 0
136 1 0.25034 0.138744 0
135 1 0.258142 0.11467 0
137 1 0.274289 0.132037 0
108 1 0.284163 0.111047 0
139 1 0.299183 0.13189 0
110 1 0.308363 0.108075 0
141 1 0.341071 0.121978 0
140 1 0.325857 0.141763 0
142 1 0.35011 0.14743 0
112 1 0.357983 0.104269 0
114 1 0.383598 0.111269 0
143 1 0.36641 0.128037 0
144 1 0.390399 0.135115 0
115 1 0.408313 0.118049 0
116 1 0.431981 0.124079 0
145 1 0.415115 0.141389 0
147 1 0.438909 0.146628 0
117 1 0.449658 0.105433 0
118 1 0.457016 0.130201 0
119 1 0.474092 0.111389 0
149 1 0.479857 0.137502 0
120 1 0.498109 0.120165 0
122 1 0.0202002 0.150228 0
153 1 0.0366325 0.168686 0
152 1 0.011601 0.176474 0
183 1 0.028198 0.19528 0
1080 1 0.00549044 0.202135 0
124 1 0.0614512 0.162769 0
126 1 0.0861698 0.156498 0
155 1 0.0775167 0.18041 0
154 1 0.0530335 0.187571 0
156 1 0.0950935 0.197941 0
128 1 0.128588 0.167355 0
157 1 0.102805 0.17358 0
160 1 0.146884 0.183952 0
158 1 0.120715 0.190226 0
159 1 0.15321 0.161401 0
161 1 0.170961 0.179148 0
132 1 0.176768 0.155691 0
162 1 0.187675 0.19626 0
163 1 0.194183 0.173589 0
134 1 0.217161 0.165974 0
164 1 0.229801 0.186215 0
165 1 0.242972 0.163103 0
166 1 0.253443 0.189995 0
167 1 0.267873 0.169884 0
138 1 0.285501 0.152703 0
168 1 0.29296 0.178051 0
197 1 0.276663 0.196441 0
169 1 0.30914 0.15915 0
171 1 0.333529 0.165418 0
170 1 0.316599 0.183186 0
201 1 0.339854 0.190497 0
172 1 0.357549 0.172666 0
173 1 0.373776 0.153481 0
174 1 0.382064 0.177764 0
203 1 0.365265 0.196427 0
175 1 0.397586 0.158256 0
146 1 0.422729 0.164672 0
205 1 0.406515 0.183444 0
176 1 0.429358 0.192686 0
177 1 0.446568 0.174237 0
148 1 0.463816 0.156197 0
150 1 0.488708 0.163868 0
179 1 0.471384 0.179629 0
178 1 0.455194 0.197641 0
180 1 0.497006 0.186834 0
182 1 0.0224791 0.218895 0
213 1 0.0414989 0.236256 0
211 1 0.0189867 0.243413 0
184 1 0.04768 0.211591 0
185 1 0.0713079 0.204429 0
186 1 0.0883833 0.221873 0
215 1 0.0647901 0.227971 0
216 1 0.0812769 0.245626 0
187 1 0.113714 0.213363 0
188 1 0.131312 0.230507 0
189 1 0.138819 0.207021 0
217 1 0.107173 0.236178 0
191 1 0.163194 0.201869 0
190 1 0.155454 0.22512 0
192 1 0.194218 0.219099 0
221 1 0.177652 0.237064 0
193 1 0.212197 0.201685 0
223 1 0.200116 0.244604 0
194 1 0.217622 0.227586 0
195 1 0.235738 0.20927 0
225 1 0.242849 0.233176 0
196 1 0.260004 0.213966 0
198 1 0.283732 0.220559 0
227 1 0.266329 0.240268 0
228 1 0.289849 0.244083 0
199 1 0.300022 0.202244 0
200 1 0.323546 0.208197 0
202 1 0.348759 0.214257 0
229 1 0.307189 0.226196 0
231 1 0.330854 0.231763 0
204 1 0.389956 0.203352 0
233 1 0.372137 0.22163 0
235 1 0.396072 0.227737 0
232 1 0.354387 0.238934 0
234 1 0.379641 0.245457 0
207 1 0.438221 0.215339 0
206 1 0.420913 0.233821 0
237 1 0.4445 0.240411 0
208 1 0.462502 0.221607 0
209 1 0.478785 0.203159 0
210 1 0.486982 0.227174 0
239 1 0.468049 0.246254 0
212 1 0.0119698 0.266071 0
243 1 0.0355652 0.261487 0
241 1 0.0116084 0.289792 0
242 1 0.0353888 0.297347 0
214 1 0.0584126 0.253291 0
244 1 0.056231 0.28237 0
245 1 0.0786331 0.268728 0
275 1 0.077782 0.293589 0
247 1 0.0988041 0.282183 0
218 1 0.101532 0.259688 0
219 1 0.123945 0.254075 0
249 1 0.141195 0.269363 0
248 1 0.122849 0.284777 0
250 1 0.146 0.293532 0
220 1 0.158194 0.251519 0
222 1 0.182412 0.260879 0
251 1 0.164592 0.277875 0
252 1 0.188655 0.284709 0
224 1 0.224465 0.250934 0
253 1 0.207142 0.268252 0
255 1 0.231467 0.274298 0
226 1 0.2493 0.25664 0
254 1 0.213924 0.291801 0
285 1 0.237358 0.298417 0
256 1 0.255348 0.282219 0
257 1 0.27318 0.264023 0
259 1 0.297477 0.268076 0
258 1 0.279565 0.286864 0
230 1 0.313934 0.250863 0
289 1 0.303685 0.293057 0
260 1 0.321781 0.275736 0
261 1 0.33835 0.258835 0
262 1 0.345448 0.282648 0
291 1 0.328611 0.300593 0
263 1 0.363252 0.265264 0
264 1 0.387617 0.270954 0
293 1 0.369122 0.288469 0
295 1 0.393131 0.295617 0
265 1 0.404602 0.251478 0
236 1 0.428179 0.260539 0
266 1 0.411514 0.278441 0
267 1 0.434846 0.285142 0
238 1 0.451541 0.26538 0
240 1 0.493665 0.251809 0
269 1 0.474965 0.270867 0
268 1 0.458522 0.289972 0
270 1 0.48278 0.294344 0
271 1 0.0175691 0.313944 0
272 1 0.0412539 0.324894 0
301 1 0.0207968 0.339321 0
303 1 0.0459097 0.348638 0
273 1 0.0583901 0.307527 0
276 1 0.0830249 0.318803 0
274 1 0.0653954 0.333786 0
305 1 0.0891761 0.342274 0
246 1 0.103965 0.305523 0
279 1 0.128492 0.311705 0
277 1 0.108432 0.328313 0
278 1 0.13257 0.335576 0
281 1 0.171899 0.301737 0
280 1 0.152853 0.318222 0
311 1 0.156983 0.341737 0
283 1 0.195944 0.308604 0
282 1 0.176748 0.325136 0
312 1 0.180681 0.348346 0
313 1 0.20082 0.332506 0
284 1 0.219102 0.315346 0
315 1 0.22535 0.337714 0
286 1 0.244198 0.321294 0
316 1 0.248642 0.344802 0
287 1 0.262143 0.305068 0
288 1 0.285953 0.311259 0
317 1 0.268404 0.328975 0
319 1 0.292214 0.334728 0
290 1 0.309707 0.316976 0
321 1 0.314606 0.34249 0
292 1 0.333636 0.325262 0
323 1 0.35261 0.308048 0
294 1 0.375561 0.314201 0
296 1 0.398478 0.320619 0
324 1 0.358032 0.333182 0
325 1 0.382339 0.338875 0
297 1 0.416312 0.303437 0
326 1 0.406611 0.34705 0
298 1 0.441403 0.307716 0
327 1 0.422525 0.3275 0
328 1 0.447684 0.332168 0
299 1 0.465477 0.313811 0
300 1 0.489661 0.318904 0
1201 1 0.497066 0.34269 0
329 1 0.472283 0.337463 0
331 1 0.00615182 0.378676 0
302 1 0.0260127 0.364013 0
332 1 0.0309191 0.387859 0
1230 1 0.0016568 0.354417 0
333 1 0.050636 0.373566 0
334 1 0.054439 0.397813 0
304 1 0.0696047 0.359146 0
306 1 0.0943355 0.367213 0
335 1 0.0755019 0.383052 0
337 1 0.100435 0.392317 0
307 1 0.114071 0.351949 0
309 1 0.138396 0.358512 0
308 1 0.119989 0.375698 0
339 1 0.143917 0.383815 0
310 1 0.160817 0.36659 0
341 1 0.168093 0.389078 0
343 1 0.186578 0.372287 0
342 1 0.192247 0.395546 0
314 1 0.205556 0.356403 0
345 1 0.229687 0.3614 0
344 1 0.211199 0.379016 0
375 1 0.234924 0.385874 0
346 1 0.253199 0.369569 0
377 1 0.260244 0.3932 0
318 1 0.271485 0.353119 0
349 1 0.295498 0.360001 0
347 1 0.277805 0.377703 0
322 1 0.338381 0.349296 0
350 1 0.302794 0.384385 0
320 1 0.318518 0.367301 0
351 1 0.34214 0.374948 0
381 1 0.325925 0.393449 0
353 1 0.360636 0.358179 0
355 1 0.387207 0.363052 0
354 1 0.36843 0.381988 0
385 1 0.392301 0.387559 0
357 1 0.430574 0.350801 0
356 1 0.412548 0.372977 0
387 1 0.438151 0.373773 0
358 1 0.46449 0.378589 0
359 1 0.455487 0.356114 0
330 1 0.480059 0.360801 0
360 1 0.488927 0.385015 0
389 1 0.469921 0.400896 0
361 1 0.0118467 0.403015 0
363 1 0.0361606 0.412261 0
362 1 0.0171224 0.4273 0
364 1 0.0409822 0.436028 0
336 1 0.0812301 0.407054 0
365 1 0.0611391 0.421034 0
395 1 0.0666213 0.444275 0
338 1 0.12493 0.400343 0
367 1 0.106124 0.417335 0
366 1 0.111936 0.440685 0
369 1 0.129314 0.424015 0
368 1 0.135198 0.449556 0
340 1 0.148939 0.407196 0
370 1 0.154743 0.431846 0
371 1 0.172716 0.411976 0
401 1 0.179035 0.435698 0
372 1 0.197261 0.41928 0
403 1 0.202994 0.441871 0
373 1 0.21651 0.402413 0
374 1 0.22182 0.425647 0
376 1 0.241574 0.410395 0
405 1 0.245493 0.434185 0
348 1 0.283605 0.402204 0
407 1 0.267677 0.442585 0
378 1 0.264616 0.417778 0
409 1 0.287834 0.427499 0
352 1 0.349968 0.399463 0
379 1 0.306821 0.410651 0
380 1 0.310174 0.435321 0
382 1 0.331006 0.418367 0
411 1 0.334026 0.443341 0
383 1 0.373189 0.405379 0
413 1 0.353767 0.428621 0
384 1 0.398794 0.410558 0
414 1 0.37856 0.441602 0
388 1 0.444312 0.397408 0
415 1 0.412054 0.432071 0
386 1 0.419148 0.395755 0
417 1 0.436559 0.422816 0
416 1 0.428032 0.449431 0
418 1 0.453475 0.444608 0
419 1 0.461804 0.42316 0
390 1 0.487702 0.418067 0
420 1 0.478288 0.441924 0
393 1 0.0232115 0.451988 0
422 1 0.00810674 0.491866 0
423 1 0.0288058 0.475863 0
392 1 0.00444565 0.468061 0
394 1 0.0485617 0.460663 0
425 1 0.05334 0.485978 0
396 1 0.0717588 0.469248 0
426 1 0.0760543 0.496811 0
397 1 0.0906199 0.45377 0
427 1 0.0942183 0.481045 0
398 1 0.113895 0.466511 0
428 1 0.117199 0.490381 0
429 1 0.137037 0.474809 0
399 1 0.156955 0.460772 0
400 1 0.180863 0.459485 0
430 1 0.159665 0.485185 0
431 1 0.185265 0.481917 0
404 1 0.225573 0.450366 0
402 1 0.205162 0.466022 0
432 1 0.208496 0.489559 0
433 1 0.228552 0.475209 0
1321 1 0.493713 0.46053 0
435 1 0.247663 0.459111 0
408 1 0.290812 0.451589 0
436 1 0.251929 0.483753 0
406 1 0.270627 0.467879 0
437 1 0.274063 0.49391 0
439 1 0.292356 0.477741 0
410 1 0.313992 0.458929 0
440 1 0.315866 0.484457 0
441 1 0.337339 0.468627 0
471 1 0.33964 0.495521 0
412 1 0.357487 0.454223 0
442 1 0.359447 0.480767 0
473 1 0.379925 0.494968 0
443 1 0.37921 0.465808 0
444 1 0.398553 0.480377 0
445 1 0.40244 0.455071 0
447 1 0.444923 0.467723 0
446 1 0.421181 0.472577 0
477 1 0.43601 0.490937 0
450 1 0.48493 0.484471 0
449 1 0.469452 0.465156 0
448 1 0.459558 0.488294 0
453 1 0.0117815 0.514858 0
452 1 0.0161098 0.541862 0
454 1 0.0351773 0.525818 0
424 1 0.0328577 0.500348 0
485 1 0.0598783 0.536656 0
455 1 0.0557131 0.51173 0
456 1 0.07845 0.521519 0
486 1 0.0820842 0.545899 0
457 1 0.0986973 0.507519 0
458 1 0.123282 0.517095 0
487 1 0.101688 0.531014 0
488 1 0.124208 0.542399 0
489 1 0.145408 0.527341 0
459 1 0.141148 0.500212 0
460 1 0.164547 0.511111 0
461 1 0.18848 0.504112 0
462 1 0.189267 0.528269 0
491 1 0.166974 0.53933 0
493 1 0.212653 0.538239 0
463 1 0.211237 0.513764 0
464 1 0.2334 0.523611 0
495 1 0.236265 0.548578 0
466 1 0.255844 0.533257 0
465 1 0.254705 0.509447 0
467 1 0.276598 0.518618 0
497 1 0.279086 0.542293 0
438 1 0.298457 0.50254 0
468 1 0.298672 0.527094 0
469 1 0.320329 0.512346 0
499 1 0.321549 0.538427 0
470 1 0.34149 0.523911 0
501 1 0.343645 0.548645 0
472 1 0.35958 0.508385 0
503 1 0.364462 0.533063 0
474 1 0.384394 0.519389 0
505 1 0.386677 0.544337 0
476 1 0.40772 0.529079 0
507 1 0.425671 0.51364 0
509 1 0.435448 0.534601 0
475 1 0.40245 0.503712 0
478 1 0.449391 0.511608 0
479 1 0.475552 0.507966 0
480 1 0.461791 0.532595 0
1381 1 0.489664 0.527114 0
510 1 0.479054 0.549467 0
1351 1 0.500013 0.504182 0
513 1 0.0195913 0.56488 0
483 1 0.0391439 0.550406 0
514 1 0.0420665 0.576347 0
512 1 0.022195 0.590319 0
484 1 0.0614174 0.562287 0
515 1 0.0845024 0.571817 0
545 1 0.0640784 0.585458 0
516 1 0.0862925 0.595803 0
517 1 0.10363 0.557162 0
518 1 0.107891 0.582027 0
519 1 0.126944 0.567178 0
549 1 0.130206 0.59266 0
490 1 0.147859 0.552125 0
520 1 0.150326 0.577355 0
521 1 0.170266 0.565229 0
492 1 0.192326 0.552765 0
523 1 0.19401 0.575941 0
522 1 0.173417 0.589345 0
494 1 0.215493 0.562124 0
524 1 0.216498 0.585878 0
525 1 0.238679 0.57321 0
555 1 0.239137 0.597523 0
496 1 0.259099 0.557675 0
526 1 0.260237 0.582635 0
527 1 0.281647 0.566873 0
528 1 0.28283 0.591549 0
498 1 0.301813 0.551678 0
529 1 0.303778 0.577839 0
500 1 0.323537 0.56323 0
530 1 0.324945 0.589508 0
531 1 0.345381 0.573259 0
532 1 0.349275 0.597408 0
502 1 0.367094 0.559059 0
504 1 0.39011 0.568419 0
533 1 0.369318 0.583885 0
534 1 0.394893 0.592517 0
506 1 0.410244 0.552132 0
535 1 0.414695 0.576935 0
508 1 0.434422 0.560018 0
537 1 0.439931 0.584319 0
539 1 0.457234 0.563206 0
540 1 0.480963 0.573197 0
538 1 0.464026 0.59113 0
569 1 0.490734 0.595206 0
541 1 0.00109506 0.605162 0
542 1 0.0231024 0.616218 0
571 1 0.00333189 0.630176 0
543 1 0.0443131 0.602273 0
573 1 0.0277275 0.640357 0
544 1 0.0475653 0.625926 0
574 1 0.0497973 0.649244 0
546 1 0.0672036 0.611176 0
547 1 0.0896719 0.621008 0
575 1 0.0700125 0.635648 0
576 1 0.0918163 0.6452 0
548 1 0.110646 0.605952 0
550 1 0.132554 0.618265 0
577 1 0.112258 0.630293 0
579 1 0.134936 0.642344 0
553 1 0.195081 0.6001 0
551 1 0.152078 0.602405 0
581 1 0.153996 0.628323 0
552 1 0.174826 0.613887 0
582 1 0.177311 0.639224 0
554 1 0.218577 0.611056 0
583 1 0.197033 0.624909 0
556 1 0.241973 0.622181 0
585 1 0.222518 0.635098 0
586 1 0.245657 0.646493 0
557 1 0.261653 0.606194 0
587 1 0.264128 0.631527 0
558 1 0.283836 0.617455 0
589 1 0.287399 0.642872 0
559 1 0.304555 0.603486 0
560 1 0.307186 0.628017 0
561 1 0.32678 0.613038 0
591 1 0.330358 0.637454 0
562 1 0.350464 0.62223 0
563 1 0.37264 0.607357 0
564 1 0.372284 0.631101 0
593 1 0.352776 0.646988 0
565 1 0.400534 0.61674 0
595 1 0.393987 0.640534 0
536 1 0.419366 0.601601 0
566 1 0.428913 0.627232 0
567 1 0.44521 0.608768 0
596 1 0.4165 0.647663 0
597 1 0.455465 0.631173 0
568 1 0.472438 0.613765 0
570 1 0.479809 0.63748 0
1442 1 0.497213 0.618593 0
572 1 0.00571448 0.655447 0
603 1 0.0291904 0.665439 0
602 1 0.00879426 0.679307 0
633 1 0.0301691 0.690759 0
605 1 0.0719414 0.659927 0
604 1 0.0508693 0.67472 0
606 1 0.0754858 0.685263 0
607 1 0.0948177 0.671498 0
637 1 0.0980641 0.695929 0
578 1 0.114788 0.655549 0
609 1 0.13808 0.667673 0
608 1 0.117993 0.680712 0
639 1 0.140663 0.693096 0
580 1 0.157097 0.65309 0
611 1 0.181926 0.662725 0
610 1 0.163142 0.679189 0
612 1 0.18546 0.691268 0
584 1 0.202572 0.648156 0
613 1 0.204275 0.674131 0
615 1 0.224621 0.659926 0
614 1 0.22808 0.685049 0
617 1 0.248169 0.671369 0
643 1 0.208504 0.699934 0
588 1 0.267511 0.656881 0
619 1 0.291138 0.666594 0
616 1 0.249611 0.696443 0
618 1 0.272167 0.682422 0
590 1 0.311091 0.651442 0
621 1 0.313082 0.676809 0
592 1 0.332491 0.661603 0
622 1 0.337878 0.687209 0
623 1 0.356118 0.672944 0
594 1 0.375711 0.657016 0
653 1 0.362522 0.699326 0
624 1 0.37989 0.680478 0
625 1 0.398572 0.664624 0
598 1 0.440165 0.651316 0
627 1 0.423408 0.671266 0
626 1 0.403677 0.687901 0
628 1 0.447351 0.675337 0
657 1 0.429413 0.695187 0
599 1 0.463621 0.656577 0
600 1 0.487438 0.662072 0
629 1 0.471109 0.681283 0
630 1 0.49607 0.686461 0
658 1 0.452927 0.699763 0
632 1 0.0110931 0.704201 0
634 1 0.0352906 0.714958 0
663 1 0.013467 0.728527 0
664 1 0.0382 0.740142 0
635 1 0.0550649 0.699811 0
636 1 0.0772272 0.709909 0
665 1 0.0578748 0.725293 0
666 1 0.0815307 0.736247 0
638 1 0.12076 0.706222 0
667 1 0.0999235 0.719741 0
640 1 0.143765 0.718721 0
669 1 0.123174 0.731891 0
668 1 0.103798 0.745841 0
670 1 0.146106 0.742635 0
641 1 0.165475 0.704928 0
642 1 0.188981 0.715476 0
671 1 0.167414 0.728979 0
673 1 0.190568 0.739358 0
645 1 0.231354 0.711893 0
644 1 0.210573 0.725325 0
675 1 0.232401 0.736292 0
674 1 0.212282 0.752767 0
646 1 0.251962 0.721354 0
647 1 0.273094 0.706574 0
677 1 0.254151 0.746659 0
648 1 0.275637 0.7317 0
649 1 0.295941 0.717032 0
679 1 0.297977 0.740233 0
620 1 0.316564 0.701737 0
651 1 0.341071 0.71175 0
650 1 0.319742 0.726451 0
652 1 0.347622 0.735626 0
655 1 0.386814 0.705139 0
654 1 0.368715 0.722197 0
685 1 0.393153 0.730467 0
683 1 0.374794 0.746674 0
656 1 0.410688 0.712913 0
687 1 0.436774 0.718541 0
686 1 0.417947 0.73585 0
717 1 0.442291 0.742183 0
659 1 0.477933 0.704744 0
689 1 0.46 0.72293 0
660 1 0.483706 0.728976 0
688 1 0.466731 0.748244 0
692 1 0.000158095 0.792748 0
662 1 0.017237 0.753479 0
694 1 0.0401436 0.764908 0
693 1 0.020034 0.778561 0
725 1 0.042231 0.789441 0
695 1 0.0603917 0.750679 0
697 1 0.0827966 0.761172 0
696 1 0.0633913 0.775046 0
727 1 0.0879449 0.78558 0
726 1 0.0670907 0.799774 0
699 1 0.126957 0.75817 0
698 1 0.107459 0.772263 0
700 1 0.128759 0.782804 0
728 1 0.11036 0.798232 0
701 1 0.149652 0.768464 0
672 1 0.168835 0.753832 0
703 1 0.192376 0.765169 0
702 1 0.171642 0.779978 0
731 1 0.152981 0.79407 0
704 1 0.193925 0.791014 0
676 1 0.23453 0.76143 0
705 1 0.21433 0.776851 0
706 1 0.236719 0.786618 0
707 1 0.257033 0.771584 0
678 1 0.276657 0.757045 0
737 1 0.259681 0.795877 0
709 1 0.279161 0.781366 0
681 1 0.320224 0.749892 0
680 1 0.29918 0.765637 0
682 1 0.341556 0.759337 0
710 1 0.302172 0.789617 0
711 1 0.321486 0.775021 0
741 1 0.326441 0.799931 0
712 1 0.345222 0.784094 0
713 1 0.363404 0.767367 0
714 1 0.386183 0.773162 0
743 1 0.368873 0.791787 0
745 1 0.393687 0.798383 0
684 1 0.401031 0.754038 0
715 1 0.425723 0.760366 0
716 1 0.408908 0.778762 0
747 1 0.432126 0.785889 0
718 1 0.449355 0.767282 0
690 1 0.49018 0.753718 0
719 1 0.472562 0.772625 0
720 1 0.480779 0.797687 0
749 1 0.457197 0.792579 0
1591 1 0.497549 0.778432 0
723 1 0.0215454 0.80703 0
751 1 0.00317184 0.821192 0
722 1 0.0222991 0.838208 0
724 1 0.0469423 0.812391 0
754 1 0.0463831 0.836013 0
757 1 0.0894889 0.812327 0
755 1 0.0688756 0.827081 0
756 1 0.0916434 0.837525 0
729 1 0.132612 0.806734 0
759 1 0.112 0.822708 0
760 1 0.132396 0.833114 0
758 1 0.113254 0.849179 0
732 1 0.175139 0.806448 0
730 1 0.154947 0.819657 0
761 1 0.155736 0.843981 0
763 1 0.177631 0.831634 0
733 1 0.198204 0.815289 0
764 1 0.200302 0.840311 0
735 1 0.21739 0.800802 0
736 1 0.240607 0.811242 0
734 1 0.220167 0.825177 0
767 1 0.243959 0.835336 0
708 1 0.283268 0.804671 0
738 1 0.263581 0.819485 0
768 1 0.268241 0.843939 0
769 1 0.287236 0.830683 0
739 1 0.305079 0.8143 0
740 1 0.310989 0.8376 0
771 1 0.33209 0.823759 0
772 1 0.33779 0.847197 0
742 1 0.351436 0.808375 0
773 1 0.357058 0.833598 0
744 1 0.37433 0.815898 0
774 1 0.381432 0.841647 0
775 1 0.39937 0.822847 0
746 1 0.416404 0.80565 0
748 1 0.439536 0.811141 0
777 1 0.423301 0.829925 0
779 1 0.447167 0.833322 0
776 1 0.404818 0.848468 0
750 1 0.463536 0.815631 0
1621 1 0.488052 0.820611 0
780 1 0.471126 0.83846 0
1651 1 0.495957 0.844255 0
753 1 0.0392946 0.858624 0
752 1 0.0157618 0.863307 0
783 1 0.0329804 0.882402 0
782 1 0.0099101 0.890099 0
785 1 0.0685782 0.852353 0
784 1 0.0580904 0.875108 0
786 1 0.0741916 0.892445 0
787 1 0.0926276 0.86236 0
817 1 0.0973961 0.886102 0
815 1 0.0513342 0.898696 0
789 1 0.136171 0.859417 0
788 1 0.117568 0.874081 0
790 1 0.139758 0.884965 0
762 1 0.180301 0.855175 0
791 1 0.159991 0.870244 0
793 1 0.182654 0.880735 0
792 1 0.162312 0.895679 0
765 1 0.221376 0.850822 0
795 1 0.202522 0.86506 0
794 1 0.206686 0.892168 0
796 1 0.224568 0.874889 0
825 1 0.233475 0.897056 0
766 1 0.244195 0.860267 0
797 1 0.267084 0.868362 0
827 1 0.256445 0.892012 0
799 1 0.290692 0.858859 0
798 1 0.2806 0.887801 0
770 1 0.317161 0.861649 0
800 1 0.303895 0.881151 0
801 1 0.338378 0.872859 0
831 1 0.323778 0.896151 0
802 1 0.348536 0.894357 0
803 1 0.362963 0.857897 0
804 1 0.370796 0.884627 0
805 1 0.38693 0.866025 0
778 1 0.429841 0.853363 0
807 1 0.412627 0.871906 0
808 1 0.43682 0.87764 0
837 1 0.419961 0.89837 0
809 1 0.454909 0.857721 0
1681 1 0.478274 0.862199 0
1711 1 0.483308 0.886217 0
810 1 0.461043 0.880805 0
813 1 0.0270702 0.90693 0
843 1 0.021805 0.930353 0
814 1 0.0455184 0.923508 0
844 1 0.0380615 0.949146 0
812 1 0.00263184 0.912913 0
816 1 0.0927251 0.910005 0
845 1 0.0686359 0.91647 0
846 1 0.0639343 0.942136 0
847 1 0.0870633 0.933577 0
819 1 0.117814 0.899615 0
818 1 0.111934 0.925345 0
820 1 0.127863 0.943609 0
821 1 0.134772 0.916955 0
851 1 0.151063 0.935829 0
823 1 0.185181 0.905384 0
822 1 0.176496 0.931139 0
824 1 0.200339 0.926696 0
885 1 0.218903 0.946348 0
855 1 0.224853 0.920374 0
856 1 0.242246 0.940449 0
826 1 0.249287 0.91602 0
857 1 0.266339 0.935382 0
828 1 0.273723 0.911735 0
859 1 0.290793 0.928905 0
829 1 0.29854 0.904086 0
860 1 0.307717 0.945887 0
830 1 0.314308 0.922014 0
832 1 0.340715 0.9173 0
861 1 0.332327 0.940858 0
806 1 0.39168 0.904703 0
863 1 0.359777 0.933469 0
833 1 0.367663 0.910274 0
834 1 0.384307 0.929387 0
865 1 0.399643 0.947369 0
835 1 0.40923 0.922061 0
836 1 0.424602 0.942375 0
838 1 0.439705 0.921092 0
869 1 0.453554 0.942991 0
839 1 0.464101 0.905676 0
840 1 0.472933 0.928074 0
1712 1 0.489945 0.912481 0
1741 1 0.496626 0.936579 0
842 1 0.0135439 0.954719 0
872 1 0.0249159 0.996266 0
873 1 0.0301908 0.971908 0
871 1 0.00692477 0.97773 0
874 1 0.0490126 0.98888 0
875 1 0.0541493 0.965674 0
876 1 0.0725562 0.98235 0
848 1 0.0808091 0.958352 0
877 1 0.0978828 0.975689 0
849 1 0.104322 0.949615 0
878 1 0.114818 0.993332 0
879 1 0.120706 0.968441 0
881 1 0.139222 0.98665 0
850 1 0.145519 0.961849 0
854 1 0.19516 0.950781 0
853 1 0.169137 0.954924 0
852 1 0.162544 0.979334 0
883 1 0.18801 0.97444 0
13 1 0.205011 0.995041 0
15 1 0.227763 0.989975 0
884 1 0.211342 0.971616 0
886 1 0.236525 0.965423 0
858 1 0.284055 0.953194 0
887 1 0.260512 0.959801 0
17 1 0.252344 0.983457 0
888 1 0.276343 0.978306 0
19 1 0.293863 0.99577 0
889 1 0.300838 0.970244 0
890 1 0.318275 0.988552 0
892 1 0.342611 0.981901 0
891 1 0.32478 0.964011 0
862 1 0.351575 0.95686 0
864 1 0.375373 0.952482 0
894 1 0.38623 0.998788 0
893 1 0.367705 0.97772 0
895 1 0.392072 0.972275 0
866 1 0.415951 0.966599 0
896 1 0.408603 0.991149 0
867 1 0.439291 0.961695 0
897 1 0.43986 0.986944 0
1771 1 0.483683 0.979097 0
870 1 0.478045 0.95201 0
899 1 0.466325 0.997557 0
868 1 0.460775 0.972181 0
7 1 0.0908857 0.99998 0
882 1 0.180894 0.997684 0
434 1 0.232776 0.499098 0
902 1 0.538889 0.0199678 0
901 1 0.513497 0.0118992 0
931 1 0.520225 0.0367024 0
933 1 0.544843 0.0435911 0
904 1 0.561936 0.0264394 0
906 1 0.578687 0.00909144 0
935 1 0.58605 0.0330097 0
905 1 0.555675 0.00253772 0
908 1 0.60368 0.0161409 0
937 1 0.610348 0.0397732 0
939 1 0.628372 0.0219417 0
938 1 0.636722 0.0446387 0
910 1 0.644863 0.00396103 0
941 1 0.653953 0.0271904 0
912 1 0.672072 0.0106487 0
942 1 0.678769 0.033505 0
943 1 0.696246 0.0158543 0
973 1 0.701912 0.0400839 0
944 1 0.719331 0.0215691 0
945 1 0.7364 0.00364253 0
946 1 0.743246 0.0270676 0
975 1 0.726464 0.046458 0
947 1 0.761468 0.00909814 0
948 1 0.769082 0.0333842 0
918 1 0.783931 0.0150282 0
979 1 0.80169 0.0506974 0
921 1 0.821075 0.0035911 0
949 1 0.808491 0.0252448 0
951 1 0.837818 0.0215225 0
950 1 0.826011 0.0438948 0
952 1 0.851735 0.0405189 0
953 1 0.86098 0.0145757 0
924 1 0.8849 0.00912497 0
954 1 0.875797 0.0328654 0
955 1 0.902264 0.0274351 0
925 1 0.908939 0.00397096 0
926 1 0.926083 0.0213727 0
957 1 0.942895 0.0388479 0
956 1 0.918413 0.0462497 0
928 1 0.950021 0.016036 0
1 1 1.00097 0.00157916 0
959 1 0.967193 0.0337011 0
930 1 0.991077 0.0251108 0
929 1 0.973345 0.00835832 0
932 1 0.526661 0.0597183 0
962 1 0.534369 0.0863442 0
961 1 0.511244 0.0789767 0
60 1 0.503028 0.0539544 0
934 1 0.570062 0.0504968 0
963 1 0.551746 0.067752 0
965 1 0.576645 0.0745667 0
964 1 0.558535 0.0913886 0
936 1 0.592901 0.0566859 0
995 1 0.581554 0.0981297 0
966 1 0.600901 0.0804919 0
967 1 0.618259 0.0634546 0
968 1 0.627666 0.0872946 0
969 1 0.643787 0.0691021 0
999 1 0.651617 0.0926175 0
940 1 0.659976 0.0512396 0
970 1 0.667488 0.0744768 0
971 1 0.684668 0.0568253 0
972 1 0.692171 0.0808817 0
1003 1 0.710398 0.0641444 0
1004 1 0.716378 0.0872389 0
974 1 0.734572 0.0701885 0
1005 1 0.740736 0.0941479 0
976 1 0.751691 0.0517755 0
1007 1 0.75929 0.0748502 0
977 1 0.776896 0.057074 0
978 1 0.793505 0.0765146 0
1006 1 0.76528 0.0977405 0
980 1 0.817848 0.0690491 0
981 1 0.843057 0.0632368 0
1009 1 0.811807 0.0949835 0
1011 1 0.835976 0.0889365 0
985 1 0.893264 0.0528414 0
982 1 0.860127 0.08104 0
983 1 0.868858 0.0577957 0
984 1 0.886602 0.0768925 0
1015 1 0.904076 0.094368 0
986 1 0.910632 0.0704417 0
987 1 0.936157 0.0631071 0
1017 1 0.928218 0.0875781 0
988 1 0.951235 0.0821188 0
960 1 0.984086 0.0498258 0
958 1 0.959434 0.0561161 0
989 1 0.976853 0.0739838 0
990 1 0.992841 0.0915158 0
1019 1 0.96859 0.0987624 0
1350 1 0.964378 0.497946 0
991 1 0.516364 0.102289 0
992 1 0.52293 0.128378 0
993 1 0.540639 0.11116 0
1023 1 0.54834 0.134535 0
1021 1 0.505323 0.144681 0
1022 1 0.531404 0.152183 0
994 1 0.56503 0.11511 0
996 1 0.591331 0.121335 0
1025 1 0.573351 0.140246 0
1026 1 0.598149 0.146837 0
997 1 0.610037 0.104437 0
998 1 0.63403 0.111874 0
1027 1 0.615285 0.128277 0
1029 1 0.640936 0.135688 0
1001 1 0.676763 0.0988036 0
1000 1 0.658278 0.116857 0
1031 1 0.683772 0.123011 0
1030 1 0.666053 0.140857 0
1032 1 0.690926 0.146251 0
1002 1 0.700863 0.104533 0
1033 1 0.708101 0.128605 0
1035 1 0.723647 0.111486 0
1034 1 0.73163 0.135893 0
1036 1 0.74989 0.118424 0
1008 1 0.788712 0.100744 0
1037 1 0.776793 0.121705 0
1038 1 0.791966 0.143855 0
1067 1 0.759796 0.141419 0
1039 1 0.804752 0.120517 0
1010 1 0.82961 0.113417 0
1041 1 0.847268 0.130322 0
1040 1 0.822791 0.137435 0
1013 1 0.879074 0.100012 0
1012 1 0.854384 0.106028 0
1043 1 0.871409 0.124067 0
1014 1 0.895666 0.117805 0
1044 1 0.889374 0.142855 0
1042 1 0.863607 0.148373 0
1045 1 0.912687 0.135778 0
1016 1 0.919658 0.111896 0
1047 1 0.936335 0.130034 0
1018 1 0.944457 0.105507 0
1049 1 0.96229 0.121959 0
1020 1 0.98533 0.114733 0
1050 1 0.978658 0.139177 0
1046 1 0.954735 0.145772 0
1053 1 0.539083 0.175787 0
1051 1 0.51405 0.1691 0
1052 1 0.521065 0.193345 0
1083 1 0.546563 0.199482 0
1024 1 0.556329 0.158491 0
1055 1 0.581583 0.165115 0
1054 1 0.564617 0.183425 0
1056 1 0.588728 0.188622 0
1028 1 0.622595 0.152387 0
1057 1 0.605846 0.169629 0
1058 1 0.630389 0.176323 0
1059 1 0.649363 0.158067 0
1087 1 0.613134 0.194456 0
1060 1 0.654896 0.183888 0
1061 1 0.672866 0.164491 0
1062 1 0.697525 0.169142 0
1091 1 0.680315 0.188018 0
1093 1 0.704369 0.19667 0
1063 1 0.714646 0.152683 0
1064 1 0.721036 0.177133 0
1065 1 0.740846 0.159677 0
1095 1 0.745474 0.184732 0
1066 1 0.764659 0.165758 0
1068 1 0.789043 0.167517 0
1097 1 0.769504 0.190839 0
1069 1 0.81359 0.159834 0
1071 1 0.838991 0.154543 0
1070 1 0.830983 0.177802 0
1099 1 0.806147 0.183328 0
1101 1 0.848938 0.196637 0
1072 1 0.854867 0.173955 0
1073 1 0.881152 0.166255 0
1103 1 0.871714 0.191137 0
1074 1 0.897302 0.18723 0
1075 1 0.905699 0.163089 0
1077 1 0.929145 0.154555 0
1076 1 0.922242 0.180184 0
1078 1 0.944784 0.172712 0
1107 1 0.940193 0.199226 0
1048 1 0.970972 0.163382 0
151 1 0.995176 0.157747 0
1079 1 0.988074 0.182461 0
1109 1 0.963842 0.188832 0
1081 1 0.503769 0.209497 0
1082 1 0.528702 0.217168 0
1111 1 0.510812 0.233129 0
1113 1 0.534542 0.2401 0
1084 1 0.552671 0.223763 0
1085 1 0.570512 0.206728 0
1086 1 0.594116 0.212187 0
1114 1 0.559047 0.247854 0
1115 1 0.576684 0.231753 0
1089 1 0.637578 0.200389 0
1117 1 0.601464 0.236514 0
1088 1 0.62006 0.218036 0
1119 1 0.644121 0.224223 0
1118 1 0.626017 0.242926 0
1090 1 0.662041 0.206902 0
1092 1 0.68628 0.214981 0
1121 1 0.668199 0.231597 0
1122 1 0.694486 0.237732 0
1094 1 0.726898 0.201169 0
1123 1 0.712095 0.220463 0
1124 1 0.7181 0.246321 0
1125 1 0.7349 0.229282 0
1155 1 0.742404 0.252558 0
1096 1 0.751092 0.210753 0
1127 1 0.774933 0.214238 0
1126 1 0.760305 0.234883 0
1128 1 0.792994 0.232697 0
1098 1 0.80076 0.208517 0
1100 1 0.824663 0.201908 0
1131 1 0.840743 0.220948 0
1129 1 0.817114 0.226209 0
1130 1 0.837005 0.24515 0
1102 1 0.866243 0.215531 0
1104 1 0.891168 0.210064 0
1132 1 0.86037 0.238959 0
1133 1 0.884521 0.234751 0
1105 1 0.915883 0.204223 0
1135 1 0.908821 0.22847 0
1106 1 0.933495 0.22305 0
1136 1 0.925767 0.24791 0
1137 1 0.951231 0.240463 0
181 1 0.999553 0.225953 0
1108 1 0.958817 0.21437 0
1110 1 0.981488 0.209549 0
1139 1 0.974946 0.233181 0
1112 1 0.517839 0.258155 0
1143 1 0.542046 0.265327 0
1142 1 0.524689 0.280715 0
1318 1 0.955459 0.450377 0
1144 1 0.548446 0.290109 0
1116 1 0.583392 0.254824 0
1145 1 0.565467 0.272711 0
1146 1 0.590934 0.278694 0
1175 1 0.574339 0.296885 0
1147 1 0.609121 0.261118 0
1149 1 0.634611 0.267592 0
1148 1 0.617213 0.28511 0
1179 1 0.641858 0.290039 0
1120 1 0.650229 0.248926 0