ITEM: TIMESTEP
100000
ITEM: NUMBER OF ATOMS
1800
ITEM: BOX BOUNDS pp pp pp
3.0584481044690079e+00 1.5534155189552689e+02
3.0584481044690079e+00 1.5534155189552689e+02
0.0000000000000000e+00 5.2800000000000002e+00
ITEM: ATOMS id type xs ys zs
2 1 0.0175294 0.0184666 0
3 1 0.0417448 0.011011 0
33 1 0.0349021 0.0363213 0
31 1 0.0107519 0.0422289 0
1 1 0.00101364 0.00192592 0
4 1 0.0587991 0.0304589 0
6 1 0.0854561 0.024562 0
5 1 0.0677812 0.00730493 0
35 1 0.0768902 0.0469724 0
37 1 0.101855 0.0425074 0
8 1 0.111657 0.016872 0
9 1 0.128897 0.036048 0
880 1 0.134817 0.0106983 0
10 1 0.152369 0.0307216 0
11 1 0.158621 0.00589204 0
12 1 0.175956 0.0237763 0
43 1 0.192968 0.0431495 0
41 1 0.16963 0.0490279 0
882 1 0.184482 0.0012446 0
14 1 0.200674 0.0198058 0
44 1 0.217109 0.0378928 0
45 1 0.226768 0.0123979 0
46 1 0.242769 0.0325256 0
16 1 0.250656 0.00689366 0
47 1 0.267041 0.0264569 0
49 1 0.291662 0.0224037 0
48 1 0.284763 0.044622 0
18 1 0.275464 0.00292587 0
50 1 0.31018 0.0384161 0
20 1 0.317075 0.0163885 0
51 1 0.335015 0.0325424 0
21 1 0.341918 0.00980944 0
22 1 0.359772 0.0278915 0
24 1 0.38438 0.0217623 0
53 1 0.376381 0.0455872 0
23 1 0.368166 0.00418958 0
55 1 0.400951 0.0391035 0
25 1 0.410172 0.016322 0
26 1 0.428309 0.0345549 0
27 1 0.435401 0.00983216 0
28 1 0.452571 0.0364877 0
30 1 0.497629 0.0381385 0
898 1 0.462355 0.0113888 0
29 1 0.486912 0.0150641 0
32 1 0.0264242 0.059792 0
62 1 0.0185032 0.0844135 0
63 1 0.0431815 0.0772624 0
61 1 0.00111226 0.0658299 0
34 1 0.0523303 0.0546869 0
65 1 0.0699615 0.0712552 0
66 1 0.0863471 0.0897017 0
36 1 0.0938316 0.0653637 0
64 1 0.060723 0.0940215 0
39 1 0.144413 0.0537653 0
38 1 0.120215 0.0591236 0
67 1 0.111945 0.0830181 0
69 1 0.136537 0.077267 0
70 1 0.151777 0.095502 0
40 1 0.161653 0.0729736 0
71 1 0.179426 0.0912482 0
42 1 0.186036 0.0677642 0
72 1 0.203214 0.0856406 0
73 1 0.210956 0.0616073 0
74 1 0.227009 0.0794436 0
75 1 0.234631 0.0562932 0
106 1 0.245317 0.0971845 0
77 1 0.260455 0.0498191 0
76 1 0.251953 0.0728186 0
78 1 0.276969 0.0702861 0
109 1 0.295939 0.0879223 0
107 1 0.272201 0.0944858 0
79 1 0.303143 0.062427 0
80 1 0.32214 0.0817464 0
81 1 0.326108 0.056276 0
82 1 0.346115 0.0774403 0
52 1 0.350575 0.051746 0
83 1 0.369273 0.0684903 0
113 1 0.381281 0.089756 0
54 1 0.39494 0.0654117 0
56 1 0.418362 0.0566724 0
57 1 0.441835 0.0594946 0
85 1 0.422088 0.0816082 0
87 1 0.445508 0.0881045 0
84 1 0.403511 0.0972621 0
59 1 0.477068 0.0505148 0
88 1 0.469792 0.0946001 0
58 1 0.464968 0.0711107 0
89 1 0.488736 0.0773993 0
93 1 0.0356439 0.100965 0
92 1 0.0278462 0.125378 0
91 1 0.0114689 0.107086 0
121 1 0.00283569 0.130628 0
123 1 0.0446731 0.142278 0
122 1 0.0198063 0.14924 0
94 1 0.0532714 0.118258 0
95 1 0.0782197 0.113197 0
125 1 0.0699326 0.137895 0
96 1 0.0953983 0.132196 0
68 1 0.127547 0.101452 0
97 1 0.103629 0.107068 0
98 1 0.118667 0.125164 0
99 1 0.14299 0.119609 0
129 1 0.135306 0.143556 0
127 1 0.111446 0.14999 0
100 1 0.167324 0.114038 0
130 1 0.160786 0.137968 0
131 1 0.184072 0.131965 0
101 1 0.196347 0.109905 0
133 1 0.200741 0.14826 0
103 1 0.219944 0.103157 0
102 1 0.213863 0.127905 0
105 1 0.237463 0.120388 0
104 1 0.233565 0.144758 0
135 1 0.262842 0.11729 0
137 1 0.280244 0.133546 0
108 1 0.294781 0.112349 0
111 1 0.337154 0.100788 0
139 1 0.304326 0.136938 0
110 1 0.318614 0.118825 0
141 1 0.344071 0.12629 0
140 1 0.327654 0.144379 0
112 1 0.362392 0.107272 0
114 1 0.38548 0.114997 0
143 1 0.368167 0.132984 0
144 1 0.392203 0.139514 0
142 1 0.351106 0.151479 0
86 1 0.428908 0.1064 0
115 1 0.410283 0.121615 0
116 1 0.434666 0.129111 0
145 1 0.415894 0.146204 0
117 1 0.452203 0.111924 0
90 1 0.493683 0.102741 0
118 1 0.459905 0.136483 0
119 1 0.476396 0.119256 0
149 1 0.482225 0.143947 0
153 1 0.0373042 0.166744 0
152 1 0.011905 0.173257 0
183 1 0.0289757 0.191161 0
1080 1 0.00487108 0.197025 0
124 1 0.0612114 0.160958 0
126 1 0.0863027 0.156573 0
155 1 0.0774104 0.179611 0
154 1 0.0542953 0.185901 0
156 1 0.0948575 0.198336 0
128 1 0.127674 0.167913 0
157 1 0.102335 0.173923 0
160 1 0.144457 0.186346 0
158 1 0.118636 0.192483 0
132 1 0.177746 0.155872 0
159 1 0.152802 0.160852 0
161 1 0.168804 0.178652 0
162 1 0.185531 0.196293 0
163 1 0.196638 0.175364 0
134 1 0.218378 0.163776 0
164 1 0.226567 0.185351 0
165 1 0.244019 0.167099 0
166 1 0.251162 0.190624 0
136 1 0.260553 0.14855 0
167 1 0.269321 0.172478 0
138 1 0.288096 0.156621 0
168 1 0.293102 0.181265 0
197 1 0.274791 0.198678 0
169 1 0.311161 0.162632 0
171 1 0.335277 0.168788 0
170 1 0.316397 0.187062 0
201 1 0.341317 0.193895 0
172 1 0.359075 0.176181 0
173 1 0.375434 0.157858 0
174 1 0.382644 0.181958 0
203 1 0.364454 0.200129 0
175 1 0.398722 0.163261 0
147 1 0.442216 0.152626 0
146 1 0.423263 0.170889 0
205 1 0.407168 0.190092 0
176 1 0.430823 0.196247 0
177 1 0.447508 0.179652 0
148 1 0.464733 0.161328 0
150 1 0.489248 0.167751 0
179 1 0.471629 0.185335 0
180 1 0.494728 0.191445 0
182 1 0.0204832 0.215127 0
213 1 0.0361936 0.234066 0
211 1 0.0120548 0.238784 0
184 1 0.0451651 0.210746 0
185 1 0.0692552 0.203834 0
186 1 0.086374 0.221386 0
215 1 0.0618513 0.228327 0
216 1 0.0804504 0.245354 0
187 1 0.11336 0.215745 0
188 1 0.129033 0.236442 0
189 1 0.136353 0.209447 0
217 1 0.103931 0.238247 0
191 1 0.162562 0.204323 0
190 1 0.152234 0.227623 0
192 1 0.191329 0.219861 0
221 1 0.173627 0.237362 0
223 1 0.198371 0.243944 0
193 1 0.20875 0.203142 0
194 1 0.214704 0.226556 0
195 1 0.232767 0.209931 0
225 1 0.239686 0.233049 0
196 1 0.25701 0.214906 0
198 1 0.281652 0.222108 0
227 1 0.263804 0.239758 0
228 1 0.287008 0.246573 0
199 1 0.298389 0.204547 0
200 1 0.32265 0.211661 0
229 1 0.305192 0.228713 0
231 1 0.329782 0.236234 0
202 1 0.348535 0.219635 0
204 1 0.389134 0.205456 0
233 1 0.37268 0.223189 0
235 1 0.396915 0.230068 0
232 1 0.354342 0.242763 0
234 1 0.378065 0.247812 0
207 1 0.436463 0.220185 0
206 1 0.419678 0.238435 0
237 1 0.442105 0.244247 0
178 1 0.454105 0.20365 0
208 1 0.460636 0.227686 0
209 1 0.478624 0.210236 0
210 1 0.48422 0.233001 0
212 1 0.00437123 0.261769 0
243 1 0.0289611 0.256711 0
242 1 0.0197584 0.279222 0
244 1 0.0469593 0.27579 0
273 1 0.0349099 0.297208 0
214 1 0.0538374 0.250792 0
245 1 0.0720099 0.267073 0
247 1 0.0786026 0.290787 0
218 1 0.0983189 0.274978 0
219 1 0.115996 0.258863 0
249 1 0.138158 0.268027 0
248 1 0.121341 0.284466 0
250 1 0.143844 0.292673 0
220 1 0.155908 0.25202 0
222 1 0.180308 0.260351 0
251 1 0.161772 0.275774 0
252 1 0.18574 0.284524 0
224 1 0.22191 0.250055 0
253 1 0.204767 0.268455 0
255 1 0.228383 0.276153 0
254 1 0.210047 0.291663 0
226 1 0.245383 0.257732 0
285 1 0.234326 0.29981 0
256 1 0.252383 0.281581 0
257 1 0.270195 0.263819 0
259 1 0.294499 0.271248 0
258 1 0.275383 0.289089 0
289 1 0.298552 0.295579 0
230 1 0.310875 0.254133 0
260 1 0.317448 0.279343 0
261 1 0.33532 0.259893 0
262 1 0.342057 0.284971 0
263 1 0.360369 0.267093 0
264 1 0.384586 0.272 0
293 1 0.366814 0.291389 0
295 1 0.389677 0.297728 0
265 1 0.401865 0.255765 0
236 1 0.424956 0.26249 0
266 1 0.407672 0.280271 0
267 1 0.430561 0.286892 0
238 1 0.449116 0.270325 0
239 1 0.466068 0.251505 0
240 1 0.490416 0.25608 0
269 1 0.47315 0.275604 0
268 1 0.454964 0.293952 0
1141 1 0.497427 0.281415 0
271 1 0.0131762 0.309817 0
272 1 0.0398412 0.32061 0
301 1 0.0200177 0.336215 0
303 1 0.0432779 0.345566 0
275 1 0.0597306 0.304942 0
276 1 0.0827324 0.315288 0
274 1 0.0639233 0.330749 0
305 1 0.0863209 0.340625 0
246 1 0.101578 0.299351 0
279 1 0.125387 0.308767 0
277 1 0.106973 0.324624 0
278 1 0.130329 0.333095 0
307 1 0.11141 0.348282 0
280 1 0.149686 0.316393 0
281 1 0.16842 0.300685 0
311 1 0.154602 0.341248 0
283 1 0.19193 0.309601 0
282 1 0.173103 0.324805 0
313 1 0.196439 0.333291 0
284 1 0.216343 0.316419 0
315 1 0.221153 0.340384 0
286 1 0.24036 0.32328 0
316 1 0.245801 0.346611 0
287 1 0.258775 0.3073 0
288 1 0.282041 0.313824 0
317 1 0.264802 0.331954 0
319 1 0.288865 0.338166 0
291 1 0.323493 0.301753 0
290 1 0.305861 0.319473 0
321 1 0.312205 0.344973 0
292 1 0.329747 0.326741 0
323 1 0.347666 0.30901 0
294 1 0.37084 0.316174 0
324 1 0.353039 0.333619 0
325 1 0.377867 0.340663 0
296 1 0.395117 0.322275 0
326 1 0.402516 0.346826 0
297 1 0.414149 0.305006 0
298 1 0.437115 0.311186 0
327 1 0.419707 0.328264 0
328 1 0.443692 0.334985 0
270 1 0.479364 0.299774 0
299 1 0.460993 0.317736 0
300 1 0.484954 0.324123 0
1201 1 0.491819 0.347534 0
329 1 0.467432 0.341645 0
331 1 0.00433262 0.376057 0
302 1 0.0229564 0.360126 0
332 1 0.0272013 0.385223 0
333 1 0.0471118 0.370609 0
1230 1 -0.000529108 0.351181 0
334 1 0.0526928 0.394725 0
304 1 0.0668257 0.355893 0
306 1 0.0913813 0.365404 0
335 1 0.0727099 0.380171 0
337 1 0.0959897 0.390039 0
309 1 0.135479 0.35857 0
308 1 0.11451 0.372869 0
339 1 0.139936 0.382942 0
338 1 0.118959 0.39822 0
312 1 0.177582 0.34908 0
310 1 0.159312 0.365612 0
341 1 0.164349 0.389368 0
343 1 0.183939 0.373808 0
342 1 0.188818 0.397294 0
314 1 0.202527 0.357542 0
345 1 0.226463 0.36426 0
344 1 0.207737 0.381256 0
375 1 0.232293 0.388654 0
346 1 0.250666 0.370458 0
377 1 0.256603 0.395823 0
318 1 0.269244 0.355862 0
349 1 0.293151 0.361516 0
347 1 0.275289 0.378832 0
350 1 0.299004 0.385645 0
322 1 0.335979 0.349771 0
320 1 0.317082 0.368425 0
351 1 0.341008 0.374138 0
381 1 0.323306 0.391859 0
352 1 0.346015 0.399058 0
353 1 0.359791 0.357304 0
355 1 0.385037 0.363181 0
354 1 0.364408 0.383245 0
385 1 0.389003 0.388423 0
357 1 0.426425 0.353616 0
356 1 0.408539 0.370897 0
387 1 0.433104 0.377311 0
386 1 0.415078 0.396033 0
359 1 0.449571 0.360513 0
358 1 0.4574 0.383572 0
330 1 0.474613 0.365799 0
360 1 0.482063 0.388304 0
361 1 0.00788482 0.401906 0
363 1 0.0330307 0.409212 0
362 1 0.0146715 0.426598 0
364 1 0.0379998 0.434131 0
336 1 0.0753922 0.404488 0
365 1 0.0576424 0.419759 0
395 1 0.0634991 0.444422 0
367 1 0.0994302 0.415011 0
366 1 0.106967 0.439353 0
369 1 0.124177 0.422279 0
340 1 0.143977 0.406354 0
368 1 0.129927 0.447521 0
370 1 0.148396 0.430314 0
371 1 0.169385 0.413777 0
401 1 0.173498 0.437986 0
372 1 0.192621 0.421007 0
403 1 0.199622 0.444526 0
373 1 0.213251 0.404861 0
374 1 0.218432 0.428637 0
376 1 0.237904 0.412696 0
405 1 0.243478 0.436236 0
348 1 0.280071 0.40331 0
407 1 0.267379 0.443452 0
378 1 0.261485 0.419271 0
409 1 0.285451 0.428487 0
379 1 0.30391 0.410732 0
380 1 0.311372 0.436316 0
382 1 0.329294 0.416377 0
411 1 0.335455 0.442517 0
413 1 0.35225 0.426238 0
383 1 0.370756 0.406669 0
414 1 0.377381 0.430232 0
384 1 0.39583 0.412948 0
412 1 0.35917 0.448994 0
388 1 0.439665 0.401127 0
415 1 0.400794 0.43695 0
417 1 0.421429 0.420772 0
416 1 0.425433 0.444486 0
419 1 0.44699 0.425167 0
389 1 0.462919 0.406757 0
418 1 0.471614 0.430304 0
390 1 0.489375 0.411906 0
420 1 0.494863 0.437349 0
447 1 0.451195 0.449518 0
392 1 0.00187149 0.467422 0
393 1 0.0202894 0.451083 0
422 1 0.00718709 0.490898 0
423 1 0.025495 0.476808 0
394 1 0.0449039 0.460102 0
425 1 0.0492805 0.48473 0
397 1 0.0889099 0.454623 0
396 1 0.0688695 0.470018 0
426 1 0.0742449 0.494182 0
427 1 0.0929075 0.479131 0
398 1 0.112072 0.4649 0
428 1 0.115933 0.488841 0
429 1 0.135587 0.473112 0
459 1 0.140511 0.497481 0
399 1 0.153203 0.454345 0
400 1 0.178728 0.460964 0
430 1 0.161751 0.480198 0
431 1 0.185534 0.48408 0
404 1 0.224635 0.451435 0
402 1 0.204332 0.468257 0
432 1 0.2084 0.492593 0
433 1 0.229411 0.475856 0
435 1 0.247972 0.46016 0
436 1 0.252928 0.484579 0
408 1 0.292749 0.451707 0
406 1 0.274754 0.467597 0
437 1 0.277291 0.493825 0
439 1 0.298494 0.477023 0
410 1 0.316254 0.45985 0
440 1 0.322118 0.486022 0
441 1 0.340306 0.467091 0
471 1 0.345573 0.491259 0
442 1 0.364741 0.473189 0
473 1 0.390557 0.477453 0
443 1 0.382732 0.453762 0
472 1 0.372647 0.496306 0
477 1 0.441459 0.490946 0
446 1 0.433683 0.467722 0
445 1 0.407049 0.460309 0
444 1 0.415749 0.483904 0
448 1 0.459263 0.472941 0
450 1 0.483164 0.480125 0
478 1 0.465342 0.496391 0
449 1 0.476328 0.454825 0
453 1 0.0121177 0.514977 0
452 1 0.0153418 0.540223 0
454 1 0.035804 0.524246 0
424 1 0.030929 0.500265 0
483 1 0.0383049 0.551004 0
485 1 0.0581322 0.535644 0
455 1 0.0552247 0.507856 0
456 1 0.0771057 0.518815 0
486 1 0.0815848 0.545585 0
457 1 0.097907 0.504041 0
487 1 0.101996 0.53085 0
458 1 0.121402 0.513337 0
488 1 0.125265 0.538824 0
489 1 0.143808 0.523332 0
490 1 0.148202 0.550393 0
461 1 0.188781 0.507096 0
462 1 0.192905 0.530796 0
491 1 0.168767 0.535971 0
460 1 0.163291 0.508132 0
493 1 0.216762 0.540367 0
463 1 0.213487 0.515903 0
464 1 0.238074 0.52369 0
495 1 0.239892 0.548296 0
434 1 0.231794 0.499644 0
466 1 0.261152 0.533242 0
465 1 0.257332 0.509285 0
467 1 0.281564 0.518261 0
497 1 0.285432 0.541392 0
468 1 0.307693 0.528501 0
469 1 0.327356 0.509252 0
499 1 0.332765 0.532972 0
438 1 0.302816 0.502992 0
470 1 0.351816 0.515929 0
503 1 0.378932 0.520211 0
474 1 0.397522 0.501076 0
505 1 0.389007 0.543867 0
501 1 0.360372 0.537702 0
476 1 0.404538 0.52541 0
509 1 0.429879 0.532917 0
475 1 0.422546 0.508273 0
507 1 0.447044 0.514636 0
479 1 0.472127 0.521125 0
480 1 0.453528 0.539443 0
1381 1 0.496291 0.527685 0
510 1 0.478416 0.545915 0
1351 1 0.490224 0.502863 0
513 1 0.0188191 0.565619 0
514 1 0.0407205 0.575191 0
512 1 0.0208479 0.591189 0
484 1 0.0617248 0.560218 0
515 1 0.0846643 0.570971 0
545 1 0.0640434 0.585361 0
516 1 0.0864115 0.594896 0
517 1 0.106089 0.555294 0
518 1 0.109054 0.581003 0
519 1 0.127906 0.565859 0
549 1 0.131859 0.592047 0
520 1 0.151485 0.576215 0
521 1 0.170949 0.561497 0
492 1 0.194898 0.55431 0
522 1 0.174601 0.587934 0
523 1 0.197699 0.577866 0
494 1 0.217687 0.564146 0
524 1 0.218811 0.589054 0
525 1 0.240189 0.573344 0
555 1 0.241965 0.598532 0
496 1 0.263184 0.557368 0
526 1 0.264445 0.581734 0
527 1 0.286237 0.566564 0
528 1 0.286565 0.591218 0
498 1 0.308076 0.553397 0
529 1 0.30883 0.577942 0
500 1 0.330611 0.563657 0
530 1 0.330415 0.589244 0
531 1 0.351763 0.576389 0
502 1 0.370062 0.560958 0
504 1 0.394324 0.568045 0
533 1 0.375089 0.585571 0
506 1 0.41267 0.549666 0
534 1 0.401137 0.593233 0
535 1 0.41844 0.573739 0
508 1 0.436342 0.557095 0
537 1 0.442919 0.58114 0
536 1 0.425643 0.601913 0
539 1 0.46067 0.563369 0
540 1 0.484757 0.569462 0
538 1 0.467888 0.587201 0
569 1 0.492577 0.593485 0
543 1 0.044222 0.600894 0
542 1 0.0223647 0.615223 0
571 1 0.00152994 0.629373 0
573 1 0.0248504 0.640167 0
541 1 0.00066442 0.605211 0
544 1 0.0451515 0.6256 0
546 1 0.0658411 0.611329 0
547 1 0.0893548 0.620337 0
575 1 0.0690903 0.635923 0
576 1 0.0928495 0.644958 0
548 1 0.110083 0.605781 0
550 1 0.134723 0.616752 0
577 1 0.112583 0.630231 0
579 1 0.136292 0.641495 0
551 1 0.154632 0.601218 0
581 1 0.157202 0.627853 0
552 1 0.177657 0.614862 0
582 1 0.179745 0.640214 0
553 1 0.198404 0.602447 0
583 1 0.201527 0.626231 0
554 1 0.22235 0.613103 0
556 1 0.246267 0.62329 0
585 1 0.223943 0.636874 0
586 1 0.247036 0.646947 0
584 1 0.202357 0.650887 0
557 1 0.264661 0.606741 0
587 1 0.268906 0.631178 0
558 1 0.288653 0.615721 0
589 1 0.28946 0.644481 0
559 1 0.308347 0.602929 0
560 1 0.309668 0.627234 0
561 1 0.329491 0.612608 0
591 1 0.32957 0.641544 0
562 1 0.348708 0.626789 0
532 1 0.353338 0.60171 0
563 1 0.380399 0.609713 0
564 1 0.370986 0.634356 0
595 1 0.393199 0.640854 0
565 1 0.405958 0.619616 0
566 1 0.431332 0.625248 0
596 1 0.415572 0.644806 0
567 1 0.450669 0.60659 0
597 1 0.457016 0.630999 0
568 1 0.47542 0.611765 0
570 1 0.480699 0.635929 0
1442 1 0.498932 0.617894 0
574 1 0.0483041 0.649909 0
572 1 0.0042656 0.653161 0
603 1 0.0277773 0.665134 0
602 1 0.00645774 0.678811 0
633 1 0.0296442 0.690139 0
604 1 0.0508637 0.673681 0
605 1 0.073034 0.659747 0
606 1 0.0732404 0.684064 0
607 1 0.095174 0.669747 0
637 1 0.0972098 0.695878 0
635 1 0.0526741 0.700134 0
578 1 0.114943 0.654585 0
609 1 0.137459 0.667719 0
608 1 0.117558 0.681776 0
639 1 0.138312 0.691976 0
580 1 0.158789 0.654092 0
611 1 0.182248 0.665037 0
610 1 0.160489 0.67789 0
612 1 0.183322 0.688965 0
613 1 0.204547 0.674436 0
615 1 0.225463 0.661113 0
614 1 0.226145 0.685662 0
617 1 0.247073 0.672502 0
616 1 0.248389 0.697345 0
643 1 0.205512 0.700106 0
588 1 0.269631 0.657873 0
619 1 0.290473 0.670508 0
618 1 0.269934 0.682505 0
590 1 0.311051 0.657593 0
621 1 0.31555 0.685471 0
592 1 0.333884 0.66794 0
622 1 0.339907 0.691872 0
593 1 0.352803 0.651412 0
623 1 0.357903 0.674714 0
594 1 0.37604 0.65824 0
624 1 0.383397 0.681656 0
653 1 0.365801 0.697626 0
598 1 0.440045 0.648261 0
625 1 0.399972 0.664034 0
627 1 0.424788 0.667948 0
626 1 0.407326 0.686304 0
657 1 0.431515 0.691733 0
628 1 0.447369 0.674062 0
599 1 0.464178 0.654957 0
600 1 0.488624 0.658772 0
629 1 0.472242 0.678936 0
630 1 0.496168 0.683939 0
658 1 0.454173 0.697865 0
632 1 0.00873835 0.703481 0
634 1 0.0323364 0.714399 0
663 1 0.0123846 0.728905 0
664 1 0.0348869 0.738743 0
636 1 0.0752872 0.709694 0
665 1 0.0557173 0.724545 0
666 1 0.0783683 0.735046 0
695 1 0.0573101 0.7501 0
667 1 0.0978849 0.721138 0
638 1 0.119487 0.706637 0
640 1 0.142155 0.716785 0
669 1 0.120467 0.731989 0
668 1 0.100244 0.746149 0
670 1 0.144294 0.741773 0
641 1 0.162578 0.702302 0
642 1 0.185402 0.713834 0
671 1 0.16465 0.727245 0
673 1 0.188255 0.738838 0
645 1 0.227811 0.71154 0
644 1 0.207752 0.724483 0
675 1 0.229376 0.736186 0
646 1 0.250776 0.72168 0
674 1 0.209487 0.75212 0
647 1 0.270609 0.707685 0
677 1 0.251793 0.746619 0
648 1 0.272817 0.731146 0
679 1 0.294573 0.742326 0
649 1 0.294361 0.71778 0
620 1 0.322804 0.711564 0
651 1 0.34809 0.716407 0
650 1 0.330797 0.734911 0
652 1 0.354158 0.742085 0
655 1 0.388271 0.705286 0
654 1 0.372009 0.723668 0
685 1 0.396784 0.728884 0
683 1 0.378846 0.746679 0
656 1 0.415644 0.710096 0
687 1 0.438722 0.716765 0
686 1 0.420579 0.735325 0
717 1 0.443611 0.742131 0
659 1 0.477918 0.702639 0
689 1 0.461705 0.721709 0
660 1 0.485227 0.727472 0
688 1 0.468458 0.746426 0
662 1 0.014378 0.753753 0
694 1 0.0371223 0.764666 0
693 1 0.0181633 0.778903 0
725 1 0.0400479 0.790443 0
697 1 0.0802345 0.760943 0
696 1 0.0598859 0.774838 0
727 1 0.083897 0.785833 0
726 1 0.0631867 0.799599 0
699 1 0.124605 0.756825 0
698 1 0.103447 0.770969 0
700 1 0.127505 0.781688 0
728 1 0.106882 0.795358 0
701 1 0.147974 0.767076 0
731 1 0.14998 0.793049 0
672 1 0.167212 0.752987 0
703 1 0.189434 0.764533 0
702 1 0.1695 0.779388 0
704 1 0.191806 0.789965 0
676 1 0.232193 0.761513 0
705 1 0.212544 0.77684 0
706 1 0.234527 0.787043 0
707 1 0.253972 0.772266 0
678 1 0.274508 0.758009 0
709 1 0.277665 0.783323 0
680 1 0.297066 0.769651 0
737 1 0.256736 0.797641 0
710 1 0.300244 0.794202 0
681 1 0.314574 0.753578 0
682 1 0.337009 0.76084 0
711 1 0.320556 0.778224 0
712 1 0.345135 0.784076 0
713 1 0.361526 0.765747 0
714 1 0.386265 0.771307 0
743 1 0.368937 0.791074 0
745 1 0.391992 0.797645 0
684 1 0.403426 0.753702 0
715 1 0.42751 0.761528 0
716 1 0.40984 0.779214 0
747 1 0.434071 0.785507 0
718 1 0.451452 0.76643 0
690 1 0.494431 0.751709 0
719 1 0.476176 0.770031 0
720 1 0.482235 0.79434 0
749 1 0.457996 0.789077 0
1591 1 0.500493 0.775339 0
723 1 0.0201461 0.804331 0
722 1 0.0224533 0.829601 0
724 1 0.044055 0.814914 0
754 1 0.0464913 0.837965 0
1680 1 0.00161597 0.844551 0
751 1 -0.000245613 0.818185 0
757 1 0.0863106 0.811084 0
755 1 0.0671336 0.824641 0
756 1 0.0869594 0.838441 0
785 1 0.0674318 0.851304 0
729 1 0.129304 0.806887 0
759 1 0.107763 0.821284 0
760 1 0.130118 0.832233 0
758 1 0.108676 0.848768 0
730 1 0.15264 0.819284 0
732 1 0.172736 0.804164 0
761 1 0.153666 0.843501 0
763 1 0.174045 0.830009 0
733 1 0.193962 0.815966 0
764 1 0.196364 0.845228 0
735 1 0.214499 0.801558 0
736 1 0.236451 0.813237 0
734 1 0.215751 0.826902 0
767 1 0.23817 0.838663 0
708 1 0.281061 0.80953 0
738 1 0.259873 0.821894 0
769 1 0.281668 0.833767 0
768 1 0.260795 0.847519 0
741 1 0.325944 0.803648 0
739 1 0.304128 0.818441 0
740 1 0.30521 0.842039 0
771 1 0.329001 0.829802 0
742 1 0.349354 0.808844 0
773 1 0.356038 0.831932 0
744 1 0.374282 0.814396 0
774 1 0.381779 0.839775 0
775 1 0.399402 0.822111 0
746 1 0.416762 0.803883 0
748 1 0.441133 0.809334 0
777 1 0.424033 0.827667 0
776 1 0.407428 0.846658 0
779 1 0.448614 0.833104 0
750 1 0.465512 0.81334 0
1621 1 0.489857 0.820283 0
780 1 0.472195 0.83681 0
1651 1 0.498539 0.842176 0
753 1 0.0449089 0.860539 0
752 1 0.0208773 0.862677 0
783 1 0.036922 0.883108 0
782 1 0.0124948 0.887746 0
784 1 0.0649109 0.874798 0
786 1 0.083112 0.89014 0
787 1 0.0881355 0.864838 0
815 1 0.0550526 0.898361 0
817 1 0.10627 0.882807 0
789 1 0.133225 0.855983 0
788 1 0.131489 0.879934 0
790 1 0.148142 0.897756 0
791 1 0.154503 0.870854 0
762 1 0.175774 0.858005 0
793 1 0.173543 0.886417 0
795 1 0.199194 0.870035 0
765 1 0.219412 0.854277 0
796 1 0.223058 0.878428 0
825 1 0.24102 0.896844 0
766 1 0.243731 0.864609 0
797 1 0.270339 0.87 0
827 1 0.265649 0.895048 0
799 1 0.295079 0.865472 0
798 1 0.289992 0.889003 0
772 1 0.344427 0.852846 0
770 1 0.320656 0.859881 0
800 1 0.314021 0.883686 0
801 1 0.338104 0.877456 0
802 1 0.356725 0.894021 0
803 1 0.363508 0.869642 0
804 1 0.381154 0.889164 0
805 1 0.387864 0.865338 0
778 1 0.432698 0.850111 0
807 1 0.413542 0.870177 0
808 1 0.438412 0.873962 0
837 1 0.425915 0.897145 0
809 1 0.456266 0.856233 0
1681 1 0.480138 0.860766 0
1711 1 0.488914 0.884053 0
810 1 0.462358 0.879444 0
813 1 0.0300115 0.905329 0
843 1 0.0235476 0.929509 0
814 1 0.0478601 0.922432 0
844 1 0.0411179 0.947727 0
812 1 0.00541243 0.913082 0
841 1 -0.000524155 0.936514 0
816 1 0.0982534 0.909431 0
845 1 0.0716249 0.915686 0
846 1 0.0644919 0.940548 0
847 1 0.0905413 0.933215 0
819 1 0.122688 0.902728 0
818 1 0.115989 0.927701 0
820 1 0.132792 0.945993 0
821 1 0.14138 0.921452 0
792 1 0.165508 0.913714 0
851 1 0.157869 0.938836 0
823 1 0.189269 0.905794 0
822 1 0.182295 0.932825 0
794 1 0.21562 0.901886 0
824 1 0.206166 0.926659 0
885 1 0.224222 0.944869 0
855 1 0.230841 0.921047 0
856 1 0.248539 0.940149 0
826 1 0.255269 0.917073 0
857 1 0.273241 0.935327 0
828 1 0.281562 0.912595 0
859 1 0.297817 0.931709 0
831 1 0.330207 0.901676 0
829 1 0.304854 0.907698 0
830 1 0.322235 0.925689 0
861 1 0.340767 0.943389 0
832 1 0.348891 0.918092 0
863 1 0.36399 0.937221 0
833 1 0.373078 0.913588 0
834 1 0.389678 0.930665 0
806 1 0.39767 0.907746 0
835 1 0.419153 0.922713 0
836 1 0.435967 0.941506 0
865 1 0.408333 0.946398 0
870 1 0.488056 0.950602 0
838 1 0.451454 0.921929 0
869 1 0.461453 0.945226 0
839 1 0.470965 0.903865 0
840 1 0.47844 0.928545 0
1712 1 0.495653 0.907121 0
842 1 0.0167301 0.953629 0
872 1 0.0245551 0.995397 0
873 1 0.0340117 0.971556 0
871 1 0.0086336 0.977741 0
874 1 0.0506333 0.988672 0
875 1 0.0585865 0.964626 0
876 1 0.0752887 0.983735 0
848 1 0.082956 0.957633 0
877 1 0.099984 0.974481 0
7 1 0.0937948 1.00063 0
849 1 0.108379 0.950701 0
878 1 0.11715 0.992599 0
879 1 0.124781 0.969165 0
881 1 0.141488 0.986648 0
850 1 0.149694 0.963168 0
853 1 0.175196 0.958197 0
852 1 0.167104 0.981989 0
883 1 0.19227 0.977036 0
854 1 0.199035 0.951807 0
13 1 0.209195 0.99467 0
15 1 0.234457 0.988432 0
884 1 0.215921 0.970003 0
886 1 0.241023 0.964837 0
858 1 0.290243 0.955345 0
887 1 0.265558 0.95955 0
17 1 0.258806 0.983334 0
888 1 0.283919 0.979011 0
860 1 0.315376 0.94942 0
19 1 0.299329 0.998314 0
889 1 0.308995 0.973507 0
890 1 0.324717 0.991471 0
891 1 0.332674 0.968401 0
892 1 0.351056 0.986778 0
862 1 0.358027 0.962992 0
864 1 0.383068 0.954745 0
893 1 0.374893 0.980948 0
894 1 0.393569 0.998479 0
895 1 0.400342 0.973811 0
867 1 0.447913 0.964209 0
866 1 0.424196 0.96718 0
896 1 0.419255 0.992577 0
897 1 0.45146 0.989551 0
899 1 0.479067 0.992356 0
868 1 0.471645 0.970026 0
1771 1 0.495694 0.973117 0
902 1 0.536813 0.0259703 0
901 1 0.512239 0.0201249 0
931 1 0.521749 0.0439947 0
903 1 0.5299 0.00211177 0
933 1 0.545103 0.0508265 0
904 1 0.560571 0.0311195 0
906 1 0.577256 0.0133519 0
935 1 0.585666 0.037428 0
905 1 0.552872 0.00714266 0
908 1 0.601551 0.0179853 0
937 1 0.609687 0.042513 0
939 1 0.626124 0.0241355 0
910 1 0.642273 0.00691485 0
938 1 0.634387 0.0489316 0
941 1 0.65034 0.0301136 0
912 1 0.666072 0.0110939 0
942 1 0.67498 0.035471 0
943 1 0.690645 0.0163475 0
973 1 0.699511 0.0405699 0
944 1 0.715989 0.0217098 0
945 1 0.733397 0.00441969 0
946 1 0.739847 0.0289784 0
975 1 0.723664 0.0484457 0
947 1 0.758015 0.00997945 0
948 1 0.764715 0.0337168 0
918 1 0.784702 0.0181799 0
979 1 0.790136 0.0406843 0
949 1 0.809079 0.0227931 0
951 1 0.835717 0.0170455 0
950 1 0.826319 0.0394107 0
921 1 0.819415 0.000907967 0
952 1 0.853746 0.0329308 0
953 1 0.858774 0.00794006 0
924 1 0.883621 0.00451629 0
954 1 0.876941 0.0274062 0
985 1 0.893089 0.04578 0
955 1 0.901101 0.0227948 0
926 1 0.925621 0.0173433 0
957 1 0.94281 0.0358242 0
956 1 0.917341 0.0408092 0
928 1 0.950984 0.012285 0
959 1 0.967297 0.0310158 0
930 1 0.992261 0.0254416 0
929 1 0.975125 0.00828679 0
960 1 0.985388 0.0480361 0
932 1 0.527201 0.0672155 0
962 1 0.535178 0.0906663 0
961 1 0.510768 0.0846702 0
60 1 0.504251 0.0600944 0
963 1 0.553175 0.0741887 0
934 1 0.56825 0.0551585 0
965 1 0.576667 0.0783217 0
964 1 0.559234 0.0977334 0
936 1 0.592732 0.0604692 0
966 1 0.599953 0.085905 0
967 1 0.617631 0.0677774 0
968 1 0.625564 0.0902077 0
969 1 0.642265 0.0732089 0
999 1 0.649776 0.0973242 0
940 1 0.658661 0.0544376 0
970 1 0.666082 0.0784967 0
971 1 0.683 0.0603601 0
972 1 0.690602 0.0857671 0
1003 1 0.707862 0.0663999 0
1004 1 0.715778 0.0893995 0
974 1 0.733095 0.071922 0
1005 1 0.739572 0.0954606 0
976 1 0.747533 0.0525948 0
1007 1 0.756827 0.0762296 0
977 1 0.772862 0.0576394 0
978 1 0.794437 0.0684347 0
1008 1 0.785217 0.0907787 0
980 1 0.819167 0.0630838 0
981 1 0.843816 0.0571901 0
1009 1 0.810381 0.0873404 0
1011 1 0.835013 0.0813784 0
982 1 0.860217 0.0755151 0
983 1 0.869601 0.0520249 0
984 1 0.884278 0.0700986 0
1013 1 0.876462 0.092978 0
1012 1 0.852449 0.0994561 0
1015 1 0.899907 0.0891027 0
986 1 0.909603 0.0654954 0
987 1 0.933948 0.060168 0
1017 1 0.92647 0.0836228 0
988 1 0.951181 0.0781152 0
958 1 0.960023 0.0547407 0
989 1 0.97707 0.0720846 0
990 1 0.99341 0.0903334 0
1019 1 0.969274 0.0958171 0
120 1 0.50014 0.126679 0
991 1 0.51874 0.108356 0
992 1 0.523826 0.131954 0
993 1 0.542166 0.113615 0
1023 1 0.548435 0.137553 0
995 1 0.583204 0.10273 0
994 1 0.56726 0.121244 0
996 1 0.590739 0.127269 0
1025 1 0.573559 0.144728 0
1026 1 0.597831 0.151285 0
997 1 0.606995 0.108583 0
998 1 0.631617 0.115087 0
1027 1 0.616246 0.134437 0
1029 1 0.640618 0.139094 0
1001 1 0.673654 0.10259 0
1000 1 0.657735 0.120105 0
1031 1 0.681473 0.125732 0
1030 1 0.664804 0.144955 0
1002 1 0.699039 0.108768 0
1033 1 0.707146 0.131898 0
1035 1 0.723982 0.113862 0
1034 1 0.732369 0.137724 0
1036 1 0.750791 0.121443 0
1006 1 0.763325 0.10036 0
1037 1 0.776506 0.119457 0
1038 1 0.795064 0.133732 0
1067 1 0.76584 0.142127 0
1039 1 0.800759 0.110509 0
1010 1 0.827696 0.105215 0
1040 1 0.818839 0.127982 0
1041 1 0.844043 0.123907 0
1071 1 0.837119 0.14792 0
1043 1 0.8693 0.117911 0
1014 1 0.893151 0.112059 0
1044 1 0.886494 0.136149 0
1042 1 0.862211 0.141284 0
1018 1 0.943313 0.101197 0
1045 1 0.910798 0.130329 0
1016 1 0.918786 0.106527 0
1047 1 0.936562 0.124887 0
1077 1 0.927411 0.14894 0
1049 1 0.961404 0.118974 0
1020 1 0.985994 0.113173 0
1050 1 0.978754 0.136754 0
1046 1 0.953663 0.141958 0
1021 1 0.506753 0.149485 0
1022 1 0.530714 0.155509 0
1053 1 0.53901 0.179795 0
1051 1 0.512833 0.174423 0
1052 1 0.520417 0.197208 0
1024 1 0.556679 0.162883 0
1055 1 0.579706 0.170188 0
1054 1 0.562026 0.187595 0
1056 1 0.587184 0.193743 0
1028 1 0.62185 0.157897 0
1057 1 0.60493 0.175041 0
1058 1 0.630279 0.181766 0
1087 1 0.612919 0.198271 0
1059 1 0.647223 0.163081 0
1032 1 0.688426 0.149783 0
1060 1 0.654882 0.18767 0
1061 1 0.67221 0.169701 0
1091 1 0.679484 0.193516 0
1062 1 0.695793 0.174486 0
1063 1 0.713289 0.15612 0
1064 1 0.721282 0.180332 0
1095 1 0.746838 0.185537 0
1093 1 0.70451 0.198782 0
1065 1 0.737405 0.163188 0
1066 1 0.763023 0.166606 0
1068 1 0.785894 0.15564 0
1097 1 0.770776 0.189507 0
1098 1 0.796464 0.200303 0
1069 1 0.812092 0.151695 0
1070 1 0.827223 0.170796 0
1099 1 0.803259 0.174683 0
1101 1 0.845966 0.187502 0
1100 1 0.820804 0.193852 0
1072 1 0.854315 0.165764 0
1073 1 0.879008 0.159087 0
1103 1 0.87057 0.183996 0
1074 1 0.8949 0.178225 0
1075 1 0.90343 0.154887 0
1076 1 0.920367 0.172858 0
1107 1 0.937542 0.189099 0
1078 1 0.946379 0.165494 0
1105 1 0.914486 0.196147 0
1048 1 0.969711 0.160099 0
151 1 0.994089 0.156254 0
1079 1 0.987384 0.179266 0
1109 1 0.962292 0.183393 0
1083 1 0.544149 0.205147 0
1082 1 0.526239 0.221007 0
1111 1 0.509262 0.239335 0
1113 1 0.532836 0.245135 0
1081 1 0.502967 0.214153 0
1084 1 0.553064 0.22774 0
1085 1 0.569882 0.211031 0
1086 1 0.595396 0.21755 0
1115 1 0.576909 0.234018 0
1117 1 0.602586 0.241276 0
1089 1 0.637117 0.205933 0
1088 1 0.621038 0.223519 0
1119 1 0.644913 0.229537 0
1118 1 0.627006 0.247924 0
1090 1 0.66126 0.210714 0
1092 1 0.686425 0.21653 0
1121 1 0.669535 0.235622 0
1122 1 0.694979 0.240711 0
1094 1 0.730142 0.203936 0
1123 1 0.710995 0.22206 0
1124 1 0.718712 0.245507 0
1125 1 0.736845 0.227524 0
1096 1 0.754641 0.209333 0
1127 1 0.778399 0.217157 0
1126 1 0.761658 0.234315 0
1128 1 0.786717 0.239677 0
1131 1 0.839954 0.211636 0
1129 1 0.812497 0.219937 0
1130 1 0.832508 0.236556 0
1159 1 0.810403 0.246571 0
1102 1 0.864529 0.208105 0
1104 1 0.889366 0.202992 0
1132 1 0.85649 0.231899 0
1133 1 0.881466 0.226453 0
1134 1 0.897455 0.24507 0
1135 1 0.905094 0.220993 0
1106 1 0.930923 0.21358 0
1136 1 0.92247 0.238096 0
1137 1 0.94685 0.231482 0
1108 1 0.954744 0.207524 0
1110 1 0.978883 0.201928 0
1139 1 0.971004 0.226471 0
1140 1 0.987486 0.243469 0
181 1 0.996579 0.22049 0
1112 1 0.514452 0.263302 0
1143 1 0.53927 0.269652 0
1142 1 0.52117 0.287452 0
1144 1 0.546547 0.29387 0
1114 1 0.558205 0.251326 0
1116 1 0.582297 0.258471 0
1145 1 0.56371 0.274575 0
1146 1 0.58803 0.282588 0
1147 1 0.605996 0.265883 0
1149 1 0.63442 0.271278 0
1148 1 0.613908 0.288844 0
1179 1 0.640139 0.295233 0
1120 1 0.652797 0.253572 0
1151 1 0.677792 0.25958 0
1150 1 0.65832 0.277312 0