ITEM: TIMESTEP
2000
ITEM: NUMBER OF ATOMS
1800
ITEM: BOX BOUNDS pp pp pp
2.4597621238980594e-01 1.5815402378760947e+02
2.4597621238980594e-01 1.5815402378760947e+02
0.0000000000000000e+00 5.2800000000000002e+00
ITEM: ATOMS id type xs ys zs
2 1 0.00779291 0.0106172 0
3 1 0.0384261 0.00562369 0
33 1 0.0247251 0.026757 0
31 1 0.00240141 0.0346085 0
4 1 0.0544907 0.0210813 0
6 1 0.0849835 0.016252 0
35 1 0.0724089 0.0351402 0
5 1 0.066706 0.000512695 0
8 1 0.110962 0.0174769 0
9 1 0.132321 0.00935129 0
37 1 0.0965335 0.0391366 0
39 1 0.128933 0.0321116 0
10 1 0.153418 0.0205867 0
41 1 0.173349 0.0334335 0
11 1 0.166101 0.00184843 0
12 1 0.186659 0.012534 0
14 1 0.209764 0.019575 0
43 1 0.198631 0.039777 0
15 1 0.226579 0.00419914 0
16 1 0.254019 0.0121938 0
45 1 0.235691 0.0280277 0
47 1 0.266478 0.0343886 0
18 1 0.280588 0.0150736 0
20 1 0.314677 0.0102822 0
49 1 0.29885 0.0304093 0
22 1 0.354492 0.0181646 0
51 1 0.332421 0.0296359 0
24 1 0.376351 0.0117236 0
53 1 0.368036 0.0371177 0
55 1 0.394279 0.0278444 0
25 1 0.404409 0.00361977 0
26 1 0.419113 0.0236734 0
28 1 0.44626 0.0179108 0
57 1 0.436222 0.0404859 0
30 1 0.485933 0.0155049 0
59 1 0.4674 0.0310712 0
29 1 0.466408 0.00167567 0
32 1 0.0208181 0.0508856 0
62 1 0.0140869 0.0734754 0
63 1 0.035453 0.0686559 0
34 1 0.0450493 0.0423528 0
36 1 0.0792546 0.0576114 0
64 1 0.0483044 0.0880148 0
65 1 0.0569263 0.062815 0
66 1 0.075874 0.0812364 0
38 1 0.118136 0.0524032 0
67 1 0.100216 0.0673589 0
68 1 0.119598 0.0824351 0
69 1 0.136611 0.0664149 0
40 1 0.149002 0.0451881 0
70 1 0.153644 0.0883555 0
71 1 0.160337 0.0653368 0
42 1 0.1813 0.0563526 0
44 1 0.222223 0.0461571 0
72 1 0.181454 0.0816734 0
73 1 0.203468 0.0621953 0
74 1 0.217615 0.0817917 0
46 1 0.24863 0.0480373 0
75 1 0.235848 0.0665101 0
76 1 0.245207 0.0876005 0
77 1 0.26237 0.071978 0
48 1 0.286198 0.0520293 0
50 1 0.316112 0.0463096 0
78 1 0.285722 0.08146 0
79 1 0.305714 0.0693551 0
80 1 0.319577 0.0898326 0
52 1 0.345296 0.0510416 0
81 1 0.327916 0.0668992 0
82 1 0.346894 0.0798421 0
54 1 0.386579 0.0522836 0
83 1 0.366321 0.0658281 0
84 1 0.384588 0.0820133 0
85 1 0.403723 0.0670398 0
56 1 0.411259 0.0447252 0
58 1 0.456319 0.0520013 0
86 1 0.416795 0.0856449 0
87 1 0.429409 0.0633247 0
88 1 0.452564 0.0753999 0
60 1 0.488259 0.0457934 0
89 1 0.475186 0.0677263 0
90 1 0.481712 0.0907291 0
961 1 0.497923 0.0735851 0
92 1 0.0215593 0.120526 0
93 1 0.0230384 0.0970136 0
123 1 0.03961 0.135498 0
91 1 0.00170233 0.106922 0
94 1 0.0433861 0.111139 0
95 1 0.0673245 0.102565 0
96 1 0.0829483 0.11932 0
125 1 0.0601249 0.124688 0
97 1 0.0939725 0.0956771 0
98 1 0.115177 0.119161 0
99 1 0.132919 0.102384 0
127 1 0.0984252 0.136292 0
129 1 0.133429 0.1376 0
100 1 0.151608 0.117558 0
101 1 0.171709 0.102327 0
131 1 0.169871 0.131213 0
102 1 0.188799 0.118212 0
103 1 0.199596 0.0974305 0
104 1 0.212343 0.125883 0
105 1 0.224524 0.104373 0
106 1 0.247577 0.110349 0
107 1 0.269528 0.0988326 0
135 1 0.234927 0.131348 0
137 1 0.258484 0.130947 0
108 1 0.281822 0.119881 0
109 1 0.299118 0.10305 0
110 1 0.317752 0.118641 0
139 1 0.300137 0.136428 0
111 1 0.339164 0.104041 0
112 1 0.357823 0.1183 0
141 1 0.339975 0.132935 0
113 1 0.36592 0.0961277 0
114 1 0.380833 0.117417 0
115 1 0.399352 0.103036 0
143 1 0.366272 0.140257 0
145 1 0.403807 0.125988 0
116 1 0.422566 0.109666 0
117 1 0.438261 0.0930685 0
118 1 0.444687 0.118877 0
147 1 0.427935 0.137302 0
1021 1 0.492576 0.13507 0
119 1 0.460583 0.100021 0
120 1 0.486473 0.112918 0
149 1 0.467982 0.128283 0
122 1 0.0171588 0.145267 0
151 1 0.00108653 0.162351 0
153 1 0.0290248 0.167302 0
124 1 0.0508954 0.154574 0
126 1 0.0754848 0.144771 0
155 1 0.0725697 0.166994 0
154 1 0.0526922 0.179624 0
128 1 0.115936 0.151775 0
157 1 0.0948157 0.161615 0
159 1 0.136416 0.161784 0
158 1 0.116057 0.176322 0
130 1 0.153684 0.148147 0
161 1 0.166176 0.176363 0
132 1 0.176842 0.155835 0
133 1 0.194541 0.141664 0
134 1 0.217835 0.149866 0
163 1 0.197788 0.164414 0
136 1 0.255147 0.153358 0
165 1 0.235684 0.167327 0
167 1 0.271653 0.169666 0
138 1 0.277171 0.145676 0
140 1 0.31989 0.148905 0
169 1 0.295436 0.160418 0
170 1 0.312481 0.182373 0
142 1 0.349901 0.156364 0
171 1 0.332466 0.169326 0
172 1 0.354744 0.179096 0
144 1 0.388926 0.145754 0
173 1 0.373003 0.162401 0
175 1 0.396143 0.171127 0
146 1 0.412093 0.15451 0
148 1 0.452708 0.148683 0
177 1 0.434103 0.163547 0
150 1 0.475271 0.152824 0
179 1 0.463225 0.174481 0
152 1 0.012433 0.182667 0
182 1 0.0210784 0.215276 0
183 1 0.0333121 0.193984 0
181 1 0.00153435 0.204239 0
156 1 0.0810287 0.189379 0
184 1 0.0446448 0.21678 0
185 1 0.0623278 0.202643 0
186 1 0.0853213 0.215712 0
187 1 0.101905 0.199152 0
188 1 0.116112 0.22006 0
189 1 0.124745 0.197755 0
160 1 0.144038 0.184361 0
190 1 0.140598 0.214096 0
191 1 0.161907 0.199838 0
162 1 0.18718 0.18643 0
164 1 0.214889 0.18045 0
192 1 0.184384 0.210131 0
193 1 0.207744 0.203518 0
194 1 0.220445 0.222601 0
166 1 0.251709 0.186503 0
195 1 0.231151 0.200217 0
196 1 0.253341 0.212671 0
197 1 0.271878 0.198279 0
168 1 0.289921 0.182515 0
198 1 0.279543 0.220925 0
199 1 0.297707 0.204291 0
200 1 0.319918 0.211358 0
201 1 0.335909 0.192529 0
202 1 0.343064 0.214042 0
174 1 0.385926 0.191109 0
203 1 0.363384 0.199274 0
204 1 0.384541 0.216443 0
205 1 0.405283 0.208157 0
176 1 0.417037 0.182049 0
178 1 0.446986 0.188944 0
206 1 0.422622 0.225105 0
207 1 0.42875 0.202402 0
208 1 0.449053 0.213889 0
180 1 0.486904 0.178817 0
209 1 0.470735 0.198464 0
210 1 0.484705 0.221772 0
479 1 0.475968 0.496701 0
212 1 0.00948266 0.249405 0
213 1 0.0350262 0.237783 0
243 1 0.0310517 0.2611 0
214 1 0.0560902 0.253828 0
215 1 0.0662005 0.227297 0
216 1 0.0790177 0.247584 0
245 1 0.0703416 0.273079 0
217 1 0.0981156 0.235048 0
218 1 0.115467 0.252663 0
219 1 0.134594 0.237315 0
247 1 0.0941788 0.265921 0
249 1 0.139594 0.265821 0
220 1 0.15589 0.245895 0
221 1 0.16486 0.222924 0
251 1 0.164044 0.268722 0
222 1 0.181762 0.249816 0
223 1 0.197499 0.229648 0
224 1 0.218006 0.245731 0
253 1 0.202455 0.266038 0
225 1 0.241232 0.234161 0
226 1 0.246908 0.25824 0
227 1 0.263303 0.238947 0
255 1 0.225984 0.26714 0
257 1 0.269627 0.260587 0
228 1 0.285671 0.245243 0
229 1 0.304299 0.22949 0
230 1 0.31065 0.251633 0
259 1 0.292344 0.269876 0
231 1 0.330883 0.237832 0
232 1 0.35346 0.247049 0
261 1 0.338222 0.26369 0
233 1 0.363732 0.225455 0
234 1 0.378081 0.244235 0
235 1 0.399382 0.235194 0
263 1 0.365041 0.268639 0
265 1 0.395558 0.258536 0
236 1 0.417772 0.249465 0
237 1 0.440533 0.240132 0
267 1 0.433988 0.267603 0
238 1 0.45465 0.257463 0
239 1 0.464361 0.234678 0
240 1 0.485859 0.246325 0
269 1 0.473372 0.271138 0
1141 1 0.497533 0.268322 0
271 1 0.00474177 0.299528 0
242 1 0.0186803 0.280638 0
272 1 0.0224827 0.317241 0
273 1 0.0371525 0.297028 0
244 1 0.0487854 0.276449 0
246 1 0.086076 0.290056 0
274 1 0.0474828 0.31951 0
275 1 0.0613176 0.297407 0
276 1 0.0823368 0.312915 0
248 1 0.11495 0.27562 0
277 1 0.105381 0.304103 0
279 1 0.12947 0.293489 0
250 1 0.152392 0.289312 0
280 1 0.144642 0.311036 0
281 1 0.169254 0.305848 0
252 1 0.18259 0.2839 0
254 1 0.213371 0.287024 0
283 1 0.195889 0.30313 0
284 1 0.221608 0.312162 0
256 1 0.256984 0.280653 0
285 1 0.23674 0.292248 0
287 1 0.261423 0.305258 0
258 1 0.278566 0.289165 0
260 1 0.317039 0.274185 0
288 1 0.287325 0.312994 0
289 1 0.301412 0.292205 0
290 1 0.309561 0.316392 0
262 1 0.346882 0.285834 0
291 1 0.325392 0.297193 0
292 1 0.346763 0.308888 0
264 1 0.386559 0.28186 0
293 1 0.369692 0.301157 0
294 1 0.3881 0.31795 0
295 1 0.402773 0.298879 0
266 1 0.41157 0.276065 0
268 1 0.453089 0.282586 0
296 1 0.417635 0.316592 0
297 1 0.429983 0.293202 0
298 1 0.442635 0.315803 0
270 1 0.485027 0.290415 0
299 1 0.465821 0.304105 0
300 1 0.486436 0.318827 0
302 1 0.0147344 0.355505 0
303 1 0.0344592 0.339975 0
301 1 0.00335211 0.331598 0
304 1 0.0570096 0.352345 0
305 1 0.0697654 0.332334 0
306 1 0.0870771 0.348955 0
278 1 0.121606 0.321717 0
307 1 0.0994819 0.327688 0
308 1 0.109928 0.352741 0
309 1 0.138946 0.338299 0
339 1 0.136758 0.362487 0
310 1 0.156747 0.353447 0
311 1 0.160304 0.328933 0
312 1 0.180525 0.346119 0
282 1 0.183992 0.323385 0
313 1 0.205383 0.330738 0
314 1 0.210634 0.353933 0
286 1 0.242969 0.319114 0
315 1 0.229593 0.338418 0
316 1 0.251887 0.347338 0
317 1 0.268256 0.328488 0
318 1 0.279806 0.351592 0
319 1 0.302348 0.338663 0
320 1 0.324433 0.352708 0
321 1 0.331255 0.326968 0
322 1 0.34704 0.346613 0
323 1 0.364283 0.32572 0
324 1 0.375442 0.34729 0
325 1 0.401662 0.339081 0
326 1 0.417645 0.357865 0
327 1 0.428802 0.337892 0
328 1 0.450555 0.34796 0
1201 1 0.493353 0.341387 0
329 1 0.465645 0.328186 0
330 1 0.473583 0.353434 0
332 1 0.0171372 0.37745 0
333 1 0.0394073 0.369008 0
363 1 0.0348368 0.395974 0
361 1 0.00516042 0.398393 0
334 1 0.05692 0.384966 0
335 1 0.0725757 0.368731 0
336 1 0.0799881 0.390513 0
365 1 0.0615066 0.407482 0
337 1 0.0959066 0.373361 0
338 1 0.118602 0.375508 0
367 1 0.103393 0.394654 0
369 1 0.126856 0.397034 0
340 1 0.146377 0.383899 0
341 1 0.168683 0.374471 0
371 1 0.165404 0.399235 0
342 1 0.188298 0.391169 0
343 1 0.191151 0.366572 0
344 1 0.210993 0.378322 0
373 1 0.205949 0.404313 0
345 1 0.234368 0.364791 0
346 1 0.246773 0.385861 0
347 1 0.265566 0.37104 0
375 1 0.227728 0.398309 0
377 1 0.269952 0.393555 0
348 1 0.290943 0.381442 0
349 1 0.301717 0.36125 0
350 1 0.314375 0.380221 0
379 1 0.300837 0.403262 0
351 1 0.337597 0.372967 0
352 1 0.354038 0.391024 0
381 1 0.329875 0.397932 0
353 1 0.359709 0.365507 0
354 1 0.376734 0.381434 0
355 1 0.393105 0.363523 0
383 1 0.371848 0.406071 0
385 1 0.395382 0.396403 0
356 1 0.412193 0.379712 0
357 1 0.43478 0.373729 0
358 1 0.451661 0.392272 0
387 1 0.427571 0.396732 0
1261 1 0.492006 0.400263 0
1231 1 0.496767 0.365287 0
359 1 0.45787 0.370531 0
360 1 0.478563 0.379962 0
389 1 0.470485 0.407437 0
362 1 0.0201983 0.41765 0
391 1 0.00551877 0.434906 0
393 1 0.0298079 0.44073 0
364 1 0.0453067 0.423355 0
366 1 0.0893046 0.413166 0
394 1 0.0540919 0.44517 0
395 1 0.0720416 0.428017 0
396 1 0.0778139 0.451578 0
368 1 0.115809 0.42042 0
397 1 0.096705 0.43548 0
398 1 0.116008 0.45065 0
399 1 0.137078 0.437002 0
370 1 0.144662 0.413229 0
400 1 0.155132 0.451779 0
401 1 0.163139 0.428011 0
402 1 0.177566 0.4504 0
372 1 0.185022 0.414118 0
374 1 0.221116 0.421388 0
403 1 0.198636 0.43422 0
404 1 0.220677 0.446093 0
376 1 0.251116 0.408968 0
405 1 0.241078 0.433971 0
406 1 0.255118 0.456468 0
407 1 0.264525 0.431114 0
378 1 0.279362 0.414675 0
380 1 0.317258 0.421038 0
408 1 0.278229 0.450941 0
409 1 0.295863 0.431504 0
410 1 0.313485 0.447559 0
382 1 0.348269 0.413515 0
411 1 0.335933 0.436583 0
412 1 0.357435 0.449585 0
384 1 0.388938 0.422238 0
413 1 0.366489 0.428845 0
414 1 0.381373 0.447962 0
415 1 0.403801 0.439483 0
386 1 0.411323 0.413949 0
388 1 0.442997 0.415605 0
416 1 0.419259 0.456602 0
417 1 0.426994 0.43165 0
418 1 0.443359 0.447442 0
390 1 0.486812 0.424269 0
419 1 0.462006 0.429297 0
420 1 0.478474 0.448315 0
392 1 0.01113 0.456633 0
422 1 0.0151334 0.478414 0
423 1 0.039234 0.464207 0
453 1 0.0273861 0.499321 0
424 1 0.049375 0.488729 0
425 1 0.0634263 0.468825 0
426 1 0.0796711 0.488315 0
427 1 0.0963569 0.466619 0
428 1 0.120066 0.48046 0
429 1 0.13628 0.463836 0
430 1 0.147266 0.486556 0
431 1 0.165703 0.472242 0
461 1 0.172029 0.495568 0
432 1 0.189264 0.479584 0
433 1 0.200927 0.457935 0
434 1 0.211176 0.47907 0
435 1 0.230545 0.466794 0
436 1 0.250923 0.479062 0
437 1 0.275113 0.474744 0
465 1 0.231228 0.491059 0
467 1 0.263093 0.49957 0
438 1 0.293493 0.490315 0
439 1 0.297798 0.467344 0
442 1 0.346695 0.481093 0
441 1 0.334746 0.459711 0
440 1 0.31934 0.479239 0
445 1 0.39515 0.468351 0
444 1 0.380089 0.491037 0
443 1 0.368655 0.470271 0
448 1 0.452151 0.490893 0
447 1 0.438693 0.471742 0
446 1 0.418085 0.482535 0
450 1 0.486622 0.476667 0
449 1 0.461809 0.465317 0
451 1 0.0014303 0.497682 0
457 1 0.103023 0.496651 0
21 1 0.338817 0.00164701 0
211 1 0.00167204 0.22695 0
475 1 0.400772 0.499742 0
27 1 0.427997 0.00164064 0
452 1 0.0162703 0.51938 0
483 1 0.0287258 0.537358 0
454 1 0.0409652 0.517506 0
456 1 0.0863056 0.515434 0
485 1 0.0655271 0.528707 0
455 1 0.0639703 0.50593 0
458 1 0.115012 0.520717 0
459 1 0.13254 0.504033 0
487 1 0.0985675 0.537629 0
489 1 0.139647 0.531562 0
899 1 0.470981 0.9751 0
460 1 0.156319 0.51378 0
491 1 0.165203 0.539508 0
462 1 0.179114 0.518829 0
463 1 0.199 0.503604 0
464 1 0.221191 0.513844 0
493 1 0.202101 0.526193 0
466 1 0.244442 0.512675 0
495 1 0.23394 0.5382 0
497 1 0.264706 0.524063 0
468 1 0.28517 0.512908 0
469 1 0.310278 0.504589 0
499 1 0.300784 0.52895 0
470 1 0.322652 0.523998 0
471 1 0.333656 0.501567 0
472 1 0.347174 0.522509 0
501 1 0.335728 0.544073 0
474 1 0.38164 0.514596 0
1681 1 0.498613 0.866342 0
503 1 0.36846 0.533967 0
505 1 0.394775 0.537332 0
473 1 0.35843 0.502918 0
476 1 0.413192 0.520682 0
478 1 0.457701 0.51605 0
507 1 0.435283 0.527434 0
477 1 0.432879 0.503942 0
480 1 0.479803 0.520988 0
509 1 0.467801 0.539645 0
482 1 0.00849473 0.550841 0
512 1 0.0204707 0.578208 0
513 1 0.0324079 0.559953 0
484 1 0.0538876 0.549173 0
486 1 0.0786693 0.548614 0
514 1 0.0459422 0.578726 0
515 1 0.0681391 0.569112 0
516 1 0.0852336 0.586371 0
488 1 0.121627 0.548696 0
517 1 0.0999893 0.563745 0
518 1 0.112527 0.587411 0
519 1 0.13111 0.571753 0
490 1 0.14745 0.555508 0
520 1 0.156079 0.577462 0
521 1 0.174168 0.562526 0
522 1 0.178382 0.588031 0
492 1 0.189233 0.545139 0
494 1 0.210951 0.551066 0
523 1 0.195705 0.571338 0
524 1 0.220152 0.58057 0
496 1 0.257576 0.547593 0
525 1 0.234223 0.561696 0
526 1 0.250409 0.578266 0
527 1 0.271751 0.566613 0
498 1 0.281732 0.544199 0
500 1 0.309768 0.551024 0
528 1 0.28137 0.588453 0
529 1 0.293846 0.568812 0
530 1 0.313863 0.579075 0
502 1 0.356021 0.555339 0
531 1 0.333223 0.566315 0
532 1 0.341724 0.588132 0
504 1 0.37978 0.554317 0
533 1 0.370241 0.57452 0
534 1 0.390854 0.585634 0
535 1 0.402082 0.563875 0
506 1 0.418183 0.546304 0
508 1 0.444769 0.549148 0
536 1 0.414694 0.586754 0
537 1 0.431358 0.569322 0
538 1 0.454001 0.581672 0
510 1 0.490255 0.551466 0
539 1 0.465579 0.562507 0
540 1 0.484261 0.574701 0
541 1 0.00519956 0.595091 0
542 1 0.0196536 0.616235 0
543 1 0.0360416 0.600081 0
573 1 0.0302671 0.639795 0
571 1 0.00610423 0.636158 0
544 1 0.0479931 0.622372 0
545 1 0.0620692 0.599468 0
546 1 0.0793472 0.619724 0
575 1 0.0678538 0.639118 0
547 1 0.0991836 0.605725 0
548 1 0.122289 0.611995 0
549 1 0.138491 0.593695 0
577 1 0.104413 0.628217 0
579 1 0.126937 0.63846 0
550 1 0.144332 0.620503 0
551 1 0.160036 0.60305 0
581 1 0.164765 0.629946 0
552 1 0.1845 0.616114 0
553 1 0.20182 0.596651 0
554 1 0.221123 0.613143 0
583 1 0.20492 0.631154 0
555 1 0.237449 0.597159 0
556 1 0.245281 0.622872 0
557 1 0.2611 0.601501 0
585 1 0.228209 0.63819 0
587 1 0.267451 0.630603 0
558 1 0.282665 0.612183 0
559 1 0.303352 0.598338 0
560 1 0.30888 0.621463 0
589 1 0.292011 0.635466 0
561 1 0.325932 0.604622 0
562 1 0.348169 0.611489 0
591 1 0.33623 0.631185 0
563 1 0.366398 0.596542 0
564 1 0.380185 0.614738 0
565 1 0.402652 0.606723 0
593 1 0.361465 0.632206 0
595 1 0.400787 0.629732 0
566 1 0.422957 0.619296 0
567 1 0.436423 0.597959 0
568 1 0.45683 0.612549 0
597 1 0.441821 0.632087 0
1441 1 0.495963 0.59875 0
569 1 0.47183 0.595865 0
570 1 0.480974 0.622611 0
599 1 0.463959 0.639605 0
572 1 0.0133165 0.659565 0
603 1 0.0348943 0.670151 0
574 1 0.0486273 0.651418 0
576 1 0.0893784 0.646777 0
605 1 0.0710342 0.662066 0
578 1 0.111223 0.655475 0
607 1 0.0980261 0.67358 0
609 1 0.131766 0.666271 0
580 1 0.14985 0.651735 0
611 1 0.1705 0.661614 0
610 1 0.15398 0.67691 0
582 1 0.185245 0.6442 0
584 1 0.214114 0.656604 0
613 1 0.19403 0.668113 0
614 1 0.218293 0.680116 0
586 1 0.250053 0.646049 0
615 1 0.237511 0.667133 0
617 1 0.26118 0.672534 0
588 1 0.27694 0.654643 0
590 1 0.315343 0.644185 0
619 1 0.302853 0.665085 0
618 1 0.284903 0.678032 0
592 1 0.351522 0.653782 0
621 1 0.327394 0.664741 0
622 1 0.346517 0.676416 0
594 1 0.381559 0.647399 0
623 1 0.369139 0.668459 0
625 1 0.400648 0.661617 0
596 1 0.421512 0.645488 0
598 1 0.444814 0.655753 0
627 1 0.425678 0.669396 0
600 1 0.48601 0.647536 0
629 1 0.467468 0.664201 0
630 1 0.485079 0.681492 0
602 1 0.0162064 0.682469 0
632 1 0.0159762 0.710318 0
633 1 0.0349984 0.695731 0
604 1 0.0551393 0.682579 0
606 1 0.0775627 0.684436 0
634 1 0.0483469 0.717132 0
635 1 0.067733 0.704677 0
636 1 0.0824748 0.72278 0
608 1 0.117594 0.685219 0
637 1 0.0949052 0.702369 0
638 1 0.120723 0.709426 0
639 1 0.139586 0.69645 0
640 1 0.149179 0.722257 0
641 1 0.163539 0.703009 0
612 1 0.181299 0.689192 0
642 1 0.18667 0.71159 0
643 1 0.204908 0.69858 0
644 1 0.210634 0.721773 0
616 1 0.245617 0.691183 0
645 1 0.22802 0.705469 0
646 1 0.255802 0.71353 0
647 1 0.269909 0.695399 0
620 1 0.317199 0.686017 0
648 1 0.281591 0.717882 0
649 1 0.295257 0.698062 0
650 1 0.315047 0.709457 0
651 1 0.340124 0.699247 0
652 1 0.351402 0.719638 0
624 1 0.386767 0.683684 0
653 1 0.363189 0.694029 0
654 1 0.376011 0.715597 0
655 1 0.397417 0.704468 0
626 1 0.409208 0.684334 0
656 1 0.422998 0.717384 0
657 1 0.43182 0.694123 0
658 1 0.448167 0.710865 0
1531 1 0.497479 0.702073 0
628 1 0.457471 0.687034 0
659 1 0.472549 0.705738 0
660 1 0.485779 0.724216 0
662 1 0.0147646 0.749209 0
663 1 0.0303398 0.731025 0
691 1 0.00491551 0.770861 0
693 1 0.0286256 0.770943 0
664 1 0.0433378 0.752309 0
665 1 0.0616865 0.735876 0
666 1 0.0893491 0.745131 0
695 1 0.0703074 0.759144 0
667 1 0.105475 0.727533 0
668 1 0.110033 0.751537 0
669 1 0.128213 0.733098 0
697 1 0.0988092 0.77347 0
699 1 0.134371 0.758395 0
670 1 0.153279 0.745583 0
671 1 0.172208 0.73082 0
701 1 0.162215 0.771459 0
672 1 0.178738 0.755206 0
673 1 0.194943 0.738384 0
674 1 0.219606 0.744503 0
703 1 0.202661 0.760955 0
675 1 0.237252 0.72841 0
676 1 0.247184 0.754228 0
677 1 0.26376 0.736414 0
705 1 0.227711 0.76769 0
707 1 0.270788 0.76541 0
678 1 0.288165 0.748961 0
679 1 0.304773 0.729904 0
680 1 0.31123 0.752878 0
709 1 0.297262 0.773236 0
681 1 0.328804 0.732009 0
682 1 0.346069 0.751754 0
711 1 0.328899 0.769312 0
683 1 0.366961 0.73767 0
684 1 0.389026 0.749301 0
685 1 0.399182 0.728067 0
713 1 0.368896 0.761556 0
715 1 0.40669 0.763491 0
686 1 0.418641 0.740875 0
687 1 0.440589 0.733058 0
688 1 0.453714 0.751636 0
717 1 0.429813 0.762028 0
689 1 0.463783 0.728153 0
690 1 0.478911 0.745844 0
719 1 0.471933 0.769005 0
1591 1 0.496792 0.765617 0
692 1 0.0144792 0.791016 0
722 1 0.0238019 0.811958 0
723 1 0.0395022 0.79544 0
694 1 0.0529624 0.774412 0
696 1 0.0782874 0.783125 0
724 1 0.048053 0.820357 0
725 1 0.0625115 0.799306 0
726 1 0.0817397 0.811814 0
698 1 0.119976 0.783617 0
727 1 0.0996937 0.795805 0
728 1 0.114675 0.814782 0
729 1 0.136971 0.807268 0
700 1 0.143352 0.783207 0
730 1 0.157709 0.819299 0
731 1 0.161536 0.796325 0
732 1 0.18151 0.810334 0
702 1 0.188125 0.784801 0
704 1 0.211469 0.783413 0
733 1 0.203813 0.804492 0
706 1 0.250737 0.780533 0
735 1 0.232309 0.79633 0
736 1 0.242702 0.817652 0
737 1 0.260006 0.804051 0
708 1 0.280373 0.790843 0
710 1 0.316243 0.789864 0
738 1 0.280089 0.818344 0
739 1 0.301975 0.808401 0
712 1 0.351408 0.776102 0
741 1 0.337479 0.799563 0
742 1 0.35484 0.814958 0
714 1 0.387524 0.77708 0
743 1 0.371524 0.795208 0
744 1 0.378395 0.819995 0
745 1 0.394547 0.801021 0
716 1 0.415622 0.786208 0
718 1 0.448803 0.775258 0
746 1 0.420054 0.809078 0
747 1 0.441666 0.797285 0
748 1 0.455607 0.815656 0
1621 1 0.498242 0.808912 0
720 1 0.487821 0.78824 0
749 1 0.463539 0.792509 0
751 1 0.0051708 0.827472 0
752 1 0.0138276 0.852294 0
753 1 0.0279958 0.833881 0
754 1 0.0470698 0.848967 0
755 1 0.0686797 0.83398 0
756 1 0.0882705 0.851912 0
757 1 0.0965128 0.830343 0
758 1 0.11453 0.848013 0
759 1 0.134041 0.830915 0
789 1 0.137277 0.856486 0
760 1 0.156325 0.843148 0
761 1 0.176225 0.832072 0
734 1 0.219857 0.821341 0
762 1 0.186399 0.853887 0
763 1 0.198169 0.827714 0
764 1 0.212329 0.846945 0
765 1 0.235159 0.841238 0
766 1 0.251582 0.85559 0
767 1 0.261335 0.832248 0
795 1 0.227697 0.864115 0
740 1 0.32044 0.824713 0
768 1 0.276074 0.851148 0
769 1 0.296076 0.836229 0
799 1 0.298436 0.859043 0
770 1 0.320378 0.847592 0
771 1 0.341382 0.835651 0
772 1 0.350258 0.857654 0
773 1 0.364834 0.83842 0
774 1 0.387465 0.844981 0
775 1 0.402721 0.8253 0
776 1 0.411682 0.848819 0
777 1 0.430545 0.83126 0
778 1 0.444063 0.851602 0
750 1 0.478121 0.819014 0
779 1 0.463629 0.837702 0
780 1 0.484414 0.847768 0
782 1 0.0133395 0.886965 0
783 1 0.0313065 0.869555 0
813 1 0.0365367 0.898059 0
784 1 0.053897 0.881344 0
785 1 0.0681613 0.862857 0
786 1 0.082136 0.885835 0
815 1 0.0643757 0.902994 0
787 1 0.101956 0.8709 0
788 1 0.124547 0.877438 0
817 1 0.106528 0.89384 0
819 1 0.132298 0.90188 0
790 1 0.147802 0.880992 0
791 1 0.165121 0.866373 0
821 1 0.160508 0.901665 0
792 1 0.180783 0.887852 0
793 1 0.199975 0.872539 0
794 1 0.222197 0.886124 0
823 1 0.202023 0.898005 0
796 1 0.244214 0.879944 0
797 1 0.269006 0.872433 0
825 1 0.233278 0.907151 0
827 1 0.258951 0.896495 0
798 1 0.287472 0.885508 0
800 1 0.309988 0.879198 0
829 1 0.302825 0.903983 0
801 1 0.331206 0.869633 0
802 1 0.354948 0.881882 0
831 1 0.330983 0.893355 0
803 1 0.374304 0.866277 0
804 1 0.386426 0.89093 0
805 1 0.396938 0.867289 0
833 1 0.36361 0.903444 0
835 1 0.405686 0.908925 0
806 1 0.411283 0.884704 0
807 1 0.427681 0.867781 0
808 1 0.447987 0.88472 0
837 1 0.429231 0.900469 0
809 1 0.465295 0.866241 0
810 1 0.483267 0.883125 0
839 1 0.467231 0.900917 0
812 1 0.0168244 0.910514 0
842 1 0.0122571 0.950568 0
843 1 0.0278735 0.932532 0
814 1 0.0478424 0.919267 0
816 1 0.0894056 0.911257 0
844 1 0.0504087 0.942199 0
845 1 0.073415 0.932283 0
846 1 0.0868826 0.955356 0
818 1 0.113002 0.916118 0
847 1 0.0983514 0.934273 0
848 1 0.111987 0.952279 0
849 1 0.127753 0.935409 0
820 1 0.147192 0.922187 0
850 1 0.150597 0.946191 0
851 1 0.170741 0.932924 0
852 1 0.178649 0.957929 0
822 1 0.184388 0.911889 0
824 1 0.210842 0.919761 0
853 1 0.192691 0.93741 0
854 1 0.217172 0.949685 0
826 1 0.255555 0.91927 0
855 1 0.232791 0.931015 0
856 1 0.253962 0.944215 0
857 1 0.273838 0.933583 0
828 1 0.27901 0.907554 0
858 1 0.287067 0.952866 0
859 1 0.295452 0.924835 0
860 1 0.309202 0.943994 0
830 1 0.31976 0.919987 0
832 1 0.343376 0.914336 0
861 1 0.335453 0.939424 0
862 1 0.353038 0.954797 0
834 1 0.383322 0.916409 0
863 1 0.361053 0.92822 0
864 1 0.378541 0.944025 0
865 1 0.401696 0.932394 0
836 1 0.424361 0.92377 0
838 1 0.448111 0.913594 0
866 1 0.420183 0.948823 0
867 1 0.443141 0.936982 0
1741 1 0.497335 0.936325 0
868 1 0.456273 0.956008 0
840 1 0.486415 0.914843 0
869 1 0.465729 0.928767 0
870 1 0.478177 0.949462 0
872 1 0.0220024 0.989159 0
873 1 0.0293667 0.966447 0
871 1 0.0035658 0.974658 0
874 1 0.0483707 0.983649 0
875 1 0.0605053 0.962184 0
876 1 0.0799267 0.977998 0
877 1 0.103002 0.973373 0
878 1 0.12121 0.98754 0
879 1 0.134268 0.966742 0
7 1 0.0976924 0.996193 0
880 1 0.146081 0.989727 0
881 1 0.157808 0.970745 0
13 1 0.203454 0.993419 0
882 1 0.180359 0.981763 0
883 1 0.202263 0.969562 0
884 1 0.223708 0.981235 0
885 1 0.237017 0.96191 0
886 1 0.24592 0.990117 0
887 1 0.260412 0.970109 0
17 1 0.269561 0.994797 0
888 1 0.282584 0.976609 0
889 1 0.304904 0.969596 0
890 1 0.320639 0.987408 0
19 1 0.295037 0.995379 0
892 1 0.344743 0.976194 0
900 1 0.48861 0.990795 0
891 1 0.328091 0.960781 0
23 1 0.360894 0.99315 0
893 1 0.372042 0.969023 0
895 1 0.396298 0.96252 0
894 1 0.386303 0.987546 0
898 1 0.448308 0.986283 0
897 1 0.436031 0.966603 0
896 1 0.414465 0.980483 0
661 1 0.000526153 0.731721 0
1771 1 0.493989 0.966722 0
902 1 0.528589 0.0182626 0
933 1 0.5336 0.0409894 0
901 1 0.508916 0.00494756 0
931 1 0.50561 0.029144 0
904 1 0.549998 0.0212378 0
906 1 0.588334 0.0146536 0
935 1 0.573154 0.0307089 0
909 1 0.632376 0.00701207 0
908 1 0.610805 0.0199034 0
937 1 0.59629 0.0386016 0
939 1 0.638118 0.0283228 0
910 1 0.655722 0.0138483 0
941 1 0.668441 0.0371977 0
912 1 0.678493 0.0159139 0
914 1 0.722585 0.0185781 0
943 1 0.699525 0.0290857 0
913 1 0.698717 0.00522167 0
916 1 0.753589 0.0141808 0
945 1 0.736514 0.0369891 0
947 1 0.761332 0.0386841 0
905 1 0.566796 0.00312505 0
918 1 0.778668 0.0230711 0
919 1 0.796177 0.00740282 0
920 1 0.818262 0.0136691 0
949 1 0.802079 0.0317987 0
922 1 0.848003 0.0112366 0
951 1 0.832327 0.0332256 0
953 1 0.859087 0.0331165 0
924 1 0.880437 0.0198951 0
925 1 0.902586 0.00661478 0
955 1 0.90546 0.0320352 0
926 1 0.926341 0.0170959 0
928 1 0.948551 0.0100352 0
957 1 0.935576 0.0412159 0
930 1 0.981672 0.0190899 0
959 1 0.958624 0.0304948 0
932 1 0.511701 0.0540693 0
962 1 0.520621 0.0808411 0
963 1 0.537249 0.0629111 0
934 1 0.555837 0.0470949 0
936 1 0.578303 0.0559023 0
964 1 0.546276 0.0883078 0
965 1 0.559962 0.0703349 0
966 1 0.5892 0.079263 0
938 1 0.619712 0.0424505 0
967 1 0.60493 0.0599933 0
968 1 0.612445 0.0846173 0
969 1 0.628207 0.0664863 0
940 1 0.644992 0.0506673 0
970 1 0.649608 0.077917 0
971 1 0.665913 0.0623684 0
972 1 0.676403 0.0827561 0
942 1 0.689534 0.0529594 0
944 1 0.713537 0.0464069 0
973 1 0.703812 0.0716683 0
974 1 0.721757 0.0904323 0
946 1 0.749926 0.0591348 0
975 1 0.726686 0.0654659 0
976 1 0.743065 0.0844175 0
977 1 0.768559 0.0730859 0
948 1 0.782073 0.0473703 0
950 1 0.814252 0.054051 0
978 1 0.786358 0.0894123 0
979 1 0.793903 0.0663752 0
980 1 0.809908 0.0823483 0
952 1 0.848768 0.0565322 0
981 1 0.832381 0.0736918 0
982 1 0.854785 0.0835428 0
954 1 0.88301 0.0432198 0
983 1 0.871513 0.0647933 0
984 1 0.880493 0.0897478 0
985 1 0.894423 0.0650343 0
956 1 0.915214 0.0526394 0
958 1 0.953122 0.0579304 0
986 1 0.910178 0.0826022 0
987 1 0.932105 0.0692307 0
988 1 0.950159 0.0838846 0
61 1 0.998397 0.0579688 0
960 1 0.976751 0.0452796 0
989 1 0.972117 0.0720866 0
990 1 0.993881 0.0834689 0
991 1 0.50468 0.0979597 0
992 1 0.51326 0.121893 0
993 1 0.528114 0.103652 0
1023 1 0.535789 0.127056 0
994 1 0.552527 0.11002 0
995 1 0.569784 0.0936346 0
996 1 0.575964 0.116419 0
1025 1 0.569547 0.138058 0
997 1 0.596578 0.102046 0
998 1 0.619509 0.117602 0
999 1 0.634513 0.0964817 0
1027 1 0.597182 0.128036 0
1000 1 0.645712 0.120418 0
1001 1 0.661702 0.103102 0
1031 1 0.668362 0.130031 0
1002 1 0.684341 0.112473 0
1003 1 0.697737 0.0947349 0
1004 1 0.710804 0.113996 0
1033 1 0.693932 0.135191 0
1005 1 0.73988 0.106344 0
1006 1 0.75772 0.121334 0
1007 1 0.762526 0.0957165 0
1035 1 0.730326 0.128991 0
1037 1 0.773673 0.137291 0
1008 1 0.779488 0.113246 0
1009 1 0.804485 0.105443 0
1039 1 0.795492 0.130528 0
1010 1 0.819481 0.122629 0
1011 1 0.830557 0.0957685 0
1012 1 0.842525 0.116323 0
1013 1 0.863179 0.105695 0
1043 1 0.861587 0.13084 0
1014 1 0.882216 0.120132 0
1015 1 0.901552 0.104521 0
1045 1 0.899032 0.135953 0
1016 1 0.916833 0.121393 0
1017 1 0.928787 0.101006 0
1018 1 0.952687 0.109445 0
1047 1 0.939694 0.128024 0
121 1 0.99777 0.130493 0
1019 1 0.972685 0.0950316 0
1020 1 0.977746 0.118299 0
1049 1 0.962087 0.134931 0
1022 1 0.521183 0.146361 0
1051 1 0.500083 0.158504 0
1053 1 0.533565 0.168996 0
1052 1 0.511246 0.181282 0
1024 1 0.546191 0.149929 0
1026 1 0.587645 0.153673 0
1055 1 0.565691 0.161581 0
1029 1 0.63124 0.137813 0
1028 1 0.61153 0.150078 0
1057 1 0.600844 0.172258 0
1059 1 0.632744 0.162845 0
1030 1 0.653349 0.149567 0
1061 1 0.664851 0.172239 0
1032 1 0.677533 0.15285 0
1034 1 0.71701 0.148102 0
1063 1 0.698998 0.162682 0
1036 1 0.749336 0.143723 0
1065 1 0.735437 0.167228 0
1067 1 0.767025 0.159513 0
1038 1 0.79184 0.152277 0
1040 1 0.814786 0.145967 0
1069 1 0.801496 0.172606 0
1041 1 0.837522 0.139116 0
1042 1 0.852711 0.154521 0
1071 1 0.830993 0.162741 0
1072 1 0.848457 0.180617 0
1044 1 0.878837 0.147798 0
1073 1 0.87116 0.16978 0
1075 1 0.900513 0.162517 0
1046 1 0.921632 0.143738 0
1048 1 0.948252 0.153775 0
1077 1 0.926065 0.165951 0
1078 1 0.947055 0.177262 0
1050 1 0.980425 0.14819 0
1079 1 0.971323 0.170696 0
1081 1 0.499986 0.202583 0
1082 1 0.521079 0.21465 0
1083 1 0.531112 0.193173 0
1054 1 0.555157 0.183904 0
1056 1 0.578656 0.183703 0
1084 1 0.545523 0.214312 0
1085 1 0.566371 0.204396 0
1086 1 0.588718 0.214437 0
1058 1 0.622111 0.183809 0
1087 1 0.602968 0.196616 0
1088 1 0.611627 0.222813 0
1089 1 0.630952 0.209855 0
1060 1 0.645433 0.186087 0
1090 1 0.655513 0.219346 0
1091 1 0.665164 0.197144 0
1062 1 0.686885 0.183297 0
1064 1 0.715603 0.183374 0
1092 1 0.680962 0.218372 0
1093 1 0.700694 0.202881 0
1094 1 0.722412 0.213878 0
1066 1 0.754855 0.179147 0
1095 1 0.737851 0.195013 0
1096 1 0.744279 0.223085 0
1097 1 0.760843 0.204097 0
1068 1 0.779144 0.18571 0
1098 1 0.789158 0.215808 0
1099 1 0.799817 0.195484 0
1100 1 0.814112 0.216071 0
1070 1 0.822591 0.186154 0
1101 1 0.839418 0.201875 0
1102 1 0.856538 0.217425 0
1074 1 0.889965 0.184589 0
1103 1 0.866587 0.196347 0
1104 1 0.880396 0.217383 0
1105 1 0.901414 0.205034 0
1076 1 0.913337 0.186433 0
1106 1 0.922741 0.218216 0
1107 1 0.934697 0.196226 0
1108 1 0.950191 0.212393 0
1080 1 0.98875 0.185342 0
1109 1 0.966319 0.192849 0
1110 1 0.97631 0.214876 0
1111 1 0.507126 0.234137 0
1112 1 0.516693 0.256623 0
1113 1 0.531977 0.23719 0
1143 1 0.53734 0.266304 0
1114 1 0.552368 0.247173 0
1115 1 0.567306 0.227916 0
1116 1 0.574275 0.254929 0
1145 1 0.559667 0.271692 0
1117 1 0.594815 0.241442 0
1118 1 0.618194 0.248849 0
1119 1 0.634632 0.232338 0
1147 1 0.601955 0.265465 0
1149 1 0.632737 0.269757 0
1120 1 0.651439 0.25581 0
1121 1 0.669363 0.239693 0
1151 1 0.675252 0.266464 0
1122 1 0.692109 0.250889 0
1123 1 0.706204 0.230553 0
1124 1 0.714002 0.257417 0
1153 1 0.699054 0.274962 0
1125 1 0.729446 0.241161 0
1126 1 0.752886 0.245425 0
1127 1 0.768799 0.228181 0
1155 1 0.73964 0.265204 0
1157 1 0.764148 0.271212 0
1128 1 0.777075 0.250879 0
1129 1 0.800952 0.235666 0
1159 1 0.804644 0.260038 0
1130 1 0.821919 0.245352 0
1131 1 0.834941 0.227653 0
1132 1 0.846708 0.247611 0
1161 1 0.834799 0.269368 0
1133 1 0.869486 0.236958 0
1134 1 0.889896 0.250357 0
1135 1 0.899912 0.229873 0
1163 1 0.865888 0.262311 0