ITEM: TIMESTEP
4000
ITEM: NUMBER OF ATOMS
1800
ITEM: BOX BOUNDS pp pp pp
4.3124015258017323e-01 1.5796875984741962e+02
4.3124015258017323e-01 1.5796875984741962e+02
0.0000000000000000e+00 5.2800000000000002e+00
ITEM: ATOMS id type xs ys zs
2 1 0.0137744 0.0137648 0
3 1 0.0421301 0.00209733 0
33 1 0.0349092 0.0256637 0
31 1 0.00168481 0.0347821 0
34 1 0.0478632 0.0452815 0
4 1 0.0579029 0.0210667 0
6 1 0.0812904 0.0187824 0
35 1 0.0735965 0.040542 0
8 1 0.103415 0.0144708 0
9 1 0.129125 0.0122066 0
37 1 0.0971681 0.0378209 0
39 1 0.124367 0.0351446 0
10 1 0.147935 0.0270753 0
41 1 0.170372 0.0310494 0
11 1 0.160509 0.00325312 0
12 1 0.184364 0.0113189 0
14 1 0.20773 0.0163514 0
43 1 0.193724 0.0352781 0
473 1 0.365199 0.495719 0
44 1 0.219107 0.0378655 0
16 1 0.260538 0.0119887 0
45 1 0.235601 0.0203109 0
46 1 0.251714 0.0423771 0
47 1 0.275074 0.0318467 0
18 1 0.283713 0.00954316 0
20 1 0.313197 0.00765961 0
49 1 0.298795 0.0291206 0
50 1 0.313635 0.0464555 0
22 1 0.35211 0.0247552 0
51 1 0.327901 0.0249268 0
21 1 0.337999 0.00406116 0
24 1 0.37758 0.016704 0
53 1 0.372794 0.0408898 0
55 1 0.399514 0.0289744 0
25 1 0.401387 0.00604285 0
26 1 0.421375 0.0239226 0
28 1 0.445729 0.0182065 0
57 1 0.438782 0.0408636 0
56 1 0.415888 0.045943 0
30 1 0.492033 0.0168568 0
59 1 0.470769 0.0311056 0
29 1 0.470348 0.00522286 0
60 1 0.492466 0.041368 0
32 1 0.022691 0.0471602 0
62 1 0.0169895 0.0691523 0
63 1 0.039397 0.0680104 0
36 1 0.0880727 0.0601094 0
64 1 0.0550774 0.0868809 0
65 1 0.0637148 0.0633116 0
66 1 0.0772975 0.0815525 0
38 1 0.110431 0.056803 0
67 1 0.102468 0.0785348 0
68 1 0.123603 0.0884259 0
40 1 0.151465 0.0500014 0
69 1 0.135415 0.0676045 0
71 1 0.159613 0.0733348 0
42 1 0.176556 0.052944 0
72 1 0.184616 0.0757963 0
73 1 0.201872 0.0580373 0
74 1 0.217369 0.0776089 0
75 1 0.232595 0.0581971 0
76 1 0.239784 0.0867176 0
77 1 0.256045 0.0689115 0
48 1 0.28897 0.0522534 0
78 1 0.279292 0.0727511 0
79 1 0.305074 0.0722556 0
80 1 0.323444 0.088297 0
52 1 0.348087 0.0474637 0
81 1 0.328004 0.0642137 0
82 1 0.348558 0.079425 0
54 1 0.393076 0.0548481 0
83 1 0.366703 0.0628601 0
84 1 0.393369 0.0793455 0
85 1 0.414686 0.068446 0
86 1 0.419129 0.0909128 0
87 1 0.437458 0.0722026 0
88 1 0.461398 0.078955 0
58 1 0.455237 0.0565776 0
89 1 0.477606 0.0609616 0
90 1 0.484367 0.0875086 0
477 1 0.4343 0.501542 0
92 1 0.0197301 0.113023 0
93 1 0.0287657 0.0893309 0
123 1 0.033565 0.13469 0
94 1 0.0425227 0.109309 0
95 1 0.0682837 0.107668 0
96 1 0.0861272 0.125058 0
125 1 0.0592113 0.128872 0
97 1 0.093636 0.100734 0
98 1 0.111014 0.123195 0
99 1 0.132545 0.112561 0
129 1 0.128803 0.137222 0
70 1 0.145099 0.0918084 0
100 1 0.156764 0.113059 0
101 1 0.178149 0.104099 0
131 1 0.177995 0.130545 0
102 1 0.197641 0.117676 0
103 1 0.200057 0.0939022 0
104 1 0.218722 0.127934 0
105 1 0.223009 0.103521 0
106 1 0.246359 0.112173 0
107 1 0.264921 0.0957595 0
135 1 0.242213 0.135818 0
137 1 0.264838 0.128691 0
108 1 0.285195 0.11586 0
109 1 0.294101 0.092371 0
139 1 0.301681 0.136243 0
110 1 0.317324 0.112688 0
111 1 0.34237 0.103811 0
112 1 0.365939 0.112861 0
141 1 0.346152 0.126458 0
113 1 0.370222 0.0867027 0
114 1 0.385579 0.123432 0
115 1 0.400389 0.106507 0
145 1 0.407645 0.12889 0
116 1 0.425432 0.113501 0
117 1 0.442164 0.0983343 0
118 1 0.447519 0.121486 0
119 1 0.466716 0.103786 0
120 1 0.488812 0.112453 0
149 1 0.470692 0.129161 0
122 1 0.013255 0.147384 0
153 1 0.0307076 0.165458 0
152 1 0.00699562 0.175759 0
124 1 0.0508345 0.155163 0
126 1 0.0748404 0.144886 0
155 1 0.0723957 0.168289 0
154 1 0.0495884 0.179992 0
127 1 0.0984732 0.144933 0
128 1 0.119493 0.158493 0
157 1 0.0984861 0.170534 0
158 1 0.122857 0.182732 0
159 1 0.14957 0.16346 0
130 1 0.155771 0.138135 0
161 1 0.167193 0.177848 0
132 1 0.174275 0.153797 0
133 1 0.197946 0.14243 0
134 1 0.220476 0.152946 0
163 1 0.196807 0.165693 0
136 1 0.256028 0.154471 0
165 1 0.235563 0.17269 0
167 1 0.264845 0.174508 0
138 1 0.2804 0.149114 0
169 1 0.304126 0.159308 0
168 1 0.287739 0.176827 0
140 1 0.324246 0.140562 0
142 1 0.346755 0.150233 0
171 1 0.328885 0.166895 0
172 1 0.351025 0.17441 0
143 1 0.368204 0.138763 0
144 1 0.389094 0.148778 0
173 1 0.372133 0.166082 0
175 1 0.397935 0.172492 0
147 1 0.432233 0.138903 0
146 1 0.413125 0.154078 0
148 1 0.454443 0.147471 0
177 1 0.436236 0.164011 0
176 1 0.41876 0.184126 0
1021 1 0.496114 0.13913 0
150 1 0.480527 0.156962 0
179 1 0.459254 0.168432 0
180 1 0.482385 0.181285 0
182 1 0.0166196 0.21015 0
183 1 0.026322 0.189262 0
184 1 0.0402349 0.21108 0
156 1 0.0820248 0.189897 0
185 1 0.0612135 0.200632 0
186 1 0.0829851 0.213707 0
187 1 0.104386 0.196861 0
188 1 0.119892 0.226726 0
189 1 0.128176 0.205501 0
160 1 0.145957 0.188562 0
190 1 0.143546 0.221224 0
191 1 0.162148 0.20396 0
164 1 0.214494 0.183303 0
162 1 0.187844 0.186698 0
192 1 0.183764 0.213386 0
193 1 0.205466 0.20456 0
194 1 0.216822 0.22526 0
166 1 0.249199 0.19265 0
195 1 0.228092 0.204331 0
196 1 0.257575 0.214942 0
197 1 0.272978 0.196339 0
170 1 0.311941 0.183935 0
198 1 0.279935 0.219578 0
199 1 0.295022 0.200585 0
200 1 0.317719 0.207646 0
201 1 0.334461 0.190209 0
202 1 0.339872 0.214182 0
203 1 0.358544 0.19787 0
233 1 0.36159 0.224391 0
174 1 0.379653 0.186667 0
204 1 0.382555 0.21089 0
205 1 0.405229 0.203496 0
178 1 0.444573 0.188076 0
206 1 0.421137 0.2288 0
207 1 0.430922 0.207202 0
208 1 0.449823 0.219111 0
209 1 0.468308 0.202916 0
210 1 0.480795 0.22596 0
1081 1 0.49274 0.205664 0
241 1 0.00568915 0.271001 0
212 1 0.00761051 0.247346 0
213 1 0.0270672 0.233103 0
243 1 0.0274459 0.26216 0
214 1 0.046936 0.24608 0
215 1 0.0600941 0.224899 0
216 1 0.0729328 0.245131 0
245 1 0.0704522 0.267494 0
217 1 0.0948084 0.235044 0
218 1 0.11362 0.251004 0
219 1 0.135834 0.243575 0
247 1 0.0914356 0.25924 0
221 1 0.167644 0.231319 0
249 1 0.137332 0.267339 0
220 1 0.157662 0.254425 0
251 1 0.17102 0.273037 0
222 1 0.18167 0.251023 0
223 1 0.197537 0.236178 0
224 1 0.222794 0.247043 0
253 1 0.205752 0.26229 0
255 1 0.227384 0.2712 0
225 1 0.239648 0.229898 0
226 1 0.244744 0.253498 0
227 1 0.264726 0.237731 0
257 1 0.267634 0.261075 0
228 1 0.285739 0.244082 0
229 1 0.304083 0.226307 0
230 1 0.30743 0.249643 0
259 1 0.292474 0.267449 0
231 1 0.326438 0.233775 0
232 1 0.347364 0.245075 0
261 1 0.33728 0.266873 0
234 1 0.375465 0.243776 0
235 1 0.397005 0.229869 0
263 1 0.363097 0.265866 0
265 1 0.397058 0.253798 0
236 1 0.421468 0.25185 0
237 1 0.443373 0.241247 0
267 1 0.435046 0.271114 0
238 1 0.454972 0.262123 0
239 1 0.465518 0.2423 0
240 1 0.488417 0.251176 0
269 1 0.473643 0.273694 0
271 1 0.00771808 0.301626 0
242 1 0.0253894 0.286747 0
273 1 0.0460124 0.298322 0
244 1 0.0470938 0.274812 0
275 1 0.0687191 0.290394 0
276 1 0.0866099 0.303778 0
246 1 0.0898323 0.281996 0
248 1 0.115303 0.276226 0
277 1 0.10895 0.299796 0
279 1 0.13132 0.292725 0
250 1 0.152986 0.286764 0
280 1 0.147551 0.310732 0
281 1 0.173353 0.2996 0
252 1 0.192276 0.282943 0
254 1 0.213274 0.289808 0
283 1 0.196168 0.305394 0
284 1 0.219167 0.316477 0
256 1 0.24947 0.282193 0
285 1 0.234262 0.299112 0
287 1 0.260573 0.303065 0
258 1 0.274832 0.283824 0
260 1 0.313897 0.273464 0
288 1 0.283614 0.312027 0
289 1 0.297794 0.290975 0
290 1 0.30874 0.311876 0
262 1 0.350229 0.287788 0
291 1 0.326998 0.291255 0
292 1 0.342535 0.311469 0
264 1 0.384897 0.274758 0
293 1 0.37432 0.295761 0
294 1 0.388544 0.316805 0
295 1 0.400802 0.29466 0
266 1 0.41058 0.274282 0
268 1 0.453158 0.288038 0
296 1 0.414028 0.315549 0
297 1 0.425061 0.294287 0
298 1 0.439932 0.320426 0
270 1 0.478252 0.296203 0
299 1 0.461831 0.311635 0
300 1 0.485208 0.319969 0
272 1 0.0293073 0.313895 0
302 1 0.0166782 0.351633 0
303 1 0.0356981 0.337477 0
301 1 0.0123774 0.329467 0
274 1 0.0520295 0.321009 0
304 1 0.0621447 0.342298 0
305 1 0.0741677 0.321984 0
306 1 0.085888 0.345496 0
278 1 0.123993 0.316783 0
307 1 0.100557 0.323498 0
308 1 0.116942 0.347904 0
309 1 0.137521 0.336076 0
339 1 0.137953 0.361434 0
310 1 0.160327 0.354948 0
311 1 0.16162 0.33146 0
312 1 0.185116 0.348902 0
282 1 0.183654 0.324362 0
313 1 0.205334 0.334251 0
314 1 0.207361 0.359033 0
315 1 0.229214 0.339494 0
286 1 0.241698 0.320866 0
316 1 0.251503 0.347528 0
317 1 0.265309 0.326373 0
345 1 0.233922 0.362769 0
318 1 0.274739 0.346154 0
319 1 0.301611 0.335011 0
349 1 0.295319 0.357112 0
320 1 0.318403 0.351311 0
321 1 0.32616 0.329863 0
322 1 0.349148 0.338667 0
353 1 0.361429 0.359856 0
323 1 0.36514 0.318105 0
324 1 0.373867 0.339426 0
325 1 0.398589 0.338052 0
355 1 0.383889 0.361391 0
326 1 0.408142 0.3591 0
327 1 0.422044 0.338514 0
328 1 0.444594 0.344158 0
1201 1 0.490614 0.343578 0
329 1 0.46741 0.335648 0
330 1 0.472175 0.359395 0
332 1 0.0247474 0.376387 0
333 1 0.0463348 0.360469 0
363 1 0.0351237 0.397891 0
361 1 0.0100073 0.394206 0
334 1 0.0542509 0.384029 0
335 1 0.0704163 0.364762 0
336 1 0.0773964 0.386369 0
365 1 0.0649076 0.408397 0
337 1 0.0926149 0.368193 0
338 1 0.118065 0.373663 0
367 1 0.0993551 0.390676 0
369 1 0.121315 0.400145 0
340 1 0.14027 0.387108 0
341 1 0.163209 0.378217 0
371 1 0.156626 0.404655 0
342 1 0.180727 0.396846 0
343 1 0.186235 0.371949 0
344 1 0.20803 0.38454 0
373 1 0.20403 0.408415 0
346 1 0.245055 0.383202 0
347 1 0.264394 0.366733 0
375 1 0.22793 0.39781 0
377 1 0.26798 0.389671 0
348 1 0.287348 0.378138 0
350 1 0.311698 0.373786 0
379 1 0.300361 0.397397 0
351 1 0.338623 0.366119 0
352 1 0.356308 0.386179 0
381 1 0.332558 0.392709 0
354 1 0.37921 0.384404 0
383 1 0.368455 0.4063 0
385 1 0.392829 0.402864 0
356 1 0.402369 0.38112 0
357 1 0.425461 0.376924 0
358 1 0.445719 0.391611 0
387 1 0.419163 0.398642 0
359 1 0.448486 0.36689 0
1261 1 0.489309 0.402632 0
1231 1 0.494287 0.368109 0
360 1 0.472456 0.384438 0
362 1 0.0228256 0.418793 0
391 1 0.00344987 0.432241 0
393 1 0.0328958 0.44143 0
364 1 0.047972 0.42392 0
366 1 0.0902771 0.416853 0
394 1 0.0564095 0.449358 0
395 1 0.0736684 0.433519 0
368 1 0.113054 0.425521 0
397 1 0.0977382 0.443696 0
398 1 0.120311 0.45031 0
399 1 0.139361 0.439666 0
370 1 0.138138 0.417767 0
400 1 0.159609 0.450556 0
401 1 0.16039 0.427357 0
402 1 0.183376 0.448435 0
372 1 0.182736 0.422108 0
374 1 0.225767 0.422167 0
403 1 0.206497 0.43483 0
404 1 0.228037 0.445279 0
376 1 0.249725 0.407249 0
405 1 0.24807 0.431923 0
407 1 0.273128 0.432058 0
406 1 0.260298 0.453092 0
378 1 0.279739 0.409131 0
408 1 0.286152 0.451193 0
409 1 0.294984 0.425497 0
410 1 0.313859 0.440107 0
380 1 0.319737 0.413469 0
382 1 0.344361 0.412276 0
411 1 0.336059 0.434104 0
412 1 0.351 0.453794 0
413 1 0.360818 0.429713 0
384 1 0.38539 0.425144 0
414 1 0.37382 0.450318 0
415 1 0.397175 0.443713 0
386 1 0.411767 0.424848 0
388 1 0.436129 0.413551 0
417 1 0.431991 0.435275 0
418 1 0.447308 0.453572 0
389 1 0.464408 0.40751 0
390 1 0.481976 0.425872 0
419 1 0.456325 0.430986 0
420 1 0.476531 0.448905 0
392 1 0.00764464 0.45496 0
422 1 0.0164519 0.479123 0
423 1 0.0361183 0.464813 0
448 1 0.454402 0.490805 0
424 1 0.0395388 0.488375 0
396 1 0.0785651 0.4598 0
425 1 0.0583146 0.47429 0
426 1 0.0839302 0.483642 0
427 1 0.102438 0.46703 0
428 1 0.121792 0.481813 0
457 1 0.103862 0.498943 0
429 1 0.140355 0.467202 0
430 1 0.149521 0.490678 0
431 1 0.166878 0.473136 0
461 1 0.174167 0.497228 0
432 1 0.190319 0.476283 0
433 1 0.205125 0.458837 0
434 1 0.213037 0.481455 0
435 1 0.233225 0.46843 0
436 1 0.255917 0.477199 0
465 1 0.236617 0.491837 0
467 1 0.270342 0.49498 0
437 1 0.279723 0.473656 0
438 1 0.30038 0.487581 0
439 1 0.304846 0.463472 0
442 1 0.345542 0.474979 0
441 1 0.327854 0.459311 0
440 1 0.323308 0.483847 0
443 1 0.370278 0.47298 0
445 1 0.391794 0.465174 0
444 1 0.38989 0.490157 0
1141 1 0.496769 0.279049 0
447 1 0.436883 0.476435 0
416 1 0.421443 0.456499 0
446 1 0.413017 0.478345 0
479 1 0.476779 0.49119 0
449 1 0.466738 0.468972 0
450 1 0.491892 0.474986 0
121 1 -0.00288523 0.129587 0
455 1 0.0614883 0.497572 0
452 1 0.0157547 0.523919 0
483 1 0.0369988 0.535017 0
454 1 0.0448652 0.51324 0
453 1 0.0223782 0.501842 0
456 1 0.0876588 0.516918 0
485 1 0.0603007 0.529912 0
841 1 5.75041e-06 0.922226 0
458 1 0.113708 0.522971 0
459 1 0.131354 0.505825 0
487 1 0.099064 0.541274 0
489 1 0.13724 0.529781 0
460 1 0.154548 0.513876 0
491 1 0.163066 0.537357 0
462 1 0.17958 0.518733 0
464 1 0.220748 0.511209 0
493 1 0.202956 0.524677 0
463 1 0.19718 0.499211 0
466 1 0.246481 0.515086 0
495 1 0.231306 0.531077 0
497 1 0.269772 0.519648 0
496 1 0.252867 0.53883 0
468 1 0.291733 0.510403 0
469 1 0.316655 0.505768 0
499 1 0.307562 0.528999 0
498 1 0.284832 0.538243 0
470 1 0.331717 0.523044 0
471 1 0.341315 0.501733 0
472 1 0.358014 0.520232 0
501 1 0.345725 0.540216 0
1381 1 0.49792 0.527075 0
474 1 0.38966 0.513584 0
503 1 0.37604 0.533973 0
505 1 0.397871 0.542945 0
476 1 0.409952 0.525036 0
507 1 0.435742 0.527757 0
1771 1 0.493331 0.965309 0
506 1 0.420137 0.549046 0
478 1 0.454015 0.513655 0
480 1 0.476943 0.516571 0
509 1 0.461513 0.536219 0
482 1 0.00542458 0.551231 0
512 1 0.0206619 0.586087 0
513 1 0.0268923 0.561477 0
484 1 0.0514596 0.553689 0
486 1 0.0773392 0.550622 0
514 1 0.0445416 0.577511 0
515 1 0.0676896 0.571677 0
516 1 0.0888751 0.585791 0
488 1 0.123754 0.548926 0
517 1 0.105145 0.566213 0
518 1 0.112227 0.589542 0
519 1 0.130085 0.573142 0
490 1 0.146348 0.554226 0
520 1 0.154682 0.576735 0
521 1 0.17341 0.561985 0
522 1 0.179354 0.586199 0
492 1 0.187275 0.54208 0
494 1 0.213483 0.548315 0
523 1 0.196893 0.568407 0
524 1 0.221246 0.573181 0
525 1 0.237411 0.555926 0
526 1 0.254462 0.576849 0
527 1 0.271473 0.557731 0
500 1 0.32272 0.546347 0
528 1 0.27762 0.582492 0
529 1 0.295486 0.566095 0
530 1 0.320222 0.570641 0
502 1 0.364044 0.552547 0
531 1 0.342127 0.563269 0
532 1 0.345607 0.587973 0
504 1 0.385118 0.562471 0
533 1 0.366058 0.57595 0
534 1 0.390514 0.585296 0
535 1 0.407583 0.569847 0
508 1 0.443658 0.550724 0
536 1 0.418096 0.592529 0
537 1 0.431905 0.572029 0
538 1 0.455399 0.583388 0
510 1 0.485544 0.547496 0
539 1 0.464342 0.560489 0
540 1 0.484912 0.572116 0
541 1 0.0029117 0.603149 0
542 1 0.0225099 0.618115 0
543 1 0.0405501 0.600419 0
571 1 0.00568528 0.632188 0
544 1 0.0444184 0.628121 0
545 1 0.0636469 0.59457 0
546 1 0.0730422 0.616298 0
547 1 0.0959489 0.610572 0
548 1 0.121121 0.61133 0
577 1 0.109478 0.632311 0
549 1 0.137963 0.595288 0
550 1 0.144569 0.618239 0
551 1 0.160367 0.601119 0
581 1 0.1665 0.624999 0
552 1 0.185415 0.609899 0
553 1 0.204741 0.596046 0
554 1 0.222085 0.611803 0
583 1 0.203126 0.626124 0
555 1 0.237779 0.593752 0
556 1 0.244945 0.6181 0
557 1 0.261151 0.601095 0
587 1 0.268599 0.623902 0
585 1 0.227579 0.635343 0
558 1 0.28606 0.606731 0
559 1 0.304001 0.590899 0
560 1 0.309202 0.616509 0
561 1 0.325687 0.599443 0
562 1 0.348993 0.612123 0
591 1 0.335797 0.631368 0
593 1 0.358699 0.636853 0
563 1 0.368846 0.598307 0
564 1 0.376471 0.621964 0
565 1 0.398123 0.608624 0
595 1 0.399214 0.635391 0
566 1 0.418787 0.618774 0
567 1 0.438528 0.601459 0
597 1 0.441134 0.628728 0
568 1 0.459809 0.614585 0
1441 1 0.50031 0.59155 0
569 1 0.476863 0.596368 0
570 1 0.486187 0.619127 0
573 1 0.0267963 0.644753 0
572 1 0.00636286 0.658087 0
603 1 0.0291885 0.670585 0
575 1 0.0666068 0.63958 0
574 1 0.0472434 0.655719 0
576 1 0.0902648 0.6483 0
605 1 0.071558 0.665426 0
604 1 0.0521918 0.679895 0
579 1 0.131987 0.639385 0
578 1 0.114806 0.655583 0
607 1 0.097815 0.670635 0
609 1 0.136478 0.663991 0
580 1 0.159155 0.649266 0
611 1 0.178797 0.66418 0
610 1 0.157029 0.676495 0
582 1 0.183162 0.641207 0
584 1 0.208864 0.650472 0
613 1 0.20272 0.67243 0
586 1 0.251829 0.644222 0
615 1 0.231583 0.659624 0
617 1 0.256823 0.666693 0
589 1 0.290472 0.632111 0
588 1 0.274916 0.649333 0
590 1 0.312684 0.639226 0
619 1 0.297386 0.658687 0
618 1 0.279144 0.675465 0
592 1 0.343479 0.654567 0
621 1 0.320451 0.662065 0
622 1 0.339332 0.677895 0
594 1 0.380575 0.651637 0
623 1 0.363637 0.66824 0
625 1 0.401497 0.662137 0
624 1 0.384158 0.67867 0
596 1 0.423577 0.645059 0
598 1 0.448199 0.654058 0
627 1 0.427689 0.66956 0
599 1 0.465519 0.636742 0
600 1 0.487035 0.645386 0
629 1 0.471935 0.662554 0
630 1 0.486735 0.680481 0
602 1 0.00763955 0.683157 0
632 1 0.00704356 0.708268 0
633 1 0.0358073 0.696464 0
606 1 0.0810037 0.687971 0
634 1 0.0476296 0.719577 0
635 1 0.0632158 0.701601 0
636 1 0.0805134 0.718226 0
608 1 0.117858 0.686133 0
637 1 0.102098 0.705346 0
638 1 0.123002 0.714795 0
639 1 0.140839 0.695734 0
640 1 0.145831 0.72166 0
641 1 0.163276 0.703659 0
612 1 0.179943 0.68789 0
614 1 0.226193 0.681724 0
642 1 0.188007 0.711371 0
643 1 0.207386 0.696338 0
644 1 0.211476 0.719359 0
616 1 0.249849 0.691257 0
645 1 0.230115 0.705407 0
646 1 0.257206 0.71469 0
647 1 0.273118 0.698097 0
620 1 0.319146 0.687162 0
648 1 0.280693 0.720778 0
649 1 0.298791 0.698259 0
650 1 0.319062 0.710753 0
651 1 0.341794 0.704489 0
652 1 0.350756 0.726133 0
653 1 0.362296 0.693066 0
654 1 0.371194 0.715092 0
655 1 0.391411 0.702863 0
626 1 0.407749 0.686175 0
656 1 0.418782 0.715193 0
657 1 0.435417 0.691917 0
658 1 0.452273 0.708086 0
628 1 0.458592 0.683541 0
899 1 0.470878 0.9814 0
659 1 0.474883 0.702877 0
660 1 0.489608 0.723164 0
689 1 0.467139 0.725658 0
662 1 0.0152437 0.755041 0
663 1 0.0287533 0.734612 0
691 1 0.00137635 0.775628 0
664 1 0.0462883 0.754283 0
661 1 0.00420707 0.73246 0
665 1 0.0644676 0.737027 0
666 1 0.0873322 0.745146 0
695 1 0.06865 0.761123 0
667 1 0.104155 0.730367 0
668 1 0.107522 0.753729 0
669 1 0.12743 0.737799 0
697 1 0.0883824 0.771439 0
699 1 0.12985 0.761637 0
670 1 0.151095 0.744716 0
671 1 0.168285 0.728665 0
701 1 0.156491 0.768532 0
672 1 0.173722 0.752139 0
673 1 0.194907 0.734917 0
674 1 0.216608 0.742421 0
703 1 0.196369 0.757748 0
705 1 0.22327 0.766528 0
675 1 0.23656 0.727761 0
676 1 0.241834 0.751904 0
677 1 0.260533 0.737686 0
707 1 0.267833 0.762712 0
678 1 0.282686 0.7448 0
679 1 0.303548 0.73259 0
680 1 0.316632 0.752308 0
709 1 0.295103 0.764119 0
681 1 0.326809 0.731799 0
682 1 0.346361 0.749435 0
711 1 0.332423 0.772909 0
683 1 0.369722 0.739199 0
684 1 0.390347 0.751846 0
685 1 0.391907 0.728032 0
713 1 0.368648 0.766634 0
715 1 0.412524 0.761808 0
686 1 0.41422 0.739461 0
687 1 0.437867 0.729454 0
717 1 0.435933 0.755754 0
688 1 0.456335 0.746215 0
690 1 0.480638 0.747021 0
693 1 0.0271474 0.777409 0
692 1 0.0122777 0.79781 0
722 1 0.0265334 0.818387 0
723 1 0.0361998 0.797844 0
694 1 0.0525946 0.778553 0
696 1 0.0730854 0.788017 0
725 1 0.0569945 0.803617 0
726 1 0.0794128 0.813419 0
698 1 0.112978 0.778212 0
727 1 0.0954403 0.794551 0
728 1 0.114688 0.81005 0
729 1 0.137845 0.805922 0
700 1 0.137201 0.783593 0
731 1 0.161502 0.793198 0
732 1 0.179614 0.810272 0
702 1 0.178921 0.77674 0
704 1 0.203865 0.781022 0
733 1 0.203325 0.803352 0
706 1 0.244385 0.776931 0
735 1 0.224657 0.792009 0
736 1 0.239115 0.810296 0
737 1 0.260929 0.800497 0
708 1 0.281504 0.786344 0
710 1 0.307878 0.783379 0
739 1 0.297252 0.806739 0
738 1 0.27632 0.817635 0
712 1 0.35133 0.787545 0
741 1 0.32763 0.796281 0
742 1 0.358897 0.810044 0
714 1 0.393207 0.776049 0
743 1 0.374991 0.791528 0
745 1 0.399472 0.801963 0
716 1 0.416603 0.786794 0
718 1 0.453594 0.771227 0
746 1 0.426241 0.810047 0
747 1 0.442455 0.792997 0
748 1 0.448521 0.817243 0
719 1 0.477912 0.770816 0
1621 1 0.49675 0.815697 0
720 1 0.492554 0.789513 0
749 1 0.46822 0.792786 0
751 1 0.0045187 0.825735 0
752 1 0.0134707 0.859499 0
753 1 0.0293541 0.843572 0
724 1 0.0488468 0.827771 0
754 1 0.0524891 0.851267 0
755 1 0.0722216 0.835894 0
756 1 0.0904125 0.85173 0
785 1 0.0709818 0.864882 0
757 1 0.0980103 0.827847 0
758 1 0.113224 0.847004 0
759 1 0.130712 0.829 0
789 1 0.132107 0.858445 0
730 1 0.158924 0.818979 0
760 1 0.149696 0.842079 0
761 1 0.173176 0.837547 0
734 1 0.21759 0.821664 0
762 1 0.188547 0.856258 0
763 1 0.195068 0.829064 0
764 1 0.210451 0.847108 0
765 1 0.233307 0.839778 0
766 1 0.253212 0.852358 0
767 1 0.254668 0.826856 0
768 1 0.274876 0.842577 0
769 1 0.297496 0.831453 0
799 1 0.287831 0.862016 0
740 1 0.319026 0.818796 0
770 1 0.318284 0.844442 0
771 1 0.342007 0.833569 0
772 1 0.34912 0.855977 0
744 1 0.38242 0.81781 0
773 1 0.367062 0.834906 0
774 1 0.388574 0.840785 0
775 1 0.407845 0.824255 0
776 1 0.417633 0.852155 0
777 1 0.432136 0.834618 0
778 1 0.439724 0.859079 0
750 1 0.472599 0.822734 0
779 1 0.453944 0.841531 0
780 1 0.480052 0.847008 0
782 1 0.015346 0.88258 0
783 1 0.0354799 0.870404 0
813 1 0.0380401 0.893475 0
812 1 0.0179096 0.906194 0
784 1 0.0566043 0.882031 0
786 1 0.0833185 0.885925 0
815 1 0.0625903 0.904667 0
816 1 0.0881685 0.909472 0
787 1 0.107812 0.870949 0
788 1 0.127961 0.882925 0
817 1 0.109031 0.89706 0
819 1 0.133896 0.905067 0
790 1 0.151777 0.884065 0
791 1 0.16394 0.8626 0
821 1 0.159536 0.909531 0
792 1 0.175278 0.890125 0
793 1 0.203369 0.874231 0
794 1 0.222543 0.887891 0
823 1 0.202117 0.898001 0
795 1 0.229025 0.865043 0
796 1 0.245939 0.881619 0
797 1 0.265781 0.870348 0
825 1 0.2335 0.908683 0
827 1 0.265116 0.895482 0
798 1 0.285757 0.885441 0
800 1 0.308926 0.876201 0
829 1 0.303914 0.901139 0
801 1 0.332464 0.871824 0
802 1 0.350941 0.885895 0
831 1 0.327203 0.895303 0
803 1 0.372276 0.858786 0
804 1 0.378789 0.883895 0
805 1 0.397949 0.866141 0
833 1 0.368039 0.904239 0
806 1 0.403809 0.892022 0
807 1 0.42137 0.877302 0
808 1 0.446222 0.881369 0
837 1 0.426919 0.901229 0
1681 1 0.49038 0.870879 0
809 1 0.463437 0.863894 0
810 1 0.471065 0.884197 0
839 1 0.455767 0.903739 0
842 1 0.00742546 0.946592 0
843 1 0.0240947 0.930524 0
814 1 0.0431161 0.91655 0
844 1 0.0448313 0.93989 0
845 1 0.0658768 0.927664 0
818 1 0.114977 0.921181 0
847 1 0.0889427 0.933123 0
848 1 0.104794 0.950623 0
849 1 0.126709 0.944782 0
820 1 0.142101 0.927205 0
850 1 0.150032 0.948039 0
851 1 0.167277 0.931156 0
822 1 0.183885 0.914011 0
824 1 0.207793 0.920562 0
853 1 0.188704 0.939268 0
854 1 0.21173 0.94787 0
826 1 0.255758 0.919683 0
855 1 0.232733 0.932984 0
856 1 0.254414 0.943055 0
828 1 0.281709 0.911187 0
857 1 0.275409 0.933657 0
858 1 0.292648 0.949877 0
859 1 0.301034 0.925143 0
860 1 0.316021 0.94474 0
830 1 0.322926 0.917766 0
832 1 0.345776 0.910763 0
861 1 0.340373 0.936691 0
863 1 0.363132 0.930088 0
862 1 0.355387 0.953359 0
835 1 0.408441 0.915319 0
834 1 0.38443 0.920515 0
864 1 0.377864 0.948482 0
865 1 0.401282 0.93951 0
836 1 0.423751 0.932349 0
838 1 0.444444 0.923751 0
866 1 0.422304 0.955664 0
867 1 0.446006 0.946158 0
1741 1 0.491201 0.942477 0
840 1 0.479921 0.910965 0
869 1 0.467333 0.932779 0
870 1 0.470495 0.955653 0
872 1 0.0187514 0.990348 0
873 1 0.0285111 0.956721 0
871 1 0.00318574 0.972146 0
874 1 0.0391484 0.978489 0
846 1 0.0776086 0.952925 0
875 1 0.0552487 0.959982 0
876 1 0.0753259 0.975364 0
5 1 0.0657487 0.997533 0
877 1 0.0987059 0.972883 0
878 1 0.11387 0.993992 0
879 1 0.129647 0.969145 0
7 1 0.0900848 0.99532 0
852 1 0.172178 0.956866 0
880 1 0.139343 0.991885 0
881 1 0.155538 0.974915 0
882 1 0.178652 0.986958 0
13 1 0.200751 0.994194 0
883 1 0.19487 0.968635 0
884 1 0.218146 0.976407 0
885 1 0.233997 0.959092 0
886 1 0.241857 0.984228 0
887 1 0.258307 0.965774 0
17 1 0.270265 0.989542 0
888 1 0.282403 0.971016 0
889 1 0.307839 0.96783 0
19 1 0.297469 0.988646 0
890 1 0.322765 0.985192 0
892 1 0.349667 0.97967 0
891 1 0.332362 0.962119 0
23 1 0.360285 1.00223 0
893 1 0.371793 0.972828 0
895 1 0.396203 0.963026 0
894 1 0.382345 0.994143 0
898 1 0.449022 0.99323 0
897 1 0.428447 0.977596 0
896 1 0.404272 0.983918 0
868 1 0.451085 0.969234 0
27 1 0.427105 1.00122 0
900 1 0.493073 0.990346 0
475 1 0.411973 0.502442 0
15 1 0.222916 0.999226 0
902 1 0.533955 0.0149481 0
933 1 0.536887 0.0399819 0
901 1 0.514173 0.00551968 0
931 1 0.514964 0.0290728 0
904 1 0.555357 0.0265867 0
935 1 0.577321 0.0323503 0
905 1 0.568788 0.00383938 0
906 1 0.590482 0.0117699 0
909 1 0.634486 0.00382535 0
908 1 0.614144 0.0170583 0
937 1 0.599918 0.039361 0
938 1 0.621347 0.0482385 0
939 1 0.636225 0.0297922 0
910 1 0.656644 0.0144598 0
941 1 0.659508 0.0389209 0
912 1 0.677657 0.021422 0
914 1 0.724985 0.0126932 0
943 1 0.702597 0.0215511 0
913 1 0.690655 0.00178082 0
916 1 0.748689 0.012329 0
945 1 0.73491 0.033198 0
947 1 0.75925 0.0337651 0
918 1 0.774964 0.0169133 0
919 1 0.793185 0.00351126 0
949 1 0.804118 0.0338808 0
948 1 0.781708 0.0421322 0
920 1 0.815446 0.0133014 0
922 1 0.848135 0.018861 0
951 1 0.829036 0.0340247 0
953 1 0.863619 0.0356798 0
924 1 0.890307 0.0183627 0
925 1 0.908445 0.00438612 0
955 1 0.909105 0.03111 0
954 1 0.886313 0.0425048 0
926 1 0.928509 0.019171 0
928 1 0.950354 0.0101896 0
957 1 0.930447 0.0431605 0
959 1 0.954934 0.0325253 0
930 1 0.9835 0.0195659 0
960 1 0.976903 0.0440077 0
929 1 0.970683 0.000855526 0
932 1 0.520018 0.0566975 0
962 1 0.523282 0.0800069 0
963 1 0.542136 0.0657427 0
934 1 0.559433 0.0500153 0
936 1 0.580924 0.0586863 0
964 1 0.54562 0.0901574 0
965 1 0.564112 0.0755953 0
966 1 0.588637 0.0822939 0
967 1 0.606246 0.0665781 0
968 1 0.612258 0.0898898 0
969 1 0.629159 0.0732837 0
940 1 0.644262 0.0556799 0
970 1 0.652168 0.0814398 0
971 1 0.66547 0.0633453 0
972 1 0.676299 0.0844231 0
942 1 0.682757 0.0456426 0
944 1 0.706041 0.0466604 0
973 1 0.693481 0.0695696 0
974 1 0.718804 0.0855174 0
975 1 0.725552 0.0596262 0
946 1 0.749044 0.0554811 0
976 1 0.742406 0.080001 0
977 1 0.767174 0.0710012 0
950 1 0.813794 0.057013 0
978 1 0.783162 0.0874934 0
979 1 0.791014 0.0633892 0
980 1 0.807399 0.0806357 0
952 1 0.845673 0.0549643 0
981 1 0.832254 0.0731475 0
982 1 0.846894 0.0908665 0
983 1 0.867986 0.0586246 0
984 1 0.869123 0.0823719 0
985 1 0.889159 0.0695139 0
956 1 0.910648 0.0566482 0
958 1 0.954336 0.0564848 0
986 1 0.90979 0.0806971 0
987 1 0.933533 0.0681359 0
988 1 0.953699 0.0807932 0
61 1 0.995097 0.057433 0
989 1 0.97435 0.0682659 0
990 1 0.996682 0.0826503 0
991 1 0.506697 0.095551 0
992 1 0.510617 0.121705 0
993 1 0.530396 0.108332 0
1023 1 0.533453 0.130644 0
994 1 0.555016 0.112791 0
995 1 0.572502 0.0974119 0
996 1 0.57772 0.12456 0
997 1 0.594152 0.106516 0
998 1 0.61637 0.113507 0
999 1 0.633757 0.0982202 0
1027 1 0.603535 0.133469 0
1000 1 0.639474 0.120625 0
1001 1 0.659259 0.104653 0
1031 1 0.661696 0.127378 0
1002 1 0.681907 0.114879 0
1003 1 0.696601 0.0942768 0
1004 1 0.706628 0.114081 0
1033 1 0.697758 0.134848 0
1005 1 0.737221 0.101409 0
1006 1 0.752957 0.120115 0
1007 1 0.760912 0.0953854 0
1035 1 0.729492 0.125157 0
1008 1 0.776922 0.114006 0
1009 1 0.800114 0.104316 0
1039 1 0.797308 0.131543 0
1037 1 0.771078 0.136979 0
1010 1 0.818967 0.119907 0
1011 1 0.825657 0.0981156 0
1012 1 0.843464 0.1142 0
1043 1 0.862269 0.12878 0
1013 1 0.867198 0.105038 0
1014 1 0.885496 0.12125 0
1015 1 0.890284 0.09655 0
1016 1 0.907345 0.114222 0
1017 1 0.931301 0.0916595 0
1018 1 0.954717 0.104451 0
1047 1 0.931718 0.11426 0
421 1 0.990108 0.471598 0
1019 1 0.974683 0.0919519 0
1020 1 0.975808 0.115276 0
1049 1 0.952632 0.129934 0
91 1 0.9983 0.106292 0
1022 1 0.51921 0.150111 0
1053 1 0.527546 0.172963 0
1024 1 0.54304 0.155581 0
1051 1 0.502049 0.16595 0
1025 1 0.556889 0.135389 0
1026 1 0.588346 0.151502 0
1055 1 0.565887 0.161237 0
1054 1 0.551243 0.181513 0
1029 1 0.63124 0.14255 0
1028 1 0.613918 0.158432 0
1057 1 0.594559 0.172745 0
1059 1 0.638003 0.166617 0
1030 1 0.655649 0.150071 0
1061 1 0.665436 0.172486 0
1032 1 0.680266 0.151122 0
1034 1 0.722939 0.148116 0
1063 1 0.702965 0.157647 0
1036 1 0.746012 0.143723 0
1065 1 0.734965 0.167417 0
1067 1 0.763224 0.159533 0
1066 1 0.757499 0.184237 0
1038 1 0.786797 0.154607 0
1040 1 0.81648 0.144824 0
1069 1 0.81048 0.167762 0
1068 1 0.7819 0.176922 0
1041 1 0.84033 0.137529 0
1042 1 0.858479 0.152207 0
1071 1 0.836176 0.160677 0
1072 1 0.854839 0.176724 0
1045 1 0.903174 0.143935 0
1044 1 0.879925 0.145889 0
1073 1 0.878134 0.169528 0
1075 1 0.901708 0.167174 0
1046 1 0.92569 0.137252 0
1048 1 0.944215 0.152627 0
1077 1 0.924355 0.163661 0
1078 1 0.948655 0.176308 0
1050 1 0.975621 0.137784 0
1079 1 0.965896 0.160321 0
1080 1 0.981175 0.180051 0
151 1 0.990784 0.157713 0
1052 1 0.508548 0.188401 0
1082 1 0.516589 0.212959 0
1083 1 0.534586 0.197351 0
1056 1 0.575953 0.189296 0
1084 1 0.54547 0.225875 0
1085 1 0.55868 0.206963 0
1086 1 0.584876 0.211822 0
1058 1 0.623179 0.183962 0
1087 1 0.601413 0.19498 0
1088 1 0.613587 0.21886 0
1089 1 0.637746 0.209811 0
1060 1 0.648209 0.190291 0
1090 1 0.662102 0.214907 0
1091 1 0.673526 0.194108 0
1092 1 0.688542 0.222389 0
1062 1 0.689008 0.175888 0
1064 1 0.714102 0.179982 0
1093 1 0.707056 0.202293 0
1094 1 0.72693 0.215873 0
1095 1 0.733912 0.192473 0
1096 1 0.751172 0.217746 0
1097 1 0.771133 0.20338 0
1098 1 0.79186 0.211968 0
1099 1 0.800556 0.190083 0
1100 1 0.815218 0.211871 0
1070 1 0.825485 0.185491 0
1101 1 0.847689 0.198444 0
1102 1 0.861877 0.218016 0
1131 1 0.83794 0.218925 0
1074 1 0.894374 0.190382 0
1103 1 0.871989 0.194883 0
1104 1 0.886088 0.214835 0
1105 1 0.908693 0.207795 0
1076 1 0.918222 0.187891 0
1106 1 0.923473 0.226145 0
1107 1 0.937178 0.201795 0
1108 1 0.949564 0.221526 0
1109 1 0.961373 0.19705 0
1110 1 0.973689 0.217758 0
211 1 0.998296 0.225971 0
181 1 0.992707 0.202291 0
1111 1 0.505595 0.233019 0
1112 1 0.509811 0.259486 0
1113 1 0.529327 0.242936 0
1143 1 0.537799 0.264915 0
1114 1 0.554929 0.249785 0
1115 1 0.569633 0.230473 0
1116 1 0.578039 0.254318 0
1145 1 0.562131 0.273314 0
1117 1 0.5948 0.234171 0
1118 1 0.626298 0.251988 0
1147 1 0.603429 0.260125 0
1149 1 0.633029 0.274864 0
1119 1 0.643905 0.233239 0
1120 1 0.649676 0.257518 0
1121 1 0.665868 0.239385 0
1151 1 0.673874 0.26319 0
1122 1 0.690038 0.245804 0
1123 1 0.7101 0.231889 0
1124 1 0.717356 0.255792 0
1125 1 0.734336 0.23871 0
1126 1 0.756059 0.24445 0
1155 1 0.740102 0.261868 0
1157 1 0.763285 0.267691 0
1127 1 0.773644 0.22771 0
1128 1 0.781297 0.250636 0
1129 1 0.79915 0.234762 0
1159 1 0.805481 0.258453 0
1130 1 0.823761 0.238365 0
1132 1 0.847004 0.239253 0
1161 1 0.829186 0.263055 0
1133 1 0.87593 0.238447 0
1134 1 0.891323 0.255986 0
1135 1 0.901 0.232437 0
1163 1 0.869007 0.260065 0
1165 1 0.907835 0.275336 0
1136 1 0.91517 0.252386 0