ITEM: TIMESTEP
162000
ITEM: NUMBER OF ATOMS
1800
ITEM: BOX BOUNDS pp pp pp
3.1378116873168693e+00 1.5526218831268034e+02
3.1378116873168693e+00 1.5526218831268034e+02
0.0000000000000000e+00 5.2800000000000002e+00
ITEM: ATOMS id type xs ys zs
2 1 0.016559 0.0182338 0
3 1 0.0411079 0.0128134 0
33 1 0.0313777 0.0359428 0
31 1 0.00719056 0.0432877 0
4 1 0.058102 0.0296164 0
6 1 0.0842891 0.0236616 0
5 1 0.0663166 0.00419344 0
35 1 0.0745968 0.0469615 0
37 1 0.101137 0.0407168 0
8 1 0.108478 0.0154858 0
9 1 0.124821 0.036572 0
880 1 0.133194 0.0110322 0
10 1 0.15029 0.0297679 0
11 1 0.157691 0.00397146 0
12 1 0.174842 0.0225088 0
43 1 0.192485 0.0408434 0
41 1 0.167969 0.0468351 0
14 1 0.199726 0.0169636 0
44 1 0.216282 0.0364373 0
45 1 0.223614 0.0129169 0
46 1 0.240989 0.0301301 0
16 1 0.248333 0.00661761 0
47 1 0.265258 0.0251717 0
49 1 0.290764 0.0195493 0
48 1 0.28246 0.0426125 0
18 1 0.273253 0.00129335 0
77 1 0.257486 0.0495789 0
50 1 0.307949 0.0383489 0
20 1 0.315417 0.0143879 0
51 1 0.331706 0.0326284 0
21 1 0.340069 0.00787621 0
22 1 0.356025 0.0258165 0
24 1 0.381328 0.0217804 0
53 1 0.372602 0.0456492 0
23 1 0.365315 0.00326003 0
55 1 0.397344 0.0405651 0
25 1 0.405727 0.0171992 0
26 1 0.421664 0.0345172 0
27 1 0.43362 0.0133713 0
28 1 0.445244 0.0350961 0
30 1 0.494209 0.0384276 0
898 1 0.458158 0.013542 0
29 1 0.484383 0.0154128 0
59 1 0.469534 0.0395791 0
32 1 0.0248829 0.0617837 0
62 1 0.0177711 0.0853429 0
63 1 0.0424995 0.07861 0
61 1 0.00109681 0.0680711 0
34 1 0.0493889 0.0534178 0
65 1 0.0672599 0.070778 0
66 1 0.0843036 0.0894502 0
36 1 0.0923353 0.0639056 0
64 1 0.0608422 0.0961843 0
39 1 0.143282 0.0534435 0
38 1 0.116785 0.0596222 0
67 1 0.108698 0.0819 0
69 1 0.134879 0.0760884 0
70 1 0.151436 0.0946187 0
40 1 0.159519 0.0710567 0
71 1 0.176991 0.0893184 0
42 1 0.183734 0.0659168 0
72 1 0.20116 0.0835043 0
73 1 0.208791 0.0590083 0
74 1 0.225902 0.0776207 0
75 1 0.233649 0.053066 0
106 1 0.243346 0.0961013 0
76 1 0.250481 0.0730459 0
78 1 0.274758 0.0671307 0
109 1 0.291993 0.0867975 0
107 1 0.267601 0.0915498 0
79 1 0.298916 0.0621628 0
80 1 0.317076 0.0809723 0
81 1 0.323133 0.0569196 0
82 1 0.3417 0.0748446 0
52 1 0.347634 0.0511244 0
111 1 0.335527 0.100227 0
83 1 0.365903 0.0694152 0
113 1 0.378995 0.0900383 0
54 1 0.391003 0.0657515 0
56 1 0.414171 0.058108 0
57 1 0.439209 0.0590127 0
85 1 0.421765 0.0799922 0
84 1 0.402789 0.0968754 0
87 1 0.446072 0.0869624 0
88 1 0.470238 0.0949492 0
58 1 0.462818 0.0678931 0
89 1 0.485915 0.0771824 0
93 1 0.0356347 0.102266 0
92 1 0.0270299 0.127311 0
91 1 0.0102339 0.109703 0
121 1 0.00197383 0.133222 0
123 1 0.0455287 0.143654 0
94 1 0.0526004 0.119977 0
95 1 0.0776314 0.113278 0
125 1 0.0694456 0.137061 0
96 1 0.0942755 0.131186 0
68 1 0.127856 0.100392 0
97 1 0.102118 0.107132 0
98 1 0.119514 0.126288 0
99 1 0.143966 0.119604 0
129 1 0.135735 0.14407 0
127 1 0.111511 0.149748 0
100 1 0.167487 0.113702 0
130 1 0.158102 0.138039 0
131 1 0.183213 0.132101 0
101 1 0.192405 0.108254 0
103 1 0.2181 0.101982 0
102 1 0.21137 0.1261 0
105 1 0.236879 0.119823 0
104 1 0.227971 0.143409 0
133 1 0.199891 0.149105 0
135 1 0.26168 0.115442 0
137 1 0.278822 0.132884 0
108 1 0.285925 0.110234 0
136 1 0.2544 0.140164 0
139 1 0.302947 0.138692 0
110 1 0.311586 0.106395 0
141 1 0.343142 0.125071 0
140 1 0.327601 0.144948 0
112 1 0.360163 0.105827 0
114 1 0.383836 0.113532 0
143 1 0.366882 0.130413 0
144 1 0.39034 0.137854 0
86 1 0.427007 0.104454 0
115 1 0.40905 0.12047 0
116 1 0.433934 0.12818 0
145 1 0.414855 0.144805 0
117 1 0.452063 0.112129 0
90 1 0.494158 0.102353 0
118 1 0.459337 0.13738 0
119 1 0.476657 0.11893 0
149 1 0.482992 0.143151 0
122 1 0.0194517 0.151637 0
153 1 0.0362859 0.167357 0
152 1 0.0117969 0.17563 0
183 1 0.0308177 0.192221 0
1080 1 0.00509782 0.199355 0
124 1 0.0617716 0.160815 0
126 1 0.0864977 0.153772 0
155 1 0.0790238 0.178327 0
154 1 0.0552524 0.185065 0
156 1 0.0946342 0.197883 0
128 1 0.127408 0.167914 0
157 1 0.102575 0.173192 0
160 1 0.143336 0.186466 0
158 1 0.118786 0.191872 0
132 1 0.176756 0.156408 0
159 1 0.151474 0.162659 0
161 1 0.167539 0.179522 0
162 1 0.184675 0.196024 0
163 1 0.194096 0.17368 0
134 1 0.216929 0.164425 0
164 1 0.228798 0.184493 0
165 1 0.242801 0.164215 0
166 1 0.252082 0.190795 0
167 1 0.266683 0.172055 0
138 1 0.285538 0.156863 0
168 1 0.291735 0.180083 0
197 1 0.275012 0.198135 0
169 1 0.309805 0.163592 0
171 1 0.334444 0.168472 0
170 1 0.317164 0.186797 0
201 1 0.342348 0.193813 0
142 1 0.351018 0.150854 0
172 1 0.357771 0.174604 0
173 1 0.375279 0.156863 0
174 1 0.380959 0.181039 0
175 1 0.398724 0.162889 0
147 1 0.440655 0.154324 0
146 1 0.422986 0.170001 0
205 1 0.405195 0.186996 0
176 1 0.428671 0.196535 0
177 1 0.446744 0.179386 0
148 1 0.466509 0.160756 0
150 1 0.490055 0.167572 0
179 1 0.471155 0.186443 0
180 1 0.49546 0.192089 0
182 1 0.0226674 0.217069 0
213 1 0.040125 0.234113 0
211 1 0.0152173 0.240077 0
184 1 0.0467243 0.210754 0
185 1 0.0710786 0.202813 0
186 1 0.0884741 0.221345 0
215 1 0.0642193 0.227454 0
216 1 0.0817797 0.245396 0
187 1 0.112587 0.21626 0
188 1 0.131567 0.238173 0
189 1 0.135901 0.209416 0
217 1 0.105803 0.239544 0
191 1 0.160907 0.203368 0
190 1 0.153712 0.227049 0
192 1 0.193566 0.218865 0
221 1 0.175862 0.236278 0
223 1 0.199469 0.242724 0
193 1 0.210281 0.200429 0
194 1 0.21698 0.226642 0
195 1 0.234694 0.209213 0
225 1 0.240109 0.233221 0
196 1 0.258969 0.215826 0
198 1 0.281936 0.221577 0
227 1 0.264639 0.240053 0
228 1 0.288756 0.244895 0
199 1 0.299106 0.204298 0
200 1 0.324239 0.210732 0
229 1 0.305763 0.228037 0
231 1 0.330029 0.235255 0
202 1 0.347676 0.217658 0
203 1 0.365624 0.200623 0
204 1 0.391457 0.206843 0
233 1 0.372131 0.224905 0
235 1 0.395412 0.23152 0
232 1 0.353512 0.241947 0
234 1 0.377872 0.249049 0
207 1 0.436045 0.220177 0
206 1 0.418694 0.238316 0
237 1 0.442546 0.244737 0
178 1 0.452463 0.202214 0
208 1 0.461732 0.227168 0
209 1 0.477637 0.20975 0
210 1 0.485288 0.233113 0
241 1 0.00144652 0.287378 0
212 1 0.00617922 0.263409 0
243 1 0.033423 0.257768 0
242 1 0.024872 0.280245 0
273 1 0.0395914 0.298844 0
244 1 0.0501816 0.276168 0
214 1 0.0572818 0.252724 0
245 1 0.075369 0.269048 0
247 1 0.0794738 0.292715 0
218 1 0.0988205 0.276046 0
219 1 0.118949 0.26021 0
249 1 0.141245 0.268523 0
248 1 0.12193 0.284905 0
250 1 0.146598 0.292634 0
220 1 0.157375 0.250937 0
222 1 0.181244 0.260092 0
251 1 0.164341 0.277431 0
252 1 0.187265 0.284005 0
224 1 0.223686 0.251684 0
253 1 0.204795 0.266865 0
255 1 0.229658 0.274955 0
254 1 0.211082 0.291916 0
226 1 0.247487 0.25777 0
285 1 0.236154 0.298454 0
256 1 0.254044 0.281561 0
257 1 0.271343 0.263119 0
259 1 0.294501 0.270371 0
258 1 0.277341 0.287585 0
289 1 0.301539 0.295186 0
230 1 0.312209 0.253643 0
260 1 0.318686 0.277252 0
261 1 0.336089 0.260444 0
262 1 0.342078 0.28455 0
263 1 0.360067 0.266859 0
264 1 0.38458 0.27424 0
293 1 0.365761 0.291816 0
295 1 0.390823 0.298239 0
265 1 0.401086 0.255576 0
236 1 0.425372 0.262307 0
266 1 0.407908 0.280689 0
267 1 0.432328 0.28632 0
238 1 0.449585 0.26996 0
239 1 0.466376 0.25124 0
1141 1 0.499654 0.28141 0
240 1 0.491469 0.256843 0
269 1 0.475626 0.274999 0
268 1 0.457671 0.293669 0
270 1 0.48214 0.298956 0
271 1 0.0165891 0.308077 0
272 1 0.0407301 0.323219 0
301 1 0.0203107 0.336797 0
303 1 0.0444289 0.347633 0
275 1 0.0609357 0.309417 0
276 1 0.0844094 0.317145 0
274 1 0.0650912 0.333692 0
305 1 0.089666 0.340284 0
246 1 0.10402 0.300301 0
279 1 0.127537 0.308471 0
277 1 0.108576 0.324823 0
278 1 0.132523 0.333069 0
307 1 0.113666 0.349302 0
280 1 0.151233 0.317357 0
281 1 0.169269 0.301399 0
311 1 0.156063 0.341797 0
283 1 0.192633 0.308402 0
282 1 0.174835 0.324528 0
313 1 0.198071 0.33217 0
312 1 0.17963 0.348587 0
284 1 0.217149 0.315286 0
315 1 0.222596 0.33951 0
286 1 0.241162 0.321795 0
316 1 0.247015 0.345961 0
287 1 0.260687 0.305048 0
288 1 0.28379 0.311846 0
317 1 0.264993 0.329128 0
319 1 0.289161 0.336667 0
291 1 0.324602 0.301631 0
290 1 0.306721 0.319465 0
321 1 0.312218 0.343536 0
292 1 0.330481 0.325966 0
323 1 0.347045 0.308777 0
294 1 0.372763 0.315628 0
324 1 0.355402 0.333928 0
325 1 0.379293 0.33886 0
296 1 0.396616 0.321426 0
326 1 0.402058 0.345508 0
297 1 0.414707 0.305133 0
298 1 0.439009 0.310208 0
327 1 0.420781 0.32825 0
328 1 0.445723 0.334792 0
299 1 0.463957 0.318249 0
300 1 0.487984 0.323426 0
329 1 0.469477 0.341813 0
1201 1 0.493951 0.347871 0
331 1 0.00456406 0.377677 0
302 1 0.0238378 0.362274 0
332 1 0.02914 0.386168 0
333 1 0.0484453 0.372579 0
1230 1 0.000731753 0.352827 0
334 1 0.0532706 0.397182 0
304 1 0.0684512 0.358071 0
306 1 0.0931281 0.364626 0
335 1 0.0750725 0.382778 0
337 1 0.0987847 0.389352 0
309 1 0.13682 0.358206 0
308 1 0.116611 0.373328 0
339 1 0.141525 0.382279 0
338 1 0.121882 0.397814 0
310 1 0.160844 0.365355 0
341 1 0.165005 0.389654 0
343 1 0.184829 0.373448 0
342 1 0.189229 0.398432 0
314 1 0.203003 0.355781 0
345 1 0.228266 0.3643 0
344 1 0.20867 0.379675 0
375 1 0.232916 0.387623 0
346 1 0.251692 0.371365 0
377 1 0.257245 0.396319 0
318 1 0.269732 0.353286 0
349 1 0.292738 0.362258 0
347 1 0.275346 0.378439 0
350 1 0.29962 0.385854 0
322 1 0.33713 0.351256 0
320 1 0.317481 0.368816 0
351 1 0.342441 0.375325 0
381 1 0.323701 0.392401 0
352 1 0.34825 0.398164 0
353 1 0.361344 0.358388 0
355 1 0.385329 0.363156 0
354 1 0.366731 0.381862 0
385 1 0.391613 0.387475 0
357 1 0.426435 0.351844 0
356 1 0.409398 0.369358 0
387 1 0.433157 0.377078 0
386 1 0.415106 0.393704 0
359 1 0.451073 0.35922 0
358 1 0.458876 0.383166 0
330 1 0.47578 0.366167 0
360 1 0.484256 0.389332 0
361 1 0.0097996 0.402515 0
363 1 0.0333087 0.411504 0
362 1 0.015022 0.426455 0
364 1 0.0398574 0.435617 0
336 1 0.0784812 0.407154 0
365 1 0.059023 0.420696 0
395 1 0.0658491 0.445018 0
367 1 0.103523 0.415237 0
366 1 0.10895 0.439995 0
369 1 0.127088 0.422155 0
340 1 0.147176 0.406808 0
368 1 0.132166 0.449625 0
370 1 0.151441 0.431546 0
371 1 0.169948 0.414071 0
401 1 0.175434 0.437408 0
372 1 0.195064 0.422168 0
403 1 0.20074 0.446008 0
373 1 0.214 0.404395 0
374 1 0.218313 0.428893 0
376 1 0.237776 0.412539 0
405 1 0.24432 0.436734 0
348 1 0.281584 0.402303 0
407 1 0.268657 0.445457 0
378 1 0.262269 0.420323 0
409 1 0.285875 0.427077 0
379 1 0.305314 0.409536 0
380 1 0.31151 0.43398 0
382 1 0.329969 0.415817 0
411 1 0.337395 0.441008 0
413 1 0.354942 0.4222 0
383 1 0.372828 0.404098 0
414 1 0.379124 0.42969 0
384 1 0.39682 0.41183 0
412 1 0.360692 0.447087 0
388 1 0.439266 0.401144 0
415 1 0.402486 0.434796 0
417 1 0.421226 0.418137 0
416 1 0.427582 0.442429 0
419 1 0.445626 0.425975 0
389 1 0.464403 0.408497 0
418 1 0.470267 0.431552 0
390 1 0.488549 0.413985 0
420 1 0.495803 0.437833 0
447 1 0.452352 0.448688 0
392 1 -4.32317e-05 0.466196 0
393 1 0.0205392 0.452011 0
422 1 0.00612636 0.492211 0
423 1 0.0267809 0.477309 0
394 1 0.0453808 0.460299 0
425 1 0.0501841 0.486816 0
397 1 0.0891623 0.454726 0
396 1 0.0707636 0.470587 0
426 1 0.073661 0.495851 0
427 1 0.0940378 0.479523 0
398 1 0.11377 0.464564 0
428 1 0.118792 0.490569 0
429 1 0.136545 0.473726 0
459 1 0.143717 0.497897 0
399 1 0.15492 0.456199 0
400 1 0.179935 0.46091 0
430 1 0.161954 0.481413 0
431 1 0.186789 0.484338 0
404 1 0.225307 0.451854 0
402 1 0.20629 0.469544 0
432 1 0.210708 0.493174 0
433 1 0.230629 0.476676 0
435 1 0.24938 0.460879 0
408 1 0.293015 0.450683 0
436 1 0.256102 0.486027 0
406 1 0.274708 0.470046 0
437 1 0.280187 0.495001 0
439 1 0.299178 0.476717 0
410 1 0.318778 0.459119 0
440 1 0.322165 0.48364 0
441 1 0.343477 0.465455 0
471 1 0.348509 0.490173 0
472 1 0.372541 0.496265 0
442 1 0.366302 0.472879 0
473 1 0.391271 0.479022 0
443 1 0.384933 0.455373 0
444 1 0.416589 0.485382 0
477 1 0.440811 0.49059 0
446 1 0.434519 0.466084 0
445 1 0.409085 0.459569 0
449 1 0.477301 0.454101 0
450 1 0.482728 0.479041 0
448 1 0.460325 0.471814 0
478 1 0.464782 0.496821 0
453 1 0.0106953 0.516994 0
452 1 0.014687 0.540743 0
454 1 0.0337558 0.526422 0
424 1 0.0309918 0.50238 0
485 1 0.0572895 0.535052 0
455 1 0.0543757 0.511382 0
456 1 0.0777357 0.520818 0
486 1 0.0809225 0.54487 0
457 1 0.0975634 0.504651 0
487 1 0.102274 0.530471 0
458 1 0.121718 0.515386 0
488 1 0.126841 0.540544 0
489 1 0.145424 0.523298 0
461 1 0.190767 0.508577 0
462 1 0.195855 0.531313 0
491 1 0.169139 0.533198 0
460 1 0.165727 0.507761 0
493 1 0.217948 0.540686 0
463 1 0.214768 0.516915 0
464 1 0.238697 0.525113 0
495 1 0.240277 0.549593 0
434 1 0.235758 0.50024 0
466 1 0.265544 0.53646 0
465 1 0.260693 0.511093 0
467 1 0.286315 0.520392 0
497 1 0.295399 0.547467 0
438 1 0.305614 0.501845 0
468 1 0.311057 0.52743 0
469 1 0.329178 0.507441 0
499 1 0.336079 0.532331 0
470 1 0.353747 0.515007 0
503 1 0.378857 0.519756 0
474 1 0.396811 0.502713 0
505 1 0.385571 0.543833 0
501 1 0.361453 0.538372 0
476 1 0.403988 0.526279 0
509 1 0.428505 0.531908 0
475 1 0.421338 0.508554 0
507 1 0.447342 0.515136 0
506 1 0.409932 0.550281 0
479 1 0.472085 0.521971 0
480 1 0.454394 0.538464 0
1381 1 0.496515 0.52696 0
510 1 0.479023 0.545518 0
1351 1 0.488722 0.503192 0
483 1 0.0383561 0.55059 0
513 1 0.0183642 0.564978 0
514 1 0.0422637 0.575225 0
512 1 0.0230246 0.590072 0
543 1 0.0451507 0.599177 0
484 1 0.0617983 0.560566 0
515 1 0.0855207 0.569346 0
545 1 0.0664716 0.584115 0
516 1 0.0888725 0.594847 0
517 1 0.105325 0.556004 0
518 1 0.108587 0.579841 0
519 1 0.12907 0.565068 0
549 1 0.133103 0.589712 0
490 1 0.150062 0.550824 0
520 1 0.153274 0.576682 0
521 1 0.17284 0.562973 0
492 1 0.19696 0.554096 0
522 1 0.175061 0.587924 0
523 1 0.197335 0.577653 0
494 1 0.219622 0.564175 0
524 1 0.220847 0.588413 0
525 1 0.241323 0.574082 0
555 1 0.243768 0.599109 0
496 1 0.26104 0.560303 0
526 1 0.26363 0.584575 0
527 1 0.283003 0.568099 0
528 1 0.287016 0.592989 0
498 1 0.319804 0.550887 0
529 1 0.306054 0.570794 0
500 1 0.344263 0.555564 0
530 1 0.328439 0.575939 0
559 1 0.310894 0.596125 0
531 1 0.351044 0.580871 0
502 1 0.368239 0.562518 0
504 1 0.392095 0.568144 0
533 1 0.37505 0.587348 0
534 1 0.398751 0.59131 0
535 1 0.417144 0.57399 0
508 1 0.435216 0.556626 0
537 1 0.442651 0.579377 0
536 1 0.425285 0.59713 0
539 1 0.460345 0.563451 0
540 1 0.485408 0.569418 0
538 1 0.466889 0.587033 0
569 1 0.491208 0.593071 0
542 1 0.0226357 0.614215 0
573 1 0.0259962 0.638243 0
544 1 0.0462702 0.624481 0
571 1 0.00288237 0.628765 0
541 1 0.00032002 0.604544 0
546 1 0.0674762 0.608581 0
547 1 0.0910568 0.619217 0
575 1 0.0698626 0.634414 0
576 1 0.0929669 0.645598 0
548 1 0.112141 0.604328 0
550 1 0.133998 0.617578 0
577 1 0.112988 0.628812 0
579 1 0.136588 0.64231 0
551 1 0.154912 0.602813 0
553 1 0.198607 0.602224 0
581 1 0.156838 0.627311 0
552 1 0.177046 0.615267 0
582 1 0.178841 0.639773 0
583 1 0.201942 0.626937 0
554 1 0.223827 0.612674 0
556 1 0.246261 0.623384 0
585 1 0.224173 0.636873 0
586 1 0.247515 0.647484 0
557 1 0.266569 0.609246 0
587 1 0.269791 0.633166 0
558 1 0.291206 0.616199 0
589 1 0.298669 0.640044 0
561 1 0.334087 0.601377 0
560 1 0.315206 0.620811 0
591 1 0.323149 0.64345 0
562 1 0.341069 0.625471 0
593 1 0.34962 0.648762 0
532 1 0.358802 0.606364 0
563 1 0.382083 0.611853 0
564 1 0.365285 0.631153 0
595 1 0.390547 0.636259 0
565 1 0.406606 0.614622 0
566 1 0.430844 0.621811 0
596 1 0.414551 0.64009 0
598 1 0.438008 0.646333 0
567 1 0.449796 0.604276 0
1442 1 0.497988 0.616627 0
597 1 0.456371 0.628714 0
568 1 0.472743 0.610861 0
570 1 0.480534 0.635503 0
574 1 0.0479929 0.650032 0
572 1 0.00592837 0.652467 0
603 1 0.0288027 0.663508 0
602 1 0.00807437 0.677665 0
633 1 0.0309783 0.688186 0
604 1 0.0517737 0.67443 0
605 1 0.0715817 0.659461 0
606 1 0.074489 0.684447 0
607 1 0.0948564 0.670984 0
637 1 0.0968306 0.695896 0
635 1 0.0541763 0.699314 0
578 1 0.115566 0.655907 0
609 1 0.13751 0.667668 0
608 1 0.117472 0.681398 0
639 1 0.139837 0.69301 0
580 1 0.158471 0.654233 0
611 1 0.181047 0.664311 0
610 1 0.160715 0.679084 0
612 1 0.183691 0.690102 0
584 1 0.202922 0.651269 0
613 1 0.204526 0.676047 0
615 1 0.226111 0.661481 0
614 1 0.226668 0.686233 0
617 1 0.248442 0.672408 0
616 1 0.247641 0.698713 0
588 1 0.269389 0.658519 0
619 1 0.293065 0.683756 0
618 1 0.268994 0.685271 0
590 1 0.307473 0.662717 0
621 1 0.316298 0.687643 0
592 1 0.331989 0.667165 0
622 1 0.339975 0.691593 0
623 1 0.356701 0.67425 0
594 1 0.372821 0.654562 0
624 1 0.380954 0.677704 0
653 1 0.365462 0.697706 0
625 1 0.397901 0.659491 0
627 1 0.421945 0.664199 0
626 1 0.405183 0.683236 0
657 1 0.429922 0.690288 0
628 1 0.445883 0.670001 0
599 1 0.462879 0.651687 0
600 1 0.487787 0.658561 0
629 1 0.470969 0.676147 0
630 1 0.495107 0.683428 0
658 1 0.454045 0.695573 0
632 1 0.0116553 0.70232 0
634 1 0.0331574 0.711889 0
663 1 0.0118058 0.727352 0
664 1 0.0350575 0.737636 0
636 1 0.0768792 0.70935 0
665 1 0.0555215 0.723292 0
666 1 0.0793623 0.734708 0
695 1 0.0598163 0.748872 0
667 1 0.100609 0.72057 0
668 1 0.10291 0.746056 0
638 1 0.120041 0.706859 0
640 1 0.142416 0.716886 0
669 1 0.123072 0.731608 0
670 1 0.145897 0.743818 0
641 1 0.1619 0.703806 0
642 1 0.185888 0.715692 0
671 1 0.165689 0.729438 0
673 1 0.187302 0.740803 0
643 1 0.206307 0.700404 0
645 1 0.228563 0.712024 0
644 1 0.208022 0.726823 0
675 1 0.230571 0.737569 0
646 1 0.250685 0.723561 0
677 1 0.2536 0.749747 0
647 1 0.270844 0.709558 0
648 1 0.27308 0.734461 0
679 1 0.296046 0.742086 0
649 1 0.295986 0.715317 0
620 1 0.323833 0.710939 0
651 1 0.349087 0.714992 0
650 1 0.331948 0.733798 0
652 1 0.355626 0.739551 0
655 1 0.389617 0.702917 0
654 1 0.372758 0.722277 0
685 1 0.396031 0.727442 0
683 1 0.378839 0.745236 0
656 1 0.413709 0.70917 0
687 1 0.437148 0.713947 0
686 1 0.420619 0.733354 0
717 1 0.444411 0.739191 0
659 1 0.478099 0.702199 0
689 1 0.460584 0.720365 0
660 1 0.484793 0.726886 0
688 1 0.467329 0.74575 0
662 1 0.016007 0.751844 0
694 1 0.0390152 0.762429 0
693 1 0.0190492 0.776483 0
725 1 0.0416864 0.787696 0
697 1 0.0816712 0.760923 0
696 1 0.0620353 0.774328 0
727 1 0.0845859 0.785029 0
726 1 0.0634167 0.799287 0
699 1 0.125378 0.757524 0
698 1 0.104794 0.770901 0
700 1 0.126585 0.7825 0
728 1 0.106358 0.796742 0
701 1 0.148235 0.76929 0
731 1 0.149394 0.793938 0
672 1 0.168635 0.756661 0
703 1 0.191007 0.766698 0
702 1 0.171253 0.78204 0
704 1 0.192599 0.793616 0
674 1 0.210116 0.752337 0
676 1 0.23389 0.763119 0
705 1 0.213477 0.777401 0
706 1 0.236071 0.789081 0
707 1 0.256442 0.774401 0
678 1 0.27662 0.759732 0
709 1 0.27826 0.784283 0
680 1 0.298677 0.767521 0
737 1 0.258253 0.798914 0
710 1 0.302053 0.791729 0
681 1 0.317195 0.752309 0
682 1 0.339687 0.75892 0
711 1 0.321685 0.776679 0
712 1 0.345203 0.783251 0
713 1 0.362522 0.765281 0
714 1 0.386754 0.770173 0
743 1 0.368198 0.78929 0
745 1 0.39209 0.795362 0
684 1 0.403554 0.750741 0
715 1 0.427338 0.758041 0
716 1 0.41106 0.776253 0
747 1 0.433679 0.782761 0
718 1 0.451343 0.764328 0
690 1 0.491662 0.75003 0
719 1 0.475385 0.769078 0
720 1 0.482729 0.793372 0
749 1 0.457803 0.788459 0
1591 1 0.50013 0.773707 0
723 1 0.0212393 0.803326 0
722 1 0.022638 0.828188 0
724 1 0.0442598 0.812549 0
754 1 0.0453984 0.836018 0
1680 1 0.00254043 0.842598 0
751 1 0.000447969 0.817568 0
757 1 0.0855461 0.809352 0
755 1 0.0663894 0.823603 0
756 1 0.0875496 0.835901 0
785 1 0.0654627 0.848615 0
729 1 0.128534 0.806926 0
759 1 0.107133 0.822047 0
760 1 0.130383 0.831813 0
758 1 0.109086 0.847318 0
730 1 0.150866 0.818735 0
761 1 0.153016 0.843833 0
732 1 0.171596 0.807334 0
763 1 0.174546 0.832427 0
733 1 0.195546 0.819039 0
764 1 0.195883 0.845024 0
735 1 0.216209 0.803815 0
736 1 0.238482 0.814228 0
734 1 0.21868 0.830724 0
767 1 0.241547 0.839705 0
708 1 0.282976 0.809311 0
738 1 0.261224 0.823778 0
769 1 0.284435 0.833172 0
768 1 0.264199 0.847817 0
741 1 0.326191 0.801759 0
739 1 0.306529 0.816234 0
740 1 0.307502 0.840694 0
771 1 0.334131 0.827979 0
742 1 0.350014 0.808441 0
773 1 0.358498 0.832281 0
744 1 0.374787 0.813031 0
774 1 0.382382 0.838595 0
775 1 0.399482 0.818725 0
746 1 0.416633 0.800793 0
748 1 0.440698 0.808396 0
777 1 0.423689 0.825746 0
776 1 0.405591 0.843912 0
779 1 0.448209 0.832252 0
778 1 0.430323 0.849564 0
750 1 0.466073 0.811984 0
1621 1 0.490425 0.817598 0
780 1 0.473757 0.835192 0
1651 1 0.49669 0.841341 0
753 1 0.0427928 0.859278 0
752 1 0.0187472 0.861575 0
783 1 0.0351288 0.881134 0
782 1 0.0116407 0.887034 0
784 1 0.0619886 0.87291 0
786 1 0.0795332 0.889333 0
787 1 0.0870602 0.86239 0
815 1 0.0546994 0.897224 0
817 1 0.103469 0.88142 0
789 1 0.131221 0.855641 0
788 1 0.127032 0.879003 0
790 1 0.144356 0.895697 0
791 1 0.150436 0.871334 0
762 1 0.174993 0.86028 0
793 1 0.1696 0.889272 0
795 1 0.198655 0.868988 0
765 1 0.22088 0.854848 0
796 1 0.221183 0.879323 0
825 1 0.23841 0.897642 0
766 1 0.244288 0.865125 0
797 1 0.269063 0.871724 0
827 1 0.262971 0.894659 0
798 1 0.288534 0.888137 0
799 1 0.290759 0.859868 0
772 1 0.344426 0.852925 0
770 1 0.320715 0.860461 0
800 1 0.312551 0.883181 0
801 1 0.337903 0.877339 0
802 1 0.355185 0.894612 0
803 1 0.362619 0.869889 0
804 1 0.378871 0.888173 0
805 1 0.388244 0.865467 0
807 1 0.412591 0.867152 0
808 1 0.437548 0.872051 0
837 1 0.444207 0.898037 0
809 1 0.456963 0.854783 0
1681 1 0.480895 0.860625 0
1711 1 0.488004 0.884247 0
810 1 0.462045 0.878202 0
813 1 0.0297698 0.905113 0
843 1 0.0227205 0.92892 0
844 1 0.0392846 0.946557 0
812 1 0.0050551 0.91025 0
814 1 0.0474379 0.922128 0
816 1 0.0951935 0.908023 0
845 1 0.0708284 0.915801 0
846 1 0.0646482 0.94031 0
847 1 0.0879338 0.933591 0
819 1 0.120326 0.903635 0
818 1 0.112454 0.926851 0
820 1 0.129805 0.944064 0
821 1 0.13879 0.919811 0
792 1 0.162358 0.913284 0
851 1 0.155736 0.938147 0
823 1 0.187541 0.906886 0
822 1 0.180108 0.932478 0
794 1 0.214089 0.903484 0
824 1 0.205379 0.92664 0
885 1 0.223088 0.945616 0
855 1 0.230078 0.922132 0
856 1 0.247478 0.940809 0
826 1 0.254236 0.917622 0
857 1 0.272332 0.934746 0
828 1 0.280239 0.911773 0
859 1 0.29755 0.930006 0
831 1 0.330068 0.900594 0
829 1 0.305006 0.906543 0
830 1 0.323705 0.924486 0
861 1 0.338717 0.942661 0
860 1 0.314824 0.947965 0
832 1 0.347436 0.918678 0
863 1 0.362995 0.937933 0
833 1 0.371689 0.912725 0
834 1 0.387788 0.931291 0
806 1 0.396228 0.908609 0
835 1 0.41511 0.926831 0
836 1 0.436309 0.940594 0
865 1 0.404756 0.949577 0
838 1 0.452427 0.921127 0
869 1 0.462077 0.945504 0
839 1 0.470664 0.902791 0
840 1 0.476924 0.926376 0
1712 1 0.495309 0.907764 0
870 1 0.48762 0.949769 0
842 1 0.0143579 0.953693 0
872 1 0.0247144 0.994063 0
873 1 0.0325844 0.970396 0
871 1 0.00689539 0.977013 0
874 1 0.0485827 0.988138 0
875 1 0.0564196 0.963243 0
876 1 0.0730669 0.980004 0
848 1 0.0819457 0.95763 0
877 1 0.0980869 0.974602 0
7 1 0.0901418 0.998127 0
849 1 0.10549 0.950379 0
878 1 0.11567 0.99248 0
879 1 0.122109 0.968223 0
881 1 0.139793 0.987116 0
850 1 0.147327 0.962883 0
853 1 0.173221 0.956663 0
852 1 0.166011 0.980588 0
883 1 0.191522 0.974045 0
854 1 0.197421 0.95065 0
882 1 0.181387 0.998642 0
13 1 0.206595 0.994247 0
15 1 0.232298 0.98789 0
884 1 0.215483 0.968364 0
886 1 0.239718 0.964382 0
858 1 0.289932 0.953214 0
887 1 0.264596 0.959015 0
17 1 0.256226 0.982979 0
888 1 0.282074 0.97644 0
19 1 0.298394 0.995099 0
889 1 0.307021 0.971143 0
890 1 0.322443 0.990251 0
891 1 0.332315 0.966322 0
892 1 0.349017 0.98449 0
862 1 0.356233 0.960789 0
864 1 0.3817 0.955905 0
893 1 0.372572 0.980035 0
895 1 0.397542 0.975129 0
894 1 0.390162 0.998164 0
867 1 0.446319 0.964752 0
866 1 0.42193 0.968481 0
896 1 0.417956 0.993432 0
897 1 0.448786 0.988885 0
868 1 0.470891 0.967936 0
899 1 0.475702 0.99216 0
1771 1 0.49448 0.972772 0
902 1 0.53638 0.0247776 0
901 1 0.510638 0.0203092 0
931 1 0.520061 0.0429931 0
903 1 0.527016 0.00203099 0
933 1 0.543487 0.0470022 0
904 1 0.560523 0.0298218 0
906 1 0.577898 0.0119515 0
935 1 0.58477 0.0369757 0
905 1 0.553038 0.00712601 0
908 1 0.601288 0.0185171 0
937 1 0.608381 0.04356 0
939 1 0.626318 0.0249198 0
910 1 0.642961 0.00558919 0
909 1 0.618833 -0.00094574 0
938 1 0.632623 0.0496233 0
941 1 0.649752 0.0311509 0
912 1 0.66868 0.0135295 0
942 1 0.676913 0.0365108 0
943 1 0.694017 0.0170046 0
973 1 0.700763 0.0418183 0
944 1 0.717825 0.024437 0
945 1 0.735128 0.00533198 0
946 1 0.742144 0.0304515 0
975 1 0.725158 0.0478505 0
947 1 0.759334 0.0110424 0
948 1 0.766696 0.0348552 0
918 1 0.783025 0.0172208 0
979 1 0.791325 0.0414053 0
949 1 0.810279 0.0195747 0
951 1 0.836549 0.0194533 0
950 1 0.823842 0.0412083 0
952 1 0.851397 0.0375592 0
953 1 0.861008 0.0123889 0
924 1 0.884762 0.0077805 0
954 1 0.875726 0.0316059 0
955 1 0.900102 0.0271012 0
926 1 0.925122 0.0202058 0
957 1 0.941856 0.0383261 0
956 1 0.918268 0.044296 0
925 1 0.909066 0.00117233 0
928 1 0.949646 0.0146525 0
959 1 0.966581 0.0313246 0
930 1 0.991072 0.0262509 0
929 1 0.974975 0.00724658 0
1 1 0.999066 0.0020471 0
932 1 0.527659 0.0673615 0
962 1 0.534899 0.0912251 0
961 1 0.5109 0.0844496 0
60 1 0.503285 0.0603533 0
963 1 0.551297 0.0722498 0
934 1 0.567462 0.0536699 0
965 1 0.574852 0.0782697 0
936 1 0.592681 0.0610759 0
964 1 0.55824 0.0971935 0
966 1 0.599039 0.084743 0
967 1 0.616205 0.0674442 0
968 1 0.625053 0.0914093 0
969 1 0.641405 0.0728534 0
999 1 0.649628 0.0980621 0
940 1 0.659115 0.0541343 0
970 1 0.664198 0.0787339 0
971 1 0.683078 0.0593791 0
972 1 0.690137 0.0840526 0
1003 1 0.706847 0.0660282 0
1004 1 0.71459 0.0898129 0
974 1 0.731304 0.0715499 0
1005 1 0.740242 0.0954809 0
976 1 0.748325 0.0542832 0
1007 1 0.757774 0.0765719 0
977 1 0.772569 0.0581398 0
978 1 0.795517 0.0696804 0
1008 1 0.788157 0.0947034 0
1006 1 0.764322 0.099355 0
980 1 0.819465 0.0669782 0
981 1 0.843683 0.0606416 0
1009 1 0.812674 0.09048 0
1011 1 0.836161 0.0847366 0
985 1 0.893453 0.0509065 0
982 1 0.860692 0.07909 0
983 1 0.868845 0.0550159 0
984 1 0.886276 0.0744256 0
1013 1 0.878096 0.097202 0
1015 1 0.903099 0.0920628 0
986 1 0.910458 0.0680291 0
987 1 0.934633 0.0620718 0
1017 1 0.927044 0.0866056 0
960 1 0.983413 0.0496165 0
988 1 0.951261 0.0797042 0
958 1 0.959143 0.0547352 0
989 1 0.977156 0.0733387 0
990 1 0.992999 0.0923857 0
1019 1 0.968078 0.0976868 0
120 1 0.499872 0.126446 0
991 1 0.51671 0.109277 0
992 1 0.523576 0.132239 0
993 1 0.540757 0.114254 0
1023 1 0.547352 0.138058 0
995 1 0.582321 0.10252 0
994 1 0.563756 0.12036 0
996 1 0.589252 0.126024 0
1025 1 0.573138 0.14442 0
997 1 0.607431 0.108212 0
998 1 0.631221 0.115779 0
1027 1 0.613437 0.131998 0
1029 1 0.639411 0.138703 0
1001 1 0.674329 0.102935 0
1000 1 0.65662 0.121448 0
1031 1 0.681322 0.126186 0
1030 1 0.664236 0.143749 0
1002 1 0.69889 0.108864 0
1032 1 0.689248 0.150699 0
1033 1 0.706173 0.133393 0
1035 1 0.724442 0.11509 0
1034 1 0.731339 0.139518 0
1036 1 0.749753 0.120276 0
1037 1 0.776695 0.120853 0
1038 1 0.795581 0.136649 0
1067 1 0.757937 0.144059 0
1039 1 0.803142 0.114092 0
1010 1 0.829911 0.108329 0
1040 1 0.821006 0.131887 0
1041 1 0.845763 0.126374 0
1012 1 0.853644 0.101912 0
1043 1 0.869328 0.121871 0
1014 1 0.894502 0.114642 0
1044 1 0.886684 0.1392 0
1042 1 0.860413 0.145125 0
1018 1 0.943695 0.104707 0
1045 1 0.911535 0.134053 0
1016 1 0.919736 0.109728 0
1047 1 0.936536 0.129921 0
1049 1 0.960982 0.122897 0
1020 1 0.984905 0.11549 0
1050 1 0.977375 0.14107 0
1046 1 0.953126 0.147506 0
1021 1 0.507375 0.150926 0
1022 1 0.532283 0.156248 0
1053 1 0.539249 0.180953 0
1051 1 0.513088 0.175369 0
1052 1 0.523039 0.198903 0
1026 1 0.597186 0.150583 0
1024 1 0.556232 0.161699 0
1055 1 0.580938 0.168954 0
1054 1 0.563146 0.186661 0
1056 1 0.58806 0.191928 0
1028 1 0.621705 0.156186 0
1057 1 0.605407 0.174584 0
1058 1 0.630836 0.18048 0
1059 1 0.64711 0.162442 0
1087 1 0.612118 0.198612 0
1060 1 0.655794 0.186221 0
1061 1 0.671836 0.168291 0
1091 1 0.680673 0.192157 0
1062 1 0.697148 0.174282 0
1063 1 0.713841 0.156368 0
1064 1 0.721907 0.178591 0
1095 1 0.748158 0.186253 0
1065 1 0.739363 0.162327 0
1093 1 0.705046 0.197126 0
1066 1 0.764612 0.169037 0
1068 1 0.787192 0.160364 0
1097 1 0.773097 0.193142 0
1071 1 0.836152 0.150491 0
1069 1 0.812654 0.155024 0
1070 1 0.827706 0.174147 0
1099 1 0.802738 0.178047 0
1101 1 0.846396 0.191688 0
1100 1 0.821386 0.196953 0
1072 1 0.85178 0.167723 0
1073 1 0.879597 0.162946 0
1103 1 0.870732 0.186165 0
1074 1 0.897286 0.180621 0
1077 1 0.929075 0.15346 0
1075 1 0.904828 0.157704 0
1076 1 0.92143 0.175986 0
1107 1 0.938049 0.194532 0
1078 1 0.946616 0.171068 0
1105 1 0.91349 0.199198 0
1048 1 0.971099 0.164211 0
151 1 0.995189 0.157063 0
1079 1 0.987885 0.181136 0
1109 1 0.962798 0.18822 0
1083 1 0.546682 0.204654 0
1082 1 0.529117 0.222178 0
1111 1 0.510166 0.239839 0
1113 1 0.53524 0.245432 0
1081 1 0.503547 0.215235 0
1084 1 0.552697 0.227607 0
1085 1 0.571652 0.210189 0
1086 1 0.595593 0.216856 0
1115 1 0.576647 0.234928 0
1117 1 0.600931 0.240078 0
1089 1 0.637643 0.203805 0
1088 1 0.620218 0.221739 0
1119 1 0.644841 0.227672 0
1118 1 0.626513 0.24561 0
1090 1 0.663281 0.210249 0
1092 1 0.687111 0.216122 0
1121 1 0.669452 0.233922 0
1122 1 0.692974 0.24043 0
1094 1 0.729474 0.202689 0
1123 1 0.711478 0.221076 0
1124 1 0.717663 0.244964 0
1125 1 0.736109 0.22702 0
1096 1 0.753649 0.210782 0
1127 1 0.778341 0.217801 0
1126 1 0.760146 0.235425 0
1128 1 0.784995 0.240627 0
1098 1 0.797877 0.203042 0
1131 1 0.839459 0.214554 0
1129 1 0.813351 0.221689 0
1130 1 0.830409 0.240239 0
1159 1 0.808305 0.249528 0
1102 1 0.86371 0.211263 0
1104 1 0.889086 0.205399 0
1132 1 0.854212 0.234902 0
1133 1 0.880568 0.228322 0
1134 1 0.897253 0.247305 0
1135 1 0.906369 0.224348 0
1106 1 0.929741 0.218491 0
1136 1 0.922794 0.242396 0
1137 1 0.94656 0.236303 0
1108 1 0.953688 0.212759 0
1110 1 0.979597 0.204285 0
1139 1 0.972975 0.228065 0
1140 1 0.988631 0.246217 0
181 1 0.997449 0.222774 0
1112 1 0.517736 0.26339 0
1143 1 0.542306 0.269817 0
1142 1 0.523649 0.288649 0
1144 1 0.548908 0.294279 0
1114 1 0.559192 0.252308 0
1116 1 0.583927 0.258056 0
1145 1 0.566857 0.276513 0
1146 1 0.590279 0.282227 0
1175 1 0.572334 0.300641 0
1147 1 0.607194 0.263514 0
1149 1 0.632596 0.269299 0
1148 1 0.61502 0.287152 0
1179 1 0.639274 0.293274 0
1120 1 0.651195 0.251132 0