ITEM: TIMESTEP
212000
ITEM: NUMBER OF ATOMS
1800
ITEM: BOX BOUNDS pp pp pp
3.2804546698148869e+00 1.5511954533018240e+02
3.2804546698148869e+00 1.5511954533018240e+02
0.0000000000000000e+00 5.2800000000000002e+00
ITEM: ATOMS id type xs ys zs
2 1 0.0182086 0.0177839 0
3 1 0.0432915 0.0129685 0
33 1 0.0355624 0.0362836 0
31 1 0.00997787 0.0425322 0
1 1 0.00168365 0.0005244 0
4 1 0.0603051 0.0306845 0
6 1 0.0848331 0.0237475 0
5 1 0.068177 0.00561873 0
7 1 0.0922092 0.000840992 0
35 1 0.0782813 0.0483862 0
37 1 0.102757 0.0425329 0
8 1 0.109023 0.0186499 0
9 1 0.126903 0.0365911 0
880 1 0.133234 0.0119136 0
10 1 0.150602 0.0313474 0
11 1 0.157257 0.00646923 0
12 1 0.173524 0.0242884 0
43 1 0.191263 0.0437969 0
14 1 0.198935 0.0188063 0
41 1 0.167292 0.048593 0
882 1 0.181545 0.000350357 0
44 1 0.214889 0.038467 0
45 1 0.223108 0.015574 0
46 1 0.240625 0.0338665 0
16 1 0.24843 0.00964747 0
47 1 0.266205 0.0275963 0
49 1 0.291232 0.0197274 0
48 1 0.283054 0.0451124 0
18 1 0.273127 0.00353102 0
50 1 0.306751 0.0400075 0
20 1 0.31516 0.015198 0
51 1 0.32985 0.0335812 0
21 1 0.339251 0.00986406 0
22 1 0.355312 0.0287224 0
24 1 0.380703 0.0216546 0
53 1 0.371422 0.0467634 0
55 1 0.395935 0.0418734 0
23 1 0.363458 0.0040657 0
25 1 0.405132 0.0150352 0
26 1 0.420347 0.0342551 0
27 1 0.433341 0.0109684 0
28 1 0.44485 0.0344356 0
30 1 0.493872 0.0388695 0
898 1 0.457671 0.0143857 0
29 1 0.483368 0.0165812 0
59 1 0.467957 0.0413888 0
32 1 0.027233 0.058901 0
62 1 0.0186582 0.0854388 0
63 1 0.0447311 0.0783788 0
61 1 0.00269134 0.0668896 0
34 1 0.0531164 0.0542294 0
65 1 0.0693721 0.0723079 0
66 1 0.0858032 0.0908487 0
36 1 0.0940657 0.0667712 0
64 1 0.0610033 0.0961596 0
39 1 0.142984 0.0554808 0
38 1 0.118297 0.0611618 0
67 1 0.110916 0.0839459 0
69 1 0.135301 0.0786558 0
70 1 0.151694 0.0961811 0
40 1 0.159294 0.073123 0
71 1 0.177299 0.0926959 0
42 1 0.183173 0.067953 0
72 1 0.20129 0.0853628 0
73 1 0.209088 0.0623514 0
74 1 0.22558 0.0810493 0
75 1 0.234279 0.0571664 0
106 1 0.242537 0.0985276 0
77 1 0.258594 0.0516397 0
76 1 0.250143 0.0753194 0
78 1 0.275164 0.0692607 0
109 1 0.292889 0.086696 0
107 1 0.268282 0.0932958 0
79 1 0.300231 0.0636446 0
52 1 0.346987 0.053645 0
80 1 0.317661 0.0841367 0
81 1 0.324041 0.0582322 0
82 1 0.340898 0.0774476 0
83 1 0.365243 0.0711206 0
113 1 0.380832 0.0892824 0
54 1 0.390048 0.0651218 0
56 1 0.41434 0.0575177 0
57 1 0.438963 0.0596683 0
85 1 0.422475 0.0800465 0
87 1 0.445454 0.0877322 0
84 1 0.405032 0.0973265 0
88 1 0.468095 0.0941201 0
58 1 0.462322 0.0680711 0
89 1 0.485347 0.077742 0
93 1 0.0363608 0.101429 0
92 1 0.0276161 0.125658 0
91 1 0.0110715 0.108072 0
121 1 0.00286135 0.132667 0
123 1 0.0444846 0.143802 0
122 1 0.0206457 0.149239 0
94 1 0.0525728 0.119901 0
95 1 0.0774694 0.114222 0
125 1 0.0702146 0.137371 0
96 1 0.0941003 0.13249 0
68 1 0.126591 0.102388 0
97 1 0.102253 0.108786 0
98 1 0.118829 0.126903 0
99 1 0.143304 0.120244 0
129 1 0.135995 0.143855 0
100 1 0.16787 0.114247 0
130 1 0.160185 0.138406 0
131 1 0.185335 0.132723 0
101 1 0.194334 0.109681 0
103 1 0.217927 0.104041 0
102 1 0.210084 0.128234 0
105 1 0.234987 0.123615 0
104 1 0.229203 0.146555 0
136 1 0.253317 0.142998 0
135 1 0.259275 0.116518 0
137 1 0.277158 0.133758 0
108 1 0.285274 0.11134 0
111 1 0.336265 0.101732 0
139 1 0.302576 0.134662 0
110 1 0.310384 0.111257 0
141 1 0.344311 0.125979 0
140 1 0.327151 0.14255 0
112 1 0.361238 0.107139 0
114 1 0.386257 0.114975 0
143 1 0.368061 0.131355 0
144 1 0.393241 0.139641 0
86 1 0.428111 0.104968 0
115 1 0.411122 0.122397 0
116 1 0.434558 0.129816 0
145 1 0.417255 0.146625 0
117 1 0.451913 0.112369 0
90 1 0.493661 0.102151 0
118 1 0.459016 0.135012 0
119 1 0.475088 0.118072 0
149 1 0.483273 0.142865 0
153 1 0.0364149 0.168627 0
152 1 0.0132053 0.175438 0
183 1 0.0301917 0.193673 0
1080 1 0.00575005 0.199842 0
124 1 0.0611523 0.162396 0
126 1 0.0861502 0.156028 0
155 1 0.0780572 0.180024 0
154 1 0.0540881 0.185906 0
156 1 0.0945471 0.197866 0
127 1 0.111575 0.150082 0
128 1 0.128064 0.168001 0
157 1 0.102916 0.173741 0
160 1 0.14559 0.185893 0
158 1 0.119412 0.191518 0
132 1 0.176827 0.156886 0
159 1 0.153142 0.161664 0
161 1 0.169296 0.180654 0
162 1 0.186914 0.198444 0
163 1 0.194021 0.175202 0
133 1 0.20139 0.15012 0
134 1 0.21789 0.167919 0
164 1 0.229252 0.188185 0
165 1 0.244977 0.168613 0
166 1 0.253837 0.191407 0
167 1 0.268802 0.173228 0
138 1 0.287536 0.155353 0
168 1 0.295078 0.180294 0
197 1 0.277986 0.197101 0
169 1 0.312189 0.160443 0
171 1 0.335596 0.168972 0
170 1 0.318505 0.187 0
201 1 0.342994 0.194505 0
142 1 0.351905 0.150013 0
172 1 0.359347 0.17591 0
173 1 0.375028 0.156906 0
174 1 0.381888 0.182144 0
175 1 0.398865 0.164377 0
203 1 0.365996 0.201024 0
147 1 0.44162 0.15279 0
146 1 0.423309 0.170211 0
205 1 0.406578 0.187753 0
176 1 0.430239 0.194313 0
177 1 0.448381 0.178429 0
148 1 0.46481 0.159908 0
150 1 0.489748 0.167133 0
179 1 0.473126 0.184879 0
180 1 0.497861 0.190915 0
182 1 0.0231586 0.218125 0
213 1 0.0394707 0.235515 0
211 1 0.0159855 0.242033 0
184 1 0.0485415 0.210712 0
185 1 0.070929 0.203538 0
186 1 0.0887732 0.222492 0
215 1 0.0650117 0.2286 0
216 1 0.0835641 0.246796 0
187 1 0.111996 0.215534 0
188 1 0.132274 0.244879 0
189 1 0.136827 0.209643 0
217 1 0.106219 0.238757 0
191 1 0.162782 0.206277 0
190 1 0.151267 0.228747 0
192 1 0.19385 0.221567 0
221 1 0.174761 0.237851 0
223 1 0.198529 0.245673 0
193 1 0.211465 0.204073 0
194 1 0.218123 0.229484 0
195 1 0.2352 0.21123 0
225 1 0.242436 0.234098 0
196 1 0.259674 0.215265 0
198 1 0.284161 0.221736 0
227 1 0.266166 0.239914 0
228 1 0.289894 0.24804 0
199 1 0.301905 0.204565 0
200 1 0.325174 0.211224 0
229 1 0.307335 0.228969 0
231 1 0.331493 0.235947 0
202 1 0.348726 0.219035 0
204 1 0.388541 0.20572 0
233 1 0.372021 0.225155 0
235 1 0.396125 0.229368 0
232 1 0.355197 0.242666 0
234 1 0.379783 0.248966 0
207 1 0.437595 0.218394 0
206 1 0.420885 0.236614 0
237 1 0.445911 0.244354 0
178 1 0.456089 0.203065 0
208 1 0.462215 0.226448 0
209 1 0.479949 0.208731 0
210 1 0.4866 0.233437 0
212 1 0.00710235 0.264654 0
243 1 0.0336793 0.259958 0
242 1 0.0079758 0.288797 0
273 1 0.0320864 0.296565 0
244 1 0.0507987 0.280185 0
214 1 0.056782 0.252677 0
245 1 0.0727157 0.269313 0
247 1 0.0767728 0.29439 0
218 1 0.0965984 0.276895 0
219 1 0.114063 0.261483 0
249 1 0.138514 0.269936 0
248 1 0.119588 0.286928 0
250 1 0.143862 0.294499 0
220 1 0.156184 0.252756 0
222 1 0.180934 0.262267 0
251 1 0.16234 0.277572 0
252 1 0.187161 0.286443 0
224 1 0.222978 0.2524 0
253 1 0.205047 0.269876 0
255 1 0.230019 0.276971 0
254 1 0.211734 0.293972 0
226 1 0.247584 0.258241 0
256 1 0.253141 0.283237 0
257 1 0.271814 0.266353 0
259 1 0.295707 0.271521 0
258 1 0.278088 0.290151 0
289 1 0.302012 0.296533 0
230 1 0.313916 0.253221 0
260 1 0.319425 0.278939 0
261 1 0.337334 0.260331 0
262 1 0.343977 0.284859 0
263 1 0.361768 0.267193 0
264 1 0.387111 0.271438 0
293 1 0.368141 0.290404 0
295 1 0.392309 0.297021 0
265 1 0.40408 0.25435 0
236 1 0.427886 0.262236 0
266 1 0.410109 0.280421 0
267 1 0.435213 0.285214 0
239 1 0.469446 0.250616 0
238 1 0.452763 0.268483 0
240 1 0.493009 0.256946 0
269 1 0.475977 0.274966 0
268 1 0.458376 0.293324 0
270 1 0.482728 0.299506 0
271 1 0.0132734 0.312434 0
272 1 0.0368643 0.321819 0
301 1 0.0183003 0.337151 0
303 1 0.0418268 0.347217 0
275 1 0.0553404 0.305676 0
276 1 0.0809143 0.317623 0
274 1 0.0601469 0.331225 0
305 1 0.0859039 0.341986 0
246 1 0.0996364 0.302268 0
279 1 0.124631 0.310144 0
277 1 0.105339 0.327099 0
278 1 0.128401 0.334273 0
280 1 0.148326 0.31903 0
281 1 0.167501 0.301541 0
311 1 0.152104 0.342521 0
283 1 0.192003 0.309952 0
282 1 0.173023 0.325691 0
313 1 0.197213 0.33426 0
285 1 0.236344 0.300737 0
284 1 0.216603 0.318089 0
315 1 0.222065 0.342786 0
286 1 0.240583 0.325218 0
316 1 0.246451 0.349503 0
287 1 0.259169 0.307723 0
288 1 0.283157 0.314191 0
317 1 0.265453 0.331671 0
319 1 0.289764 0.338964 0
291 1 0.325567 0.302553 0
290 1 0.307306 0.320854 0
321 1 0.314524 0.343623 0
292 1 0.331066 0.326155 0
323 1 0.349603 0.308254 0
294 1 0.374832 0.314814 0
324 1 0.356972 0.332039 0
325 1 0.380858 0.338456 0
296 1 0.400279 0.321631 0
326 1 0.404285 0.345232 0
297 1 0.4175 0.303751 0
298 1 0.440963 0.31073 0
327 1 0.424033 0.329714 0
328 1 0.448054 0.334677 0
299 1 0.465325 0.317297 0
300 1 0.490271 0.323622 0
329 1 0.472861 0.340746 0
1201 1 0.497402 0.348016 0
331 1 0.00346077 0.379532 0
302 1 0.0232719 0.364196 0
332 1 0.0283328 0.388126 0
333 1 0.0474573 0.372087 0
334 1 0.0526257 0.396593 0
304 1 0.0665169 0.356066 0
306 1 0.091744 0.367672 0
335 1 0.0713978 0.379947 0
337 1 0.0944374 0.391792 0
307 1 0.109994 0.350879 0
309 1 0.132996 0.358824 0
308 1 0.114325 0.375541 0
339 1 0.137653 0.383877 0
312 1 0.177696 0.349885 0
310 1 0.159165 0.366511 0
341 1 0.161417 0.391894 0
343 1 0.182801 0.375839 0
314 1 0.201715 0.359155 0
345 1 0.227482 0.366594 0
344 1 0.205828 0.384869 0
375 1 0.230429 0.392024 0
346 1 0.251351 0.374202 0
318 1 0.270498 0.357138 0
349 1 0.295885 0.362776 0
347 1 0.275759 0.380763 0
377 1 0.254494 0.399505 0
350 1 0.299462 0.387352 0
322 1 0.339107 0.350228 0
320 1 0.320588 0.367795 0
351 1 0.345636 0.374196 0
381 1 0.328111 0.389985 0
352 1 0.353079 0.398696 0
353 1 0.362231 0.3563 0
355 1 0.386584 0.362922 0
354 1 0.37009 0.379866 0
385 1 0.394638 0.38705 0
357 1 0.42979 0.353473 0
356 1 0.412063 0.368664 0
387 1 0.436946 0.376638 0
386 1 0.418849 0.393217 0
359 1 0.453066 0.358548 0
358 1 0.460567 0.383852 0
330 1 0.477267 0.365882 0
360 1 0.484412 0.388862 0
361 1 0.00766542 0.403733 0
363 1 0.032896 0.412265 0
362 1 0.0131872 0.428453 0
364 1 0.0360953 0.437177 0
336 1 0.0752055 0.406796 0
365 1 0.0562291 0.422141 0
395 1 0.0619104 0.446065 0
367 1 0.100095 0.417309 0
338 1 0.118758 0.400444 0
366 1 0.105835 0.44048 0
369 1 0.124603 0.424935 0
340 1 0.143477 0.408201 0
370 1 0.14832 0.434675 0
368 1 0.128743 0.450314 0
342 1 0.186535 0.401495 0
371 1 0.16679 0.417173 0
401 1 0.172376 0.442469 0
372 1 0.193007 0.426105 0
373 1 0.210849 0.408622 0
374 1 0.21487 0.434584 0
376 1 0.236051 0.416637 0
405 1 0.239681 0.442453 0
348 1 0.27969 0.406771 0
407 1 0.277866 0.440707 0
378 1 0.259088 0.424631 0
409 1 0.29613 0.42591 0
379 1 0.312719 0.408883 0
380 1 0.319729 0.433094 0
382 1 0.335445 0.415458 0
411 1 0.342412 0.44114 0
408 1 0.301418 0.449259 0
413 1 0.358936 0.423148 0
383 1 0.376962 0.405133 0
414 1 0.383352 0.429615 0
412 1 0.366298 0.446713 0
388 1 0.442709 0.400864 0
384 1 0.402075 0.410333 0
415 1 0.40732 0.435771 0
417 1 0.425224 0.418724 0
416 1 0.431717 0.442572 0
419 1 0.448983 0.42537 0
389 1 0.467713 0.406577 0
418 1 0.473391 0.43175 0
390 1 0.492408 0.413097 0
420 1 0.497981 0.437341 0
447 1 0.456355 0.449028 0
393 1 0.0173981 0.452419 0
422 1 0.00286532 0.492388 0
423 1 0.0224462 0.477147 0
394 1 0.0421636 0.461682 0
425 1 0.0465827 0.485632 0
397 1 0.0861733 0.454955 0
396 1 0.0663406 0.470132 0
426 1 0.0693528 0.495004 0
427 1 0.0897957 0.479477 0
398 1 0.1101 0.465827 0
428 1 0.114197 0.489656 0
429 1 0.133906 0.474936 0
459 1 0.136595 0.498752 0
403 1 0.19584 0.450433 0
399 1 0.153479 0.457998 0
400 1 0.176103 0.466272 0
430 1 0.157719 0.482404 0
431 1 0.180674 0.491813 0
402 1 0.199121 0.475535 0
404 1 0.219303 0.459689 0
432 1 0.221494 0.484621 0
433 1 0.242262 0.472263 0
434 1 0.245147 0.49707 0
435 1 0.260383 0.455496 0
436 1 0.264796 0.480889 0
406 1 0.282995 0.464925 0
437 1 0.288409 0.490815 0
439 1 0.306358 0.474616 0
410 1 0.324194 0.457433 0
440 1 0.330623 0.482544 0
441 1 0.348699 0.464993 0
438 1 0.311256 0.498585 0
471 1 0.353692 0.488258 0
472 1 0.378473 0.495952 0
442 1 0.37229 0.47258 0
473 1 0.396635 0.477697 0
443 1 0.390208 0.45399 0
444 1 0.421149 0.483742 0
477 1 0.444828 0.490726 0
446 1 0.438021 0.466984 0
445 1 0.414492 0.460427 0
478 1 0.469416 0.497554 0
448 1 0.463339 0.472818 0
450 1 0.488248 0.479129 0
449 1 0.481059 0.455197 0
453 1 0.00791507 0.517238 0
452 1 0.0132255 0.541432 0
454 1 0.031515 0.524992 0
424 1 0.0260198 0.501573 0
455 1 0.050462 0.510165 0
485 1 0.0546891 0.534968 0
456 1 0.0741508 0.519609 0
486 1 0.0789123 0.544332 0
457 1 0.0930497 0.504264 0
487 1 0.0978421 0.528765 0
458 1 0.116835 0.513548 0
488 1 0.120788 0.540066 0
489 1 0.140647 0.523461 0
490 1 0.144609 0.548728 0
462 1 0.183646 0.516703 0
491 1 0.163623 0.53359 0
460 1 0.160639 0.507711 0
492 1 0.1865 0.543126 0
461 1 0.202471 0.500966 0
493 1 0.206123 0.52652 0
463 1 0.225464 0.510878 0
495 1 0.229247 0.535946 0
464 1 0.249218 0.521685 0
466 1 0.272977 0.531526 0
465 1 0.26921 0.506716 0
467 1 0.292324 0.516679 0
497 1 0.297782 0.540927 0
496 1 0.253385 0.54639 0
468 1 0.316473 0.522559 0
469 1 0.334823 0.506674 0
499 1 0.341087 0.530157 0
498 1 0.321917 0.54899 0
470 1 0.359074 0.512692 0
503 1 0.383686 0.519513 0
505 1 0.390075 0.54387 0
501 1 0.366014 0.53718 0
474 1 0.402657 0.502214 0
476 1 0.408005 0.526711 0
509 1 0.433432 0.533326 0
475 1 0.426686 0.509265 0
507 1 0.451444 0.515404 0
479 1 0.475358 0.521101 0
480 1 0.457388 0.538865 0
510 1 0.481157 0.54535 0
1351 1 0.494033 0.503403 0
1381 1 0.500306 0.526686 0
483 1 0.034875 0.550742 0
513 1 0.0151511 0.567245 0
514 1 0.0384263 0.575354 0
512 1 0.0195382 0.592827 0
484 1 0.0593229 0.56037 0
515 1 0.0816152 0.569534 0
545 1 0.0623827 0.584832 0
516 1 0.0846792 0.593972 0
517 1 0.100939 0.555097 0
518 1 0.104204 0.58042 0
519 1 0.124952 0.565391 0
549 1 0.127588 0.589388 0
520 1 0.147304 0.574409 0
521 1 0.167329 0.558489 0
522 1 0.171627 0.583143 0
523 1 0.191978 0.568321 0
553 1 0.194894 0.592885 0
551 1 0.150295 0.5987 0
494 1 0.210002 0.551627 0
524 1 0.214556 0.577811 0
525 1 0.233734 0.561563 0
555 1 0.239461 0.585571 0
526 1 0.258872 0.570085 0
527 1 0.278582 0.555464 0
528 1 0.281852 0.58008 0
557 1 0.262091 0.595847 0
529 1 0.302193 0.565058 0
500 1 0.345914 0.554798 0
530 1 0.327815 0.572728 0
559 1 0.307789 0.589033 0
561 1 0.333427 0.595892 0
531 1 0.353603 0.578352 0
502 1 0.371663 0.56215 0
504 1 0.397302 0.56789 0
533 1 0.378614 0.585723 0
506 1 0.414733 0.550295 0
534 1 0.401887 0.591909 0
535 1 0.420555 0.575686 0
508 1 0.438673 0.557983 0
537 1 0.445784 0.581517 0
536 1 0.426794 0.59953 0
539 1 0.463517 0.563911 0
540 1 0.486711 0.56888 0
538 1 0.469587 0.58789 0
569 1 0.493305 0.593139 0
543 1 0.0423135 0.60046 0
542 1 0.0211516 0.617375 0
573 1 0.0249199 0.642155 0
544 1 0.0443412 0.625362 0
571 1 0.000483362 0.633041 0
574 1 0.0490247 0.649436 0
546 1 0.0651238 0.610904 0
547 1 0.0878639 0.619285 0
575 1 0.0697192 0.635881 0
576 1 0.0920914 0.645486 0
548 1 0.107549 0.604322 0
550 1 0.130286 0.613516 0
577 1 0.11054 0.629546 0
579 1 0.133909 0.639072 0
581 1 0.152923 0.623684 0
552 1 0.174664 0.607825 0
582 1 0.177736 0.631826 0
580 1 0.157086 0.647783 0
583 1 0.198708 0.617155 0
584 1 0.201308 0.642599 0
554 1 0.219329 0.602586 0
556 1 0.242483 0.611306 0
585 1 0.221174 0.625936 0
586 1 0.245032 0.635269 0
587 1 0.265349 0.621172 0
558 1 0.286184 0.606277 0
588 1 0.268508 0.644621 0
589 1 0.289991 0.632048 0
560 1 0.310342 0.615837 0
591 1 0.324111 0.637556 0
562 1 0.340367 0.619744 0
593 1 0.3488 0.644202 0
532 1 0.359982 0.602022 0
563 1 0.384512 0.609861 0
564 1 0.366649 0.62633 0
595 1 0.392183 0.634072 0
565 1 0.408902 0.615903 0
566 1 0.432726 0.623413 0
596 1 0.415304 0.641732 0
598 1 0.439066 0.64815 0
567 1 0.451638 0.604898 0
597 1 0.457818 0.631057 0
568 1 0.475256 0.612406 0
570 1 0.482316 0.636206 0
572 1 0.00615381 0.658083 0
603 1 0.0286085 0.666283 0
602 1 0.00942712 0.682898 0
633 1 0.0335847 0.691853 0
604 1 0.0524638 0.676628 0
605 1 0.0717695 0.660417 0
606 1 0.0758502 0.685441 0
607 1 0.0958339 0.670523 0
637 1 0.100209 0.695131 0
578 1 0.114716 0.65421 0
609 1 0.137644 0.664239 0
608 1 0.118757 0.679401 0
639 1 0.142724 0.688679 0
611 1 0.181143 0.65758 0
610 1 0.161688 0.672073 0
612 1 0.186797 0.683097 0
641 1 0.166333 0.698092 0
615 1 0.224272 0.651537 0
613 1 0.204524 0.667218 0
614 1 0.228205 0.675243 0
643 1 0.209045 0.692364 0
617 1 0.247487 0.659675 0
616 1 0.251409 0.685339 0
619 1 0.293042 0.675228 0
618 1 0.269979 0.669414 0
647 1 0.273627 0.693915 0
649 1 0.29762 0.699202 0
590 1 0.305018 0.653797 0
621 1 0.315766 0.682112 0
592 1 0.331183 0.661837 0
622 1 0.338893 0.688897 0
623 1 0.356906 0.669123 0
594 1 0.373617 0.651857 0
624 1 0.380544 0.676916 0
653 1 0.36363 0.69477 0
625 1 0.398418 0.659381 0
627 1 0.421657 0.66661 0
626 1 0.404803 0.684234 0
657 1 0.428683 0.690958 0
628 1 0.446748 0.674055 0
599 1 0.463707 0.654846 0
600 1 0.488662 0.659932 0
629 1 0.471584 0.677428 0
630 1 0.495804 0.684109 0
658 1 0.453895 0.696774 0
632 1 0.0128616 0.70671 0
634 1 0.0375397 0.716071 0
663 1 0.0164102 0.731525 0
664 1 0.0403674 0.740732 0
635 1 0.0575175 0.702267 0
636 1 0.0804623 0.710177 0
665 1 0.060781 0.726549 0
666 1 0.084064 0.735556 0
667 1 0.103755 0.720415 0
668 1 0.108344 0.745049 0
638 1 0.123299 0.704469 0
640 1 0.146031 0.712666 0
669 1 0.127125 0.728458 0
670 1 0.15019 0.738918 0
642 1 0.189591 0.708131 0
671 1 0.169828 0.722942 0
673 1 0.193079 0.733062 0
672 1 0.173551 0.748126 0
645 1 0.231842 0.702249 0
644 1 0.212741 0.717337 0
675 1 0.236579 0.727781 0
674 1 0.217457 0.742664 0
646 1 0.254771 0.710284 0
677 1 0.25989 0.73441 0
648 1 0.279259 0.717911 0
678 1 0.284026 0.741409 0
679 1 0.302869 0.723401 0
620 1 0.321473 0.706104 0
651 1 0.34587 0.712707 0
650 1 0.326971 0.730803 0
681 1 0.30779 0.748618 0
652 1 0.350974 0.737142 0
655 1 0.386971 0.701446 0
654 1 0.369866 0.719999 0
685 1 0.392928 0.726879 0
683 1 0.374949 0.744999 0
656 1 0.410294 0.708328 0
687 1 0.435614 0.714652 0
686 1 0.417158 0.732272 0
717 1 0.442057 0.739041 0
659 1 0.478164 0.701591 0
689 1 0.46113 0.720203 0
660 1 0.483615 0.727011 0
688 1 0.46669 0.746015 0
662 1 0.0201201 0.756119 0
694 1 0.0439208 0.76564 0
693 1 0.0231511 0.781037 0
692 1 0.00461039 0.796609 0
691 1 0.000264659 0.770686 0
725 1 0.04702 0.78905 0
695 1 0.0649025 0.751073 0
697 1 0.0880996 0.760049 0
696 1 0.068081 0.776686 0
727 1 0.0923654 0.785565 0
699 1 0.131315 0.754795 0
698 1 0.111045 0.770004 0
700 1 0.133501 0.780377 0
728 1 0.114527 0.797543 0
701 1 0.155466 0.764869 0
731 1 0.157123 0.789629 0
702 1 0.178785 0.772813 0
732 1 0.182286 0.798115 0
703 1 0.19824 0.758033 0
676 1 0.240662 0.751653 0
704 1 0.201271 0.782816 0
705 1 0.221119 0.767292 0
735 1 0.22655 0.792505 0
706 1 0.24489 0.775963 0
707 1 0.265791 0.759102 0
709 1 0.269824 0.783798 0
680 1 0.290159 0.766021 0
710 1 0.296051 0.789689 0
682 1 0.332543 0.75609 0
711 1 0.315569 0.773427 0
712 1 0.339715 0.780902 0
741 1 0.322048 0.798463 0
713 1 0.357375 0.763807 0
714 1 0.381715 0.769585 0
743 1 0.363973 0.788307 0
745 1 0.388343 0.793299 0
684 1 0.399297 0.750552 0
715 1 0.423571 0.756748 0
716 1 0.406612 0.774238 0
747 1 0.430907 0.780859 0
746 1 0.413446 0.798351 0
718 1 0.44788 0.763552 0
690 1 0.491295 0.750231 0
719 1 0.473716 0.769328 0
720 1 0.478757 0.792606 0
749 1 0.454324 0.787789 0
1591 1 0.497968 0.774472 0
723 1 0.027732 0.806362 0
722 1 0.0248596 0.836547 0
751 1 0.00702103 0.820292 0
754 1 0.0497511 0.835489 0
1680 1 0.00106656 0.844456 0
726 1 0.0734947 0.800891 0
724 1 0.0525519 0.812015 0
757 1 0.0966752 0.814849 0
755 1 0.0735438 0.825772 0
756 1 0.0929292 0.841372 0
729 1 0.13796 0.804645 0
759 1 0.117115 0.832539 0
760 1 0.141338 0.828919 0
730 1 0.162296 0.814777 0
763 1 0.187308 0.82133 0
764 1 0.184219 0.84539 0
761 1 0.16023 0.848933 0
733 1 0.207743 0.808039 0
736 1 0.235253 0.829401 0
734 1 0.208849 0.836019 0
737 1 0.251647 0.801589 0
708 1 0.277152 0.807704 0
738 1 0.259232 0.826049 0
769 1 0.275151 0.845564 0
740 1 0.300079 0.838774 0
739 1 0.302963 0.813482 0
771 1 0.325274 0.831117 0
742 1 0.346456 0.805075 0
773 1 0.352212 0.830815 0
744 1 0.36958 0.813136 0
774 1 0.375668 0.838769 0
775 1 0.394563 0.818425 0
776 1 0.401848 0.842224 0
748 1 0.437517 0.806109 0
777 1 0.419203 0.823843 0
779 1 0.44367 0.830699 0
778 1 0.426447 0.849275 0
750 1 0.462114 0.81189 0
1621 1 0.486894 0.818185 0
780 1 0.468662 0.83595 0
1651 1 0.493902 0.842618 0
753 1 0.0442317 0.857784 0
752 1 0.0193104 0.861915 0
783 1 0.0366902 0.881166 0
782 1 0.0134402 0.886209 0
785 1 0.0684745 0.85044 0
784 1 0.0628865 0.874658 0
786 1 0.0794629 0.89284 0
787 1 0.08607 0.867309 0
815 1 0.0551249 0.898645 0
758 1 0.109977 0.859861 0
817 1 0.104421 0.884817 0
789 1 0.134184 0.853385 0
788 1 0.12835 0.87906 0
790 1 0.145757 0.898365 0
791 1 0.151449 0.872526 0
762 1 0.176469 0.868132 0
793 1 0.169414 0.891584 0
795 1 0.193979 0.886566 0
765 1 0.201477 0.862347 0
767 1 0.22675 0.854943 0
796 1 0.218347 0.879485 0
766 1 0.243197 0.87468 0
825 1 0.235198 0.898627 0
768 1 0.250653 0.850025 0
797 1 0.267814 0.869016 0
827 1 0.259335 0.893735 0
798 1 0.28468 0.888505 0
799 1 0.292112 0.863735 0
772 1 0.339143 0.851474 0
770 1 0.315443 0.857262 0
800 1 0.308887 0.882226 0
801 1 0.333302 0.874865 0
831 1 0.326406 0.898948 0
802 1 0.35091 0.891806 0
803 1 0.358859 0.868642 0
804 1 0.377084 0.886046 0
805 1 0.383504 0.863098 0
807 1 0.408393 0.86743 0
808 1 0.434088 0.873291 0
837 1 0.440476 0.897352 0
809 1 0.451094 0.854901 0
1681 1 0.476095 0.859007 0
1711 1 0.48377 0.882597 0
810 1 0.458336 0.878403 0
813 1 0.0318327 0.906238 0
843 1 0.0239845 0.930051 0
844 1 0.041271 0.947052 0
812 1 0.00755524 0.911721 0
814 1 0.0492173 0.92289 0
845 1 0.0722761 0.917041 0
846 1 0.0651281 0.941467 0
847 1 0.0892951 0.934318 0
816 1 0.0959235 0.909364 0
819 1 0.12096 0.903431 0
818 1 0.114508 0.927973 0
820 1 0.130966 0.945723 0
821 1 0.138419 0.922751 0
792 1 0.162534 0.916801 0
851 1 0.156134 0.940807 0
823 1 0.187581 0.910986 0
822 1 0.180975 0.934932 0
794 1 0.210834 0.905569 0
824 1 0.205241 0.93013 0
885 1 0.221503 0.948831 0
855 1 0.229544 0.924244 0
856 1 0.24527 0.942882 0
826 1 0.252936 0.917731 0
857 1 0.269154 0.935885 0
828 1 0.278101 0.912661 0
859 1 0.294199 0.930702 0
829 1 0.30272 0.906425 0
830 1 0.319791 0.923314 0
861 1 0.33642 0.940871 0
860 1 0.311093 0.947579 0
832 1 0.344181 0.916638 0
863 1 0.362015 0.934843 0
833 1 0.367775 0.909095 0
834 1 0.385468 0.929022 0
806 1 0.391987 0.905965 0
835 1 0.410113 0.922895 0
836 1 0.430572 0.94345 0
865 1 0.402283 0.946821 0
838 1 0.447135 0.922721 0
869 1 0.457832 0.944889 0
839 1 0.466031 0.901902 0
840 1 0.474163 0.926376 0
1712 1 0.490542 0.906812 0
1741 1 0.498736 0.930936 0
870 1 0.482194 0.949744 0
842 1 0.0166585 0.953154 0
872 1 0.0272062 0.994201 0
873 1 0.0343761 0.970272 0
871 1 0.0089844 0.977638 0
874 1 0.0505342 0.988371 0
875 1 0.0577036 0.964765 0
876 1 0.0751195 0.981966 0
848 1 0.0824022 0.958553 0
877 1 0.100007 0.97577 0
849 1 0.106967 0.951566 0
878 1 0.115734 0.994224 0
879 1 0.124016 0.968803 0
881 1 0.1401 0.987584 0
850 1 0.148164 0.965211 0
853 1 0.172187 0.95908 0
852 1 0.165146 0.982075 0
883 1 0.189369 0.977536 0
854 1 0.197524 0.95355 0
13 1 0.206784 0.996115 0
15 1 0.230506 0.99182 0
884 1 0.213539 0.972238 0
886 1 0.238105 0.967028 0
858 1 0.286158 0.954663 0
887 1 0.262021 0.961151 0
17 1 0.255451 0.984821 0
888 1 0.279778 0.979158 0
19 1 0.298608 0.995297 0
889 1 0.304646 0.97152 0
890 1 0.322662 0.990438 0
891 1 0.32965 0.964686 0
892 1 0.346524 0.985468 0
894 1 0.387608 0.996267 0
862 1 0.354886 0.959279 0
864 1 0.378632 0.954042 0
893 1 0.37075 0.977847 0
895 1 0.395718 0.97335 0
867 1 0.443157 0.96471 0
866 1 0.418928 0.966357 0
896 1 0.41392 0.990541 0
897 1 0.446702 0.989694 0
1771 1 0.491367 0.974291 0
899 1 0.473627 0.992729 0
900 1 0.499727 0.997832 0
868 1 0.466884 0.968849 0
902 1 0.534445 0.0251394 0
901 1 0.508915 0.0199519 0
931 1 0.518331 0.042484 0
903 1 0.525209 0.000486567 0
933 1 0.543474 0.047696 0
905 1 0.549477 0.00557177 0
904 1 0.559199 0.0293603 0
906 1 0.576181 0.0123773 0
935 1 0.584276 0.0365489 0
908 1 0.601014 0.0179937 0
937 1 0.609865 0.0425513 0
939 1 0.624993 0.0237874 0
910 1 0.640001 0.0055261 0
938 1 0.634211 0.0473936 0
941 1 0.649096 0.0288206 0
912 1 0.66564 0.011221 0
942 1 0.674717 0.0341752 0
943 1 0.69049 0.0161475 0
973 1 0.698844 0.0395272 0
944 1 0.715196 0.0225259 0
945 1 0.731464 0.00373964 0
946 1 0.738631 0.0274972 0
975 1 0.723313 0.045669 0
947 1 0.755207 0.00975082 0
948 1 0.764055 0.0330204 0
918 1 0.779988 0.0158987 0
979 1 0.789983 0.038025 0
949 1 0.80767 0.020841 0
951 1 0.838225 0.0163411 0
950 1 0.826339 0.0378524 0
952 1 0.853674 0.0341286 0
953 1 0.862025 0.0112036 0
924 1 0.886057 0.00493001 0
954 1 0.877803 0.0295424 0
985 1 0.895073 0.0480609 0
955 1 0.901957 0.0241127 0
926 1 0.926997 0.019169 0
957 1 0.943783 0.0376386 0
956 1 0.918348 0.0415038 0
925 1 0.910729 0.00101188 0
928 1 0.950924 0.0131838 0
959 1 0.968872 0.0310595 0
930 1 0.993152 0.0239815 0
929 1 0.976416 0.00579112 0
932 1 0.527498 0.0655919 0
962 1 0.534281 0.0900159 0
961 1 0.509619 0.0845792 0
60 1 0.502735 0.0609357 0
963 1 0.551037 0.0720246 0
934 1 0.567344 0.053724 0
965 1 0.575736 0.0767557 0
936 1 0.593622 0.0599583 0
964 1 0.558914 0.0954338 0
966 1 0.601259 0.0844424 0
967 1 0.61807 0.0658972 0
968 1 0.625902 0.0905847 0
969 1 0.642542 0.0724348 0
999 1 0.649958 0.095582 0
940 1 0.658858 0.0536712 0
970 1 0.667444 0.0780135 0
971 1 0.683144 0.0589535 0
972 1 0.692276 0.0828201 0
1003 1 0.707425 0.0639399 0
1004 1 0.716384 0.0889197 0
974 1 0.732733 0.0703269 0
1005 1 0.740381 0.0942042 0
976 1 0.747985 0.05117 0
1007 1 0.756747 0.074968 0
977 1 0.773547 0.0563649 0
978 1 0.797438 0.0609051 0
1008 1 0.781923 0.0805081 0
1006 1 0.766073 0.0985792 0
980 1 0.820479 0.0609472 0
981 1 0.843703 0.0573684 0
1009 1 0.806921 0.0840307 0
1011 1 0.834498 0.0816835 0
982 1 0.860293 0.0765926 0
983 1 0.869212 0.0535113 0
984 1 0.886618 0.0714015 0
1013 1 0.87663 0.0947071 0
1012 1 0.851319 0.100183 0
1015 1 0.902872 0.0897248 0
986 1 0.911738 0.066445 0
987 1 0.936554 0.0603314 0
1017 1 0.928632 0.0838776 0
960 1 0.985046 0.0485048 0
988 1 0.952986 0.078623 0
958 1 0.96096 0.0552613 0
989 1 0.977437 0.0733731 0
990 1 0.993774 0.0911668 0
1019 1 0.969235 0.0977503 0
991 1 0.516701 0.107989 0
992 1 0.524599 0.131871 0
993 1 0.542448 0.113032 0
1021 1 0.508542 0.149501 0
120 1 0.500835 0.125491 0
1023 1 0.549156 0.136377 0
995 1 0.584417 0.10178 0
994 1 0.566938 0.119457 0
996 1 0.59181 0.125099 0
1025 1 0.574805 0.142916 0
1026 1 0.599173 0.150128 0
997 1 0.609106 0.10793 0
998 1 0.633186 0.113934 0
1027 1 0.616083 0.131604 0
1029 1 0.640112 0.137832 0
1001 1 0.674185 0.101698 0
1000 1 0.65739 0.118532 0
1031 1 0.683864 0.125117 0
1030 1 0.665247 0.142597 0
1002 1 0.699359 0.105881 0
1032 1 0.690025 0.147971 0
1033 1 0.707941 0.129676 0
1035 1 0.725243 0.11219 0
1034 1 0.732484 0.13596 0
1036 1 0.748848 0.116998 0
1037 1 0.772934 0.123402 0
1038 1 0.796749 0.129092 0
1067 1 0.756348 0.141357 0
1039 1 0.790471 0.104755 0
1068 1 0.781815 0.147844 0
1010 1 0.824469 0.104727 0
1040 1 0.820385 0.129482 0
1041 1 0.844461 0.123137 0
1071 1 0.837769 0.146074 0
1043 1 0.869222 0.118382 0
1014 1 0.89386 0.113201 0
1044 1 0.88623 0.136554 0
1042 1 0.861786 0.141953 0
1018 1 0.944819 0.10236 0
1045 1 0.91174 0.130713 0
1016 1 0.92044 0.106851 0
1047 1 0.936715 0.125547 0
1049 1 0.960988 0.121561 0
1020 1 0.986047 0.114682 0
1050 1 0.978909 0.138958 0
1046 1 0.953543 0.144942 0
1022 1 0.533274 0.155957 0
1053 1 0.540075 0.179886 0
1051 1 0.514585 0.173351 0
1052 1 0.521245 0.197253 0
1024 1 0.558349 0.161444 0
1055 1 0.581491 0.16808 0
1054 1 0.564106 0.186107 0
1056 1 0.590172 0.191385 0
1028 1 0.623261 0.155955 0
1057 1 0.607334 0.173736 0
1058 1 0.631512 0.17963 0
1059 1 0.64872 0.161188 0
1087 1 0.614029 0.197714 0
1060 1 0.656432 0.185488 0
1061 1 0.67282 0.167188 0
1091 1 0.67969 0.191971 0
1062 1 0.697123 0.17294 0
1063 1 0.71343 0.153903 0
1064 1 0.721471 0.179023 0
1065 1 0.739002 0.159771 0
1093 1 0.703988 0.197144 0
1095 1 0.747092 0.183349 0
1066 1 0.764541 0.165811 0
1097 1 0.772177 0.189336 0
1099 1 0.790749 0.171004 0
1098 1 0.797311 0.197638 0
1069 1 0.80814 0.151559 0
1070 1 0.828426 0.169565 0
1101 1 0.84676 0.18897 0
1100 1 0.822743 0.194463 0
1072 1 0.854011 0.165856 0
1073 1 0.878721 0.160948 0
1103 1 0.870613 0.183801 0
1074 1 0.895093 0.178982 0
1077 1 0.929196 0.150554 0
1075 1 0.903871 0.155663 0
1076 1 0.920876 0.174171 0
1107 1 0.938671 0.191748 0
1078 1 0.9465 0.168405 0
1105 1 0.911972 0.196767 0
1048 1 0.971036 0.161561 0
151 1 0.995942 0.156458 0
1079 1 0.988156 0.179441 0
1109 1 0.962536 0.186892 0
1083 1 0.544932 0.203614 0
1082 1 0.528342 0.221356 0
1111 1 0.511213 0.239095 0
1113 1 0.535728 0.244639 0
1081 1 0.504421 0.215214 0
1084 1 0.553802 0.226242 0
1085 1 0.571668 0.209199 0
1086 1 0.596519 0.214687 0
1115 1 0.577715 0.232768 0
1117 1 0.60287 0.239575 0
1089 1 0.637523 0.20264 0
1088 1 0.620697 0.221436 0
1119 1 0.644063 0.227337 0
1118 1 0.626839 0.245711 0
1090 1 0.661356 0.209274 0
1092 1 0.686826 0.215236 0
1121 1 0.668137 0.23362 0
1122 1 0.693751 0.239216 0
1094 1 0.729462 0.201718 0
1123 1 0.712976 0.219407 0
1124 1 0.718524 0.243236 0
1125 1 0.736705 0.225033 0
1155 1 0.742987 0.249301 0
1096 1 0.754014 0.206866 0
1127 1 0.778302 0.213617 0
1126 1 0.761076 0.232184 0
1128 1 0.785217 0.238441 0
1131 1 0.839939 0.212836 0
1129 1 0.813885 0.218518 0
1130 1 0.831283 0.236172 0
1159 1 0.808557 0.24415 0
1102 1 0.86379 0.208146 0
1104 1 0.887842 0.203325 0
1132 1 0.855928 0.23114 0
1133 1 0.880041 0.227375 0
1134 1 0.898713 0.246937 0
1135 1 0.904242 0.220922 0
1106 1 0.929531 0.215218 0
1136 1 0.922531 0.238967 0
1137 1 0.947602 0.232218 0
1108 1 0.956035 0.209606 0
1110 1 0.980641 0.203085 0
1139 1 0.973391 0.22708 0
1140 1 0.989991 0.24634 0
181 1 0.997686 0.222927 0
1141 1 0.499154 0.280455 0
1112 1 0.517875 0.263626 0
1143 1 0.541064 0.270355 0
1142 1 0.522647 0.288142 0
1144 1 0.547263 0.295086 0
1114 1 0.559477 0.250848 0
1116 1 0.583901 0.257374 0
1145 1 0.566503 0.275819 0
1146 1 0.591494 0.280112 0
1147 1 0.609696 0.263559 0
1149 1 0.633637 0.2707 0
1148 1 0.616013 0.288254 0
1179 1 0.641119 0.293029 0
1120 1 0.651641 0.251635 0
1151 1 0.676441 0.258246 0
1150 1 0.65881 0.275556 0
1152 1 0.68378 0.281886 0