ITEM: TIMESTEP
66000
ITEM: NUMBER OF ATOMS
1800
ITEM: BOX BOUNDS pp pp pp
2.9475193071882302e+00 1.5545248069280876e+02
2.9475193071882302e+00 1.5545248069280876e+02
0.0000000000000000e+00 5.2800000000000002e+00
ITEM: ATOMS id type xs ys zs
2 1 0.0158726 0.0169551 0
3 1 0.0410623 0.0105644 0
33 1 0.0333487 0.0336721 0
31 1 0.00820126 0.0404433 0
4 1 0.0583305 0.0283392 0
6 1 0.0853315 0.0217286 0
5 1 0.0666289 0.00477536 0
35 1 0.0753055 0.0460666 0
37 1 0.100635 0.0397087 0
8 1 0.110033 0.0159216 0
9 1 0.126974 0.0334694 0
880 1 0.134436 0.00976266 0
10 1 0.15177 0.0279266 0
11 1 0.160373 0.0023549 0
12 1 0.176112 0.0226944 0
43 1 0.192658 0.0407364 0
41 1 0.169043 0.046774 0
14 1 0.201019 0.0180446 0
44 1 0.219112 0.0368099 0
45 1 0.227461 0.0131592 0
46 1 0.243381 0.0322695 0
16 1 0.250586 0.006687 0
47 1 0.267384 0.0268126 0
49 1 0.291669 0.0211539 0
48 1 0.284283 0.0443866 0
18 1 0.275178 0.00398372 0
50 1 0.308901 0.0403175 0
20 1 0.317646 0.0146747 0
51 1 0.333086 0.0350398 0
21 1 0.341764 0.0105734 0
22 1 0.357692 0.028147 0
24 1 0.382927 0.0250518 0
53 1 0.374906 0.0475397 0
23 1 0.368437 0.00564141 0
55 1 0.398827 0.0419973 0
25 1 0.40741 0.018713 0
26 1 0.424938 0.0375694 0
27 1 0.43312 0.0139951 0
30 1 0.495215 0.039442 0
898 1 0.459444 0.0162668 0
28 1 0.451023 0.0411191 0
29 1 0.484127 0.0172473 0
32 1 0.0258036 0.0568602 0
62 1 0.0175866 0.0806152 0
63 1 0.0421059 0.0748314 0
61 1 0.000979241 0.0629471 0
93 1 0.0349434 0.0975989 0
34 1 0.0505714 0.0513021 0
65 1 0.0669065 0.0689304 0
66 1 0.0851142 0.0862068 0
36 1 0.0926187 0.062856 0
64 1 0.0587647 0.0931491 0
39 1 0.142896 0.0514374 0
38 1 0.117609 0.0570418 0
67 1 0.109835 0.0800583 0
69 1 0.134218 0.0747419 0
68 1 0.126238 0.0986657 0
70 1 0.150777 0.0931184 0
40 1 0.159878 0.0697506 0
71 1 0.176272 0.0880999 0
42 1 0.185644 0.0640378 0
72 1 0.203247 0.0839715 0
73 1 0.210615 0.060196 0
74 1 0.227644 0.0794201 0
75 1 0.235395 0.0558461 0
106 1 0.244044 0.0973012 0
77 1 0.259036 0.0516562 0
76 1 0.251517 0.0749895 0
78 1 0.275556 0.0698371 0
109 1 0.294429 0.0896215 0
107 1 0.268148 0.0942246 0
79 1 0.29936 0.0636996 0
80 1 0.316674 0.0813803 0
81 1 0.325176 0.0586899 0
82 1 0.342165 0.0770605 0
52 1 0.350395 0.0521259 0
83 1 0.366753 0.0707463 0
113 1 0.377277 0.0919833 0
54 1 0.393382 0.0731398 0
56 1 0.413603 0.059477 0
57 1 0.438021 0.0623786 0
85 1 0.421245 0.082686 0
87 1 0.444806 0.089164 0
84 1 0.401223 0.0980064 0
59 1 0.474886 0.052624 0
88 1 0.46827 0.0973865 0
58 1 0.461816 0.0726009 0
89 1 0.485271 0.0804142 0
92 1 0.0287366 0.123311 0
91 1 0.0117374 0.105336 0
123 1 0.0446008 0.14043 0
121 1 0.00521403 0.129211 0
122 1 0.0205433 0.148833 0
94 1 0.052579 0.116657 0
95 1 0.0776697 0.110367 0
125 1 0.0693535 0.13551 0
96 1 0.0959075 0.12903 0
97 1 0.102602 0.105065 0
98 1 0.119801 0.123045 0
99 1 0.143299 0.116517 0
129 1 0.135604 0.141522 0
127 1 0.111506 0.146959 0
100 1 0.167751 0.111189 0
130 1 0.159409 0.133311 0
131 1 0.184547 0.129561 0
101 1 0.193278 0.106347 0
103 1 0.21952 0.102609 0
133 1 0.201496 0.147876 0
102 1 0.210408 0.125938 0
105 1 0.235756 0.121742 0
104 1 0.227308 0.145273 0
136 1 0.25129 0.140735 0
135 1 0.259249 0.116893 0
137 1 0.275646 0.134712 0
108 1 0.284627 0.112665 0
139 1 0.299919 0.134572 0
111 1 0.334285 0.101841 0
110 1 0.309865 0.110006 0
141 1 0.343352 0.126701 0
140 1 0.325706 0.144199 0
112 1 0.359096 0.107748 0
114 1 0.383671 0.115507 0
143 1 0.366439 0.131766 0
144 1 0.390525 0.140315 0
86 1 0.425973 0.106103 0
115 1 0.407414 0.122088 0
116 1 0.431781 0.129762 0
145 1 0.414459 0.148063 0
90 1 0.491728 0.102726 0
117 1 0.449508 0.113445 0
118 1 0.456883 0.136878 0
119 1 0.474913 0.120203 0
149 1 0.481884 0.14493 0
153 1 0.0369057 0.166332 0
152 1 0.0133126 0.172687 0
183 1 0.0302368 0.190894 0
1080 1 0.00589955 0.197335 0
124 1 0.0618658 0.159532 0
126 1 0.086601 0.153066 0
155 1 0.0789712 0.176166 0
154 1 0.054005 0.183447 0
156 1 0.0962184 0.193422 0
128 1 0.127878 0.16531 0
157 1 0.103494 0.169501 0
160 1 0.145427 0.181937 0
158 1 0.121122 0.188395 0
132 1 0.176292 0.152864 0
159 1 0.152088 0.158035 0
161 1 0.169686 0.176769 0
162 1 0.185926 0.195364 0
163 1 0.19417 0.171183 0
134 1 0.217702 0.168126 0
164 1 0.228701 0.188527 0
165 1 0.241884 0.166629 0
166 1 0.251946 0.192647 0
167 1 0.267481 0.173765 0
138 1 0.285155 0.156199 0
168 1 0.291729 0.179542 0
197 1 0.275168 0.200449 0
169 1 0.309626 0.162589 0
171 1 0.332933 0.168733 0
170 1 0.316444 0.186087 0
201 1 0.33965 0.193423 0
142 1 0.3489 0.150642 0
172 1 0.356715 0.175408 0
173 1 0.373398 0.158095 0
174 1 0.379203 0.182602 0
175 1 0.398372 0.165113 0
203 1 0.363439 0.201443 0
147 1 0.439448 0.153215 0
146 1 0.423562 0.171542 0
205 1 0.405591 0.18797 0
176 1 0.42938 0.195559 0
177 1 0.446833 0.178107 0
148 1 0.463598 0.161316 0
150 1 0.489396 0.168496 0
179 1 0.469664 0.185838 0
180 1 0.494123 0.192023 0
182 1 0.0241654 0.214301 0
213 1 0.0416662 0.233106 0
211 1 0.0184792 0.238856 0
184 1 0.0479713 0.209458 0
181 1 0.000886056 0.222457 0
185 1 0.0709256 0.200305 0
186 1 0.08919 0.217517 0
215 1 0.0661051 0.225077 0
216 1 0.0831765 0.241541 0
187 1 0.113077 0.211131 0
188 1 0.130547 0.227877 0
189 1 0.139089 0.205701 0
217 1 0.106679 0.234207 0
191 1 0.163528 0.202368 0
190 1 0.154721 0.224554 0
192 1 0.192605 0.219998 0
221 1 0.175529 0.236435 0
223 1 0.199334 0.2436 0
193 1 0.209522 0.203785 0
194 1 0.216346 0.226995 0
195 1 0.235621 0.210802 0
225 1 0.240648 0.23548 0
196 1 0.257904 0.217941 0
198 1 0.281817 0.223558 0
227 1 0.263911 0.241472 0
228 1 0.287863 0.246804 0
199 1 0.299218 0.204874 0
200 1 0.322751 0.210192 0
229 1 0.306004 0.22966 0
231 1 0.329708 0.23605 0
202 1 0.345995 0.217291 0
204 1 0.387866 0.207259 0
233 1 0.370977 0.224107 0
235 1 0.397167 0.232041 0
232 1 0.353403 0.242277 0
234 1 0.378496 0.249675 0
207 1 0.43602 0.22044 0
206 1 0.41964 0.239726 0
237 1 0.442698 0.246116 0
178 1 0.452754 0.20276 0
208 1 0.460285 0.227584 0
209 1 0.476368 0.209596 0
210 1 0.485327 0.233286 0
212 1 0.0120619 0.262797 0
243 1 0.0362677 0.260361 0
241 1 0.00738906 0.286851 0
242 1 0.0321085 0.290568 0
214 1 0.0595316 0.250566 0
244 1 0.0531103 0.277213 0
245 1 0.0774627 0.265772 0
275 1 0.0755772 0.290709 0
247 1 0.0976028 0.280428 0
218 1 0.101659 0.257353 0
219 1 0.124512 0.251406 0
249 1 0.140693 0.268588 0
248 1 0.122271 0.285405 0
250 1 0.145946 0.295053 0
220 1 0.15818 0.251511 0
222 1 0.181537 0.260574 0
251 1 0.163679 0.277022 0
252 1 0.186936 0.283185 0
224 1 0.22326 0.251187 0
253 1 0.205929 0.268439 0
255 1 0.229361 0.275816 0
254 1 0.210294 0.292726 0
285 1 0.235956 0.299517 0
226 1 0.246477 0.258527 0
256 1 0.253633 0.282444 0
257 1 0.270748 0.264765 0
259 1 0.293658 0.272452 0
258 1 0.277033 0.291018 0
289 1 0.300751 0.296879 0
230 1 0.311591 0.254035 0
260 1 0.317323 0.277117 0
261 1 0.335123 0.26097 0
262 1 0.342123 0.285994 0
263 1 0.359952 0.266331 0
264 1 0.383781 0.274765 0
293 1 0.365367 0.291382 0
295 1 0.387656 0.299296 0
265 1 0.401431 0.256532 0
236 1 0.424618 0.262979 0
266 1 0.407313 0.280378 0
267 1 0.431251 0.287485 0
238 1 0.448361 0.269696 0
239 1 0.467033 0.252087 0
1141 1 0.497701 0.281492 0
240 1 0.490903 0.257446 0
269 1 0.472832 0.276543 0
268 1 0.454677 0.293266 0
270 1 0.481656 0.299293 0
271 1 0.014263 0.310534 0
272 1 0.0374616 0.319459 0
301 1 0.0183063 0.335854 0
303 1 0.0419654 0.344052 0
273 1 0.0544387 0.301801 0
276 1 0.0829292 0.315754 0
274 1 0.0624792 0.330004 0
305 1 0.087936 0.340497 0
246 1 0.104001 0.303167 0
279 1 0.127483 0.309676 0
277 1 0.108315 0.326318 0
278 1 0.131305 0.334628 0
281 1 0.169786 0.300525 0
280 1 0.150158 0.31905 0
311 1 0.154443 0.342406 0
283 1 0.19235 0.30791 0
282 1 0.173253 0.325547 0
313 1 0.197725 0.33203 0
284 1 0.217233 0.316022 0
315 1 0.22152 0.340774 0
286 1 0.240704 0.323956 0
316 1 0.24458 0.347932 0
287 1 0.2598 0.307203 0
288 1 0.283727 0.314757 0
317 1 0.262303 0.332419 0
319 1 0.287227 0.338733 0
291 1 0.324385 0.302763 0
290 1 0.30682 0.321082 0
321 1 0.312729 0.346313 0
292 1 0.330211 0.328586 0
323 1 0.348269 0.310239 0
294 1 0.371252 0.317872 0
324 1 0.353401 0.33476 0
325 1 0.378338 0.342904 0
296 1 0.394824 0.324263 0
297 1 0.413478 0.305458 0
326 1 0.403136 0.346562 0
298 1 0.438208 0.310313 0
327 1 0.420749 0.328255 0
328 1 0.444316 0.334542 0
299 1 0.4622 0.316031 0
300 1 0.485926 0.324729 0
1201 1 0.493674 0.348155 0
329 1 0.468253 0.341084 0
331 1 0.0046235 0.375744 0
302 1 0.0235708 0.360808 0
332 1 0.0292332 0.385147 0
333 1 0.0476733 0.368564 0
334 1 0.0533905 0.394273 0
304 1 0.0672498 0.355071 0
306 1 0.0911179 0.365202 0
335 1 0.0722358 0.379206 0
337 1 0.0975792 0.38991 0
307 1 0.111573 0.351463 0
309 1 0.136345 0.358375 0
308 1 0.117751 0.375574 0
339 1 0.142528 0.383167 0
338 1 0.122943 0.398439 0
312 1 0.179317 0.349727 0
310 1 0.161056 0.366781 0
341 1 0.165363 0.39087 0
343 1 0.184029 0.373602 0
342 1 0.190104 0.398335 0
314 1 0.20223 0.356981 0
345 1 0.226755 0.36469 0
344 1 0.208254 0.381685 0
375 1 0.232721 0.388413 0
346 1 0.250709 0.370861 0
377 1 0.255869 0.395171 0
318 1 0.269098 0.355897 0
349 1 0.293938 0.363087 0
347 1 0.274898 0.380773 0
350 1 0.299086 0.387506 0
322 1 0.337009 0.35318 0
320 1 0.319147 0.370208 0
351 1 0.342394 0.377401 0
381 1 0.324477 0.395172 0
353 1 0.361055 0.35964 0
355 1 0.384635 0.366683 0
354 1 0.365751 0.384904 0
385 1 0.390187 0.391026 0
357 1 0.425547 0.354673 0
356 1 0.407761 0.37116 0
387 1 0.433225 0.378457 0
386 1 0.414386 0.39649 0
359 1 0.449592 0.359451 0
358 1 0.457345 0.383507 0
330 1 0.474473 0.364532 0
360 1 0.480916 0.389483 0
1231 1 0.499418 0.372326 0
361 1 0.00980646 0.400812 0
363 1 0.0343343 0.409127 0
362 1 0.0163609 0.425604 0
364 1 0.0399066 0.434779 0
336 1 0.0776596 0.404037 0
365 1 0.0572793 0.418335 0
395 1 0.0658878 0.443136 0
367 1 0.103193 0.414074 0
366 1 0.10791 0.437734 0
369 1 0.128256 0.422146 0
340 1 0.146775 0.40646 0
368 1 0.131333 0.446723 0
370 1 0.151283 0.429652 0
371 1 0.171007 0.413875 0
401 1 0.174749 0.438459 0
372 1 0.193927 0.422108 0
403 1 0.198502 0.445329 0
373 1 0.213599 0.405434 0
374 1 0.217255 0.429525 0
376 1 0.236679 0.412254 0
405 1 0.241132 0.437614 0
348 1 0.279268 0.404465 0
407 1 0.266206 0.445715 0
378 1 0.259271 0.421481 0
409 1 0.284428 0.428669 0
352 1 0.347097 0.402593 0
379 1 0.3028 0.411713 0
380 1 0.308997 0.438314 0
382 1 0.32714 0.421151 0
411 1 0.333483 0.446116 0
383 1 0.371284 0.409189 0
413 1 0.353425 0.427653 0
414 1 0.376993 0.435536 0
384 1 0.394649 0.414455 0
388 1 0.438424 0.402371 0
415 1 0.400319 0.439461 0
417 1 0.418443 0.42127 0
416 1 0.426156 0.444692 0
419 1 0.445734 0.426149 0
389 1 0.462919 0.408406 0
418 1 0.470516 0.432307 0
390 1 0.486483 0.413791 0
420 1 0.494553 0.437335 0
392 1 0.00217663 0.465445 0
393 1 0.0213692 0.450098 0
422 1 0.00688255 0.490191 0
423 1 0.0279057 0.474997 0
394 1 0.0454968 0.459337 0
425 1 0.0504538 0.483719 0
396 1 0.0708183 0.467016 0
426 1 0.0729814 0.49318 0
397 1 0.089433 0.452331 0
427 1 0.0934312 0.477812 0
398 1 0.112317 0.461961 0
428 1 0.116458 0.485769 0
429 1 0.136833 0.470708 0
459 1 0.140724 0.495136 0
399 1 0.155452 0.454762 0
400 1 0.178933 0.46231 0
430 1 0.15978 0.478456 0
431 1 0.182079 0.486404 0
404 1 0.22078 0.453449 0
402 1 0.201842 0.469494 0
432 1 0.206334 0.49273 0
433 1 0.226819 0.477258 0
435 1 0.245805 0.461907 0
408 1 0.289098 0.4543 0
436 1 0.251202 0.48487 0
406 1 0.271273 0.470476 0
437 1 0.273787 0.494279 0
439 1 0.294964 0.480055 0
410 1 0.315391 0.463508 0
440 1 0.31916 0.486733 0
441 1 0.338197 0.471674 0
471 1 0.342202 0.496166 0
412 1 0.357027 0.452757 0
442 1 0.363761 0.477508 0
473 1 0.387928 0.485419 0
443 1 0.382827 0.459895 0
477 1 0.439813 0.492253 0
446 1 0.433122 0.468888 0
445 1 0.406323 0.465435 0
444 1 0.414432 0.48891 0
447 1 0.450212 0.450265 0
449 1 0.47454 0.455818 0
450 1 0.481287 0.479367 0
448 1 0.45635 0.474252 0
478 1 0.465437 0.496688 0
1321 1 0.49878 0.462325 0
453 1 0.0112344 0.515587 0
452 1 0.0145028 0.540746 0
454 1 0.0356395 0.52491 0
483 1 0.0383622 0.55097 0
424 1 0.0310235 0.499605 0
485 1 0.0585682 0.534818 0
455 1 0.0546358 0.509702 0
456 1 0.0769607 0.518111 0
486 1 0.0821383 0.544254 0
457 1 0.0975444 0.503291 0
487 1 0.101537 0.527528 0
458 1 0.120768 0.510531 0
488 1 0.125903 0.538334 0
489 1 0.142942 0.521866 0
490 1 0.148924 0.547068 0
460 1 0.163111 0.505035 0
461 1 0.186737 0.509621 0
462 1 0.194024 0.532361 0
491 1 0.169301 0.531118 0
493 1 0.216505 0.541083 0
463 1 0.211816 0.515722 0
464 1 0.235515 0.52459 0
495 1 0.238315 0.550311 0
434 1 0.231653 0.50114 0
466 1 0.257818 0.533352 0
465 1 0.255001 0.509114 0
467 1 0.279481 0.518233 0
497 1 0.28361 0.543878 0
438 1 0.300323 0.503616 0
468 1 0.303082 0.528748 0
469 1 0.323298 0.51233 0
499 1 0.326459 0.539124 0
470 1 0.345405 0.522207 0
501 1 0.349214 0.54759 0
503 1 0.368287 0.529616 0
474 1 0.388817 0.510638 0
505 1 0.389846 0.544314 0
472 1 0.365037 0.505451 0
476 1 0.406096 0.526974 0
509 1 0.430651 0.53361 0
475 1 0.423302 0.510441 0
507 1 0.448133 0.515341 0
479 1 0.472549 0.521295 0
480 1 0.455021 0.539655 0
1381 1 0.49676 0.526219 0
510 1 0.478755 0.544504 0
1351 1 0.489543 0.503053 0
511 1 -0.000612272 0.581371 0
513 1 0.0195237 0.565476 0
514 1 0.0414995 0.575832 0
512 1 0.0218309 0.5901 0
543 1 0.0463336 0.600102 0
484 1 0.0615294 0.559471 0
515 1 0.0851131 0.56841 0
545 1 0.066043 0.583701 0
516 1 0.0886498 0.593844 0
517 1 0.106074 0.55392 0
518 1 0.108306 0.58033 0
519 1 0.130059 0.564973 0
549 1 0.133212 0.589736 0
520 1 0.152439 0.575278 0
521 1 0.171813 0.558132 0
492 1 0.197044 0.55642 0
523 1 0.1998 0.579887 0
522 1 0.176119 0.587752 0
494 1 0.21972 0.565482 0
524 1 0.221699 0.59052 0
525 1 0.242087 0.573857 0
555 1 0.243298 0.599001 0
496 1 0.262184 0.559192 0
526 1 0.26361 0.585058 0
527 1 0.28491 0.569881 0
528 1 0.286214 0.594166 0
498 1 0.304903 0.553731 0
529 1 0.307899 0.578368 0
500 1 0.328761 0.563777 0
530 1 0.329617 0.589959 0
531 1 0.350291 0.575039 0
532 1 0.353056 0.59955 0
502 1 0.37058 0.559944 0
504 1 0.395978 0.568297 0
533 1 0.37572 0.584524 0
534 1 0.403475 0.591404 0
506 1 0.413851 0.55158 0
535 1 0.422409 0.575488 0
508 1 0.438626 0.557334 0
537 1 0.445585 0.580607 0
536 1 0.42946 0.600135 0
539 1 0.463131 0.563132 0
540 1 0.487455 0.56959 0
538 1 0.469976 0.587544 0
569 1 0.494426 0.592656 0
541 1 0.00283048 0.605989 0
542 1 0.0246409 0.615189 0
571 1 0.00442095 0.631474 0
573 1 0.0284916 0.63848 0
544 1 0.0482303 0.623879 0
546 1 0.0698323 0.609132 0
547 1 0.0915846 0.620356 0
575 1 0.07128 0.634454 0
576 1 0.0944469 0.645625 0
574 1 0.0512917 0.648913 0
548 1 0.111305 0.605231 0
550 1 0.133857 0.615024 0
577 1 0.114203 0.631452 0
579 1 0.137069 0.641011 0
553 1 0.201098 0.603007 0
551 1 0.155383 0.601453 0
581 1 0.157693 0.626935 0
552 1 0.178939 0.614333 0
582 1 0.179684 0.641226 0
583 1 0.20042 0.627927 0
554 1 0.223097 0.614697 0
556 1 0.245774 0.623555 0
585 1 0.223713 0.638661 0
586 1 0.247216 0.648579 0
557 1 0.265777 0.609884 0
587 1 0.268188 0.634259 0
558 1 0.287898 0.618603 0
589 1 0.289271 0.644995 0
559 1 0.308402 0.604019 0
560 1 0.309374 0.631061 0
561 1 0.328881 0.615326 0
591 1 0.332204 0.640173 0
562 1 0.351028 0.624085 0
563 1 0.388499 0.611326 0
564 1 0.373001 0.631772 0
593 1 0.356065 0.648252 0
595 1 0.395807 0.637017 0
565 1 0.412249 0.616618 0
566 1 0.436437 0.624411 0
596 1 0.419894 0.642012 0
598 1 0.442602 0.649144 0
567 1 0.454438 0.606582 0
597 1 0.460677 0.630475 0
568 1 0.477792 0.611883 0
570 1 0.484497 0.636202 0
572 1 0.00784571 0.654395 0
603 1 0.0303248 0.663705 0
602 1 0.0101977 0.679103 0
633 1 0.0342721 0.687269 0
604 1 0.0543244 0.673489 0
605 1 0.0741533 0.659535 0
606 1 0.0758992 0.684478 0
607 1 0.0974761 0.670042 0
637 1 0.0992319 0.695197 0
635 1 0.0570375 0.699936 0
578 1 0.118133 0.655909 0
609 1 0.139554 0.667795 0
608 1 0.11967 0.681561 0
639 1 0.142508 0.693621 0
580 1 0.159118 0.654497 0
611 1 0.182789 0.666432 0
610 1 0.163188 0.679 0
612 1 0.185603 0.690466 0
584 1 0.202883 0.652232 0
613 1 0.204652 0.67687 0
615 1 0.225065 0.663057 0
614 1 0.227639 0.687121 0
617 1 0.248351 0.673459 0
616 1 0.249711 0.697605 0
588 1 0.269088 0.658703 0
619 1 0.290834 0.669711 0
618 1 0.270626 0.683646 0
590 1 0.311565 0.657272 0
621 1 0.31798 0.680614 0
592 1 0.336611 0.663773 0
622 1 0.340603 0.691085 0
623 1 0.360567 0.672412 0
594 1 0.379212 0.654625 0
624 1 0.38453 0.677928 0
653 1 0.367049 0.69685 0
625 1 0.403299 0.660708 0
627 1 0.426104 0.667402 0
626 1 0.408219 0.685886 0
657 1 0.431792 0.692491 0
628 1 0.450164 0.67357 0
599 1 0.465937 0.655129 0
600 1 0.491574 0.660258 0
629 1 0.473629 0.677623 0
630 1 0.498265 0.685434 0
658 1 0.455188 0.697861 0
632 1 0.0123987 0.702986 0
634 1 0.0355866 0.713103 0
663 1 0.0141018 0.727394 0
664 1 0.0363403 0.738337 0
636 1 0.0800366 0.709856 0
665 1 0.0583058 0.724501 0
666 1 0.0809868 0.735181 0
695 1 0.0579574 0.75026 0
667 1 0.10175 0.720229 0
638 1 0.12177 0.707277 0
640 1 0.144876 0.7187 0
669 1 0.12437 0.732373 0
668 1 0.103421 0.745678 0
670 1 0.14677 0.743611 0
641 1 0.165505 0.704548 0
642 1 0.188097 0.715671 0
671 1 0.168175 0.728895 0
673 1 0.188913 0.741222 0
643 1 0.20873 0.70207 0
645 1 0.230601 0.71201 0
644 1 0.208467 0.727559 0
675 1 0.232344 0.738508 0
646 1 0.252393 0.722447 0
647 1 0.272592 0.707506 0
677 1 0.253022 0.74844 0
648 1 0.27489 0.732811 0
679 1 0.295794 0.743719 0
649 1 0.29496 0.718089 0
620 1 0.321962 0.706017 0
651 1 0.348788 0.714431 0
650 1 0.330577 0.732576 0
652 1 0.356049 0.739582 0
655 1 0.390534 0.704289 0
654 1 0.371986 0.720814 0
685 1 0.396433 0.728659 0
683 1 0.379346 0.745385 0
656 1 0.414255 0.710477 0
687 1 0.438109 0.716501 0
686 1 0.420298 0.735838 0
717 1 0.444457 0.740261 0
659 1 0.478897 0.703238 0
689 1 0.461995 0.720641 0
660 1 0.486308 0.726931 0
688 1 0.468068 0.744905 0
662 1 0.0171501 0.75297 0
694 1 0.0391166 0.763655 0
693 1 0.0191591 0.778115 0
725 1 0.0410701 0.787815 0
697 1 0.0812027 0.760044 0
696 1 0.0610729 0.773527 0
727 1 0.0842526 0.784489 0
699 1 0.126422 0.757365 0
698 1 0.105406 0.771307 0
700 1 0.127246 0.781562 0
728 1 0.106968 0.795148 0
701 1 0.148803 0.77023 0
731 1 0.150158 0.795049 0
672 1 0.168493 0.754734 0
703 1 0.190868 0.767339 0
702 1 0.170094 0.780527 0
704 1 0.192497 0.792043 0
674 1 0.210782 0.753493 0
676 1 0.23358 0.764827 0
705 1 0.213052 0.778105 0
706 1 0.235113 0.788455 0
707 1 0.256505 0.775069 0
678 1 0.275668 0.758349 0
709 1 0.280067 0.783594 0
680 1 0.299194 0.768525 0
710 1 0.303445 0.792091 0
681 1 0.317173 0.752824 0
682 1 0.340348 0.756807 0
711 1 0.322063 0.775536 0
712 1 0.345046 0.781985 0
713 1 0.362652 0.765115 0
714 1 0.386587 0.770447 0
743 1 0.369585 0.788615 0
745 1 0.392875 0.796029 0
684 1 0.40287 0.752971 0
715 1 0.427487 0.759312 0
716 1 0.411059 0.777298 0
747 1 0.435506 0.783031 0
718 1 0.451261 0.764058 0
690 1 0.491358 0.750955 0
719 1 0.475625 0.769384 0
720 1 0.483575 0.792846 0
749 1 0.459889 0.788688 0
723 1 0.0219778 0.804191 0
722 1 0.0223011 0.829978 0
724 1 0.0441307 0.812225 0
754 1 0.0467469 0.836064 0
751 1 0.00164432 0.817575 0
1680 1 0.00105302 0.844368 0
726 1 0.0637876 0.799088 0
757 1 0.0866257 0.809807 0
755 1 0.0688679 0.825504 0
756 1 0.0910093 0.841097 0
785 1 0.0659842 0.850027 0
729 1 0.128412 0.806961 0
759 1 0.107809 0.82175 0
760 1 0.12974 0.831563 0
730 1 0.150368 0.819667 0
732 1 0.172161 0.806822 0
761 1 0.15267 0.844474 0
763 1 0.173086 0.831078 0
733 1 0.194388 0.817047 0
764 1 0.195324 0.843251 0
735 1 0.214623 0.802671 0
736 1 0.237283 0.814871 0
734 1 0.215894 0.827336 0
767 1 0.237963 0.840123 0
737 1 0.256739 0.798678 0
708 1 0.281914 0.807964 0
738 1 0.259684 0.824741 0
769 1 0.281641 0.840565 0
741 1 0.326013 0.800104 0
739 1 0.308738 0.816966 0
740 1 0.306555 0.840374 0
771 1 0.331955 0.827021 0
742 1 0.350962 0.805477 0
773 1 0.356594 0.829538 0
744 1 0.374499 0.812736 0
774 1 0.38073 0.838791 0
775 1 0.397641 0.820335 0
746 1 0.417669 0.801733 0
748 1 0.441878 0.806992 0
777 1 0.422338 0.825424 0
776 1 0.405294 0.844953 0
779 1 0.447383 0.830882 0
750 1 0.465665 0.81172 0
1621 1 0.490124 0.818011 0
780 1 0.472619 0.836296 0
1651 1 0.496152 0.842515 0
753 1 0.041213 0.85918 0
752 1 0.0173824 0.863393 0
783 1 0.0343893 0.881597 0
782 1 0.0101546 0.88609 0
784 1 0.0594854 0.874439 0
786 1 0.0773119 0.890615 0
787 1 0.0830966 0.86708 0
815 1 0.0525236 0.897566 0
817 1 0.101813 0.884287 0
758 1 0.107406 0.860547 0
789 1 0.130026 0.855781 0
788 1 0.126583 0.879592 0
790 1 0.146068 0.896102 0
762 1 0.17679 0.858935 0
791 1 0.151601 0.869079 0
793 1 0.171438 0.884656 0
795 1 0.196472 0.875919 0
765 1 0.218782 0.854475 0
796 1 0.221374 0.878956 0
825 1 0.239983 0.896865 0
766 1 0.24662 0.871313 0
768 1 0.259523 0.848743 0
797 1 0.272528 0.868636 0
827 1 0.263769 0.893079 0
799 1 0.295429 0.862149 0
798 1 0.287138 0.888105 0
772 1 0.344196 0.850694 0
770 1 0.320436 0.859597 0
800 1 0.310516 0.881801 0
801 1 0.338857 0.875925 0
802 1 0.355916 0.89343 0
803 1 0.361477 0.868378 0
804 1 0.379395 0.886052 0
805 1 0.38861 0.863311 0
778 1 0.431458 0.848885 0
807 1 0.413711 0.86769 0
808 1 0.437963 0.873017 0
837 1 0.422325 0.89186 0
809 1 0.454624 0.85453 0
1681 1 0.478237 0.859971 0
1711 1 0.485474 0.884878 0
810 1 0.460733 0.878088 0
813 1 0.0298549 0.905707 0
843 1 0.0201267 0.927534 0
814 1 0.0480297 0.9218 0
844 1 0.0391205 0.943797 0
812 1 0.00457824 0.909722 0
816 1 0.0968707 0.909247 0
845 1 0.0719278 0.914977 0
846 1 0.0639188 0.939109 0
847 1 0.0899563 0.93257 0
819 1 0.122076 0.902555 0
818 1 0.114606 0.926496 0
820 1 0.132993 0.944658 0
821 1 0.141172 0.91954 0
792 1 0.164364 0.912623 0
851 1 0.15758 0.938735 0
823 1 0.189636 0.90431 0
822 1 0.183716 0.930665 0
854 1 0.198841 0.951238 0
794 1 0.213871 0.902427 0
824 1 0.207903 0.927419 0
885 1 0.223258 0.946357 0
855 1 0.231226 0.921824 0
856 1 0.247973 0.941422 0
826 1 0.255889 0.91851 0
857 1 0.273095 0.936566 0
828 1 0.280942 0.912799 0
859 1 0.298018 0.930661 0
831 1 0.33067 0.900372 0
829 1 0.30417 0.906081 0
830 1 0.323156 0.923654 0
832 1 0.346823 0.918137 0
861 1 0.340339 0.942805 0
860 1 0.316187 0.948473 0
806 1 0.397063 0.905674 0
863 1 0.364324 0.936201 0
833 1 0.371584 0.912512 0
834 1 0.389604 0.929273 0
835 1 0.415757 0.921424 0
836 1 0.432721 0.943021 0
865 1 0.409123 0.948485 0
838 1 0.446988 0.921444 0
869 1 0.457731 0.943523 0
839 1 0.467114 0.90182 0
840 1 0.477367 0.925564 0
1712 1 0.493925 0.90707 0
870 1 0.483262 0.949788 0
842 1 0.0138322 0.950565 0
872 1 0.0249509 0.991848 0
873 1 0.032975 0.96927 0
871 1 0.00857935 0.974282 0
874 1 0.0499978 0.986532 0
875 1 0.0573878 0.962319 0
876 1 0.0732308 0.979898 0
848 1 0.0808494 0.956281 0
7 1 0.0914334 0.99744 0
877 1 0.0995639 0.973778 0
849 1 0.10705 0.949808 0
878 1 0.117198 0.991542 0
879 1 0.124249 0.968269 0
881 1 0.142013 0.985779 0
850 1 0.150761 0.962373 0
853 1 0.175877 0.956359 0
852 1 0.168264 0.979833 0
883 1 0.192531 0.97503 0
882 1 0.184959 0.999364 0
13 1 0.209486 0.994183 0
15 1 0.235277 0.989096 0
884 1 0.217051 0.970102 0
886 1 0.242202 0.965524 0
858 1 0.291791 0.954585 0
887 1 0.267468 0.959464 0
17 1 0.259 0.983153 0
888 1 0.284093 0.979322 0
19 1 0.300406 0.997985 0
889 1 0.307989 0.973049 0
890 1 0.325039 0.992455 0
892 1 0.351955 0.985695 0
891 1 0.332491 0.968567 0
862 1 0.359429 0.960512 0
864 1 0.383884 0.953573 0
893 1 0.375378 0.979993 0
895 1 0.400803 0.973686 0
894 1 0.392827 0.998535 0
866 1 0.423824 0.969115 0
896 1 0.417271 0.994794 0
867 1 0.447054 0.964618 0
897 1 0.44474 0.99075 0
899 1 0.474157 0.994229 0
868 1 0.470455 0.971179 0
1771 1 0.494449 0.97434 0
900 1 0.501176 0.998193 0
902 1 0.535196 0.0262782 0
901 1 0.509202 0.0206584 0
931 1 0.519058 0.0460156 0
903 1 0.527758 0.00300438 0
904 1 0.559875 0.0314585 0
906 1 0.577252 0.0136871 0
935 1 0.584344 0.0371265 0
905 1 0.551657 0.00858677 0
908 1 0.601282 0.0194685 0
937 1 0.60934 0.04197 0
939 1 0.625854 0.0245382 0
910 1 0.641737 0.00440566 0
938 1 0.633751 0.0476208 0
909 1 0.617436 0.000768815 0
941 1 0.65024 0.0282753 0
912 1 0.66863 0.0131593 0
942 1 0.674712 0.0368012 0
943 1 0.693205 0.0177328 0
973 1 0.699917 0.040942 0
944 1 0.716989 0.0225625 0
945 1 0.732878 0.00471554 0
946 1 0.740982 0.0286522 0
975 1 0.725111 0.0471101 0
947 1 0.757987 0.0100217 0
948 1 0.765849 0.0343504 0
918 1 0.782296 0.0139462 0
979 1 0.799058 0.047952 0
949 1 0.808113 0.0236144 0
951 1 0.833042 0.0190274 0
950 1 0.825201 0.0422685 0
921 1 0.818611 3.32361e-05 0
952 1 0.849887 0.0372408 0
953 1 0.857828 0.0143736 0
924 1 0.882125 0.00785453 0
954 1 0.874035 0.0312723 0
985 1 0.891311 0.0478446 0
955 1 0.899766 0.0235671 0
925 1 0.906606 0.000828286 0
926 1 0.925177 0.0175758 0
957 1 0.942209 0.0353665 0
956 1 0.917086 0.0412159 0
928 1 0.948409 0.011361 0
959 1 0.966981 0.0293536 0
930 1 0.991887 0.0222402 0
929 1 0.974264 0.00538878 0
960 1 0.983178 0.0469472 0
933 1 0.543233 0.0484574 0
932 1 0.527604 0.0689525 0
962 1 0.534378 0.0920319 0
961 1 0.509062 0.0856558 0
60 1 0.501916 0.062298 0
963 1 0.551615 0.0734867 0
934 1 0.568295 0.0558211 0
965 1 0.575913 0.0791445 0
964 1 0.559807 0.0974739 0
936 1 0.59343 0.060803 0
966 1 0.600055 0.0851993 0
967 1 0.617602 0.0674935 0
968 1 0.625362 0.091657 0
969 1 0.642794 0.0736485 0
999 1 0.650769 0.0972182 0
940 1 0.65809 0.0545022 0
970 1 0.667623 0.0798646 0
971 1 0.683501 0.0597615 0
972 1 0.691519 0.0830563 0
1003 1 0.707743 0.0641978 0
1004 1 0.714641 0.0885838 0
974 1 0.731659 0.0713668 0
1005 1 0.739632 0.0950985 0
976 1 0.748929 0.0526156 0
1007 1 0.756247 0.0776105 0
977 1 0.77368 0.0571546 0
978 1 0.79344 0.0711689 0
1008 1 0.787103 0.0950669 0
1006 1 0.763855 0.100798 0
980 1 0.816902 0.0652057 0
981 1 0.841958 0.0599502 0
1009 1 0.811176 0.0896064 0
1011 1 0.834827 0.0840994 0
982 1 0.861733 0.0788183 0
983 1 0.866041 0.0547166 0
984 1 0.885143 0.0719358 0
1013 1 0.878239 0.096261 0
1015 1 0.902553 0.0902599 0
986 1 0.908506 0.0655992 0
987 1 0.933471 0.0595383 0
1017 1 0.927003 0.0846427 0
988 1 0.951487 0.0778342 0
958 1 0.959212 0.0536059 0
989 1 0.975456 0.0706722 0
990 1 0.993525 0.0865898 0
1019 1 0.969839 0.0939298 0
991 1 0.516879 0.108945 0
992 1 0.523917 0.132752 0
993 1 0.54238 0.115583 0
1023 1 0.548283 0.138641 0
120 1 0.499027 0.127371 0
1021 1 0.506277 0.150933 0
995 1 0.582669 0.102804 0
994 1 0.566699 0.120463 0
996 1 0.591213 0.126998 0
1025 1 0.573305 0.144805 0
1026 1 0.596542 0.151545 0
997 1 0.608782 0.108494 0
998 1 0.63244 0.115194 0
1027 1 0.614997 0.132488 0
1029 1 0.639287 0.138716 0
1001 1 0.674222 0.104361 0
1000 1 0.656948 0.122057 0
1031 1 0.680854 0.128391 0
1030 1 0.662724 0.145786 0
1002 1 0.697818 0.106976 0
1033 1 0.706583 0.130316 0
1035 1 0.723504 0.113484 0
1034 1 0.730811 0.137226 0
1036 1 0.748491 0.12036 0
1037 1 0.777145 0.121139 0
1038 1 0.795497 0.138456 0
1067 1 0.763918 0.142255 0
1039 1 0.802981 0.11481 0
1010 1 0.82857 0.108178 0
1040 1 0.820963 0.131858 0
1041 1 0.845204 0.126331 0
1071 1 0.838648 0.150274 0
1012 1 0.853333 0.101668 0
1043 1 0.870437 0.120203 0
1014 1 0.894694 0.114022 0
1044 1 0.887854 0.138103 0
1042 1 0.863233 0.144082 0
1045 1 0.912379 0.132794 0
1016 1 0.919685 0.108645 0
1047 1 0.936979 0.12649 0
1018 1 0.945061 0.101549 0
1049 1 0.961787 0.119424 0
1020 1 0.986424 0.112169 0
1050 1 0.980083 0.135081 0
1046 1 0.954095 0.143157 0
1022 1 0.530509 0.155983 0
1053 1 0.537986 0.179496 0
1051 1 0.513423 0.175557 0
1052 1 0.520115 0.197696 0
1024 1 0.554758 0.161612 0
1055 1 0.578029 0.169587 0
1054 1 0.562039 0.186599 0
1056 1 0.586535 0.192435 0
1028 1 0.621563 0.156267 0
1057 1 0.60316 0.174261 0
1058 1 0.628495 0.18002 0
1087 1 0.611339 0.197767 0
1059 1 0.645948 0.162048 0
1032 1 0.689559 0.150394 0
1060 1 0.653004 0.185002 0
1061 1 0.670036 0.167958 0
1091 1 0.677558 0.192431 0
1062 1 0.695067 0.174065 0
1063 1 0.714577 0.155534 0
1064 1 0.719938 0.178698 0
1095 1 0.743397 0.184244 0
1093 1 0.703463 0.196977 0
1065 1 0.738587 0.159647 0
1066 1 0.763026 0.167797 0
1068 1 0.788658 0.162155 0
1097 1 0.781267 0.186861 0
1069 1 0.812907 0.155127 0
1070 1 0.831127 0.172873 0
1099 1 0.805821 0.180091 0
1101 1 0.84787 0.191676 0
1100 1 0.82407 0.19792 0
1072 1 0.855963 0.168637 0
1073 1 0.881395 0.164298 0
1103 1 0.872967 0.187122 0
1074 1 0.899424 0.18192 0
1077 1 0.931094 0.149914 0
1075 1 0.906648 0.157188 0
1076 1 0.923484 0.174669 0
1107 1 0.940777 0.192925 0
1078 1 0.947567 0.168937 0
1105 1 0.917072 0.198634 0
1048 1 0.972128 0.162547 0
151 1 0.995875 0.155052 0
1079 1 0.989025 0.179006 0
1109 1 0.966153 0.186727 0
1083 1 0.54393 0.203697 0
1081 1 0.502222 0.214341 0
1082 1 0.525389 0.221835 0
1111 1 0.508028 0.240621 0
1113 1 0.532832 0.245342 0
1084 1 0.550431 0.228135 0
1085 1 0.569529 0.211341 0
1086 1 0.59437 0.215441 0
1115 1 0.57554 0.235368 0
1117 1 0.599453 0.240888 0
1089 1 0.635235 0.20287 0
1088 1 0.619605 0.222143 0
1119 1 0.643284 0.226483 0
1118 1 0.625005 0.245688 0
1090 1 0.660414 0.209541 0
1092 1 0.686996 0.214252 0
1121 1 0.668203 0.233524 0
1122 1 0.693217 0.238791 0
1094 1 0.727281 0.203275 0
1123 1 0.711186 0.221953 0
1124 1 0.717642 0.244531 0
1125 1 0.737055 0.22699 0
1155 1 0.744257 0.250954 0
1096 1 0.752489 0.208353 0
1127 1 0.777019 0.211336 0
1126 1 0.762488 0.230341 0
1128 1 0.785443 0.238457 0
1098 1 0.800068 0.205329 0
1131 1 0.843415 0.216278 0
1129 1 0.818111 0.222752 0
1130 1 0.835471 0.24197 0
1159 1 0.810119 0.246187 0
1102 1 0.867385 0.210202 0
1104 1 0.89186 0.204786 0
1132 1 0.860417 0.234191 0
1133 1 0.884772 0.228347 0
1134 1 0.901747 0.247553 0
1135 1 0.908932 0.222904 0
1106 1 0.934817 0.217015 0
1136 1 0.926047 0.241599 0
1137 1 0.95204 0.235938 0
1108 1 0.958388 0.211946 0
1110 1 0.98225 0.204784 0
1139 1 0.976674 0.230542 0
1140 1 0.994934 0.246194 0
1112 1 0.515339 0.264366 0
1143 1 0.539493 0.269252 0
1142 1 0.523097 0.286605 0
1144 1 0.546587 0.293716 0
1114 1 0.557516 0.252545 0
1116 1 0.581707 0.258131 0
1145 1 0.565975 0.276768 0
1146 1 0.589447 0.281735 0
1147 1 0.606586 0.26496 0
1149 1 0.631299 0.269672 0
1148 1 0.615266 0.287288 0
1179 1 0.639882 0.292886 0