ITEM: TIMESTEP
96000
ITEM: NUMBER OF ATOMS
1800
ITEM: BOX BOUNDS pp pp pp
3.1508172244813153e+00 1.5524918277551535e+02
3.1508172244813153e+00 1.5524918277551535e+02
0.0000000000000000e+00 5.2800000000000002e+00
ITEM: ATOMS id type xs ys zs
2 1 0.0188127 0.0190244 0
3 1 0.0427391 0.0105866 0
33 1 0.0354759 0.0354026 0
31 1 0.0100494 0.0416985 0
4 1 0.0598897 0.0300316 0
6 1 0.0843933 0.0244377 0
5 1 0.0673229 0.00687295 0
35 1 0.0773269 0.048358 0
7 1 0.0917737 -0.000176461 0
37 1 0.100813 0.0420989 0
8 1 0.108493 0.0186168 0
9 1 0.125176 0.0358063 0
880 1 0.133346 0.0132176 0
10 1 0.150649 0.0303617 0
11 1 0.158706 0.00618119 0
12 1 0.175839 0.0247255 0
43 1 0.192956 0.0429806 0
41 1 0.167706 0.0487521 0
449 1 0.476415 0.455059 0
14 1 0.200629 0.0186571 0
44 1 0.217154 0.0380794 0
45 1 0.225057 0.0135088 0
46 1 0.240185 0.0319447 0
16 1 0.25023 0.00585369 0
47 1 0.266583 0.0263432 0
49 1 0.290968 0.020515 0
48 1 0.284382 0.0448869 0
18 1 0.276213 0.000497716 0
50 1 0.310096 0.0379493 0
20 1 0.316644 0.0142776 0
51 1 0.334541 0.0333087 0
21 1 0.34159 0.00878562 0
22 1 0.358368 0.0262478 0
24 1 0.382328 0.0216041 0
53 1 0.374973 0.0456325 0
23 1 0.36596 0.00260072 0
55 1 0.399815 0.0390032 0
25 1 0.40715 0.0157816 0
26 1 0.424365 0.0347851 0
27 1 0.434824 0.0127446 0
28 1 0.448877 0.0360806 0
30 1 0.493027 0.0409393 0
898 1 0.460203 0.0153617 0
29 1 0.485107 0.0167469 0
59 1 0.469408 0.0487668 0
32 1 0.0271799 0.0592717 0
62 1 0.0180652 0.0818996 0
63 1 0.0441163 0.0771197 0
61 1 0.00186768 0.0643979 0
34 1 0.0525712 0.0533928 0
65 1 0.0677776 0.0717351 0
66 1 0.0850849 0.0897027 0
36 1 0.0936554 0.0656606 0
64 1 0.0598748 0.0957588 0
39 1 0.142668 0.0552207 0
38 1 0.117983 0.0592986 0
67 1 0.108022 0.0841768 0
69 1 0.134424 0.0784507 0
70 1 0.151243 0.0947934 0
40 1 0.159582 0.0726446 0
71 1 0.177341 0.0914385 0
42 1 0.183842 0.0662726 0
72 1 0.201657 0.0841879 0
73 1 0.2091 0.0617523 0
74 1 0.226278 0.0793704 0
75 1 0.234611 0.0569506 0
106 1 0.243635 0.0963631 0
77 1 0.259204 0.0503913 0
76 1 0.253753 0.0754126 0
78 1 0.277185 0.0702036 0
109 1 0.296591 0.089045 0
107 1 0.271447 0.0938709 0
79 1 0.302763 0.0632888 0
80 1 0.320397 0.0841455 0
81 1 0.325785 0.0566496 0
82 1 0.343069 0.0744003 0
52 1 0.350106 0.0511716 0
83 1 0.367405 0.0695023 0
113 1 0.380372 0.0899839 0
54 1 0.393028 0.0675325 0
56 1 0.415275 0.0573514 0
57 1 0.440047 0.0605411 0
85 1 0.423153 0.081164 0
87 1 0.445647 0.0896873 0
84 1 0.404328 0.0984271 0
88 1 0.468816 0.0966214 0
58 1 0.461451 0.0719272 0
89 1 0.48519 0.0785625 0
93 1 0.0351623 0.100958 0
92 1 0.026661 0.124402 0
91 1 0.010834 0.105448 0
121 1 0.00388825 0.13135 0
123 1 0.0439665 0.142267 0
122 1 0.0193734 0.150066 0
94 1 0.0527138 0.119393 0
95 1 0.0771915 0.113688 0
125 1 0.0696224 0.137342 0
96 1 0.0934838 0.13258 0
68 1 0.12536 0.101995 0
97 1 0.10144 0.107804 0
98 1 0.117246 0.126377 0
99 1 0.143258 0.118775 0
129 1 0.135652 0.1428 0
127 1 0.109908 0.150961 0
100 1 0.167243 0.113022 0
130 1 0.159631 0.136611 0
131 1 0.183225 0.13209 0
101 1 0.193459 0.108733 0
103 1 0.218806 0.103109 0
102 1 0.211191 0.127209 0
105 1 0.235416 0.120157 0
104 1 0.230346 0.14502 0
133 1 0.199861 0.14879 0
136 1 0.257901 0.14269 0
135 1 0.261147 0.115173 0
137 1 0.279697 0.132187 0
108 1 0.295275 0.113632 0
111 1 0.33801 0.0999951 0
139 1 0.303764 0.136766 0
110 1 0.319974 0.118209 0
141 1 0.343682 0.124223 0
140 1 0.327331 0.141333 0
112 1 0.362003 0.106875 0
114 1 0.385759 0.114583 0
143 1 0.368769 0.132259 0
144 1 0.393754 0.138306 0
142 1 0.350756 0.149986 0
86 1 0.428216 0.106082 0
115 1 0.410419 0.121811 0
116 1 0.434628 0.130612 0
145 1 0.416402 0.146014 0
117 1 0.451696 0.114011 0
90 1 0.492728 0.103315 0
118 1 0.458922 0.136586 0
119 1 0.475752 0.120247 0
149 1 0.484123 0.1442 0
153 1 0.0370601 0.168285 0
152 1 0.0112946 0.173491 0
183 1 0.0298322 0.191943 0
1080 1 0.00435324 0.196922 0
124 1 0.0609712 0.161374 0
126 1 0.0855333 0.156871 0
155 1 0.0779682 0.180901 0
154 1 0.0543527 0.185538 0
156 1 0.0948595 0.19831 0
128 1 0.127113 0.167849 0
157 1 0.102917 0.175312 0
160 1 0.145182 0.185499 0
158 1 0.119658 0.191725 0
132 1 0.175745 0.155773 0
159 1 0.151955 0.161324 0
161 1 0.168912 0.179517 0
162 1 0.186152 0.195436 0
163 1 0.194162 0.17362 0
134 1 0.217844 0.164926 0
164 1 0.230162 0.185511 0
165 1 0.246905 0.165603 0
193 1 0.210692 0.198423 0
166 1 0.254438 0.189124 0
167 1 0.270744 0.171557 0
138 1 0.287518 0.154993 0
168 1 0.294055 0.179391 0
197 1 0.277565 0.198061 0
169 1 0.311488 0.160151 0
171 1 0.335172 0.168038 0
170 1 0.317919 0.185349 0
201 1 0.342222 0.192817 0
172 1 0.359156 0.173691 0
173 1 0.376793 0.156765 0
174 1 0.383223 0.180846 0
175 1 0.399294 0.163867 0
147 1 0.441592 0.154133 0
146 1 0.423887 0.172377 0
205 1 0.406249 0.189409 0
176 1 0.430712 0.196941 0
177 1 0.448943 0.177986 0
148 1 0.466586 0.160925 0
150 1 0.490468 0.166745 0
179 1 0.473436 0.183847 0
180 1 0.497551 0.191486 0
182 1 0.0204606 0.216022 0
213 1 0.0379919 0.234914 0
211 1 0.0139118 0.241205 0
184 1 0.0457783 0.211053 0
185 1 0.0694067 0.204583 0
186 1 0.0872068 0.221586 0
215 1 0.0639434 0.22873 0
216 1 0.0807705 0.246519 0
187 1 0.112331 0.216349 0
188 1 0.129235 0.235545 0
189 1 0.136375 0.209495 0
217 1 0.103626 0.238532 0
191 1 0.162641 0.203773 0
190 1 0.152889 0.227583 0
192 1 0.195298 0.216847 0
221 1 0.177265 0.233957 0
223 1 0.200026 0.242346 0
194 1 0.218617 0.22484 0
195 1 0.237465 0.208022 0
225 1 0.242685 0.232641 0
196 1 0.260099 0.216359 0
198 1 0.283525 0.22202 0
227 1 0.266089 0.239572 0
228 1 0.290237 0.247079 0
199 1 0.301682 0.204085 0
200 1 0.325518 0.210811 0
229 1 0.308282 0.228378 0
231 1 0.332631 0.234869 0
202 1 0.349518 0.216885 0
203 1 0.366175 0.199259 0
204 1 0.38929 0.205723 0
233 1 0.373814 0.224214 0
235 1 0.396057 0.230626 0
232 1 0.356044 0.241186 0
234 1 0.379302 0.249143 0
207 1 0.437598 0.219476 0
206 1 0.419421 0.236108 0
237 1 0.444577 0.24317 0
178 1 0.455089 0.201555 0
208 1 0.461619 0.226692 0
209 1 0.479384 0.208927 0
210 1 0.486945 0.233158 0
212 1 0.00461233 0.264728 0
243 1 0.0309554 0.259334 0
242 1 0.021813 0.281457 0
244 1 0.0480491 0.277373 0
273 1 0.0356648 0.300498 0
214 1 0.0551795 0.252324 0
245 1 0.0715256 0.270335 0
247 1 0.080038 0.292264 0
218 1 0.0963881 0.271107 0
219 1 0.116705 0.2581 0
249 1 0.137964 0.267276 0
248 1 0.119641 0.283511 0
250 1 0.143101 0.291662 0
220 1 0.155426 0.250743 0
222 1 0.180514 0.258378 0
251 1 0.162229 0.275211 0
252 1 0.186549 0.282637 0
224 1 0.224285 0.248382 0
253 1 0.20589 0.266304 0
255 1 0.229402 0.273156 0
254 1 0.211871 0.290038 0
226 1 0.248257 0.257945 0
285 1 0.235173 0.298306 0
256 1 0.252734 0.282412 0
257 1 0.27158 0.263129 0
259 1 0.294956 0.270152 0
258 1 0.276346 0.287545 0
289 1 0.299915 0.294655 0
230 1 0.312998 0.252411 0
260 1 0.319083 0.275905 0
261 1 0.337666 0.260512 0
262 1 0.343364 0.283361 0
263 1 0.361139 0.265695 0
264 1 0.38386 0.274217 0
293 1 0.366687 0.29199 0
295 1 0.390509 0.297471 0
265 1 0.402928 0.25585 0
236 1 0.427498 0.26127 0
266 1 0.408174 0.280481 0
267 1 0.43373 0.285204 0
238 1 0.450837 0.267955 0
239 1 0.469057 0.250211 0
240 1 0.493204 0.257426 0
269 1 0.475668 0.275751 0
268 1 0.458107 0.292261 0
1141 1 0.499591 0.280459 0
270 1 0.481299 0.299319 0
271 1 0.0140163 0.313546 0
272 1 0.040923 0.323619 0
301 1 0.0203249 0.336247 0
303 1 0.0446029 0.346377 0
275 1 0.0595723 0.308177 0
276 1 0.0833462 0.316144 0
274 1 0.0646896 0.331343 0
305 1 0.0874497 0.342349 0
246 1 0.10226 0.300377 0
279 1 0.125498 0.308297 0
277 1 0.106443 0.325593 0
278 1 0.129436 0.332953 0
307 1 0.111064 0.349289 0
281 1 0.168019 0.298288 0
280 1 0.149195 0.315515 0
311 1 0.152954 0.340823 0
283 1 0.191996 0.306497 0
282 1 0.172565 0.324141 0
312 1 0.17821 0.347403 0
313 1 0.198097 0.331497 0
284 1 0.216517 0.314844 0
315 1 0.220959 0.339197 0
286 1 0.240597 0.322186 0
316 1 0.245442 0.345904 0
287 1 0.259614 0.306432 0
288 1 0.283338 0.313343 0
317 1 0.265185 0.331223 0
319 1 0.289236 0.336443 0
291 1 0.324774 0.300837 0
290 1 0.306946 0.319113 0
321 1 0.313477 0.343381 0
292 1 0.330359 0.325301 0
323 1 0.34827 0.307493 0
294 1 0.3729 0.315049 0
324 1 0.354004 0.331737 0
325 1 0.378452 0.339979 0
296 1 0.397638 0.322889 0
326 1 0.403255 0.346692 0
297 1 0.41597 0.303515 0
298 1 0.439425 0.310106 0
327 1 0.421933 0.32834 0
328 1 0.444951 0.334927 0
299 1 0.463197 0.316718 0
300 1 0.488582 0.322817 0
1201 1 0.493071 0.348001 0
329 1 0.469163 0.340153 0
331 1 0.00426984 0.37679 0
302 1 0.0228916 0.362101 0
332 1 0.0267888 0.386396 0
333 1 0.0466198 0.371621 0
450 1 0.481811 0.479772 0
334 1 0.0519283 0.396361 0
304 1 0.066741 0.356054 0
306 1 0.0913375 0.366274 0
335 1 0.0714035 0.379973 0
337 1 0.0961157 0.389895 0
309 1 0.134563 0.356082 0
308 1 0.114421 0.373487 0
339 1 0.138653 0.380811 0
338 1 0.11933 0.397246 0
310 1 0.158197 0.364821 0
341 1 0.163014 0.388486 0
343 1 0.182305 0.372374 0
342 1 0.189204 0.39569 0
314 1 0.201451 0.356597 0
345 1 0.226608 0.362696 0
344 1 0.208507 0.379873 0
375 1 0.232811 0.387626 0
346 1 0.251846 0.371099 0
377 1 0.256168 0.394832 0
318 1 0.269762 0.354918 0
349 1 0.294331 0.360234 0
347 1 0.275121 0.37817 0
350 1 0.298449 0.384307 0
322 1 0.336664 0.351243 0
320 1 0.318707 0.367877 0
351 1 0.342005 0.375601 0
381 1 0.323415 0.391807 0
353 1 0.360377 0.356734 0
355 1 0.385129 0.364072 0
354 1 0.366472 0.38207 0
385 1 0.390326 0.388364 0
357 1 0.427474 0.352854 0
356 1 0.408936 0.371175 0
387 1 0.434473 0.376967 0
386 1 0.414488 0.395457 0
359 1 0.451176 0.358491 0
358 1 0.457843 0.383265 0
330 1 0.475066 0.365148 0
360 1 0.481597 0.389406 0
1231 1 0.499672 0.37153 0
361 1 0.00881817 0.402056 0
363 1 0.0334369 0.410696 0
362 1 0.0145597 0.426353 0
364 1 0.0383387 0.435471 0
336 1 0.0773482 0.405183 0
365 1 0.0570031 0.420137 0
395 1 0.0634639 0.443291 0
367 1 0.10034 0.414487 0
366 1 0.108271 0.438791 0
369 1 0.125258 0.421736 0
340 1 0.145914 0.405626 0
368 1 0.131293 0.447915 0
370 1 0.149959 0.430672 0
371 1 0.170651 0.412366 0
401 1 0.174205 0.436988 0
372 1 0.193951 0.421528 0
403 1 0.198074 0.444693 0
373 1 0.213016 0.405002 0
374 1 0.218217 0.429338 0
376 1 0.237434 0.411338 0
405 1 0.243172 0.435455 0
404 1 0.22466 0.451734 0
348 1 0.280826 0.403463 0
407 1 0.267638 0.443853 0
378 1 0.262858 0.420194 0
409 1 0.2876 0.42727 0
352 1 0.348622 0.399963 0
379 1 0.305718 0.408753 0
380 1 0.313349 0.434368 0
382 1 0.330396 0.415308 0
411 1 0.336232 0.444846 0
413 1 0.354609 0.424415 0
383 1 0.372317 0.407476 0
414 1 0.378161 0.4328 0
384 1 0.39543 0.413372 0
388 1 0.438783 0.401917 0
415 1 0.403022 0.438573 0
417 1 0.420211 0.419522 0
416 1 0.428187 0.445074 0
419 1 0.443447 0.426143 0
389 1 0.463416 0.408037 0
418 1 0.470526 0.431761 0
390 1 0.48888 0.413934 0
420 1 0.495553 0.437377 0
393 1 0.0195635 0.450722 0
422 1 0.00680784 0.49133 0
423 1 0.0261963 0.474667 0
394 1 0.0445053 0.459978 0
392 1 0.00131934 0.46754 0
425 1 0.0505619 0.484017 0
397 1 0.0887243 0.452635 0
396 1 0.0693126 0.467466 0
426 1 0.0746925 0.492833 0
427 1 0.0930571 0.477292 0
398 1 0.112972 0.464107 0
428 1 0.118795 0.488223 0
429 1 0.13851 0.473027 0
459 1 0.142251 0.498004 0
399 1 0.154836 0.455175 0
400 1 0.178713 0.46036 0
430 1 0.161363 0.481154 0
431 1 0.18722 0.481769 0
402 1 0.205579 0.466949 0
432 1 0.210402 0.491016 0
433 1 0.230299 0.475207 0
434 1 0.234857 0.499835 0
435 1 0.248936 0.460063 0
436 1 0.253193 0.484406 0
408 1 0.291682 0.453485 0
406 1 0.27362 0.469817 0
437 1 0.277154 0.493866 0
439 1 0.296927 0.47786 0
410 1 0.317554 0.461533 0
440 1 0.32198 0.486648 0
441 1 0.341086 0.46929 0
471 1 0.348593 0.493056 0
412 1 0.360752 0.451118 0
442 1 0.365827 0.474823 0
473 1 0.389977 0.482002 0
443 1 0.384273 0.457283 0
448 1 0.457594 0.47344 0
477 1 0.439748 0.492095 0
446 1 0.432915 0.468259 0
445 1 0.408548 0.462471 0
444 1 0.414208 0.486341 0
478 1 0.464296 0.497853 0
447 1 0.452186 0.448819 0
424 1 0.0294615 0.499443 0
453 1 0.0109754 0.515299 0
452 1 0.0153998 0.541422 0
454 1 0.0351282 0.525207 0
483 1 0.0396271 0.548652 0
1 1 0.00134698 1.00036 0
485 1 0.0583385 0.532658 0
455 1 0.0540317 0.507993 0
456 1 0.0780574 0.517931 0
486 1 0.0821625 0.543455 0
457 1 0.0985302 0.502283 0
487 1 0.102179 0.527201 0
458 1 0.122816 0.51339 0
488 1 0.127368 0.537524 0
489 1 0.147182 0.522856 0
461 1 0.189145 0.504456 0
462 1 0.194401 0.527961 0
491 1 0.171203 0.53388 0
460 1 0.164765 0.506399 0
493 1 0.21715 0.537958 0
463 1 0.214476 0.513979 0
464 1 0.236914 0.525012 0
495 1 0.239799 0.549451 0
466 1 0.260554 0.533628 0
465 1 0.259072 0.508737 0
467 1 0.28302 0.517709 0
497 1 0.284529 0.543533 0
468 1 0.305535 0.528669 0
469 1 0.325951 0.512534 0
499 1 0.335295 0.539851 0
438 1 0.301648 0.501727 0
470 1 0.352257 0.517153 0
503 1 0.380811 0.523376 0
474 1 0.397984 0.505982 0
505 1 0.387667 0.546684 0
501 1 0.361325 0.540648 0
476 1 0.404706 0.529364 0
509 1 0.428422 0.534396 0
475 1 0.422383 0.510235 0
507 1 0.446244 0.51524 0
479 1 0.472048 0.522276 0
480 1 0.455692 0.538946 0
1381 1 0.49755 0.527215 0
510 1 0.479461 0.54563 0
1351 1 0.489641 0.503634 0
1771 1 0.491965 0.975428 0
513 1 0.0197103 0.564794 0
514 1 0.0435411 0.573808 0
512 1 0.0232598 0.589505 0
484 1 0.0635762 0.559669 0
515 1 0.0871755 0.567678 0
545 1 0.0673979 0.584105 0
516 1 0.0893542 0.594734 0
517 1 0.106926 0.553377 0
518 1 0.108751 0.578503 0
519 1 0.129874 0.563446 0
549 1 0.132022 0.590486 0
490 1 0.149799 0.548771 0
520 1 0.152253 0.575617 0
521 1 0.173336 0.561598 0
492 1 0.195481 0.551099 0
522 1 0.17508 0.587696 0
523 1 0.196958 0.575188 0
494 1 0.217799 0.561439 0
524 1 0.219598 0.587098 0
525 1 0.239711 0.5735 0
555 1 0.241575 0.597779 0
496 1 0.264471 0.557657 0
526 1 0.262655 0.582666 0
527 1 0.286403 0.56809 0
528 1 0.284231 0.593886 0
498 1 0.308545 0.552825 0
529 1 0.307941 0.580442 0
500 1 0.330559 0.566145 0
530 1 0.329259 0.591789 0
531 1 0.352389 0.581819 0
502 1 0.371149 0.564378 0
504 1 0.395607 0.570252 0
533 1 0.37867 0.5894 0
506 1 0.412488 0.553046 0
534 1 0.403811 0.594476 0
535 1 0.419684 0.575978 0
508 1 0.437236 0.557194 0
537 1 0.444402 0.580796 0
536 1 0.42707 0.600387 0
539 1 0.462064 0.564315 0
540 1 0.486118 0.569756 0
538 1 0.468758 0.58869 0
569 1 0.493053 0.593778 0
543 1 0.0479434 0.598241 0
542 1 0.0256904 0.614599 0
571 1 0.00370589 0.630304 0
573 1 0.0270159 0.638966 0
544 1 0.0480195 0.624056 0
541 1 0.0019609 0.605788 0
574 1 0.0508384 0.648279 0
546 1 0.0692704 0.60952 0
547 1 0.0912564 0.619729 0
575 1 0.0714992 0.634239 0
576 1 0.0936919 0.645397 0
548 1 0.112108 0.604655 0
550 1 0.133773 0.615649 0
577 1 0.114106 0.630911 0
579 1 0.137196 0.641801 0
551 1 0.153617 0.601177 0
581 1 0.157976 0.626449 0
552 1 0.177797 0.612817 0
582 1 0.179591 0.638691 0
553 1 0.198378 0.599824 0
583 1 0.199459 0.625091 0
554 1 0.220314 0.612599 0
556 1 0.242626 0.622321 0
585 1 0.221843 0.636865 0
586 1 0.244707 0.646553 0
584 1 0.200928 0.651326 0
557 1 0.263841 0.608843 0
587 1 0.265599 0.633612 0
558 1 0.286347 0.619222 0
589 1 0.287757 0.644838 0
559 1 0.30623 0.604322 0
560 1 0.308766 0.63243 0
561 1 0.327087 0.616201 0
591 1 0.329955 0.643342 0
562 1 0.347559 0.626853 0
532 1 0.361663 0.606825 0
563 1 0.386421 0.612588 0
564 1 0.371354 0.631943 0
595 1 0.393051 0.638373 0
593 1 0.352934 0.650352 0
565 1 0.409676 0.619951 0
566 1 0.434374 0.624976 0
596 1 0.417072 0.643548 0
598 1 0.442195 0.648202 0
567 1 0.45173 0.606161 0
597 1 0.460309 0.63089 0
568 1 0.476853 0.611574 0
570 1 0.483799 0.636891 0
572 1 0.00519855 0.65406 0
603 1 0.029009 0.663728 0
602 1 0.00821347 0.677601 0
633 1 0.0313564 0.687907 0
604 1 0.0509408 0.673778 0
605 1 0.0735745 0.659273 0
606 1 0.0746154 0.683569 0
607 1 0.0959903 0.669939 0
637 1 0.0976694 0.69394 0
635 1 0.0557948 0.698238 0
578 1 0.115969 0.655783 0
609 1 0.139371 0.666399 0
608 1 0.11853 0.68024 0
639 1 0.140567 0.691996 0
580 1 0.159163 0.651455 0
611 1 0.18107 0.665619 0
610 1 0.161138 0.67847 0
612 1 0.183156 0.690245 0
613 1 0.203276 0.675861 0
615 1 0.224977 0.661433 0
614 1 0.225772 0.687194 0
617 1 0.246151 0.673475 0
616 1 0.247823 0.698979 0
588 1 0.266569 0.658898 0
619 1 0.289789 0.672939 0
618 1 0.267681 0.683939 0
590 1 0.310549 0.657822 0
621 1 0.314241 0.683683 0
592 1 0.332989 0.666957 0
622 1 0.33801 0.691896 0
623 1 0.356899 0.674048 0
594 1 0.377018 0.656611 0
624 1 0.382332 0.679768 0
653 1 0.365049 0.697574 0
625 1 0.400869 0.662538 0
627 1 0.425123 0.665577 0
626 1 0.406263 0.68557 0
657 1 0.43024 0.690191 0
628 1 0.44913 0.672844 0
599 1 0.466107 0.655195 0
600 1 0.490623 0.660225 0
629 1 0.471875 0.678909 0
630 1 0.496358 0.68411 0
658 1 0.454093 0.696357 0
632 1 0.0109424 0.701821 0
634 1 0.0341947 0.7127 0
663 1 0.0136675 0.727582 0
664 1 0.0369895 0.737723 0
636 1 0.077338 0.708535 0
665 1 0.0566408 0.724431 0
666 1 0.0788723 0.73418 0
695 1 0.0588695 0.748708 0
667 1 0.0990784 0.719649 0
638 1 0.119127 0.70443 0
640 1 0.142624 0.717529 0
669 1 0.121544 0.731156 0
668 1 0.101249 0.744889 0
670 1 0.143541 0.743489 0
641 1 0.162157 0.703347 0
642 1 0.185088 0.715734 0
671 1 0.165593 0.72897 0
673 1 0.187434 0.740561 0
643 1 0.205421 0.701042 0
645 1 0.22722 0.712729 0
644 1 0.206818 0.727177 0
675 1 0.22825 0.737356 0
646 1 0.248472 0.723758 0
647 1 0.270124 0.707656 0
677 1 0.251386 0.747915 0
648 1 0.271222 0.733105 0
679 1 0.29322 0.740888 0
649 1 0.294088 0.715116 0
620 1 0.320574 0.707838 0
651 1 0.346368 0.714007 0
650 1 0.331962 0.733188 0
652 1 0.356537 0.740789 0
655 1 0.388717 0.703911 0
654 1 0.370545 0.722595 0
685 1 0.39602 0.728216 0
683 1 0.379459 0.746378 0
656 1 0.412832 0.709347 0
687 1 0.437131 0.714587 0
686 1 0.419835 0.732483 0
717 1 0.443919 0.740342 0
659 1 0.477809 0.702817 0
689 1 0.460819 0.720763 0
660 1 0.486418 0.726233 0
688 1 0.468585 0.745197 0
662 1 0.0160862 0.751643 0
694 1 0.0390703 0.762153 0
693 1 0.0199002 0.77738 0
725 1 0.0422836 0.786931 0
692 1 0.000726055 0.791558 0
697 1 0.0823232 0.759535 0
696 1 0.0623148 0.772794 0
727 1 0.083607 0.785845 0
726 1 0.0639807 0.798392 0
699 1 0.123237 0.75777 0
698 1 0.103161 0.772633 0
700 1 0.12576 0.783233 0
728 1 0.105766 0.797627 0
701 1 0.146889 0.767956 0
731 1 0.146924 0.794876 0
672 1 0.166245 0.753725 0
703 1 0.188234 0.765443 0
702 1 0.168496 0.780436 0
704 1 0.190706 0.791487 0
674 1 0.209859 0.753734 0
676 1 0.231742 0.763112 0
705 1 0.210588 0.778343 0
706 1 0.234248 0.788018 0
707 1 0.25514 0.773505 0
678 1 0.274347 0.757659 0
709 1 0.277841 0.782423 0
680 1 0.297327 0.767231 0
737 1 0.258105 0.797417 0
710 1 0.30062 0.791351 0
681 1 0.3156 0.751318 0
682 1 0.338401 0.758033 0
711 1 0.320251 0.775707 0
712 1 0.3438 0.783351 0
713 1 0.362002 0.764946 0
714 1 0.385808 0.770952 0
743 1 0.368025 0.788963 0
745 1 0.392138 0.794487 0
684 1 0.403759 0.753339 0
715 1 0.427575 0.758366 0
716 1 0.410341 0.77637 0
747 1 0.433888 0.78315 0
718 1 0.45137 0.764493 0
690 1 0.492571 0.750762 0
719 1 0.476485 0.768737 0
720 1 0.482653 0.793718 0
749 1 0.458247 0.788218 0
897 1 0.44734 0.988616 0
751 1 0.00315591 0.815775 0
723 1 0.0228598 0.801416 0
722 1 0.0237518 0.826379 0
724 1 0.0440619 0.812881 0
754 1 0.0450212 0.837128 0
1680 1 0.00359627 0.841446 0
757 1 0.086079 0.811331 0
755 1 0.0658236 0.824202 0
756 1 0.0878025 0.837472 0
729 1 0.127672 0.808633 0
759 1 0.108873 0.82533 0
760 1 0.130656 0.834004 0
730 1 0.151057 0.819299 0
732 1 0.169852 0.804639 0
761 1 0.154792 0.845875 0
763 1 0.174483 0.830668 0
733 1 0.194168 0.816963 0
764 1 0.196224 0.843636 0
735 1 0.214332 0.802571 0
736 1 0.236876 0.813545 0
734 1 0.216904 0.828593 0
767 1 0.238932 0.838549 0
708 1 0.281549 0.807042 0
738 1 0.259153 0.822843 0
769 1 0.282001 0.832486 0
768 1 0.261329 0.847806 0
741 1 0.32485 0.801162 0
739 1 0.305302 0.815527 0
740 1 0.306028 0.839798 0
771 1 0.330358 0.825292 0
742 1 0.349737 0.806476 0
773 1 0.355837 0.829676 0
744 1 0.374991 0.812271 0
774 1 0.381659 0.837246 0
775 1 0.398673 0.819044 0
746 1 0.415865 0.801593 0
748 1 0.441224 0.807737 0
777 1 0.422885 0.826261 0
776 1 0.406526 0.844553 0
779 1 0.447544 0.831852 0
750 1 0.464926 0.812766 0
1621 1 0.48905 0.818962 0
780 1 0.472552 0.836951 0
1651 1 0.496904 0.845135 0
753 1 0.0460702 0.860706 0
752 1 0.0220294 0.859575 0
783 1 0.0375838 0.881903 0
782 1 0.014512 0.888033 0
868 1 0.468064 0.971007 0
785 1 0.0676973 0.850192 0
784 1 0.0653371 0.874685 0
786 1 0.0815661 0.891715 0
787 1 0.088406 0.863833 0
815 1 0.0563736 0.898161 0
758 1 0.109134 0.849722 0
817 1 0.106297 0.885125 0
789 1 0.133599 0.856902 0
788 1 0.130786 0.880389 0
790 1 0.148615 0.896784 0
791 1 0.154469 0.872433 0
762 1 0.177383 0.859013 0
793 1 0.178769 0.883558 0
795 1 0.199863 0.869712 0
765 1 0.219013 0.853758 0
796 1 0.222784 0.878394 0
825 1 0.238974 0.89774 0
766 1 0.246846 0.869769 0
797 1 0.272427 0.870213 0
827 1 0.264049 0.893043 0
799 1 0.297677 0.86279 0
798 1 0.288389 0.887546 0
772 1 0.345689 0.853287 0
770 1 0.321761 0.858642 0
800 1 0.312748 0.881316 0
801 1 0.337628 0.876276 0
802 1 0.355972 0.893301 0
803 1 0.361757 0.870621 0
804 1 0.381238 0.886735 0
805 1 0.385996 0.86243 0
778 1 0.429873 0.850061 0
807 1 0.410094 0.870298 0
808 1 0.437519 0.874886 0
837 1 0.420769 0.899975 0
809 1 0.45545 0.85524 0
1681 1 0.479179 0.862075 0
1711 1 0.487965 0.886206 0
810 1 0.462583 0.879388 0
813 1 0.031513 0.905669 0
843 1 0.0223937 0.929827 0
814 1 0.048347 0.923138 0
844 1 0.0407139 0.946072 0
812 1 0.00761192 0.911705 0
816 1 0.0974804 0.910485 0
845 1 0.0721918 0.917637 0
846 1 0.0658881 0.941271 0
847 1 0.091176 0.935968 0
819 1 0.121222 0.905742 0
818 1 0.115509 0.929617 0
820 1 0.132485 0.947139 0
821 1 0.140375 0.922403 0
792 1 0.165431 0.915026 0
851 1 0.157469 0.939895 0
823 1 0.189341 0.906642 0
822 1 0.18248 0.932835 0
794 1 0.213213 0.902114 0
824 1 0.205966 0.924824 0
885 1 0.223616 0.945787 0
855 1 0.230853 0.920738 0
856 1 0.248166 0.940577 0
826 1 0.255048 0.916475 0
857 1 0.274137 0.93542 0
828 1 0.281354 0.911182 0
859 1 0.299876 0.930765 0
831 1 0.330269 0.899514 0
829 1 0.306534 0.905538 0
830 1 0.32408 0.924476 0
861 1 0.341273 0.94346 0
860 1 0.316769 0.948404 0
832 1 0.347417 0.918308 0
863 1 0.364448 0.936817 0
833 1 0.37216 0.913259 0
834 1 0.389652 0.929551 0
806 1 0.397426 0.905203 0
835 1 0.4144 0.924601 0
836 1 0.434722 0.938848 0
838 1 0.453979 0.920594 0
865 1 0.406688 0.948298 0
869 1 0.460048 0.944862 0
839 1 0.469409 0.902748 0
840 1 0.479562 0.928343 0
1712 1 0.495433 0.909659 0
842 1 0.0143639 0.953215 0
872 1 0.0244688 0.994189 0
873 1 0.0319753 0.970886 0
871 1 0.0077213 0.976612 0
874 1 0.0511617 0.986907 0
875 1 0.0572938 0.963532 0
876 1 0.0752941 0.982669 0
848 1 0.0826538 0.960106 0
877 1 0.0999219 0.976899 0
849 1 0.108757 0.953695 0
878 1 0.116777 0.99537 0
879 1 0.12645 0.970701 0
881 1 0.142475 0.988688 0
850 1 0.150567 0.965106 0
854 1 0.198443 0.952313 0
853 1 0.173972 0.957504 0
852 1 0.167319 0.982702 0
883 1 0.191754 0.976641 0
13 1 0.208528 0.995143 0
15 1 0.232538 0.988704 0
884 1 0.214665 0.971006 0
886 1 0.240453 0.964972 0
858 1 0.291216 0.954129 0
887 1 0.264779 0.959733 0
17 1 0.257449 0.982676 0
888 1 0.283696 0.977127 0
19 1 0.299997 0.995741 0
889 1 0.308112 0.972401 0
890 1 0.324451 0.990049 0
891 1 0.332949 0.967095 0
892 1 0.34849 0.985818 0
862 1 0.358354 0.962236 0
864 1 0.382487 0.954118 0
893 1 0.374874 0.980357 0
894 1 0.390469 0.998278 0
895 1 0.398106 0.974085 0
866 1 0.420824 0.967208 0
896 1 0.41632 0.9926 0
867 1 0.445313 0.963784 0
870 1 0.484902 0.95274 0
899 1 0.475933 0.994036 0
882 1 0.183712 0.999556 0
472 1 0.371705 0.500722 0
902 1 0.534807 0.0266757 0
901 1 0.510844 0.0225227 0
931 1 0.520414 0.0456542 0
903 1 0.526717 0.00255539 0
933 1 0.544729 0.0511301 0
904 1 0.559456 0.0322203 0
906 1 0.577666 0.0127972 0
935 1 0.584932 0.0366503 0
905 1 0.552248 0.0096427 0
908 1 0.600847 0.018984 0
937 1 0.609711 0.0429997 0
939 1 0.625874 0.0242476 0
910 1 0.641996 0.00699317 0
938 1 0.632874 0.0480821 0
909 1 0.618063 0.0014748 0
941 1 0.650866 0.0292051 0
912 1 0.66662 0.0109358 0
942 1 0.674782 0.0345239 0
943 1 0.691174 0.0169137 0
973 1 0.699152 0.039646 0
944 1 0.716971 0.0213648 0
945 1 0.733721 0.00361058 0
946 1 0.740978 0.0266955 0
975 1 0.725645 0.0446372 0
947 1 0.758676 0.00873849 0
948 1 0.767223 0.0311213 0
918 1 0.787303 0.0176508 0
979 1 0.800628 0.0434988 0
949 1 0.812453 0.0216235 0
951 1 0.838476 0.0175336 0
950 1 0.827158 0.0406682 0
952 1 0.853843 0.036663 0
953 1 0.861786 0.0117953 0
924 1 0.885899 0.005759 0
954 1 0.878783 0.0305998 0
985 1 0.895223 0.0487526 0
955 1 0.903364 0.0241872 0
926 1 0.926629 0.0165287 0
957 1 0.942847 0.0344924 0
956 1 0.919443 0.0425095 0
928 1 0.950804 0.00979067 0
959 1 0.967943 0.0289937 0
930 1 0.992921 0.0238302 0
929 1 0.975122 0.00635786 0
960 1 0.984815 0.0471087 0
932 1 0.52766 0.0682055 0
962 1 0.533773 0.0926308 0
961 1 0.509889 0.08473 0
60 1 0.503076 0.0622723 0
963 1 0.550908 0.0740849 0
934 1 0.569632 0.055574 0
965 1 0.575558 0.0791287 0
964 1 0.558973 0.0967174 0
936 1 0.593272 0.0611478 0
966 1 0.600744 0.0850825 0
967 1 0.617744 0.0668669 0
968 1 0.62592 0.0904634 0
969 1 0.643096 0.0719276 0
999 1 0.650626 0.0958963 0
940 1 0.657531 0.0531987 0
970 1 0.667458 0.0769213 0
971 1 0.683247 0.0578946 0
972 1 0.691486 0.0833699 0
1001 1 0.673911 0.101735 0
1003 1 0.709161 0.0629324 0
1004 1 0.716606 0.0877453 0
974 1 0.733508 0.0682828 0
1005 1 0.7403 0.0929484 0
976 1 0.750736 0.049811 0
1007 1 0.759054 0.0750411 0
977 1 0.775812 0.0560217 0
978 1 0.795012 0.0699349 0
1008 1 0.787667 0.0940262 0
1006 1 0.763959 0.0986266 0
980 1 0.819306 0.0641304 0
981 1 0.844629 0.0593825 0
1009 1 0.81229 0.0882831 0
1011 1 0.836664 0.0827136 0
982 1 0.860575 0.0785124 0
983 1 0.869775 0.0543891 0
984 1 0.887328 0.0730952 0
1013 1 0.878929 0.0960774 0
1015 1 0.905067 0.0894715 0
986 1 0.911742 0.0662693 0
987 1 0.936822 0.0590558 0
1017 1 0.929521 0.0833967 0
988 1 0.952752 0.075853 0
958 1 0.960255 0.0530361 0
989 1 0.976458 0.0708579 0
990 1 0.993722 0.0882948 0
1019 1 0.969175 0.0944421 0
120 1 0.500457 0.126655 0
991 1 0.51743 0.108987 0
992 1 0.526418 0.131811 0
993 1 0.543627 0.114606 0
1023 1 0.551456 0.137881 0
995 1 0.58485 0.103644 0
994 1 0.568329 0.120651 0
996 1 0.592333 0.126476 0
1025 1 0.575396 0.144318 0
997 1 0.609265 0.108153 0
998 1 0.63309 0.113586 0
1027 1 0.617147 0.132366 0
1029 1 0.640868 0.137723 0
1000 1 0.657154 0.119743 0
1031 1 0.682816 0.124244 0
1030 1 0.665103 0.143597 0
1002 1 0.698859 0.106894 0
1033 1 0.707069 0.131243 0
1035 1 0.723948 0.111558 0
1034 1 0.731833 0.135318 0
1036 1 0.748399 0.116649 0
1037 1 0.776699 0.119722 0
1038 1 0.796463 0.137784 0
1067 1 0.757303 0.142309 0
1039 1 0.801806 0.112835 0
1010 1 0.829386 0.106996 0
1040 1 0.820387 0.128941 0
1041 1 0.846007 0.125921 0
1012 1 0.854338 0.102425 0
1043 1 0.871802 0.120229 0
1014 1 0.895105 0.113696 0
1044 1 0.887486 0.139315 0
1042 1 0.861503 0.144623 0
1045 1 0.911076 0.131642 0
1016 1 0.920807 0.109205 0
1047 1 0.936816 0.126209 0
1018 1 0.944931 0.102894 0
1049 1 0.961899 0.120624 0
1020 1 0.986625 0.113668 0
1050 1 0.978061 0.138626 0
1046 1 0.951942 0.144842 0
1021 1 0.509183 0.150541 0
1022 1 0.533963 0.155819 0
1053 1 0.540514 0.179509 0
1051 1 0.51597 0.174699 0
1052 1 0.523447 0.197011 0
1026 1 0.599364 0.150391 0
1024 1 0.558094 0.161913 0
1055 1 0.582534 0.16927 0
1054 1 0.564661 0.186935 0
1056 1 0.589239 0.191944 0
1028 1 0.623449 0.155042 0
1057 1 0.606092 0.174169 0
1058 1 0.631015 0.180135 0
1087 1 0.613452 0.198746 0
1059 1 0.64851 0.162421 0
1032 1 0.689136 0.147422 0
1060 1 0.65569 0.18631 0
1061 1 0.673465 0.168056 0
1091 1 0.67994 0.192784 0
1062 1 0.696597 0.173488 0
1063 1 0.714528 0.154087 0
1064 1 0.723109 0.178288 0
1095 1 0.746804 0.184008 0
1093 1 0.703853 0.19744 0
1065 1 0.738863 0.159571 0
1066 1 0.763518 0.166659 0
1068 1 0.786457 0.160661 0
1097 1 0.771133 0.190267 0
1071 1 0.83608 0.147831 0
1069 1 0.811932 0.155318 0
1070 1 0.828846 0.174248 0
1099 1 0.802381 0.179511 0
1101 1 0.845677 0.192492 0
1100 1 0.822009 0.197583 0
1072 1 0.853321 0.168725 0
1073 1 0.879088 0.161238 0
1103 1 0.870272 0.185792 0
1074 1 0.896558 0.179976 0
1077 1 0.92852 0.149724 0
1075 1 0.90466 0.156316 0
1076 1 0.921186 0.174452 0
1107 1 0.93757 0.193119 0
1078 1 0.946057 0.168943 0
1105 1 0.913196 0.198042 0
1048 1 0.969818 0.162275 0
151 1 0.994514 0.155722 0
1079 1 0.987272 0.179041 0
1109 1 0.962502 0.186056 0
1083 1 0.54693 0.203943 0
1082 1 0.529086 0.22112 0
1111 1 0.512285 0.239077 0
1113 1 0.536492 0.244099 0
1081 1 0.505362 0.215367 0
1084 1 0.55361 0.227711 0
1085 1 0.571821 0.211128 0
1086 1 0.596657 0.216806 0
1115 1 0.578689 0.234556 0
1117 1 0.602319 0.240172 0
1089 1 0.63778 0.203466 0
1088 1 0.620104 0.22214 0
1119 1 0.64401 0.227753 0
1118 1 0.625066 0.244989 0
1090 1 0.660328 0.209984 0
1092 1 0.686514 0.216689 0
1121 1 0.668173 0.233253 0
1122 1 0.693513 0.240256 0
1094 1 0.729071 0.202358 0
1123 1 0.711012 0.221928 0
1124 1 0.719117 0.245654 0
1125 1 0.735009 0.226044 0
1096 1 0.752707 0.208262 0
1127 1 0.777212 0.215428 0
1126 1 0.761428 0.235011 0
1128 1 0.786519 0.240151 0
1098 1 0.797563 0.203315 0
1131 1 0.839222 0.215565 0
1129 1 0.813991 0.223043 0
1130 1 0.833382 0.239231 0
1159 1 0.810458 0.248414 0
1102 1 0.863882 0.210124 0
1104 1 0.888933 0.203994 0
1132 1 0.8572 0.233744 0
1133 1 0.882063 0.227851 0
1134 1 0.899567 0.246622 0
1135 1 0.905495 0.222516 0
1106 1 0.929947 0.217458 0
1136 1 0.92369 0.241027 0
1137 1 0.947943 0.236374 0
1108 1 0.95421 0.210195 0
1110 1 0.979743 0.204066 0
1139 1 0.97162 0.227804 0
1140 1 0.986843 0.247122 0
181 1 0.996796 0.222905 0
1112 1 0.518139 0.262767 0
1143 1 0.54193 0.268693 0
1142 1 0.524077 0.286791 0
1144 1 0.547401 0.293654 0
1114 1 0.559898 0.251469 0
1116 1 0.585043 0.258354 0
1145 1 0.565845 0.276454 0
1146 1 0.589827 0.283192 0
1175 1 0.571205 0.299892 0
1147 1 0.608387 0.263043 0
1149 1 0.633716 0.269673 0
1148 1 0.614962 0.287525 0
1179 1 0.6393 0.29328 0
1120 1 0.65086 0.252195 0
1151 1 0.674731 0.25711 0
1150 1 0.657012 0.276255 0
1152 1 0.681832 0.28179 0