ITEM: TIMESTEP
170000
ITEM: NUMBER OF ATOMS
1800
ITEM: BOX BOUNDS pp pp pp
3.2600839752449247e+00 1.5513991602475244e+02
3.2600839752449247e+00 1.5513991602475244e+02
0.0000000000000000e+00 5.2800000000000002e+00
ITEM: ATOMS id type xs ys zs
2 1 0.018527 0.0182195 0
3 1 0.043116 0.0137698 0
33 1 0.0349464 0.0372078 0
31 1 0.0109047 0.0426271 0
1 1 0.00180039 0.00080928 0
4 1 0.0604066 0.0303291 0
6 1 0.085555 0.0247521 0
5 1 0.068993 0.00691707 0
35 1 0.0764908 0.049484 0
37 1 0.103201 0.0432742 0
8 1 0.109505 0.0175867 0
9 1 0.127409 0.0360396 0
880 1 0.133804 0.0115699 0
10 1 0.150971 0.0292729 0
11 1 0.158154 0.00494554 0
12 1 0.176155 0.022167 0
43 1 0.193394 0.0412228 0
41 1 0.167908 0.0474599 0
14 1 0.200356 0.0166877 0
44 1 0.218291 0.0341577 0
45 1 0.224982 0.0102012 0
46 1 0.241341 0.0284539 0
16 1 0.250485 0.00599093 0
47 1 0.266005 0.0245732 0
49 1 0.289448 0.0192972 0
48 1 0.282565 0.0427603 0
18 1 0.275024 5.68395e-05 0
77 1 0.257661 0.0491235 0
50 1 0.307752 0.0386271 0
20 1 0.316017 0.0156015 0
51 1 0.332934 0.0333046 0
21 1 0.340913 0.00782338 0
22 1 0.357196 0.0276276 0
24 1 0.383212 0.0214403 0
53 1 0.374774 0.0456542 0
23 1 0.36593 0.00255824 0
55 1 0.398849 0.0408 0
25 1 0.407232 0.0171116 0
26 1 0.423065 0.0354669 0
27 1 0.432443 0.0117084 0
28 1 0.447382 0.034542 0
30 1 0.494713 0.0400961 0
898 1 0.460292 0.013286 0
29 1 0.485178 0.0168529 0
59 1 0.470821 0.0391629 0
32 1 0.0282927 0.0611109 0
62 1 0.0211537 0.085032 0
63 1 0.0468137 0.0787811 0
61 1 0.00382518 0.0674903 0
34 1 0.0522395 0.0542097 0
65 1 0.0696893 0.0728037 0
66 1 0.087921 0.0903663 0
36 1 0.0946398 0.065902 0
64 1 0.0621564 0.0970075 0
39 1 0.144175 0.0543647 0
38 1 0.119205 0.0598783 0
67 1 0.111754 0.0842203 0
69 1 0.136337 0.0771587 0
70 1 0.152567 0.096516 0
40 1 0.160374 0.0718481 0
71 1 0.178931 0.0884187 0
42 1 0.18569 0.0652168 0
72 1 0.203566 0.0828089 0
73 1 0.209849 0.0585608 0
74 1 0.22752 0.0788375 0
75 1 0.233825 0.0538714 0
106 1 0.244454 0.0970572 0
76 1 0.250751 0.0725257 0
78 1 0.27499 0.0678797 0
109 1 0.294154 0.0865395 0
107 1 0.268731 0.0915311 0
79 1 0.300077 0.0629274 0
80 1 0.318133 0.083722 0
81 1 0.325741 0.0583528 0
82 1 0.342959 0.0788293 0
111 1 0.33436 0.102346 0
52 1 0.348885 0.0512457 0
83 1 0.366207 0.0692685 0
113 1 0.377239 0.0902935 0
54 1 0.39208 0.0659963 0
56 1 0.415681 0.0580988 0
57 1 0.441856 0.0589069 0
85 1 0.42107 0.0810309 0
84 1 0.401908 0.0974011 0
87 1 0.445671 0.0853782 0
88 1 0.467983 0.0953053 0
58 1 0.466419 0.0650794 0
89 1 0.48562 0.079476 0
93 1 0.0383854 0.103831 0
92 1 0.0311383 0.127721 0
91 1 0.0125707 0.108934 0
121 1 0.00552771 0.133607 0
123 1 0.0471694 0.145324 0
122 1 0.0224801 0.151494 0
94 1 0.0543737 0.121781 0
95 1 0.0796823 0.114625 0
125 1 0.0712859 0.139194 0
96 1 0.0977926 0.132245 0
68 1 0.12919 0.101525 0
97 1 0.104369 0.108341 0
98 1 0.121585 0.125671 0
99 1 0.14675 0.119661 0
129 1 0.137395 0.143651 0
100 1 0.17056 0.112827 0
130 1 0.162256 0.138429 0
131 1 0.186481 0.13156 0
101 1 0.195838 0.107633 0
103 1 0.22001 0.102496 0
102 1 0.211129 0.12592 0
105 1 0.237136 0.12153 0
104 1 0.228547 0.144656 0
133 1 0.202373 0.148949 0
136 1 0.253329 0.140914 0
135 1 0.259928 0.115478 0
137 1 0.276646 0.133862 0
108 1 0.286386 0.109458 0
139 1 0.300208 0.137891 0
110 1 0.317062 0.120548 0
141 1 0.342387 0.125754 0
140 1 0.323009 0.14547 0
112 1 0.35826 0.107408 0
114 1 0.384866 0.115632 0
143 1 0.366819 0.131016 0
144 1 0.391131 0.138991 0
86 1 0.427529 0.105855 0
115 1 0.409229 0.121815 0
116 1 0.433759 0.129905 0
145 1 0.415338 0.145615 0
117 1 0.450655 0.113192 0
90 1 0.492371 0.103122 0
118 1 0.457442 0.137102 0
119 1 0.474441 0.120356 0
149 1 0.482478 0.143271 0
120 1 0.500344 0.125992 0
153 1 0.0388616 0.169319 0
152 1 0.0149819 0.176008 0
183 1 0.032292 0.192575 0
1080 1 0.00692187 0.200201 0
124 1 0.0641059 0.163218 0
126 1 0.0880808 0.156318 0
155 1 0.0810931 0.181343 0
154 1 0.0567969 0.187366 0
156 1 0.0980319 0.199913 0
127 1 0.111912 0.151046 0
128 1 0.128414 0.16775 0
157 1 0.103875 0.174242 0
160 1 0.145909 0.185835 0
158 1 0.120969 0.19173 0
132 1 0.178802 0.155971 0
159 1 0.153809 0.162104 0
161 1 0.170313 0.179782 0
162 1 0.186575 0.197713 0
163 1 0.195373 0.174958 0
134 1 0.218529 0.166416 0
164 1 0.228801 0.187067 0
165 1 0.243657 0.166168 0
166 1 0.251807 0.192914 0
167 1 0.267236 0.17426 0
138 1 0.283045 0.156566 0
168 1 0.290479 0.180715 0
197 1 0.275142 0.198944 0
169 1 0.306565 0.163026 0
171 1 0.331472 0.168867 0
170 1 0.315564 0.187285 0
201 1 0.33918 0.192606 0
142 1 0.349079 0.151064 0
172 1 0.356728 0.175143 0
173 1 0.374323 0.156019 0
174 1 0.380616 0.180363 0
203 1 0.363826 0.198978 0
175 1 0.397911 0.163803 0
147 1 0.440225 0.15474 0
146 1 0.423223 0.170801 0
205 1 0.404832 0.188912 0
176 1 0.430008 0.194273 0
177 1 0.448003 0.178301 0
148 1 0.464221 0.160718 0
150 1 0.489507 0.166227 0
179 1 0.472614 0.185306 0
180 1 0.497928 0.191628 0
182 1 0.0255334 0.217096 0
213 1 0.0424168 0.23536 0
211 1 0.0180342 0.241144 0
184 1 0.0482423 0.210775 0
185 1 0.0733189 0.20535 0
186 1 0.0900201 0.222381 0
215 1 0.0663161 0.228818 0
216 1 0.0828382 0.248643 0
187 1 0.115459 0.219527 0
188 1 0.130388 0.244883 0
189 1 0.13816 0.209297 0
217 1 0.105507 0.241206 0
191 1 0.164393 0.207198 0
190 1 0.150329 0.230279 0
192 1 0.19246 0.221005 0
221 1 0.173548 0.237302 0
223 1 0.198614 0.245478 0
193 1 0.210775 0.203594 0
194 1 0.216431 0.227845 0
195 1 0.234071 0.210311 0
225 1 0.240918 0.233874 0
196 1 0.258258 0.216921 0
198 1 0.28197 0.221957 0
227 1 0.265422 0.24049 0
228 1 0.289252 0.246612 0
199 1 0.299666 0.205153 0
200 1 0.323461 0.210581 0
229 1 0.306824 0.228584 0
231 1 0.330554 0.235791 0
202 1 0.347258 0.218087 0
204 1 0.387761 0.205476 0
233 1 0.3722 0.223615 0
235 1 0.395611 0.229709 0
232 1 0.354838 0.241901 0
234 1 0.37883 0.247155 0
207 1 0.437362 0.220131 0
206 1 0.420557 0.236183 0
237 1 0.444378 0.243789 0
178 1 0.454469 0.202742 0
208 1 0.461443 0.227522 0
209 1 0.479692 0.210049 0
210 1 0.486853 0.23326 0
239 1 0.469678 0.251986 0
241 1 0.0027705 0.289139 0
212 1 0.00961559 0.264262 0
243 1 0.0346365 0.258875 0
242 1 0.0263036 0.282153 0
244 1 0.0503424 0.280046 0
214 1 0.0580044 0.253268 0
245 1 0.0732038 0.272537 0
247 1 0.0791624 0.296584 0
218 1 0.097268 0.281788 0
219 1 0.114134 0.264587 0
249 1 0.138098 0.27091 0
248 1 0.119971 0.288579 0
250 1 0.1444 0.295864 0
220 1 0.155868 0.254441 0
222 1 0.180786 0.262212 0
251 1 0.162542 0.278195 0
252 1 0.186141 0.286248 0
224 1 0.2233 0.252336 0
253 1 0.205263 0.268555 0
255 1 0.229922 0.276102 0
254 1 0.211933 0.293041 0
226 1 0.247079 0.257542 0
285 1 0.23609 0.299009 0
256 1 0.256193 0.282044 0
257 1 0.272762 0.264078 0
259 1 0.296424 0.27091 0
258 1 0.278999 0.289186 0
289 1 0.302937 0.294606 0
230 1 0.312878 0.253359 0
260 1 0.320314 0.27753 0
261 1 0.337134 0.259522 0
262 1 0.34347 0.282796 0
263 1 0.361579 0.266326 0
264 1 0.385205 0.271923 0
293 1 0.368537 0.290276 0
295 1 0.392599 0.296248 0
265 1 0.402708 0.253393 0
236 1 0.427473 0.261945 0
266 1 0.408951 0.277919 0
267 1 0.434908 0.285151 0
238 1 0.452629 0.269328 0
240 1 0.493793 0.25565 0
269 1 0.476273 0.275226 0
268 1 0.459131 0.293248 0
270 1 0.4832 0.298874 0
273 1 0.0391338 0.302826 0
271 1 0.0154537 0.311188 0
272 1 0.0396782 0.326235 0
301 1 0.0174769 0.337324 0
275 1 0.0615375 0.311324 0
276 1 0.0839271 0.321643 0
274 1 0.0636717 0.335762 0
305 1 0.088333 0.345618 0
246 1 0.102828 0.306129 0
279 1 0.125508 0.313159 0
277 1 0.107617 0.330302 0
278 1 0.131308 0.33791 0
280 1 0.14993 0.321012 0
281 1 0.167888 0.303526 0
311 1 0.155276 0.344679 0
283 1 0.192864 0.309782 0
282 1 0.175199 0.329217 0
313 1 0.199311 0.334016 0
284 1 0.218008 0.318054 0
315 1 0.224501 0.341105 0
286 1 0.241619 0.32301 0
316 1 0.247703 0.347806 0
287 1 0.260139 0.306845 0
288 1 0.282867 0.313247 0
317 1 0.266485 0.330855 0
319 1 0.290356 0.337964 0
291 1 0.326103 0.301279 0
290 1 0.306375 0.319184 0
321 1 0.31365 0.344605 0
292 1 0.331635 0.326232 0
323 1 0.35006 0.307726 0
294 1 0.375096 0.313642 0
324 1 0.356913 0.332146 0
325 1 0.381345 0.338044 0
296 1 0.398379 0.320235 0
326 1 0.405997 0.344841 0
297 1 0.417277 0.303171 0
298 1 0.441442 0.309433 0
327 1 0.423302 0.326408 0
328 1 0.448876 0.333819 0
299 1 0.4658 0.317536 0
300 1 0.489471 0.322304 0
329 1 0.472981 0.340486 0
1201 1 0.498282 0.345697 0
303 1 0.0427463 0.349443 0
331 1 0.00402358 0.376664 0
302 1 0.0229045 0.362586 0
332 1 0.0280668 0.387713 0
333 1 0.0482153 0.373952 0
334 1 0.0520702 0.397575 0
304 1 0.0688202 0.360521 0
306 1 0.0946541 0.369725 0
335 1 0.0739425 0.384704 0
337 1 0.0992925 0.394072 0
307 1 0.113424 0.354255 0
309 1 0.136555 0.362177 0
308 1 0.118908 0.378411 0
339 1 0.145565 0.385539 0
312 1 0.181125 0.352033 0
310 1 0.162381 0.368337 0
341 1 0.168288 0.394406 0
343 1 0.187615 0.377046 0
314 1 0.205049 0.359448 0
345 1 0.228851 0.36544 0
344 1 0.211706 0.383671 0
375 1 0.235411 0.38965 0
346 1 0.252421 0.372989 0
377 1 0.259497 0.396664 0
318 1 0.272089 0.35419 0
349 1 0.295355 0.36314 0
347 1 0.278113 0.378784 0
322 1 0.338175 0.35008 0
350 1 0.30419 0.386043 0
320 1 0.320594 0.368461 0
351 1 0.3476 0.373379 0
381 1 0.328255 0.392715 0
352 1 0.351716 0.39898 0
353 1 0.363977 0.356033 0
355 1 0.388203 0.362642 0
354 1 0.370917 0.381053 0
385 1 0.39489 0.387222 0
357 1 0.43015 0.349943 0
356 1 0.413299 0.369787 0
387 1 0.437711 0.373137 0
386 1 0.418715 0.393037 0
388 1 0.441801 0.399138 0
359 1 0.454589 0.357463 0
358 1 0.461574 0.382177 0
330 1 0.479294 0.362985 0
360 1 0.485757 0.388772 0
361 1 0.00745137 0.401528 0
363 1 0.0330526 0.413625 0
362 1 0.0138582 0.427054 0
364 1 0.0392937 0.43827 0
336 1 0.0795571 0.410362 0
365 1 0.0581529 0.421111 0
395 1 0.06402 0.444708 0
338 1 0.124568 0.401638 0
367 1 0.105666 0.417457 0
366 1 0.109939 0.441753 0
369 1 0.130031 0.425281 0
340 1 0.148976 0.409567 0
342 1 0.192645 0.401237 0
370 1 0.155537 0.43474 0
371 1 0.174802 0.418442 0
401 1 0.179249 0.443407 0
372 1 0.198978 0.425017 0
373 1 0.217735 0.407513 0
374 1 0.22354 0.432068 0
376 1 0.241569 0.413865 0
405 1 0.248976 0.439054 0
403 1 0.204221 0.448824 0
348 1 0.285101 0.402651 0
407 1 0.274305 0.443168 0
378 1 0.266339 0.419241 0
409 1 0.292595 0.426719 0
379 1 0.310969 0.409716 0
380 1 0.316194 0.433954 0
382 1 0.334777 0.416336 0
411 1 0.340302 0.439551 0
413 1 0.358809 0.423012 0
383 1 0.377846 0.405021 0
414 1 0.383817 0.428457 0
412 1 0.365521 0.44664 0
384 1 0.401724 0.410235 0
415 1 0.407151 0.43543 0
417 1 0.424941 0.41806 0
416 1 0.430831 0.441959 0
419 1 0.448879 0.423794 0
389 1 0.466836 0.404946 0
418 1 0.473228 0.430149 0
390 1 0.491782 0.412717 0
420 1 0.497799 0.436804 0
447 1 0.455309 0.448419 0
478 1 0.46782 0.49682 0
393 1 0.018954 0.452017 0
422 1 0.00388295 0.491874 0
423 1 0.024384 0.475965 0
394 1 0.0435024 0.462437 0
425 1 0.0488624 0.484735 0
397 1 0.0891298 0.45567 0
396 1 0.0684202 0.468845 0
426 1 0.0723272 0.493549 0
427 1 0.0932058 0.480111 0
368 1 0.134013 0.448755 0
398 1 0.113441 0.46548 0
428 1 0.116974 0.488847 0
429 1 0.137971 0.476159 0
399 1 0.158074 0.459702 0
400 1 0.181241 0.469483 0
430 1 0.161796 0.485033 0
431 1 0.183632 0.496418 0
404 1 0.231171 0.456512 0
402 1 0.212101 0.472962 0
432 1 0.223145 0.494366 0
433 1 0.241003 0.478409 0
435 1 0.257256 0.461393 0
436 1 0.26376 0.485349 0
406 1 0.281592 0.467626 0
437 1 0.288676 0.492851 0
408 1 0.299143 0.451678 0
439 1 0.305888 0.475189 0
410 1 0.32314 0.457701 0
440 1 0.329966 0.480931 0
441 1 0.348349 0.464461 0
438 1 0.312563 0.499838 0
471 1 0.353884 0.488852 0
472 1 0.37828 0.494476 0
442 1 0.372829 0.470457 0
473 1 0.396524 0.47684 0
443 1 0.389725 0.452447 0
444 1 0.420549 0.483437 0
477 1 0.444611 0.489931 0
446 1 0.437522 0.465327 0
445 1 0.41377 0.458463 0
448 1 0.461144 0.472249 0
450 1 0.485788 0.47782 0
449 1 0.479294 0.452956 0
181 1 -0.00157759 0.22407 0
453 1 0.00809025 0.515168 0
452 1 0.0129071 0.540233 0
454 1 0.0324275 0.524789 0
424 1 0.0279368 0.499197 0
485 1 0.0545469 0.535605 0
455 1 0.0514224 0.509487 0
456 1 0.0743966 0.518554 0
486 1 0.0789276 0.545239 0
457 1 0.0950178 0.504564 0
487 1 0.0984381 0.529318 0
458 1 0.118214 0.514682 0
488 1 0.121828 0.53995 0
489 1 0.143317 0.525698 0
459 1 0.140383 0.499933 0
490 1 0.145898 0.552396 0
462 1 0.185464 0.523004 0
491 1 0.165397 0.536261 0
460 1 0.163445 0.510768 0
492 1 0.190378 0.547921 0
461 1 0.205427 0.510316 0
493 1 0.209298 0.53421 0
463 1 0.228728 0.518077 0
495 1 0.233251 0.542899 0
434 1 0.247312 0.50259 0
464 1 0.25172 0.528122 0
466 1 0.274664 0.535989 0
465 1 0.27005 0.510771 0
467 1 0.292952 0.518632 0
497 1 0.298767 0.542665 0
468 1 0.316059 0.524462 0
469 1 0.335418 0.505658 0
499 1 0.340412 0.530369 0
498 1 0.322729 0.549037 0
470 1 0.359315 0.514026 0
503 1 0.382298 0.519569 0
505 1 0.387885 0.543301 0
501 1 0.363928 0.53782 0
474 1 0.401979 0.502218 0
476 1 0.405492 0.526993 0
509 1 0.429537 0.532295 0
475 1 0.425743 0.506925 0
507 1 0.449376 0.514389 0
506 1 0.412822 0.550492 0
479 1 0.473341 0.522357 0
480 1 0.454408 0.538247 0
1381 1 0.497359 0.527324 0
510 1 0.478279 0.546958 0
1351 1 0.491305 0.502814 0
483 1 0.0350884 0.549722 0
513 1 0.015938 0.565669 0
514 1 0.0394279 0.575605 0
512 1 0.0189451 0.589984 0
543 1 0.0425628 0.599698 0
484 1 0.0580712 0.560326 0
515 1 0.0820845 0.568928 0
545 1 0.0627629 0.584031 0
516 1 0.0847705 0.593204 0
517 1 0.102025 0.554811 0
518 1 0.105178 0.579199 0
519 1 0.125233 0.564588 0
549 1 0.127679 0.589693 0
520 1 0.149166 0.576995 0
521 1 0.169758 0.562172 0
522 1 0.173411 0.587925 0
523 1 0.191949 0.572382 0
553 1 0.195825 0.597535 0
494 1 0.213738 0.558308 0
524 1 0.217134 0.583369 0
525 1 0.236806 0.568222 0
555 1 0.240564 0.593188 0
496 1 0.256215 0.551889 0
526 1 0.260812 0.576312 0
527 1 0.27969 0.560649 0
528 1 0.283369 0.584308 0
529 1 0.303061 0.567131 0
500 1 0.347131 0.55595 0
530 1 0.327065 0.572979 0
559 1 0.307218 0.591621 0
561 1 0.331772 0.597292 0
531 1 0.351946 0.581262 0
502 1 0.370374 0.562511 0
504 1 0.395244 0.568226 0
533 1 0.375572 0.587506 0
534 1 0.39978 0.592159 0
535 1 0.417777 0.57549 0
508 1 0.436648 0.557361 0
537 1 0.443288 0.581168 0
536 1 0.424754 0.598941 0
539 1 0.460621 0.563715 0
540 1 0.484245 0.570785 0
538 1 0.466634 0.588719 0
569 1 0.490567 0.594783 0
542 1 0.0220378 0.614404 0
573 1 0.0253495 0.639829 0
544 1 0.045416 0.623846 0
571 1 0.00193481 0.629401 0
574 1 0.0483174 0.647995 0
868 1 0.469637 0.971707 0
546 1 0.0655871 0.608827 0
547 1 0.0891841 0.618574 0
575 1 0.068656 0.63364 0
576 1 0.0911775 0.643714 0
548 1 0.108766 0.605169 0
550 1 0.132597 0.615625 0
577 1 0.112047 0.630006 0
579 1 0.134985 0.639958 0
551 1 0.15333 0.602328 0
581 1 0.156884 0.626916 0
552 1 0.175899 0.612555 0
582 1 0.179911 0.636825 0
583 1 0.199976 0.621698 0
554 1 0.220045 0.608524 0
556 1 0.243795 0.617804 0
585 1 0.223348 0.632677 0
584 1 0.201816 0.647206 0
586 1 0.247153 0.641529 0
557 1 0.264717 0.601746 0
587 1 0.268658 0.626827 0
558 1 0.289027 0.608971 0
589 1 0.294758 0.634984 0
560 1 0.312767 0.615858 0
591 1 0.320493 0.63982 0
562 1 0.339234 0.621698 0
593 1 0.34563 0.645214 0
532 1 0.356629 0.605266 0
563 1 0.381466 0.610648 0
564 1 0.363766 0.629093 0
595 1 0.388965 0.634714 0
565 1 0.406469 0.61538 0
566 1 0.430436 0.623295 0
596 1 0.413229 0.641175 0
598 1 0.437827 0.647328 0
567 1 0.448149 0.605397 0
597 1 0.455145 0.629863 0
568 1 0.4734 0.612332 0
570 1 0.480057 0.636702 0
1442 1 0.497096 0.618358 0
572 1 0.00526951 0.654046 0
603 1 0.0279233 0.663793 0
602 1 0.00791824 0.678942 0
633 1 0.0319251 0.688056 0
604 1 0.0519148 0.672356 0
605 1 0.0712077 0.657173 0
606 1 0.0745626 0.683641 0
607 1 0.0938279 0.668913 0
637 1 0.0968199 0.694541 0
635 1 0.0544387 0.698174 0
578 1 0.11529 0.654189 0
609 1 0.136845 0.665753 0
608 1 0.116254 0.679615 0
639 1 0.139074 0.690731 0
580 1 0.158247 0.651517 0
611 1 0.180914 0.661654 0
610 1 0.159765 0.675729 0
612 1 0.183012 0.686656 0
613 1 0.203206 0.673909 0
615 1 0.225921 0.656631 0
614 1 0.225839 0.682913 0
643 1 0.204282 0.698254 0
617 1 0.247886 0.666815 0
616 1 0.247857 0.691988 0
588 1 0.271269 0.654138 0
619 1 0.291478 0.691024 0
618 1 0.268767 0.679467 0
590 1 0.299875 0.660897 0
621 1 0.314374 0.682677 0
592 1 0.328912 0.663951 0
622 1 0.337657 0.689051 0
623 1 0.353083 0.670495 0
594 1 0.369576 0.652787 0
624 1 0.378393 0.675347 0
653 1 0.361541 0.694103 0
625 1 0.39629 0.658386 0
627 1 0.419704 0.664835 0
626 1 0.403003 0.682059 0
657 1 0.425984 0.688941 0
628 1 0.443714 0.671055 0
599 1 0.461505 0.653634 0
600 1 0.486 0.660036 0
629 1 0.468252 0.678589 0
630 1 0.491311 0.683854 0
658 1 0.451603 0.695432 0
632 1 0.0109079 0.703481 0
634 1 0.0338503 0.712469 0
663 1 0.0126314 0.727547 0
664 1 0.0372227 0.738664 0
636 1 0.0778802 0.708949 0
665 1 0.0575529 0.723003 0
666 1 0.0801419 0.734234 0
695 1 0.0603021 0.748493 0
667 1 0.0995139 0.719406 0
668 1 0.102675 0.745181 0
638 1 0.11964 0.705497 0
640 1 0.142468 0.716111 0
669 1 0.1227 0.730061 0
670 1 0.144699 0.741386 0
641 1 0.162544 0.701247 0
642 1 0.185101 0.711879 0
671 1 0.164449 0.726334 0
673 1 0.186062 0.737477 0
645 1 0.226784 0.708132 0
644 1 0.206361 0.723382 0
675 1 0.228557 0.73474 0
646 1 0.249403 0.719112 0
674 1 0.207463 0.748206 0
677 1 0.250836 0.744123 0
647 1 0.269932 0.703844 0
648 1 0.271011 0.729219 0
679 1 0.292517 0.739963 0
649 1 0.293873 0.715374 0
620 1 0.317472 0.707471 0
651 1 0.343605 0.712217 0
650 1 0.328217 0.7306 0
652 1 0.351291 0.737627 0
655 1 0.384976 0.700168 0
654 1 0.369911 0.718801 0
685 1 0.393381 0.725764 0
683 1 0.376292 0.743496 0
656 1 0.409321 0.706803 0
687 1 0.434118 0.713889 0
686 1 0.4172 0.731457 0
717 1 0.44098 0.739212 0
1531 1 0.500006 0.709077 0
659 1 0.475854 0.702193 0
689 1 0.459165 0.720565 0
660 1 0.483043 0.727083 0
688 1 0.464841 0.74425 0
662 1 0.0161788 0.752038 0
694 1 0.0404651 0.763677 0
693 1 0.0191178 0.77753 0
725 1 0.0419139 0.787845 0
697 1 0.0828033 0.758989 0
696 1 0.0625263 0.773637 0
727 1 0.0851771 0.784617 0
726 1 0.0649639 0.79864 0
699 1 0.125314 0.755219 0
698 1 0.10572 0.770332 0
700 1 0.127822 0.78189 0
728 1 0.107367 0.795845 0
701 1 0.14673 0.766789 0
731 1 0.150325 0.794568 0
672 1 0.166547 0.752126 0
703 1 0.188996 0.76383 0
702 1 0.169563 0.779189 0
704 1 0.191815 0.789734 0
676 1 0.230421 0.759469 0
705 1 0.21102 0.774969 0
706 1 0.233869 0.784268 0
707 1 0.252672 0.769123 0
678 1 0.27226 0.755355 0
709 1 0.275393 0.778956 0
680 1 0.295258 0.765016 0
737 1 0.255466 0.79452 0
710 1 0.299129 0.790056 0
681 1 0.313628 0.750527 0
682 1 0.336346 0.757575 0
711 1 0.318141 0.773971 0
712 1 0.341593 0.782485 0
741 1 0.323342 0.799337 0
684 1 0.401282 0.750378 0
713 1 0.36025 0.764317 0
714 1 0.384175 0.767531 0
743 1 0.365311 0.788385 0
745 1 0.388808 0.792405 0
715 1 0.424637 0.756657 0
716 1 0.407084 0.77552 0
747 1 0.430592 0.78248 0
718 1 0.449117 0.763643 0
746 1 0.414009 0.800914 0
690 1 0.489701 0.751291 0
719 1 0.472584 0.769064 0
720 1 0.480733 0.793192 0
749 1 0.45595 0.788503 0
1591 1 0.497492 0.774589 0
1680 1 0.00273231 0.842927 0
723 1 0.0206238 0.801895 0
722 1 0.0233716 0.828716 0
724 1 0.0433448 0.812487 0
754 1 0.0457534 0.835996 0
757 1 0.0857795 0.810414 0
755 1 0.0672118 0.825126 0
756 1 0.0891695 0.836269 0
785 1 0.0672368 0.849033 0
729 1 0.129433 0.806974 0
759 1 0.10857 0.821832 0
760 1 0.131592 0.831873 0
758 1 0.110725 0.848647 0
730 1 0.152613 0.818893 0
761 1 0.158915 0.847945 0
732 1 0.172267 0.804223 0
763 1 0.174616 0.829764 0
733 1 0.194596 0.815499 0
764 1 0.196385 0.841645 0
735 1 0.214233 0.800939 0
736 1 0.236327 0.810326 0
734 1 0.216709 0.826258 0
767 1 0.238875 0.836504 0
708 1 0.278517 0.804197 0
738 1 0.258356 0.820425 0
769 1 0.282405 0.828349 0
768 1 0.263415 0.845213 0
739 1 0.303123 0.813411 0
740 1 0.307557 0.837459 0
771 1 0.329649 0.824283 0
742 1 0.347777 0.806675 0
773 1 0.355543 0.830604 0
744 1 0.372395 0.812224 0
774 1 0.378486 0.837666 0
775 1 0.395953 0.817558 0
748 1 0.438485 0.806597 0
777 1 0.420393 0.824354 0
776 1 0.403605 0.841564 0
779 1 0.446511 0.830247 0
778 1 0.427929 0.847976 0
750 1 0.463675 0.81198 0
1621 1 0.487586 0.817127 0
780 1 0.470392 0.835935 0
1651 1 0.495564 0.841732 0
753 1 0.0435934 0.858908 0
752 1 0.0200127 0.862549 0
783 1 0.0389861 0.881782 0
782 1 0.0144331 0.886599 0
784 1 0.0634698 0.873969 0
786 1 0.0800026 0.892308 0
787 1 0.0875778 0.863574 0
815 1 0.0554052 0.898896 0
817 1 0.103909 0.883911 0
789 1 0.135615 0.855849 0
788 1 0.127605 0.878378 0
790 1 0.145818 0.896577 0
791 1 0.153863 0.871929 0
762 1 0.178235 0.86376 0
793 1 0.171133 0.888654 0
795 1 0.194848 0.884046 0
765 1 0.221126 0.853437 0
796 1 0.220359 0.877599 0
825 1 0.238383 0.897798 0
766 1 0.246465 0.871678 0
797 1 0.271834 0.868169 0
827 1 0.262438 0.891132 0
798 1 0.288024 0.886156 0
799 1 0.295268 0.860194 0
772 1 0.342037 0.850093 0
770 1 0.320066 0.857961 0
800 1 0.312301 0.880519 0
801 1 0.33766 0.874777 0
831 1 0.32988 0.898654 0
802 1 0.354887 0.893702 0
803 1 0.361975 0.869745 0
804 1 0.378895 0.888784 0
805 1 0.38713 0.861732 0
807 1 0.410946 0.866529 0
808 1 0.435983 0.872649 0
837 1 0.442735 0.897523 0
809 1 0.452578 0.853811 0
1681 1 0.477331 0.859921 0
1711 1 0.485306 0.8842 0
810 1 0.459333 0.878507 0
813 1 0.0313516 0.905165 0
843 1 0.0234111 0.929087 0
844 1 0.0413572 0.947934 0
812 1 0.0059097 0.911037 0
814 1 0.0485094 0.923306 0
816 1 0.0969765 0.909915 0
845 1 0.0722633 0.916681 0
846 1 0.0666481 0.940664 0
847 1 0.0905319 0.93338 0
819 1 0.122242 0.902503 0
818 1 0.115573 0.92653 0
820 1 0.132168 0.944697 0
821 1 0.139921 0.921008 0
792 1 0.163123 0.914064 0
851 1 0.156669 0.938929 0
823 1 0.187713 0.906978 0
822 1 0.181287 0.931924 0
854 1 0.199235 0.950723 0
794 1 0.213289 0.902854 0
824 1 0.205752 0.927529 0
885 1 0.223646 0.945205 0
855 1 0.22992 0.921093 0
856 1 0.247953 0.939608 0
826 1 0.256716 0.916526 0
857 1 0.272507 0.935065 0
828 1 0.280028 0.910542 0
859 1 0.297592 0.92861 0
829 1 0.305488 0.904012 0
830 1 0.322089 0.922716 0
861 1 0.339611 0.940946 0
860 1 0.314981 0.946601 0
832 1 0.345821 0.918032 0
863 1 0.363245 0.935748 0
833 1 0.371697 0.912667 0
834 1 0.388698 0.930426 0
806 1 0.396501 0.90692 0
835 1 0.414852 0.924902 0
836 1 0.430398 0.944163 0
838 1 0.446006 0.925066 0
869 1 0.457591 0.946214 0
839 1 0.466642 0.904735 0
840 1 0.475347 0.928481 0
1712 1 0.492076 0.909613 0
842 1 0.0169461 0.95348 0
872 1 0.0265043 0.994962 0
873 1 0.0352372 0.971681 0
871 1 0.0100053 0.977211 0
874 1 0.0507123 0.99008 0
875 1 0.0589055 0.965525 0
876 1 0.0749237 0.983006 0
848 1 0.0834768 0.958285 0
877 1 0.0989672 0.976416 0
7 1 0.0931757 1.00017 0
849 1 0.107244 0.951581 0
878 1 0.117808 0.993889 0
879 1 0.124187 0.968908 0
881 1 0.140839 0.986652 0
850 1 0.149032 0.962123 0
853 1 0.17532 0.956376 0
852 1 0.164829 0.980385 0
883 1 0.190271 0.974875 0
882 1 0.182244 0.997718 0
13 1 0.20822 0.992543 0
15 1 0.234056 0.986892 0
884 1 0.216366 0.969505 0
886 1 0.239949 0.963493 0
858 1 0.290969 0.954143 0
887 1 0.265889 0.958001 0
17 1 0.257903 0.980872 0
888 1 0.282182 0.976265 0
19 1 0.299855 0.995754 0
889 1 0.307397 0.971443 0
890 1 0.32448 0.989091 0
891 1 0.331432 0.964996 0
892 1 0.348087 0.983332 0
862 1 0.355886 0.959838 0
864 1 0.38132 0.954618 0
893 1 0.373589 0.979714 0
895 1 0.397818 0.97415 0
894 1 0.390744 0.997418 0
865 1 0.405531 0.949007 0
867 1 0.4458 0.967849 0
866 1 0.422113 0.967941 0
896 1 0.416051 0.992191 0
1771 1 0.493739 0.975384 0
870 1 0.484306 0.951654 0
897 1 0.450685 0.992199 0
899 1 0.477306 0.993959 0
751 1 0.000864249 0.816961 0
1741 1 0.499988 0.932617 0
841 1 -0.00104115 0.935265 0
902 1 0.535604 0.0258059 0
901 1 0.510368 0.0216048 0
931 1 0.518856 0.0452554 0
903 1 0.529271 0.0026615 0
933 1 0.544026 0.0492786 0
904 1 0.560539 0.0314698 0
906 1 0.57724 0.0134934 0
935 1 0.584281 0.0367689 0
905 1 0.552782 0.00726691 0
908 1 0.601517 0.0186179 0
937 1 0.608538 0.0422534 0
939 1 0.626534 0.0244134 0
910 1 0.641746 0.00507505 0
938 1 0.6322 0.0480317 0
909 1 0.617498 9.95626e-05 0
941 1 0.650325 0.0288697 0
912 1 0.666263 0.0110857 0
942 1 0.674071 0.0348947 0
943 1 0.690448 0.0173835 0
973 1 0.69721 0.0421882 0
944 1 0.714926 0.0256463 0
945 1 0.73036 0.00480797 0
946 1 0.740474 0.0295556 0
975 1 0.722933 0.0491934 0
947 1 0.757684 0.0121828 0
948 1 0.765724 0.0349102 0
918 1 0.782607 0.0149819 0
979 1 0.790579 0.0387284 0
949 1 0.81066 0.0226242 0
951 1 0.838488 0.0170337 0
950 1 0.828647 0.0386167 0
952 1 0.855179 0.035207 0
953 1 0.861671 0.0108522 0
924 1 0.885121 0.00617874 0
954 1 0.878982 0.030186 0
985 1 0.895199 0.0480981 0
955 1 0.903357 0.0238056 0
926 1 0.926887 0.0161954 0
957 1 0.945325 0.035355 0
956 1 0.920491 0.0409133 0
928 1 0.951329 0.0115227 0
959 1 0.970142 0.0286194 0
930 1 0.995066 0.0242791 0
929 1 0.977854 0.00578849 0
960 1 0.98629 0.0478076 0
932 1 0.526915 0.0672831 0
962 1 0.534989 0.0912484 0
961 1 0.509549 0.0850829 0
60 1 0.502001 0.0624502 0
963 1 0.551466 0.074186 0
934 1 0.568222 0.0554944 0
965 1 0.575733 0.0793843 0
936 1 0.59181 0.0609781 0
964 1 0.559272 0.0985072 0
966 1 0.599546 0.0849106 0
967 1 0.615578 0.0665563 0
968 1 0.624903 0.0906643 0
969 1 0.641583 0.0734573 0
999 1 0.649828 0.0982574 0
940 1 0.658526 0.0544988 0
970 1 0.666414 0.079642 0
971 1 0.682821 0.0615078 0
972 1 0.68929 0.0854411 0
1003 1 0.705894 0.0671431 0
1004 1 0.714912 0.0900515 0
974 1 0.732944 0.0725369 0
1005 1 0.73957 0.0969348 0
976 1 0.748534 0.054014 0
1007 1 0.757692 0.0772472 0
977 1 0.773415 0.0586304 0
978 1 0.797867 0.0622212 0
1008 1 0.782703 0.0815208 0
980 1 0.820912 0.0642518 0
981 1 0.845427 0.0578551 0
1009 1 0.808834 0.0863663 0
1011 1 0.837251 0.0816129 0
982 1 0.862231 0.0771099 0
983 1 0.870747 0.0547593 0
984 1 0.888445 0.0715354 0
1013 1 0.879721 0.0944316 0
1015 1 0.905654 0.0895754 0
986 1 0.912988 0.0639279 0
987 1 0.936843 0.0595828 0
1017 1 0.929965 0.0836257 0
988 1 0.953244 0.0777144 0
958 1 0.962179 0.0544849 0
989 1 0.978946 0.0725944 0
990 1 0.994872 0.0918167 0
1019 1 0.970421 0.0965619 0
991 1 0.517433 0.108714 0
992 1 0.524081 0.132579 0
993 1 0.541768 0.115336 0
1023 1 0.548745 0.138052 0
995 1 0.583543 0.102658 0
994 1 0.566012 0.12096 0
996 1 0.590741 0.126063 0
1025 1 0.572945 0.144069 0
997 1 0.606961 0.107759 0
998 1 0.631161 0.114632 0
1027 1 0.614983 0.132504 0
1029 1 0.640539 0.139539 0
1001 1 0.673465 0.104263 0
1000 1 0.657125 0.121364 0
1031 1 0.682749 0.127202 0
1030 1 0.665416 0.144751 0
1002 1 0.698125 0.108619 0
1033 1 0.706949 0.132412 0
1035 1 0.72265 0.11349 0
1034 1 0.731987 0.137905 0
1036 1 0.749767 0.120241 0
1006 1 0.767323 0.100862 0
1037 1 0.773872 0.124124 0
1038 1 0.797437 0.130311 0
1067 1 0.757196 0.144265 0
1039 1 0.791757 0.106291 0
1068 1 0.781084 0.150178 0
1010 1 0.828844 0.105021 0
1040 1 0.821208 0.130009 0
1041 1 0.846122 0.124683 0
1071 1 0.837519 0.148138 0
1012 1 0.853896 0.100081 0
1043 1 0.870651 0.118501 0
1014 1 0.89528 0.113812 0
1044 1 0.887684 0.137685 0
1042 1 0.863696 0.143669 0
1018 1 0.945944 0.101931 0
1045 1 0.912322 0.131951 0
1016 1 0.921161 0.108458 0
1047 1 0.937933 0.126838 0
1049 1 0.96105 0.121305 0
1020 1 0.987931 0.115248 0
1050 1 0.980006 0.138745 0
1046 1 0.954851 0.145834 0
1021 1 0.507448 0.150644 0
1022 1 0.532766 0.155676 0
1053 1 0.53854 0.180471 0
1051 1 0.514904 0.173714 0
1052 1 0.521463 0.198604 0
1026 1 0.597779 0.149701 0
1024 1 0.556244 0.162208 0
1055 1 0.581246 0.168097 0
1054 1 0.562763 0.186133 0
1056 1 0.587455 0.19246 0
1028 1 0.621917 0.156818 0
1057 1 0.604323 0.173814 0
1058 1 0.630059 0.180368 0
1059 1 0.648558 0.162929 0
1087 1 0.612469 0.19679 0
1032 1 0.690847 0.150125 0
1060 1 0.654829 0.18665 0
1061 1 0.672839 0.167418 0
1091 1 0.680032 0.192368 0
1062 1 0.698041 0.17515 0
1063 1 0.714116 0.156764 0
1064 1 0.722804 0.180011 0
1095 1 0.748045 0.186317 0
1065 1 0.739152 0.161872 0
1093 1 0.70618 0.19881 0
1066 1 0.764469 0.167616 0
1097 1 0.772808 0.192361 0
1099 1 0.791064 0.174289 0
1069 1 0.81166 0.153724 0
1070 1 0.827821 0.17306 0
1101 1 0.847023 0.189629 0
1100 1 0.823443 0.198896 0
1072 1 0.855416 0.166729 0
1073 1 0.880246 0.161245 0
1103 1 0.872925 0.18441 0
1074 1 0.896731 0.179991 0
1077 1 0.929621 0.1513 0
1075 1 0.90547 0.157065 0
1076 1 0.922636 0.17484 0
1107 1 0.93983 0.192447 0
1078 1 0.947235 0.16859 0
1105 1 0.915073 0.199159 0
1048 1 0.973064 0.163084 0
151 1 0.997549 0.156858 0
1079 1 0.990615 0.181723 0
1109 1 0.965171 0.187899 0
1083 1 0.545947 0.203664 0
1082 1 0.5292 0.22205 0
1111 1 0.51144 0.239125 0
1113 1 0.535757 0.246136 0
1081 1 0.503232 0.215662 0
1084 1 0.552745 0.228657 0
1085 1 0.570158 0.209642 0
1086 1 0.594398 0.216445 0
1115 1 0.576843 0.23359 0
1117 1 0.602277 0.238541 0
1089 1 0.637608 0.20349 0
1088 1 0.618306 0.221095 0
1119 1 0.64438 0.22766 0
1118 1 0.626953 0.244705 0
1090 1 0.662276 0.210125 0
1092 1 0.68723 0.216585 0
1121 1 0.669226 0.234144 0
1122 1 0.692711 0.240332 0
1094 1 0.730912 0.204023 0
1123 1 0.712771 0.222079 0
1124 1 0.718854 0.246643 0
1125 1 0.736608 0.22853 0
1098 1 0.79774 0.197936 0
1096 1 0.755401 0.210751 0
1127 1 0.780888 0.216906 0
1126 1 0.760528 0.234331 0
1128 1 0.78509 0.241306 0
1131 1 0.842647 0.213699 0
1129 1 0.80706 0.221078 0
1130 1 0.829879 0.234445 0
1159 1 0.809389 0.247785 0
1102 1 0.8664 0.207975 0
1104 1 0.890598 0.204057 0
1132 1 0.856874 0.23251 0
1133 1 0.882627 0.226691 0
1134 1 0.897018 0.247469 0
1135 1 0.907201 0.223333 0
1106 1 0.932269 0.217274 0
1136 1 0.922772 0.242522 0
1137 1 0.948659 0.234805 0
1108 1 0.957406 0.211436 0
1110 1 0.982124 0.205547 0
1139 1 0.974167 0.230032 0
1140 1 0.99156 0.247368 0
421 1 0.979121 0.482665 0
1141 1 0.499633 0.281195 0
1112 1 0.517556 0.263505 0
1143 1 0.542556 0.268909 0
1142 1 0.524582 0.286942 0
1144 1 0.550659 0.293227 0
1114 1 0.56003 0.251778 0
1116 1 0.585374 0.257664 0
1145 1 0.56734 0.275111 0
1146 1 0.59315 0.281657 0
1175 1 0.574696 0.298311 0
1147 1 0.609051 0.262442 0
1149 1 0.635068 0.268274 0
1148 1 0.617026 0.286492 0
1179 1 0.641555 0.293175 0
1120 1 0.651353 0.250722 0
1151 1 0.676076 0.257404 0