ITEM: TIMESTEP
194000
ITEM: NUMBER OF ATOMS
1800
ITEM: BOX BOUNDS pp pp pp
3.2574789946856555e+00 1.5514252100530967e+02
3.2574789946856555e+00 1.5514252100530967e+02
0.0000000000000000e+00 5.2800000000000002e+00
ITEM: ATOMS id type xs ys zs
2 1 0.0205938 0.0172136 0
3 1 0.0452755 0.0113081 0
33 1 0.03765 0.034841 0
31 1 0.0133588 0.0423999 0
1 1 0.00356699 -0.00102523 0
4 1 0.0617152 0.0296431 0
6 1 0.0864676 0.0239282 0
5 1 0.0702727 0.00613422 0
35 1 0.0768973 0.0484314 0
37 1 0.101735 0.0419757 0
8 1 0.109781 0.0174711 0
9 1 0.126994 0.0362331 0
880 1 0.134452 0.013102 0
10 1 0.151847 0.0302208 0
11 1 0.15898 0.00525623 0
12 1 0.176058 0.0237945 0
43 1 0.192988 0.042559 0
41 1 0.169649 0.0489235 0
882 1 0.183355 0.000617748 0
14 1 0.200142 0.0189092 0
44 1 0.217896 0.0383333 0
45 1 0.225501 0.0137738 0
46 1 0.242276 0.0315176 0
16 1 0.250229 0.00846629 0
47 1 0.268454 0.0272369 0
49 1 0.293166 0.0230757 0
48 1 0.284015 0.0463938 0
18 1 0.27705 0.00225374 0
50 1 0.310425 0.0410019 0
20 1 0.317383 0.0174734 0
51 1 0.334437 0.0352739 0
21 1 0.342774 0.0108032 0
22 1 0.358433 0.0299438 0
24 1 0.382978 0.0229268 0
53 1 0.375662 0.0484973 0
23 1 0.3664 0.00530415 0
55 1 0.398569 0.0425135 0
25 1 0.407693 0.019338 0
26 1 0.422648 0.0379922 0
27 1 0.434006 0.0154958 0
28 1 0.446887 0.0379178 0
30 1 0.494989 0.0406718 0
898 1 0.459029 0.0165387 0
29 1 0.48362 0.0169157 0
59 1 0.470557 0.0393535 0
32 1 0.029538 0.0609942 0
62 1 0.0199965 0.0843123 0
63 1 0.046264 0.078923 0
61 1 0.00306238 0.0666254 0
34 1 0.0525926 0.0538346 0
65 1 0.0699772 0.0712322 0
66 1 0.0882156 0.089938 0
36 1 0.0957077 0.0660439 0
64 1 0.0628439 0.0965803 0
39 1 0.144686 0.0532446 0
38 1 0.119507 0.0596218 0
67 1 0.113432 0.0837702 0
69 1 0.136573 0.0769578 0
70 1 0.153879 0.0956848 0
40 1 0.161381 0.0716772 0
71 1 0.177739 0.0903518 0
42 1 0.186334 0.0665191 0
72 1 0.202803 0.0851258 0
73 1 0.210382 0.0617983 0
74 1 0.228983 0.0787751 0
75 1 0.235436 0.0554332 0
106 1 0.245265 0.0976 0
77 1 0.260829 0.0505518 0
76 1 0.252298 0.0732117 0
78 1 0.277601 0.0698482 0
109 1 0.294351 0.0885792 0
107 1 0.270665 0.0938681 0
79 1 0.302114 0.0647096 0
80 1 0.318224 0.0846053 0
81 1 0.326543 0.0608375 0
82 1 0.343119 0.0790007 0
52 1 0.351137 0.0534815 0
83 1 0.367063 0.0734789 0
113 1 0.382791 0.0928178 0
54 1 0.390524 0.0674861 0
56 1 0.413928 0.0608309 0
57 1 0.439084 0.0606192 0
85 1 0.424569 0.082425 0
87 1 0.448885 0.0845346 0
88 1 0.470132 0.0965029 0
58 1 0.464259 0.0637531 0
89 1 0.485624 0.0778612 0
93 1 0.0379461 0.102606 0
92 1 0.0306643 0.12672 0
91 1 0.0143681 0.10778 0
121 1 0.00609239 0.131335 0
123 1 0.0481329 0.144243 0
122 1 0.0223688 0.150062 0
94 1 0.0551412 0.120013 0
95 1 0.0803842 0.114266 0
125 1 0.0725732 0.137421 0
96 1 0.0982637 0.132194 0
68 1 0.128955 0.101564 0
97 1 0.105305 0.107085 0
98 1 0.121456 0.125311 0
99 1 0.14585 0.119481 0
129 1 0.139317 0.1433 0
127 1 0.113799 0.149985 0
100 1 0.170201 0.112781 0
130 1 0.16289 0.137248 0
131 1 0.186809 0.131258 0
101 1 0.194835 0.107899 0
103 1 0.221179 0.102045 0
102 1 0.211531 0.12557 0
105 1 0.238151 0.121838 0
104 1 0.229103 0.144101 0
133 1 0.203412 0.149176 0
136 1 0.252984 0.142046 0
135 1 0.261315 0.116064 0
137 1 0.277229 0.134807 0
108 1 0.28754 0.112409 0
111 1 0.337837 0.102018 0
139 1 0.303845 0.135553 0
110 1 0.312271 0.110928 0
141 1 0.347724 0.12605 0
140 1 0.326614 0.142569 0
112 1 0.362255 0.107034 0
114 1 0.387809 0.116314 0
143 1 0.371372 0.134283 0
144 1 0.395026 0.14111 0
84 1 0.406974 0.0997103 0
86 1 0.429249 0.1067 0
115 1 0.412934 0.124647 0
116 1 0.436331 0.131599 0
145 1 0.418228 0.149196 0
117 1 0.452536 0.114554 0
90 1 0.493634 0.103291 0
118 1 0.459953 0.137993 0
119 1 0.476153 0.120991 0
149 1 0.48399 0.145041 0
153 1 0.0396531 0.167246 0
152 1 0.0146978 0.173837 0
183 1 0.0317529 0.192217 0
1080 1 0.0067218 0.197699 0
124 1 0.065266 0.161972 0
126 1 0.0891426 0.155062 0
155 1 0.0820234 0.179371 0
154 1 0.0557971 0.18533 0
156 1 0.0993335 0.196816 0
128 1 0.130578 0.167967 0
157 1 0.106694 0.173489 0
160 1 0.148905 0.185605 0
158 1 0.123524 0.191417 0
132 1 0.179731 0.155034 0
159 1 0.156111 0.161502 0
161 1 0.172725 0.179064 0
162 1 0.189122 0.196714 0
163 1 0.196734 0.173825 0
134 1 0.219539 0.166539 0
164 1 0.231089 0.185704 0
165 1 0.244224 0.164816 0
166 1 0.254171 0.192149 0
167 1 0.269573 0.172898 0
138 1 0.288263 0.156072 0
168 1 0.294034 0.179499 0
197 1 0.27691 0.197415 0
169 1 0.311938 0.162979 0
171 1 0.335397 0.168398 0
170 1 0.318319 0.186845 0
201 1 0.342396 0.193466 0
142 1 0.352546 0.150398 0
172 1 0.359818 0.176571 0
173 1 0.37687 0.159193 0
174 1 0.383322 0.182668 0
175 1 0.400323 0.165286 0
147 1 0.442169 0.156255 0
146 1 0.425128 0.172913 0
205 1 0.406713 0.190138 0
176 1 0.429985 0.197834 0
177 1 0.448329 0.18029 0
148 1 0.465951 0.162074 0
150 1 0.490437 0.168643 0
179 1 0.472409 0.186175 0
180 1 0.49525 0.193892 0
181 1 8.53518e-05 0.222133 0
182 1 0.0239407 0.215827 0
213 1 0.0414452 0.23468 0
211 1 0.0176645 0.240331 0
184 1 0.0488604 0.209824 0
185 1 0.0736302 0.201898 0
186 1 0.0909905 0.22114 0
215 1 0.0666406 0.226501 0
216 1 0.0859292 0.246458 0
187 1 0.116013 0.214771 0
188 1 0.133131 0.242857 0
189 1 0.140084 0.20884 0
217 1 0.108462 0.237017 0
191 1 0.165448 0.205907 0
190 1 0.153167 0.228784 0
192 1 0.195617 0.21967 0
221 1 0.17697 0.236341 0
223 1 0.200653 0.244389 0
193 1 0.212844 0.201903 0
194 1 0.218643 0.227462 0
195 1 0.236478 0.210233 0
225 1 0.242744 0.233716 0
196 1 0.259584 0.215453 0
198 1 0.283205 0.220987 0
227 1 0.266339 0.239752 0
228 1 0.290083 0.246979 0
199 1 0.301085 0.204298 0
200 1 0.324654 0.211628 0
229 1 0.306896 0.229243 0
231 1 0.331196 0.235921 0
202 1 0.348792 0.218818 0
203 1 0.365554 0.200726 0
204 1 0.388615 0.206957 0
233 1 0.372806 0.225044 0
235 1 0.396258 0.231485 0
232 1 0.354794 0.244137 0
207 1 0.435248 0.220854 0
206 1 0.419453 0.239725 0
237 1 0.444246 0.245175 0
178 1 0.455061 0.203579 0
208 1 0.461769 0.227689 0
209 1 0.478701 0.210344 0
210 1 0.486212 0.234512 0
212 1 0.010585 0.265085 0
243 1 0.0347372 0.258716 0
242 1 0.0114969 0.289553 0
273 1 0.0344525 0.297633 0
244 1 0.0520881 0.277888 0
214 1 0.0605954 0.250265 0
245 1 0.0757422 0.268384 0
247 1 0.0780738 0.291876 0
218 1 0.0981158 0.278341 0
219 1 0.114404 0.260273 0
249 1 0.138234 0.268212 0
248 1 0.121046 0.285274 0
250 1 0.143908 0.293327 0
220 1 0.158085 0.251845 0
222 1 0.180962 0.261213 0
251 1 0.162263 0.277051 0
252 1 0.187304 0.285078 0
224 1 0.223974 0.251237 0
253 1 0.206155 0.268872 0
255 1 0.229092 0.275162 0
254 1 0.21173 0.293817 0
226 1 0.2478 0.258309 0
285 1 0.234855 0.299302 0
256 1 0.253742 0.281808 0
257 1 0.272796 0.26414 0
259 1 0.296207 0.271791 0
258 1 0.277044 0.288605 0
289 1 0.300431 0.296837 0
230 1 0.313148 0.253082 0
260 1 0.318259 0.278281 0
261 1 0.33658 0.261093 0
262 1 0.343279 0.284235 0
234 1 0.378699 0.249336 0
263 1 0.362092 0.267 0
264 1 0.385077 0.274142 0
293 1 0.367594 0.29156 0
295 1 0.392084 0.298955 0
265 1 0.40192 0.256844 0
236 1 0.427173 0.264132 0
266 1 0.409351 0.280648 0
267 1 0.433418 0.287648 0
239 1 0.468791 0.250991 0
238 1 0.451597 0.268601 0
240 1 0.492132 0.258078 0
269 1 0.474868 0.27655 0
268 1 0.457488 0.293311 0
270 1 0.481311 0.300115 0
271 1 0.0158623 0.313718 0
272 1 0.0385974 0.322664 0
301 1 0.0187061 0.338089 0
303 1 0.0427282 0.348111 0
275 1 0.0584318 0.305914 0
276 1 0.0806519 0.317114 0
274 1 0.0610217 0.33149 0
305 1 0.0852257 0.340823 0
246 1 0.100851 0.30236 0
279 1 0.12476 0.309197 0
277 1 0.106115 0.326181 0
278 1 0.129907 0.333178 0
280 1 0.148362 0.317602 0
281 1 0.168046 0.300622 0
311 1 0.152887 0.342558 0
283 1 0.19198 0.309846 0
282 1 0.173063 0.326027 0
313 1 0.197436 0.333893 0
312 1 0.176792 0.35157 0
284 1 0.21672 0.317625 0
315 1 0.221341 0.342009 0
286 1 0.240457 0.323745 0
316 1 0.245546 0.347721 0
287 1 0.258361 0.30556 0
288 1 0.283012 0.313751 0
317 1 0.264582 0.330634 0
319 1 0.289264 0.337697 0
291 1 0.324758 0.301887 0
290 1 0.307664 0.320229 0
321 1 0.313438 0.345085 0
292 1 0.331423 0.326629 0
323 1 0.349101 0.30845 0
294 1 0.374081 0.315526 0
324 1 0.356291 0.33192 0
325 1 0.37939 0.340058 0
296 1 0.397789 0.322904 0
326 1 0.403664 0.34598 0
297 1 0.416149 0.305215 0
298 1 0.439686 0.311472 0
327 1 0.421717 0.327878 0
328 1 0.446723 0.335743 0
299 1 0.464843 0.317753 0
300 1 0.488346 0.323564 0
329 1 0.471848 0.341729 0
1201 1 0.496517 0.347598 0
331 1 0.00326899 0.379147 0
302 1 0.0222397 0.363372 0
332 1 0.0269896 0.388035 0
333 1 0.0469747 0.37288 0
334 1 0.0516364 0.397267 0
304 1 0.0663329 0.35694 0
306 1 0.0911698 0.364896 0
335 1 0.0705041 0.381748 0
337 1 0.0963282 0.391379 0
307 1 0.111151 0.350254 0
309 1 0.134122 0.358153 0
308 1 0.115357 0.37441 0
339 1 0.138642 0.383457 0
310 1 0.1567 0.367124 0
341 1 0.163464 0.392569 0
343 1 0.182917 0.375377 0
342 1 0.187588 0.399704 0
314 1 0.202499 0.359472 0
345 1 0.226438 0.36655 0
344 1 0.207974 0.383344 0
375 1 0.23199 0.391552 0
346 1 0.252215 0.372128 0
318 1 0.270911 0.35541 0
349 1 0.295537 0.361784 0
347 1 0.277106 0.378687 0
377 1 0.256211 0.395774 0
322 1 0.337454 0.350947 0
350 1 0.300772 0.385652 0
320 1 0.320817 0.368929 0
351 1 0.345052 0.375332 0
381 1 0.326111 0.39236 0
352 1 0.351551 0.398454 0
353 1 0.361259 0.356387 0
355 1 0.386761 0.363753 0
354 1 0.369095 0.380124 0
385 1 0.392765 0.38754 0
357 1 0.42874 0.352243 0
356 1 0.410806 0.369819 0
387 1 0.43508 0.376928 0
386 1 0.416782 0.393951 0
359 1 0.453472 0.359904 0
358 1 0.45925 0.383937 0
330 1 0.477853 0.36622 0
360 1 0.484724 0.389564 0
361 1 0.00841825 0.403608 0
363 1 0.032169 0.412593 0
362 1 0.0129408 0.42748 0
364 1 0.0368985 0.436308 0
336 1 0.0750685 0.405858 0
365 1 0.0566714 0.420872 0
395 1 0.0614912 0.445718 0
338 1 0.119625 0.399622 0
367 1 0.098373 0.415144 0
366 1 0.10528 0.439807 0
369 1 0.124961 0.423951 0
340 1 0.14448 0.408039 0
368 1 0.129754 0.44852 0
370 1 0.14924 0.433224 0
371 1 0.168457 0.41701 0
401 1 0.172588 0.441916 0
372 1 0.192371 0.425989 0
373 1 0.20999 0.408529 0
374 1 0.214278 0.434532 0
376 1 0.235254 0.416576 0
405 1 0.242212 0.439675 0
348 1 0.280797 0.403463 0
407 1 0.275277 0.442331 0
378 1 0.259764 0.420781 0
409 1 0.293215 0.42619 0
379 1 0.309268 0.409431 0
380 1 0.316385 0.434706 0
382 1 0.333312 0.415809 0
411 1 0.340982 0.440068 0
413 1 0.358601 0.422378 0
383 1 0.375316 0.403966 0
414 1 0.381953 0.429492 0
412 1 0.364222 0.446692 0
384 1 0.399773 0.412829 0
388 1 0.442269 0.401179 0
415 1 0.404963 0.436975 0
417 1 0.423991 0.418099 0
416 1 0.429381 0.442193 0
419 1 0.447972 0.425319 0
389 1 0.467063 0.407526 0
418 1 0.473375 0.431444 0
390 1 0.491084 0.413397 0
420 1 0.496586 0.43826 0
447 1 0.45425 0.44848 0
393 1 0.0177187 0.451804 0
422 1 0.00350782 0.49283 0
423 1 0.0220409 0.476341 0
394 1 0.0425838 0.46132 0
425 1 0.0459489 0.485969 0
397 1 0.0859193 0.454424 0
396 1 0.0662064 0.47032 0
426 1 0.0709746 0.49513 0
427 1 0.0899878 0.478325 0
398 1 0.109709 0.464277 0
428 1 0.112702 0.488759 0
429 1 0.13213 0.47303 0
459 1 0.135335 0.497512 0
403 1 0.195544 0.45223 0
399 1 0.152721 0.457599 0
400 1 0.175872 0.468479 0
430 1 0.155512 0.48186 0
431 1 0.178195 0.493279 0
402 1 0.198424 0.478265 0
404 1 0.217597 0.459865 0
432 1 0.221523 0.48839 0
433 1 0.238577 0.472275 0
434 1 0.244654 0.498278 0
408 1 0.298837 0.450658 0
435 1 0.256803 0.458575 0
436 1 0.263057 0.482802 0
406 1 0.280717 0.466353 0
437 1 0.286015 0.490525 0
439 1 0.306133 0.475217 0
410 1 0.323364 0.458549 0
440 1 0.328608 0.482303 0
441 1 0.346856 0.46454 0
438 1 0.310179 0.499771 0
471 1 0.35261 0.487988 0
472 1 0.376794 0.495628 0
442 1 0.370228 0.470869 0
473 1 0.39488 0.478545 0
443 1 0.388164 0.453188 0
444 1 0.418951 0.484544 0
477 1 0.443901 0.490938 0
446 1 0.436913 0.467309 0
445 1 0.412259 0.461195 0
449 1 0.478237 0.455493 0
450 1 0.485752 0.480087 0
448 1 0.462772 0.473468 0
478 1 0.467304 0.497382 0
453 1 0.00829955 0.518049 0
452 1 0.0120724 0.542277 0
454 1 0.0315711 0.525852 0
424 1 0.0268321 0.500648 0
485 1 0.0549735 0.535164 0
455 1 0.0510979 0.510755 0
456 1 0.0748175 0.519314 0
486 1 0.0787708 0.544164 0
457 1 0.0936793 0.503029 0
487 1 0.0975495 0.529897 0
458 1 0.11612 0.513767 0
488 1 0.119737 0.540516 0
489 1 0.13899 0.525094 0
490 1 0.143291 0.549278 0
462 1 0.182632 0.518623 0
491 1 0.162312 0.534159 0
460 1 0.159693 0.509324 0
492 1 0.186949 0.54246 0
461 1 0.201699 0.504025 0
493 1 0.207364 0.528273 0
463 1 0.226748 0.514659 0
495 1 0.231922 0.539482 0
464 1 0.249978 0.523079 0
466 1 0.274013 0.532249 0
465 1 0.268168 0.508153 0
467 1 0.291561 0.516153 0
497 1 0.298422 0.540263 0
496 1 0.25467 0.548502 0
468 1 0.316958 0.523367 0
469 1 0.333939 0.506268 0
499 1 0.339927 0.531113 0
498 1 0.321843 0.548334 0
470 1 0.357871 0.51326 0
503 1 0.382306 0.518749 0
505 1 0.387354 0.543106 0
501 1 0.363259 0.537518 0
474 1 0.401274 0.501539 0
476 1 0.405601 0.526456 0
509 1 0.431172 0.532671 0
475 1 0.42537 0.508884 0
507 1 0.449605 0.515264 0
479 1 0.473127 0.522296 0
480 1 0.454458 0.538757 0
1381 1 0.49665 0.528127 0
510 1 0.478502 0.546649 0
1351 1 0.490738 0.504074 0
483 1 0.0352717 0.551214 0
513 1 0.0158013 0.567831 0
514 1 0.0389781 0.576157 0
512 1 0.0191407 0.593328 0
484 1 0.0596809 0.559768 0
515 1 0.0814546 0.570161 0
545 1 0.0623989 0.586016 0
516 1 0.0852 0.595331 0
517 1 0.100244 0.55492 0
518 1 0.103607 0.579622 0
519 1 0.124239 0.565118 0
549 1 0.127482 0.589781 0
520 1 0.148009 0.574565 0
521 1 0.168121 0.558838 0
522 1 0.172633 0.584268 0
523 1 0.191593 0.567358 0
553 1 0.196022 0.592582 0
551 1 0.15144 0.599281 0
494 1 0.211225 0.55226 0
524 1 0.216644 0.577849 0
525 1 0.235884 0.564021 0
555 1 0.239454 0.588676 0
526 1 0.260347 0.572385 0
527 1 0.279081 0.556923 0
528 1 0.28409 0.58198 0
557 1 0.264311 0.599105 0
529 1 0.303192 0.56524 0
500 1 0.345398 0.555144 0
530 1 0.327908 0.57261 0
559 1 0.309274 0.589456 0
561 1 0.33387 0.596576 0
531 1 0.352528 0.579786 0
502 1 0.370084 0.56172 0
504 1 0.394036 0.568609 0
533 1 0.376097 0.586679 0
506 1 0.412643 0.550593 0
534 1 0.401059 0.592837 0
535 1 0.417595 0.574718 0
508 1 0.436517 0.557536 0
537 1 0.443842 0.580773 0
536 1 0.42454 0.599023 0
539 1 0.461312 0.563788 0
540 1 0.485316 0.570271 0
538 1 0.468118 0.5869 0
569 1 0.491935 0.593284 0
543 1 0.0419975 0.601844 0
542 1 0.0229252 0.616653 0
573 1 0.0251379 0.642155 0
544 1 0.0452629 0.62736 0
571 1 0.00167362 0.632765 0
546 1 0.0648854 0.611229 0
547 1 0.0883178 0.62109 0
575 1 0.0682773 0.636587 0
576 1 0.0921163 0.645766 0
548 1 0.107416 0.60541 0
550 1 0.130897 0.614266 0
577 1 0.111964 0.629641 0
579 1 0.136 0.638272 0
581 1 0.15407 0.62242 0
552 1 0.175808 0.609113 0
582 1 0.178331 0.633112 0
583 1 0.198257 0.616764 0
580 1 0.158408 0.647812 0
584 1 0.200778 0.641516 0
554 1 0.219176 0.60181 0
556 1 0.241853 0.613027 0
585 1 0.22194 0.626908 0
586 1 0.245508 0.636843 0
587 1 0.267242 0.623741 0
558 1 0.290453 0.607 0
589 1 0.298461 0.630501 0
588 1 0.282073 0.647225 0
560 1 0.315808 0.613148 0
591 1 0.323655 0.638019 0
562 1 0.341933 0.621772 0
593 1 0.347134 0.646521 0
532 1 0.358643 0.604114 0
563 1 0.383021 0.61065 0
564 1 0.365667 0.62866 0
595 1 0.390263 0.63573 0
565 1 0.40723 0.617164 0
566 1 0.43134 0.623298 0
596 1 0.41491 0.64096 0
598 1 0.438504 0.648527 0
567 1 0.449509 0.604622 0
597 1 0.454931 0.630053 0
568 1 0.471917 0.612618 0
570 1 0.479412 0.636408 0
1442 1 0.496565 0.618367 0
574 1 0.0481429 0.651223 0
572 1 0.00324064 0.656997 0
603 1 0.0265388 0.665874 0
602 1 0.00626405 0.680868 0
633 1 0.0321744 0.690797 0
604 1 0.0516954 0.675405 0
605 1 0.0721844 0.660926 0
606 1 0.0757729 0.685486 0
607 1 0.0953135 0.670706 0
637 1 0.099309 0.694295 0
578 1 0.115675 0.653326 0
609 1 0.138582 0.66291 0
608 1 0.119672 0.67794 0
639 1 0.143556 0.688144 0
611 1 0.181563 0.658131 0
610 1 0.16294 0.672795 0
612 1 0.184996 0.68303 0
641 1 0.166713 0.698388 0
613 1 0.20508 0.666928 0
615 1 0.224415 0.650814 0
614 1 0.226505 0.676668 0
643 1 0.207729 0.692 0
617 1 0.24519 0.66136 0
616 1 0.250223 0.684705 0
619 1 0.29141 0.674548 0
618 1 0.268642 0.667272 0
647 1 0.273086 0.692088 0
649 1 0.296165 0.699411 0
590 1 0.307542 0.656231 0
621 1 0.31457 0.680946 0
592 1 0.33113 0.663727 0
622 1 0.33822 0.688683 0
623 1 0.355194 0.671274 0
594 1 0.372216 0.653768 0
624 1 0.379474 0.678303 0
653 1 0.361102 0.69627 0
625 1 0.396147 0.661023 0
627 1 0.420228 0.665072 0
626 1 0.402653 0.685589 0
657 1 0.42641 0.692012 0
628 1 0.443799 0.673094 0
599 1 0.461927 0.654967 0
600 1 0.487038 0.66136 0
629 1 0.468186 0.678796 0
630 1 0.492637 0.685278 0
658 1 0.451323 0.69759 0
632 1 0.0115883 0.705228 0
634 1 0.0350003 0.715122 0
663 1 0.0153501 0.72989 0
664 1 0.039191 0.738892 0
635 1 0.0555593 0.699515 0
636 1 0.0795384 0.709822 0
665 1 0.0588271 0.723157 0
666 1 0.0835773 0.732982 0
667 1 0.103546 0.71887 0
668 1 0.107474 0.744216 0
638 1 0.122872 0.703369 0
640 1 0.147553 0.71427 0
669 1 0.126963 0.728387 0
670 1 0.150834 0.739644 0
642 1 0.189371 0.70895 0
671 1 0.169934 0.723802 0
673 1 0.193684 0.733822 0
672 1 0.17326 0.748707 0
645 1 0.230924 0.700881 0
644 1 0.21275 0.7168 0
675 1 0.23623 0.725426 0
674 1 0.218255 0.742276 0
646 1 0.25396 0.708059 0
677 1 0.259999 0.733495 0
648 1 0.277862 0.71626 0
678 1 0.282205 0.741141 0
679 1 0.302055 0.723379 0
620 1 0.319938 0.706158 0
651 1 0.343672 0.713031 0
650 1 0.325899 0.730419 0
681 1 0.305398 0.747612 0
652 1 0.349455 0.738063 0
655 1 0.385069 0.704025 0
654 1 0.367136 0.721299 0
685 1 0.391703 0.727415 0
683 1 0.3749 0.74508 0
656 1 0.409292 0.710086 0
687 1 0.432929 0.716555 0
686 1 0.415739 0.734418 0
717 1 0.440497 0.740445 0
659 1 0.474835 0.702795 0
689 1 0.457927 0.721537 0
660 1 0.481883 0.72634 0
688 1 0.465347 0.745008 0
1531 1 0.499807 0.708603 0
662 1 0.0197739 0.75493 0
694 1 0.0447111 0.763672 0
693 1 0.0250904 0.778773 0
725 1 0.0483295 0.787235 0
692 1 0.00524367 0.793415 0
691 1 0.00104572 0.769937 0
695 1 0.0650214 0.74941 0
697 1 0.0884902 0.759157 0
696 1 0.0692389 0.774004 0
727 1 0.0921772 0.784839 0
726 1 0.0730148 0.798974 0
699 1 0.130834 0.753721 0
698 1 0.110504 0.769035 0
700 1 0.134436 0.780016 0
728 1 0.116409 0.796396 0
701 1 0.15478 0.765012 0
731 1 0.157986 0.78995 0
703 1 0.198483 0.757635 0
702 1 0.177985 0.773268 0
732 1 0.182277 0.797885 0
704 1 0.201758 0.782152 0
676 1 0.241278 0.750692 0
705 1 0.221073 0.766127 0
706 1 0.244814 0.774124 0
735 1 0.226707 0.790961 0
707 1 0.264709 0.758168 0
709 1 0.27108 0.781982 0
680 1 0.289801 0.764864 0
710 1 0.294368 0.789192 0
737 1 0.252256 0.798219 0
682 1 0.332177 0.755555 0
711 1 0.312965 0.773217 0
712 1 0.337469 0.778857 0
741 1 0.318245 0.797827 0
713 1 0.356843 0.762753 0
714 1 0.381001 0.771013 0
743 1 0.362091 0.788364 0
745 1 0.387358 0.794796 0
684 1 0.397957 0.752964 0
715 1 0.421429 0.757988 0
716 1 0.406076 0.777381 0
747 1 0.429235 0.783234 0
718 1 0.447931 0.763275 0
690 1 0.489559 0.750826 0
719 1 0.471585 0.769065 0
720 1 0.478637 0.794146 0
749 1 0.453145 0.787797 0
1591 1 0.495693 0.775947 0
723 1 0.0286079 0.803547 0
722 1 0.0276054 0.833991 0
1680 1 0.00151488 0.842045 0
751 1 0.00783056 0.818717 0
724 1 0.0513495 0.810923 0
754 1 0.0523478 0.834316 0
757 1 0.0957778 0.810374 0
755 1 0.0752177 0.82364 0
756 1 0.0949435 0.842458 0
785 1 0.0716174 0.849433 0
729 1 0.139594 0.805938 0
759 1 0.120202 0.821254 0
760 1 0.144362 0.830851 0
730 1 0.162537 0.813671 0
761 1 0.168292 0.838437 0
763 1 0.187875 0.821508 0
764 1 0.193067 0.844991 0
733 1 0.208446 0.805645 0
736 1 0.232748 0.813859 0
734 1 0.212423 0.830564 0
767 1 0.237435 0.838995 0
708 1 0.274834 0.80713 0
738 1 0.256952 0.822655 0
769 1 0.280651 0.832185 0
768 1 0.260798 0.847558 0
739 1 0.298217 0.813488 0
740 1 0.30537 0.837367 0
771 1 0.325706 0.822245 0
742 1 0.342555 0.804865 0
773 1 0.350304 0.829494 0
744 1 0.368795 0.812974 0
774 1 0.374031 0.838036 0
775 1 0.39242 0.819638 0
776 1 0.40043 0.843879 0
746 1 0.411826 0.802448 0
748 1 0.436547 0.806543 0
777 1 0.417578 0.82612 0
779 1 0.443214 0.831432 0
778 1 0.423668 0.850805 0
750 1 0.460041 0.812493 0
1621 1 0.484257 0.819033 0
780 1 0.467849 0.836822 0
1651 1 0.492817 0.842052 0
753 1 0.0446946 0.856687 0
752 1 0.0214899 0.859863 0
783 1 0.0378105 0.87974 0
782 1 0.0139283 0.884988 0
784 1 0.0638806 0.873322 0
786 1 0.0818293 0.891894 0
787 1 0.0879233 0.867189 0
815 1 0.0563564 0.896369 0
758 1 0.112027 0.859917 0
817 1 0.10691 0.884403 0
789 1 0.137696 0.8544 0
788 1 0.130295 0.877472 0
790 1 0.149178 0.897807 0
791 1 0.156009 0.874504 0
762 1 0.18085 0.866228 0
793 1 0.173525 0.892137 0
795 1 0.198344 0.887076 0
765 1 0.215476 0.855346 0
796 1 0.222006 0.88007 0
766 1 0.241749 0.863861 0
797 1 0.268895 0.870788 0
827 1 0.265135 0.894639 0
798 1 0.288636 0.884984 0
799 1 0.29564 0.860386 0
772 1 0.34526 0.853807 0
770 1 0.320203 0.857937 0
800 1 0.313549 0.881821 0
801 1 0.337716 0.876528 0
802 1 0.355456 0.895638 0
803 1 0.362692 0.872825 0
804 1 0.382266 0.888976 0
805 1 0.383652 0.862291 0
807 1 0.406766 0.870345 0
808 1 0.432882 0.874602 0
837 1 0.440645 0.899497 0
809 1 0.449933 0.855671 0
1681 1 0.474398 0.861294 0
1711 1 0.481456 0.884741 0
810 1 0.456929 0.880141 0
1652 1 0.49979 0.865864 0
813 1 0.0306595 0.904016 0
843 1 0.0237538 0.927324 0
844 1 0.0413816 0.94496 0
812 1 0.00563647 0.910101 0
814 1 0.049239 0.920354 0
816 1 0.0986383 0.908325 0
845 1 0.0744009 0.914148 0
846 1 0.0661667 0.938332 0
847 1 0.0909997 0.931976 0
819 1 0.123758 0.902712 0
818 1 0.114519 0.926387 0
820 1 0.131912 0.945605 0
821 1 0.140838 0.921966 0
792 1 0.16654 0.915727 0
851 1 0.157585 0.939678 0
823 1 0.191915 0.910101 0
822 1 0.184198 0.934634 0
825 1 0.241301 0.899523 0
794 1 0.2176 0.905182 0
824 1 0.209543 0.928211 0
885 1 0.225093 0.946708 0
855 1 0.233929 0.923535 0
856 1 0.251463 0.941696 0
826 1 0.258693 0.918497 0
857 1 0.274812 0.936304 0
828 1 0.282556 0.911661 0
859 1 0.29991 0.92994 0
831 1 0.331444 0.900455 0
829 1 0.306866 0.905217 0
830 1 0.325046 0.924851 0
861 1 0.341101 0.943446 0
860 1 0.316162 0.94816 0
832 1 0.350073 0.920181 0
863 1 0.366578 0.938048 0
833 1 0.373814 0.912457 0
834 1 0.39047 0.931039 0
806 1 0.400311 0.90699 0
835 1 0.415611 0.927688 0
836 1 0.4327 0.945679 0
838 1 0.447859 0.923596 0
869 1 0.458792 0.946338 0
839 1 0.465414 0.905282 0
840 1 0.475124 0.927824 0
1712 1 0.491974 0.908161 0
842 1 0.0174657 0.95162 0
872 1 0.0274294 0.993839 0
873 1 0.0339439 0.969794 0
871 1 0.00986325 0.975276 0
874 1 0.0522206 0.988172 0
875 1 0.0582644 0.963656 0
876 1 0.0759421 0.980646 0
848 1 0.083389 0.956827 0
7 1 0.0935624 0.99874 0
877 1 0.100171 0.974761 0
849 1 0.106975 0.950476 0
878 1 0.118794 0.993389 0
879 1 0.123323 0.968758 0
881 1 0.142716 0.987587 0
850 1 0.150102 0.963336 0
853 1 0.175384 0.957686 0
852 1 0.166743 0.981426 0
883 1 0.191808 0.97649 0
854 1 0.20095 0.953084 0
13 1 0.208263 0.996394 0
15 1 0.234453 0.989762 0
884 1 0.216044 0.971803 0
886 1 0.241748 0.966132 0
858 1 0.292088 0.955278 0
887 1 0.266881 0.960709 0
17 1 0.259334 0.984441 0
888 1 0.284376 0.977904 0
19 1 0.301777 0.997704 0
889 1 0.309566 0.972227 0
890 1 0.326062 0.991822 0
891 1 0.332997 0.967245 0
892 1 0.34966 0.987199 0
862 1 0.356904 0.96205 0
864 1 0.382037 0.957018 0
893 1 0.373911 0.981052 0
895 1 0.399127 0.976236 0
894 1 0.390705 0.999667 0
897 1 0.448995 0.994032 0
865 1 0.407013 0.950547 0
867 1 0.446962 0.967349 0
866 1 0.422491 0.96923 0
896 1 0.415779 0.995651 0
899 1 0.4752 0.993985 0
870 1 0.484736 0.950308 0
868 1 0.470809 0.970378 0
1771 1 0.494387 0.97558 0
902 1 0.535612 0.0265233 0
901 1 0.509784 0.0220675 0
931 1 0.519824 0.0449993 0
903 1 0.525808 0.00235796 0
933 1 0.544222 0.050033 0
904 1 0.560159 0.0309088 0
906 1 0.574895 0.0118376 0
935 1 0.584798 0.0370163 0
905 1 0.550644 0.00738845 0
908 1 0.598391 0.0175377 0
937 1 0.608896 0.0422486 0
939 1 0.623953 0.0240364 0
910 1 0.64264 0.00647599 0
938 1 0.633434 0.0476257 0
941 1 0.650041 0.0300701 0
912 1 0.667929 0.0121235 0
942 1 0.675029 0.0366202 0
943 1 0.691667 0.0179559 0
973 1 0.699957 0.042493 0
944 1 0.715842 0.0245029 0
945 1 0.73106 0.00565659 0
946 1 0.739304 0.0302636 0
975 1 0.725303 0.0500595 0
947 1 0.756833 0.0121667 0
948 1 0.765256 0.0347793 0
918 1 0.782606 0.0175547 0
979 1 0.791986 0.0409509 0
949 1 0.808369 0.0210414 0
951 1 0.838396 0.0165988 0
950 1 0.828866 0.0395337 0
921 1 0.82159 0.000124959 0
952 1 0.854963 0.0354488 0
953 1 0.862413 0.00937975 0
924 1 0.886344 0.00393451 0
954 1 0.878459 0.0287232 0
985 1 0.896807 0.0467318 0
955 1 0.903192 0.0223851 0
926 1 0.927634 0.0171919 0
957 1 0.945255 0.0356687 0
956 1 0.921037 0.041139 0
928 1 0.953032 0.012101 0
959 1 0.970948 0.0305376 0
930 1 0.995372 0.023068 0
929 1 0.977272 0.0073454 0
960 1 0.98673 0.0485409 0
932 1 0.527619 0.0681457 0
962 1 0.535607 0.0908566 0
961 1 0.510292 0.0856701 0
60 1 0.503232 0.0623357 0
963 1 0.552793 0.0735614 0
934 1 0.568592 0.0555264 0
965 1 0.576496 0.079589 0
936 1 0.592711 0.0614811 0
964 1 0.559575 0.0982208 0
966 1 0.600979 0.086175 0
967 1 0.615922 0.0670736 0
968 1 0.625758 0.0900203 0
969 1 0.641306 0.0716567 0
999 1 0.650053 0.096073 0
940 1 0.658138 0.0547132 0
970 1 0.667358 0.0795334 0
971 1 0.682858 0.0604928 0
972 1 0.691416 0.0846569 0
1003 1 0.707252 0.0666133 0
1004 1 0.716048 0.0914161 0
974 1 0.73192 0.0731653 0
1005 1 0.740611 0.0968322 0
976 1 0.74897 0.0539647 0
1007 1 0.757871 0.078015 0
977 1 0.773076 0.0584467 0
978 1 0.798287 0.0643025 0
1008 1 0.781869 0.0836346 0
980 1 0.822603 0.0638782 0
981 1 0.846847 0.0581428 0
1009 1 0.812157 0.0868761 0
1011 1 0.839243 0.0816047 0
982 1 0.863672 0.0763069 0
983 1 0.872462 0.0531888 0
984 1 0.888674 0.0709695 0
1013 1 0.879754 0.094875 0
1012 1 0.855237 0.0988951 0
1015 1 0.904966 0.0892056 0
986 1 0.914111 0.0656646 0
987 1 0.938122 0.0593758 0
1017 1 0.930827 0.083462 0
988 1 0.95603 0.0771429 0
958 1 0.962362 0.0540123 0
989 1 0.979678 0.0729372 0
990 1 0.995992 0.0907016 0
1019 1 0.971927 0.0963592 0
991 1 0.517133 0.108207 0
992 1 0.524371 0.133021 0
993 1 0.54047 0.115057 0
120 1 0.500953 0.127226 0
1023 1 0.548435 0.139465 0
995 1 0.584517 0.104108 0
994 1 0.567063 0.121656 0
996 1 0.590964 0.127773 0
1025 1 0.572602 0.145815 0
997 1 0.609205 0.10874 0
998 1 0.633402 0.114137 0
1027 1 0.615732 0.133186 0
1029 1 0.640703 0.139071 0
1001 1 0.674903 0.102608 0
1000 1 0.657182 0.120288 0
1031 1 0.682257 0.125774 0
1030 1 0.665557 0.144401 0
1002 1 0.698477 0.107986 0
1033 1 0.706762 0.132352 0
1035 1 0.723829 0.115107 0
1034 1 0.732869 0.138588 0
1036 1 0.74925 0.12126 0
1006 1 0.76464 0.101707 0
1037 1 0.774314 0.124899 0
1038 1 0.798756 0.129981 0
1067 1 0.757403 0.145149 0
1039 1 0.791908 0.105921 0
1010 1 0.829733 0.104784 0
1040 1 0.823878 0.128052 0
1041 1 0.848119 0.122533 0
1071 1 0.839822 0.146741 0
1043 1 0.872413 0.117789 0
1014 1 0.897567 0.11263 0
1044 1 0.888611 0.136342 0
1042 1 0.863336 0.141899 0
1018 1 0.94784 0.100685 0
1045 1 0.914129 0.130523 0
1016 1 0.922785 0.107054 0
1047 1 0.939795 0.125819 0
1077 1 0.931437 0.149108 0
1049 1 0.964128 0.119536 0
1020 1 0.989123 0.113415 0
1050 1 0.982258 0.136922 0
1046 1 0.956686 0.143973 0
1021 1 0.508501 0.151413 0
1022 1 0.531615 0.157128 0
1053 1 0.538602 0.180903 0
1051 1 0.513113 0.176935 0
1052 1 0.521822 0.199736 0
1024 1 0.556039 0.162634 0
1055 1 0.579295 0.169882 0
1054 1 0.562756 0.187938 0
1056 1 0.5876 0.193208 0
1026 1 0.597844 0.152024 0
1028 1 0.622476 0.156543 0
1057 1 0.603806 0.175346 0
1058 1 0.629031 0.180401 0
1059 1 0.647076 0.163149 0
1087 1 0.612045 0.198293 0
1032 1 0.690457 0.15112 0
1060 1 0.653634 0.186927 0
1061 1 0.671017 0.169346 0
1091 1 0.677988 0.19323 0
1062 1 0.695513 0.175164 0
1063 1 0.713733 0.156732 0
1064 1 0.722209 0.180969 0
1065 1 0.739733 0.162411 0
1093 1 0.703533 0.197766 0
1095 1 0.747355 0.185238 0
1068 1 0.783096 0.149647 0
1066 1 0.765516 0.168492 0
1097 1 0.772863 0.192794 0
1099 1 0.79105 0.172788 0
1098 1 0.798112 0.199634 0
1069 1 0.808754 0.153057 0
1070 1 0.831016 0.170377 0
1101 1 0.848519 0.189567 0
1100 1 0.821578 0.193067 0
1072 1 0.855891 0.166139 0
1073 1 0.881373 0.159477 0
1103 1 0.873077 0.183605 0
1074 1 0.898818 0.177801 0
1075 1 0.905801 0.1542 0
1076 1 0.924042 0.173181 0
1107 1 0.94153 0.192295 0
1078 1 0.949126 0.168376 0
1105 1 0.915904 0.196472 0
1048 1 0.974161 0.162203 0
151 1 0.998007 0.155257 0
1079 1 0.99019 0.18031 0
1109 1 0.965434 0.186225 0
1083 1 0.545215 0.204984 0
1082 1 0.528566 0.222267 0
1111 1 0.510222 0.241087 0
1113 1 0.535281 0.246524 0
1081 1 0.504394 0.217491 0
1084 1 0.552969 0.228476 0
1085 1 0.569212 0.211163 0
1086 1 0.594053 0.216746 0
1115 1 0.576682 0.235046 0
1117 1 0.601141 0.240547 0
1089 1 0.636484 0.204553 0
1088 1 0.61883 0.222265 0
1119 1 0.642474 0.228169 0
1118 1 0.625273 0.246373 0
1090 1 0.660574 0.210676 0
1092 1 0.686315 0.216583 0
1121 1 0.668326 0.234282 0
1122 1 0.692847 0.240156 0
1094 1 0.730164 0.204772 0
1123 1 0.711451 0.222587 0
1124 1 0.717585 0.246619 0
1125 1 0.736812 0.228367 0
1096 1 0.755653 0.21044 0
1127 1 0.780008 0.216877 0
1126 1 0.762671 0.234156 0
1128 1 0.787046 0.240011 0
1131 1 0.838912 0.2128 0
1129 1 0.813623 0.219765 0
1130 1 0.833406 0.236869 0
1159 1 0.810271 0.246649 0
1102 1 0.864319 0.207205 0
1104 1 0.890109 0.202444 0
1132 1 0.85808 0.231243 0
1133 1 0.882731 0.22693 0
1134 1 0.900637 0.246289 0
1135 1 0.9074 0.220162 0
1106 1 0.93241 0.215514 0
1136 1 0.923887 0.239512 0
1137 1 0.94918 0.233205 0
1108 1 0.958424 0.209695 0
1110 1 0.983008 0.204331 0
1139 1 0.974935 0.227954 0
1140 1 0.992952 0.245769 0
1138 1 0.96821 0.251467 0
1141 1 0.498766 0.282679 0
1112 1 0.517121 0.264725 0
1143 1 0.541619 0.27067 0
1142 1 0.523391 0.28899 0
1144 1 0.548279 0.293914 0
1114 1 0.559181 0.25342 0
1116 1 0.583868 0.257968 0
1145 1 0.567516 0.276534 0
1146 1 0.590817 0.281784 0
1147 1 0.608269 0.264408 0
1149 1 0.631896 0.270071 0
1148 1 0.615066 0.288321 0
1179 1 0.639349 0.293559 0
1120 1 0.649902 0.252059 0
1151 1 0.674848 0.257882 0
1150 1 0.657252 0.276285 0
1152 1 0.682308 0.282332 0