ITEM: TIMESTEP
208000
ITEM: NUMBER OF ATOMS
1800
ITEM: BOX BOUNDS pp pp pp
3.2695950978443591e+00 1.5513040490215238e+02
3.2695950978443591e+00 1.5513040490215238e+02
0.0000000000000000e+00 5.2800000000000002e+00
ITEM: ATOMS id type xs ys zs
2 1 0.0163986 0.0190743 0
3 1 0.0410205 0.0140694 0
33 1 0.0324284 0.0377467 0
31 1 0.00856459 0.0442852 0
4 1 0.0580377 0.0315436 0
6 1 0.0836315 0.0256311 0
5 1 0.0663017 0.00867193 0
35 1 0.0756119 0.0497354 0
7 1 0.0907496 0.0021396 0
37 1 0.101358 0.0436408 0
8 1 0.109012 0.0203413 0
9 1 0.126403 0.0374594 0
880 1 0.133766 0.0129118 0
10 1 0.149911 0.0325904 0
11 1 0.157793 0.00732326 0
12 1 0.17505 0.02592 0
43 1 0.191611 0.0444324 0
14 1 0.198654 0.0176068 0
41 1 0.167514 0.051336 0
448 1 0.4617 0.470536 0
44 1 0.216145 0.0366702 0
45 1 0.224117 0.0131153 0
46 1 0.241929 0.0303759 0
16 1 0.249035 0.0072021 0
47 1 0.266614 0.0249797 0
49 1 0.289715 0.0184102 0
48 1 0.282975 0.0428804 0
18 1 0.273928 -8.6528e-05 0
77 1 0.258001 0.0490377 0
50 1 0.307027 0.0379349 0
20 1 0.314365 0.0118309 0
51 1 0.330699 0.0314084 0
21 1 0.340146 0.00824539 0
52 1 0.347841 0.0510572 0
22 1 0.356627 0.0270845 0
24 1 0.380527 0.0201041 0
53 1 0.37261 0.0455799 0
55 1 0.396382 0.0391584 0
23 1 0.363659 0.00192669 0
25 1 0.406384 0.015614 0
26 1 0.421007 0.0347201 0
27 1 0.431819 0.0119949 0
28 1 0.44415 0.0338642 0
30 1 0.492504 0.0398629 0
898 1 0.45682 0.0139071 0
29 1 0.481756 0.0170162 0
59 1 0.468481 0.0383721 0
32 1 0.0243615 0.0620336 0
62 1 0.0185247 0.0860063 0
63 1 0.0431464 0.0792916 0
61 1 0.000715686 0.0676967 0
34 1 0.0496381 0.0547661 0
65 1 0.0665224 0.0723964 0
66 1 0.0841984 0.0909799 0
36 1 0.0927793 0.0678799 0
64 1 0.0597012 0.0970518 0
39 1 0.14305 0.055799 0
38 1 0.119332 0.0619552 0
67 1 0.109359 0.0856931 0
69 1 0.13499 0.0803045 0
70 1 0.151684 0.0977061 0
40 1 0.160043 0.0739606 0
71 1 0.176549 0.0924135 0
42 1 0.184687 0.0693046 0
72 1 0.202548 0.0867542 0
73 1 0.20943 0.0620715 0
74 1 0.227443 0.0792602 0
75 1 0.233767 0.0542242 0
106 1 0.244604 0.0983378 0
76 1 0.251202 0.073371 0
78 1 0.275288 0.0667388 0
109 1 0.293105 0.0875866 0
107 1 0.268931 0.090991 0
79 1 0.299916 0.0620643 0
80 1 0.317795 0.0798022 0
81 1 0.323697 0.0559781 0
82 1 0.341292 0.0753506 0
111 1 0.335012 0.0992658 0
83 1 0.364918 0.0683017 0
113 1 0.379528 0.0901721 0
54 1 0.38835 0.0643525 0
56 1 0.412194 0.0582311 0
57 1 0.437489 0.0601804 0
85 1 0.421505 0.0814438 0
87 1 0.445426 0.0854533 0
84 1 0.403187 0.097229 0
88 1 0.466737 0.0944641 0
58 1 0.461795 0.0646839 0
89 1 0.483235 0.0774569 0
93 1 0.0350669 0.103081 0
92 1 0.0296712 0.126824 0
91 1 0.0105994 0.110462 0
121 1 0.00376222 0.133991 0
123 1 0.0450276 0.144858 0
94 1 0.0532936 0.120473 0
95 1 0.0775466 0.115889 0
125 1 0.0696199 0.139385 0
96 1 0.0935769 0.133319 0
68 1 0.125864 0.10377 0
97 1 0.101254 0.110073 0
98 1 0.11823 0.127112 0
99 1 0.143102 0.121036 0
129 1 0.135695 0.145308 0
100 1 0.167674 0.115548 0
130 1 0.161231 0.139915 0
131 1 0.185885 0.133538 0
101 1 0.19323 0.110476 0
103 1 0.219661 0.103698 0
102 1 0.211858 0.126376 0
105 1 0.237196 0.12244 0
104 1 0.229118 0.145312 0
133 1 0.202491 0.151167 0
136 1 0.253992 0.141128 0
135 1 0.261348 0.116505 0
137 1 0.277312 0.133761 0
108 1 0.285637 0.110308 0
139 1 0.301564 0.136856 0
110 1 0.310849 0.105951 0
141 1 0.341965 0.12548 0
140 1 0.325517 0.144748 0
112 1 0.359679 0.104668 0
114 1 0.383829 0.115801 0
143 1 0.36656 0.132818 0
144 1 0.390144 0.140428 0
86 1 0.425739 0.105378 0
115 1 0.406725 0.122456 0
116 1 0.430824 0.129458 0
145 1 0.415145 0.148564 0
117 1 0.448383 0.112128 0
90 1 0.491105 0.1026 0
118 1 0.454887 0.135538 0
119 1 0.473868 0.11969 0
149 1 0.479497 0.144008 0
120 1 0.498379 0.126213 0
122 1 0.02084 0.150951 0
153 1 0.0377705 0.169458 0
152 1 0.0133083 0.174966 0
183 1 0.0301584 0.193616 0
1080 1 0.00578447 0.198842 0
124 1 0.0619516 0.162659 0
126 1 0.0857728 0.156897 0
155 1 0.0786912 0.180797 0
154 1 0.0546031 0.186877 0
127 1 0.110059 0.150737 0
128 1 0.127466 0.16943 0
157 1 0.103372 0.174665 0
160 1 0.14407 0.187429 0
158 1 0.119572 0.192808 0
132 1 0.178233 0.157207 0
159 1 0.152838 0.163751 0
161 1 0.170697 0.181284 0
162 1 0.185544 0.199408 0
163 1 0.195553 0.17567 0
134 1 0.220189 0.167268 0
164 1 0.229094 0.188916 0
165 1 0.243701 0.164669 0
166 1 0.252268 0.193518 0
167 1 0.267398 0.17433 0
138 1 0.2849 0.156843 0
168 1 0.290863 0.180765 0
197 1 0.274456 0.199334 0
169 1 0.308529 0.163004 0
171 1 0.333279 0.167746 0
170 1 0.315969 0.187144 0
201 1 0.339708 0.192147 0
142 1 0.34925 0.149865 0
172 1 0.356556 0.174763 0
173 1 0.373147 0.156906 0
174 1 0.379644 0.183546 0
175 1 0.396674 0.165246 0
203 1 0.363037 0.201657 0
147 1 0.439128 0.15457 0
146 1 0.421254 0.173051 0
205 1 0.403907 0.189705 0
176 1 0.427715 0.1977 0
177 1 0.445738 0.179963 0
148 1 0.461897 0.16042 0
150 1 0.486925 0.167282 0
179 1 0.469507 0.185028 0
180 1 0.49545 0.191641 0
182 1 0.0230405 0.217221 0
213 1 0.0390227 0.235965 0
211 1 0.0157393 0.242723 0
184 1 0.0472009 0.211815 0
156 1 0.0956504 0.198968 0
185 1 0.0712054 0.204348 0
186 1 0.08841 0.222812 0
215 1 0.0645555 0.229843 0
216 1 0.0811141 0.246593 0
187 1 0.111766 0.217467 0
188 1 0.132716 0.244289 0
189 1 0.136034 0.210821 0
217 1 0.106502 0.24181 0
191 1 0.161929 0.204927 0
190 1 0.152419 0.227964 0
192 1 0.193081 0.222682 0
221 1 0.175485 0.238812 0
223 1 0.199556 0.246453 0
193 1 0.20979 0.2039 0
194 1 0.216343 0.228338 0
195 1 0.23455 0.212796 0
225 1 0.240093 0.235738 0
196 1 0.257747 0.217675 0
198 1 0.281643 0.223806 0
227 1 0.264121 0.242917 0
228 1 0.287927 0.247712 0
199 1 0.298034 0.204803 0
200 1 0.321515 0.21171 0
229 1 0.304324 0.22952 0
231 1 0.328146 0.2359 0
202 1 0.345313 0.218571 0
204 1 0.387882 0.207923 0
233 1 0.370093 0.224862 0
235 1 0.395023 0.231073 0
232 1 0.352891 0.242776 0
234 1 0.376724 0.24919 0
207 1 0.436136 0.221476 0
206 1 0.41834 0.238064 0
237 1 0.442214 0.244388 0
178 1 0.452624 0.202831 0
208 1 0.459703 0.226751 0
209 1 0.477412 0.209035 0
210 1 0.484688 0.232003 0
212 1 0.00577152 0.266371 0
243 1 0.0325732 0.262574 0
242 1 0.0118485 0.289605 0
273 1 0.0345662 0.298086 0
244 1 0.0530296 0.280784 0
214 1 0.0569353 0.253906 0
245 1 0.0756536 0.270421 0
247 1 0.0794321 0.294471 0
218 1 0.0986173 0.278477 0
219 1 0.116225 0.263872 0
249 1 0.139193 0.271149 0
248 1 0.121416 0.288236 0
250 1 0.144975 0.296998 0
220 1 0.15751 0.254412 0
222 1 0.181013 0.264564 0
251 1 0.161997 0.280417 0
252 1 0.187329 0.288437 0
224 1 0.223392 0.253328 0
253 1 0.204776 0.270975 0
255 1 0.228858 0.277637 0
254 1 0.211499 0.295282 0
226 1 0.246954 0.260571 0
256 1 0.253886 0.284383 0
257 1 0.271078 0.267059 0
259 1 0.294876 0.271946 0
258 1 0.277636 0.291661 0
289 1 0.301176 0.297214 0
230 1 0.311868 0.254693 0
260 1 0.318806 0.280186 0
261 1 0.33513 0.260849 0
262 1 0.342608 0.286018 0
263 1 0.359404 0.267484 0
264 1 0.383785 0.273099 0
293 1 0.367083 0.29186 0
295 1 0.391158 0.296572 0
265 1 0.402448 0.256289 0
236 1 0.426567 0.262686 0
266 1 0.410114 0.279918 0
267 1 0.434167 0.285558 0
238 1 0.450896 0.268014 0
239 1 0.467271 0.250231 0
240 1 0.490847 0.256021 0
269 1 0.475475 0.274526 0
268 1 0.458235 0.292197 0
270 1 0.481325 0.298547 0
1141 1 0.499881 0.27966 0
271 1 0.0162473 0.314214 0
272 1 0.0392411 0.323207 0
301 1 0.0211123 0.339058 0
303 1 0.0450696 0.348482 0
275 1 0.059494 0.306678 0
276 1 0.083018 0.318916 0
274 1 0.0630415 0.332736 0
305 1 0.0878322 0.343122 0
246 1 0.101865 0.30332 0
279 1 0.125144 0.312652 0
277 1 0.106928 0.328437 0
278 1 0.13032 0.336485 0
280 1 0.149395 0.321106 0
281 1 0.168644 0.305376 0
311 1 0.156264 0.346055 0
283 1 0.193132 0.312514 0
282 1 0.174625 0.329622 0
313 1 0.198063 0.337362 0
285 1 0.234261 0.302011 0
284 1 0.216328 0.319488 0
315 1 0.221416 0.343364 0
286 1 0.239763 0.326722 0
287 1 0.257745 0.309447 0
288 1 0.282443 0.314631 0
317 1 0.26449 0.333643 0
319 1 0.28886 0.338977 0
291 1 0.325205 0.303456 0
290 1 0.306138 0.320424 0
321 1 0.312752 0.344884 0
292 1 0.330501 0.327502 0
323 1 0.350754 0.309756 0
294 1 0.374126 0.315783 0
324 1 0.354832 0.332778 0
325 1 0.380065 0.338114 0
296 1 0.39805 0.319931 0
326 1 0.405304 0.343378 0
297 1 0.416778 0.303164 0
298 1 0.440225 0.310236 0
327 1 0.422392 0.326745 0
328 1 0.446432 0.333963 0
299 1 0.465196 0.316356 0
300 1 0.489608 0.321044 0
329 1 0.472582 0.339279 0
1201 1 0.496771 0.345197 0
331 1 0.00700198 0.378395 0
302 1 0.0260762 0.363858 0
332 1 0.0296396 0.388254 0
333 1 0.0498937 0.37309 0
1230 1 0.00159875 0.354441 0
334 1 0.0530672 0.398169 0
304 1 0.067626 0.357848 0
306 1 0.091885 0.368016 0
335 1 0.0726737 0.381833 0
337 1 0.0963459 0.393149 0
307 1 0.111786 0.352177 0
309 1 0.13666 0.36103 0
308 1 0.115543 0.377126 0
339 1 0.140483 0.384666 0
312 1 0.179663 0.353651 0
310 1 0.160568 0.37005 0
341 1 0.16507 0.393527 0
343 1 0.184377 0.377678 0
316 1 0.244926 0.352094 0
314 1 0.203157 0.361925 0
345 1 0.226611 0.367994 0
344 1 0.208453 0.385596 0
375 1 0.232906 0.392858 0
346 1 0.25089 0.376194 0
318 1 0.271163 0.358677 0
349 1 0.295802 0.361914 0
347 1 0.276506 0.382914 0
322 1 0.337618 0.350923 0
350 1 0.302132 0.386044 0
320 1 0.320006 0.368121 0
351 1 0.34655 0.373911 0
381 1 0.329672 0.392477 0
352 1 0.353635 0.397938 0
353 1 0.363237 0.355733 0
355 1 0.386981 0.362177 0
354 1 0.370292 0.379765 0
385 1 0.394723 0.386368 0
357 1 0.428802 0.3503 0
356 1 0.411664 0.367357 0
387 1 0.436897 0.37435 0
386 1 0.41874 0.391045 0
388 1 0.44317 0.398526 0
359 1 0.454139 0.356845 0
358 1 0.461145 0.380227 0
330 1 0.478328 0.363553 0
360 1 0.484158 0.387865 0
361 1 0.0105328 0.403049 0
363 1 0.0335435 0.413232 0
362 1 0.0152709 0.429063 0
364 1 0.039409 0.437505 0
336 1 0.0765644 0.40685 0
365 1 0.0581689 0.422098 0
395 1 0.0632669 0.445839 0
338 1 0.120131 0.40112 0
367 1 0.10036 0.417602 0
366 1 0.106287 0.441945 0
369 1 0.124678 0.425594 0
340 1 0.143913 0.409277 0
370 1 0.149913 0.435222 0
342 1 0.189898 0.401767 0
371 1 0.168877 0.418164 0
401 1 0.172464 0.442573 0
372 1 0.191845 0.427109 0
373 1 0.213843 0.410754 0
374 1 0.214646 0.43557 0
376 1 0.236262 0.418571 0
405 1 0.238699 0.445698 0
377 1 0.25574 0.400307 0
348 1 0.279352 0.407746 0
407 1 0.278565 0.442567 0
378 1 0.259288 0.426389 0
409 1 0.295639 0.426243 0
379 1 0.311915 0.408795 0
380 1 0.318792 0.432811 0
382 1 0.336365 0.416109 0
411 1 0.342484 0.439997 0
413 1 0.360528 0.422193 0
383 1 0.377592 0.404808 0
414 1 0.383768 0.428073 0
412 1 0.36616 0.446235 0
384 1 0.401664 0.410381 0
415 1 0.407607 0.434669 0
417 1 0.425074 0.415213 0
416 1 0.432402 0.440571 0
419 1 0.449709 0.423208 0
389 1 0.466566 0.403974 0
418 1 0.474019 0.429748 0
390 1 0.490672 0.412123 0
420 1 0.497455 0.43621 0
447 1 0.455631 0.447099 0
392 1 0.000760852 0.467353 0
393 1 0.0205819 0.452977 0
422 1 0.00363122 0.492107 0
423 1 0.0235448 0.477715 0
394 1 0.0440671 0.461919 0
425 1 0.0477341 0.487349 0
397 1 0.0863215 0.455725 0
396 1 0.0670392 0.47141 0
426 1 0.0700984 0.496857 0
427 1 0.0914562 0.480465 0
368 1 0.130014 0.451512 0
398 1 0.111024 0.466342 0
428 1 0.114914 0.491457 0
429 1 0.133813 0.475394 0
403 1 0.195075 0.453495 0
399 1 0.153518 0.459801 0
400 1 0.176507 0.469543 0
430 1 0.157215 0.485041 0
431 1 0.180681 0.493464 0
402 1 0.199572 0.477971 0
404 1 0.218855 0.460586 0
432 1 0.222247 0.487839 0
433 1 0.240073 0.471431 0
434 1 0.245916 0.497051 0
435 1 0.259944 0.458367 0
436 1 0.265037 0.482629 0
406 1 0.283866 0.467469 0
437 1 0.288774 0.490908 0
408 1 0.301417 0.45067 0
439 1 0.30781 0.474565 0
410 1 0.325296 0.456907 0
440 1 0.331263 0.481708 0
441 1 0.349591 0.465024 0
438 1 0.312063 0.498604 0
471 1 0.354529 0.48842 0
472 1 0.378064 0.493836 0
442 1 0.372937 0.469412 0
473 1 0.396382 0.476819 0
443 1 0.390289 0.451795 0
444 1 0.420104 0.483185 0
477 1 0.44317 0.490439 0
446 1 0.43818 0.466239 0
445 1 0.413968 0.45803 0
449 1 0.479754 0.453773 0
450 1 0.486149 0.477063 0
478 1 0.467028 0.495639 0
453 1 0.00886351 0.516706 0
452 1 0.0131555 0.541577 0
454 1 0.0321864 0.526713 0
424 1 0.0281313 0.502027 0
455 1 0.0511266 0.512239 0
485 1 0.0547249 0.537811 0
456 1 0.0733366 0.52227 0
486 1 0.0786053 0.545606 0
457 1 0.0930886 0.505557 0
487 1 0.0975357 0.529728 0
458 1 0.117661 0.515688 0
488 1 0.12054 0.541299 0
489 1 0.140423 0.52496 0
459 1 0.137401 0.500487 0
462 1 0.183385 0.518785 0
491 1 0.164457 0.535371 0
460 1 0.160461 0.510152 0
492 1 0.187459 0.544931 0
461 1 0.203252 0.502577 0
493 1 0.207019 0.528522 0
463 1 0.225283 0.512212 0
495 1 0.229801 0.537775 0
464 1 0.249149 0.521653 0
466 1 0.27363 0.531066 0
465 1 0.26924 0.507165 0
467 1 0.293126 0.515772 0
497 1 0.297453 0.539946 0
496 1 0.25379 0.546592 0
468 1 0.317152 0.523195 0
469 1 0.336528 0.505843 0
499 1 0.341485 0.530238 0
498 1 0.322474 0.547058 0
470 1 0.359319 0.512466 0
503 1 0.38504 0.520137 0
505 1 0.390016 0.544306 0
501 1 0.365422 0.535637 0
474 1 0.401739 0.501595 0
476 1 0.408115 0.527057 0
509 1 0.43132 0.531613 0
475 1 0.426214 0.507889 0
507 1 0.449641 0.514445 0
506 1 0.413734 0.550618 0
479 1 0.473345 0.519893 0
480 1 0.455761 0.538091 0
1381 1 0.498402 0.5256 0
510 1 0.479828 0.543666 0
1351 1 0.491814 0.501389 0
483 1 0.0349057 0.552629 0
513 1 0.0154898 0.567558 0
514 1 0.0385514 0.576446 0
512 1 0.0193996 0.59225 0
484 1 0.0593005 0.562111 0
515 1 0.0822353 0.571449 0
545 1 0.0628777 0.586799 0
516 1 0.086028 0.598279 0
490 1 0.14503 0.549879 0
517 1 0.100477 0.556362 0
518 1 0.104822 0.582178 0
519 1 0.124155 0.565495 0
549 1 0.12803 0.590809 0
520 1 0.147473 0.574044 0
521 1 0.168251 0.560348 0
522 1 0.172768 0.584478 0
523 1 0.192759 0.569957 0
553 1 0.195601 0.594204 0
551 1 0.152638 0.598215 0
494 1 0.211188 0.553242 0
524 1 0.216292 0.578237 0
525 1 0.235174 0.563029 0
555 1 0.240324 0.587078 0
526 1 0.258842 0.571383 0
527 1 0.278764 0.554292 0
528 1 0.282625 0.578318 0
557 1 0.2649 0.59604 0
529 1 0.303142 0.563805 0
500 1 0.345523 0.554537 0
530 1 0.327906 0.571754 0
559 1 0.308118 0.588144 0
561 1 0.332212 0.595811 0
531 1 0.352488 0.579366 0
502 1 0.369483 0.560267 0
504 1 0.395278 0.567885 0
533 1 0.377053 0.585389 0
534 1 0.400999 0.591839 0
535 1 0.419404 0.575512 0
508 1 0.437868 0.556179 0
537 1 0.444203 0.579655 0
536 1 0.425484 0.598853 0
539 1 0.461813 0.561796 0
540 1 0.486441 0.56853 0
538 1 0.468366 0.585657 0
569 1 0.492908 0.591745 0
543 1 0.0425349 0.601496 0
542 1 0.0221444 0.616582 0
573 1 0.0253138 0.642264 0
544 1 0.0441723 0.62706 0
571 1 0.00222039 0.632911 0
546 1 0.0667401 0.612436 0
547 1 0.0894252 0.621587 0
575 1 0.0680492 0.636388 0
576 1 0.0928455 0.645162 0
548 1 0.109494 0.606946 0
550 1 0.132714 0.615129 0
577 1 0.112247 0.631222 0
579 1 0.136916 0.639293 0
581 1 0.156648 0.623397 0
552 1 0.176109 0.60898 0
582 1 0.18034 0.633086 0
580 1 0.160404 0.648167 0
583 1 0.201204 0.617936 0
584 1 0.203761 0.643116 0
554 1 0.220199 0.602805 0
556 1 0.245381 0.611769 0
585 1 0.224926 0.626797 0
586 1 0.248108 0.63581 0
587 1 0.268901 0.619961 0
558 1 0.288495 0.60369 0
588 1 0.272188 0.646285 0
589 1 0.293475 0.628806 0
560 1 0.315087 0.612362 0
591 1 0.320044 0.636854 0
562 1 0.340107 0.620008 0
593 1 0.346203 0.645383 0
532 1 0.358858 0.602905 0
563 1 0.382195 0.610077 0
564 1 0.365366 0.627995 0
595 1 0.390083 0.635339 0
565 1 0.407356 0.616706 0
566 1 0.432078 0.623416 0
596 1 0.414511 0.640692 0
598 1 0.438479 0.648336 0
567 1 0.44951 0.603789 0
597 1 0.457094 0.627789 0
568 1 0.47355 0.609334 0
570 1 0.481505 0.63543 0
1442 1 0.499435 0.615871 0
572 1 0.00577403 0.65787 0
603 1 0.0294971 0.666894 0
602 1 0.0101327 0.682654 0
633 1 0.0343857 0.691872 0
574 1 0.0486207 0.651315 0
604 1 0.0537808 0.676312 0
605 1 0.0730975 0.660671 0
606 1 0.0772639 0.685361 0
607 1 0.0971238 0.670069 0
635 1 0.0575426 0.701945 0
637 1 0.101993 0.695393 0
578 1 0.116412 0.654879 0
609 1 0.141091 0.664556 0
608 1 0.121497 0.67949 0
639 1 0.144851 0.689173 0
611 1 0.184528 0.659058 0
610 1 0.164654 0.674055 0
612 1 0.188318 0.683402 0
641 1 0.168741 0.698644 0
615 1 0.226665 0.651753 0
613 1 0.206929 0.668294 0
614 1 0.230409 0.676275 0
643 1 0.210793 0.692773 0
617 1 0.250105 0.661184 0
616 1 0.253346 0.686555 0
619 1 0.294324 0.676637 0
618 1 0.27162 0.670668 0
647 1 0.276131 0.694842 0
590 1 0.296169 0.6528 0
621 1 0.316369 0.684824 0
592 1 0.327149 0.661909 0
622 1 0.340351 0.688873 0
623 1 0.353819 0.669516 0
594 1 0.371427 0.652095 0
624 1 0.379528 0.677276 0
653 1 0.363242 0.6959 0
625 1 0.39587 0.658666 0
627 1 0.422018 0.665632 0
626 1 0.404247 0.683423 0
657 1 0.427237 0.691431 0
628 1 0.445374 0.671424 0
599 1 0.463311 0.652322 0
600 1 0.487866 0.659105 0
629 1 0.469057 0.677035 0
630 1 0.493503 0.683272 0
658 1 0.451435 0.695826 0
632 1 0.0132157 0.705889 0
634 1 0.0374347 0.716367 0
663 1 0.0183948 0.731122 0
664 1 0.0418873 0.740613 0
636 1 0.0814096 0.708829 0
665 1 0.0616271 0.726206 0
666 1 0.085676 0.735122 0
667 1 0.104871 0.72023 0
668 1 0.109219 0.745574 0
638 1 0.124737 0.704581 0
640 1 0.147103 0.71272 0
669 1 0.128202 0.729794 0
670 1 0.151909 0.737955 0
642 1 0.191714 0.708195 0
671 1 0.17217 0.723241 0
673 1 0.195754 0.732593 0
672 1 0.175122 0.74735 0
645 1 0.233535 0.701492 0
644 1 0.214354 0.716678 0
675 1 0.237757 0.726872 0
674 1 0.218425 0.743829 0
646 1 0.257919 0.711681 0
677 1 0.261866 0.736462 0
648 1 0.28095 0.7196 0
678 1 0.285551 0.744168 0
649 1 0.298943 0.700899 0
679 1 0.304932 0.725876 0
620 1 0.322332 0.708324 0
651 1 0.345957 0.714201 0
650 1 0.328476 0.732351 0
652 1 0.351621 0.738325 0
655 1 0.385909 0.702568 0
654 1 0.369931 0.721058 0
685 1 0.393576 0.72718 0
683 1 0.375603 0.744122 0
656 1 0.410332 0.708741 0
687 1 0.434688 0.714802 0
686 1 0.416764 0.73177 0
717 1 0.440879 0.738362 0
659 1 0.475702 0.700728 0
689 1 0.459151 0.719901 0
660 1 0.483621 0.724847 0
688 1 0.465447 0.743329 0
690 1 0.490224 0.748323 0
662 1 0.0230553 0.755427 0
694 1 0.0460235 0.764424 0
693 1 0.0264218 0.779981 0
725 1 0.0495696 0.78864 0
692 1 0.00708487 0.794713 0
691 1 0.00282424 0.770199 0
695 1 0.0667397 0.750568 0
697 1 0.0904505 0.761045 0
696 1 0.0707989 0.775267 0
727 1 0.0946984 0.786159 0
699 1 0.13218 0.754451 0
698 1 0.113474 0.770146 0
700 1 0.136453 0.779378 0
728 1 0.116849 0.795916 0
701 1 0.154992 0.763844 0
731 1 0.158465 0.789332 0
702 1 0.177879 0.773946 0
732 1 0.181584 0.798258 0
703 1 0.19708 0.758566 0
676 1 0.241722 0.752106 0
704 1 0.202195 0.785216 0
705 1 0.220889 0.76771 0
735 1 0.226705 0.793586 0
706 1 0.247231 0.778174 0
707 1 0.266719 0.761607 0
709 1 0.271748 0.786338 0
680 1 0.290947 0.768933 0
710 1 0.297855 0.793227 0
681 1 0.309706 0.750868 0
682 1 0.333629 0.756174 0
711 1 0.315601 0.774974 0
712 1 0.340795 0.781546 0
741 1 0.322409 0.799081 0
713 1 0.357931 0.76362 0
714 1 0.381828 0.76883 0
743 1 0.365099 0.788019 0
745 1 0.388931 0.794415 0
684 1 0.399888 0.750026 0
715 1 0.424133 0.756279 0
716 1 0.405995 0.774832 0
747 1 0.430263 0.780684 0
746 1 0.413642 0.80033 0
718 1 0.44916 0.761856 0
719 1 0.473152 0.767619 0
720 1 0.478778 0.792464 0
749 1 0.455048 0.786504 0
1591 1 0.497147 0.77368 0
723 1 0.0294309 0.804053 0
722 1 0.0267848 0.839781 0
751 1 0.0104858 0.820162 0
754 1 0.0509733 0.835082 0
726 1 0.0751575 0.801293 0
724 1 0.0532223 0.81139 0
757 1 0.097894 0.81342 0
755 1 0.0740613 0.825843 0
756 1 0.092357 0.843509 0
729 1 0.138975 0.805511 0
759 1 0.115715 0.833659 0
760 1 0.140867 0.829112 0
730 1 0.162104 0.815593 0
763 1 0.187549 0.821484 0
764 1 0.18517 0.844614 0
761 1 0.159879 0.847037 0
733 1 0.210178 0.810525 0
736 1 0.231969 0.825245 0
734 1 0.208426 0.835548 0
768 1 0.248725 0.848832 0
737 1 0.249903 0.802944 0
708 1 0.277475 0.811426 0
738 1 0.257472 0.825969 0
769 1 0.27388 0.844954 0
740 1 0.297832 0.839483 0
739 1 0.303736 0.816187 0
771 1 0.328628 0.82507 0
742 1 0.346661 0.806072 0
772 1 0.340438 0.849516 0
773 1 0.354107 0.830197 0
744 1 0.370533 0.812173 0
774 1 0.376823 0.837459 0
775 1 0.39454 0.819289 0
776 1 0.402201 0.843425 0
748 1 0.43746 0.804862 0
777 1 0.419872 0.824379 0
779 1 0.445206 0.829722 0
778 1 0.42629 0.847494 0
750 1 0.46124 0.810671 0
1621 1 0.486071 0.815111 0
780 1 0.469288 0.834674 0
1651 1 0.493291 0.840084 0
753 1 0.0447085 0.858104 0
752 1 0.021395 0.863681 0
783 1 0.0379011 0.883047 0
782 1 0.0138504 0.887466 0
785 1 0.068501 0.851704 0
784 1 0.0621519 0.875795 0
786 1 0.0792677 0.895 0
787 1 0.086345 0.868359 0
815 1 0.0553554 0.899757 0
758 1 0.109754 0.862014 0
817 1 0.102905 0.886849 0
789 1 0.134459 0.85316 0
788 1 0.127387 0.878869 0
790 1 0.144666 0.897626 0
791 1 0.150961 0.871555 0
762 1 0.176321 0.867389 0
793 1 0.168835 0.891539 0
795 1 0.194274 0.886217 0
765 1 0.20112 0.862324 0
767 1 0.224971 0.855649 0
796 1 0.217747 0.880138 0
766 1 0.241955 0.873401 0
825 1 0.234995 0.898052 0
797 1 0.266255 0.868417 0
827 1 0.259795 0.892289 0
798 1 0.283438 0.885877 0
799 1 0.291455 0.862459 0
770 1 0.316804 0.855863 0
800 1 0.309695 0.88025 0
801 1 0.335442 0.874242 0
831 1 0.328051 0.896453 0
802 1 0.352757 0.891829 0
803 1 0.360427 0.86533 0
804 1 0.377069 0.88512 0
805 1 0.384294 0.861155 0
807 1 0.409332 0.869356 0
808 1 0.435567 0.872108 0
837 1 0.441969 0.897196 0
809 1 0.452045 0.85305 0
1681 1 0.476074 0.859009 0
1711 1 0.484583 0.882813 0
810 1 0.460685 0.878925 0
813 1 0.030224 0.906127 0
843 1 0.0233636 0.930506 0
844 1 0.0395666 0.948344 0
812 1 0.00630101 0.912764 0
814 1 0.0475728 0.92458 0
845 1 0.0718798 0.918461 0
846 1 0.0642284 0.942462 0
847 1 0.0888883 0.936268 0
816 1 0.0956686 0.912238 0
819 1 0.121549 0.903994 0
818 1 0.113809 0.928888 0
820 1 0.131074 0.946864 0
821 1 0.138268 0.92216 0
792 1 0.162178 0.915424 0
851 1 0.155998 0.939991 0
823 1 0.186519 0.910498 0
822 1 0.18077 0.934591 0
794 1 0.210507 0.903885 0
824 1 0.203959 0.928571 0
885 1 0.222068 0.945229 0
855 1 0.228681 0.921698 0
856 1 0.246515 0.939716 0
826 1 0.253253 0.915906 0
857 1 0.270092 0.933344 0
828 1 0.277404 0.910025 0
859 1 0.295213 0.927924 0
829 1 0.301512 0.903803 0
830 1 0.319883 0.921165 0
861 1 0.336675 0.939958 0
860 1 0.312513 0.946207 0
832 1 0.34437 0.915587 0
863 1 0.36211 0.933702 0
833 1 0.369978 0.909887 0
834 1 0.38775 0.928656 0
806 1 0.395259 0.904349 0
835 1 0.415923 0.923342 0
836 1 0.432311 0.941914 0
865 1 0.406441 0.94606 0
838 1 0.448301 0.922607 0
869 1 0.459328 0.94552 0
839 1 0.46667 0.902901 0
840 1 0.474935 0.926049 0
1712 1 0.491342 0.906371 0
1741 1 0.499514 0.931836 0
842 1 0.0153986 0.954587 0
872 1 0.024254 0.99667 0
873 1 0.0329576 0.972834 0
871 1 0.00695775 0.978472 0
874 1 0.0491126 0.99046 0
875 1 0.0563389 0.965731 0
876 1 0.0739997 0.984758 0
848 1 0.081234 0.959318 0
877 1 0.0983089 0.977637 0
849 1 0.106967 0.953538 0
878 1 0.115007 0.995697 0
879 1 0.123203 0.972009 0
881 1 0.141426 0.988076 0
850 1 0.148339 0.963834 0
853 1 0.172243 0.95916 0
852 1 0.165067 0.982657 0
883 1 0.190151 0.97578 0
854 1 0.196855 0.953082 0
13 1 0.207178 0.993078 0
15 1 0.231742 0.98831 0
884 1 0.215093 0.969252 0
886 1 0.239847 0.963423 0
858 1 0.287248 0.951684 0
887 1 0.263081 0.957108 0
17 1 0.256074 0.981885 0
888 1 0.280493 0.976498 0
19 1 0.298268 0.993453 0
889 1 0.30588 0.969946 0
890 1 0.322706 0.988273 0
891 1 0.329699 0.964716 0
892 1 0.348196 0.982081 0
894 1 0.389804 0.99535 0
862 1 0.353954 0.958125 0
864 1 0.379062 0.951743 0
893 1 0.371972 0.976667 0
895 1 0.396305 0.971331 0
867 1 0.444556 0.966748 0
866 1 0.419957 0.967451 0
896 1 0.414271 0.992627 0
897 1 0.44873 0.990635 0
1771 1 0.492296 0.974878 0
900 1 0.499547 0.997633 0
870 1 0.483397 0.949812 0
899 1 0.474063 0.994367 0
868 1 0.467569 0.970953 0
1680 1 0.00352432 0.845715 0
882 1 0.182762 1.00012 0
902 1 0.533348 0.0259099 0
901 1 0.508341 0.0205655 0
931 1 0.517552 0.0440998 0
903 1 0.52535 0.0023213 0
905 1 0.549941 0.00782079 0
904 1 0.55695 0.0311341 0
906 1 0.574374 0.0131333 0
935 1 0.581371 0.0366854 0
908 1 0.598869 0.0193878 0
937 1 0.607742 0.0424298 0
939 1 0.622924 0.0241116 0
910 1 0.63984 0.00637829 0
938 1 0.632566 0.0482574 0
941 1 0.647043 0.0295763 0
909 1 0.615551 0.000742843 0
912 1 0.66419 0.0121503 0
942 1 0.672538 0.0353347 0
943 1 0.689192 0.0169855 0
973 1 0.696799 0.0406835 0
944 1 0.713689 0.0217177 0
945 1 0.730789 0.00454364 0
946 1 0.738394 0.0283078 0
975 1 0.721117 0.0462783 0
947 1 0.754753 0.00957132 0
948 1 0.762101 0.0329601 0
918 1 0.778777 0.015287 0
979 1 0.788371 0.0373578 0
921 1 0.818196 0.00106809 0
949 1 0.809218 0.0236701 0
951 1 0.834993 0.0182713 0
950 1 0.826353 0.0421956 0
952 1 0.851422 0.0373176 0
953 1 0.859837 0.0118103 0
924 1 0.884251 0.00518339 0
954 1 0.875828 0.0306744 0
985 1 0.892513 0.0481104 0
955 1 0.899939 0.024657 0
926 1 0.92458 0.0174457 0
957 1 0.942066 0.0366609 0
956 1 0.917861 0.042271 0
928 1 0.951143 0.0126615 0
1 1 0.999815 0.00188959 0
959 1 0.966907 0.0322221 0
930 1 0.992028 0.0265122 0
929 1 0.975943 0.00767683 0
960 1 0.983578 0.0495451 0
933 1 0.540988 0.0488877 0
932 1 0.525685 0.0682777 0
962 1 0.533625 0.0912777 0
961 1 0.507983 0.0849848 0
60 1 0.502285 0.0619798 0
963 1 0.549764 0.072903 0
934 1 0.564861 0.0542382 0
965 1 0.574846 0.0786136 0
936 1 0.589241 0.0593373 0
964 1 0.558294 0.0968159 0
966 1 0.59895 0.0831929 0
967 1 0.615756 0.0657491 0
968 1 0.623491 0.0899406 0
969 1 0.640417 0.0721184 0
999 1 0.647796 0.0964008 0
940 1 0.656857 0.0540139 0
970 1 0.664708 0.0782139 0
971 1 0.680794 0.0591149 0
972 1 0.688292 0.0828541 0
1003 1 0.70524 0.0654375 0
1004 1 0.713791 0.088473 0
974 1 0.729879 0.0708771 0
1005 1 0.737631 0.0939934 0
976 1 0.745387 0.0524381 0
1007 1 0.753995 0.0752211 0
977 1 0.770011 0.0564413 0
978 1 0.795089 0.0610262 0
1008 1 0.777919 0.0808364 0
1006 1 0.763182 0.100002 0
980 1 0.819681 0.0661651 0
981 1 0.843676 0.060879 0
1009 1 0.804682 0.0845701 0
1011 1 0.83174 0.0880724 0
982 1 0.861215 0.0781936 0
983 1 0.868174 0.05473 0
984 1 0.885077 0.0716972 0
1013 1 0.878213 0.0952986 0
1015 1 0.902432 0.0894236 0
986 1 0.909441 0.0659206 0
987 1 0.934652 0.0602196 0
1017 1 0.926315 0.0838399 0
988 1 0.951457 0.0782451 0
958 1 0.959612 0.0547593 0
989 1 0.97593 0.0724048 0
990 1 0.994588 0.0915055 0
1019 1 0.96857 0.0967868 0
991 1 0.515739 0.108269 0
992 1 0.522978 0.131986 0
993 1 0.541411 0.114684 0
1023 1 0.548753 0.138532 0
1021 1 0.504501 0.149411 0
995 1 0.583327 0.102586 0
994 1 0.566269 0.120967 0
996 1 0.590876 0.125942 0
1025 1 0.572544 0.144789 0
997 1 0.6084 0.108765 0
998 1 0.63197 0.114752 0
1027 1 0.615485 0.132261 0
1029 1 0.640279 0.138789 0
1001 1 0.672827 0.10209 0
1000 1 0.656918 0.120819 0
1031 1 0.680897 0.126132 0
1030 1 0.664786 0.144412 0
1002 1 0.69757 0.107047 0
1032 1 0.689126 0.149881 0
1033 1 0.706022 0.130641 0
1035 1 0.722552 0.112685 0
1034 1 0.730084 0.135974 0
1036 1 0.746351 0.118308 0
1037 1 0.772665 0.122993 0
1038 1 0.796606 0.126792 0
1067 1 0.755578 0.14242 0
1039 1 0.788549 0.103656 0
1068 1 0.781219 0.147603 0
1010 1 0.814338 0.106838 0
1040 1 0.820299 0.131638 0
1041 1 0.84526 0.125123 0
1071 1 0.838579 0.148852 0
1012 1 0.853854 0.102019 0
1043 1 0.871201 0.119009 0
1014 1 0.895908 0.113169 0
1044 1 0.887287 0.137346 0
1042 1 0.863046 0.142696 0
1018 1 0.94394 0.101977 0
1045 1 0.912979 0.132227 0
1016 1 0.919947 0.108037 0
1047 1 0.937419 0.126226 0
1049 1 0.961319 0.120237 0
1020 1 0.986437 0.115647 0
1050 1 0.977159 0.139092 0
1046 1 0.954634 0.145368 0
1022 1 0.530068 0.155542 0
1053 1 0.536702 0.179404 0
1051 1 0.511858 0.173067 0
1052 1 0.519579 0.196623 0
1026 1 0.597299 0.151577 0
1024 1 0.554144 0.162103 0
1055 1 0.580506 0.167844 0
1054 1 0.562369 0.185464 0
1056 1 0.587188 0.191471 0
1028 1 0.622296 0.156053 0
1057 1 0.605533 0.174397 0
1058 1 0.629706 0.180438 0
1059 1 0.647436 0.162734 0
1087 1 0.611162 0.197667 0
1060 1 0.654755 0.18613 0
1061 1 0.672894 0.168062 0
1091 1 0.679944 0.190838 0
1062 1 0.698068 0.17311 0
1063 1 0.713941 0.15441 0
1064 1 0.722236 0.178481 0
1065 1 0.739308 0.161201 0
1093 1 0.704786 0.196824 0
1095 1 0.746086 0.184983 0
1066 1 0.763501 0.166656 0
1097 1 0.772129 0.190634 0
1099 1 0.789988 0.171727 0
1098 1 0.797364 0.196042 0
1069 1 0.806108 0.152078 0
1070 1 0.82939 0.171794 0
1101 1 0.847006 0.190199 0
1100 1 0.821344 0.197159 0
1072 1 0.856331 0.16722 0
1073 1 0.88065 0.161075 0
1103 1 0.873142 0.185022 0
1074 1 0.897612 0.180753 0
1077 1 0.929364 0.149738 0
1075 1 0.905581 0.156513 0
1076 1 0.922201 0.174609 0
1107 1 0.938503 0.192252 0
1078 1 0.9461 0.167858 0
1105 1 0.915547 0.199266 0
1048 1 0.971789 0.16358 0
151 1 0.995323 0.156866 0
1079 1 0.988776 0.181841 0
1109 1 0.964307 0.187106 0
1083 1 0.544119 0.202656 0
1082 1 0.526417 0.220733 0
1111 1 0.508783 0.23904 0
1113 1 0.534574 0.24462 0
1081 1 0.502612 0.214997 0
1084 1 0.552185 0.227171 0
1085 1 0.568821 0.208767 0
1086 1 0.593586 0.215568 0
1115 1 0.576188 0.233723 0
1117 1 0.601495 0.238501 0
1089 1 0.637849 0.20439 0
1088 1 0.620049 0.221243 0
1119 1 0.64538 0.227598 0
1118 1 0.627236 0.245764 0
1090 1 0.661985 0.210028 0
1092 1 0.688052 0.21453 0
1121 1 0.669961 0.23279 0
1122 1 0.694632 0.239671 0
1094 1 0.728768 0.203244 0
1123 1 0.711992 0.221189 0
1124 1 0.720485 0.245424 0
1125 1 0.738302 0.227277 0
1096 1 0.754435 0.209168 0
1127 1 0.781216 0.215221 0
1126 1 0.763126 0.232445 0
1128 1 0.787336 0.239625 0
1131 1 0.841015 0.213313 0
1129 1 0.80831 0.221063 0
1130 1 0.832563 0.236499 0
1159 1 0.811084 0.245861 0
1102 1 0.866881 0.210765 0
1104 1 0.89078 0.20383 0
1132 1 0.856873 0.232176 0
1133 1 0.882819 0.229364 0
1134 1 0.901234 0.247088 0
1135 1 0.907784 0.223488 0
1106 1 0.931853 0.218114 0
1136 1 0.924835 0.241855 0
1137 1 0.949619 0.236239 0
1108 1 0.955555 0.210801 0
1110 1 0.980852 0.205434 0
1139 1 0.974162 0.228452 0
1140 1 0.991815 0.247256 0
181 1 0.99918 0.222912 0
1112 1 0.517127 0.262235 0
1143 1 0.541703 0.267986 0
1142 1 0.524599 0.285657 0
1144 1 0.549322 0.291672 0
1114 1 0.559524 0.251229 0
1116 1 0.584534 0.257351 0
1145 1 0.566581 0.275134 0
1146 1 0.591505 0.280809 0
1175 1 0.57358 0.300595 0
1147 1 0.608392 0.262228 0
1149 1 0.635081 0.268786 0
1148 1 0.616043 0.285979 0
1179 1 0.64275 0.293096 0