ITEM: TIMESTEP
34000
ITEM: NUMBER OF ATOMS
1800
ITEM: BOX BOUNDS pp pp pp
2.7410896368293720e+00 1.5565891036316992e+02
2.7410896368293720e+00 1.5565891036316992e+02
0.0000000000000000e+00 5.2800000000000002e+00
ITEM: ATOMS id type xs ys zs
2 1 0.0141317 0.0211971 0
3 1 0.0376105 0.0148669 0
33 1 0.0309113 0.0390144 0
31 1 0.00571189 0.0453408 0
4 1 0.0553585 0.0320009 0
6 1 0.0805972 0.0249717 0
5 1 0.0627901 0.00869142 0
37 1 0.0973936 0.0428063 0
7 1 0.0873642 0.00124306 0
8 1 0.104612 0.0192259 0
9 1 0.120575 0.0367522 0
880 1 0.128619 0.0135555 0
10 1 0.145248 0.0298787 0
11 1 0.15289 0.00620847 0
12 1 0.169478 0.0252144 0
43 1 0.187607 0.0428991 0
41 1 0.162407 0.0479674 0
14 1 0.194474 0.0192079 0
44 1 0.21203 0.0356953 0
45 1 0.219092 0.0106078 0
46 1 0.238118 0.0273832 0
16 1 0.245334 0.00398999 0
47 1 0.262438 0.0224127 0
49 1 0.285341 0.0173107 0
48 1 0.280138 0.0405331 0
77 1 0.255076 0.0460361 0
50 1 0.304674 0.0362955 0
20 1 0.30979 0.0120535 0
51 1 0.328169 0.0299713 0
21 1 0.336917 0.00638437 0
52 1 0.346078 0.0492704 0
22 1 0.353895 0.0258851 0
23 1 0.360756 0.00200978 0
24 1 0.378273 0.0198687 0
55 1 0.395391 0.0388291 0
53 1 0.370901 0.0461459 0
25 1 0.401991 0.014212 0
26 1 0.433013 0.0327824 0
27 1 0.425989 0.0088041 0
898 1 0.450759 0.0151588 0
28 1 0.455812 0.0396199 0
29 1 0.473986 0.0226454 0
900 1 0.492025 0.00535502 0
59 1 0.479548 0.046884 0
30 1 0.496665 0.0293387 0
32 1 0.0218173 0.0630182 0
62 1 0.0143276 0.0869448 0
63 1 0.0407461 0.0804661 0
34 1 0.04857 0.0573826 0
35 1 0.073459 0.0483366 0
65 1 0.0646804 0.0744003 0
66 1 0.0840275 0.0894353 0
36 1 0.0902718 0.0670757 0
64 1 0.0562023 0.0978365 0
39 1 0.138653 0.0534177 0
38 1 0.11379 0.0606135 0
67 1 0.107949 0.0848747 0
69 1 0.133058 0.0764612 0
70 1 0.148412 0.0955582 0
40 1 0.156265 0.0711926 0
71 1 0.173018 0.088518 0
42 1 0.180276 0.0650852 0
72 1 0.198511 0.0840337 0
73 1 0.204555 0.0601595 0
74 1 0.223416 0.076387 0
75 1 0.231917 0.0513998 0
106 1 0.242443 0.0941023 0
76 1 0.249509 0.0697652 0
103 1 0.216158 0.100427 0
78 1 0.273287 0.0648766 0
109 1 0.291082 0.0856797 0
107 1 0.266413 0.0889003 0
79 1 0.296713 0.0606646 0
80 1 0.315029 0.0785043 0
81 1 0.322284 0.0543198 0
82 1 0.340073 0.0723791 0
111 1 0.331774 0.0975462 0
54 1 0.392497 0.0648014 0
83 1 0.363975 0.0702179 0
113 1 0.380268 0.0874486 0
112 1 0.356521 0.0999412 0
56 1 0.41607 0.0511435 0
57 1 0.43974 0.0583479 0
85 1 0.42114 0.0764093 0
87 1 0.446497 0.0833944 0
84 1 0.404096 0.0940112 0
86 1 0.428786 0.100525 0
88 1 0.469425 0.0909048 0
58 1 0.46332 0.0646255 0
89 1 0.48728 0.0716743 0
90 1 0.49446 0.0962272 0
93 1 0.0320033 0.104099 0
92 1 0.0257973 0.129082 0
91 1 0.00879327 0.110989 0
123 1 0.0417212 0.1469 0
121 1 0.00106617 0.135875 0
94 1 0.0488667 0.121611 0
95 1 0.0760734 0.11197 0
125 1 0.067099 0.138047 0
96 1 0.0922612 0.130945 0
97 1 0.0999786 0.108053 0
68 1 0.125184 0.102108 0
98 1 0.118227 0.125366 0
99 1 0.141419 0.120676 0
129 1 0.13401 0.143073 0
127 1 0.109107 0.14794 0
100 1 0.165236 0.112181 0
130 1 0.160235 0.136588 0
131 1 0.183468 0.129988 0
101 1 0.189708 0.107137 0
102 1 0.208276 0.12331 0
105 1 0.236273 0.117179 0
104 1 0.227999 0.139154 0
133 1 0.200672 0.147107 0
136 1 0.252462 0.139235 0
135 1 0.260947 0.112392 0
137 1 0.275072 0.132632 0
108 1 0.28858 0.111702 0
139 1 0.301219 0.135265 0
110 1 0.315231 0.115613 0
141 1 0.343913 0.121213 0
140 1 0.326215 0.137933 0
142 1 0.349858 0.145769 0
114 1 0.387013 0.111058 0
143 1 0.368741 0.127817 0
144 1 0.39271 0.136113 0
115 1 0.409284 0.119368 0
116 1 0.434485 0.125189 0
145 1 0.4164 0.143458 0
147 1 0.439785 0.148639 0
117 1 0.452471 0.108871 0
118 1 0.459841 0.131593 0
119 1 0.475624 0.113754 0
149 1 0.48164 0.13906 0
450 1 0.485808 0.481469 0
122 1 0.0176524 0.153534 0
153 1 0.0351327 0.170707 0
152 1 0.0110449 0.178559 0
183 1 0.0285422 0.195751 0
124 1 0.0602553 0.162349 0
126 1 0.0838162 0.156179 0
155 1 0.0788279 0.179594 0
154 1 0.0543256 0.186546 0
156 1 0.0971777 0.196619 0
128 1 0.128361 0.165907 0
157 1 0.103603 0.173344 0
160 1 0.147008 0.183723 0
158 1 0.123249 0.189374 0
159 1 0.152594 0.159922 0
161 1 0.171579 0.176692 0
132 1 0.177409 0.1537 0
162 1 0.187714 0.195622 0
163 1 0.199308 0.174779 0
191 1 0.16432 0.20104 0
134 1 0.219271 0.161993 0
164 1 0.229539 0.18263 0
165 1 0.244412 0.164241 0
166 1 0.253548 0.189275 0
167 1 0.26895 0.171364 0
138 1 0.286511 0.153989 0
168 1 0.292701 0.17678 0
197 1 0.276734 0.195444 0
169 1 0.310859 0.157729 0
171 1 0.334242 0.164342 0
170 1 0.317511 0.181065 0
201 1 0.340875 0.188299 0
172 1 0.357569 0.170878 0
173 1 0.374533 0.153939 0
174 1 0.380891 0.177583 0
203 1 0.364182 0.196725 0
175 1 0.398874 0.160265 0
146 1 0.423717 0.16613 0
177 1 0.446737 0.17319 0
205 1 0.405909 0.182472 0
176 1 0.429714 0.190713 0
148 1 0.464409 0.155823 0
150 1 0.488851 0.161474 0
179 1 0.47065 0.180438 0
178 1 0.453603 0.197657 0
180 1 0.494781 0.18579 0
1080 1 0.00431188 0.202558 0
182 1 0.0209293 0.220027 0
213 1 0.0390807 0.236767 0
211 1 0.0146365 0.245003 0
184 1 0.0462328 0.211643 0
185 1 0.0700445 0.204829 0
186 1 0.0905015 0.219978 0
215 1 0.0629919 0.229508 0
216 1 0.0833726 0.242303 0
187 1 0.114811 0.213148 0
188 1 0.133571 0.230565 0
189 1 0.139503 0.207234 0
217 1 0.109242 0.23659 0
190 1 0.15629 0.224106 0
192 1 0.193833 0.218518 0
221 1 0.1763 0.236443 0
220 1 0.152726 0.24768 0
223 1 0.201555 0.240861 0
193 1 0.212353 0.200084 0
194 1 0.218242 0.224061 0
195 1 0.237152 0.207264 0
225 1 0.242224 0.231322 0
224 1 0.22505 0.248087 0
196 1 0.260802 0.213392 0
198 1 0.284528 0.219566 0
227 1 0.266572 0.237111 0
228 1 0.289974 0.244725 0
199 1 0.299842 0.200137 0
200 1 0.323689 0.206017 0
202 1 0.346188 0.212992 0
229 1 0.307975 0.226196 0
231 1 0.330372 0.232511 0
230 1 0.313912 0.251243 0
204 1 0.389496 0.202536 0
233 1 0.369884 0.221958 0
235 1 0.394066 0.227005 0
232 1 0.353259 0.239742 0
234 1 0.377164 0.244978 0
207 1 0.436655 0.215318 0
206 1 0.417958 0.231191 0
237 1 0.442296 0.238776 0
208 1 0.460144 0.221706 0
209 1 0.478058 0.204261 0
210 1 0.484278 0.229847 0
239 1 0.465273 0.245514 0
212 1 0.00910887 0.268114 0
243 1 0.0328662 0.268591 0
242 1 0.03789 0.30203 0
241 1 0.0143036 0.292119 0
214 1 0.0544132 0.255366 0
244 1 0.0554639 0.283113 0
245 1 0.0769469 0.267539 0
275 1 0.0780978 0.293905 0
247 1 0.0983733 0.281296 0
218 1 0.101019 0.258426 0
219 1 0.125375 0.253031 0
249 1 0.141916 0.269409 0
248 1 0.122252 0.284507 0
250 1 0.14588 0.292653 0
222 1 0.185286 0.259001 0
251 1 0.165651 0.272925 0
252 1 0.18955 0.282411 0
281 1 0.170324 0.297755 0
253 1 0.208068 0.265588 0
255 1 0.231812 0.272475 0
226 1 0.249292 0.255048 0
254 1 0.212694 0.290512 0
285 1 0.236761 0.29605 0
256 1 0.256025 0.278916 0
257 1 0.27353 0.261143 0
259 1 0.295867 0.268391 0
258 1 0.279213 0.286974 0
289 1 0.302221 0.294194 0
260 1 0.319435 0.275645 0
261 1 0.335951 0.257668 0
262 1 0.34343 0.282441 0
263 1 0.359967 0.262622 0
264 1 0.383919 0.268743 0
293 1 0.365746 0.289586 0
295 1 0.390069 0.295056 0
265 1 0.401005 0.250182 0
236 1 0.425029 0.25566 0
266 1 0.407095 0.274443 0
267 1 0.430386 0.280516 0
238 1 0.448351 0.262812 0
297 1 0.413878 0.299423 0
240 1 0.491888 0.253046 0
269 1 0.473049 0.269511 0
268 1 0.455541 0.286178 0
270 1 0.481476 0.2935 0
1141 1 0.499167 0.276359 0
271 1 0.0159954 0.317119 0
272 1 0.0412101 0.326015 0
301 1 0.0218812 0.340555 0
273 1 0.0597087 0.309086 0
276 1 0.0824174 0.31845 0
274 1 0.0646179 0.332993 0
305 1 0.088346 0.343162 0
246 1 0.103642 0.303594 0
279 1 0.127714 0.309463 0
277 1 0.1066 0.327526 0
278 1 0.131189 0.333008 0
280 1 0.152135 0.315477 0
311 1 0.156364 0.340458 0
283 1 0.193202 0.30621 0
282 1 0.175374 0.322713 0
313 1 0.19893 0.330156 0
312 1 0.179681 0.346085 0
284 1 0.217655 0.314352 0
315 1 0.222357 0.338375 0
286 1 0.241649 0.321712 0
316 1 0.245847 0.345902 0
287 1 0.260884 0.302987 0
288 1 0.282701 0.311167 0
317 1 0.265263 0.328948 0
319 1 0.289281 0.335612 0
291 1 0.325938 0.300095 0
290 1 0.307634 0.318979 0
321 1 0.314945 0.343351 0
292 1 0.331525 0.325993 0
323 1 0.350161 0.308321 0
322 1 0.339186 0.35077 0
294 1 0.373353 0.313926 0
296 1 0.397372 0.318347 0
324 1 0.356804 0.332528 0
325 1 0.380289 0.337954 0
326 1 0.404557 0.342021 0
298 1 0.438369 0.305022 0
327 1 0.421322 0.324335 0
328 1 0.447977 0.329016 0
357 1 0.429965 0.346875 0
299 1 0.463487 0.309075 0
300 1 0.489485 0.316236 0
1201 1 0.495786 0.341117 0
329 1 0.471441 0.331643 0
303 1 0.0465196 0.350379 0
331 1 0.0074335 0.382293 0
302 1 0.027034 0.366235 0
332 1 0.0314128 0.391114 0
1230 1 0.00289496 0.357354 0
333 1 0.0510333 0.374612 0
334 1 0.0560331 0.398428 0
304 1 0.0699455 0.358395 0
306 1 0.0946261 0.368186 0
335 1 0.0755312 0.383554 0
337 1 0.0996567 0.392312 0
307 1 0.113582 0.351133 0
309 1 0.138052 0.356268 0
308 1 0.118707 0.375574 0
338 1 0.123687 0.399269 0
339 1 0.142896 0.38203 0
310 1 0.161595 0.364182 0
341 1 0.167125 0.386575 0
343 1 0.18582 0.369705 0
342 1 0.190335 0.393368 0
314 1 0.203707 0.353967 0
345 1 0.226851 0.362504 0
344 1 0.209633 0.37881 0
375 1 0.23321 0.386526 0
346 1 0.252642 0.368934 0
377 1 0.258845 0.393439 0
318 1 0.270146 0.352999 0
349 1 0.296216 0.35896 0
347 1 0.278174 0.376657 0
350 1 0.301462 0.381875 0
320 1 0.319333 0.366626 0
351 1 0.344037 0.374487 0
381 1 0.323149 0.391295 0
352 1 0.346697 0.399447 0
353 1 0.364348 0.35656 0
355 1 0.387298 0.36361 0
354 1 0.369055 0.380413 0
385 1 0.40262 0.385775 0
356 1 0.412816 0.364268 0
387 1 0.428229 0.382919 0
358 1 0.452171 0.378522 0
359 1 0.453494 0.353212 0
330 1 0.476902 0.354546 0
1261 1 0.495568 0.390309 0
360 1 0.476837 0.377062 0
389 1 0.468038 0.398649 0
361 1 0.0120529 0.406731 0
363 1 0.038428 0.416316 0
362 1 0.019833 0.431234 0
364 1 0.0439265 0.439949 0
336 1 0.080688 0.408365 0
365 1 0.0622387 0.423752 0
395 1 0.0686303 0.448083 0
367 1 0.105063 0.416934 0
366 1 0.109249 0.44151 0
340 1 0.148273 0.404846 0
369 1 0.128544 0.42547 0
368 1 0.133552 0.44907 0
370 1 0.15149 0.429926 0
371 1 0.171345 0.409991 0
401 1 0.176126 0.434344 0
372 1 0.19475 0.417765 0
403 1 0.199572 0.440535 0
373 1 0.214386 0.402988 0
374 1 0.220402 0.426135 0
376 1 0.238708 0.409962 0
405 1 0.244411 0.434018 0
404 1 0.224311 0.449863 0
348 1 0.282223 0.401603 0
407 1 0.268121 0.442789 0
378 1 0.262796 0.4187 0
409 1 0.286017 0.425777 0
379 1 0.304981 0.409183 0
380 1 0.31077 0.433303 0
382 1 0.329597 0.417703 0
411 1 0.333668 0.440628 0
383 1 0.369476 0.40576 0
413 1 0.354411 0.424007 0
384 1 0.39352 0.410485 0
414 1 0.380058 0.432303 0
412 1 0.359097 0.449986 0
388 1 0.4441 0.401544 0
415 1 0.410519 0.427447 0
386 1 0.419932 0.405538 0
417 1 0.436402 0.425071 0
418 1 0.453463 0.443787 0
419 1 0.460209 0.420841 0
390 1 0.486979 0.414096 0
420 1 0.477166 0.438513 0
393 1 0.0242535 0.455976 0
422 1 0.00901974 0.4946 0
423 1 0.0298632 0.479726 0
392 1 0.00511602 0.470808 0
394 1 0.0490505 0.463587 0
425 1 0.0527837 0.48827 0
396 1 0.0714615 0.47316 0
426 1 0.0765497 0.497578 0
397 1 0.0913622 0.45717 0
427 1 0.0943969 0.481554 0
459 1 0.142355 0.500083 0
398 1 0.113856 0.465977 0
428 1 0.118685 0.49126 0
429 1 0.138323 0.474955 0
399 1 0.157054 0.455169 0
400 1 0.181092 0.457007 0
430 1 0.161037 0.48418 0
431 1 0.186397 0.479799 0
402 1 0.205254 0.465482 0
432 1 0.208348 0.488914 0
433 1 0.229604 0.474456 0
435 1 0.248503 0.458407 0
434 1 0.233265 0.497744 0
408 1 0.291677 0.450445 0
436 1 0.253034 0.482579 0
406 1 0.273088 0.466863 0
437 1 0.277101 0.491424 0
439 1 0.295636 0.474841 0
438 1 0.299097 0.500082 0
410 1 0.315173 0.457914 0
440 1 0.319162 0.482405 0
441 1 0.338761 0.465828 0
471 1 0.342226 0.495241 0
442 1 0.359892 0.478655 0
473 1 0.381552 0.488684 0
443 1 0.379476 0.462354 0
444 1 0.399688 0.475127 0
445 1 0.401829 0.450608 0
416 1 0.42622 0.448048 0
447 1 0.445603 0.466656 0
446 1 0.422358 0.471058 0
477 1 0.437514 0.490918 0
475 1 0.412386 0.496412 0
449 1 0.470303 0.462404 0
448 1 0.461685 0.486454 0
1321 1 0.494768 0.457016 0
1231 1 0.499151 0.366407 0
391 1 0.00109473 0.446916 0
882 1 0.177938 0.000585099 0
453 1 0.0126161 0.518561 0
452 1 0.0174485 0.542565 0
454 1 0.0361062 0.52813 0
424 1 0.0326661 0.504662 0
485 1 0.0604754 0.536999 0
455 1 0.0566977 0.512655 0
456 1 0.0799738 0.521944 0
486 1 0.083734 0.547914 0
457 1 0.100147 0.508103 0
458 1 0.122316 0.517043 0
487 1 0.104555 0.532813 0
488 1 0.126649 0.542775 0
489 1 0.144045 0.527354 0
460 1 0.164931 0.510515 0
461 1 0.188465 0.503233 0
462 1 0.192087 0.527388 0
491 1 0.167401 0.535158 0
493 1 0.214989 0.536569 0
463 1 0.212058 0.512889 0
464 1 0.234991 0.521261 0
495 1 0.238085 0.545752 0
466 1 0.259089 0.530941 0
465 1 0.258671 0.506778 0
467 1 0.280762 0.516172 0
497 1 0.281886 0.540955 0
468 1 0.302516 0.526878 0
469 1 0.322346 0.511034 0
499 1 0.325059 0.535571 0
470 1 0.345524 0.520882 0
501 1 0.347694 0.545487 0
498 1 0.303647 0.551441 0
472 1 0.364827 0.505161 0
503 1 0.367964 0.529521 0
474 1 0.387551 0.51208 0
505 1 0.391074 0.53847 0
476 1 0.409441 0.522429 0
507 1 0.430888 0.51409 0
506 1 0.413887 0.546781 0
509 1 0.446563 0.53382 0
478 1 0.453903 0.510175 0
479 1 0.478738 0.505212 0
480 1 0.471531 0.529329 0
1381 1 0.494455 0.524284 0
510 1 0.488181 0.548865 0
513 1 0.0192317 0.56832 0
483 1 0.0392638 0.553577 0
514 1 0.0434163 0.578389 0
512 1 0.0230107 0.593046 0
1771 1 0.486476 0.97912 0
484 1 0.0631989 0.563593 0
515 1 0.0866872 0.573715 0
545 1 0.0662989 0.588527 0
516 1 0.0901932 0.597559 0
517 1 0.106224 0.557784 0
518 1 0.109228 0.58221 0
519 1 0.129617 0.566973 0
549 1 0.132232 0.5926 0
490 1 0.15029 0.552743 0
520 1 0.152488 0.578476 0
521 1 0.173181 0.562393 0
492 1 0.195117 0.550676 0
523 1 0.19724 0.574586 0
522 1 0.175073 0.587051 0
553 1 0.197935 0.599771 0
494 1 0.218042 0.560913 0
524 1 0.219146 0.58518 0
525 1 0.24128 0.570481 0
555 1 0.243179 0.594696 0
496 1 0.26122 0.555101 0
526 1 0.263465 0.581973 0
527 1 0.283622 0.566077 0
528 1 0.287108 0.590092 0
529 1 0.306967 0.574744 0
500 1 0.326619 0.559715 0
530 1 0.331057 0.585006 0
531 1 0.351102 0.570028 0
532 1 0.35332 0.594669 0
502 1 0.371833 0.554552 0
504 1 0.394074 0.564232 0
533 1 0.374419 0.579523 0
534 1 0.396839 0.5893 0
535 1 0.41636 0.574064 0
508 1 0.43568 0.557151 0
537 1 0.43912 0.582641 0
536 1 0.418858 0.599551 0
539 1 0.461608 0.554042 0
540 1 0.479258 0.571605 0
538 1 0.46219 0.591106 0
569 1 0.487216 0.594618 0
541 1 0.0031306 0.606257 0
542 1 0.0269297 0.617623 0
571 1 0.00527907 0.632226 0
543 1 0.0461749 0.602022 0
573 1 0.0289415 0.642477 0
544 1 0.0489488 0.626648 0
546 1 0.0709199 0.613823 0
547 1 0.0922141 0.624074 0
575 1 0.0713883 0.637856 0
576 1 0.0937456 0.648224 0
548 1 0.111501 0.608665 0
550 1 0.134641 0.618502 0
577 1 0.114468 0.633794 0
579 1 0.135897 0.643093 0
551 1 0.154903 0.602696 0
581 1 0.157465 0.628995 0
552 1 0.178144 0.614225 0
582 1 0.180828 0.637941 0
554 1 0.220727 0.609558 0
583 1 0.201254 0.624758 0
556 1 0.245564 0.620145 0
585 1 0.223661 0.634966 0
586 1 0.247166 0.644619 0
584 1 0.20457 0.649472 0
557 1 0.266859 0.605715 0
587 1 0.267745 0.629759 0
558 1 0.289448 0.615144 0
589 1 0.290662 0.639048 0
559 1 0.309691 0.598947 0
560 1 0.312352 0.623524 0
561 1 0.332028 0.609985 0
591 1 0.334113 0.634762 0
562 1 0.353239 0.620156 0
563 1 0.375711 0.6037 0
564 1 0.377269 0.62925 0
593 1 0.357406 0.645748 0
565 1 0.398045 0.613833 0
595 1 0.399797 0.638243 0
566 1 0.422293 0.622743 0
567 1 0.44444 0.607544 0
596 1 0.421549 0.6473 0
597 1 0.453446 0.631459 0
1442 1 0.494341 0.619021 0
568 1 0.470689 0.615056 0
570 1 0.477654 0.637761 0
572 1 0.00781917 0.657168 0
603 1 0.0309712 0.66667 0
602 1 0.0084722 0.682952 0
633 1 0.0311423 0.691772 0
574 1 0.05196 0.652013 0
605 1 0.0753734 0.663789 0
604 1 0.0548223 0.676593 0
606 1 0.0773729 0.688197 0
607 1 0.0977199 0.673963 0
637 1 0.100661 0.698129 0
578 1 0.116406 0.65884 0
609 1 0.139885 0.667858 0
608 1 0.120556 0.683202 0
639 1 0.142663 0.693073 0
580 1 0.160441 0.654666 0
611 1 0.18392 0.663537 0
610 1 0.162924 0.678013 0
612 1 0.186526 0.689686 0
613 1 0.206956 0.673766 0
615 1 0.226947 0.659564 0
614 1 0.228896 0.685141 0
643 1 0.20881 0.699478 0
617 1 0.249688 0.669236 0
588 1 0.269505 0.65516 0
619 1 0.293026 0.663234 0
616 1 0.251934 0.693276 0
618 1 0.272672 0.679503 0
590 1 0.314342 0.650699 0
621 1 0.315811 0.674834 0
592 1 0.337127 0.660765 0
622 1 0.339393 0.684817 0
620 1 0.319312 0.69928 0
623 1 0.360385 0.66994 0
594 1 0.380932 0.654621 0
653 1 0.363018 0.694777 0
624 1 0.38376 0.681627 0
625 1 0.403109 0.663862 0
598 1 0.443548 0.655122 0
627 1 0.426508 0.672561 0
626 1 0.407644 0.689826 0
628 1 0.44974 0.678381 0
657 1 0.432171 0.696272 0
599 1 0.466584 0.659204 0
600 1 0.490376 0.663721 0
629 1 0.473657 0.68331 0
630 1 0.49742 0.688363 0
632 1 0.011474 0.707468 0
634 1 0.0363376 0.716564 0
663 1 0.015904 0.732434 0
664 1 0.0386906 0.741696 0
635 1 0.0566799 0.70168 0
636 1 0.0784544 0.71259 0
665 1 0.0599708 0.727919 0
666 1 0.083043 0.737962 0
638 1 0.123583 0.707428 0
667 1 0.103398 0.722652 0
640 1 0.146003 0.719683 0
669 1 0.125901 0.733852 0
668 1 0.105319 0.74853 0
670 1 0.147923 0.744231 0
641 1 0.165884 0.704272 0
642 1 0.187697 0.71491 0
671 1 0.169081 0.730254 0
673 1 0.190704 0.739482 0
645 1 0.232547 0.708362 0
644 1 0.21003 0.723388 0
675 1 0.234592 0.733387 0
674 1 0.213988 0.748534 0
646 1 0.255422 0.718547 0
647 1 0.274473 0.704568 0
677 1 0.257216 0.745053 0
648 1 0.277162 0.729734 0
649 1 0.29694 0.712319 0
679 1 0.299605 0.738847 0
651 1 0.344513 0.709816 0
650 1 0.3196 0.723715 0
652 1 0.345814 0.73395 0
681 1 0.321672 0.74837 0
655 1 0.389259 0.705031 0
654 1 0.367637 0.719424 0
685 1 0.397952 0.728978 0
683 1 0.378022 0.743944 0
656 1 0.414679 0.713162 0
687 1 0.438249 0.72003 0
686 1 0.420874 0.739128 0
717 1 0.445443 0.742691 0
658 1 0.456065 0.702261 0
659 1 0.479924 0.707414 0
689 1 0.463611 0.725877 0
660 1 0.48715 0.731051 0
662 1 0.0177355 0.756407 0
694 1 0.041337 0.766052 0
693 1 0.0211398 0.779783 0
725 1 0.0437464 0.790789 0
692 1 0.000110345 0.79384 0
695 1 0.0604974 0.752445 0
697 1 0.0842434 0.762796 0
696 1 0.0633066 0.777108 0
727 1 0.0851152 0.788822 0
699 1 0.127705 0.758555 0
698 1 0.106446 0.772804 0
700 1 0.130723 0.782177 0
701 1 0.150351 0.768625 0
672 1 0.171028 0.754582 0
703 1 0.19315 0.763921 0
702 1 0.172231 0.779056 0
731 1 0.152323 0.793965 0
704 1 0.194198 0.789156 0
676 1 0.237107 0.757816 0
705 1 0.216271 0.772997 0
706 1 0.237551 0.786142 0
735 1 0.217214 0.801553 0
707 1 0.259394 0.768799 0
678 1 0.279155 0.755148 0
737 1 0.261241 0.793379 0
709 1 0.282385 0.779071 0
680 1 0.302139 0.764794 0
682 1 0.344641 0.757854 0
710 1 0.304649 0.788512 0
711 1 0.324096 0.773036 0
741 1 0.327514 0.796904 0
712 1 0.347522 0.78278 0
713 1 0.366299 0.767092 0
714 1 0.389073 0.773683 0
743 1 0.370736 0.790207 0
745 1 0.394732 0.796533 0
684 1 0.401521 0.753007 0
715 1 0.429314 0.761133 0
716 1 0.412169 0.777674 0
747 1 0.435056 0.784827 0
688 1 0.469404 0.748944 0
718 1 0.453238 0.767252 0
690 1 0.493231 0.754652 0
719 1 0.476978 0.774897 0
720 1 0.482496 0.79933 0
749 1 0.458265 0.791716 0
723 1 0.0231999 0.805423 0
751 1 0.00325435 0.818933 0
722 1 0.0256573 0.830448 0
724 1 0.0445004 0.816363 0
754 1 0.0490976 0.840334 0
1680 1 0.00303302 0.844067 0
726 1 0.0647305 0.802977 0
757 1 0.0896158 0.812943 0
755 1 0.0693678 0.826184 0
756 1 0.0927689 0.837925 0
728 1 0.109649 0.797602 0
729 1 0.132529 0.807498 0
759 1 0.113082 0.823272 0
760 1 0.134823 0.834484 0
758 1 0.115136 0.850605 0
732 1 0.175027 0.804766 0
730 1 0.154434 0.819402 0
761 1 0.156619 0.846892 0
763 1 0.176857 0.831541 0
733 1 0.197002 0.815685 0
736 1 0.240364 0.81027 0
764 1 0.199952 0.84123 0
734 1 0.220657 0.825435 0
767 1 0.244613 0.834443 0
708 1 0.283789 0.803029 0
738 1 0.263362 0.817627 0
768 1 0.267441 0.843338 0
769 1 0.287988 0.827755 0
739 1 0.307506 0.812245 0
740 1 0.310965 0.836585 0
771 1 0.331352 0.822591 0
772 1 0.336237 0.846689 0
742 1 0.351194 0.807244 0
773 1 0.357564 0.830774 0
744 1 0.37619 0.813291 0
774 1 0.380312 0.838856 0
775 1 0.398845 0.822193 0
746 1 0.417777 0.802373 0
748 1 0.439853 0.809245 0
777 1 0.4231 0.826707 0
779 1 0.445687 0.833843 0
776 1 0.405497 0.846233 0
750 1 0.463853 0.816714 0
1621 1 0.490139 0.82434 0
780 1 0.471302 0.841125 0
1651 1 0.497358 0.8474 0
753 1 0.0373885 0.860744 0
752 1 0.0136884 0.865598 0
783 1 0.0322321 0.884984 0
782 1 0.00825048 0.890174 0
815 1 0.0484824 0.903282 0
785 1 0.068562 0.853796 0
784 1 0.0559504 0.878005 0
786 1 0.072294 0.897415 0
787 1 0.0917576 0.86361 0
817 1 0.0950987 0.88832 0
789 1 0.136302 0.861391 0
788 1 0.116404 0.876052 0
790 1 0.139558 0.885987 0
762 1 0.180063 0.856648 0
791 1 0.1593 0.871112 0
792 1 0.162801 0.896169 0
793 1 0.184624 0.880904 0
765 1 0.223647 0.850247 0
795 1 0.203696 0.865585 0
794 1 0.207938 0.892079 0
796 1 0.226876 0.875907 0
825 1 0.230661 0.900938 0
766 1 0.24612 0.858567 0
797 1 0.268112 0.86775 0
827 1 0.253753 0.890455 0
799 1 0.291107 0.854215 0
798 1 0.279268 0.888471 0
770 1 0.314886 0.859972 0
800 1 0.302225 0.879727 0
801 1 0.335558 0.872523 0
831 1 0.324218 0.8952 0
802 1 0.353688 0.890228 0
803 1 0.358293 0.864514 0
804 1 0.378708 0.886607 0
805 1 0.386047 0.863031 0
778 1 0.429472 0.851762 0
807 1 0.405054 0.881094 0
808 1 0.430745 0.877438 0
809 1 0.45253 0.856799 0
1681 1 0.476888 0.864601 0
1711 1 0.482811 0.8874 0
810 1 0.45637 0.880769 0
813 1 0.0248581 0.909187 0
843 1 0.0178786 0.932784 0
814 1 0.0422276 0.927795 0
844 1 0.0338526 0.951326 0
816 1 0.0899871 0.913735 0
845 1 0.0657477 0.921005 0
846 1 0.0588141 0.943563 0
847 1 0.0834633 0.937056 0
819 1 0.117567 0.902318 0
818 1 0.108735 0.928738 0
820 1 0.125414 0.946917 0
821 1 0.144024 0.911917 0
851 1 0.147136 0.937752 0
823 1 0.186199 0.905705 0
822 1 0.170416 0.924682 0
824 1 0.199574 0.92732 0
885 1 0.216405 0.947162 0
855 1 0.224015 0.923643 0
856 1 0.24298 0.939349 0
826 1 0.249097 0.915623 0
857 1 0.26595 0.934236 0
828 1 0.272849 0.911342 0
859 1 0.292831 0.927267 0
829 1 0.298513 0.903598 0
860 1 0.309888 0.944618 0
830 1 0.317199 0.920647 0
832 1 0.343219 0.912471 0
861 1 0.333859 0.93823 0
806 1 0.394824 0.905627 0
863 1 0.359189 0.932546 0
833 1 0.369458 0.907928 0
834 1 0.383471 0.92844 0
865 1 0.400394 0.946966 0
837 1 0.421062 0.901333 0
835 1 0.409721 0.924583 0
836 1 0.427886 0.942877 0
838 1 0.447383 0.921371 0
869 1 0.453393 0.947094 0
839 1 0.46501 0.903835 0
840 1 0.470806 0.928412 0
1712 1 0.489259 0.912477 0
1741 1 0.494603 0.935897 0
842 1 0.0107059 0.956757 0
872 1 0.0211853 0.996565 0
873 1 0.0284102 0.97415 0
871 1 0.00229544 0.979946 0
874 1 0.0466399 0.991427 0
875 1 0.0530955 0.966151 0
876 1 0.070275 0.984857 0
848 1 0.0759358 0.960023 0
877 1 0.0945683 0.976939 0
849 1 0.101768 0.953433 0
878 1 0.111023 0.994816 0
879 1 0.118531 0.970135 0
881 1 0.134952 0.988976 0
850 1 0.14276 0.964277 0
854 1 0.190792 0.950681 0
853 1 0.165569 0.953827 0
852 1 0.160572 0.981165 0
883 1 0.183485 0.973468 0
812 1 0.000452572 0.914994 0
13 1 0.20214 0.993056 0
15 1 0.227759 0.987735 0
884 1 0.209229 0.970279 0
886 1 0.234365 0.963123 0
858 1 0.285315 0.950484 0
887 1 0.259486 0.95696 0
17 1 0.253034 0.980172 0
888 1 0.277749 0.974012 0
19 1 0.293532 0.993193 0
18 1 0.269692 0.998164 0
889 1 0.302223 0.969376 0
890 1 0.31753 0.988663 0
892 1 0.344216 0.983568 0
891 1 0.327262 0.965696 0
862 1 0.351374 0.956368 0
864 1 0.375164 0.952417 0
894 1 0.384212 0.995077 0
893 1 0.366919 0.974982 0
895 1 0.390731 0.972203 0
866 1 0.41521 0.96489 0
896 1 0.408678 0.989645 0
867 1 0.43922 0.967544 0
897 1 0.446105 0.991459 0
899 1 0.468615 0.996836 0
870 1 0.477607 0.954617 0
868 1 0.462583 0.974133 0
902 1 0.539584 0.0194163 0
901 1 0.515474 0.0122832 0
931 1 0.520804 0.0354088 0
933 1 0.544703 0.0432063 0
904 1 0.562928 0.0261772 0
906 1 0.579063 0.00838983 0
935 1 0.586742 0.0314345 0
905 1 0.555086 0.00183556 0
908 1 0.603604 0.0153762 0
937 1 0.610304 0.0387668 0
939 1 0.62793 0.0205184 0
938 1 0.63357 0.0450283 0
910 1 0.646283 0.00469147 0
941 1 0.651631 0.028607 0
912 1 0.669766 0.0100839 0
942 1 0.677648 0.0330897 0
943 1 0.694619 0.016146 0
973 1 0.702061 0.039443 0
944 1 0.720263 0.022487 0
945 1 0.736666 0.00446205 0
946 1 0.744759 0.0291381 0
975 1 0.72688 0.0457509 0
947 1 0.761093 0.011331 0
948 1 0.768879 0.0366167 0
918 1 0.786456 0.0178727 0
979 1 0.794684 0.0462082 0
921 1 0.821124 0.00423522 0
949 1 0.809793 0.0263923 0
951 1 0.833815 0.0241982 0
950 1 0.824836 0.0474689 0
952 1 0.851091 0.0416582 0
953 1 0.859384 0.0173717 0
924 1 0.883984 0.0100896 0
954 1 0.875054 0.0360472 0
955 1 0.899601 0.0290608 0
925 1 0.906606 0.00506332 0
926 1 0.923017 0.0228856 0
957 1 0.939998 0.0410665 0
956 1 0.915694 0.0471102 0
928 1 0.947408 0.0160745 0
1 1 0.995851 0.00383837 0
959 1 0.964412 0.0335015 0
930 1 0.989382 0.0273634 0
929 1 0.970584 0.00950974 0
932 1 0.528369 0.0618786 0
962 1 0.535578 0.0868884 0
961 1 0.511642 0.0789168 0
60 1 0.503674 0.0532498 0
934 1 0.569567 0.0499101 0
963 1 0.552065 0.0676131 0
965 1 0.576287 0.0747055 0
964 1 0.558337 0.0918367 0
936 1 0.593019 0.0573909 0
995 1 0.58305 0.0987726 0
966 1 0.600392 0.0805935 0
967 1 0.617757 0.0636209 0
968 1 0.623499 0.0872945 0
969 1 0.642018 0.0687285 0
999 1 0.649079 0.0917765 0
940 1 0.659488 0.0510054 0
970 1 0.667468 0.0749493 0
971 1 0.685199 0.057738 0
972 1 0.691828 0.0815155 0
1001 1 0.673737 0.0983947 0
1003 1 0.708523 0.0641565 0
1004 1 0.71809 0.0873537 0
974 1 0.733641 0.0693672 0
1005 1 0.741068 0.0935932 0
976 1 0.75161 0.0532482 0
1007 1 0.75872 0.0784807 0
977 1 0.775691 0.0586913 0
978 1 0.796449 0.0720458 0
1008 1 0.787651 0.0974226 0
980 1 0.820459 0.0728939 0
981 1 0.843741 0.0663839 0
1009 1 0.812776 0.0958374 0
1011 1 0.837834 0.0908208 0
985 1 0.892301 0.0536225 0
982 1 0.861431 0.0838731 0
983 1 0.868156 0.0599504 0
984 1 0.884503 0.079675 0
1015 1 0.903444 0.0956 0
986 1 0.909146 0.0708755 0
987 1 0.932422 0.0651641 0
1017 1 0.925747 0.0895234 0
988 1 0.949878 0.0829979 0
960 1 0.981407 0.050856 0
958 1 0.95662 0.0576896 0
989 1 0.973424 0.0762896 0
990 1 0.990989 0.0931872 0
61 1 0.996434 0.0700458 0
991 1 0.517523 0.104193 0
992 1 0.525072 0.127649 0
993 1 0.541574 0.110028 0
1023 1 0.549017 0.134499 0
1021 1 0.506784 0.144172 0
994 1 0.565237 0.115712 0
996 1 0.589 0.122537 0
1025 1 0.572226 0.140491 0
1026 1 0.596452 0.14778 0
997 1 0.606538 0.10474 0
998 1 0.629681 0.112373 0
1027 1 0.613061 0.129484 0
1029 1 0.637355 0.134705 0
1000 1 0.654861 0.115668 0
1031 1 0.681598 0.122213 0
1002 1 0.699225 0.104621 0
1030 1 0.661886 0.139822 0
1032 1 0.687937 0.145123 0
1033 1 0.705882 0.127773 0
1035 1 0.724898 0.111798 0
1034 1 0.729202 0.13662 0
1006 1 0.763335 0.10347 0
1037 1 0.778 0.122209 0
1036 1 0.749482 0.123345 0
1038 1 0.794301 0.142616 0
1067 1 0.767085 0.143245 0
1039 1 0.802834 0.117739 0
1010 1 0.828398 0.114669 0
1041 1 0.846116 0.131034 0
1040 1 0.821065 0.137917 0
1013 1 0.879426 0.103502 0
1012 1 0.853939 0.107735 0
1043 1 0.87043 0.12613 0
1014 1 0.89521 0.120239 0
1044 1 0.887869 0.144815 0
1045 1 0.911817 0.13836 0
1016 1 0.919137 0.114678 0
1047 1 0.936041 0.13343 0
1018 1 0.942642 0.107962 0
1019 1 0.967208 0.101131 0
1049 1 0.960291 0.125808 0
1020 1 0.984943 0.118696 0
1050 1 0.978352 0.142222 0
1046 1 0.953382 0.150613 0
1022 1 0.531541 0.150827 0
1053 1 0.53817 0.17544 0
1051 1 0.513837 0.169251 0
1052 1 0.519088 0.192298 0
1083 1 0.544947 0.200319 0
1024 1 0.555171 0.158298 0
1055 1 0.57859 0.163841 0
1054 1 0.561765 0.182492 0
1056 1 0.586235 0.189101 0
1028 1 0.61988 0.153475 0
1057 1 0.603083 0.171187 0
1058 1 0.628253 0.17732 0
1059 1 0.644056 0.158038 0
1087 1 0.611171 0.193467 0
1089 1 0.635203 0.200256 0
1060 1 0.652491 0.181228 0
1061 1 0.66918 0.162483 0
1062 1 0.694532 0.170172 0
1091 1 0.677665 0.186918 0
1093 1 0.702191 0.193237 0
1063 1 0.711703 0.152136 0
1064 1 0.718731 0.175202 0
1065 1 0.737434 0.158919 0
1095 1 0.744408 0.182025 0
1094 1 0.726735 0.19955 0
1066 1 0.763961 0.167199 0
1068 1 0.789392 0.166149 0
1097 1 0.777589 0.188884 0
1069 1 0.813612 0.16116 0
1071 1 0.838431 0.155796 0
1070 1 0.830866 0.180063 0
1099 1 0.805722 0.185002 0
1101 1 0.847112 0.19827 0
1042 1 0.86267 0.149276 0
1072 1 0.854667 0.17393 0
1073 1 0.879769 0.167322 0
1103 1 0.872558 0.193023 0
1074 1 0.896308 0.187093 0
1075 1 0.903687 0.163302 0
1077 1 0.928867 0.157225 0
1076 1 0.921166 0.180713 0
1078 1 0.945285 0.174564 0
1107 1 0.93768 0.198131 0
1048 1 0.970065 0.169557 0
151 1 0.994204 0.161238 0
1079 1 0.986409 0.186301 0
1109 1 0.962269 0.192586 0
1081 1 0.501038 0.209938 0
1082 1 0.526592 0.216152 0
1111 1 0.508869 0.23319 0
1113 1 0.532942 0.23904 0
1084 1 0.5517 0.223284 0
1085 1 0.569398 0.206557 0
1086 1 0.594171 0.212695 0
1114 1 0.558469 0.247257 0
1115 1 0.575625 0.22978 0
1117 1 0.6004 0.235673 0
1088 1 0.617546 0.217559 0
1119 1 0.642141 0.223181 0
1118 1 0.623954 0.240649 0
1120 1 0.648874 0.247859 0
1090 1 0.659991 0.206304 0
1092 1 0.683612 0.211898 0
1121 1 0.666707 0.22945 0
1122 1 0.69121 0.234517 0
1123 1 0.708743 0.216043 0
1124 1 0.715899 0.240263 0
1125 1 0.734659 0.22307 0
1155 1 0.740881 0.247071 0
1096 1 0.752363 0.204902 0
1127 1 0.776057 0.213284 0
1126 1 0.758857 0.229923 0
1128 1 0.792598 0.233563 0
1098 1 0.799445 0.210194 0
1100 1 0.822953 0.204326 0
1131 1 0.841373 0.222849 0
1129 1 0.817592 0.229165 0
1130 1 0.834979 0.247088 0
1102 1 0.865525 0.21773 0
1104 1 0.890011 0.211668 0
1132 1 0.858667 0.240473 0
1133 1 0.883508 0.23554 0
1105 1 0.913672 0.204846 0
1135 1 0.908779 0.230233 0
1106 1 0.931915 0.223211 0
1136 1 0.925449 0.248258 0
181 1 0.997162 0.228435 0
1137 1 0.948265 0.240494 0
1108 1 0.955409 0.214918 0
1110 1 0.979717 0.210711 0
1139 1 0.971552 0.233932 0
1112 1 0.5151 0.257757 0
1143 1 0.5414 0.263442 0
1142 1 0.523422 0.281771 0
1144 1 0.548089 0.287842 0
1171 1 0.507009 0.30016 0
1116 1 0.583748 0.253215 0
1145 1 0.565863 0.270642 0
1146 1 0.590555 0.277566 0
1175 1 0.572206 0.29425 0
1177 1 0.597263 0.30123 0
1147 1 0.607415 0.258702 0
1149 1 0.631474 0.265877 0
1148 1 0.614146 0.283947 0