ITEM: TIMESTEP
106000
ITEM: NUMBER OF ATOMS
1800
ITEM: BOX BOUNDS pp pp pp
2.9976750717181915e+00 1.5540232492827724e+02
2.9976750717181915e+00 1.5540232492827724e+02
0.0000000000000000e+00 5.2800000000000002e+00
ITEM: ATOMS id type xs ys zs
2 1 0.0175095 0.0169689 0
3 1 0.04333 0.0124241 0
33 1 0.0339127 0.0352548 0
31 1 0.0103946 0.0434598 0
1 1 0.000588011 -0.000812691 0
4 1 0.0598447 0.0291422 0
6 1 0.0856614 0.0261787 0
5 1 0.0690425 0.00675904 0
35 1 0.0768296 0.0487053 0
7 1 0.092429 -6.15016e-05 0
37 1 0.102163 0.0427148 0
8 1 0.108704 0.0181035 0
9 1 0.126408 0.0363633 0
880 1 0.135344 0.0135278 0
10 1 0.152494 0.0295485 0
11 1 0.160558 0.00472834 0
12 1 0.177081 0.0237437 0
43 1 0.194213 0.0415043 0
41 1 0.169441 0.0479844 0
882 1 0.184959 -0.000423989 0
14 1 0.20156 0.0177417 0
44 1 0.218911 0.035742 0
45 1 0.225696 0.0126289 0
46 1 0.244051 0.0309289 0
16 1 0.253259 0.00738502 0
47 1 0.267868 0.0268418 0
49 1 0.293268 0.0210107 0
48 1 0.28656 0.0448351 0
18 1 0.277281 0.000798588 0
77 1 0.260698 0.0499978 0
50 1 0.310817 0.038701 0
20 1 0.318185 0.0146736 0
51 1 0.335644 0.0333403 0
21 1 0.341848 0.00825985 0
22 1 0.359729 0.028997 0
24 1 0.383779 0.0223164 0
53 1 0.37701 0.0463417 0
23 1 0.366559 0.00405812 0
55 1 0.400408 0.0408403 0
25 1 0.408899 0.0179598 0
26 1 0.425562 0.0355031 0
27 1 0.434765 0.012149 0
28 1 0.451406 0.0367115 0
30 1 0.494758 0.0373687 0
898 1 0.459183 0.0111895 0
29 1 0.484747 0.0148276 0
32 1 0.0270162 0.0605425 0
62 1 0.0174514 0.0837898 0
63 1 0.0445005 0.078611 0
61 1 0.00168414 0.0665762 0
34 1 0.051649 0.0540935 0
65 1 0.069411 0.0725415 0
66 1 0.0856542 0.0904906 0
36 1 0.0928198 0.065839 0
64 1 0.060937 0.0965037 0
39 1 0.144829 0.0541748 0
38 1 0.118853 0.0596735 0
67 1 0.111738 0.0835527 0
69 1 0.136146 0.0768664 0
70 1 0.152999 0.0959403 0
40 1 0.161758 0.0722903 0
71 1 0.176564 0.091019 0
42 1 0.185843 0.066427 0
72 1 0.200673 0.0848908 0
73 1 0.211462 0.058819 0
74 1 0.227981 0.0775598 0
75 1 0.235943 0.05394 0
106 1 0.244198 0.0971609 0
76 1 0.252275 0.0730201 0
78 1 0.278329 0.0694843 0
109 1 0.296184 0.0877977 0
107 1 0.271121 0.0942109 0
79 1 0.303455 0.0633408 0
80 1 0.319174 0.0834548 0
81 1 0.327582 0.0576125 0
82 1 0.345569 0.0759653 0
52 1 0.352043 0.0519913 0
83 1 0.369179 0.0689672 0
113 1 0.37891 0.0929064 0
54 1 0.394978 0.0730414 0
56 1 0.415219 0.0584658 0
57 1 0.438569 0.0578821 0
85 1 0.419561 0.0815279 0
87 1 0.44301 0.0897329 0
59 1 0.475661 0.0526728 0
88 1 0.466483 0.0958402 0
58 1 0.460213 0.0709748 0
89 1 0.484041 0.0780362 0
93 1 0.0350494 0.102326 0
92 1 0.02824 0.126655 0
91 1 0.0101101 0.109003 0
121 1 0.00292305 0.133275 0
123 1 0.0454969 0.143167 0
94 1 0.0533349 0.11924 0
95 1 0.0785752 0.114815 0
125 1 0.0704715 0.137706 0
96 1 0.0946838 0.133128 0
68 1 0.12829 0.101409 0
97 1 0.102818 0.108588 0
98 1 0.119601 0.126543 0
99 1 0.144402 0.120686 0
129 1 0.135662 0.144727 0
127 1 0.112514 0.150145 0
100 1 0.168475 0.114523 0
130 1 0.160322 0.138717 0
131 1 0.184245 0.133222 0
101 1 0.193163 0.109201 0
133 1 0.202111 0.149764 0
103 1 0.217582 0.102552 0
102 1 0.210307 0.126568 0
105 1 0.235355 0.121677 0
104 1 0.227633 0.144767 0
135 1 0.259946 0.116841 0
137 1 0.277002 0.135461 0
108 1 0.289221 0.112253 0
136 1 0.252698 0.140985 0
111 1 0.337284 0.099781 0
139 1 0.300838 0.137649 0
110 1 0.317888 0.118991 0
141 1 0.342517 0.127022 0
140 1 0.325819 0.144785 0
112 1 0.359807 0.110189 0
114 1 0.38468 0.116777 0
143 1 0.367395 0.133411 0
144 1 0.392315 0.140673 0
84 1 0.401967 0.0998654 0
86 1 0.425606 0.105863 0
115 1 0.409242 0.123557 0
116 1 0.432401 0.12924 0
145 1 0.416478 0.147374 0
117 1 0.449715 0.11364 0
90 1 0.491471 0.101194 0
118 1 0.456067 0.137033 0
119 1 0.474789 0.119213 0
149 1 0.481092 0.143083 0
120 1 0.498664 0.125633 0
122 1 0.0198752 0.15062 0
153 1 0.0379141 0.169011 0
152 1 0.0134957 0.174376 0
183 1 0.0289179 0.192741 0
1080 1 0.00480719 0.199049 0
124 1 0.0618474 0.16218 0
126 1 0.0879087 0.156449 0
155 1 0.0794525 0.179671 0
154 1 0.054767 0.185706 0
156 1 0.0953179 0.198239 0
128 1 0.128921 0.168493 0
157 1 0.103655 0.174445 0
160 1 0.14595 0.187789 0
158 1 0.120724 0.192694 0
132 1 0.177235 0.15781 0
159 1 0.153386 0.164696 0
161 1 0.169909 0.181666 0
162 1 0.18684 0.19793 0
163 1 0.196848 0.175064 0
134 1 0.218936 0.167628 0
164 1 0.230057 0.187554 0
165 1 0.243919 0.1681 0
166 1 0.252507 0.194121 0
167 1 0.268603 0.17516 0
138 1 0.285801 0.157977 0
168 1 0.292483 0.182707 0
197 1 0.275993 0.200154 0
169 1 0.309476 0.164179 0
171 1 0.334244 0.169162 0
170 1 0.314864 0.187643 0
201 1 0.340511 0.194122 0
142 1 0.34959 0.15076 0
172 1 0.357809 0.176035 0
173 1 0.375151 0.158164 0
174 1 0.381318 0.182757 0
175 1 0.398594 0.164824 0
147 1 0.439598 0.154459 0
146 1 0.42174 0.171482 0
205 1 0.405712 0.190021 0
176 1 0.430022 0.195929 0
177 1 0.447098 0.178625 0
148 1 0.463715 0.159804 0
150 1 0.488274 0.166345 0
179 1 0.471656 0.184352 0
180 1 0.495995 0.190691 0
182 1 0.0208136 0.218014 0
213 1 0.0385261 0.235192 0
211 1 0.0143074 0.241417 0
184 1 0.0469616 0.210894 0
185 1 0.0706075 0.203596 0
186 1 0.0868825 0.221424 0
215 1 0.0627412 0.229386 0
216 1 0.0797509 0.246374 0
187 1 0.112848 0.216119 0
188 1 0.128807 0.234961 0
189 1 0.137071 0.210008 0
217 1 0.103285 0.238758 0
191 1 0.162794 0.206077 0
190 1 0.151973 0.229457 0
192 1 0.193965 0.220774 0
221 1 0.175953 0.235886 0
223 1 0.199508 0.245171 0
193 1 0.211222 0.203189 0
194 1 0.217676 0.227975 0
195 1 0.234977 0.211692 0
225 1 0.240149 0.23556 0
196 1 0.258413 0.217528 0
198 1 0.282805 0.224442 0
227 1 0.263831 0.241454 0
228 1 0.287685 0.248561 0
199 1 0.299488 0.206258 0
200 1 0.323722 0.212634 0
229 1 0.306216 0.230218 0
231 1 0.329502 0.237048 0
202 1 0.347075 0.21933 0
203 1 0.365012 0.20082 0
204 1 0.387658 0.208458 0
233 1 0.370283 0.226868 0
235 1 0.394812 0.233016 0
232 1 0.353336 0.244946 0
207 1 0.434821 0.220004 0
206 1 0.418539 0.238301 0
237 1 0.443192 0.243456 0
178 1 0.453445 0.20279 0
208 1 0.460681 0.225857 0
209 1 0.478394 0.207812 0
210 1 0.484708 0.232312 0
212 1 0.00600816 0.265305 0
243 1 0.0317075 0.258566 0
242 1 0.022176 0.28239 0
244 1 0.0474759 0.277718 0
214 1 0.0556169 0.253104 0
245 1 0.0716531 0.270347 0
247 1 0.0775964 0.292812 0
218 1 0.0955128 0.276091 0
219 1 0.117198 0.258868 0
249 1 0.139628 0.269242 0
248 1 0.119317 0.284469 0
250 1 0.144132 0.293401 0
220 1 0.15832 0.252864 0
222 1 0.181305 0.260637 0
251 1 0.163637 0.277627 0
252 1 0.186656 0.285097 0
224 1 0.223754 0.252689 0
253 1 0.20507 0.269579 0
255 1 0.229311 0.27746 0
254 1 0.210203 0.29312 0
226 1 0.24664 0.259592 0
285 1 0.235096 0.300804 0
256 1 0.253178 0.284689 0
257 1 0.270564 0.266328 0
259 1 0.29476 0.272073 0
258 1 0.278427 0.291116 0
289 1 0.301578 0.296889 0
230 1 0.312068 0.254076 0
260 1 0.318571 0.278668 0
261 1 0.335165 0.261924 0
262 1 0.34288 0.286345 0
234 1 0.377127 0.249233 0
263 1 0.360291 0.267634 0
264 1 0.385016 0.274002 0
293 1 0.366406 0.29194 0
295 1 0.391058 0.298574 0
265 1 0.402092 0.25671 0
236 1 0.427675 0.263734 0
266 1 0.408917 0.280443 0
267 1 0.43351 0.286602 0
238 1 0.45035 0.268154 0
239 1 0.468605 0.250207 0
240 1 0.492078 0.256871 0
269 1 0.474916 0.275201 0
268 1 0.457661 0.293551 0
270 1 0.48142 0.298976 0
1141 1 0.49881 0.281366 0
273 1 0.0385502 0.300297 0
271 1 0.0157453 0.312664 0
272 1 0.0392806 0.324136 0
301 1 0.0196354 0.338318 0
303 1 0.0460811 0.348461 0
275 1 0.0601893 0.31012 0
276 1 0.083822 0.317109 0
274 1 0.065964 0.334365 0
305 1 0.0882014 0.343409 0
246 1 0.101988 0.300664 0
279 1 0.125733 0.308018 0
277 1 0.107385 0.325716 0
278 1 0.130129 0.333764 0
280 1 0.148701 0.317198 0
281 1 0.167576 0.301221 0
311 1 0.154174 0.342653 0
283 1 0.190735 0.309823 0
282 1 0.172712 0.326048 0
313 1 0.196495 0.333309 0
284 1 0.215021 0.316707 0
315 1 0.21967 0.341622 0
286 1 0.239017 0.325169 0
316 1 0.245835 0.347968 0
287 1 0.258185 0.308605 0
288 1 0.282661 0.314445 0
317 1 0.263489 0.332727 0
319 1 0.28792 0.338318 0
291 1 0.325487 0.302931 0
290 1 0.306839 0.32022 0
321 1 0.311254 0.344828 0
292 1 0.330663 0.328831 0
323 1 0.348129 0.311116 0
294 1 0.372275 0.316124 0
324 1 0.355183 0.334235 0
325 1 0.379125 0.342317 0
296 1 0.395408 0.322845 0
326 1 0.402651 0.347831 0
297 1 0.415111 0.304742 0
298 1 0.437944 0.31203 0
327 1 0.419711 0.329812 0
328 1 0.443532 0.336563 0
299 1 0.463158 0.317318 0
300 1 0.488162 0.323819 0
1201 1 0.493728 0.347496 0
329 1 0.46938 0.342096 0
331 1 0.00559137 0.378423 0
302 1 0.0243909 0.363626 0
332 1 0.0298425 0.388173 0
333 1 0.0488672 0.373634 0
1230 1 0.00105084 0.354372 0
334 1 0.0546629 0.39821 0
304 1 0.0694961 0.35878 0
306 1 0.0942154 0.366973 0
335 1 0.0734507 0.381705 0
337 1 0.0985359 0.391238 0
307 1 0.112444 0.350444 0
309 1 0.136002 0.358542 0
308 1 0.116487 0.374792 0
339 1 0.140046 0.383097 0
338 1 0.121165 0.400344 0
312 1 0.177816 0.350459 0
310 1 0.159237 0.367958 0
341 1 0.16494 0.391097 0
343 1 0.182636 0.3751 0
342 1 0.189669 0.398485 0
314 1 0.201336 0.357272 0
345 1 0.225638 0.364509 0
344 1 0.207769 0.381604 0
375 1 0.232942 0.388674 0
346 1 0.250725 0.371996 0
377 1 0.255473 0.396412 0
318 1 0.269474 0.355704 0
349 1 0.292799 0.362473 0
347 1 0.274582 0.380863 0
350 1 0.299748 0.387604 0
322 1 0.335002 0.352792 0
320 1 0.316401 0.369236 0
351 1 0.341493 0.376465 0
381 1 0.322481 0.393699 0
353 1 0.359972 0.35917 0
355 1 0.385407 0.366695 0
354 1 0.364475 0.382772 0
385 1 0.389544 0.391126 0
357 1 0.426174 0.353849 0
356 1 0.409932 0.372329 0
387 1 0.434315 0.37759 0
386 1 0.415026 0.39634 0
359 1 0.451967 0.359401 0
358 1 0.459155 0.383125 0
330 1 0.475573 0.365143 0
360 1 0.482504 0.390079 0
361 1 0.0094306 0.401749 0
363 1 0.0348486 0.411781 0
362 1 0.0139568 0.425751 0
364 1 0.0399909 0.435783 0
336 1 0.0784207 0.405893 0
365 1 0.0604126 0.421225 0
395 1 0.066317 0.444726 0
367 1 0.101679 0.416264 0
366 1 0.108223 0.440083 0
369 1 0.126955 0.424004 0
340 1 0.145731 0.40779 0
368 1 0.131236 0.448 0
370 1 0.152057 0.432571 0
371 1 0.170217 0.414494 0
401 1 0.174579 0.439278 0
372 1 0.194773 0.422767 0
403 1 0.198437 0.446046 0
373 1 0.213004 0.406312 0
374 1 0.218173 0.428652 0
376 1 0.236849 0.413226 0
405 1 0.243052 0.438969 0
348 1 0.280201 0.404284 0
407 1 0.266393 0.445328 0
378 1 0.260776 0.421212 0
409 1 0.286086 0.429423 0
352 1 0.34742 0.400452 0
379 1 0.304031 0.411392 0
380 1 0.310337 0.435112 0
382 1 0.329294 0.418274 0
411 1 0.33555 0.441653 0
413 1 0.354105 0.424228 0
383 1 0.372132 0.408486 0
414 1 0.379185 0.432067 0
384 1 0.396013 0.413531 0
412 1 0.359831 0.448443 0
388 1 0.440094 0.401107 0
415 1 0.403963 0.437619 0
417 1 0.422889 0.419293 0
416 1 0.428466 0.443449 0
419 1 0.447044 0.425644 0
389 1 0.464831 0.408409 0
418 1 0.470599 0.432977 0
390 1 0.489006 0.414845 0
420 1 0.496031 0.438678 0
447 1 0.453867 0.451006 0
392 1 0.00112435 0.466194 0
393 1 0.0183196 0.449774 0
422 1 0.00666435 0.491506 0
423 1 0.0245721 0.47522 0
394 1 0.0454152 0.45993 0
425 1 0.0505028 0.4854 0
397 1 0.0886729 0.454125 0
396 1 0.0700756 0.470548 0
426 1 0.0728404 0.494541 0
427 1 0.0950872 0.481189 0
398 1 0.112254 0.464747 0
428 1 0.118321 0.489536 0
429 1 0.136934 0.4722 0
459 1 0.142586 0.496738 0
399 1 0.155632 0.457055 0
400 1 0.179898 0.462686 0
430 1 0.162075 0.480434 0
431 1 0.186402 0.48644 0
404 1 0.223884 0.45327 0
402 1 0.2057 0.469226 0
432 1 0.209344 0.494254 0
433 1 0.228936 0.478286 0
435 1 0.247433 0.461718 0
436 1 0.253818 0.485447 0
408 1 0.29262 0.452876 0
406 1 0.273419 0.469631 0
437 1 0.278071 0.493506 0
439 1 0.297225 0.478132 0
410 1 0.317389 0.460992 0
440 1 0.323381 0.485627 0
441 1 0.341725 0.4662 0
471 1 0.347753 0.491688 0
442 1 0.366431 0.472683 0
473 1 0.390469 0.479906 0
443 1 0.386362 0.455409 0
472 1 0.372988 0.497134 0
477 1 0.441623 0.490876 0
446 1 0.435381 0.467516 0
445 1 0.410877 0.461843 0
444 1 0.416008 0.486488 0
449 1 0.478288 0.456725 0
450 1 0.484345 0.481346 0
478 1 0.465634 0.497698 0
448 1 0.460592 0.474424 0
453 1 0.0112174 0.516105 0
452 1 0.015484 0.540899 0
454 1 0.0351764 0.524994 0
424 1 0.0305709 0.499658 0
485 1 0.057857 0.535249 0
455 1 0.0539362 0.510551 0
456 1 0.0785332 0.521077 0
486 1 0.0807037 0.545601 0
457 1 0.098308 0.504616 0
487 1 0.101213 0.529248 0
458 1 0.123162 0.513567 0
488 1 0.123676 0.53848 0
489 1 0.146143 0.521925 0
490 1 0.148107 0.545727 0
461 1 0.188831 0.51059 0
462 1 0.19307 0.53389 0
491 1 0.168364 0.529551 0
460 1 0.165298 0.506188 0
493 1 0.217354 0.541528 0
463 1 0.212799 0.517755 0
464 1 0.23796 0.525759 0
495 1 0.239516 0.551192 0
434 1 0.232452 0.502049 0
466 1 0.260672 0.533822 0
465 1 0.257278 0.510205 0
467 1 0.281761 0.518691 0
497 1 0.283231 0.543889 0
438 1 0.302406 0.502537 0
468 1 0.306108 0.528105 0
469 1 0.326615 0.511855 0
499 1 0.330662 0.536351 0
470 1 0.353068 0.516153 0
503 1 0.380077 0.520869 0
474 1 0.397881 0.503371 0
505 1 0.387274 0.545686 0
501 1 0.359897 0.540544 0
476 1 0.404339 0.527714 0
509 1 0.430788 0.53314 0
475 1 0.424317 0.509298 0
507 1 0.447615 0.516295 0
479 1 0.47114 0.522017 0
480 1 0.453764 0.540702 0
1381 1 0.496474 0.528687 0
510 1 0.47871 0.545517 0
1351 1 0.489849 0.506075 0
483 1 0.037876 0.551296 0
513 1 0.0176413 0.565397 0
514 1 0.0408597 0.57564 0
512 1 0.0212813 0.590182 0
484 1 0.0599089 0.560213 0
515 1 0.0835252 0.570061 0
545 1 0.0643903 0.585718 0
516 1 0.0872494 0.595237 0
517 1 0.105279 0.555224 0
518 1 0.109875 0.580975 0
519 1 0.128672 0.564443 0
549 1 0.132399 0.591509 0
520 1 0.15333 0.575477 0
521 1 0.172161 0.557369 0
492 1 0.197368 0.556119 0
522 1 0.17438 0.586772 0
523 1 0.197456 0.579762 0
494 1 0.219448 0.565661 0
524 1 0.221233 0.589354 0
525 1 0.240952 0.575511 0
555 1 0.243106 0.598968 0
496 1 0.262091 0.559372 0
526 1 0.26345 0.583499 0
527 1 0.285757 0.569264 0
528 1 0.28596 0.594031 0
498 1 0.307234 0.553611 0
529 1 0.30857 0.57835 0
500 1 0.330909 0.567506 0
530 1 0.329086 0.592622 0
531 1 0.352723 0.584285 0
502 1 0.36933 0.564509 0
504 1 0.394135 0.569448 0
533 1 0.378325 0.588818 0
506 1 0.412773 0.550475 0
534 1 0.4025 0.593358 0
535 1 0.418693 0.575663 0
508 1 0.436365 0.557823 0
537 1 0.443073 0.580906 0
536 1 0.426733 0.600004 0
539 1 0.463188 0.564479 0
540 1 0.486387 0.569876 0
538 1 0.468383 0.587922 0
569 1 0.493045 0.593579 0
543 1 0.0450337 0.60058 0
542 1 0.0252873 0.615333 0
571 1 0.0052323 0.629136 0
573 1 0.0273982 0.640315 0
541 1 0.00156032 0.606052 0
544 1 0.0475201 0.625631 0
546 1 0.0671999 0.609682 0
547 1 0.0901285 0.618775 0
575 1 0.0706143 0.634503 0
576 1 0.0921013 0.644794 0
548 1 0.110584 0.604964 0
550 1 0.132317 0.617604 0
577 1 0.113111 0.630302 0
579 1 0.135451 0.642135 0
551 1 0.154662 0.601716 0
581 1 0.156446 0.627993 0
552 1 0.177027 0.614619 0
582 1 0.177501 0.639771 0
553 1 0.198792 0.603342 0
583 1 0.199353 0.628087 0
554 1 0.221552 0.613451 0
556 1 0.24334 0.62454 0
585 1 0.222813 0.638566 0
586 1 0.246093 0.647936 0
557 1 0.265509 0.608445 0
587 1 0.266359 0.635644 0
558 1 0.286368 0.620927 0
589 1 0.288362 0.647557 0
559 1 0.307244 0.603087 0
560 1 0.307808 0.632358 0
561 1 0.326084 0.61679 0
591 1 0.330062 0.642638 0
562 1 0.347268 0.625747 0
532 1 0.362103 0.606946 0
563 1 0.387936 0.612874 0
564 1 0.371239 0.631568 0
595 1 0.39428 0.637922 0
593 1 0.353535 0.648935 0
565 1 0.411053 0.618406 0
566 1 0.434279 0.624323 0
596 1 0.418943 0.643025 0
598 1 0.442299 0.648197 0
567 1 0.4511 0.604977 0
597 1 0.458342 0.629608 0
568 1 0.474971 0.611718 0
570 1 0.482152 0.635691 0
1442 1 0.499555 0.618237 0
574 1 0.0497986 0.650538 0
572 1 0.00655325 0.653621 0
603 1 0.0288794 0.664777 0
602 1 0.00951584 0.679231 0
633 1 0.032281 0.689403 0
604 1 0.0516692 0.67557 0
605 1 0.0719975 0.660201 0
606 1 0.0744433 0.68572 0
607 1 0.0957075 0.670901 0
637 1 0.0977554 0.696457 0
578 1 0.114848 0.655859 0
609 1 0.137783 0.667563 0
608 1 0.117605 0.68227 0
639 1 0.140561 0.692787 0
580 1 0.157891 0.653675 0
611 1 0.181179 0.66427 0
610 1 0.161433 0.679509 0
612 1 0.183123 0.691205 0
584 1 0.203885 0.652846 0
613 1 0.204242 0.678058 0
615 1 0.225194 0.664683 0
614 1 0.227264 0.687916 0
617 1 0.248249 0.672624 0
616 1 0.250095 0.698754 0
588 1 0.268228 0.660579 0
619 1 0.292408 0.674135 0
618 1 0.269762 0.684878 0
590 1 0.310996 0.658044 0
621 1 0.31709 0.682122 0
592 1 0.335573 0.666856 0
622 1 0.341891 0.690282 0
623 1 0.360384 0.672569 0
594 1 0.378213 0.65643 0
624 1 0.384446 0.679558 0
653 1 0.366623 0.696684 0
625 1 0.402467 0.661922 0
627 1 0.426108 0.666283 0
626 1 0.40914 0.684328 0
657 1 0.43259 0.692017 0
628 1 0.450265 0.671239 0
599 1 0.466041 0.65419 0
600 1 0.489427 0.660544 0
629 1 0.473193 0.67824 0
630 1 0.496635 0.684617 0
658 1 0.456339 0.696651 0
632 1 0.0106797 0.703712 0
634 1 0.0335602 0.71476 0
663 1 0.0131574 0.728121 0
664 1 0.0360031 0.739117 0
635 1 0.0550684 0.699749 0
636 1 0.0775133 0.710808 0
665 1 0.0571716 0.725225 0
666 1 0.0788054 0.735789 0
667 1 0.0994143 0.721923 0
638 1 0.119798 0.707773 0
640 1 0.142539 0.717743 0
669 1 0.122105 0.732069 0
668 1 0.101008 0.747253 0
670 1 0.144476 0.742383 0
641 1 0.162663 0.704307 0
642 1 0.185236 0.716686 0
671 1 0.165304 0.72988 0
673 1 0.187887 0.740131 0
643 1 0.206374 0.702256 0
645 1 0.229295 0.712109 0
644 1 0.208332 0.726701 0
675 1 0.230763 0.737853 0
646 1 0.251372 0.723228 0
647 1 0.271236 0.708938 0
677 1 0.253021 0.748877 0
648 1 0.272923 0.733835 0
679 1 0.296233 0.739874 0
649 1 0.296535 0.715751 0
620 1 0.323865 0.708327 0
651 1 0.348704 0.713888 0
650 1 0.331291 0.732839 0
652 1 0.355655 0.73841 0
655 1 0.390845 0.70269 0
654 1 0.371856 0.721345 0
685 1 0.396384 0.728064 0
683 1 0.379099 0.745507 0
656 1 0.41377 0.709403 0
687 1 0.437696 0.715578 0
686 1 0.420539 0.732617 0
717 1 0.445274 0.739393 0
659 1 0.47988 0.702911 0
689 1 0.462474 0.720015 0
660 1 0.485213 0.727294 0
688 1 0.468317 0.744838 0
662 1 0.0155877 0.753183 0
694 1 0.0372063 0.764087 0
693 1 0.0176421 0.777643 0
725 1 0.0402234 0.788075 0
695 1 0.0576595 0.750911 0
697 1 0.0814456 0.760498 0
696 1 0.0607695 0.774308 0
727 1 0.0826232 0.786596 0
726 1 0.0622605 0.800332 0
699 1 0.123199 0.757397 0
698 1 0.10316 0.772689 0
700 1 0.12601 0.782522 0
728 1 0.105173 0.797683 0
701 1 0.146051 0.767465 0
731 1 0.148122 0.794182 0
672 1 0.167327 0.755117 0
703 1 0.188798 0.767014 0
702 1 0.167209 0.779292 0
704 1 0.190432 0.791585 0
674 1 0.209952 0.753546 0
676 1 0.233442 0.763289 0
705 1 0.212262 0.777397 0
706 1 0.234663 0.787722 0
707 1 0.255321 0.77314 0
678 1 0.275993 0.757431 0
709 1 0.277821 0.783829 0
680 1 0.297868 0.767476 0
737 1 0.258079 0.798304 0
710 1 0.302909 0.792015 0
681 1 0.31601 0.752335 0
682 1 0.338922 0.757036 0
711 1 0.322205 0.776118 0
712 1 0.345899 0.781992 0
741 1 0.328103 0.801415 0
713 1 0.362897 0.762919 0
714 1 0.386115 0.771154 0
743 1 0.369174 0.789124 0
745 1 0.394026 0.795097 0
684 1 0.402121 0.752281 0
715 1 0.427468 0.757209 0
716 1 0.410421 0.775596 0
747 1 0.434763 0.781191 0
718 1 0.451185 0.763219 0
690 1 0.492453 0.751064 0
719 1 0.474392 0.769343 0
720 1 0.483211 0.793741 0
749 1 0.459221 0.787523 0
723 1 0.0193447 0.801406 0
722 1 0.0198153 0.826416 0
724 1 0.0410097 0.813547 0
754 1 0.0433288 0.836826 0
1680 1 0.00013116 0.840426 0
757 1 0.0846351 0.812586 0
755 1 0.0640398 0.824863 0
756 1 0.0860995 0.837006 0
729 1 0.126684 0.807555 0
759 1 0.106917 0.822859 0
760 1 0.130701 0.831994 0
730 1 0.151434 0.818108 0
732 1 0.170903 0.805073 0
761 1 0.153782 0.843497 0
763 1 0.175241 0.833368 0
733 1 0.194343 0.817352 0
764 1 0.197042 0.844548 0
735 1 0.214529 0.80245 0
736 1 0.237111 0.811364 0
734 1 0.218007 0.827798 0
767 1 0.239712 0.837248 0
708 1 0.283881 0.811571 0
738 1 0.261572 0.824941 0
769 1 0.285096 0.839499 0
768 1 0.261162 0.849015 0
739 1 0.30814 0.816593 0
740 1 0.310516 0.839691 0
771 1 0.332785 0.825358 0
772 1 0.342562 0.850116 0
742 1 0.352695 0.806134 0
773 1 0.358292 0.832297 0
744 1 0.376267 0.813664 0
774 1 0.382015 0.838418 0
775 1 0.399553 0.819948 0
746 1 0.417031 0.800532 0
748 1 0.441917 0.805558 0
777 1 0.423334 0.824938 0
776 1 0.406234 0.845441 0
779 1 0.44711 0.830577 0
750 1 0.466585 0.81089 0
1621 1 0.489587 0.816913 0
780 1 0.471329 0.834916 0
1651 1 0.49563 0.840935 0
753 1 0.0424827 0.860369 0
752 1 0.0203021 0.853268 0
783 1 0.0385306 0.884324 0
782 1 0.0153968 0.887395 0
785 1 0.0644824 0.84917 0
784 1 0.0629926 0.875007 0
786 1 0.0807873 0.891316 0
787 1 0.0868018 0.866128 0
758 1 0.106475 0.851264 0
817 1 0.103588 0.885214 0
789 1 0.131508 0.855859 0
788 1 0.127428 0.879778 0
790 1 0.148895 0.893067 0
791 1 0.152815 0.869418 0
762 1 0.175614 0.858752 0
793 1 0.174119 0.886186 0
795 1 0.196637 0.874289 0
765 1 0.221384 0.854836 0
796 1 0.222099 0.880104 0
825 1 0.238083 0.89855 0
766 1 0.247099 0.872897 0
797 1 0.271884 0.870581 0
827 1 0.263825 0.893027 0
799 1 0.295821 0.86187 0
798 1 0.288009 0.888553 0
770 1 0.321233 0.860709 0
800 1 0.311906 0.882447 0
801 1 0.340106 0.87546 0
831 1 0.330442 0.898526 0
802 1 0.356552 0.893536 0
803 1 0.362625 0.862049 0
804 1 0.381931 0.88646 0
805 1 0.388404 0.862368 0
778 1 0.430268 0.849592 0
807 1 0.411068 0.869766 0
808 1 0.434927 0.87363 0
837 1 0.418138 0.893798 0
809 1 0.453068 0.855223 0
1681 1 0.478808 0.859504 0
1711 1 0.485309 0.88253 0
810 1 0.460694 0.878731 0
813 1 0.0317486 0.907329 0
843 1 0.0246498 0.930537 0
844 1 0.0435381 0.946301 0
812 1 0.00887811 0.911634 0
814 1 0.0498565 0.922542 0
815 1 0.0571584 0.898966 0
816 1 0.0976532 0.90982 0
845 1 0.075131 0.91762 0
846 1 0.0676959 0.941121 0
847 1 0.0922891 0.934324 0
819 1 0.121877 0.902829 0
818 1 0.118059 0.927672 0
820 1 0.133201 0.94564 0
821 1 0.141512 0.919443 0
792 1 0.166468 0.911524 0
851 1 0.157186 0.937698 0
823 1 0.189999 0.908257 0
822 1 0.182601 0.931672 0
794 1 0.214198 0.903482 0
824 1 0.207155 0.926543 0
885 1 0.225164 0.945626 0
855 1 0.232846 0.922273 0
856 1 0.249984 0.939999 0
826 1 0.256837 0.916671 0
857 1 0.275837 0.935269 0
828 1 0.281001 0.912307 0
859 1 0.3004 0.930173 0
829 1 0.3058 0.906499 0
830 1 0.324658 0.922384 0
861 1 0.342862 0.940781 0
832 1 0.348587 0.917162 0
860 1 0.318128 0.947926 0
863 1 0.367253 0.936327 0
833 1 0.373392 0.912434 0
834 1 0.391132 0.930087 0
806 1 0.397018 0.906441 0
835 1 0.416358 0.922092 0
836 1 0.434227 0.941463 0
865 1 0.409006 0.947193 0
838 1 0.450522 0.918828 0
869 1 0.459609 0.942005 0
839 1 0.46772 0.901602 0
840 1 0.477322 0.924868 0
1712 1 0.493899 0.907733 0
842 1 0.0166503 0.954163 0
872 1 0.0257148 0.993067 0
873 1 0.0346624 0.970637 0
871 1 0.00725099 0.976379 0
874 1 0.0523552 0.988848 0
875 1 0.0606361 0.964264 0
876 1 0.0770773 0.982035 0
848 1 0.0855837 0.958713 0
877 1 0.101306 0.976155 0
849 1 0.109937 0.951273 0
878 1 0.117587 0.99457 0
879 1 0.125996 0.970413 0
881 1 0.142355 0.98891 0
850 1 0.150578 0.962879 0
853 1 0.175402 0.956694 0
852 1 0.166548 0.98028 0
883 1 0.192598 0.974988 0
854 1 0.19952 0.949722 0
13 1 0.209313 0.992683 0
15 1 0.234127 0.988843 0
884 1 0.21835 0.968803 0
886 1 0.242869 0.964282 0
858 1 0.291745 0.954111 0
887 1 0.266675 0.959106 0
17 1 0.258165 0.983293 0
888 1 0.283127 0.977748 0
19 1 0.301393 0.996811 0
889 1 0.307849 0.972829 0
890 1 0.326057 0.989797 0
891 1 0.334441 0.965778 0
892 1 0.350397 0.985474 0
862 1 0.3594 0.960158 0
864 1 0.383883 0.9551 0
893 1 0.375061 0.979069 0
894 1 0.391357 0.998581 0
895 1 0.399055 0.975744 0
896 1 0.416955 0.99293 0
867 1 0.445766 0.962856 0
866 1 0.42272 0.968791 0
897 1 0.448628 0.987253 0
870 1 0.484367 0.949889 0
899 1 0.476259 0.991721 0
868 1 0.467658 0.969322 0
1771 1 0.493014 0.971887 0
902 1 0.533845 0.0246167 0
901 1 0.510132 0.0189152 0
931 1 0.520039 0.0426733 0
903 1 0.526583 0.000597482 0
933 1 0.542428 0.0507524 0
904 1 0.559921 0.0298994 0
906 1 0.576259 0.0109923 0
935 1 0.583543 0.0343656 0
905 1 0.550849 0.00668601 0
908 1 0.600854 0.0177325 0
937 1 0.609025 0.0413508 0
939 1 0.624975 0.0230339 0
910 1 0.6421 0.00578365 0
938 1 0.632915 0.0482682 0
909 1 0.617814 -0.00067261 0
941 1 0.651013 0.028548 0
912 1 0.668291 0.0110845 0
942 1 0.675066 0.0352802 0
943 1 0.692136 0.015309 0
973 1 0.700526 0.0407399 0
944 1 0.715796 0.0219015 0
945 1 0.733582 0.0034691 0
946 1 0.742135 0.0275955 0
975 1 0.724465 0.0468668 0
947 1 0.758729 0.00975425 0
948 1 0.766446 0.033231 0
918 1 0.784903 0.0156378 0
979 1 0.793818 0.0403922 0
949 1 0.809506 0.0204875 0
951 1 0.836952 0.0176878 0
950 1 0.825506 0.0388818 0
952 1 0.851964 0.034465 0
953 1 0.860531 0.00937977 0
924 1 0.885825 0.00366568 0
954 1 0.877399 0.0277353 0
985 1 0.893641 0.0467768 0
955 1 0.901283 0.022957 0
926 1 0.925188 0.0167429 0
957 1 0.943897 0.0343405 0
956 1 0.919043 0.0414675 0
928 1 0.952605 0.0110121 0
959 1 0.968151 0.0300928 0
930 1 0.993221 0.0244448 0
929 1 0.976537 0.00621225 0
960 1 0.985344 0.0477636 0
932 1 0.52626 0.0677361 0
962 1 0.534922 0.0901252 0
961 1 0.50914 0.0857498 0
60 1 0.502256 0.0610984 0
963 1 0.551998 0.0721314 0
934 1 0.567601 0.0536384 0
965 1 0.576082 0.0800522 0
964 1 0.558951 0.0970035 0
936 1 0.592509 0.0595701 0
966 1 0.599131 0.0838778 0
967 1 0.616451 0.0660876 0
968 1 0.623617 0.0896564 0
969 1 0.641899 0.071903 0
999 1 0.647385 0.0957052 0
940 1 0.658976 0.0538619 0
970 1 0.666623 0.0773088 0
971 1 0.683359 0.058964 0
972 1 0.690564 0.082656 0
1003 1 0.708599 0.0650551 0
1004 1 0.715503 0.0885598 0
974 1 0.731908 0.0707026 0
1005 1 0.740151 0.0941646 0
976 1 0.749509 0.0509363 0
1007 1 0.756767 0.074905 0
977 1 0.773903 0.0566732 0
978 1 0.795971 0.0674042 0
1008 1 0.786721 0.0901573 0
1006 1 0.764673 0.0987176 0
980 1 0.821221 0.0631742 0
981 1 0.845617 0.0579286 0
1009 1 0.812261 0.0876586 0
1011 1 0.837397 0.0814589 0
982 1 0.861838 0.076629 0
983 1 0.870482 0.0512301 0
984 1 0.886877 0.0705097 0
1013 1 0.880074 0.0953218 0
1012 1 0.853658 0.100994 0
1015 1 0.903342 0.089074 0
986 1 0.911976 0.0653292 0
987 1 0.935259 0.0590565 0
1017 1 0.928268 0.0828835 0
988 1 0.952309 0.0782614 0
958 1 0.960172 0.0530833 0
989 1 0.976707 0.0714119 0
990 1 0.993773 0.0901776 0
1019 1 0.969311 0.0967554 0
991 1 0.516465 0.108184 0
992 1 0.524393 0.132594 0
993 1 0.540678 0.113936 0
1023 1 0.546866 0.138246 0
995 1 0.582249 0.103829 0
994 1 0.564816 0.120943 0
996 1 0.58863 0.127475 0
1025 1 0.5717 0.144439 0
1026 1 0.597509 0.150471 0
997 1 0.605326 0.108558 0
998 1 0.63087 0.112849 0
1027 1 0.613966 0.132339 0
1029 1 0.639798 0.137747 0
1001 1 0.673367 0.100553 0
1000 1 0.656279 0.119637 0
1031 1 0.681486 0.123727 0
1030 1 0.663864 0.142943 0
1002 1 0.700189 0.106059 0
1032 1 0.688062 0.149192 0
1033 1 0.706822 0.13151 0
1035 1 0.724589 0.113801 0
1034 1 0.732671 0.136519 0
1036 1 0.751286 0.1189 0
1037 1 0.77982 0.117764 0
1038 1 0.796136 0.134842 0
1067 1 0.767493 0.139845 0
1039 1 0.803466 0.111075 0
1010 1 0.828687 0.106825 0
1040 1 0.820843 0.129394 0
1041 1 0.846868 0.125055 0
1071 1 0.838993 0.147633 0
1043 1 0.871706 0.119149 0
1014 1 0.896552 0.112854 0
1044 1 0.887981 0.13868 0
1042 1 0.863658 0.143748 0
1018 1 0.944936 0.102437 0
1045 1 0.912675 0.131424 0
1016 1 0.920532 0.107107 0
1047 1 0.93715 0.125426 0
1049 1 0.962042 0.12081 0
1020 1 0.986257 0.114348 0
1050 1 0.979246 0.139023 0
1046 1 0.95361 0.144678 0
1021 1 0.506831 0.149882 0
1022 1 0.530574 0.155645 0
1053 1 0.537346 0.178931 0
1051 1 0.512591 0.173193 0
1052 1 0.521006 0.196579 0
1024 1 0.553891 0.161073 0
1055 1 0.579317 0.166997 0
1054 1 0.561947 0.184517 0
1056 1 0.585244 0.191852 0
1028 1 0.621888 0.155648 0
1057 1 0.603446 0.174017 0
1058 1 0.628749 0.179068 0
1059 1 0.64545 0.16133 0
1087 1 0.610335 0.196776 0
1060 1 0.655736 0.184477 0
1061 1 0.671694 0.166215 0
1091 1 0.679438 0.18998 0
1062 1 0.696352 0.172275 0
1063 1 0.71482 0.155169 0
1064 1 0.722966 0.178818 0
1095 1 0.747476 0.181904 0
1093 1 0.703873 0.19716 0
1065 1 0.740464 0.158989 0
1066 1 0.765466 0.164475 0
1068 1 0.789162 0.15842 0
1097 1 0.77205 0.188902 0
1098 1 0.7995 0.199434 0
1069 1 0.813592 0.152332 0
1070 1 0.832017 0.171259 0
1099 1 0.806482 0.17578 0
1101 1 0.848815 0.191359 0
1100 1 0.82345 0.194584 0
1072 1 0.855352 0.166945 0
1073 1 0.882231 0.161857 0
1103 1 0.873049 0.185375 0
1074 1 0.8984 0.180515 0
1077 1 0.929654 0.149225 0
1075 1 0.906274 0.156945 0
1076 1 0.923721 0.174945 0
1107 1 0.939472 0.193456 0
1078 1 0.94678 0.16813 0
1105 1 0.914984 0.199833 0
1048 1 0.970159 0.162753 0
151 1 0.995656 0.15698 0
1079 1 0.987894 0.180564 0
1109 1 0.96247 0.186939 0
1083 1 0.544611 0.202961 0
1082 1 0.527678 0.220731 0
1111 1 0.508774 0.240165 0
1113 1 0.53314 0.244776 0
1081 1 0.503749 0.214428 0
1084 1 0.551694 0.226885 0
1085 1 0.568407 0.209693 0
1086 1 0.592717 0.214659 0
1115 1 0.575181 0.232823 0
1117 1 0.598989 0.238742 0
1089 1 0.635807 0.203879 0
1088 1 0.617563 0.221259 0
1119 1 0.64164 0.226506 0
1118 1 0.62398 0.244421 0
1090 1 0.662414 0.208718 0
1092 1 0.686109 0.216348 0
1121 1 0.667051 0.231788 0
1122 1 0.694522 0.238341 0
1094 1 0.72996 0.202804 0
1123 1 0.711495 0.220642 0
1124 1 0.718284 0.244209 0
1125 1 0.736972 0.225776 0
1096 1 0.753854 0.206376 0
1127 1 0.779771 0.213806 0
1126 1 0.761016 0.232211 0
1128 1 0.785845 0.238383 0
1131 1 0.839978 0.213457 0
1129 1 0.814116 0.222073 0
1130 1 0.834308 0.2369 0
1159 1 0.811462 0.246836 0
1102 1 0.865432 0.210235 0
1104 1 0.890671 0.203363 0
1132 1 0.857841 0.232947 0
1133 1 0.883123 0.226464 0
1134 1 0.900571 0.24717 0
1135 1 0.907336 0.222754 0
1106 1 0.932062 0.217931 0
1136 1 0.924524 0.241746 0
1137 1 0.94842 0.236075 0
1108 1 0.955655 0.211732 0
1110 1 0.979317 0.205709 0
1139 1 0.972542 0.229656 0
1140 1 0.988215 0.248767 0
181 1 0.996961 0.223308 0
1112 1 0.515411 0.263681 0
1143 1 0.539191 0.269183 0
1142 1 0.523487 0.287467 0
1144 1 0.546808 0.293278 0
1114 1 0.556568 0.251512 0
1116 1 0.581608 0.25668 0
1145 1 0.563831 0.275301 0
1146 1 0.587676 0.280476 0
1175 1 0.5712 0.298761 0
1147 1 0.606016 0.26236 0
1149 1 0.632144 0.268553 0
1148 1 0.612927 0.287664 0
1179 1 0.636536 0.292727 0
1120 1 0.648817 0.250447 0
1151 1 0.674564 0.254451 0
1150 1 0.655924 0.27387 0
1152 1 0.680445 0.278903 0
1181 1 0.663325 0.297342 0