ITEM: TIMESTEP
42000
ITEM: NUMBER OF ATOMS
1800
ITEM: BOX BOUNDS pp pp pp
2.8480040093792525e+00 1.5555199599062010e+02
2.8480040093792525e+00 1.5555199599062010e+02
0.0000000000000000e+00 5.2800000000000002e+00
ITEM: ATOMS id type xs ys zs
2 1 0.0170747 0.0207263 0
3 1 0.040533 0.0132204 0
33 1 0.0334387 0.0376978 0
31 1 0.00940893 0.043168 0
4 1 0.0577966 0.0287857 0
6 1 0.0843201 0.0229746 0
5 1 0.0661705 0.0051883 0
35 1 0.0754011 0.045427 0
1141 1 0.49912 0.278404 0
37 1 0.100515 0.042697 0
8 1 0.108239 0.0164196 0
9 1 0.124523 0.0339899 0
880 1 0.1325 0.0102923 0
10 1 0.149735 0.0283766 0
11 1 0.157614 0.00575815 0
12 1 0.175513 0.0217278 0
43 1 0.191886 0.0405045 0
41 1 0.167432 0.0463843 0
14 1 0.198856 0.016382 0
44 1 0.21548 0.036056 0
45 1 0.223674 0.0117415 0
46 1 0.240931 0.0300272 0
16 1 0.248786 0.00652141 0
47 1 0.265549 0.0258282 0
49 1 0.292346 0.0215708 0
48 1 0.282781 0.0434046 0
77 1 0.258485 0.0491783 0
18 1 0.273816 0.00318607 0
50 1 0.308099 0.0398179 0
20 1 0.315296 0.0144527 0
51 1 0.332356 0.0336395 0
21 1 0.340547 0.00835632 0
23 1 0.364231 0.00544305 0
22 1 0.355176 0.02977 0
24 1 0.379403 0.023934 0
55 1 0.395226 0.0436558 0
53 1 0.370993 0.0481129 0
894 1 0.38943 0.000902461 0
25 1 0.403083 0.0211264 0
26 1 0.432818 0.0369604 0
27 1 0.427421 0.0135023 0
898 1 0.451032 0.0176477 0
28 1 0.456882 0.0415847 0
29 1 0.475145 0.0255614 0
900 1 0.493987 0.006395 0
59 1 0.481306 0.0490784 0
30 1 0.498681 0.0319825 0
61 1 0.000312467 0.067186 0
32 1 0.0265033 0.060799 0
62 1 0.0191177 0.084696 0
63 1 0.0438292 0.0789493 0
34 1 0.0521656 0.0534605 0
65 1 0.0685715 0.0727545 0
66 1 0.0852959 0.0903588 0
36 1 0.0932306 0.0661702 0
64 1 0.0601433 0.0964432 0
39 1 0.142041 0.052549 0
38 1 0.117976 0.0597944 0
67 1 0.109563 0.0840194 0
69 1 0.134261 0.0775492 0
70 1 0.152439 0.0946092 0
40 1 0.159886 0.0687932 0
71 1 0.177154 0.0869752 0
42 1 0.183801 0.0637896 0
72 1 0.202808 0.0823876 0
73 1 0.208439 0.0593407 0
74 1 0.226127 0.0777495 0
75 1 0.232825 0.05442 0
106 1 0.244356 0.0946875 0
76 1 0.252729 0.0723527 0
78 1 0.275926 0.0676341 0
109 1 0.294822 0.0880313 0
107 1 0.268897 0.0905689 0
79 1 0.30191 0.0646954 0
52 1 0.347867 0.0547663 0
80 1 0.319977 0.0839707 0
81 1 0.325208 0.0588696 0
82 1 0.344806 0.0805715 0
54 1 0.392558 0.0684609 0
83 1 0.366646 0.0717415 0
113 1 0.380923 0.0922213 0
56 1 0.415718 0.0555707 0
57 1 0.439595 0.0609885 0
85 1 0.421993 0.0788549 0
87 1 0.44706 0.0851685 0
84 1 0.405033 0.0977928 0
88 1 0.470479 0.0904347 0
58 1 0.463826 0.066891 0
89 1 0.488525 0.073406 0
90 1 0.495896 0.0979034 0
93 1 0.0355937 0.101844 0
92 1 0.0285349 0.125638 0
91 1 0.0110143 0.10741 0
123 1 0.0467616 0.143433 0
121 1 0.00473182 0.13136 0
122 1 0.0219054 0.149552 0
94 1 0.0535112 0.119395 0
95 1 0.0764124 0.113373 0
125 1 0.071512 0.13666 0
96 1 0.0945971 0.130351 0
97 1 0.102738 0.108382 0
68 1 0.126438 0.101423 0
98 1 0.12058 0.126164 0
99 1 0.145144 0.117626 0
129 1 0.138403 0.141941 0
127 1 0.112804 0.147799 0
100 1 0.169369 0.111654 0
130 1 0.162717 0.135221 0
131 1 0.186815 0.128981 0
101 1 0.193763 0.105362 0
133 1 0.203174 0.147576 0
103 1 0.218763 0.101366 0
102 1 0.212775 0.124407 0
105 1 0.237147 0.119106 0
104 1 0.229162 0.142931 0
136 1 0.253397 0.139324 0
135 1 0.261081 0.114762 0
137 1 0.276213 0.133853 0
108 1 0.285335 0.110921 0
139 1 0.302686 0.133139 0
111 1 0.334399 0.103798 0
110 1 0.310146 0.109245 0
141 1 0.347277 0.12611 0
140 1 0.327599 0.14132 0
142 1 0.352929 0.149894 0
112 1 0.359995 0.105065 0
114 1 0.387617 0.115568 0
143 1 0.370408 0.132375 0
144 1 0.395168 0.139163 0
86 1 0.429611 0.1039 0
115 1 0.412313 0.120887 0
116 1 0.436678 0.127861 0
145 1 0.420161 0.145205 0
117 1 0.453653 0.109316 0
118 1 0.461658 0.13375 0
119 1 0.477777 0.114491 0
149 1 0.48501 0.138402 0
153 1 0.0382516 0.167454 0
152 1 0.0152023 0.173059 0
183 1 0.0314987 0.190554 0
1080 1 0.00864373 0.197751 0
124 1 0.0640771 0.159868 0
126 1 0.088437 0.154073 0
155 1 0.0815795 0.177643 0
154 1 0.0571594 0.182265 0
156 1 0.0987682 0.194669 0
128 1 0.132175 0.164947 0
157 1 0.107189 0.17164 0
160 1 0.149526 0.182459 0
158 1 0.124661 0.187625 0
159 1 0.157289 0.158881 0
161 1 0.172943 0.176953 0
132 1 0.180205 0.152974 0
162 1 0.189536 0.19575 0
163 1 0.196561 0.171359 0
134 1 0.220335 0.165553 0
164 1 0.232215 0.186408 0
165 1 0.244837 0.165152 0
166 1 0.255618 0.19156 0
167 1 0.271407 0.17207 0
138 1 0.288949 0.154782 0
168 1 0.296015 0.177813 0
197 1 0.278652 0.196812 0
169 1 0.312772 0.159899 0
171 1 0.335796 0.165808 0
170 1 0.320367 0.185682 0
201 1 0.343536 0.192645 0
172 1 0.360392 0.174382 0
173 1 0.376399 0.156679 0
174 1 0.385034 0.181663 0
203 1 0.366402 0.19912 0
175 1 0.402166 0.163747 0
147 1 0.444773 0.152264 0
146 1 0.426214 0.168904 0
205 1 0.408768 0.187344 0
176 1 0.433696 0.191292 0
177 1 0.452267 0.174213 0
148 1 0.469698 0.157063 0
150 1 0.494096 0.162851 0
179 1 0.475484 0.180705 0
178 1 0.457575 0.198443 0
182 1 0.0264758 0.214541 0
213 1 0.0435014 0.232121 0
211 1 0.0209823 0.238876 0
184 1 0.0506707 0.205414 0
181 1 0.00329869 0.221831 0
185 1 0.074913 0.201179 0
186 1 0.0926644 0.217348 0
215 1 0.0676328 0.224055 0
216 1 0.0857894 0.240103 0
214 1 0.0604615 0.24806 0
187 1 0.115424 0.21061 0
188 1 0.133583 0.227848 0
189 1 0.14027 0.205379 0
217 1 0.109504 0.234147 0
191 1 0.166945 0.201391 0
190 1 0.157556 0.22363 0
192 1 0.197285 0.218284 0
221 1 0.178663 0.235266 0
193 1 0.213304 0.201053 0
223 1 0.201565 0.242745 0
194 1 0.219821 0.225709 0
195 1 0.237168 0.209851 0
225 1 0.243784 0.234514 0
224 1 0.224575 0.250502 0
196 1 0.261318 0.215586 0
198 1 0.285207 0.221162 0
227 1 0.268768 0.240027 0
228 1 0.291412 0.247584 0
199 1 0.302526 0.203172 0
200 1 0.325251 0.210619 0
202 1 0.349636 0.217375 0
229 1 0.308845 0.229765 0
231 1 0.332603 0.235221 0
204 1 0.390314 0.206441 0
233 1 0.373135 0.223947 0
235 1 0.396454 0.230302 0
232 1 0.356496 0.242102 0
234 1 0.379849 0.248884 0
207 1 0.438833 0.216085 0
206 1 0.421407 0.234931 0
237 1 0.445186 0.241579 0
208 1 0.463581 0.222806 0
209 1 0.480653 0.205545 0
210 1 0.485834 0.231451 0
239 1 0.469151 0.247272 0
212 1 0.0134147 0.263456 0
243 1 0.0378788 0.256986 0
241 1 0.0148583 0.288041 0
242 1 0.0387888 0.295106 0
244 1 0.0561287 0.276355 0
245 1 0.0790247 0.265734 0
275 1 0.0789017 0.290128 0
247 1 0.0990695 0.278385 0
218 1 0.103457 0.256418 0
219 1 0.12863 0.250953 0
249 1 0.143106 0.2694 0
248 1 0.122145 0.285099 0
250 1 0.145997 0.292971 0
220 1 0.1574 0.248377 0
222 1 0.182762 0.259806 0
251 1 0.165927 0.276644 0
252 1 0.18817 0.285017 0
253 1 0.207357 0.267075 0
255 1 0.231207 0.274217 0
226 1 0.249581 0.257781 0
254 1 0.212893 0.291026 0
285 1 0.236436 0.298014 0
256 1 0.255852 0.280236 0
257 1 0.272697 0.263942 0
259 1 0.296903 0.271138 0
258 1 0.279599 0.28847 0
230 1 0.314941 0.253319 0
289 1 0.30379 0.296658 0
260 1 0.321193 0.276537 0
261 1 0.339012 0.260242 0
262 1 0.344528 0.283235 0
263 1 0.36425 0.266951 0
264 1 0.387444 0.274695 0
293 1 0.368705 0.291053 0
295 1 0.392979 0.298838 0
265 1 0.40341 0.253897 0
236 1 0.427426 0.260522 0
266 1 0.410377 0.280278 0
267 1 0.435584 0.284741 0
238 1 0.452865 0.26572 0
240 1 0.494694 0.253714 0
269 1 0.475781 0.271349 0
268 1 0.458263 0.291665 0
270 1 0.481501 0.296964 0
271 1 0.018376 0.312117 0
272 1 0.0416109 0.320228 0
301 1 0.0214661 0.335946 0
303 1 0.0450876 0.348103 0
273 1 0.0609548 0.305914 0
276 1 0.0835766 0.315386 0
274 1 0.0637324 0.332354 0
305 1 0.0869063 0.339587 0
246 1 0.102229 0.300877 0
279 1 0.125788 0.309061 0
277 1 0.107471 0.325608 0
278 1 0.130681 0.333113 0
307 1 0.112403 0.349265 0
281 1 0.170535 0.300877 0
280 1 0.148952 0.317346 0
311 1 0.156837 0.342261 0
283 1 0.195097 0.308058 0
282 1 0.175415 0.325123 0
312 1 0.180916 0.349046 0
313 1 0.199221 0.331986 0
284 1 0.21844 0.315423 0
315 1 0.2232 0.338914 0
286 1 0.241071 0.322895 0
316 1 0.246846 0.346522 0
287 1 0.261053 0.305267 0
288 1 0.285057 0.313707 0
317 1 0.26555 0.329887 0
319 1 0.290478 0.337454 0
291 1 0.327825 0.301076 0
290 1 0.310563 0.321028 0
321 1 0.313792 0.346103 0
292 1 0.33372 0.330034 0
323 1 0.350143 0.308347 0
294 1 0.372199 0.31508 0
324 1 0.356318 0.336087 0
325 1 0.380327 0.339227 0
296 1 0.39651 0.321569 0
297 1 0.416743 0.303711 0
326 1 0.405259 0.345213 0
298 1 0.440591 0.309875 0
327 1 0.42275 0.328113 0
328 1 0.446683 0.333854 0
299 1 0.464041 0.315533 0
300 1 0.488476 0.320235 0
1201 1 0.494683 0.344907 0
329 1 0.470836 0.33891 0
331 1 0.0059993 0.37612 0
302 1 0.0254174 0.361574 0
332 1 0.0316375 0.387728 0
1230 1 0.00161171 0.350279 0
333 1 0.0500627 0.372899 0
334 1 0.0544465 0.397413 0
304 1 0.0683973 0.356907 0
306 1 0.0921981 0.364352 0
335 1 0.0740889 0.381444 0
337 1 0.0969209 0.38972 0
309 1 0.136633 0.357955 0
308 1 0.117262 0.37269 0
339 1 0.141103 0.382615 0
310 1 0.161249 0.365866 0
341 1 0.165357 0.389821 0
343 1 0.184757 0.371927 0
342 1 0.189644 0.396396 0
314 1 0.205059 0.35583 0
345 1 0.227753 0.364546 0
344 1 0.209311 0.379853 0
375 1 0.233239 0.387779 0
346 1 0.253633 0.371483 0
377 1 0.257323 0.395523 0
318 1 0.270815 0.354515 0
349 1 0.293946 0.362218 0
347 1 0.27615 0.379 0
322 1 0.33724 0.355047 0
350 1 0.299036 0.387956 0
320 1 0.316602 0.370094 0
351 1 0.341284 0.379259 0
381 1 0.323006 0.395085 0
353 1 0.362316 0.361248 0
355 1 0.386333 0.362425 0
354 1 0.366054 0.386892 0
385 1 0.390487 0.386687 0
357 1 0.429519 0.352309 0
356 1 0.41108 0.368853 0
387 1 0.434548 0.3755 0
386 1 0.416401 0.392387 0
388 1 0.442054 0.398392 0
358 1 0.461572 0.381992 0
359 1 0.453752 0.357681 0
330 1 0.47919 0.364422 0
360 1 0.483806 0.389368 0
361 1 0.0120341 0.402681 0
363 1 0.0347842 0.411962 0
362 1 0.0163638 0.426493 0
364 1 0.0399495 0.436445 0
336 1 0.0788017 0.406861 0
365 1 0.0589116 0.420504 0
395 1 0.0671395 0.446337 0
338 1 0.120032 0.397817 0
367 1 0.102665 0.415014 0
366 1 0.108972 0.440331 0
369 1 0.126461 0.42381 0
368 1 0.131446 0.449829 0
340 1 0.148094 0.408176 0
370 1 0.149643 0.432898 0
371 1 0.171427 0.412368 0
401 1 0.174254 0.436313 0
372 1 0.195086 0.41987 0
403 1 0.198982 0.443449 0
373 1 0.213206 0.403658 0
374 1 0.218608 0.427066 0
376 1 0.236273 0.411524 0
405 1 0.242166 0.436178 0
348 1 0.279946 0.405092 0
407 1 0.266151 0.443883 0
378 1 0.261386 0.420926 0
409 1 0.285401 0.429225 0
379 1 0.304213 0.41221 0
380 1 0.308711 0.437094 0
382 1 0.327223 0.419698 0
411 1 0.331846 0.446237 0
352 1 0.347902 0.403348 0
383 1 0.372893 0.413139 0
413 1 0.352657 0.429495 0
384 1 0.39849 0.40909 0
414 1 0.378106 0.438235 0
415 1 0.406454 0.434811 0
417 1 0.423159 0.415751 0
416 1 0.431338 0.439868 0
389 1 0.467283 0.408339 0
418 1 0.456501 0.443395 0
419 1 0.446191 0.422477 0
390 1 0.49211 0.416287 0
420 1 0.483072 0.438544 0
393 1 0.0218167 0.451539 0
422 1 0.00709506 0.491127 0
423 1 0.0270577 0.474554 0
392 1 0.00308579 0.467473 0
394 1 0.0466973 0.460412 0
425 1 0.0515368 0.484501 0
396 1 0.0714515 0.471072 0
426 1 0.0740158 0.495792 0
397 1 0.0905782 0.456363 0
427 1 0.0933306 0.481648 0
398 1 0.113049 0.466269 0
428 1 0.117061 0.491133 0
429 1 0.136319 0.475053 0
459 1 0.143915 0.499603 0
399 1 0.154953 0.456339 0
400 1 0.179355 0.459577 0
430 1 0.159643 0.481176 0
431 1 0.185504 0.48327 0
404 1 0.223274 0.450914 0
402 1 0.204159 0.467713 0
432 1 0.208922 0.490679 0
433 1 0.228299 0.474616 0
435 1 0.247285 0.459079 0
434 1 0.232169 0.498841 0
408 1 0.290272 0.454432 0
436 1 0.249987 0.484547 0
406 1 0.268961 0.467952 0
437 1 0.273173 0.493614 0
439 1 0.292024 0.478306 0
410 1 0.31208 0.462472 0
440 1 0.316794 0.486821 0
441 1 0.335621 0.471869 0
471 1 0.33899 0.499565 0
412 1 0.355272 0.457406 0
442 1 0.358311 0.483109 0
473 1 0.381416 0.492852 0
443 1 0.378128 0.468392 0
445 1 0.39752 0.456271 0
444 1 0.403998 0.480089 0
447 1 0.446851 0.465346 0
446 1 0.421753 0.463595 0
477 1 0.434302 0.488209 0
1321 1 0.494945 0.460834 0
450 1 0.483257 0.484418 0
448 1 0.459062 0.486673 0
449 1 0.471329 0.462729 0
180 1 0.498943 0.187375 0
424 1 0.0302819 0.499629 0
899 1 0.468072 8.44162e-05 0
453 1 0.0122193 0.514938 0
452 1 0.016376 0.539338 0
454 1 0.0360071 0.525057 0
870 1 0.478304 0.958527 0
485 1 0.0588664 0.535061 0
455 1 0.0548863 0.510915 0
456 1 0.078517 0.520124 0
486 1 0.0817039 0.544943 0
457 1 0.0989984 0.505696 0
458 1 0.123126 0.515417 0
487 1 0.103206 0.530992 0
488 1 0.126769 0.542277 0
489 1 0.14493 0.525875 0
460 1 0.164951 0.510479 0
461 1 0.188619 0.506285 0
462 1 0.190096 0.528549 0
491 1 0.16813 0.538415 0
493 1 0.212303 0.538176 0
463 1 0.211609 0.514263 0
464 1 0.234296 0.524068 0
495 1 0.235996 0.548327 0
466 1 0.256698 0.533678 0
465 1 0.253689 0.509294 0
467 1 0.277341 0.518622 0
497 1 0.2793 0.542467 0
438 1 0.297248 0.501002 0
468 1 0.299826 0.528429 0
469 1 0.318964 0.511864 0
499 1 0.322152 0.539408 0
470 1 0.343284 0.524267 0
501 1 0.344782 0.549703 0
472 1 0.362046 0.507579 0
503 1 0.364841 0.535189 0
474 1 0.382703 0.518155 0
505 1 0.388341 0.542729 0
476 1 0.407037 0.528212 0
507 1 0.424796 0.510657 0
509 1 0.432379 0.534179 0
475 1 0.402329 0.50389 0
478 1 0.448082 0.509564 0
479 1 0.472051 0.509115 0
480 1 0.460101 0.530396 0
1381 1 0.490642 0.529604 0
1351 1 0.495489 0.5062 0
483 1 0.0390967 0.549575 0
513 1 0.0189343 0.564609 0
514 1 0.0420922 0.575056 0
512 1 0.0222208 0.58992 0
484 1 0.0619986 0.560756 0
515 1 0.0852672 0.569486 0
545 1 0.0664816 0.584912 0
516 1 0.0868321 0.596425 0
517 1 0.104453 0.556064 0
518 1 0.106784 0.580688 0
519 1 0.127521 0.567697 0
549 1 0.130117 0.592446 0
490 1 0.147523 0.553385 0
520 1 0.149292 0.578405 0
521 1 0.170814 0.565452 0
492 1 0.191202 0.552305 0
523 1 0.194044 0.57656 0
522 1 0.173441 0.589826 0
494 1 0.214418 0.561533 0
524 1 0.216658 0.586255 0
525 1 0.238166 0.571789 0
555 1 0.239139 0.595674 0
496 1 0.25935 0.557605 0
526 1 0.260157 0.581514 0
527 1 0.279952 0.568357 0
528 1 0.283716 0.593308 0
498 1 0.302565 0.552727 0
529 1 0.304529 0.576957 0
500 1 0.325036 0.56374 0
530 1 0.327614 0.58829 0
531 1 0.347653 0.574329 0
532 1 0.350402 0.59899 0
502 1 0.368511 0.559052 0
504 1 0.391791 0.569767 0
533 1 0.371117 0.583786 0
534 1 0.396752 0.593764 0
506 1 0.411305 0.551664 0
535 1 0.416447 0.576256 0
508 1 0.434699 0.559043 0
537 1 0.44176 0.58258 0
510 1 0.47747 0.549422 0
539 1 0.460035 0.566492 0
540 1 0.482892 0.573246 0
538 1 0.466481 0.591636 0
569 1 0.489804 0.597724 0
542 1 0.0251644 0.615463 0
571 1 0.00440106 0.62913 0
543 1 0.0442812 0.599376 0
573 1 0.0259348 0.641003 0
544 1 0.0468885 0.626335 0
541 1 0.0017917 0.604622 0
546 1 0.0666945 0.609999 0
547 1 0.0891185 0.621196 0
575 1 0.069104 0.635975 0
576 1 0.091394 0.646891 0
548 1 0.109931 0.606521 0
550 1 0.132278 0.61676 0
577 1 0.112962 0.631052 0
579 1 0.135147 0.642271 0
553 1 0.196484 0.599873 0
551 1 0.152135 0.602364 0
581 1 0.156919 0.628261 0
552 1 0.176232 0.614504 0
582 1 0.178459 0.63981 0
583 1 0.199 0.62479 0
554 1 0.218777 0.610753 0
556 1 0.241803 0.620795 0
585 1 0.221572 0.635364 0
586 1 0.243847 0.645405 0
557 1 0.26238 0.605505 0
587 1 0.265224 0.630611 0
558 1 0.286139 0.616552 0
589 1 0.287908 0.641792 0
559 1 0.306517 0.602422 0
560 1 0.309373 0.627 0
561 1 0.328884 0.611813 0
591 1 0.330237 0.637227 0
562 1 0.3503 0.623601 0
563 1 0.37621 0.609043 0
564 1 0.372047 0.63437 0
593 1 0.3515 0.648951 0
595 1 0.393989 0.640389 0
565 1 0.400093 0.617757 0
536 1 0.421146 0.600681 0
566 1 0.431373 0.626356 0
567 1 0.446649 0.607732 0
596 1 0.41691 0.646832 0
597 1 0.454633 0.63291 0
568 1 0.472797 0.615502 0
570 1 0.480001 0.640119 0
1442 1 0.496109 0.622118 0
572 1 0.00635489 0.655552 0
603 1 0.0300954 0.665619 0
602 1 0.00996739 0.68054 0
633 1 0.0342234 0.690056 0
574 1 0.0492479 0.649732 0
605 1 0.0715893 0.660301 0
604 1 0.0526726 0.67615 0
606 1 0.0746636 0.686107 0
607 1 0.0950538 0.671237 0
637 1 0.098439 0.696434 0
578 1 0.11529 0.65623 0
609 1 0.137185 0.668119 0
608 1 0.116824 0.680925 0
639 1 0.140242 0.692112 0
580 1 0.156773 0.65234 0
611 1 0.180859 0.664364 0
610 1 0.160261 0.677036 0
612 1 0.18389 0.690095 0
584 1 0.202285 0.650596 0
613 1 0.203514 0.676239 0
615 1 0.224275 0.660848 0
614 1 0.226335 0.684779 0
617 1 0.246659 0.670777 0
616 1 0.248159 0.696356 0
588 1 0.266059 0.656316 0
619 1 0.288891 0.667201 0
618 1 0.268447 0.682449 0
590 1 0.308888 0.65249 0
621 1 0.31129 0.676384 0
592 1 0.331946 0.662219 0
622 1 0.33538 0.686808 0
623 1 0.355735 0.674202 0
594 1 0.374558 0.657494 0
653 1 0.360771 0.698628 0
624 1 0.379147 0.682758 0
625 1 0.397943 0.664751 0
598 1 0.439708 0.653032 0
627 1 0.42246 0.669924 0
626 1 0.40569 0.689119 0
628 1 0.445632 0.676925 0
657 1 0.428733 0.696805 0
599 1 0.464171 0.658593 0
600 1 0.487765 0.663837 0
629 1 0.470205 0.68261 0
630 1 0.494527 0.687812 0
632 1 0.0135209 0.704761 0
634 1 0.0352917 0.716006 0
663 1 0.0145719 0.730454 0
664 1 0.0389549 0.740026 0
635 1 0.0557657 0.701394 0
636 1 0.0785943 0.711003 0
665 1 0.0583432 0.725269 0
666 1 0.0814703 0.73565 0
667 1 0.101188 0.721699 0
638 1 0.121478 0.706215 0
640 1 0.143352 0.718056 0
669 1 0.122875 0.731591 0
668 1 0.103777 0.746564 0
670 1 0.146066 0.744163 0
641 1 0.164422 0.704136 0
642 1 0.186053 0.717014 0
671 1 0.165067 0.728043 0
673 1 0.186479 0.740784 0
643 1 0.207273 0.700388 0
645 1 0.228678 0.710263 0
644 1 0.208129 0.725604 0
675 1 0.229598 0.736033 0
646 1 0.250115 0.721581 0
647 1 0.27087 0.70655 0
677 1 0.252272 0.745995 0
648 1 0.273619 0.731326 0
649 1 0.293331 0.714905 0
679 1 0.296602 0.739921 0
620 1 0.315538 0.700589 0
651 1 0.337897 0.711337 0
650 1 0.31644 0.724295 0
652 1 0.338809 0.736872 0
655 1 0.386732 0.706212 0
654 1 0.366045 0.723705 0
685 1 0.392773 0.730209 0
683 1 0.376119 0.747308 0
656 1 0.410345 0.713496 0
687 1 0.434627 0.719952 0
686 1 0.417328 0.738556 0
717 1 0.440768 0.742726 0
869 1 0.453802 0.950687 0
658 1 0.452322 0.700732 0
659 1 0.476385 0.706454 0
689 1 0.45865 0.725977 0
660 1 0.484711 0.73128 0
688 1 0.466249 0.749236 0
662 1 0.0176948 0.754248 0
694 1 0.0400237 0.7652 0
693 1 0.0211297 0.780191 0
725 1 0.0419727 0.79115 0
695 1 0.0607647 0.751529 0
697 1 0.0837393 0.761134 0
696 1 0.0626414 0.775648 0
727 1 0.0854062 0.787367 0
699 1 0.125969 0.758598 0
698 1 0.105852 0.77322 0
700 1 0.128689 0.784209 0
728 1 0.108044 0.798279 0
701 1 0.148729 0.769666 0
731 1 0.150312 0.795049 0
672 1 0.166797 0.754354 0
703 1 0.188417 0.764972 0
702 1 0.170188 0.781034 0
704 1 0.192679 0.792281 0
674 1 0.208401 0.750497 0
676 1 0.231423 0.760783 0
705 1 0.210857 0.776669 0
706 1 0.235246 0.786032 0
707 1 0.25436 0.770114 0
678 1 0.274357 0.75663 0
737 1 0.257812 0.795878 0
709 1 0.277432 0.781096 0
680 1 0.297607 0.764825 0
710 1 0.301827 0.790043 0
681 1 0.317976 0.750276 0
682 1 0.339587 0.760902 0
711 1 0.319959 0.774497 0
712 1 0.342305 0.785404 0
713 1 0.36141 0.768785 0
714 1 0.384787 0.773557 0
743 1 0.366599 0.792579 0
745 1 0.390432 0.797603 0
684 1 0.399409 0.755104 0
715 1 0.423664 0.762176 0
716 1 0.408288 0.779487 0
747 1 0.431507 0.785942 0
718 1 0.448218 0.767258 0
690 1 0.490489 0.755313 0
719 1 0.472186 0.77431 0
720 1 0.480539 0.798923 0
749 1 0.455179 0.793529 0
1591 1 0.497066 0.780045 0
723 1 0.0204631 0.806039 0
751 1 0.000474005 0.819261 0
722 1 0.0210838 0.838808 0
724 1 0.0444125 0.814986 0
754 1 0.0466662 0.838564 0
726 1 0.0649543 0.800031 0
757 1 0.0868204 0.812468 0
755 1 0.0676495 0.826438 0
756 1 0.090292 0.838831 0
729 1 0.130608 0.811456 0
759 1 0.110941 0.825459 0
760 1 0.131266 0.836504 0
732 1 0.172507 0.806687 0
730 1 0.152673 0.822129 0
761 1 0.155254 0.846893 0
763 1 0.175114 0.833039 0
733 1 0.194538 0.817984 0
764 1 0.197344 0.841713 0
735 1 0.21476 0.801289 0
736 1 0.237901 0.810692 0
734 1 0.217357 0.827074 0
767 1 0.240666 0.836119 0
708 1 0.281972 0.806056 0
738 1 0.260169 0.820108 0
768 1 0.26646 0.845534 0
769 1 0.284141 0.830662 0
741 1 0.32335 0.800295 0
739 1 0.304416 0.815603 0
740 1 0.308313 0.838906 0
771 1 0.328046 0.823586 0
742 1 0.348692 0.81006 0
773 1 0.355191 0.834013 0
744 1 0.372994 0.816424 0
774 1 0.378221 0.841919 0
775 1 0.397014 0.823475 0
746 1 0.413136 0.804644 0
748 1 0.438744 0.811518 0
777 1 0.419965 0.830078 0
779 1 0.445429 0.836667 0
776 1 0.402994 0.847545 0
750 1 0.461976 0.817277 0
1621 1 0.486612 0.823154 0
780 1 0.469145 0.84038 0
1651 1 0.494617 0.845504 0
753 1 0.0385838 0.859445 0
752 1 0.0144639 0.864129 0
783 1 0.031604 0.881833 0
782 1 0.00886229 0.888773 0
785 1 0.0685242 0.85094 0
784 1 0.0566348 0.876205 0
786 1 0.0742685 0.894301 0
787 1 0.0899645 0.863833 0
817 1 0.0968357 0.886658 0
815 1 0.0494397 0.899767 0
758 1 0.112227 0.851545 0
789 1 0.13626 0.861734 0
788 1 0.117932 0.876771 0
790 1 0.138852 0.892723 0
762 1 0.177095 0.857834 0
791 1 0.15802 0.873999 0
793 1 0.182161 0.882137 0
792 1 0.162401 0.899681 0
765 1 0.22086 0.852132 0
795 1 0.200664 0.866074 0
794 1 0.207645 0.893553 0
796 1 0.224569 0.87638 0
825 1 0.234814 0.898578 0
766 1 0.246219 0.861166 0
797 1 0.270121 0.870513 0
827 1 0.258957 0.892156 0
799 1 0.290535 0.854797 0
798 1 0.284008 0.890135 0
772 1 0.33543 0.84791 0
770 1 0.315373 0.861642 0
800 1 0.309295 0.885163 0
801 1 0.334713 0.877561 0
802 1 0.352933 0.894949 0
803 1 0.360061 0.86911 0
804 1 0.378028 0.887606 0
805 1 0.386291 0.865016 0
778 1 0.428315 0.853838 0
807 1 0.410414 0.872913 0
808 1 0.434649 0.879015 0
837 1 0.416308 0.8976 0
809 1 0.453074 0.860703 0
1681 1 0.47847 0.865713 0
1711 1 0.483824 0.889738 0
810 1 0.458915 0.884925 0
813 1 0.0255032 0.905594 0
843 1 0.0197188 0.930497 0
814 1 0.0429311 0.923425 0
844 1 0.0367387 0.948103 0
812 1 0.00155586 0.913173 0
816 1 0.0923307 0.912038 0
845 1 0.0668564 0.917297 0
846 1 0.0603858 0.94067 0
847 1 0.0859649 0.935154 0
819 1 0.116542 0.901198 0
818 1 0.11067 0.927089 0
820 1 0.130235 0.944638 0
821 1 0.134368 0.919638 0
851 1 0.154231 0.937125 0
823 1 0.186914 0.907202 0
822 1 0.179331 0.930904 0
824 1 0.204942 0.926158 0
885 1 0.220489 0.944584 0
855 1 0.229736 0.921574 0
856 1 0.2461 0.939324 0
826 1 0.252997 0.915511 0
857 1 0.269166 0.936276 0
828 1 0.27708 0.914028 0
859 1 0.293021 0.931837 0
831 1 0.328276 0.901707 0
829 1 0.301621 0.908185 0
830 1 0.320344 0.925011 0
832 1 0.345239 0.920029 0
861 1 0.33685 0.943258 0
806 1 0.394415 0.907536 0
863 1 0.362173 0.936733 0
833 1 0.370495 0.912638 0
834 1 0.386785 0.931624 0
865 1 0.402027 0.949802 0
835 1 0.411645 0.92655 0
836 1 0.428512 0.943955 0
838 1 0.44734 0.926864 0
839 1 0.464978 0.908941 0
840 1 0.472269 0.932389 0
1712 1 0.489551 0.915243 0
1741 1 0.49639 0.939742 0
842 1 0.0130766 0.954474 0
872 1 0.023707 0.996588 0
873 1 0.0297659 0.972607 0
871 1 0.00662094 0.979285 0
874 1 0.0476326 0.989585 0
875 1 0.0530067 0.964671 0
876 1 0.0720382 0.982007 0
848 1 0.0790126 0.958596 0
877 1 0.0981856 0.974352 0
849 1 0.106399 0.951315 0
878 1 0.115578 0.991988 0
879 1 0.124107 0.969551 0
881 1 0.139878 0.987653 0
850 1 0.148234 0.963191 0
854 1 0.194993 0.949789 0
882 1 0.180936 0.999062 0
853 1 0.171728 0.95569 0
852 1 0.164231 0.980985 0
883 1 0.188488 0.97499 0
13 1 0.206504 0.993747 0
15 1 0.2312 0.987394 0
884 1 0.21313 0.96977 0
886 1 0.237315 0.962977 0
858 1 0.287495 0.954537 0
887 1 0.261963 0.958514 0
17 1 0.257228 0.983746 0
888 1 0.280469 0.977615 0
19 1 0.296951 0.997145 0
860 1 0.312966 0.948516 0
889 1 0.304186 0.972396 0
890 1 0.32208 0.989638 0
892 1 0.346358 0.984963 0
891 1 0.329782 0.966992 0
862 1 0.354664 0.960681 0
864 1 0.378271 0.956926 0
893 1 0.370489 0.981487 0
895 1 0.393732 0.975578 0
866 1 0.416521 0.9688 0
896 1 0.412641 0.993474 0
867 1 0.439915 0.969464 0
897 1 0.443755 0.993763 0
868 1 0.462239 0.976827 0
1771 1 0.488489 0.982174 0
7 1 0.090594 0.998252 0
902 1 0.54022 0.0219079 0
901 1 0.515392 0.0157284 0
931 1 0.522608 0.0404546 0
933 1 0.546126 0.045689 0
904 1 0.563856 0.0278811 0
906 1 0.581303 0.0109174 0
935 1 0.58779 0.0338324 0
905 1 0.556061 0.004312 0
908 1 0.605272 0.0164064 0
937 1 0.612803 0.0387714 0
939 1 0.629131 0.0219603 0
938 1 0.636954 0.0450497 0
910 1 0.644612 0.0035306 0
941 1 0.654343 0.0267991 0
912 1 0.670267 0.00875386 0
942 1 0.677666 0.0339244 0
943 1 0.694296 0.0151607 0
973 1 0.702334 0.0402432 0
944 1 0.718611 0.0218408 0
945 1 0.737924 0.00135353 0
946 1 0.744949 0.0247141 0
975 1 0.726916 0.0448125 0
947 1 0.761189 0.00597383 0
948 1 0.769916 0.0299176 0
918 1 0.788006 0.0117911 0
976 1 0.751572 0.0482731 0
921 1 0.81608 0.00526566 0
949 1 0.806762 0.0278354 0
951 1 0.833595 0.0201008 0
950 1 0.825998 0.0435746 0
952 1 0.851037 0.037626 0
953 1 0.857324 0.0148252 0
924 1 0.881907 0.00879912 0
954 1 0.874871 0.0318999 0
955 1 0.899652 0.0262133 0
925 1 0.906056 0.00267831 0
926 1 0.924794 0.0190188 0
957 1 0.942063 0.0369464 0
956 1 0.91739 0.0429481 0
928 1 0.950295 0.0131852 0
1 1 0.999005 0.00269275 0
959 1 0.967122 0.0319031 0
930 1 0.992189 0.0251114 0
929 1 0.97386 0.00911442 0
932 1 0.529273 0.0639916 0
962 1 0.537397 0.0878881 0
961 1 0.513104 0.0807481 0
60 1 0.504849 0.0564401 0
934 1 0.570902 0.0506071 0
963 1 0.553779 0.0687057 0
965 1 0.577826 0.0744358 0
964 1 0.560968 0.0929017 0
936 1 0.595789 0.0568064 0
995 1 0.586588 0.0981252 0
966 1 0.602287 0.0801655 0
967 1 0.620389 0.0626347 0
968 1 0.626575 0.0868212 0
969 1 0.644935 0.0684624 0
999 1 0.652336 0.0936424 0
940 1 0.662671 0.0525218 0
970 1 0.668713 0.0755895 0
971 1 0.685302 0.0578832 0
972 1 0.692339 0.0819275 0
1001 1 0.675597 0.0998363 0
1003 1 0.709788 0.0636144 0
1004 1 0.716644 0.0867808 0
974 1 0.733699 0.0683915 0
1005 1 0.741698 0.0926559 0
1007 1 0.757695 0.0721199 0
977 1 0.776324 0.0556219 0
978 1 0.794569 0.0744133 0
1006 1 0.765845 0.0948014 0
1008 1 0.789671 0.098706 0
979 1 0.802496 0.0519004 0
980 1 0.820525 0.0684768 0
981 1 0.844541 0.0613562 0
1009 1 0.813912 0.0920579 0
1011 1 0.837253 0.0856791 0
985 1 0.893229 0.0501025 0
982 1 0.861083 0.0793462 0
983 1 0.869763 0.0553374 0
984 1 0.886767 0.0741724 0
1013 1 0.879789 0.098116 0
1015 1 0.904159 0.0937734 0
986 1 0.909924 0.0674324 0
987 1 0.933943 0.0594043 0
1017 1 0.928087 0.0828606 0
960 1 0.983891 0.0491534 0
988 1 0.950963 0.0783087 0
958 1 0.959935 0.0549324 0
989 1 0.977051 0.0727185 0
990 1 0.993342 0.0907248 0
1019 1 0.968456 0.0963355 0
991 1 0.51939 0.104459 0
992 1 0.528126 0.1284 0
993 1 0.544504 0.110965 0
1021 1 0.509683 0.144675 0
120 1 0.501848 0.121011 0
1023 1 0.551767 0.134771 0
994 1 0.569016 0.116314 0
996 1 0.592678 0.124031 0
1025 1 0.575823 0.140729 0
1026 1 0.599621 0.147307 0
997 1 0.609747 0.105588 0
998 1 0.634705 0.110922 0
1027 1 0.616248 0.128399 0
1029 1 0.641572 0.135332 0
1000 1 0.658737 0.118306 0
1031 1 0.683293 0.123134 0
1030 1 0.665239 0.141717 0
1032 1 0.691548 0.146996 0
1002 1 0.70094 0.104737 0
1033 1 0.708607 0.128514 0
1035 1 0.726203 0.11078 0
1034 1 0.734488 0.135018 0
1036 1 0.75091 0.116436 0
1037 1 0.778414 0.120414 0
1038 1 0.796427 0.13836 0
1067 1 0.758751 0.139949 0
1039 1 0.807067 0.115617 0
1010 1 0.830198 0.109357 0
1041 1 0.847575 0.128787 0
1040 1 0.823438 0.13425 0
1012 1 0.855281 0.104741 0
1043 1 0.872918 0.122529 0
1014 1 0.896419 0.117816 0
1044 1 0.890457 0.141925 0
1042 1 0.865275 0.147001 0
1045 1 0.914274 0.13425 0
1016 1 0.921701 0.110083 0
1047 1 0.938363 0.128216 0
1018 1 0.944452 0.102788 0
1049 1 0.961281 0.120751 0
1020 1 0.985971 0.1146 0
1050 1 0.979405 0.138773 0
1046 1 0.95596 0.145888 0
1022 1 0.533732 0.152849 0
1053 1 0.540206 0.177117 0
1051 1 0.516905 0.17133 0
1052 1 0.522574 0.195696 0
1349 1 0.960058 0.473877 0
1024 1 0.55886 0.15901 0
1055 1 0.581678 0.164601 0
1054 1 0.564841 0.183256 0
1056 1 0.590055 0.189305 0
1028 1 0.623827 0.152591 0
1057 1 0.606415 0.170571 0
1058 1 0.630734 0.17669 0
1059 1 0.646803 0.159171 0
1087 1 0.613637 0.19583 0
1060 1 0.656047 0.183914 0
1061 1 0.67117 0.165629 0
1062 1 0.697185 0.171184 0
1091 1 0.678761 0.188465 0
1093 1 0.705655 0.194003 0
1063 1 0.717379 0.152723 0
1064 1 0.722308 0.176432 0
1065 1 0.741919 0.159483 0
1094 1 0.729736 0.201087 0
1095 1 0.750695 0.183628 0
1066 1 0.766167 0.164863 0
1068 1 0.789905 0.162617 0
1097 1 0.778208 0.187406 0
1069 1 0.815701 0.157609 0
1071 1 0.840216 0.151915 0
1070 1 0.833484 0.176209 0
1099 1 0.807396 0.181295 0
1100 1 0.827752 0.200338 0
1101 1 0.851164 0.194383 0
1072 1 0.858623 0.171054 0
1073 1 0.882597 0.165309 0
1103 1 0.877329 0.189604 0
1074 1 0.90034 0.183245 0
1075 1 0.906907 0.160217 0
1077 1 0.93114 0.152691 0
1076 1 0.926115 0.177273 0
1107 1 0.945091 0.193847 0
1078 1 0.949131 0.169544 0
1048 1 0.973481 0.162647 0
151 1 0.997744 0.155934 0
1079 1 0.992003 0.179316 0
1109 1 0.967579 0.186017 0
1083 1 0.547645 0.201555 0
1081 1 0.504737 0.212686 0
1082 1 0.529273 0.219489 0
1111 1 0.511048 0.236214 0
1113 1 0.535498 0.243401 0
1084 1 0.55307 0.225337 0
1085 1 0.572472 0.207358 0
1086 1 0.596506 0.213823 0
1115 1 0.578177 0.231809 0
1089 1 0.638532 0.200272 0
1117 1 0.601873 0.23804 0
1088 1 0.621357 0.220709 0
1119 1 0.646045 0.226493 0
1118 1 0.627885 0.243709 0
1090 1 0.663804 0.207976 0
1092 1 0.688647 0.212307 0
1121 1 0.669918 0.231012 0
1122 1 0.695066 0.236469 0
1120 1 0.651093 0.252253 0
1123 1 0.711431 0.219259 0
1124 1 0.717553 0.242873 0
1125 1 0.736442 0.224968 0
1155 1 0.74194 0.248345 0
1096 1 0.754575 0.207111 0
1127 1 0.778468 0.212958 0
1126 1 0.760914 0.231486 0
1128 1 0.796085 0.229703 0
1098 1 0.800988 0.205786 0
1131 1 0.845278 0.219299 0
1129 1 0.820051 0.224112 0
1130 1 0.840616 0.24264 0
1159 1 0.814594 0.246576 0
1102 1 0.869289 0.213026 0
1104 1 0.895515 0.207901 0
1132 1 0.864129 0.237152 0
1133 1 0.888805 0.231696 0
1105 1 0.919876 0.200912 0
1135 1 0.913889 0.225117 0
1106 1 0.937792 0.218008 0
1136 1 0.92981 0.244172 0
1137 1 0.954127 0.23727 0
1108 1 0.962521 0.211602 0
1110 1 0.985862 0.206253 0
1139 1 0.978827 0.230563 0
1140 1 0.996929 0.246749 0
1112 1 0.517284 0.261921 0
1143 1 0.542334 0.267651 0
1142 1 0.524724 0.284994 0
1144 1 0.550069 0.292069 0
421 1 0.984103 0.483585 0
1114 1 0.55977 0.249323 0
1116 1 0.584608 0.255446 0
1145 1 0.567884 0.273235 0
1146 1 0.590469 0.280637 0
1175 1 0.573388 0.299235 0
1147 1 0.609351 0.262365 0
1149 1 0.634109 0.269794 0