ITEM: TIMESTEP
6000
ITEM: NUMBER OF ATOMS
1800
ITEM: BOX BOUNDS pp pp pp
6.5662865849290597e-01 1.5774337134150682e+02
6.5662865849290597e-01 1.5774337134150682e+02
0.0000000000000000e+00 5.2800000000000002e+00
ITEM: ATOMS id type xs ys zs
2 1 0.0139384 0.0118437 0
3 1 0.0376014 0.00627476 0
33 1 0.0311352 0.0292183 0
31 1 0.00765864 0.0371345 0
4 1 0.0539636 0.0235472 0
6 1 0.0779056 0.0205685 0
35 1 0.0712034 0.0437728 0
8 1 0.101398 0.0165024 0
9 1 0.125954 0.0136171 0
37 1 0.0964991 0.0395797 0
39 1 0.120394 0.0362953 0
10 1 0.143625 0.0283897 0
41 1 0.168125 0.0283014 0
11 1 0.15563 0.00713554 0
12 1 0.184206 0.00838698 0
14 1 0.206622 0.0137955 0
43 1 0.192154 0.03529 0
44 1 0.215164 0.0367149 0
16 1 0.25431 0.00696605 0
45 1 0.230515 0.0190523 0
46 1 0.249104 0.0326203 0
47 1 0.272872 0.0279246 0
18 1 0.28246 0.00682527 0
20 1 0.3109 0.00665894 0
49 1 0.298825 0.0262139 0
22 1 0.353578 0.0282399 0
51 1 0.325814 0.0255266 0
21 1 0.34011 0.0058845 0
1291 1 0.498181 0.436772 0
24 1 0.379241 0.0187015 0
53 1 0.373899 0.0471707 0
55 1 0.397178 0.0361684 0
25 1 0.402704 0.0116225 0
26 1 0.420112 0.0278661 0
28 1 0.447334 0.0206821 0
57 1 0.441874 0.0476116 0
27 1 0.425719 0.00490158 0
30 1 0.493845 0.0229071 0
59 1 0.478236 0.039845 0
29 1 0.4713 0.0117072 0
32 1 0.0233589 0.0544986 0
62 1 0.0180416 0.0769305 0
63 1 0.0408279 0.07301 0
34 1 0.0469367 0.0471728 0
36 1 0.0872847 0.0622385 0
64 1 0.0563615 0.0915421 0
65 1 0.0631116 0.0666253 0
66 1 0.0820866 0.0858177 0
38 1 0.112656 0.0591458 0
67 1 0.10448 0.0806488 0
69 1 0.136422 0.0729419 0
40 1 0.151856 0.05321 0
71 1 0.162877 0.0741774 0
42 1 0.174577 0.0527011 0
72 1 0.18614 0.0752808 0
73 1 0.204023 0.0575229 0
74 1 0.22403 0.0730576 0
75 1 0.235477 0.0516746 0
76 1 0.247172 0.0781133 0
77 1 0.258707 0.0567477 0
50 1 0.312145 0.0448241 0
48 1 0.287337 0.0467786 0
78 1 0.279219 0.0701684 0
79 1 0.304695 0.0671835 0
80 1 0.319665 0.0884171 0
52 1 0.351337 0.0546994 0
81 1 0.32954 0.0636054 0
82 1 0.351426 0.0813543 0
54 1 0.395174 0.0623313 0
83 1 0.372298 0.0709937 0
84 1 0.398756 0.0866889 0
56 1 0.415448 0.0509987 0
85 1 0.419414 0.0736774 0
87 1 0.444297 0.0762532 0
391 1 0.00110854 0.432673 0
88 1 0.467031 0.0851146 0
58 1 0.462868 0.060279 0
89 1 0.485345 0.0669902 0
90 1 0.490937 0.0929147 0
93 1 0.0322572 0.0955024 0
92 1 0.0181994 0.121693 0
94 1 0.0427992 0.115975 0
95 1 0.0703857 0.109871 0
96 1 0.0882921 0.12671 0
125 1 0.061604 0.133174 0
68 1 0.121731 0.096073 0
97 1 0.098596 0.104267 0
98 1 0.115999 0.119781 0
99 1 0.138935 0.119426 0
129 1 0.130995 0.1411 0
70 1 0.145727 0.0951534 0
100 1 0.161992 0.111681 0
101 1 0.180928 0.0988946 0
131 1 0.180126 0.12549 0
102 1 0.201899 0.112747 0
103 1 0.20556 0.0894873 0
104 1 0.21882 0.130723 0
105 1 0.225315 0.107797 0
106 1 0.247976 0.102607 0
107 1 0.271316 0.0913044 0
135 1 0.241954 0.125469 0
137 1 0.26876 0.128889 0
108 1 0.286035 0.110653 0
109 1 0.295895 0.0896821 0
139 1 0.295967 0.134033 0
110 1 0.31897 0.113423 0
111 1 0.340925 0.103185 0
141 1 0.338204 0.126468 0
113 1 0.376632 0.0940651 0
112 1 0.361931 0.112189 0
114 1 0.387125 0.119814 0
115 1 0.407091 0.109984 0
143 1 0.369613 0.137438 0
145 1 0.413093 0.133906 0
86 1 0.427623 0.0949812 0
116 1 0.43111 0.118855 0
117 1 0.450169 0.102622 0
118 1 0.456546 0.12667 0
119 1 0.472295 0.109205 0
120 1 0.495782 0.117177 0
149 1 0.480063 0.134614 0
123 1 0.0349628 0.139275 0
122 1 0.0125233 0.144227 0
153 1 0.0273832 0.164035 0
152 1 0.00404486 0.171904 0
124 1 0.0508074 0.156417 0
126 1 0.0799201 0.150959 0
155 1 0.0690537 0.173002 0
154 1 0.0467637 0.179858 0
127 1 0.107805 0.143611 0
128 1 0.121139 0.16208 0
157 1 0.0961999 0.165435 0
159 1 0.151609 0.157386 0
130 1 0.155998 0.13403 0
161 1 0.164633 0.177747 0
132 1 0.174775 0.150254 0
133 1 0.197322 0.142764 0
134 1 0.216652 0.155521 0
163 1 0.196556 0.168106 0
164 1 0.220401 0.180996 0
136 1 0.253209 0.146566 0
165 1 0.238948 0.164772 0
167 1 0.265181 0.168056 0
138 1 0.280193 0.151272 0
169 1 0.30328 0.155784 0
168 1 0.288241 0.17451 0
170 1 0.312875 0.180851 0
140 1 0.319291 0.140842 0
142 1 0.347812 0.14787 0
171 1 0.330453 0.161778 0
172 1 0.353636 0.172251 0
144 1 0.393082 0.146638 0
173 1 0.375921 0.163891 0
175 1 0.397353 0.17283 0
147 1 0.436373 0.142634 0
146 1 0.417719 0.157388 0
177 1 0.440365 0.165797 0
176 1 0.420817 0.184218 0
148 1 0.458268 0.150505 0
450 1 0.487884 0.485347 0
150 1 0.480865 0.157656 0
179 1 0.467536 0.17595 0
182 1 0.0160913 0.209374 0
183 1 0.0214211 0.186766 0
184 1 0.0401047 0.201949 0
156 1 0.0898401 0.191861 0
185 1 0.0649642 0.194487 0
186 1 0.0792037 0.21219 0
215 1 0.0542406 0.22061 0
158 1 0.114728 0.185233 0
187 1 0.107525 0.207449 0
189 1 0.136432 0.201565 0
188 1 0.126234 0.224595 0
160 1 0.138529 0.17847 0
190 1 0.151046 0.21954 0
191 1 0.166007 0.200847 0
162 1 0.185713 0.190254 0
192 1 0.189553 0.215492 0
193 1 0.207094 0.198845 0
194 1 0.214813 0.221557 0
166 1 0.24702 0.186019 0
195 1 0.231206 0.202529 0
196 1 0.254478 0.210258 0
197 1 0.270436 0.19164 0
198 1 0.27852 0.216346 0
199 1 0.295315 0.197668 0
229 1 0.301294 0.221195 0
200 1 0.317258 0.203746 0
201 1 0.334875 0.188392 0
202 1 0.338906 0.212843 0
203 1 0.358328 0.197776 0
233 1 0.358639 0.222811 0
174 1 0.379311 0.186258 0
204 1 0.378754 0.210863 0
205 1 0.400553 0.197594 0
178 1 0.446274 0.191871 0
207 1 0.427034 0.207677 0
208 1 0.451571 0.218059 0
180 1 0.491716 0.187686 0
209 1 0.47129 0.203656 0
1081 1 0.494581 0.211654 0
212 1 0.00646161 0.250748 0
213 1 0.0293556 0.231853 0
243 1 0.0295549 0.256646 0
214 1 0.0491964 0.244154 0
216 1 0.0716264 0.234391 0
245 1 0.0716049 0.258865 0
244 1 0.0502058 0.269045 0
217 1 0.0991757 0.230021 0
218 1 0.120588 0.248215 0
247 1 0.096823 0.253896 0
219 1 0.143757 0.241295 0
221 1 0.175457 0.235951 0
249 1 0.136801 0.265449 0
220 1 0.160209 0.255953 0
222 1 0.185965 0.258494 0
223 1 0.199055 0.239311 0
224 1 0.22106 0.245698 0
253 1 0.207104 0.265937 0
255 1 0.229176 0.272666 0
225 1 0.237988 0.227541 0
226 1 0.244451 0.253252 0
227 1 0.260699 0.2363 0
257 1 0.26896 0.258999 0
228 1 0.282625 0.241171 0
230 1 0.306071 0.244038 0
259 1 0.293273 0.264088 0
260 1 0.31595 0.266282 0
231 1 0.328641 0.233462 0
232 1 0.349638 0.246106 0
261 1 0.339113 0.270721 0
263 1 0.362084 0.266971 0
234 1 0.374577 0.245796 0
235 1 0.39229 0.229646 0
265 1 0.398198 0.25477 0
206 1 0.420252 0.232601 0
236 1 0.424178 0.256454 0
237 1 0.442811 0.240177 0
238 1 0.447987 0.263683 0
210 1 0.476688 0.229542 0
239 1 0.466299 0.250537 0
240 1 0.487497 0.258245 0
241 1 0.00286527 0.27895 0
271 1 0.0127719 0.30385 0
242 1 0.0273609 0.280816 0
272 1 0.03486 0.314654 0
273 1 0.0480965 0.294327 0
275 1 0.0679706 0.284427 0
276 1 0.0813207 0.30316 0
274 1 0.0601652 0.317173 0
246 1 0.0908085 0.280531 0
248 1 0.111684 0.271829 0
277 1 0.105627 0.298577 0
279 1 0.127121 0.287838 0
278 1 0.126765 0.315689 0
251 1 0.170746 0.278052 0
250 1 0.150095 0.287094 0
280 1 0.148777 0.30919 0
281 1 0.170676 0.300502 0
252 1 0.192255 0.285843 0
254 1 0.215529 0.292244 0
283 1 0.192934 0.310183 0
284 1 0.217551 0.315724 0
256 1 0.25371 0.275498 0
285 1 0.239959 0.294491 0
287 1 0.262585 0.298567 0
258 1 0.278566 0.280956 0
288 1 0.288455 0.304661 0
289 1 0.301667 0.285916 0
290 1 0.312001 0.311003 0
262 1 0.349525 0.294226 0
291 1 0.324717 0.28991 0
292 1 0.334756 0.313064 0
323 1 0.356584 0.319309 0
264 1 0.38252 0.277596 0
293 1 0.371115 0.298014 0
294 1 0.383334 0.317852 0
295 1 0.396122 0.296265 0
266 1 0.406388 0.275671 0
267 1 0.42956 0.279162 0
297 1 0.418493 0.298743 0
268 1 0.451802 0.289554 0
269 1 0.469747 0.273413 0
270 1 0.479078 0.295804 0
299 1 0.458722 0.311177 0
1141 1 0.497348 0.281773 0
302 1 0.0218691 0.354331 0
303 1 0.0406687 0.337347 0
301 1 0.0171904 0.329493 0
304 1 0.0633939 0.341994 0
305 1 0.0820509 0.327054 0
306 1 0.0863871 0.350413 0
333 1 0.0443975 0.359902 0
335 1 0.0696866 0.364781 0
307 1 0.108755 0.333157 0
308 1 0.111384 0.35755 0
309 1 0.129351 0.340949 0
339 1 0.135094 0.366158 0
310 1 0.156843 0.361716 0
311 1 0.152425 0.335601 0
312 1 0.175305 0.347892 0
282 1 0.174056 0.324758 0
313 1 0.201795 0.333516 0
314 1 0.200185 0.356011 0
315 1 0.225448 0.341184 0
286 1 0.245982 0.316744 0
316 1 0.250892 0.339145 0
317 1 0.270864 0.321301 0
318 1 0.274363 0.344679 0
319 1 0.297336 0.336038 0
349 1 0.294925 0.359947 0
320 1 0.31699 0.354634 0
321 1 0.321575 0.332419 0
322 1 0.345151 0.341309 0
353 1 0.358708 0.363762 0
296 1 0.409001 0.319479 0
324 1 0.369257 0.340418 0
325 1 0.393429 0.339311 0
355 1 0.38334 0.361327 0
326 1 0.407537 0.356403 0
298 1 0.433678 0.31531 0
327 1 0.423845 0.338928 0
328 1 0.447777 0.342393 0
300 1 0.488259 0.321038 0
1201 1 0.490605 0.345508 0
329 1 0.46927 0.33392 0
330 1 0.470909 0.357708 0
332 1 0.0282792 0.378031 0
363 1 0.0373854 0.402165 0
361 1 0.00905693 0.392616 0
331 1 0.00230464 0.369688 0
334 1 0.0527987 0.384489 0
336 1 0.0758068 0.388468 0
365 1 0.0610224 0.407412 0
337 1 0.0936231 0.3737 0
338 1 0.116785 0.384108 0
367 1 0.098295 0.398739 0
369 1 0.118281 0.41092 0
340 1 0.137864 0.397066 0
341 1 0.159094 0.384544 0
371 1 0.163127 0.406949 0
345 1 0.222051 0.364862 0
342 1 0.18233 0.394571 0
343 1 0.179077 0.371273 0
344 1 0.202005 0.379094 0
375 1 0.222097 0.393115 0
346 1 0.241923 0.379225 0
347 1 0.262189 0.363421 0
377 1 0.264184 0.388535 0
376 1 0.243199 0.402985 0
348 1 0.288986 0.38187 0
350 1 0.312254 0.377399 0
379 1 0.306708 0.401173 0
378 1 0.283094 0.40354 0
351 1 0.335543 0.371135 0
352 1 0.35412 0.386861 0
381 1 0.330341 0.393981 0
382 1 0.347947 0.409701 0
354 1 0.377848 0.383622 0
383 1 0.37086 0.405819 0
385 1 0.393639 0.401003 0
356 1 0.401368 0.37802 0
357 1 0.42652 0.370305 0
358 1 0.442124 0.389266 0
387 1 0.420652 0.394305 0
359 1 0.450257 0.36673 0
1261 1 0.485624 0.397577 0
1231 1 0.487834 0.372715 0
360 1 0.465693 0.383319 0
389 1 0.459953 0.405276 0
362 1 0.0214083 0.418244 0
393 1 0.0285293 0.440824 0
364 1 0.0489373 0.428268 0
392 1 0.0089426 0.455118 0
394 1 0.0517003 0.451299 0
395 1 0.0736228 0.430477 0
366 1 0.0969317 0.42413 0
368 1 0.119203 0.434415 0
397 1 0.0969206 0.447266 0
399 1 0.141343 0.443855 0
370 1 0.13993 0.420129 0
400 1 0.165499 0.451048 0
401 1 0.163552 0.429539 0
373 1 0.205376 0.410931 0
372 1 0.185551 0.422304 0
374 1 0.225403 0.420087 0
403 1 0.205894 0.435867 0
404 1 0.232056 0.444288 0
405 1 0.250065 0.425522 0
406 1 0.265732 0.449626 0
407 1 0.274246 0.426048 0
408 1 0.290805 0.446501 0
409 1 0.29918 0.42223 0
410 1 0.312375 0.440297 0
380 1 0.325032 0.417028 0
411 1 0.339569 0.434196 0
412 1 0.355642 0.451174 0
413 1 0.362972 0.428751 0
384 1 0.388817 0.42389 0
414 1 0.381099 0.4462 0
415 1 0.40595 0.439724 0
386 1 0.412092 0.41836 0
388 1 0.436305 0.412048 0
417 1 0.432153 0.437562 0
390 1 0.480233 0.420261 0
419 1 0.454968 0.429313 0
420 1 0.475105 0.444827 0
449 1 0.469053 0.469854 0
422 1 0.0154337 0.478627 0
423 1 0.0325445 0.463311 0
424 1 0.0374887 0.489768 0
396 1 0.0740523 0.459341 0
425 1 0.0557297 0.474227 0
426 1 0.0786216 0.482777 0
398 1 0.121268 0.457072 0
427 1 0.100024 0.47261 0
428 1 0.128077 0.480489 0
429 1 0.147522 0.466205 0
430 1 0.150753 0.489115 0
431 1 0.17106 0.473539 0
461 1 0.173831 0.49615 0
402 1 0.188321 0.456516 0
432 1 0.194118 0.480214 0
433 1 0.213203 0.459958 0
434 1 0.220769 0.485252 0
435 1 0.237892 0.466332 0
436 1 0.260946 0.471698 0
465 1 0.246034 0.489591 0
467 1 0.272497 0.493976 0
437 1 0.285191 0.470619 0
438 1 0.301891 0.488841 0
439 1 0.307615 0.465583 0
442 1 0.34935 0.474011 0
441 1 0.331218 0.458019 0
440 1 0.326564 0.483074 0
1321 1 0.491665 0.460373 0
473 1 0.36522 0.490608 0
443 1 0.373198 0.468919 0
445 1 0.39681 0.464174 0
444 1 0.388114 0.486545 0
418 1 0.452017 0.452216 0
448 1 0.452187 0.491394 0
447 1 0.437595 0.473711 0
416 1 0.420391 0.458608 0
446 1 0.413535 0.482084 0
1230 1 -3.38134e-05 0.34586 0
455 1 0.0604686 0.498745 0
471 1 0.342518 0.499467 0
5 1 0.0627681 0.00139362 0
452 1 0.0174604 0.533351 0
483 1 0.0386631 0.540155 0
454 1 0.0365442 0.515321 0
453 1 0.00793553 0.50883 0
456 1 0.0824196 0.51891 0
485 1 0.0588038 0.522754 0
23 1 0.363082 0.998838 0
458 1 0.114794 0.524296 0
459 1 0.132162 0.504638 0
487 1 0.0964928 0.541116 0
457 1 0.105131 0.501343 0
489 1 0.138158 0.528775 0
460 1 0.156151 0.512135 0
491 1 0.162496 0.535361 0
462 1 0.181292 0.518529 0
464 1 0.228381 0.507919 0
493 1 0.206286 0.524973 0
492 1 0.188403 0.540212 0
463 1 0.203301 0.501953 0
466 1 0.250406 0.514899 0
495 1 0.229786 0.532901 0
497 1 0.273885 0.517102 0
496 1 0.253892 0.538653 0
468 1 0.296443 0.513039 0
469 1 0.320286 0.507361 0
499 1 0.311486 0.533609 0
498 1 0.288362 0.53557 0
470 1 0.3354 0.525891 0
472 1 0.360204 0.516281 0
501 1 0.352931 0.541885 0
474 1 0.385111 0.511672 0
503 1 0.376381 0.533652 0
476 1 0.412783 0.526289 0
475 1 0.406194 0.505237 0
507 1 0.435937 0.532061 0
478 1 0.452403 0.514645 0
477 1 0.429501 0.500087 0
479 1 0.47348 0.503265 0
480 1 0.475444 0.526764 0
509 1 0.457391 0.540186 0
482 1 0.00699761 0.556974 0
512 1 0.0247501 0.595702 0
513 1 0.0282739 0.567879 0
514 1 0.0475901 0.58234 0
484 1 0.0526162 0.559356 0
486 1 0.0725943 0.545888 0
515 1 0.0764555 0.568488 0
516 1 0.0924663 0.58839 0
488 1 0.119079 0.547009 0
517 1 0.105138 0.566217 0
518 1 0.115034 0.589212 0
519 1 0.128803 0.570302 0
490 1 0.14556 0.552489 0
520 1 0.152234 0.576028 0
521 1 0.16952 0.558362 0
522 1 0.175612 0.583649 0
494 1 0.21286 0.549305 0
523 1 0.194166 0.567444 0
524 1 0.21798 0.574748 0
553 1 0.196997 0.591671 0
525 1 0.236166 0.556934 0
526 1 0.254919 0.572374 0
527 1 0.272184 0.554173 0
555 1 0.238149 0.587816 0
528 1 0.280572 0.578205 0
529 1 0.303451 0.560325 0
559 1 0.302564 0.586928 0
500 1 0.329568 0.54955 0
530 1 0.324404 0.574818 0
531 1 0.347079 0.565242 0
532 1 0.347364 0.590686 0
505 1 0.395408 0.546697 0
502 1 0.372298 0.556529 0
504 1 0.392168 0.570132 0
533 1 0.368394 0.578736 0
535 1 0.415872 0.571388 0
506 1 0.419161 0.548446 0
508 1 0.440377 0.557565 0
537 1 0.437648 0.580739 0
538 1 0.4599 0.588807 0
510 1 0.49045 0.553418 0
539 1 0.464202 0.565198 0
540 1 0.485284 0.576145 0
541 1 0.00374349 0.606728 0
542 1 0.0264571 0.618616 0
543 1 0.0467059 0.606499 0
571 1 0.005682 0.631465 0
544 1 0.0483212 0.630187 0
545 1 0.0688264 0.592957 0
546 1 0.0680229 0.615655 0
547 1 0.0931508 0.615933 0
548 1 0.116721 0.612612 0
577 1 0.114021 0.636182 0
549 1 0.137113 0.594927 0
550 1 0.138617 0.618047 0
551 1 0.157153 0.603861 0
581 1 0.160621 0.62652 0
552 1 0.180377 0.610632 0
554 1 0.219073 0.600499 0
583 1 0.202151 0.619973 0
585 1 0.223238 0.629931 0
556 1 0.241916 0.613549 0
557 1 0.259787 0.595655 0
587 1 0.26467 0.620882 0
558 1 0.282705 0.604359 0
560 1 0.309557 0.61549 0
589 1 0.288674 0.627449 0
561 1 0.332131 0.608251 0
562 1 0.355002 0.614637 0
591 1 0.331083 0.631736 0
534 1 0.397595 0.59288 0
563 1 0.376154 0.603261 0
564 1 0.374817 0.62937 0
565 1 0.395372 0.616811 0
595 1 0.40062 0.638587 0
536 1 0.41985 0.5989 0
566 1 0.419319 0.621483 0
567 1 0.44173 0.604933 0
597 1 0.44088 0.628535 0
568 1 0.46368 0.612564 0
569 1 0.482573 0.599496 0
570 1 0.485306 0.621723 0
573 1 0.0259665 0.643092 0
572 1 0.00501745 0.657972 0
603 1 0.030918 0.667371 0
602 1 0.00971803 0.683479 0
575 1 0.0750186 0.638756 0
574 1 0.0519212 0.655011 0
605 1 0.0770122 0.665698 0
604 1 0.0530464 0.678091 0
576 1 0.0953318 0.649833 0
578 1 0.116742 0.659878 0
607 1 0.0976912 0.676162 0
579 1 0.136981 0.643227 0
609 1 0.140616 0.665838 0
580 1 0.15932 0.649914 0
610 1 0.162161 0.675773 0
611 1 0.181296 0.662514 0
582 1 0.182968 0.63571 0
584 1 0.203895 0.644655 0
613 1 0.209813 0.6691 0
614 1 0.230708 0.679228 0
586 1 0.245053 0.637916 0
615 1 0.226507 0.654383 0
617 1 0.248082 0.660946 0
588 1 0.266417 0.646188 0
590 1 0.309343 0.641694 0
619 1 0.289089 0.653391 0
618 1 0.269119 0.669951 0
621 1 0.309096 0.667736 0
593 1 0.352911 0.64083 0
592 1 0.331301 0.654795 0
622 1 0.341206 0.68037 0
623 1 0.359987 0.663417 0
594 1 0.379407 0.650973 0
625 1 0.405181 0.66201 0
624 1 0.384036 0.674986 0
596 1 0.42374 0.645606 0
598 1 0.446886 0.652787 0
627 1 0.427885 0.66842 0
599 1 0.465064 0.636871 0
600 1 0.486407 0.646357 0
629 1 0.468326 0.660794 0
630 1 0.484125 0.676946 0
632 1 0.0143875 0.706143 0
633 1 0.0322506 0.691157 0
634 1 0.0341151 0.718088 0
606 1 0.0745866 0.690145 0
635 1 0.0523189 0.70232 0
636 1 0.0761038 0.714985 0
608 1 0.121279 0.682293 0
637 1 0.0967831 0.699171 0
638 1 0.120049 0.70582 0
667 1 0.098504 0.723518 0
639 1 0.142649 0.691356 0
640 1 0.14664 0.714815 0
641 1 0.166714 0.700724 0
671 1 0.170035 0.724691 0
612 1 0.186532 0.685191 0
642 1 0.189765 0.710348 0
643 1 0.208436 0.693801 0
644 1 0.211261 0.720336 0
616 1 0.253151 0.688257 0
645 1 0.230248 0.703806 0
646 1 0.254934 0.712393 0
647 1 0.275145 0.697515 0
648 1 0.277539 0.720435 0
649 1 0.297441 0.704197 0
650 1 0.317037 0.717943 0
620 1 0.318577 0.692517 0
651 1 0.342431 0.706727 0
652 1 0.349353 0.729067 0
653 1 0.363284 0.689334 0
654 1 0.366659 0.713209 0
655 1 0.387756 0.702002 0
626 1 0.410007 0.684202 0
656 1 0.410773 0.709077 0
657 1 0.432271 0.694371 0
658 1 0.453787 0.708167 0
628 1 0.457855 0.682469 0
659 1 0.479165 0.701157 0
660 1 0.496426 0.719521 0
689 1 0.472591 0.725118 0
662 1 0.0115233 0.761096 0
663 1 0.0218273 0.74008 0
751 1 0.00338673 0.828348 0
664 1 0.0407257 0.760234 0
665 1 0.0586487 0.73415 0
666 1 0.0808114 0.740549 0
695 1 0.0645111 0.759356 0
697 1 0.0873976 0.763047 0
668 1 0.105321 0.744956 0
669 1 0.124875 0.729997 0
699 1 0.127611 0.752609 0
670 1 0.14929 0.739864 0
701 1 0.153159 0.765546 0
672 1 0.173294 0.750919 0
673 1 0.192687 0.735859 0
674 1 0.215287 0.744985 0
703 1 0.19724 0.760088 0
705 1 0.219096 0.771772 0
675 1 0.233486 0.727938 0
676 1 0.236675 0.756183 0
677 1 0.254831 0.7383 0
707 1 0.261197 0.764204 0
678 1 0.276735 0.744616 0
679 1 0.299181 0.734083 0
680 1 0.312433 0.756505 0
709 1 0.28925 0.763529 0
681 1 0.328355 0.739461 0
682 1 0.349271 0.754648 0
683 1 0.370719 0.740723 0
684 1 0.390275 0.752897 0
685 1 0.389672 0.724956 0
713 1 0.369205 0.764586 0
715 1 0.413977 0.761047 0
686 1 0.412225 0.735056 0
687 1 0.435632 0.723657 0
717 1 0.436063 0.747881 0
718 1 0.450248 0.767004 0
688 1 0.463087 0.747456 0
690 1 0.487658 0.748736 0
719 1 0.474911 0.770132 0
691 1 0.00293976 0.783203 0
693 1 0.0264656 0.779083 0
692 1 0.0180769 0.803138 0
723 1 0.0418133 0.803478 0
694 1 0.0500968 0.782732 0
696 1 0.0718948 0.78217 0
725 1 0.0648916 0.806067 0
726 1 0.0881699 0.80843 0
698 1 0.110668 0.767179 0
727 1 0.0961943 0.786694 0
728 1 0.113273 0.802808 0
729 1 0.135914 0.799837 0
700 1 0.131517 0.777716 0
731 1 0.158953 0.796105 0
732 1 0.173048 0.813323 0
702 1 0.174289 0.774984 0
704 1 0.196517 0.78389 0
733 1 0.196309 0.806302 0
735 1 0.217629 0.794951 0
706 1 0.242181 0.783805 0
736 1 0.239493 0.810601 0
737 1 0.262046 0.802293 0
708 1 0.277967 0.785065 0
710 1 0.307045 0.779785 0
739 1 0.299519 0.802678 0
740 1 0.31559 0.818886 0
711 1 0.331662 0.774134 0
712 1 0.353565 0.784163 0
741 1 0.329001 0.798438 0
742 1 0.357199 0.811328 0
714 1 0.389078 0.777492 0
743 1 0.374733 0.796376 0
745 1 0.40006 0.803077 0
716 1 0.417942 0.785308 0
746 1 0.425805 0.809363 0
747 1 0.440884 0.789218 0
748 1 0.44813 0.811422 0
1621 1 0.496369 0.820374 0
720 1 0.489097 0.794752 0
749 1 0.464249 0.792367 0
722 1 0.026061 0.823259 0
752 1 0.0139768 0.860081 0
753 1 0.033231 0.846186 0
724 1 0.0518316 0.826713 0
754 1 0.0566094 0.84973 0
755 1 0.0806907 0.831522 0
785 1 0.0790666 0.855608 0
756 1 0.100098 0.848206 0
757 1 0.105595 0.824951 0
758 1 0.123977 0.854507 0
759 1 0.128168 0.826611 0
730 1 0.150695 0.819728 0
760 1 0.147435 0.844246 0
761 1 0.169479 0.836644 0
791 1 0.168306 0.85991 0
734 1 0.216418 0.818621 0
762 1 0.188258 0.852039 0
763 1 0.19285 0.82883 0
764 1 0.211974 0.843748 0
765 1 0.234904 0.833902 0
766 1 0.251895 0.84971 0
767 1 0.258123 0.825874 0
795 1 0.227258 0.861102 0
738 1 0.280534 0.81928 0
768 1 0.275046 0.841741 0
769 1 0.298792 0.834952 0
799 1 0.293036 0.857607 0
770 1 0.319754 0.851524 0
771 1 0.337347 0.828297 0
772 1 0.346132 0.85073 0
744 1 0.382928 0.820402 0
773 1 0.362711 0.833254 0
774 1 0.389097 0.843828 0
775 1 0.409806 0.827773 0
803 1 0.369962 0.856784 0
776 1 0.415096 0.851494 0
777 1 0.431853 0.833627 0
778 1 0.440096 0.855626 0
779 1 0.458071 0.833761 0
750 1 0.471558 0.815656 0
780 1 0.480762 0.840416 0
809 1 0.465598 0.857466 0
782 1 0.0148117 0.885355 0
783 1 0.0376103 0.867961 0
813 1 0.0372643 0.891726 0
784 1 0.0605453 0.873355 0
786 1 0.0829701 0.879022 0
815 1 0.0606524 0.898228 0
816 1 0.0831527 0.902106 0
787 1 0.104701 0.872684 0
788 1 0.128169 0.884855 0
817 1 0.107962 0.897086 0
819 1 0.133115 0.908565 0
789 1 0.147653 0.86897 0
790 1 0.152402 0.89234 0
792 1 0.175968 0.895821 0
793 1 0.202831 0.869628 0
794 1 0.222407 0.88417 0
823 1 0.198605 0.900841 0
796 1 0.246359 0.87537 0
797 1 0.268983 0.867166 0
825 1 0.240565 0.899204 0
827 1 0.265764 0.889108 0
798 1 0.288308 0.881264 0
800 1 0.31172 0.876658 0
829 1 0.306389 0.899915 0
801 1 0.335004 0.870702 0
802 1 0.352093 0.88945 0
831 1 0.330283 0.894005 0
804 1 0.37567 0.881231 0
805 1 0.397301 0.869666 0
833 1 0.371327 0.904735 0
806 1 0.393294 0.895589 0
807 1 0.423632 0.873055 0
808 1 0.447981 0.880454 0
837 1 0.42909 0.897125 0
1711 1 0.493664 0.890476 0
1681 1 0.489511 0.863343 0
810 1 0.472325 0.881228 0
839 1 0.455504 0.905606 0
812 1 0.0211831 0.908438 0
842 1 0.0103024 0.949179 0
843 1 0.0260266 0.932227 0
814 1 0.0429972 0.915876 0
844 1 0.0478895 0.939789 0
845 1 0.067841 0.920735 0
846 1 0.0723097 0.946843 0
847 1 0.0910685 0.925385 0
818 1 0.114705 0.922651 0
848 1 0.0969346 0.950611 0
849 1 0.119937 0.947848 0
821 1 0.155864 0.914779 0
820 1 0.137659 0.931303 0
850 1 0.144757 0.953831 0
851 1 0.16306 0.939954 0
822 1 0.17985 0.918891 0
824 1 0.205165 0.924879 0
853 1 0.186853 0.94191 0
854 1 0.210566 0.948566 0
826 1 0.25918 0.913671 0
855 1 0.22819 0.92709 0
856 1 0.253606 0.939358 0
828 1 0.282515 0.906982 0
857 1 0.276976 0.928584 0
858 1 0.291512 0.946529 0
859 1 0.299374 0.924806 0
860 1 0.315509 0.942387 0
830 1 0.322958 0.920667 0
832 1 0.347515 0.911282 0
861 1 0.343927 0.935217 0
863 1 0.368284 0.928852 0
834 1 0.39035 0.919673 0
864 1 0.374596 0.951455 0
865 1 0.397113 0.94598 0
835 1 0.413511 0.916462 0
836 1 0.420538 0.939997 0
838 1 0.437509 0.922006 0
867 1 0.443841 0.948253 0
1741 1 0.487454 0.93996 0
840 1 0.478983 0.908931 0
869 1 0.46114 0.931437 0
872 1 0.0205641 0.988324 0
873 1 0.027805 0.965872 0
871 1 0.00374881 0.972433 0
874 1 0.0436294 0.982779 0
875 1 0.0541066 0.962841 0
876 1 0.0776907 0.971295 0
841 1 0.00346919 0.92517 0
7 1 0.0860342 0.994058 0
877 1 0.100983 0.973943 0
878 1 0.113425 0.994889 0
879 1 0.126443 0.971023 0
852 1 0.172781 0.960673 0
880 1 0.136761 0.991468 0
881 1 0.154396 0.976391 0
882 1 0.177528 0.985745 0
15 1 0.224223 0.996 0
13 1 0.200986 0.99002 0
883 1 0.195481 0.96674 0
884 1 0.217972 0.972581 0
885 1 0.235105 0.955092 0
886 1 0.243349 0.980363 0
887 1 0.260271 0.964296 0
17 1 0.268488 0.987619 0
888 1 0.282226 0.967802 0
889 1 0.305848 0.966327 0
19 1 0.294808 0.987543 0
862 1 0.351837 0.958186 0
890 1 0.320765 0.98553 0
892 1 0.345635 0.981747 0
891 1 0.329286 0.964552 0
893 1 0.368219 0.975751 0
895 1 0.391473 0.970881 0
894 1 0.386783 0.995736 0
896 1 0.408616 0.989026 0
866 1 0.41469 0.963488 0
898 1 0.448955 0.997357 0
897 1 0.430291 0.980834 0
868 1 0.453381 0.972979 0
900 1 0.49519 0.996436 0
1771 1 0.491279 0.970998 0
899 1 0.472166 0.985631 0
870 1 0.470807 0.956129 0
511 1 0.001494 0.582701 0
1591 1 0.497299 0.770403 0
902 1 0.539846 0.0125803 0
933 1 0.540967 0.037873 0
901 1 0.51565 0.00779504 0
931 1 0.518299 0.0328113 0
904 1 0.562574 0.0213473 0
935 1 0.584629 0.0345004 0
1021 1 0.502512 0.144957 0
906 1 0.581949 0.0114551 0
909 1 0.628101 0.00169747 0
908 1 0.608735 0.0216718 0
937 1 0.604586 0.0454007 0
939 1 0.634847 0.0247184 0
910 1 0.65218 0.00790619 0
941 1 0.657058 0.0313183 0
912 1 0.676541 0.0142985 0
914 1 0.721771 0.0134591 0
943 1 0.69849 0.020499 0
942 1 0.683091 0.0381883 0
944 1 0.707645 0.0410888 0
916 1 0.753993 0.00255702 0
945 1 0.730503 0.0365643 0
947 1 0.751053 0.0269564 0
918 1 0.777252 0.0199428 0
919 1 0.792788 0.00121258 0
949 1 0.798019 0.0332508 0
948 1 0.772491 0.0432188 0
920 1 0.813571 0.0142428 0
922 1 0.844256 0.0247268 0
951 1 0.823228 0.0339212 0
953 1 0.866264 0.0324618 0
924 1 0.886612 0.0189845 0
954 1 0.888561 0.0432648 0
923 1 0.86444 0.00483421 0
925 1 0.909637 0.00581538 0
955 1 0.908079 0.030126 0
926 1 0.929438 0.0175168 0
928 1 0.9514 0.0102038 0
957 1 0.933195 0.0413915 0
959 1 0.956063 0.0331922 0
930 1 0.992402 0.0194443 0
960 1 0.981604 0.0424336 0
929 1 0.974397 0.00666871 0
932 1 0.525206 0.0558164 0
962 1 0.530541 0.0808054 0
963 1 0.547706 0.0629504 0
961 1 0.506859 0.0753207 0
934 1 0.563574 0.0460541 0
936 1 0.586783 0.0597412 0
964 1 0.551429 0.0929067 0
965 1 0.568733 0.0756683 0
966 1 0.5937 0.0847741 0
938 1 0.628499 0.0498579 0
967 1 0.60923 0.0691294 0
968 1 0.614655 0.0934598 0
969 1 0.632629 0.0753581 0
940 1 0.650973 0.0549824 0
970 1 0.654348 0.0807068 0
971 1 0.675599 0.0597361 0
972 1 0.677228 0.0846819 0
973 1 0.69912 0.0615716 0
974 1 0.722729 0.0836106 0
975 1 0.725968 0.0593113 0
1003 1 0.700902 0.0847717 0
946 1 0.747697 0.051179 0
976 1 0.744348 0.07696 0
977 1 0.76768 0.0701871 0
950 1 0.813802 0.0548176 0
978 1 0.783371 0.0876317 0
979 1 0.790046 0.0599442 0
980 1 0.806266 0.0786604 0
952 1 0.841069 0.0501129 0
981 1 0.830136 0.073291 0
983 1 0.866514 0.0557924 0
984 1 0.869405 0.0787163 0
985 1 0.889119 0.0673253 0
956 1 0.913155 0.0551945 0
986 1 0.908958 0.0804043 0
958 1 0.95745 0.0567766 0
987 1 0.935458 0.0664242 0
988 1 0.954787 0.0805567 0
61 1 0.999636 0.0611865 0
989 1 0.977343 0.0696882 0
990 1 0.995338 0.0851186 0
991 1 0.514903 0.098863 0
992 1 0.517337 0.123673 0
993 1 0.536023 0.109419 0
1023 1 0.538229 0.133778 0
994 1 0.558925 0.11631 0
995 1 0.576411 0.0983259 0
996 1 0.58076 0.125834 0
997 1 0.597057 0.108249 0
998 1 0.621342 0.11592 0
999 1 0.63812 0.0983638 0
1000 1 0.645819 0.124184 0
1001 1 0.66204 0.103609 0
1031 1 0.668436 0.129891 0
1002 1 0.688044 0.10518 0
1004 1 0.71151 0.105159 0
1033 1 0.698878 0.126493 0
1005 1 0.738932 0.102203 0
1006 1 0.753302 0.119457 0
1007 1 0.760945 0.0944199 0
1035 1 0.726217 0.124377 0
1037 1 0.770807 0.136569 0
1008 1 0.777165 0.111385 0
1009 1 0.801625 0.103971 0
1039 1 0.796406 0.129992 0
982 1 0.84735 0.0879726 0
1010 1 0.818191 0.120217 0
1011 1 0.825069 0.0945537 0
1012 1 0.842561 0.113711 0
1043 1 0.860072 0.128793 0
1013 1 0.866041 0.103987 0
1014 1 0.881864 0.12144 0
1015 1 0.887869 0.0922164 0
1016 1 0.908761 0.10563 0
1017 1 0.930174 0.0909054 0
1018 1 0.952138 0.104878 0
1047 1 0.929321 0.115948 0
1049 1 0.946926 0.129781 0
1046 1 0.925873 0.139119 0
1019 1 0.974609 0.0939889 0
1020 1 0.971946 0.117008 0
91 1 0.997176 0.10999 0
121 1 0.991358 0.132807 0
1022 1 0.52551 0.152671 0
1053 1 0.529911 0.178438 0
1024 1 0.546521 0.162525 0
1051 1 0.506274 0.167282 0
1025 1 0.560376 0.14051 0
1026 1 0.58218 0.150049 0
1055 1 0.56874 0.168921 0
1027 1 0.603329 0.133654 0
1029 1 0.628926 0.143811 0
1028 1 0.614611 0.163712 0
1057 1 0.593992 0.172688 0
1059 1 0.64172 0.167597 0
1030 1 0.653091 0.146935 0
1061 1 0.664454 0.174488 0
1032 1 0.675355 0.152306 0
1034 1 0.723188 0.148071 0
1063 1 0.6991 0.150363 0
1062 1 0.689268 0.172989 0
1064 1 0.7138 0.169651 0
1036 1 0.746551 0.142213 0
1065 1 0.739406 0.165312 0
1067 1 0.763598 0.159197 0
1038 1 0.788757 0.153658 0
1040 1 0.815366 0.144172 0
1069 1 0.808002 0.167648 0
1068 1 0.784082 0.180031 0
1041 1 0.837835 0.136339 0
1042 1 0.855724 0.151911 0
1071 1 0.833427 0.159823 0
1072 1 0.851125 0.175071 0
1045 1 0.902937 0.131204 0
1044 1 0.879153 0.144942 0
1073 1 0.872862 0.168119 0
1075 1 0.897126 0.161861 0
1048 1 0.942849 0.15496 0
1077 1 0.921502 0.162113 0
1078 1 0.942394 0.179034 0
1076 1 0.916332 0.183883 0
1050 1 0.966675 0.143035 0
1079 1 0.963559 0.166281 0
151 1 0.986282 0.156396 0
1052 1 0.514242 0.195087 0
1082 1 0.517933 0.220089 0
1083 1 0.534994 0.202281 0
1084 1 0.544796 0.226425 0
1054 1 0.552721 0.185242 0
1056 1 0.577621 0.191093 0
1085 1 0.560018 0.209441 0
1086 1 0.582332 0.214139 0
1058 1 0.626636 0.188757 0
1087 1 0.604193 0.193779 0
1088 1 0.609088 0.218362 0
1089 1 0.63218 0.210774 0
1060 1 0.650899 0.192374 0
1090 1 0.660946 0.214106 0
1091 1 0.677193 0.195071 0
1092 1 0.684741 0.221494 0
1093 1 0.702209 0.192035 0
1066 1 0.755326 0.185453 0
1094 1 0.727857 0.210248 0
1095 1 0.729956 0.186419 0
1096 1 0.752416 0.218606 0
1097 1 0.772486 0.20351 0
1098 1 0.794987 0.210911 0
1099 1 0.806373 0.190649 0
1127 1 0.777574 0.227451 0
1100 1 0.82144 0.209152 0
1070 1 0.82814 0.18211 0
1101 1 0.845442 0.197666 0
1102 1 0.864109 0.219056 0
1131 1 0.842587 0.220664 0
1074 1 0.892935 0.187166 0
1103 1 0.868751 0.193331 0
1104 1 0.885075 0.209798 0
1105 1 0.9089 0.207736 0
1107 1 0.934604 0.202089 0
1108 1 0.949852 0.222735 0
1080 1 0.982412 0.182223 0
1109 1 0.962987 0.196482 0
1110 1 0.97451 0.224741 0
421 1 0.988614 0.467394 0
181 1 0.989502 0.205412 0
1111 1 0.500886 0.238337 0
1112 1 0.513079 0.26382 0
1113 1 0.526501 0.244381 0
1143 1 0.537244 0.269791 0
1114 1 0.550067 0.250183 0
1115 1 0.568384 0.232836 0
1116 1 0.578777 0.257593 0
1117 1 0.593253 0.237738 0
1118 1 0.623457 0.244896 0
1147 1 0.604993 0.259739 0
1119 1 0.645769 0.231481 0
1120 1 0.646932 0.255314 0
1121 1 0.668508 0.239398 0
1151 1 0.673547 0.263636 0
1122 1 0.691667 0.244712 0
1123 1 0.709159 0.226311 0
1124 1 0.713509 0.250319 0
1153 1 0.699462 0.269363 0
1125 1 0.732723 0.234111 0
1126 1 0.758923 0.241146 0
1155 1 0.740931 0.257429 0
1157 1 0.76481 0.266765 0
1128 1 0.781976 0.249834 0
1129 1 0.801324 0.235603 0
1159 1 0.809302 0.258101 0
1130 1 0.825403 0.238291 0
1132 1 0.852331 0.241058 0
1161 1 0.832863 0.261088 0
1133 1 0.877824 0.238775 0
1134 1 0.890775 0.258872 0
1135 1 0.901507 0.234804 0
1163 1 0.864852 0.25944 0