ITEM: TIMESTEP
60000
ITEM: NUMBER OF ATOMS
1800
ITEM: BOX BOUNDS pp pp pp
2.9800717652808970e+00 1.5541992823471810e+02
2.9800717652808970e+00 1.5541992823471810e+02
0.0000000000000000e+00 5.2800000000000002e+00
ITEM: ATOMS id type xs ys zs
2 1 0.0176985 0.01908 0
3 1 0.0413072 0.0119295 0
33 1 0.0349789 0.035601 0
31 1 0.00859187 0.0426564 0
4 1 0.0584884 0.0292877 0
6 1 0.0851357 0.0222487 0
5 1 0.0670045 0.00652248 0
35 1 0.0755099 0.0456242 0
37 1 0.100123 0.0404103 0
8 1 0.108588 0.0167674 0
9 1 0.125409 0.0347711 0
880 1 0.133331 0.0115402 0
10 1 0.150554 0.0280947 0
11 1 0.158084 0.00437622 0
12 1 0.174819 0.0217031 0
43 1 0.191186 0.0397997 0
41 1 0.166711 0.0449827 0
14 1 0.199454 0.0165013 0
44 1 0.215347 0.0358486 0
45 1 0.223728 0.0104668 0
46 1 0.240446 0.0296734 0
16 1 0.248706 0.00624644 0
47 1 0.265523 0.0257172 0
49 1 0.289843 0.020275 0
48 1 0.282595 0.0440648 0
77 1 0.257572 0.0490619 0
18 1 0.272541 0.000828245 0
50 1 0.307176 0.0383083 0
20 1 0.31425 0.0124192 0
51 1 0.33185 0.0322362 0
21 1 0.339622 0.00787892 0
22 1 0.358166 0.0278872 0
24 1 0.383045 0.0206557 0
53 1 0.375211 0.0465443 0
52 1 0.34919 0.0521217 0
23 1 0.36475 0.00284069 0
55 1 0.399303 0.040095 0
25 1 0.408012 0.0148267 0
26 1 0.427769 0.0341418 0
27 1 0.431575 0.00936591 0
30 1 0.497415 0.0372634 0
898 1 0.455186 0.0170462 0
28 1 0.456291 0.0423047 0
29 1 0.478426 0.0219515 0
900 1 0.498461 0.000589068 0
32 1 0.0262811 0.0601171 0
62 1 0.0187573 0.0843923 0
63 1 0.0432607 0.0777985 0
61 1 0.00131382 0.0668494 0
34 1 0.0505762 0.053441 0
65 1 0.067829 0.0699727 0
66 1 0.0834868 0.0888576 0
36 1 0.0918449 0.0637905 0
64 1 0.0601336 0.0953903 0
39 1 0.141648 0.0524084 0
38 1 0.115939 0.0585547 0
67 1 0.109338 0.0824648 0
69 1 0.134102 0.0749754 0
70 1 0.150631 0.0930693 0
40 1 0.1595 0.068986 0
71 1 0.175276 0.0883539 0
42 1 0.184315 0.0643351 0
72 1 0.201196 0.0825512 0
73 1 0.208509 0.058939 0
74 1 0.225761 0.0783576 0
75 1 0.232242 0.0532301 0
106 1 0.244092 0.0954714 0
76 1 0.250154 0.0726365 0
78 1 0.276576 0.0684698 0
109 1 0.293561 0.0872463 0
107 1 0.269576 0.091735 0
79 1 0.29991 0.0628353 0
80 1 0.317796 0.0796171 0
81 1 0.324502 0.0566581 0
82 1 0.342917 0.0772171 0
83 1 0.36586 0.0692301 0
113 1 0.381339 0.0888608 0
54 1 0.392768 0.0651076 0
56 1 0.4163 0.0563918 0
57 1 0.439164 0.0645706 0
85 1 0.419256 0.0801546 0
87 1 0.446828 0.0877982 0
84 1 0.402906 0.100385 0
59 1 0.479674 0.0531327 0
88 1 0.469993 0.0942146 0
58 1 0.463392 0.069668 0
89 1 0.48748 0.0774302 0
93 1 0.0342548 0.101966 0
92 1 0.0280103 0.126981 0
91 1 0.00927736 0.108854 0
123 1 0.0444631 0.143875 0
121 1 0.00332854 0.133754 0
122 1 0.0201979 0.151027 0
94 1 0.053181 0.119543 0
95 1 0.077126 0.112247 0
125 1 0.0690987 0.136341 0
96 1 0.0950013 0.130823 0
68 1 0.126263 0.0994042 0
97 1 0.101875 0.106087 0
98 1 0.118744 0.123147 0
99 1 0.14348 0.116977 0
129 1 0.134841 0.141172 0
127 1 0.110534 0.148237 0
100 1 0.167689 0.111527 0
130 1 0.158931 0.13533 0
131 1 0.184796 0.129699 0
101 1 0.192747 0.105205 0
103 1 0.217098 0.10085 0
133 1 0.202267 0.148016 0
102 1 0.20885 0.123678 0
105 1 0.235231 0.11868 0
104 1 0.227483 0.143 0
136 1 0.252344 0.141779 0
135 1 0.259237 0.115541 0
137 1 0.276347 0.132976 0
108 1 0.285309 0.110291 0
111 1 0.331912 0.10025 0
139 1 0.300451 0.136497 0
110 1 0.310844 0.111191 0
141 1 0.343462 0.122554 0
140 1 0.324611 0.137967 0
142 1 0.348338 0.148469 0
112 1 0.358845 0.102218 0
114 1 0.383572 0.113957 0
143 1 0.365996 0.132307 0
144 1 0.389983 0.138485 0
86 1 0.42838 0.103513 0
115 1 0.40929 0.122658 0
116 1 0.432482 0.129608 0
145 1 0.415777 0.147998 0
90 1 0.492665 0.102179 0
117 1 0.450308 0.113573 0
118 1 0.457443 0.137163 0
119 1 0.475337 0.12031 0
149 1 0.482156 0.144944 0
450 1 0.484328 0.478351 0
153 1 0.0378525 0.166726 0
152 1 0.013049 0.175521 0
183 1 0.0304905 0.191396 0
124 1 0.0626135 0.159821 0
126 1 0.0858554 0.155227 0
155 1 0.0767919 0.178878 0
154 1 0.0535842 0.184545 0
156 1 0.0958319 0.194581 0
128 1 0.128068 0.164937 0
157 1 0.102972 0.173211 0
160 1 0.146685 0.183035 0
158 1 0.12169 0.18802 0
132 1 0.176703 0.153471 0
159 1 0.151956 0.158542 0
161 1 0.169746 0.177614 0
162 1 0.1866 0.195664 0
163 1 0.1944 0.170894 0
134 1 0.21779 0.16642 0
164 1 0.2305 0.18645 0
165 1 0.244633 0.166063 0
166 1 0.254328 0.192279 0
167 1 0.268484 0.173321 0
138 1 0.286132 0.156154 0
168 1 0.294063 0.179248 0
197 1 0.277496 0.197438 0
169 1 0.311141 0.16034 0
171 1 0.333881 0.166979 0
170 1 0.318515 0.185324 0
201 1 0.340513 0.194813 0
172 1 0.357514 0.176179 0
173 1 0.373099 0.156606 0
174 1 0.381931 0.18348 0
175 1 0.397721 0.16528 0
147 1 0.440532 0.154421 0
146 1 0.422242 0.171674 0
205 1 0.405382 0.18905 0
176 1 0.429254 0.195609 0
177 1 0.445833 0.177768 0
148 1 0.463737 0.161876 0
150 1 0.487005 0.169447 0
179 1 0.470202 0.186594 0
180 1 0.494955 0.192831 0
1080 1 0.00683628 0.199105 0
182 1 0.0233595 0.216261 0
213 1 0.0410913 0.234859 0
211 1 0.0167519 0.241031 0
184 1 0.0480799 0.20821 0
185 1 0.0708286 0.202341 0
186 1 0.0885271 0.218517 0
215 1 0.064322 0.22611 0
216 1 0.0820305 0.242753 0
187 1 0.11389 0.211035 0
188 1 0.131413 0.230052 0
189 1 0.137284 0.206366 0
217 1 0.107421 0.234055 0
191 1 0.162816 0.200879 0
190 1 0.154663 0.224396 0
192 1 0.192189 0.219861 0
221 1 0.175253 0.23674 0
220 1 0.154317 0.250833 0
193 1 0.210103 0.202942 0
223 1 0.199667 0.243117 0
194 1 0.217952 0.22679 0
195 1 0.236143 0.210775 0
225 1 0.241728 0.234488 0
224 1 0.223349 0.251599 0
196 1 0.261221 0.215699 0
198 1 0.284037 0.222963 0
227 1 0.265643 0.238952 0
228 1 0.288298 0.247552 0
199 1 0.300285 0.204448 0
200 1 0.322706 0.212438 0
229 1 0.306287 0.229559 0
231 1 0.330041 0.236506 0
202 1 0.346406 0.21792 0
203 1 0.364053 0.200517 0
204 1 0.388694 0.207552 0
233 1 0.370414 0.224774 0
235 1 0.393493 0.232655 0
232 1 0.354191 0.243189 0
234 1 0.377499 0.250843 0
207 1 0.434637 0.223755 0
206 1 0.418448 0.241163 0
237 1 0.443127 0.245894 0
178 1 0.454155 0.205681 0
208 1 0.46064 0.228456 0
209 1 0.478034 0.210084 0
210 1 0.485081 0.234425 0
212 1 0.0105802 0.26416 0
243 1 0.0355636 0.258197 0
241 1 0.00911582 0.288148 0
242 1 0.0339197 0.292756 0
214 1 0.0581906 0.251602 0
244 1 0.0542082 0.27706 0
245 1 0.0782301 0.266473 0
275 1 0.0765669 0.291617 0
247 1 0.0978788 0.279358 0
218 1 0.101191 0.256183 0
219 1 0.125251 0.253299 0
249 1 0.139615 0.271629 0
248 1 0.121555 0.287085 0
250 1 0.146265 0.294668 0
222 1 0.181826 0.259996 0
251 1 0.163725 0.275818 0
252 1 0.187971 0.284181 0
253 1 0.205646 0.268263 0
255 1 0.229279 0.275882 0
254 1 0.211509 0.292331 0
285 1 0.235675 0.300542 0
226 1 0.247028 0.257964 0
256 1 0.253638 0.28283 0
257 1 0.270138 0.264088 0
259 1 0.294579 0.271032 0
258 1 0.277747 0.288789 0
230 1 0.312979 0.253804 0
289 1 0.301912 0.295596 0
260 1 0.319907 0.277678 0
261 1 0.336748 0.259686 0
262 1 0.34317 0.284694 0
263 1 0.360161 0.267268 0
264 1 0.383888 0.275115 0
293 1 0.366404 0.293097 0
295 1 0.389642 0.298338 0
265 1 0.402137 0.25897 0
236 1 0.425655 0.26528 0
266 1 0.408857 0.283086 0
267 1 0.432669 0.288544 0
238 1 0.450428 0.26947 0
239 1 0.467109 0.25123 0
1141 1 0.497653 0.280963 0
240 1 0.49221 0.257709 0
269 1 0.474359 0.275745 0
268 1 0.456428 0.292818 0
270 1 0.481161 0.299799 0
271 1 0.014172 0.310739 0
272 1 0.0377698 0.320804 0
301 1 0.0199844 0.336776 0
303 1 0.0443531 0.345836 0
273 1 0.0564008 0.305877 0
276 1 0.0842025 0.316446 0
274 1 0.0642499 0.330641 0
305 1 0.0871921 0.340574 0
246 1 0.103721 0.303056 0
279 1 0.127055 0.311044 0
277 1 0.108366 0.326832 0
278 1 0.1307 0.334955 0
307 1 0.110746 0.349979 0
281 1 0.168953 0.30091 0
280 1 0.150278 0.317992 0
311 1 0.154238 0.343259 0
283 1 0.192747 0.308523 0
282 1 0.174543 0.32475 0
313 1 0.198222 0.331904 0
284 1 0.216054 0.316251 0
315 1 0.221544 0.339845 0
286 1 0.239961 0.323901 0
316 1 0.246726 0.347137 0
287 1 0.259587 0.306687 0
288 1 0.283443 0.313389 0
317 1 0.264849 0.331185 0
319 1 0.289134 0.336227 0
291 1 0.326288 0.303031 0
290 1 0.30819 0.319251 0
321 1 0.31362 0.345098 0
292 1 0.331536 0.326693 0
323 1 0.349627 0.310539 0
294 1 0.373867 0.317832 0
324 1 0.356088 0.335595 0
325 1 0.38156 0.340998 0
296 1 0.397501 0.322264 0
297 1 0.415268 0.307132 0
326 1 0.403723 0.347237 0
298 1 0.440364 0.312386 0
327 1 0.421958 0.330316 0
328 1 0.444758 0.3366 0
299 1 0.463699 0.317546 0
300 1 0.486961 0.324039 0
1201 1 0.493971 0.347509 0
329 1 0.469139 0.342822 0
331 1 0.00477521 0.377904 0
302 1 0.0241715 0.360756 0
332 1 0.0281587 0.385697 0
333 1 0.0481458 0.370373 0
334 1 0.052405 0.395415 0
304 1 0.0672602 0.355192 0
306 1 0.0900681 0.364086 0
335 1 0.0714092 0.380469 0
337 1 0.095344 0.388021 0
309 1 0.134544 0.357685 0
308 1 0.115964 0.374972 0
339 1 0.138663 0.382763 0
338 1 0.120221 0.398824 0
312 1 0.178732 0.3486 0
310 1 0.15871 0.366087 0
341 1 0.163094 0.390123 0
343 1 0.182805 0.373307 0
342 1 0.186966 0.395816 0
314 1 0.201735 0.356539 0
345 1 0.226632 0.36414 0
344 1 0.206777 0.381622 0
375 1 0.230608 0.38793 0
346 1 0.250459 0.371371 0
377 1 0.256237 0.396786 0
318 1 0.271454 0.354514 0
349 1 0.294924 0.361555 0
347 1 0.274932 0.378576 0
350 1 0.301277 0.384668 0
322 1 0.338056 0.351556 0
320 1 0.3196 0.36775 0
351 1 0.342618 0.376821 0
381 1 0.323771 0.393197 0
353 1 0.360976 0.359402 0
355 1 0.384576 0.364485 0
354 1 0.365688 0.384031 0
385 1 0.390028 0.388951 0
357 1 0.426719 0.353941 0
356 1 0.408713 0.372145 0
387 1 0.433402 0.378123 0
386 1 0.414397 0.396662 0
359 1 0.45166 0.361031 0
358 1 0.458003 0.384227 0
330 1 0.477167 0.366609 0
360 1 0.482551 0.389832 0
361 1 0.00886464 0.401121 0
363 1 0.0319661 0.409875 0
362 1 0.0140579 0.428296 0
364 1 0.0374081 0.435051 0
336 1 0.0759876 0.40491 0
365 1 0.0554201 0.419738 0
395 1 0.0620812 0.443954 0
367 1 0.0998044 0.413379 0
366 1 0.106939 0.439515 0
369 1 0.124183 0.422436 0
340 1 0.143888 0.406554 0
368 1 0.129905 0.446486 0
370 1 0.148262 0.430603 0
371 1 0.168349 0.413637 0
401 1 0.173882 0.437208 0
372 1 0.192007 0.421277 0
403 1 0.198421 0.445366 0
373 1 0.212698 0.405132 0
374 1 0.216884 0.428571 0
376 1 0.236961 0.411875 0
405 1 0.24137 0.436179 0
348 1 0.279777 0.402384 0
407 1 0.266534 0.443914 0
378 1 0.26177 0.419525 0
409 1 0.286997 0.42829 0
408 1 0.289931 0.452277 0
352 1 0.347521 0.400714 0
379 1 0.304219 0.409553 0
380 1 0.310171 0.436101 0
382 1 0.329343 0.418788 0
411 1 0.334463 0.442111 0
383 1 0.371494 0.407811 0
413 1 0.353778 0.424684 0
414 1 0.377537 0.433664 0
384 1 0.395528 0.414167 0
412 1 0.357427 0.449662 0
388 1 0.439015 0.402411 0
415 1 0.403362 0.439419 0
417 1 0.420384 0.421488 0
416 1 0.427012 0.444592 0
419 1 0.445202 0.425962 0
389 1 0.464291 0.408365 0
418 1 0.469293 0.432625 0
390 1 0.48857 0.412913 0
420 1 0.495182 0.43668 0
447 1 0.451564 0.450982 0
393 1 0.019267 0.45226 0
422 1 0.00563255 0.491661 0
423 1 0.0248627 0.476301 0
394 1 0.0427965 0.460026 0
425 1 0.0487253 0.485606 0
396 1 0.0679484 0.469128 0
426 1 0.0731211 0.49483 0
397 1 0.0876604 0.455568 0
427 1 0.0935841 0.479862 0
398 1 0.111724 0.463696 0
428 1 0.117977 0.488642 0
429 1 0.135884 0.471542 0
459 1 0.142041 0.496853 0
399 1 0.153791 0.453709 0
400 1 0.178547 0.46128 0
430 1 0.160452 0.477651 0
431 1 0.182949 0.484909 0
404 1 0.222622 0.452984 0
402 1 0.201496 0.469167 0
432 1 0.208296 0.492325 0
433 1 0.229731 0.475586 0
435 1 0.24753 0.459572 0
449 1 0.476893 0.455113 0
436 1 0.252681 0.483987 0
406 1 0.271399 0.468002 0
437 1 0.276337 0.492001 0
439 1 0.296016 0.476667 0
410 1 0.314942 0.459748 0
440 1 0.320018 0.483654 0
441 1 0.338719 0.467066 0
471 1 0.34364 0.492298 0
478 1 0.467092 0.497279 0
442 1 0.363491 0.475483 0
473 1 0.390353 0.482099 0
443 1 0.382849 0.457331 0
446 1 0.432832 0.469934 0
445 1 0.409449 0.463537 0
444 1 0.415716 0.488258 0
477 1 0.441971 0.491949 0
448 1 0.459601 0.474106 0
453 1 0.0110486 0.515822 0
452 1 0.0151622 0.540084 0
454 1 0.0353876 0.525765 0
424 1 0.0300463 0.501527 0
483 1 0.0381819 0.549624 0
485 1 0.0576201 0.533873 0
455 1 0.0533349 0.509448 0
456 1 0.0801887 0.520007 0
486 1 0.0835977 0.543809 0
457 1 0.0991011 0.504775 0
487 1 0.103387 0.529543 0
458 1 0.122885 0.512653 0
488 1 0.12673 0.538428 0
489 1 0.145447 0.52238 0
490 1 0.147611 0.551155 0
460 1 0.164939 0.505227 0
461 1 0.188478 0.507319 0
462 1 0.192218 0.530039 0
491 1 0.166345 0.535111 0
493 1 0.215977 0.53991 0
463 1 0.213694 0.515729 0
464 1 0.236284 0.5242 0
495 1 0.238541 0.547842 0
466 1 0.259457 0.53232 0
465 1 0.257085 0.50769 0
467 1 0.281848 0.516412 0
497 1 0.28231 0.540959 0
468 1 0.304646 0.525298 0
469 1 0.324123 0.507736 0
499 1 0.326832 0.5332 0
470 1 0.34726 0.517059 0
498 1 0.305845 0.54932 0
438 1 0.299927 0.500754 0
501 1 0.349672 0.543694 0
503 1 0.370817 0.526498 0
474 1 0.392501 0.508476 0
505 1 0.39074 0.540927 0
476 1 0.409694 0.526679 0
507 1 0.449549 0.516106 0
509 1 0.432608 0.532976 0
475 1 0.426414 0.509631 0
479 1 0.475331 0.521003 0
480 1 0.456022 0.538772 0
1381 1 0.498478 0.527301 0
510 1 0.480368 0.545491 0
1351 1 0.491197 0.502484 0
513 1 0.0205662 0.565673 0
514 1 0.0426073 0.574582 0
512 1 0.022887 0.591542 0
511 1 0.000571844 0.581972 0
543 1 0.0458824 0.600382 0
484 1 0.0627934 0.55875 0
515 1 0.0851514 0.569142 0
545 1 0.0652612 0.584237 0
516 1 0.0887729 0.593272 0
517 1 0.106291 0.554658 0
518 1 0.108396 0.580737 0
519 1 0.127932 0.565393 0
549 1 0.132429 0.591127 0
520 1 0.150719 0.575925 0
521 1 0.17136 0.561072 0
492 1 0.193356 0.553219 0
523 1 0.195898 0.576319 0
522 1 0.174731 0.587918 0
494 1 0.216877 0.563891 0
524 1 0.218635 0.58707 0
525 1 0.240149 0.5731 0
555 1 0.241649 0.596737 0
496 1 0.261281 0.555746 0
526 1 0.264521 0.580162 0
527 1 0.286139 0.565689 0
528 1 0.287299 0.59048 0
529 1 0.309092 0.574356 0
500 1 0.328996 0.559587 0
530 1 0.331843 0.585967 0
559 1 0.308802 0.599888 0
531 1 0.350865 0.569887 0
532 1 0.353945 0.59429 0
502 1 0.371358 0.55636 0
504 1 0.395624 0.565902 0
533 1 0.376048 0.581042 0
506 1 0.414352 0.550086 0
534 1 0.399653 0.592418 0
535 1 0.418335 0.575033 0
508 1 0.438586 0.557106 0
537 1 0.444117 0.581145 0
536 1 0.425327 0.59908 0
539 1 0.462404 0.563538 0
540 1 0.486087 0.570062 0
538 1 0.468846 0.58744 0
569 1 0.492232 0.595522 0
541 1 0.00357495 0.605846 0
542 1 0.0257248 0.616169 0
571 1 0.00618133 0.630357 0
573 1 0.0288655 0.63972 0
544 1 0.0486763 0.625129 0
546 1 0.068794 0.609019 0
547 1 0.0899428 0.620144 0
575 1 0.0705437 0.634848 0
576 1 0.0935103 0.646915 0
548 1 0.110755 0.606145 0
550 1 0.133424 0.616336 0
577 1 0.112304 0.631527 0
579 1 0.136885 0.642273 0
553 1 0.197925 0.60067 0
551 1 0.154133 0.603693 0
581 1 0.15746 0.628605 0
552 1 0.177194 0.613959 0
582 1 0.179128 0.63914 0
583 1 0.199871 0.624972 0
554 1 0.220781 0.610974 0
556 1 0.243685 0.621002 0
585 1 0.224056 0.636421 0
586 1 0.248343 0.646575 0
584 1 0.202195 0.649569 0
557 1 0.265672 0.60628 0
587 1 0.266948 0.630568 0
558 1 0.289928 0.614293 0
589 1 0.288502 0.640258 0
560 1 0.310632 0.625255 0
561 1 0.329865 0.610818 0
591 1 0.334597 0.6346 0
590 1 0.311356 0.648586 0
562 1 0.352737 0.618566 0
563 1 0.379659 0.605542 0
564 1 0.3745 0.629241 0
593 1 0.355522 0.646023 0
595 1 0.395897 0.639328 0
565 1 0.407113 0.615909 0
566 1 0.431133 0.624129 0
596 1 0.418542 0.644034 0
598 1 0.44122 0.649227 0
567 1 0.450548 0.606372 0
597 1 0.457141 0.63106 0
568 1 0.475453 0.613075 0
570 1 0.480687 0.636896 0
1442 1 0.499047 0.618721 0
572 1 0.0083818 0.654253 0
603 1 0.0303663 0.664494 0
602 1 0.00851337 0.678719 0
633 1 0.0315155 0.690143 0
574 1 0.05068 0.650326 0
604 1 0.0520244 0.676225 0
605 1 0.0731783 0.660827 0
606 1 0.0744718 0.686658 0
607 1 0.0946087 0.672163 0
637 1 0.097685 0.696699 0
635 1 0.0548243 0.701027 0
578 1 0.115234 0.656559 0
609 1 0.137775 0.666664 0
608 1 0.117988 0.682306 0
639 1 0.141372 0.693365 0
580 1 0.159291 0.653335 0
611 1 0.181217 0.664655 0
610 1 0.160462 0.677869 0
612 1 0.184879 0.688388 0
613 1 0.204354 0.674494 0
615 1 0.226087 0.65979 0
614 1 0.226883 0.684565 0
617 1 0.248435 0.670588 0
643 1 0.207463 0.699381 0
616 1 0.250785 0.695334 0
588 1 0.269847 0.656024 0
619 1 0.291862 0.665085 0
618 1 0.271867 0.679754 0
621 1 0.31417 0.674964 0
592 1 0.335038 0.660176 0
622 1 0.337356 0.685865 0
623 1 0.357348 0.67023 0
594 1 0.378017 0.655671 0
624 1 0.380345 0.679567 0
653 1 0.361017 0.695265 0
625 1 0.401821 0.66316 0
627 1 0.424906 0.668952 0
626 1 0.404507 0.687883 0
628 1 0.448412 0.672352 0
657 1 0.430497 0.692488 0
599 1 0.465038 0.654955 0
600 1 0.488977 0.661056 0
629 1 0.471795 0.679039 0
630 1 0.495623 0.685127 0
658 1 0.454027 0.69809 0
632 1 0.0118356 0.704119 0
634 1 0.0339441 0.714519 0
663 1 0.0133449 0.728308 0
664 1 0.0358745 0.740665 0
636 1 0.0766381 0.710959 0
665 1 0.0556821 0.725883 0
666 1 0.0782023 0.735964 0
695 1 0.057887 0.750579 0
667 1 0.0994331 0.722478 0
638 1 0.120381 0.707563 0
640 1 0.142932 0.718098 0
669 1 0.123087 0.732649 0
668 1 0.100715 0.747384 0
670 1 0.145507 0.742417 0
641 1 0.164173 0.703914 0
642 1 0.185566 0.713503 0
671 1 0.166398 0.729417 0
673 1 0.188415 0.738503 0
645 1 0.229801 0.708482 0
644 1 0.208974 0.724329 0
675 1 0.231125 0.734312 0
674 1 0.211393 0.748884 0
646 1 0.251042 0.719449 0
647 1 0.272064 0.70544 0
677 1 0.253281 0.745691 0
648 1 0.273419 0.730664 0
649 1 0.294446 0.716033 0
679 1 0.295727 0.741939 0
620 1 0.316816 0.700327 0
651 1 0.340169 0.709526 0
650 1 0.317498 0.726668 0
652 1 0.34124 0.734667 0
655 1 0.38588 0.705404 0
654 1 0.366355 0.722617 0
685 1 0.395463 0.728401 0
683 1 0.378354 0.745406 0
656 1 0.412771 0.710958 0
687 1 0.437281 0.716901 0
686 1 0.419313 0.734537 0
717 1 0.445105 0.740079 0
659 1 0.478338 0.703906 0
689 1 0.461263 0.722361 0
660 1 0.485744 0.727236 0
688 1 0.468747 0.745317 0
662 1 0.0145196 0.753251 0
694 1 0.0375286 0.764417 0
693 1 0.0175122 0.777404 0
725 1 0.040089 0.788574 0
697 1 0.0802639 0.761301 0
696 1 0.0612265 0.776087 0
727 1 0.0834975 0.787087 0
726 1 0.0630917 0.801577 0
699 1 0.124965 0.757421 0
698 1 0.104038 0.772791 0
700 1 0.128071 0.782608 0
728 1 0.106056 0.796409 0
701 1 0.148057 0.767927 0
731 1 0.149107 0.794766 0
672 1 0.167636 0.753994 0
703 1 0.190953 0.764641 0
702 1 0.168885 0.779331 0
704 1 0.192612 0.789138 0
676 1 0.23207 0.760242 0
705 1 0.212765 0.774962 0
706 1 0.234692 0.785188 0
707 1 0.254519 0.770068 0
678 1 0.275443 0.756622 0
737 1 0.257573 0.795374 0
709 1 0.277308 0.780493 0
680 1 0.297594 0.766441 0
681 1 0.317817 0.750946 0
710 1 0.301834 0.79106 0
682 1 0.339872 0.759569 0
711 1 0.320579 0.77471 0
712 1 0.344543 0.785421 0
713 1 0.363569 0.767037 0
714 1 0.386143 0.77289 0
743 1 0.369271 0.791435 0
745 1 0.393429 0.796682 0
684 1 0.402216 0.754106 0
715 1 0.427104 0.758212 0
716 1 0.411411 0.777493 0
747 1 0.434447 0.783702 0
718 1 0.450564 0.763912 0
690 1 0.493035 0.751346 0
719 1 0.475035 0.769384 0
720 1 0.483042 0.792434 0
749 1 0.458577 0.78753 0
723 1 0.0189834 0.802984 0
722 1 0.0201975 0.82962 0
724 1 0.0409278 0.812768 0
754 1 0.0443239 0.835834 0
899 1 0.474922 0.995597 0
757 1 0.085987 0.811262 0
755 1 0.0677674 0.825901 0
756 1 0.0882936 0.840484 0
729 1 0.128046 0.807748 0
759 1 0.106758 0.822475 0
760 1 0.129979 0.832059 0
730 1 0.150918 0.818931 0
732 1 0.172385 0.804324 0
761 1 0.153025 0.843753 0
763 1 0.173039 0.830125 0
733 1 0.194967 0.814292 0
764 1 0.195598 0.840092 0
735 1 0.214503 0.800024 0
736 1 0.236339 0.811287 0
734 1 0.216285 0.825733 0
767 1 0.239565 0.836357 0
708 1 0.280351 0.804362 0
738 1 0.260162 0.818822 0
768 1 0.263999 0.842726 0
769 1 0.283743 0.829689 0
741 1 0.325676 0.800734 0
739 1 0.304638 0.814502 0
740 1 0.307228 0.837301 0
771 1 0.332454 0.827174 0
772 1 0.34434 0.852241 0
742 1 0.350451 0.808658 0
773 1 0.358447 0.83296 0
744 1 0.37504 0.814679 0
774 1 0.382612 0.83902 0
775 1 0.400266 0.820833 0
746 1 0.419171 0.80187 0
748 1 0.443244 0.808286 0
777 1 0.425437 0.825922 0
776 1 0.406916 0.845543 0
779 1 0.450164 0.831751 0
750 1 0.466561 0.811821 0
1621 1 0.490236 0.816584 0
780 1 0.473239 0.836523 0
1651 1 0.497679 0.840462 0
753 1 0.0404065 0.858975 0
752 1 0.0162404 0.861375 0
783 1 0.0340327 0.882477 0
782 1 0.00969833 0.887189 0
785 1 0.0639027 0.851683 0
784 1 0.058404 0.874357 0
786 1 0.0765393 0.892457 0
787 1 0.0829824 0.867943 0
815 1 0.0522359 0.89808 0
758 1 0.106149 0.858986 0
817 1 0.100365 0.885428 0
789 1 0.132838 0.856143 0
788 1 0.123773 0.87829 0
790 1 0.142518 0.894224 0
762 1 0.174697 0.855548 0
791 1 0.152398 0.869398 0
793 1 0.174696 0.881144 0
795 1 0.198371 0.868917 0
765 1 0.217481 0.851203 0
796 1 0.22359 0.876905 0
825 1 0.23707 0.896315 0
766 1 0.244611 0.862622 0
797 1 0.270603 0.866418 0
827 1 0.261784 0.88943 0
799 1 0.294585 0.861187 0
798 1 0.287363 0.886732 0
770 1 0.319805 0.85932 0
800 1 0.310794 0.881362 0
801 1 0.337148 0.876624 0
831 1 0.327616 0.898897 0
802 1 0.355368 0.893418 0
803 1 0.361318 0.869407 0
804 1 0.37951 0.887618 0
805 1 0.387777 0.865411 0
778 1 0.432153 0.850826 0
807 1 0.414294 0.868611 0
808 1 0.439163 0.874814 0
837 1 0.421374 0.893065 0
809 1 0.456763 0.856528 0
1681 1 0.479845 0.859623 0
1711 1 0.489303 0.884093 0
810 1 0.46323 0.879829 0
813 1 0.0273135 0.906706 0
843 1 0.020411 0.930609 0
814 1 0.0451194 0.922882 0
844 1 0.0376617 0.947003 0
812 1 0.00293186 0.911436 0
816 1 0.0950915 0.910776 0
845 1 0.0703732 0.916629 0
846 1 0.0620363 0.939795 0
847 1 0.0870449 0.933789 0
819 1 0.11931 0.902567 0
818 1 0.113512 0.926565 0
820 1 0.130603 0.944468 0
821 1 0.138343 0.918425 0
792 1 0.161387 0.911063 0
851 1 0.155437 0.936639 0
823 1 0.186416 0.904639 0
822 1 0.178278 0.930199 0
854 1 0.194963 0.948877 0
794 1 0.212038 0.899466 0
824 1 0.20327 0.923695 0
885 1 0.220458 0.944124 0
855 1 0.227484 0.918986 0
856 1 0.244851 0.936849 0
826 1 0.252947 0.914347 0
857 1 0.271351 0.933308 0
828 1 0.277213 0.908889 0
859 1 0.295525 0.929478 0
829 1 0.303016 0.90647 0
830 1 0.320424 0.923409 0
832 1 0.345117 0.917175 0
861 1 0.338831 0.941146 0
860 1 0.314467 0.94653 0
806 1 0.396367 0.904413 0
863 1 0.363413 0.935882 0
833 1 0.371177 0.912434 0
834 1 0.389144 0.930363 0
835 1 0.413457 0.924499 0
836 1 0.430204 0.943183 0
865 1 0.405107 0.947793 0
838 1 0.454826 0.922779 0
869 1 0.461786 0.947958 0
839 1 0.468782 0.903447 0
840 1 0.477915 0.92759 0
1712 1 0.494562 0.909189 0
842 1 0.0142843 0.954295 0
872 1 0.0246086 0.995444 0
873 1 0.0319309 0.970122 0
871 1 0.00790585 0.977908 0
874 1 0.0501668 0.986934 0
875 1 0.0566286 0.96394 0
876 1 0.0741469 0.981374 0
848 1 0.0820463 0.958187 0
877 1 0.098999 0.975597 0
7 1 0.0903179 0.998966 0
849 1 0.105717 0.949963 0
878 1 0.115776 0.992681 0
879 1 0.123306 0.968152 0
881 1 0.139921 0.98729 0
850 1 0.148052 0.961377 0
853 1 0.171441 0.954882 0
852 1 0.164248 0.979411 0
883 1 0.189216 0.972608 0
882 1 0.182257 0.996914 0
13 1 0.205791 0.991209 0
15 1 0.230382 0.986238 0
884 1 0.213614 0.966977 0
886 1 0.23833 0.961749 0
858 1 0.288135 0.952667 0
887 1 0.262123 0.956901 0
17 1 0.255733 0.980836 0
888 1 0.280618 0.976017 0
19 1 0.296699 0.995351 0
889 1 0.305263 0.969699 0
890 1 0.322166 0.988671 0
892 1 0.348963 0.98358 0
891 1 0.329999 0.965403 0
862 1 0.355548 0.95982 0
864 1 0.380318 0.954627 0
893 1 0.372977 0.978544 0
895 1 0.398044 0.97223 0
894 1 0.390158 0.996103 0
866 1 0.42179 0.966047 0
896 1 0.4158 0.990285 0
867 1 0.445214 0.965754 0
897 1 0.449329 0.991528 0
870 1 0.487019 0.952629 0
1771 1 0.495278 0.976718 0
868 1 0.46995 0.971055 0
1591 1 0.499652 0.774711 0
434 1 0.233265 0.500289 0
472 1 0.367524 0.501711 0
902 1 0.537981 0.0255292 0
901 1 0.51392 0.0206888 0
931 1 0.521169 0.0433973 0
933 1 0.545052 0.049489 0
903 1 0.529567 0.00123194 0
904 1 0.562234 0.0317057 0
906 1 0.579231 0.0139444 0
935 1 0.586366 0.0367642 0
905 1 0.554303 0.00639958 0
908 1 0.602369 0.0180911 0
937 1 0.609905 0.041856 0
939 1 0.627368 0.0239525 0
910 1 0.643394 0.00622561 0
938 1 0.634552 0.0472898 0
392 1 0.999919 0.4664 0
941 1 0.650943 0.0299178 0
912 1 0.667428 0.0110784 0
942 1 0.67461 0.0343991 0
943 1 0.691751 0.0175116 0
973 1 0.699738 0.0402695 0
944 1 0.715173 0.0219766 0
945 1 0.733649 0.00448039 0
946 1 0.741518 0.027674 0
975 1 0.725361 0.0450274 0
947 1 0.759095 0.00863268 0
948 1 0.765773 0.032907 0
918 1 0.783109 0.0157381 0
979 1 0.796487 0.0443876 0
921 1 0.819624 0.00240473 0
949 1 0.806848 0.0222801 0
951 1 0.833497 0.0215012 0
950 1 0.822685 0.043709 0
952 1 0.850346 0.037691 0
953 1 0.858617 0.0148633 0
924 1 0.884634 0.00887593 0
954 1 0.874448 0.0322667 0
955 1 0.900741 0.0265567 0
925 1 0.908246 0.0029627 0
926 1 0.924892 0.020888 0
957 1 0.942536 0.0387932 0
956 1 0.917571 0.0441844 0
928 1 0.948782 0.0149636 0
1 1 0.999336 0.00184772 0
959 1 0.966242 0.0329496 0
930 1 0.992028 0.0261066 0
929 1 0.974018 0.00962405 0
932 1 0.528035 0.0678965 0
962 1 0.534849 0.092308 0
961 1 0.51137 0.0860163 0
60 1 0.503964 0.060254 0
934 1 0.569353 0.0559783 0
963 1 0.552278 0.0740105 0
965 1 0.577287 0.0801946 0
964 1 0.559942 0.0978496 0
936 1 0.593933 0.0602783 0
966 1 0.601285 0.0842633 0
967 1 0.61755 0.0659855 0
968 1 0.625536 0.0906484 0
969 1 0.642519 0.0713623 0
999 1 0.650474 0.0951513 0
940 1 0.659885 0.0538837 0
970 1 0.666646 0.0779824 0
971 1 0.684221 0.0592861 0
972 1 0.691083 0.0838192 0
1003 1 0.708409 0.0640025 0
1004 1 0.714851 0.088122 0
974 1 0.732774 0.0700105 0
1005 1 0.740019 0.0940154 0
976 1 0.74976 0.0527893 0
1007 1 0.759944 0.0756898 0
977 1 0.774267 0.055933 0
978 1 0.792874 0.0714574 0
1008 1 0.786306 0.0948087 0
980 1 0.816782 0.0677486 0
981 1 0.842317 0.0618368 0
1009 1 0.81048 0.0910223 0
1011 1 0.835424 0.0856659 0
985 1 0.892679 0.050839 0
982 1 0.860202 0.0810824 0
983 1 0.867286 0.0569375 0
984 1 0.884893 0.0750925 0
1013 1 0.877518 0.0998558 0
1015 1 0.901971 0.0921212 0
986 1 0.908642 0.0693421 0
987 1 0.933221 0.0624487 0
1017 1 0.926988 0.086085 0
988 1 0.951591 0.0811326 0
960 1 0.983193 0.0502364 0
958 1 0.958664 0.0573724 0
989 1 0.976753 0.0744369 0
990 1 0.994101 0.0915819 0
1019 1 0.968683 0.0992571 0
991 1 0.51693 0.110566 0
992 1 0.524173 0.133899 0
993 1 0.540278 0.11576 0
1023 1 0.548767 0.138472 0
1021 1 0.50501 0.15217 0
995 1 0.584714 0.103589 0
994 1 0.566977 0.121563 0
996 1 0.59036 0.127276 0
1025 1 0.572784 0.145912 0
997 1 0.608909 0.108841 0
998 1 0.632482 0.114907 0
1027 1 0.614021 0.133323 0
1029 1 0.639898 0.139538 0
1001 1 0.674426 0.102243 0
1000 1 0.655725 0.119618 0
1031 1 0.680458 0.12527 0
1030 1 0.663744 0.144118 0
1032 1 0.688492 0.150333 0
1002 1 0.698369 0.108261 0
1033 1 0.705471 0.131037 0
1035 1 0.725263 0.114624 0
1034 1 0.729504 0.137781 0
1006 1 0.762663 0.101379 0
1036 1 0.751778 0.12463 0
1037 1 0.778986 0.119979 0
1038 1 0.794063 0.139624 0
1067 1 0.769595 0.1438 0
1039 1 0.803232 0.113636 0
1010 1 0.827819 0.109489 0
1040 1 0.818912 0.1337 0
1041 1 0.843745 0.127667 0
1012 1 0.852255 0.104534 0
1043 1 0.86899 0.12294 0
1014 1 0.893685 0.118185 0
1044 1 0.886717 0.142307 0
1042 1 0.862071 0.145944 0
1045 1 0.910932 0.134956 0
1016 1 0.918304 0.111592 0
1047 1 0.934962 0.129866 0
1018 1 0.942174 0.104651 0
1049 1 0.960058 0.123435 0
1020 1 0.985433 0.117333 0
1050 1 0.977857 0.140461 0
1046 1 0.953288 0.147378 0
1022 1 0.530311 0.156959 0
1053 1 0.537664 0.180806 0
1051 1 0.513823 0.175244 0
1052 1 0.519914 0.199225 0
1026 1 0.59668 0.151293 0
1024 1 0.555842 0.162751 0
1055 1 0.579462 0.169951 0
1054 1 0.561383 0.18739 0
1056 1 0.585455 0.194318 0
1028 1 0.621677 0.157168 0
1057 1 0.60449 0.175225 0
1058 1 0.629111 0.180999 0
1087 1 0.610124 0.199342 0
1059 1 0.646525 0.162523 0
1060 1 0.652491 0.187207 0
1061 1 0.671261 0.169538 0
1091 1 0.677531 0.193024 0
1062 1 0.695288 0.174369 0
1063 1 0.71263 0.156431 0
1064 1 0.720371 0.178895 0
1095 1 0.743944 0.186642 0
1093 1 0.702193 0.197264 0
1065 1 0.737046 0.16197 0
1066 1 0.76149 0.170236 0
1068 1 0.787214 0.162744 0
1097 1 0.779029 0.188978 0
1069 1 0.811842 0.157425 0
1071 1 0.836081 0.150689 0
1070 1 0.82739 0.176095 0
1099 1 0.803105 0.180694 0
1101 1 0.845858 0.194203 0
1100 1 0.822315 0.200569 0
1072 1 0.853188 0.170822 0
1073 1 0.8783 0.165014 0
1103 1 0.870593 0.186707 0
1074 1 0.898173 0.182895 0
1075 1 0.904351 0.159635 0
1077 1 0.929298 0.153566 0
1076 1 0.923678 0.178288 0
1107 1 0.941009 0.195435 0
1078 1 0.948226 0.171923 0
1048 1 0.971743 0.165778 0
151 1 0.995374 0.157645 0
1079 1 0.989105 0.182699 0
1109 1 0.964728 0.189846 0
1083 1 0.54376 0.205662 0
1081 1 0.502357 0.217823 0
1082 1 0.527013 0.222751 0
1111 1 0.512304 0.241318 0
1113 1 0.536263 0.247505 0
1084 1 0.552715 0.229414 0
1085 1 0.568254 0.211061 0
1086 1 0.593498 0.217499 0
1115 1 0.576095 0.234283 0
1089 1 0.634687 0.205204 0
1117 1 0.600024 0.240967 0
1088 1 0.618746 0.222722 0
1119 1 0.642781 0.227999 0
1118 1 0.625692 0.246354 0
1090 1 0.660061 0.2104 0
1092 1 0.686138 0.21616 0
1121 1 0.667626 0.23335 0
1122 1 0.692635 0.239865 0
1094 1 0.727128 0.20406 0
1123 1 0.710042 0.22087 0
1124 1 0.718093 0.245576 0
1125 1 0.735742 0.228337 0
1096 1 0.751746 0.209523 0
1127 1 0.775351 0.213165 0
1126 1 0.759932 0.233813 0
1128 1 0.79177 0.231755 0
1098 1 0.799234 0.206081 0
1131 1 0.840947 0.217473 0
1129 1 0.81635 0.223632 0
1130 1 0.83466 0.242695 0
1159 1 0.811499 0.247544 0
1102 1 0.86385 0.210232 0
1104 1 0.888409 0.206182 0
1132 1 0.858635 0.235442 0
1133 1 0.88227 0.230257 0
1105 1 0.914652 0.20119 0
1135 1 0.906112 0.224334 0
1106 1 0.931885 0.219291 0
1136 1 0.925757 0.244321 0
1134 1 0.901455 0.247993 0
1137 1 0.948858 0.237426 0
1108 1 0.959474 0.214014 0
1110 1 0.982916 0.20597 0
1139 1 0.975158 0.231804 0
181 1 0.998587 0.224251 0
1140 1 0.991042 0.249869 0
1112 1 0.515923 0.265076 0
1143 1 0.542459 0.271833 0
1142 1 0.523109 0.289214 0
1144 1 0.548124 0.295202 0
1114 1 0.559445 0.252362 0
1116 1 0.583097 0.25963 0
1145 1 0.565255 0.276978 0
1146 1 0.592834 0.282162 0
1175 1 0.573883 0.299602 0
1147 1 0.60857 0.264899 0
1149 1 0.632881 0.269435 0
1148 1 0.616184 0.287764 0
1179 1 0.641147 0.293124 0
1120 1 0.650226 0.251137 0
1151 1 0.674814 0.256485 0
1150 1 0.658086 0.274494 0
1152 1 0.684937 0.281024 0