ITEM: TIMESTEP
140000
ITEM: NUMBER OF ATOMS
1800
ITEM: BOX BOUNDS pp pp pp
3.0911484621405378e+00 1.5530885153785584e+02
3.0911484621405378e+00 1.5530885153785584e+02
0.0000000000000000e+00 5.2800000000000002e+00
ITEM: ATOMS id type xs ys zs
2 1 0.0191965 0.0167864 0
3 1 0.044135 0.010867 0
33 1 0.0356279 0.035546 0
31 1 0.011282 0.0405636 0
4 1 0.0606455 0.0296723 0
6 1 0.0869575 0.02205 0
5 1 0.0692962 0.00516669 0
35 1 0.0780746 0.046589 0
37 1 0.102666 0.0407441 0
8 1 0.110134 0.0166267 0
9 1 0.127751 0.0341866 0
880 1 0.135031 0.0110531 0
10 1 0.151735 0.0283572 0
11 1 0.159727 0.00430943 0
12 1 0.176939 0.0230852 0
43 1 0.193665 0.0414319 0
41 1 0.168948 0.0452603 0
14 1 0.200918 0.0154287 0
44 1 0.218109 0.0336384 0
45 1 0.224981 0.00985884 0
46 1 0.242697 0.0283542 0
16 1 0.250161 0.0032158 0
47 1 0.267895 0.0237812 0
49 1 0.293075 0.0186449 0
48 1 0.283382 0.0435154 0
77 1 0.258244 0.0483952 0
50 1 0.308887 0.0375781 0
20 1 0.317172 0.0126929 0
51 1 0.334537 0.0320369 0
21 1 0.341727 0.00839266 0
22 1 0.358604 0.0265302 0
24 1 0.383774 0.0218242 0
53 1 0.376241 0.0472747 0
55 1 0.400547 0.0406521 0
23 1 0.367444 0.00269772 0
25 1 0.408094 0.017254 0
26 1 0.423777 0.035047 0
27 1 0.433283 0.0129042 0
28 1 0.447383 0.0404903 0
30 1 0.495192 0.0415519 0
898 1 0.459214 0.0167951 0
29 1 0.484709 0.0192882 0
59 1 0.471113 0.0409906 0
32 1 0.0273958 0.0596821 0
62 1 0.0183545 0.0840814 0
63 1 0.0443378 0.077533 0
61 1 0.00272479 0.063436 0
34 1 0.052833 0.0526861 0
65 1 0.0714508 0.0721283 0
66 1 0.0882067 0.0887708 0
36 1 0.0961779 0.063818 0
64 1 0.0616133 0.0950692 0
39 1 0.144411 0.0525641 0
38 1 0.120125 0.0583793 0
67 1 0.111944 0.0833262 0
69 1 0.137013 0.0769481 0
68 1 0.130407 0.101824 0
70 1 0.153759 0.0933021 0
40 1 0.162541 0.0698708 0
71 1 0.178242 0.0881464 0
42 1 0.186111 0.0637809 0
72 1 0.20281 0.0824703 0
73 1 0.209627 0.05893 0
74 1 0.227103 0.0769278 0
75 1 0.233844 0.0528599 0
106 1 0.244372 0.0959284 0
76 1 0.250986 0.0724556 0
78 1 0.275332 0.0667674 0
109 1 0.293552 0.0853387 0
107 1 0.269194 0.0910847 0
79 1 0.300981 0.0617002 0
80 1 0.317864 0.0821405 0
81 1 0.325459 0.0557431 0
82 1 0.342013 0.0753129 0
52 1 0.35088 0.050543 0
83 1 0.367246 0.069651 0
113 1 0.379751 0.0906542 0
54 1 0.392101 0.0670738 0
56 1 0.417366 0.0589479 0
57 1 0.441201 0.0649195 0
85 1 0.423026 0.0826827 0
84 1 0.405046 0.0992805 0
87 1 0.446758 0.0884748 0
88 1 0.469926 0.0959829 0
58 1 0.465072 0.0662861 0
89 1 0.487816 0.0778698 0
93 1 0.0358364 0.100625 0
92 1 0.0284343 0.123782 0
91 1 0.00995482 0.107441 0
121 1 0.00324776 0.13165 0
123 1 0.0452033 0.141264 0
122 1 0.0196395 0.149556 0
94 1 0.0536461 0.118268 0
95 1 0.0794553 0.112113 0
125 1 0.0714237 0.13536 0
96 1 0.0955748 0.130529 0
97 1 0.105473 0.106826 0
98 1 0.121869 0.125076 0
99 1 0.147572 0.118759 0
129 1 0.138213 0.142442 0
127 1 0.112375 0.148059 0
100 1 0.171195 0.111444 0
130 1 0.16347 0.137143 0
131 1 0.187049 0.129736 0
101 1 0.194847 0.105841 0
103 1 0.219492 0.100762 0
102 1 0.211344 0.123837 0
105 1 0.235789 0.118727 0
104 1 0.228379 0.142964 0
133 1 0.203248 0.147481 0
135 1 0.259363 0.114558 0
137 1 0.276193 0.13349 0
108 1 0.284787 0.109897 0
136 1 0.252197 0.138902 0
111 1 0.335292 0.100961 0
139 1 0.300432 0.130932 0
110 1 0.30988 0.106059 0
141 1 0.342253 0.124862 0
140 1 0.323129 0.14198 0
142 1 0.348611 0.150056 0
112 1 0.361193 0.107034 0
114 1 0.386322 0.114927 0
143 1 0.367715 0.132814 0
144 1 0.391504 0.139703 0
86 1 0.428336 0.107303 0
115 1 0.410021 0.123253 0
116 1 0.434572 0.130218 0
145 1 0.417003 0.148064 0
117 1 0.452179 0.112797 0
90 1 0.493405 0.103647 0
118 1 0.457977 0.137179 0
119 1 0.475966 0.120391 0
149 1 0.482175 0.144094 0
153 1 0.0389833 0.166129 0
152 1 0.0147346 0.173628 0
183 1 0.031967 0.190951 0
1080 1 0.00621249 0.197639 0
124 1 0.0629723 0.159382 0
126 1 0.0865174 0.153886 0
155 1 0.0804975 0.177868 0
154 1 0.055206 0.183658 0
156 1 0.0999816 0.195651 0
128 1 0.129798 0.165879 0
157 1 0.105258 0.171723 0
160 1 0.148008 0.183899 0
158 1 0.123821 0.189676 0
132 1 0.180551 0.154953 0
159 1 0.155212 0.160373 0
161 1 0.17165 0.178357 0
162 1 0.188842 0.194968 0
163 1 0.19822 0.172238 0
134 1 0.220926 0.165139 0
164 1 0.229533 0.186926 0
165 1 0.245301 0.165302 0
166 1 0.252513 0.190466 0
167 1 0.268892 0.172876 0
138 1 0.286063 0.155181 0
168 1 0.292274 0.180661 0
197 1 0.275134 0.198083 0
169 1 0.308345 0.163448 0
171 1 0.333637 0.169363 0
170 1 0.316499 0.187136 0
201 1 0.340157 0.193566 0
172 1 0.356555 0.176076 0
173 1 0.374223 0.157108 0
174 1 0.381419 0.181962 0
175 1 0.398341 0.163517 0
203 1 0.363904 0.199814 0
147 1 0.440042 0.15396 0
146 1 0.422141 0.171918 0
205 1 0.403948 0.189605 0
176 1 0.427911 0.197273 0
177 1 0.445399 0.178568 0
148 1 0.464452 0.160739 0
150 1 0.487473 0.168102 0
179 1 0.469714 0.184305 0
180 1 0.494796 0.19139 0
182 1 0.0241269 0.215017 0
213 1 0.0404483 0.231735 0
211 1 0.0158667 0.238788 0
184 1 0.048688 0.207883 0
185 1 0.0730006 0.202655 0
186 1 0.0915273 0.219315 0
215 1 0.066366 0.226802 0
216 1 0.0829471 0.244794 0
214 1 0.0571584 0.250628 0
187 1 0.116777 0.214881 0
188 1 0.133056 0.242579 0
189 1 0.140175 0.206354 0
217 1 0.106801 0.23762 0
191 1 0.165467 0.203386 0
190 1 0.152826 0.226209 0
192 1 0.193679 0.219524 0
221 1 0.175156 0.234662 0
223 1 0.198969 0.242648 0
193 1 0.211717 0.202343 0
194 1 0.217536 0.225534 0
195 1 0.23562 0.209294 0
225 1 0.241003 0.233228 0
196 1 0.2587 0.215299 0
198 1 0.281267 0.222324 0
227 1 0.264781 0.240273 0
228 1 0.288669 0.247275 0
199 1 0.299094 0.204456 0
200 1 0.323025 0.211831 0
229 1 0.305127 0.228819 0
231 1 0.328547 0.236561 0
202 1 0.346377 0.218173 0
204 1 0.386916 0.206293 0
233 1 0.369426 0.223963 0
235 1 0.394476 0.231333 0
232 1 0.352842 0.243618 0
234 1 0.378013 0.249512 0
207 1 0.434992 0.220297 0
206 1 0.417955 0.23766 0
237 1 0.442859 0.245369 0
178 1 0.45214 0.203109 0
208 1 0.459082 0.226536 0
209 1 0.476027 0.20828 0
210 1 0.483968 0.232635 0
212 1 0.00676993 0.262193 0
243 1 0.03296 0.256096 0
242 1 0.0237544 0.27931 0
273 1 0.0383087 0.29726 0
241 1 0.000749105 0.286674 0
244 1 0.0502153 0.275451 0
245 1 0.0741151 0.267368 0
247 1 0.0779442 0.290708 0
218 1 0.0971515 0.274739 0
219 1 0.115679 0.259879 0
249 1 0.138285 0.267671 0
248 1 0.120771 0.285053 0
250 1 0.1429 0.29136 0
220 1 0.156049 0.251546 0
222 1 0.179575 0.259185 0
251 1 0.162089 0.277216 0
252 1 0.186012 0.285136 0
281 1 0.166299 0.300873 0
224 1 0.222279 0.250427 0
253 1 0.203465 0.266897 0
255 1 0.227716 0.274133 0
254 1 0.209644 0.290505 0
226 1 0.246982 0.256654 0
285 1 0.233203 0.29855 0
256 1 0.252264 0.281259 0
257 1 0.269885 0.264622 0
259 1 0.294039 0.272143 0
258 1 0.27573 0.2887 0
289 1 0.299986 0.295924 0
230 1 0.311676 0.254321 0
260 1 0.317013 0.277861 0
261 1 0.335217 0.260894 0
262 1 0.340932 0.284428 0
263 1 0.35951 0.26616 0
264 1 0.383773 0.273547 0
293 1 0.365553 0.290044 0
295 1 0.389136 0.298479 0
265 1 0.401196 0.256937 0
236 1 0.425033 0.261543 0
266 1 0.408026 0.280924 0
267 1 0.431189 0.286003 0
238 1 0.449513 0.268811 0
239 1 0.467251 0.250731 0
240 1 0.492158 0.256975 0
269 1 0.473956 0.274952 0
268 1 0.455268 0.292408 0
1141 1 0.499305 0.280063 0
270 1 0.480822 0.297774 0
271 1 0.0144051 0.309923 0
272 1 0.0381941 0.321074 0
301 1 0.0162997 0.334266 0
303 1 0.0420006 0.344943 0
275 1 0.0599533 0.307063 0
276 1 0.0830645 0.316292 0
274 1 0.0629994 0.331665 0
305 1 0.0866791 0.340491 0
246 1 0.101077 0.298729 0
279 1 0.124643 0.30901 0
277 1 0.105952 0.324362 0
278 1 0.130718 0.333153 0
307 1 0.111361 0.348073 0
280 1 0.148153 0.316079 0
311 1 0.153596 0.341098 0
283 1 0.189718 0.308203 0
282 1 0.172545 0.325183 0
313 1 0.197575 0.332321 0
312 1 0.17799 0.348698 0
284 1 0.215418 0.315272 0
315 1 0.220792 0.339906 0
286 1 0.239824 0.323322 0
316 1 0.244447 0.34718 0
287 1 0.256982 0.30569 0
288 1 0.281268 0.312793 0
317 1 0.263254 0.328894 0
319 1 0.287823 0.337554 0
291 1 0.323421 0.302564 0
290 1 0.305437 0.320248 0
321 1 0.311461 0.344674 0
292 1 0.327781 0.327104 0
323 1 0.347284 0.307935 0
294 1 0.371381 0.314923 0
324 1 0.353661 0.333306 0
325 1 0.378757 0.338899 0
296 1 0.396397 0.321559 0
326 1 0.403137 0.345224 0
297 1 0.41445 0.304618 0
298 1 0.439764 0.309941 0
327 1 0.421822 0.329749 0
328 1 0.446487 0.333354 0
299 1 0.463773 0.31482 0
300 1 0.488076 0.321194 0
329 1 0.469552 0.340004 0
1201 1 0.494242 0.347027 0
331 1 0.00431469 0.376482 0
302 1 0.0231262 0.360244 0
332 1 0.0282438 0.385322 0
333 1 0.0474755 0.369757 0
334 1 0.0524062 0.394371 0
304 1 0.0670144 0.355311 0
306 1 0.0910021 0.36551 0
335 1 0.0719444 0.380178 0
337 1 0.0980116 0.390642 0
309 1 0.134979 0.356555 0
308 1 0.114904 0.372647 0
339 1 0.140514 0.380248 0
338 1 0.121884 0.396366 0
310 1 0.159405 0.364731 0
341 1 0.164551 0.388533 0
343 1 0.1841 0.372532 0
342 1 0.188502 0.396676 0
314 1 0.203271 0.355642 0
345 1 0.227171 0.363975 0
344 1 0.207481 0.380142 0
375 1 0.231189 0.388367 0
346 1 0.24994 0.372337 0
377 1 0.255495 0.39592 0
318 1 0.268319 0.354487 0
349 1 0.293016 0.361825 0
347 1 0.274422 0.378907 0
350 1 0.297881 0.385909 0
322 1 0.334853 0.35021 0
320 1 0.317092 0.370063 0
351 1 0.341471 0.373944 0
381 1 0.322236 0.392566 0
353 1 0.359674 0.357008 0
355 1 0.3836 0.362984 0
354 1 0.365624 0.381674 0
385 1 0.38943 0.387852 0
357 1 0.427978 0.353096 0
356 1 0.408756 0.37046 0
387 1 0.433657 0.376912 0
386 1 0.416019 0.39513 0
359 1 0.451647 0.357424 0
358 1 0.45923 0.381718 0
330 1 0.476732 0.364091 0
360 1 0.484454 0.388633 0
361 1 0.00940299 0.401312 0
363 1 0.0325848 0.411076 0
362 1 0.0142098 0.426439 0
364 1 0.0386583 0.434621 0
336 1 0.0769872 0.404142 0
365 1 0.0575705 0.419364 0
395 1 0.0641145 0.443508 0
367 1 0.103739 0.414529 0
366 1 0.108254 0.438223 0
369 1 0.127686 0.421419 0
340 1 0.145783 0.404344 0
368 1 0.133312 0.446425 0
370 1 0.151224 0.428241 0
371 1 0.169737 0.412845 0
401 1 0.176455 0.436218 0
372 1 0.193362 0.420235 0
403 1 0.199737 0.443788 0
373 1 0.211822 0.404276 0
374 1 0.218333 0.427595 0
376 1 0.237166 0.412872 0
405 1 0.242473 0.437541 0
348 1 0.279864 0.403871 0
407 1 0.268079 0.445952 0
378 1 0.261638 0.420686 0
409 1 0.28629 0.427847 0
352 1 0.346541 0.398294 0
379 1 0.304355 0.410628 0
380 1 0.310589 0.435265 0
382 1 0.328969 0.417453 0
411 1 0.335397 0.442365 0
413 1 0.352996 0.422973 0
383 1 0.371798 0.405546 0
414 1 0.377443 0.429932 0
384 1 0.39528 0.412301 0
412 1 0.359951 0.447921 0
415 1 0.403261 0.437907 0
388 1 0.440509 0.401272 0
417 1 0.419815 0.419169 0
416 1 0.427209 0.444405 0
419 1 0.444632 0.425642 0
447 1 0.452053 0.44941 0
389 1 0.465207 0.405876 0
418 1 0.46979 0.430751 0
390 1 0.487913 0.413505 0
420 1 0.494135 0.436566 0
393 1 0.0187062 0.449932 0
422 1 0.00598071 0.489267 0
423 1 0.0238523 0.473757 0
394 1 0.0441656 0.459614 0
425 1 0.0505148 0.484322 0
397 1 0.0886713 0.453102 0
396 1 0.0688518 0.467783 0
426 1 0.0728366 0.493455 0
427 1 0.0928758 0.477836 0
398 1 0.112624 0.462494 0
428 1 0.117022 0.488122 0
429 1 0.137669 0.471487 0
459 1 0.141018 0.495759 0
399 1 0.157356 0.452221 0
400 1 0.180092 0.461379 0
430 1 0.161842 0.477899 0
431 1 0.185972 0.484938 0
404 1 0.223161 0.452163 0
402 1 0.203847 0.468125 0
432 1 0.209442 0.491548 0
433 1 0.228432 0.475821 0
435 1 0.248375 0.461018 0
408 1 0.292547 0.452894 0
436 1 0.25389 0.484435 0
406 1 0.273061 0.469877 0
437 1 0.27812 0.494771 0
439 1 0.297646 0.476151 0
410 1 0.31783 0.460445 0
440 1 0.319836 0.486308 0
441 1 0.342343 0.466873 0
471 1 0.345419 0.490658 0
442 1 0.367972 0.471806 0
473 1 0.391028 0.478106 0
443 1 0.385025 0.453909 0
472 1 0.371633 0.496261 0
477 1 0.440774 0.492344 0
446 1 0.434973 0.467732 0
445 1 0.40876 0.461622 0
444 1 0.416117 0.485183 0
478 1 0.4662 0.497242 0
449 1 0.476064 0.454903 0
450 1 0.48287 0.479915 0
448 1 0.457882 0.474483 0
453 1 0.0110495 0.514056 0
452 1 0.0126259 0.539155 0
454 1 0.0335528 0.523791 0
424 1 0.0302239 0.498886 0
485 1 0.0574417 0.533868 0
455 1 0.0533118 0.509741 0
456 1 0.0775027 0.518975 0
486 1 0.0819659 0.544881 0
457 1 0.0965042 0.5027 0
487 1 0.100551 0.528867 0
458 1 0.121116 0.512581 0
488 1 0.126069 0.537441 0
489 1 0.1446 0.521922 0
490 1 0.150677 0.546463 0
461 1 0.188023 0.507734 0
462 1 0.194392 0.530183 0
491 1 0.170151 0.526369 0
460 1 0.164996 0.501761 0
493 1 0.217419 0.538705 0
463 1 0.214053 0.515114 0
464 1 0.237392 0.523881 0
495 1 0.239893 0.547926 0
434 1 0.233476 0.499831 0
466 1 0.260688 0.532956 0
465 1 0.258571 0.509193 0
467 1 0.281717 0.519558 0
497 1 0.284778 0.543812 0
468 1 0.304673 0.529006 0
469 1 0.3269 0.51017 0
499 1 0.331555 0.535333 0
438 1 0.301768 0.504409 0
470 1 0.351402 0.516512 0
503 1 0.379597 0.520015 0
474 1 0.396947 0.502424 0
505 1 0.387637 0.544931 0
501 1 0.361849 0.538485 0
476 1 0.404697 0.526959 0
509 1 0.428672 0.533022 0
475 1 0.421691 0.510233 0
507 1 0.446809 0.51545 0
506 1 0.411666 0.55133 0
479 1 0.470649 0.521439 0
480 1 0.453295 0.541072 0
1381 1 0.495324 0.527418 0
510 1 0.477475 0.547034 0
1351 1 0.490554 0.50282 0
483 1 0.0370452 0.548221 0
513 1 0.0173444 0.563264 0
514 1 0.0408324 0.573445 0
512 1 0.0209396 0.588359 0
543 1 0.0439021 0.597865 0
484 1 0.0593875 0.558209 0
515 1 0.0850971 0.568982 0
545 1 0.0639471 0.583395 0
516 1 0.0871925 0.593935 0
517 1 0.105379 0.554712 0
518 1 0.107704 0.579558 0
519 1 0.12828 0.562852 0
549 1 0.130614 0.589684 0
520 1 0.150777 0.574438 0
521 1 0.171635 0.562542 0
492 1 0.194929 0.552775 0
522 1 0.17407 0.587457 0
523 1 0.195691 0.576304 0
551 1 0.152822 0.60106 0
494 1 0.217362 0.563582 0
524 1 0.220891 0.586863 0
525 1 0.240944 0.573172 0
555 1 0.242552 0.597408 0
496 1 0.261943 0.558055 0
526 1 0.26231 0.583239 0
527 1 0.285315 0.568968 0
528 1 0.28416 0.593267 0
498 1 0.30805 0.555839 0
529 1 0.306896 0.580468 0
500 1 0.333883 0.562414 0
530 1 0.328995 0.58972 0
531 1 0.351751 0.580098 0
502 1 0.369152 0.56221 0
504 1 0.394042 0.568274 0
533 1 0.376234 0.586522 0
534 1 0.401365 0.593446 0
535 1 0.41868 0.575873 0
508 1 0.435294 0.558404 0
537 1 0.44312 0.582103 0
536 1 0.427034 0.599951 0
539 1 0.459486 0.564865 0
540 1 0.484672 0.569884 0
538 1 0.467037 0.588371 0
569 1 0.492244 0.593572 0
571 1 0.00246858 0.628771 0
542 1 0.0235256 0.613359 0
573 1 0.0259414 0.63909 0
544 1 0.0476912 0.623037 0
574 1 0.0485256 0.648156 0
546 1 0.0678444 0.608105 0
547 1 0.0899184 0.618831 0
575 1 0.0698569 0.633659 0
576 1 0.0933394 0.644131 0
548 1 0.110221 0.604764 0
550 1 0.132794 0.615279 0
577 1 0.113175 0.629831 0
579 1 0.135978 0.639917 0
581 1 0.156483 0.625952 0
552 1 0.178297 0.612815 0
582 1 0.18001 0.637258 0
553 1 0.198816 0.600666 0
583 1 0.200847 0.625101 0
554 1 0.221211 0.611931 0
556 1 0.244285 0.622624 0
585 1 0.223218 0.635858 0
586 1 0.245409 0.647078 0
584 1 0.203063 0.650283 0
557 1 0.26495 0.608308 0
587 1 0.265797 0.633212 0
558 1 0.2859 0.618373 0
589 1 0.288893 0.6448 0
559 1 0.306582 0.604608 0
560 1 0.307658 0.630132 0
561 1 0.32872 0.614157 0
591 1 0.331115 0.640918 0
562 1 0.348975 0.625996 0
532 1 0.35817 0.604065 0
563 1 0.384583 0.610811 0
564 1 0.371941 0.631563 0
595 1 0.39464 0.63909 0
593 1 0.352812 0.650888 0
565 1 0.408925 0.61798 0
566 1 0.432786 0.623829 0
596 1 0.418483 0.642817 0
567 1 0.450979 0.606944 0
597 1 0.458433 0.630033 0
568 1 0.475493 0.612218 0
570 1 0.481981 0.6367 0
572 1 0.00489398 0.652913 0
603 1 0.0284488 0.663164 0
602 1 0.00742526 0.677687 0
633 1 0.0308677 0.687866 0
604 1 0.05165 0.673248 0
605 1 0.072611 0.658601 0
606 1 0.0752062 0.68445 0
607 1 0.095766 0.670053 0
637 1 0.0978645 0.694772 0
635 1 0.0542647 0.698031 0
578 1 0.115977 0.65535 0
609 1 0.138835 0.665166 0
608 1 0.118729 0.680098 0
639 1 0.141785 0.690589 0
580 1 0.160136 0.651396 0
611 1 0.181555 0.662968 0
610 1 0.161608 0.676485 0
612 1 0.184405 0.687233 0
613 1 0.204894 0.673731 0
615 1 0.225413 0.660191 0
614 1 0.227906 0.685322 0
617 1 0.246994 0.671591 0
616 1 0.250447 0.697141 0
643 1 0.207233 0.699034 0
588 1 0.268345 0.657838 0
619 1 0.29042 0.66977 0
618 1 0.269076 0.682848 0
590 1 0.311022 0.655347 0
621 1 0.315103 0.682541 0
592 1 0.333337 0.666409 0
622 1 0.340796 0.69094 0
623 1 0.35993 0.673968 0
594 1 0.376938 0.655373 0
624 1 0.383769 0.680569 0
653 1 0.364579 0.696823 0
598 1 0.441299 0.647351 0
625 1 0.40071 0.662985 0
627 1 0.424979 0.667087 0
626 1 0.407432 0.686594 0
657 1 0.43128 0.692265 0
628 1 0.448921 0.674301 0
599 1 0.46458 0.654422 0
600 1 0.489938 0.660223 0
629 1 0.473089 0.679362 0
630 1 0.496649 0.684833 0
658 1 0.456776 0.699242 0
632 1 0.010162 0.703341 0
634 1 0.0334615 0.713374 0
663 1 0.0126082 0.727369 0
664 1 0.0348118 0.737493 0
636 1 0.0771644 0.709605 0
665 1 0.0552404 0.723828 0
666 1 0.0796583 0.73411 0
695 1 0.0590435 0.747748 0
667 1 0.101156 0.719441 0
668 1 0.102618 0.744946 0
638 1 0.121385 0.704562 0
640 1 0.143098 0.717455 0
669 1 0.122709 0.730871 0
670 1 0.145091 0.742651 0
641 1 0.163099 0.702644 0
642 1 0.18583 0.712628 0
671 1 0.166036 0.72593 0
673 1 0.187361 0.738688 0
645 1 0.229596 0.709445 0
644 1 0.208737 0.724216 0
675 1 0.229633 0.73545 0
646 1 0.250602 0.722141 0
677 1 0.251466 0.746236 0
647 1 0.272284 0.708141 0
648 1 0.272603 0.732238 0
679 1 0.294511 0.741323 0
649 1 0.297171 0.716263 0
620 1 0.32249 0.708459 0
651 1 0.348092 0.716063 0
650 1 0.331435 0.733631 0
652 1 0.355207 0.74077 0
655 1 0.389133 0.704899 0
654 1 0.372074 0.722623 0
685 1 0.395865 0.728648 0
683 1 0.379265 0.74727 0
656 1 0.413851 0.710042 0
687 1 0.436818 0.715523 0
686 1 0.420037 0.733259 0
717 1 0.443858 0.739869 0
659 1 0.480096 0.70363 0
689 1 0.461784 0.723014 0
660 1 0.486975 0.727748 0
688 1 0.468163 0.746313 0
662 1 0.0153358 0.751907 0
694 1 0.0378145 0.761679 0
693 1 0.0174089 0.777278 0
725 1 0.0394961 0.787027 0
697 1 0.082492 0.75776 0
696 1 0.0611837 0.771778 0
727 1 0.0819669 0.783707 0
726 1 0.0625343 0.79774 0
699 1 0.124167 0.756889 0
698 1 0.104174 0.770506 0
700 1 0.126657 0.78229 0
728 1 0.105523 0.795264 0
701 1 0.147812 0.768153 0
731 1 0.148697 0.793484 0
672 1 0.167543 0.752832 0
703 1 0.190324 0.763252 0
702 1 0.170173 0.779163 0
704 1 0.191799 0.790794 0
674 1 0.209221 0.749181 0
676 1 0.231339 0.760979 0
705 1 0.211935 0.775831 0
706 1 0.234767 0.786208 0
707 1 0.254327 0.771204 0
678 1 0.274057 0.756486 0
709 1 0.276833 0.781576 0
680 1 0.296759 0.766882 0
737 1 0.257754 0.795632 0
710 1 0.29994 0.790052 0
681 1 0.315654 0.752651 0
682 1 0.339007 0.759305 0
711 1 0.320873 0.776481 0
712 1 0.344042 0.784179 0
713 1 0.362367 0.764353 0
714 1 0.385737 0.771392 0
743 1 0.367373 0.789372 0
745 1 0.392204 0.794596 0
684 1 0.403866 0.753654 0
715 1 0.428374 0.758477 0
716 1 0.41008 0.77655 0
747 1 0.433357 0.783218 0
718 1 0.451471 0.765522 0
690 1 0.4934 0.751666 0
719 1 0.47585 0.770263 0
720 1 0.48255 0.795501 0
749 1 0.458938 0.788766 0
1680 1 0.00190133 0.842653 0
723 1 0.0199858 0.802654 0
722 1 0.0220009 0.826694 0
724 1 0.0423384 0.811149 0
754 1 0.0447855 0.836228 0
757 1 0.0860458 0.810767 0
755 1 0.065724 0.82251 0
756 1 0.0880744 0.835547 0
785 1 0.066168 0.84693 0
729 1 0.12766 0.807243 0
759 1 0.108299 0.822509 0
760 1 0.130815 0.831068 0
758 1 0.109325 0.848146 0
730 1 0.15223 0.819138 0
761 1 0.15475 0.844113 0
732 1 0.171332 0.804913 0
763 1 0.174801 0.830302 0
733 1 0.194775 0.816115 0
764 1 0.197259 0.84242 0
735 1 0.214466 0.80147 0
736 1 0.236783 0.811135 0
734 1 0.217967 0.826364 0
767 1 0.241689 0.836373 0
708 1 0.280677 0.805895 0
738 1 0.260528 0.820956 0
769 1 0.282732 0.830223 0
768 1 0.264568 0.845351 0
741 1 0.325686 0.800314 0
739 1 0.303615 0.814791 0
740 1 0.307093 0.83811 0
771 1 0.332817 0.827487 0
742 1 0.350441 0.807398 0
773 1 0.358232 0.830246 0
744 1 0.374561 0.812959 0
774 1 0.38086 0.838779 0
775 1 0.397961 0.819275 0
746 1 0.416263 0.801426 0
748 1 0.440711 0.807338 0
777 1 0.4224 0.826855 0
776 1 0.406327 0.845884 0
779 1 0.447264 0.831434 0
750 1 0.464862 0.813961 0
1621 1 0.489153 0.819558 0
780 1 0.472763 0.838067 0
1651 1 0.496885 0.842307 0
753 1 0.0443439 0.859236 0
752 1 0.0197725 0.860537 0
783 1 0.0370911 0.881283 0
782 1 0.0140659 0.886219 0
784 1 0.064086 0.872216 0
786 1 0.0828254 0.887906 0
787 1 0.0859517 0.861515 0
815 1 0.0552 0.898029 0
817 1 0.105858 0.876548 0
789 1 0.133099 0.85526 0
788 1 0.130613 0.878797 0
790 1 0.150765 0.894871 0
791 1 0.153851 0.869553 0
762 1 0.176889 0.856814 0
793 1 0.176334 0.886111 0
795 1 0.198649 0.870084 0
765 1 0.220912 0.851504 0
796 1 0.223631 0.876698 0
825 1 0.239618 0.894933 0
766 1 0.243656 0.861458 0
797 1 0.273565 0.868333 0
827 1 0.264771 0.891539 0
798 1 0.290576 0.885424 0
799 1 0.297868 0.861132 0
772 1 0.346188 0.852423 0
770 1 0.322945 0.857083 0
800 1 0.316384 0.880865 0
801 1 0.339778 0.87562 0
831 1 0.332103 0.899835 0
802 1 0.356616 0.893013 0
803 1 0.365246 0.87028 0
804 1 0.383163 0.887287 0
805 1 0.388727 0.862746 0
778 1 0.430433 0.849824 0
807 1 0.411877 0.872947 0
808 1 0.438343 0.874169 0
837 1 0.443963 0.898879 0
809 1 0.456584 0.855247 0
1681 1 0.479557 0.862253 0
1711 1 0.486702 0.88522 0
810 1 0.461632 0.879835 0
813 1 0.0309661 0.905458 0
843 1 0.0252245 0.928771 0
844 1 0.0434684 0.94535 0
812 1 0.00769649 0.911233 0
814 1 0.0508099 0.921132 0
841 1 0.000438219 0.934762 0
816 1 0.0996538 0.90623 0
845 1 0.0752418 0.912082 0
846 1 0.0673053 0.937767 0
847 1 0.0912845 0.930772 0
819 1 0.123517 0.902943 0
818 1 0.115704 0.926459 0
820 1 0.133784 0.943692 0
821 1 0.142766 0.918882 0
849 1 0.108492 0.950571 0
792 1 0.167355 0.913069 0
851 1 0.158324 0.937984 0
823 1 0.190713 0.906895 0
822 1 0.182037 0.932633 0
854 1 0.1988 0.950399 0
794 1 0.215059 0.900304 0
824 1 0.20633 0.926816 0
885 1 0.223234 0.944395 0
855 1 0.23051 0.919194 0
856 1 0.249779 0.937044 0
826 1 0.257353 0.913647 0
857 1 0.275303 0.933304 0
828 1 0.282572 0.909482 0
859 1 0.298668 0.927987 0
829 1 0.30617 0.903931 0
830 1 0.324333 0.924373 0
861 1 0.343138 0.94232 0
860 1 0.31744 0.947227 0
832 1 0.349436 0.917784 0
863 1 0.368597 0.934339 0
833 1 0.374744 0.909859 0
834 1 0.392711 0.92919 0
806 1 0.399603 0.904338 0
835 1 0.416746 0.925306 0
836 1 0.433542 0.943716 0
838 1 0.453643 0.923408 0
865 1 0.40668 0.94889 0
869 1 0.460751 0.947359 0
839 1 0.469451 0.90428 0
840 1 0.477469 0.9293 0
1712 1 0.49347 0.909645 0
842 1 0.0177138 0.95231 0
872 1 0.0264168 0.992894 0
873 1 0.0364012 0.96908 0
871 1 0.0101379 0.976672 0
1 1 0.0026323 0.999909 0
874 1 0.0513716 0.987208 0
875 1 0.06075 0.962396 0
876 1 0.0762007 0.979843 0
848 1 0.084616 0.955706 0
7 1 0.0934794 0.998974 0
877 1 0.100131 0.975085 0
878 1 0.116803 0.992545 0
879 1 0.124318 0.969214 0
881 1 0.14309 0.986518 0
850 1 0.148802 0.962237 0
853 1 0.174728 0.956127 0
852 1 0.166828 0.980193 0
883 1 0.191088 0.974265 0
882 1 0.183199 0.998294 0
13 1 0.209087 0.991586 0
15 1 0.234234 0.985883 0
884 1 0.21745 0.967685 0
886 1 0.241388 0.961765 0
858 1 0.29316 0.952909 0
887 1 0.268107 0.957947 0
17 1 0.259514 0.980991 0
888 1 0.284346 0.976781 0
18 1 0.274745 1.00057 0
19 1 0.299988 0.994937 0
889 1 0.308995 0.971972 0
890 1 0.326657 0.988669 0
891 1 0.33465 0.966074 0
892 1 0.350396 0.984824 0
862 1 0.359573 0.959463 0
864 1 0.38349 0.953028 0
893 1 0.374088 0.979292 0
895 1 0.398438 0.972715 0
894 1 0.391747 0.997217 0
897 1 0.448067 0.993028 0
866 1 0.421963 0.967616 0
896 1 0.414747 0.992774 0
867 1 0.446424 0.96679 0
868 1 0.469956 0.970711 0
899 1 0.475157 0.995379 0
870 1 0.486172 0.952303 0
1771 1 0.49425 0.976951 0
902 1 0.537222 0.0272873 0
901 1 0.511993 0.0229799 0
931 1 0.522159 0.0450701 0
903 1 0.526883 0.00466035 0
904 1 0.562171 0.0338978 0
906 1 0.577979 0.0147619 0
935 1 0.585977 0.0379973 0
905 1 0.552786 0.00990352 0
908 1 0.602686 0.0195605 0
937 1 0.609677 0.0437887 0
939 1 0.626799 0.025769 0
910 1 0.642488 0.00534886 0
938 1 0.634936 0.0495941 0
909 1 0.618358 0.000982899 0
941 1 0.650437 0.0309042 0
912 1 0.668038 0.0128805 0
942 1 0.674348 0.0365996 0
943 1 0.691552 0.0195888 0
973 1 0.699655 0.0427498 0
944 1 0.716191 0.0231323 0
945 1 0.732659 0.00549338 0
946 1 0.740595 0.0281685 0
975 1 0.723683 0.0463428 0
947 1 0.756834 0.0105819 0
948 1 0.76373 0.0351864 0
918 1 0.781805 0.0180739 0
979 1 0.795447 0.0445024 0
949 1 0.808972 0.0226289 0
951 1 0.836225 0.0173914 0
950 1 0.828675 0.0399596 0
921 1 0.819856 0.00117833 0
952 1 0.853554 0.0347351 0
953 1 0.859314 0.00885083 0
924 1 0.885236 0.00341126 0
954 1 0.876495 0.0277757 0
985 1 0.894444 0.046661 0
955 1 0.901209 0.0231964 0
926 1 0.926705 0.0184611 0
957 1 0.943508 0.0353449 0
956 1 0.918189 0.0408884 0
928 1 0.950957 0.011342 0
959 1 0.968289 0.0285131 0
930 1 0.993731 0.0236536 0
929 1 0.975851 0.0050444 0
960 1 0.984885 0.0463374 0
933 1 0.545158 0.0513596 0
932 1 0.528675 0.0685613 0
962 1 0.535795 0.0920959 0
961 1 0.511865 0.086024 0
60 1 0.505597 0.0627664 0
963 1 0.552671 0.0748871 0
934 1 0.569506 0.0575332 0
965 1 0.57637 0.082035 0
936 1 0.593538 0.0624208 0
964 1 0.559405 0.100088 0
966 1 0.60033 0.0859994 0
967 1 0.617491 0.0682469 0
968 1 0.626651 0.0926543 0
969 1 0.642152 0.0733852 0
999 1 0.650413 0.0976296 0
940 1 0.658345 0.0551887 0
970 1 0.667192 0.0787746 0
971 1 0.682145 0.0604992 0
972 1 0.690636 0.0856369 0
1003 1 0.708445 0.0664474 0
1004 1 0.715463 0.0905509 0
974 1 0.731447 0.0711942 0
1005 1 0.739106 0.0952841 0
976 1 0.747861 0.053134 0
1007 1 0.755439 0.0767187 0
977 1 0.773302 0.0600164 0
978 1 0.794967 0.0719612 0
1008 1 0.788197 0.0951427 0
1006 1 0.763904 0.0998292 0
980 1 0.820356 0.0639087 0
981 1 0.845366 0.0585356 0
1009 1 0.812747 0.0881509 0
1011 1 0.836853 0.0836468 0
982 1 0.862217 0.0769811 0
983 1 0.870115 0.0540243 0
984 1 0.886396 0.072088 0
1013 1 0.878057 0.0955571 0
1015 1 0.904558 0.0903871 0
986 1 0.910457 0.0657426 0
987 1 0.935046 0.0593813 0
1017 1 0.928186 0.0828713 0
988 1 0.952077 0.0771048 0
958 1 0.960084 0.0526455 0
989 1 0.976276 0.0702958 0
990 1 0.993195 0.0879052 0
1019 1 0.969364 0.0941646 0
991 1 0.51885 0.109768 0
992 1 0.523766 0.13319 0
993 1 0.542224 0.11687 0
120 1 0.499468 0.127567 0
1023 1 0.54837 0.140559 0
995 1 0.58417 0.104655 0
994 1 0.567044 0.123438 0
996 1 0.590432 0.129124 0
1025 1 0.573879 0.147217 0
997 1 0.607771 0.109828 0
998 1 0.632946 0.116356 0
1027 1 0.614216 0.134055 0
1029 1 0.639921 0.13918 0
1001 1 0.674553 0.104136 0
1000 1 0.657654 0.122027 0
1031 1 0.682729 0.12765 0
1030 1 0.665224 0.145771 0
1002 1 0.699677 0.108812 0
1032 1 0.689666 0.151286 0
1033 1 0.70622 0.132849 0
1035 1 0.724012 0.115175 0
1034 1 0.732128 0.138 0
1036 1 0.750999 0.122128 0
1037 1 0.777932 0.119711 0
1038 1 0.795723 0.136538 0
1067 1 0.767504 0.144818 0
1039 1 0.805199 0.112989 0
1010 1 0.828988 0.107872 0
1040 1 0.821348 0.131962 0
1041 1 0.845118 0.126239 0
1012 1 0.853768 0.102274 0
1043 1 0.871882 0.121558 0
1014 1 0.895945 0.113614 0
1044 1 0.888144 0.13898 0
1042 1 0.862309 0.144098 0
1018 1 0.94461 0.101927 0
1045 1 0.912936 0.132754 0
1016 1 0.922009 0.107448 0
1047 1 0.93698 0.126014 0
1077 1 0.929644 0.14952 0
1049 1 0.961774 0.11995 0
1020 1 0.986118 0.112249 0
1050 1 0.979726 0.136759 0
1046 1 0.95416 0.143493 0
1021 1 0.506369 0.150638 0
1022 1 0.530737 0.156676 0
1053 1 0.537905 0.181205 0
1051 1 0.512075 0.174449 0
1052 1 0.519535 0.198611 0
1026 1 0.597594 0.152472 0
1024 1 0.556774 0.164362 0
1055 1 0.580953 0.170702 0
1054 1 0.562911 0.1884 0
1056 1 0.587542 0.194151 0
1028 1 0.622332 0.157462 0
1057 1 0.605713 0.17466 0
1058 1 0.629559 0.180521 0
1059 1 0.646572 0.162771 0
1087 1 0.612587 0.197457 0
1060 1 0.654397 0.187071 0
1061 1 0.671789 0.169724 0
1091 1 0.679029 0.192836 0
1062 1 0.697882 0.175385 0
1063 1 0.714712 0.156263 0
1064 1 0.722606 0.180657 0
1095 1 0.747415 0.18754 0
1065 1 0.74055 0.161942 0
1093 1 0.705253 0.198518 0
1066 1 0.76321 0.168717 0
1068 1 0.78766 0.16112 0
1097 1 0.773106 0.191204 0
1071 1 0.839009 0.149629 0
1069 1 0.812869 0.154331 0
1070 1 0.831019 0.173236 0
1099 1 0.805799 0.178898 0
1100 1 0.823954 0.198471 0
1101 1 0.848654 0.191393 0
1072 1 0.85564 0.167934 0
1073 1 0.879811 0.163527 0
1103 1 0.873035 0.187895 0
1074 1 0.896953 0.180539 0
1075 1 0.903955 0.156919 0
1076 1 0.921196 0.174557 0
1107 1 0.94087 0.191235 0
1078 1 0.947007 0.167931 0
1105 1 0.916508 0.197689 0
1048 1 0.971758 0.160832 0
151 1 0.997252 0.155633 0
1079 1 0.988624 0.179319 0
1109 1 0.965566 0.184562 0
1083 1 0.544108 0.205114 0
1082 1 0.526532 0.222522 0
1111 1 0.50865 0.240308 0
1113 1 0.534466 0.24618 0
1081 1 0.502397 0.215759 0
1084 1 0.551656 0.228076 0
1085 1 0.569463 0.212315 0
1086 1 0.594209 0.217857 0
1115 1 0.576691 0.235101 0
1117 1 0.601398 0.240992 0
1089 1 0.636889 0.204133 0
1088 1 0.617771 0.221723 0
1119 1 0.642974 0.228323 0
1118 1 0.625638 0.245569 0
1090 1 0.661966 0.210237 0
1092 1 0.687107 0.216401 0
1121 1 0.667757 0.235255 0
1122 1 0.693854 0.240189 0
1094 1 0.72859 0.205282 0
1123 1 0.711901 0.222966 0
1124 1 0.717442 0.247022 0
1125 1 0.734953 0.229681 0
1098 1 0.799923 0.204065 0
1096 1 0.752301 0.21122 0
1127 1 0.777538 0.215071 0
1126 1 0.76001 0.234974 0
1128 1 0.78544 0.238304 0
1131 1 0.840888 0.217469 0
1129 1 0.815983 0.223436 0
1130 1 0.83427 0.241016 0
1159 1 0.808376 0.24798 0
1102 1 0.866403 0.210893 0
1104 1 0.892265 0.20502 0
1132 1 0.859059 0.234485 0
1133 1 0.883724 0.227905 0
1134 1 0.901375 0.244902 0
1135 1 0.909061 0.222264 0
1106 1 0.933253 0.215484 0
1136 1 0.925751 0.240252 0
1137 1 0.949793 0.232534 0
181 1 0.999556 0.220377 0
1108 1 0.957712 0.209394 0
1110 1 0.981239 0.203321 0
1139 1 0.974683 0.22669 0
1140 1 0.991767 0.24362 0
1112 1 0.516064 0.262513 0
1143 1 0.540989 0.268975 0
1142 1 0.52296 0.286033 0
1144 1 0.547522 0.293591 0
1114 1 0.559968 0.252795 0
1116 1 0.584891 0.258463 0
1145 1 0.566612 0.27546 0
1146 1 0.58994 0.282695 0
1175 1 0.571012 0.300233 0
1147 1 0.608559 0.264813 0
1149 1 0.633941 0.270127 0
1148 1 0.615483 0.288685 0
1179 1 0.639835 0.294388 0
1120 1 0.651089 0.252716 0
1151 1 0.674362 0.258696 0
1150 1 0.657217 0.276514 0
1152 1 0.682111 0.282832 0
1153 1 0.698969 0.264359 0
1155 1 0.742496 0.252662 0
1154 1 0.724856 0.270838 0
1183 1 0.70716 0.28825 0