ITEM: TIMESTEP
22000
ITEM: NUMBER OF ATOMS
1800
ITEM: BOX BOUNDS pp pp pp
2.2989743760654306e+00 1.5610102562393436e+02
2.2989743760654306e+00 1.5610102562393436e+02
0.0000000000000000e+00 5.2800000000000002e+00
ITEM: ATOMS id type xs ys zs
2 1 0.0163341 0.0205028 0
3 1 0.0403057 0.0144024 0
33 1 0.0328948 0.0371962 0
31 1 0.00543379 0.0443687 0
4 1 0.0569031 0.0318833 0
6 1 0.0820286 0.0234608 0
5 1 0.064066 0.00682799 0
37 1 0.0992796 0.040919 0
35 1 0.0735876 0.0477324 0
7 1 0.0886231 0.00064846 0
8 1 0.107941 0.0160678 0
9 1 0.124388 0.0325762 0
880 1 0.131966 0.00804968 0
10 1 0.149168 0.029591 0
11 1 0.157644 0.00536101 0
12 1 0.173259 0.0229223 0
43 1 0.189921 0.0419538 0
41 1 0.167138 0.0463704 0
14 1 0.201621 0.0189936 0
44 1 0.218687 0.0383045 0
45 1 0.226299 0.0114356 0
46 1 0.241459 0.0303191 0
16 1 0.251047 0.0080094 0
47 1 0.26659 0.0268837 0
49 1 0.291281 0.0205039 0
18 1 0.275504 0.00202084 0
48 1 0.285743 0.0458002 0
77 1 0.260519 0.0513359 0
50 1 0.309055 0.0379803 0
20 1 0.316063 0.014627 0
51 1 0.333001 0.0317055 0
21 1 0.339937 0.007491 0
22 1 0.356662 0.0260655 0
23 1 0.363605 0.000761171 0
24 1 0.38001 0.0193044 0
55 1 0.396223 0.0373508 0
53 1 0.373199 0.0441514 0
52 1 0.350005 0.05023 0
25 1 0.40652 0.0150566 0
26 1 0.431079 0.0323452 0
27 1 0.427785 0.00745626 0
898 1 0.450152 0.0172025 0
28 1 0.454609 0.0409109 0
29 1 0.472845 0.0232066 0
900 1 0.490799 0.00507186 0
59 1 0.479637 0.0486472 0
30 1 0.498457 0.0282586 0
32 1 0.0244574 0.0615157 0
62 1 0.0160624 0.0849425 0
63 1 0.0417016 0.078098 0
449 1 0.468776 0.464514 0
34 1 0.0489123 0.0559093 0
65 1 0.0658993 0.0726447 0
66 1 0.0831399 0.0871426 0
36 1 0.0916734 0.0647234 0
64 1 0.05676 0.0965734 0
38 1 0.116996 0.0582982 0
67 1 0.108447 0.0805583 0
69 1 0.13465 0.0752434 0
39 1 0.139519 0.05196 0
40 1 0.158243 0.0686454 0
71 1 0.175874 0.0875563 0
42 1 0.184649 0.0649748 0
72 1 0.200208 0.0836088 0
70 1 0.151248 0.0933556 0
73 1 0.20758 0.0597829 0
74 1 0.227442 0.0785881 0
75 1 0.235809 0.0540508 0
106 1 0.244868 0.097551 0
76 1 0.253084 0.0748729 0
78 1 0.277942 0.069227 0
109 1 0.294695 0.0866205 0
107 1 0.270588 0.0961203 0
79 1 0.303059 0.0639727 0
80 1 0.32016 0.0832955 0
81 1 0.326919 0.0572447 0
82 1 0.344479 0.0740561 0
111 1 0.341192 0.0975665 0
54 1 0.394403 0.0641306 0
83 1 0.368081 0.0679055 0
113 1 0.38085 0.0874761 0
57 1 0.438679 0.0584393 0
56 1 0.415357 0.05043 0
85 1 0.420687 0.0737193 0
87 1 0.445158 0.0827017 0
84 1 0.404209 0.0934275 0
86 1 0.427255 0.0983646 0
88 1 0.469182 0.0895683 0
58 1 0.461542 0.0654392 0
89 1 0.485847 0.0730422 0
90 1 0.492645 0.0958221 0
93 1 0.0327394 0.103351 0
92 1 0.0242351 0.127845 0
91 1 0.00746227 0.110201 0
94 1 0.0508561 0.119714 0
123 1 0.0432912 0.143486 0
95 1 0.0767763 0.111452 0
125 1 0.0694667 0.134776 0
96 1 0.0936421 0.129082 0
97 1 0.0999272 0.104905 0
68 1 0.125849 0.099229 0
98 1 0.117675 0.122906 0
99 1 0.1421 0.116402 0
129 1 0.135569 0.141468 0
127 1 0.110744 0.147382 0
100 1 0.168612 0.111787 0
130 1 0.15914 0.133734 0
131 1 0.185232 0.129848 0
101 1 0.19518 0.106844 0
103 1 0.218946 0.10082 0
102 1 0.210818 0.127043 0
105 1 0.2342 0.118667 0
133 1 0.200636 0.150093 0
104 1 0.237033 0.143095 0
135 1 0.257586 0.117473 0
137 1 0.280258 0.128756 0
108 1 0.295272 0.110061 0
136 1 0.261704 0.146242 0
139 1 0.304165 0.132908 0
110 1 0.321159 0.112683 0
141 1 0.345838 0.12239 0
140 1 0.329085 0.139606 0
112 1 0.365378 0.104863 0
114 1 0.388337 0.110433 0
143 1 0.37022 0.129025 0
144 1 0.393377 0.134038 0
142 1 0.35268 0.146881 0
115 1 0.410982 0.118613 0
116 1 0.435058 0.124179 0
145 1 0.417046 0.141659 0
117 1 0.451802 0.107366 0
118 1 0.458688 0.13036 0
119 1 0.476155 0.113008 0
149 1 0.481775 0.138843 0
120 1 0.49929 0.12034 0
122 1 0.0184859 0.151477 0
153 1 0.0370171 0.167224 0
152 1 0.0108952 0.176213 0
183 1 0.0302593 0.189478 0
1080 1 0.00604083 0.200558 0
124 1 0.0621731 0.159465 0
126 1 0.0864344 0.153587 0
155 1 0.0796494 0.176916 0
154 1 0.0539962 0.183762 0
156 1 0.0973324 0.194092 0
185 1 0.0727645 0.200351 0
128 1 0.129007 0.166227 0
157 1 0.104479 0.170329 0
160 1 0.14715 0.181997 0
158 1 0.122237 0.188441 0
159 1 0.152381 0.1581 0
161 1 0.170989 0.177553 0
132 1 0.175981 0.152327 0
162 1 0.187554 0.194172 0
191 1 0.163968 0.200258 0
134 1 0.222381 0.160704 0
163 1 0.202702 0.17376 0
164 1 0.228451 0.183451 0
165 1 0.245724 0.165191 0
193 1 0.211214 0.198719 0
167 1 0.269801 0.172969 0
138 1 0.28438 0.15313 0
168 1 0.294774 0.176917 0
166 1 0.252449 0.188919 0
197 1 0.276996 0.195808 0
169 1 0.310044 0.157574 0
171 1 0.3331 0.164533 0
170 1 0.318439 0.18325 0
201 1 0.342291 0.188088 0
172 1 0.359891 0.171492 0
173 1 0.377897 0.153555 0
174 1 0.383031 0.177256 0
203 1 0.367016 0.194316 0
147 1 0.441114 0.14716 0
175 1 0.400118 0.159782 0
146 1 0.424458 0.165077 0
177 1 0.448527 0.173491 0
205 1 0.407206 0.182712 0
176 1 0.428506 0.191925 0
148 1 0.464532 0.155036 0
150 1 0.487955 0.16335 0
179 1 0.471472 0.182958 0
178 1 0.452194 0.19798 0
180 1 0.494798 0.187417 0
181 1 0.00327455 0.224855 0
182 1 0.0258777 0.215345 0
184 1 0.0484972 0.207137 0
213 1 0.0417315 0.233935 0
211 1 0.0195036 0.240789 0
186 1 0.0890015 0.216852 0
215 1 0.0637729 0.224018 0
214 1 0.0599445 0.249793 0
216 1 0.0816912 0.240399 0
187 1 0.114474 0.211474 0
188 1 0.131024 0.23094 0
189 1 0.138173 0.205609 0
217 1 0.107691 0.233696 0
190 1 0.155046 0.223423 0
192 1 0.189377 0.216812 0
221 1 0.172633 0.237412 0
220 1 0.150093 0.247661 0
223 1 0.1981 0.239148 0
194 1 0.215657 0.223168 0
195 1 0.234559 0.206178 0
224 1 0.220585 0.24906 0
225 1 0.239015 0.230258 0
196 1 0.258598 0.212719 0
198 1 0.282209 0.220696 0
227 1 0.262877 0.237402 0
228 1 0.288373 0.24369 0
199 1 0.299325 0.201974 0
200 1 0.323279 0.208133 0
202 1 0.348785 0.211258 0
229 1 0.30632 0.227063 0
230 1 0.313779 0.250372 0
231 1 0.329833 0.230942 0
233 1 0.372365 0.21954 0
204 1 0.391431 0.201165 0
235 1 0.397101 0.225159 0
232 1 0.355862 0.236734 0
234 1 0.378598 0.244839 0
207 1 0.434402 0.21477 0
206 1 0.418876 0.233625 0
237 1 0.441673 0.240175 0
208 1 0.458867 0.222972 0
209 1 0.477542 0.206228 0
210 1 0.48413 0.229355 0
239 1 0.466783 0.24602 0
212 1 0.0128475 0.26456 0
243 1 0.0379573 0.258593 0
242 1 0.0323375 0.293777 0
241 1 0.00651683 0.287753 0
244 1 0.0548808 0.278904 0
245 1 0.0765957 0.266103 0
275 1 0.0755012 0.291226 0
247 1 0.0969991 0.27943 0
219 1 0.122659 0.253024 0
218 1 0.0992942 0.255974 0
249 1 0.139003 0.268339 0
248 1 0.120331 0.28316 0
250 1 0.142883 0.294334 0
222 1 0.177089 0.260238 0
251 1 0.160297 0.277084 0
252 1 0.184012 0.28447 0
253 1 0.201953 0.2654 0
255 1 0.224837 0.272826 0
226 1 0.245507 0.255435 0
254 1 0.208097 0.291289 0
256 1 0.249687 0.278233 0
285 1 0.231472 0.296719 0
257 1 0.268733 0.261626 0
259 1 0.291915 0.268125 0
258 1 0.273719 0.286495 0
289 1 0.29748 0.2936 0
260 1 0.317001 0.275482 0
261 1 0.34137 0.273439 0
291 1 0.319691 0.301234 0
263 1 0.362403 0.261699 0
264 1 0.386393 0.267967 0
293 1 0.366963 0.285357 0
295 1 0.389965 0.292534 0
265 1 0.401729 0.250181 0
236 1 0.425942 0.258443 0
266 1 0.409311 0.276252 0
267 1 0.432247 0.283458 0
238 1 0.448959 0.265066 0
240 1 0.490031 0.253682 0
269 1 0.472427 0.270017 0
268 1 0.455059 0.290611 0
270 1 0.478897 0.294651 0
1141 1 0.496561 0.276436 0
271 1 0.00931537 0.310822 0
272 1 0.0340463 0.318119 0
303 1 0.0365712 0.344695 0
301 1 0.0143581 0.335117 0
273 1 0.0542988 0.303509 0
276 1 0.0778489 0.314135 0
246 1 0.0983491 0.302153 0
274 1 0.0584443 0.328937 0
305 1 0.0840642 0.339166 0
279 1 0.122257 0.308365 0
280 1 0.146033 0.317891 0
277 1 0.102656 0.324816 0
278 1 0.126326 0.3323 0
307 1 0.107294 0.348763 0
281 1 0.165881 0.30012 0
311 1 0.150181 0.340783 0
283 1 0.189189 0.307839 0
282 1 0.170622 0.324295 0
313 1 0.194521 0.330899 0
312 1 0.176895 0.347664 0
284 1 0.21277 0.315038 0
315 1 0.216853 0.338654 0
286 1 0.237736 0.321646 0
316 1 0.239791 0.345355 0
287 1 0.255547 0.30382 0
288 1 0.279115 0.311548 0
317 1 0.259572 0.331483 0
319 1 0.284361 0.335605 0
290 1 0.302264 0.319328 0
262 1 0.348082 0.299532 0
321 1 0.307923 0.343739 0
292 1 0.325398 0.326949 0
294 1 0.371852 0.308555 0
296 1 0.395996 0.317638 0
323 1 0.350157 0.32325 0
324 1 0.353109 0.347097 0
325 1 0.374264 0.334714 0
326 1 0.395517 0.347305 0
297 1 0.414426 0.301068 0
298 1 0.43926 0.307692 0
327 1 0.418029 0.32603 0
328 1 0.44313 0.33214 0
299 1 0.462994 0.314363 0
300 1 0.486077 0.318996 0
1201 1 0.49521 0.341041 0
329 1 0.46821 0.337146 0
302 1 0.0183759 0.362939 0
332 1 0.0243558 0.386872 0
331 1 -0.000271121 0.376784 0
333 1 0.0433711 0.368908 0
334 1 0.0483768 0.39446 0
304 1 0.0621898 0.354269 0
306 1 0.086682 0.362915 0
335 1 0.066687 0.378228 0
337 1 0.0928831 0.385548 0
309 1 0.130966 0.356027 0
308 1 0.111928 0.371981 0
338 1 0.117368 0.396072 0
339 1 0.13779 0.379922 0
310 1 0.156414 0.363866 0
314 1 0.199137 0.355267 0
341 1 0.16227 0.388357 0
343 1 0.181127 0.37117 0
342 1 0.185844 0.394607 0
345 1 0.22174 0.363215 0
344 1 0.203738 0.379652 0
375 1 0.225466 0.38859 0
346 1 0.244899 0.370162 0
377 1 0.250585 0.394564 0
318 1 0.263824 0.354192 0
349 1 0.286849 0.360079 0
347 1 0.269415 0.378515 0
350 1 0.293374 0.38519 0
322 1 0.330309 0.353746 0
320 1 0.309135 0.368533 0
351 1 0.328119 0.382097 0
352 1 0.345351 0.397038 0
355 1 0.373614 0.359707 0
353 1 0.348234 0.371102 0
354 1 0.368951 0.384291 0
356 1 0.395119 0.373135 0
385 1 0.391767 0.397802 0
359 1 0.442817 0.357508 0
357 1 0.418161 0.364881 0
358 1 0.437044 0.380819 0
387 1 0.41437 0.390045 0
330 1 0.478543 0.359179 0
1261 1 0.482584 0.392499 0
360 1 0.460155 0.374457 0
389 1 0.456769 0.398138 0
361 1 0.00528471 0.401234 0
363 1 0.0312561 0.410755 0
362 1 0.0119924 0.426061 0
364 1 0.0371213 0.436037 0
336 1 0.0736353 0.402878 0
365 1 0.0551555 0.420627 0
395 1 0.0717684 0.440174 0
367 1 0.0961265 0.411365 0
366 1 0.100148 0.435049 0
340 1 0.14113 0.404217 0
369 1 0.121008 0.422172 0
368 1 0.123357 0.446308 0
370 1 0.144235 0.428359 0
371 1 0.165102 0.411325 0
401 1 0.169812 0.435402 0
372 1 0.187399 0.418806 0
403 1 0.194003 0.444113 0
373 1 0.207203 0.404191 0
374 1 0.21408 0.428267 0
376 1 0.233151 0.412897 0
405 1 0.240789 0.436292 0
348 1 0.275423 0.40174 0
379 1 0.299364 0.408544 0
407 1 0.267032 0.443304 0
378 1 0.258017 0.418662 0
409 1 0.285031 0.427165 0
381 1 0.322462 0.40568 0
380 1 0.311788 0.431493 0
382 1 0.338438 0.423721 0
411 1 0.333438 0.449179 0
383 1 0.368248 0.407385 0
413 1 0.362378 0.430491 0
384 1 0.388502 0.42215 0
414 1 0.382882 0.445874 0
388 1 0.434506 0.405457 0
415 1 0.406508 0.43921 0
386 1 0.411561 0.414035 0
417 1 0.429694 0.431524 0
418 1 0.448263 0.448826 0
419 1 0.452633 0.421851 0
1291 1 0.495906 0.433391 0
390 1 0.477367 0.417329 0
420 1 0.471097 0.440636 0
393 1 0.0190823 0.450164 0
392 1 0.00358353 0.468352 0
422 1 0.0119821 0.491293 0
423 1 0.0309837 0.474706 0
394 1 0.0527649 0.457827 0
396 1 0.0784102 0.466462 0
425 1 0.0555856 0.481207 0
426 1 0.0789428 0.490679 0
397 1 0.102397 0.457946 0
399 1 0.149034 0.452453 0
398 1 0.125079 0.471057 0
427 1 0.102695 0.48315 0
428 1 0.126105 0.496162 0
429 1 0.148091 0.478295 0
400 1 0.173647 0.458276 0
430 1 0.164497 0.495361 0
431 1 0.183218 0.48082 0
402 1 0.201852 0.465981 0
404 1 0.223139 0.451563 0
432 1 0.207176 0.489219 0
433 1 0.226708 0.475074 0
435 1 0.247108 0.460456 0
436 1 0.248161 0.484137 0
408 1 0.289098 0.452544 0
406 1 0.270401 0.467216 0
437 1 0.271031 0.491994 0
439 1 0.292365 0.476607 0
410 1 0.311678 0.459272 0
440 1 0.312959 0.488537 0
441 1 0.333071 0.475028 0
471 1 0.337279 0.498864 0
412 1 0.35658 0.454527 0
442 1 0.355655 0.481857 0
473 1 0.376167 0.494375 0
443 1 0.375478 0.469386 0
444 1 0.398249 0.48863 0
445 1 0.399839 0.463583 0
416 1 0.423405 0.45602 0
447 1 0.444893 0.473443 0
477 1 0.439533 0.497244 0
446 1 0.421551 0.481459 0
450 1 0.486625 0.481978 0
448 1 0.462594 0.490221 0
1321 1 0.491422 0.457651 0
424 1 0.0360803 0.498833 0
882 1 0.185378 0.00180174 0
453 1 0.0161527 0.514574 0
452 1 0.0205309 0.542806 0
454 1 0.0391705 0.524939 0
870 1 0.478743 0.954523 0
485 1 0.0641564 0.535694 0
455 1 0.0585182 0.510781 0
456 1 0.0812404 0.516974 0
458 1 0.125567 0.522921 0
487 1 0.104583 0.535451 0
457 1 0.10566 0.507827 0
459 1 0.145839 0.510174 0
489 1 0.148518 0.53604 0
488 1 0.126712 0.546473 0
460 1 0.167148 0.520072 0
461 1 0.186522 0.505203 0
462 1 0.190087 0.531336 0
491 1 0.171181 0.545125 0
493 1 0.210918 0.540763 0
463 1 0.209657 0.513861 0
464 1 0.231325 0.524895 0
434 1 0.228983 0.500407 0
466 1 0.254371 0.534059 0
465 1 0.252057 0.509293 0
467 1 0.275002 0.516733 0
497 1 0.278227 0.544555 0
438 1 0.294239 0.503008 0
468 1 0.297184 0.527263 0
469 1 0.31769 0.512433 0
499 1 0.320421 0.538104 0
470 1 0.338686 0.523438 0
501 1 0.343298 0.548621 0
472 1 0.358609 0.510294 0
503 1 0.364048 0.53396 0
474 1 0.389077 0.51621 0
505 1 0.387429 0.540636 0
476 1 0.40957 0.527621 0
475 1 0.415805 0.504606 0
507 1 0.433239 0.522915 0
509 1 0.451353 0.54063 0
478 1 0.456955 0.515116 0
479 1 0.480954 0.507811 0
480 1 0.473675 0.531916 0
1381 1 0.49732 0.524991 0
482 1 -0.000189825 0.555961 0
513 1 0.0243787 0.565987 0
511 1 0.004243 0.580751 0
483 1 0.0443376 0.550201 0
514 1 0.0442774 0.579337 0
512 1 0.0244523 0.592981 0
486 1 0.0848497 0.548822 0
484 1 0.0655624 0.562331 0
515 1 0.0873285 0.576617 0
545 1 0.0670367 0.590015 0
517 1 0.106272 0.560319 0
518 1 0.110469 0.585491 0
519 1 0.130734 0.572607 0
549 1 0.132089 0.59693 0
490 1 0.150084 0.560573 0
520 1 0.153396 0.584269 0
521 1 0.172696 0.569958 0
492 1 0.192789 0.55698 0
523 1 0.19528 0.580447 0
522 1 0.175868 0.595143 0
494 1 0.21446 0.565126 0
524 1 0.218162 0.589005 0
495 1 0.234644 0.549375 0
525 1 0.236813 0.574039 0
555 1 0.240715 0.597262 0
496 1 0.257693 0.55961 0
526 1 0.260243 0.583318 0
527 1 0.281264 0.568588 0
528 1 0.282807 0.593403 0
498 1 0.300978 0.551908 0
529 1 0.304048 0.576729 0
500 1 0.324893 0.562874 0
530 1 0.329234 0.588194 0
531 1 0.347885 0.572374 0
502 1 0.368744 0.556865 0
504 1 0.391664 0.564058 0
533 1 0.371726 0.581114 0
532 1 0.351717 0.596788 0
534 1 0.395903 0.591275 0
506 1 0.413247 0.551888 0
535 1 0.415457 0.576181 0
508 1 0.436152 0.559948 0
537 1 0.4384 0.583991 0
510 1 0.490024 0.550596 0
539 1 0.46411 0.560899 0
540 1 0.488574 0.575368 0
538 1 0.465538 0.585308 0
541 1 0.00455374 0.607066 0
542 1 0.0270007 0.617266 0
571 1 0.00630825 0.632419 0
543 1 0.04775 0.604132 0
573 1 0.0291607 0.641415 0
544 1 0.0506137 0.628231 0
546 1 0.0703644 0.614726 0
516 1 0.0908173 0.600585 0
547 1 0.0921761 0.624348 0
575 1 0.0722081 0.638861 0
548 1 0.112947 0.611335 0
550 1 0.136777 0.623178 0
577 1 0.116263 0.636106 0
579 1 0.139019 0.647971 0
551 1 0.155398 0.608603 0
581 1 0.158424 0.633124 0
552 1 0.179423 0.618584 0
582 1 0.181832 0.641962 0
553 1 0.198819 0.605293 0
554 1 0.221325 0.613153 0
583 1 0.20275 0.627654 0
556 1 0.245032 0.622611 0
585 1 0.226125 0.636902 0
586 1 0.248976 0.647771 0
557 1 0.263992 0.609991 0
587 1 0.26831 0.63344 0
558 1 0.289089 0.617062 0
589 1 0.290335 0.641808 0
559 1 0.308375 0.600843 0
560 1 0.311249 0.627376 0
561 1 0.331691 0.611343 0
591 1 0.334545 0.636957 0
562 1 0.354891 0.620926 0
563 1 0.374814 0.605951 0
564 1 0.378464 0.629944 0
565 1 0.398992 0.615211 0
593 1 0.358228 0.645074 0
595 1 0.400347 0.64056 0
536 1 0.418843 0.60022 0
566 1 0.421649 0.624923 0
567 1 0.440898 0.609657 0
597 1 0.444125 0.634899 0
568 1 0.4635 0.61974 0
569 1 0.483852 0.603719 0
570 1 0.485982 0.634082 0
599 1 0.465856 0.645872 0
572 1 0.00997268 0.655658 0
603 1 0.0326095 0.665179 0
602 1 0.0129415 0.679792 0
633 1 0.0335567 0.692145 0
574 1 0.0528778 0.653257 0
605 1 0.0756611 0.665088 0
604 1 0.0541163 0.678807 0
576 1 0.0948986 0.649493 0
606 1 0.077197 0.690147 0
607 1 0.0980576 0.673542 0
578 1 0.117988 0.660919 0
609 1 0.140773 0.672736 0
608 1 0.119549 0.685728 0
639 1 0.142968 0.69596 0
580 1 0.162668 0.657044 0
611 1 0.18528 0.665777 0
610 1 0.16445 0.681188 0
612 1 0.187596 0.690985 0
584 1 0.206137 0.651367 0
613 1 0.208053 0.676409 0
615 1 0.227686 0.661788 0
614 1 0.231128 0.686978 0
617 1 0.2514 0.672238 0
588 1 0.270732 0.657749 0
619 1 0.295313 0.667698 0
616 1 0.253889 0.697559 0
618 1 0.275455 0.682873 0
590 1 0.31576 0.652563 0
621 1 0.317637 0.677981 0
592 1 0.337442 0.661549 0
622 1 0.34101 0.68714 0
623 1 0.359405 0.670354 0
594 1 0.379908 0.655994 0
653 1 0.363717 0.695935 0
624 1 0.383636 0.681001 0
625 1 0.403998 0.664516 0
596 1 0.422868 0.650619 0
598 1 0.446265 0.659508 0
627 1 0.426123 0.674531 0
626 1 0.4062 0.690652 0
628 1 0.447926 0.682895 0
657 1 0.430154 0.700731 0
600 1 0.490692 0.659027 0
629 1 0.470357 0.672734 0
630 1 0.493937 0.685055 0
632 1 0.0135419 0.70508 0
634 1 0.0369351 0.717343 0
663 1 0.0164514 0.730485 0
664 1 0.0388058 0.741648 0
635 1 0.0572302 0.703171 0
636 1 0.0797936 0.715359 0
665 1 0.059413 0.72861 0
666 1 0.0826778 0.741265 0
637 1 0.0999024 0.69921 0
638 1 0.121669 0.71008 0
667 1 0.102012 0.72532 0
640 1 0.144885 0.71955 0
669 1 0.125648 0.735766 0
670 1 0.147289 0.744756 0
641 1 0.166259 0.705398 0
642 1 0.190074 0.716255 0
671 1 0.168979 0.728787 0
673 1 0.190748 0.740209 0
643 1 0.210102 0.701466 0
645 1 0.232474 0.712444 0
644 1 0.211595 0.727105 0
675 1 0.23357 0.737474 0
646 1 0.255133 0.723565 0
647 1 0.276261 0.707315 0
649 1 0.301131 0.713687 0
677 1 0.25824 0.747473 0
648 1 0.278518 0.731755 0
679 1 0.300905 0.738247 0
620 1 0.322019 0.702021 0
651 1 0.344918 0.711094 0
650 1 0.323257 0.725437 0
652 1 0.345084 0.735752 0
681 1 0.323718 0.749481 0
654 1 0.367588 0.721128 0
655 1 0.388447 0.707526 0
685 1 0.392286 0.731699 0
683 1 0.368136 0.745911 0
656 1 0.412064 0.71647 0
687 1 0.437905 0.722742 0
686 1 0.420342 0.739423 0
717 1 0.446454 0.744984 0
658 1 0.453895 0.705139 0
659 1 0.478559 0.706981 0
689 1 0.462964 0.728199 0
660 1 0.486591 0.730638 0
662 1 0.0190317 0.755078 0
694 1 0.0405498 0.76583 0
693 1 0.0196822 0.779424 0
725 1 0.0429825 0.791311 0
695 1 0.0616918 0.753852 0
697 1 0.0858878 0.766607 0
696 1 0.0645016 0.778171 0
727 1 0.0874811 0.791913 0
668 1 0.105067 0.750958 0
699 1 0.128699 0.760857 0
698 1 0.107104 0.776233 0
700 1 0.131857 0.786586 0
701 1 0.150852 0.769424 0
672 1 0.170445 0.755358 0
703 1 0.193789 0.765197 0
702 1 0.173817 0.779816 0
731 1 0.153616 0.793065 0
704 1 0.197202 0.790175 0
674 1 0.213998 0.751706 0
676 1 0.236643 0.761193 0
705 1 0.216624 0.776155 0
735 1 0.220157 0.800794 0
706 1 0.238808 0.786059 0
707 1 0.260098 0.772218 0
678 1 0.279821 0.757482 0
737 1 0.264077 0.795989 0
709 1 0.282477 0.780907 0
680 1 0.304221 0.76458 0
682 1 0.346428 0.760334 0
710 1 0.305921 0.790562 0
711 1 0.325297 0.77459 0
712 1 0.349402 0.783915 0
713 1 0.368657 0.769682 0
714 1 0.391239 0.775989 0
743 1 0.372527 0.793642 0
745 1 0.395564 0.801027 0
684 1 0.403483 0.755663 0
715 1 0.428572 0.763025 0
716 1 0.412643 0.781195 0
747 1 0.436215 0.785703 0
718 1 0.453117 0.769037 0
688 1 0.470188 0.751443 0
690 1 0.493889 0.75657 0
719 1 0.47844 0.774202 0
720 1 0.483759 0.799046 0
749 1 0.460685 0.792311 0
1771 1 0.485847 0.979336 0
723 1 0.0202133 0.803512 0
751 1 0.000592346 0.816528 0
724 1 0.0422735 0.816061 0
722 1 0.0210743 0.828059 0
753 1 0.0341199 0.847423 0
1680 1 0.000590936 0.843303 0
726 1 0.0653341 0.80106 0
757 1 0.0917184 0.816944 0
755 1 0.0690496 0.826162 0
756 1 0.0967807 0.844087 0
728 1 0.110692 0.802241 0
729 1 0.13541 0.810728 0
758 1 0.120034 0.85273 0
759 1 0.116333 0.826453 0
760 1 0.139053 0.836419 0
732 1 0.177033 0.804682 0
730 1 0.15864 0.820687 0
761 1 0.161404 0.845406 0
763 1 0.181953 0.829578 0
733 1 0.200814 0.814451 0
736 1 0.243791 0.809644 0
764 1 0.204211 0.838825 0
734 1 0.224286 0.824542 0
767 1 0.245409 0.834933 0
765 1 0.225882 0.851307 0
708 1 0.286428 0.806039 0
738 1 0.266147 0.820229 0
768 1 0.267807 0.842738 0
769 1 0.289534 0.829071 0
741 1 0.329488 0.79857 0
739 1 0.310472 0.813946 0
740 1 0.313991 0.836503 0
771 1 0.334706 0.823518 0
772 1 0.339874 0.850487 0
742 1 0.351982 0.80731 0
773 1 0.357703 0.834502 0
744 1 0.375373 0.817515 0
774 1 0.380942 0.842386 0
775 1 0.399945 0.824006 0
746 1 0.418999 0.806752 0
748 1 0.442419 0.809502 0
777 1 0.423755 0.830645 0
779 1 0.448541 0.836129 0
776 1 0.405144 0.848236 0
750 1 0.465912 0.817268 0
1621 1 0.490619 0.82276 0
780 1 0.472315 0.840193 0
1651 1 0.495519 0.846896 0
752 1 0.0147809 0.863087 0
783 1 0.0351366 0.874645 0
782 1 0.0117402 0.888711 0
813 1 0.0383619 0.898922 0
754 1 0.0582519 0.848977 0
785 1 0.0796221 0.860078 0
784 1 0.0589815 0.873913 0
786 1 0.0842346 0.885067 0
815 1 0.0636344 0.897959 0
789 1 0.144549 0.862372 0
787 1 0.101975 0.869562 0
788 1 0.124999 0.876394 0
817 1 0.109444 0.895786 0
790 1 0.146687 0.888299 0
762 1 0.184416 0.855269 0
791 1 0.165452 0.87021 0
792 1 0.168894 0.896175 0
793 1 0.18789 0.882143 0
795 1 0.206633 0.86484 0
794 1 0.211502 0.894667 0
796 1 0.231237 0.875187 0
766 1 0.249822 0.85858 0
797 1 0.273988 0.867724 0
827 1 0.262069 0.888866 0
799 1 0.294582 0.854373 0
798 1 0.287328 0.889004 0
770 1 0.318109 0.860852 0
800 1 0.309725 0.88338 0
801 1 0.338246 0.875299 0
831 1 0.328951 0.899482 0
802 1 0.353289 0.893722 0
803 1 0.363501 0.860806 0
804 1 0.376682 0.88595 0
805 1 0.387892 0.865846 0
806 1 0.398349 0.899361 0
778 1 0.432656 0.853382 0
807 1 0.41196 0.875483 0
808 1 0.439361 0.877337 0
837 1 0.422937 0.897698 0
839 1 0.44881 0.9015 0
809 1 0.456256 0.858969 0
1681 1 0.479892 0.865431 0
1711 1 0.487126 0.887504 0
810 1 0.463417 0.88233 0
812 1 0.00566969 0.912897 0
843 1 0.0198293 0.932051 0
814 1 0.0433978 0.922991 0
844 1 0.0367448 0.949144 0
816 1 0.0890037 0.90961 0
845 1 0.0671683 0.920098 0
846 1 0.0606596 0.942843 0
847 1 0.0841621 0.936033 0
819 1 0.132487 0.908947 0
818 1 0.108573 0.924571 0
820 1 0.132524 0.933018 0
823 1 0.190561 0.907484 0
821 1 0.155891 0.916781 0
851 1 0.158352 0.94073 0
822 1 0.180605 0.931787 0
825 1 0.237082 0.897835 0
824 1 0.206826 0.92653 0
885 1 0.22357 0.945079 0
855 1 0.231553 0.922385 0
856 1 0.247954 0.93915 0
826 1 0.255063 0.913166 0
857 1 0.271722 0.933693 0
828 1 0.279126 0.910653 0
859 1 0.295183 0.928089 0
829 1 0.304097 0.906229 0
860 1 0.312 0.94487 0
830 1 0.321223 0.92269 0
832 1 0.345521 0.916367 0
861 1 0.337761 0.941375 0
863 1 0.362858 0.935122 0
833 1 0.36973 0.911536 0
834 1 0.387694 0.930146 0
865 1 0.402224 0.949723 0
835 1 0.410563 0.924258 0
836 1 0.424936 0.943177 0
838 1 0.434809 0.920195 0
840 1 0.468565 0.917442 0
869 1 0.456339 0.939201 0
1712 1 0.493014 0.912354 0
1741 1 0.498497 0.938076 0
842 1 0.0127824 0.95505 0
872 1 0.0241162 0.997495 0
873 1 0.0296393 0.972458 0
871 1 0.00616897 0.978912 0
874 1 0.0465114 0.988588 0
875 1 0.054273 0.966736 0
876 1 0.0720233 0.983519 0
848 1 0.0769898 0.959473 0
877 1 0.0953944 0.976596 0
849 1 0.10121 0.952913 0
850 1 0.152022 0.963965 0
878 1 0.114313 0.99261 0
879 1 0.1205 0.969282 0
881 1 0.138938 0.986651 0
853 1 0.175106 0.959421 0
854 1 0.19819 0.950853 0
852 1 0.170894 0.982723 0
868 1 0.460953 0.973655 0
883 1 0.193001 0.976088 0
13 1 0.208574 0.995574 0
15 1 0.23408 0.986856 0
884 1 0.216326 0.969619 0
886 1 0.241165 0.963993 0
858 1 0.287983 0.952734 0
887 1 0.263974 0.958211 0
17 1 0.258394 0.982619 0
888 1 0.282202 0.977911 0
19 1 0.298765 0.996079 0
889 1 0.305582 0.970855 0
890 1 0.321442 0.988644 0
892 1 0.345232 0.983298 0
891 1 0.328785 0.963879 0
864 1 0.378525 0.952568 0
862 1 0.353936 0.958195 0
894 1 0.387182 0.997053 0
893 1 0.369847 0.977623 0
895 1 0.394378 0.972352 0
896 1 0.410995 0.990601 0
867 1 0.441405 0.960292 0
897 1 0.441249 0.985666 0
866 1 0.418452 0.967335 0
899 1 0.46704 0.996944 0
902 1 0.538587 0.0167537 0
901 1 0.514656 0.0103006 0
931 1 0.521523 0.0348015 0
933 1 0.544568 0.0418499 0
904 1 0.562654 0.0251688 0
906 1 0.579803 0.00610547 0
935 1 0.587451 0.0297191 0
934 1 0.570819 0.0490993 0
908 1 0.604961 0.013344 0
937 1 0.610537 0.0369653 0
939 1 0.628092 0.0198119 0
938 1 0.635524 0.0436626 0
910 1 0.647294 0.00195593 0
941 1 0.653635 0.0275587 0
912 1 0.669674 0.00899513 0
942 1 0.675828 0.0344563 0
943 1 0.693489 0.0166481 0
973 1 0.700083 0.0405247 0
944 1 0.71738 0.0240191 0
945 1 0.7349 0.00742296 0
946 1 0.740996 0.0302093 0
975 1 0.723635 0.0487643 0
947 1 0.759332 0.0141679 0
948 1 0.766988 0.0370986 0
918 1 0.786057 0.0224967 0
920 1 0.798416 0.00221803 0
979 1 0.798475 0.0461038 0
949 1 0.81076 0.0240553 0
951 1 0.834216 0.01531 0
952 1 0.851937 0.0323302 0
950 1 0.824335 0.0448097 0
953 1 0.857391 0.00917069 0
924 1 0.88376 0.00447983 0
954 1 0.875269 0.0282971 0
955 1 0.898992 0.0252252 0
985 1 0.889098 0.0499248 0
926 1 0.924922 0.0198595 0
957 1 0.940219 0.0376504 0
928 1 0.949027 0.0139537 0
61 1 0.997762 0.0665328 0
956 1 0.916698 0.0423819 0
959 1 0.964939 0.0323441 0
930 1 0.989727 0.0252074 0
929 1 0.974761 0.00747289 0
960 1 0.98164 0.0496311 0
1 1 0.999819 0.00222526 0
932 1 0.527285 0.0585136 0
962 1 0.534324 0.0846672 0
961 1 0.510519 0.0761314 0
60 1 0.503826 0.0527209 0
963 1 0.552132 0.0669113 0
965 1 0.576682 0.0741302 0
964 1 0.557101 0.0915829 0
936 1 0.593612 0.0580518 0
966 1 0.605683 0.0801766 0
995 1 0.584617 0.0968158 0
967 1 0.618621 0.0602905 0
968 1 0.626804 0.0892069 0
969 1 0.641718 0.0701025 0
999 1 0.649232 0.0959771 0
940 1 0.660057 0.0526856 0
970 1 0.664886 0.0773696 0
971 1 0.682991 0.0597397 0
972 1 0.689153 0.0826179 0
1003 1 0.705403 0.066989 0
1004 1 0.714371 0.0886776 0
974 1 0.73079 0.0711443 0
1005 1 0.740839 0.0936426 0
976 1 0.747713 0.0538398 0
1007 1 0.76517 0.0854188 0
977 1 0.775475 0.0595631 0
978 1 0.78999 0.0783468 0
980 1 0.815746 0.0687989 0
981 1 0.842497 0.0615975 0
1009 1 0.809542 0.0939701 0
1011 1 0.832102 0.087603 0
982 1 0.85646 0.0823987 0
983 1 0.865236 0.0523772 0
984 1 0.879823 0.0737133 0
1015 1 0.89769 0.0896372 0
1013 1 0.874541 0.099621 0
986 1 0.908376 0.0656826 0
987 1 0.932139 0.06096 0
1017 1 0.924945 0.0846241 0
988 1 0.948828 0.078879 0
958 1 0.956333 0.0554551 0
989 1 0.973973 0.0721732 0
990 1 0.992761 0.0919374 0
1019 1 0.968835 0.095411 0
991 1 0.516312 0.101469 0
992 1 0.524228 0.126233 0
993 1 0.539719 0.108634 0
1023 1 0.548221 0.133322 0
1021 1 0.505453 0.144372 0
994 1 0.564466 0.114976 0
996 1 0.589464 0.121074 0
1025 1 0.57213 0.14012 0
1026 1 0.596174 0.143809 0
997 1 0.608008 0.105162 0
998 1 0.632528 0.113773 0
1027 1 0.61407 0.128947 0
1029 1 0.637965 0.13736 0
1001 1 0.672594 0.102775 0
1000 1 0.655548 0.121618 0
1031 1 0.680643 0.125973 0
1002 1 0.697384 0.106616 0
1030 1 0.664294 0.144239 0
1033 1 0.706566 0.12957 0
1035 1 0.722821 0.110545 0
1034 1 0.73029 0.134247 0
1006 1 0.75981 0.108335 0
1037 1 0.776375 0.126146 0
1008 1 0.784212 0.101731 0
1036 1 0.75347 0.13586 0
1038 1 0.794353 0.143007 0
1039 1 0.801361 0.118563 0
1010 1 0.825485 0.113609 0
1012 1 0.849416 0.108054 0
1041 1 0.842268 0.132696 0
1040 1 0.817861 0.138355 0
1043 1 0.867468 0.127587 0
1014 1 0.889937 0.120916 0
1044 1 0.884937 0.145684 0
1045 1 0.908394 0.135648 0
1016 1 0.911048 0.109804 0
1047 1 0.929421 0.122366 0
1046 1 0.931809 0.145467 0
1018 1 0.946257 0.104203 0
1049 1 0.952262 0.130541 0
1020 1 0.981586 0.116375 0
1050 1 0.975702 0.140472 0
121 1 0.999162 0.134494 0
1022 1 0.530283 0.149719 0
1053 1 0.536136 0.175825 0
1051 1 0.511466 0.169899 0
1052 1 0.51768 0.193165 0
1024 1 0.554181 0.15596 0
1055 1 0.57738 0.162982 0
1054 1 0.559649 0.181948 0
1056 1 0.583759 0.187283 0
1028 1 0.619443 0.153328 0
1057 1 0.601637 0.170008 0
1058 1 0.627937 0.176424 0
1059 1 0.647159 0.1605 0
1087 1 0.609024 0.194127 0
1032 1 0.690497 0.148059 0
1061 1 0.673092 0.167226 0
1062 1 0.696432 0.171515 0
1060 1 0.654038 0.183131 0
1091 1 0.679267 0.189401 0
1093 1 0.701658 0.196399 0
1063 1 0.713813 0.153266 0
1064 1 0.720304 0.177906 0
1065 1 0.747112 0.159038 0
1095 1 0.742603 0.184262 0
1066 1 0.764793 0.175819 0
1067 1 0.771051 0.152306 0
1068 1 0.789133 0.168495 0
1097 1 0.781896 0.193389 0
1069 1 0.812668 0.163647 0
1071 1 0.835286 0.156825 0
1070 1 0.831715 0.181458 0
1099 1 0.807186 0.188216 0
1042 1 0.860428 0.15187 0
1072 1 0.856132 0.176414 0
1073 1 0.879274 0.170917 0
1103 1 0.874355 0.194234 0
1074 1 0.897961 0.188229 0
1075 1 0.904259 0.161505 0
1077 1 0.930433 0.16838 0
1076 1 0.922315 0.189515 0
1078 1 0.948169 0.183526 0
1048 1 0.955244 0.156535 0
151 1 0.992397 0.159441 0
1079 1 0.97123 0.176887 0
1083 1 0.542621 0.199887 0
1081 1 0.5013 0.21243 0
1082 1 0.52602 0.218609 0
1111 1 0.509066 0.237302 0
1113 1 0.53347 0.243071 0
1085 1 0.565167 0.20708 0
1084 1 0.549796 0.225423 0
1086 1 0.591012 0.212031 0
1114 1 0.556858 0.249602 0
1115 1 0.574323 0.229441 0
1117 1 0.599162 0.235873 0
1088 1 0.616884 0.218438 0
1089 1 0.632032 0.19972 0
1119 1 0.642739 0.222502 0
1118 1 0.623049 0.242259 0
1120 1 0.647582 0.247378 0
1090 1 0.660525 0.205629 0
1092 1 0.684709 0.21274 0
1121 1 0.666191 0.230175 0
1122 1 0.690574 0.236911 0
1123 1 0.708106 0.219527 0
1094 1 0.726779 0.20199 0
1124 1 0.714775 0.242182 0
1125 1 0.731986 0.224545 0
1096 1 0.751353 0.207797 0
1127 1 0.774456 0.217923 0
1126 1 0.755684 0.232734 0
1128 1 0.792051 0.234395 0
1098 1 0.799212 0.210189 0
1100 1 0.825852 0.205157 0
1131 1 0.841094 0.222937 0
1129 1 0.817396 0.227571 0
1130 1 0.833285 0.247418 0
1101 1 0.849957 0.199891 0
1102 1 0.864727 0.218468 0
1104 1 0.889691 0.213261 0
1132 1 0.856033 0.241746 0
1133 1 0.881046 0.236806 0
1105 1 0.915305 0.21127 0
1107 1 0.939566 0.206205 0
1135 1 0.905109 0.232415 0
1106 1 0.930616 0.229105 0
1137 1 0.946227 0.248415 0
1108 1 0.955116 0.224968 0
1109 1 0.963218 0.201712 0
1110 1 0.97982 0.221606 0
1139 1 0.970562 0.244797 0
1140 1 0.994337 0.247458 0
1112 1 0.514877 0.26072 0
1143 1 0.538414 0.267359 0
1142 1 0.521021 0.284738 0
1144 1 0.547032 0.290697 0
1116 1 0.581053 0.253109 0
1145 1 0.564798 0.272546 0
1146 1 0.587993 0.276957 0
1175 1 0.571951 0.296054 0
1147 1 0.605701 0.259413 0
1149 1 0.629863 0.264589 0
1148 1 0.61309 0.28312 0
1179 1 0.63722 0.289462 0
1151 1 0.671636 0.254946 0
1153 1 0.69592 0.261143 0
1150 1 0.654845 0.272216 0
1181 1 0.661507 0.296157 0