ITEM: TIMESTEP
168000
ITEM: NUMBER OF ATOMS
1800
ITEM: BOX BOUNDS pp pp pp
3.1101618921706518e+00 1.5528983810782688e+02
3.1101618921706518e+00 1.5528983810782688e+02
0.0000000000000000e+00 5.2800000000000002e+00
ITEM: ATOMS id type xs ys zs
2 1 0.0174774 0.0186699 0
3 1 0.0409201 0.0116241 0
33 1 0.0345316 0.036586 0
31 1 0.0102209 0.0422357 0
1 1 0.000404992 0.000249038 0
4 1 0.0585965 0.0298529 0
6 1 0.0849845 0.023598 0
5 1 0.0670251 0.0067627 0
35 1 0.0763945 0.0480953 0
37 1 0.100287 0.0427671 0
8 1 0.108579 0.0181607 0
9 1 0.125029 0.0353818 0
880 1 0.134474 0.0117379 0
10 1 0.150933 0.0297802 0
11 1 0.158493 0.00585041 0
12 1 0.175725 0.0253253 0
43 1 0.193228 0.0431363 0
41 1 0.167129 0.0484782 0
882 1 0.18423 0.000633478 0
14 1 0.200573 0.0192662 0
44 1 0.217609 0.0376824 0
45 1 0.226286 0.0136767 0
46 1 0.242945 0.0321697 0
16 1 0.250448 0.00592392 0
47 1 0.266958 0.0250996 0
49 1 0.291949 0.0204659 0
48 1 0.283796 0.0439999 0
18 1 0.274922 0.0012444 0
77 1 0.25959 0.050342 0
50 1 0.307357 0.0393263 0
20 1 0.315035 0.0126785 0
51 1 0.331556 0.0317686 0
21 1 0.33998 0.00745375 0
22 1 0.357224 0.02683 0
24 1 0.381424 0.0206947 0
53 1 0.374298 0.0442919 0
23 1 0.365661 0.00275486 0
55 1 0.39771 0.0389002 0
25 1 0.408326 0.0139527 0
26 1 0.422528 0.0341133 0
27 1 0.432423 0.0101906 0
28 1 0.446003 0.0380596 0
30 1 0.493896 0.0405457 0
898 1 0.457747 0.0142452 0
29 1 0.483757 0.0182611 0
59 1 0.469344 0.0412758 0
32 1 0.0280265 0.0595376 0
62 1 0.0213325 0.0834386 0
63 1 0.0455054 0.0774889 0
61 1 0.00291616 0.0659233 0
34 1 0.0525863 0.054177 0
65 1 0.0690043 0.0711508 0
66 1 0.0851375 0.0906926 0
36 1 0.0926831 0.0660722 0
64 1 0.0611638 0.0967737 0
39 1 0.141575 0.0540252 0
38 1 0.116673 0.0602315 0
67 1 0.108792 0.0843708 0
69 1 0.134386 0.0769842 0
70 1 0.151659 0.0954124 0
40 1 0.158909 0.0723958 0
71 1 0.177159 0.0899555 0
42 1 0.185149 0.0657613 0
72 1 0.20276 0.0846851 0
73 1 0.21071 0.0614789 0
74 1 0.227001 0.0785353 0
75 1 0.235689 0.0556697 0
106 1 0.244112 0.0975569 0
76 1 0.253166 0.0735887 0
78 1 0.276991 0.0677833 0
109 1 0.296054 0.0868051 0
107 1 0.271566 0.0925957 0
79 1 0.301643 0.0622821 0
80 1 0.320217 0.0832301 0
81 1 0.325983 0.0569464 0
82 1 0.343154 0.0742776 0
52 1 0.351208 0.0507687 0
111 1 0.339443 0.0988342 0
83 1 0.367922 0.0681961 0
113 1 0.380899 0.0889745 0
54 1 0.392841 0.0658382 0
56 1 0.415555 0.0571726 0
57 1 0.439972 0.0607531 0
85 1 0.422614 0.0815086 0
84 1 0.404816 0.0967977 0
87 1 0.445286 0.0866703 0
88 1 0.468584 0.0950159 0
58 1 0.463458 0.0686009 0
89 1 0.485631 0.0781911 0
93 1 0.0365924 0.102456 0
92 1 0.0276028 0.125494 0
91 1 0.0118639 0.106759 0
121 1 0.00379676 0.132586 0
123 1 0.0457207 0.143659 0
94 1 0.0543771 0.11964 0
95 1 0.0786619 0.114417 0
125 1 0.0704012 0.138004 0
96 1 0.0949949 0.132517 0
68 1 0.12801 0.101682 0
97 1 0.103236 0.107795 0
98 1 0.119794 0.126223 0
99 1 0.143356 0.120196 0
129 1 0.136167 0.14414 0
127 1 0.112433 0.150616 0
100 1 0.168105 0.114279 0
130 1 0.162085 0.138376 0
131 1 0.186563 0.131211 0
101 1 0.193461 0.107984 0
103 1 0.21867 0.103017 0
102 1 0.211563 0.125777 0
105 1 0.237195 0.11956 0
104 1 0.228148 0.142442 0
133 1 0.202232 0.149405 0
136 1 0.253315 0.140226 0
135 1 0.261642 0.114287 0
137 1 0.278443 0.132648 0
108 1 0.289536 0.110125 0
139 1 0.302891 0.132621 0
110 1 0.317211 0.112158 0
141 1 0.344514 0.124036 0
140 1 0.327487 0.141893 0
142 1 0.350536 0.147401 0
112 1 0.363701 0.10569 0
114 1 0.386215 0.112867 0
143 1 0.368866 0.13026 0
144 1 0.391506 0.138043 0
86 1 0.427753 0.104945 0
115 1 0.409396 0.122314 0
116 1 0.432825 0.130571 0
145 1 0.415725 0.147955 0
117 1 0.4504 0.112478 0
90 1 0.493705 0.10189 0
118 1 0.4583 0.13608 0
119 1 0.476023 0.118004 0
149 1 0.481829 0.142462 0
122 1 0.0222046 0.149161 0
153 1 0.0381915 0.168227 0
152 1 0.0136269 0.173926 0
183 1 0.0297989 0.192786 0
1080 1 0.00486172 0.198969 0
124 1 0.0623363 0.162432 0
126 1 0.0876727 0.155616 0
155 1 0.0790651 0.179861 0
154 1 0.0555422 0.186806 0
156 1 0.0964725 0.197995 0
128 1 0.128744 0.168015 0
157 1 0.103889 0.174828 0
160 1 0.145475 0.187082 0
158 1 0.120908 0.192597 0
132 1 0.178065 0.156324 0
159 1 0.152903 0.162278 0
161 1 0.168993 0.179769 0
162 1 0.187358 0.196568 0
163 1 0.195994 0.174046 0
134 1 0.218992 0.164635 0
164 1 0.229619 0.185382 0
165 1 0.24382 0.164545 0
166 1 0.253448 0.192254 0
167 1 0.269008 0.172516 0
138 1 0.286803 0.155684 0
168 1 0.293625 0.179907 0
197 1 0.276491 0.197603 0
169 1 0.310427 0.160549 0
171 1 0.333784 0.16783 0
170 1 0.317557 0.18633 0
201 1 0.340526 0.192412 0
172 1 0.356864 0.174654 0
173 1 0.373813 0.155683 0
174 1 0.380366 0.181382 0
203 1 0.364818 0.200313 0
175 1 0.398378 0.164396 0
147 1 0.440361 0.154281 0
146 1 0.422926 0.170956 0
205 1 0.404745 0.188755 0
176 1 0.429823 0.196853 0
177 1 0.447188 0.178571 0
148 1 0.464564 0.16085 0
150 1 0.488829 0.165964 0
179 1 0.47067 0.185296 0
180 1 0.494572 0.189972 0
182 1 0.0226394 0.215904 0
213 1 0.0393099 0.234029 0
211 1 0.0147518 0.241825 0
184 1 0.0476541 0.21065 0
185 1 0.0725933 0.20542 0
186 1 0.0900694 0.223115 0
215 1 0.0652419 0.228216 0
216 1 0.0827528 0.247724 0
187 1 0.114568 0.216296 0
188 1 0.132285 0.245298 0
189 1 0.138873 0.210744 0
217 1 0.107967 0.239248 0
191 1 0.164413 0.206306 0
190 1 0.153132 0.23123 0
192 1 0.192696 0.221101 0
221 1 0.176616 0.238237 0
223 1 0.199648 0.245364 0
193 1 0.210983 0.201934 0
194 1 0.217388 0.22721 0
195 1 0.234143 0.209828 0
225 1 0.240879 0.233632 0
196 1 0.258421 0.216016 0
198 1 0.282308 0.221806 0
227 1 0.264427 0.240368 0
228 1 0.288467 0.246932 0
199 1 0.300299 0.204693 0
200 1 0.323628 0.211393 0
229 1 0.305992 0.228693 0
231 1 0.330419 0.23639 0
202 1 0.347156 0.2168 0
204 1 0.388196 0.20608 0
233 1 0.370833 0.223539 0
235 1 0.396277 0.229328 0
232 1 0.353413 0.241821 0
234 1 0.377425 0.24735 0
207 1 0.436368 0.219857 0
206 1 0.419469 0.236908 0
237 1 0.443664 0.242491 0
178 1 0.454175 0.202824 0
208 1 0.462418 0.226528 0
209 1 0.478363 0.209162 0
210 1 0.486188 0.233454 0
212 1 0.00669562 0.265463 0
243 1 0.032639 0.259181 0
242 1 0.022848 0.284319 0
244 1 0.0489695 0.276124 0
273 1 0.040864 0.299823 0
214 1 0.057077 0.251704 0
245 1 0.0725894 0.270561 0
247 1 0.0799205 0.295338 0
218 1 0.0974395 0.27896 0
219 1 0.114711 0.262217 0
249 1 0.14018 0.270718 0
248 1 0.120643 0.286482 0
250 1 0.145364 0.295207 0
220 1 0.157605 0.254631 0
222 1 0.181403 0.263285 0
251 1 0.163991 0.2796 0
252 1 0.188873 0.288028 0
224 1 0.224065 0.25216 0
253 1 0.205451 0.26969 0
255 1 0.229071 0.276521 0
254 1 0.212266 0.295259 0
226 1 0.246855 0.258575 0
285 1 0.235969 0.299567 0
256 1 0.253499 0.282107 0
257 1 0.271289 0.264602 0
259 1 0.294669 0.270845 0
258 1 0.277062 0.288314 0
289 1 0.3011 0.294315 0
230 1 0.31168 0.252468 0
260 1 0.317623 0.276168 0
261 1 0.335571 0.260652 0
262 1 0.342682 0.284047 0
263 1 0.360855 0.265998 0
264 1 0.384183 0.271721 0
293 1 0.367023 0.290327 0
295 1 0.390626 0.295776 0
265 1 0.402054 0.254134 0
236 1 0.426199 0.262032 0
266 1 0.40811 0.278017 0
267 1 0.434156 0.284812 0
238 1 0.450926 0.266677 0
239 1 0.468803 0.250188 0
120 1 0.499618 0.12563 0
240 1 0.49355 0.256175 0
269 1 0.476244 0.274182 0
268 1 0.457994 0.289979 0
270 1 0.482414 0.297302 0
271 1 0.0176547 0.309997 0
272 1 0.0408886 0.324326 0
301 1 0.0199762 0.336225 0
303 1 0.0446764 0.348557 0
275 1 0.0628201 0.311772 0
276 1 0.0850404 0.320125 0
274 1 0.0671124 0.335696 0
305 1 0.0910134 0.3465 0
246 1 0.103555 0.303046 0
279 1 0.126801 0.311416 0
277 1 0.108425 0.328235 0
278 1 0.13215 0.336078 0
280 1 0.150433 0.319997 0
281 1 0.169425 0.303425 0
311 1 0.15675 0.345149 0
283 1 0.193715 0.312298 0
282 1 0.175099 0.327407 0
313 1 0.198373 0.336513 0
284 1 0.217086 0.319641 0
315 1 0.222166 0.343525 0
286 1 0.241404 0.32484 0
316 1 0.247351 0.348937 0
287 1 0.259726 0.307171 0
288 1 0.282807 0.312322 0
317 1 0.265015 0.331876 0
319 1 0.288704 0.335859 0
291 1 0.324334 0.301217 0
290 1 0.306839 0.31852 0
321 1 0.313289 0.34212 0
292 1 0.33137 0.32409 0
323 1 0.348986 0.306901 0
294 1 0.37366 0.313581 0
324 1 0.356148 0.330369 0
325 1 0.380072 0.337907 0
296 1 0.397443 0.319278 0
326 1 0.404835 0.344693 0
297 1 0.416267 0.302917 0
298 1 0.439271 0.309749 0
327 1 0.421218 0.327294 0
328 1 0.447083 0.333117 0
299 1 0.46358 0.316045 0
300 1 0.487595 0.321929 0
329 1 0.470427 0.340097 0
1201 1 0.495237 0.347281 0
331 1 0.00269757 0.376932 0
302 1 0.0233361 0.361191 0
332 1 0.0286916 0.384731 0
333 1 0.0504413 0.372983 0
334 1 0.053469 0.395959 0
304 1 0.0703617 0.360074 0
306 1 0.0939062 0.370478 0
335 1 0.0749439 0.385353 0
337 1 0.101649 0.393806 0
307 1 0.113853 0.354849 0
309 1 0.137311 0.361992 0
308 1 0.120855 0.378382 0
339 1 0.144177 0.386623 0
312 1 0.180514 0.352612 0
310 1 0.162514 0.369806 0
341 1 0.168224 0.393652 0
343 1 0.186609 0.377063 0
314 1 0.203976 0.360429 0
345 1 0.228385 0.367016 0
344 1 0.210359 0.383711 0
375 1 0.235238 0.389764 0
346 1 0.253973 0.372713 0
377 1 0.260331 0.396429 0
318 1 0.271626 0.355485 0
349 1 0.295236 0.359652 0
347 1 0.279623 0.378172 0
322 1 0.337713 0.348621 0
350 1 0.303129 0.383345 0
320 1 0.320974 0.366292 0
351 1 0.346183 0.371978 0
381 1 0.327535 0.389646 0
352 1 0.351223 0.39602 0
353 1 0.363215 0.354887 0
355 1 0.387853 0.362302 0
354 1 0.370207 0.380456 0
385 1 0.393923 0.387792 0
357 1 0.42942 0.351651 0
356 1 0.411532 0.369507 0
387 1 0.435148 0.375745 0
386 1 0.418101 0.393535 0
388 1 0.441313 0.399924 0
359 1 0.452766 0.358535 0
358 1 0.459618 0.382337 0
330 1 0.477052 0.363649 0
360 1 0.482849 0.388602 0
478 1 0.466893 0.496259 0
361 1 0.0095738 0.401099 0
363 1 0.033194 0.409855 0
362 1 0.0147191 0.425323 0
364 1 0.0389929 0.434533 0
336 1 0.0813002 0.409575 0
365 1 0.0580819 0.419799 0
395 1 0.0670754 0.444541 0
338 1 0.126449 0.402816 0
367 1 0.107188 0.41915 0
366 1 0.111812 0.443076 0
369 1 0.130498 0.426744 0
340 1 0.150969 0.409641 0
342 1 0.191933 0.401212 0
370 1 0.15438 0.43446 0
371 1 0.174489 0.418709 0
401 1 0.178582 0.442523 0
372 1 0.198582 0.424852 0
373 1 0.217417 0.407641 0
374 1 0.223375 0.431642 0
376 1 0.243211 0.413507 0
405 1 0.247732 0.43747 0
348 1 0.285083 0.401964 0
407 1 0.273604 0.442201 0
378 1 0.266895 0.419299 0
409 1 0.291389 0.425654 0
379 1 0.309011 0.407287 0
380 1 0.315141 0.431112 0
382 1 0.332688 0.413863 0
411 1 0.339271 0.439226 0
413 1 0.358186 0.422186 0
383 1 0.375344 0.404697 0
414 1 0.381035 0.428132 0
384 1 0.400117 0.411389 0
412 1 0.364224 0.446256 0
415 1 0.405727 0.435277 0
417 1 0.423855 0.418147 0
416 1 0.430134 0.441641 0
419 1 0.44791 0.423801 0
389 1 0.466016 0.406192 0
418 1 0.471049 0.430792 0
390 1 0.489814 0.412698 0
420 1 0.495375 0.436691 0
447 1 0.454757 0.448571 0
392 1 0.00174012 0.466731 0
393 1 0.0191628 0.449441 0
422 1 0.00791685 0.489495 0
423 1 0.0271526 0.474466 0
394 1 0.0471655 0.46087 0
425 1 0.0509737 0.485864 0
397 1 0.0915793 0.456107 0
396 1 0.0718127 0.470736 0
426 1 0.0747609 0.494929 0
427 1 0.0955407 0.481615 0
368 1 0.135351 0.450215 0
398 1 0.115226 0.467171 0
428 1 0.11845 0.492393 0
429 1 0.138288 0.474909 0
399 1 0.16209 0.459921 0
400 1 0.186206 0.465928 0
430 1 0.161094 0.485449 0
431 1 0.185884 0.492897 0
403 1 0.205417 0.448899 0
404 1 0.23082 0.455647 0
402 1 0.211686 0.471774 0
432 1 0.222603 0.49309 0
433 1 0.240875 0.477868 0
435 1 0.256779 0.460596 0
408 1 0.297508 0.449739 0
436 1 0.264601 0.484119 0
406 1 0.282089 0.467373 0
437 1 0.287184 0.491987 0
438 1 0.310582 0.498375 0
439 1 0.304637 0.474084 0
410 1 0.323219 0.457099 0
440 1 0.328772 0.482577 0
441 1 0.346499 0.463656 0
471 1 0.352082 0.487646 0
472 1 0.37628 0.494112 0
442 1 0.370604 0.469494 0
473 1 0.394285 0.477704 0
443 1 0.389112 0.451694 0
444 1 0.419385 0.482952 0
477 1 0.443103 0.490034 0
446 1 0.436581 0.465903 0
445 1 0.412873 0.45961 0
449 1 0.478868 0.454697 0
448 1 0.460385 0.471749 0
450 1 0.48473 0.47958 0
453 1 0.011994 0.515111 0
452 1 0.0162384 0.539805 0
454 1 0.0356058 0.525385 0
541 1 0.000999155 0.604327 0
485 1 0.0585931 0.535224 0
455 1 0.0545051 0.509798 0
456 1 0.0780659 0.520974 0
486 1 0.0806614 0.545633 0
457 1 0.0979693 0.506495 0
487 1 0.100605 0.53078 0
458 1 0.121938 0.516097 0
488 1 0.123423 0.541771 0
489 1 0.143868 0.525935 0
459 1 0.14065 0.500382 0
462 1 0.185984 0.522978 0
491 1 0.166645 0.536543 0
460 1 0.16466 0.510645 0
492 1 0.189949 0.547448 0
461 1 0.205133 0.509352 0
493 1 0.210317 0.535157 0
463 1 0.228418 0.518498 0
495 1 0.233646 0.543541 0
434 1 0.246409 0.501589 0
464 1 0.251108 0.526469 0
466 1 0.274964 0.535127 0
465 1 0.269004 0.50927 0
467 1 0.293061 0.517299 0
497 1 0.298189 0.543417 0
468 1 0.316185 0.525347 0
469 1 0.333986 0.505758 0
499 1 0.339522 0.531283 0
498 1 0.322927 0.549566 0
470 1 0.35781 0.512027 0
503 1 0.383074 0.519851 0
505 1 0.388117 0.544749 0
501 1 0.364283 0.537098 0
474 1 0.40199 0.50172 0
476 1 0.407186 0.524956 0
509 1 0.431804 0.531983 0
475 1 0.426103 0.508161 0
507 1 0.449692 0.515043 0
479 1 0.47351 0.520414 0
480 1 0.456882 0.538183 0
1381 1 0.49815 0.527622 0
510 1 0.480835 0.545471 0
1351 1 0.491465 0.503591 0
483 1 0.0387409 0.55102 0
513 1 0.0185333 0.564546 0
514 1 0.041556 0.576429 0
512 1 0.0210153 0.589953 0
484 1 0.0616592 0.560199 0
515 1 0.0834189 0.571541 0
545 1 0.0638491 0.586508 0
516 1 0.0865199 0.597273 0
490 1 0.146453 0.550608 0
517 1 0.102787 0.556435 0
518 1 0.106942 0.581541 0
519 1 0.12604 0.566732 0
549 1 0.129517 0.592208 0
520 1 0.148966 0.575897 0
521 1 0.168319 0.561577 0
522 1 0.17289 0.587518 0
523 1 0.192116 0.571855 0
553 1 0.197635 0.595334 0
494 1 0.214431 0.559631 0
524 1 0.217175 0.582705 0
525 1 0.237847 0.568506 0
555 1 0.240027 0.592664 0
496 1 0.257337 0.550935 0
526 1 0.260552 0.576258 0
527 1 0.279851 0.560112 0
528 1 0.284253 0.585492 0
529 1 0.303391 0.567229 0
500 1 0.347025 0.556152 0
530 1 0.327977 0.574534 0
559 1 0.307769 0.592319 0
561 1 0.332844 0.598517 0
531 1 0.351552 0.581106 0
502 1 0.371304 0.562264 0
504 1 0.395184 0.569101 0
533 1 0.37698 0.586839 0
506 1 0.413173 0.548859 0
534 1 0.401672 0.592238 0
535 1 0.420818 0.574546 0
508 1 0.436487 0.556741 0
537 1 0.445241 0.580128 0
536 1 0.424958 0.598536 0
539 1 0.461497 0.562278 0
540 1 0.485877 0.568962 0
538 1 0.468788 0.586198 0
569 1 0.49354 0.593357 0
543 1 0.0433315 0.600635 0
542 1 0.0225319 0.614826 0
573 1 0.0262576 0.639778 0
544 1 0.0458633 0.625907 0
571 1 0.00214662 0.629911 0
546 1 0.0667983 0.612347 0
547 1 0.0894958 0.622132 0
575 1 0.0686335 0.636686 0
576 1 0.0920531 0.646799 0
548 1 0.110015 0.606334 0
550 1 0.13248 0.617251 0
577 1 0.112519 0.632337 0
579 1 0.134962 0.641949 0
551 1 0.152143 0.600715 0
581 1 0.155108 0.626629 0
552 1 0.176181 0.611641 0
582 1 0.177189 0.635364 0
583 1 0.198561 0.620651 0
554 1 0.21942 0.608194 0
556 1 0.242542 0.617046 0
585 1 0.222874 0.632988 0
584 1 0.199408 0.645689 0
586 1 0.245496 0.64145 0
557 1 0.263994 0.601806 0
587 1 0.268179 0.62709 0
558 1 0.288734 0.610074 0
589 1 0.294618 0.634753 0
560 1 0.313407 0.615947 0
591 1 0.320093 0.641332 0
562 1 0.338312 0.622476 0
593 1 0.346164 0.646279 0
532 1 0.358254 0.604689 0
563 1 0.382289 0.610268 0
564 1 0.36356 0.627773 0
595 1 0.387715 0.635001 0
565 1 0.406644 0.616981 0
566 1 0.431854 0.622416 0
596 1 0.413392 0.639614 0
567 1 0.449503 0.604373 0
598 1 0.437936 0.646586 0
597 1 0.456074 0.628053 0
568 1 0.475341 0.610302 0
570 1 0.479621 0.634706 0
1442 1 0.499522 0.617447 0
574 1 0.0483449 0.650174 0
572 1 0.00513887 0.653475 0
603 1 0.028704 0.663547 0
602 1 0.00702879 0.677627 0
633 1 0.0295788 0.688038 0
604 1 0.0504618 0.675334 0
605 1 0.0714496 0.661499 0
606 1 0.0738705 0.685247 0
607 1 0.0944171 0.671956 0
637 1 0.0972658 0.695893 0
578 1 0.114337 0.657428 0
609 1 0.137093 0.666525 0
608 1 0.117257 0.682074 0
639 1 0.140167 0.690487 0
580 1 0.157636 0.650901 0
611 1 0.180252 0.661593 0
610 1 0.160099 0.67688 0
612 1 0.182549 0.686914 0
613 1 0.203687 0.671759 0
615 1 0.223792 0.657004 0
614 1 0.226109 0.683974 0
643 1 0.204356 0.69747 0
617 1 0.246344 0.667202 0
616 1 0.248713 0.692849 0
588 1 0.276433 0.652475 0
619 1 0.29089 0.689224 0
618 1 0.269149 0.677246 0
590 1 0.301202 0.659758 0
621 1 0.314338 0.682542 0
592 1 0.329761 0.664568 0
622 1 0.337792 0.688513 0
623 1 0.353316 0.670078 0
594 1 0.370154 0.652627 0
624 1 0.378275 0.677911 0
653 1 0.360804 0.694548 0
625 1 0.394873 0.658897 0
627 1 0.420041 0.664531 0
626 1 0.402625 0.683211 0
657 1 0.426949 0.688724 0
628 1 0.445433 0.670722 0
599 1 0.462564 0.653888 0
600 1 0.486679 0.65986 0
629 1 0.469091 0.677537 0
630 1 0.494644 0.6836 0
658 1 0.451368 0.695085 0
632 1 0.0083851 0.702641 0
634 1 0.0318851 0.712108 0
663 1 0.0122995 0.727152 0
664 1 0.0357155 0.737459 0
635 1 0.0536059 0.700078 0
636 1 0.0767955 0.710004 0
665 1 0.0566914 0.724032 0
666 1 0.0789247 0.735016 0
695 1 0.0580877 0.748886 0
667 1 0.098876 0.721451 0
668 1 0.100911 0.745632 0
638 1 0.119768 0.706512 0
640 1 0.142824 0.716175 0
669 1 0.122671 0.731709 0
670 1 0.145003 0.742744 0
641 1 0.162604 0.701085 0
642 1 0.184149 0.71179 0
671 1 0.1655 0.726676 0
673 1 0.187193 0.738828 0
645 1 0.227637 0.708701 0
644 1 0.206666 0.723975 0
675 1 0.23005 0.734309 0
646 1 0.250518 0.719591 0
677 1 0.25235 0.745624 0
647 1 0.269925 0.704291 0
648 1 0.27167 0.729642 0
679 1 0.293379 0.740471 0
649 1 0.291898 0.714346 0
620 1 0.317746 0.706465 0
651 1 0.343786 0.713506 0
650 1 0.327509 0.731116 0
652 1 0.351846 0.737986 0
655 1 0.385282 0.7009 0
654 1 0.36946 0.719619 0
685 1 0.393119 0.726757 0
683 1 0.376215 0.744984 0
656 1 0.410292 0.708017 0
687 1 0.43471 0.714361 0
686 1 0.418239 0.732423 0
717 1 0.441296 0.739458 0
659 1 0.474807 0.701543 0
689 1 0.458799 0.721856 0
660 1 0.482806 0.726945 0
688 1 0.466381 0.745955 0
662 1 0.0160615 0.751657 0
694 1 0.0388325 0.762731 0
693 1 0.0185269 0.776024 0
725 1 0.0409807 0.786939 0
697 1 0.0819309 0.759659 0
696 1 0.0621068 0.773142 0
727 1 0.08382 0.785407 0
726 1 0.0631426 0.797608 0
699 1 0.124001 0.756185 0
698 1 0.104021 0.770577 0
700 1 0.12716 0.782173 0
728 1 0.106655 0.795474 0
701 1 0.146684 0.76758 0
731 1 0.148445 0.793355 0
672 1 0.166891 0.754252 0
703 1 0.189246 0.764051 0
702 1 0.169113 0.77857 0
704 1 0.191642 0.789049 0
674 1 0.210395 0.749634 0
676 1 0.233436 0.760112 0
705 1 0.212466 0.774343 0
706 1 0.234233 0.786278 0
707 1 0.25434 0.77176 0
678 1 0.274301 0.757436 0
709 1 0.276945 0.78167 0
680 1 0.296369 0.7678 0
737 1 0.257055 0.796688 0
710 1 0.300559 0.791907 0
681 1 0.314946 0.752204 0
682 1 0.337981 0.757227 0
711 1 0.319252 0.776741 0
712 1 0.342965 0.782319 0
713 1 0.360531 0.764364 0
714 1 0.384511 0.770036 0
743 1 0.366255 0.7895 0
745 1 0.389544 0.795256 0
684 1 0.400891 0.751104 0
715 1 0.424239 0.757494 0
716 1 0.40776 0.775646 0
747 1 0.431619 0.782932 0
718 1 0.448598 0.763586 0
690 1 0.491167 0.750722 0
719 1 0.472637 0.769668 0
720 1 0.480121 0.793979 0
749 1 0.456007 0.788638 0
1591 1 0.49743 0.774836 0
1680 1 0.00421009 0.844132 0
723 1 0.0209766 0.801998 0
722 1 0.0221658 0.827717 0
724 1 0.0431129 0.811746 0
754 1 0.0446886 0.835638 0
757 1 0.0863704 0.809349 0
755 1 0.0659766 0.822602 0
756 1 0.0863904 0.836485 0
785 1 0.0647588 0.848935 0
729 1 0.127912 0.807247 0
759 1 0.10728 0.821068 0
760 1 0.130211 0.831093 0
758 1 0.107185 0.850272 0
730 1 0.152276 0.820086 0
761 1 0.152705 0.845099 0
732 1 0.172338 0.805059 0
763 1 0.174678 0.832419 0
733 1 0.193842 0.817449 0
764 1 0.196639 0.842823 0
735 1 0.213364 0.801239 0
736 1 0.236537 0.810535 0
734 1 0.216703 0.828164 0
767 1 0.240525 0.836502 0
708 1 0.281511 0.807224 0
738 1 0.260326 0.820883 0
769 1 0.282723 0.832888 0
768 1 0.261469 0.846105 0
741 1 0.32559 0.801736 0
739 1 0.304934 0.81584 0
740 1 0.306349 0.840259 0
771 1 0.330116 0.830599 0
742 1 0.348836 0.806932 0
773 1 0.354837 0.830881 0
744 1 0.372241 0.813256 0
774 1 0.378261 0.837149 0
775 1 0.395691 0.819975 0
746 1 0.414272 0.80111 0
748 1 0.438461 0.80744 0
777 1 0.421282 0.825709 0
776 1 0.401961 0.843825 0
779 1 0.446232 0.83207 0
750 1 0.462934 0.811799 0
1621 1 0.487651 0.817265 0
780 1 0.470874 0.835651 0
1651 1 0.494876 0.842085 0
753 1 0.0434065 0.859396 0
752 1 0.0195161 0.863459 0
783 1 0.0375841 0.882626 0
782 1 0.0138417 0.887818 0
784 1 0.061534 0.874386 0
786 1 0.0809407 0.890806 0
787 1 0.0857145 0.863543 0
815 1 0.0559748 0.898788 0
817 1 0.103331 0.883438 0
789 1 0.129897 0.856 0
788 1 0.128286 0.879607 0
790 1 0.145792 0.896779 0
791 1 0.151628 0.870758 0
762 1 0.174299 0.859455 0
793 1 0.168675 0.888231 0
795 1 0.193072 0.881149 0
765 1 0.22012 0.852579 0
796 1 0.219752 0.878856 0
825 1 0.236427 0.897239 0
766 1 0.245261 0.868609 0
797 1 0.270784 0.869093 0
827 1 0.262975 0.892208 0
798 1 0.287416 0.887908 0
799 1 0.295569 0.864356 0
772 1 0.343957 0.852387 0
770 1 0.32043 0.859422 0
800 1 0.313584 0.881869 0
801 1 0.337929 0.875834 0
831 1 0.330311 0.89944 0
802 1 0.355083 0.89443 0
803 1 0.362502 0.868411 0
804 1 0.379682 0.887025 0
805 1 0.386059 0.863063 0
778 1 0.428377 0.850396 0
807 1 0.410628 0.866143 0
808 1 0.435259 0.874372 0
837 1 0.444739 0.897781 0
809 1 0.452588 0.85602 0
1681 1 0.477548 0.860497 0
1711 1 0.48564 0.884263 0
810 1 0.460864 0.879038 0
813 1 0.030159 0.905812 0
843 1 0.0229764 0.92774 0
844 1 0.0395628 0.945546 0
812 1 0.00533146 0.911034 0
814 1 0.0481353 0.92203 0
816 1 0.0981565 0.90862 0
845 1 0.0742202 0.915842 0
846 1 0.0638276 0.939196 0
847 1 0.0903132 0.934592 0
819 1 0.121886 0.904238 0
818 1 0.115158 0.927572 0
820 1 0.132912 0.944655 0
821 1 0.139519 0.921118 0
792 1 0.163449 0.914544 0
851 1 0.15733 0.939482 0
823 1 0.187129 0.906983 0
822 1 0.180772 0.932833 0
794 1 0.210849 0.902256 0
824 1 0.204872 0.926822 0
885 1 0.222902 0.94617 0
855 1 0.229214 0.919739 0
856 1 0.246525 0.940633 0
826 1 0.254213 0.916375 0
857 1 0.270953 0.93425 0
828 1 0.279173 0.911109 0
859 1 0.296956 0.929085 0
829 1 0.304627 0.906165 0
830 1 0.322534 0.923385 0
861 1 0.337918 0.942163 0
860 1 0.313003 0.947732 0
832 1 0.346587 0.9174 0
863 1 0.364316 0.936706 0
833 1 0.372251 0.912167 0
834 1 0.389684 0.929423 0
806 1 0.396485 0.905534 0
835 1 0.414327 0.92379 0
836 1 0.43252 0.942853 0
865 1 0.406447 0.947331 0
838 1 0.450688 0.92268 0
869 1 0.45972 0.946211 0
839 1 0.470302 0.902579 0
840 1 0.476851 0.926676 0
1712 1 0.494142 0.907576 0
842 1 0.0157274 0.95092 0
872 1 0.0249513 0.993959 0
873 1 0.0323959 0.969963 0
871 1 0.00849043 0.976635 0
874 1 0.0504031 0.988106 0
875 1 0.0564347 0.964086 0
876 1 0.0746918 0.98281 0
848 1 0.0795893 0.958764 0
7 1 0.0922885 0.999808 0
877 1 0.0982982 0.974689 0
849 1 0.108344 0.952284 0
878 1 0.116131 0.994685 0
879 1 0.124105 0.970282 0
881 1 0.140648 0.987736 0
850 1 0.149513 0.964498 0
853 1 0.173598 0.958636 0
852 1 0.166674 0.981967 0
883 1 0.190667 0.976956 0
854 1 0.197312 0.952697 0
13 1 0.208394 0.995306 0
15 1 0.232797 0.987549 0
884 1 0.214788 0.97099 0
886 1 0.239519 0.963701 0
858 1 0.2885 0.952125 0
887 1 0.265352 0.958258 0
17 1 0.257139 0.982072 0
888 1 0.281634 0.976315 0
19 1 0.298803 0.9947 0
889 1 0.305507 0.971284 0
890 1 0.323061 0.989209 0
891 1 0.33082 0.964702 0
892 1 0.348808 0.984099 0
862 1 0.356005 0.959232 0
864 1 0.381791 0.954008 0
893 1 0.372971 0.97708 0
895 1 0.397463 0.973147 0
894 1 0.390194 0.996904 0
897 1 0.44901 0.989321 0
867 1 0.445163 0.96564 0
866 1 0.421302 0.965983 0
896 1 0.415946 0.989695 0
899 1 0.474648 0.99541 0
868 1 0.468518 0.971453 0
1771 1 0.492674 0.974672 0
870 1 0.484967 0.951428 0
900 1 0.499495 0.999015 0
424 1 0.0307311 0.50003 0
902 1 0.535433 0.0249202 0
901 1 0.510867 0.0224736 0
931 1 0.519032 0.0449156 0
903 1 0.526047 0.00258474 0
904 1 0.560165 0.0312179 0
906 1 0.576056 0.0133309 0
935 1 0.584112 0.0371218 0
905 1 0.552091 0.00798876 0
908 1 0.600829 0.0201923 0
937 1 0.609227 0.0445634 0
939 1 0.625308 0.0261068 0
910 1 0.642302 0.00782618 0
938 1 0.634924 0.0492216 0
941 1 0.651615 0.0312604 0
912 1 0.666446 0.0119665 0
942 1 0.675295 0.0376798 0
943 1 0.691596 0.0189532 0
973 1 0.700079 0.0432654 0
944 1 0.716233 0.0248541 0
945 1 0.731626 0.00625197 0
946 1 0.740791 0.0288577 0
975 1 0.725667 0.0482307 0
947 1 0.757045 0.0100099 0
948 1 0.765992 0.0341127 0
918 1 0.781132 0.0148445 0
979 1 0.79181 0.0402439 0
949 1 0.807544 0.0219258 0
951 1 0.83753 0.0161311 0
950 1 0.827709 0.039874 0
952 1 0.853526 0.0353442 0
953 1 0.861161 0.0105706 0
924 1 0.884897 0.00533183 0
954 1 0.87779 0.0296766 0
985 1 0.893626 0.049245 0
955 1 0.901089 0.024116 0
926 1 0.925528 0.0183383 0
957 1 0.944275 0.0359028 0
956 1 0.917663 0.0432368 0
925 1 0.908839 -0.000304404 0
928 1 0.950815 0.0127176 0
959 1 0.967445 0.0304288 0
930 1 0.991315 0.0248076 0
929 1 0.974434 0.00667176 0
960 1 0.985143 0.0477002 0
933 1 0.544163 0.0489046 0
932 1 0.528449 0.0681932 0
962 1 0.535181 0.093053 0
961 1 0.510974 0.0860739 0
60 1 0.503918 0.0632444 0
963 1 0.551399 0.0744603 0
934 1 0.567238 0.0565508 0
965 1 0.576839 0.0786095 0
936 1 0.592284 0.0609402 0
964 1 0.559656 0.0980076 0
966 1 0.600713 0.0851925 0
967 1 0.618698 0.0671573 0
968 1 0.624901 0.0903872 0
969 1 0.641749 0.0726591 0
999 1 0.649508 0.0966151 0
940 1 0.658018 0.0551733 0
970 1 0.66741 0.0792885 0
971 1 0.682749 0.0611311 0
972 1 0.692737 0.0849521 0
1003 1 0.709445 0.0670822 0
1004 1 0.717768 0.0903505 0
974 1 0.734248 0.0704384 0
1005 1 0.741719 0.094624 0
976 1 0.749859 0.0523315 0
1007 1 0.75907 0.0765642 0
977 1 0.773055 0.0571683 0
978 1 0.797034 0.0643186 0
1008 1 0.782054 0.0826088 0
980 1 0.820884 0.0638215 0
981 1 0.844807 0.0593602 0
1009 1 0.810886 0.0870154 0
1011 1 0.836082 0.0821629 0
982 1 0.860207 0.076492 0
983 1 0.869417 0.0530009 0
984 1 0.885786 0.0722707 0
1013 1 0.876818 0.0949633 0
1015 1 0.903669 0.0893151 0
986 1 0.910143 0.0667706 0
987 1 0.935074 0.0594492 0
1017 1 0.928422 0.0837482 0
988 1 0.952053 0.0777626 0
958 1 0.960053 0.0543255 0
989 1 0.977387 0.0715764 0
990 1 0.993058 0.0900291 0
1019 1 0.968075 0.0964466 0
1141 1 0.500628 0.280154 0
991 1 0.518144 0.109762 0
992 1 0.524713 0.132829 0
993 1 0.542521 0.116286 0
1023 1 0.549561 0.140095 0
995 1 0.584982 0.103505 0
994 1 0.567653 0.122497 0
996 1 0.591628 0.127078 0
1025 1 0.574831 0.145927 0
997 1 0.609124 0.110146 0
998 1 0.633155 0.115429 0
1027 1 0.615903 0.133421 0
1029 1 0.640904 0.138027 0
1001 1 0.674806 0.102401 0
1000 1 0.658761 0.120079 0
1031 1 0.68438 0.125656 0
1030 1 0.66691 0.143591 0
1002 1 0.700264 0.108095 0
1033 1 0.707819 0.13155 0
1035 1 0.725748 0.113404 0
1034 1 0.731549 0.137845 0
1036 1 0.74925 0.119203 0
1006 1 0.766092 0.101953 0
1037 1 0.772767 0.126208 0
1038 1 0.797911 0.130845 0
1067 1 0.756846 0.144708 0
1039 1 0.78966 0.107376 0
1010 1 0.829022 0.106328 0
1040 1 0.822544 0.129866 0
1041 1 0.847704 0.125131 0
1071 1 0.838652 0.148174 0
1012 1 0.852469 0.10013 0
1043 1 0.869944 0.117925 0
1014 1 0.894791 0.11261 0
1044 1 0.88719 0.136072 0
1042 1 0.863363 0.143101 0
1018 1 0.94471 0.102826 0
1045 1 0.911315 0.132072 0
1016 1 0.919735 0.10808 0
1047 1 0.936454 0.127612 0
1077 1 0.927043 0.150684 0
1049 1 0.960553 0.120144 0
1020 1 0.986826 0.114464 0
1050 1 0.979676 0.137664 0
1046 1 0.953637 0.144911 0
1021 1 0.507094 0.1494 0
1022 1 0.530659 0.15664 0
1053 1 0.538497 0.179621 0
1051 1 0.513278 0.173328 0
1052 1 0.521908 0.196226 0
1026 1 0.599523 0.152756 0
1024 1 0.557773 0.162607 0
1055 1 0.582323 0.169547 0
1054 1 0.5641 0.186253 0
1056 1 0.588746 0.193716 0
1028 1 0.624563 0.156757 0
1057 1 0.60716 0.176504 0
1058 1 0.632096 0.180378 0
1059 1 0.648109 0.16065 0
1087 1 0.613776 0.198332 0
1032 1 0.692346 0.150155 0
1060 1 0.657092 0.185301 0
1061 1 0.674911 0.167709 0
1091 1 0.680724 0.19287 0
1062 1 0.697644 0.174435 0
1063 1 0.716449 0.157495 0
1064 1 0.723157 0.181098 0
1095 1 0.747912 0.186194 0
1065 1 0.740182 0.162382 0
1093 1 0.705651 0.198469 0
1066 1 0.765849 0.168682 0
1068 1 0.785464 0.151433 0
1097 1 0.772434 0.192492 0
1098 1 0.797091 0.198436 0
1069 1 0.810693 0.152428 0
1070 1 0.828849 0.17034 0
1099 1 0.79931 0.173521 0
1101 1 0.845194 0.189457 0
1100 1 0.821201 0.193634 0
1072 1 0.855864 0.167991 0
1073 1 0.878855 0.162137 0
1103 1 0.870633 0.18605 0
1074 1 0.895094 0.180378 0
1075 1 0.90241 0.156287 0
1076 1 0.919793 0.17405 0
1107 1 0.937279 0.191093 0
1078 1 0.945698 0.167742 0
1105 1 0.912076 0.197467 0
1048 1 0.972193 0.16089 0
151 1 0.996738 0.155684 0
1079 1 0.988564 0.178749 0
1109 1 0.963444 0.184458 0
1083 1 0.546262 0.203559 0
1082 1 0.527581 0.220673 0
1111 1 0.510794 0.238447 0
1113 1 0.536698 0.244096 0
1081 1 0.503513 0.215063 0
1084 1 0.554156 0.227414 0
1085 1 0.571027 0.210165 0
1086 1 0.595706 0.21719 0
1115 1 0.578268 0.2336 0
1117 1 0.603417 0.240429 0
1089 1 0.63869 0.20455 0
1088 1 0.619406 0.222103 0
1119 1 0.64566 0.228604 0
1118 1 0.628184 0.246053 0
1090 1 0.663858 0.211166 0
1092 1 0.68808 0.216101 0
1121 1 0.669751 0.234411 0
1122 1 0.695265 0.239619 0
1094 1 0.730746 0.204082 0
1123 1 0.713501 0.221817 0
1124 1 0.719413 0.246639 0
1125 1 0.738038 0.228774 0
1096 1 0.755103 0.210637 0
1127 1 0.779254 0.217682 0
1126 1 0.761841 0.234934 0
1128 1 0.786535 0.241277 0
1131 1 0.835736 0.213638 0
1129 1 0.805215 0.221965 0
1130 1 0.832516 0.238242 0
1159 1 0.809848 0.247601 0
1102 1 0.862064 0.209459 0
1104 1 0.886972 0.202798 0
1132 1 0.856379 0.233887 0
1133 1 0.879986 0.227972 0
1134 1 0.898348 0.24656 0
1135 1 0.904407 0.221691 0
1106 1 0.928928 0.215364 0
1136 1 0.921862 0.239946 0
1137 1 0.947908 0.23323 0
1108 1 0.955084 0.209401 0
1110 1 0.981211 0.202762 0
1139 1 0.972442 0.228627 0
1140 1 0.990327 0.246259 0
181 1 0.998845 0.22284 0
1112 1 0.518905 0.260917 0
1143 1 0.54328 0.268292 0
1142 1 0.525391 0.286429 0
1144 1 0.548384 0.292721 0
1114 1 0.560812 0.251417 0
1116 1 0.585738 0.258643 0
1145 1 0.566961 0.276258 0
1146 1 0.59079 0.281961 0
1175 1 0.573306 0.299184 0
1147 1 0.610069 0.263762 0
1149 1 0.633814 0.270388 0
1148 1 0.615232 0.288437 0
1179 1 0.639903 0.294046 0
1120 1 0.652592 0.253016 0
1151 1 0.676784 0.259093 0
1150 1 0.658371 0.27814 0
1152 1 0.682315 0.282028 0
1153 1 0.70121 0.263317 0