ITEM: TIMESTEP
166000
ITEM: NUMBER OF ATOMS
1800
ITEM: BOX BOUNDS pp pp pp
3.1797612282938132e+00 1.5522023877170395e+02
3.1797612282938132e+00 1.5522023877170395e+02
0.0000000000000000e+00 5.2800000000000002e+00
ITEM: ATOMS id type xs ys zs
2 1 0.0169923 0.0196269 0
3 1 0.0418867 0.0135837 0
33 1 0.0344221 0.0367975 0
31 1 0.00999145 0.0426518 0
4 1 0.0598316 0.0302388 0
6 1 0.0849153 0.0252419 0
5 1 0.0671602 0.00713412 0
7 1 0.0925464 0.000839561 0
37 1 0.101876 0.042199 0
8 1 0.110019 0.0182516 0
9 1 0.126861 0.0364988 0
880 1 0.133474 0.0116917 0
10 1 0.150954 0.0296163 0
11 1 0.158049 0.00467895 0
12 1 0.176035 0.0234971 0
43 1 0.193035 0.042805 0
41 1 0.167744 0.0480497 0
14 1 0.200248 0.0181271 0
44 1 0.216945 0.0363791 0
45 1 0.223992 0.0124385 0
46 1 0.241071 0.0323718 0
16 1 0.248158 0.00692322 0
47 1 0.266308 0.0260543 0
49 1 0.290545 0.0193075 0
48 1 0.282998 0.0440295 0
18 1 0.273015 0.00155039 0
77 1 0.258641 0.0493148 0
50 1 0.307701 0.0378007 0
20 1 0.315092 0.013716 0
51 1 0.333037 0.0326516 0
21 1 0.341464 0.00841861 0
22 1 0.356584 0.0270937 0
24 1 0.382855 0.0216958 0
53 1 0.373083 0.0456487 0
23 1 0.365727 0.00264797 0
55 1 0.397926 0.0403705 0
25 1 0.406271 0.0151208 0
26 1 0.422318 0.0339776 0
27 1 0.432313 0.0109175 0
28 1 0.446318 0.0333202 0
30 1 0.49528 0.039816 0
898 1 0.461035 0.0130092 0
29 1 0.485189 0.0176831 0
59 1 0.471084 0.0388567 0
32 1 0.0265168 0.0612161 0
62 1 0.0194612 0.0852069 0
63 1 0.0427051 0.0785563 0
61 1 0.00259309 0.0669149 0
35 1 0.0759694 0.049333 0
34 1 0.0512441 0.0544729 0
65 1 0.0663155 0.0727506 0
66 1 0.0839474 0.090265 0
36 1 0.0933722 0.0668506 0
64 1 0.0597342 0.0960475 0
39 1 0.143654 0.0553523 0
38 1 0.119056 0.0603009 0
67 1 0.110349 0.0846552 0
69 1 0.134807 0.0794536 0
70 1 0.151521 0.0961784 0
40 1 0.160218 0.0722422 0
71 1 0.176253 0.0899363 0
42 1 0.183668 0.0667671 0
72 1 0.201137 0.0861204 0
73 1 0.20889 0.0622152 0
74 1 0.225971 0.0802956 0
75 1 0.232785 0.056093 0
106 1 0.243125 0.0984354 0
76 1 0.25006 0.0740233 0
78 1 0.27612 0.0674431 0
109 1 0.292863 0.0871507 0
107 1 0.267837 0.0913328 0
79 1 0.300117 0.0629014 0
80 1 0.317302 0.0814552 0
81 1 0.324089 0.0567859 0
82 1 0.342089 0.0751405 0
52 1 0.348217 0.0507503 0
83 1 0.365969 0.0680448 0
113 1 0.38092 0.0884308 0
54 1 0.390046 0.0659383 0
56 1 0.414282 0.0570406 0
57 1 0.440025 0.0572686 0
85 1 0.426367 0.0789196 0
84 1 0.406513 0.0932512 0
87 1 0.448517 0.0852394 0
88 1 0.471201 0.0954509 0
58 1 0.465799 0.0658418 0
89 1 0.487796 0.078148 0
93 1 0.0351339 0.102596 0
92 1 0.0276749 0.126882 0
91 1 0.0105834 0.107949 0
121 1 0.00282951 0.132517 0
123 1 0.0448701 0.14496 0
94 1 0.0516655 0.120442 0
95 1 0.0758787 0.113817 0
125 1 0.0686671 0.138876 0
96 1 0.093109 0.131516 0
68 1 0.1262 0.102442 0
97 1 0.101803 0.107819 0
98 1 0.119458 0.126309 0
99 1 0.14383 0.119778 0
129 1 0.133582 0.14479 0
100 1 0.168346 0.113534 0
130 1 0.160501 0.138848 0
131 1 0.184833 0.132545 0
101 1 0.193435 0.108867 0
103 1 0.219334 0.103546 0
102 1 0.210114 0.126804 0
105 1 0.236576 0.122419 0
104 1 0.227795 0.145172 0
136 1 0.254893 0.144243 0
135 1 0.259169 0.116126 0
137 1 0.276943 0.133538 0
108 1 0.285088 0.110442 0
139 1 0.300661 0.135599 0
111 1 0.336656 0.0998979 0
110 1 0.309016 0.104053 0
141 1 0.345319 0.124258 0
140 1 0.327138 0.143592 0
142 1 0.353074 0.148641 0
112 1 0.36274 0.10434 0
114 1 0.388105 0.111845 0
143 1 0.370076 0.130009 0
144 1 0.394147 0.137653 0
86 1 0.4291 0.103 0
115 1 0.411586 0.120198 0
116 1 0.436255 0.128597 0
145 1 0.418416 0.145556 0
117 1 0.452432 0.110904 0
90 1 0.494791 0.102812 0
118 1 0.45897 0.136339 0
119 1 0.476073 0.119636 0
149 1 0.483734 0.142346 0
122 1 0.0195153 0.150975 0
153 1 0.0365466 0.168512 0
152 1 0.0124097 0.175657 0
183 1 0.0303059 0.19307 0
1080 1 0.00402783 0.199272 0
124 1 0.0619311 0.161896 0
126 1 0.0860146 0.155849 0
155 1 0.078089 0.181192 0
154 1 0.0536425 0.186614 0
156 1 0.0955933 0.19814 0
127 1 0.109685 0.150321 0
128 1 0.12616 0.168939 0
157 1 0.1027 0.174255 0
160 1 0.144464 0.186015 0
158 1 0.12071 0.19237 0
132 1 0.176311 0.157658 0
159 1 0.152281 0.162618 0
161 1 0.168403 0.180729 0
162 1 0.184928 0.197316 0
163 1 0.194844 0.175308 0
133 1 0.200317 0.149864 0
134 1 0.217963 0.166432 0
164 1 0.229123 0.187137 0
165 1 0.243478 0.167561 0
166 1 0.251896 0.192102 0
167 1 0.267989 0.172997 0
138 1 0.285893 0.156344 0
168 1 0.293049 0.179615 0
197 1 0.276364 0.19751 0
169 1 0.310366 0.160355 0
171 1 0.336181 0.168206 0
170 1 0.318154 0.185712 0
201 1 0.342323 0.192717 0
172 1 0.359735 0.172318 0
173 1 0.376022 0.155113 0
174 1 0.382853 0.179437 0
203 1 0.366378 0.198554 0
175 1 0.400547 0.161852 0
147 1 0.443427 0.154482 0
146 1 0.425098 0.170228 0
205 1 0.406901 0.186901 0
176 1 0.432053 0.193895 0
177 1 0.449265 0.178187 0
148 1 0.467774 0.161481 0
150 1 0.492138 0.168324 0
179 1 0.473907 0.186005 0
180 1 0.497162 0.191912 0
182 1 0.0226869 0.217222 0
213 1 0.0395962 0.235265 0
211 1 0.0144519 0.240895 0
184 1 0.0472269 0.210741 0
185 1 0.0707894 0.204422 0
186 1 0.0889114 0.22137 0
215 1 0.0651181 0.228293 0
216 1 0.0823935 0.246266 0
187 1 0.113529 0.216507 0
188 1 0.132032 0.242359 0
189 1 0.136771 0.209387 0
217 1 0.106374 0.239716 0
191 1 0.161501 0.205004 0
190 1 0.151805 0.227919 0
192 1 0.192583 0.219477 0
221 1 0.174727 0.234783 0
193 1 0.209152 0.200385 0
223 1 0.198304 0.242609 0
194 1 0.216434 0.224825 0
195 1 0.234885 0.210364 0
225 1 0.241221 0.233936 0
224 1 0.22374 0.248967 0
196 1 0.258581 0.217405 0
198 1 0.283031 0.221652 0
227 1 0.265871 0.239239 0
228 1 0.289592 0.245956 0
199 1 0.3004 0.204342 0
200 1 0.325307 0.210265 0
229 1 0.307143 0.227527 0
231 1 0.330763 0.23471 0
202 1 0.349596 0.216083 0
204 1 0.389979 0.20344 0
233 1 0.373 0.222462 0
235 1 0.397316 0.229455 0
232 1 0.355451 0.239822 0
234 1 0.378666 0.246259 0
207 1 0.436512 0.217673 0
206 1 0.420294 0.235608 0
237 1 0.443536 0.24287 0
178 1 0.454974 0.201757 0
208 1 0.460967 0.225903 0
209 1 0.479996 0.210054 0
210 1 0.485774 0.232983 0
239 1 0.467989 0.25053 0
212 1 0.00680934 0.263776 0
243 1 0.032589 0.257794 0
242 1 0.0218848 0.282605 0
244 1 0.0493418 0.276089 0
241 1 -0.000465215 0.291327 0
214 1 0.0578749 0.251768 0
245 1 0.0729969 0.27007 0
247 1 0.0785509 0.293208 0
218 1 0.0977308 0.278072 0
219 1 0.116014 0.261892 0
249 1 0.139055 0.267771 0
248 1 0.120927 0.286595 0
250 1 0.145588 0.291891 0
220 1 0.157298 0.252118 0
222 1 0.181262 0.259932 0
251 1 0.163664 0.276596 0
252 1 0.187294 0.283232 0
253 1 0.204428 0.266734 0
255 1 0.23045 0.273555 0
254 1 0.21099 0.290192 0
226 1 0.248809 0.256922 0
285 1 0.235529 0.298317 0
256 1 0.253985 0.279939 0
257 1 0.271777 0.263235 0
259 1 0.295984 0.270282 0
258 1 0.277485 0.287103 0
289 1 0.301401 0.293923 0
230 1 0.314109 0.252625 0
260 1 0.320101 0.276746 0
261 1 0.338059 0.259142 0
262 1 0.343611 0.283334 0
263 1 0.361371 0.263897 0
264 1 0.383902 0.272306 0
293 1 0.366538 0.290169 0
295 1 0.389847 0.297056 0
265 1 0.401676 0.254285 0
236 1 0.425441 0.260136 0
266 1 0.407208 0.27829 0
267 1 0.431426 0.284076 0
238 1 0.449229 0.267076 0
1141 1 0.498748 0.281905 0
240 1 0.492716 0.257423 0
269 1 0.473859 0.274133 0
268 1 0.455364 0.291578 0
270 1 0.479473 0.297908 0
273 1 0.0386403 0.299742 0
271 1 0.0152801 0.312187 0
272 1 0.0404572 0.323092 0
301 1 0.01807 0.337242 0
303 1 0.0434629 0.347863 0
275 1 0.0612693 0.30956 0
276 1 0.0849475 0.319034 0
274 1 0.0649673 0.332959 0
305 1 0.0889935 0.342702 0
246 1 0.103067 0.303102 0
279 1 0.127459 0.310051 0
277 1 0.108122 0.326612 0
278 1 0.131854 0.335313 0
280 1 0.150871 0.317206 0
281 1 0.169638 0.301366 0
311 1 0.15581 0.341425 0
283 1 0.194618 0.308035 0
282 1 0.174726 0.325644 0
313 1 0.199354 0.332662 0
312 1 0.179862 0.349897 0
284 1 0.218066 0.314154 0
315 1 0.222934 0.339616 0
286 1 0.240738 0.322073 0
316 1 0.246667 0.346572 0
287 1 0.259364 0.304072 0
288 1 0.283616 0.311021 0
317 1 0.264911 0.328443 0
319 1 0.288913 0.336468 0
291 1 0.324433 0.302083 0
290 1 0.306688 0.317949 0
321 1 0.31333 0.342242 0
292 1 0.3304 0.325481 0
323 1 0.348888 0.307847 0
322 1 0.337121 0.350243 0
294 1 0.372979 0.314125 0
324 1 0.354407 0.332316 0
325 1 0.377945 0.337982 0
296 1 0.397055 0.321715 0
326 1 0.402984 0.345715 0
297 1 0.414124 0.30354 0
298 1 0.437491 0.309177 0
327 1 0.421015 0.32795 0
328 1 0.444981 0.332982 0
299 1 0.462171 0.316521 0
300 1 0.486752 0.322084 0
329 1 0.468243 0.340277 0
1201 1 0.493179 0.345601 0
331 1 0.00365545 0.378344 0
302 1 0.0233995 0.362312 0
332 1 0.0288802 0.387452 0
333 1 0.0492535 0.3727 0
334 1 0.0541257 0.395905 0
304 1 0.0687442 0.358132 0
306 1 0.0947272 0.367922 0
335 1 0.0741439 0.381861 0
337 1 0.099748 0.393298 0
307 1 0.112542 0.350958 0
309 1 0.137462 0.358424 0
308 1 0.119355 0.375068 0
339 1 0.143968 0.383096 0
310 1 0.162258 0.366727 0
341 1 0.168651 0.391222 0
343 1 0.186335 0.374098 0
342 1 0.191674 0.398228 0
314 1 0.203837 0.35631 0
345 1 0.228336 0.363317 0
344 1 0.210352 0.381117 0
375 1 0.233443 0.387707 0
346 1 0.253452 0.370961 0
377 1 0.258224 0.396572 0
318 1 0.270853 0.353928 0
349 1 0.29599 0.36173 0
347 1 0.276588 0.379718 0
350 1 0.300268 0.386042 0
320 1 0.319418 0.367193 0
351 1 0.343694 0.374334 0
381 1 0.32473 0.391007 0
352 1 0.348857 0.399077 0
353 1 0.361386 0.356829 0
355 1 0.38558 0.363319 0
354 1 0.367548 0.381019 0
385 1 0.390858 0.388268 0
357 1 0.427171 0.35281 0
356 1 0.408626 0.370703 0
387 1 0.433945 0.376578 0
386 1 0.415109 0.393835 0
388 1 0.439533 0.400248 0
359 1 0.451205 0.358617 0
358 1 0.457799 0.382486 0
330 1 0.474554 0.364507 0
360 1 0.481246 0.387664 0
1231 1 0.498798 0.369668 0
361 1 0.00863128 0.402037 0
363 1 0.0350194 0.411592 0
362 1 0.0154348 0.425951 0
364 1 0.0394669 0.436137 0
336 1 0.0771587 0.407393 0
365 1 0.0582886 0.4212 0
395 1 0.0648341 0.44512 0
338 1 0.123954 0.399516 0
367 1 0.104813 0.418029 0
366 1 0.112443 0.442435 0
369 1 0.13002 0.424339 0
340 1 0.147865 0.407531 0
368 1 0.135829 0.448575 0
370 1 0.154837 0.431696 0
371 1 0.172614 0.415587 0
401 1 0.177533 0.440588 0
372 1 0.196791 0.423355 0
403 1 0.201733 0.44743 0
373 1 0.214899 0.406114 0
374 1 0.221692 0.431576 0
376 1 0.238995 0.413179 0
405 1 0.245357 0.43888 0
348 1 0.282136 0.404293 0
407 1 0.27162 0.445079 0
378 1 0.262803 0.421274 0
409 1 0.28949 0.428901 0
379 1 0.307737 0.410108 0
380 1 0.314484 0.435022 0
382 1 0.331908 0.416515 0
411 1 0.338723 0.439759 0
413 1 0.356352 0.42206 0
383 1 0.372708 0.405444 0
414 1 0.379827 0.428563 0
384 1 0.397983 0.412846 0
412 1 0.362263 0.447253 0
415 1 0.404496 0.436529 0
417 1 0.422164 0.418464 0
416 1 0.428158 0.440923 0
419 1 0.44575 0.424328 0
389 1 0.463518 0.405929 0
418 1 0.469757 0.429609 0
390 1 0.486616 0.412263 0
420 1 0.493887 0.436168 0
447 1 0.451975 0.449494 0
392 1 0.00125742 0.46667 0
393 1 0.0202439 0.450733 0
422 1 0.00813337 0.491376 0
423 1 0.0252578 0.475201 0
394 1 0.0442181 0.45995 0
425 1 0.0494012 0.484453 0
397 1 0.0915643 0.454833 0
396 1 0.070395 0.469253 0
426 1 0.0737774 0.494417 0
427 1 0.094839 0.479463 0
398 1 0.116418 0.466402 0
428 1 0.118713 0.490016 0
429 1 0.140885 0.47543 0
399 1 0.160654 0.458367 0
400 1 0.184233 0.465483 0
430 1 0.165188 0.484482 0
431 1 0.191421 0.491811 0
404 1 0.227356 0.455319 0
402 1 0.20894 0.472937 0
432 1 0.218393 0.495549 0
433 1 0.237169 0.479819 0
435 1 0.253269 0.461492 0
408 1 0.29681 0.453436 0
436 1 0.261077 0.485121 0
406 1 0.279346 0.469833 0
437 1 0.285984 0.493344 0
439 1 0.303482 0.477508 0
410 1 0.322605 0.459588 0
440 1 0.328487 0.483619 0
441 1 0.346017 0.465114 0
471 1 0.352672 0.490501 0
472 1 0.377005 0.495506 0
442 1 0.370192 0.471857 0
473 1 0.393699 0.478335 0
443 1 0.386774 0.454121 0
444 1 0.417359 0.485189 0
477 1 0.441578 0.492762 0
446 1 0.435408 0.467436 0
445 1 0.410943 0.459943 0
1321 1 0.500012 0.460589 0
450 1 0.482289 0.478369 0
478 1 0.465358 0.497343 0
448 1 0.458601 0.473088 0
449 1 0.476202 0.45449 0
453 1 0.010971 0.516206 0
452 1 0.0156821 0.539917 0
454 1 0.0345505 0.525323 0
424 1 0.0309577 0.499785 0
483 1 0.0385887 0.55061 0
485 1 0.0569831 0.533948 0
455 1 0.0543528 0.509749 0
456 1 0.0784343 0.520073 0
486 1 0.0800134 0.544677 0
457 1 0.098955 0.50522 0
487 1 0.101715 0.530321 0
458 1 0.122092 0.515485 0
488 1 0.123976 0.540977 0
489 1 0.143749 0.526134 0
459 1 0.143494 0.499538 0
462 1 0.184509 0.528271 0
491 1 0.163933 0.539604 0
460 1 0.164423 0.511598 0
461 1 0.203421 0.513611 0
493 1 0.207982 0.537029 0
463 1 0.227143 0.520865 0
464 1 0.250251 0.528584 0
495 1 0.231282 0.544288 0
434 1 0.242831 0.503645 0
466 1 0.273869 0.535052 0
465 1 0.267924 0.510036 0
467 1 0.292013 0.518352 0
497 1 0.29721 0.542026 0
438 1 0.310268 0.500652 0
468 1 0.316463 0.524577 0
469 1 0.334398 0.507418 0
499 1 0.339879 0.531031 0
498 1 0.32083 0.549296 0
470 1 0.35907 0.513229 0
503 1 0.382229 0.51891 0
474 1 0.400316 0.502669 0
505 1 0.387611 0.543866 0
501 1 0.363342 0.538089 0
476 1 0.405946 0.527119 0
509 1 0.430246 0.533967 0
475 1 0.424144 0.510811 0
507 1 0.448349 0.516427 0
479 1 0.472722 0.521961 0
480 1 0.454077 0.540466 0
1381 1 0.495859 0.527496 0
510 1 0.478317 0.545759 0
1351 1 0.489017 0.502656 0
513 1 0.0186041 0.565304 0
514 1 0.0423046 0.575561 0
512 1 0.0223537 0.590619 0
543 1 0.0438726 0.601137 0
484 1 0.061478 0.5602 0
515 1 0.0843311 0.570744 0
545 1 0.0646456 0.584496 0
516 1 0.0862215 0.59596 0
490 1 0.14584 0.555216 0
517 1 0.103703 0.554351 0
518 1 0.105879 0.582265 0
519 1 0.124898 0.568916 0
549 1 0.128998 0.593339 0
520 1 0.148582 0.579496 0
521 1 0.168501 0.565109 0
492 1 0.1897 0.552509 0
522 1 0.173099 0.589729 0
523 1 0.194793 0.576933 0
494 1 0.213329 0.560452 0
524 1 0.218141 0.585924 0
525 1 0.236401 0.569026 0
555 1 0.244086 0.593962 0
496 1 0.25496 0.552752 0
526 1 0.261231 0.576587 0
527 1 0.27866 0.558769 0
528 1 0.285586 0.584197 0
529 1 0.30296 0.566796 0
500 1 0.345748 0.55627 0
530 1 0.327239 0.573633 0
559 1 0.310274 0.59215 0
561 1 0.334899 0.598466 0
531 1 0.3526 0.580336 0
502 1 0.369429 0.562951 0
504 1 0.392591 0.569201 0
533 1 0.377133 0.588566 0
506 1 0.412304 0.552131 0
534 1 0.401217 0.595025 0
535 1 0.417436 0.576342 0
508 1 0.436174 0.558344 0
537 1 0.44323 0.582126 0
536 1 0.425588 0.600694 0
539 1 0.460423 0.563816 0
540 1 0.484974 0.568851 0
538 1 0.468222 0.587684 0
569 1 0.492022 0.592407 0
542 1 0.0235699 0.615413 0
573 1 0.0259782 0.640489 0
544 1 0.0469635 0.626349 0
571 1 0.00349782 0.629985 0
541 1 0.00206448 0.605275 0
546 1 0.0662369 0.61086 0
547 1 0.0886371 0.620737 0
575 1 0.0690342 0.63595 0
576 1 0.0922464 0.646027 0
548 1 0.109229 0.606883 0
550 1 0.132186 0.617557 0
577 1 0.112579 0.631279 0
579 1 0.135385 0.641705 0
551 1 0.152161 0.604273 0
581 1 0.15711 0.628267 0
552 1 0.176237 0.61329 0
582 1 0.180947 0.637791 0
553 1 0.197732 0.601295 0
583 1 0.20296 0.62556 0
554 1 0.223836 0.611151 0
556 1 0.248054 0.619143 0
585 1 0.227515 0.635863 0
586 1 0.251917 0.643575 0
557 1 0.267459 0.601855 0
587 1 0.273125 0.626421 0
558 1 0.290763 0.610038 0
589 1 0.297399 0.63434 0
560 1 0.315546 0.616638 0
591 1 0.322909 0.640579 0
562 1 0.339904 0.622516 0
593 1 0.348441 0.64553 0
532 1 0.358062 0.604614 0
563 1 0.384484 0.612941 0
564 1 0.365445 0.628499 0
595 1 0.390903 0.63699 0
565 1 0.407289 0.618924 0
566 1 0.431941 0.624223 0
596 1 0.414807 0.6433 0
567 1 0.449263 0.60633 0
597 1 0.45674 0.631252 0
568 1 0.474689 0.610917 0
570 1 0.481124 0.636348 0
1442 1 0.499277 0.61754 0
574 1 0.0494118 0.65071 0
572 1 0.00414772 0.654167 0
603 1 0.0276836 0.664754 0
602 1 0.0072638 0.678537 0
633 1 0.0297417 0.688993 0
604 1 0.0517209 0.675051 0
605 1 0.0713574 0.661596 0
606 1 0.0741478 0.685584 0
607 1 0.0940464 0.671698 0
637 1 0.096471 0.697138 0
578 1 0.114433 0.656663 0
609 1 0.13696 0.666827 0
608 1 0.116417 0.681547 0
639 1 0.140343 0.693062 0
580 1 0.157953 0.653595 0
611 1 0.182427 0.664005 0
610 1 0.161759 0.678322 0
612 1 0.183178 0.68803 0
584 1 0.204057 0.649872 0
613 1 0.204293 0.674341 0
615 1 0.225996 0.659831 0
614 1 0.228355 0.684618 0
643 1 0.20573 0.698846 0
617 1 0.249652 0.66879 0
616 1 0.250095 0.694945 0
588 1 0.277363 0.653021 0
619 1 0.293739 0.693031 0
618 1 0.272185 0.679319 0
590 1 0.30493 0.659363 0
621 1 0.316113 0.682086 0
592 1 0.331835 0.664768 0
622 1 0.339692 0.690677 0
623 1 0.356461 0.671916 0
594 1 0.372661 0.653902 0
624 1 0.379142 0.679623 0
653 1 0.363763 0.697839 0
625 1 0.397015 0.660916 0
598 1 0.439187 0.648575 0
627 1 0.422015 0.667637 0
626 1 0.403969 0.684823 0
657 1 0.429434 0.691049 0
628 1 0.446916 0.672584 0
599 1 0.465744 0.655648 0
600 1 0.490416 0.662293 0
629 1 0.472691 0.679501 0
630 1 0.497421 0.685351 0
658 1 0.454456 0.698117 0
632 1 0.00858352 0.703498 0
634 1 0.0324353 0.713462 0
663 1 0.0124617 0.728019 0
664 1 0.0355865 0.738644 0
635 1 0.0536285 0.699776 0
636 1 0.0772822 0.711572 0
665 1 0.0574607 0.725133 0
666 1 0.079357 0.735403 0
695 1 0.0575621 0.749445 0
667 1 0.0995311 0.720931 0
668 1 0.101917 0.746209 0
638 1 0.119691 0.705883 0
640 1 0.142734 0.717922 0
669 1 0.122274 0.730828 0
670 1 0.144545 0.742556 0
641 1 0.162921 0.702928 0
642 1 0.185186 0.7137 0
671 1 0.165084 0.729006 0
673 1 0.186956 0.738269 0
645 1 0.228601 0.709162 0
644 1 0.207427 0.723689 0
675 1 0.230312 0.733252 0
674 1 0.209885 0.750023 0
646 1 0.251656 0.71956 0
677 1 0.252112 0.745257 0
647 1 0.273696 0.705568 0
648 1 0.27284 0.73089 0
679 1 0.292831 0.743482 0
649 1 0.295251 0.718731 0
620 1 0.319477 0.707787 0
651 1 0.345224 0.713868 0
650 1 0.329606 0.73199 0
652 1 0.352855 0.739353 0
655 1 0.38868 0.703126 0
654 1 0.369299 0.720946 0
685 1 0.394903 0.726905 0
683 1 0.376468 0.745927 0
656 1 0.412147 0.708446 0
687 1 0.436428 0.714543 0
686 1 0.419135 0.732741 0
717 1 0.444482 0.74 0
659 1 0.479565 0.702177 0
689 1 0.461143 0.720783 0
660 1 0.486906 0.726479 0
688 1 0.469664 0.744722 0
662 1 0.0151253 0.752316 0
694 1 0.0372909 0.764126 0
693 1 0.0175983 0.778971 0
725 1 0.0395248 0.788311 0
697 1 0.079929 0.760966 0
696 1 0.0593458 0.774997 0
727 1 0.0825613 0.785401 0
726 1 0.0627741 0.800484 0
699 1 0.123899 0.757561 0
698 1 0.103376 0.771697 0
700 1 0.126737 0.78276 0
728 1 0.105342 0.796361 0
701 1 0.145865 0.768254 0
731 1 0.15 0.792834 0
672 1 0.166699 0.753374 0
703 1 0.189036 0.76348 0
702 1 0.169807 0.778464 0
704 1 0.191943 0.790272 0
676 1 0.232343 0.760494 0
705 1 0.212344 0.774269 0
706 1 0.233843 0.785916 0
707 1 0.253731 0.77195 0
678 1 0.273559 0.757015 0
709 1 0.27681 0.781515 0
680 1 0.295061 0.767036 0
737 1 0.256946 0.796835 0
710 1 0.30041 0.790173 0
681 1 0.314909 0.751697 0
682 1 0.337643 0.758606 0
711 1 0.319522 0.774702 0
712 1 0.342366 0.782185 0
713 1 0.361113 0.764492 0
714 1 0.38458 0.770536 0
743 1 0.366087 0.788888 0
745 1 0.391217 0.794302 0
684 1 0.401719 0.750528 0
715 1 0.426788 0.75814 0
716 1 0.408313 0.7748 0
747 1 0.433471 0.782488 0
746 1 0.415935 0.800565 0
718 1 0.45124 0.764288 0
690 1 0.493756 0.751063 0
719 1 0.475711 0.769333 0
720 1 0.482928 0.793511 0
749 1 0.457355 0.788933 0
1591 1 0.500568 0.775365 0
723 1 0.0186631 0.805214 0
722 1 0.020391 0.829028 0
724 1 0.0417938 0.813014 0
754 1 0.0437661 0.83627 0
1680 1 -0.000458576 0.842325 0
757 1 0.0857215 0.811073 0
755 1 0.0654874 0.82498 0
756 1 0.0867431 0.836923 0
785 1 0.065455 0.849993 0
729 1 0.128927 0.806757 0
759 1 0.10804 0.823134 0
760 1 0.130783 0.832335 0
758 1 0.108991 0.847723 0
730 1 0.150979 0.818241 0
761 1 0.152307 0.844441 0
732 1 0.170672 0.803915 0
763 1 0.173164 0.82997 0
733 1 0.193373 0.815343 0
764 1 0.194417 0.842593 0
735 1 0.213376 0.801259 0
736 1 0.235627 0.811551 0
734 1 0.214922 0.826829 0
767 1 0.236211 0.838428 0
708 1 0.279852 0.805567 0
738 1 0.258781 0.820937 0
769 1 0.281647 0.82962 0
768 1 0.261081 0.845519 0
741 1 0.324447 0.799457 0
739 1 0.302988 0.814149 0
740 1 0.305871 0.838096 0
771 1 0.329188 0.826899 0
742 1 0.347796 0.806195 0
773 1 0.354707 0.829998 0
744 1 0.373767 0.81246 0
774 1 0.380115 0.836665 0
775 1 0.397751 0.818622 0
748 1 0.440837 0.807435 0
777 1 0.422672 0.824513 0
776 1 0.403563 0.842469 0
779 1 0.448949 0.831255 0
778 1 0.430558 0.850511 0
750 1 0.465612 0.812571 0
1621 1 0.491019 0.817863 0
780 1 0.473048 0.836458 0
1651 1 0.49791 0.841491 0
753 1 0.0433164 0.859974 0
752 1 0.0179328 0.862403 0
783 1 0.0368436 0.883264 0
782 1 0.012323 0.886184 0
784 1 0.0631058 0.874331 0
786 1 0.0804555 0.89323 0
787 1 0.0863773 0.864447 0
815 1 0.055808 0.897534 0
817 1 0.104668 0.88575 0
789 1 0.132083 0.857412 0
788 1 0.128725 0.881155 0
790 1 0.148448 0.896625 0
791 1 0.152981 0.871717 0
762 1 0.174577 0.857077 0
793 1 0.173935 0.887172 0
795 1 0.196355 0.868286 0
765 1 0.216674 0.854301 0
796 1 0.219415 0.878861 0
825 1 0.237398 0.896707 0
766 1 0.240405 0.863731 0
797 1 0.267675 0.869651 0
827 1 0.261566 0.893542 0
798 1 0.286764 0.886146 0
799 1 0.292237 0.861981 0
772 1 0.343577 0.852277 0
770 1 0.319917 0.857782 0
800 1 0.311677 0.880331 0
801 1 0.336747 0.876233 0
831 1 0.328833 0.900698 0
802 1 0.354679 0.893419 0
803 1 0.36202 0.868744 0
804 1 0.379368 0.887222 0
805 1 0.386092 0.861363 0
807 1 0.409691 0.866547 0
808 1 0.436066 0.876063 0
809 1 0.453796 0.85644 0
1681 1 0.479158 0.860019 0
1711 1 0.484307 0.88425 0
810 1 0.460097 0.880712 0
813 1 0.0275487 0.905589 0
843 1 0.0226849 0.929021 0
844 1 0.0398657 0.946511 0
812 1 0.00452862 0.910775 0
814 1 0.0461058 0.920865 0
816 1 0.0972203 0.910053 0
845 1 0.0716987 0.916893 0
846 1 0.0636685 0.940619 0
847 1 0.0890169 0.933992 0
819 1 0.122036 0.904347 0
818 1 0.114577 0.928529 0
820 1 0.1307 0.946936 0
821 1 0.139709 0.921298 0
792 1 0.164543 0.914756 0
851 1 0.157948 0.938293 0
823 1 0.18857 0.906771 0
822 1 0.181792 0.932085 0
794 1 0.213654 0.902417 0
824 1 0.20553 0.926022 0
885 1 0.221556 0.944523 0
855 1 0.230099 0.92118 0
856 1 0.246857 0.940022 0
826 1 0.253779 0.916908 0
857 1 0.272093 0.93435 0
828 1 0.280411 0.910643 0
859 1 0.296278 0.929799 0
829 1 0.304339 0.904705 0
830 1 0.321398 0.922782 0
861 1 0.338207 0.94117 0
860 1 0.312309 0.947018 0
832 1 0.347343 0.917327 0
863 1 0.363515 0.936047 0
833 1 0.372093 0.912312 0
834 1 0.388708 0.931704 0
806 1 0.397601 0.906747 0
837 1 0.443814 0.900065 0
835 1 0.414475 0.926267 0
836 1 0.433411 0.943517 0
865 1 0.405562 0.949763 0
838 1 0.450381 0.924425 0
869 1 0.460057 0.946933 0
839 1 0.46891 0.903846 0
840 1 0.475586 0.927615 0
1712 1 0.492813 0.908248 0
1741 1 0.500518 0.931416 0
842 1 0.0169119 0.952837 0
872 1 0.0251065 0.99499 0
873 1 0.0335292 0.970588 0
871 1 0.00887917 0.976069 0
874 1 0.0498912 0.988907 0
1 1 -7.73257e-05 1.00137 0
875 1 0.0571637 0.965612 0
876 1 0.0745329 0.983435 0
848 1 0.0806184 0.958462 0
877 1 0.0979052 0.977766 0
849 1 0.105286 0.952625 0
878 1 0.116723 0.993834 0
879 1 0.12277 0.969521 0
881 1 0.140643 0.986445 0
850 1 0.149453 0.962018 0
853 1 0.174275 0.957097 0
852 1 0.16631 0.981245 0
883 1 0.19022 0.975759 0
854 1 0.198315 0.950146 0
882 1 0.182731 1.00082 0
13 1 0.207405 0.993006 0
15 1 0.23105 0.987792 0
884 1 0.214654 0.969466 0
886 1 0.239252 0.963936 0
858 1 0.288258 0.953645 0
887 1 0.263449 0.95892 0
17 1 0.256373 0.983047 0
888 1 0.281346 0.977872 0
19 1 0.297682 0.99572 0
889 1 0.306172 0.970797 0
890 1 0.322906 0.989541 0
891 1 0.331139 0.965327 0
892 1 0.348373 0.984109 0
862 1 0.355291 0.960068 0
864 1 0.380453 0.954567 0
893 1 0.373016 0.97827 0
895 1 0.397708 0.97272 0
894 1 0.389477 0.997267 0
867 1 0.445295 0.965937 0
866 1 0.421877 0.967656 0
896 1 0.415777 0.991733 0
899 1 0.476432 0.99425 0
870 1 0.484254 0.950433 0
1771 1 0.493062 0.975346 0
868 1 0.469143 0.971649 0
897 1 0.449134 0.990896 0
902 1 0.536828 0.0248385 0
901 1 0.510549 0.0215663 0
931 1 0.52096 0.0427395 0
903 1 0.527206 0.002625 0
933 1 0.545645 0.0495173 0
904 1 0.56061 0.0310829 0
906 1 0.577491 0.013709 0
935 1 0.585956 0.036951 0
905 1 0.55217 0.00721228 0
908 1 0.60171 0.0187044 0
937 1 0.610397 0.0427242 0
939 1 0.625756 0.0250182 0
910 1 0.644101 0.0071025 0
938 1 0.636169 0.0477721 0
909 1 0.61927 0.00072379 0
941 1 0.652241 0.0291348 0
912 1 0.669116 0.0117201 0
942 1 0.676773 0.0365451 0
943 1 0.693114 0.0183909 0
973 1 0.701338 0.0428051 0
944 1 0.717077 0.0231757 0
945 1 0.733608 0.00648675 0
946 1 0.741948 0.0296591 0
975 1 0.724888 0.0476352 0
947 1 0.757725 0.0101453 0
948 1 0.766955 0.0333252 0
918 1 0.783218 0.0139367 0
979 1 0.791257 0.0368976 0
949 1 0.807887 0.0194648 0
951 1 0.836181 0.0180523 0
950 1 0.823765 0.0401025 0
952 1 0.854758 0.0339941 0
953 1 0.863277 0.0105168 0
924 1 0.88661 0.006229 0
954 1 0.878011 0.0293312 0
985 1 0.894389 0.0483322 0
955 1 0.902355 0.0237004 0
926 1 0.926041 0.0184663 0
957 1 0.94389 0.0370508 0
956 1 0.919313 0.0427965 0
928 1 0.950711 0.0128785 0
959 1 0.967989 0.0294275 0
930 1 0.992597 0.024749 0
929 1 0.976618 0.00582439 0
960 1 0.984343 0.0494493 0
932 1 0.530198 0.0669768 0
962 1 0.536665 0.0905607 0
961 1 0.511622 0.0849483 0
60 1 0.505315 0.061608 0
963 1 0.554174 0.0729685 0
934 1 0.569779 0.0548139 0
965 1 0.577358 0.0781529 0
936 1 0.594873 0.0615642 0
964 1 0.560429 0.0970159 0
966 1 0.602062 0.0849911 0
967 1 0.619062 0.0661297 0
968 1 0.627486 0.0906666 0
969 1 0.643082 0.071932 0
999 1 0.650725 0.0963654 0
940 1 0.659779 0.0535275 0
970 1 0.666527 0.0780325 0
971 1 0.684 0.0593255 0
972 1 0.692652 0.0833554 0
1003 1 0.708538 0.0658999 0
1004 1 0.716791 0.0902041 0
974 1 0.732473 0.0713259 0
1005 1 0.741376 0.0943332 0
976 1 0.749914 0.0522971 0
1007 1 0.756984 0.0757287 0
977 1 0.773676 0.0577879 0
978 1 0.797043 0.0626715 0
1008 1 0.782661 0.0823953 0
980 1 0.820906 0.0640255 0
981 1 0.844323 0.0574579 0
1009 1 0.809363 0.0859639 0
1011 1 0.835112 0.0824671 0
982 1 0.861501 0.0767249 0
983 1 0.870084 0.0528431 0
984 1 0.886483 0.0726288 0
1013 1 0.877694 0.0950272 0
1015 1 0.903835 0.0895873 0
986 1 0.912257 0.0661444 0
987 1 0.936903 0.0600969 0
1017 1 0.928827 0.085108 0
988 1 0.952939 0.0793318 0
958 1 0.960077 0.054499 0
989 1 0.97668 0.0727231 0
990 1 0.993987 0.0895871 0
1019 1 0.969015 0.0965665 0
120 1 0.502459 0.126484 0
991 1 0.520309 0.109365 0
992 1 0.525957 0.133266 0
993 1 0.5443 0.115316 0
1021 1 0.508473 0.15053 0
1023 1 0.551348 0.139517 0
995 1 0.584768 0.101498 0
994 1 0.568017 0.120695 0
996 1 0.592407 0.126763 0
1025 1 0.575677 0.145802 0
997 1 0.60829 0.108075 0
998 1 0.632849 0.115018 0
1027 1 0.616932 0.133331 0
1029 1 0.641543 0.138895 0
1001 1 0.675716 0.104421 0
1000 1 0.657716 0.120639 0
1031 1 0.681835 0.127494 0
1030 1 0.665237 0.145014 0
1002 1 0.700363 0.108803 0
1033 1 0.706891 0.134305 0
1035 1 0.724134 0.114928 0
1034 1 0.731778 0.139305 0
1036 1 0.747656 0.120603 0
1006 1 0.764339 0.100341 0
1037 1 0.7728 0.124665 0
1038 1 0.794609 0.135664 0
1067 1 0.757121 0.145406 0
1039 1 0.801046 0.111071 0
1010 1 0.825847 0.105449 0
1040 1 0.818929 0.130151 0
1041 1 0.845318 0.124173 0
1071 1 0.836523 0.148922 0
1012 1 0.851839 0.100512 0
1043 1 0.869125 0.117902 0
1014 1 0.894361 0.11222 0
1044 1 0.886639 0.137028 0
1042 1 0.860878 0.143186 0
1018 1 0.945909 0.103176 0
1045 1 0.912651 0.131648 0
1016 1 0.920284 0.107991 0
1047 1 0.936322 0.1275 0
1049 1 0.960484 0.122022 0
1020 1 0.985998 0.114579 0
1050 1 0.978805 0.138948 0
1046 1 0.953501 0.145925 0
1022 1 0.533399 0.157402 0
1053 1 0.539157 0.182 0
1051 1 0.51533 0.173934 0
1052 1 0.520222 0.197397 0
1026 1 0.599894 0.151175 0
1024 1 0.557546 0.163578 0
1055 1 0.581756 0.168594 0
1054 1 0.56374 0.187887 0
1056 1 0.588799 0.193167 0
1028 1 0.623959 0.156029 0
1057 1 0.606063 0.175352 0
1058 1 0.630265 0.182041 0
1059 1 0.648761 0.164011 0
1087 1 0.612289 0.199524 0
1032 1 0.690495 0.15219 0
1060 1 0.654683 0.18672 0
1061 1 0.673134 0.1693 0
1091 1 0.680414 0.193126 0
1062 1 0.698227 0.176122 0
1063 1 0.715126 0.157983 0
1064 1 0.722059 0.181953 0
1095 1 0.747212 0.188404 0
1065 1 0.740193 0.163968 0
1066 1 0.7652 0.169627 0
1068 1 0.786701 0.159049 0
1097 1 0.771357 0.193556 0
1069 1 0.811811 0.154494 0
1070 1 0.827716 0.172451 0
1099 1 0.802163 0.179414 0
1101 1 0.845818 0.189594 0
1100 1 0.821497 0.19586 0
1072 1 0.854544 0.166825 0
1073 1 0.879918 0.160261 0
1103 1 0.872358 0.183484 0
1074 1 0.89668 0.178739 0
1077 1 0.928414 0.150254 0
1075 1 0.903441 0.155949 0
1076 1 0.920255 0.174596 0
1107 1 0.938523 0.191941 0
1078 1 0.945438 0.168332 0
1105 1 0.913121 0.197415 0
1048 1 0.971163 0.162985 0
151 1 0.995677 0.156183 0
1079 1 0.988021 0.180508 0
1109 1 0.962155 0.187445 0
1083 1 0.544918 0.205489 0
1082 1 0.527834 0.221778 0
1111 1 0.510386 0.239878 0
1113 1 0.533849 0.246069 0
1081 1 0.504129 0.215942 0
1084 1 0.552288 0.229326 0
1085 1 0.570129 0.212229 0
1086 1 0.595971 0.217537 0
1115 1 0.576005 0.235102 0
1117 1 0.601369 0.241444 0
1089 1 0.636696 0.206235 0
1088 1 0.620072 0.224076 0
1119 1 0.644831 0.229869 0
1118 1 0.626173 0.247133 0
1090 1 0.661064 0.209938 0
1092 1 0.686466 0.21769 0
1121 1 0.670175 0.236208 0
1122 1 0.694374 0.241486 0
1093 1 0.703853 0.199784 0
1094 1 0.728289 0.205993 0
1123 1 0.711474 0.224372 0
1124 1 0.717945 0.248921 0
1125 1 0.734626 0.230626 0
1096 1 0.752797 0.212773 0
1127 1 0.776726 0.217948 0
1126 1 0.759747 0.23709 0
1128 1 0.78558 0.241072 0
1098 1 0.797848 0.204279 0
1131 1 0.839383 0.213456 0
1129 1 0.815677 0.221688 0
1130 1 0.83397 0.238515 0
1159 1 0.809554 0.246187 0
1102 1 0.864964 0.207689 0
1104 1 0.888989 0.202905 0
1132 1 0.855957 0.231281 0
1133 1 0.881262 0.226729 0
1134 1 0.898308 0.245405 0
1163 1 0.873717 0.250165 0
1135 1 0.905809 0.221618 0
1106 1 0.930474 0.215235 0
1136 1 0.922158 0.241901 0
1137 1 0.945563 0.235168 0
1108 1 0.955845 0.21072 0
1110 1 0.980007 0.205869 0
1139 1 0.970619 0.229772 0
1140 1 0.989703 0.246426 0
181 1 0.996816 0.222673 0
1112 1 0.517115 0.263632 0
1143 1 0.541605 0.269864 0
1142 1 0.523346 0.286756 0
1144 1 0.548542 0.293273 0
1114 1 0.55815 0.251941 0
1116 1 0.583892 0.258277 0
1145 1 0.56585 0.276079 0
1146 1 0.589928 0.281892 0
1147 1 0.607621 0.263963 0
1149 1 0.632377 0.270933 0
1148 1 0.614387 0.287753 0
1179 1 0.639665 0.29561 0
1120 1 0.650842 0.25328 0
1151 1 0.676268 0.25953 0