ITEM: TIMESTEP
110000
ITEM: NUMBER OF ATOMS
1800
ITEM: BOX BOUNDS pp pp pp
3.0717164402508104e+00 1.5532828355974465e+02
3.0717164402508104e+00 1.5532828355974465e+02
0.0000000000000000e+00 5.2800000000000002e+00
ITEM: ATOMS id type xs ys zs
2 1 0.0184199 0.017862 0
3 1 0.0439429 0.0120543 0
33 1 0.0356883 0.0373013 0
31 1 0.009724 0.0422054 0
1 1 0.00134093 0.00145517 0
4 1 0.0599834 0.0307556 0
6 1 0.0849718 0.0245419 0
5 1 0.0686397 0.00666684 0
35 1 0.0758354 0.0487628 0
7 1 0.0930624 -0.000102747 0
37 1 0.0998355 0.0426367 0
8 1 0.11048 0.018003 0
9 1 0.12474 0.03683 0
880 1 0.134358 0.0114245 0
10 1 0.152209 0.0306581 0
11 1 0.158558 0.00630904 0
12 1 0.176018 0.0244899 0
43 1 0.192198 0.0424009 0
882 1 0.185155 0.00153597 0
41 1 0.168425 0.0483574 0
14 1 0.202762 0.01917 0
44 1 0.218455 0.0378003 0
45 1 0.226267 0.0140038 0
46 1 0.243191 0.0336729 0
16 1 0.250406 0.00850014 0
47 1 0.266754 0.0261502 0
49 1 0.29313 0.0205569 0
48 1 0.28639 0.0448915 0
18 1 0.275522 0.00217465 0
50 1 0.310631 0.040111 0
20 1 0.317967 0.0143424 0
51 1 0.335159 0.0320283 0
21 1 0.343458 0.00956728 0
22 1 0.361659 0.0275506 0
24 1 0.385622 0.0197067 0
53 1 0.377783 0.046321 0
23 1 0.368355 0.0026497 0
55 1 0.401877 0.0386802 0
25 1 0.410923 0.0164504 0
26 1 0.427885 0.0364345 0
27 1 0.435512 0.011276 0
28 1 0.452249 0.0376847 0
30 1 0.494227 0.0367478 0
898 1 0.460684 0.0128708 0
29 1 0.485028 0.0140827 0
32 1 0.027603 0.0597674 0
62 1 0.0202559 0.0836576 0
63 1 0.0437933 0.0785056 0
61 1 0.00169318 0.0669909 0
34 1 0.0522883 0.0558915 0
65 1 0.0676405 0.074864 0
66 1 0.0868342 0.0907002 0
36 1 0.0925545 0.0670853 0
64 1 0.0606088 0.0979859 0
39 1 0.142913 0.0545689 0
38 1 0.118452 0.06078 0
67 1 0.110827 0.0842738 0
69 1 0.136419 0.0781724 0
70 1 0.152507 0.0970081 0
40 1 0.161632 0.0723043 0
71 1 0.178529 0.0906729 0
42 1 0.185066 0.0667145 0
72 1 0.202097 0.0842123 0
73 1 0.210923 0.0620219 0
74 1 0.226997 0.07995 0
75 1 0.236069 0.0569042 0
106 1 0.245328 0.0984493 0
77 1 0.260863 0.0502555 0
76 1 0.252313 0.0741414 0
78 1 0.276929 0.0701791 0
109 1 0.296083 0.0884913 0
107 1 0.270379 0.0938622 0
79 1 0.301488 0.0645732 0
80 1 0.320406 0.0806468 0
81 1 0.327014 0.0566504 0
82 1 0.343327 0.0756547 0
52 1 0.351971 0.0516126 0
83 1 0.367988 0.068921 0
113 1 0.378417 0.0902601 0
54 1 0.392186 0.0683836 0
56 1 0.413654 0.058928 0
57 1 0.437766 0.0604034 0
85 1 0.419712 0.0815232 0
87 1 0.442778 0.0866321 0
84 1 0.401783 0.0998149 0
59 1 0.476261 0.0517952 0
88 1 0.466658 0.0951161 0
58 1 0.46127 0.0699593 0
89 1 0.484629 0.0769297 0
93 1 0.0367383 0.102572 0
92 1 0.0292404 0.12565 0
91 1 0.0116322 0.108172 0
121 1 0.00410839 0.132061 0
123 1 0.046317 0.145099 0
94 1 0.0533488 0.120761 0
95 1 0.0793997 0.113871 0
125 1 0.0709474 0.137701 0
96 1 0.0960882 0.132785 0
68 1 0.129133 0.102749 0
97 1 0.10396 0.107546 0
98 1 0.119224 0.126418 0
99 1 0.145539 0.121817 0
129 1 0.137479 0.143629 0
100 1 0.170842 0.114067 0
130 1 0.16231 0.139372 0
131 1 0.18643 0.132985 0
101 1 0.196162 0.109319 0
103 1 0.219784 0.102353 0
102 1 0.212876 0.126408 0
105 1 0.237529 0.121991 0
104 1 0.227833 0.144784 0
135 1 0.261721 0.117277 0
137 1 0.278107 0.135344 0
108 1 0.288961 0.114029 0
136 1 0.255083 0.142473 0
111 1 0.337862 0.100317 0
139 1 0.304028 0.136867 0
110 1 0.32038 0.118956 0
141 1 0.344294 0.127026 0
140 1 0.326869 0.144684 0
112 1 0.362144 0.10926 0
114 1 0.385157 0.118475 0
143 1 0.367451 0.134425 0
144 1 0.393732 0.14205 0
86 1 0.426216 0.105525 0
115 1 0.409722 0.123851 0
116 1 0.433949 0.130735 0
145 1 0.416319 0.147504 0
117 1 0.450021 0.112722 0
90 1 0.491012 0.101316 0
118 1 0.456819 0.136452 0
119 1 0.474098 0.119224 0
149 1 0.480548 0.143269 0
120 1 0.497928 0.124629 0
122 1 0.0210798 0.150105 0
153 1 0.0393437 0.167226 0
152 1 0.0147991 0.173491 0
183 1 0.032124 0.191835 0
1080 1 0.00580821 0.19712 0
124 1 0.0639863 0.162098 0
126 1 0.0891101 0.156153 0
155 1 0.0812059 0.179846 0
154 1 0.0577258 0.185241 0
156 1 0.0971541 0.19763 0
127 1 0.113822 0.150607 0
128 1 0.13017 0.168998 0
157 1 0.10642 0.174932 0
160 1 0.147318 0.188226 0
158 1 0.12336 0.192655 0
132 1 0.180723 0.156969 0
159 1 0.153954 0.163897 0
161 1 0.173036 0.180615 0
162 1 0.18672 0.199368 0
163 1 0.197929 0.176564 0
133 1 0.204335 0.148542 0
134 1 0.219879 0.167851 0
164 1 0.228063 0.189409 0
165 1 0.244473 0.167383 0
166 1 0.252446 0.192035 0
167 1 0.269181 0.174474 0
138 1 0.285946 0.157491 0
168 1 0.292478 0.180479 0
197 1 0.275187 0.199641 0
169 1 0.309408 0.162869 0
171 1 0.333319 0.169464 0
170 1 0.314712 0.18759 0
201 1 0.339959 0.19437 0
142 1 0.350484 0.152723 0
172 1 0.356658 0.177016 0
173 1 0.37373 0.158974 0
174 1 0.380262 0.18358 0
175 1 0.399653 0.16702 0
147 1 0.440683 0.154813 0
146 1 0.422894 0.172397 0
205 1 0.40628 0.191912 0
176 1 0.430054 0.195449 0
177 1 0.446981 0.177626 0
148 1 0.464679 0.162235 0
150 1 0.489486 0.167574 0
179 1 0.471926 0.184396 0
180 1 0.496666 0.191545 0
182 1 0.0229957 0.21466 0
213 1 0.0404223 0.233079 0
211 1 0.0163317 0.239005 0
184 1 0.0487494 0.208554 0
185 1 0.0734612 0.203201 0
186 1 0.0891157 0.222084 0
215 1 0.0650671 0.227343 0
216 1 0.0816267 0.245111 0
187 1 0.113718 0.215181 0
188 1 0.131492 0.244125 0
189 1 0.138316 0.21234 0
217 1 0.105917 0.240269 0
191 1 0.162821 0.207503 0
190 1 0.153409 0.231047 0
192 1 0.191369 0.222907 0
221 1 0.174675 0.240617 0
223 1 0.197802 0.246734 0
193 1 0.209232 0.20607 0
194 1 0.215631 0.229611 0
195 1 0.232927 0.212754 0
225 1 0.239532 0.236468 0
196 1 0.257432 0.216341 0
198 1 0.281337 0.223559 0
227 1 0.264021 0.242539 0
228 1 0.288553 0.248082 0
199 1 0.299154 0.206454 0
200 1 0.323476 0.212533 0
229 1 0.305465 0.230336 0
231 1 0.330174 0.235896 0
202 1 0.348115 0.218341 0
203 1 0.36342 0.201046 0
204 1 0.387791 0.209012 0
233 1 0.371393 0.225873 0
235 1 0.396327 0.23154 0
232 1 0.353686 0.242957 0
207 1 0.435359 0.220289 0
206 1 0.419749 0.239211 0
237 1 0.442948 0.24435 0
178 1 0.454613 0.202945 0
208 1 0.458926 0.226315 0
209 1 0.478667 0.208204 0
210 1 0.483087 0.232564 0
212 1 0.00763589 0.261781 0
243 1 0.0333297 0.256348 0
242 1 0.0247446 0.278996 0
244 1 0.049886 0.276857 0
273 1 0.0364751 0.299418 0
214 1 0.0576053 0.250998 0
245 1 0.074281 0.268852 0
247 1 0.077944 0.292964 0
218 1 0.0965669 0.277032 0
219 1 0.115234 0.26223 0
249 1 0.138085 0.270769 0
248 1 0.119914 0.286296 0
250 1 0.143743 0.295635 0
220 1 0.155551 0.254933 0
222 1 0.180602 0.263595 0
251 1 0.162085 0.279867 0
252 1 0.185388 0.287892 0
224 1 0.222365 0.253273 0
253 1 0.204622 0.270624 0
255 1 0.228841 0.276606 0
254 1 0.209868 0.294335 0
226 1 0.246349 0.259197 0
256 1 0.252194 0.283645 0
257 1 0.270359 0.265882 0
259 1 0.29397 0.272897 0
258 1 0.276409 0.289256 0
289 1 0.300747 0.2972 0
230 1 0.312782 0.254143 0
260 1 0.3181 0.279287 0
261 1 0.335619 0.259961 0
262 1 0.341391 0.284313 0
234 1 0.378053 0.249449 0
263 1 0.359431 0.267428 0
264 1 0.384293 0.272951 0
293 1 0.365938 0.290863 0
295 1 0.389833 0.29815 0
265 1 0.401491 0.255461 0
236 1 0.425309 0.263963 0
266 1 0.407157 0.280606 0
267 1 0.432345 0.286383 0
238 1 0.449391 0.26907 0
239 1 0.466699 0.25074 0
240 1 0.490706 0.257159 0
269 1 0.473032 0.275224 0
268 1 0.45639 0.29366 0
270 1 0.479513 0.299362 0
1141 1 0.498015 0.280056 0
271 1 0.0147424 0.311296 0
272 1 0.0399645 0.323242 0
301 1 0.018107 0.337013 0
303 1 0.0424059 0.347585 0
275 1 0.0593938 0.308014 0
276 1 0.0812761 0.317085 0
274 1 0.0625492 0.333117 0
305 1 0.0868849 0.341843 0
246 1 0.101023 0.301443 0
279 1 0.125127 0.311388 0
277 1 0.105327 0.326414 0
278 1 0.129447 0.335529 0
280 1 0.149074 0.320323 0
281 1 0.167609 0.303795 0
311 1 0.154248 0.343886 0
283 1 0.19185 0.311715 0
282 1 0.172613 0.327783 0
313 1 0.195663 0.335188 0
285 1 0.233907 0.299836 0
284 1 0.215856 0.317585 0
315 1 0.219699 0.34174 0
286 1 0.239326 0.324298 0
287 1 0.258607 0.307495 0
288 1 0.282155 0.313282 0
317 1 0.264167 0.331356 0
319 1 0.289079 0.336533 0
291 1 0.32501 0.304029 0
290 1 0.307322 0.321421 0
321 1 0.312341 0.345769 0
292 1 0.330629 0.327689 0
323 1 0.348186 0.309578 0
294 1 0.371263 0.315299 0
324 1 0.354501 0.333949 0
325 1 0.378153 0.339591 0
296 1 0.395472 0.322506 0
326 1 0.401567 0.347567 0
297 1 0.414075 0.304563 0
298 1 0.437779 0.312273 0
327 1 0.418727 0.329322 0
328 1 0.444252 0.335815 0
299 1 0.462963 0.317437 0
300 1 0.48679 0.322735 0
1201 1 0.494217 0.346145 0
329 1 0.468683 0.341779 0
331 1 0.00199219 0.375374 0
302 1 0.023105 0.361454 0
332 1 0.0262068 0.385353 0
333 1 0.0456856 0.371496 0
334 1 0.0517232 0.395397 0
304 1 0.0656122 0.357783 0
306 1 0.0911281 0.366268 0
335 1 0.0727831 0.381814 0
337 1 0.0953365 0.391754 0
307 1 0.110445 0.351947 0
309 1 0.134684 0.358611 0
308 1 0.113976 0.376479 0
339 1 0.14058 0.382265 0
338 1 0.122672 0.399415 0
312 1 0.177139 0.351811 0
310 1 0.160183 0.368347 0
341 1 0.165257 0.391367 0
343 1 0.184392 0.375654 0
342 1 0.190331 0.3985 0
316 1 0.244872 0.347489 0
314 1 0.202492 0.35917 0
345 1 0.226946 0.364789 0
344 1 0.209203 0.383493 0
375 1 0.233238 0.388485 0
346 1 0.251065 0.37164 0
377 1 0.258071 0.397961 0
318 1 0.269896 0.355021 0
349 1 0.293089 0.362649 0
347 1 0.275304 0.378923 0
350 1 0.298944 0.385755 0
322 1 0.336816 0.352483 0
320 1 0.317837 0.369859 0
351 1 0.341107 0.376294 0
381 1 0.32311 0.394687 0
353 1 0.359869 0.35799 0
355 1 0.382792 0.365711 0
354 1 0.365383 0.383003 0
385 1 0.389753 0.39072 0
357 1 0.426098 0.353669 0
356 1 0.40713 0.372154 0
387 1 0.432849 0.37843 0
386 1 0.414621 0.395675 0
359 1 0.451187 0.360781 0
1231 1 0.499027 0.370784 0
358 1 0.457047 0.384108 0
330 1 0.475205 0.364355 0
360 1 0.480983 0.389063 0
361 1 0.00716389 0.400545 0
363 1 0.0311699 0.409918 0
362 1 0.0114109 0.425153 0
364 1 0.0363262 0.435624 0
336 1 0.0763802 0.405638 0
365 1 0.057098 0.421234 0
395 1 0.0661164 0.443982 0
367 1 0.103231 0.41556 0
366 1 0.109388 0.43956 0
369 1 0.127373 0.423473 0
340 1 0.145842 0.406482 0
368 1 0.133649 0.447701 0
370 1 0.151809 0.430731 0
371 1 0.171023 0.414528 0
401 1 0.175994 0.438209 0
372 1 0.194832 0.423013 0
403 1 0.200776 0.44597 0
373 1 0.214104 0.406305 0
374 1 0.219791 0.430411 0
376 1 0.238622 0.413876 0
405 1 0.244724 0.437748 0
348 1 0.282498 0.405744 0
407 1 0.269031 0.446178 0
378 1 0.263864 0.421672 0
409 1 0.287926 0.43042 0
352 1 0.3473 0.402057 0
379 1 0.305791 0.412653 0
380 1 0.313026 0.438186 0
382 1 0.3296 0.419627 0
411 1 0.335808 0.445625 0
413 1 0.353844 0.427165 0
383 1 0.372136 0.40745 0
414 1 0.379023 0.434171 0
384 1 0.39705 0.41586 0
388 1 0.438087 0.40158 0
415 1 0.403208 0.439831 0
417 1 0.420492 0.419526 0
416 1 0.427487 0.44388 0
419 1 0.444723 0.426084 0
389 1 0.461834 0.407956 0
418 1 0.470596 0.431047 0
390 1 0.486871 0.41284 0
420 1 0.494914 0.43688 0
393 1 0.0181532 0.450902 0
422 1 0.00629376 0.487999 0
423 1 0.0258017 0.474241 0
394 1 0.0451148 0.459609 0
425 1 0.0503204 0.484759 0
397 1 0.0889742 0.454036 0
396 1 0.0704524 0.470129 0
426 1 0.0754567 0.493221 0
427 1 0.094737 0.478013 0
398 1 0.114202 0.463815 0
428 1 0.120246 0.488722 0
429 1 0.139776 0.471844 0
459 1 0.144942 0.496572 0
399 1 0.158221 0.455083 0
400 1 0.18195 0.461669 0
430 1 0.162578 0.478732 0
431 1 0.18708 0.484774 0
404 1 0.225632 0.454343 0
402 1 0.206324 0.469751 0
432 1 0.21137 0.493089 0
433 1 0.232608 0.477842 0
435 1 0.249418 0.46251 0
436 1 0.255035 0.485982 0
408 1 0.29279 0.45498 0
406 1 0.273889 0.470468 0
437 1 0.279409 0.494286 0
439 1 0.297919 0.478062 0
410 1 0.317209 0.462561 0
440 1 0.322744 0.48703 0
441 1 0.342936 0.469455 0
471 1 0.347726 0.493939 0
412 1 0.359991 0.450809 0
442 1 0.365613 0.476714 0
473 1 0.390537 0.481584 0
443 1 0.383239 0.457808 0
477 1 0.440626 0.493444 0
446 1 0.434979 0.468859 0
445 1 0.410487 0.463606 0
444 1 0.415632 0.487167 0
450 1 0.482313 0.479265 0
447 1 0.45256 0.449587 0
478 1 0.465474 0.497742 0
448 1 0.458562 0.47452 0
449 1 0.476002 0.454645 0
241 1 0.00118309 0.287207 0
424 1 0.0304827 0.498705 0
472 1 0.372809 0.499735 0
453 1 0.010237 0.513175 0
452 1 0.0145411 0.539343 0
454 1 0.0337213 0.523483 0
483 1 0.0380057 0.549117 0
841 1 -2.62331e-05 0.936455 0
485 1 0.0589011 0.533539 0
455 1 0.0553469 0.508989 0
456 1 0.0805801 0.51874 0
486 1 0.0824002 0.544694 0
457 1 0.0991216 0.503515 0
487 1 0.103722 0.530668 0
458 1 0.122001 0.514705 0
488 1 0.129334 0.539211 0
489 1 0.150445 0.521507 0
461 1 0.191887 0.508178 0
462 1 0.19573 0.531228 0
491 1 0.172944 0.53878 0
460 1 0.168308 0.503033 0
493 1 0.21865 0.541091 0
463 1 0.215951 0.516788 0
464 1 0.238717 0.526466 0
434 1 0.234838 0.501978 0
495 1 0.240699 0.55117 0
466 1 0.26154 0.535488 0
465 1 0.259241 0.510919 0
467 1 0.28404 0.518591 0
497 1 0.284906 0.543364 0
438 1 0.303414 0.50352 0
468 1 0.308358 0.528723 0
469 1 0.329313 0.51243 0
499 1 0.330968 0.540034 0
470 1 0.353806 0.519321 0
503 1 0.37906 0.522958 0
474 1 0.39691 0.506 0
505 1 0.388665 0.547176 0
501 1 0.363771 0.542367 0
899 1 0.474214 0.993122 0
476 1 0.404793 0.528354 0
509 1 0.430561 0.533674 0
475 1 0.423054 0.510317 0
507 1 0.448797 0.515565 0
479 1 0.472014 0.522153 0
480 1 0.454195 0.539035 0
1381 1 0.497674 0.527869 0
510 1 0.479945 0.545351 0
1351 1 0.490417 0.503348 0
513 1 0.0181258 0.564048 0
514 1 0.0428764 0.573511 0
512 1 0.0219831 0.587974 0
543 1 0.0443072 0.598095 0
484 1 0.062086 0.559457 0
515 1 0.085552 0.570043 0
545 1 0.0657193 0.585196 0
516 1 0.0875232 0.595449 0
517 1 0.107577 0.556315 0
518 1 0.108176 0.58118 0
519 1 0.128829 0.566775 0
549 1 0.130539 0.591332 0
490 1 0.151435 0.551791 0
520 1 0.153003 0.575995 0
521 1 0.17424 0.563797 0
492 1 0.196911 0.554962 0
522 1 0.174947 0.589323 0
523 1 0.198365 0.578408 0
494 1 0.218715 0.565208 0
524 1 0.220267 0.5899 0
525 1 0.241 0.575517 0
555 1 0.243691 0.599974 0
496 1 0.264638 0.559182 0
526 1 0.264173 0.583766 0
527 1 0.288009 0.568421 0
528 1 0.286126 0.593961 0
498 1 0.30892 0.553887 0
529 1 0.308852 0.580508 0
500 1 0.330637 0.566337 0
530 1 0.330254 0.591717 0
531 1 0.353235 0.58306 0
502 1 0.371084 0.56664 0
504 1 0.396549 0.570081 0
533 1 0.380415 0.590031 0
506 1 0.4132 0.550363 0
534 1 0.404768 0.593948 0
535 1 0.420579 0.575725 0
508 1 0.437365 0.5577 0
537 1 0.445002 0.58178 0
539 1 0.461406 0.562286 0
540 1 0.486732 0.569214 0
538 1 0.468563 0.585746 0
569 1 0.494211 0.591965 0
542 1 0.0232372 0.61265 0
571 1 0.00349888 0.628101 0
573 1 0.0260671 0.638207 0
544 1 0.046386 0.623429 0
868 1 0.470798 0.968511 0
546 1 0.0681487 0.609805 0
547 1 0.0900355 0.620295 0
575 1 0.0700963 0.634034 0
576 1 0.0918644 0.645425 0
548 1 0.109999 0.604858 0
550 1 0.13485 0.617934 0
577 1 0.112565 0.630902 0
579 1 0.134427 0.642244 0
551 1 0.154089 0.601833 0
581 1 0.157419 0.627026 0
552 1 0.17739 0.612919 0
582 1 0.180765 0.638995 0
553 1 0.199992 0.603339 0
583 1 0.201932 0.627018 0
554 1 0.222272 0.613083 0
556 1 0.24425 0.624199 0
585 1 0.224197 0.637993 0
586 1 0.246136 0.649733 0
557 1 0.265308 0.608507 0
587 1 0.266326 0.635217 0
558 1 0.2867 0.619589 0
589 1 0.289336 0.646501 0
559 1 0.307351 0.605377 0
560 1 0.308246 0.632393 0
561 1 0.327696 0.617215 0
591 1 0.330017 0.642831 0
562 1 0.348917 0.627486 0
532 1 0.363125 0.607509 0
563 1 0.38757 0.613607 0
564 1 0.373104 0.63138 0
595 1 0.395258 0.639359 0
536 1 0.428504 0.601915 0
565 1 0.411961 0.620205 0
566 1 0.435534 0.625117 0
596 1 0.419336 0.644555 0
598 1 0.44182 0.65076 0
567 1 0.453488 0.604654 0
597 1 0.458786 0.629997 0
568 1 0.476924 0.60962 0
570 1 0.482921 0.63507 0
574 1 0.0489558 0.647885 0
572 1 0.00550729 0.652607 0
603 1 0.0281532 0.662471 0
602 1 0.00680548 0.676819 0
633 1 0.0290249 0.68733 0
604 1 0.0499137 0.672761 0
605 1 0.0711713 0.658942 0
606 1 0.0733525 0.684237 0
607 1 0.0932388 0.670269 0
637 1 0.0963365 0.694474 0
635 1 0.052744 0.697452 0
578 1 0.113297 0.655449 0
609 1 0.137148 0.666189 0
608 1 0.117151 0.680004 0
639 1 0.139459 0.69167 0
580 1 0.158946 0.652185 0
611 1 0.180963 0.663617 0
610 1 0.160139 0.676784 0
612 1 0.181488 0.689468 0
584 1 0.202977 0.651046 0
613 1 0.202916 0.675624 0
615 1 0.2247 0.663584 0
614 1 0.226275 0.687872 0
617 1 0.247793 0.673305 0
616 1 0.248952 0.698352 0
588 1 0.268542 0.659847 0
619 1 0.291399 0.671674 0
618 1 0.269735 0.683336 0
590 1 0.311373 0.657321 0
621 1 0.315596 0.683996 0
592 1 0.335222 0.667461 0
622 1 0.341229 0.692063 0
593 1 0.35431 0.651002 0
623 1 0.359234 0.674407 0
594 1 0.378269 0.656324 0
624 1 0.382986 0.680977 0
653 1 0.366565 0.698985 0
625 1 0.401115 0.664402 0
627 1 0.424222 0.668447 0
626 1 0.407072 0.687894 0
657 1 0.432777 0.69265 0
628 1 0.44926 0.674085 0
599 1 0.466601 0.654259 0
600 1 0.490923 0.659826 0
629 1 0.473035 0.678678 0
630 1 0.49729 0.683698 0
658 1 0.45683 0.698157 0
632 1 0.0105169 0.701816 0
634 1 0.0326553 0.713431 0
663 1 0.0129587 0.728041 0
664 1 0.0361084 0.737417 0
636 1 0.0762818 0.709199 0
665 1 0.0556713 0.722498 0
666 1 0.0775803 0.734372 0
667 1 0.0977903 0.721351 0
695 1 0.0580681 0.749079 0
638 1 0.118795 0.706616 0
640 1 0.140463 0.71711 0
669 1 0.120122 0.731292 0
668 1 0.101202 0.745853 0
670 1 0.143382 0.74268 0
641 1 0.1612 0.7037 0
642 1 0.183683 0.714853 0
671 1 0.162815 0.728107 0
673 1 0.186024 0.740332 0
643 1 0.204584 0.700765 0
645 1 0.22831 0.712211 0
644 1 0.207623 0.725878 0
675 1 0.229797 0.736786 0
646 1 0.250305 0.722186 0
647 1 0.271867 0.708186 0
677 1 0.252113 0.746617 0
648 1 0.273628 0.733119 0
679 1 0.294547 0.742879 0
649 1 0.296164 0.717635 0
620 1 0.32066 0.710213 0
651 1 0.346918 0.714964 0
650 1 0.328785 0.733001 0
652 1 0.352324 0.740909 0
655 1 0.390428 0.705736 0
654 1 0.37294 0.723515 0
685 1 0.396172 0.730053 0
683 1 0.377396 0.747895 0
656 1 0.413734 0.711575 0
687 1 0.439936 0.715588 0
686 1 0.420977 0.735819 0
717 1 0.446367 0.740392 0
659 1 0.480673 0.702692 0
689 1 0.46374 0.721075 0
660 1 0.487845 0.72622 0
688 1 0.470557 0.745588 0
690 1 0.49491 0.751126 0
662 1 0.0162857 0.752016 0
694 1 0.0387132 0.762823 0
693 1 0.0186406 0.776269 0
725 1 0.0412802 0.787065 0
697 1 0.0813753 0.760316 0
696 1 0.0607551 0.774639 0
727 1 0.0838015 0.785426 0
726 1 0.0631844 0.798796 0
699 1 0.122894 0.758171 0
698 1 0.103757 0.772095 0
700 1 0.127304 0.78526 0
728 1 0.106567 0.796787 0
701 1 0.146309 0.769087 0
731 1 0.149112 0.79466 0
672 1 0.166324 0.754801 0
703 1 0.190463 0.766246 0
702 1 0.170136 0.779496 0
704 1 0.191478 0.790612 0
674 1 0.209231 0.750394 0
676 1 0.232367 0.761466 0
705 1 0.212807 0.775134 0
706 1 0.235132 0.786328 0
707 1 0.254839 0.772653 0
678 1 0.273396 0.757837 0
709 1 0.276659 0.784097 0
680 1 0.295296 0.768996 0
737 1 0.256552 0.798901 0
710 1 0.299641 0.792522 0
681 1 0.315562 0.75425 0
682 1 0.338703 0.760063 0
711 1 0.318821 0.777913 0
712 1 0.342565 0.785482 0
713 1 0.36188 0.767363 0
714 1 0.38582 0.77272 0
743 1 0.367921 0.791414 0
745 1 0.392845 0.795976 0
684 1 0.40192 0.753425 0
715 1 0.429245 0.758806 0
716 1 0.410614 0.777839 0
747 1 0.433997 0.783479 0
718 1 0.453164 0.765475 0
719 1 0.477363 0.770157 0
720 1 0.481586 0.794434 0
749 1 0.458114 0.78914 0
723 1 0.0191986 0.801927 0
722 1 0.0202391 0.827187 0
724 1 0.0414545 0.810595 0
754 1 0.0436561 0.834545 0
1680 1 0.00294919 0.844514 0
757 1 0.0859982 0.80998 0
755 1 0.0651413 0.823212 0
756 1 0.0869986 0.836022 0
785 1 0.0655709 0.848715 0
729 1 0.128133 0.808624 0
759 1 0.107999 0.822197 0
760 1 0.129796 0.832959 0
730 1 0.151146 0.819496 0
732 1 0.172226 0.804888 0
761 1 0.153132 0.844847 0
763 1 0.172948 0.829249 0
733 1 0.194035 0.815404 0
764 1 0.194569 0.840893 0
735 1 0.214664 0.799931 0
736 1 0.235377 0.813347 0
734 1 0.215748 0.828292 0
767 1 0.237749 0.839052 0
708 1 0.278566 0.809748 0
738 1 0.257288 0.823526 0
769 1 0.28241 0.834643 0
768 1 0.260361 0.848819 0
741 1 0.323276 0.803561 0
739 1 0.302743 0.816713 0
740 1 0.307791 0.84065 0
771 1 0.330343 0.829141 0
742 1 0.347786 0.809817 0
773 1 0.357568 0.83306 0
744 1 0.375646 0.815509 0
774 1 0.380822 0.840348 0
775 1 0.398786 0.820189 0
746 1 0.416594 0.803231 0
748 1 0.440106 0.807441 0
777 1 0.422671 0.827481 0
776 1 0.405293 0.845987 0
779 1 0.446462 0.831706 0
750 1 0.465332 0.813792 0
1621 1 0.488491 0.818081 0
780 1 0.472528 0.837177 0
1651 1 0.49714 0.841481 0
753 1 0.0427373 0.858796 0
752 1 0.0194845 0.863816 0
783 1 0.0376294 0.882538 0
782 1 0.0135611 0.888656 0
784 1 0.0610956 0.874078 0
786 1 0.0809555 0.89133 0
787 1 0.0865961 0.863189 0
815 1 0.0558254 0.899117 0
758 1 0.108707 0.848514 0
817 1 0.104245 0.885399 0
789 1 0.132286 0.856866 0
788 1 0.129556 0.881091 0
790 1 0.147013 0.898102 0
791 1 0.153393 0.874088 0
762 1 0.17486 0.856826 0
793 1 0.174485 0.886681 0
795 1 0.195549 0.87165 0
765 1 0.217229 0.854168 0
796 1 0.220738 0.882035 0
766 1 0.242616 0.866115 0
797 1 0.269636 0.871233 0
827 1 0.262105 0.893583 0
799 1 0.294442 0.863455 0
798 1 0.287818 0.888191 0
772 1 0.341968 0.851952 0
770 1 0.320071 0.861126 0
800 1 0.311023 0.88298 0
801 1 0.338947 0.876025 0
802 1 0.354385 0.894547 0
803 1 0.364286 0.867903 0
804 1 0.380395 0.889132 0
805 1 0.38931 0.864981 0
778 1 0.42961 0.851564 0
807 1 0.413475 0.871023 0
808 1 0.439155 0.876278 0
837 1 0.419126 0.894199 0
809 1 0.455119 0.855661 0
1681 1 0.479356 0.861088 0
1711 1 0.488353 0.883805 0
810 1 0.46351 0.879548 0
813 1 0.0309953 0.907016 0
843 1 0.0259001 0.930908 0
844 1 0.043232 0.947873 0
812 1 0.00748644 0.912475 0
814 1 0.0486196 0.922566 0
816 1 0.0979364 0.910478 0
845 1 0.0736859 0.915232 0
846 1 0.0661425 0.939325 0
847 1 0.0907852 0.933243 0
819 1 0.122837 0.90525 0
818 1 0.116317 0.929523 0
820 1 0.133459 0.947038 0
821 1 0.139962 0.923491 0
792 1 0.164777 0.915206 0
851 1 0.157342 0.940724 0
823 1 0.190498 0.910352 0
822 1 0.182065 0.933358 0
825 1 0.238634 0.899795 0
794 1 0.214226 0.905396 0
824 1 0.206451 0.930074 0
885 1 0.223146 0.947975 0
855 1 0.231391 0.92445 0
856 1 0.248366 0.943011 0
826 1 0.256346 0.918807 0
857 1 0.273656 0.937056 0
828 1 0.280547 0.912307 0
859 1 0.297425 0.931265 0
831 1 0.329763 0.899044 0
829 1 0.303531 0.906638 0
830 1 0.323174 0.923151 0
861 1 0.341858 0.942234 0
832 1 0.347954 0.918451 0
860 1 0.31757 0.947364 0
863 1 0.365141 0.936366 0
833 1 0.37163 0.912227 0
834 1 0.390732 0.929143 0
806 1 0.397188 0.905848 0
835 1 0.417731 0.922265 0
836 1 0.434483 0.942312 0
865 1 0.409214 0.948793 0
838 1 0.451817 0.922919 0
869 1 0.462402 0.945537 0
839 1 0.470333 0.90464 0
840 1 0.478988 0.927201 0
1712 1 0.49463 0.908287 0
870 1 0.487765 0.949818 0
842 1 0.0170217 0.953674 0
872 1 0.0254381 0.995245 0
873 1 0.0342614 0.971016 0
871 1 0.00925026 0.976367 0
874 1 0.0526782 0.988373 0
875 1 0.0592166 0.964615 0
876 1 0.0770346 0.982508 0
848 1 0.0824546 0.957832 0
877 1 0.100759 0.976168 0
849 1 0.106583 0.95261 0
878 1 0.116674 0.99382 0
879 1 0.124287 0.969619 0
881 1 0.14022 0.987479 0
850 1 0.15055 0.964579 0
854 1 0.199562 0.953281 0
853 1 0.175809 0.95803 0
852 1 0.168412 0.982118 0
883 1 0.192549 0.976391 0
13 1 0.209127 0.996741 0
15 1 0.232998 0.990035 0
884 1 0.216328 0.972403 0
886 1 0.240898 0.966531 0
858 1 0.290957 0.955061 0
887 1 0.265085 0.960954 0
17 1 0.257975 0.984869 0
888 1 0.282333 0.978398 0
19 1 0.300617 0.996326 0
889 1 0.308001 0.97084 0
890 1 0.324259 0.989222 0
891 1 0.333646 0.96617 0
892 1 0.3499 0.983542 0
862 1 0.358346 0.960578 0
864 1 0.382818 0.95448 0
893 1 0.37625 0.979205 0
894 1 0.394621 0.996223 0
897 1 0.449829 0.988834 0
895 1 0.399883 0.971783 0
896 1 0.419748 0.991687 0
867 1 0.447034 0.964103 0
866 1 0.423578 0.968132 0
1771 1 0.494964 0.972996 0
902 1 0.536079 0.0246637 0
901 1 0.510669 0.0193958 0
931 1 0.518513 0.0426897 0
933 1 0.542141 0.0489149 0
903 1 0.52776 0.00207361 0
904 1 0.560655 0.0307603 0
906 1 0.576725 0.012704 0
935 1 0.583291 0.0370546 0
905 1 0.552376 0.00646279 0
908 1 0.600529 0.0177837 0
937 1 0.607771 0.0419636 0
939 1 0.624971 0.0234542 0
910 1 0.642582 0.00575375 0
938 1 0.633811 0.046937 0
941 1 0.649748 0.0300559 0
421 1 0.981305 0.479222 0
912 1 0.66606 0.0125356 0
942 1 0.674687 0.0358083 0
943 1 0.691273 0.0166964 0
973 1 0.699554 0.041481 0
944 1 0.715434 0.022253 0
945 1 0.73326 0.00404566 0
946 1 0.741414 0.02877 0
975 1 0.72345 0.0459684 0
947 1 0.758317 0.0109481 0
948 1 0.766418 0.0354179 0
918 1 0.78403 0.0169182 0
979 1 0.792122 0.0425225 0
949 1 0.80923 0.0205902 0
951 1 0.836995 0.0178292 0
950 1 0.827958 0.0404236 0
921 1 0.820222 -0.000323255 0
952 1 0.852275 0.0350865 0
953 1 0.861805 0.0101692 0
924 1 0.885495 0.00459601 0
954 1 0.877757 0.0294374 0
985 1 0.894662 0.0478265 0
955 1 0.902246 0.024524 0
926 1 0.927836 0.018842 0
957 1 0.944556 0.0363055 0
956 1 0.918697 0.0429443 0
928 1 0.951615 0.0129399 0
959 1 0.968473 0.0308302 0
930 1 0.993558 0.0247755 0
929 1 0.976475 0.00749052 0
960 1 0.98529 0.0476295 0
932 1 0.525793 0.0668944 0
962 1 0.533524 0.0902991 0
961 1 0.509506 0.0860046 0
60 1 0.501777 0.0601393 0
963 1 0.550659 0.0731189 0
934 1 0.566306 0.0547406 0
965 1 0.574491 0.0788286 0
964 1 0.558484 0.0959265 0
936 1 0.589905 0.0605376 0
966 1 0.598708 0.0843839 0
967 1 0.615551 0.0648391 0
968 1 0.622418 0.0897499 0
969 1 0.640007 0.0714665 0
999 1 0.646117 0.0954232 0
940 1 0.656686 0.0533052 0
970 1 0.663103 0.0770095 0
971 1 0.681226 0.0587293 0
972 1 0.688188 0.082014 0
1003 1 0.706485 0.0650058 0
1004 1 0.71184 0.0897701 0
974 1 0.730083 0.0698775 0
1005 1 0.737734 0.0950113 0
976 1 0.747211 0.0518931 0
1007 1 0.754079 0.0752334 0
977 1 0.772182 0.0592113 0
978 1 0.793425 0.0697855 0
1008 1 0.785907 0.093877 0
980 1 0.819492 0.0630996 0
981 1 0.845025 0.0595869 0
1009 1 0.811331 0.0875001 0
1011 1 0.836315 0.0831657 0
982 1 0.860819 0.0790692 0
983 1 0.869188 0.0534355 0
984 1 0.885856 0.071945 0
1013 1 0.877835 0.0954144 0
1012 1 0.853477 0.101246 0
1015 1 0.902585 0.0915875 0
986 1 0.910895 0.0668582 0
987 1 0.936416 0.0601283 0
1017 1 0.927951 0.0845486 0
988 1 0.9529 0.0777061 0
958 1 0.961429 0.0540244 0
989 1 0.977775 0.0722075 0
990 1 0.994686 0.0909149 0
1019 1 0.970295 0.0960717 0
991 1 0.517473 0.108217 0
992 1 0.523506 0.131136 0
993 1 0.540958 0.114394 0
1023 1 0.548697 0.136899 0
1021 1 0.505782 0.147855 0
995 1 0.582882 0.102359 0
994 1 0.564929 0.119717 0
996 1 0.589526 0.125398 0
1025 1 0.572687 0.143596 0
1026 1 0.597602 0.149992 0
997 1 0.606308 0.108451 0
998 1 0.631182 0.113312 0
1027 1 0.613411 0.131869 0
1029 1 0.637638 0.1367 0
1001 1 0.671877 0.101 0
1000 1 0.655687 0.118992 0
1031 1 0.678751 0.125657 0
1030 1 0.662701 0.144883 0
1032 1 0.686862 0.149763 0
1002 1 0.695512 0.108088 0
1033 1 0.703654 0.131499 0
1035 1 0.72072 0.113652 0
1034 1 0.728906 0.135758 0
1006 1 0.762498 0.0994488 0
1036 1 0.751198 0.122038 0
1037 1 0.777125 0.118395 0
1038 1 0.796311 0.136742 0
1067 1 0.772559 0.143582 0
1039 1 0.803354 0.111819 0
1010 1 0.829309 0.105936 0
1040 1 0.819152 0.130169 0
1041 1 0.84526 0.125657 0
1071 1 0.83625 0.149076 0
1043 1 0.870846 0.119515 0
1014 1 0.894881 0.114107 0
1044 1 0.886866 0.138041 0
1042 1 0.862466 0.143472 0
1018 1 0.946131 0.10151 0
1045 1 0.911364 0.132333 0
1016 1 0.919135 0.108234 0
1047 1 0.93778 0.126555 0
1049 1 0.962617 0.119897 0
1020 1 0.986834 0.114158 0
1050 1 0.979397 0.138415 0
1046 1 0.955868 0.144303 0
1022 1 0.530181 0.155333 0
1053 1 0.537597 0.178471 0
1051 1 0.512875 0.172372 0
1052 1 0.520223 0.197263 0
1024 1 0.555369 0.16029 0
1055 1 0.579278 0.167268 0
1054 1 0.561732 0.184972 0
1056 1 0.58579 0.192183 0
1028 1 0.621658 0.155596 0
1057 1 0.603344 0.173674 0
1058 1 0.628309 0.181398 0
1059 1 0.645796 0.162658 0
1087 1 0.610469 0.19746 0
1060 1 0.653243 0.186259 0
1061 1 0.670493 0.167721 0
1091 1 0.677438 0.190798 0
1062 1 0.695617 0.174104 0
1063 1 0.713569 0.156199 0
1064 1 0.720334 0.179709 0
1095 1 0.744385 0.183854 0
1093 1 0.70236 0.198106 0
1065 1 0.737802 0.159427 0
1066 1 0.761748 0.165936 0
1068 1 0.788353 0.162016 0
1097 1 0.780953 0.186854 0
1069 1 0.813254 0.155495 0
1070 1 0.830973 0.173135 0
1099 1 0.80582 0.179522 0
1101 1 0.847478 0.189899 0
1100 1 0.8211 0.196993 0
1072 1 0.855187 0.166658 0
1073 1 0.880253 0.16271 0
1103 1 0.872621 0.185337 0
1074 1 0.896399 0.180649 0
1077 1 0.929636 0.149245 0
1075 1 0.903991 0.155771 0
1076 1 0.921769 0.174633 0
1107 1 0.938 0.191395 0
1078 1 0.94499 0.166773 0
1105 1 0.913761 0.197866 0
1048 1 0.971582 0.161892 0
151 1 0.995882 0.15564 0
1079 1 0.989553 0.179056 0
1109 1 0.962615 0.184175 0
1083 1 0.54369 0.202829 0
1082 1 0.526783 0.221607 0
1111 1 0.508569 0.238775 0
1113 1 0.532303 0.244692 0
1081 1 0.50252 0.215777 0
1084 1 0.550439 0.227028 0
1085 1 0.567971 0.209502 0
1086 1 0.593079 0.215389 0
1115 1 0.575239 0.23343 0
1117 1 0.60047 0.238874 0
1089 1 0.635382 0.204555 0
1088 1 0.616947 0.220785 0
1119 1 0.641506 0.228049 0
1118 1 0.624753 0.245098 0
1090 1 0.659139 0.210106 0
1092 1 0.684332 0.215563 0
1121 1 0.668086 0.23372 0
1122 1 0.692023 0.239806 0
1094 1 0.726569 0.202915 0
1123 1 0.709464 0.222322 0
1124 1 0.716809 0.246548 0
1125 1 0.73319 0.228009 0
1096 1 0.75046 0.209325 0
1127 1 0.775341 0.215009 0
1126 1 0.758981 0.233705 0
1128 1 0.784111 0.239302 0
1098 1 0.797637 0.205123 0
1131 1 0.840378 0.21504 0
1129 1 0.815954 0.222362 0
1130 1 0.832898 0.240046 0
1159 1 0.80928 0.244986 0
1102 1 0.864681 0.209717 0
1104 1 0.889172 0.204195 0
1132 1 0.858768 0.233219 0
1133 1 0.883133 0.227947 0
1134 1 0.900265 0.246193 0
1135 1 0.906539 0.221514 0
1106 1 0.931642 0.214574 0
1136 1 0.924496 0.237958 0
1137 1 0.949066 0.233241 0
1108 1 0.95591 0.207638 0
1110 1 0.98024 0.202034 0
1139 1 0.972343 0.225266 0
1140 1 0.989601 0.244352 0
181 1 0.997797 0.221327 0
1112 1 0.515094 0.261584 0
1143 1 0.539804 0.267846 0
1142 1 0.52373 0.285905 0
1144 1 0.547132 0.29158 0
1114 1 0.556975 0.250683 0
1116 1 0.582289 0.256007 0
1145 1 0.56511 0.274265 0
1146 1 0.589936 0.280922 0
1175 1 0.572651 0.298265 0
1147 1 0.607642 0.263175 0
1149 1 0.631912 0.269881 0
1148 1 0.613275 0.287724 0
1179 1 0.637698 0.293134 0
1120 1 0.64964 0.252528 0
1151 1 0.674353 0.257912 0
1150 1 0.656328 0.276654 0
1152 1 0.680719 0.283714 0
1181 1 0.663191 0.300218 0
1153 1 0.697884 0.26438 0
1155 1 0.742437 0.251872 0