ITEM: TIMESTEP
176000
ITEM: NUMBER OF ATOMS
1800
ITEM: BOX BOUNDS pp pp pp
3.2620314151417062e+00 1.5513796858485566e+02
3.2620314151417062e+00 1.5513796858485566e+02
0.0000000000000000e+00 5.2800000000000002e+00
ITEM: ATOMS id type xs ys zs
2 1 0.0195153 0.0192289 0
3 1 0.0441349 0.0119339 0
33 1 0.036314 0.0369364 0
31 1 0.0129005 0.0434097 0
1 1 0.00375206 0.00178563 0
4 1 0.0610795 0.0301526 0
6 1 0.0852511 0.0242951 0
5 1 0.0687772 0.00539172 0
35 1 0.078077 0.0479187 0
7 1 0.0928339 0.000547718 0
37 1 0.104242 0.0415709 0
8 1 0.110055 0.0181724 0
9 1 0.128626 0.0356882 0
880 1 0.134599 0.0108402 0
10 1 0.151474 0.0294772 0
11 1 0.159719 0.00420051 0
12 1 0.1762 0.023152 0
43 1 0.193306 0.0425929 0
41 1 0.168812 0.0474943 0
14 1 0.20096 0.0187404 0
44 1 0.219624 0.036175 0
45 1 0.225289 0.0129106 0
46 1 0.244361 0.0309574 0
16 1 0.250073 0.0059451 0
47 1 0.267796 0.0255003 0
49 1 0.291504 0.0206188 0
48 1 0.284851 0.0435291 0
18 1 0.274523 0.000564193 0
77 1 0.260833 0.0495684 0
50 1 0.308913 0.0395243 0
20 1 0.315506 0.0149229 0
51 1 0.332519 0.0334173 0
21 1 0.33939 0.00979019 0
22 1 0.35906 0.0280239 0
24 1 0.38328 0.0224168 0
53 1 0.377125 0.0472841 0
23 1 0.366121 0.00379657 0
55 1 0.400581 0.0381508 0
25 1 0.409209 0.0157893 0
26 1 0.425219 0.0355413 0
27 1 0.437703 0.0133992 0
28 1 0.449987 0.0355975 0
30 1 0.496903 0.0389128 0
898 1 0.462114 0.0140551 0
29 1 0.487077 0.0161549 0
59 1 0.473253 0.0441019 0
32 1 0.0289331 0.0624116 0
62 1 0.0204611 0.0858468 0
63 1 0.045573 0.0790383 0
61 1 0.00411375 0.0673359 0
34 1 0.0533932 0.0540371 0
65 1 0.0703605 0.0726407 0
66 1 0.0869384 0.0896371 0
36 1 0.0939382 0.065959 0
64 1 0.0637032 0.0964016 0
39 1 0.144784 0.0543372 0
38 1 0.118719 0.0603156 0
67 1 0.111512 0.0836831 0
69 1 0.136694 0.0772139 0
70 1 0.151782 0.0959261 0
40 1 0.161923 0.0717784 0
71 1 0.17803 0.0904518 0
42 1 0.185869 0.0654481 0
72 1 0.202399 0.0833319 0
73 1 0.210667 0.0597824 0
74 1 0.227791 0.0779611 0
75 1 0.236522 0.0546947 0
106 1 0.245292 0.0969308 0
76 1 0.253436 0.0739721 0
78 1 0.277635 0.0676993 0
109 1 0.294972 0.0879743 0
107 1 0.270729 0.0913695 0
79 1 0.30242 0.0639785 0
80 1 0.318628 0.0821147 0
81 1 0.326145 0.0581662 0
82 1 0.342628 0.0762686 0
52 1 0.351337 0.0516625 0
83 1 0.367118 0.0703919 0
113 1 0.381863 0.0899056 0
54 1 0.392967 0.0668224 0
56 1 0.415636 0.0583976 0
57 1 0.442645 0.0585241 0
85 1 0.424746 0.0809638 0
84 1 0.406081 0.0979411 0
87 1 0.447956 0.0849443 0
88 1 0.471211 0.0961502 0
58 1 0.466033 0.0674011 0
89 1 0.48847 0.0794303 0
93 1 0.0373509 0.10218 0
92 1 0.0291766 0.127199 0
91 1 0.0126405 0.109226 0
121 1 0.00503633 0.133671 0
123 1 0.0472428 0.145075 0
94 1 0.0537022 0.120971 0
95 1 0.0785065 0.11519 0
125 1 0.0705198 0.138067 0
96 1 0.0962888 0.132224 0
68 1 0.1283 0.101442 0
97 1 0.102051 0.108627 0
98 1 0.120525 0.12455 0
99 1 0.14481 0.120744 0
129 1 0.136966 0.14323 0
100 1 0.169601 0.113405 0
130 1 0.162252 0.137523 0
131 1 0.18803 0.131075 0
101 1 0.194754 0.10788 0
103 1 0.220176 0.10115 0
102 1 0.213351 0.125613 0
105 1 0.241298 0.122134 0
104 1 0.230106 0.144932 0
133 1 0.203323 0.14872 0
136 1 0.254779 0.144247 0
135 1 0.264557 0.114039 0
137 1 0.277551 0.13435 0
108 1 0.290306 0.113335 0
111 1 0.337347 0.0998608 0
139 1 0.304017 0.136448 0
110 1 0.318905 0.116692 0
141 1 0.344128 0.125162 0
140 1 0.327815 0.144332 0
112 1 0.36318 0.107186 0
114 1 0.388167 0.113977 0
143 1 0.368269 0.131088 0
144 1 0.391967 0.138981 0
142 1 0.352224 0.149116 0
86 1 0.429994 0.104213 0
115 1 0.411321 0.122949 0
116 1 0.435622 0.128868 0
145 1 0.418085 0.147397 0
117 1 0.452659 0.112066 0
90 1 0.494256 0.10365 0
118 1 0.458849 0.137651 0
119 1 0.476574 0.120472 0
149 1 0.484012 0.144175 0
122 1 0.0216208 0.151943 0
153 1 0.038486 0.168981 0
152 1 0.0129071 0.175692 0
183 1 0.0304563 0.192709 0
1080 1 0.00644401 0.199733 0
124 1 0.0640423 0.163257 0
126 1 0.087551 0.155374 0
155 1 0.0788504 0.181813 0
154 1 0.0542926 0.187856 0
156 1 0.0980958 0.198245 0
127 1 0.112614 0.15062 0
128 1 0.130274 0.166657 0
157 1 0.104435 0.174678 0
160 1 0.148214 0.184856 0
158 1 0.122945 0.191243 0
132 1 0.179628 0.154977 0
159 1 0.155398 0.161028 0
161 1 0.171507 0.179121 0
162 1 0.187882 0.197137 0
163 1 0.196602 0.173465 0
134 1 0.218836 0.166164 0
164 1 0.229854 0.187423 0
165 1 0.244277 0.167845 0
166 1 0.253034 0.191386 0
167 1 0.268027 0.172662 0
138 1 0.28585 0.155665 0
168 1 0.291914 0.179549 0
197 1 0.276041 0.198449 0
169 1 0.309177 0.161082 0
171 1 0.33562 0.168424 0
170 1 0.317312 0.185301 0
201 1 0.340429 0.193183 0
172 1 0.359583 0.174954 0
173 1 0.376111 0.156302 0
174 1 0.383209 0.182214 0
203 1 0.36543 0.199747 0
175 1 0.400879 0.164212 0
147 1 0.441895 0.155849 0
146 1 0.424823 0.172454 0
205 1 0.407758 0.189814 0
176 1 0.431115 0.197079 0
177 1 0.448948 0.180204 0
148 1 0.465308 0.16264 0
150 1 0.490814 0.168002 0
179 1 0.471594 0.185908 0
180 1 0.49691 0.192143 0
182 1 0.0238422 0.21934 0
213 1 0.0398274 0.236908 0
211 1 0.0157122 0.243234 0
184 1 0.0466814 0.211597 0
185 1 0.0712793 0.206104 0
186 1 0.088994 0.221691 0
215 1 0.0638833 0.229601 0
216 1 0.0839159 0.245995 0
187 1 0.114787 0.216324 0
188 1 0.132196 0.242322 0
189 1 0.138981 0.208939 0
217 1 0.107124 0.23872 0
191 1 0.164917 0.206186 0
190 1 0.153703 0.228326 0
192 1 0.19436 0.221114 0
221 1 0.176981 0.238248 0
223 1 0.199543 0.245596 0
193 1 0.211481 0.204015 0
194 1 0.217352 0.2277 0
195 1 0.235063 0.211473 0
225 1 0.241645 0.235086 0
196 1 0.258499 0.216917 0
198 1 0.281724 0.22238 0
227 1 0.265063 0.242034 0
228 1 0.28888 0.246751 0
199 1 0.300245 0.203698 0
200 1 0.324553 0.210108 0
229 1 0.306312 0.229457 0
231 1 0.330086 0.235803 0
202 1 0.347024 0.218214 0
204 1 0.389241 0.206933 0
233 1 0.371524 0.224728 0
235 1 0.395299 0.231276 0
232 1 0.353354 0.24235 0
234 1 0.37728 0.249058 0
207 1 0.437637 0.222267 0
206 1 0.419365 0.238885 0
237 1 0.443258 0.245384 0
178 1 0.455335 0.204572 0
208 1 0.46141 0.228891 0
209 1 0.478992 0.210788 0
210 1 0.486105 0.233329 0
212 1 0.00700905 0.265353 0
243 1 0.0314109 0.261446 0
242 1 0.0113282 0.28968 0
273 1 0.0344462 0.297651 0
244 1 0.0546184 0.281007 0
214 1 0.0555443 0.254367 0
245 1 0.0750673 0.268288 0
247 1 0.0775705 0.292374 0
218 1 0.0978264 0.27762 0
219 1 0.117697 0.261446 0
249 1 0.139876 0.270537 0
248 1 0.120405 0.286063 0
250 1 0.144247 0.29454 0
220 1 0.156477 0.252736 0
222 1 0.180656 0.26292 0
251 1 0.163136 0.278517 0
252 1 0.187536 0.286891 0
224 1 0.223566 0.252743 0
253 1 0.206222 0.269374 0
255 1 0.229844 0.277046 0
254 1 0.210131 0.293786 0
226 1 0.247315 0.259853 0
256 1 0.254234 0.28347 0
257 1 0.271867 0.265568 0
259 1 0.295007 0.273223 0
258 1 0.277768 0.290734 0
289 1 0.301056 0.296918 0
230 1 0.311817 0.25341 0
260 1 0.318338 0.277975 0
261 1 0.335529 0.260366 0
262 1 0.34245 0.284999 0
263 1 0.359883 0.266575 0
264 1 0.38395 0.273018 0
293 1 0.367145 0.290907 0
295 1 0.391096 0.297988 0
265 1 0.401902 0.255798 0
236 1 0.426077 0.262814 0
266 1 0.40769 0.279778 0
267 1 0.4328 0.286361 0
239 1 0.467778 0.251366 0
238 1 0.450541 0.268133 0
240 1 0.492437 0.25702 0
269 1 0.474907 0.274906 0
268 1 0.457382 0.292653 0
270 1 0.48129 0.298921 0
271 1 0.0154647 0.314225 0
272 1 0.0388449 0.322772 0
301 1 0.0213104 0.338688 0
303 1 0.0431298 0.347729 0
275 1 0.0584899 0.306439 0
276 1 0.0821741 0.317791 0
274 1 0.0623703 0.332258 0
305 1 0.0878303 0.342297 0
246 1 0.100955 0.302074 0
279 1 0.125544 0.310337 0
277 1 0.105801 0.325501 0
278 1 0.13088 0.335426 0
280 1 0.149373 0.318427 0
281 1 0.169131 0.303149 0
311 1 0.15545 0.343271 0
283 1 0.192987 0.311204 0
282 1 0.173586 0.328045 0
313 1 0.197255 0.336073 0
285 1 0.23472 0.301157 0
284 1 0.216911 0.319154 0
315 1 0.220397 0.343676 0
286 1 0.240054 0.326509 0
287 1 0.259745 0.307392 0
288 1 0.283287 0.314365 0
317 1 0.264386 0.332266 0
319 1 0.288168 0.338412 0
291 1 0.325079 0.302818 0
290 1 0.307644 0.319982 0
321 1 0.314709 0.343938 0
292 1 0.332015 0.326305 0
323 1 0.349757 0.308521 0
322 1 0.337781 0.350187 0
294 1 0.373027 0.315062 0
324 1 0.355675 0.332571 0
325 1 0.379397 0.340183 0
296 1 0.39685 0.321999 0
326 1 0.403501 0.345756 0
297 1 0.415555 0.303675 0
298 1 0.439416 0.311048 0
327 1 0.420148 0.327233 0
328 1 0.446501 0.334395 0
299 1 0.463489 0.316718 0
300 1 0.487627 0.32278 0
329 1 0.470677 0.340976 0
1201 1 0.494139 0.346686 0
331 1 0.0072066 0.379307 0
302 1 0.0253836 0.363441 0
332 1 0.0304793 0.388886 0
333 1 0.0497292 0.37238 0
1230 1 0.00119372 0.353865 0
334 1 0.0545519 0.39688 0
304 1 0.067759 0.355908 0
306 1 0.0927453 0.366866 0
335 1 0.0722152 0.380422 0
337 1 0.0968615 0.391216 0
307 1 0.112289 0.351689 0
309 1 0.136838 0.360722 0
308 1 0.117405 0.376016 0
339 1 0.141702 0.384564 0
338 1 0.121887 0.400802 0
312 1 0.178629 0.352267 0
310 1 0.160517 0.369551 0
341 1 0.165153 0.394123 0
343 1 0.183988 0.377625 0
316 1 0.244931 0.350425 0
314 1 0.202469 0.361126 0
345 1 0.227397 0.36803 0
344 1 0.207493 0.386068 0
375 1 0.233614 0.392452 0
346 1 0.251635 0.374776 0
318 1 0.268827 0.355993 0
349 1 0.296614 0.36286 0
347 1 0.276418 0.380403 0
350 1 0.300737 0.387156 0
377 1 0.258533 0.398029 0
320 1 0.320097 0.368124 0
351 1 0.343541 0.373797 0
381 1 0.324717 0.392506 0
352 1 0.348848 0.397703 0
353 1 0.361859 0.356816 0
355 1 0.386074 0.364123 0
354 1 0.367952 0.380872 0
385 1 0.392941 0.387604 0
357 1 0.427874 0.351328 0
356 1 0.409741 0.369159 0
387 1 0.434001 0.374626 0
386 1 0.416062 0.393778 0
388 1 0.439769 0.399217 0
359 1 0.452259 0.3583 0
358 1 0.457706 0.381748 0
330 1 0.476206 0.366153 0
360 1 0.482698 0.38897 0
361 1 0.0113573 0.404239 0
363 1 0.0349848 0.413819 0
362 1 0.0165451 0.429309 0
364 1 0.0394472 0.438235 0
336 1 0.0771918 0.407139 0
365 1 0.0592471 0.422585 0
395 1 0.0636323 0.447601 0
367 1 0.102675 0.415778 0
366 1 0.107983 0.441059 0
369 1 0.127302 0.42438 0
340 1 0.146017 0.409983 0
370 1 0.150006 0.435487 0
342 1 0.188479 0.401939 0
371 1 0.169127 0.418788 0
401 1 0.173541 0.44246 0
372 1 0.193077 0.427442 0
373 1 0.213873 0.409749 0
374 1 0.217498 0.43402 0
376 1 0.237787 0.41763 0
405 1 0.241343 0.442006 0
348 1 0.281739 0.405136 0
407 1 0.273942 0.445531 0
378 1 0.263471 0.422586 0
409 1 0.290228 0.428283 0
379 1 0.307013 0.411615 0
380 1 0.314332 0.434871 0
382 1 0.331334 0.416257 0
411 1 0.337595 0.440315 0
413 1 0.354707 0.421269 0
383 1 0.373895 0.404181 0
414 1 0.379913 0.429416 0
412 1 0.361843 0.445248 0
384 1 0.39804 0.412992 0
415 1 0.405202 0.436202 0
417 1 0.421247 0.417792 0
416 1 0.428765 0.441659 0
419 1 0.44589 0.42432 0
389 1 0.463318 0.406279 0
418 1 0.471179 0.430981 0
390 1 0.487477 0.413721 0
420 1 0.496461 0.437586 0
447 1 0.452647 0.448605 0
393 1 0.0190938 0.453318 0
422 1 0.00395704 0.494405 0
423 1 0.0237291 0.47833 0
394 1 0.0427394 0.462305 0
425 1 0.0489109 0.486564 0
397 1 0.0882992 0.455225 0
396 1 0.0684006 0.470848 0
426 1 0.0714017 0.496142 0
427 1 0.09154 0.481155 0
368 1 0.1305 0.450277 0
398 1 0.11145 0.466366 0
428 1 0.115514 0.490676 0
429 1 0.134765 0.475281 0
459 1 0.138825 0.500215 0
403 1 0.197247 0.453352 0
399 1 0.153964 0.459675 0
400 1 0.177009 0.468956 0
430 1 0.158599 0.484965 0
431 1 0.181168 0.495575 0
404 1 0.221172 0.459494 0
402 1 0.200433 0.480191 0
432 1 0.221894 0.493242 0
433 1 0.238928 0.477022 0
435 1 0.256731 0.461767 0
436 1 0.262545 0.48631 0
406 1 0.279911 0.469776 0
437 1 0.28693 0.493852 0
408 1 0.298653 0.451848 0
439 1 0.303869 0.476144 0
410 1 0.321732 0.457923 0
440 1 0.327367 0.483527 0
441 1 0.345659 0.465028 0
471 1 0.350619 0.491044 0
472 1 0.374828 0.496532 0
442 1 0.368515 0.472198 0
473 1 0.392217 0.477919 0
443 1 0.385018 0.452986 0
444 1 0.416381 0.484402 0
477 1 0.441146 0.490192 0
446 1 0.435905 0.466227 0
445 1 0.410079 0.46072 0
449 1 0.476097 0.455835 0
450 1 0.483472 0.480116 0
448 1 0.45952 0.473279 0
478 1 0.464849 0.498045 0
453 1 0.00958837 0.519125 0
452 1 0.0128779 0.542656 0
454 1 0.0332543 0.52669 0
424 1 0.0278977 0.501463 0
485 1 0.0563907 0.535465 0
455 1 0.0522778 0.511597 0
456 1 0.0763767 0.521151 0
486 1 0.0794948 0.546685 0
457 1 0.096063 0.505051 0
487 1 0.0994928 0.529996 0
458 1 0.119678 0.516236 0
488 1 0.121573 0.542175 0
489 1 0.141266 0.525844 0
462 1 0.181872 0.522126 0
491 1 0.162886 0.536894 0
460 1 0.160731 0.511238 0
492 1 0.186375 0.548002 0
461 1 0.202585 0.508793 0
493 1 0.206381 0.533277 0
463 1 0.225888 0.518763 0
495 1 0.230904 0.543328 0
434 1 0.244387 0.502728 0
464 1 0.251017 0.527457 0
466 1 0.273974 0.536084 0
465 1 0.268636 0.511098 0
467 1 0.291459 0.519118 0
497 1 0.298042 0.54354 0
468 1 0.316469 0.525939 0
469 1 0.3336 0.50815 0
499 1 0.339958 0.532009 0
438 1 0.309687 0.501385 0
470 1 0.357601 0.514945 0
503 1 0.381671 0.521046 0
505 1 0.387266 0.544571 0
501 1 0.362997 0.540188 0
474 1 0.399142 0.502327 0
476 1 0.406049 0.526333 0
509 1 0.429263 0.533105 0
475 1 0.423415 0.508692 0
507 1 0.447946 0.514826 0
479 1 0.470792 0.521405 0
480 1 0.453813 0.539908 0
1381 1 0.496572 0.526982 0
510 1 0.478514 0.544455 0
1351 1 0.489355 0.50363 0
483 1 0.0356279 0.551404 0
513 1 0.015416 0.566897 0
514 1 0.0382024 0.576435 0
512 1 0.0181152 0.590937 0
484 1 0.0590003 0.561497 0
515 1 0.0809336 0.571938 0
545 1 0.0610181 0.586867 0
516 1 0.0848445 0.596926 0
490 1 0.144027 0.551929 0
517 1 0.100534 0.556961 0
518 1 0.104462 0.58157 0
519 1 0.123931 0.567027 0
549 1 0.127431 0.592098 0
520 1 0.146953 0.576783 0
521 1 0.166627 0.56293 0
522 1 0.170675 0.588223 0
523 1 0.192328 0.572818 0
553 1 0.194185 0.597373 0
494 1 0.210662 0.557199 0
524 1 0.215241 0.582873 0
525 1 0.235623 0.567447 0
555 1 0.238299 0.593131 0
496 1 0.254752 0.552173 0
526 1 0.259052 0.577701 0
527 1 0.278744 0.561282 0
528 1 0.283958 0.586624 0
498 1 0.3214 0.551196 0
529 1 0.302435 0.567819 0
500 1 0.345554 0.557309 0
530 1 0.327409 0.575278 0
559 1 0.30689 0.594738 0
561 1 0.333179 0.599673 0
531 1 0.351664 0.582257 0
502 1 0.36889 0.563895 0
504 1 0.393115 0.570024 0
533 1 0.374749 0.588368 0
534 1 0.399496 0.593303 0
506 1 0.41014 0.550557 0
535 1 0.417228 0.575983 0
508 1 0.435926 0.556701 0
537 1 0.441815 0.580729 0
539 1 0.460053 0.562383 0
540 1 0.484705 0.570119 0
538 1 0.465584 0.58731 0
569 1 0.492266 0.593906 0
543 1 0.0417708 0.600865 0
542 1 0.0213853 0.61484 0
573 1 0.022144 0.639861 0
544 1 0.0439853 0.624823 0
571 1 2.74441e-05 0.630815 0
574 1 0.0457477 0.649742 0
546 1 0.0641309 0.610457 0
547 1 0.0870268 0.620763 0
575 1 0.0674235 0.635263 0
576 1 0.0904151 0.64547 0
548 1 0.107939 0.60611 0
550 1 0.129471 0.617804 0
577 1 0.110296 0.631327 0
579 1 0.133191 0.642409 0
551 1 0.149955 0.601839 0
581 1 0.153281 0.627162 0
552 1 0.174436 0.612558 0
582 1 0.176427 0.637451 0
583 1 0.197862 0.621916 0
584 1 0.199571 0.64727 0
554 1 0.219447 0.608535 0
556 1 0.242583 0.618824 0
585 1 0.220876 0.633325 0
586 1 0.243313 0.643258 0
557 1 0.262797 0.603614 0
587 1 0.267027 0.628063 0
558 1 0.288462 0.612782 0
589 1 0.291727 0.639801 0
560 1 0.313573 0.618888 0
591 1 0.317801 0.643073 0
562 1 0.337345 0.625277 0
593 1 0.345512 0.648652 0
532 1 0.357145 0.607773 0
563 1 0.380895 0.613115 0
564 1 0.3634 0.631876 0
595 1 0.388544 0.637165 0
536 1 0.424116 0.599812 0
565 1 0.405697 0.618047 0
566 1 0.430413 0.624123 0
596 1 0.413982 0.642703 0
598 1 0.43911 0.648527 0
567 1 0.448196 0.606077 0
597 1 0.455677 0.629527 0
568 1 0.473331 0.611398 0
570 1 0.481223 0.636249 0
1442 1 0.498414 0.616736 0
572 1 0.00276616 0.655891 0
603 1 0.0256948 0.663795 0
602 1 0.00495595 0.680166 0
633 1 0.029746 0.689445 0
604 1 0.048994 0.67547 0
605 1 0.0697433 0.659918 0
606 1 0.072304 0.685137 0
607 1 0.0926869 0.670235 0
637 1 0.0953991 0.695405 0
635 1 0.0521631 0.700309 0
578 1 0.112155 0.65631 0
609 1 0.135026 0.667284 0
608 1 0.115736 0.681412 0
639 1 0.138948 0.691891 0
580 1 0.1566 0.653258 0
611 1 0.179588 0.66199 0
610 1 0.157831 0.677571 0
612 1 0.180841 0.686888 0
613 1 0.201028 0.672307 0
615 1 0.22203 0.657473 0
614 1 0.223523 0.682493 0
643 1 0.204286 0.696594 0
617 1 0.244066 0.668502 0
616 1 0.246664 0.693485 0
588 1 0.26647 0.652314 0
619 1 0.289935 0.685887 0
618 1 0.266502 0.676615 0
590 1 0.303737 0.66382 0
621 1 0.313034 0.686829 0
592 1 0.328808 0.666824 0
622 1 0.338203 0.691403 0
623 1 0.354995 0.671806 0
594 1 0.371656 0.654816 0
624 1 0.380309 0.677702 0
653 1 0.363972 0.695813 0
625 1 0.397049 0.660866 0
627 1 0.421689 0.666176 0
626 1 0.405475 0.684488 0
657 1 0.429559 0.689631 0
628 1 0.447368 0.67199 0
599 1 0.463564 0.653506 0
600 1 0.487821 0.659006 0
629 1 0.471611 0.677277 0
630 1 0.496171 0.683857 0
658 1 0.454094 0.695679 0
632 1 0.00900781 0.703933 0
634 1 0.0316468 0.713474 0
663 1 0.010913 0.729132 0
664 1 0.0340656 0.738114 0
636 1 0.0746261 0.710192 0
665 1 0.055228 0.724803 0
666 1 0.0785154 0.734191 0
695 1 0.0595361 0.748841 0
667 1 0.0979173 0.720124 0
668 1 0.101505 0.745413 0
638 1 0.117789 0.70623 0
640 1 0.141922 0.717012 0
669 1 0.121394 0.730576 0
670 1 0.143246 0.742618 0
641 1 0.162144 0.703073 0
642 1 0.184322 0.713001 0
671 1 0.164149 0.728705 0
673 1 0.186529 0.739236 0
645 1 0.226148 0.70827 0
644 1 0.206397 0.72267 0
675 1 0.229383 0.734401 0
674 1 0.20925 0.749929 0
646 1 0.2498 0.718954 0
677 1 0.251509 0.743107 0
647 1 0.269725 0.702965 0
648 1 0.272641 0.728025 0
679 1 0.295803 0.73595 0
649 1 0.294497 0.711585 0
620 1 0.321868 0.709489 0
651 1 0.345609 0.714521 0
650 1 0.330083 0.732642 0
655 1 0.388804 0.701019 0
652 1 0.354906 0.738334 0
654 1 0.371366 0.719743 0
685 1 0.395774 0.726382 0
683 1 0.378266 0.744914 0
656 1 0.413261 0.708157 0
687 1 0.437321 0.714193 0
686 1 0.419528 0.732162 0
717 1 0.444231 0.738207 0
659 1 0.478289 0.701666 0
689 1 0.460201 0.719954 0
660 1 0.484338 0.726251 0
688 1 0.468225 0.744382 0
662 1 0.0153372 0.753711 0
694 1 0.0382624 0.762049 0
693 1 0.018594 0.777716 0
725 1 0.0411334 0.787691 0
697 1 0.0807631 0.759748 0
696 1 0.0616761 0.774112 0
727 1 0.0841049 0.785149 0
726 1 0.0637069 0.799186 0
699 1 0.12447 0.75764 0
698 1 0.104946 0.772242 0
700 1 0.12713 0.782947 0
728 1 0.107309 0.796337 0
701 1 0.147953 0.768784 0
731 1 0.150557 0.793904 0
672 1 0.166115 0.752578 0
703 1 0.189803 0.765261 0
702 1 0.170244 0.778869 0
704 1 0.191853 0.789698 0
676 1 0.231582 0.759013 0
705 1 0.212843 0.774778 0
706 1 0.234998 0.785457 0
707 1 0.255043 0.769985 0
678 1 0.274379 0.753315 0
709 1 0.276908 0.78048 0
680 1 0.295809 0.765305 0
737 1 0.257431 0.795974 0
710 1 0.300899 0.790413 0
681 1 0.315113 0.750958 0
682 1 0.338178 0.756965 0
711 1 0.319702 0.774597 0
712 1 0.343877 0.783108 0
741 1 0.324863 0.799535 0
713 1 0.361189 0.763561 0
714 1 0.386276 0.768802 0
743 1 0.368637 0.786191 0
745 1 0.392629 0.793559 0
684 1 0.403776 0.750496 0
715 1 0.427473 0.75698 0
716 1 0.409962 0.776015 0
747 1 0.434237 0.781299 0
746 1 0.417154 0.799284 0
690 1 0.492255 0.750892 0
718 1 0.452729 0.763618 0
719 1 0.476062 0.769112 0
720 1 0.482401 0.793287 0
749 1 0.458264 0.788799 0
1680 1 0.00287405 0.844692 0
723 1 0.0187716 0.803467 0
722 1 0.0220402 0.828037 0
724 1 0.0416305 0.81217 0
754 1 0.0446283 0.836626 0
757 1 0.0849884 0.810474 0
755 1 0.0658556 0.823653 0
756 1 0.087945 0.837072 0
785 1 0.0672527 0.849754 0
729 1 0.129587 0.808484 0
759 1 0.107627 0.821947 0
760 1 0.129753 0.833399 0
758 1 0.109401 0.848157 0
730 1 0.153121 0.819029 0
761 1 0.155423 0.845997 0
732 1 0.173249 0.804887 0
763 1 0.1753 0.830337 0
733 1 0.195505 0.815663 0
764 1 0.197394 0.841241 0
735 1 0.214299 0.79991 0
736 1 0.236209 0.809794 0
734 1 0.217697 0.825365 0
767 1 0.240604 0.836352 0
708 1 0.281043 0.805455 0
738 1 0.260021 0.820473 0
769 1 0.2828 0.829908 0
768 1 0.263806 0.844962 0
739 1 0.304265 0.814415 0
740 1 0.30565 0.838504 0
771 1 0.331909 0.828753 0
742 1 0.349751 0.806271 0
773 1 0.356043 0.829983 0
744 1 0.374115 0.810554 0
774 1 0.38068 0.835478 0
775 1 0.398993 0.817565 0
748 1 0.440943 0.80609 0
777 1 0.423533 0.823874 0
776 1 0.403871 0.842953 0
779 1 0.447425 0.829961 0
778 1 0.428667 0.847824 0
750 1 0.465498 0.813137 0
1621 1 0.4893 0.817185 0
780 1 0.472308 0.836451 0
1651 1 0.497344 0.841112 0
753 1 0.0450919 0.860063 0
752 1 0.0206324 0.864195 0
783 1 0.037726 0.883307 0
782 1 0.0131289 0.887112 0
784 1 0.064445 0.874297 0
786 1 0.0801626 0.892173 0
787 1 0.0896128 0.863895 0
815 1 0.0557599 0.899381 0
817 1 0.103666 0.883476 0
789 1 0.133357 0.856998 0
788 1 0.128458 0.880139 0
790 1 0.146668 0.896813 0
791 1 0.151408 0.872074 0
762 1 0.175861 0.86181 0
793 1 0.170474 0.887349 0
795 1 0.193784 0.881166 0
765 1 0.220262 0.852177 0
796 1 0.219604 0.877052 0
825 1 0.236547 0.895091 0
766 1 0.244596 0.871655 0
797 1 0.271485 0.868223 0
827 1 0.261773 0.890958 0
798 1 0.2874 0.886286 0
799 1 0.294982 0.861677 0
772 1 0.343741 0.85109 0
770 1 0.320282 0.857916 0
800 1 0.311334 0.880874 0
801 1 0.337139 0.874759 0
831 1 0.329464 0.897902 0
802 1 0.354055 0.894486 0
803 1 0.360876 0.868557 0
804 1 0.379647 0.887137 0
805 1 0.38461 0.859957 0
807 1 0.411126 0.867005 0
808 1 0.437091 0.871429 0
837 1 0.44442 0.897519 0
809 1 0.45412 0.853454 0
1681 1 0.479492 0.860451 0
1711 1 0.486611 0.883922 0
810 1 0.460974 0.878475 0
813 1 0.0313337 0.905995 0
843 1 0.0235734 0.929254 0
844 1 0.041404 0.946323 0
812 1 0.00611264 0.911646 0
814 1 0.0490902 0.923159 0
841 1 -0.0013044 0.935294 0
816 1 0.0974744 0.908968 0
845 1 0.0731744 0.916333 0
846 1 0.0651742 0.940443 0
847 1 0.0893437 0.933205 0
819 1 0.122176 0.904078 0
818 1 0.113561 0.92796 0
820 1 0.132687 0.945015 0
821 1 0.13999 0.921241 0
792 1 0.163906 0.913168 0
851 1 0.157519 0.938649 0
823 1 0.187873 0.906256 0
822 1 0.181644 0.931989 0
794 1 0.21172 0.900935 0
824 1 0.204931 0.924961 0
885 1 0.222483 0.944279 0
855 1 0.229985 0.919575 0
856 1 0.247426 0.939634 0
826 1 0.254195 0.91494 0
857 1 0.271404 0.934698 0
828 1 0.278619 0.909123 0
859 1 0.295538 0.928538 0
829 1 0.303499 0.905134 0
830 1 0.321882 0.921291 0
861 1 0.339089 0.940784 0
860 1 0.314639 0.946298 0
832 1 0.346748 0.917451 0
863 1 0.363533 0.936622 0
833 1 0.372178 0.910991 0
834 1 0.389278 0.930081 0
806 1 0.396525 0.906746 0
835 1 0.415691 0.925335 0
836 1 0.43297 0.944898 0
865 1 0.40653 0.948484 0
838 1 0.44923 0.924657 0
869 1 0.460086 0.946539 0
839 1 0.468689 0.903656 0
840 1 0.474838 0.926775 0
1712 1 0.493804 0.908055 0
842 1 0.017205 0.952864 0
872 1 0.0277007 0.993742 0
873 1 0.0338036 0.97001 0
871 1 0.0105787 0.977406 0
874 1 0.0515913 0.98803 0
875 1 0.0580096 0.964364 0
876 1 0.0759451 0.98143 0
848 1 0.0833372 0.958605 0
877 1 0.0992447 0.976738 0
849 1 0.106979 0.951776 0
878 1 0.117785 0.993304 0
879 1 0.123221 0.969223 0
881 1 0.14257 0.98621 0
850 1 0.149254 0.963028 0
882 1 0.183793 1.00037 0
853 1 0.174512 0.957681 0
852 1 0.166754 0.980539 0
883 1 0.191621 0.975955 0
854 1 0.198462 0.951612 0
13 1 0.20931 0.994093 0
15 1 0.232736 0.98825 0
884 1 0.215441 0.970033 0
886 1 0.238995 0.963321 0
858 1 0.289289 0.953702 0
887 1 0.265153 0.958192 0
17 1 0.256379 0.981985 0
888 1 0.280919 0.976875 0
19 1 0.299418 0.995109 0
889 1 0.307525 0.970158 0
890 1 0.324174 0.989846 0
891 1 0.332329 0.965534 0
892 1 0.349178 0.984223 0
862 1 0.356234 0.96114 0
864 1 0.380782 0.954526 0
893 1 0.373654 0.979366 0
895 1 0.397305 0.974187 0
894 1 0.389585 0.999075 0
867 1 0.444543 0.967372 0
866 1 0.420563 0.967968 0
896 1 0.419043 0.992988 0
870 1 0.485786 0.9503 0
899 1 0.477705 0.993738 0
868 1 0.469797 0.97009 0
897 1 0.452623 0.990561 0
1771 1 0.493427 0.975213 0
902 1 0.537353 0.0259541 0
901 1 0.512285 0.0207763 0
931 1 0.521332 0.0444286 0
903 1 0.528993 0.00298544 0
933 1 0.545602 0.049184 0
904 1 0.562417 0.0316043 0
906 1 0.5794 0.0137861 0
935 1 0.586802 0.036656 0
905 1 0.554741 0.00780567 0
908 1 0.603067 0.0196208 0
937 1 0.611943 0.0426863 0
939 1 0.62778 0.0251312 0
910 1 0.642784 0.00615132 0
938 1 0.635981 0.0493055 0
909 1 0.619237 0.000147806 0
941 1 0.651292 0.0296039 0
912 1 0.667815 0.0128625 0
942 1 0.675536 0.0358212 0
943 1 0.691989 0.0182043 0
973 1 0.700809 0.0414338 0
944 1 0.71818 0.0229474 0
945 1 0.733613 0.00343308 0
946 1 0.74193 0.0269402 0
975 1 0.725871 0.0471175 0
947 1 0.757862 0.00933546 0
948 1 0.765172 0.0340581 0
918 1 0.782356 0.0162323 0
979 1 0.79165 0.0393227 0
949 1 0.807462 0.0190072 0
951 1 0.837358 0.0172987 0
950 1 0.824082 0.0381495 0
952 1 0.854752 0.0342321 0
953 1 0.862645 0.0103123 0
924 1 0.887477 0.00532008 0
954 1 0.879456 0.0282615 0
985 1 0.896417 0.047223 0
955 1 0.904127 0.0230775 0
926 1 0.928408 0.0173883 0
957 1 0.945147 0.0365465 0
956 1 0.920806 0.0420121 0
928 1 0.952545 0.0128584 0
959 1 0.970712 0.0314821 0
930 1 0.995111 0.0256046 0
929 1 0.976544 0.00757095 0
960 1 0.987749 0.0488609 0
932 1 0.529177 0.0679633 0
962 1 0.536316 0.0909531 0
961 1 0.511731 0.0864551 0
60 1 0.504614 0.0624551 0
963 1 0.553382 0.07365 0
934 1 0.56943 0.0545019 0
965 1 0.577192 0.078871 0
936 1 0.594274 0.0599173 0
964 1 0.560874 0.0968535 0
966 1 0.601885 0.0842387 0
967 1 0.618325 0.0658882 0
968 1 0.625243 0.0896425 0
969 1 0.643283 0.0729725 0
999 1 0.651139 0.0962431 0
940 1 0.659965 0.0556786 0
970 1 0.668923 0.0787789 0
971 1 0.685084 0.0599664 0
972 1 0.692459 0.0834009 0
1003 1 0.710094 0.0656549 0
1004 1 0.717541 0.0896217 0
974 1 0.734933 0.0716538 0
1005 1 0.742419 0.0951217 0
976 1 0.750986 0.0530988 0
1007 1 0.760387 0.0772055 0
977 1 0.775115 0.0575737 0
978 1 0.799082 0.0630955 0
1008 1 0.784388 0.0829782 0
980 1 0.823066 0.063378 0
981 1 0.846538 0.0571836 0
1009 1 0.811472 0.0863959 0
1011 1 0.838038 0.0817081 0
982 1 0.86252 0.0760783 0
983 1 0.872196 0.052235 0
984 1 0.887492 0.0703882 0
1013 1 0.879807 0.0940636 0
1012 1 0.853451 0.0997197 0
1015 1 0.904691 0.0876763 0
986 1 0.911818 0.0647105 0
987 1 0.937918 0.059791 0
1017 1 0.928744 0.083829 0
988 1 0.954253 0.0775864 0
958 1 0.964038 0.0542697 0
989 1 0.979507 0.0721982 0
990 1 0.996498 0.0921781 0
1019 1 0.971231 0.0960608 0
991 1 0.520139 0.109293 0
992 1 0.526676 0.133091 0
993 1 0.544146 0.114839 0
120 1 0.502298 0.127061 0
1023 1 0.550313 0.138382 0
995 1 0.585678 0.103365 0
994 1 0.567789 0.121357 0
996 1 0.592226 0.127936 0
1025 1 0.574959 0.145405 0
997 1 0.609843 0.107368 0
998 1 0.633627 0.113671 0
1027 1 0.616374 0.132082 0
1029 1 0.641439 0.135963 0
1001 1 0.676765 0.102748 0
1000 1 0.659425 0.119885 0
1031 1 0.68233 0.12588 0
1030 1 0.665513 0.143151 0
1032 1 0.689529 0.148553 0
1002 1 0.700865 0.109285 0
1033 1 0.70817 0.132168 0
1035 1 0.725753 0.114226 0
1034 1 0.733067 0.13763 0
1036 1 0.750032 0.119359 0
1006 1 0.767221 0.101012 0
1037 1 0.774542 0.123893 0
1038 1 0.79801 0.13098 0
1067 1 0.758049 0.143878 0
1039 1 0.791733 0.106897 0
1010 1 0.82915 0.104483 0
1040 1 0.822825 0.12741 0
1041 1 0.847084 0.123265 0
1071 1 0.838451 0.148096 0
1043 1 0.871086 0.116829 0
1014 1 0.896416 0.112234 0
1044 1 0.88747 0.135783 0
1042 1 0.86428 0.141348 0
1018 1 0.946461 0.101516 0
1045 1 0.91228 0.131617 0
1016 1 0.919931 0.106694 0
1047 1 0.937778 0.124972 0
1077 1 0.929862 0.149183 0
1049 1 0.963108 0.118895 0
1020 1 0.988509 0.11461 0
1050 1 0.979484 0.138599 0
1046 1 0.954403 0.143801 0
1021 1 0.507979 0.150627 0
1022 1 0.533094 0.156213 0
1053 1 0.540396 0.180689 0
1051 1 0.51527 0.173919 0
1052 1 0.52059 0.197701 0
1026 1 0.599492 0.151693 0
1024 1 0.556751 0.162713 0
1055 1 0.580669 0.169146 0
1054 1 0.564017 0.18696 0
1056 1 0.589377 0.191351 0
1028 1 0.624867 0.155229 0
1057 1 0.607921 0.175661 0
1058 1 0.631043 0.179748 0
1059 1 0.6492 0.161255 0
1087 1 0.614538 0.198769 0
1060 1 0.655845 0.184473 0
1061 1 0.674238 0.167177 0
1091 1 0.68028 0.191401 0
1062 1 0.698306 0.173321 0
1063 1 0.714884 0.155445 0
1064 1 0.723688 0.179417 0
1095 1 0.747279 0.186754 0
1065 1 0.740934 0.161905 0
1093 1 0.705228 0.197103 0
1068 1 0.783373 0.149806 0
1066 1 0.765361 0.168762 0
1097 1 0.772308 0.193651 0
1099 1 0.789967 0.173985 0
1098 1 0.796171 0.198509 0
1069 1 0.812426 0.153034 0
1070 1 0.831724 0.173019 0
1101 1 0.848859 0.191139 0
1100 1 0.821713 0.197557 0
1072 1 0.855043 0.165486 0
1073 1 0.879175 0.161032 0
1103 1 0.872137 0.184695 0
1074 1 0.896691 0.178713 0
1075 1 0.903387 0.155399 0
1076 1 0.922151 0.173437 0
1107 1 0.939097 0.191236 0
1078 1 0.946465 0.167464 0
1105 1 0.91346 0.197093 0
1048 1 0.971584 0.161786 0
151 1 0.996171 0.157134 0
1079 1 0.987455 0.180581 0
1109 1 0.963143 0.185772 0
1083 1 0.545474 0.203807 0
1082 1 0.527177 0.220901 0
1111 1 0.510696 0.240274 0
1113 1 0.535545 0.245743 0
1081 1 0.50306 0.216346 0
1084 1 0.552126 0.227588 0
1085 1 0.569753 0.21073 0
1086 1 0.59639 0.215753 0
1115 1 0.57902 0.232867 0
1117 1 0.602386 0.239449 0
1089 1 0.639889 0.203216 0
1088 1 0.622112 0.221111 0
1119 1 0.645671 0.227241 0
1118 1 0.627974 0.244964 0
1090 1 0.66347 0.209477 0
1092 1 0.687542 0.214519 0
1121 1 0.670215 0.233259 0
1122 1 0.693699 0.240278 0
1094 1 0.729368 0.204151 0
1123 1 0.711447 0.222317 0
1124 1 0.718806 0.246794 0
1125 1 0.736675 0.229319 0
1096 1 0.753229 0.211521 0
1127 1 0.781468 0.217611 0
1126 1 0.761529 0.234067 0
1128 1 0.786795 0.240837 0
1131 1 0.839658 0.21392 0
1129 1 0.808759 0.222134 0
1130 1 0.832477 0.238587 0
1159 1 0.811296 0.248899 0
1102 1 0.865541 0.209015 0
1104 1 0.889675 0.203379 0
1132 1 0.85699 0.232255 0
1133 1 0.882609 0.228338 0
1134 1 0.898858 0.24651 0
1135 1 0.906857 0.221806 0
1106 1 0.932542 0.216144 0
1136 1 0.922825 0.240721 0
1137 1 0.948007 0.234712 0
181 1 0.997797 0.223967 0
1108 1 0.956062 0.210969 0
1110 1 0.980793 0.204745 0
1139 1 0.972037 0.228816 0
1140 1 0.989081 0.24723 0
1112 1 0.517206 0.263471 0
1143 1 0.542254 0.27033 0
1142 1 0.523562 0.287075 0
1144 1 0.549458 0.29344 0
1141 1 0.499358 0.281558 0
1114 1 0.560094 0.250989 0
1116 1 0.584352 0.257242 0
1145 1 0.567761 0.275255 0
1146 1 0.59228 0.280093 0
1175 1 0.575166 0.298941 0
1147 1 0.611043 0.263147 0
1149 1 0.634311 0.269101 0
1148 1 0.616152 0.286465 0
1179 1 0.641192 0.292679 0
1120 1 0.652753 0.250631 0
1151 1 0.676186 0.257898 0
1150 1 0.658664 0.275386 0
1152 1 0.68284 0.281688 0
1181 1 0.66517 0.299397 0
1153 1 0.700395 0.263288 0
1155 1 0.743885 0.252832 0