ITEM: TIMESTEP
90000
ITEM: NUMBER OF ATOMS
1800
ITEM: BOX BOUNDS pp pp pp
3.0763686165087307e+00 1.5532363138348774e+02
3.0763686165087307e+00 1.5532363138348774e+02
0.0000000000000000e+00 5.2800000000000002e+00
ITEM: ATOMS id type xs ys zs
2 1 0.0162644 0.0190118 0
3 1 0.0403466 0.0130245 0
33 1 0.0348415 0.0368399 0
31 1 0.00950276 0.0431653 0
4 1 0.058864 0.0296438 0
6 1 0.0823272 0.0220041 0
5 1 0.0645735 0.00608678 0
35 1 0.0755928 0.0480371 0
37 1 0.0996614 0.0399585 0
8 1 0.108419 0.0168784 0
9 1 0.125407 0.033971 0
880 1 0.133475 0.0109164 0
10 1 0.151064 0.0285823 0
11 1 0.15809 0.00419364 0
12 1 0.17433 0.0228722 0
43 1 0.19316 0.0410007 0
41 1 0.167701 0.0468825 0
14 1 0.199731 0.0162472 0
44 1 0.21882 0.0360947 0
45 1 0.224561 0.0119986 0
46 1 0.243207 0.0311641 0
16 1 0.247493 0.00544797 0
47 1 0.26657 0.0248174 0
49 1 0.290347 0.0199188 0
48 1 0.283317 0.0446442 0
18 1 0.27173 0.00119962 0
50 1 0.306933 0.0371464 0
20 1 0.314311 0.0129153 0
51 1 0.331197 0.0311196 0
21 1 0.337893 0.00666212 0
52 1 0.347473 0.0499956 0
22 1 0.355554 0.0254886 0
24 1 0.381782 0.0209545 0
53 1 0.371662 0.0437535 0
23 1 0.36589 0.00199955 0
55 1 0.39835 0.0383733 0
25 1 0.40815 0.0142094 0
26 1 0.423796 0.0357356 0
27 1 0.435066 0.0138937 0
28 1 0.44779 0.0368124 0
30 1 0.496525 0.0384904 0
898 1 0.460005 0.0149753 0
29 1 0.485844 0.0174662 0
59 1 0.471698 0.0383115 0
32 1 0.0264001 0.0604347 0
62 1 0.0196103 0.0851186 0
63 1 0.0432615 0.0777799 0
61 1 0.00105153 0.0665122 0
34 1 0.0518376 0.0542555 0
65 1 0.0688267 0.0715079 0
66 1 0.0866934 0.0888551 0
36 1 0.0931359 0.0639465 0
64 1 0.0621446 0.0949471 0
39 1 0.142048 0.052055 0
38 1 0.11715 0.057991 0
67 1 0.111006 0.0815956 0
69 1 0.135913 0.0757508 0
70 1 0.152187 0.0941849 0
40 1 0.161096 0.0701632 0
71 1 0.176002 0.0894351 0
42 1 0.185735 0.0651488 0
72 1 0.201798 0.0836801 0
73 1 0.210966 0.058391 0
74 1 0.22601 0.0785989 0
75 1 0.235074 0.0558567 0
106 1 0.242182 0.0978801 0
77 1 0.258828 0.049635 0
76 1 0.251758 0.0731468 0
78 1 0.275177 0.0681356 0
109 1 0.291163 0.0853445 0
107 1 0.267754 0.0924906 0
79 1 0.300338 0.0628169 0
80 1 0.316495 0.0820402 0
81 1 0.323155 0.0556661 0
82 1 0.339061 0.0742092 0
111 1 0.334988 0.0998286 0
83 1 0.364096 0.0687179 0
113 1 0.37907 0.089375 0
54 1 0.389594 0.0639282 0
56 1 0.413459 0.0576563 0
57 1 0.437291 0.0588014 0
85 1 0.421875 0.0804727 0
87 1 0.445153 0.0861977 0
84 1 0.403644 0.0961076 0
88 1 0.469772 0.0938771 0
58 1 0.459871 0.0665866 0
89 1 0.486001 0.0764951 0
93 1 0.036972 0.10171 0
92 1 0.0291735 0.125278 0
91 1 0.0119944 0.107735 0
121 1 0.00393864 0.131012 0
123 1 0.0464253 0.142342 0
122 1 0.0221622 0.149417 0
94 1 0.0532847 0.11887 0
95 1 0.0785538 0.113598 0
125 1 0.0714786 0.137018 0
96 1 0.0950382 0.1318 0
68 1 0.128101 0.099505 0
97 1 0.102598 0.107306 0
98 1 0.119235 0.125231 0
99 1 0.143048 0.119278 0
129 1 0.134997 0.143047 0
127 1 0.112066 0.149697 0
100 1 0.169095 0.112671 0
130 1 0.16213 0.136881 0
131 1 0.184599 0.130371 0
101 1 0.194612 0.1071 0
103 1 0.218015 0.102474 0
133 1 0.201193 0.148468 0
102 1 0.212682 0.127058 0
105 1 0.235856 0.122319 0
104 1 0.232033 0.146266 0
136 1 0.255553 0.141789 0
135 1 0.260207 0.116109 0
137 1 0.278336 0.131296 0
108 1 0.293198 0.111802 0
139 1 0.301609 0.136194 0
110 1 0.31834 0.11863 0
141 1 0.343707 0.125958 0
140 1 0.326724 0.143812 0
142 1 0.350509 0.150579 0
112 1 0.360461 0.107608 0
114 1 0.385569 0.113774 0
143 1 0.368137 0.130456 0
144 1 0.392495 0.138501 0
86 1 0.427626 0.104283 0
115 1 0.410521 0.121209 0
116 1 0.434546 0.128696 0
145 1 0.416037 0.147043 0
117 1 0.452089 0.110704 0
90 1 0.494007 0.100913 0
118 1 0.458547 0.135079 0
119 1 0.476291 0.118203 0
149 1 0.482152 0.141871 0
120 1 0.500413 0.12395 0
153 1 0.0392631 0.166511 0
152 1 0.0131137 0.172814 0
183 1 0.0311755 0.189311 0
1080 1 0.00670763 0.197332 0
124 1 0.0629957 0.160493 0
126 1 0.0871841 0.15526 0
155 1 0.0789493 0.178147 0
154 1 0.055642 0.185226 0
156 1 0.0961584 0.197231 0
128 1 0.130307 0.16746 0
157 1 0.104686 0.173505 0
160 1 0.147709 0.185102 0
158 1 0.122708 0.190635 0
132 1 0.177959 0.155497 0
159 1 0.153857 0.160865 0
161 1 0.171039 0.178588 0
162 1 0.187003 0.195349 0
163 1 0.196314 0.173225 0
134 1 0.218576 0.165431 0
164 1 0.228161 0.186879 0
165 1 0.243888 0.167611 0
166 1 0.251788 0.192765 0
167 1 0.268113 0.172942 0
138 1 0.284106 0.154511 0
168 1 0.2928 0.179884 0
197 1 0.27609 0.198734 0
169 1 0.30889 0.161021 0
171 1 0.333305 0.168573 0
170 1 0.316091 0.187046 0
201 1 0.338848 0.192973 0
172 1 0.356402 0.175744 0
173 1 0.374127 0.15555 0
174 1 0.380696 0.18077 0
175 1 0.398345 0.164039 0
203 1 0.363279 0.199964 0
147 1 0.439532 0.153069 0
146 1 0.421323 0.171793 0
205 1 0.40498 0.189233 0
176 1 0.429613 0.193603 0
177 1 0.447522 0.177127 0
148 1 0.463766 0.158781 0
150 1 0.488168 0.166899 0
179 1 0.471285 0.184657 0
180 1 0.494974 0.190377 0
182 1 0.0234115 0.215959 0
213 1 0.0395151 0.234 0
211 1 0.0168682 0.240323 0
184 1 0.0478575 0.208808 0
181 1 -0.00120482 0.221285 0
185 1 0.0727181 0.201924 0
186 1 0.0886509 0.221837 0
215 1 0.0651242 0.226895 0
216 1 0.0824789 0.245507 0
187 1 0.113263 0.214467 0
188 1 0.129703 0.232601 0
189 1 0.139149 0.209759 0
217 1 0.106165 0.238373 0
191 1 0.164196 0.205078 0
190 1 0.153546 0.229783 0
192 1 0.191939 0.219481 0
221 1 0.176544 0.236135 0
223 1 0.198906 0.243667 0
193 1 0.209338 0.202891 0
194 1 0.215401 0.226566 0
195 1 0.233958 0.209288 0
225 1 0.2399 0.233335 0
196 1 0.258934 0.215503 0
198 1 0.282158 0.222905 0
227 1 0.26487 0.240553 0
228 1 0.289802 0.246614 0
199 1 0.299723 0.205267 0
200 1 0.323927 0.211431 0
229 1 0.307338 0.228588 0
231 1 0.331789 0.234619 0
202 1 0.347348 0.218049 0
204 1 0.385924 0.206022 0
233 1 0.370832 0.225586 0
235 1 0.39509 0.230263 0
232 1 0.354111 0.243817 0
234 1 0.378007 0.249363 0
207 1 0.435155 0.217796 0
206 1 0.419624 0.238405 0
237 1 0.444758 0.244989 0
178 1 0.453332 0.201658 0
208 1 0.459518 0.225973 0
209 1 0.478748 0.208677 0
210 1 0.485225 0.231636 0
212 1 0.00858965 0.26603 0
243 1 0.032849 0.258935 0
241 1 0.000786602 0.291539 0
242 1 0.0262387 0.284414 0
273 1 0.0438154 0.300544 0
214 1 0.0579274 0.251373 0
244 1 0.0498509 0.276485 0
245 1 0.0737412 0.269778 0
275 1 0.0678088 0.296486 0
247 1 0.0927671 0.286604 0
218 1 0.10058 0.263899 0
219 1 0.122563 0.255372 0
249 1 0.14199 0.27059 0
248 1 0.119009 0.280658 0
250 1 0.147344 0.294788 0
220 1 0.158503 0.252482 0
222 1 0.181873 0.260374 0
251 1 0.165623 0.278355 0
252 1 0.189263 0.285084 0
224 1 0.223192 0.250672 0
253 1 0.205442 0.268745 0
255 1 0.230473 0.274524 0
254 1 0.212901 0.291918 0
226 1 0.247823 0.257762 0
285 1 0.235656 0.29864 0
256 1 0.254152 0.283116 0
257 1 0.272194 0.264906 0
259 1 0.29469 0.270967 0
258 1 0.277694 0.289946 0
289 1 0.300502 0.295566 0
230 1 0.312688 0.253066 0
260 1 0.320028 0.276994 0
261 1 0.336905 0.260007 0
262 1 0.344742 0.284289 0
263 1 0.361372 0.266832 0
264 1 0.385726 0.273596 0
293 1 0.367496 0.291472 0
295 1 0.390649 0.297138 0
265 1 0.402831 0.255223 0
236 1 0.427291 0.262644 0
266 1 0.409183 0.279169 0
267 1 0.433258 0.286528 0
238 1 0.45168 0.269147 0
239 1 0.469219 0.249146 0
240 1 0.493378 0.2568 0
269 1 0.475499 0.274327 0
268 1 0.456575 0.292293 0
270 1 0.480775 0.298023 0
1141 1 0.499496 0.280702 0
271 1 0.0183862 0.309055 0
272 1 0.0403439 0.323701 0
301 1 0.0176302 0.333985 0
303 1 0.0475956 0.346572 0
276 1 0.0861491 0.313749 0
274 1 0.0651583 0.325869 0
305 1 0.0877589 0.340972 0
246 1 0.109203 0.302413 0
279 1 0.129945 0.312424 0
277 1 0.108253 0.325942 0
278 1 0.13113 0.335657 0
281 1 0.170371 0.301325 0
280 1 0.152468 0.318935 0
311 1 0.154666 0.342783 0
283 1 0.193524 0.309044 0
282 1 0.175825 0.326082 0
313 1 0.199535 0.332986 0
284 1 0.218267 0.31605 0
315 1 0.223188 0.341494 0
286 1 0.241573 0.323727 0
316 1 0.247352 0.348126 0
287 1 0.259634 0.306721 0
288 1 0.28447 0.313352 0
317 1 0.26549 0.330266 0
319 1 0.290201 0.338905 0
291 1 0.325151 0.301761 0
290 1 0.307601 0.319488 0
321 1 0.313521 0.34417 0
292 1 0.331606 0.32655 0
323 1 0.348346 0.308576 0
322 1 0.337124 0.350165 0
294 1 0.372189 0.315289 0
324 1 0.355 0.332337 0
325 1 0.380085 0.338451 0
296 1 0.397646 0.320977 0
326 1 0.40281 0.346853 0
297 1 0.415755 0.303948 0
298 1 0.439063 0.311239 0
327 1 0.421102 0.329267 0
328 1 0.445517 0.335147 0
299 1 0.462902 0.315856 0
300 1 0.487598 0.321725 0
1201 1 0.493163 0.345906 0
329 1 0.470041 0.340431 0
331 1 0.00451992 0.374449 0
302 1 0.0237938 0.359132 0
332 1 0.0279455 0.384908 0
333 1 0.0477698 0.370227 0
1230 1 -0.000974826 0.350265 0
334 1 0.0515709 0.394106 0
304 1 0.069343 0.356001 0
306 1 0.0924476 0.36507 0
335 1 0.0741752 0.381689 0
337 1 0.0967988 0.390277 0
307 1 0.112155 0.350378 0
309 1 0.136811 0.359264 0
308 1 0.116474 0.375054 0
339 1 0.141683 0.383253 0
338 1 0.120866 0.399945 0
312 1 0.178528 0.349794 0
310 1 0.160062 0.367091 0
341 1 0.166798 0.39066 0
343 1 0.185775 0.372611 0
342 1 0.19107 0.397103 0
314 1 0.204335 0.356697 0
345 1 0.227537 0.36474 0
344 1 0.209848 0.380792 0
375 1 0.23333 0.38849 0
346 1 0.251799 0.371271 0
377 1 0.257436 0.396312 0
318 1 0.271863 0.356432 0
349 1 0.295867 0.363417 0
347 1 0.27609 0.380007 0
350 1 0.301958 0.386351 0
320 1 0.319491 0.368233 0
351 1 0.343703 0.374139 0
381 1 0.32582 0.391384 0
352 1 0.348368 0.39843 0
353 1 0.361454 0.356826 0
355 1 0.386116 0.363492 0
354 1 0.367333 0.381808 0
385 1 0.391682 0.388867 0
357 1 0.428946 0.352804 0
356 1 0.409443 0.370567 0
387 1 0.433209 0.376359 0
386 1 0.414747 0.395337 0
359 1 0.451727 0.358577 0
358 1 0.455816 0.382526 0
330 1 0.475551 0.364102 0
360 1 0.480212 0.388948 0
1231 1 0.499459 0.372635 0
361 1 0.00870311 0.399423 0
363 1 0.0330838 0.409714 0
362 1 0.0150065 0.426199 0
364 1 0.0389131 0.43433 0
336 1 0.078345 0.407438 0
365 1 0.0567596 0.418972 0
395 1 0.0624114 0.442906 0
367 1 0.101076 0.415085 0
366 1 0.109853 0.439714 0
369 1 0.12676 0.423273 0
340 1 0.146231 0.407276 0
368 1 0.133532 0.446987 0
370 1 0.152198 0.430568 0
371 1 0.171209 0.414267 0
401 1 0.175671 0.438426 0
372 1 0.194745 0.421196 0
403 1 0.199963 0.44484 0
373 1 0.214688 0.404809 0
374 1 0.220388 0.429114 0
376 1 0.239364 0.413044 0
405 1 0.244428 0.436936 0
348 1 0.282693 0.403094 0
407 1 0.269569 0.443988 0
378 1 0.263373 0.420101 0
409 1 0.289516 0.427178 0
379 1 0.307651 0.409759 0
380 1 0.312805 0.434474 0
382 1 0.331477 0.417602 0
411 1 0.337064 0.443156 0
413 1 0.3548 0.426341 0
383 1 0.372566 0.406798 0
414 1 0.379244 0.430454 0
384 1 0.397264 0.413511 0
412 1 0.360197 0.449766 0
388 1 0.438244 0.401402 0
415 1 0.402947 0.436973 0
417 1 0.422251 0.41932 0
416 1 0.426578 0.444315 0
419 1 0.445278 0.42546 0
389 1 0.461908 0.407684 0
418 1 0.470644 0.431444 0
390 1 0.488441 0.412662 0
420 1 0.49511 0.43787 0
447 1 0.450755 0.449394 0
393 1 0.0203914 0.450599 0
422 1 0.00589336 0.490635 0
423 1 0.0257176 0.475408 0
394 1 0.0433403 0.459131 0
392 1 0.00160837 0.466516 0
425 1 0.0501881 0.48391 0
397 1 0.0887755 0.454298 0
396 1 0.0695267 0.467828 0
426 1 0.0735208 0.493917 0
427 1 0.0931299 0.479256 0
398 1 0.113868 0.463815 0
428 1 0.118507 0.487969 0
429 1 0.137926 0.472418 0
459 1 0.141145 0.497672 0
399 1 0.156517 0.45484 0
400 1 0.180502 0.462062 0
430 1 0.162231 0.480586 0
431 1 0.185944 0.485617 0
404 1 0.223556 0.452624 0
402 1 0.204649 0.469078 0
432 1 0.208966 0.4938 0
433 1 0.228032 0.477368 0
435 1 0.248146 0.460589 0
436 1 0.254126 0.487085 0
408 1 0.294158 0.451705 0
406 1 0.272459 0.468544 0
437 1 0.279029 0.493157 0
439 1 0.298263 0.477698 0
410 1 0.317907 0.46038 0
440 1 0.323155 0.485718 0
441 1 0.342908 0.467008 0
471 1 0.346713 0.492443 0
442 1 0.367213 0.473789 0
473 1 0.39087 0.479443 0
443 1 0.384287 0.455488 0
472 1 0.371777 0.499278 0
477 1 0.439642 0.491295 0
446 1 0.431947 0.468797 0
445 1 0.408603 0.461173 0
444 1 0.415453 0.486632 0
450 1 0.48269 0.47835 0
478 1 0.466803 0.497412 0
448 1 0.458254 0.472143 0
449 1 0.475386 0.454886 0
453 1 0.0109631 0.514198 0
452 1 0.0165095 0.539515 0
454 1 0.034901 0.524981 0
483 1 0.0391065 0.549424 0
424 1 0.030772 0.500082 0
485 1 0.0575478 0.533476 0
455 1 0.0544355 0.509618 0
456 1 0.0771587 0.519559 0
486 1 0.0822432 0.54403 0
457 1 0.0967635 0.50395 0
487 1 0.101262 0.52911 0
458 1 0.122579 0.513563 0
488 1 0.125535 0.538386 0
489 1 0.145204 0.523145 0
490 1 0.149899 0.5476 0
461 1 0.189437 0.509505 0
462 1 0.194721 0.532457 0
491 1 0.170271 0.532206 0
460 1 0.16535 0.505346 0
493 1 0.218318 0.540817 0
463 1 0.213317 0.516759 0
464 1 0.23646 0.525843 0
495 1 0.241002 0.550416 0
434 1 0.233068 0.501526 0
466 1 0.259554 0.535457 0
465 1 0.256618 0.510719 0
467 1 0.280797 0.517523 0
497 1 0.283224 0.542337 0
468 1 0.304873 0.526069 0
469 1 0.325509 0.511047 0
499 1 0.327891 0.537028 0
438 1 0.302377 0.501905 0
470 1 0.350387 0.520028 0
503 1 0.377418 0.524317 0
474 1 0.396509 0.503739 0
505 1 0.391138 0.546273 0
476 1 0.407318 0.52746 0
509 1 0.432128 0.533837 0
475 1 0.423814 0.509309 0
507 1 0.44854 0.514672 0
479 1 0.473631 0.520811 0
480 1 0.455182 0.539451 0
1381 1 0.496347 0.528796 0
510 1 0.47823 0.545859 0
1351 1 0.490154 0.502781 0
513 1 0.019191 0.564915 0
514 1 0.0420465 0.574158 0
512 1 0.022548 0.590118 0
511 1 0.000240193 0.580383 0
484 1 0.0619255 0.558152 0
515 1 0.0870904 0.567909 0
545 1 0.0673768 0.583336 0
516 1 0.0902273 0.593124 0
517 1 0.106124 0.553888 0
518 1 0.109133 0.578484 0
519 1 0.129026 0.563129 0
549 1 0.131577 0.589581 0
520 1 0.15227 0.576309 0
521 1 0.172202 0.560368 0
492 1 0.197441 0.555862 0
522 1 0.177072 0.590029 0
523 1 0.198698 0.578889 0
551 1 0.155117 0.601855 0
494 1 0.220031 0.565274 0
524 1 0.220913 0.590053 0
525 1 0.241945 0.574528 0
555 1 0.243769 0.599126 0
496 1 0.263226 0.558731 0
526 1 0.264349 0.583479 0
527 1 0.285881 0.567153 0
528 1 0.2866 0.59184 0
501 1 0.349226 0.550657 0
498 1 0.306514 0.550065 0
529 1 0.306692 0.577704 0
500 1 0.328061 0.563626 0
530 1 0.328743 0.588313 0
531 1 0.349729 0.575266 0
502 1 0.37189 0.56301 0
504 1 0.396309 0.570114 0
533 1 0.377178 0.586624 0
506 1 0.414614 0.551589 0
534 1 0.40217 0.593423 0
535 1 0.421372 0.575377 0
508 1 0.43755 0.557391 0
537 1 0.444144 0.582422 0
539 1 0.461354 0.563839 0
540 1 0.487363 0.570193 0
538 1 0.468856 0.588552 0
569 1 0.493314 0.593397 0
543 1 0.0464646 0.598747 0
542 1 0.0258695 0.615391 0
571 1 0.00474692 0.62973 0
573 1 0.0279147 0.63927 0
544 1 0.0496372 0.623967 0
541 1 0.00343368 0.605359 0
574 1 0.0497575 0.649432 0
546 1 0.0701686 0.607254 0
547 1 0.0910978 0.619259 0
575 1 0.0722215 0.634565 0
576 1 0.0941221 0.643822 0
548 1 0.111553 0.603952 0
550 1 0.13357 0.614958 0
577 1 0.114855 0.630412 0
579 1 0.13639 0.640349 0
581 1 0.155939 0.625696 0
552 1 0.177059 0.614217 0
582 1 0.178834 0.638562 0
583 1 0.202653 0.626267 0
553 1 0.199663 0.602167 0
554 1 0.22337 0.613543 0
556 1 0.246057 0.623438 0
585 1 0.224417 0.638397 0
586 1 0.247966 0.648532 0
557 1 0.267038 0.608328 0
587 1 0.268065 0.633388 0
558 1 0.287923 0.619028 0
589 1 0.289763 0.644453 0
559 1 0.307488 0.602453 0
560 1 0.309907 0.630603 0
561 1 0.328631 0.613614 0
591 1 0.331211 0.641599 0
562 1 0.348413 0.625501 0
532 1 0.352262 0.600969 0
563 1 0.384918 0.612397 0
564 1 0.370845 0.632996 0
595 1 0.395505 0.636997 0
593 1 0.35401 0.649965 0
536 1 0.425802 0.59871 0
565 1 0.4094 0.617314 0
566 1 0.432862 0.622773 0
596 1 0.418844 0.643522 0
598 1 0.441851 0.649892 0
567 1 0.451445 0.606103 0
597 1 0.458008 0.630618 0
568 1 0.475474 0.612757 0
570 1 0.482138 0.636305 0
1442 1 0.499514 0.617265 0
572 1 0.00607553 0.653732 0
603 1 0.0281488 0.664191 0
602 1 0.0082212 0.677818 0
633 1 0.0310202 0.688206 0
604 1 0.0516371 0.673989 0
605 1 0.0720789 0.659361 0
606 1 0.0741188 0.684711 0
607 1 0.0943003 0.670353 0
637 1 0.097272 0.695467 0
635 1 0.0542242 0.700121 0
578 1 0.115718 0.655234 0
609 1 0.137009 0.667091 0
608 1 0.116556 0.680897 0
639 1 0.139408 0.691839 0
580 1 0.157881 0.651254 0
611 1 0.180686 0.663411 0
610 1 0.160366 0.678235 0
612 1 0.182282 0.68827 0
584 1 0.203595 0.650869 0
613 1 0.203721 0.675492 0
615 1 0.225271 0.662339 0
614 1 0.227011 0.686043 0
617 1 0.248487 0.673396 0
616 1 0.248266 0.698267 0
588 1 0.270105 0.65901 0
619 1 0.292681 0.67168 0
618 1 0.27085 0.684984 0
590 1 0.312244 0.657587 0
621 1 0.314921 0.683201 0
592 1 0.336322 0.667189 0
622 1 0.339931 0.690241 0
623 1 0.360644 0.673781 0
594 1 0.37902 0.65638 0
624 1 0.383661 0.681003 0
653 1 0.364936 0.697621 0
625 1 0.401411 0.661316 0
627 1 0.424935 0.667518 0
626 1 0.409022 0.686222 0
657 1 0.432806 0.6917 0
628 1 0.449017 0.672721 0
599 1 0.466107 0.654295 0
600 1 0.489938 0.6594 0
629 1 0.471282 0.679198 0
630 1 0.495483 0.685205 0
658 1 0.455727 0.697741 0
632 1 0.0100774 0.702218 0
634 1 0.0342679 0.713352 0
663 1 0.0134098 0.727129 0
664 1 0.0352839 0.738158 0
636 1 0.0768338 0.71096 0
665 1 0.0559508 0.725859 0
666 1 0.07905 0.7352 0
695 1 0.059764 0.750617 0
667 1 0.0988529 0.721178 0
638 1 0.118277 0.706159 0
640 1 0.140531 0.716384 0
669 1 0.122418 0.731699 0
668 1 0.101722 0.745706 0
670 1 0.143677 0.742058 0
641 1 0.162104 0.702829 0
642 1 0.184232 0.713022 0
671 1 0.163941 0.727405 0
673 1 0.185902 0.738477 0
643 1 0.205053 0.699746 0
645 1 0.227396 0.712347 0
644 1 0.20716 0.724871 0
675 1 0.228547 0.736926 0
646 1 0.24976 0.723819 0
647 1 0.273503 0.709593 0
677 1 0.251733 0.74837 0
648 1 0.272033 0.733992 0
679 1 0.294916 0.741415 0
649 1 0.298082 0.716809 0
620 1 0.323442 0.708453 0
651 1 0.347315 0.714798 0
650 1 0.331097 0.732471 0
652 1 0.354937 0.740237 0
655 1 0.389265 0.704515 0
654 1 0.37196 0.722056 0
685 1 0.396083 0.72877 0
683 1 0.378784 0.746683 0
656 1 0.412346 0.710524 0
687 1 0.437388 0.715631 0
686 1 0.419436 0.733532 0
717 1 0.443887 0.740395 0
659 1 0.47908 0.703722 0
689 1 0.461091 0.722419 0
660 1 0.486126 0.728209 0
688 1 0.468665 0.745717 0
662 1 0.01696 0.753035 0
694 1 0.0382409 0.7643 0
693 1 0.0183048 0.778066 0
725 1 0.0414657 0.789019 0
697 1 0.0822288 0.759789 0
696 1 0.0619737 0.775526 0
727 1 0.0832507 0.78618 0
726 1 0.0634109 0.799462 0
699 1 0.123597 0.757197 0
698 1 0.104008 0.771802 0
700 1 0.126862 0.782608 0
728 1 0.105163 0.797065 0
701 1 0.145362 0.768711 0
731 1 0.150667 0.793846 0
672 1 0.166004 0.7526 0
703 1 0.188807 0.764037 0
702 1 0.170743 0.779198 0
704 1 0.192518 0.792183 0
674 1 0.208138 0.750784 0
676 1 0.23092 0.761345 0
705 1 0.211318 0.776061 0
706 1 0.234507 0.786829 0
707 1 0.253947 0.77338 0
678 1 0.275025 0.758664 0
709 1 0.276662 0.782615 0
680 1 0.297627 0.766392 0
737 1 0.256465 0.79741 0
710 1 0.301063 0.790133 0
681 1 0.31701 0.751006 0
682 1 0.339639 0.760645 0
711 1 0.320816 0.776255 0
712 1 0.345214 0.784137 0
713 1 0.362507 0.765519 0
714 1 0.387022 0.770369 0
743 1 0.369396 0.789371 0
745 1 0.394119 0.796356 0
684 1 0.404132 0.752854 0
715 1 0.426988 0.760029 0
716 1 0.409553 0.778162 0
747 1 0.434083 0.784029 0
718 1 0.451742 0.766072 0
690 1 0.493157 0.753154 0
719 1 0.475502 0.769564 0
720 1 0.48232 0.793047 0
749 1 0.458026 0.788699 0
1591 1 0.500615 0.77594 0
723 1 0.0204356 0.80201 0
722 1 0.0219201 0.826968 0
724 1 0.0427933 0.813073 0
754 1 0.0437429 0.837439 0
1680 1 0.00170416 0.841892 0
757 1 0.0849671 0.811695 0
755 1 0.0654872 0.825403 0
756 1 0.0869098 0.837108 0
785 1 0.065847 0.84919 0
729 1 0.129364 0.806767 0
759 1 0.108927 0.822261 0
760 1 0.130349 0.832506 0
758 1 0.10767 0.850366 0
730 1 0.151608 0.819586 0
732 1 0.172181 0.805542 0
761 1 0.153794 0.844514 0
763 1 0.175063 0.832206 0
733 1 0.195273 0.817066 0
764 1 0.19845 0.842616 0
735 1 0.215687 0.80201 0
736 1 0.237603 0.812127 0
734 1 0.217446 0.828007 0
767 1 0.240374 0.837925 0
708 1 0.2823 0.807633 0
738 1 0.260308 0.823029 0
769 1 0.284517 0.833302 0
768 1 0.263798 0.84746 0
741 1 0.326099 0.799759 0
739 1 0.306167 0.81549 0
740 1 0.309077 0.838819 0
771 1 0.330066 0.825624 0
742 1 0.350338 0.807549 0
773 1 0.356397 0.831268 0
744 1 0.37539 0.81345 0
774 1 0.380226 0.838368 0
775 1 0.398267 0.821581 0
746 1 0.417308 0.803746 0
748 1 0.440005 0.808742 0
777 1 0.424388 0.828495 0
776 1 0.405377 0.846621 0
779 1 0.448989 0.833551 0
750 1 0.46617 0.813434 0
1621 1 0.491631 0.817595 0
780 1 0.473601 0.837515 0
1651 1 0.497133 0.841522 0
753 1 0.0429451 0.860747 0
752 1 0.0172842 0.861097 0
783 1 0.0355919 0.881813 0
782 1 0.0112038 0.88755 0
784 1 0.0614572 0.874211 0
786 1 0.0786327 0.891168 0
787 1 0.0866762 0.864337 0
815 1 0.0547196 0.898902 0
817 1 0.103099 0.884106 0
789 1 0.133099 0.855856 0
788 1 0.128355 0.879432 0
790 1 0.146379 0.897983 0
791 1 0.15368 0.870325 0
762 1 0.175734 0.859891 0
793 1 0.17015 0.889741 0
795 1 0.19557 0.879471 0
765 1 0.22045 0.852411 0
796 1 0.221205 0.876903 0
825 1 0.236724 0.897051 0
766 1 0.244073 0.864734 0
797 1 0.268883 0.869588 0
827 1 0.261574 0.893245 0
799 1 0.292552 0.858267 0
798 1 0.287428 0.886544 0
772 1 0.340399 0.851878 0
770 1 0.317955 0.860138 0
800 1 0.312433 0.882535 0
801 1 0.337687 0.875838 0
802 1 0.354158 0.89596 0
803 1 0.360693 0.870206 0
804 1 0.377922 0.887997 0
805 1 0.385371 0.863067 0
778 1 0.431452 0.852375 0
807 1 0.412036 0.870503 0
808 1 0.438006 0.876054 0
837 1 0.420087 0.895927 0
809 1 0.456163 0.85785 0
1681 1 0.48094 0.86088 0
1711 1 0.489519 0.884818 0
810 1 0.465058 0.880589 0
813 1 0.0293041 0.905373 0
843 1 0.0217137 0.9292 0
814 1 0.0461999 0.922739 0
844 1 0.0390884 0.946505 0
812 1 0.00433419 0.911302 0
816 1 0.0961122 0.909183 0
845 1 0.0708496 0.916127 0
846 1 0.0636366 0.939663 0
847 1 0.0883965 0.934373 0
819 1 0.119388 0.902453 0
818 1 0.112943 0.926999 0
820 1 0.13009 0.945268 0
821 1 0.137761 0.921354 0
792 1 0.163101 0.914708 0
851 1 0.15523 0.938694 0
823 1 0.18783 0.90772 0
822 1 0.18051 0.931167 0
794 1 0.212014 0.902448 0
824 1 0.205831 0.925999 0
885 1 0.222255 0.944555 0
855 1 0.228738 0.919964 0
856 1 0.246702 0.93923 0
826 1 0.253628 0.915322 0
857 1 0.271536 0.933999 0
828 1 0.279536 0.91022 0
859 1 0.296345 0.929044 0
831 1 0.329053 0.900333 0
829 1 0.303811 0.905453 0
830 1 0.319842 0.923384 0
861 1 0.339043 0.941718 0
860 1 0.313815 0.948084 0
832 1 0.345218 0.918321 0
863 1 0.364957 0.93584 0
833 1 0.371369 0.912309 0
834 1 0.390088 0.930275 0
806 1 0.396041 0.906028 0
835 1 0.41451 0.923469 0
836 1 0.438814 0.943004 0
865 1 0.406561 0.947353 0
838 1 0.45507 0.923776 0
869 1 0.462608 0.946814 0
839 1 0.472269 0.903687 0
840 1 0.479137 0.927563 0
1712 1 0.495633 0.908056 0
842 1 0.0138395 0.953609 0
872 1 0.0243306 0.99481 0
873 1 0.0316804 0.970141 0
871 1 0.0067161 0.977685 0
874 1 0.047595 0.987523 0
875 1 0.0576696 0.964791 0
876 1 0.0735034 0.9832 0
848 1 0.08188 0.95903 0
877 1 0.0988256 0.976276 0
7 1 0.0911353 0.999232 0
849 1 0.105614 0.95159 0
878 1 0.116338 0.993727 0
879 1 0.123914 0.969181 0
881 1 0.140384 0.987298 0
850 1 0.149256 0.963505 0
854 1 0.197583 0.951252 0
853 1 0.172607 0.955932 0
852 1 0.166248 0.981062 0
883 1 0.189441 0.974979 0
882 1 0.182562 0.998581 0
13 1 0.207035 0.992008 0
15 1 0.231395 0.987005 0
884 1 0.213952 0.968777 0
886 1 0.23872 0.963251 0
858 1 0.289074 0.952591 0
887 1 0.264262 0.958379 0
17 1 0.256386 0.981714 0
888 1 0.280409 0.976632 0
19 1 0.297836 0.994227 0
889 1 0.306401 0.97083 0
890 1 0.32206 0.98863 0
891 1 0.331655 0.965005 0
892 1 0.347268 0.9827 0
862 1 0.357288 0.959005 0
864 1 0.381424 0.954306 0
893 1 0.375189 0.977355 0
894 1 0.390509 0.997203 0
895 1 0.401202 0.97308 0
866 1 0.423229 0.964518 0
896 1 0.418247 0.991934 0
867 1 0.447638 0.966981 0
897 1 0.44779 0.991331 0
1771 1 0.495458 0.974975 0
868 1 0.471202 0.970741 0
899 1 0.476405 0.994144 0
870 1 0.487953 0.950379 0
902 1 0.536461 0.0255898 0
901 1 0.511171 0.020151 0
931 1 0.520018 0.0425729 0
903 1 0.527865 0.00244875 0
933 1 0.544155 0.0489097 0
904 1 0.559617 0.0309199 0
906 1 0.576715 0.0131205 0
935 1 0.586234 0.0385822 0
905 1 0.552951 0.00754344 0
908 1 0.601682 0.0195378 0
937 1 0.609937 0.0433331 0
939 1 0.62583 0.0243218 0
910 1 0.642462 0.00687505 0
938 1 0.63423 0.0486431 0
909 1 0.617252 0.000912813 0
941 1 0.650893 0.0310911 0
912 1 0.667087 0.0111642 0
942 1 0.674754 0.0345338 0
943 1 0.692108 0.017316 0
973 1 0.699169 0.0421015 0
944 1 0.715696 0.0233494 0
945 1 0.731712 0.00523365 0
946 1 0.74058 0.0281061 0
975 1 0.72308 0.0465165 0
947 1 0.759178 0.0108823 0
948 1 0.76313 0.0343605 0
918 1 0.783731 0.0200363 0
979 1 0.798534 0.0483775 0
921 1 0.81915 0.001638 0
949 1 0.808303 0.0243799 0
951 1 0.834919 0.0207896 0
950 1 0.825291 0.0435634 0
952 1 0.851721 0.0373699 0
953 1 0.859619 0.0142602 0
924 1 0.883434 0.00766458 0
954 1 0.875156 0.0321841 0
955 1 0.90113 0.0261541 0
926 1 0.926597 0.0207391 0
957 1 0.943612 0.0377551 0
956 1 0.917808 0.0435434 0
925 1 0.908684 0.00264964 0
928 1 0.949942 0.0136585 0
959 1 0.967884 0.031863 0
930 1 0.992741 0.0254158 0
929 1 0.975146 0.00744589 0
1 1 0.998733 0.00166972 0
960 1 0.984985 0.0496336 0
932 1 0.527801 0.0663364 0
962 1 0.53413 0.0904053 0
961 1 0.510627 0.0838638 0
60 1 0.503827 0.0616126 0
963 1 0.552613 0.073288 0
934 1 0.567716 0.0552334 0
965 1 0.576231 0.0795072 0
964 1 0.558566 0.0985286 0
936 1 0.593578 0.0619447 0
966 1 0.600829 0.0852883 0
967 1 0.617337 0.0669801 0
968 1 0.624675 0.0910067 0
969 1 0.641882 0.0724716 0
999 1 0.648357 0.0963823 0
940 1 0.658909 0.0542112 0
970 1 0.666031 0.0774565 0
971 1 0.682241 0.0587945 0
972 1 0.689035 0.0842442 0
1003 1 0.706908 0.0653212 0
1004 1 0.713303 0.0895101 0
974 1 0.730843 0.0714838 0
1005 1 0.737887 0.0944588 0
976 1 0.747591 0.0530734 0
1007 1 0.755181 0.076286 0
977 1 0.776016 0.057268 0
978 1 0.793541 0.0747524 0
1008 1 0.787912 0.0982859 0
1006 1 0.76259 0.0988626 0
980 1 0.818072 0.0666234 0
981 1 0.843014 0.0614963 0
1009 1 0.811281 0.0920725 0
1011 1 0.835331 0.0855258 0
985 1 0.893977 0.0487248 0
982 1 0.860329 0.0800318 0
983 1 0.868562 0.0553045 0
984 1 0.886547 0.0735638 0
1013 1 0.878098 0.0972513 0
1015 1 0.903614 0.0918743 0
986 1 0.910813 0.067007 0
987 1 0.934952 0.061204 0
1017 1 0.927555 0.0850681 0
988 1 0.952069 0.0795162 0
958 1 0.95985 0.0555911 0
989 1 0.97728 0.0734894 0
990 1 0.994968 0.090702 0
1019 1 0.970089 0.0976912 0
991 1 0.518154 0.107961 0
992 1 0.524081 0.132405 0
993 1 0.541005 0.114694 0
1023 1 0.548591 0.137716 0
1021 1 0.507424 0.149188 0
995 1 0.58307 0.102512 0
994 1 0.565862 0.121479 0
996 1 0.589702 0.126147 0
1025 1 0.574443 0.145055 0
997 1 0.607796 0.108915 0
998 1 0.631968 0.114738 0
1027 1 0.614544 0.132404 0
1029 1 0.637951 0.138238 0
1001 1 0.672403 0.102495 0
1000 1 0.655662 0.120454 0
1031 1 0.680038 0.126284 0
1030 1 0.662294 0.144122 0
1002 1 0.696596 0.107885 0
1032 1 0.686076 0.149773 0
1033 1 0.705235 0.131394 0
1035 1 0.721892 0.113548 0
1034 1 0.729604 0.135875 0
1036 1 0.746276 0.117877 0
1037 1 0.774212 0.122657 0
1038 1 0.794962 0.14091 0
1067 1 0.755511 0.142337 0
1039 1 0.802799 0.117664 0
1010 1 0.827871 0.109245 0
1040 1 0.821344 0.133699 0
1041 1 0.846043 0.127449 0
1012 1 0.853158 0.104341 0
1043 1 0.872551 0.121164 0
1014 1 0.896661 0.115263 0
1044 1 0.888971 0.139855 0
1042 1 0.86231 0.144382 0
1045 1 0.914021 0.131894 0
1016 1 0.921683 0.108451 0
1047 1 0.938029 0.126828 0
1018 1 0.945953 0.103593 0
1049 1 0.963359 0.120462 0
1020 1 0.988025 0.113806 0
1050 1 0.978709 0.138797 0
1046 1 0.955045 0.143724 0
1022 1 0.53225 0.155087 0
1053 1 0.538935 0.179497 0
1051 1 0.513119 0.172961 0
1052 1 0.521624 0.196691 0
1026 1 0.597265 0.150922 0
1024 1 0.556234 0.161328 0
1055 1 0.581017 0.169506 0
1054 1 0.562919 0.187193 0
1056 1 0.587479 0.192748 0
1028 1 0.623297 0.156355 0
1057 1 0.605643 0.174875 0
1058 1 0.62923 0.180744 0
1087 1 0.611596 0.198292 0
1059 1 0.646696 0.161545 0
1060 1 0.653508 0.185548 0
1061 1 0.670052 0.168039 0
1091 1 0.676303 0.192135 0
1062 1 0.693604 0.174271 0
1063 1 0.710209 0.155344 0
1064 1 0.71859 0.179346 0
1095 1 0.742964 0.184297 0
1093 1 0.701159 0.196863 0
1065 1 0.735722 0.158492 0
1066 1 0.761058 0.167151 0
1068 1 0.786391 0.166604 0
1097 1 0.768338 0.189605 0
1071 1 0.837538 0.152051 0
1069 1 0.812646 0.157008 0
1070 1 0.829586 0.175027 0
1099 1 0.805107 0.182631 0
1101 1 0.847907 0.194109 0
1072 1 0.854151 0.169052 0
1073 1 0.879512 0.163049 0
1103 1 0.87162 0.185762 0
1074 1 0.900009 0.18028 0
1077 1 0.93192 0.150836 0
1075 1 0.906992 0.156177 0
1076 1 0.925114 0.173866 0
1107 1 0.940508 0.19194 0
1078 1 0.948917 0.167975 0
1105 1 0.916073 0.198699 0
1048 1 0.971975 0.162757 0
151 1 0.996481 0.155986 0
1079 1 0.989999 0.179257 0
1109 1 0.966551 0.186767 0
1083 1 0.545888 0.203814 0
1082 1 0.529782 0.221352 0
1111 1 0.510907 0.238912 0
1113 1 0.534978 0.245748 0
1081 1 0.503308 0.215061 0
1084 1 0.553266 0.228079 0
1085 1 0.570476 0.211401 0
1086 1 0.594742 0.216556 0
1115 1 0.577575 0.234505 0
1117 1 0.601469 0.240371 0
1089 1 0.635096 0.204583 0
1088 1 0.618573 0.223369 0
1119 1 0.643053 0.228447 0
1118 1 0.624757 0.247634 0
1090 1 0.659374 0.209532 0
1092 1 0.684673 0.215369 0
1121 1 0.667059 0.233701 0
1122 1 0.691602 0.239073 0
1094 1 0.727165 0.202936 0
1123 1 0.709873 0.221066 0
1124 1 0.716093 0.244753 0
1125 1 0.734099 0.226771 0
1096 1 0.750875 0.207933 0
1127 1 0.77553 0.213769 0
1126 1 0.759509 0.232646 0
1128 1 0.793273 0.232236 0
1098 1 0.799089 0.207007 0
1100 1 0.823663 0.198415 0
1131 1 0.840689 0.217128 0
1129 1 0.816794 0.223707 0
1130 1 0.835008 0.246066 0
1159 1 0.811476 0.248499 0
1102 1 0.865537 0.210457 0
1104 1 0.889948 0.203708 0
1132 1 0.859564 0.23393 0
1133 1 0.883413 0.227039 0
1135 1 0.908671 0.221921 0
1106 1 0.933994 0.216134 0
1136 1 0.926202 0.240431 0
1134 1 0.900859 0.245878 0
1137 1 0.951241 0.235239 0
1108 1 0.956876 0.209022 0
1110 1 0.981497 0.204718 0
1139 1 0.975825 0.229181 0
1140 1 0.993173 0.246731 0
1112 1 0.517393 0.262713 0
1143 1 0.541121 0.269363 0
1142 1 0.524132 0.287304 0
1144 1 0.547475 0.294752 0
1114 1 0.560041 0.251859 0
1116 1 0.58336 0.258647 0
1145 1 0.564256 0.277051 0
1146 1 0.590458 0.283497 0
1147 1 0.607043 0.26518 0
1149 1 0.63084 0.270113 0
1148 1 0.614136 0.288591 0
1179 1 0.639399 0.292891 0
1120 1 0.648242 0.252265 0