ITEM: TIMESTEP
4500
ITEM: NUMBER OF ATOMS
864
ITEM: BOX BOUNDS pp pp pp
0.0000000000000000e+00 3.1559999999999999e+01
0.0000000000000000e+00 3.1559999999999999e+01
0.0000000000000000e+00 3.1559999999999999e+01
ITEM: ATOMS id type xs ys zs
8 1 0.176315 0.0831167 0.0812506
4 1 0.993551 0.0906512 0.0905286
49 1 0.996554 0.32207 0.0118157
74 1 0.0715731 0.0841455 0.181062
31 1 0.269635 0.168254 0.086891
78 1 0.27206 0.0850868 0.170739
196 1 0.983886 0.413859 0.436911
511 1 0.243663 0.493794 0.247082
12 1 0.341442 0.0900168 0.0850176
82 1 0.407576 0.0903816 0.184883
525 1 0.832279 0.499029 0.187615
16 1 0.502658 0.0876569 0.0830633
39 1 0.590417 0.160904 0.0822517
109 1 0.493277 0.167643 0.163108
86 1 0.588312 0.0824617 0.176902
62 1 0.590297 0.420512 0.00238851
20 1 0.671589 0.0749607 0.0893412
24 1 0.833706 0.0780821 0.0753657
213 1 0.834248 0.32416 0.332558
113 1 0.681373 0.147509 0.178592
527 1 0.914598 0.494083 0.26409
81 1 0.344578 0.00904259 0.146854
94 1 0.909339 0.0657346 0.17221
26 1 0.0796505 0.245494 0.00582719
161 1 0.673374 0.00809615 0.336803
27 1 0.0833519 0.170994 0.106244
97 1 0.974816 0.162698 0.177985
28 1 0.992355 0.223412 0.0962869
505 1 0.997763 0.496485 0.195412
32 1 0.171424 0.245591 0.0821274
577 1 0.00952056 0.493362 0.320022
87 1 0.585887 0.0121039 0.253281
36 1 0.339914 0.246567 0.0735362
35 1 0.417591 0.171389 0.077578
274 1 0.426772 0.400371 0.496329
106 1 0.423454 0.250017 0.165493
40 1 0.494769 0.250273 0.0742785
110 1 0.57366 0.244738 0.154574
669 1 0.845878 0.491949 0.500062
7 1 0.259213 0.0121769 0.0913378
43 1 0.753658 0.149355 0.0726113
44 1 0.674697 0.234063 0.0915794
114 1 0.749955 0.235139 0.166342
67 1 0.74408 0.321899 0.0887871
657 1 0.322629 0.496146 0.496051
48 1 0.830075 0.238407 0.0694737
47 1 0.903561 0.16533 0.0872323
593 1 0.658427 0.495411 0.318148
117 1 0.83093 0.147945 0.162107
118 1 0.903105 0.239753 0.171529
70 1 0.920879 0.402382 0.00363875
266 1 0.0923387 0.412915 0.495331
51 1 0.0887725 0.337101 0.0947492
56 1 0.16492 0.433484 0.0891065
265 1 0.989688 0.307997 0.489161
3 1 0.0657538 0.0145205 0.0971095
217 1 0.990118 0.0147648 0.496202
55 1 0.263818 0.33569 0.0881668
211 1 0.734401 0.337547 0.433735
60 1 0.342137 0.413527 0.0786051
85 1 0.499017 0.0164349 0.167679
159 1 0.594193 0.0104712 0.416253
59 1 0.414875 0.331397 0.0817166
64 1 0.503617 0.43105 0.087423
129 1 0.342069 0.331293 0.164129
273 1 0.333812 0.360648 0.490734
133 1 0.502039 0.337179 0.155564
63 1 0.585644 0.331103 0.0782367
68 1 0.657452 0.411212 0.0885957
72 1 0.828434 0.437307 0.093896
138 1 0.753459 0.416408 0.180422
65 1 0.669856 0.338974 0.00163652
257 1 0.682866 0.16882 0.497415
71 1 0.907349 0.322232 0.0766519
52 1 0.00130792 0.413269 0.0795959
141 1 0.830503 0.336449 0.171942
121 1 0.979399 0.322375 0.161157
57 1 0.337158 0.336669 0.000877719
453 1 0.838159 0.497074 0.00666153
188 1 0.663469 0.249613 0.420815
455 1 0.918368 0.496739 0.0865016
216 1 0.830452 0.401461 0.41608
80 1 0.1832 0.0870632 0.26533
146 1 0.0836701 0.079989 0.313544
212 1 0.64432 0.416735 0.420037
101 1 0.190423 0.16026 0.160301
173 1 0.161135 0.169573 0.33528
84 1 0.330097 0.0700609 0.274204
177 1 0.344528 0.1731 0.331262
88 1 0.496848 0.0759622 0.272026
154 1 0.409317 0.0903648 0.336131
158 1 0.598113 0.090818 0.336967
92 1 0.671689 0.0918342 0.259849
90 1 0.755363 0.0656028 0.161247
207 1 0.581894 0.323356 0.404171
162 1 0.763754 0.0911105 0.341981
96 1 0.830121 0.0750485 0.256087
76 1 0.987674 0.0684157 0.258397
119 1 0.898815 0.161669 0.258369
169 1 0.998573 0.161617 0.322441
98 1 0.0910535 0.2641 0.168593
99 1 0.0966122 0.173458 0.221948
104 1 0.175336 0.250341 0.247528
170 1 0.0689267 0.245077 0.317801
105 1 0.340021 0.18114 0.17165
102 1 0.257534 0.244916 0.162605
125 1 0.180683 0.329137 0.163484
103 1 0.25876 0.169994 0.254467
108 1 0.340959 0.252674 0.250275
107 1 0.412053 0.172238 0.251292
178 1 0.421857 0.270023 0.331473
112 1 0.509305 0.253979 0.246465
111 1 0.573277 0.153781 0.251942
135 1 0.575501 0.332799 0.251562
181 1 0.500278 0.177696 0.336948
115 1 0.748049 0.163111 0.255595
116 1 0.661541 0.240436 0.231101
120 1 0.815281 0.246614 0.254084
185 1 0.671755 0.182864 0.334537
186 1 0.747665 0.259237 0.337672
100 1 -0.000516142 0.262491 0.238281
190 1 0.922491 0.245895 0.333194
441 1 0.32152 0.498421 0.00815322
122 1 0.084183 0.428373 0.171553
123 1 0.101047 0.332564 0.244847
194 1 0.0971617 0.424313 0.317262
193 1 0.00583073 0.327864 0.332004
124 1 0.0047539 0.395595 0.24674
126 1 0.246245 0.422424 0.158044
128 1 0.171602 0.420111 0.234421
127 1 0.254076 0.328935 0.247425
132 1 0.338096 0.430893 0.239891
253 1 0.507387 0.157805 0.481605
130 1 0.413421 0.408899 0.15371
131 1 0.428221 0.33005 0.245023
136 1 0.488245 0.42214 0.234604
206 1 0.576861 0.402493 0.322468
77 1 0.158072 0.00464917 0.160535
137 1 0.667652 0.332572 0.166354
134 1 0.57982 0.405692 0.170303
209 1 0.667369 0.335495 0.326076
139 1 0.745238 0.321182 0.246148
140 1 0.659763 0.420095 0.244541
210 1 0.74609 0.402174 0.328502
144 1 0.827667 0.40503 0.256064
214 1 0.913593 0.40506 0.329686
143 1 0.914433 0.325304 0.256487
142 1 0.91599 0.418558 0.161692
201 1 0.339497 0.339725 0.324911
197 1 0.172844 0.320731 0.329732
152 1 0.156791 0.0896211 0.418255
171 1 0.0889157 0.160665 0.433371
172 1 0.00959336 0.254613 0.40584
215 1 0.922963 0.322843 0.413951
150 1 0.241869 0.0903262 0.339754
156 1 0.33339 0.0812741 0.420916
179 1 0.420106 0.166928 0.40856
149 1 0.149888 0.00240682 0.345676
204 1 0.315451 0.437152 0.411251
202 1 0.436149 0.417526 0.322462
189 1 0.834521 0.175369 0.340109
160 1 0.502426 0.0689922 0.407217
183 1 0.586544 0.176416 0.417641
164 1 0.671864 0.0984207 0.426408
168 1 0.83355 0.100743 0.421865
208 1 0.517369 0.406626 0.410344
200 1 0.162667 0.41693 0.405721
166 1 0.921609 0.0925823 0.344185
148 1 0.00304251 0.0844065 0.424401
191 1 0.915135 0.179308 0.421876
54 1 0.25172 0.415703 0.00953928
451 1 0.737309 0.500607 0.0879795
195 1 0.0786456 0.328417 0.408246
176 1 0.168465 0.25089 0.425095
174 1 0.25526 0.253818 0.327228
175 1 0.245952 0.17785 0.406371
199 1 0.268279 0.344229 0.406825
180 1 0.350469 0.249835 0.414718
203 1 0.41043 0.355957 0.407697
277 1 0.510039 0.334404 0.497603
205 1 0.503196 0.335061 0.327459
184 1 0.508791 0.254051 0.4239
182 1 0.587082 0.25169 0.320427
198 1 0.243357 0.413467 0.321814
192 1 0.841195 0.256681 0.417226
187 1 0.76322 0.183726 0.427387
523 1 0.755466 0.48955 0.261716
443 1 0.424215 0.49921 0.0809909
53 1 0.168105 0.325683 0.0141517
167 1 0.891473 0.00897158 0.416813
242 1 0.0783 0.252235 0.488499
519 1 0.57321 0.492112 0.252006
23 1 0.924232 0.00791907 0.0914007
246 1 0.267071 0.258473 0.484893
597 1 0.835247 0.491065 0.338581
269 1 0.176469 0.338856 0.499574
579 1 0.0957534 0.499691 0.417405
587 1 0.428679 0.485629 0.421064
147 1 0.0787047 0.00506181 0.427877
665 1 0.66061 0.502713 0.498318
447 1 0.592751 0.489344 0.0928624
163 1 0.751441 0.0192324 0.435908
225 1 0.325908 0.00691648 0.492305
83 1 0.419491 0.00581224 0.252043
282 1 0.751211 0.423033 0.497788
18 1 0.753425 0.0651355 -0.00151244
249 1 0.340307 0.171022 0.49477
238 1 0.915569 0.0949964 0.49753
61 1 0.503314 0.352634 0.00590278
222 1 0.239928 0.100188 0.48099
229 1 0.505655 0.00783918 0.498489
41 1 0.667599 0.1642 0.00518368
66 1 0.744795 0.423861 0.0124245
250 1 0.428878 0.263823 0.494039
2 1 0.0900799 0.0857998 0.0123465
50 1 0.0883735 0.415247 0.013818
69 1 0.825247 0.345871 0.0144403
1 1 0.994103 0.00400437 0.00810345
29 1 0.175633 0.172845 -0.00082389
14 1 0.592015 0.0688432 0.0123938
226 1 0.411582 0.0829279 0.495849
25 1 0.982172 0.161755 0.0113868
661 1 0.512784 0.490666 0.492485
220 1 0.987719 0.0883949 0.58065
313 1 -0.00160398 0.175647 0.649301
224 1 0.187308 0.0931078 0.577657
228 1 0.34086 0.0921438 0.586364
431 1 0.915779 0.327528 0.920706
813 1 0.824233 0.498227 0.837017
232 1 0.497805 0.0849533 0.56844
251 1 0.431184 0.171414 0.565051
733 1 0.480952 0.496723 0.669965
298 1 0.424007 0.0759196 0.670286
311 1 0.919962 -0.000380071 0.749614
255 1 0.587126 0.154089 0.591191
302 1 0.585175 0.0830231 0.668098
241 1 1.0025 0.176584 0.508226
236 1 0.668258 0.0865657 0.585531
240 1 0.856249 0.0812428 0.583619
815 1 0.910219 0.496378 0.927001
263 1 0.912528 0.172042 0.573271
428 1 0.676291 0.434225 0.923045
243 1 0.101717 0.173714 0.585198
314 1 0.0747961 0.250389 0.661547
218 1 0.0815996 0.0807013 0.515155
727 1 0.237144 0.49834 0.741506
365 1 0.175469 0.0138461 0.819105
247 1 0.264453 0.176422 0.570613
248 1 0.174009 0.251677 0.573511
252 1 0.351725 0.251441 0.565918
271 1 0.263829 0.331015 0.574917
799 1 0.236679 0.493104 0.905345
322 1 0.409775 0.251723 0.66118
275 1 0.414071 0.335699 0.584448
739 1 0.739335 0.49883 0.757791
291 1 0.0870674 0.00381327 0.751186
256 1 0.502319 0.257591 0.582528
279 1 0.588136 0.328187 0.591377
353 1 0.649694 0.315323 0.671949
326 1 0.585249 0.238587 0.663958
259 1 0.749269 0.175652 0.595406
260 1 0.666359 0.235545 0.586766
264 1 0.838508 0.233561 0.607597
283 1 0.742906 0.34358 0.584666
244 1 0.984472 0.263258 0.582498
334 1 0.90519 0.259203 0.677641
287 1 0.901763 0.329323 0.600185
337 1 0.992328 0.336144 0.662905
297 1 0.338104 0.0130809 0.659067
267 1 0.0941512 0.326995 0.586172
272 1 0.153713 0.418724 0.582125
235 1 0.762224 0.00713378 0.590459
338 1 0.0772021 0.399263 0.668114
795 1 0.089834 0.493475 0.917927
432 1 0.838394 0.41662 0.928368
276 1 0.332679 0.426234 0.583364
38 1 0.584569 0.252374 0.996664
373 1 0.505217 0.00891193 0.827897
280 1 0.501234 0.408848 0.579274
346 1 0.409581 0.419826 0.661379
303 1 0.578847 0.00147819 0.758329
305 1 0.662147 0.00173102 0.649188
309 1 0.837074 0.00650299 0.6647
424 1 0.50027 0.421427 0.915153
258 1 0.749559 0.255798 0.51412
357 1 0.825748 0.342493 0.682768
369 1 0.343968 0.0134015 0.837557
284 1 0.663333 0.421353 0.590458
354 1 0.739796 0.425421 0.681603
725 1 0.154806 0.483875 0.675957
268 1 0.0143611 0.395708 0.570727
651 1 0.0673844 0.494545 0.598231
288 1 0.823246 0.410625 0.587356
358 1 0.909854 0.41423 0.657688
317 1 0.178013 0.172067 0.672074
290 1 0.0693026 0.0809316 0.65164
296 1 0.152303 0.0882762 0.723803
292 1 0.983965 0.0871434 0.751217
659 1 0.434078 0.497007 0.573146
294 1 0.251215 0.0859285 0.664842
418 1 0.402414 0.434871 0.845317
721 1 0.991321 0.488186 0.67597
366 1 0.262282 0.0792234 0.82168
325 1 0.507785 0.170911 0.654248
300 1 0.345369 0.0846663 0.742145
370 1 0.431065 0.089305 0.829065
321 1 0.346558 0.156033 0.664925
323 1 0.429636 0.167116 0.749025
329 1 0.662199 0.160379 0.666239
304 1 0.49966 0.0883565 0.744818
327 1 0.583204 0.158823 0.73634
308 1 0.674688 0.0849369 0.761638
397 1 0.509211 0.165088 0.833345
306 1 0.739603 0.0789954 0.66789
401 1 0.659995 0.179962 0.838229
331 1 0.746213 0.16928 0.754516
405 1 0.833901 0.172199 0.833615
312 1 0.845252 0.0828526 0.755366
310 1 0.927766 0.0799459 0.671349
382 1 0.924164 0.0794252 0.84552
389 1 0.162412 0.153049 0.811534
315 1 0.0615869 0.159177 0.729775
320 1 0.170906 0.254129 0.760587
339 1 0.0778717 0.323669 0.745559
386 1 0.0724893 0.257318 0.826878
318 1 0.27348 0.245259 0.662147
319 1 0.267411 0.161161 0.744133
390 1 0.256552 0.246449 0.841618
324 1 0.348739 0.249699 0.747543
393 1 0.344151 0.182226 0.820434
394 1 0.433489 0.247787 0.832416
328 1 0.489562 0.257606 0.734749
332 1 0.657168 0.251257 0.758315
425 1 0.648297 0.341016 0.822379
330 1 0.740188 0.261074 0.663109
336 1 0.826354 0.240357 0.753401
402 1 0.748594 0.273284 0.811268
333 1 0.829321 0.144128 0.67169
335 1 0.917589 0.166671 0.743935
316 1 0.994573 0.238695 0.73911
359 1 0.914835 0.341331 0.748127
406 1 0.918955 0.255821 0.842888
341 1 0.168395 0.309188 0.668968
410 1 0.0810205 0.415467 0.838884
344 1 0.175099 0.404327 0.762091
342 1 0.238814 0.385044 0.661861
408 1 0.832474 0.269056 0.919169
345 1 0.338978 0.336226 0.662627
343 1 0.259396 0.314622 0.75211
348 1 0.327487 0.416878 0.761315
417 1 0.334716 0.339922 0.846458
416 1 0.157948 0.412673 0.934875
347 1 0.40698 0.331281 0.748448
352 1 0.489926 0.422213 0.744481
349 1 0.503556 0.33284 0.656179
286 1 0.908938 0.410254 0.520628
46 1 0.911197 0.249252 0.995481
350 1 0.573837 0.425352 0.654604
351 1 0.570398 0.337142 0.744891
422 1 0.568788 0.413435 0.827237
356 1 0.651383 0.425877 0.742212
355 1 0.733554 0.342215 0.740451
426 1 0.742244 0.420607 0.831763
429 1 0.830711 0.323366 0.826331
299 1 0.42616 0.0045114 0.753132
340 1 0.990652 0.41756 0.758627
360 1 0.835461 0.416482 0.754273
430 1 0.917187 0.407986 0.834266
421 1 0.483532 0.340938 0.826343
801 1 0.321666 0.495571 0.829198
362 1 0.0931762 0.0834556 0.84092
729 1 0.323418 0.495928 0.68344
368 1 0.16419 0.0919443 0.920533
367 1 0.249469 0.00976396 0.903561
261 1 0.831342 0.179805 0.503443
391 1 0.255518 0.154568 0.902293
372 1 0.347629 0.0872514 0.909253
301 1 0.511048 -0.00153205 0.659438
414 1 0.249829 0.408943 0.84315
395 1 0.420806 0.171096 0.914696
420 1 0.319721 0.422016 0.922746
403 1 0.7488 0.19482 0.897208
374 1 0.588387 0.0932211 0.832292
376 1 0.493233 0.084943 0.913817
295 1 0.267477 0.00560159 0.74901
399 1 0.581357 0.167506 0.924162
380 1 0.666874 0.0931987 0.915954
378 1 0.757278 0.105308 0.844994
384 1 0.832792 0.0723072 0.921713
723 1 0.0754959 0.487224 0.750283
364 1 0.0116056 0.100528 0.919511
388 1 0.000874212 0.236125 0.916995
385 1 0.997729 0.16961 0.829641
427 1 0.746174 0.342354 0.930807
413 1 0.158578 0.338975 0.837494
409 1 0.995999 0.336001 0.824323
387 1 0.0887393 0.18341 0.916555
392 1 0.17218 0.248079 0.911032
285 1 0.835206 0.322203 0.510574
412 1 0.001958 0.400678 0.912178
415 1 0.257856 0.321501 0.919102
396 1 0.34948 0.25078 0.908861
655 1 0.233956 0.481532 0.598488
411 1 0.0878519 0.325665 0.930048
419 1 0.415796 0.346856 0.913235
407 1 0.924768 0.168485 0.912349
404 1 0.661209 0.276226 0.905811
423 1 0.580043 0.34171 0.915506
398 1 0.571999 0.2526 0.825791
400 1 0.509375 0.252067 0.914966
667 1 0.745885 0.49694 0.584749
307 1 0.757446 0.0144513 0.75469
371 1 0.415454 0.00242105 0.920818
671 1 0.921065 0.494043 0.59532
361 1 0.00569895 0.00365311 0.821898
227 1 0.421092 0.0124793 0.589231
363 1 0.080108 0.000465109 0.929414
381 1 0.843204 0.00259894 0.835753
663 1 0.579586 0.498204 0.581394
270 1 0.24067 0.425522 0.499651
42 1 0.741697 0.259827 1.00099
230 1 0.596089 0.086414 0.502977
262 1 0.915343 0.238796 0.503
37 1 0.501251 0.16638 0.99562
9 1 0.320834 0.0145779 0.999461
254 1 0.58817 0.242604 0.513122
237 1 0.833138 0.0147882 0.510144
433 1 0.00015087 0.496809 0.994266
34 1 0.414101 0.259994 0.993613
22 1 0.910589 0.0768315 0.986084
6 1 0.253531 0.0990345 0.99869
30 1 0.261507 0.249877 1.00081
278 1 0.595905 0.414567 0.515332
33 1 0.337599 0.165807 0.975586
234 1 0.758838 0.090993 0.513483
281 1 0.660652 0.31684 0.510687
45 1 0.831113 0.160583 0.979475
10 1 0.421449 0.0863854 0.99051
5 1 0.16537 0.0134391 0.997849
653 1 0.169882 0.499695 0.507355
245 1 0.174394 0.174838 0.503555
58 1 0.417612 0.428074 0.988389
145 1 0.994937 0.99253 0.332499
436 1 0.996361 0.597919 0.0854364
165 1 0.829903 0.995025 0.330443
595 1 0.748032 0.504799 0.395759
440 1 0.160438 0.585804 0.0984979
463 1 0.243902 0.661341 0.084639
533 1 0.16437 0.661148 0.164889
489 1 0.321917 0.828121 0.000311753
444 1 0.336224 0.577271 0.0878578
448 1 0.50433 0.592268 0.0847957
467 1 0.416927 0.659861 0.0867144
452 1 0.656961 0.581078 0.094979
471 1 0.583617 0.674365 0.085827
518 1 0.578799 0.590392 0.164844
19 1 0.750834 0.99169 0.0813272
456 1 0.836226 0.579237 0.101626
475 1 0.752288 0.668391 0.0899867
549 1 0.827858 0.673169 0.172312
479 1 0.904845 0.673628 0.0763859
526 1 0.916439 0.579704 0.180611
710 1 0.578214 0.905115 0.491026
459 1 0.0809362 0.674841 0.0863466
483 1 0.0972143 0.841436 0.0938822
460 1 0.00834166 0.763043 0.0773189
557 1 0.17289 0.832598 0.164104
79 1 0.238671 1.00266 0.257086
464 1 0.177548 0.738322 0.0733734
534 1 0.247144 0.744133 0.161235
682 1 0.412281 0.761017 0.500911
521 1 0.662019 0.501316 0.16506
468 1 0.334428 0.750974 0.0783891
538 1 0.427458 0.75351 0.162019
565 1 0.499733 0.841037 0.161865
491 1 0.406193 0.828869 0.0714886
545 1 0.672874 0.666194 0.168488
472 1 0.492067 0.734843 0.0730346
495 1 0.574446 0.820424 0.0855082
476 1 0.67022 0.74908 0.0788148
583 1 0.237077 0.512171 0.403855
569 1 0.659831 0.839083 0.180807
546 1 0.746261 0.748598 0.166654
480 1 0.828341 0.748241 0.0851029
550 1 0.904334 0.75091 0.179224
573 1 0.825714 0.828233 0.171949
439 1 0.243753 0.502183 0.0905437
554 1 0.0941937 0.919913 0.178891
488 1 0.151358 0.931474 0.0861255
487 1 0.24651 0.836079 0.0721597
492 1 0.334164 0.913353 0.0785735
73 1 0.999721 0.985776 0.174526
496 1 0.503428 0.906713 0.0635406
515 1 0.417429 0.510448 0.242701
437 1 0.165179 0.502933 0.0050118
500 1 0.670032 0.910172 0.0835773
517 1 0.508681 0.504508 0.170965
566 1 0.57916 0.929227 0.174859
647 1 0.909776 0.823718 0.41792
499 1 0.757507 0.835181 0.0811018
570 1 0.749437 0.899703 0.16386
666 1 0.748625 0.59018 0.481662
628 1 0.997041 0.917926 0.41883
503 1 0.910562 0.822651 0.081302
484 1 0.00878842 0.907597 0.0939279
504 1 0.835836 0.909324 0.0794218
506 1 0.0786906 0.596705 0.183084
693 1 0.832551 0.672118 0.490919
512 1 0.166356 0.591909 0.242967
508 1 0.993722 0.603181 0.255187
578 1 0.0886629 0.596144 0.331003
507 1 0.0870441 0.513402 0.256028
95 1 0.900071 0.98051 0.244617
510 1 0.265398 0.587589 0.165746
516 1 0.332041 0.571472 0.250992
514 1 0.43056 0.587115 0.162814
541 1 0.502718 0.682217 0.165947
644 1 0.670383 0.932935 0.419865
539 1 0.40445 0.661562 0.238906
537 1 0.332256 0.67093 0.162207
520 1 0.499494 0.576045 0.246367
524 1 0.664566 0.583641 0.249238
617 1 0.666182 0.654495 0.327127
513 1 0.334075 0.498588 0.159302
522 1 0.752126 0.575147 0.172285
670 1 0.920229 0.589201 0.498411
599 1 0.92519 0.510925 0.412382
594 1 0.759418 0.592824 0.338445
155 1 0.415849 0.996779 0.424618
509 1 0.172343 0.516569 0.171652
528 1 0.828142 0.595083 0.252339
598 1 0.91375 0.58736 0.333638
153 1 0.335147 0.978812 0.336109
530 1 0.106709 0.752642 0.166119
531 1 0.0854492 0.67558 0.242797
532 1 0.00268028 0.75714 0.252126
536 1 0.167243 0.744574 0.251613
529 1 1.0017 0.675964 0.165424
553 1 0.0125374 0.831616 0.157397
535 1 0.243402 0.667138 0.242897
559 1 0.252924 0.830515 0.242638
540 1 0.33824 0.755753 0.246919
544 1 0.500067 0.740573 0.255663
561 1 0.344457 0.840919 0.176776
542 1 0.592408 0.752017 0.170876
543 1 0.596337 0.662316 0.25219
614 1 0.590667 0.75279 0.324048
567 1 0.574414 0.838492 0.252732
548 1 0.670288 0.751027 0.258974
641 1 0.66833 0.846764 0.327705
547 1 0.748347 0.6688 0.250601
645 1 0.829044 0.825029 0.327525
552 1 0.822945 0.745016 0.253175
571 1 0.742574 0.834005 0.256126
618 1 0.748723 0.738552 0.336567
551 1 0.917768 0.669616 0.253023
621 1 0.83393 0.67502 0.346915
622 1 0.919901 0.749292 0.332978
555 1 0.0831547 0.821766 0.257859
556 1 0.997033 0.909397 0.251697
626 1 0.0764261 0.897465 0.341809
560 1 0.165964 0.905425 0.253295
558 1 0.258221 0.923837 0.157305
648 1 0.834479 0.911306 0.412204
564 1 0.32631 0.922826 0.246697
629 1 0.173123 0.830348 0.339973
563 1 0.428515 0.833824 0.238379
562 1 0.415942 0.919538 0.174447
11 1 0.419366 1.00007 0.0701359
450 1 0.741729 0.58472 0.00201924
151 1 0.244177 0.997594 0.404435
638 1 0.600854 0.935594 0.340972
568 1 0.500261 0.925274 0.249675
572 1 0.673609 0.924279 0.256871
642 1 0.754171 0.923922 0.35103
637 1 0.494394 0.830148 0.325984
576 1 0.819936 0.914606 0.265612
15 1 0.588354 0.990414 0.0896373
640 1 0.513836 0.902145 0.407067
706 1 0.411835 0.908901 0.494316
575 1 0.921189 0.823019 0.263775
646 1 0.918002 0.913971 0.325184
574 1 0.922712 0.898863 0.173943
89 1 0.679752 0.997771 0.172652
634 1 0.418873 0.912428 0.321038
584 1 0.163031 0.594193 0.416609
603 1 0.078519 0.662507 0.428473
635 1 0.419065 0.817828 0.416497
582 1 0.255007 0.595651 0.328044
607 1 0.249732 0.667148 0.421211
636 1 0.332251 0.897393 0.415938
586 1 0.420989 0.597449 0.329841
588 1 0.317454 0.585804 0.410472
611 1 0.414633 0.674262 0.418966
592 1 0.494547 0.594697 0.405819
590 1 0.586882 0.584261 0.321567
596 1 0.667643 0.585392 0.406903
600 1 0.839954 0.585844 0.413033
485 1 0.162773 0.831851 0.00975746
632 1 0.163624 0.91651 0.411505
623 1 0.910283 0.67195 0.411831
580 1 0.0201062 0.569682 0.408489
93 1 0.825909 0.977106 0.160509
630 1 0.240243 0.918015 0.328112
157 1 0.479343 0.997454 0.338889
605 1 0.169011 0.667049 0.335321
602 1 0.0911674 0.748531 0.346164
606 1 0.235521 0.749293 0.339763
608 1 0.170029 0.74152 0.426124
612 1 0.319986 0.75038 0.420109
631 1 0.244108 0.830997 0.404982
609 1 0.333171 0.675383 0.32466
613 1 0.50472 0.678293 0.343378
610 1 0.416754 0.748593 0.333596
616 1 0.514823 0.761316 0.411935
633 1 0.337316 0.821016 0.32858
615 1 0.591299 0.670287 0.419863
620 1 0.662596 0.755141 0.413693
639 1 0.599528 0.8355 0.405258
589 1 0.493205 0.50771 0.329441
643 1 0.736559 0.839716 0.42436
619 1 0.743226 0.67081 0.417594
627 1 0.0890244 0.818419 0.425333
601 1 0.00097359 0.678932 0.339461
604 1 0.00416526 0.746507 0.423975
624 1 0.812843 0.751839 0.422354
625 1 0.99427 0.830456 0.354524
585 1 0.348068 0.508421 0.328249
91 1 0.751125 0.996641 0.260041
581 1 0.175205 0.514278 0.326229
75 1 0.0735839 0.987723 0.255859
591 1 0.582087 0.518931 0.414354
435 1 0.0663363 0.513395 0.0915747
445 1 0.505999 0.504216 0.00319403
705 1 0.310532 0.8143 0.496128
702 1 0.253939 0.912117 0.495426
494 1 0.588592 0.90885 0.00419236
490 1 0.415954 0.917593 0.00743987
486 1 0.236826 0.929819 0.0155129
658 1 0.414402 0.569113 0.480469
446 1 0.578484 0.585147 0.00566598
709 1 0.498597 0.831254 0.494321
482 1 0.0738842 0.914593 0.00545365
458 1 0.0784933 0.739982 0.00159097
221 1 0.177123 0.999179 0.500049
685 1 0.495474 0.671189 0.489182
502 1 0.910856 0.900575 0.00312267
17 1 0.671448 0.987456 0.0124859
438 1 0.242166 0.578693 0.00781066
697 1 0.995521 0.839323 0.49317
478 1 0.899166 0.745562 0.000778729
718 1 0.911106 0.932843 0.488709
21 1 0.847954 0.991927 0.00876993
694 1 0.915415 0.745868 0.496682
652 1 0.988054 0.573707 0.605472
656 1 0.150346 0.568132 0.588612
722 1 0.0804173 0.572716 0.671939
713 1 0.653088 0.839 0.502725
726 1 0.228554 0.575755 0.657583
474 1 0.753249 0.742466 0.996544
678 1 0.247976 0.726247 0.510581
660 1 0.312321 0.562228 0.598483
683 1 0.418372 0.65189 0.586202
664 1 0.501497 0.574558 0.597178
219 1 0.0739686 0.995844 0.57171
862 1 0.922753 0.906844 0.836931
809 1 0.657725 0.507696 0.826379
731 1 0.411331 0.515431 0.762423
668 1 0.674446 0.582342 0.573107
734 1 0.584145 0.587362 0.674474
861 1 0.83747 0.829396 0.837526
805 1 0.486855 0.506648 0.842523
223 1 0.266401 0.996205 0.578366
738 1 0.745576 0.579566 0.663478
289 1 0.0139699 0.998445 0.669414
737 1 0.659937 0.502458 0.660631
672 1 0.841247 0.567334 0.585443
742 1 0.899197 0.586159 0.676007
765 1 0.833577 0.675107 0.670627
864 1 0.837889 0.923823 0.927457
803 1 0.418645 0.511133 0.922219
675 1 0.0690361 0.652707 0.585186
676 1 0.00158973 0.748497 0.606445
746 1 0.0887813 0.748489 0.667492
477 1 0.83231 0.663903 0.995916
679 1 0.252623 0.652386 0.57965
680 1 0.157155 0.747246 0.578244
777 1 0.321154 0.834634 0.663766
811 1 0.763181 0.507079 0.919813
686 1 0.576939 0.736561 0.504613
684 1 0.332968 0.74324 0.568884
698 1 0.0725846 0.916829 0.498708
757 1 0.494221 0.660566 0.679407
688 1 0.495134 0.735908 0.580952
707 1 0.413743 0.82542 0.588472
753 1 0.334847 0.674792 0.663528
754 1 0.419057 0.738304 0.666139
687 1 0.574246 0.650459 0.582535
692 1 0.662419 0.754849 0.59184
711 1 0.597769 0.831491 0.595875
743 1 0.903104 0.502627 0.743701
465 1 0.334415 0.658971 0.999033
691 1 0.767685 0.65157 0.577166
696 1 0.833492 0.738563 0.569368
761 1 0.657123 0.674441 0.660707
741 1 0.834066 0.499963 0.663556
695 1 0.91226 0.660354 0.589324
766 1 0.917354 0.733423 0.67178
673 1 0.993185 0.67731 0.501162
699 1 0.0759481 0.839454 0.573393
704 1 0.158421 0.916369 0.5842
375 1 0.602626 0.996731 0.931412
469 1 0.491648 0.665507 0.996489
703 1 0.245762 0.851835 0.590816
708 1 0.344557 0.903156 0.57495
797 1 0.16938 0.503221 0.829401
239 1 0.925594 1.00066 0.589337
383 1 0.935986 0.996815 0.91973
712 1 0.501412 0.906459 0.569778
293 1 0.160815 0.996839 0.66495
379 1 0.759314 0.996024 0.90086
851 1 0.403157 0.844801 0.916217
715 1 0.758118 0.83623 0.592256
466 1 0.412206 0.737883 0.991785
716 1 0.671576 0.924093 0.57883
377 1 0.675004 0.995356 0.84194
700 1 0.992354 0.910862 0.574092
720 1 0.851236 0.908434 0.564167
719 1 0.924511 0.814616 0.582281
790 1 0.911868 0.909409 0.649377
749 1 0.16092 0.663423 0.669368
724 1 0.996777 0.571182 0.738413
747 1 0.0925541 0.68316 0.746677
794 1 0.0855339 0.575772 0.833141
649 1 0.988276 0.504838 0.504862
728 1 0.163565 0.573116 0.751322
732 1 0.321495 0.590005 0.756442
821 1 0.168383 0.671839 0.830434
730 1 0.414233 0.575566 0.665159
736 1 0.48587 0.590537 0.760169
802 1 0.41139 0.591017 0.844366
824 1 0.185825 0.743723 0.914517
740 1 0.663455 0.593625 0.745747
855 1 0.583552 0.836771 0.931368
828 1 0.324735 0.734962 0.910928
744 1 0.821875 0.580522 0.740853
810 1 0.741558 0.579756 0.838886
763 1 0.745885 0.666909 0.736746
807 1 0.582511 0.512961 0.906928
717 1 0.826796 0.823681 0.499423
767 1 0.929104 0.664153 0.7503
814 1 0.920719 0.585636 0.833857
835 1 0.751907 0.660941 0.924914
769 1 0.00902548 0.838518 0.660702
745 1 0.997807 0.665134 0.669147
771 1 0.096328 0.821741 0.75007
750 1 0.237018 0.755339 0.655433
751 1 0.240179 0.663995 0.746235
752 1 0.182048 0.74962 0.752142
822 1 0.257329 0.7445 0.827752
756 1 0.308021 0.750985 0.731488
773 1 0.170253 0.840962 0.661196
755 1 0.404419 0.661173 0.746149
779 1 0.413431 0.838902 0.75891
825 1 0.334721 0.663192 0.835125
758 1 0.580492 0.75853 0.672569
760 1 0.504269 0.750594 0.753389
759 1 0.588536 0.666435 0.752509
829 1 0.481975 0.673218 0.82986
830 1 0.577495 0.742982 0.83221
764 1 0.665791 0.756842 0.740492
762 1 0.755295 0.748834 0.656304
837 1 0.827562 0.664062 0.822173
833 1 0.679695 0.66075 0.82411
748 1 0.00614231 0.74535 0.741119
768 1 0.834143 0.750624 0.749155
838 1 0.914727 0.745673 0.820756
817 1 0.00519796 0.672043 0.833229
770 1 0.0850626 0.914396 0.659043
776 1 0.181968 0.933533 0.741704
858 1 0.763456 0.916515 0.815686
849 1 0.338012 0.832035 0.841378
775 1 0.235198 0.848778 0.740955
774 1 0.270071 0.937004 0.666677
780 1 0.341389 0.922174 0.754014
859 1 0.751926 0.843892 0.902486
231 1 0.579838 0.998581 0.573
850 1 0.40889 0.926266 0.839493
778 1 0.422577 0.905535 0.668102
781 1 0.497677 0.829415 0.661225
783 1 0.597433 0.841613 0.754455
784 1 0.499752 0.917868 0.75824
782 1 0.578292 0.915871 0.675166
788 1 0.673107 0.937266 0.735717
836 1 0.662778 0.735713 0.89678
847 1 0.257581 0.835665 0.919605
785 1 0.673626 0.857843 0.668167
789 1 0.840143 0.82232 0.656391
786 1 0.769257 0.923771 0.658068
787 1 0.749843 0.838665 0.75548
826 1 0.410443 0.744468 0.832054
854 1 0.583782 0.905379 0.839677
792 1 0.848406 0.926469 0.752577
791 1 0.920386 0.831221 0.748831
772 1 0.00812876 0.917297 0.751715
853 1 0.498816 0.837747 0.837626
800 1 0.163855 0.580443 0.925228
796 1 0.999052 0.596154 0.920435
819 1 0.0749615 0.673186 0.910614
857 1 0.671295 0.855162 0.832993
798 1 0.239635 0.577306 0.832866
823 1 0.241709 0.662549 0.920347
654 1 0.248094 0.580596 0.502457
863 1 0.907126 0.82715 0.919522
839 1 0.906579 0.680681 0.910204
804 1 0.318506 0.589252 0.916528
827 1 0.419586 0.660131 0.921001
860 1 0.669773 0.912685 0.929132
832 1 0.507835 0.751371 0.908698
846 1 0.257706 0.925062 0.835109
806 1 0.5767 0.581568 0.829556
843 1 0.105216 0.821783 0.927567
808 1 0.503571 0.586718 0.921159
831 1 0.579009 0.669974 0.910898
852 1 0.31772 0.92867 0.941168
470 1 0.581714 0.749119 0.999501
844 1 0.0216129 0.906306 0.903864
834 1 0.748994 0.756096 0.832371
856 1 0.510037 0.915996 0.917653
812 1 0.661009 0.582049 0.929403
816 1 0.83486 0.588493 0.904241
840 1 0.827085 0.747432 0.904952
848 1 0.170199 0.910701 0.921848
842 1 0.099083 0.917927 0.813886
818 1 0.0818177 0.742767 0.828697
841 1 0.00798986 0.818536 0.820419
845 1 0.179827 0.825719 0.841432
820 1 0.993899 0.75294 0.92243
457 1 0.987709 0.66849 0.997925
442 1 0.425395 0.584563 0.99901
473 1 0.66124 0.665391 0.994724
454 1 0.916845 0.582069 0.99678
689 1 0.660811 0.66014 0.505518
793 1 0.998 0.501891 0.836141
681 1 0.343665 0.650176 0.503542
735 1 0.568679 0.505971 0.745681
701 1 0.175511 0.83513 0.506271
690 1 0.73655 0.759325 0.51504
493 1 0.488311 0.818794 0.996045
449 1 0.670764 0.50565 0.997007
13 1 0.511008 0.989118 0.994142
714 1 0.753652 0.918042 0.50622
501 1 0.822283 0.828903 0.993436
481 1 0.00709369 0.819978 0.990948
650 1 0.0771309 0.581791 0.505886
497 1 0.670195 0.822046 0.995629
662 1 0.581495 0.585042 0.502047
677 1 0.157539 0.650467 0.516018
462 1 0.246447 0.745375 0.994933
674 1 0.0738904 0.750684 0.506284
498 1 0.758881 0.913028 1.00118
434 1 0.0760628 0.574567 0.987903
461 1 0.146645 0.661757 0.998766
233 1 0.670589 0.999418 0.508943
