ITEM: TIMESTEP
11000
ITEM: NUMBER OF ATOMS
2048
ITEM: BOX BOUNDS pp pp pp
0.0000000000000000e+00 4.2079999999999998e+01
0.0000000000000000e+00 4.2079999999999998e+01
0.0000000000000000e+00 4.2079999999999998e+01
ITEM: ATOMS id type xs ys zs
8 1 0.121372 0.0718903 0.059504
35 1 0.0581603 0.124771 0.0624757
130 1 0.0623509 0.0712273 0.117825
4 1 0.00341003 0.0672137 0.0550576
3 1 0.06074 0.00430013 0.0608902
133 1 0.122839 0.00765923 0.123792
129 1 0.00622128 0.0135731 0.124914
2 1 0.0600484 0.0709721 0.000116609
5 1 0.118537 0.0160889 0.00185074
39 1 0.186486 0.116677 0.0627491
12 1 0.249392 0.0694442 0.0702864
7 1 0.189277 0.0184343 0.0531095
9 1 0.246717 0.00398937 0.00622173
43 1 0.308853 0.119827 0.067465
138 1 0.323621 0.0543105 0.115523
16 1 0.375296 0.0708435 0.0566199
20 1 0.482627 0.0550396 0.0670129
173 1 0.375833 0.122778 0.119645
142 1 0.429022 0.0655168 0.120014
177 1 0.509579 0.122943 0.117666
49 1 0.502327 0.113924 0.00375612
17 1 0.502585 0.0109243 0.00256291
24 1 0.630886 0.068123 0.0572941
28 1 0.745576 0.0661032 0.0626075
185 1 0.741511 0.112662 0.124845
150 1 0.678442 0.0572826 0.121605
57 1 0.744361 0.122297 0.00382895
154 1 0.815505 0.0546178 0.123156
27 1 0.828679 0.00636472 0.0564952
32 1 0.879886 0.0668223 0.0642917
63 1 0.934224 0.123355 0.0631264
157 1 0.879412 0.00368556 0.116013
31 1 0.935138 0.000587948 0.0602382
40 1 0.122183 0.181586 0.0584429
34 1 0.0598013 0.189577 0.000203574
166 1 0.186776 0.188258 0.122528
71 1 0.183741 0.247367 0.0616364
73 1 0.245234 0.248324 0.002916
38 1 0.19023 0.184432 0.00348914
44 1 0.253207 0.184922 0.058759
170 1 0.312859 0.187985 0.124393
75 1 0.307578 0.247905 0.0705653
48 1 0.371526 0.192171 0.0602207
41 1 0.257068 0.131964 0.00324224
45 1 0.370126 0.131145 0.00278996
47 1 0.437108 0.128068 0.0571674
79 1 0.439321 0.247617 0.0585517
174 1 0.436569 0.183625 0.119375
52 1 0.499667 0.185417 0.0592638
51 1 0.569791 0.131472 0.055382
83 1 0.561772 0.249472 0.0645185
178 1 0.560824 0.19115 0.120106
81 1 0.507311 0.248853 0.00788468
50 1 0.555386 0.187119 0.00168042
54 1 0.693264 0.187144 0.00221732
56 1 0.632538 0.19877 0.058315
55 1 0.680077 0.126414 0.0635988
60 1 0.743658 0.173907 0.0827798
89 1 0.745741 0.247294 0.00213572
189 1 0.865785 0.128465 0.123665
59 1 0.813677 0.129365 0.0593448
64 1 0.868296 0.18864 0.0638551
91 1 0.797912 0.246751 0.0726026
58 1 0.815083 0.189722 0.00222658
36 1 0.994311 0.183668 0.0648838
190 1 0.938602 0.196632 0.12052
61 1 0.878752 0.134326 0.00250941
93 1 0.875735 0.246569 0.0062235
67 1 0.0607003 0.255385 0.0572618
99 1 0.0644193 0.369237 0.0526859
72 1 0.122582 0.312845 0.0492462
194 1 0.0637761 0.315563 0.118804
76 1 0.240753 0.30354 0.0649149
233 1 0.237975 0.368592 0.116358
229 1 0.129376 0.3741 0.114797
70 1 0.185029 0.303326 0.00195128
80 1 0.372515 0.305094 0.059865
202 1 0.300495 0.322195 0.124164
107 1 0.310665 0.369174 0.0657797
105 1 0.253819 0.367261 0.0108402
109 1 0.372023 0.366755 0.00371189
74 1 0.308563 0.303987 0.00368839
111 1 0.434587 0.36156 0.0610211
84 1 0.502199 0.302927 0.0632584
115 1 0.566883 0.370208 0.06599
82 1 0.569189 0.308057 0.00355246
113 1 0.511169 0.365895 0.010191
88 1 0.628578 0.304263 0.0595096
87 1 0.694342 0.251598 0.0571192
92 1 0.74984 0.31019 0.0596605
214 1 0.698323 0.311869 0.122859
119 1 0.683956 0.370471 0.0555773
218 1 0.812342 0.315076 0.121655
221 1 0.874614 0.256768 0.123677
90 1 0.813732 0.315368 0.000966068
193 1 0.997524 0.255706 0.115722
68 1 0.996348 0.319287 0.0472499
96 1 0.875428 0.314807 0.0635771
95 1 0.932865 0.250961 0.0611373
1027 1 0.0544815 0.482649 0.0710067
226 1 0.0643554 0.420755 0.120919
1157 1 0.122485 0.494096 0.116074
103 1 0.177482 0.377169 0.0531875
104 1 0.128519 0.440224 0.0542138
108 1 0.243248 0.431768 0.0570037
230 1 0.187765 0.439065 0.115977
1161 1 0.255187 0.497642 0.118407
112 1 0.371465 0.426438 0.058813
234 1 0.306523 0.431634 0.116311
1035 1 0.308514 0.499021 0.0672531
1037 1 0.364649 0.494136 0.00827106
106 1 0.308799 0.439667 0.00578386
1039 1 0.439506 0.496392 0.0577096
238 1 0.451879 0.447485 0.124369
110 1 0.442193 0.432551 0.00829852
116 1 0.501096 0.426902 0.065901
120 1 0.620329 0.431514 0.0574921
242 1 0.569072 0.430913 0.123662
114 1 0.561697 0.432193 0.000929626
124 1 0.746403 0.43672 0.0608458
249 1 0.745577 0.378153 0.119449
1173 1 0.630454 0.483218 0.116178
246 1 0.685374 0.427099 0.12187
123 1 0.815309 0.37776 0.0622656
250 1 0.80913 0.426576 0.119887
1181 1 0.870254 0.491788 0.120242
127 1 0.943545 0.375595 0.0681695
100 1 0.99124 0.432523 0.052382
128 1 0.876856 0.439973 0.0601821
1055 1 0.93584 0.495163 0.0618016
1153 1 0.995269 0.48878 0.118902
136 1 0.11369 0.0804852 0.19534
261 1 0.122211 0.00179977 0.242403
131 1 0.0690753 0.0132949 0.180445
135 1 0.190441 0.0030487 0.193801
134 1 0.18143 0.0582388 0.13652
262 1 0.193076 0.0618654 0.248807
167 1 0.185812 0.123538 0.17934
139 1 0.309066 0.0073383 0.183594
140 1 0.261694 0.0673823 0.187384
144 1 0.37199 0.0595811 0.183259
266 1 0.31929 0.0664295 0.248396
143 1 0.43147 0.00568467 0.185711
301 1 0.384282 0.118033 0.241724
175 1 0.444483 0.124577 0.186551
148 1 0.498073 0.0656069 0.172082
270 1 0.442381 0.0643722 0.24642
277 1 0.619327 0.00466782 0.24965
146 1 0.563864 0.0639779 0.125632
147 1 0.562002 0.0100423 0.190515
152 1 0.625382 0.0631465 0.191574
181 1 0.628347 0.117103 0.127085
183 1 0.691558 0.122835 0.183578
309 1 0.627108 0.123412 0.248414
153 1 0.748807 0.00373695 0.129679
151 1 0.68831 0.00480639 0.186004
156 1 0.751508 0.0549363 0.202046
317 1 0.870446 0.124712 0.2454
160 1 0.874321 0.0578608 0.188111
187 1 0.81116 0.119408 0.18512
132 1 0.99876 0.0671677 0.195652
158 1 0.937516 0.0642471 0.125099
286 1 0.938352 0.0704485 0.243919
159 1 0.93839 0.00838933 0.194424
165 1 0.11991 0.128077 0.129394
163 1 0.0633517 0.14127 0.198356
162 1 0.0586088 0.183652 0.126384
168 1 0.120939 0.198035 0.197684
197 1 0.11284 0.242489 0.129031
321 1 0.00134062 0.243887 0.249008
297 1 0.249441 0.128773 0.249168
172 1 0.241823 0.187223 0.193925
201 1 0.238108 0.248195 0.132198
294 1 0.186558 0.197008 0.246413
169 1 0.25138 0.130364 0.126054
171 1 0.320559 0.131025 0.188939
176 1 0.381815 0.190704 0.176061
180 1 0.491339 0.191074 0.183926
302 1 0.440305 0.191983 0.248309
333 1 0.377037 0.247534 0.2321
179 1 0.557839 0.130023 0.185353
184 1 0.614342 0.189485 0.181704
306 1 0.551812 0.196372 0.236744
182 1 0.674897 0.180233 0.128971
188 1 0.745272 0.178943 0.182949
215 1 0.68401 0.243719 0.18573
310 1 0.693106 0.185707 0.241971
186 1 0.817332 0.194217 0.131525
314 1 0.812875 0.201441 0.241981
161 1 0.989579 0.128901 0.127393
191 1 0.925024 0.128818 0.180115
164 1 0.990663 0.192925 0.183064
192 1 0.881801 0.19873 0.185338
289 1 0.99404 0.133513 0.235509
318 1 0.929123 0.184629 0.248803
225 1 0.00568489 0.372556 0.127012
195 1 0.0539106 0.253274 0.186417
227 1 0.0600549 0.373071 0.193525
200 1 0.122379 0.313112 0.190269
196 1 0.00645501 0.317673 0.189645
199 1 0.177546 0.253014 0.186947
357 1 0.132368 0.373417 0.244592
198 1 0.173923 0.303111 0.12805
326 1 0.184384 0.30916 0.244884
204 1 0.234881 0.314059 0.185341
203 1 0.299877 0.250752 0.178865
205 1 0.368008 0.261323 0.127187
208 1 0.363469 0.317044 0.18518
207 1 0.435295 0.251751 0.179481
209 1 0.497233 0.254432 0.127174
206 1 0.424769 0.314971 0.128348
334 1 0.430874 0.305029 0.240453
212 1 0.497012 0.315752 0.185535
211 1 0.55446 0.261166 0.183794
210 1 0.562436 0.313785 0.129795
338 1 0.566053 0.320406 0.239106
213 1 0.62237 0.251097 0.126042
216 1 0.62405 0.309508 0.184
245 1 0.631806 0.369069 0.125779
342 1 0.682145 0.309524 0.243806
247 1 0.694361 0.37315 0.185425
219 1 0.822561 0.263618 0.191489
345 1 0.754098 0.250317 0.24208
217 1 0.763072 0.262008 0.146297
220 1 0.752616 0.323981 0.190137
223 1 0.93667 0.259945 0.17921
224 1 0.878067 0.329844 0.204071
349 1 0.877586 0.250343 0.247012
222 1 0.939372 0.313771 0.125603
253 1 0.880188 0.364269 0.127311
1285 1 0.117146 0.493859 0.243823
1155 1 0.0544835 0.497192 0.173263
232 1 0.121617 0.426692 0.183945
228 1 0.00215634 0.433088 0.178081
231 1 0.179346 0.377417 0.182191
358 1 0.186941 0.439774 0.248095
236 1 0.240823 0.432728 0.177219
1159 1 0.183305 0.494334 0.17705
1163 1 0.302518 0.492865 0.181315
235 1 0.305118 0.377801 0.202001
240 1 0.372346 0.435057 0.192438
362 1 0.307756 0.438514 0.248543
1165 1 0.365834 0.483585 0.128322
1297 1 0.49967 0.496044 0.244069
1167 1 0.431199 0.499582 0.194929
237 1 0.381014 0.383613 0.127966
239 1 0.439445 0.381174 0.187164
1171 1 0.565419 0.492964 0.174347
241 1 0.503728 0.375659 0.126791
243 1 0.573723 0.380368 0.186386
244 1 0.509572 0.439328 0.183683
370 1 0.563406 0.442677 0.247006
369 1 0.513296 0.377573 0.241628
373 1 0.63479 0.376696 0.247025
248 1 0.634765 0.437627 0.183226
374 1 0.696226 0.446991 0.240527
252 1 0.749452 0.431451 0.180315
1309 1 0.870932 0.488022 0.249683
251 1 0.816675 0.381055 0.190578
1179 1 0.810803 0.496026 0.187543
256 1 0.880158 0.438556 0.188958
254 1 0.928809 0.436109 0.12593
255 1 0.944261 0.375564 0.18365
353 1 0.99542 0.379901 0.245219
1183 1 0.949464 0.488941 0.193823
385 1 0.00225322 0.0168849 0.366385
389 1 0.122774 0.00287147 0.359923
258 1 0.0559163 0.0609898 0.261436
386 1 0.0595064 0.0739171 0.366971
257 1 0.000292075 0.0073092 0.256787
393 1 0.242854 0.00618589 0.371348
263 1 0.18914 0.000249362 0.302447
264 1 0.134939 0.0611974 0.2983
268 1 0.24647 0.0647894 0.311418
390 1 0.184102 0.0549665 0.372524
421 1 0.130252 0.121971 0.366482
267 1 0.311033 0.00609854 0.310624
299 1 0.306944 0.11387 0.304564
429 1 0.36992 0.117181 0.372925
394 1 0.302709 0.0655021 0.371059
265 1 0.258389 0.00872788 0.25331
272 1 0.383942 0.0618075 0.314203
303 1 0.432707 0.122475 0.314629
398 1 0.439105 0.0590378 0.373792
305 1 0.492457 0.124844 0.255716
273 1 0.498633 0.00388877 0.267032
275 1 0.565199 0.00295166 0.311666
276 1 0.506639 0.0630032 0.324489
274 1 0.558208 0.0773133 0.257102
409 1 0.747727 0.00342968 0.374962
278 1 0.688988 0.052284 0.254274
280 1 0.628254 0.0687762 0.308887
311 1 0.690909 0.119922 0.306572
406 1 0.686525 0.0613175 0.362842
285 1 0.871656 0.00212019 0.256995
282 1 0.816234 0.0623289 0.253346
284 1 0.763206 0.071646 0.31128
288 1 0.87213 0.0635096 0.321499
410 1 0.811235 0.0600532 0.372687
260 1 0.995913 0.0761824 0.309655
414 1 0.933715 0.0748021 0.3691
287 1 0.937313 0.00953648 0.31701
290 1 0.0575639 0.194786 0.25303
291 1 0.0522799 0.132449 0.301155
296 1 0.123716 0.196742 0.315552
418 1 0.0673687 0.176494 0.367122
323 1 0.0518415 0.249122 0.320474
293 1 0.130119 0.133568 0.252236
295 1 0.19508 0.127602 0.313385
300 1 0.243988 0.18739 0.309718
422 1 0.186034 0.196701 0.372454
298 1 0.320809 0.190553 0.252655
304 1 0.373339 0.176154 0.310288
331 1 0.315259 0.242395 0.313783
426 1 0.307323 0.176876 0.366947
461 1 0.368652 0.242394 0.372009
457 1 0.252601 0.245362 0.374126
335 1 0.443686 0.247828 0.310716
430 1 0.437694 0.182579 0.369679
308 1 0.502912 0.190798 0.314237
307 1 0.558588 0.135495 0.309655
339 1 0.570649 0.235239 0.310386
437 1 0.617174 0.130155 0.371889
341 1 0.62691 0.246595 0.251624
312 1 0.63045 0.183675 0.299971
343 1 0.69737 0.2434 0.302164
441 1 0.741062 0.129586 0.369205
313 1 0.757934 0.132566 0.252342
315 1 0.824603 0.129475 0.322347
316 1 0.758281 0.195932 0.304394
442 1 0.814584 0.19558 0.371365
319 1 0.936894 0.133701 0.307269
320 1 0.880154 0.195317 0.310738
292 1 0.987993 0.191167 0.327095
417 1 0.998121 0.128017 0.373881
325 1 0.112447 0.259527 0.253698
322 1 0.0527739 0.320764 0.253526
324 1 0.00557676 0.315675 0.324326
355 1 0.0620175 0.373534 0.30639
329 1 0.2459 0.251918 0.257482
361 1 0.241513 0.361366 0.250643
328 1 0.125013 0.310046 0.308731
327 1 0.185627 0.255153 0.31591
365 1 0.37245 0.370059 0.251785
330 1 0.30871 0.308586 0.251157
332 1 0.251353 0.307568 0.321722
363 1 0.309368 0.372522 0.314093
336 1 0.378744 0.299041 0.301982
367 1 0.438139 0.364937 0.298626
462 1 0.441486 0.310558 0.352303
337 1 0.511649 0.261792 0.251796
340 1 0.500633 0.311317 0.3066
344 1 0.621758 0.308422 0.304243
466 1 0.570782 0.306564 0.356252
348 1 0.742465 0.321377 0.313605
377 1 0.744026 0.374779 0.253632
470 1 0.676699 0.322672 0.37458
346 1 0.809606 0.31784 0.261686
347 1 0.806186 0.262108 0.315713
350 1 0.952503 0.30929 0.25054
477 1 0.875883 0.263554 0.369936
352 1 0.884707 0.319215 0.30756
351 1 0.934537 0.256381 0.312888
478 1 0.944027 0.309644 0.374998
354 1 0.0575324 0.432277 0.258007
360 1 0.119455 0.4336 0.303337
482 1 0.0764828 0.435284 0.367108
356 1 0.0014956 0.438619 0.321584
1283 1 0.0653595 0.498733 0.310112
1281 1 0.00613237 0.493312 0.252844
1289 1 0.24592 0.499243 0.255376
485 1 0.126872 0.37533 0.369607
359 1 0.189757 0.377627 0.313438
486 1 0.169397 0.4401 0.372777
1287 1 0.178832 0.490598 0.311792
1291 1 0.313392 0.499273 0.324934
364 1 0.253394 0.444607 0.314569
490 1 0.320671 0.440134 0.373907
1295 1 0.438863 0.49474 0.316753
366 1 0.439906 0.437977 0.254286
493 1 0.383618 0.385616 0.362179
368 1 0.378401 0.442153 0.304982
497 1 0.487442 0.376667 0.36383
371 1 0.571725 0.381168 0.307013
372 1 0.506773 0.437738 0.309306
1303 1 0.695565 0.497586 0.311564
376 1 0.627101 0.44853 0.305781
375 1 0.67987 0.382602 0.312987
506 1 0.824923 0.446337 0.373233
381 1 0.86359 0.38691 0.262407
378 1 0.803488 0.439776 0.251081
1307 1 0.815144 0.495259 0.311425
380 1 0.750873 0.440509 0.311063
379 1 0.804538 0.375597 0.316903
384 1 0.876687 0.44592 0.316238
382 1 0.943743 0.450614 0.263925
383 1 0.948825 0.379304 0.308488
387 1 0.0516177 0.00451742 0.442456
392 1 0.119576 0.0560124 0.430654
517 1 0.11313 0.00912626 0.496956
388 1 0.00626638 0.0667264 0.448153
514 1 0.0671122 0.0704834 0.498427
391 1 0.183352 0.000369569 0.439184
396 1 0.243725 0.0623021 0.435936
525 1 0.355523 0.00226577 0.499131
395 1 0.30082 0.00486686 0.428525
400 1 0.36677 0.0691314 0.431901
397 1 0.372345 0.00861158 0.378464
401 1 0.496166 0.00313503 0.376453
404 1 0.492827 0.054461 0.444964
431 1 0.43342 0.122844 0.440734
433 1 0.496529 0.121866 0.381721
526 1 0.421309 0.0502007 0.497096
403 1 0.556632 0.00041629 0.435059
402 1 0.565884 0.0607499 0.381644
408 1 0.619534 0.0562302 0.444593
530 1 0.561578 0.0680885 0.490049
439 1 0.67641 0.115183 0.434668
412 1 0.740193 0.0687458 0.438252
573 1 0.87305 0.122342 0.494678
416 1 0.859728 0.06505 0.433358
541 1 0.871136 0.0117565 0.495201
415 1 0.938997 0.0238033 0.430014
447 1 0.929273 0.120252 0.439042
542 1 0.933065 0.0673723 0.499491
513 1 0.987199 0.00265219 0.496732
419 1 0.0692941 0.129707 0.43395
451 1 0.0592913 0.23513 0.438773
424 1 0.124029 0.191902 0.428237
549 1 0.122396 0.135995 0.496778
585 1 0.245873 0.248561 0.492235
425 1 0.237056 0.125501 0.378948
423 1 0.187098 0.125745 0.442178
428 1 0.244547 0.184948 0.427031
550 1 0.193362 0.18968 0.491539
589 1 0.367949 0.240173 0.489854
427 1 0.303471 0.125569 0.435571
459 1 0.310259 0.244255 0.431054
432 1 0.366251 0.179892 0.429845
554 1 0.306524 0.186538 0.493051
436 1 0.4898 0.183092 0.430608
463 1 0.42507 0.240428 0.424328
465 1 0.508501 0.246466 0.375055
434 1 0.553573 0.179935 0.384865
435 1 0.56817 0.129328 0.443558
440 1 0.624661 0.184857 0.444626
467 1 0.560933 0.238476 0.444042
438 1 0.681069 0.18543 0.375745
471 1 0.681475 0.242839 0.442193
444 1 0.744024 0.18815 0.434002
448 1 0.866578 0.193493 0.446167
443 1 0.805135 0.128085 0.431631
570 1 0.798618 0.184713 0.497201
446 1 0.922502 0.198539 0.388033
479 1 0.930816 0.248462 0.454757
445 1 0.879507 0.130691 0.377044
420 1 0.989379 0.180674 0.439291
453 1 0.124068 0.253585 0.38396
450 1 0.0602589 0.306322 0.377235
452 1 0.00598797 0.300075 0.443284
456 1 0.119231 0.317172 0.436081
454 1 0.187058 0.309295 0.380359
582 1 0.188454 0.31331 0.489086
455 1 0.194513 0.252715 0.433152
613 1 0.13085 0.371117 0.494788
586 1 0.320408 0.31348 0.488806
458 1 0.30966 0.316554 0.376263
460 1 0.260235 0.315924 0.435434
491 1 0.333039 0.373724 0.437668
464 1 0.380305 0.306963 0.417965
468 1 0.490446 0.309545 0.433249
590 1 0.429431 0.301894 0.49277
593 1 0.496015 0.252465 0.497431
472 1 0.616134 0.314726 0.439692
499 1 0.552492 0.368859 0.435885
594 1 0.567655 0.315827 0.499784
505 1 0.748742 0.372525 0.376056
503 1 0.687753 0.373162 0.443865
473 1 0.741506 0.26563 0.375514
476 1 0.744759 0.31887 0.431627
469 1 0.628064 0.252839 0.379633
598 1 0.688293 0.311349 0.49919
507 1 0.817266 0.369591 0.441991
474 1 0.814808 0.32422 0.378025
475 1 0.803366 0.2567 0.440746
449 1 0.994882 0.251162 0.385287
480 1 0.886188 0.314991 0.444419
484 1 0.010254 0.440375 0.446558
483 1 0.059268 0.376734 0.449909
481 1 0.0104127 0.382355 0.388006
488 1 0.128812 0.437263 0.442009
492 1 0.245599 0.444979 0.45026
487 1 0.193264 0.377778 0.434253
617 1 0.249141 0.376835 0.499985
489 1 0.257205 0.379349 0.386296
496 1 0.373188 0.447689 0.437874
1419 1 0.298057 0.496787 0.436488
625 1 0.497641 0.376891 0.495757
495 1 0.424119 0.375078 0.434145
494 1 0.430695 0.440381 0.375553
500 1 0.494644 0.434322 0.427674
498 1 0.559209 0.432663 0.385323
501 1 0.624685 0.382364 0.380359
626 1 0.552615 0.44204 0.489014
1427 1 0.562119 0.499275 0.431463
1431 1 0.687342 0.491949 0.449246
1433 1 0.746465 0.498587 0.384432
502 1 0.69245 0.447272 0.377279
504 1 0.626923 0.439475 0.436895
1429 1 0.637656 0.497548 0.383192
508 1 0.766901 0.44146 0.440562
633 1 0.757801 0.380823 0.49564
1561 1 0.752169 0.499139 0.497338
511 1 0.947704 0.379201 0.43365
512 1 0.877658 0.445362 0.436949
509 1 0.876639 0.382851 0.375435
510 1 0.946422 0.440249 0.377344
645 1 0.117261 0.00712631 0.620161
515 1 0.0659454 0.00427695 0.562248
516 1 0.00859072 0.0665928 0.556347
520 1 0.127713 0.0609439 0.559913
646 1 0.1945 0.0522484 0.623708
524 1 0.245747 0.0478949 0.562541
519 1 0.177036 0.00506585 0.550707
518 1 0.183809 0.0653372 0.501384
555 1 0.30823 0.115761 0.564083
528 1 0.372327 0.0605057 0.564176
557 1 0.369166 0.118852 0.501168
522 1 0.302781 0.0593665 0.509779
559 1 0.426427 0.123603 0.556487
532 1 0.477857 0.0673361 0.558492
653 1 0.380882 0.00222501 0.618957
529 1 0.497875 0.00813314 0.504144
536 1 0.61041 0.0581133 0.565167
689 1 0.508761 0.121206 0.613527
533 1 0.623006 0.00490766 0.506482
567 1 0.696071 0.121199 0.561568
540 1 0.746453 0.0595178 0.570157
662 1 0.681053 0.0595523 0.624163
565 1 0.627894 0.10641 0.504228
534 1 0.691245 0.0559831 0.502898
666 1 0.808269 0.0580951 0.624092
571 1 0.806707 0.123767 0.56566
538 1 0.809703 0.0611223 0.502304
544 1 0.879341 0.0708973 0.566805
575 1 0.939631 0.123436 0.573504
641 1 0.999138 0.00410623 0.619601
543 1 0.935894 0.00566821 0.568363
547 1 0.0766823 0.129476 0.564544
546 1 0.0635598 0.191627 0.515327
545 1 0.00708954 0.13619 0.50146
674 1 0.0616193 0.194491 0.619556
551 1 0.181916 0.132606 0.55796
681 1 0.238054 0.128232 0.624122
552 1 0.136752 0.195949 0.563628
678 1 0.200643 0.198897 0.619974
581 1 0.131574 0.248395 0.505236
556 1 0.251427 0.19493 0.561465
560 1 0.372827 0.191597 0.571755
587 1 0.316926 0.24749 0.563074
553 1 0.255328 0.133973 0.504472
561 1 0.49993 0.128171 0.507762
591 1 0.426587 0.243647 0.56067
558 1 0.419004 0.182838 0.502131
564 1 0.502268 0.2011 0.570914
563 1 0.570715 0.127172 0.562792
690 1 0.575821 0.191346 0.608816
562 1 0.566393 0.190725 0.515638
568 1 0.634865 0.179076 0.557398
572 1 0.747684 0.200122 0.5646
697 1 0.74843 0.129471 0.620338
566 1 0.697023 0.195976 0.506938
698 1 0.808324 0.184574 0.624504
569 1 0.752949 0.126103 0.500543
605 1 0.875767 0.245209 0.51353
576 1 0.875268 0.179625 0.566729
548 1 0.989971 0.189245 0.560375
607 1 0.935006 0.249281 0.564072
574 1 0.933771 0.182317 0.503477
579 1 0.0626776 0.261823 0.569536
584 1 0.12477 0.321365 0.557434
609 1 0.00467598 0.370044 0.514942
578 1 0.0682515 0.310903 0.502285
583 1 0.191657 0.264361 0.557452
615 1 0.184933 0.361419 0.560176
709 1 0.130271 0.260332 0.612234
713 1 0.260876 0.268557 0.617808
588 1 0.259651 0.314524 0.55434
714 1 0.321534 0.312439 0.621063
592 1 0.369468 0.311205 0.54884
749 1 0.384256 0.372779 0.623917
623 1 0.436703 0.363851 0.555693
718 1 0.440667 0.305615 0.62383
596 1 0.487491 0.302526 0.553688
595 1 0.561844 0.265718 0.56518
627 1 0.560652 0.368731 0.557318
600 1 0.63695 0.317059 0.571472
599 1 0.690906 0.254674 0.562777
604 1 0.747994 0.319746 0.567103
729 1 0.74341 0.259359 0.623883
597 1 0.62874 0.257358 0.502406
603 1 0.818206 0.254818 0.572413
608 1 0.87357 0.313269 0.573045
602 1 0.824675 0.306136 0.506758
601 1 0.758094 0.264106 0.505738
580 1 0.999917 0.311947 0.570817
639 1 0.940371 0.374217 0.57886
577 1 0.993782 0.250508 0.509167
606 1 0.937875 0.317028 0.513411
1537 1 0.00892102 0.490564 0.510056
611 1 0.0655056 0.378665 0.57667
616 1 0.12263 0.436811 0.564985
612 1 0.00542997 0.428634 0.573711
610 1 0.0696859 0.431829 0.500271
614 1 0.190006 0.437409 0.517791
1541 1 0.130983 0.494355 0.513533
742 1 0.187105 0.433407 0.61376
1545 1 0.24081 0.497744 0.503493
1673 1 0.250417 0.490071 0.624291
619 1 0.315259 0.37694 0.571962
620 1 0.252584 0.420987 0.567594
624 1 0.372872 0.435282 0.556064
746 1 0.323333 0.434458 0.622863
618 1 0.31504 0.429888 0.506564
621 1 0.371792 0.375605 0.502905
1551 1 0.443877 0.498331 0.554606
1677 1 0.376756 0.494171 0.623295
753 1 0.497625 0.378134 0.615529
750 1 0.437236 0.439846 0.618199
1549 1 0.378746 0.494071 0.502893
622 1 0.441234 0.435839 0.503626
628 1 0.505629 0.436481 0.567847
1555 1 0.564604 0.495981 0.555391
754 1 0.562882 0.421964 0.617356
631 1 0.689261 0.380399 0.559491
632 1 0.62712 0.435511 0.563649
757 1 0.634604 0.389424 0.624306
1559 1 0.678272 0.497626 0.555905
630 1 0.689131 0.439319 0.50772
1557 1 0.626293 0.492142 0.502361
629 1 0.627175 0.388182 0.500217
634 1 0.815374 0.445988 0.504935
636 1 0.758031 0.432051 0.556447
635 1 0.812317 0.375067 0.571985
640 1 0.874333 0.441014 0.572883
761 1 0.751609 0.386436 0.624881
762 1 0.796165 0.452782 0.614839
1567 1 0.94738 0.491204 0.571971
637 1 0.881043 0.381878 0.509636
638 1 0.94764 0.43189 0.512206
1565 1 0.892953 0.490938 0.503364
642 1 0.0614901 0.0681828 0.625359
648 1 0.120261 0.0659579 0.691693
643 1 0.0619213 0.00757991 0.696499
644 1 0.000426762 0.0632285 0.683229
647 1 0.186189 0.00219348 0.686267
652 1 0.236847 0.0645235 0.684912
774 1 0.182944 0.0609811 0.744949
650 1 0.319687 0.0561413 0.636017
778 1 0.315979 0.0705023 0.748001
651 1 0.307617 0.00472493 0.696177
654 1 0.44237 0.0605812 0.627331
656 1 0.380432 0.063343 0.692469
687 1 0.441903 0.116809 0.685879
782 1 0.446784 0.062557 0.745909
658 1 0.569466 0.0596209 0.629736
660 1 0.519062 0.0663862 0.687609
786 1 0.569198 0.0592975 0.742914
659 1 0.562965 0.00107492 0.679659
664 1 0.6309 0.0602913 0.687011
668 1 0.736435 0.046965 0.674997
790 1 0.685536 0.0461568 0.74253
701 1 0.866028 0.115106 0.631649
794 1 0.817951 0.0485799 0.743714
699 1 0.79948 0.113552 0.690696
670 1 0.933517 0.0624478 0.630632
672 1 0.876937 0.0545154 0.690506
703 1 0.930645 0.119959 0.687237
675 1 0.0715278 0.135795 0.688584
673 1 0.00277822 0.135985 0.62844
707 1 0.0638869 0.246825 0.678026
676 1 0.00986209 0.18301 0.700545
677 1 0.128951 0.126652 0.627209
679 1 0.186928 0.138754 0.67758
680 1 0.132889 0.198775 0.684838
682 1 0.30055 0.195145 0.626313
684 1 0.265169 0.19769 0.694286
683 1 0.302334 0.126361 0.670731
688 1 0.369685 0.188626 0.676418
685 1 0.372903 0.126942 0.627887
686 1 0.440307 0.194383 0.625524
814 1 0.44358 0.18256 0.748804
817 1 0.513488 0.129451 0.745659
691 1 0.567578 0.130452 0.683821
692 1 0.503219 0.194924 0.683632
818 1 0.568005 0.19652 0.745763
693 1 0.627652 0.127161 0.626708
696 1 0.627768 0.189464 0.691689
694 1 0.687461 0.178497 0.632358
695 1 0.686139 0.127391 0.696131
700 1 0.746331 0.183203 0.698275
725 1 0.627507 0.249667 0.630619
704 1 0.868125 0.183687 0.698654
733 1 0.862878 0.242509 0.638993
702 1 0.923594 0.185725 0.641598
830 1 0.941512 0.182533 0.745676
706 1 0.0582229 0.31178 0.628903
708 1 0.0069583 0.305042 0.691778
739 1 0.0718699 0.372293 0.699909
737 1 0.00909353 0.373753 0.633494
834 1 0.0694462 0.299342 0.743876
710 1 0.19521 0.310304 0.635777
712 1 0.130697 0.303938 0.684513
741 1 0.129019 0.362818 0.626785
711 1 0.206853 0.250528 0.686359
837 1 0.134878 0.251802 0.748457
838 1 0.195781 0.314448 0.740723
745 1 0.257095 0.373111 0.633106
715 1 0.321842 0.26369 0.69339
716 1 0.263708 0.314382 0.685025
873 1 0.257318 0.372462 0.748682
717 1 0.375544 0.252105 0.627031
720 1 0.380451 0.330449 0.68996
719 1 0.429547 0.258635 0.689484
751 1 0.446655 0.373237 0.684186
845 1 0.381973 0.256935 0.748075
721 1 0.519672 0.258885 0.634076
723 1 0.570484 0.258451 0.691006
724 1 0.512517 0.323242 0.674275
722 1 0.578739 0.3251 0.628111
727 1 0.689087 0.258818 0.681008
728 1 0.62874 0.322781 0.693642
726 1 0.687446 0.327871 0.64061
732 1 0.748898 0.330045 0.686927
854 1 0.68523 0.310294 0.749028
730 1 0.816091 0.320287 0.637225
731 1 0.796334 0.250241 0.684102
736 1 0.870771 0.308685 0.691243
858 1 0.812271 0.308292 0.745623
705 1 0.987314 0.252864 0.628969
734 1 0.934317 0.309881 0.625606
735 1 0.937196 0.252882 0.69362
767 1 0.93658 0.367239 0.693254
833 1 0.998582 0.250883 0.746186
865 1 0.994544 0.368249 0.748791
738 1 0.0637352 0.434977 0.63867
740 1 0.0098507 0.426615 0.70234
866 1 0.0782511 0.439934 0.749068
1667 1 0.0734807 0.496519 0.692704
1797 1 0.139707 0.497915 0.74663
743 1 0.187912 0.376496 0.690851
744 1 0.13511 0.440163 0.677571
870 1 0.196392 0.433848 0.74214
1671 1 0.184479 0.49928 0.677048
1801 1 0.258048 0.498615 0.743827
1675 1 0.317664 0.490135 0.690489
748 1 0.262563 0.425532 0.688041
747 1 0.320358 0.377446 0.68513
752 1 0.388274 0.439045 0.686901
756 1 0.494836 0.438113 0.675678
1681 1 0.501767 0.499587 0.625023
1683 1 0.567218 0.490412 0.675322
881 1 0.512308 0.376687 0.749675
755 1 0.561263 0.386318 0.688394
1687 1 0.689338 0.497271 0.693655
760 1 0.632261 0.434199 0.693345
758 1 0.696016 0.446378 0.625728
759 1 0.692947 0.383825 0.698185
1693 1 0.870961 0.493612 0.631398
764 1 0.751119 0.446538 0.686589
763 1 0.820293 0.3811 0.693843
889 1 0.75398 0.381581 0.746978
1665 1 0.99923 0.490117 0.641836
765 1 0.884063 0.380365 0.631001
768 1 0.876308 0.452772 0.693922
766 1 0.948567 0.43442 0.643485
771 1 0.0605556 0.0130447 0.813032
770 1 0.0524672 0.0655962 0.755841
777 1 0.245918 0.000472837 0.761293
773 1 0.125451 0.00250833 0.754368
776 1 0.135788 0.0731989 0.815878
780 1 0.242147 0.0754049 0.810159
775 1 0.181227 0.00425182 0.815111
779 1 0.312096 0.0028034 0.819569
784 1 0.368684 0.0653776 0.809786
811 1 0.315954 0.12375 0.81565
813 1 0.383372 0.121406 0.754258
815 1 0.448299 0.120087 0.807361
910 1 0.447816 0.0635278 0.867194
781 1 0.388803 0.0109209 0.755646
783 1 0.451505 0.00297068 0.818088
788 1 0.508499 0.0711224 0.806671
914 1 0.561944 0.0666596 0.870264
819 1 0.568552 0.121971 0.813926
825 1 0.7462 0.106495 0.750942
792 1 0.630866 0.0504828 0.829941
796 1 0.739913 0.0487763 0.818806
821 1 0.631621 0.118276 0.754447
823 1 0.69699 0.117391 0.816811
827 1 0.806969 0.0972879 0.811948
795 1 0.811909 0.000730539 0.815544
798 1 0.942396 0.045263 0.752112
801 1 0.992551 0.121649 0.75378
800 1 0.876842 0.0511493 0.81856
772 1 0.999804 0.0576552 0.818656
829 1 0.881952 0.116731 0.75586
831 1 0.948824 0.122967 0.824154
803 1 0.0587135 0.127697 0.81903
802 1 0.0747135 0.192901 0.755837
804 1 0.00534545 0.189957 0.817708
961 1 0.00087629 0.244175 0.867571
806 1 0.188221 0.189407 0.753903
805 1 0.126238 0.130955 0.752963
807 1 0.189877 0.135073 0.820431
808 1 0.132929 0.195433 0.818731
937 1 0.257932 0.138454 0.874968
809 1 0.254729 0.133315 0.750937
812 1 0.256628 0.19075 0.816742
810 1 0.322538 0.200227 0.756545
843 1 0.33138 0.248322 0.819786
849 1 0.496283 0.247013 0.754793
816 1 0.379301 0.17914 0.817494
942 1 0.445568 0.186356 0.868969
847 1 0.441667 0.247943 0.811336
945 1 0.503246 0.132392 0.874166
820 1 0.502908 0.186039 0.806503
946 1 0.564826 0.187922 0.874377
822 1 0.691279 0.183682 0.75015
857 1 0.749167 0.245911 0.75776
949 1 0.63015 0.126792 0.862129
824 1 0.631218 0.196538 0.808187
950 1 0.695271 0.182929 0.869174
855 1 0.693595 0.249351 0.80938
828 1 0.757938 0.170623 0.807428
826 1 0.821061 0.167731 0.755484
859 1 0.8107 0.233176 0.812854
832 1 0.873095 0.181417 0.81682
954 1 0.811669 0.179255 0.872694
861 1 0.86816 0.245731 0.753299
863 1 0.933266 0.238156 0.815605
835 1 0.0655558 0.253221 0.812668
867 1 0.0675335 0.368117 0.788037
993 1 0.00386374 0.371309 0.855929
839 1 0.187574 0.258646 0.807148
840 1 0.127714 0.306971 0.809302
966 1 0.191189 0.311679 0.873189
871 1 0.191846 0.369648 0.819067
841 1 0.257214 0.260059 0.753047
842 1 0.316697 0.318606 0.757267
970 1 0.321747 0.308588 0.871606
1001 1 0.25347 0.368866 0.868159
844 1 0.258471 0.308715 0.814351
875 1 0.314498 0.374566 0.809524
846 1 0.44826 0.318121 0.753169
848 1 0.385086 0.321121 0.818046
850 1 0.562565 0.316665 0.763506
1009 1 0.509429 0.370063 0.871093
853 1 0.622802 0.252329 0.755086
977 1 0.504159 0.250137 0.873789
851 1 0.568103 0.253836 0.812348
852 1 0.506311 0.309926 0.816118
856 1 0.637058 0.311602 0.811682
887 1 0.697579 0.363632 0.804214
1017 1 0.762462 0.37085 0.86918
860 1 0.754562 0.307925 0.811631
891 1 0.815883 0.361587 0.815245
893 1 0.86866 0.374417 0.753537
985 1 0.756688 0.250817 0.871054
864 1 0.872588 0.305962 0.823331
862 1 0.922135 0.306894 0.75643
836 1 0.997322 0.304365 0.808703
895 1 0.933799 0.3647 0.812143
990 1 0.945388 0.302077 0.871936
868 1 0.0108127 0.436552 0.793231
994 1 0.0663588 0.424869 0.863983
1795 1 0.063319 0.498077 0.802923
869 1 0.133849 0.379259 0.750408
872 1 0.13128 0.430703 0.821082
998 1 0.185783 0.434346 0.873844
1799 1 0.194211 0.493076 0.813867
1925 1 0.128563 0.496148 0.86022
874 1 0.328471 0.440725 0.750619
876 1 0.250405 0.437178 0.814853
1002 1 0.31177 0.445785 0.869569
1807 1 0.439161 0.499753 0.833095
878 1 0.444216 0.433033 0.751256
877 1 0.380674 0.375878 0.759403
879 1 0.445036 0.380869 0.813722
880 1 0.384505 0.448011 0.805017
884 1 0.496111 0.441648 0.82334
1811 1 0.556687 0.498464 0.820518
1813 1 0.619218 0.498098 0.752637
883 1 0.562028 0.387126 0.814887
882 1 0.551111 0.449579 0.75865
888 1 0.620698 0.447248 0.821463
1014 1 0.688662 0.429006 0.872032