ITEM: TIMESTEP
5500
ITEM: NUMBER OF ATOMS
6912
ITEM: BOX BOUNDS pp pp pp
0.0000000000000000e+00 6.3119999999999997e+01
0.0000000000000000e+00 6.3119999999999997e+01
0.0000000000000000e+00 6.3119999999999997e+01
ITEM: ATOMS id type xs ys zs
4 1 0.00412036 0.0388083 0.0391266
8 1 0.0849303 0.0494968 0.0412523
1770 1 0.871131 0.0424833 0.496153
4915 1 0.376108 0.491545 0.458485
12 1 0.167342 0.0429299 0.0354822
55 1 0.126348 0.0825554 0.0434336
3745 1 0.996517 0.49569 0.0801468
1866 1 0.875389 0.212233 0.499123
16 1 0.251147 0.0379143 0.038799
59 1 0.210654 0.0733674 0.0314791
577 1 0.00506511 0.00283585 0.166209
20 1 0.33744 0.0408548 0.0393452
63 1 0.295176 0.0864811 0.0424796
4329 1 0.164054 0.499478 0.244818
1822 1 0.954137 0.126091 0.494055
3495 1 0.7927 0.499855 0.0376755
24 1 0.42352 0.0461141 0.0350193
613 1 0.74903 0.00600674 0.167366
1728 1 0.91539 0.462765 0.458414
1726 1 0.960265 0.458811 0.425199
1183 1 0.620456 0.00128351 0.373176
4343 1 0.460736 0.495602 0.286715
28 1 0.503991 0.0396768 0.0445198
75 1 0.540263 0.0844275 0.0465406
129 1 0.673796 0.173087 0.00210856
1869 1 0.917145 0.170262 0.498845
4635 1 0.543633 0.498749 0.380371
1873 1 0.00372433 0.253155 0.498206
32 1 0.585484 0.0441664 0.0409535
36 1 0.669956 0.0506666 0.0409285
79 1 0.627318 0.0890531 0.0383233
77 1 0.581982 0.0934564 0.00848468
3757 1 0.249133 0.496702 0.0796694
871 1 0.125762 0.00490076 0.297729
83 1 0.711537 0.0811144 0.0344122
4931 1 0.707153 0.499282 0.456937
4641 1 0.67235 0.495832 0.324565
889 1 0.495224 0.00196853 0.253089
40 1 0.751224 0.0428241 0.0362066
87 1 0.790191 0.083148 0.0408839
44 1 0.830161 0.0423119 0.0430848
4939 1 0.870004 0.494686 0.464387
899 1 0.704943 0.00504338 0.289942
330 1 0.882778 0.0382012 0.0807439
1173 1 0.421273 0.0072604 0.337241
1189 1 0.739938 0.0124427 0.337488
48 1 0.916545 0.0431809 0.0418659
334 1 0.954108 0.048242 0.0821261
605 1 0.584896 0.0055985 0.158662
3499 1 0.871645 0.492569 0.0418889
1461 1 0.426743 0.00185948 0.414899
1187 1 0.702884 0.0019505 0.378037
51 1 0.0387693 0.0810863 0.0440696
56 1 0.0748524 0.123418 0.0445145
52 1 0.00329467 0.121129 0.0394475
99 1 0.0380336 0.161262 0.0397201
197 1 0.0796448 0.335469 0.00800321
3771 1 0.548491 0.487646 0.1187
103 1 0.125466 0.164627 0.0413133
1949 1 0.582806 0.331962 0.499908
189 1 0.921174 0.244138 0.000768946
98 1 0.0344369 0.209118 0.00169804
60 1 0.16645 0.122831 0.0439942
107 1 0.205115 0.170392 0.0448469
64 1 0.250874 0.119264 0.0463089
68 1 0.338126 0.123931 0.046174
111 1 0.289609 0.161818 0.0460115
67 1 0.381126 0.0856371 0.0412827
115 1 0.376363 0.167656 0.035902
72 1 0.422305 0.122747 0.0370694
353 1 0.334369 0.0823016 0.0788524
71 1 0.462135 0.0859907 0.0429169
119 1 0.46248 0.170154 0.0427305
76 1 0.491823 0.124695 0.0490704
329 1 0.834897 0.00355628 0.0885739
123 1 0.537868 0.165446 0.0485762
413 1 0.58324 0.169005 0.0884887
325 1 0.753245 0.00758545 0.0849323
617 1 0.836764 0.00399751 0.17396
80 1 0.585298 0.125623 0.0503101
127 1 0.627663 0.163895 0.0447089
303 1 0.293604 0.00339351 0.119387
84 1 0.669353 0.13348 0.0445967
131 1 0.715778 0.164947 0.0407164
370 1 0.715194 0.130503 0.0875198
4907 1 0.208351 0.497787 0.462725
1159 1 0.13187 0.00823796 0.371181
88 1 0.750212 0.123619 0.0414749
92 1 0.831096 0.127568 0.0428733
374 1 0.792328 0.120728 0.0834927
91 1 0.871769 0.0796421 0.046231
139 1 0.871633 0.166368 0.0386495
238 1 0.953503 0.369287 0.00674845
381 1 0.911157 0.0869666 0.0855312
425 1 0.839104 0.166846 0.0788635
96 1 0.917342 0.120828 0.0359956
95 1 0.958841 0.0835211 0.0422694
143 1 0.964705 0.163563 0.0355167
337 1 0.00117996 0.080929 0.0785677
382 1 0.963481 0.124666 0.0749152
385 1 0.00465899 0.173583 0.0914291
4925 1 0.585314 0.495279 0.406168
190 1 0.954931 0.292316 0.00233326
100 1 0.997217 0.207082 0.0487712
104 1 0.0778252 0.204935 0.0408746
147 1 0.034631 0.246684 0.0380191
4623 1 0.289258 0.4998 0.376247
108 1 0.163195 0.20347 0.0384976
615 1 0.787625 0.00935542 0.20992
873 1 0.166084 0.00816288 0.2577
583 1 0.120196 0.0052898 0.206305
112 1 0.248018 0.20905 0.0466267
155 1 0.201444 0.247043 0.0441877
159 1 0.289964 0.247559 0.0399607
116 1 0.330848 0.211151 0.0265063
4351 1 0.634376 0.49788 0.288012
120 1 0.414944 0.203923 0.0397103
402 1 0.371951 0.204774 0.0786676
124 1 0.502105 0.210628 0.0429975
167 1 0.453976 0.243295 0.0410106
409 1 0.497784 0.16148 0.0930252
406 1 0.460921 0.20444 0.0816632
3471 1 0.288287 0.497405 0.035233
171 1 0.557098 0.252276 0.0419246
457 1 0.49489 0.252627 0.08501
410 1 0.537673 0.206347 0.0828754
461 1 0.590173 0.255425 0.0864316
128 1 0.581087 0.206691 0.0475137
4905 1 0.162334 0.498293 0.423648
1473 1 0.658093 0.000988767 0.412667
132 1 0.658384 0.210975 0.0411605
465 1 0.664176 0.249897 0.079537
418 1 0.71535 0.213309 0.0852021
136 1 0.753068 0.211817 0.0379221
3497 1 0.829125 0.494913 0.00142473
135 1 0.785676 0.16478 0.0442484
422 1 0.788593 0.208039 0.0837874
4355 1 0.71335 0.496825 0.278817
4611 1 0.0390293 0.499505 0.381085
140 1 0.834614 0.206058 0.0360868
187 1 0.874325 0.248873 0.0387311
4365 1 0.921721 0.49668 0.240612
144 1 0.919115 0.205687 0.0403723
430 1 0.957986 0.209063 0.0846919
149 1 0.0844138 0.245137 0.00864966
1441 1 0.99942 0.00897519 0.417164
148 1 0.998898 0.291666 0.0392265
195 1 0.0371753 0.335539 0.0449932
434 1 0.0408039 0.288125 0.0893709
2 1 0.0446691 0.0419671 0.00325045
151 1 0.124404 0.252822 0.0457312
152 1 0.0788711 0.282946 0.0503179
156 1 0.164079 0.290947 0.0407719
442 1 0.206957 0.288856 0.0793322
1197 1 0.925713 0.000904318 0.328043
3479 1 0.453483 0.498085 0.035533
1769 1 0.837495 0.00127939 0.4941
160 1 0.252335 0.294545 0.0417253
446 1 0.292591 0.294264 0.080162
449 1 0.330804 0.248561 0.0847415
164 1 0.331096 0.292315 0.0410562
163 1 0.370108 0.24764 0.0460736
211 1 0.373558 0.331103 0.0392689
168 1 0.412423 0.286658 0.0385833
453 1 0.416548 0.247348 0.0783706
450 1 0.369582 0.286755 0.0807954
215 1 0.454036 0.337433 0.0462158
454 1 0.451234 0.286175 0.0722496
501 1 0.416036 0.327072 0.0784026
121 1 0.50115 0.168616 0.0088126
172 1 0.497264 0.289076 0.0428121
176 1 0.584858 0.297301 0.0542143
505 1 0.503118 0.345132 0.0832396
219 1 0.543879 0.332451 0.0427389
175 1 0.619288 0.2507 0.0321513
462 1 0.632941 0.294635 0.0856189
180 1 0.665258 0.298703 0.0395082
179 1 0.699899 0.253709 0.0353838
466 1 0.70548 0.287901 0.0832966
469 1 0.75137 0.247097 0.091498
335 1 0.959657 0.000800138 0.120215
1826 1 0.0409481 0.209131 0.495376
183 1 0.7962 0.245565 0.0405978
184 1 0.74935 0.280849 0.0490861
470 1 0.791022 0.289 0.0848464
231 1 0.792283 0.326588 0.0404835
593 1 0.321978 0.00430553 0.161289
222 1 0.624456 0.372448 0.00183277
188 1 0.82905 0.284976 0.0451669
473 1 0.839559 0.240887 0.0852318
521 1 0.827144 0.33081 0.0797335
323 1 0.706141 0.000440967 0.119715
192 1 0.919199 0.292538 0.0473837
191 1 0.954152 0.249276 0.0469795
239 1 0.963019 0.327157 0.0506099
200 1 0.0770303 0.378256 0.0466095
196 1 0.00687831 0.381195 0.0438261
4633 1 0.503223 0.488728 0.34054
199 1 0.123407 0.333177 0.0417809
489 1 0.165054 0.329095 0.0855655
486 1 0.127793 0.370641 0.0815976
204 1 0.165111 0.374755 0.0266757
247 1 0.121648 0.41421 0.0424535
125 1 0.579598 0.163713 0.00491636
203 1 0.202378 0.33159 0.0455349
251 1 0.199051 0.41468 0.0403708
490 1 0.201664 0.378243 0.0747702
537 1 0.163763 0.415793 0.0789176
4617 1 0.17884 0.4969 0.332183
208 1 0.248918 0.374597 0.0420223
207 1 0.291119 0.33351 0.0414226
494 1 0.286556 0.379158 0.0807439
497 1 0.331824 0.331913 0.0804798
545 1 0.335684 0.41755 0.0796947
212 1 0.330628 0.368057 0.039691
259 1 0.372951 0.413393 0.0401664
498 1 0.373671 0.372077 0.0786495
1817 1 0.830826 0.077106 0.497077
216 1 0.41695 0.37157 0.0379039
263 1 0.455633 0.416131 0.0420131
549 1 0.40797 0.419077 0.0836774
502 1 0.456019 0.383857 0.0786357
509 1 0.590505 0.338295 0.0821305
220 1 0.495439 0.36765 0.0340586
224 1 0.578823 0.374134 0.0359866
553 1 0.509802 0.413181 0.0653411
223 1 0.624045 0.334592 0.0409476
513 1 0.66725 0.334515 0.0810285
228 1 0.668778 0.372569 0.0435314
510 1 0.625382 0.385779 0.0725857
271 1 0.619438 0.430772 0.0387548
227 1 0.710878 0.332091 0.0344222
517 1 0.752143 0.322478 0.0878225
514 1 0.710911 0.372535 0.0758849
275 1 0.707004 0.416995 0.0440623
1445 1 0.0831874 0.0015616 0.409478
232 1 0.750132 0.370335 0.0347942
518 1 0.791441 0.382475 0.0884709
170 1 0.545098 0.295803 0.00519654
236 1 0.826039 0.371369 0.0405587
235 1 0.871856 0.331248 0.0435855
283 1 0.875062 0.418696 0.0394243
893 1 0.58555 0.00108566 0.249956
150 1 0.121649 0.294863 0.00215617
240 1 0.912691 0.372765 0.0424396
287 1 0.958595 0.409432 0.0468401
909 1 0.909899 0.00337583 0.258071
3503 1 0.956653 0.492079 0.037564
243 1 0.0415915 0.424002 0.0345571
1195 1 0.878283 0.00330326 0.36801
244 1 0.995669 0.452351 0.0322683
3777 1 0.671495 0.496283 0.0816727
248 1 0.0785717 0.467258 0.0409066
252 1 0.166455 0.46191 0.0365979
256 1 0.246839 0.455494 0.039525
538 1 0.203336 0.458366 0.0785813
541 1 0.246416 0.421196 0.0822638
317 1 0.583438 0.00522356 0.0815215
255 1 0.297076 0.414411 0.0406946
542 1 0.290655 0.450219 0.0778834
1721 1 0.836386 0.417224 0.416232
260 1 0.333904 0.451314 0.0343445
264 1 0.41229 0.455904 0.0442142
546 1 0.373684 0.464577 0.0836909
4077 1 0.919029 0.494633 0.159002
550 1 0.453996 0.458495 0.0791713
1809 1 0.659742 0.0853384 0.498874
3487 1 0.632501 0.49952 0.0378973
3467 1 0.205485 0.494538 0.0410898
267 1 0.55049 0.42184 0.0295524
557 1 0.581121 0.42328 0.0763709
268 1 0.497871 0.461526 0.0395713
272 1 0.58601 0.470584 0.0392118
276 1 0.672904 0.463762 0.035962
561 1 0.664464 0.419951 0.0855902
558 1 0.627081 0.461264 0.0832612
1801 1 0.498718 0.0759021 0.497866
289 1 0.996417 0.00971519 0.0809603
280 1 0.743362 0.461148 0.036969
565 1 0.750376 0.408581 0.076011
157 1 0.250426 0.249172 0.0076484
279 1 0.795477 0.41718 0.0423296
566 1 0.790257 0.460877 0.0771956
1853 1 0.582912 0.165275 0.495428
4079 1 0.95946 0.49625 0.199659
569 1 0.829718 0.418636 0.0832473
284 1 0.828793 0.455661 0.0431864
288 1 0.924165 0.44983 0.0425229
1724 1 0.829874 0.459712 0.459519
1720 1 0.750084 0.464206 0.456769
574 1 0.963532 0.45497 0.0851279
1193 1 0.828135 0.00862886 0.326728
290 1 0.0475839 0.0401812 0.0847724
339 1 0.038463 0.0870433 0.123174
578 1 0.0459208 0.0454947 0.167111
296 1 0.0930386 0.046213 0.118928
1821 1 0.914715 0.08057 0.492597
294 1 0.130395 0.0382092 0.0838587
345 1 0.168797 0.0855138 0.0825357
633 1 0.165418 0.0871297 0.167886
300 1 0.167659 0.0460571 0.119198
343 1 0.126472 0.0882174 0.126151
298 1 0.209868 0.0415046 0.0773168
349 1 0.254885 0.0752943 0.0860034
304 1 0.242288 0.0404993 0.123403
347 1 0.211576 0.0884118 0.120424
637 1 0.249448 0.0815059 0.165202
1485 1 0.918216 0.00476697 0.415651
302 1 0.294 0.0404969 0.0759627
351 1 0.294425 0.076908 0.123195
590 1 0.282873 0.0396515 0.169259
641 1 0.331301 0.0726148 0.163311
308 1 0.330754 0.0395467 0.117028
306 1 0.375846 0.0418025 0.0783483
355 1 0.375843 0.0778172 0.125867
645 1 0.411969 0.0813274 0.168019
594 1 0.374784 0.0380723 0.16661
310 1 0.460118 0.0404747 0.0820856
1810 1 0.697807 0.126872 0.499182
357 1 0.419368 0.0816232 0.0792906
312 1 0.415602 0.0456026 0.118723
359 1 0.454501 0.0794563 0.12804
4645 1 0.756717 0.496823 0.329636
4349 1 0.582503 0.492499 0.256271
361 1 0.50147 0.0839611 0.0872448
314 1 0.550097 0.0472729 0.0883858
316 1 0.498694 0.0396308 0.120875
602 1 0.54257 0.0434254 0.166636
1716 1 0.667777 0.458756 0.461611
1711 1 0.633155 0.416914 0.457007
320 1 0.586245 0.0526372 0.130219
318 1 0.631919 0.0463599 0.0864767
365 1 0.596378 0.0869232 0.0890425
606 1 0.635751 0.0486556 0.168845
1712 1 0.589756 0.460255 0.456429
322 1 0.713627 0.0452813 0.0807151
324 1 0.673933 0.0406163 0.125141
371 1 0.709022 0.0847798 0.123207
369 1 0.666889 0.0935199 0.077821
377 1 0.842102 0.0842818 0.0912511
326 1 0.793318 0.0455952 0.0891422
4055 1 0.468761 0.496992 0.208517
328 1 0.748884 0.0458454 0.121593
332 1 0.840522 0.0420722 0.131878
336 1 0.920488 0.0468728 0.125204
618 1 0.878467 0.0427222 0.171213
3 1 0.0465939 0.00348339 0.0398854
292 1 0.00341102 0.0401788 0.12342
669 1 0.923987 0.084026 0.177015
341 1 0.079516 0.0872306 0.0808909
338 1 0.0358492 0.126482 0.0825137
344 1 0.0750835 0.127155 0.127714
387 1 0.0432753 0.17777 0.124245
342 1 0.125818 0.127881 0.0862713
348 1 0.16871 0.128239 0.128368
681 1 0.177687 0.164522 0.168347
391 1 0.120312 0.168368 0.118086
393 1 0.170308 0.169505 0.0920638
397 1 0.246194 0.165758 0.0843155
346 1 0.206153 0.126731 0.0810042
634 1 0.210121 0.122444 0.164222
352 1 0.253831 0.123423 0.123601
395 1 0.211013 0.1591 0.125946
350 1 0.296878 0.126861 0.0837134
356 1 0.324123 0.122038 0.129804
399 1 0.289211 0.169064 0.120706
401 1 0.329747 0.168661 0.0865163
354 1 0.376931 0.124538 0.0858377
360 1 0.410635 0.124982 0.132794
642 1 0.368125 0.117671 0.168377
358 1 0.450326 0.131077 0.0781997
364 1 0.488996 0.125131 0.131376
646 1 0.44931 0.130978 0.171562
363 1 0.536214 0.0880763 0.131878
362 1 0.540198 0.126334 0.0914438
368 1 0.587072 0.125438 0.130043
366 1 0.626794 0.128564 0.0876337
367 1 0.629884 0.0856503 0.125924
654 1 0.630243 0.127094 0.168912
417 1 0.673957 0.17412 0.0827078
705 1 0.671499 0.171104 0.165857
373 1 0.750178 0.0906624 0.086497
372 1 0.674974 0.131164 0.122502
376 1 0.751094 0.124283 0.130945
375 1 0.797363 0.084432 0.129379
380 1 0.840076 0.131904 0.122644
378 1 0.873028 0.127788 0.0740664
379 1 0.875335 0.0865355 0.132038
666 1 0.882417 0.122907 0.168054
625 1 0.994648 0.0745871 0.164741
383 1 0.961131 0.0848222 0.120368
384 1 0.922466 0.125206 0.126172
340 1 0.994917 0.125276 0.12869
670 1 0.964668 0.124596 0.172237
431 1 0.958669 0.166259 0.124984
386 1 0.0450596 0.212389 0.0834701
437 1 0.0832254 0.245286 0.0866116
674 1 0.035906 0.211363 0.170922
389 1 0.0757267 0.163671 0.0864979
390 1 0.120794 0.20208 0.0790165
392 1 0.0854808 0.210831 0.126168
396 1 0.155145 0.207477 0.133838
439 1 0.121454 0.25074 0.129853
394 1 0.203666 0.207991 0.0847948
445 1 0.249689 0.254199 0.0821278
400 1 0.252947 0.207451 0.117371
733 1 0.249212 0.244491 0.167032
398 1 0.294031 0.20745 0.0748565
404 1 0.3282 0.208855 0.125457
686 1 0.292852 0.205717 0.164886
689 1 0.330306 0.164508 0.159988
403 1 0.372442 0.165757 0.124319
451 1 0.376339 0.245374 0.122397
405 1 0.41595 0.170961 0.0813892
407 1 0.45157 0.168018 0.127994
408 1 0.419879 0.211401 0.122426
412 1 0.498279 0.204291 0.125697
745 1 0.496039 0.244415 0.164756
411 1 0.545153 0.170503 0.122543
416 1 0.579724 0.213782 0.117755
459 1 0.537621 0.255501 0.123132
698 1 0.541588 0.207347 0.169853
749 1 0.575977 0.249799 0.165408
415 1 0.623842 0.171085 0.124996
414 1 0.625193 0.206742 0.0830151
463 1 0.625937 0.249871 0.128366
419 1 0.715926 0.169463 0.128662
420 1 0.669409 0.207911 0.124956
706 1 0.710297 0.208028 0.169708
424 1 0.75105 0.206483 0.131444
421 1 0.748995 0.174286 0.0848944
423 1 0.797471 0.16386 0.124072
710 1 0.797615 0.207467 0.169565
428 1 0.833054 0.205239 0.125416
427 1 0.882106 0.165966 0.123273
429 1 0.922286 0.157451 0.0798501
426 1 0.874974 0.202896 0.0774375
432 1 0.919636 0.205789 0.122644
475 1 0.871918 0.247095 0.125125
388 1 0.99955 0.211816 0.129935
479 1 0.959398 0.249147 0.129806
433 1 0.998942 0.248193 0.0857359
481 1 0.00835144 0.329738 0.0906106
435 1 0.0427335 0.250902 0.130469
436 1 0.00743343 0.292861 0.139856
483 1 0.0480197 0.333505 0.134441
721 1 0.000784596 0.249041 0.172661
438 1 0.12872 0.285414 0.0882404
440 1 0.0837071 0.28989 0.122435
485 1 0.0795591 0.331204 0.0801377
441 1 0.161875 0.240961 0.0914821
443 1 0.21679 0.253325 0.121567
444 1 0.176723 0.288846 0.1266
448 1 0.253594 0.291381 0.125546
491 1 0.204105 0.339169 0.121856
730 1 0.208779 0.282616 0.167108
493 1 0.246858 0.332198 0.0828441
447 1 0.286345 0.250584 0.122652
452 1 0.334031 0.289438 0.117934
734 1 0.290949 0.292657 0.162013
456 1 0.416105 0.292491 0.125553
741 1 0.416574 0.250739 0.162413
499 1 0.371954 0.327494 0.111832
455 1 0.459504 0.251048 0.122848
789 1 0.417353 0.336111 0.166673
503 1 0.454482 0.338184 0.113872
458 1 0.53793 0.288436 0.0791032
460 1 0.494539 0.299509 0.11927
507 1 0.540442 0.335178 0.120793
464 1 0.584814 0.29952 0.116619
511 1 0.62902 0.338695 0.128637
468 1 0.671389 0.28424 0.122694
750 1 0.624134 0.285397 0.163793
801 1 0.670339 0.332291 0.16728
467 1 0.706057 0.246301 0.128926
757 1 0.75739 0.25092 0.168137
754 1 0.712635 0.290051 0.168439
753 1 0.664773 0.251336 0.170606
471 1 0.79271 0.247205 0.127213
472 1 0.748238 0.288464 0.126636
476 1 0.833239 0.289515 0.119479
758 1 0.792291 0.293014 0.166688
761 1 0.834576 0.253803 0.164515
474 1 0.871756 0.28446 0.0784586
523 1 0.869559 0.330432 0.128738
813 1 0.919599 0.330786 0.174229
762 1 0.878216 0.295058 0.167595
478 1 0.96888 0.291856 0.0860072
525 1 0.913938 0.3335 0.0923184
477 1 0.917464 0.256292 0.087388
480 1 0.918315 0.292734 0.12962
482 1 0.0374816 0.376774 0.0913787
484 1 0.00410634 0.368815 0.127868
821 1 0.085338 0.419023 0.166724
487 1 0.116625 0.333288 0.123283
488 1 0.0844961 0.382428 0.121851
535 1 0.132719 0.415906 0.120861
825 1 0.166893 0.417558 0.163591
492 1 0.165786 0.373148 0.125482
496 1 0.248962 0.377743 0.131831
777 1 0.176442 0.325318 0.167252
778 1 0.203301 0.379907 0.16062
495 1 0.291624 0.333603 0.11845
785 1 0.327743 0.336107 0.1614
543 1 0.299666 0.41729 0.122948
782 1 0.296638 0.38659 0.169653
500 1 0.336395 0.373317 0.115389
547 1 0.368315 0.420478 0.122747
786 1 0.377358 0.36872 0.158481
833 1 0.33713 0.419582 0.167184
504 1 0.413692 0.371796 0.115746
790 1 0.456221 0.372984 0.161532
837 1 0.416381 0.413555 0.155012
506 1 0.546421 0.37657 0.083777
508 1 0.500769 0.375736 0.122968
512 1 0.584607 0.376951 0.124632
555 1 0.545138 0.425808 0.121317
845 1 0.584483 0.416297 0.165449
798 1 0.623814 0.369459 0.170032
515 1 0.712415 0.326338 0.12613
805 1 0.753718 0.334544 0.169898
516 1 0.66461 0.376618 0.11428
520 1 0.754563 0.372905 0.125529
802 1 0.711193 0.369108 0.159747
519 1 0.790253 0.330903 0.121763
806 1 0.791919 0.374009 0.164236
524 1 0.832128 0.368091 0.122469
522 1 0.876202 0.371781 0.0805372
810 1 0.865586 0.367755 0.164877
571 1 0.875212 0.409743 0.116549
529 1 0.0082586 0.423902 0.0817266
528 1 0.925494 0.372838 0.121538
527 1 0.962102 0.331618 0.136671
526 1 0.971615 0.375571 0.0847509
817 1 0.00403555 0.420715 0.164811
575 1 0.960767 0.415603 0.124619
530 1 0.0427992 0.459815 0.0835088
531 1 0.0455059 0.423953 0.127777
818 1 0.0430882 0.459892 0.167348
532 1 0.00197009 0.457285 0.124471
1706 1 0.546252 0.462409 0.420486
533 1 0.0836066 0.418606 0.0777456
1709 1 0.581783 0.418705 0.424322
534 1 0.132041 0.465394 0.0817015
536 1 0.0911602 0.462981 0.131405
540 1 0.172409 0.465269 0.124778
822 1 0.126982 0.460728 0.167042
539 1 0.211819 0.423212 0.121024
826 1 0.20747 0.452207 0.169831
829 1 0.24701 0.420494 0.165713
544 1 0.24472 0.460241 0.131702
830 1 0.294349 0.461358 0.160931
214 1 0.455001 0.36667 0.000154332
4933 1 0.753273 0.497777 0.416061
548 1 0.333268 0.46538 0.12641
834 1 0.380661 0.45869 0.169803
552 1 0.417786 0.460807 0.120779
4337 1 0.333718 0.496219 0.254108
4643 1 0.707575 0.497988 0.366856
319 1 0.631411 0.000242264 0.132953
109 1 0.24448 0.168667 0.00291297
551 1 0.461504 0.417737 0.130625
4057 1 0.503043 0.494918 0.170003
295 1 0.127573 0.0012164 0.126014
554 1 0.536688 0.459496 0.0733049
556 1 0.496297 0.449668 0.114673
842 1 0.549705 0.461185 0.169365
560 1 0.588114 0.452227 0.122886
559 1 0.626498 0.412336 0.126013
849 1 0.668728 0.412113 0.164366
564 1 0.665708 0.459964 0.12511
853 1 0.750814 0.417205 0.160492
1705 1 0.499363 0.4148 0.422126
563 1 0.708349 0.412803 0.119241
562 1 0.710771 0.463805 0.0846577
850 1 0.706066 0.451362 0.166386
568 1 0.750445 0.456278 0.120695
39 1 0.794579 0.00153491 0.0507664
567 1 0.790196 0.421696 0.122433
854 1 0.798875 0.461134 0.16504
573 1 0.919225 0.414029 0.0826177
570 1 0.873063 0.450433 0.0822321
572 1 0.828451 0.46249 0.118698
861 1 0.910999 0.406071 0.16251
576 1 0.916923 0.458441 0.124235
4913 1 0.331668 0.499796 0.415685
858 1 0.872301 0.457524 0.159393
4325 1 0.0790936 0.493081 0.247883
1704 1 0.417782 0.457131 0.466186
862 1 0.957479 0.45825 0.1618
629 1 0.0841422 0.082442 0.158101
584 1 0.0859091 0.0479654 0.206839
580 1 0.00102718 0.0392053 0.207724
866 1 0.038914 0.0353438 0.258579
582 1 0.124634 0.04258 0.168363
870 1 0.123854 0.046442 0.250872
588 1 0.166956 0.0397159 0.206183
631 1 0.121306 0.0854193 0.204477
921 1 0.174442 0.086473 0.249209
586 1 0.201418 0.0480799 0.160331
592 1 0.246215 0.0410404 0.21161
874 1 0.206057 0.0451651 0.250253
1708 1 0.500654 0.458301 0.460302
596 1 0.330375 0.0464193 0.206547
639 1 0.286254 0.0838535 0.20884
878 1 0.293055 0.045565 0.254452
933 1 0.413815 0.0931122 0.251516
4609 1 0.998375 0.495594 0.330854
598 1 0.45716 0.0415298 0.170868
600 1 0.411748 0.0347992 0.209332
647 1 0.453994 0.0811374 0.208996
4919 1 0.460185 0.497287 0.462026
1889 1 0.330357 0.250396 0.496065
604 1 0.50197 0.0350327 0.210267
608 1 0.582205 0.0421655 0.199226
651 1 0.536001 0.0864509 0.206935
4345 1 0.499363 0.492008 0.256874
4631 1 0.458605 0.492058 0.374363
894 1 0.62023 0.0430181 0.251133
655 1 0.624113 0.0905482 0.213374
4067 1 0.712593 0.49176 0.205707
661 1 0.751767 0.079698 0.163768
612 1 0.664884 0.054257 0.210001
610 1 0.707114 0.039871 0.170972
659 1 0.708208 0.0909542 0.207047
1701 1 0.411366 0.4187 0.415697
614 1 0.793479 0.046209 0.167627
616 1 0.748605 0.0471336 0.210653
620 1 0.834885 0.0437757 0.206508
1929 1 0.165464 0.335084 0.498425
311 1 0.449627 0.00214105 0.126933
877 1 0.250204 0.000763513 0.253982
3789 1 0.912383 0.49156 0.0750847
624 1 0.91782 0.0358225 0.207926
1699 1 0.371145 0.418344 0.461934
622 1 0.955659 0.0380895 0.169439
671 1 0.964567 0.0755444 0.214685
910 1 0.954662 0.0399494 0.252058
627 1 0.0391936 0.0833081 0.209834
626 1 0.0377843 0.129462 0.169865
675 1 0.0390672 0.165315 0.208476
630 1 0.117214 0.132519 0.158179
632 1 0.083504 0.127913 0.197858
636 1 0.16505 0.125586 0.206034
635 1 0.210631 0.0775161 0.203484
683 1 0.209306 0.168144 0.211979
640 1 0.245364 0.129715 0.207653
685 1 0.250551 0.162623 0.161016
922 1 0.211901 0.12803 0.25187
638 1 0.285127 0.125802 0.171584
687 1 0.295267 0.165876 0.202325
643 1 0.377737 0.0785288 0.206879
644 1 0.329665 0.120745 0.204542
648 1 0.407155 0.128306 0.202946
649 1 0.496225 0.0752275 0.165617
697 1 0.495455 0.174391 0.173613
652 1 0.490071 0.124868 0.210073
695 1 0.457233 0.169936 0.207778
653 1 0.589213 0.0904595 0.169412
650 1 0.543119 0.126517 0.166756
938 1 0.534853 0.125058 0.248186
656 1 0.57898 0.127127 0.209003
941 1 0.578098 0.086726 0.246187
660 1 0.663503 0.131165 0.21183
703 1 0.625881 0.170271 0.208184
658 1 0.711288 0.128397 0.166403
709 1 0.762082 0.165944 0.169635
657 1 0.670432 0.0883951 0.165246
707 1 0.707116 0.1665 0.207314
993 1 0.658537 0.174448 0.249008
946 1 0.70177 0.133802 0.251531
664 1 0.757229 0.128766 0.205115
665 1 0.839774 0.0845482 0.172892
949 1 0.743602 0.0917481 0.244719
662 1 0.805905 0.127914 0.167708
663 1 0.794641 0.0873166 0.206289
717 1 0.923184 0.162098 0.164056
667 1 0.883889 0.0868419 0.210992
668 1 0.83911 0.127547 0.212627
628 1 0.998206 0.119839 0.20987
672 1 0.921203 0.128806 0.20811
1005 1 0.91928 0.16864 0.258331
958 1 0.954752 0.124374 0.251592
676 1 0.000887785 0.214512 0.214522
680 1 0.0741623 0.21334 0.207084
673 1 0.993194 0.168634 0.170051
723 1 0.0421737 0.257651 0.216262
962 1 0.0482646 0.207726 0.253377
1009 1 0.00680448 0.251072 0.258676
677 1 0.0768628 0.167195 0.164592
679 1 0.131805 0.164531 0.202534
678 1 0.11536 0.20513 0.173197
966 1 0.124008 0.203694 0.257581
682 1 0.203557 0.210201 0.16397
729 1 0.1646 0.250046 0.167717
684 1 0.165128 0.202542 0.210563
688 1 0.24552 0.202505 0.205934
731 1 0.202523 0.240438 0.210336
735 1 0.300346 0.254968 0.21171
737 1 0.326988 0.254392 0.162605
693 1 0.411659 0.175416 0.163281
691 1 0.374661 0.169583 0.204758
692 1 0.327791 0.209728 0.204093
690 1 0.369746 0.206663 0.163622
696 1 0.4137 0.212203 0.205595
981 1 0.417561 0.169181 0.244802
694 1 0.453991 0.211695 0.171823
700 1 0.495356 0.215584 0.210815
985 1 0.496324 0.164282 0.252386
982 1 0.450729 0.21809 0.245031
699 1 0.537177 0.165249 0.211185
747 1 0.536804 0.259018 0.20502
989 1 0.579692 0.178424 0.246794
986 1 0.540063 0.219322 0.244165
1037 1 0.589013 0.254576 0.245178
702 1 0.634687 0.207988 0.167048
701 1 0.583966 0.167926 0.164969
704 1 0.588543 0.207923 0.202465
751 1 0.62314 0.250687 0.204633
990 1 0.622975 0.215013 0.253043
708 1 0.664588 0.21117 0.208611
755 1 0.712501 0.250205 0.205215
711 1 0.801407 0.161653 0.209319
712 1 0.754862 0.202558 0.209469
1001 1 0.835297 0.168589 0.249433
998 1 0.792277 0.209125 0.253342
714 1 0.881645 0.2056 0.167438
713 1 0.838953 0.167969 0.169098
715 1 0.881598 0.171809 0.213528
716 1 0.846029 0.211465 0.204038
1002 1 0.87958 0.209607 0.255708
720 1 0.919975 0.215809 0.219423
1049 1 0.842249 0.248817 0.253677
718 1 0.956747 0.21194 0.177347
719 1 0.957844 0.172234 0.219231
1006 1 0.960106 0.209925 0.260711
722 1 0.0468847 0.291113 0.173552
724 1 0.00113408 0.29343 0.209333
769 1 0.00499448 0.333714 0.17468
771 1 0.0459308 0.331228 0.214818
1010 1 0.0442446 0.292522 0.252437
725 1 0.0802222 0.24657 0.170671
727 1 0.122308 0.244507 0.212774
726 1 0.13117 0.296694 0.161569
728 1 0.0851085 0.29337 0.211835
1014 1 0.122726 0.290403 0.251933
732 1 0.172935 0.290239 0.208242
1018 1 0.203581 0.287389 0.252012
781 1 0.241067 0.332968 0.164026
736 1 0.254435 0.287215 0.201043
740 1 0.32835 0.296449 0.204195
1022 1 0.291534 0.288775 0.249394
738 1 0.368474 0.288634 0.16206
739 1 0.370109 0.255871 0.201535
744 1 0.413008 0.292039 0.203926
1025 1 0.340922 0.251747 0.25138
1026 1 0.374086 0.294305 0.245824
1077 1 0.411325 0.33286 0.242278
742 1 0.456346 0.296455 0.167438
743 1 0.45764 0.255245 0.202475
1029 1 0.4144 0.257099 0.249254
1081 1 0.499963 0.331902 0.24632
748 1 0.497203 0.295297 0.209875
746 1 0.531908 0.29218 0.15728
752 1 0.578262 0.290945 0.206255
793 1 0.500465 0.336321 0.161398
799 1 0.625614 0.327136 0.204651
1038 1 0.634579 0.289036 0.241786
756 1 0.673816 0.297277 0.206045
803 1 0.7143 0.336725 0.205641
759 1 0.796495 0.248258 0.210036
760 1 0.757574 0.292286 0.204209
764 1 0.839612 0.290346 0.203305
1093 1 0.750167 0.33538 0.243655
763 1 0.887386 0.252292 0.215785
811 1 0.869024 0.334528 0.205599
1101 1 0.91381 0.334217 0.251263
766 1 0.95885 0.287388 0.170924
767 1 0.961956 0.254974 0.210487
765 1 0.915063 0.249802 0.170457
768 1 0.925808 0.295652 0.21184
770 1 0.0401695 0.377298 0.166631
772 1 0.00881662 0.378499 0.212371
773 1 0.0906116 0.332417 0.170568
1057 1 0.00160322 0.329694 0.252389
819 1 0.0400379 0.4239 0.212349
775 1 0.129137 0.333118 0.212684
774 1 0.127945 0.370879 0.163484
776 1 0.0846109 0.366387 0.212048
1113 1 0.170816 0.420191 0.24605
823 1 0.126594 0.409986 0.201502
780 1 0.169462 0.377575 0.214782
779 1 0.205964 0.336073 0.207862
784 1 0.251056 0.372512 0.199408
1066 1 0.213566 0.372251 0.246622
1069 1 0.248564 0.325641 0.24842
783 1 0.292218 0.331766 0.20375
788 1 0.333475 0.372598 0.204573
787 1 0.376778 0.335998 0.203195
792 1 0.416429 0.37821 0.204432
835 1 0.381854 0.417858 0.201042
791 1 0.463134 0.340805 0.204617
839 1 0.463566 0.414431 0.200277
796 1 0.498095 0.378269 0.20346
841 1 0.513883 0.425594 0.163332
795 1 0.542982 0.334183 0.200469
1085 1 0.586347 0.329974 0.244652
794 1 0.54617 0.375895 0.16142
1082 1 0.542983 0.38005 0.248482
800 1 0.586854 0.37421 0.205385
843 1 0.548434 0.411778 0.205671
797 1 0.577667 0.326659 0.163498
1086 1 0.624507 0.371644 0.24259
804 1 0.669285 0.372345 0.205379
1090 1 0.709488 0.377329 0.252298
1141 1 0.755284 0.417441 0.243949
808 1 0.758001 0.377361 0.205504
851 1 0.71088 0.409276 0.206792
809 1 0.829377 0.329802 0.159713
857 1 0.837205 0.417809 0.162757
807 1 0.793591 0.332217 0.205263
855 1 0.791289 0.418623 0.203618
812 1 0.833108 0.378215 0.204675
859 1 0.879139 0.408153 0.206124
1145 1 0.836165 0.411161 0.246014
1098 1 0.873293 0.369238 0.246623
814 1 0.957951 0.381698 0.16895
816 1 0.916924 0.374439 0.207387
815 1 0.964271 0.33819 0.212064
1106 1 0.041458 0.459626 0.257172
820 1 0.992497 0.457064 0.2053
824 1 0.0885375 0.458701 0.205117
828 1 0.166557 0.454158 0.198759
827 1 0.214289 0.412801 0.205382
832 1 0.251666 0.462557 0.209056
1114 1 0.211294 0.457358 0.251217
4651 1 0.876719 0.496789 0.378603
4069 1 0.748143 0.49155 0.1618
831 1 0.29095 0.423351 0.208422
623 1 0.962303 0.000293628 0.208221
836 1 0.336346 0.461797 0.211109
840 1 0.416768 0.45589 0.213297
1750 1 0.457785 0.0405505 0.492509
1122 1 0.37388 0.451018 0.244607
1698 1 0.367199 0.457316 0.41816
838 1 0.460342 0.459851 0.163671
844 1 0.502524 0.451808 0.214999
848 1 0.588558 0.455126 0.206701
1155 1 0.0392782 0.0137989 0.368866
4361 1 0.830691 0.497735 0.242671
846 1 0.623736 0.460181 0.166132
847 1 0.624736 0.410178 0.204831
4937 1 0.827223 0.49691 0.418693
852 1 0.664853 0.455178 0.202693
856 1 0.759432 0.458503 0.204953
146 1 0.0482342 0.293331 0.00463459
860 1 0.838859 0.452087 0.203423
1142 1 0.802185 0.45547 0.247687
589 1 0.235094 0.0053281 0.169886
864 1 0.916377 0.455625 0.197145
1146 1 0.871649 0.461295 0.248107
1695 1 0.290016 0.41638 0.458017
1179 1 0.533758 0.00955031 0.381597
863 1 0.963165 0.414526 0.207737
1150 1 0.968727 0.45704 0.250525
1694 1 0.291068 0.459625 0.413354
1700 1 0.329975 0.452774 0.452005
917 1 0.0815362 0.0898671 0.248352
915 1 0.0402528 0.085781 0.293717
868 1 0.996424 0.039886 0.292474
1154 1 0.0460526 0.0429093 0.327068
872 1 0.0857449 0.0473877 0.29009
876 1 0.169805 0.0488199 0.293087
1691 1 0.212764 0.417863 0.458019
1693 1 0.25559 0.415758 0.41866
923 1 0.208354 0.0940775 0.292671
1209 1 0.166525 0.0861664 0.331942
880 1 0.246965 0.0422481 0.289009
927 1 0.287328 0.0818031 0.293436
1166 1 0.292408 0.0426586 0.3303
929 1 0.32956 0.0866439 0.250161
884 1 0.330819 0.0469454 0.294792
1213 1 0.24767 0.0824216 0.337725
1689 1 0.161305 0.422857 0.416218
882 1 0.371703 0.0492421 0.255828
1696 1 0.249423 0.46113 0.460201
888 1 0.409617 0.0451699 0.298591