ITEM: TIMESTEP
0
ITEM: NUMBER OF ATOMS
864
ITEM: BOX BOUNDS pp pp pp
0.0000000000000000e+00 3.1559999999999999e+01
0.0000000000000000e+00 3.1559999999999999e+01
0.0000000000000000e+00 3.1559999999999999e+01
ITEM: ATOMS id type xs ys zs
1 1 0 0 0
2 1 0.0833333 0.0833333 0
3 1 0.0833333 0 0.0833333
4 1 0 0.0833333 0.0833333
5 1 0.166667 0 0
6 1 0.25 0.0833333 0
7 1 0.25 0 0.0833333
8 1 0.166667 0.0833333 0.0833333
9 1 0.333333 0 0
10 1 0.416667 0.0833333 0
11 1 0.416667 0 0.0833333
12 1 0.333333 0.0833333 0.0833333
13 1 0.5 0 0
14 1 0.583333 0.0833333 0
15 1 0.583333 0 0.0833333
16 1 0.5 0.0833333 0.0833333
17 1 0.666667 0 0
18 1 0.75 0.0833333 0
19 1 0.75 0 0.0833333
20 1 0.666667 0.0833333 0.0833333
21 1 0.833333 0 0
22 1 0.916667 0.0833333 0
23 1 0.916667 0 0.0833333
24 1 0.833333 0.0833333 0.0833333
25 1 0 0.166667 0
26 1 0.0833333 0.25 0
27 1 0.0833333 0.166667 0.0833333
28 1 0 0.25 0.0833333
29 1 0.166667 0.166667 0
30 1 0.25 0.25 0
31 1 0.25 0.166667 0.0833333
32 1 0.166667 0.25 0.0833333
33 1 0.333333 0.166667 0
34 1 0.416667 0.25 0
35 1 0.416667 0.166667 0.0833333
36 1 0.333333 0.25 0.0833333
37 1 0.5 0.166667 0
38 1 0.583333 0.25 0
39 1 0.583333 0.166667 0.0833333
40 1 0.5 0.25 0.0833333
41 1 0.666667 0.166667 0
42 1 0.75 0.25 0
43 1 0.75 0.166667 0.0833333
44 1 0.666667 0.25 0.0833333
45 1 0.833333 0.166667 0
46 1 0.916667 0.25 0
47 1 0.916667 0.166667 0.0833333
48 1 0.833333 0.25 0.0833333
49 1 0 0.333333 0
50 1 0.0833333 0.416667 0
51 1 0.0833333 0.333333 0.0833333
52 1 0 0.416667 0.0833333
53 1 0.166667 0.333333 0
54 1 0.25 0.416667 0
55 1 0.25 0.333333 0.0833333
56 1 0.166667 0.416667 0.0833333
57 1 0.333333 0.333333 0
58 1 0.416667 0.416667 0
59 1 0.416667 0.333333 0.0833333
60 1 0.333333 0.416667 0.0833333
61 1 0.5 0.333333 0
62 1 0.583333 0.416667 0
63 1 0.583333 0.333333 0.0833333
64 1 0.5 0.416667 0.0833333
65 1 0.666667 0.333333 0
66 1 0.75 0.416667 0
67 1 0.75 0.333333 0.0833333
68 1 0.666667 0.416667 0.0833333
69 1 0.833333 0.333333 0
70 1 0.916667 0.416667 0
71 1 0.916667 0.333333 0.0833333
72 1 0.833333 0.416667 0.0833333
73 1 0 0 0.166667
74 1 0.0833333 0.0833333 0.166667
75 1 0.0833333 0 0.25
76 1 0 0.0833333 0.25
77 1 0.166667 0 0.166667
78 1 0.25 0.0833333 0.166667
79 1 0.25 0 0.25
80 1 0.166667 0.0833333 0.25
81 1 0.333333 0 0.166667
82 1 0.416667 0.0833333 0.166667
83 1 0.416667 0 0.25
84 1 0.333333 0.0833333 0.25
85 1 0.5 0 0.166667
86 1 0.583333 0.0833333 0.166667
87 1 0.583333 0 0.25
88 1 0.5 0.0833333 0.25
89 1 0.666667 0 0.166667
90 1 0.75 0.0833333 0.166667
91 1 0.75 0 0.25
92 1 0.666667 0.0833333 0.25
93 1 0.833333 0 0.166667
94 1 0.916667 0.0833333 0.166667
95 1 0.916667 0 0.25
96 1 0.833333 0.0833333 0.25
97 1 0 0.166667 0.166667
98 1 0.0833333 0.25 0.166667
99 1 0.0833333 0.166667 0.25
100 1 0 0.25 0.25
101 1 0.166667 0.166667 0.166667
102 1 0.25 0.25 0.166667
103 1 0.25 0.166667 0.25
104 1 0.166667 0.25 0.25
105 1 0.333333 0.166667 0.166667
106 1 0.416667 0.25 0.166667
107 1 0.416667 0.166667 0.25
108 1 0.333333 0.25 0.25
109 1 0.5 0.166667 0.166667
110 1 0.583333 0.25 0.166667
111 1 0.583333 0.166667 0.25
112 1 0.5 0.25 0.25
113 1 0.666667 0.166667 0.166667
114 1 0.75 0.25 0.166667
115 1 0.75 0.166667 0.25
116 1 0.666667 0.25 0.25
117 1 0.833333 0.166667 0.166667
118 1 0.916667 0.25 0.166667
119 1 0.916667 0.166667 0.25
120 1 0.833333 0.25 0.25
121 1 0 0.333333 0.166667
122 1 0.0833333 0.416667 0.166667
123 1 0.0833333 0.333333 0.25
124 1 0 0.416667 0.25
125 1 0.166667 0.333333 0.166667
126 1 0.25 0.416667 0.166667
127 1 0.25 0.333333 0.25
128 1 0.166667 0.416667 0.25
129 1 0.333333 0.333333 0.166667
130 1 0.416667 0.416667 0.166667
131 1 0.416667 0.333333 0.25
132 1 0.333333 0.416667 0.25
133 1 0.5 0.333333 0.166667
134 1 0.583333 0.416667 0.166667
135 1 0.583333 0.333333 0.25
136 1 0.5 0.416667 0.25
137 1 0.666667 0.333333 0.166667
138 1 0.75 0.416667 0.166667
139 1 0.75 0.333333 0.25
140 1 0.666667 0.416667 0.25
141 1 0.833333 0.333333 0.166667
142 1 0.916667 0.416667 0.166667
143 1 0.916667 0.333333 0.25
144 1 0.833333 0.416667 0.25
145 1 0 0 0.333333
146 1 0.0833333 0.0833333 0.333333
147 1 0.0833333 0 0.416667
148 1 0 0.0833333 0.416667
149 1 0.166667 0 0.333333
150 1 0.25 0.0833333 0.333333
151 1 0.25 0 0.416667
152 1 0.166667 0.0833333 0.416667
153 1 0.333333 0 0.333333
154 1 0.416667 0.0833333 0.333333
155 1 0.416667 0 0.416667
156 1 0.333333 0.0833333 0.416667
157 1 0.5 0 0.333333
158 1 0.583333 0.0833333 0.333333
159 1 0.583333 0 0.416667
160 1 0.5 0.0833333 0.416667
161 1 0.666667 0 0.333333
162 1 0.75 0.0833333 0.333333
163 1 0.75 0 0.416667
164 1 0.666667 0.0833333 0.416667
165 1 0.833333 0 0.333333
166 1 0.916667 0.0833333 0.333333
167 1 0.916667 0 0.416667
168 1 0.833333 0.0833333 0.416667
169 1 0 0.166667 0.333333
170 1 0.0833333 0.25 0.333333
171 1 0.0833333 0.166667 0.416667
172 1 0 0.25 0.416667
173 1 0.166667 0.166667 0.333333
174 1 0.25 0.25 0.333333
175 1 0.25 0.166667 0.416667
176 1 0.166667 0.25 0.416667
177 1 0.333333 0.166667 0.333333
178 1 0.416667 0.25 0.333333
179 1 0.416667 0.166667 0.416667
180 1 0.333333 0.25 0.416667
181 1 0.5 0.166667 0.333333
182 1 0.583333 0.25 0.333333
183 1 0.583333 0.166667 0.416667
184 1 0.5 0.25 0.416667
185 1 0.666667 0.166667 0.333333
186 1 0.75 0.25 0.333333
187 1 0.75 0.166667 0.416667
188 1 0.666667 0.25 0.416667
189 1 0.833333 0.166667 0.333333
190 1 0.916667 0.25 0.333333
191 1 0.916667 0.166667 0.416667
192 1 0.833333 0.25 0.416667
193 1 0 0.333333 0.333333
194 1 0.0833333 0.416667 0.333333
195 1 0.0833333 0.333333 0.416667
196 1 0 0.416667 0.416667
197 1 0.166667 0.333333 0.333333
198 1 0.25 0.416667 0.333333
199 1 0.25 0.333333 0.416667
200 1 0.166667 0.416667 0.416667
201 1 0.333333 0.333333 0.333333
202 1 0.416667 0.416667 0.333333
203 1 0.416667 0.333333 0.416667
204 1 0.333333 0.416667 0.416667
205 1 0.5 0.333333 0.333333
206 1 0.583333 0.416667 0.333333
207 1 0.583333 0.333333 0.416667
208 1 0.5 0.416667 0.416667
209 1 0.666667 0.333333 0.333333
210 1 0.75 0.416667 0.333333
211 1 0.75 0.333333 0.416667
212 1 0.666667 0.416667 0.416667
213 1 0.833333 0.333333 0.333333
214 1 0.916667 0.416667 0.333333
215 1 0.916667 0.333333 0.416667
216 1 0.833333 0.416667 0.416667
217 1 0 0 0.5
218 1 0.0833333 0.0833333 0.5
219 1 0.0833333 0 0.583333
220 1 0 0.0833333 0.583333
221 1 0.166667 0 0.5
222 1 0.25 0.0833333 0.5
223 1 0.25 0 0.583333
224 1 0.166667 0.0833333 0.583333
225 1 0.333333 0 0.5
226 1 0.416667 0.0833333 0.5
227 1 0.416667 0 0.583333
228 1 0.333333 0.0833333 0.583333
229 1 0.5 0 0.5
230 1 0.583333 0.0833333 0.5
231 1 0.583333 0 0.583333
232 1 0.5 0.0833333 0.583333
233 1 0.666667 0 0.5
234 1 0.75 0.0833333 0.5
235 1 0.75 0 0.583333
236 1 0.666667 0.0833333 0.583333
237 1 0.833333 0 0.5
238 1 0.916667 0.0833333 0.5
239 1 0.916667 0 0.583333
240 1 0.833333 0.0833333 0.583333
241 1 0 0.166667 0.5
242 1 0.0833333 0.25 0.5
243 1 0.0833333 0.166667 0.583333
244 1 0 0.25 0.583333
245 1 0.166667 0.166667 0.5
246 1 0.25 0.25 0.5
247 1 0.25 0.166667 0.583333
248 1 0.166667 0.25 0.583333
249 1 0.333333 0.166667 0.5
250 1 0.416667 0.25 0.5
251 1 0.416667 0.166667 0.583333
252 1 0.333333 0.25 0.583333
253 1 0.5 0.166667 0.5
254 1 0.583333 0.25 0.5
255 1 0.583333 0.166667 0.583333
256 1 0.5 0.25 0.583333
257 1 0.666667 0.166667 0.5
258 1 0.75 0.25 0.5
259 1 0.75 0.166667 0.583333
260 1 0.666667 0.25 0.583333
261 1 0.833333 0.166667 0.5
262 1 0.916667 0.25 0.5
263 1 0.916667 0.166667 0.583333
264 1 0.833333 0.25 0.583333
265 1 0 0.333333 0.5
266 1 0.0833333 0.416667 0.5
267 1 0.0833333 0.333333 0.583333
268 1 0 0.416667 0.583333
269 1 0.166667 0.333333 0.5
270 1 0.25 0.416667 0.5
271 1 0.25 0.333333 0.583333
272 1 0.166667 0.416667 0.583333
273 1 0.333333 0.333333 0.5
274 1 0.416667 0.416667 0.5
275 1 0.416667 0.333333 0.583333
276 1 0.333333 0.416667 0.583333
277 1 0.5 0.333333 0.5
278 1 0.583333 0.416667 0.5
279 1 0.583333 0.333333 0.583333
280 1 0.5 0.416667 0.583333
281 1 0.666667 0.333333 0.5
282 1 0.75 0.416667 0.5
283 1 0.75 0.333333 0.583333
284 1 0.666667 0.416667 0.583333
285 1 0.833333 0.333333 0.5
286 1 0.916667 0.416667 0.5
287 1 0.916667 0.333333 0.583333
288 1 0.833333 0.416667 0.583333
289 1 0 0 0.666667
290 1 0.0833333 0.0833333 0.666667
291 1 0.0833333 0 0.75
292 1 0 0.0833333 0.75
361 1 0 0 0.833333
362 1 0.0833333 0.0833333 0.833333
293 1 0.166667 0 0.666667
294 1 0.25 0.0833333 0.666667
295 1 0.25 0 0.75
296 1 0.166667 0.0833333 0.75
365 1 0.166667 0 0.833333
366 1 0.25 0.0833333 0.833333
297 1 0.333333 0 0.666667
298 1 0.416667 0.0833333 0.666667
299 1 0.416667 0 0.75
300 1 0.333333 0.0833333 0.75
369 1 0.333333 0 0.833333
370 1 0.416667 0.0833333 0.833333
301 1 0.5 0 0.666667
302 1 0.583333 0.0833333 0.666667
303 1 0.583333 0 0.75
304 1 0.5 0.0833333 0.75
373 1 0.5 0 0.833333
374 1 0.583333 0.0833333 0.833333
305 1 0.666667 0 0.666667
306 1 0.75 0.0833333 0.666667
307 1 0.75 0 0.75
308 1 0.666667 0.0833333 0.75
377 1 0.666667 0 0.833333
378 1 0.75 0.0833333 0.833333
309 1 0.833333 0 0.666667
310 1 0.916667 0.0833333 0.666667
311 1 0.916667 0 0.75
312 1 0.833333 0.0833333 0.75
381 1 0.833333 0 0.833333
382 1 0.916667 0.0833333 0.833333
313 1 0 0.166667 0.666667
314 1 0.0833333 0.25 0.666667
315 1 0.0833333 0.166667 0.75
316 1 0 0.25 0.75
385 1 0 0.166667 0.833333
386 1 0.0833333 0.25 0.833333
317 1 0.166667 0.166667 0.666667
318 1 0.25 0.25 0.666667
319 1 0.25 0.166667 0.75
320 1 0.166667 0.25 0.75
389 1 0.166667 0.166667 0.833333
390 1 0.25 0.25 0.833333
321 1 0.333333 0.166667 0.666667
322 1 0.416667 0.25 0.666667
323 1 0.416667 0.166667 0.75
324 1 0.333333 0.25 0.75
393 1 0.333333 0.166667 0.833333
394 1 0.416667 0.25 0.833333
325 1 0.5 0.166667 0.666667
326 1 0.583333 0.25 0.666667
327 1 0.583333 0.166667 0.75
328 1 0.5 0.25 0.75
397 1 0.5 0.166667 0.833333
398 1 0.583333 0.25 0.833333
329 1 0.666667 0.166667 0.666667
330 1 0.75 0.25 0.666667
331 1 0.75 0.166667 0.75
332 1 0.666667 0.25 0.75
401 1 0.666667 0.166667 0.833333
402 1 0.75 0.25 0.833333
333 1 0.833333 0.166667 0.666667
334 1 0.916667 0.25 0.666667
335 1 0.916667 0.166667 0.75
336 1 0.833333 0.25 0.75
405 1 0.833333 0.166667 0.833333
406 1 0.916667 0.25 0.833333
337 1 0 0.333333 0.666667
338 1 0.0833333 0.416667 0.666667
339 1 0.0833333 0.333333 0.75
340 1 0 0.416667 0.75
409 1 0 0.333333 0.833333
410 1 0.0833333 0.416667 0.833333
341 1 0.166667 0.333333 0.666667
342 1 0.25 0.416667 0.666667
343 1 0.25 0.333333 0.75
344 1 0.166667 0.416667 0.75
413 1 0.166667 0.333333 0.833333
414 1 0.25 0.416667 0.833333
345 1 0.333333 0.333333 0.666667
346 1 0.416667 0.416667 0.666667
347 1 0.416667 0.333333 0.75
348 1 0.333333 0.416667 0.75
417 1 0.333333 0.333333 0.833333
418 1 0.416667 0.416667 0.833333
349 1 0.5 0.333333 0.666667
350 1 0.583333 0.416667 0.666667
351 1 0.583333 0.333333 0.75
352 1 0.5 0.416667 0.75
421 1 0.5 0.333333 0.833333
422 1 0.583333 0.416667 0.833333
353 1 0.666667 0.333333 0.666667
354 1 0.75 0.416667 0.666667
355 1 0.75 0.333333 0.75
356 1 0.666667 0.416667 0.75
425 1 0.666667 0.333333 0.833333
426 1 0.75 0.416667 0.833333
357 1 0.833333 0.333333 0.666667
358 1 0.916667 0.416667 0.666667
359 1 0.916667 0.333333 0.75
360 1 0.833333 0.416667 0.75
429 1 0.833333 0.333333 0.833333
430 1 0.916667 0.416667 0.833333
363 1 0.0833333 0 0.916667
364 1 0 0.0833333 0.916667
367 1 0.25 0 0.916667
368 1 0.166667 0.0833333 0.916667
371 1 0.416667 0 0.916667
372 1 0.333333 0.0833333 0.916667
375 1 0.583333 0 0.916667
376 1 0.5 0.0833333 0.916667
379 1 0.75 0 0.916667
380 1 0.666667 0.0833333 0.916667
383 1 0.916667 0 0.916667
384 1 0.833333 0.0833333 0.916667
387 1 0.0833333 0.166667 0.916667
388 1 0 0.25 0.916667
391 1 0.25 0.166667 0.916667
392 1 0.166667 0.25 0.916667
395 1 0.416667 0.166667 0.916667
396 1 0.333333 0.25 0.916667
399 1 0.583333 0.166667 0.916667
400 1 0.5 0.25 0.916667
403 1 0.75 0.166667 0.916667
404 1 0.666667 0.25 0.916667
407 1 0.916667 0.166667 0.916667
408 1 0.833333 0.25 0.916667
411 1 0.0833333 0.333333 0.916667
412 1 0 0.416667 0.916667
415 1 0.25 0.333333 0.916667
416 1 0.166667 0.416667 0.916667
419 1 0.416667 0.333333 0.916667
420 1 0.333333 0.416667 0.916667
423 1 0.583333 0.333333 0.916667
424 1 0.5 0.416667 0.916667
427 1 0.75 0.333333 0.916667
428 1 0.666667 0.416667 0.916667
431 1 0.916667 0.333333 0.916667
432 1 0.833333 0.416667 0.916667
433 1 0 0.5 0
434 1 0.0833333 0.583333 0
435 1 0.0833333 0.5 0.0833333
436 1 0 0.583333 0.0833333
437 1 0.166667 0.5 0
438 1 0.25 0.583333 0
439 1 0.25 0.5 0.0833333
440 1 0.166667 0.583333 0.0833333
441 1 0.333333 0.5 0
442 1 0.416667 0.583333 0
443 1 0.416667 0.5 0.0833333
444 1 0.333333 0.583333 0.0833333
445 1 0.5 0.5 0
446 1 0.583333 0.583333 0
447 1 0.583333 0.5 0.0833333
448 1 0.5 0.583333 0.0833333
449 1 0.666667 0.5 0
450 1 0.75 0.583333 0
451 1 0.75 0.5 0.0833333
452 1 0.666667 0.583333 0.0833333
453 1 0.833333 0.5 0
454 1 0.916667 0.583333 0
455 1 0.916667 0.5 0.0833333
456 1 0.833333 0.583333 0.0833333
457 1 0 0.666667 0
458 1 0.0833333 0.75 0
459 1 0.0833333 0.666667 0.0833333
460 1 0 0.75 0.0833333
481 1 0 0.833333 0
483 1 0.0833333 0.833333 0.0833333
461 1 0.166667 0.666667 0
462 1 0.25 0.75 0
463 1 0.25 0.666667 0.0833333
464 1 0.166667 0.75 0.0833333
485 1 0.166667 0.833333 0
487 1 0.25 0.833333 0.0833333
465 1 0.333333 0.666667 0
466 1 0.416667 0.75 0
467 1 0.416667 0.666667 0.0833333
468 1 0.333333 0.75 0.0833333
489 1 0.333333 0.833333 0
491 1 0.416667 0.833333 0.0833333
469 1 0.5 0.666667 0
470 1 0.583333 0.75 0
471 1 0.583333 0.666667 0.0833333
472 1 0.5 0.75 0.0833333
493 1 0.5 0.833333 0
495 1 0.583333 0.833333 0.0833333
473 1 0.666667 0.666667 0
474 1 0.75 0.75 0
475 1 0.75 0.666667 0.0833333
476 1 0.666667 0.75 0.0833333
497 1 0.666667 0.833333 0
499 1 0.75 0.833333 0.0833333
477 1 0.833333 0.666667 0
478 1 0.916667 0.75 0
479 1 0.916667 0.666667 0.0833333
480 1 0.833333 0.75 0.0833333
501 1 0.833333 0.833333 0
503 1 0.916667 0.833333 0.0833333
482 1 0.0833333 0.916667 0
484 1 0 0.916667 0.0833333
486 1 0.25 0.916667 0
488 1 0.166667 0.916667 0.0833333
490 1 0.416667 0.916667 0
492 1 0.333333 0.916667 0.0833333
494 1 0.583333 0.916667 0
496 1 0.5 0.916667 0.0833333
498 1 0.75 0.916667 0
500 1 0.666667 0.916667 0.0833333
502 1 0.916667 0.916667 0
504 1 0.833333 0.916667 0.0833333
505 1 0 0.5 0.166667
506 1 0.0833333 0.583333 0.166667
507 1 0.0833333 0.5 0.25
508 1 0 0.583333 0.25
509 1 0.166667 0.5 0.166667
510 1 0.25 0.583333 0.166667
511 1 0.25 0.5 0.25
512 1 0.166667 0.583333 0.25
513 1 0.333333 0.5 0.166667
514 1 0.416667 0.583333 0.166667
515 1 0.416667 0.5 0.25
516 1 0.333333 0.583333 0.25
517 1 0.5 0.5 0.166667
518 1 0.583333 0.583333 0.166667
519 1 0.583333 0.5 0.25
520 1 0.5 0.583333 0.25
521 1 0.666667 0.5 0.166667
522 1 0.75 0.583333 0.166667
523 1 0.75 0.5 0.25
524 1 0.666667 0.583333 0.25
525 1 0.833333 0.5 0.166667
526 1 0.916667 0.583333 0.166667
527 1 0.916667 0.5 0.25
528 1 0.833333 0.583333 0.25
529 1 0 0.666667 0.166667
530 1 0.0833333 0.75 0.166667
531 1 0.0833333 0.666667 0.25
532 1 0 0.75 0.25
553 1 0 0.833333 0.166667
555 1 0.0833333 0.833333 0.25
533 1 0.166667 0.666667 0.166667
534 1 0.25 0.75 0.166667
535 1 0.25 0.666667 0.25
536 1 0.166667 0.75 0.25
557 1 0.166667 0.833333 0.166667
559 1 0.25 0.833333 0.25
537 1 0.333333 0.666667 0.166667
538 1 0.416667 0.75 0.166667
539 1 0.416667 0.666667 0.25
540 1 0.333333 0.75 0.25
561 1 0.333333 0.833333 0.166667
563 1 0.416667 0.833333 0.25
541 1 0.5 0.666667 0.166667
542 1 0.583333 0.75 0.166667
543 1 0.583333 0.666667 0.25
544 1 0.5 0.75 0.25
565 1 0.5 0.833333 0.166667
567 1 0.583333 0.833333 0.25
545 1 0.666667 0.666667 0.166667
546 1 0.75 0.75 0.166667
547 1 0.75 0.666667 0.25
548 1 0.666667 0.75 0.25
569 1 0.666667 0.833333 0.166667
571 1 0.75 0.833333 0.25
549 1 0.833333 0.666667 0.166667
550 1 0.916667 0.75 0.166667
551 1 0.916667 0.666667 0.25
552 1 0.833333 0.75 0.25
573 1 0.833333 0.833333 0.166667
575 1 0.916667 0.833333 0.25
554 1 0.0833333 0.916667 0.166667
556 1 0 0.916667 0.25
558 1 0.25 0.916667 0.166667
560 1 0.166667 0.916667 0.25
562 1 0.416667 0.916667 0.166667
564 1 0.333333 0.916667 0.25
566 1 0.583333 0.916667 0.166667
568 1 0.5 0.916667 0.25
570 1 0.75 0.916667 0.166667
572 1 0.666667 0.916667 0.25
574 1 0.916667 0.916667 0.166667
576 1 0.833333 0.916667 0.25
577 1 0 0.5 0.333333
578 1 0.0833333 0.583333 0.333333
579 1 0.0833333 0.5 0.416667
580 1 0 0.583333 0.416667
581 1 0.166667 0.5 0.333333
582 1 0.25 0.583333 0.333333
583 1 0.25 0.5 0.416667
584 1 0.166667 0.583333 0.416667
585 1 0.333333 0.5 0.333333
586 1 0.416667 0.583333 0.333333
587 1 0.416667 0.5 0.416667
588 1 0.333333 0.583333 0.416667
589 1 0.5 0.5 0.333333
590 1 0.583333 0.583333 0.333333
591 1 0.583333 0.5 0.416667
592 1 0.5 0.583333 0.416667
593 1 0.666667 0.5 0.333333
594 1 0.75 0.583333 0.333333
595 1 0.75 0.5 0.416667
596 1 0.666667 0.583333 0.416667
597 1 0.833333 0.5 0.333333
598 1 0.916667 0.583333 0.333333
599 1 0.916667 0.5 0.416667
600 1 0.833333 0.583333 0.416667
601 1 0 0.666667 0.333333
602 1 0.0833333 0.75 0.333333
603 1 0.0833333 0.666667 0.416667
604 1 0 0.75 0.416667
625 1 0 0.833333 0.333333
627 1 0.0833333 0.833333 0.416667
605 1 0.166667 0.666667 0.333333
606 1 0.25 0.75 0.333333
607 1 0.25 0.666667 0.416667
608 1 0.166667 0.75 0.416667
629 1 0.166667 0.833333 0.333333
631 1 0.25 0.833333 0.416667
609 1 0.333333 0.666667 0.333333
610 1 0.416667 0.75 0.333333
611 1 0.416667 0.666667 0.416667
612 1 0.333333 0.75 0.416667
633 1 0.333333 0.833333 0.333333
635 1 0.416667 0.833333 0.416667
613 1 0.5 0.666667 0.333333
614 1 0.583333 0.75 0.333333
615 1 0.583333 0.666667 0.416667
616 1 0.5 0.75 0.416667
637 1 0.5 0.833333 0.333333
639 1 0.583333 0.833333 0.416667
617 1 0.666667 0.666667 0.333333
618 1 0.75 0.75 0.333333
619 1 0.75 0.666667 0.416667
620 1 0.666667 0.75 0.416667
641 1 0.666667 0.833333 0.333333
643 1 0.75 0.833333 0.416667
621 1 0.833333 0.666667 0.333333
622 1 0.916667 0.75 0.333333
623 1 0.916667 0.666667 0.416667
624 1 0.833333 0.75 0.416667
645 1 0.833333 0.833333 0.333333
647 1 0.916667 0.833333 0.416667
626 1 0.0833333 0.916667 0.333333
628 1 0 0.916667 0.416667
630 1 0.25 0.916667 0.333333
632 1 0.166667 0.916667 0.416667
634 1 0.416667 0.916667 0.333333
636 1 0.333333 0.916667 0.416667
638 1 0.583333 0.916667 0.333333
640 1 0.5 0.916667 0.416667
642 1 0.75 0.916667 0.333333
644 1 0.666667 0.916667 0.416667
646 1 0.916667 0.916667 0.333333
648 1 0.833333 0.916667 0.416667
649 1 0 0.5 0.5
650 1 0.0833333 0.583333 0.5
651 1 0.0833333 0.5 0.583333
652 1 0 0.583333 0.583333
653 1 0.166667 0.5 0.5
654 1 0.25 0.583333 0.5
655 1 0.25 0.5 0.583333
656 1 0.166667 0.583333 0.583333
657 1 0.333333 0.5 0.5
658 1 0.416667 0.583333 0.5
659 1 0.416667 0.5 0.583333
660 1 0.333333 0.583333 0.583333
661 1 0.5 0.5 0.5
662 1 0.583333 0.583333 0.5
663 1 0.583333 0.5 0.583333
664 1 0.5 0.583333 0.583333
665 1 0.666667 0.5 0.5
666 1 0.75 0.583333 0.5
667 1 0.75 0.5 0.583333
668 1 0.666667 0.583333 0.583333
669 1 0.833333 0.5 0.5
670 1 0.916667 0.583333 0.5
671 1 0.916667 0.5 0.583333
672 1 0.833333 0.583333 0.583333
673 1 0 0.666667 0.5
674 1 0.0833333 0.75 0.5
675 1 0.0833333 0.666667 0.583333
676 1 0 0.75 0.583333
697 1 0 0.833333 0.5
699 1 0.0833333 0.833333 0.583333
677 1 0.166667 0.666667 0.5
678 1 0.25 0.75 0.5
679 1 0.25 0.666667 0.583333
680 1 0.166667 0.75 0.583333
701 1 0.166667 0.833333 0.5
703 1 0.25 0.833333 0.583333
681 1 0.333333 0.666667 0.5
682 1 0.416667 0.75 0.5
683 1 0.416667 0.666667 0.583333
684 1 0.333333 0.75 0.583333
705 1 0.333333 0.833333 0.5
707 1 0.416667 0.833333 0.583333
685 1 0.5 0.666667 0.5
686 1 0.583333 0.75 0.5
687 1 0.583333 0.666667 0.583333
688 1 0.5 0.75 0.583333
709 1 0.5 0.833333 0.5
711 1 0.583333 0.833333 0.583333
689 1 0.666667 0.666667 0.5
690 1 0.75 0.75 0.5
691 1 0.75 0.666667 0.583333
692 1 0.666667 0.75 0.583333
713 1 0.666667 0.833333 0.5
715 1 0.75 0.833333 0.583333
693 1 0.833333 0.666667 0.5
694 1 0.916667 0.75 0.5
695 1 0.916667 0.666667 0.583333
696 1 0.833333 0.75 0.583333
717 1 0.833333 0.833333 0.5
719 1 0.916667 0.833333 0.583333
698 1 0.0833333 0.916667 0.5
700 1 0 0.916667 0.583333
702 1 0.25 0.916667 0.5
704 1 0.166667 0.916667 0.583333
706 1 0.416667 0.916667 0.5
708 1 0.333333 0.916667 0.583333
710 1 0.583333 0.916667 0.5
712 1 0.5 0.916667 0.583333
714 1 0.75 0.916667 0.5
716 1 0.666667 0.916667 0.583333
718 1 0.916667 0.916667 0.5
720 1 0.833333 0.916667 0.583333
721 1 0 0.5 0.666667
722 1 0.0833333 0.583333 0.666667
723 1 0.0833333 0.5 0.75
724 1 0 0.583333 0.75
793 1 0 0.5 0.833333
794 1 0.0833333 0.583333 0.833333
725 1 0.166667 0.5 0.666667
726 1 0.25 0.583333 0.666667
727 1 0.25 0.5 0.75
728 1 0.166667 0.583333 0.75
797 1 0.166667 0.5 0.833333
798 1 0.25 0.583333 0.833333
729 1 0.333333 0.5 0.666667
730 1 0.416667 0.583333 0.666667
731 1 0.416667 0.5 0.75
732 1 0.333333 0.583333 0.75
801 1 0.333333 0.5 0.833333
802 1 0.416667 0.583333 0.833333
733 1 0.5 0.5 0.666667
734 1 0.583333 0.583333 0.666667
735 1 0.583333 0.5 0.75
736 1 0.5 0.583333 0.75
805 1 0.5 0.5 0.833333
806 1 0.583333 0.583333 0.833333
737 1 0.666667 0.5 0.666667
738 1 0.75 0.583333 0.666667
739 1 0.75 0.5 0.75
740 1 0.666667 0.583333 0.75
809 1 0.666667 0.5 0.833333
810 1 0.75 0.583333 0.833333
741 1 0.833333 0.5 0.666667
742 1 0.916667 0.583333 0.666667
743 1 0.916667 0.5 0.75
744 1 0.833333 0.583333 0.75
813 1 0.833333 0.5 0.833333
814 1 0.916667 0.583333 0.833333
745 1 0 0.666667 0.666667
746 1 0.0833333 0.75 0.666667
747 1 0.0833333 0.666667 0.75
748 1 0 0.75 0.75
769 1 0 0.833333 0.666667
771 1 0.0833333 0.833333 0.75
817 1 0 0.666667 0.833333
818 1 0.0833333 0.75 0.833333
841 1 0 0.833333 0.833333
749 1 0.166667 0.666667 0.666667
750 1 0.25 0.75 0.666667
751 1 0.25 0.666667 0.75
752 1 0.166667 0.75 0.75
773 1 0.166667 0.833333 0.666667
775 1 0.25 0.833333 0.75
821 1 0.166667 0.666667 0.833333
822 1 0.25 0.75 0.833333
845 1 0.166667 0.833333 0.833333
753 1 0.333333 0.666667 0.666667
754 1 0.416667 0.75 0.666667
755 1 0.416667 0.666667 0.75
756 1 0.333333 0.75 0.75
777 1 0.333333 0.833333 0.666667
779 1 0.416667 0.833333 0.75
825 1 0.333333 0.666667 0.833333
826 1 0.416667 0.75 0.833333
849 1 0.333333 0.833333 0.833333
757 1 0.5 0.666667 0.666667
758 1 0.583333 0.75 0.666667
759 1 0.583333 0.666667 0.75
760 1 0.5 0.75 0.75
781 1 0.5 0.833333 0.666667
783 1 0.583333 0.833333 0.75
829 1 0.5 0.666667 0.833333
830 1 0.583333 0.75 0.833333
853 1 0.5 0.833333 0.833333
761 1 0.666667 0.666667 0.666667
762 1 0.75 0.75 0.666667
763 1 0.75 0.666667 0.75
764 1 0.666667 0.75 0.75
785 1 0.666667 0.833333 0.666667
787 1 0.75 0.833333 0.75
833 1 0.666667 0.666667 0.833333
834 1 0.75 0.75 0.833333
857 1 0.666667 0.833333 0.833333
765 1 0.833333 0.666667 0.666667
766 1 0.916667 0.75 0.666667
767 1 0.916667 0.666667 0.75
768 1 0.833333 0.75 0.75
789 1 0.833333 0.833333 0.666667
791 1 0.916667 0.833333 0.75
837 1 0.833333 0.666667 0.833333
838 1 0.916667 0.75 0.833333
861 1 0.833333 0.833333 0.833333
770 1 0.0833333 0.916667 0.666667
772 1 0 0.916667 0.75
842 1 0.0833333 0.916667 0.833333
774 1 0.25 0.916667 0.666667
776 1 0.166667 0.916667 0.75
846 1 0.25 0.916667 0.833333
778 1 0.416667 0.916667 0.666667
780 1 0.333333 0.916667 0.75
850 1 0.416667 0.916667 0.833333
782 1 0.583333 0.916667 0.666667
784 1 0.5 0.916667 0.75
854 1 0.583333 0.916667 0.833333
786 1 0.75 0.916667 0.666667
788 1 0.666667 0.916667 0.75
858 1 0.75 0.916667 0.833333
790 1 0.916667 0.916667 0.666667
792 1 0.833333 0.916667 0.75
862 1 0.916667 0.916667 0.833333
795 1 0.0833333 0.5 0.916667
796 1 0 0.583333 0.916667
799 1 0.25 0.5 0.916667
800 1 0.166667 0.583333 0.916667
803 1 0.416667 0.5 0.916667
804 1 0.333333 0.583333 0.916667
807 1 0.583333 0.5 0.916667
808 1 0.5 0.583333 0.916667
811 1 0.75 0.5 0.916667
812 1 0.666667 0.583333 0.916667
815 1 0.916667 0.5 0.916667
816 1 0.833333 0.583333 0.916667
819 1 0.0833333 0.666667 0.916667
820 1 0 0.75 0.916667
843 1 0.0833333 0.833333 0.916667
823 1 0.25 0.666667 0.916667
824 1 0.166667 0.75 0.916667
847 1 0.25 0.833333 0.916667
827 1 0.416667 0.666667 0.916667
828 1 0.333333 0.75 0.916667
851 1 0.416667 0.833333 0.916667
831 1 0.583333 0.666667 0.916667
832 1 0.5 0.75 0.916667
855 1 0.583333 0.833333 0.916667
835 1 0.75 0.666667 0.916667
836 1 0.666667 0.75 0.916667
859 1 0.75 0.833333 0.916667
839 1 0.916667 0.666667 0.916667
840 1 0.833333 0.75 0.916667
863 1 0.916667 0.833333 0.916667
844 1 0 0.916667 0.916667
848 1 0.166667 0.916667 0.916667
852 1 0.333333 0.916667 0.916667
856 1 0.5 0.916667 0.916667
860 1 0.666667 0.916667 0.916667
864 1 0.833333 0.916667 0.916667
ITEM: TIMESTEP
500
ITEM: NUMBER OF ATOMS
864
ITEM: BOX BOUNDS pp pp pp
-1.3201848575424027e+00 3.2880184857540634e+01
-1.3201848575424027e+00 3.2880184857540634e+01
-1.3201848575424027e+00 3.2880184857540634e+01
ITEM: ATOMS id type xs ys zs
241 1 0.00396956 0.17015 0.494902
34 1 0.405247 0.229544 -0.00140858
21 1 0.831703 0.0106915 0.0212198
4 1 0.00926024 0.0651112 0.0698806
218 1 0.0822047 0.0907503 0.489849
70 1 0.90881 0.397948 0.0102558
216 1 0.82666 0.418647 0.439627
8 1 0.132832 0.0440637 0.113368
41 1 0.681655 0.172858 0.00567155
435 1 0.087709 0.491548 0.0793055
215 1 0.913768 0.344409 0.443336
12 1 0.328401 0.0583669 0.0699763
665 1 0.643856 0.497589 0.482087
589 1 0.496679 0.489701 0.362166
214 1 0.917762 0.426766 0.327631
16 1 0.506846 0.0795421 0.101241
46 1 0.921545 0.276024 0.0093967
455 1 0.899385 0.487564 0.0928505
213 1 0.867825 0.336836 0.333975
20 1 0.680478 0.0784697 0.108835
212 1 0.65603 0.419703 0.403084
91 1 0.744087 0.00586008 0.226406
211 1 0.750009 0.335951 0.418112
24 1 0.849246 0.104611 0.101997
595 1 0.745673 0.4888 0.408356
221 1 0.17073 0.0151048 0.489578
27 1 0.0652188 0.152448 0.0975951
28 1 1.00325 0.262055 0.075674
163 1 0.722064 0.0134071 0.410085
238 1 0.91398 0.0895596 0.505952
31 1 0.246262 0.175605 0.0359969
32 1 0.164677 0.260689 0.0957293
69 1 0.827182 0.326862 0.0293124
443 1 0.40832 0.495246 0.0675858
35 1 0.423706 0.165488 0.100031
36 1 0.333064 0.257191 0.0661023
54 1 0.231031 0.427956 0.00434595
585 1 0.333584 0.489492 0.338195
39 1 0.609354 0.159521 0.0786037
40 1 0.505343 0.253136 0.0633812
246 1 0.248365 0.238334 0.495272
599 1 0.93499 0.464378 0.421372
43 1 0.753176 0.15901 0.0796483
44 1 0.686765 0.247417 0.0922228
527 1 0.934453 0.504699 0.2461
451 1 0.750207 0.484755 0.0835662
47 1 0.940813 0.161483 0.0879746
48 1 0.83739 0.251431 0.10487
18 1 0.735688 0.0688732 0.00586666
161 1 0.663854 0.0153432 0.331782
51 1 0.0727921 0.350004 0.0873387
52 1 0.971577 0.419576 0.0926833
198 1 0.236305 0.403798 0.353462
261 1 0.834311 0.168696 0.498697
55 1 0.235693 0.344016 0.0767011
56 1 0.160389 0.421668 0.0868126
282 1 0.739835 0.41716 0.488491
197 1 0.179194 0.306251 0.322167
59 1 0.423005 0.333933 0.0305925
60 1 0.349049 0.397858 0.0735113
196 1 0.00931777 0.39004 0.413327
195 1 0.100896 0.324195 0.437225
63 1 0.60312 0.314671 0.0690708
64 1 0.510961 0.39822 0.0921272
42 1 0.760705 0.24719 0.00577534
194 1 0.0875695 0.406205 0.340616
67 1 0.745879 0.345484 0.0793121
68 1 0.670857 0.425132 0.0915802
14 1 0.590698 0.0696091 0.00186208
193 1 0.00600689 0.32372 0.335061
71 1 0.913546 0.323571 0.100836
72 1 0.851077 0.401572 0.106557
210 1 0.738957 0.414062 0.341195
74 1 0.0624822 0.0909501 0.172176
145 1 -0.00438769 0.013755 0.344761
76 1 0.00811252 0.0911608 0.26896
579 1 0.0781595 0.493199 0.42811
78 1 0.252976 0.0769848 0.169435
49 1 1.00301 0.348166 0.0107197
80 1 0.159205 0.094682 0.241377
209 1 0.677904 0.30945 0.333272
82 1 0.408026 0.0670219 0.157514
208 1 0.495294 0.416589 0.428693
84 1 0.331355 0.0782866 0.241494
93 1 0.8431 0.0192363 0.19014
86 1 0.586576 0.0616582 0.16018
149 1 0.175846 -0.00171188 0.304618
88 1 0.49044 0.0803575 0.244953
207 1 0.587417 0.342919 0.429438
90 1 0.765324 0.101366 0.155005
206 1 0.597083 0.402025 0.311853
92 1 0.643089 0.101629 0.254515
449 1 0.674012 0.484238 0.00409724
94 1 0.928675 0.0873858 0.170141
205 1 0.491082 0.310392 0.303993
96 1 0.810196 0.107716 0.248512
97 1 0.991777 0.160149 0.183547
98 1 0.0854242 0.230143 0.164768
99 1 0.07816 0.170689 0.252353
100 1 0.989245 0.237788 0.25373
101 1 0.179585 0.148561 0.150481
102 1 0.254032 0.246596 0.161862
103 1 0.244044 0.160252 0.254091
104 1 0.164495 0.242047 0.241432
105 1 0.32201 0.162006 0.128575
106 1 0.426275 0.268875 0.132053
107 1 0.396864 0.180227 0.217014
108 1 0.315451 0.236963 0.237561
109 1 0.52158 0.145047 0.173075
110 1 0.572007 0.234491 0.147789
111 1 0.578325 0.183786 0.255183
112 1 0.488929 0.245931 0.222868
113 1 0.646789 0.167314 0.17391
114 1 0.748758 0.22107 0.166967
115 1 0.7339 0.17341 0.251167
116 1 0.663203 0.247153 0.243819
117 1 0.853713 0.175096 0.175419
118 1 0.942307 0.246685 0.162807
119 1 0.915125 0.162817 0.264755
120 1 0.844433 0.237436 0.257431
121 1 0.994092 0.342573 0.165776
122 1 0.0834843 0.406882 0.183322
123 1 0.0975737 0.342375 0.256293
124 1 0.989894 0.388061 0.260261
125 1 0.188775 0.335367 0.173174
126 1 0.266234 0.419611 0.148581
127 1 0.265286 0.323292 0.253218
128 1 0.191271 0.416927 0.267102
129 1 0.320199 0.331597 0.155767
130 1 0.447243 0.39819 0.166589
131 1 0.395747 0.302797 0.236143
132 1 0.358779 0.434964 0.206557
133 1 0.516752 0.32017 0.162961
134 1 0.592528 0.401315 0.163188
135 1 0.581324 0.323326 0.236139
136 1 0.510613 0.420309 0.240732
137 1 0.677998 0.311557 0.16276
138 1 0.756632 0.418239 0.169196
139 1 0.772854 0.335728 0.26981
140 1 0.690845 0.384955 0.244482
141 1 0.809832 0.323223 0.177326
142 1 0.923397 0.419313 0.181484
143 1 0.923304 0.312718 0.241866
144 1 0.85425 0.399448 0.251822
204 1 0.314835 0.422012 0.414296
146 1 0.0949923 0.0753145 0.341829
593 1 0.67953 0.495943 0.313426
148 1 0.0145887 0.0919383 0.409181
203 1 0.411927 0.346665 0.386933
150 1 0.255403 0.0731742 0.334516
10 1 0.426603 0.0779918 0.0243976
152 1 0.177403 0.10751 0.414174
202 1 0.423377 0.392885 0.291312
154 1 0.423494 0.0851666 0.334306
433 1 0.9768 0.491199 -0.000905638
156 1 0.335665 0.0782026 0.406642
201 1 0.317267 0.325499 0.334568
158 1 0.570895 0.0955925 0.325916