ITEM: TIMESTEP
22000
ITEM: NUMBER OF ATOMS
864
ITEM: BOX BOUNDS pp pp pp
0.0000000000000000e+00 3.1559999999999999e+01
0.0000000000000000e+00 3.1559999999999999e+01
0.0000000000000000e+00 3.1559999999999999e+01
ITEM: ATOMS id type xs ys zs
4 1 0.00450686 0.0886329 0.0859545
27 1 0.0818496 0.168091 0.0799864
74 1 0.087883 0.084858 0.160862
8 1 0.172497 0.0978865 0.0773769
265 1 0.00910724 0.327415 0.516947
12 1 0.33876 0.083769 0.0660376
31 1 0.249358 0.164692 0.0721941
254 1 0.602915 0.251431 0.48814
35 1 0.424073 0.174872 0.094465
109 1 0.508764 0.173624 0.167284
167 1 0.920367 0.0126784 0.415529
82 1 0.405312 0.0784674 0.165409
93 1 0.819293 0.0128114 0.16865
16 1 0.499023 0.0922112 0.0830069
39 1 0.588109 0.179042 0.0700078
214 1 0.919104 0.40845 0.337175
20 1 0.671164 0.0959121 0.0787614
37 1 0.492459 0.180861 -0.0118662
24 1 0.830235 0.0851066 0.079559
43 1 0.753889 0.18693 0.0815215
665 1 0.671436 0.479487 0.514629
593 1 0.651657 0.500798 0.335207
47 1 0.922728 0.159191 0.081679
97 1 0.998463 0.171828 0.168464
94 1 0.913253 0.0868388 0.1735
61 1 0.492049 0.325261 0.0012518
32 1 0.166057 0.2489 0.0826881
98 1 0.0834609 0.241497 0.18138
51 1 0.0742375 0.326423 0.0741234
230 1 0.565606 0.0912188 0.495855
266 1 0.0798236 0.404219 0.517032
525 1 0.821882 0.496908 0.164409
36 1 0.330207 0.268668 0.0939512
102 1 0.250299 0.249884 0.164784
125 1 0.158995 0.320379 0.161246
515 1 0.418245 0.503922 0.249636
105 1 0.337835 0.163875 0.166933
250 1 0.423035 0.254075 0.49878
40 1 0.508226 0.248549 0.0917072
110 1 0.584266 0.257371 0.170895
137 1 0.65105 0.343689 0.164516
63 1 0.571919 0.334257 0.07851
587 1 0.413215 0.508997 0.419154
3 1 0.0901072 0.00477742 0.0779627
79 1 0.26368 0.0207199 0.239728
44 1 0.676995 0.245117 0.0625732
48 1 0.827297 0.264246 0.093846
67 1 0.743255 0.330129 0.078955
28 1 0.00361507 0.249546 0.0803215
118 1 0.912795 0.262667 0.164213
157 1 0.48272 -0.0197295 0.324305
141 1 0.823942 0.353972 0.180001
455 1 0.909714 0.507667 0.100267
52 1 -0.0061973 0.412333 0.0822549
121 1 0.00969441 0.328548 0.164297
234 1 0.744683 0.0887097 0.497546
165 1 0.831621 0.00644571 0.3303
55 1 0.241991 0.32967 0.0741298
56 1 0.165051 0.402897 0.0782062
126 1 0.243833 0.388682 0.161763
59 1 0.402267 0.355906 0.0923807
60 1 0.328989 0.431097 0.106382
212 1 0.664889 0.413271 0.408555
163 1 0.742525 0.0107121 0.425223
130 1 0.413378 0.429302 0.162867
81 1 0.328336 0.00436927 0.152036
64 1 0.512621 0.414973 0.0897382
134 1 0.576967 0.424077 0.182998
68 1 0.659417 0.421643 0.0854574
577 1 -0.00402329 0.484279 0.328244
138 1 0.735743 0.402652 0.163782
72 1 0.838146 0.430087 0.0829799
71 1 0.91492 0.336336 0.0633845
435 1 0.0905139 0.496563 0.0698154
101 1 0.171699 0.168086 0.166047
80 1 0.169814 0.0853137 0.244104
99 1 0.0670841 0.152565 0.261204
146 1 0.0860862 0.0765963 0.330952
78 1 0.253611 0.0991749 0.154626
84 1 0.325239 0.0977959 0.255453
103 1 0.243438 0.164803 0.244257
216 1 0.827861 0.412616 0.420149
579 1 0.0809689 0.487743 0.415593
154 1 0.420393 0.0902379 0.319037
88 1 0.502261 0.0763255 0.243183
107 1 0.411573 0.175139 0.240768
86 1 0.589304 0.0834931 0.160447
111 1 0.574759 0.176242 0.248637
215 1 0.912481 0.330694 0.414698
158 1 0.576882 0.0934491 0.344675
90 1 0.745296 0.0889027 0.161798
92 1 0.654821 0.0810391 0.254868
117 1 0.821757 0.181646 0.176912
96 1 0.83094 0.0910616 0.262112
76 1 0.995071 0.0836045 0.246879
119 1 0.915031 0.159564 0.253703
166 1 0.921732 0.0813061 0.33566
123 1 0.0824528 0.324321 0.2488
170 1 0.0853225 0.240349 0.318225
104 1 0.173326 0.245914 0.247536
127 1 0.237451 0.330876 0.253111
174 1 0.244699 0.2383 0.325071
106 1 0.416442 0.252714 0.161817
108 1 0.324958 0.245199 0.235327
112 1 0.484463 0.255412 0.246428
178 1 0.405073 0.251246 0.330853
209 1 0.659871 0.321135 0.339566
135 1 0.591576 0.332217 0.255439
113 1 0.658733 0.166356 0.177475
115 1 0.745476 0.166299 0.256744
116 1 0.666804 0.243296 0.252587
114 1 0.740886 0.266528 0.163184
186 1 0.755441 0.255028 0.330717
213 1 0.829046 0.335143 0.329893
100 1 0.983023 0.245657 0.257355
120 1 0.827746 0.251929 0.252322
143 1 0.930494 0.337392 0.25464
190 1 0.90906 0.252375 0.329669
19 1 0.749333 -0.0046546 0.0850122
188 1 0.679114 0.254885 0.408187
122 1 0.0893332 0.413973 0.158641
128 1 0.140675 0.419952 0.255819
124 1 0.00993418 0.416211 0.24846
182 1 0.577091 0.250673 0.321108
183 1 0.582354 0.167778 0.415624
207 1 0.581918 0.333967 0.412105
208 1 0.490838 0.417065 0.416797
198 1 0.234823 0.408153 0.322185
129 1 0.332978 0.343997 0.180754
201 1 0.320181 0.333683 0.318285
131 1 0.418809 0.336106 0.248946
205 1 0.494117 0.337716 0.326953
132 1 0.341028 0.419522 0.254742
202 1 0.417697 0.420533 0.336308
133 1 0.495329 0.341355 0.169914
136 1 0.493222 0.422215 0.252441
206 1 0.586056 0.409547 0.326106
511 1 0.249973 0.490748 0.259337
200 1 0.157016 0.412647 0.400761
210 1 0.736584 0.42927 0.336302
139 1 0.732686 0.33459 0.256092
140 1 0.669023 0.427969 0.24891
142 1 0.925872 0.406337 0.16536
144 1 0.828818 0.427188 0.254058
173 1 0.166071 0.163162 0.326776
169 1 -0.00281052 0.16072 0.33536
152 1 0.161608 0.0833158 0.424782
171 1 0.0932684 0.158272 0.410366
211 1 0.750468 0.336542 0.4012
150 1 0.237598 0.0834681 0.338289
156 1 0.327782 0.0827355 0.406312
177 1 0.326242 0.168582 0.334366
181 1 0.496239 0.168017 0.318491
187 1 0.744872 0.170429 0.409229
160 1 0.457992 0.0826343 0.413359
179 1 0.418552 0.184383 0.407691
229 1 0.474118 0.00185183 0.494893
185 1 0.668604 0.164934 0.331433
194 1 0.0707389 0.404998 0.335082
184 1 0.500799 0.248105 0.41495
162 1 0.743409 0.0861035 0.330444
196 1 0.00354095 0.415079 0.428921
189 1 0.829912 0.171364 0.331302
164 1 0.663587 0.0920664 0.423962
191 1 0.915672 0.164222 0.400816
168 1 0.838313 0.0878673 0.417856
148 1 0.0103649 0.0727048 0.419555
204 1 0.327462 0.416077 0.412063
197 1 0.159802 0.329311 0.322822
172 1 0.00871805 0.248527 0.426039
176 1 0.1696 0.244567 0.417832
195 1 0.102308 0.324658 0.413856
193 1 0.998437 0.323984 0.345462
175 1 0.244673 0.166268 0.42276
199 1 0.23343 0.32752 0.410896
180 1 0.324082 0.262657 0.3935
192 1 0.836886 0.25508 0.416105
505 1 0.0128325 0.491538 0.160946
585 1 0.332389 0.502372 0.335984
203 1 0.40667 0.337057 0.409474
159 1 0.554102 0.00415638 0.415115
7 1 0.251361 0.00532501 0.0725404
253 1 0.486841 0.167083 0.496494
45 1 0.832714 0.193394 0.0130474
519 1 0.577414 0.506224 0.250202
439 1 0.251278 0.506052 0.0847489
274 1 0.417325 0.420373 0.500266
451 1 0.755297 0.498335 0.0817926
509 1 0.171925 0.492049 0.166293
161 1 0.653029 0.0142367 0.3406
249 1 0.336206 0.183494 0.492253
595 1 0.753277 0.498433 0.411957
83 1 0.392921 0.0065758 0.251857
73 1 0.00988825 0.00143292 0.16429
30 1 0.25312 0.247136 -0.0129705
241 1 0.00511763 0.164226 0.490928
14 1 0.574805 0.08784 0.00116081
238 1 0.918959 0.0930221 0.493407
23 1 0.909896 0.00167134 0.0890426
521 1 0.658033 0.492897 0.157154
599 1 0.926845 0.491371 0.415828
581 1 0.164022 0.496668 0.331874
11 1 0.411897 -0.013762 0.084994
527 1 0.910816 0.496412 0.228593
77 1 0.17514 0.0133654 0.162277
453 1 0.829627 0.512161 -0.00537456
13 1 0.512062 -0.0010879 0.000816372
653 1 0.164294 0.492999 0.482895
282 1 0.73921 0.404075 0.490759
445 1 0.494712 0.505125 0.00683752
273 1 0.339555 0.332408 0.490634
270 1 0.230741 0.415321 0.479874
1 1 0.992317 0.0148758 0.00240306
258 1 0.761202 0.256573 0.497887
281 1 0.675106 0.331992 0.502986
33 1 0.339895 0.17873 0.0134657
449 1 0.660773 0.495231 0.000656035
34 1 0.420157 0.260573 0.0107897
441 1 0.33092 0.509478 -0.00560972
261 1 0.838398 0.182256 0.491334
57 1 0.323718 0.340504 0.00524921
277 1 0.504701 0.326705 0.493102
58 1 0.426585 0.414558 0.00279308
220 1 -0.00602116 0.0972594 0.578775
243 1 0.0924055 0.152646 0.582812
224 1 0.161458 0.0657023 0.589315
290 1 0.0838193 0.0844763 0.664683
807 1 0.57425 0.488152 0.909823
262 1 0.918412 0.266795 0.487147
227 1 0.398411 -0.00606827 0.583053
69 1 0.831388 0.328336 1.0021
294 1 0.257186 0.0706973 0.66646
228 1 0.319892 0.0686278 0.573844
232 1 0.490867 0.0840427 0.569725
26 1 0.0868521 0.255591 0.979192
302 1 0.586693 0.0959137 0.655092
50 1 0.081955 0.421224 0.992865
303 1 0.58633 0.0160096 0.730851
236 1 0.667907 0.0955628 0.578096
240 1 0.823139 0.0934438 0.572027
263 1 0.907646 0.166267 0.577089
309 1 0.831207 -0.00665581 0.64695
313 1 0.999397 0.168449 0.662671
667 1 0.745454 0.483896 0.581604
66 1 0.755492 0.418439 1.00797
70 1 0.915736 0.434411 1.00311
65 1 0.654208 0.344103 1.00875
226 1 0.404795 0.100077 0.509924
314 1 0.0899687 0.247361 0.663942
244 1 0.00230885 0.236299 0.57755
246 1 0.251027 0.251157 0.489879
222 1 0.251417 0.0829119 0.48228
247 1 0.244154 0.157281 0.590426
248 1 0.170533 0.238448 0.586433
252 1 0.329606 0.252685 0.587011
318 1 0.243938 0.24276 0.679291
271 1 0.25667 0.327992 0.578086
317 1 0.173155 0.155236 0.66541
251 1 0.417897 0.186664 0.572478
256 1 0.506073 0.249821 0.579667
349 1 0.519388 0.324873 0.672636
325 1 0.512494 0.170603 0.658863
255 1 0.571033 0.175581 0.572659
326 1 0.595452 0.238409 0.671608
260 1 0.67796 0.243353 0.585322
329 1 0.686062 0.165034 0.652954
259 1 0.755854 0.175808 0.569188
264 1 0.832132 0.255474 0.5785
22 1 0.898989 0.078891 1.0096
267 1 0.0906913 0.329823 0.593417
268 1 0.997599 0.412348 0.581449
338 1 0.0720701 0.404754 0.66415
49 1 0.00432217 0.333906 0.985231
272 1 0.157621 0.417929 0.591572
659 1 0.425027 0.492835 0.592821
276 1 0.33018 0.403567 0.570342
341 1 0.166033 0.329474 0.660097
275 1 0.420673 0.321835 0.568957
280 1 0.506451 0.402195 0.596463
346 1 0.412084 0.399441 0.652476
345 1 0.318284 0.330259 0.672425
353 1 0.664755 0.323014 0.662675
279 1 0.581685 0.324011 0.575487
284 1 0.656753 0.409215 0.590295
432 1 0.831573 0.416949 0.929643
419 1 0.422323 0.33166 0.927979
424 1 0.496107 0.399698 0.900289
661 1 0.500515 0.488308 0.502156
283 1 0.75001 0.331235 0.583096
357 1 0.838605 0.337115 0.671448
288 1 0.837674 0.405987 0.588605
287 1 0.924688 0.332832 0.580538
420 1 0.341763 0.420099 0.929815
725 1 0.169978 0.498404 0.655739
416 1 0.163278 0.427044 0.925418
292 1 -0.00507372 0.0882647 0.732837
809 1 0.665345 0.49504 0.835146
296 1 0.184963 0.0764431 0.745944
366 1 0.253993 0.0787567 0.841456
319 1 0.252674 0.154693 0.752743
412 1 -0.00278742 0.424198 0.922044
5 1 0.167174 0.00851257 1.00217
300 1 0.335891 0.0896674 0.753602
298 1 0.415255 0.0735461 0.673824
304 1 0.496892 0.088775 0.741368
393 1 0.329551 0.171221 0.828796
373 1 0.502796 -0.00348394 0.827841
308 1 0.666553 0.0952308 0.756693
327 1 0.583589 0.155562 0.759966
10 1 0.425685 0.103957 1.0095
306 1 0.755544 0.0734878 0.668227
312 1 0.838371 0.0693247 0.749341
331 1 0.763716 0.168873 0.75998
333 1 0.82974 0.154828 0.666208
307 1 0.763406 -0.00166607 0.742307
431 1 0.92094 0.346287 0.910303
310 1 0.908999 0.0809002 0.673703
335 1 0.924842 0.160473 0.749141
315 1 0.0852942 0.162372 0.7392
389 1 0.166802 0.15939 0.837171
337 1 0.980737 0.343157 0.6704
409 1 0.0185456 0.32815 0.831928
386 1 0.0882116 0.242629 0.828737
321 1 0.343146 0.170399 0.664221
320 1 0.176254 0.25474 0.763241
413 1 0.163933 0.341103 0.82015
390 1 0.263661 0.269921 0.830181
323 1 0.412263 0.171403 0.75713
324 1 0.327398 0.250301 0.746223
322 1 0.420183 0.245076 0.669307
347 1 0.412047 0.333753 0.757717
328 1 0.504188 0.237043 0.742522
398 1 0.573676 0.24087 0.827106
351 1 0.595567 0.307543 0.752536
425 1 0.671621 0.322705 0.821973
332 1 0.677652 0.230919 0.75996
330 1 0.758593 0.257205 0.663351
355 1 0.762159 0.336241 0.750296
336 1 0.845246 0.241695 0.750692
316 1 0.00157559 0.250878 0.741147
334 1 0.910319 0.241423 0.655871
359 1 0.915776 0.332569 0.769751
339 1 0.0855853 0.332758 0.748099
410 1 0.0831501 0.431974 0.836166
340 1 0.0134392 0.409629 0.754412
342 1 0.259515 0.418907 0.646654
343 1 0.245255 0.338341 0.75655
344 1 0.161889 0.40899 0.732552
348 1 0.33235 0.417754 0.741163
414 1 0.240154 0.43086 0.829237
417 1 0.331304 0.350462 0.826934
418 1 0.410347 0.426291 0.829376
352 1 0.481749 0.427752 0.740684
422 1 0.57891 0.406114 0.822888
350 1 0.585598 0.408108 0.668859
356 1 0.668637 0.409085 0.748394
421 1 0.501575 0.322554 0.82577
427 1 0.744803 0.339491 0.920759
741 1 0.825375 0.494597 0.667238
354 1 0.730016 0.407171 0.666586
429 1 0.831034 0.35095 0.83781
301 1 0.502635 0.010586 0.660898
358 1 0.919711 0.41954 0.678614
430 1 0.923582 0.427891 0.830723
360 1 0.83814 0.417315 0.767932
735 1 0.581791 0.489162 0.747292
257 1 0.676611 0.180713 0.490188
362 1 0.100459 0.08343 0.821774
368 1 0.180966 0.0762303 0.922905
278 1 0.574395 0.407958 0.491583
426 1 0.745411 0.417195 0.832825
218 1 0.0965549 0.070636 0.511889
367 1 0.253206 -0.0101164 0.913499
372 1 0.336596 0.0728334 0.919749
361 1 0.0129005 0.0228061 0.837087
46 1 0.938309 0.257509 0.986874
370 1 0.401992 0.0968159 0.830227
297 1 0.333794 -0.0106014 0.681814
376 1 0.495326 0.0870527 0.924961
395 1 0.408026 0.166919 0.925415
239 1 0.904329 0.0119096 0.572949
397 1 0.487982 0.157355 0.837232
374 1 0.583661 0.0706793 0.837332
380 1 0.67472 0.0714804 0.906481
399 1 0.576417 0.165015 0.916002
299 1 0.421427 0.00426963 0.759343
406 1 0.9288 0.238434 0.830173
378 1 0.755565 0.0707049 0.827809
384 1 0.826187 0.0822083 0.923243
403 1 0.748351 0.152051 0.89625
364 1 0.994149 0.0877247 0.917585
382 1 0.915793 0.0764366 0.836854
407 1 0.9149 0.156578 0.926574
387 1 0.0959355 0.165321 0.918623
411 1 0.090118 0.34518 0.912622
392 1 0.16603 0.257838 0.894008
391 1 0.2464 0.175407 0.901323
415 1 0.267498 0.340047 0.914938
394 1 0.406315 0.247854 0.830529
396 1 0.344785 0.257599 0.930233
219 1 0.0594569 -0.00277287 0.588663
423 1 0.592423 0.32913 0.905365
400 1 0.499899 0.252528 0.906524
401 1 0.662866 0.157618 0.836909
404 1 0.673423 0.236158 0.910905
428 1 0.662813 0.418865 0.92215
405 1 0.844035 0.153786 0.833364
402 1 0.774153 0.250903 0.832922
408 1 0.845645 0.263551 0.894611
385 1 0.0149985 0.15964 0.831117
388 1 1.00706 0.241027 0.907304
25 1 1.00332 0.164513 0.999076
803 1 0.426837 0.499155 0.92081
2 1 0.0922681 0.0915396 0.995888
663 1 0.585146 0.489914 0.586607
369 1 0.335157 0.0085194 0.826526
363 1 0.0743402 0.00930679 0.916066
286 1 0.913226 0.421614 0.503786
291 1 0.0828187 0.00132846 0.74761
737 1 0.670423 0.502208 0.667698
269 1 0.168593 0.318791 0.518389
62 1 0.580899 0.414848 0.983617
245 1 0.181239 0.161855 0.511841
237 1 0.830102 0.0116556 0.500863
18 1 0.737508 0.0911643 0.99903
285 1 0.834671 0.333155 0.492144
242 1 0.0927327 0.24012 0.504661
53 1 0.148029 0.339456 1.00358
41 1 0.6626 0.163427 0.984442
38 1 0.58537 0.252663 0.987202
42 1 0.746918 0.256919 0.983412
29 1 0.175584 0.176446 0.99344
6 1 0.256812 0.0748801 0.996564
54 1 0.247497 0.418859 0.99913
440 1 0.182344 0.576472 0.0753084
459 1 0.0856512 0.671551 0.0832708
153 1 0.325209 0.99781 0.34121
462 1 0.240542 0.756197 0.00773169
481 1 -0.00290342 0.818834 0.0159042
233 1 0.651556 0.990958 0.494785
489 1 0.35467 0.834442 -0.00808416
537 1 0.337467 0.655501 0.163894
657 1 0.327637 0.499885 0.49165
466 1 0.439147 0.752324 0.00553804
444 1 0.328559 0.579965 0.0880044
482 1 0.0754526 0.925982 0.00813752
448 1 0.492434 0.579968 0.0916235
628 1 0.991594 0.91973 0.414164
589 1 0.498071 0.490692 0.333195
658 1 0.410905 0.584668 0.508418
452 1 0.647579 0.580623 0.0803706
456 1 0.832629 0.586119 0.0791104
75 1 0.0832937 0.991723 0.24299
15 1 0.579088 0.992912 0.0913311
436 1 0.0239645 0.579827 0.0934786
479 1 0.92941 0.663268 0.087702
709 1 0.499384 0.832137 0.503212
464 1 0.16879 0.752329 0.0866315
483 1 0.0856156 0.837214 0.100635
85 1 0.493048 1.00055 0.16773
530 1 0.0922147 0.742807 0.171657
533 1 0.183359 0.658832 0.16168
553 1 1.01708 0.817889 0.17589
463 1 0.253282 0.669523 0.0818088
487 1 0.261232 0.835553 0.0672355
649 1 0.999387 0.500444 0.509927
468 1 0.340833 0.744604 0.0920814
467 1 0.429796 0.665575 0.0771612
538 1 0.429973 0.736911 0.171911
471 1 0.578941 0.67249 0.0758812
472 1 0.508701 0.748695 0.0897191
476 1 0.656175 0.746673 0.0887045
475 1 0.752978 0.659699 0.0702477
546 1 0.757851 0.729568 0.168658
155 1 0.413869 0.992659 0.412501
460 1 0.00888655 0.748424 0.0899014
480 1 0.818523 0.753852 0.0942108
503 1 0.926458 0.835492 0.0989222
529 1 0.00209069 0.666573 0.165454
523 1 0.751995 0.497047 0.254735
484 1 1.00093 0.906726 0.0917759
554 1 0.084253 0.915725 0.174718
147 1 0.101061 0.997392 0.42019
507 1 0.0862102 0.507206 0.243122
488 1 0.177173 0.914564 0.0664033
693 1 0.826418 0.662086 0.501306
517 1 0.499659 0.501022 0.168197
491 1 0.418196 0.832673 0.0961456
492 1 0.333438 0.91798 0.0729922
496 1 0.494601 0.915058 0.0918473
495 1 0.576011 0.846252 0.0881155
597 1 0.838199 0.493413 0.337438
499 1 0.754352 0.841783 0.0977556
9 1 0.343356 0.997143 -0.00532669
500 1 0.665922 0.913495 0.10263
504 1 0.846657 0.91593 0.0915173
513 1 0.320309 0.499237 0.184754
573 1 0.852002 0.834065 0.164343
673 1 0.000266749 0.672596 0.501184
494 1 0.586194 0.915103 0.00498153
506 1 0.105851 0.58208 0.163727
508 1 -0.00829149 0.582167 0.245506
512 1 0.166309 0.576817 0.268574
454 1 0.923139 0.583286 0.0103039
510 1 0.242978 0.571551 0.172052
535 1 0.244485 0.655798 0.250767
645 1 0.833327 0.819779 0.332129
514 1 0.413874 0.582364 0.175468
516 1 0.334135 0.591754 0.2545
586 1 0.430588 0.578393 0.326368
640 1 0.48094 0.908193 0.41527
648 1 0.850704 0.923453 0.422082
646 1 0.909889 0.915311 0.326175
518 1 0.576055 0.588343 0.160316
520 1 0.512627 0.586463 0.252279
613 1 0.510817 0.663995 0.336907
522 1 0.742361 0.58462 0.157234
644 1 0.686845 0.923362 0.40879
524 1 0.660215 0.569404 0.244932
594 1 0.751728 0.575783 0.334532
528 1 0.831213 0.572963 0.249218
526 1 0.915419 0.586298 0.166322
551 1 0.915749 0.662329 0.241431
549 1 0.844848 0.666536 0.165338
636 1 0.317525 0.913234 0.403432
531 1 0.075246 0.666219 0.257435
555 1 0.0869642 0.824037 0.247148
557 1 0.173157 0.844836 0.163237
602 1 0.0819689 0.742238 0.33896
536 1 0.171796 0.744655 0.242534
534 1 0.264181 0.754987 0.162164
559 1 0.258767 0.838938 0.235797
565 1 0.49401 0.823807 0.174463
540 1 0.337873 0.738099 0.247975
539 1 0.418951 0.655241 0.258758
544 1 0.500361 0.744422 0.251761
563 1 0.419043 0.829853 0.247081
609 1 0.344459 0.652966 0.341421
542 1 0.58151 0.753747 0.174645
541 1 0.493307 0.661062 0.176588
543 1 0.588886 0.662224 0.256797
567 1 0.578754 0.829726 0.248284
545 1 0.663557 0.667636 0.181298
547 1 0.753891 0.650518 0.249648
548 1 0.664382 0.746578 0.260972
552 1 0.823823 0.751868 0.247946
569 1 0.678299 0.842611 0.185075
532 1 0.994489 0.749586 0.25725
550 1 0.919355 0.75209 0.172434
622 1 0.917756 0.746237 0.35438
438 1 0.253826 0.587962 -0.0100167
560 1 0.179562 0.92495 0.240341
647 1 0.906475 0.833489 0.418071
558 1 0.257178 0.920318 0.145125
434 1 0.0887775 0.585904 -0.00510897
626 1 0.0861392 0.918198 0.327205
561 1 0.341753 0.837229 0.168527
562 1 0.401127 0.924149 0.168909
685 1 0.500897 0.663884 0.496182
564 1 0.321184 0.930899 0.235834
566 1 0.573428 0.908251 0.173014
568 1 0.487199 0.91101 0.246542
638 1 0.596102 0.920894 0.3409
642 1 0.780976 0.913049 0.341926
572 1 0.670185 0.929998 0.258354
571 1 0.770704 0.839467 0.24581
570 1 0.753839 0.93573 0.171463
574 1 0.926437 0.929257 0.166613
556 1 -0.00396073 0.927457 0.243493
575 1 0.925291 0.826962 0.25745
576 1 0.839397 0.924928 0.243121
643 1 0.75198 0.829511 0.407763
634 1 0.397244 0.905603 0.318071
578 1 0.0841554 0.574224 0.331159
584 1 0.157389 0.582516 0.40966
87 1 0.581336 0.981553 0.24824
582 1 0.253912 0.574757 0.338017
714 1 0.74502 0.909047 0.49772
588 1 0.335897 0.588304 0.421353
611 1 0.423939 0.650738 0.425145
635 1 0.404844 0.827573 0.418243
145 1 1.01007 0.997909 0.330299
627 1 0.0798576 0.831688 0.422401
591 1 0.585194 0.500962 0.427887
590 1 0.591968 0.582883 0.332435
592 1 0.504256 0.567666 0.433155
615 1 0.581696 0.646653 0.420902
621 1 0.836579 0.662643 0.331412
596 1 0.667707 0.575543 0.422157
619 1 0.751316 0.666238 0.411353
598 1 0.930581 0.571938 0.326277
580 1 1.00745 0.580852 0.423473
623 1 0.920075 0.673951 0.425036
600 1 0.8497 0.589033 0.415273
605 1 0.16654 0.672337 0.331422
604 1 0.00377793 0.756196 0.422678
603 1 0.0815122 0.664822 0.420132
608 1 0.173897 0.752026 0.419947
629 1 0.174778 0.84209 0.324867
633 1 0.332105 0.827837 0.330717
607 1 0.249863 0.667804 0.416029
606 1 0.261466 0.749927 0.336063
612 1 0.330828 0.739263 0.41146
610 1 0.409395 0.739532 0.333115
637 1 0.493856 0.845889 0.337986
625 1 0.987158 0.834508 0.350015
639 1 0.598437 0.837925 0.429661
614 1 0.593301 0.75623 0.338725
89 1 0.666935 1.00807 0.174883
616 1 0.489775 0.750068 0.411694
631 1 0.260297 0.810465 0.427212
617 1 0.664747 0.653312 0.343609
641 1 0.685421 0.842351 0.331327
618 1 0.746543 0.748868 0.338702
620 1 0.653054 0.736288 0.424455
630 1 0.25239 0.906306 0.32461
151 1 0.237197 0.999588 0.412027
601 1 0.972345 0.664817 0.336688
624 1 0.832693 0.75339 0.421478
632 1 0.184089 0.907775 0.412358
486 1 0.249553 0.924051 -0.00276871
21 1 0.833378 0.990734 0.013134
447 1 0.578235 0.498249 0.0795121
149 1 0.168075 0.984289 0.32241
473 1 0.661361 0.66554 0.00897561
713 1 0.674087 0.81933 0.502817
443 1 0.410512 0.501316 0.0887175
17 1 0.671407 1.006 0.00795682
583 1 0.245867 0.503072 0.417918
95 1 0.908437 1.00511 0.255575
654 1 0.240678 0.574698 0.504037
457 1 1.00636 0.665336 0.00971704
485 1 0.16631 0.842703 -0.00231409
474 1 0.745687 0.75541 0.0119518
91 1 0.749194 0.9977 0.267291
501 1 0.834957 0.834981 0.0207803
498 1 0.753937 0.910685 0.0156169
690 1 0.749933 0.750779 0.492113
437 1 0.182306 0.507216 -0.00770469
698 1 0.0693454 0.926695 0.493899
666 1 0.748178 0.570206 0.492099
433 1 0.991167 0.498622 0.0114697
478 1 0.913793 0.746262 0.0112712
465 1 0.328423 0.669194 0.00269164
682 1 0.407294 0.741577 0.496042
689 1 0.675066 0.66488 0.495729
461 1 0.177688 0.671105 0.00510911
710 1 0.561381 0.930717 0.490343
225 1 0.32311 0.99774 0.480639
502 1 0.93068 0.910347 0.0183897
450 1 0.733657 0.584862 0.00156452
497 1 0.665699 0.835639 0.0251444
371 1 0.428528 1.00312 0.921269
293 1 0.158084 0.999402 0.670827
815 1 0.919847 0.510196 0.925528
651 1 0.0773519 0.511719 0.581636
656 1 0.158762 0.574999 0.584934
660 1 0.332648 0.588964 0.5797
679 1 0.253868 0.672549 0.591277
863 1 0.927933 0.845799 0.924919
795 1 0.0925079 0.509699 0.918939
670 1 0.912914 0.57882 0.50405
664 1 0.497219 0.575935 0.57134
730 1 0.41447 0.582741 0.670586
701 1 0.157251 0.854128 0.498227
231 1 0.588312 0.998034 0.571524
687 1 0.573512 0.670082 0.583718
734 1 0.594018 0.580085 0.668471
793 1 0.00366894 0.516493 0.825424
668 1 0.678112 0.575831 0.57684
691 1 0.743603 0.662581 0.573613
674 1 0.0818983 0.755185 0.508736
844 1 -0.00951878 0.934557 0.927449
743 1 0.910365 0.498525 0.752578
365 1 0.16804 0.995532 0.828842
799 1 0.261481 0.503368 0.916038
652 1 -0.00693724 0.587922 0.588429
672 1 0.824456 0.576413 0.578954
742 1 0.905761 0.573154 0.677119
765 1 0.842541 0.659725 0.660314
811 1 0.750377 0.502143 0.924597
702 1 0.254353 0.922763 0.489958
675 1 0.0762481 0.660154 0.584541
680 1 0.171621 0.762056 0.590422
375 1 0.594127 1.00797 0.922624
684 1 0.3432 0.756488 0.591783
753 1 0.335112 0.658737 0.667313
777 1 0.344184 0.836238 0.672691
381 1 0.834209 0.988289 0.836923
683 1 0.418223 0.663178 0.599436
754 1 0.421946 0.749928 0.665352
688 1 0.488851 0.742627 0.574874
692 1 0.655298 0.745941 0.572273
781 1 0.49032 0.840261 0.657988
761 1 0.663421 0.659612 0.672153
758 1 0.568954 0.756524 0.662443
696 1 0.828728 0.740928 0.57846
762 1 0.726544 0.755883 0.663515
695 1 0.922161 0.667751 0.577293
676 1 -0.0139173 0.764642 0.587733
766 1 0.908913 0.741765 0.676838
745 1 0.999129 0.683195 0.664023
699 1 0.0880313 0.851777 0.585862
700 1 0.992731 0.924825 0.577989
671 1 0.919401 0.506949 0.596281
469 1 0.504255 0.662477 1.00023
705 1 0.334824 0.826088 0.498533
704 1 0.169828 0.917044 0.592572
703 1 0.238019 0.835458 0.576647
774 1 0.253799 0.90892 0.671933
721 1 1.00843 0.509627 0.664361
669 1 0.832384 0.501632 0.501464
493 1 0.498488 0.842388 0.990515
708 1 0.335628 0.906756 0.586934
707 1 0.411628 0.828536 0.576687
778 1 0.41002 0.927082 0.659857
711 1 0.557182 0.836579 0.583128
712 1 0.497331 0.927038 0.584504
716 1 0.649463 0.899165 0.556136
805 1 0.492929 0.494199 0.827441
801 1 0.332203 0.504709 0.832026
731 1 0.411108 0.506871 0.75292
715 1 0.754201 0.820195 0.578871
789 1 0.823838 0.807476 0.671242
860 1 0.676811 0.908594 0.909326
838 1 0.926871 0.757245 0.859312
650 1 0.0873195 0.592761 0.498613
720 1 0.836614 0.920521 0.578824
719 1 0.902338 0.826958 0.59214
769 1 0.984063 0.828153 0.675755
729 1 0.337535 0.496003 0.666393
864 1 0.839517 0.901343 0.93656
383 1 0.899433 1.00134 0.915221
722 1 0.0737243 0.595995 0.674502
728 1 0.164779 0.5941 0.728542
724 1 0.993811 0.593571 0.750087
726 1 0.242205 0.583237 0.66498
732 1 0.336095 0.580078 0.75765
798 1 0.249494 0.588543 0.82503
289 1 0.980763 1.00367 0.663478
802 1 0.42659 0.586602 0.832219
757 1 0.506513 0.658482 0.663045
736 1 0.510127 0.609721 0.754987
379 1 0.758162 0.986904 0.920482
759 1 0.594273 0.6679 0.757978
740 1 0.673043 0.585527 0.752519
806 1 0.591274 0.576431 0.830732
305 1 0.669561 1.00054 0.666708
855 1 0.582994 0.841558 0.918844
738 1 0.757642 0.5711 0.655005
810 1 0.746455 0.577063 0.845756
763 1 0.75684 0.679155 0.734921
744 1 0.831501 0.587927 0.752294
814 1 0.9149 0.595217 0.841318
767 1 0.917563 0.670905 0.75075
747 1 0.0741621 0.681704 0.751215
749 1 0.160602 0.663948 0.649584
746 1 0.0795486 0.775416 0.664515
818 1 0.0884793 0.74547 0.836472
773 1 0.164315 0.83196 0.673617
752 1 0.170501 0.744829 0.748081
750 1 0.261305 0.756041 0.675466
751 1 0.26844 0.672081 0.755261
756 1 0.341557 0.763505 0.756413
755 1 0.414231 0.668591 0.754681
826 1 0.427108 0.74923 0.838444
760 1 0.507019 0.750205 0.751424
779 1 0.421167 0.839831 0.754719
785 1 0.645661 0.829144 0.646815
857 1 0.656905 0.836084 0.818195
830 1 0.58058 0.7542 0.842342
783 1 0.574894 0.833123 0.739116
764 1 0.655489 0.755606 0.747496
834 1 0.748768 0.765133 0.845732
787 1 0.748131 0.826062 0.754775
833 1 0.676347 0.680241 0.831984
817 1 0.00725456 0.663555 0.842676
837 1 0.822904 0.669523 0.850115
748 1 0.992728 0.750169 0.767079
768 1 0.830702 0.74119 0.771067
223 1 0.249271 0.989924 0.589352
770 1 0.0633828 0.909841 0.679682
771 1 0.0864038 0.833051 0.75886
776 1 0.16539 0.913069 0.744943
775 1 0.254773 0.828404 0.747612
849 1 0.33542 0.831913 0.839178
842 1 0.0789501 0.923175 0.819864
780 1 0.349745 0.92118 0.758944
784 1 0.502934 0.919616 0.73993
859 1 0.7537 0.827188 0.93503
782 1 0.571833 0.916934 0.660456
854 1 0.594484 0.940869 0.8292
788 1 0.657221 0.916545 0.743028
858 1 0.754002 0.909748 0.825108
836 1 0.66737 0.754505 0.927668
786 1 0.751771 0.897297 0.65675
852 1 0.332974 0.910631 0.925295
841 1 0.0115192 0.845065 0.846601
791 1 0.900401 0.826775 0.768402
792 1 0.844347 0.910843 0.735552
861 1 0.836917 0.832172 0.856476
772 1 0.987656 0.916019 0.753354
862 1 0.92314 0.918567 0.839582
790 1 0.911651 0.91399 0.646045
794 1 0.0903703 0.58897 0.816979
796 1 1.00353 0.574943 0.927957
829 1 0.504596 0.672873 0.853655
851 1 0.426762 0.829529 0.904618
800 1 0.180377 0.584394 0.906163
846 1 0.2706 0.912838 0.828477
678 1 0.26338 0.746997 0.505216
804 1 0.334 0.593648 0.908919
808 1 0.501586 0.583868 0.923752
843 1 0.0923025 0.843034 0.912917
733 1 0.49766 0.501898 0.667133
831 1 0.589839 0.675508 0.928565
850 1 0.429806 0.919687 0.847087
812 1 0.673652 0.576951 0.918126
835 1 0.740467 0.664503 0.921756
856 1 0.517784 0.929212 0.91655
311 1 0.911163 1.00106 0.753734
848 1 0.150927 0.931049 0.931237
832 1 0.508954 0.7539 0.920262
816 1 0.830994 0.593002 0.933404
839 1 0.934504 0.670601 0.934453
820 1 0.0120967 0.753855 0.933124
819 1 0.0911355 0.664791 0.913342
824 1 0.169728 0.740994 0.913888
840 1 0.839115 0.742505 0.933176
821 1 0.175133 0.670132 0.824206
822 1 0.253692 0.752423 0.841428
845 1 0.172525 0.822373 0.823987
825 1 0.348733 0.677483 0.842544
847 1 0.234654 0.82802 0.925785
823 1 0.257294 0.669984 0.918794
853 1 0.509643 0.843914 0.835331
827 1 0.412496 0.673733 0.930627
828 1 0.340483 0.751968 0.920414
235 1 0.716023 0.99078 0.57516
377 1 0.68482 0.989139 0.829078
681 1 0.32989 0.667176 0.497904
295 1 0.250644 0.987897 0.742371
442 1 0.406466 0.595431 1.00021
718 1 0.911623 0.912159 0.505755
706 1 0.408625 0.921604 0.505622
797 1 0.172483 0.510338 0.811346
739 1 0.740715 0.506451 0.750701
655 1 0.254112 0.49396 0.578811
723 1 0.0899654 0.493136 0.729199
813 1 0.825195 0.501446 0.827474
727 1 0.25504 0.503999 0.743803
446 1 0.58702 0.570987 0.990794
717 1 0.823733 0.834704 0.499795
221 1 0.176807 0.998874 0.510261
697 1 1.00151 0.843529 0.506394
458 1 0.107743 0.747836 1.00499
686 1 0.581256 0.734833 0.498835
490 1 0.424135 0.91589 0.988211
662 1 0.585445 0.58556 0.510121
694 1 0.904376 0.749554 0.49888
677 1 0.16009 0.668478 0.502735
477 1 0.840553 0.670177 1.01408
217 1 0.988772 1.00135 0.49993
470 1 0.577022 0.764257 1.00501
