ITEM: TIMESTEP
27500
ITEM: NUMBER OF ATOMS
500
ITEM: BOX BOUNDS pp pp pp
0.0000000000000000e+00 2.6299999999999997e+01
0.0000000000000000e+00 2.6299999999999997e+01
0.0000000000000000e+00 2.6299999999999997e+01
ITEM: ATOMS id type xs ys zs
23 1 0.0909752 0.196766 0.107062
52 1 0.0904348 0.114522 0.203084
75 1 0.196504 0.20002 0.20418
8 1 0.198387 0.0877669 0.0936389
260 1 0.823708 0.495399 0.0962509
71 1 0.987542 0.195647 0.214532
302 1 0.99864 0.489061 0.307047
25 1 0.202153 0.194068 0.00433391
27 1 0.294267 0.2007 0.110214
56 1 0.296428 0.0899272 0.191019
142 1 0.677254 0.192897 0.490548
141 1 0.39657 0.297727 0.481271
304 1 0.194471 0.497357 0.296858
146 1 0.100775 0.387947 0.489752
12 1 0.40662 0.103059 0.113146
79 1 0.386495 0.205577 0.192033
31 1 0.501733 0.219754 0.117631
60 1 0.508447 0.091375 0.201414
83 1 0.592329 0.217163 0.200352
16 1 0.586994 0.0998751 0.113606
35 1 0.697024 0.220082 0.116764
64 1 0.704352 0.11124 0.204828
20 1 0.800768 0.127717 0.0972075
30 1 0.488618 0.304785 0.00399315
11 1 0.487676 0.000439165 0.110071
4 1 0.995856 0.10531 0.102113
9 1 0.405823 0.0151853 0.00461202
87 1 0.793356 0.192737 0.201191
39 1 0.907405 0.213784 0.1082
68 1 0.891468 0.114241 0.187321
131 1 0.405519 0.0811655 0.497783
42 1 0.0983504 0.41194 0.106689
72 1 0.107035 0.296068 0.19586
24 1 0.00309043 0.29962 0.103719
91 1 0.0092786 0.388476 0.216742
22 1 0.116643 0.30322 0.0290874
2 1 0.103275 0.108241 0.00440866
354 1 0.704316 0.499055 0.398292
28 1 0.211151 0.312746 0.119992
93 1 0.188356 0.407841 0.202331
44 1 0.296011 0.414811 0.0958606
76 1 0.316449 0.311692 0.203948
63 1 0.612777 0.000304093 0.196614
32 1 0.382884 0.298216 0.105349
95 1 0.398753 0.408858 0.211106
46 1 0.500397 0.398803 0.100476
80 1 0.486092 0.305756 0.210958
125 1 0.800697 0.383786 0.401173
103 1 0.190912 0.00416628 0.39876
100 1 0.889219 0.397629 0.309414
120 1 0.899675 0.284581 0.411913
36 1 0.602812 0.305644 0.0958503
97 1 0.596202 0.410057 0.20179
48 1 0.707714 0.407208 0.0949806
84 1 0.706227 0.320491 0.202442
40 1 0.807458 0.303856 0.0936277
99 1 0.798546 0.407386 0.201332
122 1 0.220517 0.39733 0.397082
82 1 0.397636 0.314399 0.313356
19 1 0.887305 0.00992622 0.0910927
65 1 0.691677 0.0163335 0.300737
50 1 0.910632 0.388637 0.0953126
88 1 0.897995 0.29931 0.219094
94 1 0.301142 0.408276 0.297626
355 1 0.898101 0.499602 0.406778
96 1 0.508575 0.408575 0.290029
73 1 0.103509 0.208772 0.303807
102 1 0.0927131 0.0942744 0.386111
111 1 0.982837 0.184758 0.404128
113 1 0.180947 0.17606 0.408385
54 1 0.982454 0.0742978 0.293155
98 1 0.708325 0.406954 0.299636
121 1 0.99893 0.404635 0.404933
116 1 0.495121 0.309422 0.387814
124 1 0.606006 0.399891 0.40304
301 1 0.084007 0.49775 0.218415
86 1 0.583734 0.312431 0.298451
58 1 0.194551 0.0952647 0.295525
77 1 0.300898 0.181195 0.293228
104 1 0.295801 0.101483 0.417747
62 1 0.404642 0.100082 0.27135
115 1 0.395956 0.198832 0.393533
67 1 0.810412 0.00441034 0.194745
81 1 0.491093 0.209633 0.28733
106 1 0.478221 0.0985029 0.37709
66 1 0.596744 0.112083 0.297136
118 1 0.702844 0.299392 0.395157
90 1 0.792872 0.295248 0.303562
117 1 0.580974 0.205893 0.401727
85 1 0.688762 0.213022 0.288432
108 1 0.698491 0.114173 0.379275
70 1 0.792887 0.0872367 0.289667
114 1 0.290404 0.277918 0.414267
123 1 0.387631 0.416112 0.389432
119 1 0.80806 0.195447 0.396765
110 1 0.87872 0.093947 0.390937
89 1 0.898621 0.189609 0.304365
92 1 0.101436 0.388186 0.323388
112 1 0.0868811 0.278847 0.409312
74 1 0.994004 0.300197 0.307498
78 1 0.192898 0.28991 0.299695
303 1 0.300129 0.49344 0.190708
255 1 0.508282 0.489624 0.00951768
133 1 0.593514 0.100187 0.49417
308 1 0.607251 0.498444 0.308077
309 1 0.9099 0.486085 0.2016
148 1 0.483668 0.407656 0.4912
307 1 0.687122 0.495564 0.204387
15 1 0.719294 0.00904849 0.0958551
21 1 0.00470858 0.206378 0.0127695
57 1 0.307467 0.0223296 0.307307
143 1 0.6034 0.306909 0.499619
55 1 0.189207 0.00203022 0.19793
10 1 0.511641 0.118163 0.0160096
29 1 0.384089 0.19864 0.00185065
140 1 0.486564 0.187166 0.499551
107 1 0.566371 0.00486011 0.406133
258 1 0.60814 0.499895 0.0929784
252 1 0.997024 0.489212 0.0959847
256 1 0.407166 0.495867 0.102045
101 1 0.98763 0.00205524 0.399884
6 1 0.299155 0.0966809 0.00714986
137 1 0.998143 0.297388 0.498604
14 1 0.692303 0.117462 0.0213016
377 1 0.187501 0.493791 0.485649
379 1 0.606381 0.493444 0.494412
145 1 0.787071 0.291948 0.495145
139 1 0.195352 0.291508 0.499163
45 1 0.398794 0.404679 0.0103397
150 1 0.894832 0.39428 0.495804
152 1 0.111149 0.0905058 0.606495
173 1 0.0999177 0.204077 0.686111
175 1 0.198153 0.192655 0.596291
158 1 0.209031 0.0960666 0.708014
156 1 0.304527 0.078977 0.594336
177 1 0.296419 0.20213 0.686684
162 1 0.389094 0.0832198 0.717295
455 1 0.488077 0.486597 0.793166
201 1 0.0110101 0.00756155 0.801982
18 1 0.90331 0.108011 0.988717
213 1 0.61233 0.0172962 0.789974
179 1 0.398948 0.178428 0.586845
160 1 0.507614 0.0937876 0.610473
181 1 0.488298 0.190387 0.691851
166 1 0.60244 0.109038 0.70633
159 1 0.399999 0.005802 0.609977
406 1 0.383049 0.49658 0.685817
129 1 0.209111 0.0853744 0.50544
183 1 0.579407 0.198266 0.601411
164 1 0.701364 0.129496 0.60232
185 1 0.68988 0.218366 0.703707
187 1 0.804427 0.212381 0.6131
170 1 0.784464 0.11831 0.702567
211 1 0.505956 0.0125616 0.887034
457 1 0.693872 0.488098 0.79971
451 1 0.0968588 0.499477 0.785121
154 1 0.0066544 0.111264 0.708761
171 1 0.997417 0.196692 0.592103
238 1 0.885175 0.310859 0.802998
168 1 0.896473 0.109717 0.622923
189 1 0.903612 0.21606 0.711891
460 1 0.795386 0.480667 0.887826
172 1 0.0914427 0.298876 0.605523
192 1 0.0938229 0.395878 0.693767
178 1 0.198088 0.293747 0.710553
191 1 0.991825 0.392775 0.585202
250 1 0.914061 0.416964 0.897802
174 1 0.00399341 0.302801 0.712125
193 1 0.191026 0.386223 0.613443
176 1 0.288664 0.290439 0.593708
194 1 0.294957 0.391328 0.6994
459 1 0.887317 0.492238 0.806016
241 1 0.997783 0.40808 0.805595
195 1 0.377466 0.381798 0.604516
182 1 0.395579 0.28348 0.709002
180 1 0.491061 0.29468 0.576788
196 1 0.503103 0.388429 0.687334
197 1 0.604197 0.401787 0.601788
41 1 0.00172332 0.414549 0.996721
186 1 0.586717 0.294786 0.690829
184 1 0.690233 0.296241 0.60055
198 1 0.688254 0.387956 0.694645
190 1 0.803961 0.295076 0.705684
199 1 0.793913 0.391396 0.599118
136 1 0.0962742 0.198718 0.509938
161 1 0.507139 0.00363292 0.697991
188 1 0.895907 0.295131 0.588655
200 1 0.906048 0.391145 0.699461
240 1 0.777683 0.307133 0.888642
202 1 0.117657 0.0822997 0.804942
223 1 0.105273 0.207677 0.921954
221 1 0.0261558 0.205706 0.819745
165 1 0.710366 0.014902 0.694095
144 1 0.90202 0.195218 0.500393
225 1 0.188616 0.191425 0.806814
208 1 0.20536 0.0869968 0.90672
206 1 0.294547 0.0811001 0.815207
227 1 0.286232 0.194135 0.900727
229 1 0.393152 0.21338 0.816796
167 1 0.800391 0.014943 0.604466
163 1 0.617269 0.000851513 0.613042
248 1 0.700589 0.40513 0.906078
456 1 0.400804 0.491091 0.908663
212 1 0.395424 0.112361 0.911368
210 1 0.484228 0.109012 0.807858
231 1 0.49489 0.21179 0.891875
230 1 0.488865 0.29548 0.78335
216 1 0.604376 0.113881 0.916267
233 1 0.588062 0.197481 0.800489
214 1 0.697278 0.12411 0.799427
235 1 0.689487 0.213185 0.906061
257 1 0.714876 0.49998 0.997285
237 1 0.796069 0.205134 0.805976
220 1 0.795768 0.104548 0.8836
204 1 0.00955875 0.0998897 0.898745
218 1 0.89679 0.104093 0.787244
239 1 0.913155 0.183887 0.885265
215 1 0.695958 0.0124504 0.906017
245 1 0.394392 0.390944 0.78596
236 1 0.581458 0.314638 0.902806
224 1 0.00730838 0.303906 0.909914
242 1 0.102966 0.403838 0.910953
222 1 0.0986989 0.322905 0.806295
228 1 0.200359 0.305189 0.887193
234 1 0.677466 0.313714 0.800912
226 1 0.293001 0.298908 0.801746
232 1 0.397898 0.311065 0.903623
244 1 0.306896 0.415132 0.8981
243 1 0.206078 0.404814 0.809486
249 1 0.783605 0.408611 0.778835
246 1 0.495765 0.401559 0.896327
247 1 0.591434 0.40622 0.791227
149 1 0.700119 0.386938 0.513087
135 1 0.798471 0.12844 0.521488
127 1 0.98809 0.0910251 0.508418
17 1 0.802282 0.00986421 0.982008
169 1 0.901997 0.0205145 0.703237
217 1 0.805812 0.00471645 0.811834
403 1 0.293164 0.49169 0.58444
407 1 0.699248 0.489495 0.598008
453 1 0.315113 0.496506 0.802151
405 1 0.484297 0.492178 0.602628
408 1 0.590599 0.491763 0.687472
207 1 0.300862 0.00359721 0.917059
134 1 0.90206 0.00505269 0.508376
458 1 0.585575 0.496366 0.892553
130 1 0.513554 0.0108428 0.517572
138 1 0.288573 0.193349 0.510632
37 1 0.809782 0.217576 0.986592
38 1 0.904412 0.311068 0.990872
33 1 0.599691 0.217151 0.995213
43 1 0.215069 0.404467 0.999868
34 1 0.709983 0.303076 0.997003
47 1 0.597463 0.392731 0.999043
147 1 0.297421 0.397067 0.50354
376 1 0.998622 0.497665 0.503873
132 1 0.703875 0.0275346 0.52058
26 1 0.293337 0.318239 0.992845
49 1 0.809083 0.40764 0.993963
126 1 0.0902325 0.0158882 0.502148
380 1 0.791199 0.49375 0.510571
263 1 0.0964181 0.591355 0.093273
312 1 0.103579 0.703448 0.181764
268 1 0.184915 0.676533 0.0843981
395 1 0.496131 0.800073 0.497881
305 1 0.505867 0.503755 0.191195
315 1 0.212413 0.594223 0.21421
267 1 0.307516 0.580951 0.0960725
316 1 0.285355 0.68778 0.184489
352 1 0.30038 0.513215 0.40378
51 1 0.993423 0.995581 0.180854
310 1 0.798863 0.501474 0.304187
61 1 0.49751 0.992923 0.284455
319 1 0.392612 0.589504 0.201409
272 1 0.40075 0.698035 0.112464
271 1 0.51322 0.599589 0.0872688
320 1 0.504282 0.684852 0.182075
276 1 0.605257 0.708612 0.0940628
350 1 0.789089 0.899347 0.304176
254 1 0.190913 0.508582 0.0950303
323 1 0.615125 0.61006 0.194303
275 1 0.702054 0.607552 0.0908137
324 1 0.705869 0.717456 0.209428
327 1 0.797396 0.601475 0.195017
280 1 0.801585 0.696974 0.0919368
59 1 0.380689 0.99862 0.193848
311 1 0.00364 0.59457 0.2005
264 1 0.00291175 0.692881 0.0916823
279 1 0.904737 0.606314 0.0824727
328 1 0.913623 0.703641 0.18041
397 1 0.680363 0.814246 0.492789
289 1 0.414683 0.802718 0.00409895
334 1 0.999706 0.895218 0.312008
283 1 0.105135 0.788465 0.0781064
332 1 0.106255 0.904969 0.207354
288 1 0.194458 0.88585 0.100393
335 1 0.213457 0.793 0.198489
109 1 0.769988 0.987825 0.403645
378 1 0.398156 0.50291 0.496213
287 1 0.301649 0.77817 0.0880921
336 1 0.282854 0.915152 0.190574
292 1 0.387343 0.897945 0.0924431
294 1 0.705126 0.911118 0.0033714
389 1 0.896566 0.603198 0.499769
339 1 0.387699 0.80847 0.187497
291 1 0.501516 0.794226 0.10187
340 1 0.504022 0.891875 0.190478
366 1 0.982129 0.817755 0.410778
343 1 0.596915 0.798246 0.194874
296 1 0.599839 0.899194 0.112026
295 1 0.707415 0.797266 0.104591
344 1 0.705767 0.891835 0.192723
347 1 0.811283 0.812271 0.213447
300 1 0.798397 0.906301 0.0886807
53 1 0.0902551 0.985139 0.304799
338 1 0.200316 0.896048 0.323916
284 1 0.00563 0.893399 0.0991142
331 1 0.00658117 0.814884 0.201
299 1 0.880167 0.802615 0.105109
348 1 0.899377 0.901174 0.210256
105 1 0.395498 0.996242 0.393558
349 1 0.896343 0.816529 0.300469
269 1 0.417629 0.607509 0.00828373
369 1 0.313756 0.886761 0.403712
313 1 0.0879213 0.604374 0.305021
357 1 0.083242 0.713654 0.416377
356 1 0.00171919 0.598167 0.418077
318 1 0.182433 0.699832 0.301694
337 1 0.300938 0.796538 0.306701
69 1 0.894032 0.990514 0.296194
358 1 0.1784 0.60477 0.408372
317 1 0.317301 0.579205 0.297287
359 1 0.29238 0.686156 0.382087
360 1 0.414708 0.61745 0.419357
375 1 0.883269 0.91824 0.409702
373 1 0.672639 0.903798 0.401729
346 1 0.604801 0.90241 0.281225
368 1 0.210631 0.795105 0.413582
353 1 0.515743 0.508337 0.403837
342 1 0.379875 0.903022 0.297407
322 1 0.396716 0.686905 0.282277
321 1 0.524548 0.610415 0.286889
361 1 0.509722 0.696353 0.405717
362 1 0.607075 0.603188 0.397084
326 1 0.613342 0.699045 0.296704
341 1 0.5039 0.792044 0.282515
345 1 0.706641 0.80871 0.302826
325 1 0.698239 0.594144 0.295539
363 1 0.691465 0.706808 0.411432
330 1 0.821336 0.705714 0.281706
364 1 0.824928 0.611425 0.380293
370 1 0.417961 0.792645 0.371294
374 1 0.800906 0.808026 0.391858
372 1 0.585141 0.788945 0.380013
314 1 0.989006 0.690352 0.293587
365 1 0.897768 0.707891 0.409758
329 1 0.905109 0.580026 0.277747
371 1 0.503347 0.895386 0.365258
333 1 0.107235 0.801578 0.301204
367 1 0.0827562 0.900889 0.410852
7 1 0.305505 0.992125 0.0901379
306 1 0.433766 0.517085 0.306281
351 1 0.0948275 0.504294 0.402351
3 1 0.100319 0.992785 0.0952236
298 1 0.915756 0.892121 0.00774377
5 1 0.20909 0.981682 0.00396347
290 1 0.518902 0.903021 0.0141793
390 1 0.795163 0.693103 0.489969
1 1 0.00785112 0.998437 0.0157225
285 1 0.20482 0.791758 0.00136999
383 1 0.304332 0.602394 0.499588
128 1 0.316839 0.990467 0.483524
13 1 0.60184 0.999705 0.0069582
266 1 0.318884 0.683564 0.00432427
274 1 0.705968 0.708329 0.0094227
270 1 0.518764 0.701027 0.00112737
394 1 0.209808 0.905976 0.496963
278 1 0.896751 0.705385 0.00259522
412 1 0.0963785 0.700681 0.598074
413 1 0.101329 0.601862 0.681063
418 1 0.200279 0.693351 0.698422
411 1 0.99388 0.599469 0.590113
286 1 0.304534 0.889721 0.991108
415 1 0.199203 0.584157 0.577877
416 1 0.300732 0.698402 0.609251
417 1 0.294967 0.585567 0.680906
419 1 0.391901 0.61529 0.599049
404 1 0.204368 0.500246 0.710787
219 1 0.912068 0.986663 0.908794
500 1 0.798267 0.906676 0.908204
422 1 0.394299 0.698949 0.706431
420 1 0.481726 0.718262 0.592543
421 1 0.499944 0.617325 0.666498
423 1 0.612714 0.589128 0.595301
484 1 0.020829 0.895179 0.900938
253 1 0.307549 0.501526 0.989709
281 1 0.995597 0.791859 0.986523
426 1 0.603976 0.691279 0.701325
424 1 0.703417 0.706262 0.603623
425 1 0.69769 0.581394 0.704978
427 1 0.77821 0.599055 0.596586
430 1 0.807293 0.691934 0.692949
499 1 0.910456 0.791718 0.892178
277 1 0.803113 0.575975 0.992745
410 1 0.813201 0.500347 0.696017
498 1 0.909156 0.902819 0.789341
414 1 0.998932 0.703518 0.695183
428 1 0.898016 0.694017 0.601932
429 1 0.897182 0.593085 0.701191
396 1 0.41971 0.91601 0.500831
432 1 0.108225 0.884674 0.595787
433 1 0.0971011 0.793034 0.686342
435 1 0.224301 0.801642 0.607083
438 1 0.203107 0.878978 0.699196
209 1 0.403722 0.989912 0.801091
385 1 0.5089 0.590654 0.515883
496 1 0.61535 0.90063 0.914564
251 1 0.115765 0.511911 0.987815
436 1 0.304164 0.908699 0.591807
437 1 0.315015 0.80024 0.722103
203 1 0.117176 0.988421 0.908555
454 1 0.197158 0.506592 0.888624
151 1 0.0205396 0.990697 0.612208
439 1 0.404908 0.817046 0.621337
442 1 0.423763 0.898038 0.711701
440 1 0.507293 0.90399 0.604475
441 1 0.501293 0.790884 0.709259
443 1 0.596403 0.802091 0.604413
446 1 0.602656 0.91246 0.708649
493 1 0.612595 0.814421 0.81677
400 1 0.790137 0.919852 0.503382
273 1 0.593838 0.596015 0.995815
495 1 0.703313 0.806171 0.89673
157 1 0.313979 0.973982 0.704752
444 1 0.674809 0.896252 0.595127
445 1 0.690394 0.820356 0.702311
447 1 0.794552 0.797506 0.59132
399 1 0.89765 0.802273 0.509188
409 1 0.897172 0.50459 0.596545
434 1 0.0195292 0.894954 0.705348
431 1 0.00110856 0.810232 0.600861
450 1 0.787106 0.90512 0.692635
401 1 0.109788 0.500825 0.615504
448 1 0.888574 0.91369 0.609994
449 1 0.891453 0.795031 0.699069
282 1 0.104217 0.899645 0.999407
462 1 0.0938113 0.705584 0.786941
463 1 0.108802 0.599792 0.887265
465 1 0.187241 0.602986 0.786349
468 1 0.214705 0.694663 0.900839
464 1 0.00328225 0.691704 0.896998
153 1 0.121537 0.987209 0.706221
497 1 0.808542 0.80451 0.798898
466 1 0.30143 0.681128 0.788592
467 1 0.305595 0.594527 0.881477
472 1 0.422978 0.704022 0.91817
469 1 0.416433 0.600052 0.784664
492 1 0.42083 0.901631 0.917173
494 1 0.717566 0.920284 0.803941
470 1 0.518471 0.690674 0.806505
471 1 0.498865 0.592724 0.890167
473 1 0.593256 0.58748 0.801745
490 1 0.50575 0.90324 0.807194
476 1 0.616582 0.704983 0.913563
474 1 0.712926 0.722773 0.789111
475 1 0.685655 0.591053 0.899891
480 1 0.799947 0.697264 0.901662
489 1 0.413416 0.769258 0.813005
491 1 0.517066 0.804503 0.906027
461 1 0.00233138 0.601083 0.78944
477 1 0.784351 0.585984 0.810397
478 1 0.899645 0.691972 0.802164
479 1 0.891642 0.589326 0.891082
481 1 0.00126383 0.793967 0.79753
488 1 0.198171 0.902553 0.886548
482 1 0.113635 0.867225 0.79818
483 1 0.11542 0.783557 0.898671
265 1 0.215952 0.597928 0.99241
384 1 0.194735 0.701111 0.509391
485 1 0.211594 0.783668 0.804599
486 1 0.301729 0.891518 0.812857
487 1 0.310202 0.777994 0.897613
205 1 0.206556 0.983042 0.794773
392 1 0.993185 0.898559 0.511159
262 1 0.0940463 0.692276 0.99397
402 1 0.986213 0.500671 0.69993
155 1 0.192638 0.982288 0.595392
452 1 0.0143603 0.506317 0.896863
393 1 0.316198 0.811545 0.509786
261 1 0.00895905 0.589893 0.993151
391 1 0.112388 0.792005 0.505328
388 1 0.603868 0.708489 0.508193
259 1 0.912871 0.503088 0.990678
382 1 0.992318 0.710514 0.515611
381 1 0.0916415 0.597773 0.515116
297 1 0.815935 0.808108 0.989748
386 1 0.395277 0.704602 0.507029
398 1 0.588079 0.917767 0.501985
293 1 0.610256 0.802182 0.998161
387 1 0.695961 0.583993 0.504043
