ITEM: TIMESTEP
21000
ITEM: NUMBER OF ATOMS
864
ITEM: BOX BOUNDS pp pp pp
0.0000000000000000e+00 3.1559999999999999e+01
0.0000000000000000e+00 3.1559999999999999e+01
0.0000000000000000e+00 3.1559999999999999e+01
ITEM: ATOMS id type xs ys zs
8 1 0.157968 0.0977032 0.0912392
4 1 0.00542227 0.090226 0.0817394
3 1 0.0905853 0.00881882 0.0784703
73 1 0.00328894 0.000951165 0.166026
77 1 0.158489 0.0141 0.16546
12 1 0.320066 0.085175 0.0825289
7 1 0.225516 0.0201474 0.0812003
78 1 0.243609 0.0819555 0.164196
16 1 0.49228 0.0900176 0.0814043
82 1 0.414383 0.0770283 0.160633
10 1 0.395469 0.0903495 0.0088668
105 1 0.342912 0.164772 0.166418
85 1 0.489525 0.011232 0.159696
11 1 0.426078 0.00397411 0.0789713
39 1 0.580123 0.156937 0.0733795
19 1 0.744336 0.00221638 0.085092
20 1 0.678164 0.0879297 0.0698826
24 1 0.834291 0.10298 0.0809168
47 1 0.919374 0.164286 0.0767476
93 1 0.845115 0.0142463 0.1604
94 1 0.937152 0.0967265 0.164166
23 1 0.930576 0.0186826 0.081186
27 1 0.0798538 0.175811 0.0964548
32 1 0.158352 0.26215 0.0956749
26 1 0.0894703 0.26101 0.00833656
31 1 0.253703 0.168465 0.077886
102 1 0.267874 0.243646 0.159419
55 1 0.258284 0.329077 0.0834942
29 1 0.170699 0.167595 0.00278726
30 1 0.241579 0.247373 0.00677078
36 1 0.335854 0.23785 0.0672657
35 1 0.417843 0.167083 0.0830943
59 1 0.411971 0.32973 0.0762429
129 1 0.339721 0.325147 0.153851
106 1 0.40975 0.246484 0.160019
133 1 0.498786 0.321873 0.161716
61 1 0.498287 0.328751 0.000533414
38 1 0.592199 0.253911 0.00907363
40 1 0.51441 0.252248 0.0805352
44 1 0.665334 0.251835 0.0790165
110 1 0.580695 0.246091 0.154391
43 1 0.739354 0.176909 0.0739419
67 1 0.747771 0.330943 0.0825734
141 1 0.831364 0.32768 0.160539
137 1 0.674939 0.329221 0.157429
69 1 0.832413 0.33144 0.00757097
28 1 0.996987 0.251043 0.0910155
48 1 0.835234 0.241851 0.0750688
71 1 0.919412 0.325788 0.0761652
118 1 0.909416 0.246254 0.159273
51 1 0.0663363 0.340054 0.0803269
50 1 0.0819618 0.403216 0.000977484
56 1 0.158559 0.41633 0.0873297
437 1 0.149268 0.487101 0.00168538
435 1 0.0819145 0.497412 0.104013
433 1 0.0137832 0.496418 0.0144237
439 1 0.234956 0.495506 0.0998677
54 1 0.252231 0.429821 0.00901096
53 1 0.174881 0.335316 0.0067765
57 1 0.331658 0.334214 0.00783481
60 1 0.338022 0.413367 0.0852978
130 1 0.422604 0.411595 0.158744
58 1 0.413974 0.41469 0.00677053
443 1 0.412167 0.492653 0.0888636
63 1 0.582977 0.339423 0.0975861
64 1 0.502081 0.409535 0.0828581
62 1 0.581908 0.401321 0.00568131
68 1 0.668225 0.416556 0.0626668
138 1 0.756828 0.413131 0.151681
72 1 0.844541 0.407945 0.0871652
52 1 0.990864 0.412968 0.0818294
142 1 0.916735 0.400942 0.164002
70 1 0.905211 0.415568 0.00239171
74 1 0.0806941 0.088822 0.190061
146 1 0.0763528 0.0860985 0.332265
169 1 0.00163646 0.156168 0.32592
81 1 0.326666 0.00280697 0.174964
80 1 0.171127 0.066366 0.268867
177 1 0.328169 0.160995 0.323785
103 1 0.251491 0.158553 0.253346
173 1 0.174642 0.160998 0.321556
84 1 0.33762 0.0721455 0.250502
107 1 0.430182 0.154601 0.254402
88 1 0.494067 0.0658959 0.249029
86 1 0.598446 0.0773489 0.167018
109 1 0.502137 0.148002 0.17642
161 1 0.652344 0.00093734 0.324763
111 1 0.585492 0.159711 0.251937
181 1 0.511123 0.160029 0.319961
90 1 0.754389 0.0790179 0.171555
117 1 0.828735 0.161629 0.17196
92 1 0.676743 0.0916313 0.252015
91 1 0.744348 0.00139092 0.254218
95 1 0.925897 0.0174277 0.243494
145 1 0.996513 0.00848915 0.331116
76 1 0.998789 0.0909831 0.251058
96 1 0.838205 0.0837867 0.245624
101 1 0.160603 0.169964 0.172259
98 1 0.086026 0.24945 0.176258
99 1 0.0877219 0.167229 0.259664
100 1 0.016972 0.251753 0.263323
121 1 0.000445308 0.32303 0.173652
125 1 0.174011 0.328766 0.178674
104 1 0.172209 0.254926 0.268168
127 1 0.255771 0.316559 0.24438
108 1 0.348183 0.262299 0.254603
178 1 0.424133 0.23621 0.329506
112 1 0.493148 0.239082 0.233078
182 1 0.567294 0.256761 0.326532
185 1 0.663502 0.172728 0.328999
116 1 0.663874 0.25703 0.256494
135 1 0.56977 0.326797 0.246031
114 1 0.751923 0.258058 0.183923
115 1 0.752315 0.175918 0.264786
113 1 0.682781 0.178606 0.190606
97 1 0.995569 0.180588 0.171146
119 1 0.91254 0.174167 0.248787
120 1 0.837168 0.253683 0.255766
143 1 0.9216 0.332273 0.24944
190 1 0.925532 0.244937 0.332667
122 1 0.0877876 0.415374 0.178798
507 1 0.0787897 0.494637 0.265323
193 1 0.00786285 0.334977 0.331303
123 1 0.0881428 0.334897 0.24671
124 1 0.0107171 0.418689 0.243986
197 1 0.160474 0.341327 0.331305
126 1 0.255265 0.410692 0.171712
128 1 0.168627 0.424031 0.243975
198 1 0.263606 0.416437 0.326048
515 1 0.419115 0.499261 0.230783
132 1 0.337348 0.413893 0.231584
131 1 0.422109 0.340105 0.230828
136 1 0.49532 0.423935 0.253572
519 1 0.588727 0.493497 0.255949
134 1 0.579374 0.431389 0.174001
139 1 0.745591 0.337104 0.247685
140 1 0.672933 0.412498 0.238828
523 1 0.756966 0.496895 0.257475
527 1 0.91721 0.475707 0.242118
214 1 0.921923 0.409536 0.329379
525 1 0.840219 0.494253 0.168254
144 1 0.8336 0.401964 0.243443
171 1 0.0837496 0.156543 0.430122
152 1 0.161061 0.075346 0.410107
241 1 0.00735585 0.154488 0.498462
150 1 0.255113 0.0726398 0.33945
175 1 0.253428 0.15945 0.420967
222 1 0.243614 0.0821615 0.497076
154 1 0.433424 0.0775177 0.340564
226 1 0.411039 0.0562322 0.494667
156 1 0.337717 0.0653645 0.413458
160 1 0.49627 0.075027 0.424025
179 1 0.422029 0.152153 0.407292
249 1 0.336464 0.148056 0.482706
230 1 0.583491 0.0836998 0.495359
158 1 0.579801 0.0741295 0.336317
183 1 0.592477 0.16489 0.405068
164 1 0.67301 0.0735793 0.405563
162 1 0.746234 0.0925578 0.345986
168 1 0.832197 0.0853553 0.413163
165 1 0.821264 0.0121391 0.334046
234 1 0.739625 0.087168 0.495328
191 1 0.927185 0.162743 0.402048
166 1 0.909603 0.0975038 0.333547
148 1 0.991609 0.0795535 0.411074
167 1 0.914628 0.00980771 0.423078
265 1 0.00285259 0.330294 0.4885
195 1 0.0827567 0.322111 0.41408
170 1 0.0791232 0.243006 0.343396
172 1 0.00473483 0.231719 0.418519
176 1 0.169452 0.242919 0.412151
174 1 0.25388 0.24669 0.337232
273 1 0.324814 0.328056 0.490566
269 1 0.17382 0.328447 0.491819
203 1 0.419752 0.329461 0.418906
201 1 0.345199 0.326538 0.34661
180 1 0.346224 0.234317 0.40912
250 1 0.422221 0.242804 0.487276
253 1 0.508028 0.172078 0.495255
254 1 0.575565 0.257804 0.494806
188 1 0.665967 0.244584 0.41112
184 1 0.503278 0.227994 0.409317
211 1 0.753123 0.328153 0.42653
209 1 0.666733 0.321552 0.336805
187 1 0.763501 0.167082 0.426303
192 1 0.833151 0.252205 0.422914
186 1 0.753126 0.25021 0.350601
257 1 0.669791 0.171641 0.497509
189 1 0.839931 0.16945 0.334493
215 1 0.927928 0.333314 0.40202
213 1 0.843776 0.328678 0.342728
262 1 0.920825 0.267763 0.494266
579 1 0.0769028 0.499245 0.405758
194 1 0.0854475 0.415001 0.337458
200 1 0.162527 0.422524 0.419845
266 1 0.0766071 0.41503 0.490485
653 1 0.153916 0.49688 0.499134
583 1 0.24944 0.496604 0.421353
585 1 0.331877 0.497513 0.335694
204 1 0.323903 0.422148 0.41927
199 1 0.241938 0.342715 0.407289
581 1 0.167137 0.498719 0.345723
202 1 0.415948 0.409444 0.339564
208 1 0.498936 0.41751 0.42873
205 1 0.492604 0.334511 0.337035
274 1 0.406301 0.41048 0.490753
591 1 0.580902 0.487002 0.428039
206 1 0.597407 0.412756 0.334698
207 1 0.576053 0.340975 0.418736
595 1 0.749959 0.489951 0.426756
216 1 0.822786 0.414085 0.408703
210 1 0.730374 0.40844 0.335057
212 1 0.672559 0.412503 0.426736
597 1 0.829824 0.499119 0.334797
577 1 0.996461 0.4973 0.33933
196 1 0.986491 0.41624 0.420842
286 1 0.906611 0.423793 0.490032
243 1 0.0918449 0.133259 0.594059
313 1 0.00504561 0.1645 0.660625
245 1 0.166609 0.15628 0.50796
218 1 0.0751921 0.0630568 0.508015
224 1 0.16897 0.0726277 0.585632
247 1 0.242558 0.159845 0.592981
228 1 0.322337 0.0834028 0.578806
251 1 0.422835 0.154339 0.551822
325 1 0.496944 0.161524 0.647001
232 1 0.493944 0.0731571 0.567145
298 1 0.414285 0.0751823 0.653835
302 1 0.569268 0.0831997 0.656648
231 1 0.585632 0.00990307 0.575005
305 1 0.651711 0.00926514 0.663625
329 1 0.65829 0.161146 0.662997
236 1 0.675277 0.0885239 0.579651
240 1 0.827106 0.0879132 0.59379
237 1 0.810475 0.00554964 0.506012
220 1 0.991028 0.0720549 0.581419
310 1 0.916373 0.0749629 0.664963
263 1 0.916149 0.158994 0.587182
238 1 0.920326 0.0794954 0.504565
314 1 0.0815568 0.241392 0.651195
267 1 0.0907703 0.331413 0.577956
337 1 0.011415 0.329499 0.659863
242 1 0.100266 0.249848 0.508033
248 1 0.172385 0.258902 0.589422
318 1 0.259009 0.238611 0.656525
271 1 0.245717 0.330895 0.591465
246 1 0.246785 0.236515 0.500135
321 1 0.338484 0.170332 0.659285
252 1 0.341312 0.23503 0.577154
345 1 0.335885 0.328982 0.65711
275 1 0.409662 0.331203 0.56608
322 1 0.430637 0.251275 0.657638
255 1 0.591354 0.169144 0.577393
256 1 0.505429 0.252672 0.578391
260 1 0.666364 0.244013 0.590259
279 1 0.587077 0.320262 0.578432
277 1 0.503544 0.332351 0.502842
259 1 0.748992 0.169661 0.576546
264 1 0.830328 0.239997 0.597305
281 1 0.67143 0.310272 0.509188
283 1 0.741315 0.323445 0.595289
258 1 0.75856 0.247846 0.503605
261 1 0.837621 0.177285 0.501547
244 1 0.999817 0.25606 0.578769
334 1 0.91231 0.255098 0.66528
272 1 0.161593 0.411428 0.585843
338 1 0.08006 0.4174 0.657315
651 1 0.0795708 0.498193 0.577663
655 1 0.250129 0.494388 0.592026
270 1 0.254501 0.424566 0.50184
276 1 0.336305 0.413295 0.576355
280 1 0.471476 0.42397 0.579775
349 1 0.500885 0.34218 0.655206
663 1 0.571352 0.49118 0.585271
278 1 0.573161 0.415815 0.512137
665 1 0.647288 0.495477 0.514744
282 1 0.745888 0.420759 0.502421
357 1 0.826404 0.342317 0.657388
284 1 0.670764 0.401723 0.569934
354 1 0.744303 0.405725 0.656386
288 1 0.828275 0.428739 0.592227
667 1 0.743307 0.49273 0.586917
671 1 0.914023 0.494924 0.582839
287 1 0.908731 0.334826 0.584009
268 1 0.992225 0.409131 0.56462
649 1 0.995056 0.497222 0.500375
669 1 0.834738 0.49684 0.501425
285 1 0.83396 0.339866 0.508355
290 1 0.077321 0.0805422 0.679973
291 1 0.0773274 0.00143939 0.748777
315 1 0.0819314 0.16046 0.745942
296 1 0.159825 0.0704296 0.76841
293 1 0.165475 0.0138063 0.670214
389 1 0.158361 0.160563 0.823601
317 1 0.169318 0.160873 0.669308
294 1 0.260369 0.0930741 0.670896
366 1 0.244794 0.0849619 0.831166
295 1 0.247377 0.0071817 0.73878
300 1 0.342373 0.0850971 0.744797
370 1 0.409288 0.079961 0.832566
304 1 0.486071 0.0744579 0.745004
397 1 0.490395 0.159587 0.824543
377 1 0.653615 0.0015487 0.821718
327 1 0.560327 0.166504 0.741756
308 1 0.647252 0.0896575 0.748811
374 1 0.56623 0.0770733 0.827753
303 1 0.568492 0.00320433 0.733639
306 1 0.753384 0.0841721 0.677672
378 1 0.755091 0.0712631 0.814985
333 1 0.84622 0.158352 0.669548
309 1 0.841346 0.00251917 0.673969
292 1 0.99237 0.0735791 0.749468
312 1 0.844569 0.0744044 0.753481
335 1 0.923444 0.164041 0.738147
381 1 0.837614 0.00109631 0.824915
386 1 0.098971 0.25871 0.826402
316 1 0.0135427 0.261139 0.741496
320 1 0.157545 0.243377 0.734419
319 1 0.25743 0.174926 0.75189
341 1 0.173564 0.331113 0.668918
343 1 0.263824 0.327121 0.734337
390 1 0.260266 0.245407 0.823791
324 1 0.343049 0.262412 0.752799
323 1 0.408418 0.176984 0.743435
328 1 0.488817 0.253285 0.745257
326 1 0.574907 0.249722 0.669163
353 1 0.66097 0.328111 0.677291
401 1 0.654899 0.178006 0.829338
398 1 0.573867 0.248948 0.825002
332 1 0.661834 0.241516 0.743905
330 1 0.750792 0.238421 0.680764
331 1 0.757099 0.170238 0.762503
336 1 0.8307 0.258044 0.745495
385 1 0.99877 0.171864 0.832994
406 1 0.91036 0.241078 0.819904
339 1 0.0940731 0.340597 0.749848
344 1 0.165127 0.419667 0.741793
340 1 0.0127211 0.412981 0.755792
409 1 0.000738749 0.336399 0.822408
342 1 0.264763 0.423115 0.670888
414 1 0.260058 0.42492 0.819281
413 1 0.179489 0.35028 0.822539
346 1 0.414147 0.410448 0.667312
731 1 0.431309 0.480892 0.764465
347 1 0.426803 0.344843 0.756093
348 1 0.33948 0.427496 0.748077
733 1 0.496361 0.497804 0.671174
350 1 0.584241 0.426702 0.674985
351 1 0.59286 0.333921 0.765568
352 1 0.515624 0.409192 0.755963
735 1 0.588572 0.499806 0.771804
355 1 0.751794 0.335989 0.755027
356 1 0.673454 0.412425 0.760388
360 1 0.821267 0.434326 0.747636
737 1 0.674564 0.496035 0.669814
743 1 0.913611 0.492045 0.746776
358 1 0.925304 0.412817 0.677184
793 1 0.997157 0.498074 0.829056
359 1 0.884386 0.340844 0.745368
363 1 0.0796217 0.0106 0.913765
362 1 0.0732954 0.0882321 0.83377
368 1 0.150237 0.0925119 0.909779
2 1 0.0900949 0.0899141 0.999374
5 1 0.168158 0.00645254 0.995252
372 1 0.330571 0.0833298 0.922593
391 1 0.248152 0.150415 0.91668
393 1 0.327568 0.16057 0.834229
367 1 0.246076 0.00418727 0.918469
6 1 0.250317 0.0847709 0.993947
33 1 0.334438 0.163985 0.991653
376 1 0.484399 0.0957753 0.916981
395 1 0.406624 0.16592 0.910897
14 1 0.585432 0.0917897 0.976861
399 1 0.567751 0.15801 0.909964
380 1 0.666586 0.0818422 0.891427
375 1 0.580084 0.0123443 0.910094
18 1 0.766418 0.0838352 0.992525
379 1 0.743764 0.00485064 0.908441
403 1 0.755579 0.163162 0.913649
17 1 0.674401 0.00535382 0.986469
41 1 0.682025 0.162551 0.983885
22 1 0.913068 0.094998 0.996413
361 1 0.995715 0.00758985 0.836966
405 1 0.834283 0.165735 0.840888
382 1 0.918298 0.0998212 0.836304
364 1 0.99873 0.08447 0.916741
384 1 0.836243 0.0857977 0.907653
21 1 0.844699 0.0128846 0.99424
1 1 0.995196 0.00224644 0.999877
25 1 0.0123693 0.171884 0.996537
388 1 0.015097 0.250362 0.903812
387 1 0.0926589 0.188574 0.912409
411 1 0.110479 0.325398 0.916241
49 1 0.0078706 0.32378 0.996228
417 1 0.330839 0.322515 0.842992
392 1 0.18172 0.235768 0.902237
396 1 0.318631 0.250847 0.923287
394 1 0.430004 0.255295 0.840504
37 1 0.49085 0.17919 0.988468
34 1 0.412726 0.246441 0.992299
423 1 0.590632 0.323868 0.92529
400 1 0.508323 0.249694 0.922233
45 1 0.816408 0.170538 0.994876
42 1 0.749499 0.248134 0.981254
402 1 0.749294 0.243111 0.833907
404 1 0.668074 0.250834 0.914183
65 1 0.67504 0.332712 0.996505
431 1 0.907236 0.326991 0.919104
407 1 0.926261 0.176697 0.91233
408 1 0.834815 0.254303 0.905743
46 1 0.916763 0.253174 0.993155
795 1 0.0688727 0.484985 0.916112
410 1 0.0889247 0.415154 0.836022
416 1 0.170796 0.429711 0.907078
420 1 0.32569 0.436746 0.908533
415 1 0.257122 0.35064 0.91884
418 1 0.410672 0.421522 0.848671
419 1 0.409621 0.336628 0.924319
805 1 0.504139 0.49184 0.845808
422 1 0.592442 0.423173 0.847165
424 1 0.505255 0.421409 0.92662
421 1 0.50783 0.341476 0.859419
66 1 0.747384 0.430852 0.999337
432 1 0.828636 0.407761 0.921653
428 1 0.671254 0.425811 0.932821
425 1 0.668316 0.342964 0.84844
426 1 0.751171 0.422171 0.836024
427 1 0.749747 0.342069 0.924685
811 1 0.765495 0.49065 0.924596
430 1 0.919354 0.411846 0.850536
813 1 0.836737 0.497467 0.837877
429 1 0.834448 0.343035 0.84441
412 1 0.997133 0.410246 0.917605
533 1 0.160422 0.666049 0.15869
459 1 0.077834 0.657529 0.0919756
434 1 0.0835993 0.574544 0.0215544
440 1 0.171395 0.583382 0.0985231
463 1 0.245984 0.657804 0.0843171
513 1 0.328459 0.500329 0.152303
444 1 0.341836 0.603222 0.0811374
448 1 0.490159 0.585279 0.0911999
441 1 0.346547 0.510304 0.00298215
517 1 0.49142 0.50027 0.158162
514 1 0.405019 0.599351 0.161698
445 1 0.494878 0.511135 0.00557847
447 1 0.58311 0.503608 0.0874933
446 1 0.573356 0.588539 0.0106932
452 1 0.667682 0.575742 0.0854512
475 1 0.739543 0.664151 0.0826543
451 1 0.776041 0.512364 0.0765615
449 1 0.670505 0.505137 0.00777967
450 1 0.772337 0.605273 0.00681427
436 1 0.986604 0.601009 0.0906072
456 1 0.833706 0.600279 0.102859
455 1 0.928698 0.5053 0.0820837
505 1 0.997215 0.502521 0.165603
454 1 0.906996 0.589032 0.01074
460 1 0.00856145 0.748088 0.0994314
464 1 0.164046 0.753783 0.0885248
483 1 0.0706063 0.830746 0.0826479
557 1 0.165577 0.830005 0.165174
485 1 0.15349 0.825561 0.00181921
530 1 0.0895681 0.751323 0.163377
458 1 0.0831145 0.751308 0.00606158
461 1 0.151352 0.667521 0.0248705
457 1 0.00583435 0.67965 0.00750571
468 1 0.321662 0.748537 0.0786131
537 1 0.329793 0.67398 0.158809
489 1 0.321583 0.826593 0.00391047
465 1 0.324427 0.671331 0.000269307
467 1 0.411998 0.676495 0.0737168
561 1 0.335407 0.816484 0.164737
541 1 0.49339 0.67668 0.154778
538 1 0.417968 0.752067 0.149244
466 1 0.411396 0.763539 0.00448029
472 1 0.511857 0.759231 0.0653486
471 1 0.607416 0.669243 0.0878048
542 1 0.577145 0.757432 0.14872
470 1 0.609549 0.758152 0.00382409
476 1 0.676953 0.766337 0.0861512
480 1 0.832873 0.762874 0.0701361
545 1 0.683211 0.671565 0.163155
546 1 0.757724 0.742539 0.15984
479 1 0.915872 0.690401 0.096059
503 1 0.939544 0.832681 0.0978094
477 1 0.847396 0.6735 0.00227838
488 1 0.152029 0.907795 0.0764631
484 1 0.00250023 0.919131 0.0813732
482 1 0.0744608 0.925574 0.00248329
486 1 0.237939 0.927252 0.0134073
487 1 0.248838 0.839542 0.0863983
558 1 0.229694 0.936159 0.155366
492 1 0.323975 0.921581 0.0896029
9 1 0.320376 0.999008 0.0157883
491 1 0.416304 0.848006 0.0870219
562 1 0.4117 0.915144 0.16573
496 1 0.493581 0.923617 0.0906344
490 1 0.409003 0.919133 9.69322e-05
495 1 0.585675 0.839809 0.0865845
15 1 0.590163 0.990157 0.0696326
499 1 0.756569 0.838736 0.0709622
500 1 0.679448 0.918256 0.0667622
569 1 0.675333 0.854883 0.15138
570 1 0.764741 0.932046 0.160458
504 1 0.837503 0.936001 0.069957
574 1 0.914897 0.922389 0.149407
573 1 0.840147 0.837085 0.146726
502 1 0.928241 0.920491 0.00307566
506 1 0.0671359 0.587204 0.168983
578 1 0.0854497 0.589294 0.32623
509 1 0.15338 0.515284 0.19078
601 1 0.00781141 0.657538 0.323247
510 1 0.245514 0.580561 0.171274
512 1 0.170362 0.605323 0.249692
582 1 0.246944 0.574214 0.331028
511 1 0.256267 0.51506 0.243475
516 1 0.339577 0.590772 0.243006
586 1 0.422175 0.586352 0.328279
520 1 0.495206 0.583499 0.231173
589 1 0.493792 0.50565 0.323991
518 1 0.589512 0.579254 0.171835
613 1 0.511641 0.664681 0.325906
543 1 0.578236 0.649442 0.245814
521 1 0.658627 0.506566 0.178753
522 1 0.752272 0.592744 0.172044
524 1 0.677576 0.596861 0.247826
528 1 0.831706 0.591259 0.246084
526 1 0.91136 0.579111 0.172053
508 1 0.994831 0.584107 0.247293
598 1 0.931423 0.579461 0.325956
531 1 0.0880253 0.670606 0.254962
536 1 0.165706 0.754186 0.250124
532 1 0.0105639 0.759364 0.255734
629 1 0.153205 0.827278 0.331704
534 1 0.242319 0.754127 0.171923
535 1 0.257834 0.678622 0.252558
540 1 0.32659 0.757474 0.251344
559 1 0.243257 0.823741 0.251078
539 1 0.42939 0.671801 0.238465
610 1 0.422579 0.744612 0.327981
563 1 0.421972 0.8231 0.244776
609 1 0.335196 0.667247 0.328489
544 1 0.518228 0.74161 0.242118
567 1 0.586959 0.830792 0.239378
617 1 0.666444 0.66821 0.327237
547 1 0.751179 0.66929 0.249859
548 1 0.669887 0.762393 0.22107
571 1 0.759225 0.827017 0.233472
618 1 0.755678 0.7578 0.327051
529 1 0.984311 0.673494 0.171657
550 1 0.919726 0.768418 0.177404
549 1 0.849109 0.676683 0.181127
552 1 0.835553 0.755081 0.2563
551 1 0.915914 0.679045 0.266002
553 1 0.0103227 0.835226 0.176495
554 1 0.0803032 0.91859 0.178508
555 1 0.0760922 0.844004 0.258204
560 1 0.165999 0.918443 0.263699
75 1 0.0926538 0.995764 0.267021
630 1 0.252217 0.906063 0.324936
153 1 0.326145 0.998753 0.325949
79 1 0.249441 0.985225 0.245718
564 1 0.335065 0.90233 0.239724
634 1 0.421316 0.908334 0.312638
568 1 0.494697 0.921081 0.228223
83 1 0.418448 0.994241 0.238951
157 1 0.50902 0.991805 0.331655
87 1 0.575321 0.998131 0.234572
565 1 0.500778 0.843858 0.166879
566 1 0.578506 0.914996 0.168343
638 1 0.590461 0.922203 0.312044
89 1 0.660763 0.993032 0.169395
637 1 0.516216 0.839814 0.313973
572 1 0.675458 0.908197 0.236726
642 1 0.746982 0.912905 0.326648
645 1 0.845009 0.847795 0.331488
575 1 0.918896 0.848302 0.247694
556 1 0.992012 0.920817 0.248595
576 1 0.840174 0.940599 0.243773
605 1 0.158142 0.658425 0.343825
603 1 0.067819 0.662229 0.413149
650 1 0.0934984 0.582944 0.489365
584 1 0.17568 0.575512 0.409436
607 1 0.242275 0.660432 0.40673
654 1 0.24062 0.580815 0.498087
681 1 0.321762 0.659294 0.488144
587 1 0.413526 0.513844 0.411435
588 1 0.338978 0.587588 0.412788
611 1 0.430329 0.657064 0.415554
658 1 0.423143 0.593306 0.499778
657 1 0.354224 0.50777 0.495981
592 1 0.501951 0.573825 0.413221
590 1 0.584791 0.585932 0.340849
596 1 0.651576 0.59581 0.424703
662 1 0.570739 0.589319 0.494164
594 1 0.752694 0.590183 0.349537
593 1 0.667543 0.505352 0.35291
599 1 0.912857 0.503068 0.414928
580 1 0.99392 0.586604 0.433826
600 1 0.83588 0.579164 0.427645
693 1 0.842637 0.661443 0.495275
602 1 0.0811975 0.751591 0.342138
627 1 0.0887206 0.824616 0.422263
608 1 0.159454 0.74393 0.415117
604 1 0.00525227 0.75211 0.426559
674 1 0.0921594 0.738317 0.498217
633 1 0.330972 0.831694 0.335574
631 1 0.238741 0.832656 0.413534
606 1 0.236957 0.748597 0.335743
612 1 0.317331 0.749011 0.408701
678 1 0.245933 0.762973 0.49762
682 1 0.411275 0.750335 0.478658
635 1 0.414455 0.833243 0.399577
616 1 0.493528 0.762107 0.419816
641 1 0.660373 0.828625 0.334426
615 1 0.562864 0.669981 0.419037
614 1 0.568955 0.748913 0.333627
639 1 0.579983 0.825173 0.418642
620 1 0.655681 0.747485 0.410144
709 1 0.501998 0.821377 0.498933
621 1 0.822906 0.676096 0.33662
643 1 0.751829 0.819809 0.434199
619 1 0.737453 0.67121 0.417164
622 1 0.91163 0.757865 0.34025
623 1 0.915363 0.667512 0.398788
624 1 0.834302 0.752215 0.410197
698 1 0.0854547 0.922003 0.498978
147 1 0.079281 0.998492 0.409073
625 1 0.00286124 0.833909 0.33806
626 1 0.0884459 0.908124 0.345108
632 1 0.16437 0.907465 0.420723
628 1 0.00532821 0.906702 0.418001
151 1 0.244621 0.997261 0.421436
636 1 0.328562 0.901494 0.428609
225 1 0.329215 0.981186 0.499496
149 1 0.172465 0.986102 0.33888
229 1 0.496484 0.982249 0.499092
640 1 0.499636 0.900026 0.398654
155 1 0.415446 0.984619 0.394192
159 1 0.605367 0.98904 0.416015
163 1 0.745337 0.993068 0.397
644 1 0.68008 0.888868 0.424573
648 1 0.825258 0.922663 0.416416
233 1 0.685025 0.992731 0.497095
646 1 0.916558 0.922972 0.34745
217 1 0.998977 0.992921 0.487622
647 1 0.914982 0.835794 0.425475
718 1 0.909915 0.915478 0.493411
652 1 0.0026699 0.589005 0.566763
675 1 0.102801 0.663708 0.572872
721 1 0.0112053 0.500476 0.664217
725 1 0.160787 0.507328 0.654488
656 1 0.170515 0.576107 0.578974
679 1 0.258537 0.657671 0.580917
660 1 0.336659 0.585195 0.571414
664 1 0.498392 0.592619 0.578939
659 1 0.413246 0.505717 0.595738
661 1 0.481402 0.509676 0.508163
668 1 0.635972 0.575508 0.580942
689 1 0.660875 0.659857 0.506293
691 1 0.753914 0.654904 0.584276
672 1 0.829424 0.586637 0.567331
666 1 0.731701 0.572243 0.50032
695 1 0.929858 0.663603 0.582806
765 1 0.836075 0.651902 0.666159
742 1 0.925203 0.563187 0.659681
745 1 0.999972 0.666083 0.663418
670 1 0.910004 0.574119 0.511987
676 1 0.00859106 0.746476 0.575492
701 1 0.160377 0.830296 0.518143
680 1 0.17875 0.74139 0.598276
703 1 0.252261 0.827426 0.577743
684 1 0.328598 0.743487 0.580946
777 1 0.326368 0.83025 0.663202
677 1 0.186441 0.673781 0.505032
685 1 0.496124 0.688375 0.510215
683 1 0.41454 0.676662 0.587626
707 1 0.413171 0.82516 0.587415
688 1 0.508486 0.765298 0.592959
687 1 0.575102 0.669697 0.583103
761 1 0.662983 0.668305 0.645978
686 1 0.585154 0.74964 0.509993
692 1 0.679249 0.746985 0.586848
715 1 0.758148 0.827149 0.588611
696 1 0.829846 0.747034 0.586438
690 1 0.759871 0.74314 0.512205
713 1 0.670155 0.821131 0.513414
719 1 0.911094 0.832758 0.587252
673 1 0.99649 0.675406 0.501059
694 1 0.915668 0.747241 0.517765
717 1 0.839857 0.826221 0.501016
699 1 0.0832712 0.839547 0.583474
770 1 0.0808621 0.917548 0.662059
219 1 0.0849292 0.998007 0.591777
221 1 0.161506 0.998182 0.507676
223 1 0.253074 0.995335 0.578441
704 1 0.16958 0.916137 0.590978
708 1 0.321915 0.905056 0.594161
774 1 0.243171 0.916791 0.666134
702 1 0.241411 0.907276 0.506696
227 1 0.407978 0.990046 0.576629
301 1 0.487232 0.977934 0.649945
778 1 0.401365 0.906721 0.653246
706 1 0.41598 0.905735 0.501267
705 1 0.335071 0.83458 0.512724
710 1 0.597596 0.916269 0.504459
711 1 0.590138 0.834085 0.594981
712 1 0.507968 0.907952 0.575354
714 1 0.750765 0.910715 0.50448
716 1 0.677069 0.920961 0.585106
720 1 0.827121 0.910329 0.583125
235 1 0.752029 0.997486 0.599726
786 1 0.757362 0.901705 0.666085
289 1 0.997166 0.99724 0.665898
239 1 0.90635 0.995192 0.583727
697 1 0.995354 0.835517 0.516243
700 1 0.995403 0.92664 0.580491
769 1 0.996127 0.837271 0.655713
790 1 0.910427 0.923329 0.657388
722 1 0.0823613 0.603568 0.666889
723 1 0.0813406 0.507472 0.751966
727 1 0.249081 0.500135 0.750764
729 1 0.329451 0.507457 0.668719
728 1 0.168383 0.578453 0.737443
726 1 0.261638 0.584939 0.667607
732 1 0.324255 0.586787 0.761145
749 1 0.178147 0.658154 0.667675
798 1 0.242704 0.596555 0.832219
797 1 0.178324 0.507171 0.831197
730 1 0.419733 0.578187 0.683602
753 1 0.340258 0.660723 0.673498
801 1 0.339719 0.510347 0.830948
734 1 0.569941 0.581241 0.67417
736 1 0.503409 0.584133 0.754456
759 1 0.599271 0.664655 0.749735
740 1 0.661978 0.5702 0.741334
806 1 0.578916 0.591056 0.831428
739 1 0.743795 0.507428 0.757847
738 1 0.738487 0.587587 0.676483
741 1 0.830625 0.514638 0.667868
763 1 0.74592 0.663693 0.765786
744 1 0.845237 0.581182 0.753424
724 1 0.995004 0.57764 0.748549
773 1 0.157269 0.821038 0.680032
746 1 0.089745 0.735075 0.675257
747 1 0.0726686 0.66884 0.764956
771 1 0.0798581 0.8295 0.75641
841 1 0.00566272 0.832738 0.831074
750 1 0.253703 0.743001 0.670801
752 1 0.168081 0.751443 0.765934
751 1 0.25007 0.671234 0.751738
775 1 0.252181 0.823045 0.741766
756 1 0.330499 0.749759 0.736464
755 1 0.417122 0.679241 0.748164
754 1 0.420624 0.764762 0.666925
758 1 0.597651 0.750321 0.680115
829 1 0.513974 0.67528 0.829883
853 1 0.525902 0.829854 0.821518
757 1 0.509241 0.680492 0.679301
760 1 0.50033 0.762965 0.749533
834 1 0.755403 0.747607 0.824044
764 1 0.674795 0.731446 0.757871
785 1 0.671357 0.819814 0.675233
762 1 0.762493 0.737421 0.6822
766 1 0.915635 0.741661 0.677239
748 1 0.995949 0.739062 0.753101
767 1 0.915737 0.667329 0.77812
768 1 0.840412 0.754127 0.753031
838 1 0.915939 0.766377 0.827092
791 1 0.92902 0.829608 0.749673
772 1 0.0118056 0.923405 0.742419
365 1 0.179282 0.990135 0.831365
776 1 0.174056 0.909063 0.747479
846 1 0.240096 0.905429 0.833317
780 1 0.323714 0.916577 0.746432
297 1 0.32687 0.994132 0.668786
369 1 0.301095 0.994293 0.828616
299 1 0.411315 0.995125 0.731227
779 1 0.405511 0.84526 0.770692
784 1 0.491543 0.915928 0.754704
781 1 0.491149 0.846844 0.679801
854 1 0.574405 0.92206 0.819623
783 1 0.593623 0.841488 0.740278
782 1 0.578416 0.917322 0.667552
788 1 0.663949 0.922205 0.735594
307 1 0.751307 0.990947 0.723377
787 1 0.756663 0.836422 0.757303
857 1 0.673656 0.844596 0.818068
858 1 0.744005 0.932176 0.828136
792 1 0.82531 0.923089 0.749834
789 1 0.851047 0.835532 0.674377
311 1 0.924674 0.992039 0.751738
794 1 0.0588706 0.577134 0.83562
800 1 0.152959 0.565681 0.935246
821 1 0.156338 0.648152 0.841712
796 1 0.00311372 0.585826 0.940353
819 1 0.087077 0.657964 0.939446
799 1 0.251254 0.508638 0.924542
804 1 0.327506 0.588508 0.913236
438 1 0.249686 0.578706 0.998626
803 1 0.41454 0.506998 0.915228
802 1 0.423704 0.600377 0.846452
808 1 0.488281 0.585449 0.923838
442 1 0.411247 0.594891 0.997781
807 1 0.586745 0.514172 0.930373
831 1 0.593241 0.657012 0.917507
473 1 0.666538 0.661555 0.994586
837 1 0.82065 0.66573 0.834097
835 1 0.747685 0.658005 0.914884
812 1 0.67575 0.576893 0.918115
833 1 0.666978 0.660462 0.840258
810 1 0.740467 0.57752 0.840151
816 1 0.829116 0.590244 0.915904
809 1 0.679129 0.503196 0.847679
453 1 0.842474 0.505261 0.988145
815 1 0.932609 0.503693 0.93474
814 1 0.909496 0.583575 0.853644
818 1 0.0796987 0.746729 0.834267
824 1 0.149979 0.753298 0.918962
825 1 0.330001 0.677955 0.84715
823 1 0.218702 0.66669 0.928463
847 1 0.239047 0.830299 0.936026
849 1 0.315056 0.830853 0.842617
822 1 0.244866 0.746732 0.842729
828 1 0.327117 0.756942 0.920899
462 1 0.237831 0.74283 0.996595
826 1 0.41101 0.762667 0.83903
827 1 0.418243 0.683453 0.924783
851 1 0.40029 0.832348 0.923535
830 1 0.599499 0.756622 0.834215
832 1 0.511736 0.751736 0.936999
469 1 0.509593 0.669349 0.997389
836 1 0.678886 0.761716 0.907961
474 1 0.751652 0.748743 0.992663
863 1 0.919722 0.830921 0.911693
820 1 0.994677 0.756694 0.927566
839 1 0.919945 0.672776 0.905524
817 1 0.9999 0.669977 0.849738
478 1 0.914136 0.760569 0.992107
840 1 0.834443 0.750717 0.911312
844 1 0.00177456 0.92454 0.909511
845 1 0.157394 0.84281 0.840487
843 1 0.0811699 0.836575 0.916243
842 1 0.0892747 0.92102 0.839342
848 1 0.168208 0.911524 0.93623
852 1 0.315603 0.90855 0.925548
371 1 0.403029 0.989493 0.934815
850 1 0.402398 0.927485 0.846937
856 1 0.499839 0.913721 0.915945
373 1 0.494401 0.989165 0.845214
493 1 0.489707 0.839246 0.993213
494 1 0.580604 0.91632 0.996171
855 1 0.575733 0.833697 0.916868
13 1 0.503734 0.992042 0.995208
860 1 0.673066 0.914472 0.901091
498 1 0.755974 0.92435 0.979695
859 1 0.760122 0.845675 0.902805
497 1 0.681777 0.845652 0.987398
383 1 0.916427 0.998066 0.921657
501 1 0.844298 0.848462 0.992769
864 1 0.843297 0.928069 0.917791
861 1 0.840746 0.839127 0.834863
862 1 0.907885 0.908962 0.839597
481 1 0.99942 0.839925 0.990402
