ITEM: TIMESTEP
18250
ITEM: NUMBER OF ATOMS
864
ITEM: BOX BOUNDS pp pp pp
0.0000000000000000e+00 3.1559999999999999e+01
0.0000000000000000e+00 3.1559999999999999e+01
0.0000000000000000e+00 3.1559999999999999e+01
ITEM: ATOMS id type xs ys zs
8 1 0.174206 0.0687597 0.0746374
4 1 0.00134694 0.0932508 0.0778097
147 1 0.083578 0.00499838 0.410319
75 1 0.0785096 0.0063562 0.24938
196 1 0.989105 0.427435 0.416448
12 1 0.319955 0.0869214 0.0678461
82 1 0.42135 0.0760654 0.146547
35 1 0.410852 0.166764 0.0821312
16 1 0.501423 0.0786919 0.0615855
39 1 0.583144 0.177851 0.0916304
113 1 0.676902 0.167867 0.175808
86 1 0.591019 0.0873038 0.148791
523 1 0.740023 0.51956 0.245354
230 1 0.588367 0.0883096 0.499886
20 1 0.662208 0.0729046 0.053323
43 1 0.763618 0.172601 0.0833326
258 1 0.756575 0.256174 0.497045
24 1 0.828824 0.0882243 0.0795104
117 1 0.837546 0.166993 0.170073
669 1 0.829015 0.508183 0.49234
433 1 -0.00617228 0.498875 -0.00395236
163 1 0.752036 0.00856881 0.418429
577 1 1.00778 0.497489 0.335614
27 1 0.0956476 0.167994 0.0756293
32 1 0.179718 0.260696 0.094633
28 1 0.00492601 0.244361 0.0793858
31 1 0.235524 0.172519 0.068795
102 1 0.26964 0.235498 0.156483
36 1 0.32733 0.242909 0.0686278
59 1 0.414566 0.324906 0.0844947
106 1 0.416105 0.243704 0.164395
129 1 0.334737 0.339707 0.154411
40 1 0.502926 0.235713 0.0729751
110 1 0.578866 0.245464 0.161816
44 1 0.674487 0.251913 0.0731413
233 1 0.672079 0.011995 0.512923
114 1 0.75562 0.245552 0.175643
67 1 0.728073 0.345798 0.106282
48 1 0.852199 0.250659 0.0856396
47 1 0.92884 0.173507 0.076501
71 1 0.915398 0.334618 0.101591
51 1 0.0836232 0.333588 0.0826573
56 1 0.159681 0.411392 0.0861938
211 1 0.767297 0.353032 0.436522
55 1 0.248281 0.347676 0.0884029
213 1 0.826091 0.334827 0.338062
19 1 0.739004 0.00442445 0.0458604
2 1 0.0943301 0.0854165 0.008316
60 1 0.315694 0.423651 0.0810999
64 1 0.484309 0.409109 0.0785514
63 1 0.564817 0.333465 0.0837129
68 1 0.634099 0.412541 0.0726915
72 1 0.824707 0.426009 0.0833671
138 1 0.741998 0.43855 0.161737
597 1 0.82405 0.47575 0.341434
52 1 1.00671 0.4285 0.0848731
595 1 0.732333 0.484882 0.417598
593 1 0.64785 0.501286 0.335216
142 1 0.90118 0.413008 0.163952
141 1 0.825859 0.348875 0.154901
210 1 0.72876 0.398873 0.3376
74 1 0.0910885 0.0824741 0.166006
216 1 0.854097 0.410013 0.425701
76 1 0.984843 0.0748456 0.251166
80 1 0.163918 0.0884619 0.242646
78 1 0.255295 0.0890817 0.1596
103 1 0.254891 0.156264 0.241482
273 1 0.339116 0.345922 0.517982
84 1 0.337677 0.0836945 0.250019
88 1 0.500933 0.0845131 0.244282
105 1 0.352158 0.163804 0.177379
107 1 0.419456 0.168883 0.25219
177 1 0.341049 0.156766 0.340411
73 1 0.00516174 0.0059592 0.156553
111 1 0.586688 0.157159 0.232678
90 1 0.744193 0.0711732 0.151186
92 1 0.663138 0.0823443 0.253233
162 1 0.76475 0.0706409 0.322968
208 1 0.507514 0.401247 0.428388
96 1 0.849667 0.0738985 0.2422
94 1 0.92063 0.0861609 0.152598
119 1 0.915203 0.175029 0.24839
101 1 0.173459 0.162256 0.155942
98 1 0.0810342 0.245772 0.1597
99 1 0.0946561 0.165738 0.243394
100 1 0.0100463 0.241081 0.238656
104 1 0.162974 0.242051 0.238619
174 1 0.266041 0.243115 0.340846
108 1 0.338117 0.245003 0.247109
205 1 0.501879 0.325815 0.33106
112 1 0.501375 0.25021 0.248197
131 1 0.42257 0.345876 0.267818
109 1 0.497934 0.162268 0.159314
116 1 0.658643 0.243216 0.25188
135 1 0.577589 0.343873 0.2534
182 1 0.574415 0.248902 0.343882
181 1 0.499801 0.170426 0.324311
115 1 0.745386 0.167665 0.26217
120 1 0.834691 0.256857 0.237987
139 1 0.741038 0.337804 0.24004
189 1 0.833754 0.158748 0.328324
97 1 0.998359 0.160988 0.163835
118 1 0.928204 0.242771 0.16594
143 1 0.914385 0.342399 0.242692
87 1 0.595521 0.00552198 0.242014
121 1 0.00708709 0.337292 0.173507
122 1 0.0911629 0.421862 0.170151
193 1 1.00063 0.312366 0.313232
123 1 0.0830514 0.337075 0.246298
125 1 0.167128 0.342591 0.172228
579 1 0.0843029 0.481622 0.412223
127 1 0.257692 0.316024 0.239767
128 1 0.15107 0.422894 0.256267
126 1 0.238017 0.418668 0.185929
130 1 0.40796 0.417412 0.155426
132 1 0.332992 0.410864 0.255735
133 1 0.497704 0.323509 0.164469
136 1 0.491177 0.42473 0.242072
527 1 0.907643 0.500646 0.275842
134 1 0.565992 0.419296 0.159668
439 1 0.241904 0.503996 0.0909402
137 1 0.641081 0.34365 0.173497
140 1 0.659449 0.428133 0.250904
144 1 0.825012 0.410412 0.258834
513 1 0.32218 0.486487 0.17465
149 1 0.170665 0.0115125 0.33281
124 1 0.995783 0.424435 0.23353
214 1 0.927145 0.411748 0.332426
206 1 0.575248 0.413609 0.34313
146 1 0.0735525 0.105656 0.339827
148 1 -0.00116774 0.0788034 0.409818
152 1 0.167445 0.0898931 0.42118
171 1 0.101565 0.177464 0.417748
150 1 0.252178 0.0739119 0.32615
173 1 0.185867 0.154141 0.322895
175 1 0.257813 0.154025 0.419404
212 1 0.659331 0.404985 0.424644
45 1 0.838037 0.181707 -0.000266288
26 1 0.0814179 0.256087 -0.00242395
156 1 0.332103 0.0715945 0.414753
154 1 0.417815 0.0773541 0.327452
179 1 0.401942 0.156655 0.420192
269 1 0.190899 0.338367 0.512908
158 1 0.57703 0.077449 0.332458
183 1 0.588756 0.173007 0.425558
160 1 0.499852 0.0728906 0.417555
164 1 0.658237 0.0819092 0.402557
207 1 0.586 0.323131 0.431984
53 1 0.159659 0.328501 -0.00874647
168 1 0.836125 0.0842744 0.419207
81 1 0.324284 -0.00265471 0.152982
587 1 0.43985 0.492134 0.422406
166 1 0.917813 0.0791217 0.33804
203 1 0.422462 0.33974 0.427329
22 1 0.911084 0.0963549 0.00107782
169 1 -0.00547312 0.174131 0.337454
170 1 0.111421 0.249818 0.33584
93 1 0.84213 0.0143158 0.154567
201 1 0.329291 0.331796 0.33498
176 1 0.180918 0.24687 0.433075
199 1 0.259903 0.335238 0.431745
180 1 0.336844 0.258667 0.42145
204 1 0.324152 0.416907 0.426476
184 1 0.502524 0.239594 0.418955
178 1 0.419461 0.242129 0.335249
202 1 0.438582 0.4234 0.340729
185 1 0.663916 0.166509 0.329073
209 1 0.652301 0.323117 0.329512
188 1 0.676678 0.267662 0.425415
198 1 0.2589 0.422729 0.337714
186 1 0.741109 0.254849 0.32931
187 1 0.745524 0.153218 0.410215
192 1 0.833601 0.269448 0.424727
200 1 0.187879 0.417317 0.437158
215 1 0.933929 0.328655 0.414473
172 1 0.00513333 0.240383 0.431651
190 1 0.897002 0.243883 0.327498
191 1 0.930926 0.1566 0.420734
197 1 0.184589 0.345804 0.328719
195 1 0.0974923 0.350572 0.424064
194 1 0.0833402 0.402725 0.32722
161 1 0.668836 0.00300024 0.335972
157 1 0.495776 -0.00898308 0.338958
159 1 0.586543 0.00798895 0.424263
95 1 0.915012 -0.00710623 0.254129
218 1 0.0745166 0.0818231 0.508472
70 1 0.910375 0.398439 0.0172511
443 1 0.407353 0.507263 0.0812324
49 1 0.00911291 0.336993 0.0145501
69 1 0.81891 0.327205 0.0122111
62 1 0.558517 0.425444 -0.00805774
257 1 0.669812 0.168288 0.50152
57 1 0.317155 0.335988 0.00481674
65 1 0.692154 0.330291 -0.00988995
653 1 0.179006 0.510379 0.492765
234 1 0.747791 0.0898867 0.507961
61 1 0.484249 0.32489 -0.000648778
243 1 0.0874628 0.179593 0.586861
290 1 0.0858966 0.0764989 0.671003
731 1 0.415633 0.492074 0.761478
224 1 0.16285 0.0974123 0.585142
294 1 0.250031 0.0861038 0.67356
228 1 0.331605 0.0850689 0.590722
232 1 0.510923 0.0752299 0.602348
231 1 0.599808 0.0161446 0.587175
729 1 0.339597 0.501164 0.678543
809 1 0.647024 0.491517 0.850407
236 1 0.682637 0.0912868 0.594463
255 1 0.606243 0.174276 0.580066
663 1 0.585628 0.495769 0.592937
240 1 0.847567 0.0969204 0.599827
220 1 0.00767127 0.0886462 0.593549
363 1 0.0741269 -0.0119429 0.913368
263 1 0.929092 0.163429 0.581614
314 1 0.0887034 0.255285 0.652888
267 1 0.0755287 0.337122 0.595234
54 1 0.231632 0.417938 1.00726
665 1 0.674033 0.490315 0.50131
247 1 0.248238 0.17847 0.604085
248 1 0.169882 0.258186 0.59034
271 1 0.263499 0.346572 0.593549
249 1 0.333861 0.161829 0.507223
66 1 0.747546 0.427689 1.00518
251 1 0.410581 0.161272 0.583828
252 1 0.325824 0.250531 0.58995
282 1 0.746591 0.41523 0.51725
277 1 0.514219 0.333563 0.521212
256 1 0.517965 0.254278 0.58428
259 1 0.767913 0.174708 0.580174
260 1 0.683185 0.252776 0.572482
283 1 0.752089 0.323997 0.615059
266 1 0.0817251 0.415961 0.502337
245 1 0.188006 0.174943 0.512166
244 1 -0.000704432 0.250597 0.585653
264 1 0.837327 0.265365 0.593976
334 1 0.923304 0.253924 0.666609
14 1 0.593237 0.0747375 0.980528
337 1 -0.00568297 0.339307 0.674999
268 1 1.00092 0.417156 0.580811
338 1 0.0833826 0.407722 0.663747
272 1 0.169841 0.42197 0.58991
345 1 0.335978 0.327446 0.67434
342 1 0.26395 0.430974 0.676638
275 1 0.422765 0.332982 0.592452
349 1 0.501577 0.31784 0.669949
285 1 0.847657 0.334678 0.517149
276 1 0.33843 0.432383 0.59738
412 1 -0.0059608 0.420628 0.927454
226 1 0.42401 0.0765157 0.515903
279 1 0.597446 0.337602 0.588071
280 1 0.499779 0.409984 0.598482
284 1 0.664753 0.418097 0.592815
254 1 0.595307 0.253919 0.503689
659 1 0.429719 0.507975 0.588959
288 1 0.834514 0.422795 0.581467
303 1 0.593932 0.0212362 0.760213
287 1 0.92753 0.334779 0.586447
34 1 0.412747 0.242128 0.996176
361 1 1.00298 0.0039808 0.835161
313 1 -0.000426216 0.169833 0.661042
292 1 1.00086 0.0989417 0.746345
315 1 0.0902475 0.160273 0.752613
296 1 0.177011 0.0786728 0.748829
300 1 0.328723 0.0734355 0.768565
319 1 0.238316 0.168577 0.749169
432 1 0.824933 0.414341 0.917815
298 1 0.414081 0.0805776 0.667807
397 1 0.500897 0.174098 0.835833
304 1 0.515035 0.0958053 0.729581
393 1 0.32733 0.170502 0.841452
370 1 0.422153 0.101001 0.833527
41 1 0.654437 0.17238 1.01392
329 1 0.67989 0.174864 0.680819
302 1 0.596415 0.0943536 0.659333
401 1 0.683557 0.160264 0.832339
308 1 0.668265 0.0908074 0.748428
374 1 0.578961 0.0891834 0.840062
306 1 0.760325 0.105001 0.683235
333 1 0.842363 0.18119 0.662623
312 1 0.840692 0.0796848 0.745209
331 1 0.766601 0.165236 0.76506
426 1 0.745665 0.426752 0.834599
310 1 0.916786 0.0978407 0.675519
335 1 0.917072 0.166994 0.75328
405 1 0.838524 0.171877 0.835739
317 1 0.160835 0.157571 0.674105
339 1 0.0916821 0.33479 0.747781
316 1 1.00719 0.253709 0.734921
409 1 -0.00674961 0.321954 0.827496
385 1 0.990996 0.182238 0.828761
341 1 0.163642 0.344034 0.661745
318 1 0.235691 0.25867 0.670972
321 1 0.330851 0.157219 0.672416
320 1 0.165752 0.247478 0.757135
343 1 0.244566 0.33157 0.758038
324 1 0.324168 0.243018 0.747684
413 1 0.159955 0.342282 0.839336
323 1 0.409224 0.172634 0.737833
322 1 0.412889 0.248 0.659091
394 1 0.404334 0.232337 0.832449
325 1 0.499052 0.184213 0.65636
327 1 0.592761 0.164164 0.753059
326 1 0.582021 0.244429 0.670869
398 1 0.587379 0.233017 0.837187
328 1 0.496963 0.237129 0.750259
332 1 0.679708 0.25345 0.760248
357 1 0.852189 0.34752 0.67653
330 1 0.759323 0.233749 0.676281
336 1 0.846023 0.252305 0.74697
359 1 0.920369 0.350372 0.759086
406 1 0.913913 0.253869 0.835154
410 1 0.0767855 0.419658 0.830339
344 1 0.167188 0.41744 0.753501
383 1 0.915601 0.0047524 0.936816
414 1 0.242725 0.411608 0.836011
346 1 0.41171 0.413086 0.679508
347 1 0.423972 0.320674 0.758436
348 1 0.330711 0.413611 0.76204
352 1 0.48912 0.410261 0.769054
417 1 0.325212 0.335205 0.834692
350 1 0.569594 0.411456 0.678866
351 1 0.576072 0.312754 0.763953
421 1 0.485008 0.3279 0.847803
353 1 0.666299 0.327398 0.675364
356 1 0.667326 0.405496 0.75054
355 1 0.750343 0.342353 0.756255
354 1 0.758009 0.418826 0.669162
428 1 0.672941 0.406539 0.920754
430 1 0.913436 0.422284 0.836784
340 1 1.00594 0.419011 0.754763
358 1 0.920147 0.424491 0.685748
360 1 0.830126 0.43595 0.757568
427 1 0.751214 0.336709 0.908168
362 1 0.0785527 0.0855785 0.82459
262 1 0.907219 0.245313 0.500223
281 1 0.669026 0.340873 0.509596
389 1 0.155033 0.151963 0.836335
423 1 0.584824 0.330203 0.923696
368 1 0.161623 0.0650716 0.906329
366 1 0.247994 0.0790352 0.852106
391 1 0.238731 0.168487 0.923563
801 1 0.323399 0.494445 0.834067
253 1 0.501928 0.169047 0.51198
37 1 0.511154 0.170956 0.994404
372 1 0.330662 0.0723683 0.913738
250 1 0.423278 0.238621 0.497003
815 1 0.915535 0.502462 0.924217
376 1 0.495041 0.0840211 0.911184
380 1 0.672269 0.0933416 0.910268
378 1 0.772051 0.0790676 0.848011
403 1 0.752379 0.164625 0.912683
725 1 0.148214 0.496952 0.662099
424 1 0.486033 0.411891 0.912164
241 1 0.0132442 0.170314 0.504677
382 1 0.917694 0.0808979 0.838165
364 1 1.00262 0.0727427 0.917641
407 1 0.920888 0.173304 0.908238
384 1 0.846551 0.0916485 0.924743
58 1 0.393042 0.400065 1.0092
793 1 0.00335574 0.509882 0.84478
388 1 -0.0078093 0.263267 0.917453
411 1 0.0766654 0.343541 0.921492
387 1 0.0716749 0.164048 0.905538
386 1 0.0762451 0.260779 0.828372
238 1 0.938458 0.0764571 0.502078
392 1 0.155624 0.254159 0.907311
390 1 0.241853 0.248132 0.84574
396 1 0.320224 0.256037 0.924781
289 1 -0.00260592 0.00944331 0.671592
418 1 0.409116 0.412385 0.83727
395 1 0.424202 0.175 0.913531
400 1 0.518397 0.250933 0.923168
415 1 0.246154 0.334549 0.913416
399 1 0.598148 0.174624 0.923781
404 1 0.675294 0.247659 0.902987
420 1 0.324481 0.419121 0.910432
402 1 0.75977 0.249243 0.829687
431 1 0.914403 0.34578 0.925471
429 1 0.838524 0.341232 0.834403
408 1 0.839821 0.254317 0.912669
419 1 0.400492 0.332208 0.920601
425 1 0.651341 0.343231 0.838214
422 1 0.573548 0.414597 0.838468
416 1 0.176197 0.426884 0.92158
441 1 0.308603 0.491178 0.999893
278 1 0.581804 0.431818 0.505459
307 1 0.749648 0.00182911 0.765535
305 1 0.674876 0.0142741 0.671042
735 1 0.575575 0.501031 0.756406
799 1 0.241613 0.513164 0.911871
299 1 0.412513 0.00512593 0.762116
6 1 0.232044 0.0833821 0.992108
38 1 0.584351 0.26162 1.01487
242 1 0.0879742 0.258107 0.500677
29 1 0.158205 0.167573 0.991532
30 1 0.239682 0.25323 0.998931
222 1 0.252157 0.0829658 0.505266
10 1 0.4215 0.079899 0.985684
265 1 0.00111337 0.339872 0.510294
274 1 0.418904 0.423047 0.499238
18 1 0.754428 0.0934161 0.995033
50 1 0.0970818 0.422883 1.0027
246 1 0.256223 0.255935 0.503246
237 1 0.850772 -0.00898724 0.50116
261 1 0.833905 0.162168 0.495619
286 1 0.916656 0.437926 0.502744
9 1 0.331802 -0.0037369 0.986588
42 1 0.741363 0.240941 0.994855
270 1 0.254718 0.41836 0.516708
25 1 0.00699681 0.153614 0.996003
46 1 0.918966 0.263904 1.00791
33 1 0.336961 0.158715 0.976092
459 1 0.109228 0.667418 0.0922891
440 1 0.171288 0.58604 0.0925258
463 1 0.244239 0.676491 0.0800687
444 1 0.330104 0.574923 0.0865556
698 1 0.092528 0.90659 0.496777
533 1 0.174229 0.656145 0.176531
537 1 0.328357 0.665384 0.155483
467 1 0.418855 0.664974 0.076437
514 1 0.405009 0.58708 0.154153
646 1 0.921753 0.923029 0.325692
448 1 0.491849 0.585044 0.0663764
541 1 0.499127 0.680004 0.164553
435 1 0.0938615 0.511529 0.0885276
471 1 0.577692 0.668982 0.0652241
645 1 0.829023 0.82288 0.337962
518 1 0.565194 0.598402 0.14956
15 1 0.57839 0.990491 0.0658949
452 1 0.653676 0.585902 0.0757412
475 1 0.745699 0.675376 0.0764825
647 1 0.924884 0.82492 0.412508
91 1 0.772201 0.99252 0.239453
678 1 0.249262 0.75329 0.50336
456 1 0.826072 0.58925 0.0858247
436 1 0.00676496 0.590447 0.0745964
479 1 0.920416 0.673085 0.100553
529 1 0.015062 0.668344 0.170381
526 1 0.895844 0.58414 0.164107
509 1 0.173098 0.502028 0.18429
7 1 0.259404 0.993695 0.0715533
483 1 0.0730355 0.833121 0.0743735
530 1 0.0924563 0.740586 0.168193
165 1 0.838779 1.00205 0.344627
464 1 0.165846 0.753785 0.0857079
487 1 0.249079 0.83545 0.0819946
517 1 0.492973 0.499612 0.162125
468 1 0.3255 0.730096 0.0673834
538 1 0.408414 0.745329 0.171296
589 1 0.500891 0.510063 0.324302
702 1 0.258455 0.908673 0.496154
3 1 0.0879605 0.986727 0.07445
472 1 0.502666 0.750637 0.0800087
476 1 0.651639 0.74349 0.0873485
495 1 0.590735 0.835052 0.09218
542 1 0.574915 0.754471 0.175711
434 1 0.0895205 0.580534 0.00355257
499 1 0.729481 0.843561 0.0923998
480 1 0.824121 0.751776 0.0920068
573 1 0.814955 0.854364 0.164558
549 1 0.824936 0.678549 0.166058
546 1 0.750801 0.770173 0.174879
83 1 0.405384 1.00091 0.226051
23 1 0.918595 1.00256 0.0718521
167 1 0.936422 0.993149 0.419228
460 1 1.00105 0.757242 0.0789411
553 1 0.0139834 0.828285 0.173099
79 1 0.249661 1.00067 0.237204
153 1 0.340454 0.993686 0.324894
77 1 0.169352 1.006 0.158898
484 1 0.993154 0.908693 0.0846181
488 1 0.168134 0.906691 0.0783855
644 1 0.66942 0.918251 0.435444
521 1 0.650855 0.507665 0.158869
554 1 0.100137 0.927013 0.172013
85 1 0.512572 1.00486 0.151234
437 1 0.169577 0.506344 0.00137035
558 1 0.23207 0.915978 0.164044
648 1 0.8416 0.911559 0.406771
492 1 0.338737 0.913086 0.089156
451 1 0.749506 0.513169 0.0708286
491 1 0.420703 0.822079 0.0809804
561 1 0.3389 0.837764 0.163419
639 1 0.595777 0.839333 0.422416
640 1 0.517866 0.928944 0.428601
681 1 0.336426 0.657322 0.490375
565 1 0.512505 0.829859 0.170642
496 1 0.505591 0.90262 0.078657
638 1 0.583808 0.933331 0.332533
455 1 0.910908 0.506814 0.0831813
474 1 0.747706 0.74846 -0.00076218
500 1 0.660468 0.914188 0.0637417
504 1 0.826871 0.913382 0.0781075
503 1 0.914758 0.840029 0.0800328
447 1 0.562967 0.503741 0.0768773
506 1 0.0887032 0.587518 0.177304
508 1 0.999901 0.589406 0.251769
531 1 0.0854718 0.669376 0.249154
578 1 0.0851889 0.599104 0.328524
510 1 0.256647 0.582134 0.179694
512 1 0.161962 0.587771 0.261041
535 1 0.255825 0.679473 0.245257
582 1 0.2716 0.603584 0.341299
623 1 0.895333 0.670803 0.418747
581 1 0.156904 0.489635 0.35213
516 1 0.33512 0.613095 0.250023
520 1 0.499013 0.589075 0.23055
614 1 0.581407 0.746897 0.316423
616 1 0.506807 0.758952 0.412462
543 1 0.57793 0.666745 0.24267
522 1 0.746747 0.59093 0.159131
524 1 0.653076 0.603377 0.238716
528 1 0.834979 0.582728 0.25149
598 1 0.920551 0.591893 0.323794
551 1 0.923521 0.671413 0.237744
621 1 0.830425 0.664922 0.332348
555 1 0.0884854 0.835803 0.260075
536 1 0.169895 0.749146 0.241561
625 1 0.00138968 0.834738 0.337025
602 1 0.0840727 0.755803 0.335201
629 1 0.177498 0.820974 0.327709
557 1 0.154568 0.831212 0.17827
534 1 0.243962 0.748802 0.158911
540 1 0.33759 0.750403 0.252646
609 1 0.345765 0.686487 0.328466
539 1 0.430687 0.668706 0.259136
544 1 0.493382 0.757294 0.254206
610 1 0.426767 0.761616 0.332099
567 1 0.580573 0.837228 0.251028
548 1 0.662678 0.750449 0.243686
641 1 0.663049 0.86359 0.336288
613 1 0.507981 0.678391 0.342488
545 1 0.663489 0.663642 0.157811
547 1 0.75031 0.663011 0.253139
569 1 0.650625 0.833782 0.180503
571 1 0.745026 0.845029 0.260195
618 1 0.745943 0.740397 0.326053
550 1 0.901624 0.772176 0.162646
552 1 0.823868 0.754242 0.24574
532 1 0.00824822 0.753251 0.24563
622 1 0.908669 0.744745 0.33013
585 1 0.342489 0.505957 0.332149
626 1 0.076052 0.925331 0.330614
556 1 0.00593718 0.92292 0.246543
649 1 1.01191 0.525146 0.496516
559 1 0.243916 0.827265 0.238487
560 1 0.183535 0.917111 0.257699
630 1 0.254908 0.913594 0.341852
562 1 0.424045 0.90658 0.157738
636 1 0.342928 0.921912 0.410356
620 1 0.656826 0.742911 0.435877
563 1 0.420154 0.840469 0.239517
564 1 0.326059 0.918471 0.243533
634 1 0.428238 0.922117 0.313178
583 1 0.258666 0.508717 0.403329
151 1 0.260955 0.997682 0.415452
568 1 0.503696 0.924279 0.240654
566 1 0.583171 0.92995 0.171999
570 1 0.731537 0.930984 0.158548
642 1 0.756144 0.923366 0.33898
572 1 0.661767 0.920866 0.249902
591 1 0.593809 0.504418 0.419661
575 1 0.934279 0.834243 0.25171
574 1 0.91575 0.918499 0.174153
576 1 0.836781 0.911422 0.261556
637 1 0.513088 0.841962 0.331181
603 1 0.0815467 0.666747 0.41048
584 1 0.174225 0.590553 0.394844
605 1 0.18216 0.674848 0.320897
507 1 0.0809629 0.503939 0.252104
607 1 0.261252 0.672098 0.416869
643 1 0.739087 0.811504 0.411284
635 1 0.424709 0.852164 0.406783
586 1 0.439056 0.592445 0.33902
588 1 0.350369 0.5757 0.410669
592 1 0.518603 0.582389 0.417189
590 1 0.581663 0.582951 0.324004
617 1 0.666433 0.662074 0.334147
596 1 0.681583 0.582055 0.402632
615 1 0.588028 0.663294 0.423609
604 1 -0.00747433 0.750094 0.412116
632 1 0.164678 0.902869 0.398071
631 1 0.268786 0.832838 0.426487
628 1 0.00521358 0.913698 0.416522
594 1 0.767495 0.56996 0.331704
619 1 0.755508 0.664803 0.415116
633 1 0.338805 0.847794 0.321822
600 1 0.832528 0.583416 0.416156
580 1 1.00808 0.588232 0.410668
627 1 0.0898832 0.837917 0.409324
608 1 0.169361 0.758095 0.418274
601 1 1.0052 0.675851 0.314988
611 1 0.414955 0.683379 0.415119
606 1 0.260785 0.757592 0.338996
624 1 0.820544 0.752251 0.414845
612 1 0.339632 0.761698 0.443135
155 1 0.415763 1.01217 0.417882
525 1 0.825433 0.48553 0.178364
505 1 0.994544 0.527253 0.166139
145 1 1.00464 1.00353 0.333033
11 1 0.413128 0.995667 0.0591896
89 1 0.655232 1.01044 0.153911
673 1 -0.00778613 0.667083 0.495104
515 1 0.396018 0.501336 0.244692
511 1 0.251765 0.500569 0.265596
519 1 0.569594 0.508321 0.251596
599 1 0.919844 0.508739 0.413086
498 1 0.749243 0.911957 -0.0197888
694 1 0.912159 0.755016 0.501622
450 1 0.739683 0.591268 -0.00793491
477 1 0.837798 0.673044 0.000908983
670 1 0.912676 0.590184 0.486805
1 1 0.995927 0.988252 0.00373358
502 1 0.908048 0.907737 -0.00571524
650 1 0.103073 0.58648 0.477993
490 1 0.424066 0.909068 -0.000961993
674 1 0.0918515 0.745384 0.487296
714 1 0.761161 0.924274 0.498975
442 1 0.406734 0.585204 -0.00215482
465 1 0.329476 0.657539 -0.0156475
454 1 0.901928 0.595473 0.00330349
217 1 0.0182247 0.989305 0.503684
446 1 0.570738 0.584644 -0.0155881
493 1 0.486633 0.822188 -0.00992749
709 1 0.507172 0.841804 0.493544
658 1 0.420634 0.576862 0.498402
453 1 0.835643 0.494793 -0.0068914
457 1 -0.00163803 0.667941 0.00394904
486 1 0.243251 0.907622 -0.0098453
701 1 0.180585 0.828159 0.500706
654 1 0.260098 0.571059 0.503023
862 1 0.924604 0.897159 0.830812
795 1 0.087657 0.516328 0.920025
311 1 0.91994 0.985553 0.74605
462 1 0.241258 0.753084 0.989289
656 1 0.172357 0.581493 0.582148
726 1 0.266121 0.581557 0.663945
489 1 0.335656 0.839353 1.01183
662 1 0.596497 0.581717 0.513213
697 1 0.00648251 0.838835 0.498754
660 1 0.332575 0.571526 0.588135
497 1 0.660466 0.834129 1.00876
730 1 0.408042 0.584374 0.675566
739 1 0.734931 0.512275 0.747104
664 1 0.51646 0.578838 0.579902
668 1 0.673133 0.570706 0.59559
807 1 0.56731 0.496045 0.916168
295 1 0.245444 0.991152 0.741544
743 1 0.912095 0.510044 0.770023
672 1 0.82742 0.594385 0.572814
473 1 0.662357 0.672869 0.987635
864 1 0.843452 0.917894 0.912499
655 1 0.251642 0.497808 0.588651
652 1 0.00455735 0.57139 0.594691
695 1 0.901145 0.671267 0.563148
667 1 0.746096 0.49634 0.588298
223 1 0.232777 0.998368 0.583996
666 1 0.742467 0.578853 0.49702
219 1 0.0844859 0.9885 0.583673
675 1 0.0849931 0.652053 0.565511
676 1 1.00175 0.744362 0.568048
699 1 0.0830743 0.820471 0.578605
746 1 0.0848379 0.735687 0.65138
769 1 0.996039 0.821077 0.655596
745 1 0.998333 0.658735 0.671202
773 1 0.17767 0.819413 0.661955
679 1 0.26183 0.661753 0.587454
680 1 0.168695 0.737548 0.573176
684 1 0.344809 0.749015 0.562382
703 1 0.262789 0.818472 0.582716
753 1 0.334178 0.669263 0.681535
750 1 0.260569 0.743282 0.664634
683 1 0.41189 0.652668 0.590673
688 1 0.493434 0.734166 0.586311
754 1 0.415064 0.753496 0.65569
301 1 0.496626 1.0031 0.669431
651 1 0.0864451 0.507955 0.559412
687 1 0.570874 0.662473 0.590482
711 1 0.568297 0.831509 0.584399
758 1 0.582585 0.744095 0.664402
692 1 0.655417 0.74637 0.590678
785 1 0.648274 0.84248 0.667282
691 1 0.740801 0.666152 0.58249
715 1 0.754023 0.829654 0.59074
696 1 0.841015 0.75758 0.600953
719 1 0.913833 0.836099 0.591724
671 1 0.918463 0.504439 0.584623
375 1 0.581193 0.985749 0.917377
811 1 0.743605 0.504263 0.919305
858 1 0.752781 0.919577 0.835319
770 1 0.0961123 0.889329 0.658841
704 1 0.171159 0.910275 0.580093
805 1 0.493833 0.493334 0.833704
857 1 0.66062 0.820367 0.827536
774 1 0.241037 0.90554 0.662542
777 1 0.333932 0.824454 0.670792
708 1 0.337397 0.91284 0.596394
373 1 0.49787 1.01427 0.823844
707 1 0.435151 0.839173 0.575595
778 1 0.41928 0.904544 0.668616
712 1 0.492245 0.925744 0.581455
781 1 0.505738 0.841829 0.670142
854 1 0.594982 0.917601 0.837542
782 1 0.579145 0.921263 0.654938
830 1 0.579832 0.738309 0.836261
831 1 0.571739 0.656731 0.910142
716 1 0.669035 0.915805 0.57446
720 1 0.838537 0.90784 0.587355
860 1 0.673192 0.896284 0.903437
445 1 0.482623 0.499341 0.998546
700 1 -0.00370729 0.910475 0.582671
790 1 0.921672 0.910799 0.674999
377 1 0.66444 1.00019 0.837136
855 1 0.577473 0.823853 0.917653
797 1 0.158368 0.488966 0.835232
722 1 0.091968 0.580422 0.663792
794 1 0.0775081 0.593333 0.835973
852 1 0.325774 0.904142 0.914085
728 1 0.181414 0.58138 0.726115
732 1 0.33187 0.575646 0.759763
828 1 0.322048 0.741554 0.915343
856 1 0.502802 0.914646 0.91824
755 1 0.40999 0.653263 0.755081
802 1 0.410523 0.58109 0.841017
851 1 0.409332 0.830969 0.914765
734 1 0.58988 0.574607 0.671817
736 1 0.494325 0.579103 0.752367
757 1 0.496708 0.655914 0.667188
847 1 0.242669 0.832541 0.91613
381 1 0.84375 0.990798 0.832908
723 1 0.0822211 0.497097 0.744377
740 1 0.65913 0.587798 0.759341
738 1 0.750073 0.581069 0.665234
810 1 0.738395 0.584647 0.835518
824 1 0.163727 0.740788 0.904865
724 1 0.00388537 0.578076 0.738768
742 1 0.922124 0.585386 0.664029
744 1 0.834261 0.572712 0.76727
817 1 -0.0126521 0.662892 0.828784
677 1 0.176513 0.660567 0.482071
827 1 0.42002 0.659672 0.920505
747 1 0.0877609 0.66072 0.741037
749 1 0.167524 0.673469 0.653563
752 1 0.167738 0.748305 0.74638
821 1 0.15868 0.669876 0.820223
818 1 0.0752322 0.728708 0.824261
751 1 0.254343 0.659138 0.753468
822 1 0.246631 0.749038 0.829283
756 1 0.33078 0.741702 0.752652
760 1 0.493142 0.734429 0.737632
849 1 0.320703 0.827382 0.829198
829 1 0.494484 0.669857 0.835922
761 1 0.665418 0.664157 0.659781
759 1 0.570431 0.657521 0.7531
783 1 0.576109 0.825334 0.750036
765 1 0.822046 0.668921 0.66174
763 1 0.740991 0.661919 0.74781
762 1 0.735571 0.743357 0.67216
764 1 0.648411 0.728991 0.744889
837 1 0.825164 0.666256 0.847838
766 1 0.915766 0.737766 0.67216
861 1 0.828153 0.82364 0.823411
748 1 -0.00591423 0.731891 0.746428
767 1 0.909408 0.644652 0.751067
768 1 0.831877 0.735176 0.758596
838 1 0.913545 0.739109 0.821482
365 1 0.170721 0.99058 0.831169
771 1 0.0856341 0.819182 0.737266
842 1 0.0751374 0.920064 0.830627
825 1 0.33388 0.658118 0.846395
772 1 0.0113592 0.913664 0.737253
776 1 0.168404 0.918312 0.746769
775 1 0.252478 0.83202 0.747979
780 1 0.331299 0.915801 0.748743
826 1 0.403146 0.741882 0.837937
779 1 0.425155 0.835597 0.754674
784 1 0.515697 0.921688 0.759371
850 1 0.416089 0.9144 0.83169
848 1 0.154084 0.906362 0.905786
839 1 0.904622 0.665501 0.914076
859 1 0.757108 0.82255 0.912897
788 1 0.648336 0.917367 0.746296
853 1 0.508665 0.829518 0.827206
834 1 0.747716 0.752869 0.83132
789 1 0.828781 0.83954 0.672953
786 1 0.733013 0.909412 0.6735
787 1 0.736714 0.832929 0.74997
791 1 0.920005 0.81642 0.752851
792 1 0.843934 0.911329 0.750201
840 1 0.8214 0.751989 0.9139
846 1 0.249173 0.916846 0.824226
800 1 0.159569 0.595477 0.917836
863 1 0.897932 0.817794 0.914425
843 1 0.0752556 0.80638 0.903096
844 1 0.994127 0.912153 0.905001
820 1 0.988492 0.74646 0.916622
798 1 0.256806 0.585688 0.836918
823 1 0.242854 0.658613 0.92254
804 1 0.336943 0.577525 0.912588
841 1 0.00834072 0.814352 0.825155
836 1 0.670556 0.770493 0.920995
845 1 0.155118 0.828311 0.810685
819 1 0.0745522 0.66224 0.916174
814 1 0.913312 0.579692 0.852866
808 1 0.497 0.574606 0.912055
806 1 0.580945 0.587979 0.832068
833 1 0.667678 0.677147 0.835856
812 1 0.662315 0.582621 0.912479
835 1 0.737684 0.665941 0.911126
816 1 0.827286 0.580307 0.915187
832 1 0.492645 0.744594 0.924514
733 1 0.482355 0.497689 0.677764
796 1 -0.0043625 0.593122 0.926915
501 1 0.836334 0.826633 1.00844
449 1 0.663072 0.50582 0.989367
227 1 0.406865 0.995522 0.596226
235 1 0.75456 1.01008 0.579131
741 1 0.839233 0.497149 0.667342
737 1 0.657722 0.482704 0.674126
813 1 0.824354 0.492962 0.840918
367 1 0.248487 0.994908 0.91754
379 1 0.752584 0.997426 0.905985
727 1 0.240118 0.499748 0.752395
721 1 1.00568 0.495568 0.67044
369 1 0.327712 0.992089 0.833657
297 1 0.319621 1.00816 0.660811
291 1 0.0750729 1.00915 0.753614
239 1 0.931275 1.00334 0.59281
371 1 0.408675 0.992558 0.904595
293 1 0.162768 0.994408 0.673147
803 1 0.398441 0.491607 0.937162
13 1 0.495056 0.983588 0.989949
5 1 0.158388 0.9906 0.995351
661 1 0.503937 0.508792 0.50253
682 1 0.435805 0.755369 0.489395
309 1 0.818094 0.994081 0.672298
718 1 0.920831 0.907628 0.491021
686 1 0.56917 0.746862 0.518858
17 1 0.670836 0.991511 0.968824
685 1 0.500252 0.658822 0.501233
461 1 0.173585 0.662252 1.00517
21 1 0.834915 0.995446 1.00188
470 1 0.583936 0.746732 0.993746
438 1 0.251863 0.586036 0.998446
710 1 0.584071 0.918304 0.513073
482 1 0.0824708 0.905155 0.992116
657 1 0.340168 0.509339 0.493458
689 1 0.667045 0.657679 0.484343
485 1 0.160503 0.831866 0.990848
713 1 0.67203 0.832725 0.498671
690 1 0.731695 0.750093 0.513675
705 1 0.34294 0.845513 0.51123
717 1 0.817292 0.826544 0.505726
478 1 0.916966 0.755372 1.00501
225 1 0.331638 0.990177 0.522706
494 1 0.574718 0.899941 0.993528
481 1 0.997385 0.829673 0.989337
693 1 0.820453 0.684237 0.504103
229 1 0.514033 1.01155 0.514267
458 1 0.0807956 0.750244 1.00116
469 1 0.502582 0.666168 0.998569
466 1 0.406256 0.743494 0.996902
221 1 0.156246 1.0026 0.488088
706 1 0.422263 0.921078 0.49848
