ITEM: TIMESTEP
7750
ITEM: NUMBER OF ATOMS
864
ITEM: BOX BOUNDS pp pp pp
0.0000000000000000e+00 3.1559999999999999e+01
0.0000000000000000e+00 3.1559999999999999e+01
0.0000000000000000e+00 3.1559999999999999e+01
ITEM: ATOMS id type xs ys zs
8 1 0.187826 0.08581 0.0876261
4 1 0.00801884 0.087521 0.0737474
74 1 0.0860447 0.0866012 0.160491
31 1 0.252919 0.171351 0.0838166
12 1 0.335765 0.0970465 0.0829737
443 1 0.428472 0.49621 0.08672
78 1 0.256354 0.0847735 0.161904
577 1 0.994728 0.493996 0.332529
109 1 0.513586 0.180801 0.17415
35 1 0.424278 0.161577 0.0720641
82 1 0.414313 0.0847336 0.169328
507 1 0.0721865 0.498458 0.250573
16 1 0.506879 0.0962898 0.108862
20 1 0.665702 0.0697673 0.0958531
86 1 0.589141 0.0881308 0.190042
113 1 0.678661 0.157233 0.165465
589 1 0.495843 0.490925 0.339887
43 1 0.750397 0.169162 0.0858112
597 1 0.831785 0.49575 0.334836
161 1 0.661924 0.00741115 0.335606
262 1 0.909894 0.24793 0.492307
24 1 0.839208 0.0981895 0.0857496
47 1 0.931721 0.1692 0.0833027
117 1 0.838287 0.168097 0.169804
23 1 0.920036 0.0159347 0.0843619
27 1 0.0653663 0.173549 0.0857166
581 1 0.147775 0.500656 0.337156
28 1 0.992454 0.259264 0.0691484
98 1 0.0777261 0.237506 0.169596
32 1 0.166928 0.222907 0.0929123
97 1 0.989608 0.169968 0.172195
125 1 0.167536 0.337706 0.162035
102 1 0.250641 0.259757 0.158285
277 1 0.496699 0.335147 0.499867
36 1 0.342894 0.246179 0.0673908
40 1 0.490398 0.248395 0.0809135
106 1 0.403341 0.246303 0.16745
3 1 0.0890373 0.0115625 0.0778347
39 1 0.584263 0.157511 0.0858421
110 1 0.583756 0.255204 0.178862
133 1 0.493762 0.333461 0.165965
7 1 0.261725 -0.000205734 0.0762985
44 1 0.669578 0.247589 0.104165
114 1 0.74606 0.243902 0.186109
505 1 -0.00205081 0.499888 0.159277
48 1 0.831735 0.25369 0.106498
77 1 0.176439 0.00559388 0.164322
51 1 0.0915646 0.312049 0.0945359
56 1 0.177992 0.435329 0.0802519
121 1 -0.000188994 0.327921 0.170905
122 1 0.0713045 0.415345 0.14839
55 1 0.247761 0.338057 0.0874805
661 1 0.489442 0.487993 0.494892
53 1 0.169046 0.350744 0.0145648
59 1 0.416891 0.339452 0.0786324
60 1 0.340577 0.434567 0.0677883
63 1 0.590299 0.321175 0.0918472
64 1 0.5001 0.41522 0.0793915
137 1 0.662769 0.335093 0.167661
67 1 0.746188 0.3276 0.0766914
68 1 0.663028 0.419236 0.0942942
138 1 0.743522 0.415888 0.171768
72 1 0.837753 0.420092 0.0865543
269 1 0.147919 0.323776 0.495665
141 1 0.843811 0.335274 0.170869
52 1 0.994638 0.390548 0.0782402
71 1 0.90772 0.323894 0.0811253
142 1 0.914409 0.417989 0.164296
50 1 0.0869814 0.408472 0.0108734
193 1 0.992769 0.337539 0.329555
80 1 0.155649 0.0768898 0.24075
99 1 0.0718603 0.161333 0.245877
146 1 0.0811897 0.0749012 0.334456
85 1 0.506009 0.00196926 0.165841
150 1 0.260123 0.0680352 0.348421
105 1 0.331859 0.163576 0.171745
103 1 0.242595 0.144848 0.252144
254 1 0.572263 0.255118 0.485348
84 1 0.331273 0.0737454 0.259441
154 1 0.415348 0.0789938 0.326178
107 1 0.401882 0.164907 0.245689
88 1 0.486888 0.0871236 0.251539
158 1 0.579187 0.0767755 0.314828
185 1 0.674566 0.169673 0.338617
19 1 0.766509 0.0101748 0.0803586
261 1 0.836682 0.169523 0.500215
92 1 0.678857 0.0873201 0.270616
90 1 0.76937 0.0816792 0.165576
41 1 0.672672 0.173059 0.0108487
76 1 0.0127655 0.068385 0.238229
94 1 0.921819 0.0833791 0.177323
96 1 0.838016 0.0860713 0.257782
166 1 0.916061 0.0840028 0.3273
169 1 0.0100962 0.159738 0.329611
104 1 0.173328 0.251319 0.234194
101 1 0.176291 0.159237 0.17233
170 1 0.0829157 0.245349 0.318646
173 1 0.152398 0.154272 0.314175
127 1 0.244898 0.360249 0.238958
108 1 0.325976 0.246097 0.242383
201 1 0.341169 0.321059 0.32858
174 1 0.241349 0.233835 0.315947
129 1 0.327872 0.349173 0.151644
178 1 0.415235 0.245586 0.322327
131 1 0.412641 0.346506 0.24714
111 1 0.580573 0.173396 0.259249
112 1 0.500597 0.242918 0.252134
182 1 0.584375 0.246884 0.334205
115 1 0.756443 0.162726 0.258556
116 1 0.665931 0.259421 0.254553
186 1 0.758026 0.252879 0.334952
119 1 0.919833 0.162312 0.254454
100 1 0.993195 0.257329 0.263727
118 1 0.930769 0.255025 0.16527
120 1 0.836999 0.248811 0.249239
190 1 0.909492 0.250927 0.321379
214 1 0.916488 0.408939 0.329465
123 1 0.0798994 0.325856 0.238063
124 1 0.994886 0.418767 0.245441
196 1 0.991304 0.416505 0.417447
126 1 0.269157 0.439361 0.157885
128 1 0.150461 0.420612 0.230761
132 1 0.335288 0.421236 0.249645
198 1 0.235687 0.43179 0.325982
591 1 0.570899 0.494805 0.415001
216 1 0.843381 0.412652 0.412583
130 1 0.416759 0.423765 0.168353
205 1 0.480441 0.3305 0.333504
136 1 0.498286 0.420363 0.239456
145 1 -0.00028933 0.00716616 0.329036
134 1 0.580898 0.417149 0.166104
135 1 0.574027 0.338783 0.254417
140 1 0.662492 0.416821 0.24771
139 1 0.753434 0.333936 0.243122
213 1 0.832539 0.342538 0.313784
211 1 0.763236 0.346796 0.403344
143 1 0.919496 0.333946 0.250691
144 1 0.829751 0.426963 0.233222
81 1 0.33965 0.00593031 0.167284
519 1 0.572292 0.493712 0.257322
171 1 0.0842357 0.173303 0.417216
148 1 0.985764 0.0772458 0.416893
11 1 0.420645 0.0240878 0.0829789
2 1 0.101633 0.0979245 0.010877
165 1 0.840305 -0.00198387 0.333057
152 1 0.16024 0.0844613 0.423042
177 1 0.331916 0.166095 0.328266
525 1 0.847481 0.497165 0.162299
241 1 0.995572 0.150006 0.498536
209 1 0.666184 0.341743 0.332382
156 1 0.350913 0.0787754 0.410542
181 1 0.489734 0.160942 0.330634
29 1 0.17754 0.172549 -0.00165789
245 1 0.161337 0.166596 0.49852
160 1 0.47399 0.083051 0.416361
164 1 0.655172 0.0871693 0.413528
210 1 0.7492 0.412828 0.327461
286 1 0.918166 0.398615 0.493068
206 1 0.586916 0.415841 0.322487
189 1 0.833421 0.161901 0.325588
162 1 0.760043 0.0799742 0.347896
168 1 0.85092 0.0734495 0.413028
212 1 0.663108 0.438914 0.40698
191 1 0.913286 0.169145 0.406878
207 1 0.587346 0.335337 0.414816
91 1 0.74849 0.00644644 0.249577
176 1 0.171961 0.24108 0.400038
195 1 0.0740335 0.32219 0.412989
175 1 0.245838 0.167651 0.412536
184 1 0.493239 0.246144 0.411258
180 1 0.324539 0.239336 0.418528
179 1 0.407037 0.169022 0.417657
183 1 0.571324 0.140965 0.417583
188 1 0.66864 0.253745 0.403409
192 1 0.815253 0.253294 0.421655
187 1 0.742086 0.166342 0.417372
455 1 0.926986 0.483999 0.0672774
218 1 0.0723431 0.080925 0.497674
215 1 0.906608 0.319818 0.40369
172 1 0.993126 0.242533 0.407128
194 1 0.076362 0.404702 0.320538
200 1 0.159384 0.411989 0.405043
22 1 0.916562 0.0805491 -4.99889e-05
199 1 0.244439 0.321838 0.399892
204 1 0.317216 0.398434 0.420698
197 1 0.157456 0.330018 0.323017
208 1 0.485132 0.413707 0.41231
203 1 0.40924 0.321896 0.41857
202 1 0.403794 0.408783 0.338698
587 1 0.405019 0.490284 0.423202
282 1 0.753471 0.406633 0.491462
14 1 0.590812 0.0703381 0.0156166
65 1 0.661357 0.320984 0.00822852
149 1 0.173312 0.00455759 0.325832
281 1 0.669597 0.341805 0.47757
253 1 0.493681 0.169708 0.496538
285 1 0.831212 0.33305 0.491003
18 1 0.747161 0.08854 0.0139504
585 1 0.319076 0.491625 0.342212
95 1 0.922906 0.00491916 0.256108
583 1 0.242573 0.490926 0.416102
230 1 0.580636 0.0695764 0.499577
453 1 0.849537 0.488183 -0.00287837
451 1 0.759603 0.494291 0.0994463
265 1 0.992144 0.328718 0.493872
515 1 0.418073 0.500674 0.262917
579 1 0.0724935 0.501149 0.416611
42 1 0.74321 0.250397 0.0100721
274 1 0.411817 0.403386 0.499948
62 1 0.580465 0.40269 0.00700111
221 1 0.175997 0.00857054 0.491322
45 1 0.82904 0.172695 0.0177294
222 1 0.247028 0.0969803 0.493678
30 1 0.26001 0.252322 0.00390387
433 1 0.00900551 0.488974 0.00456031
66 1 0.743642 0.429267 0.0145486
445 1 0.503777 0.493702 0.0126071
6 1 0.261012 0.092788 0.00804163
234 1 0.739351 0.0793505 0.494321
257 1 0.645884 0.170985 0.492756
57 1 0.330326 0.326852 -0.00140091
61 1 0.500357 0.335539 0.00728672
238 1 0.911045 0.0814859 0.49076
649 1 0.99658 0.499499 0.485397
242 1 0.0744825 0.243187 0.492275
224 1 0.166308 0.0880848 0.57656
220 1 0.00637258 0.086733 0.590958
54 1 0.25913 0.407807 1.00155
228 1 0.334018 0.08061 0.588576
294 1 0.254016 0.0714198 0.664781
309 1 0.839282 0.0109579 0.679531
431 1 0.926119 0.35046 0.904828
251 1 0.416237 0.167116 0.581823
298 1 0.440098 0.0693013 0.671191
232 1 0.510084 0.0796413 0.581542
743 1 0.917832 0.490747 0.738559
236 1 0.668776 0.0791597 0.578468
813 1 0.835357 0.487692 0.826531
815 1 0.911151 0.491065 0.900417
325 1 0.516085 0.171828 0.658687
240 1 0.822453 0.0867491 0.577972
793 1 0.00176996 0.492619 0.817909
310 1 0.926554 0.0595802 0.67414
369 1 0.33075 0.00653213 0.842531
270 1 0.234459 0.401081 0.508492
432 1 0.832453 0.413088 0.915155
239 1 0.900267 0.00991638 0.579451
243 1 0.0721586 0.165299 0.571365
38 1 0.592029 0.242528 0.993977
248 1 0.1753 0.254264 0.580419
247 1 0.262751 0.16685 0.582442
252 1 0.334801 0.240245 0.590042
321 1 0.338052 0.150692 0.677597
271 1 0.258031 0.333951 0.613435
653 1 0.168261 0.488832 0.509527
671 1 0.925966 0.495341 0.579551
256 1 0.509452 0.245082 0.578306
275 1 0.420312 0.325178 0.583569
13 1 0.497973 0.00181031 1.00161
37 1 0.507152 0.162642 0.992725
255 1 0.583262 0.17539 0.578264
326 1 0.583303 0.267297 0.670294
260 1 0.654543 0.258464 0.564156
353 1 0.66572 0.332883 0.639948
246 1 0.250668 0.240622 0.503078
733 1 0.500343 0.48884 0.666183
259 1 0.744897 0.167998 0.573821
283 1 0.759496 0.331881 0.577689
357 1 0.827501 0.331945 0.656293
651 1 0.0736803 0.499433 0.573267
291 1 0.0655951 0.00456266 0.746315
263 1 0.914621 0.14614 0.572492
264 1 0.837158 0.261804 0.569662
223 1 0.241781 0.0102622 0.585327
244 1 0.993179 0.232712 0.572631
287 1 0.936015 0.330035 0.574454
70 1 0.923222 0.403111 0.993293
267 1 0.0753384 0.333095 0.588522
338 1 0.0856965 0.423313 0.660533
268 1 0.0102817 0.416339 0.582713
272 1 0.152216 0.40254 0.587909
276 1 0.327036 0.419333 0.593742
428 1 0.664135 0.427562 0.911658
371 1 0.417596 0.00360347 0.914566
280 1 0.492245 0.420464 0.585133
349 1 0.491826 0.339124 0.669076
367 1 0.252053 0.0171978 0.921038
721 1 1.00082 0.485336 0.667338
416 1 0.174695 0.43172 0.921537
279 1 0.576004 0.342975 0.576052
284 1 0.664548 0.434611 0.570259
412 1 0.000631212 0.413581 0.894556
350 1 0.600497 0.427264 0.64521
723 1 0.0867452 0.496029 0.738009
354 1 0.740306 0.416088 0.644597
406 1 0.906386 0.251617 0.861731
25 1 0.994759 0.170909 0.994852
288 1 0.826741 0.413366 0.577944
337 1 0.00983861 0.341805 0.666855
290 1 0.0870841 0.0822997 0.667507
315 1 0.0758436 0.162396 0.750875
296 1 0.155922 0.0731156 0.754559
292 1 0.997856 0.0943079 0.771925
313 1 0.992432 0.165314 0.6735
385 1 0.991038 0.179615 0.830562
319 1 0.257095 0.14392 0.756085
422 1 0.584069 0.42525 0.831622
388 1 0.00107785 0.249838 0.910077
300 1 0.328096 0.0635851 0.749246
323 1 0.432693 0.174642 0.74483
370 1 0.423713 0.0857054 0.829978
302 1 0.5902 0.0916465 0.66222
329 1 0.664831 0.168848 0.65424
304 1 0.507409 0.0852951 0.74044
374 1 0.596648 0.0750426 0.844987
397 1 0.51507 0.155866 0.819405
401 1 0.668029 0.162799 0.825908
811 1 0.756583 0.498403 0.919946
308 1 0.665924 0.0887841 0.748197
306 1 0.743714 0.0821252 0.658157
331 1 0.74441 0.166517 0.750995
333 1 0.832269 0.157238 0.681437
410 1 0.0977497 0.406364 0.811611
312 1 0.838034 0.0914783 0.770409
335 1 0.90991 0.179301 0.747729
314 1 0.0762862 0.247938 0.65301
386 1 0.0807283 0.243673 0.832142
317 1 0.174367 0.156026 0.663903
320 1 0.167194 0.240135 0.746379
318 1 0.27225 0.241905 0.673701
324 1 0.35446 0.255468 0.751956
393 1 0.342673 0.174751 0.820631
322 1 0.423486 0.240757 0.658771
347 1 0.419898 0.34347 0.750083
327 1 0.596531 0.172246 0.752755
328 1 0.507385 0.261754 0.741895
332 1 0.668246 0.252521 0.739884
330 1 0.747359 0.252938 0.648304
355 1 0.745658 0.334237 0.718958
336 1 0.828604 0.257292 0.732502
334 1 0.909745 0.244549 0.651233
409 1 0.00271704 0.318165 0.819446
316 1 0.00119596 0.249038 0.747898
359 1 0.917759 0.321701 0.744223
341 1 0.169825 0.31005 0.667938
339 1 0.0864445 0.328777 0.742436
344 1 0.167749 0.424804 0.730894
340 1 0.0122565 0.404919 0.752587
345 1 0.356173 0.333245 0.661246
343 1 0.265101 0.318875 0.748872
342 1 0.264696 0.427427 0.684258
421 1 0.515691 0.337602 0.81939
346 1 0.421306 0.429787 0.662629
348 1 0.330794 0.414215 0.773333
418 1 0.430003 0.424581 0.829779
352 1 0.513304 0.429055 0.75505
351 1 0.606148 0.348649 0.747732
659 1 0.408139 0.499085 0.576359
426 1 0.753542 0.423236 0.844022
356 1 0.683045 0.416829 0.741113
360 1 0.828527 0.409364 0.75913
729 1 0.33945 0.495499 0.672652
430 1 0.91761 0.412963 0.820892
231 1 0.585812 0.00709632 0.582487
358 1 0.92335 0.400804 0.65106
795 1 0.0808996 0.484819 0.910451
362 1 0.0753687 0.0797925 0.84493
364 1 0.999555 0.0809399 0.930675
237 1 0.822226 0.00414055 0.496932
366 1 0.242844 0.0749096 0.837553
368 1 0.162109 0.0870496 0.920276
391 1 0.249418 0.173341 0.901505
405 1 0.818917 0.169454 0.834561
420 1 0.35718 0.412599 0.906497
372 1 0.330116 0.0947774 0.897794
395 1 0.431395 0.164127 0.910836
376 1 0.504945 0.0818025 0.902468
424 1 0.5109 0.427363 0.913556
399 1 0.600795 0.174332 0.923299
26 1 0.10847 0.263678 0.995614
417 1 0.318522 0.337115 0.846222
378 1 0.74839 0.0755348 0.835041
380 1 0.670709 0.065226 0.939075
384 1 0.823269 0.0718023 0.928259
33 1 0.343334 0.172751 0.994027
382 1 0.915858 0.0804682 0.845084
407 1 0.891355 0.163277 0.921933
389 1 0.157475 0.167191 0.832326
411 1 0.0910859 0.342196 0.901566
387 1 0.0827898 0.172542 0.920722
392 1 0.172542 0.247649 0.90936
408 1 0.813592 0.258566 0.912755
390 1 0.260167 0.244432 0.81536
225 1 0.322109 0.00684594 0.519656
394 1 0.434608 0.238923 0.826161
419 1 0.427894 0.333503 0.917819
396 1 0.334343 0.250642 0.912323
400 1 0.500742 0.252921 0.911506
414 1 0.228361 0.407877 0.819336
413 1 0.165805 0.320043 0.818635
365 1 0.157187 0.00199347 0.834816
425 1 0.675855 0.344495 0.841522
46 1 0.901477 0.264084 0.984751
423 1 0.581328 0.340285 0.904476
398 1 0.584806 0.241167 0.827369
415 1 0.239044 0.325234 0.919657
427 1 0.734155 0.347288 0.932634
404 1 0.673752 0.260717 0.913069
402 1 0.7464 0.259438 0.822987
403 1 0.744035 0.154029 0.915706
429 1 0.818718 0.332955 0.845878
217 1 0.989832 0.0129269 0.495898
655 1 0.247051 0.487934 0.591004
249 1 0.338291 0.1668 0.510169
299 1 0.41845 0.000567017 0.749131
49 1 0.00307044 0.337041 0.981076
381 1 0.841978 0.00421915 0.835502
741 1 0.821655 0.476602 0.661127
307 1 0.747456 -0.00212226 0.755012
799 1 0.263189 0.481449 0.905875
266 1 0.0817684 0.412767 0.504491
58 1 0.419372 0.422582 0.996131
10 1 0.418042 0.0891743 0.98851
226 1 0.420996 0.0810988 0.510818
69 1 0.821468 0.351596 0.992396
5 1 0.160221 0.00851597 0.991498
258 1 0.740832 0.250992 0.499172
250 1 0.42431 0.253844 0.508394
278 1 0.577428 0.42577 0.508041
9 1 0.344303 0.00957375 0.995894
34 1 0.423827 0.252023 0.989456
273 1 0.323632 0.331551 0.517605
506 1 0.0754326 0.580083 0.176487
459 1 0.0893269 0.656079 0.091982
694 1 0.918573 0.758265 0.492601
646 1 0.916223 0.913419 0.33265
498 1 0.74157 0.911798 0.0285375
440 1 0.173129 0.583693 0.100799
501 1 0.835622 0.844691 0.010526
510 1 0.257126 0.580183 0.169659
444 1 0.338421 0.589109 0.0780533
151 1 0.253973 0.996869 0.421437
477 1 0.84392 0.663441 0.0111236
448 1 0.490496 0.584582 0.0812605
452 1 0.660757 0.590324 0.0933141
517 1 0.512843 0.516286 0.164171
677 1 0.165001 0.683148 0.491378
657 1 0.321876 0.50122 0.498351
83 1 0.414737 0.994135 0.25458
522 1 0.768613 0.577744 0.157138
456 1 0.851034 0.573615 0.0870381
436 1 0.00193843 0.583311 0.0889928
89 1 0.658218 0.995506 0.186063
693 1 0.835756 0.684659 0.488974
526 1 0.927661 0.589014 0.163806
460 1 0.999161 0.744918 0.104066
483 1 0.0967803 0.843848 0.0840309
530 1 0.090922 0.750793 0.157904
464 1 0.183275 0.743609 0.0927976
163 1 0.755346 0.994707 0.420757
463 1 0.248068 0.662947 0.0768302
75 1 0.0856398 0.993594 0.239457
487 1 0.253338 0.82852 0.0839417
468 1 0.322263 0.744367 0.0898241
467 1 0.40871 0.666842 0.085833
491 1 0.403928 0.825587 0.0817745
472 1 0.490057 0.744039 0.0881992
17 1 0.66556 0.988083 0.0183541
1 1 0.0057554 0.992956 0.00695733
471 1 0.565602 0.667471 0.0707566
476 1 0.653886 0.742166 0.0824645
549 1 0.836989 0.665839 0.170957
475 1 0.755576 0.672557 0.094492
499 1 0.736996 0.823866 0.0793343
545 1 0.662512 0.678604 0.164636
546 1 0.749718 0.743377 0.175775
479 1 0.922808 0.660285 0.0883323
480 1 0.830233 0.750074 0.0912499
511 1 0.246086 0.505382 0.252283
488 1 0.166902 0.927731 0.0812634
484 1 0.00842416 0.909161 0.0808627
665 1 0.650388 0.506366 0.496928
669 1 0.840067 0.504944 0.503354
492 1 0.329984 0.909014 0.0844467
434 1 0.0770034 0.570264 -0.00174779
709 1 0.50197 0.834884 0.499963
523 1 0.752701 0.509112 0.24446
496 1 0.495416 0.919866 0.0782722
502 1 0.928913 0.913573 0.00475817
153 1 0.342695 0.995072 0.337069
495 1 0.55756 0.827512 0.0806283
566 1 0.563671 0.911723 0.163252
513 1 0.348841 0.508372 0.14947
573 1 0.829335 0.849023 0.173144
500 1 0.661186 0.921146 0.113478
504 1 0.841534 0.917025 0.0979292
93 1 0.845086 0.998496 0.178291
147 1 0.0744861 1.00255 0.42543
503 1 0.915811 0.831634 0.0912129
574 1 0.922258 0.914827 0.173895
509 1 0.179528 0.498541 0.163743
529 1 0.011369 0.662097 0.174651
578 1 0.078288 0.583089 0.334139
512 1 0.163545 0.577134 0.259544
531 1 0.0930015 0.648765 0.249077
167 1 0.914557 0.989897 0.425625
535 1 0.260356 0.665027 0.253327
516 1 0.339858 0.577662 0.256515
533 1 0.177974 0.661675 0.188026
582 1 0.254481 0.577423 0.326457
648 1 0.82778 0.916479 0.419875
514 1 0.418707 0.587176 0.17179
609 1 0.329775 0.668444 0.338947
650 1 0.0654981 0.596119 0.490265
518 1 0.579759 0.606183 0.166773
520 1 0.504693 0.571196 0.255031
590 1 0.571866 0.572827 0.346593
670 1 0.92093 0.582168 0.485065
497 1 0.657165 0.832427 0.0093344
524 1 0.66909 0.591572 0.249066
621 1 0.828808 0.676983 0.336386
547 1 0.755253 0.657941 0.26987
73 1 0.991437 0.994247 0.163074
447 1 0.594888 0.506878 0.0827189
508 1 0.985549 0.580053 0.255724
528 1 0.831263 0.582563 0.249161
446 1 0.581813 0.586213 0.000211438
536 1 0.150648 0.754843 0.250893
532 1 0.0172456 0.751683 0.245337
555 1 0.100016 0.856667 0.242393
557 1 0.173042 0.828781 0.172894
601 1 0.00634691 0.676311 0.322978
605 1 0.162979 0.661034 0.345146
534 1 0.251341 0.753178 0.179994
559 1 0.258417 0.852114 0.245202
537 1 0.329991 0.654161 0.167953
538 1 0.401194 0.7337 0.174114
539 1 0.404881 0.666945 0.264697
540 1 0.322286 0.755154 0.255016
542 1 0.572711 0.728297 0.166885
541 1 0.485659 0.659627 0.160692
543 1 0.597739 0.667819 0.263466
544 1 0.491076 0.73674 0.251465
567 1 0.584881 0.816887 0.260456
565 1 0.488508 0.813041 0.167722
548 1 0.683006 0.734627 0.249545
617 1 0.670129 0.665081 0.342951
569 1 0.64825 0.813732 0.164707
571 1 0.742379 0.83573 0.249363
552 1 0.837481 0.753218 0.259264
550 1 0.931561 0.753927 0.184478
551 1 0.922603 0.66728 0.249303
647 1 0.923725 0.83672 0.415524
554 1 0.0814301 0.922714 0.160177
560 1 0.179801 0.925632 0.247528
558 1 0.252219 0.917412 0.159854
564 1 0.349521 0.906268 0.248401
595 1 0.762918 0.516268 0.425003
562 1 0.414247 0.930441 0.163294
561 1 0.337858 0.82598 0.164445
563 1 0.408496 0.82431 0.255048
494 1 0.584912 0.917146 0.026869
568 1 0.500748 0.900286 0.24452
644 1 0.662828 0.908795 0.405392
638 1 0.580212 0.910456 0.327674
572 1 0.658606 0.907633 0.243141
622 1 0.926595 0.755375 0.319229
570 1 0.755279 0.932785 0.15919
641 1 0.657751 0.820042 0.332809
553 1 0.00518055 0.839618 0.168909
575 1 0.91171 0.832586 0.248345
576 1 0.83646 0.923846 0.246691
556 1 0.00784648 0.926963 0.259625
642 1 0.724921 0.917055 0.318806
630 1 0.265117 0.928226 0.323874
643 1 0.748938 0.835654 0.414437
584 1 0.172953 0.572018 0.417042
603 1 0.0607305 0.68083 0.406696
486 1 0.249717 0.913719 0.00987564
599 1 0.909797 0.50555 0.415619
607 1 0.248762 0.653668 0.421055
626 1 0.10122 0.910563 0.335686
640 1 0.494986 0.917183 0.416823
645 1 0.827379 0.838508 0.33626
613 1 0.487357 0.656188 0.322177
588 1 0.323522 0.572113 0.420694
586 1 0.40607 0.573861 0.340372
611 1 0.400763 0.647564 0.42751
624 1 0.836963 0.765265 0.409072
592 1 0.479031 0.574964 0.420067
615 1 0.562186 0.6635 0.409734
634 1 0.414465 0.911066 0.344458
594 1 0.760366 0.570463 0.335379
596 1 0.657802 0.583208 0.422794
636 1 0.330039 0.911918 0.415555
600 1 0.839466 0.591092 0.412128
623 1 0.927977 0.671515 0.413064
580 1 0.986983 0.583232 0.404692
598 1 0.90486 0.584908 0.331244
632 1 0.19071 0.913477 0.406777
689 1 0.676584 0.667395 0.492441
619 1 0.752483 0.669007 0.414834
625 1 0.00236673 0.842813 0.326748
604 1 0.99052 0.755976 0.407164
602 1 0.071412 0.769251 0.32899
627 1 0.0843246 0.845477 0.421919
608 1 0.152906 0.764751 0.410299
629 1 0.181446 0.841536 0.320188
631 1 0.258104 0.82624 0.421786
606 1 0.240534 0.740132 0.341477
628 1 1.00157 0.918269 0.404712
633 1 0.312743 0.835314 0.330875
610 1 0.414242 0.755455 0.339875
635 1 0.419252 0.83123 0.411618
612 1 0.337588 0.747257 0.416943
637 1 0.496028 0.824346 0.331755
616 1 0.487383 0.739484 0.423346
639 1 0.568647 0.841096 0.405485
614 1 0.576361 0.742178 0.337189
439 1 0.262125 0.520766 0.0741331
157 1 0.497089 0.985934 0.327127
620 1 0.646423 0.742872 0.414429
618 1 0.749662 0.759124 0.342147
450 1 0.763828 0.581719 0.0160182
478 1 0.916494 0.747176 0.0185328
489 1 0.331328 0.826195 0.00627304
457 1 0.00602742 0.655888 0.00543081
702 1 0.264035 0.917548 0.501183
15 1 0.581373 0.99897 0.0950586
155 1 0.40844 0.988906 0.434384
481 1 0.00410267 0.815689 0.0117856
159 1 0.597462 0.992607 0.413528
87 1 0.576195 0.986281 0.245944
593 1 0.680572 0.505429 0.322433
521 1 0.646304 0.51221 0.178087
698 1 0.0987864 0.928684 0.490832
674 1 0.0753827 0.765116 0.492683
458 1 0.0912229 0.743462 0.0129453
79 1 0.257046 0.996314 0.242143
435 1 0.0883495 0.509384 0.0904395
527 1 0.898376 0.500036 0.254944
662 1 0.57363 0.589772 0.495306
229 1 0.510993 0.991482 0.48829
473 1 0.663096 0.674198 0.00290972
490 1 0.411654 0.91759 0.0132696
482 1 0.0881936 0.900279 0.000408603
710 1 0.585688 0.91995 0.490344
718 1 0.909571 0.921168 0.493333
717 1 0.838206 0.825137 0.495514
449 1 0.666969 0.518245 0.00388578
666 1 0.752602 0.594296 0.487178
466 1 0.41209 0.75858 0.00198058
697 1 1.00056 0.866203 0.492982
714 1 0.740524 0.917839 0.491748
442 1 0.417636 0.585185 0.00430549
713 1 0.664414 0.843036 0.489552
652 1 0.986156 0.579039 0.590238
797 1 0.162341 0.509012 0.823251
289 1 0.00611155 0.984461 0.658452
681 1 0.337516 0.679275 0.515318
656 1 0.160114 0.58539 0.572208
660 1 0.326749 0.58394 0.583642
726 1 0.251907 0.57197 0.668319
379 1 0.757277 0.990502 0.917468
730 1 0.421617 0.581569 0.671423
683 1 0.421803 0.666388 0.588401
664 1 0.493311 0.576539 0.587236
668 1 0.67218 0.601349 0.596491
687 1 0.575004 0.666397 0.585121
734 1 0.592123 0.597897 0.67559
739 1 0.754786 0.501868 0.75274
438 1 0.254327 0.587691 0.994957
863 1 0.911115 0.836342 0.936612
691 1 0.75644 0.676972 0.592604
293 1 0.154932 0.994293 0.665198
803 1 0.423152 0.504277 0.92056
801 1 0.356641 0.497337 0.834181
672 1 0.840066 0.585288 0.590926
742 1 0.912641 0.573276 0.666539
706 1 0.42154 0.917897 0.502717
705 1 0.34365 0.835636 0.501584
809 1 0.65905 0.50136 0.819567
675 1 0.0908867 0.684252 0.572802
680 1 0.159552 0.760402 0.579492
676 1 0.994445 0.759047 0.57848
749 1 0.165632 0.663272 0.662374
679 1 0.236787 0.675152 0.580162
750 1 0.241926 0.750202 0.666531
684 1 0.339064 0.765185 0.58485
781 1 0.502527 0.837372 0.675488
777 1 0.330436 0.821983 0.679801
707 1 0.413745 0.833179 0.602748
753 1 0.337811 0.677964 0.660471
688 1 0.491902 0.754009 0.583
711 1 0.579819 0.824861 0.573409
692 1 0.665714 0.752843 0.590059
762 1 0.766164 0.751516 0.673419
696 1 0.828907 0.764719 0.582517
731 1 0.420972 0.507895 0.749714
695 1 0.915303 0.669349 0.579185
303 1 0.582861 0.991104 0.750888
766 1 0.912495 0.746764 0.654312
699 1 0.0683814 0.837384 0.587282
700 1 0.987129 0.912444 0.582471
770 1 0.0815414 0.911196 0.659622
807 1 0.577564 0.514492 0.923011
703 1 0.253472 0.835682 0.591581
704 1 0.163597 0.919946 0.585281
774 1 0.252978 0.920714 0.677722
841 1 0.989264 0.825405 0.842788
708 1 0.339286 0.920955 0.595436
712 1 0.521842 0.915955 0.578295
778 1 0.41286 0.928394 0.675229
295 1 0.243459 0.994944 0.749737
782 1 0.59133 0.916194 0.681683
716 1 0.648424 0.912756 0.587245
227 1 0.421404 0.993209 0.57107
454 1 0.914659 0.575646 0.999704
715 1 0.744568 0.838526 0.578978
720 1 0.843617 0.923725 0.589035
844 1 0.00699275 0.896843 0.926593
862 1 0.921567 0.924355 0.846311
667 1 0.749124 0.523999 0.563432
719 1 0.913803 0.838659 0.571434
725 1 0.162671 0.506421 0.657381
469 1 0.489881 0.666816 1.00046
722 1 0.0710455 0.586411 0.657441
747 1 0.0845801 0.662968 0.751008
724 1 0.00238111 0.576676 0.73845
727 1 0.25708 0.508837 0.76278
678 1 0.257039 0.762169 0.501894
470 1 0.567547 0.742731 0.997165
728 1 0.158647 0.580916 0.7472
732 1 0.345528 0.578627 0.755297
821 1 0.164458 0.673185 0.830293
751 1 0.240657 0.646012 0.745791
864 1 0.84337 0.922631 0.911422
297 1 0.328542 0.995011 0.6729
757 1 0.509555 0.652567 0.664583
755 1 0.413658 0.659544 0.741394
736 1 0.503614 0.588609 0.751048
361 1 0.00335737 0.994014 0.847878
219 1 0.0832541 0.997392 0.569582
301 1 0.518981 0.978403 0.667387
759 1 0.601532 0.670513 0.765127
858 1 0.76904 0.915935 0.831943
441 1 0.331796 0.505058 0.985981
738 1 0.756657 0.57446 0.672545
740 1 0.678032 0.596312 0.758918
810 1 0.752577 0.574807 0.83139
761 1 0.684178 0.663557 0.682293
820 1 0.99185 0.744226 0.915226
744 1 0.841539 0.579316 0.763833
767 1 0.915817 0.672337 0.733233
837 1 0.842233 0.654712 0.838986
814 1 0.932565 0.578756 0.814213
663 1 0.583108 0.523 0.595142
745 1 0.998949 0.673868 0.65096
746 1 0.0829302 0.76577 0.670047
748 1 -0.00128115 0.742899 0.73835
771 1 0.0876902 0.839558 0.751169
752 1 0.16101 0.751584 0.754815
756 1 0.331047 0.747361 0.756103
822 1 0.244841 0.753476 0.829635
775 1 0.246197 0.841486 0.745774
754 1 0.421494 0.748753 0.668724
779 1 0.427063 0.828109 0.755644
760 1 0.498353 0.744752 0.750825
853 1 0.489009 0.83725 0.849791
758 1 0.589564 0.752699 0.679967
785 1 0.662928 0.835538 0.673926
783 1 0.595858 0.833388 0.748604
830 1 0.577032 0.763984 0.827039
833 1 0.681794 0.667773 0.841281
764 1 0.677543 0.752789 0.747619
861 1 0.844848 0.834167 0.845255
763 1 0.760165 0.675817 0.756816
789 1 0.843301 0.843754 0.671425
834 1 0.75839 0.744403 0.840938
765 1 0.835982 0.666618 0.662189
768 1 0.854454 0.759869 0.740645
838 1 0.910113 0.74475 0.84459
791 1 0.911492 0.854967 0.754493
845 1 0.158906 0.848959 0.836632
773 1 0.170932 0.842844 0.66932
772 1 0.00543569 0.900491 0.751151
311 1 0.940752 0.996759 0.760932
857 1 0.678573 0.835586 0.8378
776 1 0.143021 0.929157 0.752772
849 1 0.334567 0.838098 0.834206
780 1 0.33091 0.923099 0.764793
784 1 0.504912 0.905482 0.750589
850 1 0.4027 0.937687 0.840086
805 1 0.494209 0.508062 0.835655
654 1 0.250643 0.587821 0.50749
788 1 0.669488 0.918022 0.75631
235 1 0.750759 0.979563 0.586085
787 1 0.769764 0.826847 0.762709
786 1 0.75035 0.915526 0.667428
860 1 0.652241 0.924456 0.939052
852 1 0.326466 0.929596 0.913623
790 1 0.915227 0.929496 0.668349
769 1 0.98162 0.835202 0.663815
792 1 0.838471 0.938675 0.748312
363 1 0.0849009 0.998887 0.924163
817 1 0.995066 0.670731 0.814901
794 1 0.0801855 0.581602 0.832822
800 1 0.152781 0.586102 0.915186
854 1 0.578067 0.917192 0.833324
373 1 0.498688 0.991016 0.824261
840 1 0.834001 0.755626 0.920037
825 1 0.323085 0.664026 0.831733
798 1 0.243847 0.574029 0.844246
804 1 0.335395 0.58095 0.902189
823 1 0.24806 0.664557 0.905947
383 1 0.920002 0.992218 0.92434
848 1 0.175267 0.932769 0.920153
802 1 0.42798 0.595055 0.839034
856 1 0.503151 0.93195 0.914767
305 1 0.659851 0.993879 0.675216
808 1 0.498527 0.586213 0.921477
836 1 0.6574 0.752186 0.917801
806 1 0.588984 0.594244 0.836748
855 1 0.58883 0.828408 0.913497
737 1 0.67576 0.507734 0.684384
812 1 0.673831 0.582772 0.919275
816 1 0.832673 0.591954 0.919207
846 1 0.250786 0.919127 0.831264
851 1 0.402534 0.857395 0.922593
796 1 0.00477984 0.574261 0.910155
839 1 0.923804 0.675156 0.927535
847 1 0.254586 0.830704 0.92971
818 1 0.0684929 0.738053 0.827807
819 1 0.0845928 0.685287 0.923212
824 1 0.165953 0.758586 0.913129
828 1 0.329092 0.747819 0.921043
843 1 0.069372 0.812778 0.908112
829 1 0.510658 0.663333 0.832913
826 1 0.404739 0.745605 0.838384
827 1 0.408061 0.666172 0.916901
842 1 0.0784669 0.920914 0.855315
835 1 0.742812 0.675522 0.929849
831 1 0.594563 0.668502 0.912135
832 1 0.495326 0.742244 0.914243
859 1 0.739636 0.858458 0.943377
735 1 0.583622 0.521497 0.747979
375 1 0.580153 0.998863 0.918089
377 1 0.675103 0.98305 0.844051
437 1 0.175014 0.504222 0.996787
461 1 0.170795 0.655061 0.999306
685 1 0.494094 0.666819 0.505732
465 1 0.340116 0.671475 0.999502
233 1 0.670921 0.99558 0.512438
493 1 0.491259 0.826769 0.998598
673 1 0.00120913 0.678141 0.507092
690 1 0.745216 0.746466 0.500048
701 1 0.157336 0.844172 0.506863
474 1 0.731474 0.75954 0.994294
462 1 0.247804 0.744206 0.995895
485 1 0.161851 0.831702 0.993603
658 1 0.416309 0.580409 0.506709
682 1 0.415191 0.755741 0.514327
686 1 0.582297 0.745357 0.500612
21 1 0.837637 0.987622 0.997261
