ITEM: TIMESTEP
7500
ITEM: NUMBER OF ATOMS
1372
ITEM: BOX BOUNDS pp pp pp
0.0000000000000000e+00 3.6820000000000000e+01
0.0000000000000000e+00 3.6820000000000000e+01
0.0000000000000000e+00 3.6820000000000000e+01
ITEM: ATOMS id type xs ys zs
8 1 0.12861 0.0831653 0.0757843
100 1 0.0702985 0.0673001 0.142153
117 1 0.127381 0.144377 0.137524
155 1 -0.00844872 0.574599 0.136551
12 1 0.284779 0.0730614 0.0827013
104 1 0.211421 0.0727189 0.144963
121 1 0.282634 0.142801 0.146318
21 1 0.214192 0.139448 0.072416
372 1 0.0707384 0.572397 0.496793
102 1 0.00124724 0.079131 0.208672
14 1 0.430362 0.0831058 0.0667369
108 1 0.357913 0.0707673 0.144089
111 1 0.42648 -0.000917506 0.138437
11 1 0.363291 1.00849 0.067295
125 1 0.419476 0.13772 0.145854
25 1 0.357369 0.150102 0.0799221
356 1 0.278272 0.216933 0.48716
88 1 0.00104353 0.928148 0.0717604
17 1 0.0625149 0.146875 0.0697335
22 1 0.138709 0.216759 0.0679602
114 1 0.0654668 0.221461 0.147947
968 1 0.492291 0.862245 0.360991
116 1 0.00808574 0.218435 0.22944
26 1 0.284195 0.197833 0.0590431
118 1 0.208837 0.197398 0.149268
786 1 0.484798 0.000806607 0.213286
28 1 0.425898 0.218751 0.0671251
122 1 0.363416 0.203392 0.146914
967 1 0.501618 0.93647 0.287796
5 1 0.139179 1.00758 -0.00731003
31 1 0.0753383 0.287233 0.0647666
131 1 0.134662 0.283744 0.128676
36 1 0.135484 0.362227 0.0544357
45 1 0.0517055 0.438635 0.0592846
128 1 0.0746959 0.365773 0.129122
898 1 0.493148 0.137947 0.351485
135 1 0.266175 0.263223 0.135407
35 1 0.211554 0.291843 0.0711771
40 1 0.278716 0.350289 0.0653204
132 1 0.199706 0.358743 0.131647
988 1 0.488328 0.209783 0.426432
1023 1 0.500483 0.93481 0.436339
130 1 -0.0101583 0.355009 0.206957
39 1 0.352163 0.28407 0.075681
139 1 0.429618 0.280484 0.143496
42 1 0.431682 0.350479 0.065133
136 1 0.35368 0.33611 0.151887
69 1 0.41089 0.573946 -0.00701813
323 1 -0.0106798 0.584093 0.432923
145 1 0.140295 0.426435 0.139813
50 1 0.132137 0.498899 0.065133
142 1 0.0595843 0.486088 0.139326
49 1 0.218171 0.428413 0.0728115
149 1 0.281812 0.415382 0.145553
54 1 0.283738 0.490517 0.0721098
146 1 0.210193 0.50676 0.136736
225 1 0.00999253 0.292157 0.300836
153 1 0.430464 0.416003 0.136364
53 1 0.353313 0.425853 0.0689331
56 1 0.430935 0.501347 0.064444
150 1 0.358211 0.497128 0.129626
67 1 0.343767 0.55747 0.0588759
301 1 0.430594 0.000763759 0.429728
59 1 0.070716 0.573285 0.0875788
159 1 0.143902 0.580389 0.145796
64 1 0.136166 0.639609 0.0657465
156 1 0.0821769 0.645563 0.138093
173 1 0.151495 0.701667 0.135784
330 1 0.0108157 0.71867 0.411214
63 1 0.199577 0.567513 0.0660636
163 1 0.288228 0.574219 0.149315
68 1 0.280142 0.62323 0.0589544
160 1 0.226689 0.635052 0.160639
77 1 0.217826 0.695057 0.0651345
177 1 0.282648 0.71197 0.140424
183 1 0.002166 0.865152 0.140304
926 1 0.501399 0.423287 0.345043
6 1 0.218288 0.0709843 -0.000693702
167 1 0.42489 0.572263 0.139222
70 1 0.422531 0.641266 0.0688405
164 1 0.352494 0.642207 0.129043
81 1 0.340246 0.704447 0.0592123
181 1 0.425322 0.713183 0.12609
814 1 0.505237 0.292858 0.208872
270 1 0.000202889 0.791765 0.355566
730 1 0.502267 0.424745 0.0689131
342 1 0.358437 0.9347 0.42916
73 1 0.0572416 0.711129 0.0654631
78 1 0.139226 0.767217 0.0680933
170 1 0.0740559 0.790635 0.137117
82 1 0.28079 0.784595 0.0748386
174 1 0.215637 0.783282 0.142883
191 1 0.271723 0.861349 0.132028
91 1 0.197406 0.850638 0.0735313
1009 1 0.500343 0.648533 0.433684
294 1 0.435479 0.933737 0.347019
911 1 0.510223 0.363801 0.276691
84 1 0.427185 0.788133 0.070025
178 1 0.344214 0.801119 0.137408
95 1 0.358757 0.866929 0.0704913
74 1 0.00697814 0.799073 0.0711943
200 1 -0.00802 0.0858308 0.368511
3 1 0.0736087 0.995116 0.0732561
103 1 0.139816 0.00214563 0.146764
842 1 0.503834 0.565496 0.205958
172 1 0.00887632 0.793685 0.199365
187 1 0.135046 0.870205 0.138795
87 1 0.0792375 0.849867 0.0612883
92 1 0.13754 0.927161 0.0714364
184 1 0.0740355 0.929059 0.149393
7 1 0.204284 0.0141288 0.0697645
107 1 0.290661 0.994674 0.142714
96 1 0.289064 0.920836 0.0512856
188 1 0.217703 0.931551 0.128552
925 1 0.496098 0.501587 0.278959
195 1 0.438642 0.857548 0.131499
98 1 0.441583 0.927145 0.0643915
192 1 0.360281 0.925095 0.141095
267 1 0.00362607 0.717275 0.290583
688 1 0.509645 -0.0115455 0.0867922
106 1 0.127987 0.0837473 0.212906
198 1 0.0777447 0.0834286 0.300302
201 1 0.122967 1.00906 0.275084
115 1 0.0689371 0.14114 0.236376
110 1 0.28656 0.0662627 0.208504
202 1 0.203899 0.0586742 0.281548
105 1 0.201916 0.999948 0.207017
119 1 0.21268 0.132127 0.220524
219 1 0.288073 0.140099 0.288918
112 1 0.429981 0.0753467 0.217221
206 1 0.356535 0.0726943 0.301072
223 1 0.423214 0.156397 0.287206
109 1 0.359363 0.999683 0.20784
123 1 0.349144 0.135259 0.217199
215 1 0.143643 0.148622 0.284934
120 1 0.12587 0.216708 0.210921
212 1 0.0705418 0.210895 0.312523
129 1 0.0724236 0.2975 0.208005
229 1 0.1363 0.296881 0.286548
124 1 0.290175 0.215894 0.213084
216 1 0.201797 0.228759 0.268133
233 1 0.287836 0.279904 0.279545
133 1 0.194199 0.293109 0.197064
126 1 0.430842 0.201677 0.207372
220 1 0.362775 0.224669 0.286619
341 1 0.296271 0.855247 0.428852
337 1 0.00250431 0.860881 0.429362
292 1 0.261453 0.936513 0.360094
134 1 0.130012 0.365977 0.212673
226 1 0.0710025 0.366129 0.292934
138 1 0.293202 0.345315 0.211331
230 1 0.219151 0.34123 0.273134
758 1 0.50313 0.718348 0.0568581
237 1 0.435721 0.272031 0.286628
137 1 0.370576 0.270229 0.213969
140 1 0.432924 0.361594 0.214168
234 1 0.35946 0.349546 0.284731
1002 1 0.500521 0.490754 0.431799
243 1 0.146786 0.428496 0.278579
143 1 0.0535737 0.426189 0.212391
148 1 0.144767 0.502612 0.221507
240 1 0.0762893 0.489845 0.287726
257 1 0.138424 0.573839 0.279436
157 1 0.0635048 0.571996 0.216977
247 1 0.282578 0.412367 0.291923
147 1 0.217293 0.420603 0.214295
152 1 0.298089 0.499999 0.200876
244 1 0.227065 0.50284 0.281152
340 1 0.208125 0.923432 0.431619
151 1 0.354061 0.421574 0.207056
251 1 0.42489 0.429385 0.289422
154 1 0.42706 0.479481 0.205284
248 1 0.354194 0.496877 0.277764
265 1 0.429683 0.572049 0.278744
363 1 0.282641 0.364029 0.503292
162 1 0.138252 0.650735 0.224006
254 1 0.0652688 0.648238 0.277394
271 1 0.136845 0.727892 0.287751
161 1 0.212973 0.567466 0.221995
261 1 0.288934 0.58066 0.271439
166 1 0.298122 0.646881 0.20844
258 1 0.218392 0.660053 0.270731
275 1 0.284002 0.718321 0.272452
175 1 0.193335 0.71804 0.211752
165 1 0.360246 0.569067 0.204319
168 1 0.430675 0.644118 0.209024
262 1 0.355166 0.648598 0.26765
352 1 0.00684621 0.213293 0.502114
171 1 0.063224 0.720859 0.208928
176 1 0.135247 0.785769 0.20757
268 1 0.0658969 0.793912 0.291037
185 1 0.0635537 0.857174 0.211521
180 1 0.287613 0.801873 0.21732
272 1 0.219338 0.805324 0.285589
189 1 0.207942 0.860359 0.215392
279 1 0.42992 0.711691 0.299616
179 1 0.359719 0.720987 0.204015
182 1 0.431291 0.782938 0.209596
276 1 0.362529 0.782186 0.279334
293 1 0.441063 0.867811 0.287386
193 1 0.369246 0.857856 0.209857
376 1 0.356342 0.577588 0.512334
101 1 0.0560465 0.0107463 0.2107
285 1 0.139027 0.863653 0.285289
190 1 0.143681 0.929839 0.215192
282 1 0.0653259 0.939391 0.282346
744 1 0.497133 0.569306 0.0766954
205 1 0.271529 0.99409 0.263908
289 1 0.304162 0.861628 0.285697
194 1 0.293215 0.913745 0.208884
286 1 0.211335 0.926163 0.286812
46 1 0.000431716 0.50853 0.0663598
209 1 0.417272 0.0045131 0.291785
339 1 0.137889 0.867369 0.424163
196 1 0.437342 0.920204 0.203946
290 1 0.361888 0.934003 0.27569
199 1 0.0678053 1.01001 0.358749
204 1 0.149938 0.0731806 0.352131
296 1 0.0893477 0.079602 0.434564
297 1 0.137046 -0.011323 0.43362
304 1 0.151022 0.143327 0.428616
213 1 0.0616903 0.138088 0.370279
299 1 0.291673 1.00381 0.425707
203 1 0.202226 0.998013 0.358262
208 1 0.274915 0.050657 0.337413
298 1 0.215388 0.0666272 0.419316
358 1 0.076069 0.284984 0.48235
329 1 0.419629 0.567008 0.425388
328 1 0.357129 0.652735 0.427229
283 1 0.065892 0.8646 0.356832
207 1 0.343758 -0.00900165 0.356127
210 1 0.424791 0.0681106 0.356161
300 1 0.359145 0.0653902 0.419882
288 1 0.139826 0.926284 0.360253
308 1 0.426773 0.136404 0.427589
338 1 0.0628517 0.938233 0.430513
856 1 0.511582 0.716343 0.204735
336 1 0.430664 0.717729 0.435389
287 1 0.221543 0.858355 0.359152
218 1 0.158969 0.213946 0.348957
303 1 0.0789814 0.209381 0.423829
311 1 0.157546 0.290175 0.433142
227 1 0.0823967 0.284992 0.372593
278 1 0.293879 0.791259 0.351781
217 1 0.224085 0.147707 0.353933
306 1 0.28722 0.14972 0.422981
222 1 0.277199 0.219688 0.3519
305 1 0.209363 0.215579 0.428635
231 1 0.216106 0.287094 0.348907
333 1 0.220688 0.795966 0.421639
313 1 0.2823 0.284093 0.418181
263 1 0.361325 0.572105 0.342844
359 1 0.000109475 0.369538 0.500115
981 1 0.490685 0.066305 0.41482
221 1 0.352103 0.144519 0.355202
224 1 0.421991 0.21778 0.353927
307 1 0.353613 0.229193 0.427971
269 1 0.0810569 0.71957 0.354128
332 1 0.153569 0.723326 0.423777
277 1 0.351213 0.725458 0.360014
266 1 0.439885 0.636451 0.35963
232 1 0.147371 0.362706 0.363821
310 1 0.0673371 0.372334 0.430412
318 1 0.139379 0.432874 0.433188
197 1 -0.00172031 0.0059051 0.285376
236 1 0.291715 0.357206 0.363967
312 1 0.228452 0.355584 0.431514
245 1 0.210345 0.424117 0.356935
256 1 0.000985334 0.642392 0.359352
274 1 0.143627 0.796067 0.362517
315 1 0.425213 0.288168 0.431127
235 1 0.350231 0.290123 0.358574
238 1 0.43234 0.349698 0.354427
314 1 0.356533 0.35401 0.435858
249 1 0.361737 0.423766 0.359592
322 1 0.428762 0.427804 0.425245
331 1 0.0755809 0.801679 0.424414
241 1 0.0808359 0.431379 0.364134
246 1 0.153624 0.501738 0.352287
317 1 0.0775946 0.506288 0.425569
325 1 0.147658 0.572177 0.42417
255 1 0.0710509 0.567678 0.346402
280 1 0.425404 0.783543 0.360689
343 1 0.426766 0.871177 0.428058
320 1 0.289704 0.433438 0.426175
327 1 0.300659 0.583161 0.417331
319 1 0.231863 0.495979 0.412911
250 1 0.296165 0.502923 0.353672
259 1 0.216553 0.581293 0.337153
252 1 0.4341 0.492487 0.356401
321 1 0.363881 0.49911 0.422473
291 1 0.362964 0.873211 0.362978
324 1 0.0833837 0.646914 0.41885
260 1 0.154309 0.64264 0.333118
335 1 0.36165 0.790791 0.423578
273 1 0.213572 0.725967 0.347248
264 1 0.291623 0.647665 0.351028
326 1 0.211883 0.635339 0.416789
334 1 0.272465 0.712481 0.421657
302 1 -0.00348085 0.149718 0.442692
368 1 0.143618 0.497943 0.50295
357 1 0.425265 0.211427 0.499474
295 1 0.0033017 0.00673803 0.437688
365 1 0.0636747 0.448395 0.494624
855 1 0.515536 0.785825 0.143963
1037 1 0.487913 0.144518 0.4945
940 1 0.505636 0.562578 0.35955
883 1 0.494018 0.0636621 0.280306
828 1 0.503118 0.424414 0.207384
346 1 0.221522 -0.00797587 0.498307
827 1 0.493556 0.499548 0.135554
884 1 0.499208 0.00352328 0.352264
383 1 0.348278 0.708335 0.507339
61 1 0.133561 0.566544 -0.000667391
373 1 0.0114738 0.653037 0.495943
371 1 0.420142 0.506122 0.499209
360 1 0.220639 0.294576 0.501071
1058 1 0.493276 0.57385 0.493172
701 1 0.505532 0.214031 0.00739488
85 1 -0.003409 0.864918 -0.00147789
2 1 0.0635704 0.0724814 0.0050827
38 1 0.349824 0.360048 0.0043468
370 1 0.291035 0.506615 0.506644
94 1 0.360787 0.93695 -0.000429618
389 1 0.151582 0.922966 0.503217
44 1 0.0618813 0.502053 -0.00660486
71 1 -0.00125233 0.722898 -0.00651334
375 1 0.152821 0.655274 0.489182
347 1 0.158306 0.0716954 0.500656
379 1 0.0809586 0.715372 0.492201
394 1 0.0740947 0.0738972 0.584345
400 1 0.138066 0.0780653 0.649335
409 1 0.059116 0.153587 0.643365
37 1 0.274949 0.288549 1.00164
397 1 0.150494 1.00091 0.578406
395 1 0.0711145 1.00217 0.642505
435 1 0.00473272 0.431187 0.577007
729 1 0.499756 0.513111 0.999462
398 1 0.206086 0.0771106 0.58821
404 1 0.288209 0.0787837 0.655433
413 1 0.198483 0.152211 0.642669
415 1 0.286378 0.124073 0.580037
401 1 0.285948 0.00969384 0.577836
402 1 0.359949 0.0582047 0.598657
406 1 0.429112 0.0668522 0.65638
417 1 0.359559 0.149037 0.653448
403 1 0.361136 -0.015892 0.653803
362 1 0.35682 0.287623 0.504028
547 1 -0.0100009 0.577377 0.738541
411 1 0.144148 0.140478 0.567678
408 1 0.0714183 0.213719 0.569334
414 1 0.140931 0.22107 0.624563
425 1 0.152148 0.293297 0.568913
423 1 0.0720908 0.28719 0.633615
662 1 0.00144617 0.783651 0.933447
412 1 0.216324 0.214318 0.58255
418 1 0.283019 0.214743 0.648956
55 1 0.427483 0.429528 1.01079
419 1 0.41306 0.135867 0.563436
416 1 0.339796 0.207785 0.57696
420 1 0.422383 0.211368 0.629688
433 1 0.432411 0.280876 0.571239
385 1 0.403739 0.788524 0.499576
422 1 0.0807222 0.35604 0.556686
428 1 0.133605 0.358636 0.637219
439 1 0.14006 0.426147 0.572384
1093 1 0.49107 0.206446 0.56292
519 1 -0.00988063 0.280326 0.698177
350 1 0.428765 0.0621994 0.496017
427 1 0.204469 0.289497 0.643974
429 1 0.285661 0.283222 0.568291
426 1 0.224505 0.360176 0.569054
432 1 0.282755 0.351071 0.642299
443 1 0.274738 0.427937 0.568055
431 1 0.353457 0.279103 0.634065
430 1 0.351896 0.359482 0.566851
434 1 0.417522 0.337626 0.652109
445 1 0.354621 0.416399 0.637061
447 1 0.424885 0.428287 0.56852
1248 1 0.514266 0.724013 0.799495
344 1 0.0739754 0.997964 0.502246
685 1 0.421474 0.852431 0.85932
683 1 0.363922 0.866963 0.921334
682 1 0.354522 0.948471 0.869138
361 1 0.157308 0.364065 0.494432
686 1 0.435516 0.939075 0.92806
437 1 0.0736635 0.421732 0.631048
436 1 0.0794746 0.504033 0.576281
442 1 0.129255 0.490384 0.653353
451 1 0.0679202 0.574543 0.63612
441 1 0.217237 0.418882 0.645056
440 1 0.202755 0.49382 0.590618
446 1 0.283483 0.492702 0.669858
455 1 0.196247 0.570894 0.645514
1317 1 0.506725 0.50714 0.853806
444 1 0.360567 0.49692 0.57633
448 1 0.424046 0.510692 0.640177
452 1 0.00670205 0.641332 0.638351
80 1 0.356413 0.782266 1.00306
453 1 0.145574 0.580196 0.564834
450 1 0.0764763 0.640771 0.557679
456 1 0.135093 0.639729 0.642076
465 1 0.0690484 0.721078 0.640748
467 1 0.1515 0.70578 0.568243
1135 1 0.506639 0.644786 0.565322
410 1 -0.00417479 0.210192 0.642029
1079 1 0.487511 0.051602 0.578383
34 1 0.219183 0.357008 0.999881
457 1 0.277251 0.568148 0.571149
454 1 0.214315 0.6329 0.578848
460 1 0.286024 0.642466 0.648135
469 1 0.217562 0.714134 0.63525
550 1 0.00334147 0.653366 0.793564
459 1 0.34603 0.567849 0.649087
461 1 0.433197 0.587519 0.566581
458 1 0.361061 0.646546 0.585917
462 1 0.42707 0.635671 0.654999
473 1 0.367815 0.71727 0.64629
1108 1 0.509233 0.290842 0.637984
382 1 0.147939 0.780609 0.49063
464 1 0.084602 0.786792 0.562529
470 1 0.147215 0.776433 0.658622
479 1 0.0792054 0.848582 0.641967
481 1 0.140008 0.850516 0.577217
424 1 -0.00775982 0.347257 0.636046
561 1 0.0158141 0.721242 0.728135
471 1 0.284402 0.710458 0.578117
468 1 0.215498 0.78993 0.576601
474 1 0.285861 0.789294 0.645133
475 1 0.431307 0.718051 0.579442
472 1 0.350758 0.784987 0.574235
476 1 0.420853 0.795352 0.651774
599 1 0.372384 0.0124511 0.924762
58 1 0.0617959 0.646642 0.999757
380 1 0.0229113 0.793867 0.497898
478 1 0.0793198 0.925879 0.580731
484 1 0.147113 0.933629 0.651179
392 1 0.430096 0.919256 0.506722
1247 1 0.495094 0.796689 0.72235
483 1 0.215133 0.860707 0.644239
485 1 0.282523 0.857327 0.568707
399 1 0.217945 1.00064 0.651346
482 1 0.209923 0.923104 0.57495
488 1 0.277574 0.923354 0.650962
1072 1 0.507966 0.858173 0.503329
405 1 0.423564 0.989151 0.574985
449 1 0.00632908 0.586016 0.559372
487 1 0.359583 0.859778 0.65959
489 1 0.413447 0.850952 0.578307
486 1 0.366345 0.924294 0.586316
490 1 0.429236 0.923646 0.64927
601 1 0.439772 0.000503991 0.852883
1359 1 0.507785 0.936223 0.860571
393 1 0.000768329 0.992113 0.58749
492 1 0.0752325 0.0679929 0.713918
498 1 0.148595 0.0874958 0.783864
509 1 0.137074 0.153073 0.71339
507 1 0.072733 0.144278 0.78241
24 1 0.35476 0.213486 0.996502
496 1 0.21486 0.0726241 0.717834
502 1 0.272111 0.0783215 0.790043
511 1 0.210297 0.150455 0.788284
513 1 0.284095 0.144863 0.718027
499 1 0.281954 0.00257885 0.723662
500 1 0.35038 0.0667811 0.728969
504 1 0.42556 0.0833715 0.780095
517 1 0.433474 0.14797 0.710266
515 1 0.34582 0.137932 0.784555
1121 1 0.4987 0.509541 0.56163
97 1 0.422996 0.871532 1.00266
506 1 0.0763774 0.217268 0.709209
512 1 0.134088 0.218114 0.794022
523 1 0.138134 0.289519 0.704646
505 1 -0.00294699 0.135633 0.711045
438 1 0.00675857 0.509948 0.640041
51 1 0.284495 0.429338 1.00483
510 1 0.211636 0.215074 0.727384
516 1 0.279498 0.218474 0.781188
527 1 0.275946 0.287817 0.714941
525 1 0.203104 0.283947 0.787431
386 1 0.0721952 0.874673 0.493001
514 1 0.353172 0.224936 0.727252
518 1 0.416648 0.194923 0.789907
531 1 0.434296 0.279849 0.748243
529 1 0.355916 0.271394 0.806375
679 1 0.220927 0.865962 0.950318
521 1 0.0584991 0.290911 0.788298
520 1 0.0585913 0.361729 0.709085
526 1 0.133607 0.360622 0.781181
537 1 0.129776 0.429405 0.713931
524 1 0.218663 0.356826 0.711974
530 1 0.276511 0.34861 0.790132
539 1 0.212195 0.435917 0.791845
541 1 0.286713 0.412543 0.711137
1192 1 0.501928 0.136006 0.789678
528 1 0.355515 0.338442 0.736309
532 1 0.438558 0.364745 0.795064
13 1 0.431397 0.00680818 1.00884
676 1 -0.00311988 0.928703 0.926868
83 1 0.420972 0.713304 1.00959
535 1 0.0653511 0.421957 0.788762
534 1 0.067582 0.495567 0.721075
540 1 0.127815 0.494924 0.798286
551 1 0.130457 0.575189 0.729608
549 1 0.0704695 0.560568 0.790677
10 1 0.363637 0.08317 1.01324
538 1 0.193534 0.503537 0.717676
544 1 0.275751 0.496477 0.777967
553 1 0.201171 0.564903 0.779963
545 1 0.427148 0.415217 0.70494
543 1 0.36072 0.424612 0.76647
542 1 0.362236 0.504992 0.714839
546 1 0.43253 0.504953 0.79045
548 1 0.0556541 0.627322 0.716721
554 1 0.142826 0.637516 0.788841
668 1 0.3532 0.789288 0.860324
555 1 0.27235 0.570983 0.710815
552 1 0.216849 0.658185 0.717988
558 1 0.2688 0.642533 0.784999
569 1 0.292154 0.714345 0.711399
557 1 0.354179 0.563477 0.784954
559 1 0.440087 0.566736 0.720946
556 1 0.349379 0.627723 0.717422
560 1 0.445262 0.633027 0.787062
571 1 0.367471 0.726947 0.802687
573 1 0.436401 0.717175 0.726547
595 1 0.213222 0.000360232 0.917369
678 1 0.225568 0.926 0.870994
565 1 0.128831 0.708338 0.722616
563 1 0.0721555 0.705872 0.810709
562 1 0.0757579 0.780713 0.711656
568 1 0.136508 0.792017 0.793265
577 1 0.072756 0.850741 0.796807
579 1 0.152906 0.851351 0.718926
567 1 0.202713 0.718939 0.784901
566 1 0.21973 0.777077 0.712883
572 1 0.284298 0.780179 0.780304
581 1 0.217132 0.848562 0.79178
570 1 0.357041 0.795938 0.728127
574 1 0.430437 0.78827 0.796031
585 1 0.36052 0.856922 0.794354
493 1 0.0529369 0.992097 0.798593
495 1 0.135812 1.01049 0.721212
576 1 0.0725999 0.91794 0.712376
582 1 0.137494 0.919883 0.786718
497 1 0.215184 1.01067 0.789832
583 1 0.278779 0.860854 0.726937
580 1 0.205025 0.928282 0.724034
586 1 0.283457 0.925377 0.79794
503 1 0.420213 0.998578 0.725757
501 1 0.366428 0.995148 0.794957
587 1 0.429153 0.859827 0.722026
584 1 0.350724 0.924116 0.726042
588 1 0.434296 0.925717 0.802572
684 1 0.285853 0.936158 0.937687
589 1 -0.00570243 -0.00576744 0.864104
590 1 0.0565749 0.0628566 0.858176
596 1 0.134776 0.06282 0.922843
607 1 0.126314 0.141335 0.854569
660 1 0.0648005 0.786359 0.867838
594 1 0.202572 0.071828 0.860498
600 1 0.287404 0.0653861 0.919114
609 1 0.215503 0.135453 0.929366
611 1 0.280282 0.139143 0.862864
598 1 0.358714 0.0789547 0.854604
602 1 0.438477 0.0724336 0.936734
613 1 0.367827 0.131265 0.929748
615 1 0.433448 0.139022 0.859047
672 1 0.426303 0.781803 0.931585
575 1 0.00184466 0.85306 0.713873
663 1 0.147789 0.722348 0.859241
52 1 0.360355 0.492173 0.997972
605 1 0.0644754 0.140555 0.923387
604 1 0.056146 0.218343 0.860798
610 1 0.130329 0.211977 0.929348
621 1 0.140728 0.289938 0.856994
619 1 0.0474596 0.294801 0.930958
93 1 0.303927 0.84653 1.00413
608 1 0.204572 0.208668 0.86214
614 1 0.28407 0.215863 0.936649
388 1 0.225862 0.851904 0.49604
664 1 0.215548 0.783576 0.860666
677 1 0.156289 0.858359 0.863954
655 1 0.352734 0.579014 0.920067
612 1 0.347727 0.197847 0.862084
616 1 0.431453 0.21586 0.925161
627 1 0.345804 0.282172 0.935983
494 1 0.0057726 0.0730294 0.771562
650 1 0.209635 0.648751 0.854266
681 1 0.286287 0.846848 0.856318
618 1 0.0611705 0.358177 0.855907
624 1 0.134304 0.358735 0.935283
635 1 0.134757 0.424566 0.861769
670 1 0.296895 0.789155 0.932992
623 1 0.209283 0.292316 0.933728
625 1 0.277312 0.280129 0.862655
622 1 0.213817 0.352081 0.853962
628 1 0.290788 0.358308 0.933579
629 1 0.419612 0.296911 0.875027
626 1 0.342551 0.359576 0.857375
630 1 0.427573 0.354942 0.938283
597 1 0.279332 0.001795 0.848227
79 1 0.275631 0.720057 0.990884
669 1 0.357543 0.720008 0.927594
656 1 0.281371 0.63553 0.919298
633 1 0.0620493 0.422075 0.929389
632 1 0.0533906 0.490942 0.857356
638 1 0.128194 0.511002 0.927346
649 1 0.139981 0.568254 0.857177
667 1 0.289691 0.708232 0.857945
666 1 0.14196 0.786563 0.925035
658 1 0.428331 0.639648 0.931676
639 1 0.282339 0.432807 0.851169
637 1 0.215485 0.422936 0.922946
636 1 0.208484 0.501018 0.861232
642 1 0.306277 0.492456 0.917395
653 1 0.284725 0.570899 0.852518
680 1 0.147857 0.930316 0.930393
593 1 0.128406 0.998509 0.85253
665 1 0.22393 0.707033 0.921229
674 1 0.0729032 0.913132 0.860045
643 1 0.422931 0.427956 0.866309
641 1 0.355198 0.42349 0.927574
644 1 0.418175 0.503723 0.920569
640 1 0.353558 0.487392 0.836522
591 1 0.0618105 0.00203455 0.936764
675 1 0.0638353 0.857185 0.928377
647 1 0.0596662 0.580328 0.934416
661 1 0.0746332 0.70828 0.919784
646 1 0.0661064 0.637389 0.866688
652 1 0.14602 0.647064 0.920887
654 1 0.35959 0.639826 0.852838
657 1 0.432838 0.573412 0.854193
671 1 0.436883 0.72096 0.858483
651 1 0.2144 0.569649 0.916705
48 1 0.209595 0.502393 0.997321
1233 1 0.503655 0.647264 0.718756
41 1 0.427497 0.279048 1.00047
391 1 0.283984 0.921488 0.489434
387 1 -0.00512192 0.933336 0.505849
89 1 0.138821 0.853736 0.989817
463 1 0.0143565 0.718025 0.571323
76 1 0.202732 0.780147 1.0023
1360 1 0.497167 0.862446 0.926216
477 1 0.00620601 0.852764 0.576787
1163 1 0.505228 0.916747 0.573559
1234 1 0.517124 0.565068 0.779267
1205 1 0.497782 0.346878 0.720184
1177 1 0.502934 0.074878 0.722607
466 1 0.00267758 0.789636 0.645625
1150 1 0.498537 0.71417 0.64943
354 1 0.138819 0.223664 0.501284
72 1 0.0643941 0.78202 1.00228
66 1 0.347239 0.641114 0.995885
90 1 0.213126 0.930363 1.00763
377 1 0.274847 0.646909 0.496192
381 1 0.222551 0.718875 0.499674
30 1 0.0651637 0.351017 0.99849
23 1 0.282801 0.13969 0.994241
351 1 0.072086 0.140241 0.505898
378 1 0.422023 0.650586 0.498614
62 1 0.216079 0.634916 0.992865
27 1 0.430977 0.147518 0.998024
65 1 0.282079 0.563655 0.984517
353 1 0.212904 0.153647 0.499738
369 1 0.347798 0.433941 0.505815
16 1 0.0709392 0.225968 0.991306
86 1 0.063316 0.932862 1.00458
367 1 0.212034 0.438985 0.488582
355 1 0.34879 0.142621 0.493376
9 1 0.288194 0.00794626 1.00822
348 1 0.358682 -0.00924125 0.515477
390 1 0.356231 0.863948 0.505128
20 1 0.205127 0.195009 1.00149
33 1 0.145877 0.293643 0.995735
364 1 0.426712 0.357008 0.505628
349 1 0.28142 0.0741159 0.508493
47 1 0.145749 0.432012 0.996888
366 1 -0.00161738 0.517768 0.491373
384 1 0.289366 0.780083 0.501961
1030 1 0.4919 0.993477 0.508096
75 1 0.145864 0.703035 0.990749
374 1 0.219009 0.559043 0.502823
19 1 0.130985 0.141714 1.00171
692 1 0.566049 0.0690783 0.0843314
788 1 0.649757 0.0665453 0.150411
705 1 0.650411 0.137144 0.0754092
1028 1 0.853689 0.853955 0.426812
691 1 0.64003 0.00438598 0.0662237
113 1 1.00798 0.152495 0.148921
986 1 0.870613 0.995321 0.43967
696 1 0.71737 0.0548706 0.0902604
792 1 0.7819 0.0775155 0.153283
791 1 0.723865 0.991593 0.152899
805 1 0.709634 0.136073 0.146739
772 1 0.500946 0.857207 0.0643921
695 1 0.791888 -0.00827203 0.0769852
700 1 0.865039 0.0738305 0.0736689
796 1 0.927785 0.0722118 0.149428
699 1 0.9253 0.00146383 0.0792837
795 1 0.849869 0.0138141 0.145502
60 1 1.00324 0.648516 0.0710858
169 1 1.00408 0.728282 0.131309
801 1 0.582023 0.145068 0.137566
706 1 0.578536 0.21786 0.0762556
802 1 0.647316 0.219929 0.145735
719 1 0.661433 0.27823 0.0650193
709 1 0.790516 0.130327 0.0652259
710 1 0.725179 0.200363 0.0807044
806 1 0.789655 0.204183 0.145429
819 1 0.71957 0.290981 0.149648
723 1 0.79001 0.276952 0.0731778
717 1 0.579084 0.277638 -0.00638599
713 1 0.939317 0.147312 0.085049
809 1 0.857255 0.127604 0.145448
714 1 0.855475 0.203645 0.0689809
810 1 0.912643 0.202227 0.144318
823 1 0.848802 0.278705 0.146172
722 1 0.788899 0.35663 0.00226955
1046 1 0.570668 0.35163 0.493407
815 1 0.576949 0.28041 0.144584
720 1 0.571993 0.34487 0.0685218
816 1 0.646804 0.355447 0.135925
980 1 0.862478 0.940482 0.359971
242 1 1.00023 0.510364 0.364513
724 1 0.721057 0.350968 0.071228
820 1 0.790592 0.355208 0.144298
727 1 0.930616 0.273869 0.0804753
728 1 0.854035 0.348207 0.0712663
824 1 0.918864 0.349537 0.148715
781 1 0.85908 0.861244 0.00674413
1029 1 0.937584 0.927725 0.424365
127 1 1.00268 0.287349 0.150969
718 1 0.649019 0.350971 0.00075062
733 1 0.654538 0.422867 0.0680087
829 1 0.571561 0.412901 0.132299
734 1 0.5595 0.491727 0.068314
830 1 0.637179 0.499065 0.132203
843 1 0.577424 0.577595 0.132955
813 1 0.4911 0.355876 0.133109
725 1 0.85778 0.279916 0.00332804
833 1 0.720966 0.430609 0.139071
737 1 0.78222 0.425144 0.0710989
738 1 0.71249 0.495455 0.0676362
834 1 0.781508 0.495405 0.153243
847 1 0.709547 0.561796 0.131003
1034 1 0.715978 0.0748061 0.493866
741 1 0.913601 0.425043 0.0762373
837 1 0.849154 0.425829 0.135778
742 1 0.858366 0.509721 0.0795623
838 1 0.922649 0.496643 0.144696
851 1 0.865121 0.574795 0.15395
755 1 0.92208 0.572389 0.0725568
1054 1 0.794493 0.459436 0.498837
750 1 0.79368 0.632298 0.00772583
747 1 0.640539 0.57461 0.0750497
748 1 0.564875 0.655604 0.0759657
844 1 0.639544 0.649238 0.15262
690 1 0.653334 0.0858019 0.00216705
4 1 0.99877 0.0810105 0.0782355
751 1 0.796539 0.565235 0.0748157
752 1 0.700346 0.655814 0.0696566
848 1 0.774379 0.641296 0.145772
861 1 0.715933 0.711237 0.150917
912 1 0.493779 0.281305 0.358923
18 1 1.00234 0.220512 0.0752512
785 1 0.49441 0.0598193 0.146094
756 1 0.853426 0.641818 0.079097
852 1 0.922159 0.64981 0.138333
316 1 0.993224 0.429892 0.427483
897 1 0.502503 0.20749 0.287349
761 1 0.636618 0.720195 0.0715402
857 1 0.57621 0.715152 0.144334
762 1 0.577816 0.788284 0.0633509
858 1 0.652501 0.782111 0.137569
775 1 0.640204 0.854203 0.0666768
1073 1 0.652388 0.85636 0.508766
211 1 0.99937 0.149262 0.293249
765 1 0.800313 0.724526 0.079863
766 1 0.719622 0.78696 0.0676106
862 1 0.790706 0.788064 0.139663
875 1 0.716645 0.848962 0.148232
767 1 0.85099 0.707716 0.00741987
1049 1 0.924692 0.308193 0.499674
995 1 0.496559 0.352635 0.444057
769 1 0.926217 0.721517 0.0785765
865 1 0.862325 0.712106 0.15282
770 1 0.862 0.795797 0.0702072
866 1 0.934985 0.790759 0.138036
186 1 0.988034 0.934317 0.21374
984 1 0.71776 -0.000745406 0.436048
975 1 0.794193 0.857725 0.365114
787 1 0.574729 0.00817992 0.147376
869 1 0.508006 0.918491 0.145191
976 1 0.72453 0.928512 0.369878
871 1 0.59097 0.858784 0.149088
776 1 0.572575 0.93634 0.0695869
872 1 0.644262 0.931698 0.148476
754 1 0.93183 0.6511 -0.00304066
735 1 0.721202 0.429242 -0.00240396
779 1 0.785184 0.865149 0.0777189
780 1 0.711336 0.930825 0.0728209
876 1 0.77974 0.924316 0.150867
702 1 0.498904 0.14356 0.0849325
716 1 0.503009 0.276787 0.0771028
783 1 0.923732 0.858964 0.0725722
879 1 0.860725 0.849465 0.147168
784 1 0.856401 0.921519 0.0808784
880 1 0.932275 0.929624 0.136934
1027 1 0.795508 0.928435 0.42968
790 1 0.565394 0.0666084 0.216206
886 1 0.642033 0.0629976 0.293705
789 1 0.645816 1.0073 0.21466
794 1 0.719323 0.0647408 0.227739
890 1 0.78797 0.0624273 0.287469
807 1 0.787783 0.140233 0.229976
903 1 0.714898 0.147538 0.292575
793 1 0.791458 0.990688 0.222572
889 1 0.729719 0.991445 0.296326
736 1 0.791289 0.494393 0.0116231
798 1 0.857201 0.0832444 0.228335
894 1 0.922978 0.0820182 0.296368
893 1 0.862622 1.00351 0.281526
907 1 0.875403 0.152616 0.295892
778 1 0.782546 0.921635 0.00764905
803 1 0.635767 0.124306 0.224035
899 1 0.570259 0.127239 0.2942
804 1 0.580849 0.214755 0.226684
900 1 0.655735 0.216088 0.289935
913 1 0.569716 0.292536 0.295628
808 1 0.730672 0.206813 0.216207
904 1 0.789594 0.219306 0.281988
821 1 0.783593 0.287804 0.220733
811 1 0.939355 0.144802 0.220241
812 1 0.86421 0.215195 0.220105
908 1 0.935871 0.232806 0.298448
921 1 0.857942 0.28298 0.287699
99 1 0.997385 0.0051774 0.134998
764 1 0.794011 0.793659 -0.00159486
887 1 0.657554 0.996529 0.365594
817 1 0.651034 0.295843 0.220651
818 1 0.573701 0.359097 0.2063
914 1 0.635804 0.364655 0.282608
831 1 0.64278 0.423469 0.197428
917 1 0.713286 0.293894 0.284056
822 1 0.708235 0.361561 0.215516
918 1 0.786714 0.357346 0.28556
835 1 0.794503 0.428692 0.216402
931 1 0.721556 0.429536 0.276446
825 1 0.926197 0.283513 0.201562
826 1 0.854269 0.349507 0.224426
922 1 0.936429 0.341549 0.280474
839 1 0.925428 0.43334 0.203149
935 1 0.85412 0.425512 0.294863
972 1 0.564517 0.937007 0.353194
281 1 1.0009 0.865066 0.289253
927 1 0.58091 0.430517 0.276857
832 1 0.567625 0.501052 0.196723
928 1 0.635836 0.497573 0.27151
845 1 0.640157 0.564778 0.200805
836 1 0.707436 0.490565 0.206966
932 1 0.781892 0.496498 0.276004
945 1 0.710165 0.55775 0.276842
840 1 0.851923 0.504531 0.213647
936 1 0.927155 0.497503 0.282756
949 1 0.861317 0.577982 0.284247
853 1 0.934452 0.571401 0.218973
971 1 0.638958 0.851435 0.34829
32 1 0.995923 0.343041 0.069427
1032 1 0.55118 0.0661145 0.484161
941 1 0.578563 0.567858 0.279296
846 1 0.564474 0.646601 0.219617
942 1 0.654252 0.640792 0.2857
859 1 0.639685 0.706243 0.225562
955 1 0.563854 0.711715 0.283684
849 1 0.778745 0.568954 0.209443
850 1 0.717739 0.643221 0.215285
946 1 0.77916 0.631023 0.281107
959 1 0.716735 0.714957 0.27697
854 1 0.861396 0.647162 0.220917
950 1 0.941035 0.645381 0.291801
1024 1 0.565354 0.86086 0.411123
1025 1 0.645514 0.91994 0.430547
860 1 0.581405 0.787478 0.212444
956 1 0.65018 0.787594 0.282986
873 1 0.641312 0.860631 0.23124
863 1 0.787094 0.707943 0.214899
864 1 0.711242 0.789198 0.212124
960 1 0.796245 0.788525 0.292801
973 1 0.709769 0.866158 0.301965
877 1 0.791283 0.843061 0.21587
963 1 0.850098 0.706348 0.28764
867 1 0.931519 0.724477 0.217091
868 1 0.855476 0.780191 0.225318
964 1 0.934739 0.783736 0.2878
977 1 0.869349 0.852623 0.281287
881 1 0.93542 0.855328 0.221026
1044 1 0.4961 0.276754 0.492491
969 1 0.558475 0.861802 0.286291