ITEM: TIMESTEP
23500
ITEM: NUMBER OF ATOMS
500
ITEM: BOX BOUNDS pp pp pp
0.0000000000000000e+00 2.6299999999999997e+01
0.0000000000000000e+00 2.6299999999999997e+01
0.0000000000000000e+00 2.6299999999999997e+01
ITEM: ATOMS id type xs ys zs
23 1 0.106098 0.18848 0.0998297
52 1 0.107866 0.108504 0.211656
138 1 0.297122 0.225887 0.486858
71 1 0.0192147 0.211553 0.198247
8 1 0.207526 0.108063 0.104283
75 1 0.199408 0.197798 0.194288
27 1 0.313785 0.186219 0.117908
56 1 0.311723 0.0808385 0.224939
12 1 0.402256 0.0922287 0.0952668
150 1 0.894931 0.418891 0.495086
121 1 0.999678 0.415466 0.397549
79 1 0.404595 0.190683 0.227545
34 1 0.702193 0.300493 0.0023853
31 1 0.518578 0.201153 0.0946391
60 1 0.496679 0.0995339 0.209717
16 1 0.584506 0.0775463 0.103724
83 1 0.607351 0.207854 0.200536
35 1 0.664404 0.196556 0.0994948
64 1 0.70832 0.104984 0.201082
87 1 0.797177 0.19618 0.190111
100 1 0.89749 0.416497 0.286032
120 1 0.911959 0.30555 0.38634
147 1 0.307201 0.395595 0.485231
129 1 0.19873 0.121036 0.488539
4 1 0.995535 0.0789144 0.0907947
20 1 0.788381 0.104642 0.0818703
39 1 0.888352 0.191334 0.0956642
68 1 0.918379 0.0902693 0.189915
145 1 0.816615 0.308338 0.480016
131 1 0.394376 0.106024 0.485062
42 1 0.0933611 0.397521 0.0985079
72 1 0.107549 0.307415 0.202409
28 1 0.197586 0.285928 0.106809
91 1 0.999875 0.412242 0.201829
63 1 0.592316 0.00224917 0.211046
148 1 0.504024 0.392703 0.495457
93 1 0.222151 0.396305 0.19214
44 1 0.297855 0.410787 0.0974832
76 1 0.294439 0.288298 0.216382
41 1 0.997139 0.401006 0.00893233
141 1 0.409393 0.309117 0.47935
98 1 0.710316 0.389986 0.302566
95 1 0.389851 0.408914 0.197088
32 1 0.399822 0.288375 0.128024
46 1 0.489766 0.398052 0.106694
80 1 0.509976 0.291494 0.193268
97 1 0.600404 0.39625 0.200373
59 1 0.408241 0.0027017 0.199526
144 1 0.899367 0.203849 0.491359
118 1 0.688067 0.295062 0.409507
55 1 0.207891 0.00979553 0.217841
125 1 0.801356 0.402123 0.386963
36 1 0.598799 0.320129 0.0998011
48 1 0.700962 0.392908 0.109469
84 1 0.693068 0.303347 0.204682
99 1 0.793125 0.40406 0.199994
142 1 0.704797 0.187543 0.498245
354 1 0.694148 0.49156 0.389964
24 1 0.0044699 0.300578 0.100031
40 1 0.796915 0.306956 0.0937428
258 1 0.592247 0.484168 0.106218
50 1 0.888641 0.399163 0.10442
88 1 0.917698 0.300428 0.214971
7 1 0.283543 0.0069462 0.110529
90 1 0.799182 0.301885 0.297603
73 1 0.111702 0.212125 0.294766
102 1 0.105356 0.10931 0.398351
54 1 0.0116928 0.114876 0.293539
58 1 0.202027 0.086869 0.311604
86 1 0.602352 0.308828 0.302177
65 1 0.698497 0.00614861 0.281743
113 1 0.191838 0.20545 0.405317
77 1 0.288904 0.19171 0.29597
104 1 0.296565 0.10142 0.39904
305 1 0.487131 0.497318 0.19944
143 1 0.593614 0.283982 0.496945
115 1 0.395381 0.212443 0.388065
62 1 0.407348 0.0928167 0.313162
81 1 0.524248 0.190406 0.296971
106 1 0.498379 0.111301 0.409238
117 1 0.612021 0.201163 0.401198
116 1 0.504083 0.292423 0.390224
66 1 0.612531 0.0964423 0.292456
85 1 0.692654 0.20373 0.311299
108 1 0.725242 0.0974343 0.399327
70 1 0.821773 0.0773027 0.311051
119 1 0.789813 0.212351 0.394613
96 1 0.487839 0.411127 0.304412
124 1 0.594043 0.394006 0.408955
94 1 0.287106 0.410613 0.299182
111 1 0.00371643 0.190564 0.407847
110 1 0.899936 0.107958 0.409916
89 1 0.913033 0.201045 0.3063
123 1 0.400751 0.405292 0.390855
74 1 0.0158189 0.319208 0.293897
78 1 0.195268 0.304103 0.302906
112 1 0.106358 0.300995 0.396664
92 1 0.11078 0.415631 0.298527
114 1 0.300357 0.308973 0.379406
82 1 0.406846 0.305242 0.287412
122 1 0.189007 0.417959 0.398832
6 1 0.293067 0.109156 0.00136251
51 1 0.0200512 0.0124103 0.194935
67 1 0.805416 0.0186331 0.194487
19 1 0.883983 0.0078762 0.074594
310 1 0.787046 0.49096 0.29397
308 1 0.597287 0.481861 0.309601
254 1 0.194761 0.495502 0.113785
260 1 0.797216 0.499723 0.100444
355 1 0.896708 0.495962 0.388752
53 1 0.0799595 0.00414628 0.304985
107 1 0.595156 0.011983 0.39893
11 1 0.487534 0.00456589 0.101079
101 1 0.00928644 0.00247698 0.405627
251 1 0.097109 0.484528 0.00381339
309 1 0.89516 0.496116 0.185159
15 1 0.695545 0.0190339 0.102097
14 1 0.688613 0.111922 0.00372135
26 1 0.312259 0.306658 0.0245843
37 1 0.796536 0.212071 0.00304366
30 1 0.504454 0.300012 0.00400707
378 1 0.410111 0.496572 0.4967
140 1 0.490904 0.212165 0.497035
149 1 0.708028 0.407231 0.492605
38 1 0.89923 0.308677 0.00398041
137 1 0.000232267 0.32287 0.497623
29 1 0.408447 0.207513 0.0262332
139 1 0.197794 0.313113 0.49402
255 1 0.497759 0.495667 0.00443464
21 1 0.00343641 0.199761 0.00656318
47 1 0.604127 0.404727 0.00277576
152 1 0.104745 0.115377 0.580246
173 1 0.105256 0.203554 0.684677
154 1 0.00932058 0.105926 0.688835
171 1 0.996024 0.213081 0.589488
169 1 0.905549 0.00282487 0.691855
456 1 0.407162 0.497898 0.903162
175 1 0.20927 0.215564 0.581776
158 1 0.204943 0.102476 0.680556
156 1 0.295458 0.118948 0.585018
177 1 0.298984 0.20829 0.693494
238 1 0.907392 0.304865 0.785556
407 1 0.705637 0.492301 0.607909
179 1 0.399854 0.191297 0.598928
162 1 0.391792 0.107591 0.713017
160 1 0.48733 0.0916336 0.612025
181 1 0.487938 0.200148 0.702113
405 1 0.511888 0.497901 0.596294
166 1 0.587413 0.108399 0.683891
183 1 0.602339 0.196934 0.594531
164 1 0.700589 0.0941982 0.597717
185 1 0.703174 0.199665 0.688249
187 1 0.814621 0.213068 0.591604
170 1 0.802832 0.114076 0.683937
2 1 0.0871618 0.0929305 0.993725
205 1 0.210936 0.00540801 0.809328
168 1 0.91034 0.110927 0.594024
189 1 0.908526 0.199021 0.707224
458 1 0.601496 0.497363 0.903585
165 1 0.723371 0.0110276 0.686177
172 1 0.0950847 0.313029 0.603833
192 1 0.108426 0.41543 0.692013
178 1 0.202049 0.300621 0.706718
193 1 0.185985 0.427637 0.596342
174 1 0.00410995 0.307974 0.682648
250 1 0.898459 0.397198 0.893539
455 1 0.488984 0.494555 0.788372
406 1 0.417961 0.484914 0.672424
176 1 0.289216 0.310929 0.592477
194 1 0.311452 0.40007 0.678335
248 1 0.700431 0.406207 0.907022
207 1 0.30291 0.00893259 0.912382
49 1 0.799171 0.396306 0.99595
157 1 0.296558 0.00925159 0.705739
403 1 0.307947 0.494767 0.600358
182 1 0.394214 0.303088 0.6917
195 1 0.406034 0.395096 0.585596
180 1 0.497136 0.284863 0.598139
196 1 0.508688 0.383718 0.68366
197 1 0.600539 0.39593 0.591747
186 1 0.60823 0.290621 0.687344
184 1 0.695001 0.306377 0.572615
198 1 0.698465 0.387135 0.69597
161 1 0.491216 0.0107239 0.702216
199 1 0.803545 0.415152 0.601061
190 1 0.805031 0.310516 0.673675
191 1 0.992961 0.411805 0.605268
188 1 0.901528 0.314653 0.587173
200 1 0.893447 0.408988 0.714394
33 1 0.611694 0.217102 0.981244
203 1 0.115468 0.000190204 0.906645
202 1 0.113327 0.10084 0.782621
223 1 0.0928223 0.207339 0.897294
244 1 0.322282 0.396981 0.902658
225 1 0.186213 0.204888 0.799182
204 1 0.0101987 0.0884309 0.884752
249 1 0.795101 0.385082 0.798154
208 1 0.189376 0.113157 0.893968
206 1 0.292135 0.129721 0.796357
227 1 0.304753 0.201389 0.909094
212 1 0.400596 0.0939121 0.909031
229 1 0.390087 0.21388 0.797316
453 1 0.306219 0.499579 0.796225
226 1 0.305156 0.299524 0.805966
404 1 0.206182 0.498067 0.703386
210 1 0.506941 0.10262 0.784276
231 1 0.507725 0.210145 0.902396
234 1 0.68062 0.299996 0.812877
232 1 0.399149 0.284509 0.924519
236 1 0.59766 0.312241 0.903537
43 1 0.202311 0.401756 0.996973
233 1 0.580513 0.207391 0.795219
216 1 0.606421 0.104185 0.886154
214 1 0.710815 0.123991 0.803339
235 1 0.710725 0.203912 0.898938
230 1 0.495933 0.305502 0.806408
221 1 0.011768 0.202303 0.781065
220 1 0.800698 0.0974503 0.886535
237 1 0.812976 0.197816 0.797839
218 1 0.905471 0.0999812 0.798791
239 1 0.918504 0.195736 0.894424
146 1 0.0932771 0.408794 0.505491
245 1 0.406544 0.378802 0.802555
247 1 0.584664 0.424716 0.788032
240 1 0.805121 0.300177 0.898786
246 1 0.507609 0.394402 0.909177
241 1 0.00460089 0.409946 0.799699
224 1 0.996567 0.289981 0.894595
228 1 0.222352 0.298837 0.911045
243 1 0.196823 0.396717 0.823613
242 1 0.0930951 0.388169 0.903737
222 1 0.0779437 0.304645 0.79905
215 1 0.689881 0.0163235 0.894287
133 1 0.590867 0.0968792 0.503083
219 1 0.897223 0.00353092 0.894229
25 1 0.21716 0.207924 0.999641
163 1 0.595616 0.00989078 0.60456
1 1 0.990053 0.00843416 0.988295
451 1 0.109987 0.494896 0.802106
217 1 0.79673 0.0083815 0.803861
457 1 0.699649 0.495727 0.789766
452 1 0.00907927 0.498763 0.916857
22 1 0.105554 0.28916 0.993141
213 1 0.606053 0.021929 0.775556
10 1 0.514081 0.10483 0.993237
136 1 0.0971157 0.223848 0.500598
18 1 0.892718 0.105091 0.994805
127 1 0.0023882 0.0966461 0.509091
135 1 0.798526 0.0808593 0.503028
45 1 0.405486 0.404341 0.994523
259 1 0.888497 0.497741 0.996639
263 1 0.0926433 0.599177 0.103159
312 1 0.111872 0.695244 0.207185
268 1 0.201275 0.691565 0.100728
311 1 0.989242 0.597139 0.197384
384 1 0.192639 0.706264 0.493905
315 1 0.206653 0.600607 0.197583
267 1 0.29061 0.578264 0.0930057
316 1 0.304411 0.688385 0.199038
349 1 0.893072 0.814118 0.291444
256 1 0.405605 0.501823 0.107941
319 1 0.403214 0.600327 0.215292
272 1 0.417345 0.698812 0.118077
271 1 0.503982 0.58687 0.0958536
320 1 0.511604 0.685869 0.218082
323 1 0.600744 0.587862 0.186415
276 1 0.610584 0.69856 0.123717
375 1 0.930161 0.898466 0.378924
366 1 0.0110806 0.790173 0.409169
302 1 0.984801 0.509372 0.294858
289 1 0.402583 0.781987 0.00801407
374 1 0.801084 0.827938 0.398154
275 1 0.713583 0.605691 0.114755
324 1 0.707768 0.686592 0.207301
327 1 0.802945 0.584988 0.208099
352 1 0.310235 0.509776 0.399101
345 1 0.71999 0.785877 0.30983
280 1 0.792304 0.708606 0.103506
264 1 0.999465 0.69911 0.0902887
279 1 0.886009 0.613195 0.109634
328 1 0.895702 0.704815 0.206256
134 1 0.918793 0.988572 0.499549
252 1 0.986941 0.502233 0.0936525
283 1 0.10393 0.806454 0.106941
332 1 0.123977 0.910324 0.199408
288 1 0.217067 0.87677 0.085489
284 1 0.999154 0.917164 0.0721943
69 1 0.917056 0.986198 0.27257
331 1 0.997841 0.805567 0.171594
57 1 0.307681 0.982657 0.320963
373 1 0.688439 0.903859 0.392281
353 1 0.522104 0.50074 0.419166
350 1 0.810165 0.917065 0.290926
335 1 0.210742 0.794783 0.189354
287 1 0.307792 0.773576 0.105699
336 1 0.301249 0.896225 0.200021
292 1 0.396329 0.874072 0.111179
339 1 0.418444 0.78815 0.206326
372 1 0.617981 0.800759 0.412051
291 1 0.514148 0.788334 0.103725
340 1 0.489691 0.89966 0.202612
277 1 0.794203 0.609977 0.000886826
9 1 0.404838 0.974269 0.0151644
346 1 0.601933 0.900114 0.294181
389 1 0.894377 0.597277 0.499202
301 1 0.0997203 0.511024 0.190784
296 1 0.586876 0.904842 0.111442
343 1 0.616716 0.803231 0.211056
295 1 0.685146 0.79778 0.105367
344 1 0.696985 0.904212 0.188639
347 1 0.783963 0.793728 0.201198
300 1 0.795214 0.900053 0.0839781
299 1 0.887074 0.815244 0.0925278
348 1 0.895693 0.898645 0.185384
313 1 0.110718 0.591315 0.28127
357 1 0.100144 0.692245 0.381715
356 1 0.99909 0.604925 0.401564
303 1 0.289677 0.515442 0.208295
351 1 0.0901967 0.507637 0.39711
318 1 0.199602 0.698147 0.302357
358 1 0.206089 0.609716 0.404015
317 1 0.307817 0.624913 0.312681
359 1 0.303002 0.715944 0.40693
322 1 0.413972 0.712081 0.306149
360 1 0.393236 0.608048 0.409841
265 1 0.185963 0.590877 0.0149353
321 1 0.516659 0.587837 0.301306
361 1 0.505505 0.691133 0.388758
61 1 0.506885 0.998207 0.29688
371 1 0.508538 0.900983 0.402217
380 1 0.79007 0.503651 0.494739
362 1 0.602929 0.5998 0.413699
326 1 0.600199 0.709966 0.303831
325 1 0.68112 0.610997 0.298204
363 1 0.7029 0.69885 0.422609
364 1 0.7967 0.598418 0.399913
369 1 0.296623 0.889042 0.412706
342 1 0.400538 0.899129 0.309602
370 1 0.424066 0.807546 0.397565
395 1 0.512892 0.791022 0.494579
314 1 0.989656 0.696643 0.289248
330 1 0.816203 0.702516 0.29982
365 1 0.90134 0.711932 0.405396
329 1 0.908769 0.600938 0.306672
338 1 0.193639 0.898029 0.307268
337 1 0.293714 0.805599 0.297004
341 1 0.508588 0.812952 0.300416
368 1 0.20219 0.798858 0.400445
334 1 0.00368367 0.884554 0.284093
367 1 0.0936203 0.899772 0.386519
333 1 0.0968826 0.790837 0.29299
399 1 0.901834 0.813837 0.489686
306 1 0.402088 0.516179 0.3125
307 1 0.684644 0.504196 0.198984
382 1 0.00256405 0.701048 0.496815
105 1 0.406143 0.985437 0.414417
103 1 0.182593 0.998256 0.41396
304 1 0.203243 0.513083 0.310955
5 1 0.204007 0.981941 0.0026896
3 1 0.1243 0.995643 0.111165
109 1 0.816428 0.964126 0.410732
394 1 0.197658 0.893763 0.498726
293 1 0.594855 0.782318 0.00825262
297 1 0.793587 0.797315 0.0106591
278 1 0.892005 0.697151 0.0153731
281 1 0.988007 0.796221 0.00646661
270 1 0.504084 0.691221 0.0158698
273 1 0.601443 0.607738 0.0154017
376 1 0.00714727 0.508416 0.498651
262 1 0.0942612 0.69477 0.0164999
13 1 0.589562 0.99848 0.00613347
132 1 0.694692 0.9954 0.489137
282 1 0.0882185 0.877778 0.00121149
257 1 0.679907 0.507552 0.0135123
386 1 0.412835 0.699852 0.483761
381 1 0.096729 0.615424 0.479507
388 1 0.596515 0.694549 0.493021
390 1 0.808386 0.723431 0.47689
266 1 0.298548 0.681235 0.00586591
261 1 0.990408 0.598375 0.0166698
269 1 0.400709 0.591541 0.0117322
412 1 0.105795 0.688407 0.605465
413 1 0.0910462 0.592142 0.702259
418 1 0.183083 0.686366 0.723537
415 1 0.194973 0.599077 0.603329
414 1 0.0157458 0.689921 0.717292
153 1 0.0993867 0.99373 0.700542
397 1 0.697686 0.813666 0.512013
416 1 0.28218 0.692161 0.618286
417 1 0.303561 0.583671 0.705289
167 1 0.816855 0.990149 0.589367
422 1 0.385882 0.677466 0.70307
419 1 0.404438 0.609719 0.596718
420 1 0.492332 0.710856 0.588604
421 1 0.489731 0.591938 0.695309
426 1 0.602471 0.702129 0.692718
423 1 0.594846 0.611404 0.587914
126 1 0.0916227 0.982041 0.508912
151 1 0.00390095 0.991637 0.593397
391 1 0.0962667 0.795223 0.508201
159 1 0.394658 0.97321 0.592884
408 1 0.604108 0.511867 0.689132
424 1 0.699861 0.713987 0.589508
425 1 0.689353 0.614069 0.704169
430 1 0.778595 0.701503 0.700728
401 1 0.0888988 0.526209 0.598564
209 1 0.402088 0.993792 0.806639
201 1 0.013036 0.993511 0.788973
500 1 0.799854 0.885617 0.911271
427 1 0.804868 0.628537 0.599484
411 1 0.989204 0.621745 0.606597
428 1 0.895445 0.705145 0.570922
429 1 0.888437 0.623565 0.713392
499 1 0.888215 0.801331 0.910147
432 1 0.100963 0.889316 0.60084
433 1 0.101748 0.807147 0.725762
438 1 0.208175 0.881035 0.706487
435 1 0.198946 0.797599 0.583179
410 1 0.803465 0.528504 0.693036
436 1 0.301922 0.886005 0.608595
437 1 0.289323 0.779738 0.709817
439 1 0.38122 0.776414 0.601854
498 1 0.883205 0.891512 0.799803
489 1 0.399253 0.776871 0.802891
459 1 0.886259 0.50201 0.814896
460 1 0.784767 0.505433 0.898686
442 1 0.380849 0.894156 0.711413
440 1 0.491703 0.889485 0.615183
441 1 0.499249 0.789112 0.711337
443 1 0.599986 0.799385 0.604034
454 1 0.190119 0.511566 0.911677
487 1 0.299576 0.780045 0.90661
211 1 0.498413 0.998274 0.902732
494 1 0.694922 0.902748 0.784459
496 1 0.606663 0.916494 0.892682
402 1 0.991011 0.509589 0.70338
130 1 0.503226 0.994805 0.507606
446 1 0.59088 0.907994 0.699059
444 1 0.698834 0.907742 0.599987
445 1 0.688664 0.796932 0.708267
450 1 0.800314 0.899716 0.684102
447 1 0.80156 0.787876 0.592593
434 1 0.994031 0.900849 0.686278
431 1 0.999083 0.786796 0.629464
486 1 0.283852 0.897719 0.813004
448 1 0.894444 0.872104 0.611332
449 1 0.890931 0.792326 0.708088
497 1 0.782481 0.806157 0.806972
462 1 0.083712 0.678589 0.822818
463 1 0.0857554 0.594655 0.906845
398 1 0.59772 0.891823 0.502577
492 1 0.399548 0.88407 0.903129
468 1 0.199293 0.680917 0.900478
465 1 0.202613 0.582633 0.806022
466 1 0.295369 0.689596 0.80294
467 1 0.306508 0.595748 0.906407
469 1 0.400088 0.601745 0.801699
472 1 0.401944 0.684085 0.91171
488 1 0.188414 0.888604 0.908197
470 1 0.500775 0.682127 0.804967
471 1 0.499101 0.590985 0.906001
473 1 0.599046 0.589473 0.792959
476 1 0.588924 0.700439 0.910048
400 1 0.800282 0.890636 0.517084
474 1 0.681973 0.683567 0.807068
475 1 0.694872 0.604697 0.909527
480 1 0.784943 0.703039 0.886834
495 1 0.682476 0.793315 0.892372
409 1 0.897838 0.507473 0.583457
490 1 0.493961 0.886654 0.807055
491 1 0.49638 0.778739 0.899661
493 1 0.595171 0.791171 0.788
461 1 0.989959 0.580612 0.804703
464 1 0.985689 0.699624 0.906054
477 1 0.798407 0.603002 0.797184
478 1 0.884528 0.696132 0.805797
479 1 0.890494 0.608721 0.905024
481 1 0.985855 0.815158 0.80209
484 1 0.0114741 0.909772 0.891796
485 1 0.196224 0.784326 0.816237
483 1 0.0928507 0.796794 0.896564
482 1 0.120896 0.914316 0.803376
392 1 0.0112945 0.886502 0.505454
396 1 0.411808 0.884031 0.505115
294 1 0.688365 0.912275 0.994899
285 1 0.192795 0.781158 0.987086
155 1 0.20888 0.989524 0.600689
393 1 0.303102 0.787978 0.502853
383 1 0.312778 0.611063 0.507676
286 1 0.307348 0.875195 0.995543
290 1 0.508353 0.884136 0.997142
17 1 0.78386 0.992648 0.981057
298 1 0.900684 0.897277 0.991007
379 1 0.608205 0.507744 0.507144
274 1 0.688608 0.697297 0.986631
387 1 0.697676 0.597007 0.50333
385 1 0.49287 0.590852 0.50486
253 1 0.291453 0.501621 0.9916
128 1 0.290859 0.993667 0.500016
377 1 0.20202 0.511141 0.501366
