ITEM: TIMESTEP
21500
ITEM: NUMBER OF ATOMS
500
ITEM: BOX BOUNDS pp pp pp
0.0000000000000000e+00 2.6299999999999997e+01
0.0000000000000000e+00 2.6299999999999997e+01
0.0000000000000000e+00 2.6299999999999997e+01
ITEM: ATOMS id type xs ys zs
23 1 0.113058 0.206653 0.104427
52 1 0.0909023 0.107275 0.219979
75 1 0.206429 0.197427 0.206439
8 1 0.195348 0.110828 0.116474
27 1 0.299901 0.199144 0.105959
56 1 0.297327 0.105642 0.207154
12 1 0.412746 0.103083 0.107195
79 1 0.423856 0.196643 0.199752
3 1 0.104379 0.0145963 0.107922
9 1 0.425171 0.00456571 0.0113584
53 1 0.0952059 0.000687749 0.306178
31 1 0.505147 0.203659 0.102007
60 1 0.512806 0.0934941 0.216199
256 1 0.385982 0.498379 0.0960509
353 1 0.505287 0.492204 0.400036
355 1 0.885988 0.473432 0.398872
16 1 0.602261 0.0926119 0.121135
83 1 0.597822 0.204976 0.196462
35 1 0.685307 0.193234 0.0945695
64 1 0.705107 0.103542 0.191331
20 1 0.787757 0.0902762 0.0833014
127 1 0.999847 0.10573 0.48537
11 1 0.508625 0.00871875 0.103321
71 1 0.995004 0.20825 0.203254
18 1 0.906311 0.0762751 0.0258621
87 1 0.793928 0.200605 0.1873
4 1 0.0110121 0.115963 0.110281
39 1 0.889951 0.187026 0.0950992
68 1 0.892031 0.0924853 0.185285
103 1 0.208719 0.0265522 0.392443
258 1 0.600315 0.490418 0.0989112
42 1 0.102085 0.400305 0.100821
72 1 0.0987297 0.302846 0.193586
28 1 0.209161 0.309102 0.0964794
24 1 0.997171 0.277473 0.0959304
67 1 0.791992 0.0112274 0.207947
306 1 0.412183 0.48232 0.309743
93 1 0.207263 0.417645 0.190448
44 1 0.298132 0.389355 0.112957
76 1 0.300582 0.287313 0.205653
95 1 0.402252 0.41388 0.199501
147 1 0.292536 0.40484 0.494024
32 1 0.400187 0.310168 0.11446
46 1 0.488222 0.414439 0.099959
80 1 0.512553 0.301601 0.216471
125 1 0.775885 0.405303 0.404059
6 1 0.323955 0.102492 0.00122641
100 1 0.908641 0.406087 0.283693
97 1 0.596859 0.398429 0.200305
36 1 0.597568 0.323097 0.103213
48 1 0.705974 0.397549 0.114288
84 1 0.686607 0.29497 0.200205
40 1 0.798317 0.29193 0.0958457
146 1 0.0762979 0.376608 0.491347
91 1 0.00171581 0.404589 0.193553
99 1 0.796643 0.39952 0.209316
50 1 0.87492 0.397793 0.0866669
88 1 0.892642 0.298812 0.185451
304 1 0.207603 0.494272 0.290593
150 1 0.897047 0.39551 0.497452
59 1 0.410707 0.00699941 0.188908
120 1 0.879605 0.295438 0.383282
73 1 0.0948963 0.205319 0.297873
102 1 0.089473 0.112347 0.389803
113 1 0.181555 0.190196 0.427424
54 1 0.986152 0.0966092 0.314205
111 1 0.991721 0.210511 0.391786
7 1 0.294208 0.0172984 0.106947
94 1 0.300023 0.397176 0.302344
78 1 0.208355 0.287687 0.297166
58 1 0.20587 0.119585 0.315337
77 1 0.318549 0.202356 0.303765
104 1 0.313019 0.117823 0.405015
115 1 0.403426 0.199689 0.42261
62 1 0.385249 0.0861702 0.306314
81 1 0.500817 0.197082 0.322076
106 1 0.484546 0.0788094 0.388743
117 1 0.58963 0.201871 0.416035
66 1 0.595967 0.109185 0.314501
122 1 0.207301 0.402481 0.391258
309 1 0.907572 0.496663 0.185859
86 1 0.598758 0.302338 0.320292
85 1 0.689732 0.198304 0.292202
108 1 0.688219 0.0926091 0.403763
70 1 0.795761 0.101072 0.296366
114 1 0.305672 0.304787 0.40133
96 1 0.515364 0.397022 0.312843
90 1 0.777727 0.287237 0.304783
119 1 0.786564 0.196795 0.408164
110 1 0.887747 0.098059 0.397754
89 1 0.892769 0.203012 0.285454
5 1 0.192953 0.00264208 0.0135238
82 1 0.402861 0.295171 0.291718
121 1 0.00835512 0.391138 0.383016
116 1 0.493044 0.302031 0.4106
74 1 0.00560401 0.305388 0.285443
112 1 0.0959746 0.288787 0.400201
92 1 0.113436 0.380748 0.296995
124 1 0.603156 0.402943 0.400124
118 1 0.69199 0.300673 0.409962
98 1 0.692345 0.402959 0.291597
123 1 0.395098 0.382926 0.391505
376 1 0.00706802 0.4899 0.481353
380 1 0.80105 0.488968 0.498248
63 1 0.616424 0.0161841 0.225068
135 1 0.788303 0.0986123 0.487374
55 1 0.184855 0.00957856 0.223484
351 1 0.101802 0.495385 0.381936
305 1 0.503801 0.496112 0.211057
310 1 0.798646 0.494911 0.297997
377 1 0.191497 0.495048 0.496804
138 1 0.292197 0.201866 0.491524
142 1 0.682335 0.195211 0.499235
26 1 0.307231 0.303273 0.0159463
139 1 0.21203 0.30413 0.488581
148 1 0.505973 0.391799 0.492984
29 1 0.396766 0.212917 0.0202281
128 1 0.2971 0.0152801 0.498981
144 1 0.902485 0.193718 0.487057
131 1 0.414839 0.0837345 0.49684
41 1 0.00172413 0.405598 0.0142506
10 1 0.511537 0.10759 0.0126833
378 1 0.409107 0.488854 0.483341
133 1 0.588324 0.0977391 0.482632
152 1 0.100066 0.115277 0.605442
173 1 0.0893714 0.21851 0.716349
175 1 0.209984 0.202841 0.629827
136 1 0.0863211 0.205673 0.503063
154 1 0.993678 0.102068 0.713104
167 1 0.808355 0.0134394 0.592548
158 1 0.204245 0.104547 0.710661
156 1 0.293975 0.0879721 0.60815
177 1 0.31765 0.184381 0.702938
179 1 0.395631 0.202604 0.586348
162 1 0.394062 0.0916989 0.717285
451 1 0.0980475 0.497015 0.810237
38 1 0.889556 0.305497 0.995547
453 1 0.318135 0.492532 0.814229
160 1 0.515845 0.0888893 0.585689
181 1 0.514519 0.204266 0.701812
166 1 0.602976 0.0977317 0.704491
169 1 0.908025 0.00649233 0.687639
161 1 0.501312 0.0103119 0.692403
183 1 0.598479 0.196322 0.602494
164 1 0.705942 0.0928256 0.578761
185 1 0.692435 0.198471 0.693164
207 1 0.313617 0.00209024 0.926543
215 1 0.687316 0.0108453 0.905489
157 1 0.306714 0.00687824 0.707495
171 1 0.00857919 0.229476 0.601304
187 1 0.801783 0.174898 0.592326
170 1 0.785817 0.100035 0.696729
168 1 0.917565 0.12882 0.60511
189 1 0.901093 0.223927 0.706395
159 1 0.405611 0.0186485 0.610634
172 1 0.109062 0.302235 0.60962
192 1 0.113352 0.396944 0.708815
191 1 0.0114355 0.420907 0.589524
13 1 0.588063 0.0066104 0.999457
153 1 0.100252 0.0234457 0.706584
460 1 0.803398 0.49737 0.894748
178 1 0.208613 0.303687 0.713348
193 1 0.205337 0.392895 0.618279
176 1 0.31683 0.294631 0.614042
194 1 0.292946 0.403069 0.714918
406 1 0.393186 0.485338 0.698407
129 1 0.204609 0.118395 0.530665
182 1 0.420726 0.297286 0.701051
195 1 0.405572 0.404758 0.597201
180 1 0.501903 0.302703 0.603524
196 1 0.496556 0.404261 0.699353
197 1 0.59484 0.407633 0.599651
201 1 0.985754 0.00585835 0.80762
224 1 0.00200138 0.304129 0.916471
219 1 0.884241 0.0016259 0.886047
186 1 0.616058 0.303846 0.676644
236 1 0.619042 0.297308 0.903523
184 1 0.712372 0.293807 0.600347
198 1 0.691447 0.418404 0.692067
199 1 0.80154 0.401737 0.597743
228 1 0.193684 0.299525 0.90011
243 1 0.195935 0.3902 0.810414
248 1 0.695328 0.403341 0.870943
174 1 0.999461 0.321749 0.695806
242 1 0.0895715 0.390242 0.902537
190 1 0.797811 0.307579 0.683158
188 1 0.891945 0.280738 0.597584
200 1 0.89726 0.399394 0.700319
249 1 0.804769 0.418869 0.799083
234 1 0.689103 0.303128 0.797387
202 1 0.0842196 0.102272 0.80445
223 1 0.089675 0.200588 0.900984
208 1 0.202896 0.0932581 0.919835
222 1 0.109402 0.298219 0.802086
232 1 0.404162 0.3048 0.902433
226 1 0.311458 0.292893 0.792818
245 1 0.400598 0.393101 0.804681
240 1 0.769755 0.307716 0.905832
225 1 0.186577 0.187923 0.816973
206 1 0.290869 0.101195 0.820547
227 1 0.308737 0.216404 0.899524
212 1 0.40762 0.109563 0.902044
229 1 0.400924 0.201177 0.796034
247 1 0.600967 0.409047 0.787445
210 1 0.496973 0.0996567 0.799408
231 1 0.507255 0.209056 0.896295
233 1 0.604112 0.194773 0.79898
244 1 0.294722 0.393347 0.888181
238 1 0.886584 0.326453 0.802617
216 1 0.575894 0.0963776 0.898069
214 1 0.694339 0.0849349 0.820029
235 1 0.68815 0.195024 0.904292
220 1 0.790314 0.107742 0.896274
230 1 0.521455 0.29826 0.787781
250 1 0.920817 0.399223 0.917734
221 1 0.990188 0.209228 0.802854
204 1 0.980902 0.0943759 0.896206
237 1 0.780809 0.20492 0.811622
218 1 0.878372 0.109927 0.792186
239 1 0.904592 0.20495 0.905802
246 1 0.488566 0.397343 0.885481
241 1 0.000457058 0.4137 0.806666
37 1 0.77741 0.203991 0.994336
14 1 0.68998 0.103103 0.992464
403 1 0.293225 0.496534 0.586232
410 1 0.802932 0.495345 0.682728
49 1 0.783898 0.40456 0.995229
22 1 0.11577 0.313339 0.999359
151 1 0.00419017 0.028156 0.589583
141 1 0.404353 0.304547 0.503649
45 1 0.389952 0.410426 0.975733
21 1 0.990261 0.190797 0.99398
251 1 0.0922258 0.497705 0.998167
209 1 0.396319 0.00802884 0.804815
253 1 0.295421 0.483109 0.991031
401 1 0.119754 0.48662 0.604964
33 1 0.603688 0.20374 0.999624
47 1 0.59955 0.414238 0.995816
34 1 0.68965 0.303084 0.997655
30 1 0.504929 0.309114 0.998766
134 1 0.899693 0.00116559 0.504
17 1 0.801993 0.00530686 0.984719
137 1 0.981072 0.298178 0.502144
140 1 0.499723 0.215836 0.518465
126 1 0.113464 0.0227098 0.501717
149 1 0.695984 0.395007 0.511932
2 1 0.10662 0.107939 0.999714
1 1 0.0141051 0.00811625 0.995956
43 1 0.205063 0.391241 0.989631
143 1 0.597278 0.30698 0.503394
25 1 0.215205 0.202912 0.994087
145 1 0.792276 0.288201 0.50103
263 1 0.104743 0.594763 0.0953313
312 1 0.103126 0.67415 0.20297
315 1 0.206881 0.584893 0.192633
268 1 0.202487 0.706437 0.103121
308 1 0.607833 0.501047 0.297007
61 1 0.490304 0.985414 0.292635
267 1 0.292613 0.587788 0.0843471
316 1 0.281486 0.697238 0.217327
19 1 0.893908 0.960291 0.110841
260 1 0.801028 0.512327 0.0886745
366 1 0.0127177 0.770693 0.379841
392 1 0.00773051 0.892915 0.487874
319 1 0.380046 0.611825 0.182019
272 1 0.386689 0.694014 0.0920141
271 1 0.503545 0.599496 0.0979873
320 1 0.48776 0.693646 0.194591
282 1 0.107884 0.901502 0.00394936
65 1 0.722149 0.994746 0.306002
323 1 0.582619 0.609416 0.202573
276 1 0.605629 0.693346 0.0844946
275 1 0.691908 0.590864 0.101661
324 1 0.680158 0.693827 0.197453
280 1 0.780471 0.694569 0.103174
327 1 0.800979 0.601972 0.201152
352 1 0.286698 0.504541 0.398527
264 1 0.999494 0.714427 0.0792426
311 1 0.986906 0.589995 0.197788
334 1 0.0102053 0.876939 0.311802
398 1 0.595223 0.905536 0.498142
279 1 0.893715 0.605811 0.101747
328 1 0.905688 0.702282 0.176566
389 1 0.909065 0.58746 0.492981
303 1 0.311111 0.502699 0.207245
283 1 0.110948 0.80057 0.101258
332 1 0.0942977 0.889701 0.205754
288 1 0.198784 0.922789 0.114877
284 1 0.0221044 0.921523 0.0824108
331 1 0.0171176 0.776962 0.209741
286 1 0.310799 0.906673 0.00427266
15 1 0.689804 0.987734 0.0829103
335 1 0.198958 0.794984 0.19946
287 1 0.284086 0.795521 0.0825076
336 1 0.287405 0.892879 0.205538
292 1 0.392404 0.892048 0.126226
105 1 0.394454 0.996714 0.410763
107 1 0.590321 0.993268 0.384514
339 1 0.404324 0.794099 0.195896
291 1 0.492875 0.804813 0.0970378
340 1 0.507751 0.902757 0.199139
296 1 0.598906 0.90625 0.0918463
343 1 0.590824 0.788644 0.192291
295 1 0.691596 0.803065 0.10155
344 1 0.686366 0.904174 0.186941
347 1 0.790681 0.775566 0.207726
388 1 0.603169 0.67857 0.498372
130 1 0.506575 0.987188 0.489632
400 1 0.821011 0.905875 0.493307
354 1 0.701906 0.503194 0.407492
300 1 0.798295 0.884694 0.132396
299 1 0.883696 0.79505 0.0808206
348 1 0.907321 0.878802 0.212792
371 1 0.471891 0.895655 0.391187
372 1 0.609475 0.780895 0.387166
270 1 0.500208 0.698675 0.000451465
313 1 0.108175 0.584939 0.302692
357 1 0.112663 0.700536 0.409216
358 1 0.207533 0.60308 0.400162
397 1 0.699159 0.792512 0.492416
252 1 0.0131846 0.507634 0.103555
318 1 0.19328 0.702134 0.313481
317 1 0.295572 0.602631 0.30408
359 1 0.293155 0.716777 0.418205
346 1 0.614074 0.904805 0.305753
322 1 0.412539 0.687977 0.317912
360 1 0.392582 0.582355 0.403583
321 1 0.499667 0.594765 0.315843
361 1 0.514035 0.682546 0.409618
362 1 0.610018 0.605179 0.392432
326 1 0.574718 0.70747 0.286841
349 1 0.913135 0.767786 0.29718
350 1 0.781041 0.889987 0.28731
325 1 0.682915 0.602223 0.287212
363 1 0.714422 0.695039 0.38838
364 1 0.808834 0.59203 0.392686
57 1 0.313654 0.987015 0.287016
109 1 0.804729 0.986266 0.403569
356 1 0.0111198 0.598142 0.408907
314 1 0.0164875 0.677036 0.303793
330 1 0.80917 0.682807 0.295125
365 1 0.905444 0.691829 0.405893
329 1 0.908253 0.588589 0.29322
69 1 0.88217 0.998734 0.28911
345 1 0.695002 0.784317 0.287116
369 1 0.293368 0.906734 0.408947
368 1 0.218252 0.801762 0.396272
333 1 0.118873 0.791548 0.295554
367 1 0.0989782 0.884363 0.401259
341 1 0.488149 0.80257 0.2968
374 1 0.815012 0.804703 0.397761
373 1 0.702444 0.903458 0.409107
337 1 0.312783 0.805074 0.309922
338 1 0.201101 0.910476 0.305523
342 1 0.39573 0.899317 0.28296
370 1 0.411692 0.788521 0.431122
375 1 0.914471 0.889314 0.380028
307 1 0.698971 0.503349 0.211978
254 1 0.192299 0.502 0.0916323
301 1 0.101811 0.50793 0.206738
302 1 0.00208177 0.504236 0.297863
51 1 0.00231222 0.988739 0.202957
101 1 0.984999 0.986447 0.404734
387 1 0.721356 0.603856 0.497122
396 1 0.385828 0.90654 0.497602
269 1 0.397019 0.595948 0.000152127
277 1 0.787388 0.607878 0.00140497
255 1 0.494976 0.504538 0.000320672
383 1 0.301143 0.605373 0.495908
399 1 0.908791 0.789164 0.49708
278 1 0.878902 0.69616 0.0139357
390 1 0.801511 0.695704 0.493581
293 1 0.598745 0.810742 0.00833975
412 1 0.120668 0.694868 0.60661
413 1 0.119511 0.605931 0.694532
418 1 0.200631 0.69746 0.720739
459 1 0.908977 0.50696 0.786276
385 1 0.48153 0.595487 0.514942
281 1 0.992286 0.813268 0.995868
415 1 0.211334 0.591822 0.591482
416 1 0.286503 0.713794 0.600845
417 1 0.30927 0.598348 0.705225
422 1 0.40449 0.693187 0.688578
404 1 0.203874 0.501566 0.717251
409 1 0.910052 0.506059 0.599643
384 1 0.199064 0.711196 0.500608
419 1 0.396157 0.574623 0.601736
420 1 0.514685 0.701795 0.599543
421 1 0.501646 0.596479 0.698179
213 1 0.603873 0.994847 0.807803
203 1 0.101411 0.996879 0.894853
386 1 0.400974 0.696773 0.523344
426 1 0.603787 0.70511 0.689493
423 1 0.604468 0.596191 0.598618
424 1 0.695471 0.699482 0.582925
425 1 0.712129 0.601019 0.683157
430 1 0.805533 0.700802 0.696462
427 1 0.812566 0.608065 0.590015
391 1 0.0977062 0.798985 0.507417
407 1 0.697766 0.507846 0.577794
411 1 0.0214839 0.598714 0.58947
414 1 0.0125968 0.687496 0.70506
428 1 0.912809 0.685343 0.588617
429 1 0.905608 0.609465 0.683414
454 1 0.194757 0.509094 0.918815
432 1 0.0952034 0.920871 0.581799
433 1 0.0941111 0.816979 0.701834
435 1 0.203425 0.825328 0.620812
434 1 0.0120477 0.917888 0.695939
431 1 0.00252802 0.806534 0.59051
499 1 0.887207 0.797682 0.909265
438 1 0.196821 0.91968 0.706571
436 1 0.304853 0.914083 0.612295
437 1 0.306486 0.797733 0.711856
442 1 0.400947 0.913964 0.703503
439 1 0.402581 0.796782 0.610838
498 1 0.911395 0.885223 0.800797
440 1 0.487214 0.906683 0.597971
441 1 0.504876 0.791837 0.697767
443 1 0.597406 0.812095 0.599653
446 1 0.579619 0.907548 0.701064
444 1 0.708538 0.884339 0.581357
445 1 0.700564 0.813097 0.690267
447 1 0.812985 0.789297 0.588609
274 1 0.69645 0.713423 0.999044
155 1 0.2047 0.998966 0.605289
450 1 0.812642 0.879781 0.692497
448 1 0.909031 0.887781 0.592079
449 1 0.927954 0.790231 0.703167
273 1 0.608443 0.599982 0.984801
452 1 0.993596 0.501254 0.896541
265 1 0.200733 0.606082 0.998509
494 1 0.695057 0.893782 0.803807
462 1 0.0937582 0.724392 0.802327
463 1 0.098263 0.610942 0.911853
465 1 0.18241 0.596146 0.812411
468 1 0.197632 0.709913 0.891378
262 1 0.0941536 0.710271 0.997514
163 1 0.589267 0.988236 0.597368
261 1 0.98524 0.608085 0.996132
165 1 0.680585 0.987175 0.689156
466 1 0.295965 0.704345 0.812423
467 1 0.311001 0.595395 0.90628
469 1 0.407016 0.611975 0.791192
472 1 0.399482 0.697033 0.895783
470 1 0.50345 0.695057 0.801524
471 1 0.496166 0.598525 0.902269
298 1 0.90331 0.90238 0.987895
490 1 0.49317 0.901858 0.797006
473 1 0.602481 0.604224 0.78925
476 1 0.603595 0.697949 0.894115
474 1 0.709352 0.689506 0.77685
475 1 0.706169 0.607031 0.89293
493 1 0.585017 0.796688 0.800649
497 1 0.805801 0.784978 0.782174
461 1 0.0175266 0.591734 0.812864
464 1 0.967776 0.701592 0.914375
477 1 0.801365 0.590629 0.784737
480 1 0.793163 0.709013 0.905617
478 1 0.903147 0.683282 0.788449
479 1 0.889909 0.594534 0.891676
484 1 0.999985 0.903499 0.905233
496 1 0.590392 0.890713 0.89631
485 1 0.197375 0.81709 0.8084
488 1 0.208508 0.899195 0.916498
481 1 0.979268 0.783107 0.823051
483 1 0.0971178 0.807806 0.901486
482 1 0.0917766 0.906338 0.804394
491 1 0.492481 0.807837 0.895769
408 1 0.592904 0.50303 0.688052
495 1 0.707615 0.7937 0.904044
500 1 0.806542 0.88884 0.876124
486 1 0.318364 0.89941 0.801188
487 1 0.308293 0.80783 0.905644
489 1 0.409203 0.790301 0.804321
492 1 0.403684 0.90955 0.908084
457 1 0.69546 0.510415 0.784214
455 1 0.504014 0.506027 0.792389
217 1 0.792761 0.990026 0.777294
456 1 0.405034 0.50634 0.90024
266 1 0.294718 0.706491 0.996523
381 1 0.105789 0.614835 0.500414
458 1 0.607034 0.505781 0.89323
405 1 0.503742 0.501737 0.598696
402 1 0.00917311 0.517394 0.700664
211 1 0.503554 0.989897 0.894124
205 1 0.204703 0.978208 0.820233
297 1 0.795405 0.79419 0.995952
395 1 0.511915 0.798815 0.516643
290 1 0.502198 0.901571 0.99154
257 1 0.69502 0.504904 0.987644
294 1 0.717513 0.905561 0.98386
394 1 0.187825 0.897235 0.501724
289 1 0.413065 0.798669 0.99916
285 1 0.187448 0.79996 0.992998
393 1 0.293427 0.819657 0.515017
382 1 0.0155431 0.710396 0.501782
379 1 0.596653 0.503185 0.506608
132 1 0.697506 0.985204 0.504908
259 1 0.889746 0.510397 0.992798
