ITEM: TIMESTEP
20500
ITEM: NUMBER OF ATOMS
864
ITEM: BOX BOUNDS pp pp pp
0.0000000000000000e+00 3.1559999999999999e+01
0.0000000000000000e+00 3.1559999999999999e+01
0.0000000000000000e+00 3.1559999999999999e+01
ITEM: ATOMS id type xs ys zs
8 1 0.154629 0.0633684 0.0893251
27 1 0.0799194 0.171325 0.085448
74 1 0.0907808 0.0960462 0.168623
31 1 0.244537 0.162157 0.0668814
12 1 0.323483 0.0758562 0.0955018
579 1 0.0874846 0.49924 0.408273
78 1 0.247795 0.0945585 0.170105
82 1 0.41613 0.0699295 0.155551
16 1 0.50844 0.0847841 0.0720184
221 1 0.17359 0.0090033 0.495249
165 1 0.817919 0.00658661 0.329371
81 1 0.333423 0.00578931 0.172556
20 1 0.68271 0.086557 0.0663762
215 1 0.910525 0.327987 0.410756
519 1 0.580784 0.482762 0.255403
90 1 0.757034 0.0850894 0.164798
266 1 0.0819457 0.411534 0.497554
155 1 0.433884 0.0132089 0.417652
222 1 0.246129 0.107826 0.493532
657 1 0.334817 0.49514 0.491238
4 1 0.995215 0.0761129 0.0972814
24 1 0.839327 0.0959123 0.075396
94 1 0.909628 0.0698696 0.175507
214 1 0.921249 0.407201 0.3396
28 1 -0.000677695 0.245825 0.0934093
32 1 0.159805 0.253801 0.0687646
125 1 0.154444 0.328978 0.162999
105 1 0.338145 0.163996 0.161493
62 1 0.587934 0.415907 0.0060668
55 1 0.246429 0.333908 0.0901916
36 1 0.337461 0.242232 0.0825451
35 1 0.428628 0.171773 0.0842002
583 1 0.26306 0.497438 0.406031
106 1 0.418095 0.240018 0.169426
40 1 0.503875 0.249407 0.0884536
39 1 0.592605 0.15833 0.0801445
44 1 0.665338 0.252661 0.0847321
110 1 0.579275 0.244199 0.155851
133 1 0.494834 0.329077 0.177298
441 1 0.348761 0.494265 0.0191304
43 1 0.757431 0.172164 0.0773507
117 1 0.840407 0.163665 0.174892
67 1 0.73859 0.341767 0.0745299
113 1 0.681244 0.171818 0.153082
517 1 0.506935 0.497968 0.165029
47 1 0.909959 0.168449 0.087599
48 1 0.830386 0.263174 0.0864805
97 1 0.00502156 0.154528 0.169978
118 1 0.923992 0.260886 0.170054
149 1 0.161489 0.0120062 0.341536
51 1 0.0717084 0.322802 0.0727196
1 1 0.989346 0.00347988 0.00143578
52 1 -0.000457308 0.425683 0.0803801
54 1 0.244931 0.423203 0.00872605
595 1 0.748274 0.499687 0.421399
56 1 0.173719 0.423926 0.0859644
60 1 0.334924 0.420219 0.0907165
59 1 0.421684 0.330712 0.0849446
64 1 0.505579 0.415862 0.0860371
129 1 0.339392 0.335993 0.154689
130 1 0.424558 0.422263 0.171233
511 1 0.241741 0.489876 0.260124
63 1 0.589778 0.342697 0.0895638
134 1 0.591933 0.424251 0.166935
68 1 0.665634 0.421804 0.0928879
85 1 0.513766 0.00220517 0.159327
83 1 0.42073 -0.00204763 0.250327
138 1 0.749062 0.413473 0.1654
141 1 0.844024 0.33114 0.163915
167 1 0.891576 0.0104575 0.422977
157 1 0.512116 0.00951649 0.337444
71 1 0.939305 0.337331 0.0805276
72 1 0.832056 0.413024 0.0880756
599 1 0.908496 0.490902 0.419102
80 1 0.174529 0.0770453 0.25788
99 1 0.0891412 0.170504 0.250554
169 1 0.996481 0.171703 0.335687
211 1 0.738806 0.346793 0.424363
101 1 0.168116 0.180041 0.159475
84 1 0.332031 0.0832037 0.249275
103 1 0.240374 0.159694 0.252032
150 1 0.254145 0.0845126 0.333952
154 1 0.429853 0.0880007 0.337255
525 1 0.831427 0.493926 0.174316
88 1 0.507905 0.0817613 0.232155
86 1 0.598927 0.081616 0.152399
158 1 0.597778 0.0818233 0.330702
92 1 0.675521 0.0863635 0.238884
185 1 0.661083 0.165112 0.324739
76 1 0.00180638 0.0672885 0.247768
661 1 0.493503 0.49795 0.4942
96 1 0.830646 0.0792527 0.24466
166 1 0.901049 0.0854298 0.323637
98 1 0.0857668 0.248069 0.16885
104 1 0.161148 0.241434 0.269735
100 1 0.00634384 0.256885 0.244828
121 1 0.0211679 0.348363 0.1663
170 1 0.076218 0.252146 0.337687
102 1 0.243262 0.244838 0.157028
108 1 0.325943 0.23999 0.242732
197 1 0.178278 0.329059 0.330204
174 1 0.252416 0.251165 0.331336
109 1 0.503667 0.15631 0.158942
107 1 0.422939 0.149038 0.236772
178 1 0.421147 0.246406 0.332492
112 1 0.506338 0.248354 0.247877
131 1 0.402808 0.321948 0.24234
111 1 0.587078 0.157091 0.241874
182 1 0.589178 0.272255 0.326775
114 1 0.758619 0.244262 0.161304
115 1 0.74739 0.161496 0.249863
116 1 0.670063 0.240744 0.239307
139 1 0.753233 0.331788 0.239974
120 1 0.836678 0.252375 0.238522
119 1 0.920317 0.170147 0.245283
143 1 0.934548 0.354193 0.243482
189 1 0.818101 0.170704 0.324132
123 1 0.0953856 0.325703 0.258458
122 1 0.0839689 0.433937 0.166291
194 1 0.0976897 0.417891 0.335951
124 1 0.0150749 0.411548 0.266516
193 1 0.00352968 0.336532 0.339939
126 1 0.247933 0.422957 0.176533
127 1 0.269353 0.326835 0.242042
128 1 0.168901 0.406617 0.24414
132 1 0.335586 0.416549 0.257382
198 1 0.236123 0.40957 0.334494
136 1 0.494396 0.42126 0.255676
202 1 0.409684 0.404929 0.329514
205 1 0.502873 0.336274 0.336155
137 1 0.66052 0.32696 0.163667
216 1 0.824846 0.416802 0.425785
135 1 0.586006 0.31717 0.236176
206 1 0.584992 0.422481 0.333295
140 1 0.672104 0.418614 0.238787
210 1 0.750294 0.411797 0.329377
142 1 0.913076 0.417133 0.154015
213 1 0.830474 0.335098 0.32947
144 1 0.823819 0.406249 0.24134
159 1 0.586479 0.00354094 0.414783
146 1 0.0725236 0.0963126 0.33186
148 1 0.97987 0.0882718 0.416896
173 1 0.172576 0.154395 0.339368
177 1 0.344022 0.163001 0.331277
212 1 0.667484 0.428339 0.42006
152 1 0.16432 0.0894854 0.422224
156 1 0.324152 0.0615418 0.438279
181 1 0.514838 0.16947 0.335267
521 1 0.664971 0.500907 0.176384
160 1 0.513186 0.0993601 0.41807
164 1 0.663607 0.0871645 0.41405
183 1 0.595383 0.172531 0.408338
451 1 0.74347 0.496569 0.0974429
265 1 0.98975 0.320508 0.49995
200 1 0.16816 0.408225 0.430909
162 1 0.745391 0.0878969 0.336552
187 1 0.746563 0.168865 0.412126
207 1 0.592126 0.328303 0.426197
168 1 0.821757 0.0976019 0.420943
87 1 0.594616 -0.00210148 0.246534
577 1 0.999041 0.496767 0.336562
171 1 0.0854523 0.172923 0.419747
172 1 0.993802 0.254282 0.414439
176 1 0.173374 0.246279 0.413686
175 1 0.262012 0.168356 0.399412
199 1 0.250378 0.327274 0.415554
180 1 0.343156 0.254888 0.416482
14 1 0.595283 0.0719532 0.00576183
653 1 0.154585 0.500488 0.483322
203 1 0.418287 0.333334 0.418302
179 1 0.432597 0.178647 0.422462
188 1 0.674614 0.245321 0.416908
184 1 0.502395 0.256213 0.402767
277 1 0.506554 0.345284 0.486356
201 1 0.332977 0.324501 0.33706
204 1 0.33502 0.407039 0.411967
186 1 0.747914 0.250799 0.331035
30 1 0.245094 0.267658 0.00187498
192 1 0.820252 0.25962 0.414425
190 1 0.925345 0.250272 0.322571
191 1 0.900555 0.177833 0.412585
196 1 0.99115 0.406426 0.428152
208 1 0.493452 0.416415 0.41106
195 1 0.0879046 0.339033 0.420469
209 1 0.671704 0.337949 0.328084
593 1 0.681986 0.499758 0.331559
250 1 0.433158 0.255579 0.499607
439 1 0.26408 0.497585 0.089695
33 1 0.335506 0.15945 0.0117959
447 1 0.575302 0.500332 0.081548
597 1 0.836557 0.487872 0.329006
249 1 0.34688 0.157568 0.485052
443 1 0.427383 0.502682 0.0858196
26 1 0.0780034 0.253464 -0.00307057
274 1 0.419856 0.418467 0.501592
10 1 0.414827 0.086228 0.0083202
523 1 0.74572 0.498115 0.244403
2 1 0.0773998 0.0762024 0.00804721
38 1 0.579261 0.247164 0.00500354
147 1 0.0848248 0.0161304 0.418775
145 1 0.997652 0.00373835 0.340416
218 1 0.0824181 0.0938461 0.500386
527 1 0.921407 0.486627 0.24245
286 1 0.913169 0.415466 0.497945
66 1 0.746588 0.430244 0.00885397
241 1 0.991291 0.171611 0.498281
254 1 0.553648 0.24805 0.49451
50 1 0.0776827 0.412513 0.00667356
53 1 0.161141 0.333127 0.00661748
61 1 0.504592 0.345627 0.00472985
58 1 0.418407 0.415347 0.00140315
278 1 0.580454 0.423124 0.483047
22 1 0.926792 0.0875236 0.00682565
229 1 0.519117 0.0135287 0.498094
42 1 0.764526 0.251193 0.00672893
257 1 0.657648 0.17881 0.498576
262 1 0.903053 0.256033 0.488761
238 1 0.90385 0.0809139 0.498512
226 1 0.416884 0.0748161 0.498358
70 1 0.913678 0.423446 0.00523826
243 1 0.0787086 0.175973 0.566286
224 1 0.16461 0.0932505 0.576672
431 1 0.921555 0.337019 0.889253
290 1 0.0904768 0.102073 0.664799
371 1 0.397974 0.0125872 0.929085
317 1 0.16729 0.176013 0.667845
813 1 0.833043 0.498837 0.838077
228 1 0.337611 0.0919559 0.582166
251 1 0.408088 0.156868 0.602987
321 1 0.328976 0.19029 0.662774
69 1 0.863264 0.330586 0.990197
45 1 0.842856 0.180488 0.993725
239 1 0.913297 0.00380709 0.575188
735 1 0.589633 0.501769 0.740171
232 1 0.514198 0.0830794 0.580421
801 1 0.328762 0.492522 0.846379
236 1 0.66624 0.0927715 0.587212
255 1 0.582182 0.17335 0.586186
240 1 0.821637 0.0896972 0.578982
259 1 0.732487 0.172415 0.575192
291 1 0.0821369 0.00059594 0.742143
281 1 0.666482 0.344473 0.502719
220 1 0.989613 0.0791397 0.580688
263 1 0.9045 0.174502 0.579427
49 1 0.985956 0.348781 0.980277
307 1 0.740223 0.00225771 0.755233
248 1 0.16852 0.249006 0.580173
314 1 0.0864313 0.263235 0.659959
267 1 0.073433 0.342349 0.582782
244 1 0.00912694 0.249271 0.598452
341 1 0.172258 0.342902 0.666644
337 1 0.0011414 0.335822 0.666234
433 1 0.993509 0.495394 1.00285
247 1 0.258158 0.180371 0.579512
318 1 0.251581 0.262623 0.674066
271 1 0.264353 0.321908 0.584528
375 1 0.58597 0.0133629 0.914287
803 1 0.430619 0.496183 0.926127
811 1 0.749 0.495938 0.925594
252 1 0.344685 0.250234 0.567824
275 1 0.427993 0.337358 0.588413
256 1 0.496976 0.250559 0.588107
279 1 0.59096 0.335709 0.592292
326 1 0.585302 0.251188 0.67836
260 1 0.655536 0.253549 0.585338
283 1 0.743019 0.33066 0.599263
330 1 0.743479 0.250121 0.683701
357 1 0.822376 0.335272 0.673462
264 1 0.836554 0.268694 0.594922
287 1 0.928914 0.330516 0.586945
334 1 0.917392 0.264468 0.691507
258 1 0.746155 0.252863 0.503047
272 1 0.173829 0.421987 0.575971
268 1 0.992494 0.439607 0.566443
29 1 0.156601 0.144705 1.00146
365 1 0.161118 0.0103 0.827078
342 1 0.258227 0.419576 0.659229
261 1 0.828439 0.16478 0.502496
245 1 0.164903 0.17908 0.500516
276 1 0.346352 0.422478 0.577701
280 1 0.515442 0.425755 0.579379
346 1 0.406931 0.416908 0.676657
412 1 0.00654269 0.421837 0.904957
350 1 0.579729 0.422057 0.664431
284 1 0.655341 0.419512 0.588762
354 1 0.736766 0.423529 0.660484
13 1 0.500761 0.000894588 1.0005
282 1 0.762724 0.430015 0.51085
219 1 0.0736815 0.0119981 0.57074
288 1 0.840789 0.397643 0.58461
358 1 0.922731 0.405842 0.668921
18 1 0.759761 0.0716865 0.996318
242 1 0.0824875 0.25723 0.501637
389 1 0.162729 0.160482 0.830506
315 1 0.0862816 0.174756 0.754458
294 1 0.233222 0.0752055 0.661382
296 1 0.169427 0.095353 0.747408
300 1 0.335371 0.0933443 0.741581
298 1 0.419243 0.0693379 0.652448
323 1 0.427261 0.162479 0.742808
651 1 0.0835256 0.49217 0.573221
741 1 0.836689 0.484181 0.663818
304 1 0.496249 0.0668645 0.747564
302 1 0.590033 0.0885462 0.660871
325 1 0.501345 0.162729 0.664288
308 1 0.655426 0.0811227 0.755175
329 1 0.667176 0.157906 0.674905
432 1 0.821112 0.412504 0.927601
306 1 0.751467 0.0727257 0.660483
312 1 0.824862 0.0772092 0.74298
292 1 0.00487924 0.0874463 0.731716
815 1 0.913565 0.498208 0.911423
310 1 0.908139 0.0902878 0.667296
333 1 0.801026 0.164043 0.669295
335 1 0.902999 0.1684 0.748494
313 1 0.99223 0.173724 0.661323
386 1 0.0950108 0.255464 0.829577
316 1 0.00936895 0.245585 0.74756
339 1 0.0877647 0.325152 0.747462
409 1 0.00769677 0.327322 0.834568
320 1 0.177144 0.248478 0.762939
319 1 0.246925 0.159883 0.735114
390 1 0.250316 0.264873 0.844328
343 1 0.253301 0.340156 0.749388
417 1 0.349338 0.334871 0.829818
345 1 0.344292 0.324935 0.669085
322 1 0.434188 0.247564 0.667324
324 1 0.345964 0.246263 0.744778
353 1 0.665222 0.334766 0.680797
349 1 0.502808 0.346576 0.665031
327 1 0.577072 0.154003 0.749987
328 1 0.498501 0.254004 0.751953
332 1 0.6423 0.241036 0.759415
331 1 0.737925 0.159184 0.755097
402 1 0.745802 0.252439 0.849761
336 1 0.824228 0.258246 0.751119
359 1 0.932757 0.342996 0.7526
338 1 0.0934874 0.417617 0.659522
426 1 0.749659 0.421892 0.825525
410 1 0.0947823 0.406659 0.819711
809 1 0.662982 0.497971 0.826345
344 1 0.17377 0.425716 0.749832
348 1 0.332878 0.424436 0.756797
428 1 0.671844 0.40639 0.904634
416 1 0.182508 0.410269 0.922526
347 1 0.431653 0.332251 0.750739
418 1 0.421994 0.408101 0.836552
427 1 0.758689 0.324224 0.934965
352 1 0.499144 0.421069 0.750344
351 1 0.583027 0.335883 0.756548
356 1 0.667555 0.422043 0.749152
422 1 0.579494 0.418548 0.821498
305 1 0.669501 0.00645083 0.673614
429 1 0.823667 0.342883 0.825001
355 1 0.73955 0.33869 0.755747
425 1 0.66249 0.333386 0.833575
430 1 0.914199 0.430177 0.825343
340 1 0.00825752 0.421336 0.73465
360 1 0.826803 0.414267 0.745292
424 1 0.516721 0.407736 0.908359
419 1 0.421814 0.333492 0.92328
405 1 0.825336 0.178799 0.831137
362 1 0.0775895 0.0768228 0.820585
385 1 0.00509516 0.166911 0.83509
368 1 0.154039 0.0751809 0.913128
387 1 0.0862941 0.17762 0.90775
295 1 0.26554 0.01165 0.74589
366 1 0.242821 0.0884876 0.829681
372 1 0.331485 0.0983403 0.892604
423 1 0.580329 0.330857 0.926254
406 1 0.92143 0.252873 0.826554
370 1 0.404956 0.0761243 0.82426
393 1 0.307684 0.186338 0.829621
376 1 0.499835 0.0814738 0.912
374 1 0.579599 0.0782558 0.833395
667 1 0.759254 0.496485 0.589558
793 1 0.000349871 0.491334 0.823031
380 1 0.662629 0.0902328 0.909281
378 1 0.74492 0.0793083 0.828143
367 1 0.240654 0.00311599 0.907768
382 1 0.917005 0.0907647 0.824157
293 1 0.159334 0.00510281 0.663535
364 1 0.00435525 0.0802527 0.919428
384 1 0.844486 0.0802039 0.920458
253 1 0.491706 0.162953 0.50972
743 1 0.926655 0.490712 0.732594
407 1 0.925234 0.158349 0.911325
411 1 0.0956111 0.33792 0.921139
388 1 0.00504636 0.250179 0.909749
413 1 0.17092 0.334684 0.840929
391 1 0.246396 0.161708 0.927894
415 1 0.259971 0.332917 0.926462
392 1 0.164077 0.25114 0.91961
408 1 0.836588 0.25685 0.915628
420 1 0.338255 0.427214 0.929301
394 1 0.417818 0.251378 0.831542
396 1 0.354633 0.247155 0.912785
395 1 0.418016 0.169617 0.928234
398 1 0.584328 0.250552 0.842604
421 1 0.507492 0.329308 0.829519
397 1 0.493897 0.157792 0.823928
399 1 0.581836 0.16583 0.910084
400 1 0.496032 0.237528 0.913509
404 1 0.660262 0.238314 0.923832
414 1 0.256105 0.407542 0.836961
401 1 0.660164 0.165434 0.839646
403 1 0.761915 0.154523 0.918701
301 1 0.506786 0.00717987 0.66282
41 1 0.68051 0.169836 1.00241
655 1 0.244548 0.500726 0.569781
311 1 0.917247 -0.00233454 0.757755
235 1 0.737856 -0.000626953 0.586079
297 1 0.331576 0.0144968 0.652326
807 1 0.590948 0.488724 0.927216
725 1 0.179511 0.490822 0.65367
25 1 0.00680723 0.152754 1.00179
383 1 0.913996 0.0109613 0.901079
437 1 0.162691 0.488585 1.00467
723 1 0.096589 0.497589 0.732872
449 1 0.665412 0.48903 1.00434
731 1 0.40956 0.494843 0.760341
6 1 0.255133 0.0718458 0.987858
34 1 0.424602 0.258749 1.0008
237 1 0.815043 0.00182176 0.50448
270 1 0.25024 0.421272 0.500774
65 1 0.671277 0.341126 0.996651
273 1 0.330983 0.34793 0.50321
233 1 0.662066 0.00820838 0.507021
230 1 0.585826 0.0946718 0.500741
234 1 0.732673 0.0874004 0.500619
269 1 0.176779 0.336997 0.51584
37 1 0.503554 0.165157 0.997363
57 1 0.331171 0.334232 1.00018
46 1 0.932745 0.241409 0.99686
285 1 0.823952 0.332498 0.507291
246 1 0.268824 0.248943 0.502074
459 1 0.0684709 0.680239 0.0962529
506 1 0.0852007 0.587495 0.171522
440 1 0.168108 0.57244 0.0894808
537 1 0.334519 0.681842 0.169218
587 1 0.430331 0.499678 0.41641
658 1 0.418986 0.585356 0.492413
444 1 0.335711 0.588162 0.0898485
23 1 0.915321 0.999938 0.0919598
514 1 0.409047 0.587393 0.158112
513 1 0.334103 0.507517 0.177433
448 1 0.498051 0.597592 0.0879284
452 1 0.658777 0.582402 0.0904021
518 1 0.579788 0.584251 0.17409
646 1 0.915914 0.937603 0.33591
545 1 0.675833 0.666497 0.183691
522 1 0.746707 0.587045 0.166211
470 1 0.568524 0.742201 -0.000401317
585 1 0.336614 0.50075 0.329532
490 1 0.434991 0.911983 0.000366791
436 1 0.992179 0.57819 0.0866583
456 1 0.833747 0.587183 0.0934086
507 1 0.0822847 0.509601 0.253897
647 1 0.912728 0.836357 0.42085
465 1 0.326372 0.66848 0.0111128
464 1 0.172756 0.758376 0.0831846
460 1 0.982351 0.74903 0.0813443
483 1 0.0679259 0.823324 0.07582
7 1 0.239839 0.989252 0.08627
533 1 0.17093 0.660931 0.159778
463 1 0.253583 0.662563 0.0822601
450 1 0.756383 0.572397 0.00193743
473 1 0.661836 0.673218 0.0103742
467 1 0.409725 0.664669 0.0789533
468 1 0.320985 0.758606 0.0997592
538 1 0.421105 0.764008 0.176802
491 1 0.418172 0.84829 0.0886085
11 1 0.434138 0.984657 0.0820589
541 1 0.500875 0.669261 0.171082
471 1 0.593497 0.658429 0.0976445
472 1 0.483113 0.761365 0.0834161
542 1 0.5943 0.765255 0.176631
681 1 0.329398 0.654434 0.489584
476 1 0.685712 0.746236 0.098073
475 1 0.7565 0.652879 0.0734693
499 1 0.748046 0.83815 0.0683211
479 1 0.918829 0.67116 0.10833
480 1 0.830435 0.751411 0.0800404
503 1 0.902468 0.825597 0.0718318
698 1 0.0820581 0.920168 0.493236
591 1 0.575902 0.502904 0.408741
488 1 0.171747 0.904647 0.0711979
628 1 0.993157 0.909017 0.411368
455 1 0.899609 0.506858 0.080362
670 1 0.923167 0.582014 0.494159
487 1 0.253612 0.853073 0.0631459
492 1 0.33756 0.925881 0.106672
15 1 0.592385 0.991705 0.0788437
3 1 0.0689889 0.987607 0.0885627
153 1 0.332488 0.99376 0.347081
565 1 0.511558 0.839326 0.162794
562 1 0.430202 0.928481 0.176407
496 1 0.51394 0.914105 0.0866425
495 1 0.58826 0.818867 0.0854099
93 1 0.828674 0.991936 0.162023
77 1 0.161512 0.991284 0.185508
73 1 0.982458 0.990489 0.175533
500 1 0.680666 0.919624 0.0706228
642 1 0.74391 0.922772 0.339912
504 1 0.837939 0.922768 0.0808769
484 1 0.990994 0.906744 0.0944309
589 1 0.501718 0.500555 0.337828
457 1 0.0150089 0.658581 0.00460059
631 1 0.247328 0.838673 0.42546
508 1 0.989875 0.576069 0.251549
510 1 0.254661 0.590883 0.177775
512 1 0.160298 0.591167 0.250638
535 1 0.256552 0.662744 0.261395
648 1 0.827859 0.917009 0.422978
516 1 0.347202 0.586305 0.249987
586 1 0.414976 0.580719 0.336348
95 1 0.900592 0.981575 0.250608
520 1 0.495014 0.590143 0.249839
590 1 0.600646 0.582647 0.334227
524 1 0.669634 0.576878 0.247463
662 1 0.592093 0.574996 0.483493
673 1 -0.00127762 0.668254 0.495525
694 1 0.923928 0.755872 0.496155
528 1 0.843139 0.570083 0.25565
594 1 0.754033 0.582132 0.324671
547 1 0.748291 0.665361 0.252388
435 1 0.0681472 0.505045 0.0865644
529 1 0.00488233 0.66992 0.182875
526 1 0.91056 0.584413 0.171151
598 1 0.921744 0.576664 0.328416
530 1 0.0793778 0.750971 0.177286
531 1 0.0863547 0.671048 0.256542
602 1 0.0899876 0.747379 0.327785
532 1 0.993593 0.753538 0.251102
553 1 0.990841 0.828891 0.15578
534 1 0.237751 0.737448 0.16698
561 1 0.333737 0.829718 0.181586
536 1 0.164369 0.745747 0.239085
540 1 0.346391 0.75199 0.260565
539 1 0.429247 0.669863 0.248638
613 1 0.502926 0.672159 0.335698
544 1 0.490477 0.767211 0.248115
563 1 0.424902 0.845307 0.264234
610 1 0.427335 0.755949 0.347661
569 1 0.669729 0.83711 0.172133
543 1 0.575375 0.664328 0.257315
567 1 0.578386 0.834105 0.253084
621 1 0.83252 0.652587 0.338775
546 1 0.749782 0.746539 0.177023
548 1 0.662127 0.759781 0.256534
617 1 0.659893 0.678238 0.331575
552 1 0.831143 0.755143 0.274282
549 1 0.817252 0.665737 0.178563
550 1 0.895277 0.744669 0.189132
551 1 0.912686 0.65479 0.266775
645 1 0.835833 0.837536 0.340097
575 1 0.911016 0.832643 0.252461
555 1 0.0907348 0.829401 0.257524
554 1 0.0771687 0.914819 0.155554
556 1 0.00949841 0.917384 0.270631
557 1 0.156999 0.830839 0.163877
558 1 0.237662 0.911904 0.170124
559 1 0.245316 0.824042 0.259917
560 1 0.165573 0.905435 0.264129
627 1 0.0822197 0.828101 0.404071
462 1 0.244726 0.744704 0.0143168
633 1 0.342904 0.837798 0.341582
564 1 0.337824 0.919535 0.242708
634 1 0.42347 0.931274 0.340223
632 1 0.170182 0.904646 0.419454
566 1 0.585396 0.917223 0.173321
637 1 0.504802 0.848608 0.342054
638 1 0.592488 0.931042 0.337222
568 1 0.51545 0.917025 0.266755
572 1 0.659739 0.909653 0.244812
573 1 0.835251 0.831174 0.164992
571 1 0.742427 0.828806 0.259539
570 1 0.75635 0.900283 0.162429
91 1 0.746778 0.986648 0.239235
574 1 0.915011 0.904955 0.163113
576 1 0.822975 0.905309 0.257504
644 1 0.656683 0.926629 0.433295
601 1 -0.000653631 0.664592 0.3274
578 1 0.0701972 0.587358 0.340525
584 1 0.179368 0.590069 0.417185
580 1 0.996284 0.585883 0.410721
582 1 0.254346 0.580756 0.333988
605 1 0.163982 0.669199 0.334715
163 1 0.737845 0.998311 0.421968
588 1 0.338926 0.5741 0.418231
609 1 0.335633 0.66399 0.329102
611 1 0.413366 0.663232 0.419891
505 1 0.984647 0.500035 0.164468
640 1 0.507706 0.920741 0.418964
592 1 0.495946 0.579861 0.413912
615 1 0.577171 0.670631 0.411358
619 1 0.740234 0.686299 0.418201
596 1 0.686843 0.595572 0.41389
600 1 0.840312 0.584353 0.415208
626 1 0.0827847 0.919565 0.351252
623 1 0.917096 0.662915 0.411461
604 1 0.998897 0.747524 0.402997
603 1 0.0804074 0.679107 0.413039
608 1 0.165652 0.745384 0.411985
607 1 0.252237 0.667208 0.414954
606 1 0.245958 0.748295 0.333005
635 1 0.420145 0.839113 0.427895
616 1 0.499787 0.750655 0.435938
612 1 0.32286 0.762189 0.41405
614 1 0.577265 0.756965 0.329877
641 1 0.65547 0.84034 0.332047
639 1 0.577984 0.837165 0.41508
630 1 0.267381 0.910797 0.345838
643 1 0.735293 0.84643 0.402403
618 1 0.732951 0.749731 0.331825
620 1 0.654696 0.758454 0.418902
629 1 0.170894 0.822301 0.337853
636 1 0.342266 0.912052 0.424343
625 1 0.990738 0.832407 0.334263
622 1 0.916674 0.755234 0.333915
624 1 0.825753 0.747943 0.414919
161 1 0.687653 1.0005 0.321778
89 1 0.665572 1.00158 0.159476
75 1 0.0823526 0.99399 0.273449
79 1 0.243109 0.99173 0.256081
509 1 0.169991 0.503531 0.173298
697 1 0.998978 0.836004 0.498231
677 1 0.1533 0.676745 0.496513
515 1 0.412181 0.507861 0.24937
581 1 0.169319 0.511467 0.332852
217 1 0.997312 0.985682 0.471939
461 1 0.152197 0.659607 0.0276171
19 1 0.752028 0.99481 0.0780331
701 1 0.160514 0.819614 0.490061
654 1 0.261905 0.578127 0.491084
9 1 0.326093 0.979646 0.0214904
446 1 0.582812 0.590379 0.0070206
650 1 0.0871361 0.587412 0.482803
151 1 0.26116 0.979874 0.420408
438 1 0.249302 0.573749 0.0101519
434 1 0.0770881 0.57512 0.00586579
717 1 0.825295 0.842112 0.501535
649 1 0.997362 0.50474 0.474028
466 1 0.416239 0.740882 0.00115611
442 1 0.421497 0.578818 0.00337343
706 1 0.425064 0.920203 0.497165
469 1 0.490009 0.658275 0.0111108
489 1 0.341701 0.850872 0.0118143
493 1 0.517454 0.831497 0.0105367
652 1 0.00627079 0.562281 0.571211
494 1 0.589644 0.912916 0.995985
225 1 0.321878 0.993031 0.513406
227 1 0.409615 0.992714 0.581759
656 1 0.17881 0.582758 0.574033
660 1 0.327847 0.580044 0.575806
679 1 0.250478 0.660722 0.56478
486 1 0.241193 0.923631 0.984055
664 1 0.494462 0.583439 0.569385
683 1 0.411616 0.655759 0.578403
863 1 0.926216 0.824877 0.884445
289 1 0.00298176 0.99622 0.655047
733 1 0.489109 0.506711 0.648003
734 1 0.589613 0.582952 0.66159
668 1 0.665246 0.595355 0.572963
761 1 0.665597 0.664409 0.668129
860 1 0.678214 0.914574 0.923978
501 1 0.829103 0.826795 0.992434
223 1 0.241122 0.993299 0.584261
691 1 0.75091 0.667247 0.583624
458 1 0.0830582 0.748545 0.995094
738 1 0.748524 0.582113 0.667781
765 1 0.834744 0.654029 0.674772
672 1 0.83872 0.578442 0.584202
805 1 0.504798 0.497825 0.829328
742 1 0.920937 0.574222 0.664937
379 1 0.761141 1.00015 0.914241
675 1 0.0781239 0.653973 0.579341
369 1 0.331721 0.998836 0.838207
686 1 0.585378 0.762907 0.506696
680 1 0.168619 0.748955 0.58394
684 1 0.333797 0.734962 0.574796
773 1 0.180619 0.838202 0.657075
363 1 0.0766094 0.990141 0.911769
707 1 0.416178 0.842351 0.575679
688 1 0.501873 0.746653 0.581619
777 1 0.314662 0.833779 0.663602
361 1 0.00431867 0.998795 0.815619
687 1 0.582213 0.670009 0.575805
692 1 0.651245 0.749492 0.591664
709 1 0.50426 0.840049 0.508076
498 1 0.760263 0.922096 0.99572
663 1 0.580778 0.507231 0.585103
762 1 0.741116 0.75504 0.674116
696 1 0.838247 0.759087 0.587331
695 1 0.928943 0.673117 0.584177
676 1 0.013848 0.7363 0.582149
719 1 0.917467 0.835845 0.565735
373 1 0.509782 0.994937 0.816337
864 1 0.827649 0.903752 0.922364
699 1 0.0687603 0.831037 0.580466
704 1 0.157674 0.923481 0.574698
700 1 0.993973 0.909526 0.58176
703 1 0.241237 0.821971 0.57114
710 1 0.589293 0.898915 0.503294
799 1 0.229559 0.507655 0.926049
485 1 0.155035 0.833882 0.997647
708 1 0.32869 0.917581 0.604622
303 1 0.598965 0.991954 0.763579
711 1 0.573952 0.83639 0.596691
712 1 0.493808 0.921908 0.582082
716 1 0.674223 0.919724 0.580688
721 1 0.0119022 0.498585 0.651582
502 1 0.924509 0.90616 1.00428
715 1 0.756541 0.831267 0.597995
720 1 0.826051 0.923382 0.581062
786 1 0.74614 0.925168 0.667907
454 1 0.915816 0.583713 1.0001
381 1 0.833922 0.989657 0.833536
832 1 0.493757 0.747197 0.917986
795 1 0.0787886 0.502156 0.925327
745 1 0.00758435 0.640715 0.657242
722 1 0.0893173 0.575398 0.657928
724 1 0.0106589 0.582896 0.743443
747 1 0.0916345 0.648513 0.740391
794 1 0.09194 0.57861 0.825692
817 1 0.994723 0.668212 0.836046
726 1 0.243079 0.582137 0.656247
728 1 0.17358 0.576707 0.740143
855 1 0.580701 0.816701 0.923511
730 1 0.410298 0.585915 0.663779
732 1 0.3296 0.587965 0.751647
736 1 0.505322 0.572393 0.733253
829 1 0.498906 0.664369 0.83116
802 1 0.409612 0.570348 0.840207
755 1 0.417106 0.672562 0.745576
713 1 0.667145 0.836098 0.504367
856 1 0.503946 0.942456 0.918702
740 1 0.66771 0.582939 0.752766
854 1 0.595189 0.921808 0.855583
833 1 0.657411 0.666261 0.833367
831 1 0.571537 0.663157 0.910846
810 1 0.738568 0.581007 0.836318
763 1 0.757511 0.659367 0.761167
744 1 0.831864 0.573917 0.748539
814 1 0.928281 0.563303 0.821835
851 1 0.420466 0.836355 0.922577
746 1 0.0820732 0.741764 0.655408
748 1 0.00616839 0.737083 0.756429
752 1 0.1523 0.742654 0.753451
818 1 0.076386 0.749806 0.835692
749 1 0.159146 0.656452 0.656437
750 1 0.237395 0.741417 0.670738
751 1 0.252978 0.66093 0.750126
753 1 0.314998 0.661302 0.650813
756 1 0.319671 0.748593 0.746407
822 1 0.248942 0.736018 0.839562
754 1 0.406581 0.755907 0.642303
757 1 0.500521 0.656548 0.654382
760 1 0.499576 0.748706 0.753042
758 1 0.581811 0.747077 0.686455
759 1 0.574434 0.659001 0.76117
785 1 0.655564 0.824671 0.665339
783 1 0.592731 0.842668 0.743312
830 1 0.587244 0.747208 0.834977
764 1 0.659718 0.756304 0.758527
787 1 0.735385 0.844878 0.747575
834 1 0.743226 0.745478 0.828396
861 1 0.840063 0.825755 0.825874
767 1 0.914956 0.65344 0.760068
766 1 0.9138 0.726746 0.688245
768 1 0.822486 0.75422 0.744882
791 1 0.925856 0.838194 0.742391
769 1 0.991667 0.809373 0.652293
770 1 0.0900246 0.913091 0.655637
771 1 0.0743638 0.827025 0.721916
842 1 0.0707846 0.918297 0.828098
837 1 0.834032 0.661695 0.832609
776 1 0.139975 0.911123 0.741002
775 1 0.249624 0.851391 0.75671
774 1 0.239463 0.916834 0.675412
849 1 0.312064 0.828728 0.848381
844 1 0.990433 0.922016 0.907456
778 1 0.415972 0.914974 0.65561
779 1 0.398809 0.832271 0.751201
780 1 0.341058 0.932431 0.760444
784 1 0.501551 0.916447 0.742775
781 1 0.488521 0.840429 0.678689
850 1 0.419352 0.929479 0.840463
782 1 0.57761 0.921964 0.655804
788 1 0.664904 0.919405 0.741743
857 1 0.653287 0.834424 0.831629
789 1 0.835334 0.851087 0.67545
858 1 0.745106 0.906209 0.831866
853 1 0.499654 0.838672 0.838985
792 1 0.819698 0.918853 0.751234
685 1 0.498771 0.659035 0.498703
862 1 0.909489 0.916372 0.82955
790 1 0.919599 0.926501 0.665601
772 1 0.00577865 0.907078 0.740635
299 1 0.415711 1.00081 0.740515
859 1 0.756332 0.818316 0.916926
800 1 0.159581 0.584523 0.931983
846 1 0.24378 0.924676 0.836804
796 1 0.993655 0.581712 0.91853
819 1 0.0894655 0.659433 0.923334
702 1 0.247583 0.917295 0.512382
798 1 0.258337 0.592379 0.842455
705 1 0.332404 0.836771 0.506076
821 1 0.179682 0.661817 0.838247
852 1 0.337304 0.913884 0.917893
231 1 0.594968 0.995348 0.584229
847 1 0.225538 0.835587 0.909289
804 1 0.333488 0.57368 0.920113
808 1 0.499624 0.57681 0.921075
836 1 0.670155 0.736581 0.915927
806 1 0.586247 0.583239 0.834764
812 1 0.663326 0.598092 0.931786
845 1 0.156294 0.832055 0.809912
835 1 0.754078 0.669156 0.929758
816 1 0.827952 0.579298 0.908544
826 1 0.406495 0.746998 0.829864
820 1 0.0102983 0.733741 0.92473
839 1 0.918283 0.662928 0.916149
841 1 0.0096669 0.833376 0.824167
848 1 0.150068 0.909551 0.905432
838 1 0.913573 0.734822 0.819544
729 1 0.334971 0.508332 0.667656
843 1 0.0764577 0.830613 0.915114
824 1 0.153922 0.758478 0.911556
825 1 0.338932 0.661266 0.826832
823 1 0.248957 0.662663 0.929911
828 1 0.329391 0.754392 0.939426
840 1 0.838996 0.741956 0.903083
827 1 0.403332 0.659727 0.906545
737 1 0.672985 0.513485 0.660222
445 1 0.50545 0.512349 1.00062
17 1 0.682347 0.996783 0.996569
797 1 0.171377 0.510029 0.83219
309 1 0.837373 0.995704 0.65905
21 1 0.856344 0.990309 0.995522
739 1 0.747287 0.507799 0.761256
727 1 0.256835 0.502987 0.753308
377 1 0.674955 0.990482 0.841207
659 1 0.412477 0.504799 0.583152
671 1 0.917273 0.510953 0.580331
478 1 0.919362 0.736099 0.994567
693 1 0.844622 0.669082 0.506875
666 1 0.761449 0.596451 0.501637
718 1 0.912319 0.921848 0.499779
5 1 0.161861 0.991951 0.995021
474 1 0.750814 0.74992 0.996372
481 1 0.996751 0.825044 0.990411
665 1 0.67914 0.511219 0.518587
453 1 0.841139 0.502241 0.990926
674 1 0.0790232 0.747409 0.504349
497 1 0.672385 0.833808 0.988302
714 1 0.745022 0.908613 0.507909
689 1 0.665672 0.682924 0.509412
690 1 0.752511 0.75416 0.514259
477 1 0.836397 0.659753 0.996615
669 1 0.829258 0.510596 0.502675
482 1 0.0757763 0.912082 0.993341
682 1 0.410639 0.770564 0.506554
678 1 0.246292 0.74777 0.502534
