ITEM: TIMESTEP
23500
ITEM: NUMBER OF ATOMS
5324
ITEM: BOX BOUNDS pp pp pp
0.0000000000000000e+00 5.7859999999999999e+01
0.0000000000000000e+00 5.7859999999999999e+01
0.0000000000000000e+00 5.7859999999999999e+01
ITEM: ATOMS id type xs ys zs
47 1 0.0352922 0.0841938 0.0512183
244 1 0.0399334 0.0399948 0.0924139
1321 1 0.991961 0.457779 0.451834
3150 1 0.0914037 0.496586 0.225778
8 1 0.0857787 0.0403314 0.0453626
248 1 0.136918 0.0426974 0.0989503
295 1 0.18443 0.084701 0.0843911
12 1 0.176067 0.0382695 0.0455495
21 1 0.451653 0.00320318 0.000158629
178 1 0.0510233 0.414619 0.008519
1448 1 0.576369 0.449413 0.486477
55 1 0.219967 0.0864498 0.0408223
252 1 0.23154 0.0460636 0.0866195
299 1 0.2759 0.0887627 0.0896102
19 1 0.407987 0.00160584 0.0518758
16 1 0.271634 0.0479688 0.0398733
59 1 0.322772 0.0905644 0.0449656
256 1 0.312979 0.0440958 0.0850323
303 1 0.360588 0.101524 0.0927544
1331 1 0.907836 0.453151 0.452787
20 1 0.360329 0.0367886 0.0553869
63 1 0.403145 0.0908165 0.0481699
260 1 0.412084 0.0461266 0.0922688
24 1 0.448686 0.0394274 0.0443092
307 1 0.448533 0.097666 0.103356
1210 1 0.945847 0.45508 0.408409
209 1 0.724744 0.363774 0.000950615
264 1 0.491042 0.0424967 0.0891053
67 1 0.497799 0.0880967 0.0427793
3392 1 0.0886771 0.49005 0.32189
733 1 0.14522 0.00432579 0.321544
1211 1 0.99715 0.000169296 0.450132
28 1 0.543991 0.0413625 0.056381
71 1 0.589523 0.0927045 0.0364501
268 1 0.586399 0.0430143 0.0956017
32 1 0.633448 0.0447157 0.0484274
315 1 0.635483 0.0968919 0.0904415
1320 1 0.95558 0.412421 0.447194
50 1 0.136994 0.128224 0.00706189
272 1 0.685532 0.0513236 0.0901298
75 1 0.681295 0.0893692 0.0389242
319 1 0.73167 0.0900574 0.0889234
36 1 0.72418 0.0418919 0.0437298
79 1 0.779814 0.0883056 0.0470182
276 1 0.776196 0.0410977 0.0890905
40 1 0.819801 0.0405627 0.0458709
323 1 0.819065 0.0806979 0.0935695
3406 1 0.727641 0.489592 0.319181
3877 1 0.413174 0.493675 0.447115
280 1 0.869683 0.0467721 0.0921676
83 1 0.863412 0.0891541 0.0487707
327 1 0.909393 0.0922239 0.0933161
741 1 0.318247 0.00165837 0.321062
1188 1 0.909773 0.408367 0.404385
113 1 0.543663 0.17839 8.61258e-06
4 1 0.993503 0.0445507 0.0452952
44 1 0.912719 0.0479056 0.0467782
287 1 0.0025016 0.0863104 0.0983103
284 1 0.957368 0.0493347 0.0967525
87 1 0.951843 0.0870892 0.0516559
735 1 0.189822 0.00673125 0.275631
3648 1 0.729361 0.499773 0.408877
3873 1 0.0434286 0.492445 0.454093
3641 1 0.499242 0.497793 0.364239
91 1 0.0474137 0.181924 0.0443095
288 1 0.0440126 0.127276 0.0875036
52 1 0.0894705 0.137246 0.0534068
335 1 0.0985729 0.181375 0.0884484
291 1 0.0848322 0.0832653 0.0945711
51 1 0.135022 0.0866398 0.0489067
95 1 0.135387 0.175491 0.038344
292 1 0.13993 0.12521 0.0917908
56 1 0.183925 0.134158 0.0454878
339 1 0.17002 0.173781 0.0853255
99 1 0.226229 0.177745 0.0392744
296 1 0.2311 0.131047 0.0912058
343 1 0.273328 0.176907 0.0836229
3152 1 0.18201 0.49401 0.224814
60 1 0.267096 0.125919 0.042563
103 1 0.316263 0.176309 0.0425097
300 1 0.31893 0.138589 0.0970223
64 1 0.362311 0.140123 0.0477836
1349 1 0.722706 0.0457633 0.498673
3409 1 0.958728 0.491697 0.271039
347 1 0.3625 0.188121 0.0834497
107 1 0.412206 0.187206 0.0465539
304 1 0.411299 0.145063 0.0904269
351 1 0.454196 0.180214 0.0912558
17 1 0.35961 0.00310529 0.0033693
68 1 0.453272 0.13255 0.0505833
311 1 0.53718 0.0965494 0.0821028
111 1 0.501069 0.181099 0.0456166
308 1 0.496454 0.133279 0.10543
72 1 0.546563 0.134118 0.036699
3644 1 0.544589 0.498242 0.403358
511 1 0.586212 0.00672589 0.22268
355 1 0.537956 0.179592 0.0860097
115 1 0.584845 0.181299 0.0459667
312 1 0.586739 0.137464 0.0850509
76 1 0.638991 0.135544 0.0418667
15 1 0.311208 0.00841678 0.0368576
119 1 0.679948 0.186188 0.0488251
80 1 0.740823 0.136401 0.0381206
3157 1 0.506734 0.494276 0.184742
3643 1 0.595079 0.493479 0.378437
123 1 0.775077 0.185117 0.0363832
320 1 0.777278 0.136547 0.088446
84 1 0.812608 0.137358 0.0434161
979 1 0.224829 0.00435295 0.404828
127 1 0.86599 0.189059 0.042359
324 1 0.854259 0.13792 0.0840102
88 1 0.907518 0.134037 0.0503217
367 1 0.818965 0.182711 0.0837244
30 1 0.687118 0.0353676 0.00153468
1011 1 0.957988 0.00583667 0.407291
48 1 0.992942 0.135859 0.0560761
331 1 0.999988 0.189318 0.086906
371 1 0.904695 0.183866 0.0875135
131 1 0.953628 0.18075 0.042738
328 1 0.952645 0.138528 0.0965098
3402 1 0.55382 0.499348 0.330543
273 1 0.684176 0.00543916 0.129229
135 1 0.0479525 0.270092 0.0438511
332 1 0.0467327 0.223819 0.0886926
379 1 0.0949561 0.271847 0.0920792
96 1 0.0952811 0.221961 0.0444232
3158 1 0.455742 0.498629 0.227794
139 1 0.137186 0.274983 0.0470591
336 1 0.133467 0.233466 0.0936803
383 1 0.186025 0.272279 0.0866588
100 1 0.183906 0.229392 0.0399872
143 1 0.22978 0.273159 0.0448366
340 1 0.225175 0.221564 0.0810308
104 1 0.271299 0.22453 0.0404366
1344 1 0.595707 0.00417736 0.498227
214 1 0.865942 0.411953 0.00614947
387 1 0.271285 0.274996 0.0836086
147 1 0.317345 0.273098 0.0472936
344 1 0.315953 0.231874 0.0896065
391 1 0.364101 0.273281 0.0840104
4001 1 0.622899 0.48835 0.497093
108 1 0.360223 0.230461 0.0415691
151 1 0.414402 0.277851 0.0424526
112 1 0.453564 0.227222 0.041307
106 1 0.400427 0.219496 0.00299375
985 1 0.35968 0.00139802 0.369626
134 1 0.0443624 0.317338 0.00190705
395 1 0.459902 0.276973 0.0842195
155 1 0.499301 0.278454 0.0413066
352 1 0.499401 0.227057 0.0882841
145 1 0.265695 0.271637 0.00342951
767 1 0.908893 0.00243645 0.276819
399 1 0.538244 0.276096 0.0923251
116 1 0.552487 0.230114 0.0512214
159 1 0.59246 0.271113 0.0447769
356 1 0.598177 0.233439 0.0945755
120 1 0.632129 0.2222 0.0445887
3401 1 0.592982 0.499938 0.273565
491 1 0.135224 0.00223767 0.221334
513 1 0.637802 0.00147641 0.186664
403 1 0.639914 0.276956 0.0895468
163 1 0.680549 0.262809 0.0445831
407 1 0.719517 0.279346 0.0874966
124 1 0.732356 0.222136 0.0429248
765 1 0.865138 0.00190748 0.317308
167 1 0.762542 0.276438 0.0442583
364 1 0.769757 0.234435 0.0860554
411 1 0.82269 0.27279 0.077469
1009 1 0.912736 0.00299541 0.357063
128 1 0.819969 0.225793 0.0393068
171 1 0.871603 0.273833 0.0381829
368 1 0.869819 0.236134 0.0831531
415 1 0.917471 0.276687 0.0843123
2909 1 0.235838 0.49539 0.0922408
2913 1 0.411614 0.495858 0.0922592
132 1 0.910299 0.232981 0.0357513
92 1 0.00557685 0.228069 0.0433473
375 1 0.0146119 0.274116 0.0943887
175 1 0.96008 0.266641 0.0381244
372 1 0.972913 0.235036 0.0933157
1219 1 0.359782 0.0016248 0.463838
49 1 0.0863677 0.0897532 0.00575633
179 1 0.0429866 0.363337 0.0416223
376 1 0.049351 0.322962 0.0880173
136 1 0.997527 0.310515 0.0456236
2916 1 0.465143 0.499383 0.138784
140 1 0.0912053 0.311403 0.0447984
183 1 0.136729 0.367942 0.0512231
380 1 0.130626 0.322562 0.087742
89 1 0.000255314 0.183324 0.0060318
1221 1 0.455391 0.00678249 0.454899
1005 1 0.824725 0.00750295 0.364033
144 1 0.18526 0.327718 0.0407434
427 1 0.182741 0.377757 0.0892314
187 1 0.230997 0.367378 0.0330748
384 1 0.224673 0.323675 0.0818215
3876 1 0.313996 0.488847 0.442603
431 1 0.271834 0.36242 0.0790133
148 1 0.271197 0.32027 0.0384058
191 1 0.323215 0.369564 0.0428129
388 1 0.319889 0.318662 0.0891479
435 1 0.370029 0.361259 0.0882441
999 1 0.678807 0.000335011 0.406232
507 1 0.501768 0.00621938 0.226529
152 1 0.357169 0.321648 0.0446242
195 1 0.408075 0.363145 0.0415761
392 1 0.411384 0.314252 0.0807604
439 1 0.449477 0.363786 0.0936162
1227 1 0.722527 0.00511197 0.460735
1001 1 0.731396 0.00446438 0.361892
156 1 0.457221 0.328006 0.0433609
199 1 0.498203 0.366513 0.0324407
396 1 0.493649 0.327397 0.0809323
160 1 0.547222 0.323468 0.0473232
443 1 0.541442 0.365515 0.0874862
3394 1 0.179659 0.497929 0.322854
3880 1 0.682274 0.499103 0.462823
203 1 0.588631 0.371603 0.0386131
400 1 0.592803 0.3273 0.0860206
447 1 0.63533 0.366013 0.0852895
981 1 0.28015 0.00683866 0.36969
3998 1 0.362205 0.497675 0.499264
164 1 0.636338 0.32037 0.0380151
207 1 0.685558 0.36689 0.0458117
404 1 0.680851 0.320065 0.0924105
168 1 0.716589 0.315812 0.0421286
983 1 0.321597 0.00549092 0.411122
451 1 0.737044 0.358692 0.0824629
211 1 0.777119 0.360112 0.039139
408 1 0.777482 0.3127 0.085898
172 1 0.817729 0.319469 0.0290205
1336 1 0.223576 0.00112512 0.488949
1007 1 0.865204 0.00882781 0.410233
455 1 0.820423 0.36213 0.0862635
215 1 0.870888 0.351497 0.0398588
412 1 0.861349 0.319362 0.0870566
176 1 0.917602 0.314232 0.0367539
459 1 0.914229 0.363044 0.0840635
61 1 0.3631 0.0864847 0.00172918
46 1 0.0365171 0.132694 0.0133866
3649 1 0.865759 0.499053 0.363308
419 1 0.00187792 0.362634 0.0881667
219 1 0.963946 0.362387 0.0411293
416 1 0.963917 0.308291 0.0930735
62 1 0.4071 0.146282 0.00498884
222 1 0.0469368 0.457491 0.0493455
184 1 0.0957012 0.417369 0.0437641
1208 1 0.862714 0.460258 0.407161
1431 1 0.448371 0.395343 0.498462
34 1 0.77643 0.0415225 0.00475797
224 1 0.141901 0.454246 0.0414553
424 1 0.129941 0.415965 0.086486
1318 1 0.857232 0.406378 0.459205
3166 1 0.822014 0.498775 0.214244
428 1 0.230393 0.407545 0.07857
467 1 0.184067 0.450952 0.0873312
188 1 0.178427 0.40088 0.0380968
226 1 0.230518 0.453828 0.0357031
469 1 0.281383 0.448036 0.0906472
3149 1 0.14157 0.49586 0.178737
192 1 0.270181 0.410502 0.0377906
432 1 0.326858 0.404948 0.0882872
228 1 0.325179 0.453599 0.0447629
196 1 0.374778 0.411709 0.051812
471 1 0.36912 0.458394 0.0919102
1206 1 0.780658 0.459049 0.409086
436 1 0.409403 0.40861 0.0967944
230 1 0.409114 0.455958 0.0484169
200 1 0.451774 0.40352 0.0489336
473 1 0.456303 0.455772 0.0906735
1316 1 0.773421 0.407333 0.457928
232 1 0.496881 0.454578 0.0440905
440 1 0.49286 0.406201 0.0883979
475 1 0.548871 0.457748 0.0919601
3640 1 0.365709 0.493922 0.405286
3167 1 0.955935 0.494441 0.175074
2910 1 0.193257 0.490403 0.13832
1184 1 0.817869 0.416416 0.409079
1358 1 0.222922 0.0957917 0.49763
444 1 0.592784 0.407277 0.0898753
204 1 0.543221 0.406161 0.0460069
234 1 0.589182 0.447558 0.0455104
477 1 0.638497 0.465824 0.0859112
208 1 0.635443 0.41234 0.0417595
3393 1 0.237638 0.496929 0.274775
739 1 0.275793 0.00527381 0.273884
448 1 0.682724 0.417223 0.0850388
236 1 0.683008 0.456725 0.041499
499 1 0.320462 0.00426247 0.233233
212 1 0.73011 0.413268 0.0472859
479 1 0.735664 0.456015 0.0908629
452 1 0.780033 0.405129 0.0878408
238 1 0.772896 0.465012 0.0448747
481 1 0.827483 0.454456 0.0894737
3405 1 0.76803 0.497192 0.277348
216 1 0.823082 0.415749 0.0406952
240 1 0.876578 0.453825 0.0469282
456 1 0.870848 0.402679 0.0885497
220 1 0.912621 0.40683 0.0433577
463 1 0.00324777 0.453914 0.0907776
82 1 0.86048 0.133343 0.00691534
180 1 0.00416143 0.413523 0.0431176
242 1 0.958928 0.45408 0.0421775
460 1 0.952766 0.407031 0.0882749
483 1 0.908705 0.447834 0.0907891
3161 1 0.678091 0.498539 0.180458
1330 1 0.812968 0.456018 0.459655
137 1 0.0957106 0.272951 0.00178479
1176 1 0.640838 0.409936 0.407286
1329 1 0.733805 0.452245 0.465451
289 1 0.0478369 0.0856514 0.142532
486 1 0.0457593 0.0390128 0.185492
250 1 0.0824276 0.0417572 0.132925
533 1 0.0937792 0.0876164 0.190568
529 1 0.996476 0.0864041 0.184943
490 1 0.127948 0.0457138 0.177842
293 1 0.131095 0.0970802 0.142304
537 1 0.182625 0.0856203 0.186029
254 1 0.184214 0.0422935 0.141236
3398 1 0.364763 0.499761 0.319422
1204 1 0.692352 0.453683 0.413869
494 1 0.232072 0.0469409 0.177097
297 1 0.232467 0.0872118 0.12909
258 1 0.277104 0.0447753 0.129551
541 1 0.277296 0.0904132 0.183753
1314 1 0.680206 0.407095 0.449795
279 1 0.828837 0.000135315 0.0930106
1430 1 0.498623 0.363308 0.497793
498 1 0.318414 0.0441196 0.186783
262 1 0.354889 0.0477021 0.129561
545 1 0.356277 0.0949624 0.172387
301 1 0.312141 0.096677 0.136598
305 1 0.400003 0.0869864 0.132425
502 1 0.40104 0.0481469 0.183964
549 1 0.443294 0.0917389 0.175503
1180 1 0.735796 0.416231 0.419995
975 1 0.138343 0.00283606 0.409571
266 1 0.4583 0.0396188 0.148178
506 1 0.497111 0.0456536 0.187855
309 1 0.497157 0.0812739 0.135838
553 1 0.544429 0.0907314 0.183708
270 1 0.542541 0.0462339 0.144077
313 1 0.592128 0.0935211 0.132562
510 1 0.595418 0.047602 0.18397
274 1 0.636481 0.0518861 0.130746
557 1 0.631734 0.0940956 0.195403
1327 1 0.53866 0.450561 0.440923
317 1 0.673789 0.0997314 0.139031
514 1 0.674555 0.054972 0.178959
278 1 0.726548 0.0487599 0.128691
561 1 0.732192 0.0960932 0.17859
518 1 0.769899 0.0402069 0.178188
321 1 0.771698 0.09092 0.137952
282 1 0.820041 0.0394218 0.139287
565 1 0.817973 0.0848219 0.180953
522 1 0.860978 0.0442658 0.185931
569 1 0.90795 0.089349 0.18623
325 1 0.870284 0.088559 0.138385
286 1 0.910946 0.0452158 0.14564
246 1 0.999534 0.0463826 0.136914
526 1 0.95619 0.0448913 0.18957
329 1 0.952413 0.0877533 0.141135
333 1 0.0410508 0.176178 0.130624
530 1 0.0390473 0.132381 0.174989
577 1 0.0862286 0.17897 0.185752
294 1 0.0851922 0.13411 0.128038
290 1 0.9942 0.134972 0.133038
337 1 0.13815 0.170574 0.140564
534 1 0.144716 0.132209 0.187414
581 1 0.185291 0.17732 0.178726
298 1 0.186304 0.134176 0.129983
341 1 0.221399 0.179806 0.122653
538 1 0.231146 0.132046 0.186055
302 1 0.267932 0.14317 0.137985
585 1 0.273626 0.182471 0.177714
345 1 0.316302 0.189217 0.133666
542 1 0.317919 0.144024 0.171844
589 1 0.364442 0.190818 0.180673
306 1 0.36781 0.144754 0.138196
349 1 0.409577 0.191705 0.134849
546 1 0.404342 0.143805 0.185671
310 1 0.453091 0.144332 0.146403
593 1 0.457504 0.18548 0.187624
353 1 0.502693 0.186266 0.136261
550 1 0.505812 0.136544 0.176762
359 1 0.632067 0.182344 0.0864642
597 1 0.545549 0.183147 0.181373
314 1 0.551982 0.141592 0.13511
357 1 0.589703 0.194553 0.139499
554 1 0.589195 0.13897 0.184771
601 1 0.639467 0.179502 0.177704
316 1 0.691196 0.135233 0.0775625
318 1 0.634169 0.140511 0.134609
361 1 0.685252 0.182952 0.125347
558 1 0.688642 0.139266 0.184727
605 1 0.732858 0.179614 0.170139
363 1 0.734064 0.180697 0.0840416
322 1 0.732576 0.139731 0.122752
365 1 0.777676 0.184551 0.127904
562 1 0.77225 0.13732 0.177836
326 1 0.817358 0.132572 0.132561
609 1 0.813927 0.184191 0.178378
369 1 0.861461 0.181014 0.141787
566 1 0.857028 0.138818 0.184156
330 1 0.901961 0.141283 0.137153
613 1 0.905803 0.181712 0.181474
573 1 0.996234 0.176092 0.187982
373 1 0.95267 0.174472 0.142688
570 1 0.95374 0.12963 0.181809
377 1 0.0552792 0.282571 0.133394
574 1 0.0464472 0.224989 0.180878
617 1 0.0131723 0.283037 0.176501
338 1 0.0956065 0.224473 0.139388
334 1 0.00931187 0.226014 0.136863
621 1 0.0955402 0.277357 0.178762
381 1 0.137413 0.269437 0.146389
578 1 0.138914 0.220168 0.176883
342 1 0.182245 0.223447 0.121237
625 1 0.186482 0.262035 0.179605
385 1 0.224744 0.273083 0.129717
582 1 0.226496 0.220778 0.173744
629 1 0.263778 0.273016 0.168981
346 1 0.265252 0.221042 0.123159
389 1 0.318682 0.268798 0.126515
586 1 0.305872 0.231411 0.176445
633 1 0.36235 0.270921 0.178591
350 1 0.362702 0.230053 0.128419
348 1 0.407157 0.235749 0.0858858
393 1 0.415585 0.27964 0.135826
590 1 0.410937 0.234396 0.182969
354 1 0.454193 0.227101 0.135355
637 1 0.456506 0.271366 0.180401
397 1 0.49465 0.272458 0.133409
594 1 0.498168 0.22536 0.180816
358 1 0.547761 0.230078 0.125376
641 1 0.54644 0.272333 0.168112
401 1 0.589784 0.279629 0.131353
598 1 0.587911 0.236881 0.182009
362 1 0.640898 0.226693 0.132461
360 1 0.683379 0.232921 0.0904893
645 1 0.640327 0.274071 0.17691
405 1 0.68617 0.27725 0.136165
602 1 0.686104 0.220542 0.177099
649 1 0.724021 0.276042 0.182793
366 1 0.727118 0.224571 0.132033
409 1 0.779209 0.277307 0.140249
606 1 0.772177 0.235612 0.175085
370 1 0.819858 0.225248 0.135361
653 1 0.823231 0.280005 0.179479
413 1 0.868357 0.272749 0.132322
610 1 0.860844 0.230476 0.171195
374 1 0.911673 0.226006 0.127376
657 1 0.911301 0.267894 0.168949
417 1 0.968188 0.270531 0.138336
614 1 0.954719 0.22976 0.181111
421 1 0.0484711 0.37093 0.137814
618 1 0.053992 0.319128 0.188486
661 1 0.0123983 0.36772 0.184994
665 1 0.0973024 0.368639 0.181091
423 1 0.0834075 0.370237 0.0857795
382 1 0.0925302 0.327991 0.13332
425 1 0.137943 0.368025 0.126862
622 1 0.136208 0.31743 0.185671
669 1 0.179625 0.369137 0.181135
386 1 0.179228 0.317387 0.137626
429 1 0.233607 0.359202 0.128554
626 1 0.229294 0.326915 0.17482
390 1 0.278952 0.322013 0.133107
673 1 0.283064 0.365773 0.177014
433 1 0.325169 0.366943 0.133131
630 1 0.315736 0.310368 0.178342
394 1 0.359936 0.313069 0.133587
677 1 0.360095 0.348972 0.180611
437 1 0.403427 0.360302 0.140375
634 1 0.412628 0.313478 0.183162
398 1 0.460638 0.321345 0.132778
681 1 0.459933 0.363642 0.184398
441 1 0.500099 0.37171 0.133607
638 1 0.504756 0.31787 0.176048
402 1 0.552737 0.327845 0.134406
685 1 0.535919 0.372452 0.177058
445 1 0.600242 0.367044 0.132428
642 1 0.595795 0.323354 0.176878
689 1 0.643084 0.36412 0.17464
406 1 0.637922 0.313838 0.134494
449 1 0.686694 0.368553 0.132811
646 1 0.678568 0.322625 0.177847
410 1 0.729164 0.309326 0.131725
693 1 0.729619 0.366827 0.180393
453 1 0.771994 0.360116 0.129268
650 1 0.77407 0.320632 0.17357
697 1 0.821981 0.367933 0.17652
414 1 0.824543 0.322804 0.130139
457 1 0.874063 0.361001 0.134899
654 1 0.871647 0.318134 0.185348
418 1 0.909247 0.315373 0.133386
701 1 0.918696 0.352808 0.183456
378 1 0.0128514 0.323255 0.131604
461 1 0.961796 0.36039 0.139709
658 1 0.963922 0.313679 0.18019
420 1 0.0463154 0.41103 0.0971722
464 1 0.0521515 0.460748 0.132495
662 1 0.0476494 0.415595 0.181504
707 1 0.0902674 0.448429 0.178903
465 1 0.092154 0.460333 0.0875716
426 1 0.0919163 0.412183 0.133225
666 1 0.138631 0.411924 0.181787
466 1 0.136196 0.451032 0.135269
430 1 0.189058 0.409842 0.136577
709 1 0.193796 0.448905 0.183608
468 1 0.243924 0.460453 0.141326
670 1 0.235973 0.409303 0.179024
711 1 0.281602 0.455316 0.182708
434 1 0.285379 0.407636 0.131108
674 1 0.329133 0.404147 0.183917
470 1 0.326416 0.453866 0.13723
438 1 0.364673 0.406459 0.138619
1312 1 0.598143 0.39697 0.456436
3404 1 0.634766 0.496925 0.325776
713 1 0.365235 0.446181 0.1779
678 1 0.415895 0.410324 0.182017
472 1 0.406192 0.45017 0.137807
442 1 0.454834 0.410364 0.135185
682 1 0.496527 0.417334 0.180808
715 1 0.449749 0.461961 0.17945
474 1 0.510861 0.460469 0.133051
717 1 0.546715 0.45358 0.17981
1328 1 0.63202 0.4587 0.4519
3874 1 0.134143 0.499093 0.445865
446 1 0.552516 0.413654 0.133223
686 1 0.596473 0.406258 0.184376
476 1 0.594895 0.459452 0.130878
450 1 0.63382 0.417922 0.128273
690 1 0.690961 0.412889 0.178583
719 1 0.641799 0.448821 0.176441
478 1 0.68153 0.456513 0.132409
65 1 0.448238 0.0839908 0.00167183
1200 1 0.492028 0.449678 0.406151
721 1 0.727741 0.454549 0.176816
454 1 0.729287 0.402618 0.12097
480 1 0.775155 0.454309 0.140564
694 1 0.77026 0.403393 0.181146
458 1 0.826978 0.402568 0.130084
723 1 0.827645 0.443326 0.174234
482 1 0.87361 0.455415 0.135154
698 1 0.872423 0.401333 0.180761
462 1 0.915842 0.40174 0.13114
725 1 0.909242 0.45927 0.184926
422 1 0.999334 0.412211 0.138283
705 1 0.993605 0.451374 0.185537
702 1 0.958125 0.402492 0.183727
484 1 0.952281 0.453136 0.130243
531 1 0.0498504 0.096768 0.227213
728 1 0.046934 0.034804 0.277078
775 1 0.0797086 0.0864411 0.274044
492 1 0.0896611 0.0389361 0.225928
535 1 0.141858 0.0856186 0.224435
732 1 0.132844 0.0480347 0.269081
496 1 0.185494 0.0426852 0.229207
1435 1 0.640007 0.409766 0.498763
237 1 0.727545 0.450736 0.000838316
763 1 0.814612 0.00267635 0.269024
971 1 0.0480842 0.00377071 0.403087
779 1 0.180113 0.0863686 0.277172
736 1 0.230399 0.0492657 0.278668
539 1 0.232494 0.0903264 0.228166
500 1 0.274143 0.0482643 0.230663
1003 1 0.78054 0.00961798 0.410844
3631 1 0.0391394 0.493356 0.365982
783 1 0.268067 0.0980845 0.268452
740 1 0.317642 0.0430954 0.283155
504 1 0.364236 0.0509838 0.235214
787 1 0.36535 0.0936298 0.275431
744 1 0.412357 0.0501831 0.275093
547 1 0.40841 0.0917069 0.225752
508 1 0.44938 0.0508938 0.225963
791 1 0.457798 0.0915839 0.268444
2924 1 0.829354 0.49502 0.135439
748 1 0.5026 0.0438148 0.270742
551 1 0.500822 0.103653 0.224136
795 1 0.545682 0.089571 0.266842
512 1 0.543819 0.0479017 0.228533
752 1 0.595471 0.0477333 0.275158
555 1 0.588506 0.0844616 0.229081
516 1 0.644014 0.0468613 0.235553
799 1 0.639428 0.0994815 0.279645
559 1 0.684117 0.0925217 0.233018
756 1 0.69144 0.0555994 0.278603
803 1 0.736921 0.0984686 0.266274
520 1 0.721159 0.0511958 0.22013
760 1 0.771922 0.0531215 0.277017
563 1 0.772398 0.0949856 0.217402
524 1 0.820808 0.0496231 0.233702
807 1 0.810523 0.0955622 0.273284
764 1 0.863483 0.0450545 0.27422
567 1 0.855249 0.0984684 0.224606
811 1 0.905721 0.0864924 0.259771
488 1 0.00852659 0.0477042 0.230399
528 1 0.911845 0.040736 0.226404
768 1 0.954992 0.0409874 0.273809
571 1 0.95995 0.0882501 0.237669
771 1 0.00975731 0.0935802 0.271228
575 1 0.0434314 0.189456 0.231454
772 1 0.0544064 0.140654 0.273204
819 1 0.0957877 0.186057 0.267693
536 1 0.0970738 0.135179 0.226814
579 1 0.139423 0.173744 0.23366
776 1 0.132263 0.136651 0.278544
823 1 0.189785 0.179722 0.268496
540 1 0.181987 0.128446 0.236128
583 1 0.22422 0.178525 0.223183
780 1 0.227614 0.13593 0.272736
827 1 0.267715 0.18829 0.268755
544 1 0.280731 0.14482 0.226484
543 1 0.314955 0.0918631 0.226787
587 1 0.321835 0.193051 0.215413
784 1 0.320573 0.138234 0.272613
548 1 0.36021 0.144351 0.227717
831 1 0.365567 0.177084 0.27357
591 1 0.403495 0.187797 0.224937
788 1 0.406006 0.139606 0.269341
835 1 0.458345 0.176667 0.265377
552 1 0.448507 0.13564 0.223769
595 1 0.506297 0.173101 0.226408
792 1 0.506848 0.137124 0.270849
839 1 0.551749 0.181328 0.26592
556 1 0.54786 0.137334 0.224311
599 1 0.592694 0.183925 0.221184
796 1 0.589799 0.138434 0.269286
843 1 0.631259 0.182079 0.276658
560 1 0.636907 0.147948 0.229153
603 1 0.678881 0.186874 0.223912
800 1 0.68672 0.140477 0.269803
847 1 0.731365 0.194356 0.26765
564 1 0.72927 0.150692 0.223241
607 1 0.76964 0.193692 0.222618
804 1 0.773867 0.154135 0.270512
568 1 0.808164 0.136308 0.229213
851 1 0.819793 0.186081 0.260974
611 1 0.866306 0.188415 0.227045
808 1 0.862718 0.138738 0.271333
855 1 0.91383 0.185873 0.267902
572 1 0.910181 0.139312 0.231096
532 1 0.995878 0.135251 0.235453
815 1 0.00268164 0.188861 0.269508
615 1 0.958109 0.181936 0.229955
812 1 0.952431 0.130255 0.279234
619 1 0.0584513 0.27529 0.228895
816 1 0.046909 0.238604 0.27431
580 1 0.0925993 0.22627 0.218454
576 1 0.00254047 0.2405 0.224728
863 1 0.096794 0.259994 0.265864
623 1 0.146055 0.265556 0.220773
820 1 0.143671 0.224067 0.269856
584 1 0.180484 0.216483 0.218205
867 1 0.179101 0.268049 0.273012
627 1 0.22469 0.27126 0.221273
824 1 0.221816 0.22928 0.261269
588 1 0.257755 0.220747 0.220431
871 1 0.266756 0.267279 0.270458
631 1 0.30408 0.278938 0.221348
828 1 0.321912 0.226932 0.277662
592 1 0.358987 0.233678 0.228021
875 1 0.361549 0.27233 0.27993
635 1 0.411891 0.26977 0.225838
832 1 0.408465 0.231038 0.276801
879 1 0.44848 0.27549 0.27311
596 1 0.45778 0.227252 0.226947
639 1 0.502663 0.274423 0.218866
836 1 0.504744 0.228272 0.270633
883 1 0.544863 0.274066 0.274653
600 1 0.548186 0.227908 0.223115
643 1 0.592406 0.272781 0.228215
840 1 0.588289 0.223786 0.272069
887 1 0.642345 0.272244 0.268894
604 1 0.633768 0.228307 0.23156
647 1 0.684224 0.284359 0.220338
844 1 0.682993 0.233527 0.25847
891 1 0.736019 0.280931 0.266505
608 1 0.723126 0.232267 0.218094
651 1 0.775514 0.276869 0.21805
848 1 0.781018 0.235993 0.261424
895 1 0.827589 0.277105 0.261665
612 1 0.819401 0.230796 0.221153
655 1 0.868653 0.274643 0.222868
852 1 0.863469 0.230719 0.276048
616 1 0.910069 0.2279 0.226961
899 1 0.917514 0.271103 0.272815
859 1 0.000279445 0.28189 0.282978
659 1 0.953221 0.274627 0.223368
856 1 0.957094 0.224394 0.27934
663 1 0.0490528 0.361837 0.23915
860 1 0.0492217 0.31608 0.281264
907 1 0.0941858 0.363481 0.273465
624 1 0.0955861 0.326017 0.23043
667 1 0.140732 0.369017 0.224565
864 1 0.134682 0.308705 0.267235
628 1 0.184715 0.317046 0.219603
911 1 0.183428 0.364862 0.266853
671 1 0.23477 0.373305 0.220178
868 1 0.220032 0.312285 0.266498
632 1 0.26594 0.322793 0.225592
915 1 0.272105 0.357034 0.269784
675 1 0.318252 0.363663 0.227381
872 1 0.317993 0.314224 0.269953
636 1 0.35334 0.312433 0.228217
919 1 0.366288 0.363728 0.274921
679 1 0.411472 0.364421 0.224381
876 1 0.407392 0.320752 0.263235
640 1 0.462183 0.325736 0.221427
923 1 0.458463 0.360296 0.267847
683 1 0.507941 0.361597 0.224684
880 1 0.502056 0.314175 0.270473
927 1 0.545236 0.36497 0.268457
644 1 0.549884 0.320241 0.215585
687 1 0.592959 0.363303 0.226543
884 1 0.588941 0.320757 0.27349
648 1 0.63069 0.317753 0.232347
931 1 0.635767 0.361709 0.270614
691 1 0.676823 0.365055 0.221272
888 1 0.686773 0.317934 0.272403
652 1 0.723074 0.324297 0.216094
935 1 0.725714 0.361171 0.269788
695 1 0.771584 0.371587 0.22806
892 1 0.779402 0.321726 0.266779
656 1 0.817829 0.323643 0.218471
939 1 0.819758 0.362697 0.269293
699 1 0.86253 0.362708 0.227181
896 1 0.872677 0.314815 0.26748
660 1 0.91718 0.316953 0.230701
903 1 0.000417897 0.357791 0.279861
620 1 0.00535749 0.317992 0.229226
943 1 0.911548 0.363584 0.274954
703 1 0.963299 0.363324 0.226324
900 1 0.957092 0.316429 0.281329
987 1 0.406725 0.00290579 0.409847
904 1 0.0477338 0.400108 0.278057
706 1 0.0453356 0.453137 0.222969
668 1 0.0931883 0.406676 0.224932
664 1 0.00751826 0.406148 0.239047
949 1 0.0837575 0.458135 0.270548
908 1 0.13288 0.406231 0.268918
708 1 0.133999 0.452326 0.227811
1310 1 0.487459 0.404853 0.449464
951 1 0.181298 0.453639 0.270936
672 1 0.184468 0.410987 0.229164
710 1 0.232883 0.4542 0.221828
912 1 0.229169 0.411313 0.271527
1326 1 0.444831 0.449071 0.456314
747 1 0.455832 0.00162989 0.272336
676 1 0.280694 0.410372 0.222599
953 1 0.276431 0.451717 0.275431
916 1 0.320502 0.409261 0.272977
712 1 0.321145 0.450857 0.227911
680 1 0.369096 0.408441 0.235891
1443 1 0.135732 0.459603 0.496004
955 1 0.362312 0.454264 0.274839
920 1 0.412272 0.406059 0.281667
714 1 0.409893 0.452049 0.228314
957 1 0.44694 0.455737 0.279845
993 1 0.534459 0.00375011 0.363391
684 1 0.452869 0.409047 0.22914
924 1 0.494654 0.406368 0.277732
716 1 0.503976 0.457464 0.238053
688 1 0.537369 0.409543 0.222376
959 1 0.552375 0.451355 0.272156
718 1 0.588968 0.457887 0.222287
928 1 0.597061 0.411187 0.269411
961 1 0.640912 0.453732 0.272564
692 1 0.638494 0.415779 0.222039
932 1 0.684036 0.408912 0.271124
720 1 0.685394 0.453224 0.224602
696 1 0.728251 0.408321 0.23029
963 1 0.725325 0.455074 0.266268
936 1 0.781075 0.420375 0.269494
722 1 0.780065 0.455927 0.228482
700 1 0.822141 0.408116 0.222299
965 1 0.832201 0.461868 0.277019
940 1 0.864348 0.402857 0.276217
724 1 0.871933 0.445888 0.225557
967 1 0.9069 0.45773 0.2702
704 1 0.91619 0.407994 0.229632
947 1 0.0105795 0.451099 0.272797
726 1 0.95694 0.445569 0.227546
944 1 0.954693 0.408031 0.2753
247 1 0.0925842 0.000265733 0.0885543
773 1 0.0346674 0.100028 0.321751
970 1 0.0363618 0.0436888 0.360913
1017 1 0.0824113 0.0930565 0.361698
734 1 0.0842145 0.0457923 0.318697
974 1 0.134988 0.0483865 0.36212
777 1 0.134166 0.0827527 0.315611
1021 1 0.173028 0.0937901 0.360833
738 1 0.186994 0.0430015 0.32169
781 1 0.227554 0.0954351 0.323331
978 1 0.228724 0.0557835 0.367916
759 1 0.724688 0.01024 0.26826
1325 1 0.364561 0.451849 0.44738
742 1 0.272118 0.0488811 0.321287
1025 1 0.272164 0.0943976 0.36464
982 1 0.316222 0.0535167 0.36346
785 1 0.318188 0.0980612 0.316926
746 1 0.363006 0.0486784 0.314787
1029 1 0.367412 0.0834106 0.367814
986 1 0.411223 0.039328 0.356233
789 1 0.405832 0.0934423 0.322923
750 1 0.463564 0.0519718 0.312993
1308 1 0.408236 0.405239 0.445721
1033 1 0.448822 0.0858098 0.371202
793 1 0.504517 0.096356 0.317848
990 1 0.498222 0.0504311 0.368283
754 1 0.545885 0.0537827 0.323458
1037 1 0.539488 0.102099 0.367792
994 1 0.592003 0.0437595 0.361671
797 1 0.592393 0.0966464 0.325349
1039 1 0.583717 0.0947634 0.410485
1041 1 0.635372 0.0868999 0.363771
758 1 0.641918 0.0458682 0.312465
998 1 0.675651 0.0400563 0.358743
801 1 0.681617 0.0967136 0.320961
1045 1 0.724838 0.104622 0.359531
762 1 0.725296 0.0455257 0.319647
1002 1 0.768573 0.0588415 0.373578
805 1 0.765827 0.0891834 0.317763
766 1 0.82127 0.0517183 0.318227
1049 1 0.813964 0.100559 0.364227
809 1 0.858266 0.0973565 0.315518
1006 1 0.871368 0.0497241 0.359343
1231 1 0.913098 0.00420079 0.451181
1198 1 0.409204 0.451752 0.405654
1013 1 0.99848 0.0917873 0.364693
730 1 0.998245 0.0518825 0.316941
770 1 0.910005 0.0584758 0.316409
1053 1 0.919022 0.0983718 0.3642
1010 1 0.953261 0.0466507 0.362159
813 1 0.957574 0.0945905 0.32116
817 1 0.0470168 0.194085 0.316436
1014 1 0.0428406 0.139322 0.368955
778 1 0.0840474 0.140963 0.318609
1061 1 0.0960426 0.18512 0.363207
821 1 0.137367 0.175296 0.317692
1018 1 0.130367 0.132606 0.360322
1065 1 0.181764 0.181069 0.363915
782 1 0.181062 0.133609 0.314026
825 1 0.2187 0.178465 0.317596
1022 1 0.227518 0.136442 0.361902
1069 1 0.26917 0.182747 0.358897
786 1 0.268634 0.151154 0.310471
829 1 0.317252 0.179978 0.31648
1026 1 0.309502 0.138038 0.362603
790 1 0.363846 0.134066 0.320704
1073 1 0.365431 0.18054 0.364939
833 1 0.417997 0.182152 0.315908
1030 1 0.41326 0.13512 0.364989
794 1 0.454389 0.139946 0.319144
1077 1 0.456959 0.178745 0.369724
837 1 0.494495 0.181474 0.326818
1034 1 0.495742 0.139228 0.364438
798 1 0.546774 0.145898 0.321737
1081 1 0.543413 0.18568 0.363755
841 1 0.591242 0.184069 0.327231
1038 1 0.587991 0.137537 0.365707
1085 1 0.636542 0.180516 0.36633
802 1 0.63459 0.142079 0.32479
845 1 0.680525 0.181392 0.314013
1042 1 0.676876 0.131241 0.369345
1089 1 0.725954 0.177889 0.366849
806 1 0.730346 0.144348 0.312417
849 1 0.776521 0.184358 0.318445
1046 1 0.772051 0.143538 0.361149
1093 1 0.824543 0.183854 0.356705
810 1 0.815484 0.141421 0.318807
853 1 0.865438 0.182762 0.308803
1050 1 0.862922 0.137403 0.362013
814 1 0.905392 0.136867 0.317086
1057 1 0.00461957 0.182481 0.371306
1097 1 0.909964 0.182118 0.368837
774 1 0.998027 0.149213 0.319122
857 1 0.949783 0.182912 0.319773
1054 1 0.955239 0.144449 0.361959
861 1 0.0385911 0.273868 0.328152
1058 1 0.0470647 0.226149 0.362616
1105 1 0.0909565 0.265157 0.363011
822 1 0.0984193 0.221818 0.313527
865 1 0.135106 0.27673 0.316803
1062 1 0.142138 0.225343 0.368403
826 1 0.179235 0.222094 0.312663
1109 1 0.18251 0.273202 0.36567