ITEM: TIMESTEP
17500
ITEM: NUMBER OF ATOMS
1372
ITEM: BOX BOUNDS pp pp pp
0.0000000000000000e+00 3.6820000000000000e+01
0.0000000000000000e+00 3.6820000000000000e+01
0.0000000000000000e+00 3.6820000000000000e+01
ITEM: ATOMS id type xs ys zs
8 1 0.137955 0.0672782 0.0585584
100 1 0.0825618 0.0836668 0.135703
117 1 0.149163 0.145639 0.142689
911 1 0.499621 0.351656 0.292242
391 1 0.274616 0.92213 0.505763
380 1 -0.00944725 0.795539 0.509641
12 1 0.293916 0.0721797 0.0611277
104 1 0.221151 0.0720782 0.139466
7 1 0.211823 1.00208 0.0726424
121 1 0.289416 0.134548 0.141513
813 1 0.498718 0.349581 0.14358
16 1 0.078499 0.219473 -0.0102466
108 1 0.354351 0.0662311 0.135635
14 1 0.427315 0.0719551 0.076764
125 1 0.428905 0.135152 0.157858
786 1 0.506946 -0.00780368 0.212951
939 1 0.490156 0.648033 0.282505
99 1 0.00522864 1.01561 0.141571
912 1 0.492525 0.281788 0.363424
48 1 0.220838 0.505901 0.0015604
116 1 -0.012338 0.209632 0.228962
17 1 0.0806724 0.16154 0.0773215
22 1 0.151551 0.223086 0.0582146
114 1 0.0871888 0.214076 0.147343
131 1 0.144539 0.29514 0.138891
898 1 0.505292 0.132791 0.348046
855 1 0.502563 0.795898 0.14871
21 1 0.213017 0.143932 0.0685484
26 1 0.299005 0.21109 0.0649082
118 1 0.219719 0.217357 0.137981
135 1 0.306641 0.277207 0.152583
827 1 0.4922 0.501706 0.150753
25 1 0.365252 0.138562 0.0806507
28 1 0.427463 0.211362 0.085222
122 1 0.363245 0.206873 0.154305
39 1 0.362649 0.272294 0.0768224
139 1 0.435057 0.275662 0.150371
51 1 0.296541 0.424779 -0.00205385
31 1 0.0776638 0.286714 0.0728134
36 1 0.163362 0.348191 0.0750279
128 1 0.0874922 0.360074 0.153513
45 1 0.0835268 0.41744 0.0726833
145 1 0.147845 0.428454 0.129984
814 1 0.491306 0.275789 0.231906
301 1 0.426835 0.993209 0.438195
799 1 0.50225 0.2012 0.149249
35 1 0.236104 0.274278 0.057575
40 1 0.297201 0.346366 0.0780783
132 1 0.22764 0.358419 0.146708
149 1 0.305985 0.425576 0.136966
49 1 0.236235 0.428657 0.0775089
4 1 2.2321e-05 0.0828516 0.073076
342 1 0.352216 0.929496 0.434993
42 1 0.43287 0.343568 0.086231
136 1 0.364426 0.350715 0.153539
53 1 0.361446 0.428462 0.0671992
374 1 0.216767 0.574568 0.497287
50 1 0.164542 0.507331 0.0873244
142 1 0.0821896 0.502143 0.140907
225 1 0.00586427 0.287288 0.282626
54 1 0.297081 0.503486 0.0743078
146 1 0.232489 0.490267 0.143561
163 1 0.302129 0.56252 0.142373
60 1 -0.00881072 0.629207 0.0693717
323 1 -0.000711489 0.578335 0.412648
153 1 0.431392 0.421342 0.148804
56 1 0.424216 0.511489 0.0851638
150 1 0.364654 0.504004 0.153246
67 1 0.361198 0.577476 0.0657791
167 1 0.424396 0.572175 0.153591
337 1 0.00154674 0.868404 0.426692
59 1 0.0640453 0.569502 0.0639582
159 1 0.15525 0.585396 0.138509
64 1 0.132003 0.639374 0.0690644
156 1 0.0710693 0.648092 0.137239
173 1 0.138752 0.712802 0.133164
954 1 0.504812 0.723979 0.35716
63 1 0.221467 0.576314 0.0666617
68 1 0.297734 0.648081 0.072291
160 1 0.23189 0.64102 0.141045
177 1 0.288171 0.718658 0.135864
800 1 0.5039 0.136807 0.216497
302 1 0.0136342 0.137959 0.41661
70 1 0.429602 0.647288 0.0632474
164 1 0.367142 0.639408 0.136698
294 1 0.422811 0.943467 0.349015
181 1 0.440411 0.725294 0.144307
20 1 0.218528 0.207278 -0.00964204
73 1 0.0706235 0.719406 0.0731585
78 1 0.132492 0.780113 0.0568438
170 1 0.0758021 0.794041 0.139887
287 1 0.204511 0.869461 0.352303
203 1 0.208391 0.00494351 0.357931
926 1 0.512795 0.410617 0.364584
77 1 0.216545 0.712784 0.0686916
82 1 0.281653 0.784213 0.0731603
174 1 0.215639 0.777369 0.138265
191 1 0.275218 0.855991 0.139543
91 1 0.2139 0.861672 0.067782
316 1 0.00225685 0.442983 0.419852
884 1 0.501281 0.996928 0.356513
292 1 0.279341 0.927601 0.362134
81 1 0.366796 0.714473 0.0703101
1065 1 0.506849 0.717219 0.500027
84 1 0.425096 0.788819 0.0831706
178 1 0.347495 0.783049 0.138518
95 1 0.359783 0.849662 0.0766672
195 1 0.433214 0.853342 0.144296
340 1 0.213514 0.938216 0.43268
87 1 0.0801866 0.85438 0.066567
187 1 0.152637 0.8524 0.138143
3 1 0.0667716 0.998503 0.0585283
103 1 0.145171 0.000663073 0.149496
92 1 0.13842 0.931488 0.0749246
184 1 0.0691928 0.93317 0.139433
925 1 0.495555 0.493886 0.305977
43 1 0.0105234 0.425233 0.00630388
1002 1 0.492014 0.502279 0.422805
107 1 0.283273 1.0024 0.136042
96 1 0.293506 0.917905 0.0701704
188 1 0.221907 0.931353 0.14238
883 1 0.513296 0.0595406 0.279828
364 1 0.42643 0.362527 0.482092
111 1 0.428641 0.984516 0.152122
371 1 0.424037 0.503939 0.490695
11 1 0.354225 1.00126 0.0724659
98 1 0.419783 0.917461 0.067042
192 1 0.363166 0.91627 0.142233
1023 1 0.4983 0.921128 0.418672
106 1 0.145207 0.0829702 0.214325
198 1 0.0603241 0.0707302 0.282931
115 1 0.0759132 0.14731 0.220848
215 1 0.152604 0.166434 0.287034
197 1 -0.00318046 1.00365 0.278806
688 1 0.4882 0.995282 0.0797725
110 1 0.27852 0.0650897 0.209649
202 1 0.209219 0.0763137 0.296374
119 1 0.216304 0.147215 0.209432
219 1 0.27345 0.14171 0.28233
341 1 0.282313 0.869963 0.430836
112 1 0.420014 0.0601194 0.203466
206 1 0.349841 0.059989 0.280996
223 1 0.431694 0.11897 0.277386
209 1 0.42178 0.00327769 0.286661
339 1 0.149665 0.866445 0.425855
120 1 0.155998 0.223775 0.215383
212 1 0.0793914 0.218962 0.2904
129 1 0.0802977 0.285552 0.217128
199 1 0.0790306 0.00425903 0.361869
124 1 0.287866 0.205825 0.209065
216 1 0.225714 0.22746 0.280623
233 1 0.297947 0.282545 0.282584
127 1 0.0198735 0.277402 0.146286
123 1 0.344787 0.129024 0.21594
126 1 0.434519 0.20339 0.219291
220 1 0.364734 0.19896 0.278855
237 1 0.42657 0.279395 0.307673
137 1 0.374327 0.27421 0.225151
716 1 0.491554 0.271585 0.0845721
981 1 0.500874 0.0616277 0.426224
336 1 0.424057 0.710394 0.432701
288 1 0.145887 0.931823 0.357332
229 1 0.146405 0.294374 0.290844
134 1 0.156324 0.348725 0.214898
226 1 0.0750703 0.347036 0.2826
133 1 0.2261 0.285369 0.202783
138 1 0.300632 0.352754 0.213599
230 1 0.226278 0.35836 0.273106
147 1 0.211079 0.424572 0.210999
140 1 0.431411 0.350539 0.223138
234 1 0.346135 0.359348 0.297576
251 1 0.424918 0.421311 0.299598
151 1 0.35932 0.425625 0.220733
328 1 0.36086 0.644551 0.445503
277 1 0.355519 0.711871 0.354961
869 1 0.489734 0.92007 0.13698
143 1 0.0805372 0.438387 0.209154
243 1 0.136873 0.435257 0.284436
148 1 0.150123 0.507758 0.212468
240 1 0.0710902 0.500365 0.277847
247 1 0.284737 0.423321 0.273047
152 1 0.280994 0.501742 0.221895
244 1 0.211082 0.493121 0.292962
261 1 0.292915 0.579587 0.293884
214 1 0.00417022 0.218995 0.357841
154 1 0.431385 0.486723 0.220995
248 1 0.346945 0.506582 0.300418
165 1 0.358216 0.575042 0.217358
870 1 0.492857 0.85216 0.216942
157 1 0.0869175 0.570219 0.204747
257 1 0.158551 0.572463 0.275418
162 1 0.146652 0.647821 0.207774
254 1 0.074695 0.645946 0.262517
171 1 0.0704259 0.719954 0.207673
161 1 0.220861 0.572336 0.201055
166 1 0.293513 0.655738 0.210105
258 1 0.216751 0.64144 0.276875
175 1 0.215579 0.7132 0.197683
265 1 0.416206 0.565986 0.287549
168 1 0.42801 0.656476 0.208729
262 1 0.363749 0.643798 0.280688
179 1 0.362439 0.720537 0.209976
279 1 0.431172 0.722377 0.279677
338 1 0.0781485 0.928153 0.424921
271 1 0.130039 0.722544 0.288144
176 1 0.148034 0.780283 0.209017
268 1 0.0710077 0.791541 0.282371
285 1 0.153847 0.861848 0.28156
275 1 0.288482 0.716251 0.280177
180 1 0.287108 0.781268 0.210617
272 1 0.214593 0.786199 0.276614
189 1 0.216051 0.858697 0.216454
289 1 0.272818 0.861329 0.281981
182 1 0.417458 0.80498 0.229716
276 1 0.350013 0.80325 0.292009
193 1 0.344463 0.865738 0.222453
293 1 0.42651 0.863577 0.307062
185 1 0.0718462 0.869201 0.212322
201 1 0.150221 0.0131343 0.28784
101 1 0.0753395 1.00711 0.223273
190 1 0.144552 0.925482 0.210477
282 1 0.071282 0.930147 0.279143
273 1 0.214151 0.714025 0.339297
105 1 0.208203 0.00880247 0.211501
205 1 0.279858 1.00497 0.289882
194 1 0.280601 0.931292 0.214945
286 1 0.206982 0.946535 0.283573
109 1 0.35449 0.985583 0.211121
196 1 0.431094 0.91806 0.221313
290 1 0.352678 0.933943 0.286058
297 1 0.144635 0.0120881 0.431398
204 1 0.140788 0.0707177 0.356925
296 1 0.0708869 0.0639536 0.428805
304 1 0.140299 0.15168 0.433553
213 1 0.0832954 0.140277 0.359386
299 1 0.275132 1.00556 0.441274
208 1 0.276612 0.0784735 0.358315
298 1 0.208872 0.0740821 0.429382
217 1 0.197737 0.154123 0.366459
306 1 0.268742 0.145217 0.432431
207 1 0.34537 1.00506 0.36593
210 1 0.419236 0.0596456 0.362419
300 1 0.353179 0.0630728 0.439525
308 1 0.433544 0.134145 0.434521
221 1 0.352932 0.13608 0.356723
332 1 0.14418 0.717608 0.420982
218 1 0.139348 0.225949 0.365693
303 1 0.0614774 0.213662 0.429718
326 1 0.208038 0.651962 0.412768
343 1 0.421866 0.856039 0.432242
222 1 0.27564 0.204813 0.361831
305 1 0.216117 0.224639 0.432398
231 1 0.217133 0.283752 0.357871
388 1 0.208908 0.855878 0.511895
377 1 0.289193 0.648718 0.502673
224 1 0.414076 0.197989 0.367057
307 1 0.341036 0.203011 0.440151
274 1 0.143807 0.787224 0.351926
334 1 0.282449 0.718972 0.435038
335 1 0.3522 0.787119 0.423555
227 1 0.0692124 0.286934 0.369531
311 1 0.138407 0.288701 0.428751
310 1 0.0786478 0.3744 0.427891
232 1 0.144807 0.36145 0.355837
313 1 0.299205 0.286413 0.431817
236 1 0.273675 0.353682 0.358028
312 1 0.216214 0.354286 0.430191
245 1 0.217881 0.437666 0.356621
283 1 0.0751499 0.85637 0.350627
34 1 0.222228 0.362213 0.00218336
32 1 0.00371413 0.354442 0.082857
331 1 0.0591055 0.795099 0.427267
376 1 0.356431 0.567737 0.50562
315 1 0.418338 0.284652 0.430437
235 1 0.351852 0.28225 0.360903
238 1 0.419672 0.35462 0.365933
314 1 0.350303 0.356742 0.432806
278 1 0.284062 0.796405 0.358822
318 1 0.14099 0.437862 0.427448
241 1 0.0823936 0.438303 0.357192
246 1 0.135455 0.509005 0.350283
317 1 0.0756368 0.515472 0.418093
325 1 0.145161 0.572212 0.436778
390 1 0.352861 0.860957 0.49529
320 1 0.275647 0.434209 0.427971
319 1 0.211722 0.506373 0.423196
250 1 0.278451 0.509109 0.365003
253 1 -0.00555487 0.571517 0.265526
291 1 0.351744 0.861856 0.355352
322 1 0.417228 0.442389 0.424567
329 1 0.42118 0.573945 0.433071
249 1 0.345134 0.436901 0.363948
321 1 0.347762 0.505942 0.431295
263 1 0.356472 0.565583 0.363266
252 1 0.421139 0.495619 0.358532
264 1 0.291102 0.652331 0.361167
327 1 0.283546 0.582798 0.428455
280 1 0.429759 0.786662 0.369888
266 1 0.426931 0.637267 0.353849
333 1 0.20978 0.785877 0.427314
324 1 0.0730477 0.631543 0.43652
260 1 0.147319 0.64688 0.345434
269 1 0.0618258 0.727253 0.359042
255 1 0.0809952 0.582549 0.36311
259 1 0.218172 0.57245 0.351346
130 1 0.0150472 0.367784 0.216783
186 1 0.00653496 0.933676 0.217508
44 1 0.0702336 0.492313 0.00645147
1037 1 0.50249 0.146534 0.513365
842 1 0.486841 0.564767 0.232608
370 1 0.276752 0.49808 0.50186
744 1 0.490912 0.578176 0.0811987
940 1 0.490608 0.569598 0.35142
46 1 0.0022425 0.498118 0.078148
144 1 -0.000591849 0.501312 0.208071
239 1 0.0161994 0.422325 0.292313
242 1 0.00680078 0.517599 0.342648
967 1 0.505699 0.934559 0.275093
169 1 0.0024888 0.722015 0.138395
772 1 0.489164 0.845608 0.0647828
256 1 0.00591577 0.632467 0.332409
75 1 0.140137 0.712631 0.000797
72 1 0.0686016 0.805941 -0.00648191
90 1 0.225471 0.931273 0.00286751
89 1 0.150309 0.862727 -0.0111986
381 1 0.199687 0.711756 0.507497
351 1 0.0627546 0.145488 0.508563
383 1 0.35461 0.713004 0.505425
392 1 0.425523 0.927152 0.502159
27 1 0.430292 0.134818 -0.00975408
360 1 0.209772 0.285016 0.511247
38 1 0.369956 0.344521 0.00228487
358 1 0.06078 0.288673 0.498399
363 1 0.28305 0.350543 0.498548
6 1 0.215349 0.0681742 -0.00103745
47 1 0.153724 0.439317 0.0131282
41 1 0.424079 0.273639 0.00256782
61 1 0.130934 0.577992 -0.00206444
350 1 0.433778 0.0692806 0.494512
687 1 0.503471 0.0735416 0.00270506
94 1 0.349806 0.921534 -0.00492518
369 1 0.350928 0.429287 0.491247
385 1 0.423008 0.785676 0.491011
387 1 -0.00461433 0.930052 0.509701
373 1 -0.00401966 0.65174 0.50289
93 1 0.28732 0.855647 -0.00170147
33 1 0.146334 0.292565 -0.00129132
76 1 0.221961 0.77418 -0.00623998
365 1 0.0766803 0.44046 0.500042
52 1 0.36726 0.49188 -0.0154166
394 1 0.0736346 0.0666617 0.57793
400 1 0.146631 0.0695395 0.652458
411 1 0.141038 0.146462 0.57229
601 1 0.442595 1.00092 0.85207
715 1 0.500137 0.354262 1.01258
522 1 -0.000511062 0.36635 0.77772
398 1 0.213073 0.0729731 0.580716
404 1 0.284402 0.0784479 0.653072
413 1 0.217138 0.143087 0.651068
415 1 0.283423 0.140406 0.587583
401 1 0.280819 -0.00319314 0.588793
421 1 0.00300328 0.280226 0.570477
402 1 0.352209 0.0627034 0.578578
406 1 0.431813 0.070426 0.634695
435 1 0.0161127 0.435555 0.573212
683 1 0.345685 0.86038 0.925566
409 1 0.0714674 0.136431 0.651349
408 1 0.0751169 0.213137 0.575899
414 1 0.150953 0.206772 0.648043
389 1 0.144225 0.92918 0.493697
412 1 0.217171 0.212867 0.576594
418 1 0.289924 0.2124 0.652402
427 1 0.211118 0.282044 0.649628
367 1 0.20629 0.424825 0.501677
419 1 0.424879 0.149069 0.580743
417 1 0.346219 0.148299 0.651058
416 1 0.351399 0.222976 0.570478
420 1 0.419261 0.21126 0.643183
433 1 0.433396 0.286183 0.564168
463 1 -0.00435425 0.723874 0.573422
423 1 0.0749941 0.293078 0.654977
1079 1 0.507978 0.0806736 0.566038
425 1 0.144471 0.271458 0.576496
422 1 0.0808031 0.365206 0.572534
428 1 0.146899 0.3579 0.647485
589 1 -0.00730043 0.00866956 0.852255
429 1 0.282054 0.291859 0.571066
426 1 0.215687 0.359407 0.582909
432 1 0.289667 0.366902 0.650915
431 1 0.361336 0.294133 0.638777
430 1 0.368117 0.363797 0.574461
434 1 0.423017 0.356549 0.650755
23 1 0.291731 0.13788 0.993654
1178 1 0.499893 0.00323446 0.785569
2 1 0.0740449 0.072465 0.993513
685 1 0.4261 0.864017 0.853972
347 1 0.135677 0.0777303 0.505059
439 1 0.141742 0.436372 0.567306
437 1 0.077887 0.433723 0.638118
436 1 0.0856933 0.502931 0.576196
442 1 0.15909 0.496937 0.637885
1177 1 0.503489 0.0779221 0.712808
441 1 0.23102 0.433736 0.647644
443 1 0.287624 0.429936 0.567085
440 1 0.222382 0.508127 0.569142
446 1 0.279377 0.506358 0.646689
457 1 0.288081 0.580204 0.58272
1080 1 0.499672 1.00098 0.635532
1276 1 0.503495 -0.00175686 0.928126
445 1 0.345552 0.448849 0.642273
447 1 0.432104 0.435199 0.555197
444 1 0.355533 0.496369 0.564464
448 1 0.427843 0.494685 0.64021
461 1 0.427281 0.569085 0.580226
5 1 0.145125 -0.0192935 0.997955
382 1 0.146297 0.780824 0.49173
453 1 0.152235 0.577204 0.572872
451 1 0.0827173 0.572431 0.635325
450 1 0.0618327 0.65065 0.56918
456 1 0.140909 0.653337 0.630145
465 1 0.0608162 0.723261 0.645546
682 1 0.354734 0.932772 0.842574
455 1 0.215111 0.580978 0.63801
454 1 0.222748 0.652478 0.571938
460 1 0.286734 0.641405 0.649653
471 1 0.295832 0.717304 0.585872
452 1 -0.000708512 0.646781 0.638971
459 1 0.3522 0.554052 0.633583
458 1 0.35582 0.639903 0.580249
462 1 0.424283 0.653934 0.637774
473 1 0.359598 0.73785 0.648815
475 1 0.422541 0.714306 0.567244
1360 1 0.500126 0.852867 0.926479
379 1 0.0722933 0.715388 0.487507
467 1 0.12325 0.732319 0.575528
464 1 0.0659442 0.798368 0.572277
470 1 0.130496 0.798891 0.649734
479 1 0.0649989 0.867509 0.635619
481 1 0.13695 0.868876 0.567149
561 1 0.0111684 0.710552 0.725928
1 1 -0.0086453 -0.0083458 0.999897
468 1 0.20532 0.788919 0.582248
474 1 0.285674 0.784967 0.651189
1318 1 0.496035 0.426365 0.934388
472 1 0.370996 0.802625 0.56649
476 1 0.443327 0.799173 0.647558
487 1 0.35659 0.841712 0.652805
1317 1 0.509348 0.496913 0.853148
395 1 0.0600468 -0.0102463 0.644832
349 1 0.271864 0.0666383 0.509867
397 1 0.147448 -0.0125141 0.571073
478 1 0.0711253 0.933249 0.569459
484 1 0.139809 0.933939 0.645442
1107 1 0.49903 0.372232 0.558234
86 1 0.0686372 0.917474 0.997857
410 1 0.00330863 0.219131 0.647891
9 1 0.289841 1.00364 1.00175
1093 1 0.496447 0.208876 0.579901
399 1 0.207591 0.999792 0.64662
483 1 0.200939 0.86177 0.639604
485 1 0.298134 0.853932 0.574631
482 1 0.21825 0.921631 0.582049
488 1 0.287562 0.915347 0.64266
1220 1 0.513894 0.425419 0.79343
403 1 0.360566 0.981793 0.647025
405 1 0.423626 0.99388 0.57244
686 1 0.431059 0.928084 0.924449
489 1 0.438133 0.867727 0.562914
486 1 0.359448 0.924318 0.571946
490 1 0.428707 0.910565 0.638891
1136 1 0.508411 0.570066 0.651491
348 1 0.343302 1.00434 0.503233
564 1 0.00539658 0.784797 0.794866
533 1 -0.0011715 0.429322 0.708189
492 1 0.0727106 0.0638798 0.707764
498 1 0.144939 0.0653456 0.790018
507 1 0.0677138 0.139078 0.789048
493 1 0.0686744 0.995814 0.788695
495 1 0.139879 -0.00718551 0.723781
509 1 0.138816 0.14369 0.730663
496 1 0.21108 0.0671077 0.722934
502 1 0.289558 0.0842675 0.785518
513 1 0.285538 0.14856 0.721257
497 1 0.21024 -0.0166805 0.78355
499 1 0.286798 0.00120752 0.723124
500 1 0.365465 0.0693494 0.70964
504 1 0.435432 0.0830021 0.776398
501 1 0.357405 -0.000151969 0.780152
83 1 0.428817 0.713016 1.00283
506 1 0.0721081 0.210779 0.706251
512 1 0.127928 0.217451 0.796139
424 1 0.0147742 0.3617 0.63825
511 1 0.217153 0.144525 0.792534
510 1 0.213952 0.211895 0.709023
516 1 0.276158 0.217023 0.79028
517 1 0.423738 0.147157 0.713748
515 1 0.366272 0.146593 0.785628
514 1 0.357707 0.216963 0.718924
518 1 0.430995 0.220314 0.780169
531 1 0.422936 0.283944 0.713702
10 1 0.364874 0.0734138 0.995926
353 1 0.203962 0.157624 0.502424
521 1 0.064048 0.294507 0.774747
523 1 0.145233 0.287146 0.719242
520 1 0.0865668 0.370706 0.719775
526 1 0.140535 0.349169 0.788784
527 1 0.287645 0.283177 0.717249
525 1 0.210203 0.282155 0.783459
524 1 0.217785 0.354697 0.708378
530 1 0.2738 0.358715 0.774248
529 1 0.353027 0.28034 0.798266
528 1 0.355428 0.360984 0.72661
532 1 0.4355 0.355499 0.791819
543 1 0.356614 0.432664 0.783002
536 1 0.00268926 0.495701 0.779637
62 1 0.205804 0.642665 1.0023
537 1 0.156252 0.442391 0.720749
535 1 0.0884991 0.432674 0.792371
534 1 0.0763457 0.497449 0.722868
540 1 0.151461 0.515552 0.792671
539 1 0.221106 0.42729 0.78854
541 1 0.286431 0.436067 0.717594
538 1 0.221925 0.520342 0.724601
544 1 0.29043 0.500405 0.794979
553 1 0.218707 0.583071 0.781938
545 1 0.426287 0.427792 0.711888
542 1 0.369059 0.5066 0.715606
546 1 0.443405 0.49749 0.795815
1346 1 0.492758 0.716882 0.921142
549 1 0.0713727 0.56532 0.784582
551 1 0.146023 0.579168 0.702433
548 1 0.0796127 0.640958 0.699096
554 1 0.138611 0.641678 0.777006
563 1 0.0700588 0.714217 0.801549
565 1 0.139029 0.717734 0.723483
469 1 0.210262 0.71513 0.647653
555 1 0.298892 0.591972 0.719707
552 1 0.218263 0.649606 0.712536
558 1 0.292153 0.648306 0.795595
569 1 0.281134 0.713649 0.716439
567 1 0.210638 0.713815 0.792026
557 1 0.367043 0.563776 0.782648
559 1 0.413956 0.58585 0.699035
556 1 0.35689 0.660491 0.715549
560 1 0.424035 0.634717 0.785421
573 1 0.428926 0.709506 0.718457
354 1 0.137577 0.219016 0.492433
562 1 0.051082 0.802483 0.710615
568 1 0.137321 0.793231 0.787362
678 1 0.223329 0.924838 0.859166
566 1 0.214806 0.789033 0.708145
572 1 0.283668 0.77693 0.779695
583 1 0.279386 0.854599 0.712576
581 1 0.218044 0.843572 0.797273
547 1 0.0145465 0.566889 0.713933
571 1 0.344696 0.711804 0.795367
570 1 0.354753 0.783689 0.730788
574 1 0.44295 0.780955 0.784862
587 1 0.431707 0.855576 0.713257
585 1 0.368122 0.857188 0.781175
79 1 0.293876 0.716794 1.00479
577 1 0.0658537 0.859087 0.805779
579 1 0.153986 0.865256 0.721373
576 1 0.0735332 0.926376 0.716041
582 1 0.145452 0.911565 0.792389
580 1 0.223903 0.924857 0.713002
586 1 0.283705 0.908956 0.789592
684 1 0.277806 0.930742 0.931222
503 1 0.427583 1.00344 0.714041
584 1 0.354696 0.919663 0.711289
588 1 0.432849 0.935886 0.780767
1275 1 0.4953 0.07691 0.849504
407 1 -0.00130858 0.149681 0.568726
593 1 0.146531 1.01335 0.865224
590 1 0.0652805 0.0667597 0.856836
596 1 0.151327 0.0742339 0.926808
595 1 0.225446 0.00268325 0.933551
597 1 0.286821 1.00134 0.845195
594 1 0.218615 0.0732382 0.856525
600 1 0.286191 0.070783 0.929703
631 1 -0.00128795 0.433229 0.864485
599 1 0.350926 0.992691 0.917025
598 1 0.372616 0.0588234 0.86091
602 1 0.438454 0.0638624 0.932262
615 1 0.440362 0.145005 0.842341
97 1 0.433475 0.856083 0.993108
605 1 0.0717077 0.139875 0.914903
607 1 0.147657 0.144116 0.863744
604 1 0.0598531 0.22559 0.865654
610 1 0.138796 0.223717 0.927051
55 1 0.419991 0.420231 1.00262
672 1 0.423037 0.791284 0.922084
609 1 0.219074 0.144403 0.925319
611 1 0.29136 0.147844 0.85225
608 1 0.210965 0.223499 0.857564
614 1 0.295157 0.210682 0.934152
613 1 0.354199 0.1303 0.921819
612 1 0.363422 0.206792 0.875013
616 1 0.443591 0.209296 0.932735
627 1 0.356723 0.283408 0.926707
629 1 0.432804 0.280305 0.864619
617 1 -0.0130976 0.292278 0.860229
674 1 0.0817695 0.939808 0.864095
438 1 0.00519271 0.506906 0.643413
681 1 0.284442 0.854401 0.86368
671 1 0.425537 0.721897 0.847998
621 1 0.139201 0.2966 0.855997
619 1 0.0612902 0.295528 0.930353
618 1 0.0687907 0.353195 0.857951
624 1 0.137977 0.361118 0.929852
635 1 0.155748 0.436551 0.862229
667 1 0.279001 0.726295 0.85469
680 1 0.154783 0.930682 0.919759
623 1 0.207743 0.288376 0.927625
625 1 0.281018 0.280469 0.875472
622 1 0.206773 0.358174 0.868041
628 1 0.290701 0.358062 0.930196
679 1 0.218914 0.845682 0.92701
661 1 0.0615687 0.711945 0.943197
1234 1 0.499427 0.569809 0.779579
641 1 0.354581 0.423198 0.927937
626 1 0.357728 0.363071 0.849831
630 1 0.431359 0.369834 0.934868
643 1 0.426175 0.424082 0.857064
633 1 0.0874576 0.424047 0.944744
632 1 0.0823847 0.496706 0.865441
638 1 0.145321 0.514749 0.923062
670 1 0.28372 0.771067 0.92967
664 1 0.203498 0.782882 0.8646
637 1 0.214827 0.43339 0.93553
639 1 0.283949 0.424002 0.855748
636 1 0.220715 0.508919 0.856655
642 1 0.289508 0.49166 0.930543
651 1 0.212952 0.577668 0.928283
449 1 -0.00710448 0.577402 0.565918
655 1 0.363138 0.574549 0.926937
640 1 0.350709 0.494368 0.863311
644 1 0.429664 0.498206 0.907654
668 1 0.342091 0.788882 0.862787
652 1 0.134204 0.637651 0.93063
646 1 0.0584163 0.63714 0.869357
647 1 0.0686527 0.56975 0.92949
649 1 0.140912 0.588737 0.860109
669 1 0.366733 0.723218 0.927692
665 1 0.205328 0.707516 0.931029
656 1 0.282931 0.654561 0.933503
650 1 0.207884 0.648338 0.853358
653 1 0.28042 0.577021 0.858585
654 1 0.35692 0.650671 0.860984
658 1 0.426968 0.644098 0.92982
657 1 0.431119 0.580599 0.856166
591 1 0.0744076 0.999672 0.935024
677 1 0.15026 0.857453 0.866824
675 1 0.0717372 0.869386 0.919672
663 1 0.142644 0.709836 0.86244
666 1 0.136991 0.783092 0.932549
660 1 0.0700095 0.785245 0.866738
1219 1 0.492891 0.497093 0.713529
80 1 0.358897 0.782444 1.00334
386 1 0.0643866 0.871755 0.491377
1094 1 0.506618 0.141448 0.638251
771 1 0.494579 0.927137 1.00484
1122 1 0.505915 0.441279 0.635589
346 1 0.200451 -0.00367889 0.504895
1205 1 0.493775 0.356689 0.708294
65 1 0.300568 0.561663 0.998244
30 1 0.0704729 0.351476 1.00743
372 1 0.0870542 0.575216 0.514376
66 1 0.36293 0.643802 0.999938
58 1 0.0621021 0.639204 1.00898
701 1 0.499938 0.209652 1.0112
357 1 0.427671 0.2055 0.497171
345 1 0.00969649 0.0709012 0.51272
729 1 0.492652 0.505382 1.00935
13 1 0.427546 0.99453 1.00215
19 1 0.147665 0.143327 1.0057
344 1 0.0739294 -0.00147597 0.502832
384 1 0.286145 0.79199 0.499635
352 1 0.00444352 0.217363 0.490968
361 1 0.145933 0.354569 0.497003
24 1 0.366552 0.209835 0.99452
15 1 0.00703204 0.134059 0.996985
362 1 0.364119 0.29052 0.499681
37 1 0.294656 0.288406 0.995637
743 1 0.48721 0.636815 0.99153
359 1 0.000647519 0.364644 0.511643
375 1 0.144739 0.646563 0.509428
356 1 0.279281 0.229884 0.506177
355 1 0.34192 0.135931 0.508739
368 1 0.157124 0.504653 0.493884
69 1 0.428439 0.568936 0.99734
378 1 0.432624 0.637678 0.508983
692 1 0.55916 0.0698139 0.0691433
788 1 0.653425 0.0780037 0.143688
691 1 0.642627 1.01948 0.0785433
801 1 0.577686 0.138055 0.148086
705 1 0.643857 0.132862 0.0746044
696 1 0.718251 0.0742494 0.0618073
792 1 0.780254 0.0732224 0.14291
805 1 0.704876 0.149718 0.140798
695 1 0.78844 1.00271 0.0790301
1033 1 0.784597 0.990169 0.514974
141 1 0.998084 0.424334 0.145189
700 1 0.85013 0.0729858 0.0820518
796 1 0.934885 0.0763531 0.125812
284 1 1.00433 0.932318 0.356669
795 1 0.854516 0.00376501 0.139205
270 1 0.996352 0.786257 0.358354
706 1 0.563889 0.216201 0.0831885
802 1 0.645322 0.213051 0.13344
719 1 0.648712 0.299098 0.0941871
815 1 0.556332 0.279942 0.153611
1016 1 0.500332 0.779195 0.433316
709 1 0.78455 0.144501 0.0716123
710 1 0.723756 0.218275 0.0700483
806 1 0.780579 0.213117 0.140916
723 1 0.788437 0.295714 0.0799937
819 1 0.721592 0.280145 0.149523
988 1 0.501188 0.195633 0.429906
713 1 0.928225 0.154558 0.0704931
809 1 0.866519 0.155725 0.154253
714 1 0.847334 0.211416 0.0723284
810 1 0.931366 0.211403 0.150165
102 1 1.00382 0.0732044 0.221324
986 1 0.868552 -0.0100692 0.422254
1038 1 0.630621 0.1467 0.506575
1035 1 0.92966 0.997567 0.506467
720 1 0.5655 0.356986 0.0798041
816 1 0.639763 0.364058 0.160036
717 1 0.565301 0.273224 0.00354634
829 1 0.550155 0.423064 0.139192
733 1 0.629882 0.432655 0.0802536
1055 1 0.715869 0.502382 0.488278
724 1 0.699213 0.365493 0.0706165
820 1 0.778851 0.361123 0.146534
833 1 0.714134 0.431713 0.148717
737 1 0.782789 0.416821 0.0768271
749 1 0.708869 0.568456 0.00398115
823 1 0.853795 0.286017 0.154423
727 1 0.946016 0.281874 0.0747988
728 1 0.881028 0.354475 0.0688185
824 1 0.942809 0.348306 0.142633
837 1 0.861418 0.424073 0.124429
897 1 0.489408 0.210844 0.295341
309 1 0.995358 0.306829 0.434665
183 1 1.00469 0.849239 0.133222
88 1 0.995877 0.927082 0.0690043
895 1 0.930094 0.995961 0.352849
734 1 0.545422 0.497739 0.0827335
747 1 0.634595 0.554642 0.0852311
843 1 0.563795 0.573825 0.155058
785 1 0.484743 0.0584402 0.141933
738 1 0.706839 0.478957 0.0524752
834 1 0.790133 0.490115 0.145618
758 1 0.496715 0.718243 0.0672703
1062 1 0.711627 0.648826 0.506685
702 1 0.490109 0.135542 0.0781475
980 1 0.853474 0.925607 0.360291
741 1 0.942804 0.433049 0.0637932
742 1 0.862078 0.497109 0.0743752
838 1 0.930462 0.483356 0.143593
968 1 0.493711 0.851955 0.363001
29 1 0.994813 0.288366 -0.0132008
718 1 0.642294 0.341232 -0.0011951
1029 1 0.94066 0.929756 0.428596
748 1 0.54896 0.644428 0.0633876
844 1 0.636746 0.650039 0.138423
761 1 0.615313 0.712357 0.0564778
751 1 0.772443 0.554236 0.082686
847 1 0.716749 0.559333 0.159163
752 1 0.703939 0.634123 0.0627977
848 1 0.777807 0.630357 0.133731
861 1 0.698458 0.7232 0.124825
113 1 1.01115 0.140921 0.147929
712 1 0.934427 0.207302 -0.00523311
745 1 0.563315 0.571624 -0.00360256
755 1 0.925329 0.567842 0.0791542
851 1 0.852915 0.567059 0.139539
756 1 0.848951 0.629491 0.0639901
852 1 0.9275 0.64502 0.131427
228 1 1.0088 0.361516 0.359176
200 1 0.997614 0.068064 0.354021
979 1 0.932114 0.867428 0.357307
857 1 0.562364 0.718836 0.135894
762 1 0.559811 0.783094 0.0710875
858 1 0.638732 0.787462 0.126943
730 1 0.483457 0.426778 0.071394
765 1 0.781227 0.70245 0.0660294
766 1 0.70401 0.791601 0.0646702
862 1 0.783357 0.794039 0.12807
891 1 0.789429 0.996421 0.349035
1040 1 0.773305 0.148038 0.490313
769 1 0.931552 0.71285 0.065029
865 1 0.846626 0.709539 0.136301
770 1 0.858832 0.767618 0.0706642
866 1 0.936843 0.788058 0.140315
879 1 0.855453 0.853715 0.133544
330 1 0.999081 0.715228 0.432838
856 1 0.496779 0.719252 0.209004
775 1 0.636123 0.862423 0.0710499
787 1 0.567577 1.00143 0.127042
871 1 0.564267 0.85441 0.126955
776 1 0.573333 0.925103 0.0599844
872 1 0.65178 0.928444 0.137496
984 1 0.71153 0.998179 0.43577
875 1 0.707615 0.861902 0.136214
779 1 0.787386 0.864164 0.0721748
791 1 0.725932 -0.0033811 0.155833
780 1 0.719463 0.937659 0.0634099
876 1 0.780323 0.923887 0.145252
699 1 0.93385 1.00503 0.0706543
783 1 0.92706 0.852183 0.0659682
784 1 0.853432 0.936006 0.071191
880 1 0.929788 0.91923 0.141591
281 1 1.00549 0.848129 0.289208
976 1 0.706861 0.92702 0.362051
790 1 0.581356 0.0708352 0.203638
886 1 0.653225 0.0717123 0.285084
803 1 0.645195 0.142536 0.207144
899 1 0.579298 0.13602 0.276584
794 1 0.720686 0.0865774 0.224954
890 1 0.799396 0.0599901 0.280441
807 1 0.803031 0.14434 0.223019
793 1 0.798371 0.994877 0.217106
798 1 0.859818 0.0670232 0.200273
894 1 0.914213 0.0630844 0.282335
893 1 0.867151 0.983589 0.280085
907 1 0.869197 0.143344 0.291213
811 1 0.936704 0.138527 0.217027
797 1 0.936459 -0.00891262 0.210115
804 1 0.574517 0.205887 0.216454
900 1 0.648125 0.200782 0.297408
817 1 0.64303 0.267669 0.215617
913 1 0.561563 0.273994 0.302029
903 1 0.735836 0.123771 0.313159
808 1 0.723701 0.189231 0.215799
904 1 0.784798 0.208164 0.302216
917 1 0.715715 0.283442 0.294909
821 1 0.794813 0.264881 0.223663
812 1 0.878943 0.217071 0.229398
908 1 0.932247 0.217893 0.307738
818 1 0.555219 0.33796 0.222809
914 1 0.639958 0.346831 0.283888
831 1 0.628679 0.432035 0.227355
927 1 0.571089 0.418706 0.291827
822 1 0.713691 0.334852 0.224449
918 1 0.795471 0.364213 0.294805
931 1 0.716263 0.41438 0.280676
825 1 0.935061 0.283192 0.221558
921 1 0.862548 0.283123 0.30378
826 1 0.862844 0.346711 0.218256
922 1 0.941339 0.362165 0.278538
935 1 0.866347 0.429854 0.288037
839 1 0.928779 0.426927 0.219788
1027 1 0.784861 0.926743 0.427901
830 1 0.635197 0.494057 0.153388
832 1 0.560904 0.489283 0.214018
928 1 0.630388 0.50914 0.280686
941 1 0.572901 0.58029 0.281028
835 1 0.794037 0.425942 0.218593
836 1 0.71653 0.489275 0.226629
932 1 0.791853 0.498154 0.278753
945 1 0.717765 0.575694 0.26178
840 1 0.863953 0.504838 0.214142
936 1 0.92681 0.499813 0.279976
845 1 0.642745 0.573055 0.197709
846 1 0.563754 0.650304 0.221172
942 1 0.639527 0.640127 0.277767
859 1 0.639914 0.723726 0.211748
955 1 0.562349 0.730456 0.282566
1051 1 0.488757 0.436283 0.488401
1048 1 0.711382 0.348561 0.495827
849 1 0.790821 0.567136 0.213609
850 1 0.715468 0.641249 0.198212
946 1 0.787378 0.643444 0.269784
158 1 1.00554 0.637568 0.205325
853 1 0.933233 0.560583 0.206312
949 1 0.84644 0.577953 0.28605
854 1 0.85592 0.653533 0.206862
950 1 0.930358 0.639917 0.27228
867 1 0.945112 0.713736 0.211718
707 1 0.712065 0.140998 0.00253261
982 1 0.567111 1.00425 0.428477
860 1 0.57206 0.790622 0.198669
956 1 0.650733 0.790035 0.279846
969 1 0.565335 0.849328 0.274196
873 1 0.646478 0.848224 0.214237
887 1 0.647253 0.993448 0.379177
959 1 0.72266 0.712844 0.268649
863 1 0.787918 0.729918 0.212755
864 1 0.721358 0.798174 0.20244
960 1 0.781301 0.78166 0.295147
366 1 1.02261 0.505935 0.508106
963 1 0.847131 0.710966 0.283195
868 1 0.855507 0.784128 0.217563
964 1 0.931026 0.779078 0.277156
977 1 0.864238 0.854735 0.292559
972 1 0.576873 0.925649 0.348432
885 1 0.585143 -0.00495307 0.277037