ITEM: TIMESTEP
1500
ITEM: NUMBER OF ATOMS
864
ITEM: BOX BOUNDS pp pp pp
-1.7584614957399136e+00 3.3318461495734361e+01
-1.7584614957399136e+00 3.3318461495734361e+01
-1.7584614957399136e+00 3.3318461495734361e+01
ITEM: ATOMS id type xs ys zs
586 1 0.474495 0.491934 0.296046
27 1 0.0839211 0.176404 0.217768
45 1 0.943397 0.214554 0.110724
281 1 0.697602 0.35079 0.442305
74 1 0.101938 0.0575412 0.232556
258 1 0.797385 0.311666 0.48861
77 1 0.139064 0.109216 0.150647
78 1 0.282108 0.0460687 0.0937119
212 1 0.636356 0.494539 0.472796
12 1 0.433846 0.0298877 0.0124539
8 1 0.178784 0.0282759 0.098743
82 1 0.44582 0.113678 0.179714
19 1 0.800381 0.0470405 0.0940949
20 1 0.718567 0.151796 0.109932
39 1 0.611068 0.174398 0.0522403
24 1 0.806553 0.142876 0.0624905
43 1 0.761128 0.259553 0.145358
113 1 0.663665 0.152665 0.23117
117 1 0.848267 0.202681 0.14437
95 1 0.0136101 0.0631316 0.337208
4 1 0.0487226 0.0552513 0.145827
47 1 0.948889 0.126577 0.156914
94 1 1.0025 0.0467934 0.232817
196 1 0.900737 0.439637 0.489813
46 1 0.0551448 0.15937 0.124646
32 1 0.138297 0.12583 0.053017
51 1 0.0721169 0.376527 0.146409
98 1 0.915997 0.199336 0.286808
125 1 0.141388 0.237357 0.268025
31 1 0.234831 0.125265 0.127574
55 1 0.241096 0.215002 0.0460276
447 1 0.685239 0.448899 0.124417
35 1 0.574308 0.223986 0.245302
36 1 0.358541 0.224587 0.0290309
59 1 0.377076 0.375108 0.0768197
106 1 0.401152 0.219961 0.159824
129 1 0.391343 0.417346 0.263336
439 1 0.251876 0.429614 0.0599563
81 1 0.388133 0.0424892 0.119428
40 1 0.468636 0.268204 0.0652888
63 1 0.571214 0.455818 0.0287908
110 1 0.628954 0.206935 0.153052
44 1 0.675244 0.254058 0.0675848
48 1 0.870443 0.297434 0.11335
137 1 0.707573 0.347237 0.189927
28 1 0.0935239 0.270842 0.175663
97 1 0.0243853 0.247653 0.282909
118 1 0.991052 0.214251 0.191189
122 1 0.0934486 0.446857 0.265456
368 1 0.229035 0.115181 0.0295767
525 1 0.909833 0.414204 0.106259
56 1 0.0669502 0.30845 0.0266983
69 1 0.959462 0.290781 0.037042
593 1 0.654794 0.416773 0.358294
576 1 0.776968 0.0401727 0.284186
456 1 0.872895 0.490503 0.169923
60 1 0.291102 0.400639 0.164263
130 1 0.397236 0.460727 0.166079
15 1 0.627717 0.100766 0.152896
38 1 0.57626 0.273859 0.0682431
64 1 0.459264 0.476933 0.0702028
85 1 0.532361 0.0530802 0.0926214
22 1 0.89417 0.0732147 0.0201567
253 1 0.547327 0.198636 0.421217
67 1 0.779102 0.347568 0.0971136
68 1 0.758166 0.45837 0.192505
52 1 0.0739382 0.442297 0.057957
71 1 0.984282 0.319997 0.135813
72 1 0.839753 0.331113 0.0146269
142 1 0.00578909 0.436887 0.186301
230 1 0.713535 0.149169 0.412141
194 1 0.03796 0.488399 0.350406
280 1 0.525916 0.290224 0.482652
76 1 0.111521 0.093895 0.325073
80 1 0.262251 0.0522907 0.205681
215 1 0.958336 0.239041 0.46421
267 1 0.0968594 0.285433 0.463528
88 1 0.480372 0.0758219 0.265386
107 1 0.465308 0.1965 0.243737
109 1 0.521295 0.163568 0.0952978
86 1 0.551088 0.131736 0.208124
111 1 0.583974 0.140281 0.303462
265 1 0.996327 0.415723 0.418707
90 1 0.727024 0.0648771 0.193754
92 1 0.695607 0.0953747 0.316151
96 1 0.834742 0.0966623 0.206602
591 1 0.550675 0.437925 0.336861
166 1 0.962309 0.0171251 0.466537
169 1 0.0562677 0.117535 0.416262
99 1 0.186315 0.131002 0.252993
104 1 0.261546 0.304469 0.244804
123 1 0.164285 0.374984 0.200242
173 1 0.255894 0.207586 0.257529
101 1 0.18589 0.200106 0.170954
102 1 0.340653 0.123781 0.201154
103 1 0.308551 0.175639 0.339174
174 1 0.306545 0.273048 0.338671
105 1 0.333351 0.153655 0.0987752
108 1 0.35256 0.2318 0.258452
131 1 0.461294 0.350809 0.151999
178 1 0.407578 0.244434 0.345206
182 1 0.527389 0.271427 0.31688
112 1 0.437428 0.303979 0.254288
133 1 0.50877 0.237821 0.164778
114 1 0.759245 0.286032 0.256497
115 1 0.766443 0.185985 0.213378
116 1 0.662633 0.286624 0.262364
139 1 0.828894 0.369316 0.290626
100 1 0.00446876 0.150711 0.286148
119 1 0.916195 0.0952512 0.286234
120 1 0.853026 0.270452 0.233077
121 1 0.0779318 0.331867 0.261194
141 1 0.94562 0.365102 0.227275
216 1 0.789227 0.439548 0.488049
364 1 0.0696204 0.0394486 0.0413657
124 1 0.138268 0.412025 0.401273
128 1 0.187228 0.353923 0.308865
53 1 0.130715 0.232485 0.0660333
57 1 0.366742 0.320283 0.174921
198 1 0.2979 0.3669 0.310038
126 1 0.207132 0.34354 0.114312
127 1 0.285581 0.235854 0.152816
644 1 0.663149 0.00190548 0.473177
132 1 0.25226 0.460562 0.262058
202 1 0.495708 0.451369 0.185918
210 1 0.778222 0.429212 0.360961
189 1 0.822177 0.237976 0.336712
509 1 0.0855174 0.498014 0.159808
134 1 0.593033 0.48883 0.14513
135 1 0.559502 0.313485 0.216137
136 1 0.571148 0.388619 0.156297
30 1 0.310094 0.300969 0.0793839
231 1 0.616972 0.112419 0.49552
138 1 0.839001 0.369616 0.188339
140 1 0.638844 0.410141 0.233802
214 1 0.842658 0.467767 0.260479
213 1 0.783021 0.328364 0.392483
143 1 0.999741 0.416912 0.291584
61 1 0.499771 0.362685 0.0537641
163 1 0.718769 0.0316891 0.389564
250 1 0.355435 0.17665 0.452102
146 1 0.206056 0.027254 0.287634
574 1 0.871773 0.014332 0.257604
234 1 0.875253 0.0922286 0.485965
152 1 0.214294 0.117403 0.359053
156 1 0.3257 0.0865594 0.396445
175 1 0.25938 0.149979 0.464983
65 1 0.630602 0.362443 0.0745388
79 1 0.294181 0.0698573 0.300482
154 1 0.384627 0.0208373 0.232366
160 1 0.495279 0.0307786 0.376503
427 1 0.718003 0.389571 0.0254796
153 1 0.40509 0.0104157 0.331214
183 1 0.602234 0.280843 0.397676
505 1 0.895305 0.446448 0.367493
164 1 0.646083 0.202818 0.357333
206 1 0.590317 0.343227 0.307649
172 1 0.92151 0.259799 0.372116
162 1 0.797209 0.135466 0.301075
168 1 0.856938 0.186997 0.444813
23 1 0.878985 0.0110819 0.143216
148 1 0.14716 0.0542142 0.423075
454 1 0.00851615 0.48331 0.00416145
18 1 0.694264 0.0828609 0.0263964
195 1 0.24747 0.34568 0.420255
170 1 0.0411643 0.224635 0.402363
171 1 0.146823 0.178127 0.402061
201 1 0.402994 0.346221 0.341539
203 1 0.344035 0.397787 0.40649
197 1 0.113132 0.265437 0.357306
199 1 0.235536 0.438161 0.371523
176 1 0.203992 0.236618 0.34693
180 1 0.367302 0.286945 0.430147
205 1 0.480719 0.385961 0.285029
177 1 0.390121 0.128595 0.290233
179 1 0.430698 0.107952 0.421931
181 1 0.472752 0.1733 0.343404
496 1 0.60114 6.43612e-05 0.189161
185 1 0.723983 0.194757 0.306455
184 1 0.449274 0.223274 0.440768
207 1 0.696294 0.300846 0.3574
208 1 0.500648 0.357251 0.392636
494 1 0.664544 0.016715 0.0981154
209 1 0.73261 0.402202 0.275296
188 1 0.678746 0.254335 0.500702
187 1 0.82447 0.10463 0.38827
186 1 0.755448 0.233574 0.406555
513 1 0.258281 0.502632 0.158457
273 1 0.36593 0.497819 0.493102
193 1 0.0311145 0.329298 0.378774
192 1 0.919317 0.343525 0.440227
191 1 0.982355 0.132432 0.49509
190 1 0.936467 0.353364 0.334635
66 1 0.795198 0.45503 0.0858572
42 1 0.788812 0.248545 0.0483283
237 1 0.905396 0.035581 0.368669
444 1 0.16509 0.49979 0.0285167
218 1 0.251969 0.0364726 0.424002
274 1 0.526983 0.489203 0.455626
232 1 0.515936 0.109057 0.456192
222 1 0.362595 0.0659622 0.492667
13 1 0.584572 0.0580779 0.00561485
455 1 0.990263 0.385749 0.0196281
587 1 0.440572 0.439872 0.378672
246 1 0.256088 0.260112 0.468951
165 1 0.933823 0.143254 0.3976
511 1 0.175894 0.446301 0.117554
25 1 0.975827 0.0942801 0.0670004
34 1 0.435235 0.127786 0.0511793
710 1 0.781738 0.0492307 0.487498
279 1 0.603162 0.383689 0.453323
159 1 0.609279 0.0740242 0.400869
84 1 0.499082 0.000703473 0.196252
158 1 0.605491 0.0322717 0.293737
244 1 0.0781574 0.401419 0.492195
241 1 0.0603061 0.19269 0.494328
41 1 0.716368 0.183173 0.0119937
407 1 1.00015 0.188574 0.0335136
245 1 0.16512 0.191556 0.500105
220 1 0.0458123 0.139988 0.568638
224 1 0.216648 0.120797 0.611499
739 1 0.680272 0.444424 0.839513
223 1 0.249267 0.0751881 0.52577
247 1 0.289904 0.184599 0.554973
37 1 0.453762 0.116319 0.885183
228 1 0.364764 0.0691552 0.631659
671 1 0.893476 0.492237 0.591064
303 1 0.658214 0.106495 0.759178
251 1 0.400488 0.198925 0.59827
236 1 0.802735 0.111022 0.59587
255 1 0.532095 0.283448 0.621562
257 1 0.605559 0.316656 0.550597
226 1 0.547369 0.022592 0.508546
302 1 0.610412 0.110304 0.606753
240 1 0.883408 0.190733 0.55155
805 1 0.499254 0.439447 0.828284
306 1 0.777106 0.0349063 0.717616
329 1 0.588078 0.215446 0.508269
412 1 0.0293268 0.341467 0.758099
310 1 0.928704 0.0964816 0.577908
243 1 0.108948 0.0941584 0.50918
292 1 0.0786278 0.00787748 0.731992
659 1 0.338922 0.471836 0.659982
314 1 0.158289 0.347932 0.539078
383 1 0.990242 0.0759517 0.960392
248 1 0.24792 0.305617 0.56682
317 1 0.229588 0.217127 0.70876
345 1 0.205325 0.396765 0.618738
252 1 0.35944 0.262747 0.520984
17 1 0.686172 0.0587805 0.88154
14 1 0.589232 0.0975743 0.916269
256 1 0.419782 0.323697 0.590421
260 1 0.743025 0.270122 0.57449
325 1 0.512839 0.190081 0.66565
326 1 0.668632 0.282099 0.652696
242 1 0.062707 0.28882 0.558297
5 1 0.136084 0.0370315 0.798516
283 1 0.701224 0.362862 0.561393
330 1 0.526037 0.456689 0.690582
333 1 0.871379 0.149445 0.650865
353 1 0.636726 0.418986 0.615665
263 1 0.984097 0.223324 0.557293
264 1 0.806751 0.230014 0.661778
268 1 0.106611 0.426568 0.589447
70 1 0.981653 0.344333 0.899054
341 1 0.180588 0.452898 0.504826
432 1 0.851311 0.353796 0.921516
58 1 0.436758 0.438486 0.983438
727 1 0.241329 0.484641 0.682365
297 1 0.344763 0.106158 0.759563
278 1 0.576858 0.422307 0.543441
426 1 0.823886 0.365567 0.787037
379 1 0.792742 0.103442 0.95834
275 1 0.481108 0.423012 0.530288
50 1 0.0649688 0.23529 0.948126
649 1 0.942057 0.43802 0.713945
29 1 0.141142 0.0672308 0.961116
227 1 0.435898 0.00348788 0.600366
233 1 0.696159 0.139435 0.543609
285 1 0.807649 0.431244 0.598087
729 1 0.283426 0.398599 0.731554
800 1 0.160686 0.411764 0.972569
62 1 0.584691 0.351921 0.989332
287 1 0.98921 0.354554 0.516732
288 1 0.813872 0.50083 0.695585
357 1 0.655281 0.358728 0.718373
358 1 0.861063 0.38056 0.688029
414 1 0.223013 0.437621 0.832661
290 1 0.197205 0.0165549 0.596262
362 1 0.165215 0.157825 0.757611
294 1 0.281283 0.180955 0.784136
296 1 0.174069 0.0716322 0.701212
799 1 0.29774 0.388573 0.893437
381 1 0.851771 0.0567336 0.848207
298 1 0.465268 0.133324 0.560985
300 1 0.35119 0.101833 0.861497
304 1 0.696848 0.191947 0.710548
321 1 0.313585 0.168559 0.667036
323 1 0.42951 0.135517 0.678563
9 1 0.255298 0.0222713 1.00349
327 1 0.704092 0.0772607 0.652146
401 1 0.619348 0.166529 0.832626
378 1 0.741572 0.0918396 0.812306
801 1 0.240884 0.470286 0.94622
33 1 0.329634 0.0831706 1.00053
286 1 0.924977 0.376624 0.612398
774 1 0.282796 0.0630555 0.688776
313 1 0.985387 0.149841 0.652563
335 1 0.969178 0.032652 0.65108
254 1 0.481217 0.239816 0.555217
315 1 0.101604 0.158396 0.667149
385 1 0.909027 0.101468 0.903386
389 1 0.11733 0.26696 0.739086
339 1 0.120303 0.34923 0.660341
318 1 0.329025 0.30816 0.734658
319 1 0.284459 0.179625 0.897235
320 1 0.143003 0.26293 0.634206
390 1 0.254698 0.281796 0.794441
322 1 0.33862 0.272842 0.633408
324 1 0.380894 0.212259 0.742631
417 1 0.330011 0.267362 0.853559
328 1 0.420005 0.276925 0.684761
397 1 0.528371 0.215561 0.882129
351 1 0.64203 0.273493 0.768779
421 1 0.532777 0.314144 0.83745
332 1 0.714104 0.23363 0.837866
402 1 0.815092 0.273051 0.820207
355 1 0.745663 0.294692 0.728146
316 1 0.916079 0.239431 0.627781
334 1 0.833431 0.307091 0.623586
336 1 0.800123 0.175533 0.742931
359 1 0.875471 0.275798 0.726666
301 1 0.475511 0.0402417 0.707434
338 1 0.051838 0.41893 0.69731
344 1 0.218528 0.319755 0.888198
813 1 0.780096 0.455723 0.861106
733 1 0.429986 0.463598 0.728297
342 1 0.171031 0.434167 0.748527
343 1 0.22839 0.321231 0.680899
346 1 0.320214 0.371513 0.623402
347 1 0.405723 0.378551 0.678696
348 1 0.426381 0.300199 0.787466
418 1 0.3992 0.372865 0.873599
349 1 0.564058 0.331257 0.70383
350 1 0.503182 0.377415 0.616762
352 1 0.474819 0.382485 0.754704
422 1 0.586628 0.40144 0.883413
262 1 0.887758 0.296093 0.529939
356 1 0.582529 0.402913 0.780925
425 1 0.73916 0.354534 0.841393
360 1 0.73411 0.410884 0.741942
337 1 0.0239315 0.360527 0.62043
340 1 0.958836 0.319613 0.679677
409 1 0.021307 0.214506 0.756369
430 1 0.933488 0.381485 0.800285
661 1 0.426902 0.457202 0.609255
809 1 0.732116 0.378748 0.932229
309 1 0.860399 0.0319162 0.635052
366 1 0.230271 0.0895472 0.793428
372 1 0.255255 0.0663791 0.902489
712 1 0.516054 0.0625696 0.620636
781 1 0.576257 0.063544 0.709448
282 1 0.717869 0.491931 0.532156
376 1 0.509008 0.0251585 0.944792
370 1 0.435645 0.0598601 0.806031
793 1 0.884117 0.443428 0.876398
361 1 0.954488 0.074562 0.816344
299 1 0.467073 0.152255 0.772066
380 1 0.686739 0.157343 0.913353
374 1 0.545576 0.0864835 0.795399
399 1 0.63552 0.225018 0.962488
261 1 0.745843 0.357509 0.650816
731 1 0.369755 0.393477 0.777475
732 1 0.346575 0.476743 0.882757
403 1 0.793764 0.168276 0.874421
807 1 0.653963 0.439849 0.966405
811 1 0.800457 0.432387 0.965975
433 1 0.0500504 0.408061 0.954409
428 1 0.711191 0.289044 0.97873
217 1 0.0497521 0.0088496 0.532257
411 1 0.0687257 0.290201 0.852249
743 1 0.867376 0.459124 0.778072
271 1 0.303341 0.36055 0.50025
423 1 0.511522 0.276219 0.963571
424 1 0.490203 0.369292 0.917477
387 1 0.0382419 0.0960622 0.749967
386 1 0.0475409 0.25804 0.651895
392 1 0.164631 0.200991 0.963758
737 1 0.623726 0.495548 0.757391
391 1 0.300981 0.278758 0.962147
415 1 0.136872 0.214009 0.83954
393 1 0.398057 0.193092 0.842785
438 1 0.258576 0.361887 0.985933
395 1 0.407215 0.0207595 0.908114
396 1 0.386018 0.1603 0.946117
394 1 0.514063 0.243493 0.767107
413 1 0.165597 0.345104 0.792867
404 1 0.804857 0.24902 0.939395
400 1 0.418461 0.277423 0.900617
398 1 0.629685 0.272992 0.878128
408 1 0.88867 0.189109 0.990464
405 1 0.865781 0.100897 0.754917
429 1 0.887823 0.165114 0.823349
410 1 0.974181 0.478307 0.824613
803 1 0.340348 0.415218 0.97916
431 1 0.950531 0.27454 0.807101
388 1 0.998379 0.163963 0.911684
794 1 0.109179 0.502422 0.800973
406 1 0.914296 0.181729 0.726701
797 1 0.136445 0.40237 0.866251
416 1 0.105469 0.331091 0.924994
716 1 0.664903 0.0393144 0.567605
815 1 0.90566 0.425834 1.00028
26 1 0.0758751 0.122127 0.838991
49 1 0.0655371 0.131017 0.990697
377 1 0.617734 0.0116739 0.816692
289 1 0.0807118 0.0519417 0.6245
580 1 0.0062703 0.454446 0.55731
371 1 0.328695 0.00640861 0.813516
16 1 0.514574 0.137816 0.999441
354 1 0.710951 0.493077 0.66253
725 1 0.117875 0.487878 0.677636
498 1 0.814711 0.00404374 0.948621
786 1 0.759432 0.0157633 0.588968
854 1 0.675239 0.00566185 0.726271
277 1 0.403389 0.371667 0.508439
54 1 0.186509 0.292976 0.997993
259 1 0.78058 0.191294 0.525778
419 1 0.411707 0.343183 0.984527
249 1 0.458262 0.991521 0.468764
489 1 0.292636 0.785756 0.0180417
521 1 0.672661 0.504837 0.232557
440 1 0.153529 0.659005 0.0334774
276 1 0.434928 0.565548 0.438132
510 1 0.178299 0.571705 0.115528
713 1 0.665266 0.881041 0.422632
457 1 0.0502142 0.653194 0.0179264
514 1 0.321877 0.726863 0.10794
537 1 0.263371 0.687896 0.0397649
458 1 0.969648 0.707869 0.021299
448 1 0.43767 0.711673 0.0972982
628 1 0.0245808 0.857961 0.369998
507 1 0.152071 0.504334 0.332878
11 1 0.501696 0.953649 0.0129017
157 1 0.489862 0.918592 0.404186
75 1 0.991077 0.882921 0.269036
681 1 0.337153 0.665822 0.387907
646 1 0.956313 0.972898 0.283297
436 1 0.995679 0.627287 0.108638
150 1 0.294653 0.969381 0.32792
599 1 0.0126618 0.50742 0.461574
519 1 0.617532 0.650691 0.203277
517 1 0.545333 0.578759 0.173448
714 1 0.811672 0.991379 0.362394
91 1 0.807454 0.971663 0.196316
653 1 0.0916003 0.615711 0.480631
693 1 0.835643 0.699753 0.461674
529 1 0.898453 0.591522 0.120887
530 1 0.0655001 0.702826 0.118179
463 1 0.259843 0.633658 0.127562
533 1 0.0807316 0.604789 0.166436
420 1 0.354644 0.505486 0.0820783
470 1 0.515826 0.74327 0.0373581
468 1 0.264361 0.78144 0.175547
718 1 0.868524 0.948618 0.438027
538 1 0.409839 0.6594 0.183444
541 1 0.492723 0.704198 0.297827
483 1 0.118283 0.88343 0.0263715
471 1 0.514669 0.644663 0.0698588
7 1 0.344195 0.989938 0.0231193
495 1 0.529822 0.85549 0.0623513
204 1 0.34321 0.571377 0.360609
475 1 0.664584 0.719 0.0627639
584 1 0.145057 0.701501 0.451484
480 1 0.899839 0.693115 0.115909
460 1 1.00001 0.794711 0.0612992
479 1 0.968935 0.580043 0.0140988
503 1 0.064303 0.913018 0.107279
550 1 0.988936 0.753154 0.162159
488 1 0.169557 0.908506 0.116387
554 1 0.0860433 0.808963 0.120238
87 1 0.593696 0.967551 0.388262
492 1 0.242772 0.894769 0.171245
526 1 0.973789 0.511953 0.10548
558 1 0.344494 0.953845 0.121133
161 1 0.697651 0.941943 0.336818
1 1 0.956392 0.890943 0.0725739
491 1 0.321746 0.870787 0.063883
89 1 0.701462 0.969689 0.210465
441 1 0.261215 0.545932 0.0559544
597 1 0.819197 0.526028 0.393462
449 1 0.747887 0.517904 0.0271304
566 1 0.620734 0.930799 0.121645
499 1 0.692297 0.852874 0.0794983
500 1 0.741671 0.958963 0.0815423
504 1 0.886245 0.792297 0.122752
557 1 0.211679 0.981759 0.181144
484 1 0.913606 0.924423 0.17976
573 1 0.832622 0.845486 0.19976
588 1 0.347298 0.509819 0.241651
643 1 0.766188 0.911961 0.27835
506 1 0.00427659 0.555024 0.204474
508 1 0.932107 0.682853 0.207406
578 1 0.154006 0.608205 0.407849
694 1 0.937199 0.739332 0.474122
155 1 0.336679 0.992538 0.425996
512 1 0.08632 0.583825 0.268387
535 1 0.25425 0.580812 0.218761
582 1 0.210965 0.699586 0.220754
516 1 0.161501 0.526368 0.221116
520 1 0.515481 0.703951 0.209409
581 1 0.249358 0.542241 0.327622
518 1 0.624001 0.602312 0.0996429
590 1 0.620866 0.505237 0.383941
617 1 0.553979 0.632126 0.329017
522 1 0.706547 0.654589 0.145819
524 1 0.635208 0.588034 0.292251
717 1 0.741904 0.94729 0.450583
594 1 0.690535 0.699982 0.350422
583 1 0.249955 0.612023 0.399407
702 1 0.359199 0.922747 0.491484
528 1 0.800348 0.576668 0.205678
598 1 0.821779 0.630566 0.38102
531 1 0.0731387 0.681092 0.364606
532 1 0.00339403 0.723573 0.291479
555 1 0.0978686 0.70705 0.235799
601 1 0.897593 0.68448 0.308033
602 1 0.974601 0.765614 0.384867
625 1 0.919473 0.845277 0.34632
534 1 0.165471 0.680509 0.137259
536 1 0.215932 0.903547 0.271262
539 1 0.339262 0.726683 0.215117
540 1 0.163762 0.802039 0.183037
544 1 0.380877 0.60085 0.272005
614 1 0.391364 0.708261 0.304775
542 1 0.493561 0.782333 0.12969
543 1 0.5837 0.699626 0.127751
569 1 0.600815 0.810786 0.147177
546 1 0.777642 0.779839 0.14375
547 1 0.85482 0.738974 0.235743
548 1 0.63238 0.75292 0.26371
571 1 0.673431 0.741074 0.175551
618 1 0.702636 0.806042 0.350079
549 1 0.806537 0.661235 0.158188
551 1 0.912639 0.581859 0.2249
552 1 0.75997 0.774341 0.237011
575 1 0.986961 0.856378 0.163469
621 1 0.704484 0.676536 0.246476
648 1 0.868617 0.909759 0.274107
626 1 0.107075 0.89051 0.326655
553 1 0.0505134 0.807935 0.238843
691 1 0.766347 0.77744 0.450729
560 1 0.283313 0.862551 0.335632
639 1 0.584085 0.737198 0.370438
635 1 0.477044 0.816186 0.468764
559 1 0.340049 0.85132 0.233753
564 1 0.407193 0.918084 0.211793
561 1 0.385039 0.833442 0.135024
563 1 0.358354 0.794967 0.328268
562 1 0.447297 0.91593 0.110209
568 1 0.487889 0.964216 0.292621
623 1 0.937339 0.635893 0.419339
477 1 0.805152 0.549574 0.110235
577 1 0.985192 0.602811 0.309166
565 1 0.427097 0.783523 0.234735
567 1 0.504473 0.884032 0.194895
572 1 0.739332 0.887121 0.165432
642 1 0.600877 0.910477 0.299686
167 1 0.961003 0.938251 0.376874
570 1 0.82024 0.84796 0.0544266
93 1 0.863057 0.952969 0.0563144
556 1 0.144 0.78618 0.300157
701 1 0.259254 0.907188 0.439083
595 1 0.639656 0.623028 0.393978
603 1 0.0224205 0.690091 0.461153
149 1 0.308225 0.940418 0.228484
147 1 0.190106 0.965935 0.382485
855 1 0.627091 0.807707 0.0181163
605 1 0.187602 0.62772 0.292113
523 1 0.751623 0.512914 0.294648
655 1 0.241977 0.686317 0.476029
657 1 0.309766 0.608772 0.504613
450 1 0.733867 0.61599 0.0568591
211 1 0.714594 0.515669 0.399682
585 1 0.342269 0.57711 0.167349
627 1 0.111788 0.9034 0.432299
592 1 0.503826 0.546421 0.366792
596 1 0.578834 0.584728 0.464653
638 1 0.573142 0.83576 0.425876
453 1 0.868656 0.520586 0.0434188
632 1 0.196221 0.845501 0.391987
634 1 0.367944 0.914586 0.331944
600 1 0.820528 0.571045 0.486023
686 1 0.577523 0.719627 0.479532
83 1 0.454545 0.866448 0.297255
633 1 0.266922 0.788966 0.272346
606 1 0.232802 0.727989 0.353953
608 1 0.0767704 0.78881 0.410176
629 1 0.113578 0.954481 0.19279
270 1 0.238413 0.526341 0.451797
613 1 0.484792 0.583776 0.257245
239 1 0.0660424 0.997804 0.386905
637 1 0.48479 0.784868 0.362705
616 1 0.407814 0.728573 0.415711
700 1 0.873373 0.813505 0.433727
609 1 0.298253 0.670827 0.296238
610 1 0.453679 0.632601 0.356008
630 1 0.291882 0.768596 0.436375
641 1 0.678239 0.854254 0.256923
446 1 0.441959 0.568102 0.0274044
640 1 0.568039 0.925398 0.490387
443 1 0.336192 0.622511 0.0589868
645 1 0.775723 0.874174 0.376032
624 1 0.737837 0.608512 0.336573
620 1 0.540094 0.802672 0.257937
636 1 0.387196 0.832558 0.413839
647 1 0.830115 0.811049 0.310142
622 1 0.937975 0.808278 0.239303
669 1 0.910616 0.537968 0.435632
604 1 0.799702 0.669067 0.276551
545 1 0.603333 0.65886 0.0105119
515 1 0.445105 0.551468 0.14847
719 1 0.787026 0.727664 0.351819
579 1 0.0270482 0.595707 0.406703
487 1 0.194149 0.81548 0.0866731
2 1 0.959539 0.992321 0.0801881
10 1 0.411997 0.905249 0.00740549
451 1 0.70553 0.544363 0.133688
73 1 0.00851864 0.951881 0.190353
474 1 0.794821 0.715392 0.0700472
435 1 0.0695171 0.550413 0.0637456
527 1 0.882804 0.568605 0.319882
770 1 0.965595 0.865257 0.459747
478 1 0.843143 0.631064 0.0415013
481 1 0.907613 0.80756 0.00561238
145 1 0.0592747 0.97556 0.29236
589 1 0.572525 0.505918 0.252362
615 1 0.491797 0.647998 0.483079
269 1 0.116819 0.513037 0.432447
6 1 0.25261 0.940871 0.0710378
144 1 0.949198 0.499283 0.273385
696 1 0.797733 0.862342 0.484804
221 1 0.159454 0.974501 0.493952
467 1 0.428987 0.689073 0.00214895
502 1 0.743968 0.901136 0.000469533
472 1 0.419339 0.795396 0.0388653
3 1 0.179247 0.968179 0.983984
745 1 0.0430265 0.726667 0.645918
656 1 0.193932 0.507787 0.593894
660 1 0.357399 0.570153 0.701369
679 1 0.206103 0.601847 0.528577
842 1 0.976999 0.991248 0.884991
753 1 0.376899 0.663834 0.677216
651 1 0.0243057 0.523647 0.719381
664 1 0.451507 0.536643 0.658621
611 1 0.431313 0.684139 0.577826
683 1 0.582142 0.674983 0.665237
757 1 0.41067 0.692558 0.881539
668 1 0.686713 0.689071 0.649722
685 1 0.486674 0.637453 0.674206
687 1 0.626542 0.620685 0.572892
761 1 0.760096 0.761053 0.556222
284 1 0.613768 0.520769 0.570546
738 1 0.649039 0.594086 0.687671
662 1 0.52043 0.610992 0.590303
858 1 0.776117 0.903637 0.888217
740 1 0.589405 0.507357 0.869924
652 1 0.988487 0.555579 0.599796
672 1 0.84645 0.599095 0.639368
742 1 0.889656 0.681695 0.690087
650 1 0.000392327 0.601247 0.509907
665 1 0.715039 0.58057 0.49912
461 1 0.121533 0.620834 0.94132
675 1 0.135733 0.66037 0.571333
699 1 0.064827 0.824117 0.640705
365 1 0.111987 0.933361 0.796713
680 1 0.1529 0.751612 0.61662
703 1 0.170466 0.865353 0.503252
266 1 0.0863424 0.586512 0.638605
219 1 0.039759 0.946613 0.623893
684 1 0.326201 0.615426 0.607801
707 1 0.340475 0.897704 0.609701
688 1 0.501293 0.844359 0.631469
711 1 0.679268 0.880702 0.636251
692 1 0.514481 0.747747 0.592977
758 1 0.612948 0.794198 0.672761
612 1 0.398756 0.824175 0.541733
225 1 0.24339 0.929992 0.566234
715 1 0.694554 0.820688 0.518339
151 1 0.319443 0.993094 0.547468
762 1 0.67043 0.665072 0.758517
765 1 0.795252 0.706638 0.660015
789 1 0.706309 0.785044 0.653837
676 1 0.94072 0.757738 0.640535
695 1 0.872879 0.682705 0.589381
293 1 0.178214 0.971851 0.697812
766 1 0.745244 0.741142 0.75007
311 1 0.943691 0.969206 0.794588
860 1 0.672971 0.912086 0.827598
689 1 0.635715 0.745206 0.583663
469 1 0.466999 0.767758 0.932484
704 1 0.0523265 0.898167 0.531097
21 1 0.852866 0.897528 0.964855
291 1 0.979346 0.932708 0.704287
434 1 0.165252 0.528621 0.890914
864 1 0.856779 0.811878 0.919695
708 1 0.217685 0.847488 0.623651
445 1 0.5322 0.585979 0.962545
778 1 0.361593 0.986525 0.685235
667 1 0.717471 0.586309 0.606784
462 1 0.373016 0.746188 0.948815
272 1 0.297322 0.527247 0.577561
485 1 0.267668 0.795854 0.911208
663 1 0.510551 0.505144 0.587567
464 1 0.184023 0.777174 0.988357
331 1 0.751803 0.9893 0.815336
720 1 0.884971 0.888298 0.531842
473 1 0.645409 0.749002 0.934122
654 1 0.20687 0.592188 0.645375
722 1 0.989125 0.603866 0.800565
724 1 0.800074 0.661187 0.796104
728 1 0.18327 0.552057 0.737571
307 1 0.7523 0.932275 0.690773
375 1 0.620316 0.993006 0.914453
437 1 0.0917231 0.531212 0.96537
749 1 0.0839805 0.599108 0.746371
751 1 0.264393 0.613609 0.756714
698 1 0.970972 0.842496 0.611747
706 1 0.478754 0.909842 0.510231
730 1 0.415006 0.514751 0.824418
736 1 0.450554 0.606246 0.764539
734 1 0.557889 0.555862 0.678865
759 1 0.461308 0.731871 0.695171
726 1 0.309059 0.51488 0.77303
490 1 0.493386 0.99217 0.855068
763 1 0.605745 0.58794 0.796497
833 1 0.530641 0.678376 0.771003
369 1 0.408399 0.905815 0.894196
782 1 0.589188 0.897465 0.611037
709 1 0.570444 0.820495 0.549654
486 1 0.177171 0.891211 0.895518
744 1 0.715532 0.560884 0.816705
814 1 0.818521 0.648385 0.889729
767 1 0.00133382 0.628795 0.707755
859 1 0.675216 0.868291 0.924784
746 1 0.990987 0.82897 0.733226
747 1 0.912545 0.651858 0.843325
748 1 0.877086 0.756338 0.756788
771 1 0.0630186 0.819984 0.835833
817 1 0.980103 0.692039 0.772622
818 1 0.0949376 0.694448 0.803024
750 1 0.283754 0.6742 0.682486
752 1 0.0888595 0.770184 0.724414
773 1 0.098753 0.901507 0.706281
775 1 0.13733 0.919273 0.616011
845 1 0.167694 0.811778 0.837537
756 1 0.339314 0.729337 0.752113
777 1 0.268055 0.90719 0.676904
754 1 0.404474 0.791104 0.63562
755 1 0.353737 0.621503 0.821232
760 1 0.5069 0.889871 0.757948
764 1 0.557318 0.804145 0.748099
785 1 0.778786 0.88707 0.591852
834 1 0.71698 0.643217 0.87241
768 1 0.754073 0.615005 0.693228
861 1 0.882984 0.866374 0.71774
837 1 0.709339 0.514587 0.923266
838 1 0.850507 0.73729 0.852866
200 1 0.101767 0.515971 0.544707
373 1 0.54162 0.987037 0.762706
776 1 0.202129 0.869458 0.747338
658 1 0.420936 0.549797 0.54893
238 1 0.965098 0.944094 0.551485
846 1 0.278333 0.891675 0.85852
848 1 0.113004 0.82412 0.917259
779 1 0.414111 0.804722 0.753841
442 1 0.33974 0.544898 0.972799
853 1 0.427914 0.887064 0.688513
780 1 0.338874 0.87875 0.773265
784 1 0.504251 0.950067 0.666455
705 1 0.31901 0.820187 0.686187
619 1 0.7824 0.65009 0.544023
783 1 0.607355 0.917349 0.744084
857 1 0.682813 0.844024 0.73608
384 1 0.917703 0.991856 0.967552
788 1 0.780291 0.823378 0.715259
229 1 0.706633 0.945034 0.539306
787 1 0.785457 0.800866 0.828048
856 1 0.632712 0.804999 0.815744
769 1 0.856315 0.789129 0.545233
791 1 0.840347 0.810822 0.638846
772 1 0.998966 0.896642 0.807847
790 1 0.898948 0.924231 0.625946
792 1 0.882667 0.861382 0.812446
862 1 0.940024 0.883896 0.909303
678 1 0.362208 0.72575 0.508163
847 1 0.22755 0.678847 0.91314
819 1 0.0849123 0.592026 0.854922
808 1 0.482822 0.505351 0.914752
850 1 0.421874 0.943348 0.795161
798 1 0.268348 0.544836 0.860188
821 1 0.140104 0.676869 0.698644
825 1 0.207141 0.716296 0.805152
308 1 0.779244 0.903098 0.781899
631 1 0.294666 0.84508 0.523514
804 1 0.328996 0.649041 0.953845
802 1 0.424641 0.576857 0.916344
827 1 0.306427 0.706996 0.849979
863 1 0.939621 0.71437 0.920231
363 1 0.127352 0.982923 0.888478
806 1 0.519655 0.619528 0.863238
831 1 0.609231 0.700418 0.82565
844 1 0.0503792 0.916342 0.893906
812 1 0.538839 0.687679 0.939646
816 1 0.918734 0.512125 0.959319
835 1 0.70918 0.661633 0.971303
810 1 0.63227 0.609932 0.906891
840 1 0.794836 0.568925 0.954412
839 1 0.902024 0.630313 0.956718
796 1 0.00485619 0.634567 0.917208
735 1 0.514044 0.535565 0.795701
723 1 0.879738 0.554031 0.873029
820 1 0.0343302 0.726009 0.877063
841 1 0.958287 0.792615 0.847165
836 1 0.703718 0.743584 0.844126
824 1 0.12912 0.72189 0.906165
823 1 0.176396 0.61706 0.820901
822 1 0.235557 0.758783 0.71232
849 1 0.28613 0.799094 0.803848
828 1 0.392969 0.792337 0.85585
851 1 0.492038 0.871022 0.951482
826 1 0.480243 0.856717 0.843174
829 1 0.484863 0.758262 0.818505
843 1 0.00720784 0.831894 0.965885
832 1 0.581052 0.839137 0.920708
830 1 0.568562 0.919967 0.846718
501 1 0.827676 0.72249 0.97404
670 1 0.914559 0.589258 0.546622
674 1 0.110414 0.788097 0.513855
497 1 0.709879 0.990412 0.955151
677 1 0.246785 0.681295 0.583292
466 1 0.335167 0.856521 0.949798
666 1 0.802178 0.529088 0.582537
682 1 0.330408 0.729163 0.608334
305 1 0.600454 0.985488 0.65269
721 1 0.921059 0.550575 0.710248
465 1 0.248022 0.582675 0.961545
476 1 0.743528 0.787739 0.980265
673 1 0.978089 0.655976 0.599447
235 1 0.864053 0.990923 0.545827
741 1 0.820381 0.54343 0.790657
312 1 0.85153 0.971026 0.731574
367 1 0.304061 0.974844 0.917838
795 1 0.0121937 0.534728 0.912899
697 1 0.00528096 0.765457 0.553051
295 1 0.229461 0.983462 0.819686
382 1 0.862994 0.955247 0.852756
452 1 0.639624 0.560661 0.994241
459 1 0.0686201 0.751243 0.994465
607 1 0.214783 0.777858 0.519166
852 1 0.214275 0.870642 0.993074
690 1 0.694981 0.704957 0.508606
493 1 0.585969 0.904938 0.996345
482 1 0.0341582 0.929694 0.995049
