ITEM: TIMESTEP
27000
ITEM: NUMBER OF ATOMS
4000
ITEM: BOX BOUNDS pp pp pp
0.0000000000000000e+00 5.2599999999999994e+01
0.0000000000000000e+00 5.2599999999999994e+01
0.0000000000000000e+00 5.2599999999999994e+01
ITEM: ATOMS id type xs ys zs
4 1 0.00532462 0.0398366 0.0643941
1 1 0.00597249 0.00111188 0.0100505
43 1 0.0497106 0.0921724 0.0579093
2 1 0.0544514 0.0453333 0.00527823
241 1 0.000211948 0.0995324 0.0968465
41 1 0.00018205 0.0944763 0.0066609
45 1 0.0948419 0.098704 0.00733772
8 1 0.102523 0.0421052 0.0485771
12 1 0.197977 0.0509517 0.0517651
206 1 0.14414 0.0465751 0.0989336
6 1 0.144075 0.0571234 0.00398733
16 1 0.299415 0.0454743 0.0490353
11 1 0.247786 0.000119469 0.0605486
10 1 0.249197 0.0449576 0.0148439
20 1 0.397799 0.057574 0.0515055
214 1 0.343906 0.0481055 0.0983609
257 1 0.399538 0.0941329 0.098666
53 1 0.301099 0.0988628 0.00205301
17 1 0.396472 0.0100088 0.00260643
24 1 0.490678 0.042465 0.0467883
59 1 0.448926 0.093668 0.0519535
19 1 0.431143 0.000587185 0.0558958
63 1 0.539393 0.0906068 0.0493384
222 1 0.549017 0.0467143 0.0998797
65 1 0.596533 0.0889779 0.0012497
23 1 0.550549 0.00589344 0.0444608
225 1 0.591457 0.000271013 0.099081
28 1 0.601263 0.0477874 0.0528947
67 1 0.650113 0.091316 0.0386797
226 1 0.651792 0.047631 0.0934688
26 1 0.647252 0.0414663 0.00151176
32 1 0.702778 0.0530145 0.0469874
36 1 0.797945 0.0412584 0.048447
71 1 0.757923 0.0888688 0.0501102
75 1 0.834729 0.0905388 0.0460275
40 1 0.896475 0.0410804 0.0513365
234 1 0.846683 0.0487451 0.092495
77 1 0.89518 0.0896407 0.00208026
34 1 0.850851 0.0396483 0.00834689
79 1 0.951217 0.0854709 0.0574148
38 1 0.946444 0.0462431 0.00900744
44 1 0.00846185 0.149919 0.0501161
249 1 0.199259 0.103368 0.0996137
48 1 0.101768 0.149439 0.0458778
47 1 0.150365 0.101354 0.0578158
52 1 0.198496 0.150515 0.0503264
87 1 0.150647 0.196215 0.063331
49 1 0.19353 0.103479 0.00759261
51 1 0.261798 0.102812 0.0557725
250 1 0.261257 0.152576 0.0929512
91 1 0.250627 0.196864 0.0509917
50 1 0.245461 0.153217 0.00413874
55 1 0.34597 0.100317 0.055474
56 1 0.304602 0.155278 0.0404492
95 1 0.360151 0.195165 0.0507528
254 1 0.347072 0.145934 0.0976614
60 1 0.399865 0.141327 0.0510845
57 1 0.396516 0.106969 0.000254619
64 1 0.49397 0.142658 0.0545951
99 1 0.459901 0.19479 0.0488125
297 1 0.402077 0.196525 0.0983149
101 1 0.495952 0.199835 0.00183149
97 1 0.406478 0.193156 0.00410808
105 1 0.594794 0.197113 0.0107426
103 1 0.545002 0.19669 0.0552904
68 1 0.595254 0.139823 0.0557926
62 1 0.544415 0.142664 0.00808612
266 1 0.656608 0.137339 0.0985176
72 1 0.699951 0.146361 0.0469972
107 1 0.653407 0.195782 0.038935
66 1 0.656292 0.138076 0.0014768
270 1 0.749956 0.146288 0.0984025
76 1 0.799217 0.145217 0.0465834
309 1 0.705809 0.190957 0.0992537
111 1 0.758861 0.198992 0.0507064
115 1 0.855796 0.193797 0.051012
274 1 0.844132 0.144704 0.0991359
80 1 0.910199 0.139914 0.0471081
278 1 0.950146 0.145976 0.0983276
81 1 0.984351 0.198015 0.00854485
83 1 0.0556835 0.200178 0.0467694
123 1 0.0526999 0.293547 0.0514797
84 1 0.00866744 0.244663 0.0427923
88 1 0.104 0.250649 0.0470152
286 1 0.152268 0.251744 0.0987216
89 1 0.199961 0.20718 0.00681402
289 1 0.20478 0.202754 0.0977482
92 1 0.200367 0.255276 0.0498408
131 1 0.247601 0.299631 0.0608402
290 1 0.255026 0.246243 0.0936107
90 1 0.246383 0.251545 0.00126114
96 1 0.305462 0.246073 0.0487919
135 1 0.351503 0.298593 0.0484191
294 1 0.353462 0.244931 0.0970562
333 1 0.304145 0.297661 0.0995395
100 1 0.406822 0.244414 0.0467724
337 1 0.402848 0.295363 0.0947383
298 1 0.449825 0.247652 0.0979167
98 1 0.45101 0.251617 0.000396837
104 1 0.504964 0.249115 0.0540534
143 1 0.555748 0.297545 0.052869
102 1 0.551706 0.255449 0.00928035
108 1 0.603721 0.246777 0.0545705
306 1 0.664541 0.237612 0.0886974
147 1 0.652741 0.296262 0.0554576
149 1 0.697467 0.293103 0.00433547
112 1 0.714182 0.239254 0.0479858
349 1 0.70881 0.298052 0.0971587
151 1 0.753977 0.295785 0.0430949
116 1 0.806031 0.244386 0.0501399
120 1 0.895995 0.255359 0.0398786
314 1 0.849618 0.24968 0.0952395
357 1 0.895429 0.299878 0.0955879
113 1 0.806673 0.200877 0.00479171
119 1 0.941544 0.209357 0.0528521
318 1 0.955545 0.257634 0.0891229
365 1 0.0948148 0.392062 0.0971218
122 1 0.0503206 0.342071 0.00604397
126 1 0.150802 0.350868 0.00821061
127 1 0.151143 0.300257 0.0433069
128 1 0.102777 0.347007 0.0528487
329 1 0.195307 0.31 0.0939221
326 1 0.142613 0.355895 0.0969603
165 1 0.103996 0.399964 0.010411
132 1 0.201728 0.352668 0.0477421
136 1 0.293572 0.349854 0.0524152
330 1 0.246945 0.359858 0.0937495
130 1 0.254428 0.349698 0.0050746
175 1 0.348848 0.397756 0.0442073
334 1 0.350081 0.346638 0.0903458
133 1 0.304365 0.301296 0.00439473
134 1 0.360618 0.346535 0.00685323
177 1 0.39804 0.399998 0.00415707
140 1 0.40936 0.350958 0.050843
377 1 0.404909 0.390486 0.0975636
139 1 0.45657 0.301441 0.052234
179 1 0.45644 0.397423 0.0400334
338 1 0.45935 0.352074 0.0957136
144 1 0.506061 0.350294 0.0467378
148 1 0.596709 0.345793 0.0536216
183 1 0.553268 0.399484 0.0457307
185 1 0.610375 0.398237 0.00711417
187 1 0.662267 0.399219 0.0542303
346 1 0.658733 0.353529 0.097119
146 1 0.651354 0.338287 0.00359631
145 1 0.60094 0.302146 0.00324032
152 1 0.7049 0.344498 0.0412415
191 1 0.749969 0.393629 0.0458976
350 1 0.746378 0.352717 0.0971473
156 1 0.798416 0.34944 0.0514097
155 1 0.8465 0.300805 0.0449931
354 1 0.851828 0.351657 0.0932919
353 1 0.800593 0.300362 0.0955884
397 1 0.896556 0.398309 0.0988957
154 1 0.847811 0.350159 0.00302755
124 1 0.996291 0.348632 0.0520862
160 1 0.903272 0.358178 0.0479444
159 1 0.940061 0.300852 0.0421493
358 1 0.950808 0.346484 0.0968474
197 1 0.905343 0.397232 0.000277255
163 1 0.0500693 0.403602 0.0535774
164 1 0.00123328 0.459704 0.044502
361 1 0.00470274 0.406997 0.098497
362 1 0.0481963 0.460612 0.0953743
162 1 0.0428373 0.439036 0.0024294
167 1 0.157684 0.403453 0.0567892
168 1 0.103376 0.446186 0.0528198
169 1 0.194407 0.408085 0.00273338
171 1 0.25894 0.414537 0.043039
172 1 0.205196 0.459974 0.0450365
370 1 0.252069 0.455818 0.0941938
2213 1 0.302142 0.499528 0.092472
176 1 0.310622 0.454935 0.046327
373 1 0.303736 0.409608 0.0973766
374 1 0.360358 0.44362 0.0929939
180 1 0.40324 0.446194 0.0460635
184 1 0.499016 0.453974 0.0493803
378 1 0.446453 0.446172 0.0945651
182 1 0.553046 0.448353 0.00189216
188 1 0.599439 0.447179 0.0542462
382 1 0.545328 0.454748 0.0958833
2027 1 0.655134 0.497562 0.0459706
386 1 0.653327 0.453323 0.0962158
2031 1 0.756431 0.492219 0.0452497
389 1 0.710051 0.40667 0.0963639
192 1 0.710922 0.446069 0.0435306
393 1 0.798944 0.40554 0.0955196
196 1 0.805679 0.452933 0.052696
195 1 0.858602 0.401733 0.0434951
200 1 0.89126 0.453415 0.0495348
394 1 0.846833 0.448908 0.0992527
2033 1 0.805179 0.494479 0.00171798
199 1 0.942853 0.409967 0.0516264
398 1 0.944951 0.45971 0.0894967
161 1 0.98434 0.40057 0.00521369
203 1 0.0532776 0.00189035 0.148716
202 1 0.0574621 0.0440479 0.100176
243 1 0.0536968 0.0891883 0.146071
204 1 0.00129002 0.0500918 0.153025
208 1 0.104983 0.0488865 0.149229
406 1 0.148905 0.0523607 0.194027
247 1 0.156204 0.0934349 0.145358
409 1 0.19754 0.00323695 0.194917
209 1 0.192654 0.00563817 0.102547
211 1 0.249663 0.00026507 0.151545
413 1 0.293972 0.00382129 0.199356
212 1 0.20278 0.0512908 0.145229
210 1 0.255028 0.0483448 0.102013
410 1 0.249516 0.0521507 0.196262
213 1 0.295318 0.0021023 0.103893
217 1 0.393705 0.000796203 0.110638
216 1 0.306366 0.0478324 0.150464
255 1 0.354843 0.091332 0.147603
453 1 0.307995 0.0972689 0.190893
215 1 0.350677 0.00310572 0.155723
218 1 0.456704 0.048668 0.100853
261 1 0.497744 0.0993109 0.101223
220 1 0.402273 0.0527992 0.150164
259 1 0.453468 0.0975551 0.151205
418 1 0.45609 0.0508422 0.198667
219 1 0.446007 0.00471348 0.152543
224 1 0.503891 0.0416242 0.151885
228 1 0.597091 0.0423838 0.147325
263 1 0.545588 0.0923789 0.150981
422 1 0.556095 0.0532497 0.199401
265 1 0.604632 0.0905121 0.10708
267 1 0.653053 0.0977538 0.153352
273 1 0.796212 0.0897299 0.106764
232 1 0.701352 0.04608 0.151363
230 1 0.748682 0.0507998 0.106535
271 1 0.745584 0.0961554 0.150823
473 1 0.791758 0.0846084 0.195125
231 1 0.74751 0.00197342 0.155328
236 1 0.80016 0.0381672 0.14868
275 1 0.854598 0.0883093 0.150696
434 1 0.850335 0.0401908 0.19641
277 1 0.908809 0.0955268 0.105816
238 1 0.95792 0.0445629 0.107933
240 1 0.905599 0.0349899 0.151631
279 1 0.957771 0.092796 0.150588
477 1 0.911843 0.0866059 0.192379
242 1 0.0508362 0.149781 0.102049
248 1 0.0970464 0.143741 0.156746
244 1 0.000483125 0.136092 0.159191
442 1 0.0513884 0.147396 0.196567
481 1 0.000606755 0.197635 0.196663
245 1 0.1042 0.100919 0.100044
246 1 0.146005 0.15452 0.110904
252 1 0.19998 0.154469 0.147345
449 1 0.198095 0.102478 0.194755
287 1 0.148865 0.196393 0.150249
253 1 0.297297 0.103266 0.109331
251 1 0.250647 0.102601 0.146604
291 1 0.248319 0.198599 0.147821
450 1 0.249412 0.148214 0.198833
293 1 0.308989 0.195766 0.104698
256 1 0.302969 0.152054 0.149313
260 1 0.389241 0.143437 0.141033
295 1 0.349114 0.197413 0.15448
454 1 0.349997 0.151928 0.197736
493 1 0.301311 0.196863 0.195288
258 1 0.444212 0.146122 0.104922
457 1 0.403366 0.107339 0.194447
264 1 0.499714 0.143108 0.154574
299 1 0.446661 0.191598 0.154637
301 1 0.49624 0.186984 0.1002
262 1 0.54935 0.145062 0.10466
462 1 0.557693 0.132733 0.199639
303 1 0.550427 0.191039 0.154855
305 1 0.607707 0.19453 0.100372
268 1 0.606109 0.148588 0.150249
272 1 0.690255 0.149063 0.151809
509 1 0.691469 0.190916 0.198522
269 1 0.708056 0.100611 0.102985
470 1 0.744847 0.135302 0.198233
311 1 0.754284 0.19238 0.147515
317 1 0.899083 0.188886 0.106632
313 1 0.80264 0.197504 0.103168
276 1 0.800001 0.143551 0.156356
474 1 0.854161 0.140539 0.199062
315 1 0.84891 0.190238 0.149209
517 1 0.898446 0.198738 0.19916
280 1 0.905693 0.141243 0.151459
281 1 0.998595 0.194235 0.105553
319 1 0.948818 0.191783 0.146826
282 1 0.0493911 0.244251 0.10764
321 1 0.00631276 0.29687 0.103994
283 1 0.0548991 0.200299 0.156686
323 1 0.0441153 0.290455 0.160119
482 1 0.0568816 0.24722 0.199908
285 1 0.101301 0.203471 0.102286
325 1 0.106709 0.295706 0.103673
288 1 0.110253 0.253178 0.149608
292 1 0.196515 0.241997 0.143631
486 1 0.152265 0.251544 0.199639
296 1 0.301132 0.246948 0.145927
537 1 0.397784 0.29392 0.198514
300 1 0.400519 0.244671 0.149448
304 1 0.492967 0.246861 0.148273
541 1 0.499796 0.294894 0.191112
302 1 0.539658 0.240513 0.108912
502 1 0.544137 0.245873 0.199231
308 1 0.589771 0.23867 0.151936
345 1 0.606976 0.297187 0.105162
307 1 0.649931 0.200892 0.144566
506 1 0.645574 0.2413 0.198019
310 1 0.745866 0.247776 0.103099
312 1 0.707113 0.235264 0.149859
510 1 0.747116 0.255152 0.196615
553 1 0.797501 0.298954 0.19871
316 1 0.801463 0.248395 0.150427
320 1 0.898059 0.247715 0.143923
355 1 0.849728 0.297717 0.140335
514 1 0.853224 0.246812 0.197885
284 1 0.985337 0.248407 0.149687
518 1 0.944203 0.251058 0.196701
359 1 0.951838 0.299004 0.142061
557 1 0.90305 0.299833 0.192507
322 1 0.0556706 0.3393 0.111363
522 1 0.0466864 0.349075 0.195112
327 1 0.145999 0.304127 0.156209
328 1 0.100175 0.355022 0.148964
332 1 0.193808 0.356853 0.138578
331 1 0.241628 0.308584 0.149275
371 1 0.255087 0.396059 0.153186
533 1 0.29847 0.306533 0.186525
335 1 0.352114 0.301177 0.151322
336 1 0.312322 0.351131 0.145071
340 1 0.400167 0.347199 0.14892
339 1 0.44421 0.300386 0.147492
379 1 0.449089 0.398685 0.145125
341 1 0.503623 0.301284 0.105829
342 1 0.551938 0.359458 0.103367
343 1 0.554719 0.302496 0.147562
344 1 0.500061 0.35648 0.145708
542 1 0.568741 0.35303 0.195528
348 1 0.60647 0.350844 0.13923
545 1 0.608069 0.30631 0.187627
347 1 0.667469 0.303775 0.147277
546 1 0.648732 0.353775 0.194638
352 1 0.704801 0.358294 0.150992
351 1 0.74844 0.300622 0.143411
550 1 0.753549 0.351393 0.196059
356 1 0.800675 0.34902 0.139481
360 1 0.889309 0.347179 0.143587
395 1 0.849738 0.398691 0.149069
554 1 0.847189 0.34994 0.190014
324 1 0.996772 0.350711 0.141614
558 1 0.94868 0.34993 0.190155
363 1 0.0425359 0.401029 0.156689
562 1 0.0414705 0.459811 0.197525
368 1 0.0887609 0.45006 0.153689
569 1 0.192036 0.401016 0.199113
366 1 0.145504 0.450653 0.101483
367 1 0.137994 0.407232 0.148941
372 1 0.189703 0.445476 0.152634
2207 1 0.141379 0.493602 0.146968
2211 1 0.242817 0.489464 0.142818
369 1 0.206283 0.410605 0.108125
570 1 0.25882 0.445929 0.196442
2417 1 0.399894 0.499853 0.195743
2215 1 0.349632 0.497657 0.151497
375 1 0.363112 0.410966 0.156334
376 1 0.301058 0.458094 0.143662
573 1 0.307537 0.400295 0.194708
2219 1 0.449759 0.499076 0.152825
380 1 0.404066 0.454572 0.143203
578 1 0.439828 0.445111 0.199697
384 1 0.499572 0.451646 0.153674
381 1 0.509066 0.406646 0.107363
383 1 0.552892 0.403919 0.155579
582 1 0.556968 0.452868 0.197184
385 1 0.601485 0.400286 0.101369
388 1 0.600152 0.453683 0.133855
585 1 0.607247 0.402851 0.194335
387 1 0.651569 0.403565 0.143809
586 1 0.646199 0.455235 0.187835
392 1 0.695942 0.455601 0.1429
390 1 0.754536 0.45624 0.101568
391 1 0.753884 0.409297 0.154484
590 1 0.74411 0.460865 0.195447
2433 1 0.796006 0.499909 0.198725
396 1 0.805359 0.452075 0.149876
400 1 0.890508 0.459634 0.14905
594 1 0.842585 0.45224 0.195208
597 1 0.899137 0.402739 0.198428
364 1 0.995732 0.456563 0.148409
399 1 0.948016 0.411601 0.148882
402 1 0.050975 0.0482058 0.203584
404 1 0.00482997 0.0452876 0.247525
443 1 0.0510385 0.0975267 0.252904
441 1 0.002047 0.0928234 0.206758
605 1 0.102047 0.00270636 0.29967
408 1 0.107817 0.0526996 0.253921
412 1 0.191523 0.0514443 0.240051
416 1 0.298832 0.049971 0.25086
451 1 0.249206 0.0978368 0.240496
617 1 0.396123 0.00365779 0.299241
415 1 0.346604 0.00207861 0.246691
613 1 0.301712 0.00679105 0.299758
414 1 0.354048 0.051726 0.205796
420 1 0.397293 0.0545219 0.255959
459 1 0.451468 0.0927005 0.245268
424 1 0.498896 0.0439045 0.249787
419 1 0.449065 0.00248338 0.243116
461 1 0.500938 0.090602 0.200975
622 1 0.547987 0.0489856 0.293221
428 1 0.595884 0.0377883 0.252023
661 1 0.500891 0.0948094 0.290577
463 1 0.552075 0.0974756 0.245648
421 1 0.504437 0.00138709 0.201051
426 1 0.653465 0.0423593 0.203694
465 1 0.610999 0.0937358 0.203686
467 1 0.650988 0.0936379 0.255904
432 1 0.693049 0.0445872 0.250807
665 1 0.600202 0.0853446 0.297123
469 1 0.698505 0.0867299 0.204912
626 1 0.654503 0.0388799 0.298161
430 1 0.747103 0.0420203 0.205893
436 1 0.798146 0.0466843 0.245122
471 1 0.742911 0.0932437 0.253914
630 1 0.749192 0.0478762 0.298166
475 1 0.848865 0.0916988 0.244155
440 1 0.889555 0.0411976 0.247885
634 1 0.842149 0.0468455 0.293409
673 1 0.800954 0.0973557 0.299067
438 1 0.959997 0.0298967 0.200013
479 1 0.948239 0.0953038 0.248823
641 1 0.989023 0.0885343 0.298557
638 1 0.937873 0.0465619 0.292843
448 1 0.0927085 0.157204 0.250725
483 1 0.046835 0.19945 0.252225
444 1 0.00326243 0.144711 0.251188
446 1 0.149793 0.150891 0.211505
447 1 0.158903 0.109715 0.262129
645 1 0.100565 0.100929 0.295397
445 1 0.109594 0.104231 0.211951
485 1 0.102982 0.199213 0.200705
452 1 0.208852 0.156255 0.252163
456 1 0.297229 0.150593 0.237835
653 1 0.289019 0.103401 0.297419
455 1 0.352413 0.101865 0.247679
460 1 0.399571 0.148643 0.253095
654 1 0.342024 0.145037 0.29447
458 1 0.453781 0.147891 0.205656
658 1 0.450422 0.14698 0.29917
499 1 0.452256 0.19544 0.258327
497 1 0.405864 0.189469 0.200623
501 1 0.50178 0.191582 0.201286
505 1 0.594822 0.187583 0.200867
464 1 0.503833 0.150358 0.249545
503 1 0.545715 0.19565 0.249509
705 1 0.589472 0.19884 0.296117
701 1 0.501153 0.196018 0.299244
466 1 0.646525 0.146248 0.211566
468 1 0.600153 0.138734 0.262095
666 1 0.653744 0.150498 0.294664
507 1 0.639568 0.193221 0.248545
472 1 0.706554 0.143942 0.24845
670 1 0.749616 0.147458 0.296832
476 1 0.799534 0.139406 0.237659
709 1 0.703559 0.193684 0.294935
713 1 0.795804 0.198691 0.290343
511 1 0.748794 0.189918 0.23794
480 1 0.888057 0.147197 0.256191
515 1 0.848097 0.198575 0.242555
677 1 0.895615 0.101129 0.298284
478 1 0.948918 0.141965 0.201898
681 1 0.997071 0.191157 0.294569
519 1 0.941491 0.188109 0.254991
678 1 0.954817 0.142735 0.295538
521 1 0.00312022 0.292221 0.205981
488 1 0.0938612 0.251371 0.253738
484 1 0.000576208 0.245393 0.248181
525 1 0.0938572 0.297692 0.204665
487 1 0.14459 0.201831 0.252575
529 1 0.199765 0.29735 0.205738
490 1 0.260017 0.253244 0.200428
491 1 0.252817 0.201051 0.250304
489 1 0.20708 0.201772 0.208258
492 1 0.200036 0.249909 0.251732
496 1 0.29908 0.242927 0.249857
531 1 0.250424 0.292286 0.252043
693 1 0.296726 0.202901 0.299045
494 1 0.345782 0.249564 0.201638
495 1 0.357503 0.20162 0.250018
535 1 0.355685 0.293392 0.244327
500 1 0.400897 0.250091 0.255294
498 1 0.44507 0.248841 0.20052
698 1 0.449442 0.254236 0.297124
504 1 0.498968 0.238864 0.243538
508 1 0.593806 0.248957 0.248946
702 1 0.543928 0.248485 0.293059
549 1 0.696023 0.296764 0.203821
706 1 0.650155 0.240269 0.286035
513 1 0.797763 0.206649 0.201262
512 1 0.705095 0.244887 0.247497
516 1 0.799812 0.24452 0.247655
710 1 0.750956 0.245365 0.293096
753 1 0.798758 0.297475 0.293102
714 1 0.850854 0.249969 0.291914
520 1 0.902706 0.250325 0.248655
559 1 0.952821 0.296515 0.248475
523 1 0.0476307 0.300224 0.253898
528 1 0.0872032 0.348546 0.248573
722 1 0.0439429 0.352153 0.29445
527 1 0.145418 0.300669 0.250158
526 1 0.153599 0.347756 0.20087
532 1 0.197099 0.346221 0.253528
567 1 0.145551 0.391534 0.249366
769 1 0.190568 0.396642 0.297618
725 1 0.102769 0.303072 0.297852
530 1 0.239542 0.347326 0.206254
536 1 0.299787 0.347997 0.243466
730 1 0.258107 0.345472 0.291151
571 1 0.251908 0.393207 0.251318
534 1 0.349412 0.350038 0.20633
734 1 0.346265 0.347799 0.294956
737 1 0.391788 0.301312 0.296191
577 1 0.405147 0.389621 0.201282
540 1 0.406775 0.350288 0.253074
538 1 0.459172 0.349669 0.200424
539 1 0.450659 0.300207 0.25278
581 1 0.502842 0.399438 0.201637
741 1 0.501757 0.305461 0.297205
543 1 0.557002 0.301543 0.242165
544 1 0.508717 0.351847 0.253035
547 1 0.64474 0.303828 0.246038
548 1 0.600907 0.353726 0.251289
746 1 0.651449 0.355141 0.294664
552 1 0.695974 0.353963 0.239021
749 1 0.699471 0.301092 0.287686
551 1 0.747272 0.30189 0.242121
750 1 0.752448 0.345404 0.288977
793 1 0.789157 0.398484 0.287255
556 1 0.798553 0.345084 0.245924
789 1 0.709832 0.393326 0.29567
555 1 0.852907 0.300028 0.241597
757 1 0.896925 0.306432 0.289225
754 1 0.845744 0.34249 0.290579
561 1 0.9914 0.399311 0.201528
524 1 0.991502 0.352701 0.246063
560 1 0.904257 0.343293 0.235795
758 1 0.945594 0.350758 0.298006
2403 1 0.0432474 0.49756 0.250096
563 1 0.052398 0.406906 0.260249
565 1 0.0947867 0.402987 0.208031
2405 1 0.0928783 0.497371 0.205026
566 1 0.147691 0.44701 0.206964
568 1 0.102596 0.447169 0.25525
572 1 0.195923 0.437684 0.249512
2609 1 0.195969 0.49054 0.294923
2409 1 0.200191 0.493206 0.204963
2413 1 0.294214 0.49474 0.201035
576 1 0.284789 0.45107 0.251286
2411 1 0.24548 0.498613 0.257819
574 1 0.355007 0.453788 0.200302
773 1 0.307202 0.404466 0.294766
575 1 0.349718 0.404159 0.249825
580 1 0.397888 0.459979 0.247801
579 1 0.447713 0.401706 0.250654
777 1 0.402967 0.401577 0.297504
584 1 0.498417 0.443775 0.259243
2419 1 0.451329 0.491955 0.252232
2621 1 0.504061 0.494662 0.298181
2423 1 0.55187 0.496745 0.249617
583 1 0.555152 0.404702 0.250886
2421 1 0.502113 0.492708 0.208334
2625 1 0.596939 0.494055 0.297125
589 1 0.695092 0.40714 0.203089
2427 1 0.648983 0.490872 0.242326
588 1 0.605616 0.448181 0.247152
587 1 0.64779 0.406761 0.247918
592 1 0.69905 0.447948 0.255914
591 1 0.74961 0.406277 0.237169
596 1 0.794895 0.456057 0.242284
790 1 0.748003 0.452883 0.29604
2431 1 0.745926 0.498459 0.249228
593 1 0.804416 0.402962 0.200634
595 1 0.85091 0.404643 0.242289
794 1 0.841548 0.451226 0.289271
797 1 0.893749 0.401065 0.289716
2435 1 0.845042 0.499423 0.245865
2439 1 0.948794 0.49799 0.253318
2601 1 0.992638 0.49799 0.299657
599 1 0.952294 0.40566 0.248549
564 1 0.999709 0.449165 0.247211
600 1 0.900842 0.449389 0.244964
598 1 0.950408 0.456896 0.202008
798 1 0.946994 0.455525 0.296024
601 1 0.00275747 0.00722624 0.30669
603 1 0.0533093 0.00483493 0.358368
602 1 0.0572294 0.0503742 0.301373
604 1 0.00674754 0.0586263 0.351147
608 1 0.0999953 0.0533811 0.346789
643 1 0.0570843 0.0977288 0.346406
609 1 0.199166 0.00863273 0.300816
607 1 0.148306 0.0112131 0.344707
606 1 0.152264 0.0584257 0.304299
806 1 0.145466 0.0572534 0.393169
809 1 0.188956 0.00304376 0.397304
813 1 0.298737 0.00451348 0.395053
610 1 0.251049 0.0501438 0.301361
612 1 0.204015 0.0615228 0.345802
810 1 0.246191 0.0549615 0.397196
611 1 0.24615 0.0011045 0.354161
615 1 0.348866 0.00618024 0.347391
614 1 0.345877 0.0599813 0.303858
616 1 0.300515 0.0507827 0.349265
619 1 0.452575 0.00509275 0.351633
618 1 0.452842 0.0488221 0.301094
657 1 0.400887 0.0954049 0.301335
620 1 0.402503 0.0479989 0.347566
857 1 0.404541 0.0990781 0.398157
861 1 0.498799 0.0937566 0.395917
623 1 0.552253 0.00450745 0.346168
624 1 0.503341 0.0452209 0.347942
663 1 0.550752 0.0959191 0.351649
627 1 0.653428 0.00288733 0.356978
825 1 0.600741 0.00104854 0.395661
628 1 0.601723 0.0471212 0.352405
667 1 0.650607 0.0937499 0.344279
869 1 0.698905 0.0998124 0.397123
632 1 0.700859 0.0527649 0.35384
636 1 0.792993 0.0401633 0.348768
837 1 0.890026 0.00171877 0.394359
834 1 0.843626 0.0483384 0.390376
640 1 0.8941 0.0484897 0.348527
877 1 0.892598 0.0955853 0.394629
801 1 0.99699 0.00756263 0.399632
679 1 0.951233 0.0933328 0.348998
838 1 0.941516 0.0437188 0.399745
642 1 0.0527072 0.149942 0.302288
683 1 0.0418608 0.191205 0.345513
648 1 0.0934284 0.149109 0.354094
685 1 0.0956079 0.198352 0.301307
885 1 0.0875435 0.199277 0.396074
644 1 0.00348755 0.142142 0.347004
842 1 0.0451783 0.149834 0.396493
647 1 0.154674 0.105327 0.349272
646 1 0.14434 0.160314 0.307117
687 1 0.141183 0.198616 0.35782
652 1 0.196471 0.157302 0.354276
846 1 0.148444 0.150086 0.399529
650 1 0.246881 0.160466 0.305761
649 1 0.208133 0.105689 0.300963
651 1 0.244676 0.114059 0.353748
656 1 0.297174 0.143319 0.346832
893 1 0.29833 0.198534 0.398309
889 1 0.202992 0.198708 0.397919
697 1 0.390986 0.198496 0.301783
655 1 0.353818 0.102661 0.353532
854 1 0.346098 0.153737 0.391945
660 1 0.398633 0.148251 0.341289
659 1 0.448806 0.100633 0.342461
664 1 0.492385 0.14983 0.346045
858 1 0.454504 0.145939 0.394032
662 1 0.547636 0.139132 0.302339
703 1 0.551776 0.197368 0.349531
901 1 0.505119 0.198925 0.393514
865 1 0.592726 0.100724 0.399162
862 1 0.551443 0.149537 0.393712
669 1 0.696234 0.101425 0.300733
668 1 0.600948 0.136894 0.340931
866 1 0.647414 0.153444 0.399475
672 1 0.700959 0.150651 0.349446
671 1 0.754732 0.101474 0.34705
711 1 0.753855 0.194158 0.34626
676 1 0.79895 0.149503 0.350878
873 1 0.788612 0.101628 0.397508
913 1 0.798016 0.199021 0.398322
674 1 0.840392 0.147335 0.301045
675 1 0.84809 0.102603 0.347169
717 1 0.89953 0.198323 0.302098
715 1 0.85026 0.191829 0.34422
917 1 0.894898 0.194822 0.396222
881 1 0.997368 0.19815 0.398192
680 1 0.9007 0.144662 0.348846
719 1 0.949463 0.194012 0.354326
682 1 0.0389934 0.241436 0.306369
925 1 0.0967575 0.296313 0.399777
688 1 0.0836024 0.25027 0.3535
686 1 0.146513 0.249039 0.302269
689 1 0.191199 0.209724 0.305512
692 1 0.190219 0.253481 0.361449
690 1 0.24667 0.251858 0.301849
691 1 0.238847 0.210538 0.352686
696 1 0.295166 0.250422 0.345833
733 1 0.304591 0.297645 0.302926
694 1 0.346255 0.247719 0.305099
695 1 0.347343 0.200457 0.346083
894 1 0.345555 0.249761 0.393041
700 1 0.394266 0.253209 0.350715
897 1 0.39967 0.204233 0.393423
699 1 0.443845 0.20218 0.349163
739 1 0.445743 0.296334 0.350927
704 1 0.498761 0.249066 0.346904
905 1 0.599002 0.201039 0.398353
902 1 0.550107 0.253866 0.393434
743 1 0.557264 0.298909 0.34595
745 1 0.601833 0.293404 0.300788
707 1 0.645412 0.207868 0.339954
708 1 0.603777 0.255319 0.350434
747 1 0.651688 0.298052 0.335915
906 1 0.644252 0.251024 0.399332
909 1 0.69562 0.20338 0.396882
712 1 0.702288 0.241034 0.352089
751 1 0.760737 0.292254 0.343631
716 1 0.8018 0.245088 0.351903
953 1 0.800303 0.299441 0.396685
720 1 0.897808 0.254495 0.34475
721 1 0.992817 0.295007 0.300328
718 1 0.953215 0.24098 0.305966
684 1 0.999154 0.233716 0.353084
918 1 0.945338 0.250675 0.394396
765 1 0.0985852 0.391671 0.308177
723 1 0.0393767 0.302743 0.349923
763 1 0.051326 0.396323 0.355633
922 1 0.038164 0.353354 0.399844
728 1 0.0915526 0.345952 0.352115
729 1 0.194201 0.302451 0.304398
727 1 0.144154 0.307116 0.35293
726 1 0.146101 0.347076 0.304977
767 1 0.143441 0.394961 0.352377
933 1 0.297242 0.30042 0.397334
732 1 0.201493 0.355767 0.343093
731 1 0.251937 0.311827 0.347317
930 1 0.256999 0.361014 0.393597
771 1 0.254159 0.396159 0.335841
736 1 0.299992 0.353245 0.345423
735 1 0.351627 0.302043 0.350846
740 1 0.399718 0.350484 0.362304
738 1 0.446137 0.345969 0.312188
779 1 0.449444 0.394521 0.355284
744 1 0.500922 0.347385 0.35097
742 1 0.556723 0.352256 0.301383
783 1 0.553808 0.3923 0.355641
942 1 0.545934 0.342243 0.397962
945 1 0.598166 0.305115 0.39013
748 1 0.597574 0.349064 0.345436
981 1 0.50134 0.394685 0.398583
989 1 0.691826 0.394987 0.392804
946 1 0.654569 0.349842 0.391702
752 1 0.703591 0.339538 0.347416
791 1 0.751582 0.398815 0.346153
755 1 0.846432 0.301734 0.350349
756 1 0.800971 0.347533 0.339705
760 1 0.896091 0.353923 0.339719
954 1 0.847606 0.34854 0.396233
795 1 0.842792 0.398857 0.338071
957 1 0.895867 0.302683 0.391672
958 1 0.934024 0.35491 0.387556
759 1 0.943152 0.302328 0.346383
724 1 0.995675 0.351919 0.3417
2805 1 0.0990653 0.496622 0.396371
2605 1 0.0932868 0.490056 0.304146
762 1 0.0434071 0.453941 0.307321
962 1 0.0468755 0.44917 0.399592
2603 1 0.0467942 0.498249 0.351864
766 1 0.148408 0.449526 0.306498
2607 1 0.145226 0.498641 0.349441
768 1 0.10155 0.443587 0.350151
772 1 0.197861 0.44216 0.34926
969 1 0.194604 0.401952 0.398599
2611 1 0.246453 0.493637 0.356779
770 1 0.242667 0.448665 0.302132
970 1 0.252274 0.437255 0.392679
2613 1 0.295959 0.49734 0.301513
2617 1 0.39939 0.489723 0.311066
774 1 0.344855 0.456361 0.308643
973 1 0.308451 0.40018 0.397949
776 1 0.30398 0.44634 0.350737
775 1 0.352642 0.400681 0.347595
974 1 0.350163 0.458153 0.398625
2619 1 0.45521 0.495868 0.351641
778 1 0.451472 0.449179 0.305745
781 1 0.499052 0.402821 0.3098
780 1 0.402293 0.443184 0.357567
2817 1 0.411452 0.498743 0.393864
785 1 0.598002 0.405517 0.300046
784 1 0.50018 0.452658 0.35569
782 1 0.546354 0.447021 0.300484
788 1 0.59509 0.444318 0.350395
786 1 0.650657 0.453632 0.300413
985 1 0.608425 0.400223 0.394609
787 1 0.649956 0.400693 0.341057
986 1 0.644379 0.451241 0.392208
2833 1 0.795374 0.490677 0.396419
990 1 0.74564 0.446747 0.396922
792 1 0.702592 0.445759 0.347241
796 1 0.794652 0.446015 0.343022
2633 1 0.79685 0.497787 0.301839
994 1 0.839063 0.447292 0.39356
2635 1 0.849563 0.489704 0.341102
800 1 0.895146 0.441318 0.338758
799 1 0.949189 0.403235 0.342418
761 1 0.99376 0.401245 0.300993
764 1 0.992567 0.447788 0.350139
998 1 0.94435 0.446534 0.395678
2639 1 0.950041 0.496807 0.351101
1005 1 0.0966207 0.00157657 0.498269
802 1 0.0460737 0.0559817 0.400551
808 1 0.0989812 0.0516209 0.450789
807 1 0.142451 0.00880675 0.450323
812 1 0.192137 0.0540225 0.444684
1009 1 0.199193 0.000710498 0.493569
811 1 0.25287 0.00922303 0.44753
1013 1 0.293948 0.00232323 0.495753
1010 1 0.255748 0.0501649 0.495944
817 1 0.399879 0.0126763 0.400518
815 1 0.35131 0.00789642 0.451097
814 1 0.349284 0.0518835 0.400127
816 1 0.303819 0.0582984 0.449211
1014 1 0.357613 0.0593761 0.494104
818 1 0.453964 0.0477113 0.410681
820 1 0.405481 0.0616394 0.455252
1017 1 0.407115 0.00310439 0.496734
1022 1 0.555067 0.0409188 0.499142
824 1 0.500136 0.0436163 0.459815
822 1 0.557592 0.0433259 0.410329
863 1 0.542635 0.0918647 0.452617
1065 1 0.599835 0.095511 0.490343
829 1 0.698947 0.00190455 0.400076
828 1 0.604687 0.0462337 0.449817
826 1 0.645912 0.0477599 0.402934
832 1 0.69201 0.0538237 0.447996
830 1 0.750969 0.0459934 0.400945
871 1 0.743239 0.0945019 0.445106
836 1 0.796175 0.0464079 0.444382
1073 1 0.798144 0.0927826 0.493604
1030 1 0.750477 0.0479515 0.494684
835 1 0.84502 0.00199468 0.443607
875 1 0.84367 0.0953836 0.433825
840 1 0.89676 0.0476983 0.443794
1033 1 0.810916 0.00651958 0.497736
1034 1 0.853782 0.0512234 0.497058
804 1 0.99897 0.0511821 0.451932
841 1 0.995162 0.0989197 0.401136
879 1 0.944089 0.0976793 0.452905
839 1 0.939928 0.00135111 0.449195
1001 1 0.997543 0.0109757 0.499388
843 1 0.0471046 0.103035 0.448596
848 1 0.0958749 0.161773 0.448128
1042 1 0.0402716 0.150898 0.494451
845 1 0.104868 0.102298 0.400737
847 1 0.144785 0.100792 0.450415
849 1 0.195179 0.100035 0.40296
852 1 0.190644 0.15569 0.447247
1046 1 0.143019 0.156348 0.494187
853 1 0.291757 0.105645 0.401269
850 1 0.25084 0.151473 0.408482
851 1 0.246196 0.107317 0.453183
891 1 0.25064 0.197413 0.453112
1050 1 0.249384 0.150659 0.495733
1097 1 0.398685 0.196847 0.495418
856 1 0.305847 0.147959 0.444624
855 1 0.352342 0.105921 0.445747
1093 1 0.302748 0.198909 0.492661
1054 1 0.347065 0.148536 0.497801
1058 1 0.452162 0.15553 0.494871
860 1 0.408428 0.149929 0.441407
859 1 0.452268 0.106375 0.451339
1061 1 0.496461 0.103184 0.499449
1062 1 0.550626 0.1505 0.492829
864 1 0.506349 0.152481 0.443612
868 1 0.596961 0.149773 0.44712
1069 1 0.696076 0.103609 0.493946
867 1 0.649924 0.105769 0.441636
872 1 0.696597 0.153509 0.4528
1066 1 0.649926 0.151373 0.495195
870 1 0.742151 0.152161 0.405864
876 1 0.790243 0.14464 0.455193
1077 1 0.891036 0.101859 0.494098
1074 1 0.846941 0.148647 0.489419
874 1 0.838058 0.151081 0.40221
880 1 0.898165 0.144661 0.446521
844 1 0.995274 0.153408 0.447943
878 1 0.940346 0.142306 0.400711
1081 1 0.98893 0.197792 0.496737
882 1 0.033198 0.260258 0.402759
883 1 0.0408799 0.202913 0.448982
888 1 0.0908259 0.244709 0.451717
1082 1 0.0387241 0.249762 0.494292
886 1 0.141434 0.252327 0.400164
887 1 0.144252 0.204264 0.443792
892 1 0.193769 0.251027 0.4453
1089 1 0.197874 0.200051 0.492281
1086 1 0.145392 0.247365 0.499356
890 1 0.243385 0.253018 0.401403
896 1 0.29929 0.244967 0.444142
1090 1 0.241047 0.249836 0.49396