ITEM: TIMESTEP
9000
ITEM: NUMBER OF ATOMS
2916
ITEM: BOX BOUNDS pp pp pp
0.0000000000000000e+00 4.7339999999999996e+01
0.0000000000000000e+00 4.7339999999999996e+01
0.0000000000000000e+00 4.7339999999999996e+01
ITEM: ATOMS id type xs ys zs
8 1 0.114377 0.0507177 0.0607556
164 1 0.0568838 0.0560525 0.107112
5 1 0.118813 0.00484375 0.00214208
167 1 0.11497 0.00103271 0.113705
185 1 0.118826 0.107255 0.117374
4 1 0.00416561 0.054091 0.0544012
3 1 0.0547816 0.00563938 0.0586008
163 1 0.00932756 0.000969118 0.113272
23 1 0.109906 0.108298 0.00304461
12 1 0.225125 0.0582511 0.0539623
168 1 0.163954 0.0537375 0.110421
7 1 0.166703 0.00295699 0.0502297
171 1 0.225713 0.00636122 0.107599
25 1 0.158829 0.105356 0.0576384
16 1 0.330932 0.0471084 0.0527214
172 1 0.272471 0.0625662 0.105863
176 1 0.368349 0.0484396 0.119705
18 1 0.443047 0.0621726 0.0640548
179 1 0.444785 0.00491716 0.115616
33 1 0.375755 0.103106 0.0621919
197 1 0.437531 0.110415 0.113768
14 1 0.383489 0.0535736 0.00660783
1621 1 0.491974 0.0662794 0.113062
1460 1 0.498752 0.00156662 0.0664186
17 1 0.438842 0.00627787 0.0118788
21 1 0.0525474 0.11942 0.0592816
26 1 0.117914 0.169784 0.0531434
182 1 0.0617843 0.171823 0.108001
39 1 0.0527979 0.221906 0.0423739
189 1 0.212235 0.118039 0.104091
30 1 0.226162 0.170698 0.0499283
186 1 0.165013 0.165033 0.10653
207 1 0.220872 0.218907 0.112255
24 1 0.171976 0.167547 0.00440261
27 1 0.225177 0.116101 0.00432023
29 1 0.282342 0.114559 0.057809
193 1 0.332361 0.116411 0.117447
34 1 0.330801 0.165096 0.0521127
190 1 0.27981 0.172669 0.102553
31 1 0.340892 0.115845 0.00158777
36 1 0.439349 0.15641 0.0619558
194 1 0.388449 0.169557 0.102892
51 1 0.394551 0.22016 0.0537519
215 1 0.443101 0.219547 0.112476
1478 1 0.495212 0.115173 0.0631408
1496 1 0.495034 0.216385 0.0582704
32 1 0.395291 0.167007 0.00405739
203 1 0.114765 0.223498 0.107119
44 1 0.107142 0.274814 0.0518317
200 1 0.0644291 0.277696 0.112765
199 1 0.0069116 0.230087 0.106026
38 1 0.0477723 0.286389 0.00192383
43 1 0.166555 0.224533 0.0543812
48 1 0.21935 0.276113 0.0547186
204 1 0.164216 0.280384 0.111737
61 1 0.157213 0.326648 0.0570449
42 1 0.166883 0.282568 0.00062351
211 1 0.32689 0.230247 0.101659
47 1 0.274151 0.231656 0.0504599
52 1 0.328742 0.287598 0.0500903
208 1 0.276545 0.283956 0.104031
54 1 0.440684 0.283254 0.0566595
212 1 0.390115 0.281773 0.107096
1514 1 0.499473 0.329004 0.0522125
50 1 0.386102 0.286448 0.0043534
221 1 0.108059 0.338432 0.111215
57 1 0.0632359 0.335637 0.0516996
62 1 0.106263 0.389883 0.0552109
218 1 0.0501767 0.38732 0.104228
239 1 0.106474 0.442702 0.105264
56 1 0.0501479 0.393889 0.00243563
225 1 0.217288 0.333496 0.107377
66 1 0.222469 0.394723 0.0549759
222 1 0.166626 0.391553 0.102891
60 1 0.163522 0.390741 0.00412741
65 1 0.266156 0.337672 0.0517501
229 1 0.333213 0.339356 0.106946
70 1 0.324688 0.389711 0.055615
226 1 0.267502 0.394435 0.107324
1532 1 0.488775 0.442839 0.0518697
233 1 0.441844 0.339042 0.110846
69 1 0.388054 0.337524 0.0490169
72 1 0.449605 0.386622 0.0524876
230 1 0.394115 0.389671 0.111759
1675 1 0.495458 0.388667 0.112626
75 1 0.051627 0.444858 0.057841
80 1 0.104375 0.496892 0.0567371
236 1 0.0559493 0.500169 0.109254
76 1 0.00257012 0.502193 0.0533245
253 1 0.00112436 0.554927 0.109542
79 1 0.165205 0.449652 0.0490742
243 1 0.214756 0.447479 0.110336
84 1 0.226975 0.505396 0.0532068
240 1 0.161776 0.49576 0.103327
97 1 0.167334 0.548099 0.0496903
247 1 0.338029 0.453385 0.113325
83 1 0.274469 0.450822 0.0526192
88 1 0.332353 0.508544 0.0567005
244 1 0.277443 0.508453 0.110357
85 1 0.336608 0.449292 0.00384794
251 1 0.442741 0.446105 0.113215
87 1 0.388759 0.447962 0.0544599
90 1 0.445772 0.498286 0.0578401
248 1 0.392804 0.495893 0.107078
1693 1 0.495232 0.500945 0.113816
86 1 0.391594 0.508421 0.00231364
257 1 0.110648 0.560026 0.103156
93 1 0.0598771 0.555832 0.0499879
98 1 0.110303 0.607909 0.0541083
254 1 0.0603249 0.612198 0.109198
275 1 0.118319 0.660296 0.112406
111 1 0.0614509 0.665771 0.054721
92 1 0.0521154 0.617213 0.000135699
271 1 0.00607419 0.664241 0.117771
91 1 0.00970149 0.561536 0.00171165
261 1 0.221519 0.557288 0.107216
102 1 0.231116 0.607375 0.0520326
258 1 0.170278 0.609078 0.119362
279 1 0.223188 0.665523 0.0997
115 1 0.166471 0.66335 0.0456229
265 1 0.329414 0.561824 0.11091
101 1 0.285778 0.563612 0.0518786
106 1 0.33413 0.614119 0.0556737
262 1 0.279288 0.610971 0.106111
119 1 0.282164 0.666624 0.0504523
103 1 0.331656 0.55615 0.00203092
105 1 0.390774 0.559709 0.0582293
269 1 0.445386 0.562167 0.118207
108 1 0.440939 0.617225 0.0567428
266 1 0.388055 0.617992 0.108465
1550 1 0.498615 0.560556 0.0562692
107 1 0.452752 0.564259 0.000992011
116 1 0.114372 0.727053 0.0521842
272 1 0.0647109 0.712152 0.110233
112 1 0.0134288 0.730297 0.0537472
120 1 0.212412 0.720188 0.0452855
276 1 0.165739 0.716129 0.101858
133 1 0.171377 0.776574 0.0531007
117 1 0.219817 0.670682 0.000115849
283 1 0.326013 0.667558 0.111191
124 1 0.324131 0.72837 0.0563591
280 1 0.266237 0.726517 0.103143
118 1 0.275646 0.719104 0.000707179
1568 1 0.496415 0.670994 0.0776045
123 1 0.379442 0.669289 0.0561039
287 1 0.434989 0.680413 0.116297
126 1 0.4397 0.730519 0.0575941
284 1 0.377201 0.728223 0.10793
1586 1 0.494397 0.774328 0.0528399
1567 1 0.493959 0.710566 0.00659524
143 1 0.440268 0.774958 0.000850226
122 1 0.381861 0.724802 0.00670421
125 1 0.436607 0.670156 0.00841805
129 1 0.0589975 0.784976 0.0466705
293 1 0.113334 0.778348 0.106308
290 1 0.0525288 0.836628 0.112803
289 1 0.00870046 0.782431 0.117798
145 1 0.00737513 0.884816 0.00316047
134 1 0.127034 0.835322 0.0461623
297 1 0.22677 0.778952 0.102222
138 1 0.221004 0.831955 0.0476927
294 1 0.167087 0.833367 0.105877
137 1 0.277116 0.782539 0.0472935
301 1 0.326633 0.779747 0.106307
142 1 0.332688 0.835741 0.0539579
298 1 0.274398 0.837145 0.114718
319 1 0.327899 0.881551 0.111655
157 1 0.350797 0.882518 0.0025579
136 1 0.281645 0.840645 0.00425571
1585 1 0.49514 0.824848 0.00183358
141 1 0.388284 0.783535 0.058793
305 1 0.43165 0.778473 0.122971
144 1 0.447575 0.832193 0.0656831
302 1 0.386731 0.835705 0.108986
323 1 0.443751 0.884408 0.116782
140 1 0.398614 0.83377 0.000271229
161 1 0.455364 0.882163 0.00278228
1747 1 0.491935 0.831975 0.120526
147 1 0.0582369 0.896721 0.0541369
311 1 0.116501 0.894022 0.108632
152 1 0.107293 0.956065 0.0575134
308 1 0.0626929 0.94616 0.115986
148 1 0.00788109 0.944039 0.0566357
307 1 0.00218294 0.894193 0.107972
146 1 0.0631349 0.960085 0.00293466
149 1 0.108356 0.901436 0.00473476
315 1 0.21574 0.891943 0.0964102
151 1 0.16897 0.889689 0.0515432
156 1 0.220022 0.948447 0.051428
312 1 0.164708 0.95253 0.108872
175 1 0.324702 0.992842 0.118952
11 1 0.278672 0.999911 0.0398942
155 1 0.274048 0.895032 0.0584413
160 1 0.338322 0.94301 0.0667914
316 1 0.27188 0.942953 0.110199
13 1 0.346919 0.987398 0.00285295
15 1 0.389393 0.991332 0.0642123
159 1 0.399902 0.892436 0.0603042
320 1 0.382804 0.931791 0.117658
162 1 0.445387 0.942972 0.0766576
1604 1 0.496109 0.889398 0.0660228
158 1 0.416494 0.940807 0.00726966
325 1 0.00114808 0.0136671 0.223782
170 1 0.113663 0.0551686 0.174963
326 1 0.0573185 0.0576494 0.223416
183 1 0.0574203 0.108881 0.16845
165 1 0.0539499 0.0019419 0.167719
347 1 0.115536 0.110834 0.227162
343 1 0.00237892 0.110188 0.215057
329 1 0.113632 0.00649324 0.228844
166 1 0.00118147 0.0618876 0.160327
174 1 0.22716 0.0598048 0.169075
330 1 0.176665 0.044277 0.222346
187 1 0.174155 0.110047 0.178191
333 1 0.227794 0.000441253 0.228167
178 1 0.330604 0.0575279 0.178527
334 1 0.271338 0.0583054 0.226976
191 1 0.279111 0.110797 0.177607
173 1 0.272797 0.00536416 0.173266
337 1 0.343432 0.00652553 0.226011
1783 1 0.482356 0.059707 0.224307
180 1 0.434794 0.0579197 0.165097
338 1 0.40195 0.0471028 0.228372
177 1 0.387722 0.00283004 0.16857
188 1 0.116925 0.166874 0.168997
344 1 0.0592456 0.164778 0.222951
201 1 0.0624964 0.216098 0.163244
184 1 0.00275815 0.175456 0.158968
351 1 0.225113 0.12494 0.230578
365 1 0.125739 0.221569 0.222726
192 1 0.218255 0.1702 0.164775
348 1 0.172784 0.161965 0.222807
205 1 0.173491 0.221019 0.164071
355 1 0.333813 0.120162 0.227286
196 1 0.3402 0.17023 0.167274
352 1 0.271933 0.172318 0.224034
209 1 0.281546 0.222105 0.163345
1640 1 0.494107 0.11854 0.170748
359 1 0.44357 0.128435 0.225388
195 1 0.384449 0.114121 0.172918
198 1 0.433413 0.16778 0.159322
356 1 0.389282 0.17647 0.226701
1801 1 0.495038 0.177598 0.213999
206 1 0.113766 0.280659 0.164081
362 1 0.0618869 0.264448 0.21427
369 1 0.220891 0.225024 0.225603
210 1 0.226984 0.277765 0.160281
366 1 0.164953 0.287161 0.212426
387 1 0.222529 0.330376 0.21715
373 1 0.330017 0.229727 0.213388
214 1 0.329671 0.282592 0.152693
370 1 0.280158 0.296674 0.214559
213 1 0.381182 0.222322 0.15727
377 1 0.440391 0.227567 0.217684
216 1 0.440049 0.28254 0.158242
374 1 0.378225 0.281268 0.21874
219 1 0.0599889 0.339544 0.164912
383 1 0.110955 0.339334 0.212582
224 1 0.103556 0.398294 0.167587
380 1 0.054617 0.399823 0.220979
397 1 0.00165984 0.441449 0.221668
379 1 0.00412953 0.33836 0.216487
223 1 0.16466 0.341047 0.16733
228 1 0.214633 0.392743 0.16575
384 1 0.167484 0.388347 0.219363
405 1 0.220027 0.433844 0.227023
227 1 0.286286 0.343229 0.156684
391 1 0.338103 0.335616 0.223426
232 1 0.332752 0.395382 0.158773
388 1 0.281413 0.385439 0.223037
245 1 0.271147 0.442753 0.17051
409 1 0.335694 0.441738 0.226577
395 1 0.448254 0.334073 0.235608
231 1 0.388714 0.346841 0.172455
234 1 0.448284 0.387311 0.176342
392 1 0.392532 0.384301 0.234448
249 1 0.390075 0.437686 0.167141
413 1 0.437666 0.443202 0.226696
1676 1 0.498295 0.336329 0.172225
401 1 0.112126 0.454263 0.218522
237 1 0.0485914 0.44984 0.155546
398 1 0.0527308 0.497007 0.221642
242 1 0.114235 0.500166 0.163293
255 1 0.0500582 0.554455 0.173417
419 1 0.113121 0.55015 0.229918
241 1 0.165632 0.445134 0.159542
246 1 0.217755 0.500825 0.15892
402 1 0.171286 0.496741 0.215067
259 1 0.157891 0.551636 0.162574
423 1 0.221728 0.545513 0.215006
250 1 0.324672 0.496948 0.172223
406 1 0.282533 0.498828 0.228827
263 1 0.281611 0.550532 0.166253
427 1 0.323016 0.550896 0.23561
1855 1 0.494115 0.500859 0.235068
252 1 0.436283 0.50227 0.175621
410 1 0.380466 0.49705 0.226564
267 1 0.380374 0.55174 0.176134
1694 1 0.48972 0.446129 0.169987
260 1 0.106789 0.60305 0.174663
416 1 0.0529092 0.597051 0.230623
273 1 0.0631381 0.659306 0.170172
437 1 0.116643 0.66129 0.216368
264 1 0.227206 0.610825 0.168702
420 1 0.168316 0.605371 0.210256
277 1 0.178254 0.663403 0.169997
441 1 0.225332 0.664605 0.229768
268 1 0.328393 0.610788 0.170799
424 1 0.273137 0.606574 0.224704
281 1 0.275415 0.656494 0.170509
1873 1 0.498048 0.611795 0.223785
431 1 0.43698 0.564932 0.223434
270 1 0.436957 0.615423 0.163497
428 1 0.377978 0.611739 0.227096
285 1 0.384922 0.665691 0.17159
1712 1 0.498013 0.563541 0.168793
1730 1 0.485121 0.664084 0.174272
278 1 0.117899 0.722532 0.171094
434 1 0.0532988 0.721696 0.20972
291 1 0.0734301 0.777579 0.160818
451 1 0.00735891 0.777495 0.208398
282 1 0.223365 0.722663 0.159168
438 1 0.166171 0.715269 0.228694
295 1 0.170805 0.774721 0.153132
445 1 0.323759 0.668194 0.220069
286 1 0.325646 0.719334 0.16022
442 1 0.266657 0.724213 0.216414
463 1 0.316235 0.77285 0.23175
1748 1 0.493197 0.776682 0.169906
449 1 0.430077 0.674736 0.223791
288 1 0.439225 0.724216 0.175412
446 1 0.3775 0.721153 0.222863
303 1 0.378004 0.774726 0.172941
467 1 0.443259 0.776125 0.222332
1891 1 0.497716 0.72416 0.21926
455 1 0.124425 0.78185 0.219497
452 1 0.0620508 0.834366 0.221317
473 1 0.123217 0.888023 0.202912
309 1 0.0627909 0.883038 0.163933
459 1 0.221284 0.779018 0.210568
296 1 0.12623 0.830765 0.158124
300 1 0.222452 0.83758 0.156765
456 1 0.175479 0.832804 0.207582
299 1 0.278055 0.783892 0.169326
304 1 0.321671 0.833922 0.173122
460 1 0.272323 0.839141 0.225489
306 1 0.432664 0.82177 0.17463
464 1 0.387508 0.830623 0.231521
321 1 0.392963 0.886529 0.182659
469 1 0.0128017 0.896044 0.228463
314 1 0.113598 0.954081 0.172151
470 1 0.0580926 0.952506 0.225017
169 1 0.176199 0.998783 0.167388
313 1 0.171537 0.891848 0.156959
477 1 0.223934 0.900183 0.231509
318 1 0.223071 0.943961 0.164042
474 1 0.16933 0.953609 0.22422
481 1 0.329743 0.889942 0.225547
317 1 0.270439 0.890788 0.17532
322 1 0.330159 0.934417 0.16462
478 1 0.279328 0.949105 0.223385
1622 1 0.499186 0.999661 0.168464
341 1 0.44181 0.994005 0.215347
485 1 0.45097 0.889368 0.225489
482 1 0.385109 0.949261 0.226744
324 1 0.436731 0.945942 0.171245
332 1 0.111637 0.0552581 0.281164
488 1 0.0596922 0.0568534 0.328398
509 1 0.10901 0.110905 0.329415
491 1 0.115449 0.00209595 0.340992
328 1 0.00241793 0.0604696 0.274875
336 1 0.224587 0.0597059 0.285247
492 1 0.169016 0.0518914 0.33314
495 1 0.225613 0.00182008 0.330997
331 1 0.176274 0.00497561 0.280784
513 1 0.216463 0.108294 0.344589
340 1 0.33551 0.0651469 0.273071
496 1 0.273331 0.069432 0.336892
335 1 0.281531 0.00400419 0.273716
353 1 0.282839 0.111046 0.276624
499 1 0.339335 0.0129238 0.333987
1784 1 0.489736 0.00920079 0.277391
342 1 0.435391 0.0570769 0.283548
500 1 0.384379 0.063665 0.333444
503 1 0.447333 0.00196547 0.337259
345 1 0.0566182 0.113952 0.276789
350 1 0.116942 0.168975 0.28337
506 1 0.0609836 0.168112 0.329822
363 1 0.064633 0.217628 0.279091
346 1 7.0922e-05 0.165573 0.269843
523 1 0.0029781 0.22209 0.335657
349 1 0.164602 0.112253 0.280891
354 1 0.215 0.166501 0.281585
510 1 0.163386 0.166436 0.338054
531 1 0.233699 0.21987 0.339739
517 1 0.340402 0.113508 0.324787
358 1 0.331359 0.17659 0.281626
514 1 0.270568 0.162764 0.331206
371 1 0.280241 0.221015 0.270683
535 1 0.331778 0.213692 0.339676
1963 1 0.499145 0.172585 0.342155
521 1 0.432806 0.117717 0.328935
357 1 0.387936 0.12096 0.274252
360 1 0.432936 0.172361 0.283835
518 1 0.390994 0.170933 0.338491
539 1 0.449028 0.221638 0.344275
1820 1 0.482926 0.219167 0.276889
1802 1 0.492422 0.119184 0.278708
527 1 0.109619 0.227342 0.346486
368 1 0.115793 0.271028 0.272837
524 1 0.0505095 0.275579 0.314898
545 1 0.112553 0.331198 0.32031
381 1 0.0620304 0.325733 0.26297
541 1 0.000600921 0.329628 0.319337
364 1 0.00284377 0.269454 0.262455
367 1 0.175998 0.222374 0.284933
372 1 0.229785 0.274322 0.282866
528 1 0.177015 0.27574 0.331839
385 1 0.168254 0.31796 0.270828
376 1 0.333859 0.2801 0.275459
532 1 0.279666 0.272047 0.339781
375 1 0.389785 0.234673 0.285866
378 1 0.452552 0.285288 0.282742
536 1 0.403634 0.275228 0.339194
393 1 0.397282 0.3315 0.283241
386 1 0.102545 0.389117 0.274962
542 1 0.0533067 0.39262 0.326809
563 1 0.101022 0.441169 0.333465
549 1 0.222969 0.337702 0.338808
390 1 0.220081 0.370081 0.272121
546 1 0.163833 0.383667 0.321724
567 1 0.216955 0.432588 0.331729
553 1 0.336986 0.337808 0.327887
389 1 0.282418 0.333757 0.275286
394 1 0.333776 0.391056 0.275057
550 1 0.28158 0.388204 0.335934
407 1 0.269327 0.428197 0.281319
571 1 0.330591 0.440991 0.327374
557 1 0.449595 0.337645 0.338308
396 1 0.446869 0.392915 0.278815
554 1 0.383892 0.389324 0.33669
575 1 0.443573 0.443999 0.343801
411 1 0.392954 0.444444 0.285062
1856 1 0.498175 0.443063 0.277988
1999 1 0.495577 0.391311 0.342208
399 1 0.049265 0.444987 0.275093
560 1 0.0496335 0.495792 0.337947
417 1 0.0552789 0.548807 0.279207
404 1 0.111366 0.495532 0.278189
581 1 0.110259 0.551151 0.331109
400 1 0.000316466 0.492039 0.289737
403 1 0.165062 0.450098 0.27784
408 1 0.224914 0.493211 0.279494
564 1 0.161912 0.502826 0.330718
585 1 0.215181 0.551458 0.33855
421 1 0.176185 0.548392 0.277268
412 1 0.335307 0.503687 0.284366
568 1 0.275508 0.485464 0.331172
589 1 0.337947 0.553937 0.334483
425 1 0.273354 0.54382 0.284481
1874 1 0.494162 0.554557 0.286568
414 1 0.444245 0.500038 0.292764
572 1 0.392361 0.495315 0.342128
429 1 0.394509 0.550303 0.278424
418 1 0.00363116 0.610205 0.281516
422 1 0.108994 0.604896 0.272889
578 1 0.0564988 0.60445 0.32925
599 1 0.107279 0.661133 0.325349
435 1 0.0540905 0.660217 0.266804
426 1 0.225748 0.600622 0.2782
582 1 0.160285 0.607956 0.329053
439 1 0.174065 0.663481 0.279414
603 1 0.226642 0.662069 0.336528
430 1 0.324678 0.599681 0.283556
586 1 0.278353 0.606057 0.337761
607 1 0.324245 0.66603 0.335396
447 1 0.374665 0.665935 0.274762
443 1 0.280381 0.665669 0.278745
1892 1 0.498064 0.657267 0.276099
2035 1 0.497543 0.607353 0.333233
593 1 0.440601 0.563343 0.342469
432 1 0.444093 0.606236 0.279556
590 1 0.382626 0.606534 0.338909
611 1 0.43953 0.649312 0.331049
440 1 0.1059 0.719228 0.27315
596 1 0.0492544 0.725581 0.354837
595 1 0.0060522 0.668157 0.330202
436 1 0.00474598 0.730235 0.27455
613 1 0.00600588 0.775319 0.331996
444 1 0.214393 0.720237 0.294122
600 1 0.155604 0.724757 0.326774
448 1 0.329533 0.729488 0.286402
604 1 0.275488 0.719757 0.337584
461 1 0.26427 0.777566 0.284776
1910 1 0.493559 0.768951 0.278818
450 1 0.439855 0.722169 0.277187
608 1 0.390666 0.712604 0.332434
465 1 0.385114 0.774855 0.268745
617 1 0.103011 0.778972 0.334977
453 1 0.0567658 0.7835 0.274961
458 1 0.12227 0.835563 0.27362
614 1 0.0511552 0.835436 0.33367
635 1 0.11003 0.887054 0.329644
454 1 0.00196074 0.833865 0.286811
457 1 0.172905 0.786704 0.268687
621 1 0.222246 0.780922 0.347107
462 1 0.220634 0.83769 0.280054
618 1 0.163833 0.829699 0.328832
625 1 0.319533 0.782483 0.332756
466 1 0.329067 0.834643 0.275519
622 1 0.278973 0.841828 0.340667
1928 1 0.492703 0.886406 0.287105
629 1 0.430308 0.778804 0.329522
468 1 0.441614 0.832224 0.276331
626 1 0.37535 0.835418 0.333548
2071 1 0.49201 0.824618 0.338054
472 1 0.00946649 0.946183 0.28105
327 1 0.0659602 0.998251 0.280668
471 1 0.0735367 0.897197 0.269453
476 1 0.120007 0.953244 0.278411
632 1 0.0615383 0.948296 0.331901
475 1 0.164855 0.898585 0.286691
639 1 0.219371 0.895927 0.336202
480 1 0.2199 0.947615 0.284296
636 1 0.168706 0.952035 0.346272
479 1 0.277144 0.898975 0.28341
643 1 0.332899 0.893408 0.331152
484 1 0.334031 0.944142 0.27489
640 1 0.27921 0.954229 0.329121
339 1 0.387909 0.996954 0.280677
647 1 0.431145 0.893985 0.330776
483 1 0.386015 0.890993 0.26621
486 1 0.447761 0.946283 0.276531
644 1 0.381931 0.949938 0.334241
651 1 0.111986 0.00337732 0.445298
489 1 0.04106 0.0076925 0.38442
494 1 0.115743 0.0595764 0.383529
650 1 0.050005 0.0604174 0.43356
660 1 0.102763 0.107308 0.44438
493 1 0.170064 0.0053667 0.392039
653 1 0.208653 0.00276435 0.448365
498 1 0.221142 0.0574666 0.392936
652 1 0.162247 0.0571554 0.444542
511 1 0.164559 0.108482 0.394532
735 1 0.212657 0.0636384 0.496848
497 1 0.280231 0.0147719 0.37915
655 1 0.331706 0.0053419 0.440862
502 1 0.336726 0.0605558 0.384288
654 1 0.280576 0.055698 0.445274
745 1 0.397275 0.108295 0.49879
501 1 0.39591 0.00350426 0.385842
657 1 0.448234 0.00498951 0.433713
504 1 0.440963 0.0616072 0.384396
656 1 0.386653 0.0569318 0.440833
666 1 0.447158 0.108119 0.451066
738 1 0.446195 0.047032 0.49285
736 1 0.390366 0.0130439 0.49562
507 1 0.0554309 0.117736 0.380224
512 1 0.110297 0.166323 0.396074
659 1 0.0572161 0.170652 0.455658
525 1 0.0574927 0.21986 0.396651
508 1 0.00474624 0.167912 0.378491
658 1 0.00862632 0.120421 0.447254
740 1 0.00310987 0.179663 0.499163
662 1 0.216557 0.112323 0.449462
516 1 0.21463 0.167639 0.386353
661 1 0.159053 0.162875 0.443866
671 1 0.224382 0.21864 0.454093
744 1 0.215822 0.162665 0.498247
664 1 0.336439 0.11227 0.444072
515 1 0.275801 0.126848 0.389841
520 1 0.33463 0.164955 0.389285
663 1 0.280736 0.162825 0.454635
673 1 0.331442 0.213538 0.451869
533 1 0.27428 0.211579 0.396085
519 1 0.391574 0.113349 0.397445
665 1 0.391635 0.170961 0.451587
522 1 0.442431 0.159776 0.394592
537 1 0.39037 0.213801 0.392736
675 1 0.450356 0.218116 0.43878
747 1 0.452209 0.173241 0.499068
526 1 0.000480531 0.274288 0.384037
667 1 0.00516082 0.224874 0.446365
669 1 0.112442 0.234553 0.44576
530 1 0.121984 0.285257 0.384706
668 1 0.0574653 0.280477 0.439975
678 1 0.115767 0.33157 0.446723
543 1 0.0562422 0.331867 0.379883
529 1 0.173325 0.232024 0.400544
534 1 0.229066 0.277865 0.392878
670 1 0.181656 0.284185 0.447103
750 1 0.168492 0.222947 0.494494
753 1 0.235676 0.275351 0.496878
538 1 0.336559 0.267753 0.385083
672 1 0.285814 0.270479 0.442814
682 1 0.337594 0.330491 0.449962
551 1 0.287021 0.327081 0.388337
756 1 0.454346 0.271882 0.497649
555 1 0.393961 0.326311 0.399421
540 1 0.450967 0.271154 0.397588
674 1 0.398052 0.265718 0.448195
684 1 0.448825 0.327501 0.447945
544 1 0.00276388 0.382122 0.382718
548 1 0.108484 0.387821 0.379609
677 1 0.0605637 0.386306 0.449181
561 1 0.0531163 0.432744 0.395043
687 1 0.114067 0.441057 0.444953
676 1 0.0124079 0.33775 0.443226
547 1 0.170936 0.351135 0.378556
680 1 0.232002 0.336565 0.446224
552 1 0.236225 0.37963 0.391009
679 1 0.164642 0.385906 0.439962
565 1 0.166167 0.433464 0.38497
689 1 0.216867 0.437192 0.444291
762 1 0.218498 0.387854 0.495866
770 1 0.276358 0.443277 0.494402
556 1 0.335446 0.382842 0.386124
681 1 0.288002 0.387084 0.445576
569 1 0.278381 0.439338 0.39127
764 1 0.331621 0.389561 0.499695
2215 1 0.495604 0.339444 0.498861
558 1 0.435088 0.382485 0.390028
683 1 0.375583 0.385651 0.447566
2224 1 0.492079 0.438896 0.491519
693 1 0.440549 0.440373 0.433919
573 1 0.386753 0.438786 0.392712
765 1 0.434373 0.384358 0.495763
566 1 0.110364 0.485013 0.393516
686 1 0.0534048 0.501435 0.446125
696 1 0.109444 0.548392 0.443763
579 1 0.0650534 0.545021 0.385625
777 1 0.160274 0.555286 0.48817
771 1 0.219651 0.493106 0.498093
570 1 0.21789 0.488705 0.387637
688 1 0.171163 0.48984 0.442057
698 1 0.225744 0.55103 0.438574
583 1 0.16879 0.539923 0.392641
773 1 0.32311 0.491237 0.498574
691 1 0.324855 0.44787 0.441943
574 1 0.335265 0.495736 0.383404
690 1 0.275913 0.500018 0.436389
587 1 0.276548 0.544932 0.380918
772 1 0.377675 0.447943 0.494846
2018 1 0.49685 0.445425 0.390833
781 1 0.37882 0.548828 0.499199
576 1 0.445819 0.505006 0.389131
692 1 0.391813 0.500774 0.446367
591 1 0.384714 0.555186 0.395376
774 1 0.451469 0.509457 0.490004
580 1 0.00474412 0.611686 0.385715
584 1 0.110919 0.598998 0.382247
695 1 0.0589168 0.604686 0.444134
705 1 0.107321 0.658818 0.435091
597 1 0.0576077 0.658208 0.387325
784 1 0.0546566 0.662927 0.491744
778 1 0.11194 0.611013 0.495375
780 1 0.212771 0.59906 0.495714
697 1 0.168884 0.606828 0.441286
588 1 0.220197 0.60316 0.388191
601 1 0.163499 0.658242 0.377682
592 1 0.327539 0.612955 0.400619
699 1 0.272178 0.607125 0.439726
605 1 0.276074 0.661318 0.392443
700 1 0.335824 0.555771 0.449231
2054 1 0.494254 0.655181 0.389139
702 1 0.44786 0.559822 0.439413
594 1 0.431247 0.614352 0.402931
609 1 0.381775 0.661351 0.38951
701 1 0.383948 0.618386 0.457308
711 1 0.442721 0.666072 0.454037
783 1 0.439565 0.603944 0.494023
714 1 0.10444 0.777209 0.446826
704 1 0.0570599 0.71466 0.436707
602 1 0.117242 0.730467 0.392983
793 1 0.0504946 0.777612 0.491875
787 1 0.114165 0.717601 0.48496
785 1 0.00348095 0.721067 0.490927
606 1 0.221773 0.714592 0.385725
706 1 0.175088 0.721775 0.440923
707 1 0.214171 0.667439 0.444975
789 1 0.22059 0.723248 0.49602
709 1 0.328783 0.669261 0.452297
708 1 0.274871 0.725568 0.448151
610 1 0.326573 0.720973 0.398245
718 1 0.329406 0.774903 0.452057
2072 1 0.483908 0.770258 0.386208
2161 1 0.497227 0.726929 0.447128
799 1 0.384769 0.776287 0.49673
627 1 0.375184 0.772986 0.390858
710 1 0.393579 0.720455 0.448105
612 1 0.445933 0.702108 0.386862
616 1 0.00101411 0.828735 0.389488
633 1 0.0422921 0.888804 0.392569
713 1 0.0378168 0.837287 0.447299
620 1 0.112778 0.835305 0.388098
615 1 0.0625759 0.78303 0.39353
796 1 0.115754 0.834787 0.490389
624 1 0.215693 0.846369 0.383962
715 1 0.167174 0.830722 0.437047
619 1 0.164381 0.779285 0.381656
716 1 0.216671 0.784007 0.43776
800 1 0.328614 0.843793 0.490163
797 1 0.27121 0.782453 0.490047
623 1 0.279947 0.78264 0.392983
628 1 0.329469 0.840366 0.401376
717 1 0.270167 0.841399 0.449303
719 1 0.389988 0.839129 0.442184
630 1 0.436263 0.844079 0.386769
2090 1 0.499683 0.884642 0.386449
2170 1 0.491648 0.832248 0.438882
720 1 0.435949 0.780548 0.445707
2251 1 0.496757 0.78686 0.498316
723 1 0.102348 0.890846 0.431495
722 1 0.0478508 0.937338 0.451312
638 1 0.099608 0.946897 0.389422
730 1 0.0509962 0.998154 0.483168
637 1 0.158279 0.892586 0.384264
724 1 0.15538 0.948219 0.443132
642 1 0.229866 0.958959 0.388155
725 1 0.221685 0.903519 0.449217
804 1 0.169265 0.896277 0.498788
726 1 0.27231 0.9599 0.456424
646 1 0.324805 0.954237 0.381505
641 1 0.268062 0.898217 0.386614
727 1 0.318457 0.90487 0.440528
809 1 0.328527 0.958066 0.494831
728 1 0.390703 0.948904 0.434806
648 1 0.449761 0.941701 0.381426
729 1 0.445329 0.894398 0.443513
2260 1 0.496581 0.894466 0.4951
808 1 0.380779 0.896806 0.490317
645 1 0.380852 0.893522 0.389941
2179 1 0.494138 0.941274 0.443711
810 1 0.441687 0.959438 0.495019
812 1 0.0535868 0.0514401 0.557875
818 1 0.107667 0.0547271 0.614078
813 1 0.0536828 0.00359386 0.617658
815 1 0.102982 0.0043991 0.563865
833 1 0.0996553 0.11087 0.558919
733 1 0.102064 0.048773 0.50876
731 1 0.010521 0.0574308 0.504284
816 1 0.156009 0.0660629 0.560797
822 1 0.225366 0.0563614 0.616961
817 1 0.172383 0.00191713 0.601546
819 1 0.230664 0.0165293 0.5531
837 1 0.213733 0.10305 0.553371
835 1 0.171086 0.109461 0.61883
732 1 0.166187 0.00812351 0.515591
741 1 0.149945 0.106688 0.50779
820 1 0.278319 0.0632266 0.561008
826 1 0.337269 0.0583837 0.613972
823 1 0.337608 0.0098454 0.551741
839 1 0.28638 0.10701 0.616828
734 1 0.283468 0.00500869 0.505761
821 1 0.288677 0.00376566 0.609599
737 1 0.33082 0.0639097 0.501113
824 1 0.395417 0.0567009 0.558953
828 1 0.448724 0.0492523 0.612563
827 1 0.451548 0.00219124 0.556159
845 1 0.453724 0.105145 0.55653
825 1 0.395306 0.00343109 0.611305
843 1 0.401408 0.105722 0.610688
831 1 0.0599751 0.111866 0.610501
830 1 0.0572879 0.17251 0.55683
836 1 0.110298 0.168543 0.623865
849 1 0.0555468 0.21898 0.617457
832 1 0.00726008 0.166257 0.61925
742 1 0.118027 0.165308 0.508423
739 1 0.0553188 0.120292 0.507091
834 1 0.162274 0.163049 0.560384
840 1 0.214688 0.165173 0.61333
841 1 0.34001 0.111139 0.556313
838 1 0.279367 0.179407 0.567041
844 1 0.333107 0.160967 0.614907
746 1 0.332601 0.173007 0.518766
752 1 0.278875 0.220287 0.501452
743 1 0.273514 0.113654 0.507733
842 1 0.392301 0.159573 0.564126
846 1 0.444443 0.163426 0.612941
861 1 0.389497 0.211645 0.614761
2287 1 0.490939 0.180791 0.555799
754 1 0.384565 0.215104 0.505632
851 1 0.112226 0.222665 0.562828
848 1 0.0477351 0.277429 0.560224
854 1 0.119168 0.28138 0.61346
869 1 0.114893 0.332334 0.561244
867 1 0.0505874 0.329234 0.614909
757 1 0.0607565 0.330297 0.500849
749 1 0.00542317 0.278327 0.505113
748 1 0.059762 0.2284 0.507523
751 1 0.117659 0.28185 0.50644
855 1 0.224222 0.230426 0.55019
853 1 0.174246 0.230223 0.616816
852 1 0.175142 0.280546 0.552569
858 1 0.22221 0.288584 0.609937
859 1 0.331963 0.236523 0.555749
856 1 0.28 0.281726 0.558928
877 1 0.328549 0.326374 0.548686
755 1 0.330154 0.271275 0.500195
862 1 0.333483 0.277518 0.612414
863 1 0.439761 0.225331 0.564418
860 1 0.396042 0.27873 0.544002
864 1 0.44195 0.282563 0.613092
879 1 0.391483 0.332066 0.598348
881 1 0.447028 0.326356 0.554213
866 1 0.0561722 0.381476 0.564956
872 1 0.119428 0.385902 0.615922
760 1 0.111583 0.385912 0.500052
868 1 0.00576939 0.382583 0.612425
885 1 0.0524403 0.443616 0.609265
758 1 0.00801868 0.386919 0.510419
768 1 0.164633 0.438793 0.502057
871 1 0.172815 0.339703 0.607373
873 1 0.225214 0.336339 0.553954
870 1 0.1685 0.391218 0.556772
876 1 0.223991 0.386183 0.609294
891 1 0.219167 0.43917 0.555933
759 1 0.168773 0.338894 0.506624
875 1 0.283749 0.335418 0.614491
874 1 0.275482 0.395638 0.553191
880 1 0.335323 0.381552 0.601934
893 1 0.274743 0.443858 0.607134
761 1 0.27374 0.340341 0.505208
878 1 0.38511 0.401362 0.549856
882 1 0.43874 0.397965 0.600485
763 1 0.383223 0.334124 0.506513
887 1 0.106886 0.453278 0.559573
884 1 0.0427489 0.495311 0.561927
890 1 0.106037 0.495965 0.612786
905 1 0.117763 0.553227 0.553732
766 1 0.0568048 0.446506 0.505657
903 1 0.0536655 0.54936 0.607616
901 1 0.00410948 0.545534 0.556578
769 1 0.114302 0.497582 0.500391
775 1 0.0602891 0.543109 0.500443
889 1 0.168699 0.444679 0.612439
888 1 0.17441 0.493039 0.552025
894 1 0.212567 0.497252 0.617178
909 1 0.206255 0.551922 0.547681
907 1 0.158418 0.548878 0.615638
895 1 0.319783 0.446793 0.550776
892 1 0.255814 0.507958 0.559763
898 1 0.32231 0.497129 0.615459
913 1 0.325215 0.551208 0.54994
911 1 0.280527 0.555056 0.620012
897 1 0.377551 0.447123 0.614425
899 1 0.441135 0.458633 0.549815
896 1 0.38204 0.498981 0.549152
900 1 0.440285 0.500088 0.610752
915 1 0.385508 0.550385 0.607548
917 1 0.439432 0.546041 0.554507
2342 1 0.497922 0.452034 0.604337
902 1 0.0605256 0.610691 0.5529
908 1 0.122146 0.608132 0.605937
921 1 0.0495615 0.664232 0.615705
923 1 0.115647 0.662954 0.547717
904 1 0.000491958 0.614791 0.603906
906 1 0.167911 0.614591 0.552863
912 1 0.213311 0.612772 0.619408
927 1 0.213577 0.665623 0.560834
786 1 0.175306 0.65871 0.504157
782 1 0.329571 0.603938 0.503371
910 1 0.259993 0.609919 0.55713
916 1 0.327938 0.616131 0.606459
931 1 0.322911 0.663993 0.545533
788 1 0.266949 0.664586 0.506891
779 1 0.27546 0.557194 0.50079
914 1 0.389609 0.615413 0.554604
918 1 0.435924 0.616894 0.602097
2359 1 0.487086 0.604887 0.548173
920 1 0.0616819 0.715887 0.546099
926 1 0.106694 0.740218 0.611647
919 1 0.00923758 0.672432 0.549119
937 1 0.00890574 0.772848 0.549851
925 1 0.163588 0.669494 0.612555
924 1 0.155879 0.723126 0.562814
930 1 0.219691 0.717776 0.604946
795 1 0.161681 0.77484 0.50084
929 1 0.277362 0.668245 0.613829
928 1 0.266511 0.716776 0.554271
934 1 0.326191 0.723459 0.605988
791 1 0.320327 0.726423 0.50415
935 1 0.445344 0.666701 0.556699
933 1 0.379796 0.667861 0.611615
932 1 0.394134 0.720138 0.556792
936 1 0.444189 0.733711 0.607526
792 1 0.443624 0.729584 0.502975
790 1 0.385384 0.680091 0.503855
2242 1 0.499448 0.675994 0.501767
939 1 0.053649 0.778857 0.606297
941 1 0.10572 0.783423 0.549382
938 1 0.0490573 0.834868 0.554819
944 1 0.10846 0.834518 0.606608
957 1 0.0602759 0.886252 0.606359
802 1 0.0521758 0.888577 0.507142