ITEM: TIMESTEP
19100
ITEM: NUMBER OF ATOMS
864
ITEM: BOX BOUNDS pp pp pp
0.0000000000000000e+00 3.1559999999999999e+01
0.0000000000000000e+00 3.1559999999999999e+01
0.0000000000000000e+00 3.1559999999999999e+01
ITEM: ATOMS id type xs ys zs
11 1 0.417184 -0.00477169 0.0848966
89 1 0.67555 0.00154237 0.171681
511 1 0.25828 0.493695 0.249131
101 1 0.161688 0.147859 0.171191
6 1 0.250441 0.0770045 -0.0113839
79 1 0.257098 -0.0170361 0.246302
8 1 0.171839 0.0758711 0.0705918
12 1 0.335966 0.0657896 0.09457
31 1 0.24918 0.158079 0.0977187
214 1 0.930483 0.40766 0.339599
16 1 0.503654 0.0937404 0.0843081
216 1 0.841666 0.417309 0.400515
587 1 0.419292 0.503239 0.406076
82 1 0.424841 0.0629003 0.176928
109 1 0.512465 0.155483 0.178496
577 1 0.00218001 0.498033 0.325613
20 1 0.674872 0.0879218 0.0785588
39 1 0.576758 0.17038 0.0842358
86 1 0.592001 0.0797114 0.161214
523 1 0.749523 0.486299 0.253286
90 1 0.755053 0.0886365 0.170788
24 1 0.835382 0.0819213 0.0880814
209 1 0.652386 0.338161 0.336764
4 1 -0.00710711 0.0859433 0.0790058
94 1 0.900781 0.0869575 0.164635
18 1 0.742308 0.0880086 -0.0164541
27 1 0.0939885 0.157463 0.07569
32 1 0.170757 0.242787 0.0794234
28 1 1.01249 0.227649 0.0743095
51 1 0.0904784 0.330247 0.0854984
102 1 0.232578 0.238733 0.174431
125 1 0.149432 0.329319 0.174938
55 1 0.254945 0.329518 0.0956667
589 1 0.515714 0.504995 0.324425
525 1 0.827017 0.485656 0.158328
36 1 0.321531 0.243725 0.0918709
35 1 0.411952 0.159259 0.121867
59 1 0.404318 0.332803 0.0900445
7 1 0.242276 0.00949434 0.101671
58 1 0.404533 0.415528 0.001771
57 1 0.332303 0.343229 0.00109056
40 1 0.483273 0.229707 0.0794566
43 1 0.759281 0.159443 0.0844292
44 1 0.675485 0.235739 0.0766285
67 1 0.747358 0.326244 0.076525
48 1 0.825126 0.24813 0.0883643
47 1 0.904867 0.171607 0.0833091
141 1 0.839184 0.332156 0.167796
71 1 0.916556 0.310772 0.0781347
222 1 0.243094 0.0872887 0.49056
122 1 0.0859328 0.416344 0.14996
33 1 0.329177 0.167823 0.0141679
54 1 0.250988 0.404936 -0.0137505
221 1 0.171465 0.00155569 0.497736
56 1 0.165598 0.418839 0.0764621
126 1 0.251006 0.424406 0.161712
217 1 1.01049 0.00117661 0.516222
167 1 0.910244 -0.0117743 0.410246
145 1 0.987221 0.00950051 0.317563
60 1 0.323759 0.423018 0.0783132
64 1 0.497777 0.419954 0.0899584
593 1 0.659084 0.507056 0.319277
246 1 0.24303 0.269013 0.490183
199 1 0.265861 0.337207 0.407852
63 1 0.582051 0.315491 0.0897611
134 1 0.581538 0.424283 0.160301
455 1 0.914549 0.491766 0.079362
194 1 0.078583 0.413404 0.343508
192 1 0.818782 0.261662 0.438987
266 1 0.0867568 0.426481 0.506048
68 1 0.649884 0.409965 0.0763179
245 1 0.15778 0.169926 0.501727
206 1 0.567714 0.410434 0.356239
52 1 -0.00963244 0.402873 0.090406
72 1 0.836263 0.406802 0.0778032
211 1 0.743529 0.329956 0.425537
212 1 0.665242 0.431762 0.406719
74 1 0.076991 0.0736634 0.173065
80 1 0.170549 0.0766115 0.271109
99 1 0.071683 0.152921 0.251771
213 1 0.83368 0.332875 0.336778
188 1 0.674881 0.255025 0.416134
19 1 0.755647 -0.00799423 0.0757058
78 1 0.246659 0.0755127 0.18149
173 1 0.155883 0.165765 0.327538
103 1 0.250674 0.161398 0.263308
61 1 0.485539 0.338619 -0.00272123
105 1 0.32739 0.135231 0.178838
84 1 0.347253 0.0782269 0.268071
107 1 0.414677 0.151353 0.236957
177 1 0.327628 0.170083 0.330981
203 1 0.401054 0.339058 0.420085
201 1 0.348045 0.319252 0.328961
88 1 0.510801 0.0702726 0.23659
111 1 0.597959 0.151547 0.247814
92 1 0.690736 0.0853642 0.256587
115 1 0.753666 0.178905 0.261337
76 1 0.983699 0.0849451 0.241898
96 1 0.825079 0.100219 0.256871
119 1 0.908537 0.159042 0.246994
117 1 0.844265 0.177062 0.171975
205 1 0.493824 0.332551 0.34508
121 1 1.01337 0.331868 0.183306
97 1 0.985062 0.154587 0.158696
98 1 0.0682796 0.235437 0.16682
100 1 0.00872127 0.259148 0.254243
123 1 0.0878423 0.334287 0.259239
170 1 0.0753789 0.231705 0.322774
129 1 0.321059 0.318816 0.174611
104 1 0.146187 0.229118 0.236818
127 1 0.246906 0.321218 0.248838
108 1 0.347062 0.233775 0.240402
106 1 0.431592 0.266549 0.166797
131 1 0.42345 0.327082 0.249607
181 1 0.505423 0.16894 0.331115
112 1 0.498909 0.245797 0.252258
110 1 0.576444 0.247768 0.170671
133 1 0.498579 0.338578 0.175715
113 1 0.678189 0.160596 0.16582
114 1 0.74458 0.249992 0.167273
137 1 0.646131 0.328822 0.169694
185 1 0.66395 0.146938 0.34034
116 1 0.655109 0.247747 0.24799
139 1 0.755419 0.333879 0.252477
186 1 0.747109 0.258945 0.336771
118 1 0.925091 0.251012 0.159265
120 1 0.849384 0.2534 0.239193
143 1 0.914393 0.341655 0.250292
190 1 0.926092 0.257346 0.337342
208 1 0.479969 0.419576 0.422449
128 1 0.172082 0.420542 0.242663
132 1 0.339962 0.402197 0.248273
77 1 0.151714 -0.00378157 0.177736
130 1 0.403455 0.418192 0.162986
202 1 0.41133 0.40742 0.339042
136 1 0.498868 0.414244 0.253557
505 1 1.00217 0.486848 0.163956
135 1 0.580188 0.336626 0.264187
581 1 0.182889 0.487265 0.330147
140 1 0.667197 0.413749 0.245391
210 1 0.747846 0.41047 0.327816
138 1 0.75081 0.405846 0.167935
200 1 0.180204 0.4231 0.419499
124 1 -0.00641442 0.422793 0.250015
144 1 0.842031 0.423229 0.254794
142 1 0.917955 0.403632 0.158487
146 1 0.0668577 0.0757464 0.33888
152 1 0.160243 0.0858511 0.400853
150 1 0.258157 0.0791573 0.347087
156 1 0.345343 0.0784826 0.423391
507 1 0.0786923 0.492208 0.25005
175 1 0.241914 0.175095 0.41746
196 1 0.99015 0.404952 0.429135
154 1 0.424095 0.102217 0.345733
179 1 0.426595 0.170913 0.423708
160 1 0.502766 0.0742234 0.418537
158 1 0.576427 0.0830542 0.323718
183 1 0.578152 0.157388 0.424946
164 1 0.655876 0.085577 0.421568
519 1 0.581524 0.505843 0.236378
215 1 0.910757 0.326009 0.412952
207 1 0.596739 0.317876 0.424975
193 1 1.01317 0.326424 0.342442
162 1 0.754573 0.0932866 0.343236
189 1 0.843316 0.162654 0.352908
187 1 0.758586 0.17289 0.427259
198 1 0.266886 0.429051 0.34272
148 1 0.994249 0.0771196 0.416024
168 1 0.830875 0.0816483 0.425037
166 1 0.918977 0.0936422 0.335195
191 1 0.923814 0.159614 0.43259
169 1 0.994003 0.164555 0.33002
171 1 0.0630836 0.162587 0.421508
195 1 0.092717 0.33788 0.421231
172 1 1.00072 0.252553 0.426383
176 1 0.156382 0.243758 0.414782
197 1 0.17295 0.335612 0.3464
174 1 0.232787 0.247446 0.324733
204 1 0.345028 0.428633 0.434964
180 1 0.334489 0.243552 0.423248
178 1 0.41613 0.23493 0.338104
184 1 0.497776 0.251338 0.413072
182 1 0.595216 0.241045 0.346581
23 1 0.920345 0.0136333 0.0706722
447 1 0.585853 0.496849 0.0888303
521 1 0.675713 0.504475 0.154525
218 1 0.100936 0.0786642 0.490392
161 1 0.659727 -0.00690396 0.337919
3 1 0.0817089 0.0238089 0.0813177
75 1 0.0788114 0.00646906 0.258497
241 1 -0.00494066 0.155087 0.507093
242 1 0.0766111 0.246023 0.501085
258 1 0.741469 0.25461 0.513575
234 1 0.739878 0.100469 0.498003
14 1 0.580033 0.0896596 -0.00990954
230 1 0.590704 0.0834492 0.49534
30 1 0.250906 0.238685 0.0104645
281 1 0.665534 0.329146 0.505116
50 1 0.0768627 0.414352 0.00538292
53 1 0.165642 0.335127 -0.00431998
225 1 0.341656 0.00154405 0.492978
278 1 0.580247 0.424312 0.496396
34 1 0.404341 0.248229 0.0106405
62 1 0.572736 0.404306 0.00793527
269 1 0.173645 0.342471 0.48508
21 1 0.833474 -0.00649142 -0.00289449
669 1 0.842322 0.504844 0.511481
815 1 0.920556 0.502287 0.925072
290 1 0.0974651 0.0813177 0.667853
224 1 0.176874 0.0797907 0.579103
243 1 0.0881697 0.160304 0.582205
254 1 0.582583 0.24496 0.499688
453 1 0.832189 0.510387 1.00633
247 1 0.23824 0.168089 0.575123
228 1 0.32505 0.0785352 0.575144
412 1 0.0263743 0.410536 0.905957
298 1 0.408536 0.0728854 0.664227
232 1 0.501425 0.0700855 0.586343
325 1 0.500923 0.1644 0.65549
289 1 0.0151763 -0.00676845 0.668139
432 1 0.845713 0.411813 0.926651
309 1 0.824397 0.00855236 0.663713
255 1 0.583834 0.151176 0.58109
282 1 0.752144 0.418229 0.501724
375 1 0.584552 0.0142097 0.91456
236 1 0.667953 0.0879013 0.574591
259 1 0.757055 0.172824 0.586974
249 1 0.33727 0.153523 0.50543
240 1 0.838898 0.0754807 0.575615
220 1 0.00109478 0.0767376 0.607183
263 1 0.913908 0.154301 0.592754
70 1 0.931264 0.409138 0.998882
248 1 0.159555 0.250928 0.569177
797 1 0.15986 0.514262 0.832242
66 1 0.746705 0.405544 0.983759
252 1 0.33427 0.242204 0.57564
318 1 0.242534 0.242953 0.661842
257 1 0.658326 0.168262 0.49131
735 1 0.577232 0.50427 0.75462
251 1 0.414749 0.165026 0.577702
275 1 0.430602 0.328509 0.588877
256 1 0.498551 0.245161 0.581388
322 1 0.421484 0.247812 0.664197
295 1 0.2521 -0.00699262 0.751117
303 1 0.587859 -0.0159531 0.747919
326 1 0.579945 0.247733 0.664047
329 1 0.658041 0.177995 0.673048
260 1 0.673603 0.248091 0.594042
264 1 0.838243 0.244114 0.585913
330 1 0.747923 0.247114 0.67334
277 1 0.506156 0.319492 0.49533
244 1 -0.00469916 0.239863 0.583955
811 1 0.76178 0.502191 0.924721
337 1 0.00965911 0.33393 0.670042
334 1 0.933255 0.238656 0.663305
807 1 0.574859 0.491202 0.926955
267 1 0.0928655 0.335656 0.587201
338 1 0.0898438 0.421877 0.665843
38 1 0.573094 0.2454 1.00626
271 1 0.243476 0.345257 0.582056
272 1 0.158657 0.428187 0.582948
341 1 0.170845 0.332753 0.666428
801 1 0.325243 0.500024 0.838709
276 1 0.333584 0.427255 0.592853
346 1 0.414205 0.420537 0.677563
280 1 0.494599 0.420817 0.59563
428 1 0.652115 0.409727 0.921499
274 1 0.415662 0.410755 0.510189
367 1 0.242668 -0.00851181 0.91666
279 1 0.588654 0.328948 0.591839
353 1 0.675659 0.335324 0.669408
284 1 0.667203 0.419713 0.577671
429 1 0.851111 0.31083 0.823651
431 1 0.921135 0.332661 0.91237
408 1 0.832234 0.235464 0.913436
427 1 0.762381 0.326847 0.896884
283 1 0.771412 0.325366 0.596843
288 1 0.838547 0.418193 0.600962
357 1 0.837605 0.319434 0.67045
426 1 0.770725 0.416684 0.827397
287 1 0.924174 0.336234 0.600329
737 1 0.661494 0.501523 0.670088
268 1 0.00856362 0.416834 0.592079
404 1 0.65332 0.248088 0.907158
667 1 0.754228 0.492298 0.585899
317 1 0.15503 0.178542 0.662673
296 1 0.171711 0.0903903 0.754401
315 1 0.100367 0.187047 0.756186
385 1 0.00911914 0.166898 0.809233
294 1 0.230539 0.0769407 0.665928
319 1 0.259764 0.168847 0.752194
300 1 0.323676 0.0859474 0.735237
321 1 0.331694 0.166556 0.658205
323 1 0.417935 0.165366 0.74863
370 1 0.398446 0.0862317 0.823614
304 1 0.487461 0.066458 0.740985
302 1 0.573811 0.0655036 0.683013
424 1 0.489521 0.405358 0.903081
422 1 0.581818 0.416151 0.830087
308 1 0.654381 0.084564 0.74858
306 1 0.739204 0.0990914 0.670405
333 1 0.837446 0.149875 0.661718
312 1 0.832099 0.0795183 0.74835
401 1 0.644002 0.17292 0.819492
292 1 0.0100775 0.0844909 0.741662
310 1 0.917615 0.0810116 0.674889
382 1 0.921251 0.0876307 0.835655
335 1 0.915738 0.168033 0.745942
299 1 0.407321 -0.000694082 0.758739
409 1 0.00871769 0.342453 0.835493
314 1 0.0771312 0.257467 0.663235
339 1 0.0844186 0.318569 0.749925
320 1 0.163202 0.261391 0.747682
386 1 0.0865432 0.247116 0.838751
413 1 0.169601 0.341706 0.84032
390 1 0.256411 0.25715 0.832376
324 1 0.32892 0.258293 0.735352
345 1 0.33033 0.336144 0.657423
328 1 0.495995 0.235873 0.736355
347 1 0.412854 0.32681 0.735828
349 1 0.506178 0.33517 0.674461
394 1 0.413691 0.2511 0.829656
327 1 0.573114 0.156317 0.749645
397 1 0.492481 0.161913 0.827662
398 1 0.572263 0.241026 0.815812
332 1 0.673411 0.257055 0.745574
331 1 0.738526 0.163825 0.762291
336 1 0.836195 0.229854 0.731592
402 1 0.752888 0.245642 0.822919
425 1 0.650681 0.324998 0.826486
313 1 1.02002 0.170699 0.666804
316 1 0.00551746 0.249769 0.740141
406 1 0.928254 0.236267 0.833347
344 1 0.160832 0.412362 0.742954
340 1 1.01259 0.410666 0.749317
410 1 0.0983084 0.413537 0.824539
343 1 0.245601 0.339275 0.743496
342 1 0.245507 0.419356 0.661822
417 1 0.338839 0.338201 0.823437
661 1 0.50016 0.499343 0.496583
411 1 0.100125 0.329889 0.915121
423 1 0.570575 0.322491 0.904287
348 1 0.318744 0.424694 0.748521
352 1 0.505429 0.419367 0.751227
351 1 0.59056 0.329158 0.738436
350 1 0.593344 0.420606 0.674674
356 1 0.671063 0.407091 0.76117
355 1 0.749373 0.335619 0.747107
354 1 0.744573 0.432949 0.671466
430 1 0.924243 0.415941 0.824991
359 1 0.923656 0.329182 0.744762
360 1 0.844542 0.416902 0.744652
358 1 0.932356 0.427016 0.666467
362 1 0.103587 0.0713292 0.833153
364 1 0.0150926 0.0897298 0.906429
387 1 0.0962042 0.173115 0.91574
420 1 0.327829 0.413759 0.905931
368 1 0.180739 0.0808685 0.914914
366 1 0.263259 0.0911106 0.838526
418 1 0.416371 0.414704 0.814089
372 1 0.339082 0.0819139 0.912695
376 1 0.482456 0.0870623 0.91964
46 1 0.919761 0.237678 0.99584
665 1 0.678196 0.51246 0.488426
400 1 0.504538 0.232102 0.919116
10 1 0.406564 0.0840847 1.0015
374 1 0.576003 0.071193 0.825915
380 1 0.669601 0.0851921 0.905751
399 1 0.575311 0.159101 0.902294
421 1 0.502123 0.313283 0.807931
250 1 0.424785 0.259175 0.504671
379 1 0.752214 -0.00714009 0.923015
414 1 0.235706 0.422717 0.81826
378 1 0.761354 0.0795599 0.837205
405 1 0.837336 0.160405 0.830912
403 1 0.737401 0.168993 0.9036
286 1 0.927217 0.431025 0.506874
384 1 0.842705 0.0846023 0.918383
407 1 0.921147 0.16819 0.911019
388 1 0.00148534 0.255051 0.921994
416 1 0.171527 0.425021 0.917179
419 1 0.406911 0.333076 0.913091
389 1 0.176352 0.174575 0.846571
392 1 0.191461 0.23744 0.921332
415 1 0.253023 0.322964 0.920622
391 1 0.277215 0.169252 0.914992
396 1 0.333427 0.254803 0.928551
393 1 0.335842 0.176329 0.833066
395 1 0.412978 0.167098 0.919702
41 1 0.653656 0.166358 1.0021
26 1 0.0941948 0.247458 1.00932
301 1 0.502795 -0.0213181 0.66298
25 1 0.00949809 0.157657 0.988988
65 1 0.651192 0.312527 1.01402
663 1 0.567578 0.492529 0.588335
37 1 0.493832 0.161488 1.00208
361 1 1.00676 0.00308845 0.831775
227 1 0.413062 0.001154 0.57454
42 1 0.762383 0.254875 1.00114
45 1 0.8256 0.168295 0.997284
809 1 0.681605 0.482144 0.845299
270 1 0.252227 0.408031 0.501756
371 1 0.416526 -0.00141773 0.921892
445 1 0.497293 0.490603 1.00213
69 1 0.842706 0.319909 1.00064
649 1 1.0075 0.510399 0.4848
219 1 0.097982 0.00174562 0.586972
803 1 0.391697 0.497822 0.928544
49 1 0.0100321 0.32247 0.990746
285 1 0.847259 0.338858 0.511864
29 1 0.182539 0.160192 0.990484
22 1 0.912023 0.0958485 0.999639
5 1 0.163556 0.0027875 0.996599
2 1 0.0908997 0.0885323 0.991343
273 1 0.34041 0.333752 0.523023
262 1 0.915108 0.253011 0.503932
238 1 0.918323 0.0736813 0.496254
433 1 1.0044 0.494142 1.0001
253 1 0.504242 0.16125 0.500399
226 1 0.425183 0.0692408 0.496154
265 1 1.01833 0.345683 0.504331
261 1 0.839664 0.167289 0.506187
1 1 -0.00888533 -0.00574975 0.993173
506 1 0.0872557 0.596782 0.165117
440 1 0.178468 0.60654 0.100097
436 1 1.0021 0.586418 0.0917193
482 1 0.0846951 0.929786 6.48871e-05
463 1 0.253007 0.67424 0.0867713
510 1 0.264012 0.60434 0.169696
87 1 0.602984 1.00007 0.254742
444 1 0.34515 0.592821 0.0828703
448 1 0.497053 0.577287 0.0758133
471 1 0.590124 0.654931 0.0665201
541 1 0.492727 0.668699 0.175072
457 1 -0.00760645 0.663846 0.00498453
452 1 0.665813 0.579251 0.0786254
165 1 0.826455 1.01794 0.338961
714 1 0.742375 0.917337 0.49981
456 1 0.837118 0.592604 0.0784126
526 1 0.91176 0.578726 0.155318
83 1 0.419379 0.99181 0.258023
459 1 0.0895565 0.664208 0.0851238
460 1 1.01389 0.741822 0.0889361
464 1 0.162273 0.736274 0.097774
163 1 0.749216 0.998137 0.412928
487 1 0.232081 0.824195 0.0824578
534 1 0.260465 0.749806 0.162159
467 1 0.443533 0.665008 0.0871609
468 1 0.33582 0.757079 0.0887598
537 1 0.340096 0.674012 0.16713
538 1 0.432562 0.76002 0.157043
474 1 0.744583 0.750888 -0.00240117
579 1 0.0816384 0.496363 0.40979
472 1 0.526568 0.749752 0.0860742
476 1 0.651509 0.755273 0.0903692
542 1 0.586073 0.743314 0.172578
93 1 0.831316 0.999634 0.160901
545 1 0.66742 0.661337 0.159837
549 1 0.825464 0.666376 0.177211
475 1 0.737531 0.665969 0.082883
546 1 0.741374 0.739507 0.158681
517 1 0.499156 0.503255 0.166034
479 1 0.91561 0.674343 0.0857588
480 1 0.832661 0.733719 0.0736915
503 1 0.902246 0.81814 0.0671534
550 1 0.919942 0.751168 0.170943
483 1 0.0790665 0.854675 0.0802897
554 1 0.0803117 0.930498 0.174251
488 1 0.170151 0.937261 0.0820892
492 1 0.327685 0.93281 0.0877116
558 1 0.243308 0.92058 0.165688
491 1 0.405783 0.836149 0.0784873
496 1 0.501488 0.922839 0.082154
562 1 0.400483 0.913655 0.178207
515 1 0.422533 0.489705 0.257384
149 1 0.168358 0.99859 0.341822
495 1 0.586872 0.835933 0.0831938
500 1 0.674234 0.909986 0.0674807
443 1 0.411597 0.500607 0.0819869
569 1 0.666401 0.822865 0.167037
499 1 0.749038 0.82288 0.0846654
570 1 0.748968 0.920343 0.167069
159 1 0.587601 0.997295 0.416797
591 1 0.580508 0.501044 0.414117
647 1 0.916132 0.843182 0.408126
484 1 0.997049 0.932953 0.0851712
504 1 0.834763 0.9106 0.0906445
574 1 0.914377 0.924442 0.163654
485 1 0.155805 0.844012 0.0065112
531 1 0.0877156 0.667546 0.264618
512 1 0.178138 0.577287 0.265065
605 1 0.175064 0.677783 0.337501
533 1 0.167196 0.67114 0.183317
582 1 0.256088 0.579837 0.341473
516 1 0.317775 0.592194 0.255339
689 1 0.659164 0.650326 0.497956
514 1 0.410281 0.586618 0.17885
595 1 0.752946 0.501337 0.405013
586 1 0.432493 0.579758 0.33835
518 1 0.569294 0.58716 0.168532
520 1 0.502591 0.583793 0.251195
543 1 0.579145 0.66757 0.248749
524 1 0.656873 0.599975 0.243861
590 1 0.585237 0.585958 0.330152
522 1 0.748171 0.590291 0.164549
489 1 0.327281 0.839701 0.00728764
493 1 0.492814 0.826488 0.022999
547 1 0.743391 0.681128 0.24973
529 1 0.00688851 0.664801 0.161664
528 1 0.833897 0.572618 0.240047
508 1 -0.0186276 0.569988 0.234891
439 1 0.253719 0.516438 0.0975784
530 1 0.086927 0.75122 0.17305
555 1 0.0848875 0.848914 0.253146
602 1 0.0775712 0.755337 0.322016
629 1 0.154421 0.832895 0.333365
536 1 0.177605 0.762786 0.251914
557 1 0.159042 0.834583 0.157641
535 1 0.259754 0.680168 0.250991
559 1 0.245379 0.84333 0.250715
540 1 0.353924 0.755138 0.263465
539 1 0.421266 0.664966 0.252809
563 1 0.414883 0.845467 0.252728
609 1 0.343352 0.667401 0.340126
544 1 0.494771 0.770069 0.247077
614 1 0.572017 0.748565 0.335996
567 1 0.580022 0.834777 0.252963
613 1 0.495656 0.667543 0.341529
548 1 0.657803 0.747119 0.256907
618 1 0.7493 0.747856 0.337742
552 1 0.823133 0.760407 0.255784
601 1 -0.00708499 0.684523 0.320644
551 1 0.922486 0.672805 0.242766
532 1 1.00106 0.747876 0.241063
622 1 0.911825 0.755352 0.318951
556 1 -0.00281811 0.929801 0.237712
560 1 0.166068 0.921977 0.249551
643 1 0.74117 0.833735 0.415613
630 1 0.240202 0.906752 0.347407
561 1 0.334075 0.824656 0.176726
564 1 0.338741 0.922766 0.263016
565 1 0.498183 0.85674 0.161181
566 1 0.598819 0.918108 0.164789
568 1 0.50647 0.916795 0.250855
638 1 0.579387 0.921106 0.329884
513 1 0.341525 0.499543 0.165103
709 1 0.498218 0.842771 0.498858
509 1 0.175058 0.514621 0.180034
645 1 0.823069 0.835049 0.331213
572 1 0.669016 0.917454 0.255157
571 1 0.739518 0.819649 0.251489
576 1 0.824521 0.914695 0.240364
646 1 0.898075 0.925656 0.319296
642 1 0.746135 0.926788 0.331217
553 1 1.00277 0.832959 0.160352
573 1 0.831748 0.830517 0.169611
575 1 0.929068 0.845979 0.240542
648 1 0.822394 0.909556 0.415717
578 1 0.070023 0.580929 0.326335
584 1 0.163348 0.591823 0.407299
717 1 0.815977 0.83084 0.492405
17 1 0.669082 0.999675 0.00341912
607 1 0.262867 0.672491 0.411081
632 1 0.160188 0.90151 0.418351
85 1 0.519965 0.993686 0.154842
640 1 0.498456 0.923668 0.401699
588 1 0.341777 0.576466 0.418293
639 1 0.587745 0.847079 0.421284
490 1 0.403093 0.922935 0.00173281
617 1 0.659893 0.663911 0.329738
592 1 0.507379 0.585671 0.410545
596 1 0.661447 0.586602 0.411498
81 1 0.339057 1.00562 0.184102
644 1 0.66952 0.92086 0.415544
594 1 0.751133 0.574597 0.326124
600 1 0.84647 0.57593 0.416818
619 1 0.755669 0.661637 0.410599
641 1 0.673349 0.82804 0.332524
435 1 0.0774627 0.498218 0.081852
598 1 0.918363 0.571607 0.3178
580 1 0.986403 0.570342 0.409709
631 1 0.263967 0.813545 0.427788
477 1 0.837013 0.660619 -0.00430409
625 1 0.00164002 0.830944 0.329285
603 1 0.0702137 0.661951 0.404864
635 1 0.410824 0.843716 0.42359
626 1 0.0844079 0.92476 0.328105
73 1 -0.0107093 1.01559 0.160463
608 1 0.163152 0.748656 0.418463
606 1 0.260078 0.756727 0.343864
612 1 0.343876 0.742737 0.429023
611 1 0.411064 0.659221 0.420734
633 1 0.340918 0.833669 0.344566
610 1 0.426271 0.758289 0.348644
634 1 0.421398 0.90972 0.333753
616 1 0.522424 0.755495 0.426443
615 1 0.587965 0.675577 0.404509
91 1 0.76017 1.00158 0.248164
621 1 0.833558 0.669385 0.317736
624 1 0.838415 0.751584 0.406306
620 1 0.66852 0.740042 0.40917
698 1 0.0848463 0.911916 0.499626
623 1 0.928244 0.661901 0.408436
604 1 0.99737 0.752398 0.402108
627 1 0.0761366 0.837311 0.409219
637 1 0.504277 0.833251 0.339086
628 1 0.987771 0.921434 0.426701
636 1 0.335256 0.922627 0.410052
718 1 0.900284 0.910846 0.500251
15 1 0.594362 1.01089 0.0792564
153 1 0.347032 1.00523 0.349189
527 1 0.915068 0.492718 0.234549
151 1 0.246693 0.979035 0.421241
597 1 0.836253 0.498847 0.331484
583 1 0.261804 0.503373 0.424941
451 1 0.744206 0.474142 0.0750636
585 1 0.347217 0.500363 0.329732
233 1 0.673303 1.00898 0.487281
157 1 0.50026 1.00755 0.332289
155 1 0.428591 0.998923 0.416167
686 1 0.583293 0.742221 0.503354
95 1 0.897013 1.01162 0.256038
147 1 0.0753835 1.0056 0.411646
599 1 0.918856 0.491036 0.424225
693 1 0.845378 0.6703 0.479517
229 1 0.500198 0.994379 0.498906
690 1 0.74925 0.732573 0.493905
674 1 0.0788795 0.749486 0.493456
470 1 0.585801 0.755523 -0.00634652
694 1 0.918396 0.764482 0.4898
653 1 0.170001 0.506711 0.493987
670 1 0.928917 0.571498 0.509377
705 1 0.330767 0.84204 0.50939
458 1 0.087418 0.743634 0.00543793
9 1 0.322661 0.999877 -0.010066
662 1 0.581957 0.564965 0.505475
461 1 0.173495 0.667628 -0.00126399
650 1 0.0745296 0.601366 0.488909
478 1 0.908186 0.742129 -0.00669904
442 1 0.418437 0.593642 -0.00746422
465 1 0.330878 0.659991 -0.0010822
486 1 0.248327 0.914349 -0.000920116
434 1 0.0804532 0.585299 0.00189552
466 1 0.418417 0.753501 0.0015847
494 1 0.572106 0.908873 -0.000702076
462 1 0.239342 0.753078 -0.00445066
710 1 0.590051 0.918342 0.491197
675 1 0.0827256 0.673101 0.589547
437 1 0.180142 0.494919 1.00483
722 1 0.0816307 0.603384 0.672643
658 1 0.417625 0.571916 0.49763
656 1 0.170898 0.601246 0.586568
660 1 0.339257 0.584546 0.586656
679 1 0.245009 0.678182 0.58304
861 1 0.81265 0.830717 0.834067
683 1 0.424269 0.667638 0.560262
664 1 0.512563 0.594885 0.578666
844 1 0.979877 0.919533 0.911817
441 1 0.322703 0.505759 1.00532
668 1 0.668047 0.566222 0.58015
297 1 0.334465 1.00403 0.661074
863 1 0.907132 0.836009 0.920813
697 1 0.996223 0.839569 0.491779
858 1 0.752144 0.922497 0.831009
672 1 0.819201 0.580772 0.582118
652 1 -0.00151615 0.593082 0.588104
746 1 0.0783291 0.768728 0.670833
749 1 0.156428 0.684243 0.671597
680 1 0.163643 0.756822 0.580934
750 1 0.249917 0.754096 0.671929
684 1 0.340816 0.731874 0.580273
688 1 0.505534 0.731823 0.581328
754 1 0.426819 0.737291 0.65482
777 1 0.346371 0.825665 0.648316
793 1 1.01045 0.502433 0.834813
687 1 0.601624 0.66423 0.586139
692 1 0.673088 0.750228 0.576391
659 1 0.422992 0.515809 0.592262
733 1 0.487993 0.498397 0.669775
691 1 0.741674 0.654287 0.57841
696 1 0.825254 0.753197 0.569988
651 1 0.0815962 0.511239 0.565668
695 1 0.902896 0.677212 0.567811
676 1 1.00302 0.762404 0.58671
745 1 0.0050388 0.688104 0.669256
719 1 0.910102 0.830578 0.589836
765 1 0.822958 0.679484 0.648898
766 1 0.914572 0.740456 0.665912
699 1 0.076663 0.841625 0.588944
864 1 0.835788 0.905982 0.911531
700 1 0.997727 0.921336 0.585146
769 1 0.988147 0.839014 0.66489
770 1 0.0866487 0.912477 0.668352
859 1 0.742203 0.841939 0.915551
703 1 0.249657 0.831623 0.578989
704 1 0.162268 0.91089 0.572438
708 1 0.327116 0.924924 0.573255
799 1 0.251589 0.509397 0.930989
305 1 0.659693 1.00313 0.663309
707 1 0.421702 0.822567 0.573122
712 1 0.491022 0.915656 0.580714
739 1 0.759904 0.504972 0.754072
377 1 0.680197 1.0065 0.836759
854 1 0.595166 0.926076 0.835598
711 1 0.590292 0.834017 0.575396
781 1 0.489953 0.835069 0.659943
782 1 0.581727 0.907628 0.650626
716 1 0.669614 0.928127 0.583746
369 1 0.322662 0.999022 0.832905
715 1 0.739175 0.831821 0.58026
785 1 0.665037 0.840911 0.663983
502 1 0.901366 0.913117 1.00583
786 1 0.753526 0.929401 0.664709
860 1 0.656087 0.917342 0.939579
720 1 0.822822 0.917344 0.580306
789 1 0.828843 0.830733 0.643229
790 1 0.908529 0.930011 0.664913
805 1 0.488335 0.496854 0.841702
743 1 0.924897 0.505987 0.739188
747 1 0.0705461 0.675751 0.759934
794 1 0.0749441 0.593242 0.834114
856 1 0.495614 0.926035 0.91084
381 1 0.837806 1.0077 0.831111
726 1 0.248973 0.596398 0.660799
723 1 0.091899 0.503883 0.751781
383 1 0.914442 1.00327 0.914719
728 1 0.158366 0.598731 0.759502
730 1 0.422483 0.587239 0.667329
753 1 0.339201 0.659437 0.66539
449 1 0.658519 0.486536 0.994169
732 1 0.332105 0.584663 0.780924
802 1 0.424729 0.582097 0.830878
734 1 0.577736 0.573853 0.663266
666 1 0.761108 0.56974 0.479268
291 1 0.0968355 0.995442 0.750487
852 1 0.323916 0.91155 0.919488
736 1 0.509341 0.57827 0.746039
740 1 0.670631 0.575512 0.766341
806 1 0.576596 0.590197 0.841859
846 1 0.253477 0.90858 0.837798
813 1 0.850666 0.508555 0.83268
738 1 0.745749 0.587074 0.665184
744 1 0.843832 0.592604 0.758627
742 1 0.90596 0.623951 0.660372
845 1 0.161557 0.837233 0.836183
671 1 0.924856 0.505904 0.596407
724 1 0.994876 0.602216 0.745375
814 1 0.927465 0.591892 0.823802
752 1 0.172954 0.752863 0.763005
818 1 0.0809008 0.766835 0.844658
751 1 0.256537 0.669178 0.754754
775 1 0.269243 0.830383 0.735458
822 1 0.260482 0.761879 0.842482
757 1 0.507215 0.663848 0.667087
755 1 0.420019 0.665725 0.744301
756 1 0.340513 0.736826 0.742699
826 1 0.407249 0.746324 0.834101
779 1 0.416211 0.835119 0.745226
825 1 0.337197 0.669999 0.840597
761 1 0.65699 0.658074 0.677571
758 1 0.578116 0.763291 0.663197
759 1 0.571915 0.662268 0.761155
760 1 0.49019 0.753264 0.746188
764 1 0.650303 0.751895 0.755389
762 1 0.72818 0.743154 0.664688
763 1 0.745889 0.671453 0.751193
768 1 0.830509 0.753088 0.755639
817 1 1.00423 0.68968 0.836337
767 1 0.914693 0.688651 0.767603
748 1 0.995625 0.767017 0.756131
838 1 0.910291 0.769419 0.826118
293 1 0.17506 0.98529 0.683409
771 1 0.0749843 0.843299 0.753658
772 1 -0.0230525 0.912928 0.74179
842 1 0.0829143 0.906128 0.841721
848 1 0.17181 0.922795 0.922131
843 1 0.0755765 0.844721 0.942481
773 1 0.166759 0.831075 0.679534
776 1 0.16874 0.909012 0.759186
774 1 0.252398 0.923506 0.66765
780 1 0.340156 0.921198 0.745432
654 1 0.249927 0.582607 0.495624
731 1 0.416639 0.504457 0.74809
778 1 0.404707 0.919677 0.661295
795 1 0.0845865 0.502691 0.92146
784 1 0.503598 0.916344 0.745349
850 1 0.417859 0.90438 0.825343
783 1 0.578744 0.842416 0.74438
788 1 0.669638 0.92936 0.744195
787 1 0.756676 0.837918 0.745297
655 1 0.247492 0.498529 0.575936
832 1 0.50008 0.752534 0.925456
862 1 0.914541 0.900965 0.832299
839 1 0.923802 0.660648 0.918172
792 1 0.823899 0.921997 0.752514
791 1 0.889917 0.836665 0.738309
841 1 0.998943 0.834889 0.829424
311 1 0.926615 1.01205 0.75222
819 1 0.0642604 0.677175 0.923376
231 1 0.586498 0.999776 0.575678
837 1 0.82913 0.66695 0.832482
798 1 0.248312 0.595992 0.836068
821 1 0.152359 0.687762 0.834258
800 1 0.15236 0.596394 0.906998
823 1 0.255611 0.664935 0.917378
829 1 0.499115 0.666163 0.830599
804 1 0.329354 0.580124 0.92931
808 1 0.503695 0.583925 0.918375
827 1 0.415948 0.672625 0.917031
840 1 0.830053 0.745943 0.912817
831 1 0.582763 0.663425 0.921023
835 1 0.743912 0.658974 0.912215
721 1 1.02131 0.51741 0.656763
833 1 0.66011 0.670122 0.829871
812 1 0.661937 0.584266 0.909953
810 1 0.760053 0.581551 0.822877
239 1 0.917065 1.00803 0.584121
678 1 0.25086 0.744077 0.503225
816 1 0.832115 0.574452 0.916881
796 1 -1.17704e-05 0.577435 0.916778
836 1 0.67109 0.742678 0.916303
855 1 0.583214 0.838732 0.917647
820 1 1.00351 0.771979 0.929276
824 1 0.151277 0.771016 0.926952
834 1 0.738232 0.747137 0.832805
828 1 0.331699 0.75344 0.934288
847 1 0.2378 0.831942 0.925555
857 1 0.667235 0.838455 0.826503
657 1 0.329314 0.501928 0.513362
849 1 0.333817 0.829426 0.854344
853 1 0.503041 0.830561 0.829724
851 1 0.424861 0.834627 0.915816
830 1 0.569859 0.752458 0.845418
741 1 0.830414 0.517474 0.674485
702 1 0.247927 0.900675 0.490004
363 1 0.0881895 0.995999 0.912913
307 1 0.748795 1.01295 0.74197
373 1 0.487907 1.00877 0.836758
365 1 0.178966 0.992516 0.839975
727 1 0.244791 0.519041 0.757315
223 1 0.252581 1.00253 0.585464
235 1 0.745715 1.01611 0.571299
729 1 0.326487 0.504053 0.672484
725 1 0.174075 0.51194 0.673595
454 1 0.926973 0.580899 1.00588
446 1 0.582875 0.568624 1.00272
501 1 0.823976 0.824258 0.996496
473 1 0.673845 0.667458 0.991374
13 1 0.500695 1.00833 0.997511
713 1 0.668694 0.831563 0.489422
450 1 0.735104 0.57946 1.00495
681 1 0.326201 0.655079 0.505122
673 1 0.996664 0.685583 0.500864
438 1 0.248997 0.589779 1.01919
498 1 0.756574 0.905417 1.00599
481 1 0.996084 0.839069 1.01314
469 1 0.505273 0.674108 1.0015
497 1 0.669438 0.825011 1.00466
706 1 0.413909 0.919082 0.485966
682 1 0.437883 0.745643 0.489189
701 1 0.153914 0.830842 0.485524
685 1 0.514185 0.660769 0.492676
237 1 0.818514 0.992118 0.493305
677 1 0.172031 0.664685 0.496582
