ITEM: TIMESTEP
19400
ITEM: NUMBER OF ATOMS
864
ITEM: BOX BOUNDS pp pp pp
0.0000000000000000e+00 3.1559999999999999e+01
0.0000000000000000e+00 3.1559999999999999e+01
0.0000000000000000e+00 3.1559999999999999e+01
ITEM: ATOMS id type xs ys zs
4 1 0.997444 0.0867825 0.0723599
74 1 0.100425 0.0744794 0.18063
519 1 0.575624 0.501097 0.251038
589 1 0.490108 0.507465 0.318404
8 1 0.159264 0.0875438 0.0865138
242 1 0.0890188 0.237182 0.516453
12 1 0.336618 0.0889643 0.08501
82 1 0.408175 0.0850328 0.159904
35 1 0.437555 0.175907 0.0562077
109 1 0.49718 0.168142 0.157214
70 1 0.928984 0.417488 -0.00785025
16 1 0.511335 0.0928436 0.0695501
20 1 0.667419 0.0814557 0.0817379
90 1 0.748569 0.085623 0.157184
455 1 0.91551 0.501075 0.0872097
24 1 0.844011 0.0949076 0.0922723
94 1 0.920674 0.0898723 0.164
214 1 0.921014 0.408492 0.329752
27 1 0.0806756 0.156432 0.0795502
32 1 0.163979 0.248807 0.0951553
28 1 0.00819613 0.249804 0.0888791
31 1 0.253438 0.175566 0.0870578
36 1 0.333623 0.252641 0.0785198
55 1 0.253166 0.339128 0.0872326
106 1 0.420144 0.246055 0.147794
105 1 0.343856 0.182169 0.151483
39 1 0.586202 0.167533 0.0813527
40 1 0.51961 0.250467 0.0950906
110 1 0.593046 0.256879 0.181876
44 1 0.669281 0.250987 0.0698144
19 1 0.756494 0.01165 0.0850889
593 1 0.655312 0.49242 0.342129
113 1 0.664524 0.173107 0.162239
43 1 0.75407 0.169877 0.0869961
114 1 0.750504 0.2603 0.163013
67 1 0.745917 0.335443 0.0664381
117 1 0.84125 0.175883 0.163704
48 1 0.826592 0.243187 0.0786659
47 1 0.933519 0.174571 0.0689689
118 1 0.918762 0.249991 0.16368
51 1 0.081346 0.32577 0.0834064
52 1 -0.00221752 0.414591 0.0818427
193 1 0.0100474 0.315516 0.324912
23 1 0.908426 0.00501686 0.0791537
15 1 0.589271 0.00878017 0.0764129
129 1 0.331756 0.333119 0.160478
56 1 0.16966 0.42041 0.0756599
125 1 0.173664 0.342117 0.168379
126 1 0.248176 0.439466 0.169648
69 1 0.840011 0.313919 -0.00222913
59 1 0.405877 0.33939 0.0729614
60 1 0.331787 0.427601 0.0937867
130 1 0.415096 0.413458 0.16641
91 1 0.760673 0.0136137 0.242766
64 1 0.495732 0.429401 0.087439
63 1 0.585285 0.350336 0.0884935
163 1 0.758642 0.011497 0.419699
151 1 0.234583 -0.00169019 0.432167
505 1 0.986348 0.496736 0.180596
68 1 0.679992 0.426823 0.077922
72 1 0.848912 0.397169 0.063992
138 1 0.760446 0.423129 0.158949
87 1 0.587037 0.0101578 0.25638
196 1 0.993009 0.409581 0.414778
71 1 0.926278 0.318787 0.0620701
167 1 0.904567 0.00244866 0.417484
142 1 0.921026 0.399926 0.155322
50 1 0.0746095 0.419862 0.0076668
145 1 1.00847 0.00281745 0.334429
73 1 1.01135 0.00476885 0.160264
89 1 0.663927 0.00133392 0.163757
76 1 0.000327831 0.0843194 0.242375
101 1 0.167557 0.158143 0.168287
173 1 0.18069 0.174356 0.340674
216 1 0.840584 0.42312 0.414769
80 1 0.173508 0.0759058 0.254944
78 1 0.255189 0.0901944 0.168048
84 1 0.333035 0.0638137 0.255618
49 1 0.0149126 0.315456 -0.00665258
150 1 0.245499 0.090626 0.360463
107 1 0.416015 0.168837 0.240449
177 1 0.324685 0.16657 0.332364
210 1 0.755974 0.423618 0.329391
86 1 0.588966 0.0818699 0.155185
88 1 0.484206 0.0934866 0.248836
62 1 0.580791 0.425387 0.00399251
241 1 0.00110084 0.181548 0.497009
523 1 0.76268 0.501044 0.242807
92 1 0.674468 0.0886796 0.235434
96 1 0.850015 0.0854053 0.246416
597 1 0.826978 0.507322 0.337171
207 1 0.583383 0.334578 0.424239
119 1 0.920728 0.166032 0.247986
591 1 0.56851 0.505982 0.416478
98 1 0.0963927 0.248601 0.171488
99 1 0.0869566 0.173596 0.25786
100 1 0.0103913 0.241005 0.24826
104 1 0.179018 0.248114 0.254116
123 1 0.0895443 0.335708 0.250771
169 1 0.0017221 0.157811 0.339134
102 1 0.24556 0.243207 0.175299
103 1 0.25565 0.160948 0.250571
174 1 0.248811 0.254139 0.345807
108 1 0.331556 0.245748 0.245528
112 1 0.498891 0.257993 0.236177
131 1 0.403744 0.327361 0.249749
178 1 0.419377 0.241057 0.334678
111 1 0.573412 0.153143 0.238106
135 1 0.568979 0.342292 0.258627
182 1 0.577256 0.254838 0.324273
133 1 0.492515 0.3449 0.170917
213 1 0.82727 0.330217 0.313653
116 1 0.668428 0.25367 0.242735
115 1 0.751868 0.173332 0.245664
189 1 0.835994 0.168727 0.321202
141 1 0.833322 0.334212 0.156039
120 1 0.829452 0.255414 0.24322
97 1 -0.000128587 0.169311 0.17127
190 1 0.926393 0.240002 0.319372
122 1 0.0790243 0.435017 0.168213
128 1 0.160394 0.432894 0.242417
127 1 0.252301 0.336449 0.251608
132 1 0.329055 0.435664 0.242268
198 1 0.247412 0.416867 0.323942
212 1 0.664341 0.410378 0.418151
136 1 0.484228 0.416503 0.255072
443 1 0.420327 0.517402 0.0899058
202 1 0.404363 0.414116 0.341759
85 1 0.498639 0.00654941 0.172314
194 1 0.07322 0.429072 0.321445
134 1 0.573909 0.41345 0.180657
206 1 0.575938 0.413842 0.337648
139 1 0.739407 0.348576 0.249954
137 1 0.666224 0.349935 0.173558
140 1 0.655243 0.425573 0.258544
144 1 0.84702 0.408049 0.232273
208 1 0.49322 0.423206 0.397916
143 1 0.92248 0.32085 0.242184
121 1 0.0157717 0.327114 0.164536
124 1 -0.00148369 0.401169 0.242897
146 1 0.0918839 0.0846546 0.322962
148 1 1.00285 0.0844062 0.415177
201 1 0.333102 0.327749 0.340708
191 1 0.923075 0.179566 0.416187
203 1 0.4204 0.329048 0.422056
152 1 0.156153 0.07137 0.418253
33 1 0.326803 0.164197 0.00498903
156 1 0.326703 0.0780624 0.42335
154 1 0.406607 0.0808513 0.331266
160 1 0.515934 0.0854435 0.413609
7 1 0.243517 -0.000873096 0.0932117
158 1 0.57764 0.0856538 0.314012
183 1 0.575716 0.1706 0.424578
281 1 0.660992 0.328681 0.49309
61 1 0.505272 0.333623 0.0111049
595 1 0.749185 0.492345 0.42699
162 1 0.730951 0.0886474 0.325092
164 1 0.653724 0.0988662 0.409856
168 1 0.835112 0.0865546 0.411562
185 1 0.658558 0.169166 0.324241
187 1 0.760031 0.172485 0.416824
204 1 0.335868 0.410585 0.419965
215 1 0.916586 0.323683 0.405949
166 1 0.911202 0.085907 0.331841
195 1 0.0793261 0.327237 0.425777
171 1 0.109015 0.172935 0.422337
170 1 0.102923 0.245985 0.33668
172 1 0.0183296 0.244066 0.416952
200 1 0.161597 0.416098 0.408623
521 1 0.661928 0.489717 0.170394
175 1 0.259773 0.163709 0.43015
176 1 0.181207 0.255454 0.438132
199 1 0.25361 0.341705 0.432134
180 1 0.342708 0.253055 0.417546
197 1 0.157252 0.333177 0.329703
205 1 0.483563 0.321944 0.331363
181 1 0.514718 0.166709 0.338563
179 1 0.421575 0.156507 0.416389
184 1 0.502206 0.245089 0.419984
209 1 0.673348 0.333707 0.332408
211 1 0.754985 0.336583 0.410718
188 1 0.660698 0.248264 0.419388
186 1 0.745353 0.243721 0.339185
192 1 0.835186 0.262398 0.419771
161 1 0.678695 -0.0012088 0.345587
3 1 0.0699128 0.00249327 0.0691805
237 1 0.840896 0.000916324 0.510388
46 1 0.930624 0.240986 -0.0116341
93 1 0.853476 0.00253429 0.172732
587 1 0.408747 0.502852 0.409119
6 1 0.243392 0.0784683 0.0125443
286 1 0.918418 0.426925 0.50398
165 1 0.824507 0.0154982 0.330423
265 1 0.984057 0.340701 0.496371
21 1 0.838766 -0.00188617 -0.00732572
218 1 0.0711933 0.0975958 0.505845
266 1 0.0915455 0.423281 0.496468
441 1 0.341352 0.501283 -0.00525892
249 1 0.342916 0.172258 0.512452
453 1 0.84927 0.491978 0.00613004
258 1 0.757936 0.251404 0.490032
2 1 0.0813938 0.087022 -0.00589523
238 1 0.917632 0.0860483 0.490554
18 1 0.753599 0.0883636 -0.00184229
29 1 0.173259 0.158943 0.00642681
30 1 0.247406 0.260879 0.00714318
233 1 0.660148 0.0105943 0.497813
278 1 0.593495 0.42554 0.497239
10 1 0.420705 0.0677715 0.0149891
53 1 0.158434 0.327986 0.00533388
270 1 0.234098 0.431133 0.490431
262 1 0.920989 0.256384 0.501402
45 1 0.829499 0.168959 -0.00317928
290 1 0.0764102 0.0780831 0.683093
220 1 0.995707 0.0721294 0.588436
25 1 0.00574975 0.157785 0.990664
224 1 0.165379 0.0706865 0.59048
285 1 0.849061 0.335364 0.484919
223 1 0.255002 0.00757504 0.588438
228 1 0.344231 0.0813066 0.581998
253 1 0.494337 0.157665 0.492435
737 1 0.666761 0.488835 0.662132
232 1 0.492509 0.0706207 0.597258
236 1 0.657218 0.0904821 0.589041
255 1 0.569828 0.148659 0.587662
240 1 0.82466 0.0852312 0.578223
651 1 0.0737243 0.499893 0.582066
809 1 0.673031 0.501616 0.849324
291 1 0.0790919 -0.000878077 0.761138
727 1 0.252248 0.502691 0.754149
263 1 0.92361 0.161279 0.570026
310 1 0.906037 0.0879202 0.659505
377 1 0.682083 0.00440812 0.838009
243 1 0.0901513 0.153233 0.590962
314 1 0.0946863 0.250762 0.64154
244 1 0.00732674 0.23911 0.58909
26 1 0.0802221 0.233735 1.00609
247 1 0.265843 0.165328 0.587571
248 1 0.184859 0.246878 0.591394
735 1 0.580849 0.490915 0.750393
363 1 0.0991506 0.000466342 0.914549
741 1 0.828438 0.487342 0.668982
251 1 0.422364 0.160753 0.576302
252 1 0.347059 0.244468 0.585321
256 1 0.512735 0.24177 0.586355
743 1 0.924796 0.48358 0.744842
279 1 0.580658 0.336457 0.593094
325 1 0.500335 0.159548 0.669752
234 1 0.742799 0.0806946 0.496329
259 1 0.743935 0.165492 0.582832
260 1 0.668188 0.245561 0.588082
264 1 0.83903 0.260042 0.569756
330 1 0.755046 0.259531 0.656698
334 1 0.9146 0.243106 0.653297
369 1 0.342067 0.00854847 0.837623
54 1 0.25288 0.413655 1.01059
267 1 0.0641352 0.327514 0.558219
815 1 0.919931 0.490658 0.917209
272 1 0.153348 0.418713 0.580352
432 1 0.839629 0.419372 0.907507
271 1 0.25136 0.347613 0.570521
367 1 0.255173 -0.00361684 0.929998
345 1 0.329046 0.322665 0.661628
342 1 0.263786 0.416351 0.667208
276 1 0.342381 0.409439 0.588205
723 1 0.0855428 0.491332 0.750934
275 1 0.415941 0.319811 0.582251
346 1 0.441256 0.431789 0.661784
280 1 0.497257 0.412893 0.582596
284 1 0.663995 0.404833 0.589305
353 1 0.671518 0.328355 0.656027
235 1 0.733499 0.00178219 0.586666
797 1 0.162715 0.490261 0.82145
283 1 0.763605 0.338712 0.574095
288 1 0.841591 0.425818 0.571468
357 1 0.850432 0.326723 0.658917
354 1 0.7581 0.405724 0.650852
795 1 0.0892218 0.497796 0.907363
268 1 0.997304 0.428017 0.580668
287 1 0.916879 0.34373 0.57794
813 1 0.848507 0.489959 0.830564
292 1 -0.0152383 0.0768263 0.759755
315 1 0.0879892 0.16218 0.754536
296 1 0.164976 0.0829785 0.75816
362 1 0.0773592 0.0852471 0.841559
412 1 0.00793946 0.385665 0.891002
294 1 0.240288 0.0784522 0.675993
300 1 0.338961 0.0726344 0.753427
317 1 0.167842 0.16149 0.670178
366 1 0.252655 0.0770178 0.837418
298 1 0.413091 0.0773722 0.676255
304 1 0.504522 0.0702684 0.75587
393 1 0.317908 0.163367 0.840503
370 1 0.418722 0.084025 0.846344
321 1 0.326188 0.148151 0.675313
739 1 0.741114 0.493705 0.745606
663 1 0.570835 0.510816 0.582505
302 1 0.585668 0.0834128 0.677557
308 1 0.672669 0.0779995 0.728816
327 1 0.584285 0.157104 0.752425
425 1 0.664174 0.354201 0.840442
306 1 0.753478 0.0856655 0.656638
331 1 0.744904 0.171139 0.734306
333 1 0.835716 0.170861 0.667831
312 1 0.827234 0.0925715 0.740449
335 1 0.922871 0.170061 0.746823
405 1 0.843384 0.160235 0.823367
427 1 0.767765 0.335114 0.918101
382 1 0.915868 0.0877084 0.837407
313 1 1.01025 0.170261 0.664306
320 1 0.162698 0.242798 0.761298
386 1 0.0883763 0.238765 0.843296
319 1 0.251423 0.159064 0.765681
318 1 0.252703 0.233415 0.682806
389 1 0.17199 0.160491 0.843908
390 1 0.245125 0.250152 0.830072
324 1 0.347602 0.250694 0.742368
323 1 0.429016 0.167175 0.761853
322 1 0.418728 0.256907 0.666055
394 1 0.401064 0.242641 0.852697
328 1 0.485207 0.274901 0.782099
417 1 0.341015 0.328006 0.841253
329 1 0.657835 0.183831 0.672298
401 1 0.67635 0.175529 0.813601
326 1 0.569181 0.243257 0.683248
398 1 0.572417 0.250035 0.843724
332 1 0.680162 0.271004 0.743234
336 1 0.831308 0.241662 0.753642
316 1 0.0173192 0.244963 0.733326
359 1 0.933076 0.325079 0.743281
406 1 0.920929 0.249044 0.842779
424 1 0.50045 0.434064 0.928512
338 1 0.0807783 0.388856 0.654943
339 1 0.10434 0.327315 0.736821
341 1 0.184293 0.317773 0.663307
413 1 0.176263 0.323033 0.832693
344 1 0.182719 0.41152 0.741844
428 1 0.666551 0.419969 0.926873
343 1 0.262352 0.322607 0.747323
246 1 0.254489 0.238015 0.515664
349 1 0.501466 0.330164 0.669313
347 1 0.412941 0.352523 0.731849
348 1 0.326258 0.427727 0.742256
422 1 0.57705 0.436256 0.842543
352 1 0.501096 0.411084 0.761409
350 1 0.587994 0.423438 0.674716
351 1 0.579604 0.341132 0.771257
230 1 0.578624 0.0842643 0.497971
426 1 0.755093 0.405819 0.825146
356 1 0.666858 0.403036 0.734186
355 1 0.757269 0.33253 0.750202
360 1 0.843588 0.396909 0.746887
811 1 0.749337 0.49693 0.913842
337 1 -0.00146577 0.328551 0.652768
430 1 0.929832 0.417268 0.825916
340 1 0.0155533 0.40533 0.741896
358 1 0.914522 0.41835 0.650035
667 1 0.744197 0.500747 0.573839
387 1 0.090453 0.165649 0.91207
420 1 0.333201 0.414416 0.904855
368 1 0.170974 0.0805184 0.923396
391 1 0.249554 0.161965 0.917871
372 1 0.337061 0.0829687 0.934701
801 1 0.326385 0.501969 0.83697
805 1 0.493458 0.496194 0.835261
376 1 0.496935 0.075425 0.932094
395 1 0.413428 0.164111 0.930887
42 1 0.73903 0.250976 0.997857
374 1 0.599002 0.0792435 0.850189
380 1 0.6745 0.0865592 0.925693
399 1 0.600904 0.165196 0.91318
378 1 0.75669 0.0950832 0.821691
384 1 0.82168 0.0789331 0.91946
418 1 0.4122 0.423367 0.825878
402 1 0.75833 0.245844 0.833933
429 1 0.837057 0.323546 0.831498
385 1 -0.00398823 0.169492 0.821222
364 1 0.984707 0.0868582 0.918069
407 1 0.914509 0.166531 0.906491
37 1 0.512076 0.172119 0.985971
414 1 0.252493 0.405968 0.840036
431 1 0.918277 0.336711 0.918249
408 1 0.833653 0.240742 0.918251
403 1 0.744988 0.168377 0.913769
409 1 0.0113351 0.316079 0.818959
410 1 0.100591 0.399441 0.829208
388 1 -0.00106403 0.25615 0.910115
392 1 0.16961 0.235112 0.922854
226 1 0.430558 0.072889 0.508441
404 1 0.678007 0.258139 0.908139
415 1 0.247687 0.331478 0.915504
397 1 0.499202 0.169721 0.854417
421 1 0.498258 0.360055 0.847776
419 1 0.420695 0.345929 0.915922
396 1 0.31383 0.244716 0.925183
416 1 0.163333 0.4155 0.918632
411 1 0.092379 0.329193 0.918123
423 1 0.576399 0.343546 0.919443
400 1 0.49565 0.270942 0.908885
273 1 0.344474 0.324652 0.494489
250 1 0.424981 0.249814 0.502734
721 1 0.000878759 0.499751 0.669416
227 1 0.415597 -0.0115834 0.58799
1 1 0.00109791 -0.00273075 0.985397
261 1 0.830499 0.160482 0.503958
297 1 0.337671 -0.00734935 0.680608
277 1 0.496177 0.337808 0.49697
725 1 0.164556 0.486041 0.6704
65 1 0.653164 0.353515 1.00637
381 1 0.829934 0.0167306 0.837059
299 1 0.421721 -0.0153106 0.764853
655 1 0.237615 0.488031 0.57525
282 1 0.761339 0.410572 0.498405
22 1 0.905873 0.0950095 1.00167
221 1 0.150419 0.00571813 0.507969
66 1 0.753474 0.419702 1.00767
41 1 0.664989 0.168158 1.00118
58 1 0.418017 0.415394 0.998421
274 1 0.413973 0.406019 0.499094
222 1 0.258003 0.0866279 0.514795
269 1 0.163657 0.331409 0.508743
34 1 0.416317 0.261599 0.978901
57 1 0.334849 0.337882 0.986651
14 1 0.593865 0.0726002 0.987472
433 1 0.999119 0.510328 1.00351
38 1 0.580426 0.258756 1.00215
245 1 0.174512 0.152543 0.507223
257 1 0.677269 0.179837 0.501664
254 1 0.58728 0.237144 0.504891
440 1 0.162407 0.590751 0.0738383
533 1 0.170708 0.672667 0.168383
435 1 0.0795043 0.5111 0.0850103
506 1 0.0726086 0.585396 0.164195
463 1 0.2518 0.673517 0.0805369
685 1 0.499281 0.654443 0.501397
155 1 0.415346 1.0047 0.418234
444 1 0.332395 0.601884 0.0713549
537 1 0.322316 0.662607 0.160405
467 1 0.419212 0.665439 0.0803148
541 1 0.491398 0.676202 0.169262
159 1 0.585666 1.00625 0.400812
470 1 0.568778 0.752984 -0.0072057
662 1 0.568687 0.587221 0.506191
448 1 0.498351 0.590836 0.0847427
471 1 0.587709 0.664437 0.0980203
452 1 0.671752 0.584622 0.0842104
643 1 0.750387 0.833926 0.417534
522 1 0.745363 0.584644 0.171597
545 1 0.665573 0.674237 0.176451
515 1 0.405564 0.507861 0.226159
456 1 0.83107 0.582505 0.0784065
436 1 1.00644 0.59837 0.0851292
641 1 0.666065 0.82801 0.346871
517 1 0.498339 0.518382 0.174822
648 1 0.830042 0.925007 0.415946
459 1 0.08284 0.666313 0.0609608
464 1 0.157463 0.744505 0.0783645
599 1 0.919135 0.494784 0.422044
77 1 0.164349 0.997621 0.170071
585 1 0.336733 0.50434 0.319626
468 1 0.332905 0.746425 0.0747949
447 1 0.583353 0.496288 0.0948436
538 1 0.415022 0.757053 0.153346
491 1 0.424474 0.838029 0.0807586
157 1 0.491546 1.00412 0.333059
472 1 0.495171 0.73862 0.0897549
542 1 0.578751 0.745866 0.162227
81 1 0.335379 1.00269 0.17201
439 1 0.241676 0.506362 0.0920977
475 1 0.753287 0.668954 0.0857437
476 1 0.649914 0.745251 0.0921708
649 1 0.995616 0.511965 0.502093
569 1 0.669744 0.842497 0.159686
616 1 0.492596 0.754359 0.413603
479 1 0.91306 0.659919 0.092494
529 1 0.988996 0.672819 0.163385
480 1 0.838405 0.751015 0.0981993
460 1 0.991223 0.758679 0.0889191
579 1 0.0858701 0.517264 0.415429
609 1 0.331457 0.672384 0.342154
604 1 0.992204 0.756343 0.418217
483 1 0.0884472 0.83681 0.0957848
484 1 0.00638859 0.927155 0.0795841
488 1 0.166538 0.909227 0.0897466
606 1 0.246852 0.754726 0.334589
527 1 0.913277 0.493301 0.256599
487 1 0.252317 0.827237 0.0710849
558 1 0.255565 0.918219 0.171623
509 1 0.163118 0.514053 0.166651
644 1 0.687633 0.914392 0.406271
492 1 0.348116 0.92408 0.0861758
562 1 0.426337 0.924248 0.172559
638 1 0.581744 0.918113 0.322762
633 1 0.330337 0.834091 0.322484
697 1 0.992118 0.84413 0.500421
682 1 0.410366 0.749356 0.503993
495 1 0.583956 0.838405 0.0913003
75 1 0.0793574 1.00675 0.248493
496 1 0.501211 0.920048 0.086071
95 1 0.925656 1.00937 0.247719
631 1 0.244324 0.829702 0.427392
499 1 0.752989 0.830024 0.0865482
573 1 0.828919 0.837963 0.172863
511 1 0.243398 0.509535 0.259345
500 1 0.654555 0.915992 0.0701826
504 1 0.837212 0.909635 0.0815924
570 1 0.765836 0.921349 0.170311
503 1 0.919066 0.829465 0.0814411
574 1 0.924964 0.921227 0.166675
607 1 0.248629 0.674745 0.417128
531 1 0.0765706 0.651838 0.255346
578 1 0.0855141 0.593232 0.341747
469 1 0.508221 0.667933 -0.00888474
510 1 0.24148 0.587092 0.163035
512 1 0.164989 0.586422 0.243576
582 1 0.26038 0.592379 0.343249
640 1 0.497588 0.92447 0.421496
514 1 0.417165 0.591678 0.167176
639 1 0.580942 0.823271 0.421977
516 1 0.328712 0.599178 0.249557
613 1 0.494822 0.67365 0.336343
586 1 0.407104 0.584404 0.326136
518 1 0.588334 0.581887 0.16844
520 1 0.496775 0.594725 0.248571
543 1 0.593422 0.668105 0.252762
612 1 0.327273 0.766125 0.424872
590 1 0.564891 0.575126 0.33361
617 1 0.657031 0.669517 0.330644
620 1 0.668071 0.747608 0.422312
524 1 0.677912 0.572647 0.255569
528 1 0.837048 0.591247 0.25111
621 1 0.836234 0.662547 0.331073
547 1 0.737598 0.662694 0.258254
594 1 0.744412 0.585634 0.333487
526 1 0.917633 0.578173 0.171177
635 1 0.418788 0.83021 0.416162
508 1 0.997139 0.581196 0.23963
598 1 0.918405 0.580896 0.327011
551 1 0.92264 0.668871 0.247296
530 1 0.0773246 0.730571 0.170023
536 1 0.156469 0.740698 0.261952
561 1 0.341371 0.837718 0.148386
535 1 0.24949 0.662534 0.246367
534 1 0.251097 0.758392 0.159134
540 1 0.331319 0.756303 0.239278
559 1 0.249751 0.832419 0.245446
539 1 0.406698 0.675746 0.245521
610 1 0.415848 0.750799 0.339685
614 1 0.570578 0.738417 0.337952
544 1 0.510189 0.757671 0.246542
546 1 0.756847 0.756947 0.163607
548 1 0.647902 0.76625 0.248079
618 1 0.735509 0.743914 0.332783
552 1 0.826812 0.753265 0.247625
549 1 0.827669 0.665828 0.166599
625 1 0.00632424 0.839239 0.326073
550 1 0.911664 0.767652 0.171776
532 1 1.00027 0.73996 0.2399
622 1 0.916239 0.748745 0.335893
575 1 0.919675 0.828146 0.267234
601 1 0.991693 0.673672 0.327327
554 1 0.0884349 0.929905 0.16452
555 1 0.0749907 0.840154 0.231845
626 1 0.079978 0.917613 0.323555
637 1 0.49514 0.828995 0.328029
629 1 0.167517 0.831004 0.333571
557 1 0.158386 0.802865 0.17537
560 1 0.165327 0.910411 0.25771
563 1 0.418211 0.840071 0.244
564 1 0.332919 0.927429 0.254353
634 1 0.416764 0.918256 0.342475
565 1 0.501676 0.832919 0.168325
567 1 0.582638 0.844024 0.24175
568 1 0.501901 0.924178 0.249868
566 1 0.58563 0.928396 0.165188
571 1 0.748133 0.827863 0.250676
642 1 0.759949 0.913369 0.318841
572 1 0.677178 0.920091 0.248554
576 1 0.856745 0.916912 0.261359
646 1 0.925285 0.92019 0.340104
645 1 0.820435 0.832406 0.340814
636 1 0.319562 0.912621 0.410915
553 1 1.00158 0.843461 0.154891
556 1 1.01221 0.928395 0.241176
647 1 0.912503 0.831945 0.405499
603 1 0.0754191 0.677682 0.412659
605 1 0.172632 0.647523 0.332313
608 1 0.160435 0.740811 0.396166
584 1 0.178366 0.584555 0.422117
588 1 0.337167 0.583447 0.415588
507 1 0.0844446 0.517945 0.244966
451 1 0.76523 0.503039 0.0839362
592 1 0.498473 0.587062 0.413915
611 1 0.417716 0.669399 0.409031
630 1 0.243168 0.897019 0.342596
596 1 0.647882 0.5793 0.410877
615 1 0.578731 0.666787 0.414659
624 1 0.83532 0.751839 0.411277
619 1 0.760899 0.676157 0.408848
600 1 0.840352 0.576392 0.410225
147 1 0.0857357 0.986145 0.409616
623 1 0.907628 0.6625 0.411064
580 1 0.994177 0.590909 0.407344
628 1 1.00285 0.915142 0.415766
632 1 0.173631 0.913039 0.420392
706 1 0.414096 0.911103 0.495372
602 1 0.0735375 0.741365 0.329881
627 1 0.0708324 0.825196 0.411023
705 1 0.323899 0.846093 0.508134
650 1 0.0670283 0.592158 0.498571
11 1 0.425591 1.00759 0.0948397
445 1 0.514479 0.52568 0.00302007
149 1 0.162808 0.998079 0.342413
689 1 0.654281 0.653422 0.490594
13 1 0.515852 0.980467 -0.0102675
79 1 0.243094 0.998878 0.270547
153 1 0.329256 1.00539 0.341026
581 1 0.158745 0.504674 0.319033
583 1 0.250884 0.501932 0.4047
446 1 0.592262 0.597791 0.00183498
493 1 0.497814 0.827865 -0.000282776
686 1 0.575143 0.742624 0.500983
525 1 0.827042 0.509475 0.158773
513 1 0.326163 0.524538 0.165623
677 1 0.163414 0.681803 0.502758
457 1 -0.00911796 0.666005 0.00462478
486 1 0.261638 0.931658 0.0159569
577 1 0.00146374 0.510659 0.337622
83 1 0.415627 1.00065 0.267662
490 1 0.427348 0.936335 0.00388256
9 1 0.331935 1.00627 0.0100742
498 1 0.751169 0.919881 0.0169452
710 1 0.596164 0.935932 0.484313
693 1 0.827696 0.67001 0.495634
485 1 0.16861 0.83669 -0.00125181
473 1 0.668379 0.67193 0.00978968
482 1 0.0866576 0.914763 -0.00639197
474 1 0.756907 0.752876 0.00923299
674 1 0.0755738 0.744455 0.484635
225 1 0.338266 0.998709 0.506062
670 1 0.908634 0.583373 0.494382
5 1 0.165283 1.00088 0.00944842
657 1 0.327612 0.492978 0.486592
701 1 0.15232 0.83826 0.499947
661 1 0.491666 0.477451 0.488556
461 1 0.181109 0.673191 -0.0047262
713 1 0.663427 0.860582 0.489292
666 1 0.748168 0.594777 0.476404
478 1 0.925505 0.749045 -0.00345417
656 1 0.178669 0.566973 0.591595
675 1 0.103071 0.647305 0.586226
465 1 0.334945 0.671196 0.992262
438 1 0.253398 0.587054 0.997601
311 1 0.909031 1.00485 0.762617
383 1 0.906994 0.998812 0.906382
726 1 0.261673 0.571009 0.670567
217 1 0.971992 0.986493 0.510231
799 1 0.235609 0.501898 0.921712
671 1 0.912739 0.505251 0.591556
660 1 0.328381 0.571676 0.559396
730 1 0.411757 0.602545 0.659459
753 1 0.332783 0.665733 0.664977
863 1 0.907703 0.82936 0.901245
489 1 0.337223 0.832331 1.00715
793 1 0.00127497 0.493465 0.82967
664 1 0.494488 0.587995 0.595033
668 1 0.658565 0.574186 0.576597
687 1 0.568544 0.674107 0.589172
864 1 0.831889 0.895872 0.899059
761 1 0.666649 0.665632 0.66566
379 1 0.748652 0.99396 0.926527
691 1 0.74207 0.651727 0.592218
289 1 -0.000613019 0.996055 0.672928
672 1 0.833534 0.581776 0.576451
652 1 -0.00711652 0.590548 0.593211
695 1 0.904205 0.673544 0.585698
462 1 0.253314 0.746881 0.980522
699 1 0.0754015 0.811118 0.580406
680 1 0.170822 0.755654 0.591679
773 1 0.18207 0.836421 0.68033
679 1 0.251048 0.665146 0.597613
703 1 0.245311 0.83958 0.590356
669 1 0.831075 0.498346 0.490671
373 1 0.506859 1.00723 0.847634
684 1 0.331218 0.763137 0.586766
683 1 0.427191 0.667343 0.57517
688 1 0.495761 0.762966 0.582461
781 1 0.496638 0.830445 0.681156
757 1 0.500967 0.650151 0.683416
731 1 0.423504 0.495276 0.736226
711 1 0.587659 0.827363 0.579207
758 1 0.587485 0.74595 0.667679
698 1 0.0710337 0.914978 0.498659
692 1 0.661099 0.750361 0.57313
785 1 0.659728 0.833873 0.671629
696 1 0.813615 0.745693 0.587517
762 1 0.743586 0.747591 0.66844
481 1 -0.00734022 0.843253 0.994779
676 1 0.98208 0.756843 0.590131
766 1 0.894581 0.750513 0.669966
770 1 0.0946624 0.895854 0.671364
704 1 0.17698 0.918646 0.57963
700 1 0.986751 0.908917 0.602508
458 1 0.0708532 0.765101 0.995496
862 1 0.91487 0.92104 0.827653
774 1 0.259295 0.919701 0.665253
708 1 0.338757 0.920223 0.591654
371 1 0.419428 0.995454 0.92514
295 1 0.25721 1.00488 0.754115
707 1 0.410909 0.827212 0.572841
778 1 0.422993 0.915207 0.680366
712 1 0.492801 0.92121 0.591208
239 1 0.908136 0.999698 0.598827
733 1 0.516739 0.511808 0.673921
782 1 0.578428 0.908899 0.67767
497 1 0.665752 0.826522 1.00508
715 1 0.746688 0.833012 0.586955
716 1 0.659953 0.926132 0.581793
786 1 0.740105 0.912803 0.668474
361 1 -0.00814466 0.992336 0.83876
437 1 0.164985 0.486248 1.00282
719 1 0.895076 0.833041 0.596748
307 1 0.74326 0.995046 0.741304
720 1 0.816681 0.912885 0.600512
790 1 0.912773 0.90846 0.674276
803 1 0.403593 0.498765 0.918642
722 1 0.0801965 0.586024 0.67798
747 1 0.0772732 0.670663 0.739561
749 1 0.171099 0.655657 0.668196
728 1 0.161086 0.583671 0.744571
732 1 0.335335 0.578703 0.743362
751 1 0.255206 0.653083 0.7486
861 1 0.818718 0.812073 0.829452
755 1 0.428819 0.658165 0.767489
736 1 0.508286 0.577163 0.758274
860 1 0.674544 0.909071 0.916139
857 1 0.667438 0.830116 0.837028
734 1 0.605298 0.583387 0.674434
740 1 0.672765 0.577403 0.755418
833 1 0.658891 0.662883 0.84122
301 1 0.515033 0.985274 0.675605
738 1 0.748459 0.574729 0.665961
810 1 0.7357 0.592999 0.846358
744 1 0.81878 0.570477 0.764428
765 1 0.818711 0.670617 0.66816
724 1 0.986798 0.56897 0.75594
742 1 0.903204 0.58835 0.656235
767 1 0.909742 0.655438 0.732304
219 1 0.0678903 0.966785 0.598434
746 1 0.0925874 0.754247 0.670559
752 1 0.154058 0.746448 0.752886
818 1 0.0800575 0.754251 0.848865
771 1 0.0684095 0.819458 0.759816
750 1 0.251682 0.756337 0.672361
822 1 0.257172 0.754219 0.832876
754 1 0.418799 0.759752 0.654836
777 1 0.337355 0.835578 0.685669
756 1 0.327142 0.741631 0.745975
779 1 0.415751 0.838221 0.749735
760 1 0.498295 0.743364 0.744193
759 1 0.580576 0.647871 0.756412
763 1 0.753989 0.655255 0.749954
764 1 0.657602 0.727781 0.75724
834 1 0.732551 0.738283 0.828016
787 1 0.741748 0.829705 0.743208
769 1 1.00071 0.820684 0.672214
745 1 0.986061 0.677789 0.670024
748 1 0.9892 0.742223 0.756465
768 1 0.819647 0.752771 0.746821
838 1 0.905361 0.744045 0.826189
791 1 0.916107 0.832902 0.749991
842 1 0.0897646 0.907193 0.829847
858 1 0.756506 0.918129 0.828774
776 1 0.166622 0.914187 0.760842
845 1 0.17839 0.826158 0.835283
231 1 0.575966 0.996135 0.580939
775 1 0.248795 0.829784 0.754419
841 1 0.993032 0.838621 0.824437
780 1 0.338218 0.921346 0.754413
784 1 0.508005 0.907576 0.763331
853 1 0.49042 0.829109 0.833317
856 1 0.504502 0.904208 0.907032
365 1 0.184059 0.990158 0.833716
854 1 0.60206 0.90509 0.830002
783 1 0.596212 0.81799 0.747122
788 1 0.667204 0.919912 0.739837
844 1 0.00314229 0.91866 0.914209
839 1 0.906276 0.671438 0.918718
772 1 0.999303 0.920593 0.749415
789 1 0.822126 0.826481 0.672528
792 1 0.832905 0.924587 0.753259
850 1 0.413031 0.91541 0.850533
794 1 0.0726145 0.593168 0.819349
819 1 0.0738234 0.65795 0.909175
796 1 0.984987 0.585976 0.916051
658 1 0.422665 0.578795 0.490192
309 1 0.830509 1.00323 0.666422
450 1 0.759262 0.580199 1.00568
851 1 0.425684 0.839109 0.923676
800 1 0.161412 0.589699 0.921387
798 1 0.232372 0.585543 0.831165
802 1 0.414174 0.57279 0.829861
848 1 0.179156 0.926516 0.916344
827 1 0.430106 0.661108 0.909192
804 1 0.329999 0.584243 0.916095
808 1 0.499712 0.573189 0.90476
806 1 0.581815 0.582123 0.844591
729 1 0.342184 0.501095 0.651292
840 1 0.818689 0.751437 0.908756
837 1 0.841513 0.647611 0.837598
812 1 0.661946 0.582502 0.92517
835 1 0.755736 0.669933 0.927899
846 1 0.26266 0.921081 0.825151
859 1 0.747267 0.827352 0.925444
817 1 0.989946 0.664607 0.840076
814 1 0.916288 0.5749 0.843494
816 1 0.835926 0.568943 0.912601
852 1 0.325837 0.92475 0.91577
824 1 0.162944 0.757877 0.92159
821 1 0.147959 0.670177 0.826149
843 1 0.0962836 0.849614 0.914704
820 1 0.993873 0.750469 0.910121
847 1 0.250531 0.840805 0.917038
823 1 0.248668 0.664207 0.90947
828 1 0.344681 0.756432 0.919211
825 1 0.334515 0.662598 0.822395
826 1 0.409872 0.743395 0.834733
832 1 0.489964 0.746538 0.905217
849 1 0.336171 0.835906 0.830072
830 1 0.582753 0.755749 0.824307
831 1 0.595692 0.675812 0.921328
855 1 0.583067 0.81324 0.914058
829 1 0.50713 0.66848 0.835445
836 1 0.667882 0.752377 0.919621
807 1 0.588391 0.505735 0.924945
375 1 0.592032 0.987196 0.914258
305 1 0.661399 1.00722 0.656288
303 1 0.591297 1.00523 0.761979
434 1 0.0802998 0.565761 0.988525
293 1 0.164058 0.985845 0.674209
694 1 0.9018 0.741409 0.492868
659 1 0.420361 0.488791 0.580321
442 1 0.420317 0.58114 1.00317
690 1 0.742223 0.750122 0.503845
718 1 0.901505 0.894832 0.507265
502 1 0.912299 0.920041 0.998334
229 1 0.511874 1.00351 0.505958
454 1 0.917605 0.580032 1.00269
653 1 0.160053 0.521054 0.494016
665 1 0.660355 0.499602 0.494414
702 1 0.258818 0.932723 0.510756
709 1 0.505707 0.838391 0.50011
678 1 0.252958 0.754346 0.522546
466 1 0.415869 0.755524 0.996413
449 1 0.674547 0.503604 1.00934
673 1 -0.00581157 0.682827 0.496753
17 1 0.656844 0.990336 0.998483
717 1 0.825468 0.821578 0.501276
654 1 0.243161 0.601501 0.497571
501 1 0.839601 0.828531 0.998196
714 1 0.759536 0.93168 0.506531
477 1 0.842031 0.67805 1.00039
494 1 0.585987 0.899559 0.988709
681 1 0.324289 0.672407 0.498969
