ITEM: TIMESTEP
19750
ITEM: NUMBER OF ATOMS
864
ITEM: BOX BOUNDS pp pp pp
0.0000000000000000e+00 3.1559999999999999e+01
0.0000000000000000e+00 3.1559999999999999e+01
0.0000000000000000e+00 3.1559999999999999e+01
ITEM: ATOMS id type xs ys zs
8 1 0.158134 0.0828892 0.100199
155 1 0.411845 0.00529918 0.406038
78 1 0.2372 0.0946305 0.171711
12 1 0.341786 0.0814058 0.0869027
49 1 0.0177284 0.32746 0.010267
451 1 0.748714 0.490651 0.0842896
159 1 0.566914 0.00671923 0.420775
22 1 0.933023 0.0791278 0.0107796
35 1 0.416109 0.168191 0.0989953
109 1 0.500631 0.18016 0.179444
18 1 0.752333 0.0943697 0.0120139
242 1 0.0776354 0.263593 0.495746
16 1 0.505157 0.0903437 0.0871653
39 1 0.596352 0.171938 0.0943822
20 1 0.665284 0.0828491 0.0753143
43 1 0.750292 0.182213 0.0909991
215 1 0.923888 0.342443 0.408978
585 1 0.350841 0.49207 0.3337
87 1 0.568495 0.00833582 0.256572
4 1 0.00582417 0.067639 0.0932934
24 1 0.844654 0.0772704 0.0757888
47 1 0.914733 0.170779 0.0561273
222 1 0.246574 0.0801113 0.482092
511 1 0.26611 0.47731 0.247853
509 1 0.164432 0.49737 0.150623
27 1 0.085954 0.160803 0.0782227
32 1 0.168829 0.255056 0.0825106
591 1 0.567623 0.488987 0.424426
98 1 0.0830493 0.262018 0.181337
31 1 0.259861 0.155039 0.0754441
36 1 0.318534 0.23552 0.0920362
55 1 0.245472 0.327881 0.0917406
46 1 0.939133 0.270661 0.00832919
513 1 0.345313 0.493201 0.162097
59 1 0.419128 0.344955 0.0804284
7 1 0.242911 0.00842614 0.0971537
40 1 0.507016 0.254446 0.0854614
63 1 0.593947 0.338706 0.086535
44 1 0.677476 0.250683 0.0815214
133 1 0.508188 0.336999 0.173205
110 1 0.594661 0.250879 0.175811
67 1 0.745921 0.348318 0.0869667
137 1 0.665553 0.334128 0.162887
28 1 0.0123166 0.251832 0.0985573
48 1 0.839774 0.263137 0.0882442
71 1 0.918855 0.339361 0.0925323
51 1 0.084718 0.329675 0.0899287
214 1 0.904402 0.433825 0.344642
230 1 0.576118 0.0984957 0.491029
83 1 0.39842 0.0119506 0.265326
56 1 0.152849 0.413792 0.0893477
60 1 0.344617 0.41463 0.0644911
69 1 0.834632 0.353711 0.0181773
593 1 0.684928 0.498641 0.311995
25 1 0.0125078 0.185405 0.0050983
129 1 0.337006 0.338011 0.150349
211 1 0.755427 0.345295 0.444136
212 1 0.655102 0.416255 0.4183
64 1 0.505139 0.412178 0.0790658
134 1 0.593603 0.41515 0.17156
68 1 0.669594 0.418488 0.0683544
216 1 0.828818 0.420486 0.431453
167 1 0.913747 0.00650999 0.417113
73 1 0.990805 -0.000846207 0.164796
141 1 0.841051 0.336628 0.175201
72 1 0.851134 0.432418 0.0803155
145 1 0.989906 0.00264197 0.335295
138 1 0.754953 0.41777 0.169055
245 1 0.158429 0.163775 0.483538
517 1 0.491967 0.498068 0.148478
52 1 -0.000101212 0.416423 0.084727
93 1 0.856335 0.00113283 0.173021
184 1 0.497942 0.271086 0.42513
74 1 0.0714939 0.0583572 0.170925
76 1 0.990623 0.0767919 0.261553
80 1 0.160454 0.0945194 0.244166
101 1 0.173762 0.181074 0.167396
105 1 0.337364 0.152668 0.176264
84 1 0.316247 0.0753855 0.245958
82 1 0.42157 0.0820096 0.177456
183 1 0.584138 0.173811 0.41312
88 1 0.494984 0.0837451 0.258772
86 1 0.589368 0.0795739 0.159555
92 1 0.68839 0.067712 0.253999
188 1 0.67535 0.253151 0.419656
182 1 0.593463 0.248902 0.336383
90 1 0.761255 0.0790746 0.143181
180 1 0.327989 0.242345 0.409912
113 1 0.662082 0.151403 0.171519
117 1 0.829537 0.190261 0.179258
162 1 0.752533 0.0802797 0.342147
97 1 0.0181208 0.153332 0.149208
94 1 0.923136 0.0921824 0.163588
96 1 0.8348 0.0801808 0.247142
196 1 0.00104544 0.426385 0.426401
99 1 0.077253 0.169853 0.244943
104 1 0.151845 0.247455 0.25525
170 1 0.0626351 0.261506 0.337128
102 1 0.2512 0.26106 0.177681
103 1 0.25321 0.16711 0.25355
197 1 0.157353 0.341937 0.321842
108 1 0.342913 0.265371 0.236409
127 1 0.246632 0.343195 0.261627
106 1 0.421641 0.252673 0.164189
107 1 0.412778 0.168327 0.249337
131 1 0.423087 0.341861 0.256106
111 1 0.566709 0.174186 0.253961
112 1 0.490373 0.25145 0.260034
135 1 0.5755 0.32703 0.252343
114 1 0.751051 0.268589 0.158577
115 1 0.74957 0.158584 0.245123
116 1 0.68204 0.254315 0.248303
139 1 0.749054 0.340449 0.259739
120 1 0.821466 0.260963 0.275286
213 1 0.831963 0.342891 0.349095
118 1 0.93067 0.225229 0.17142
100 1 0.993087 0.236262 0.250534
119 1 0.910105 0.16879 0.259954
121 1 0.982291 0.330833 0.181929
169 1 0.996901 0.174738 0.331866
125 1 0.176624 0.334528 0.168027
122 1 0.0724842 0.420269 0.165171
123 1 0.0681364 0.346608 0.243058
128 1 0.163758 0.420665 0.24098
126 1 0.245532 0.413433 0.164141
198 1 0.240837 0.42995 0.343423
130 1 0.419769 0.410302 0.163123
589 1 0.478074 0.498171 0.339498
132 1 0.344159 0.412324 0.244227
202 1 0.417566 0.406643 0.338458
201 1 0.325581 0.326902 0.334291
207 1 0.577872 0.334555 0.40484
179 1 0.415186 0.171457 0.414332
209 1 0.651576 0.344679 0.327929
136 1 0.511534 0.432203 0.243414
205 1 0.502989 0.32605 0.328026
140 1 0.678748 0.420294 0.249124
206 1 0.57833 0.445376 0.329642
210 1 0.745889 0.412982 0.363781
144 1 0.832065 0.411354 0.26941
191 1 0.913494 0.166804 0.409767
42 1 0.751478 0.259876 0.0107851
194 1 0.0883998 0.42865 0.314107
142 1 0.918297 0.424417 0.171599
143 1 0.915862 0.327759 0.253205
124 1 0.996123 0.436537 0.255048
199 1 0.255495 0.32956 0.417898
146 1 0.0812282 0.0831736 0.324846
152 1 0.149259 0.0711458 0.412566
203 1 0.405384 0.326283 0.422658
190 1 0.919883 0.249226 0.338555
204 1 0.32519 0.412384 0.41897
177 1 0.338594 0.171744 0.32425
150 1 0.232463 0.0687662 0.32322
156 1 0.33092 0.0770379 0.406366
14 1 0.588139 0.0688833 -0.00175208
154 1 0.408924 0.0965567 0.331227
160 1 0.493622 0.0895019 0.406492
200 1 0.166216 0.396549 0.418992
158 1 0.587635 0.0865928 0.338549
178 1 0.416388 0.255633 0.337305
189 1 0.827762 0.170625 0.348061
185 1 0.675114 0.164114 0.329613
164 1 0.666423 0.0929721 0.418643
187 1 0.755443 0.177584 0.430577
168 1 0.832658 0.0910716 0.422644
208 1 0.489221 0.409238 0.415436
148 1 0.00775811 0.0785402 0.409217
192 1 0.830327 0.265122 0.420712
166 1 0.926245 0.084756 0.346417
186 1 0.742073 0.270261 0.346529
195 1 0.0763224 0.342674 0.416142
172 1 -0.000757775 0.249245 0.428538
171 1 0.0741239 0.166884 0.403994
174 1 0.246312 0.25185 0.322979
173 1 0.148791 0.166242 0.329018
176 1 0.165599 0.260902 0.416152
175 1 0.233224 0.164674 0.399169
193 1 0.0127755 0.350457 0.337883
181 1 0.502124 0.17815 0.349136
579 1 0.0995922 0.485325 0.412102
583 1 0.236083 0.498148 0.438114
157 1 0.496165 -0.00128437 0.336424
34 1 0.414631 0.242741 0.0214359
241 1 0.983115 0.164259 0.49837
266 1 0.0957993 0.409143 0.495419
226 1 0.405624 0.0870626 0.487529
2 1 0.0685328 0.0734106 0.00627528
33 1 0.34256 0.163932 0.0121541
26 1 0.0894979 0.250347 0.00509803
6 1 0.233836 0.0673651 0.00693747
41 1 0.669043 0.174442 0.00897549
11 1 0.426275 0.00379806 0.0784647
435 1 0.0812771 0.496549 0.075659
37 1 0.497669 0.167086 0.00688169
218 1 0.069455 0.0797966 0.497162
443 1 0.423056 0.493359 0.0640397
30 1 0.248773 0.244478 0.0063268
57 1 0.33132 0.327713 0.00584737
10 1 0.418923 0.092286 0.00475678
262 1 0.909351 0.243156 0.496928
254 1 0.585447 0.250052 0.485525
29 1 0.16167 0.170689 0.0110264
54 1 0.252986 0.423717 0.0233064
246 1 0.243736 0.247151 0.485816
38 1 0.587972 0.252124 0.00611783
249 1 0.327475 0.166235 0.476372
53 1 0.185295 0.345298 0.00805584
61 1 0.499439 0.321471 0.00198795
229 1 0.493168 0.0176945 0.490858
220 1 0.983344 0.0942898 0.584254
290 1 0.0684332 0.088716 0.649011
815 1 0.914496 0.498124 0.922941
431 1 0.936459 0.338502 0.917943
224 1 0.155701 0.0746745 0.573387
228 1 0.33236 0.0771479 0.560838
671 1 0.908276 0.496965 0.586891
247 1 0.249135 0.144907 0.560959
412 1 0.00272779 0.417202 0.916981
232 1 0.498996 0.0973946 0.584487
298 1 0.412974 0.0757798 0.667268
65 1 0.66274 0.325819 0.988453
741 1 0.834958 0.497943 0.675269
236 1 0.666173 0.0761611 0.576035
234 1 0.757912 0.0850658 0.509903
809 1 0.665053 0.494435 0.834989
302 1 0.600508 0.0831788 0.667207
306 1 0.748907 0.0802358 0.660239
259 1 0.750374 0.172977 0.587906
445 1 0.507181 0.489697 0.997703
240 1 0.842557 0.0876631 0.596435
310 1 0.912467 0.0852899 0.680669
303 1 0.587584 0.0117992 0.756296
286 1 0.912283 0.423046 0.502434
243 1 0.0815758 0.1701 0.56094
244 1 0.00555948 0.255918 0.586747
293 1 0.166679 0.000565962 0.655568
441 1 0.339614 0.494167 0.989509
270 1 0.237239 0.410116 0.505912
248 1 0.17509 0.24728 0.580648
317 1 0.145966 0.156558 0.649108
252 1 0.317281 0.239003 0.564792
282 1 0.74748 0.430458 0.516873
251 1 0.411371 0.16436 0.581074
275 1 0.418186 0.331729 0.59018
325 1 0.51207 0.170299 0.670798
322 1 0.423004 0.242666 0.659855
261 1 0.83379 0.167745 0.506048
255 1 0.594639 0.154673 0.592177
256 1 0.528992 0.257418 0.583453
260 1 0.662425 0.252269 0.578127
279 1 0.591575 0.334972 0.586871
264 1 0.837268 0.255683 0.585894
283 1 0.744924 0.327308 0.579306
330 1 0.767145 0.254924 0.678388
739 1 0.754497 0.495674 0.763053
263 1 0.911124 0.180273 0.601962
287 1 0.926725 0.342422 0.594039
267 1 0.086222 0.32324 0.588801
271 1 0.256045 0.326576 0.580781
272 1 0.167049 0.411428 0.591203
659 1 0.412671 0.496055 0.596765
276 1 0.326377 0.422369 0.596391
278 1 0.59196 0.437031 0.504988
346 1 0.411901 0.403582 0.660156
291 1 0.0740599 0.0104939 0.729778
432 1 0.836616 0.406443 0.915144
280 1 0.503887 0.43427 0.59364
350 1 0.593959 0.410162 0.667193
657 1 0.336321 0.497586 0.505201
284 1 0.673467 0.419222 0.584059
288 1 0.831292 0.418386 0.588469
428 1 0.673973 0.414187 0.929408
723 1 0.080962 0.491846 0.764237
269 1 0.16983 0.320968 0.501927
268 1 -0.00104019 0.425903 0.582678
423 1 0.581359 0.317403 0.911604
315 1 0.0963122 0.168742 0.739047
296 1 0.169617 0.0776798 0.755379
292 1 0.0134726 0.0943054 0.758694
294 1 0.243945 0.072844 0.676967
803 1 0.413244 0.490717 0.914835
300 1 0.328397 0.08932 0.76845
319 1 0.249699 0.168457 0.751167
304 1 0.508438 0.0884727 0.747739
370 1 0.412332 0.0911821 0.844893
329 1 0.667054 0.163407 0.684532
327 1 0.59459 0.146722 0.760371
62 1 0.577887 0.410593 0.983543
289 1 0.990427 0.00483662 0.660353
308 1 0.674321 0.0703443 0.750225
331 1 0.755348 0.162296 0.753503
378 1 0.750532 0.0855031 0.830347
401 1 0.67426 0.157833 0.829047
297 1 0.329244 0.0154036 0.671206
281 1 0.668854 0.34681 0.502704
312 1 0.846129 0.0950057 0.771918
382 1 0.930249 0.091314 0.837269
314 1 0.0797321 0.244804 0.665703
320 1 0.166038 0.249512 0.751613
313 1 0.00186237 0.171619 0.665932
316 1 0.0114057 0.242104 0.756265
318 1 0.2435 0.250554 0.667603
321 1 0.32971 0.162386 0.644591
323 1 0.42517 0.1598 0.741402
324 1 0.339076 0.242408 0.75204
328 1 0.494748 0.253207 0.754293
326 1 0.59343 0.242673 0.674491
349 1 0.508634 0.329108 0.655402
398 1 0.586764 0.234428 0.837055
353 1 0.661513 0.328181 0.68213
332 1 0.667304 0.252594 0.764792
336 1 0.839464 0.269589 0.766526
402 1 0.74753 0.259125 0.829579
335 1 0.92323 0.168905 0.756955
333 1 0.83725 0.163414 0.674983
334 1 0.907821 0.25292 0.681908
406 1 0.924457 0.256195 0.829011
385 1 -0.00145747 0.178789 0.842607
341 1 0.191085 0.344138 0.674457
339 1 0.0900053 0.344705 0.745679
337 1 -0.000768035 0.341624 0.687767
338 1 0.0860467 0.421025 0.678883
343 1 0.253909 0.317742 0.754015
342 1 0.252135 0.425793 0.664474
344 1 0.175806 0.423351 0.750048
348 1 0.330269 0.413161 0.74904
414 1 0.265536 0.414968 0.83768
371 1 0.41016 0.00476711 0.917726
273 1 0.335043 0.357366 0.511128
345 1 0.32628 0.332326 0.666481
347 1 0.405148 0.330045 0.752375
418 1 0.428841 0.410264 0.823052
421 1 0.494919 0.324444 0.83271
351 1 0.578489 0.31241 0.766454
352 1 0.5135 0.40223 0.739788
422 1 0.570041 0.415463 0.832148
419 1 0.420373 0.31491 0.921994
424 1 0.493879 0.409915 0.907146
429 1 0.852549 0.334396 0.848968
426 1 0.751563 0.414921 0.843819
357 1 0.849155 0.339142 0.668702
355 1 0.747411 0.338402 0.747271
356 1 0.653244 0.416653 0.749188
354 1 0.738729 0.417662 0.679167
360 1 0.830971 0.416304 0.753419
430 1 0.916067 0.420025 0.839922
285 1 0.83838 0.333091 0.508714
340 1 0.9948 0.427245 0.770466
409 1 0.00542572 0.335012 0.834489
359 1 0.919333 0.345582 0.754617
358 1 0.927386 0.417264 0.669162
362 1 0.0970613 0.0814517 0.840116
389 1 0.176069 0.155126 0.843708
364 1 0.0144877 0.0996517 0.924348
387 1 0.102347 0.171547 0.919887
258 1 0.746245 0.247798 0.504244
366 1 0.251315 0.0814346 0.85467
368 1 0.157962 0.0927613 0.942415
372 1 0.327647 0.0706889 0.931229
227 1 0.411666 0.0030482 0.574712
397 1 0.503496 0.161926 0.834226
376 1 0.498415 0.0871024 0.909872
427 1 0.754186 0.333599 0.923184
405 1 0.83555 0.188308 0.840804
374 1 0.583138 0.0791495 0.841875
399 1 0.592705 0.159756 0.918477
403 1 0.755944 0.156929 0.913949
420 1 0.347627 0.410414 0.920834
379 1 0.75623 0.00358136 0.920974
416 1 0.178924 0.413537 0.915614
380 1 0.676702 0.0805485 0.931405
413 1 0.181283 0.335093 0.831606
407 1 0.916339 0.191219 0.924075
384 1 0.845967 0.0928797 0.903697
408 1 0.841351 0.260026 0.926178
388 1 0.0138416 0.259301 0.919564
392 1 0.177647 0.260855 0.915512
386 1 0.0942969 0.243969 0.840918
411 1 0.0985557 0.325166 0.912434
390 1 0.247871 0.245953 0.827059
417 1 0.349475 0.325164 0.841293
391 1 0.239291 0.173412 0.927377
415 1 0.264117 0.342532 0.926834
393 1 0.335435 0.16608 0.86099
395 1 0.420456 0.177158 0.924351
394 1 0.423705 0.247796 0.831872
396 1 0.332817 0.253049 0.927397
410 1 0.097024 0.432033 0.847594
404 1 0.677741 0.240626 0.909474
400 1 0.513913 0.243245 0.917828
425 1 0.668856 0.344149 0.843592
239 1 0.926838 0.00992727 0.579137
301 1 0.503157 0.0115191 0.668941
369 1 0.321593 0.010475 0.83663
805 1 0.501695 0.496416 0.822009
361 1 0.00954131 0.00642553 0.828112
375 1 0.586816 -0.000329883 0.911508
257 1 0.662817 0.166063 0.499288
277 1 0.513521 0.352837 0.503174
274 1 0.414697 0.423903 0.510009
737 1 0.65768 0.496065 0.662814
731 1 0.41369 0.494561 0.748795
383 1 0.937357 0.00271298 0.910788
235 1 0.738585 0.00192276 0.586768
743 1 0.910174 0.490531 0.756556
721 1 0.0064676 0.501845 0.674098
667 1 0.757127 0.493015 0.604936
363 1 0.0741221 0.00653671 0.925375
58 1 0.419351 0.410811 1.00114
250 1 0.41245 0.254965 0.511022
66 1 0.76331 0.43094 0.992303
13 1 0.492239 0.00720489 0.985976
265 1 0.990672 0.337928 0.508171
45 1 0.820575 0.174042 0.997376
21 1 0.845083 0.0010372 0.989891
70 1 0.929276 0.414023 0.997349
238 1 0.909375 0.0958786 0.505366
253 1 0.502741 0.170946 0.507641
50 1 0.0861079 0.429173 0.983749
221 1 0.177111 0.00210675 0.501513
653 1 0.169558 0.485352 0.517073
506 1 0.092068 0.59263 0.145148
533 1 0.170483 0.667436 0.167708
440 1 0.1599 0.589379 0.0594563
510 1 0.243378 0.572951 0.180553
507 1 0.0926723 0.503024 0.232128
444 1 0.347279 0.592927 0.0744692
448 1 0.50061 0.586941 0.0758279
151 1 0.232742 0.987542 0.405807
5 1 0.157942 0.988447 0.0215084
521 1 0.667262 0.501206 0.148607
518 1 0.5861 0.601789 0.145521
625 1 0.00321409 0.816504 0.327406
452 1 0.666381 0.585177 0.0726319
456 1 0.826985 0.599926 0.0849437
436 1 0.00249746 0.587068 0.0634931
648 1 0.835197 0.920202 0.419789
526 1 0.909545 0.594194 0.170412
628 1 0.00316871 0.91002 0.421453
459 1 0.0718585 0.671741 0.0744135
530 1 0.0891504 0.740949 0.169059
553 1 0.00696305 0.818421 0.175691
225 1 0.326675 0.995964 0.481345
463 1 0.251005 0.658115 0.0752377
464 1 0.167724 0.736951 0.0838273
75 1 0.0690815 0.989169 0.257372
534 1 0.263401 0.730933 0.165135
149 1 0.164571 0.996818 0.297044
467 1 0.415511 0.668884 0.0643443
468 1 0.34635 0.742416 0.0817523
472 1 0.49428 0.745298 0.0798732
537 1 0.336377 0.661477 0.172526
147 1 0.100053 0.976782 0.418741
447 1 0.581656 0.517733 0.0746692
471 1 0.576427 0.67985 0.0659604
545 1 0.653051 0.677051 0.147281
476 1 0.664969 0.760274 0.0680352
542 1 0.571256 0.758465 0.147926
475 1 0.743767 0.674106 0.0701252
486 1 0.243008 0.915618 0.00753465
499 1 0.749502 0.836046 0.075772
455 1 0.926942 0.50414 0.0816069
479 1 0.915993 0.653401 0.0650634
460 1 0.00379613 0.750131 0.085665
480 1 0.82785 0.743142 0.0732142
550 1 0.913147 0.744227 0.16042
91 1 0.770948 0.99486 0.236737
483 1 0.0800023 0.819614 0.0978727
554 1 0.0734121 0.90839 0.18195
487 1 0.254808 0.836367 0.0808946
488 1 0.156625 0.888866 0.100719
492 1 0.335447 0.920736 0.0717072
491 1 0.407317 0.81825 0.0821563
642 1 0.736096 0.911914 0.346551
495 1 0.575472 0.841645 0.0779878
496 1 0.490444 0.907796 0.0865072
566 1 0.583058 0.905746 0.176584
23 1 0.914072 0.993062 0.0843031
500 1 0.669782 0.905635 0.0659305
570 1 0.739508 0.910897 0.157016
504 1 0.836934 0.916568 0.0779913
644 1 0.66597 0.893908 0.425263
484 1 0.0135165 0.894792 0.0937203
503 1 0.905322 0.826029 0.0833222
574 1 0.9195 0.909763 0.162232
525 1 0.848016 0.509284 0.152436
678 1 0.250975 0.744252 0.493346
95 1 0.912969 0.970065 0.25897
638 1 0.571487 0.906323 0.337688
508 1 0.00412827 0.58731 0.242736
531 1 0.0889714 0.666873 0.244719
578 1 0.0846183 0.571765 0.324636
512 1 0.168115 0.583628 0.258189
516 1 0.327266 0.584902 0.257199
641 1 0.649754 0.836121 0.32803
605 1 0.165917 0.669513 0.331171
582 1 0.258656 0.552809 0.337565
165 1 0.842613 0.999038 0.341503
609 1 0.319034 0.646923 0.343966
514 1 0.4096 0.588179 0.16773
539 1 0.421851 0.652333 0.248126
586 1 0.414118 0.580143 0.331244
636 1 0.340388 0.910298 0.407877
520 1 0.509015 0.571566 0.235984
543 1 0.571462 0.678452 0.225053
590 1 0.587607 0.561829 0.336152
613 1 0.506267 0.665027 0.324829
522 1 0.734483 0.602776 0.161057
617 1 0.662658 0.664597 0.332395
524 1 0.651535 0.600893 0.246877
547 1 0.7451 0.687757 0.247495
718 1 0.918293 0.91934 0.49875
595 1 0.753721 0.501995 0.426407
594 1 0.746763 0.591564 0.32071
528 1 0.836445 0.593845 0.258572
598 1 0.91054 0.582232 0.335763
557 1 0.170074 0.80977 0.165654
536 1 0.175251 0.745962 0.248805
555 1 0.0889978 0.812879 0.250301
535 1 0.252249 0.664529 0.251151
606 1 0.260416 0.749939 0.335273
559 1 0.25979 0.827826 0.238666
538 1 0.415897 0.747273 0.159707
540 1 0.343583 0.721894 0.258978
563 1 0.408539 0.831867 0.248906
610 1 0.426996 0.750935 0.324198
541 1 0.488871 0.667084 0.155448
544 1 0.49181 0.752921 0.238509
548 1 0.664045 0.750613 0.245555
549 1 0.831821 0.677861 0.159141
573 1 0.830949 0.821604 0.155728
546 1 0.738605 0.748444 0.147332
552 1 0.813395 0.766787 0.245683
618 1 0.734262 0.760579 0.341467
529 1 0.00896868 0.670933 0.171796
551 1 0.921205 0.658987 0.254131
532 1 0.996444 0.740775 0.250226
575 1 0.910662 0.843053 0.242363
622 1 0.904059 0.767541 0.313124
523 1 0.769365 0.501341 0.234917
79 1 0.258977 0.991046 0.231683
556 1 0.998973 0.903675 0.255646
89 1 0.665833 0.999437 0.156022
558 1 0.2615 0.908093 0.154063
560 1 0.17536 0.897584 0.247377
564 1 0.333573 0.90424 0.245129
81 1 0.333665 0.994299 0.159051
710 1 0.567731 0.914999 0.488917
562 1 0.405796 0.900589 0.16232
561 1 0.338242 0.818819 0.167564
634 1 0.414598 0.923467 0.321559
567 1 0.570166 0.816307 0.237424
565 1 0.484662 0.831767 0.169989
568 1 0.497276 0.911762 0.254172
572 1 0.662321 0.934767 0.249475
569 1 0.658497 0.831776 0.146456
153 1 0.326026 0.984104 0.346833
85 1 0.493139 0.98936 0.181018
571 1 0.727724 0.832847 0.236317
645 1 0.820331 0.826998 0.351482
576 1 0.824461 0.898926 0.252073
646 1 0.922486 0.903038 0.345775
505 1 1.00262 0.517702 0.158706
580 1 0.992741 0.578003 0.421452
603 1 0.0927048 0.647574 0.407994
584 1 0.162294 0.572066 0.420436
705 1 0.337136 0.834018 0.495729
640 1 0.486118 0.904558 0.414152
588 1 0.332311 0.579179 0.423348
607 1 0.263897 0.659756 0.428154
77 1 0.168181 0.987339 0.166214
9 1 0.343344 0.994644 0.00811778
626 1 0.074519 0.908394 0.332567
611 1 0.411969 0.667558 0.412566
577 1 0.993156 0.501693 0.338751
592 1 0.492595 0.575457 0.418604
615 1 0.577061 0.664998 0.420866
702 1 0.240088 0.914847 0.481969
630 1 0.245346 0.900177 0.329737
596 1 0.686368 0.590828 0.409677
619 1 0.751888 0.673942 0.428466
163 1 0.752734 0.989741 0.408268
632 1 0.168134 0.885649 0.400775
600 1 0.809063 0.584228 0.400933
601 1 0.986731 0.674359 0.337333
623 1 0.900072 0.645464 0.430223
621 1 0.850786 0.672479 0.328796
629 1 0.165052 0.80515 0.331752
627 1 0.0821543 0.810728 0.397294
602 1 0.0753563 0.733228 0.329956
647 1 0.914331 0.833933 0.42472
677 1 0.158893 0.657204 0.495976
631 1 0.259084 0.83029 0.410647
608 1 0.17624 0.738939 0.413158
633 1 0.338665 0.82872 0.3312
635 1 0.41125 0.825955 0.416983
612 1 0.331849 0.746806 0.404225
616 1 0.499401 0.738775 0.410833
604 1 0.98958 0.743151 0.414717
624 1 0.851492 0.73946 0.410676
637 1 0.504538 0.813231 0.333684
639 1 0.578682 0.832784 0.426088
620 1 0.66103 0.74469 0.428793
614 1 0.590708 0.749133 0.32604
643 1 0.755513 0.817363 0.440486
15 1 0.573718 0.989366 0.0771099
597 1 0.823571 0.504465 0.328564
674 1 0.0812066 0.740937 0.483115
3 1 0.0775533 0.985108 0.103508
19 1 0.749853 0.995847 0.0776923
581 1 0.166052 0.503495 0.332737
478 1 0.91701 0.746209 0.00154047
439 1 0.265353 0.523924 0.0840405
161 1 0.653004 0.990505 0.343055
527 1 0.915149 0.504361 0.237525
714 1 0.754265 0.917885 0.499681
519 1 0.5977 0.506133 0.2347
587 1 0.417458 0.499591 0.424042
515 1 0.411031 0.504364 0.252507
599 1 0.887603 0.518202 0.420701
453 1 0.84001 0.508177 0.0150988
662 1 0.570724 0.587358 0.499179
485 1 0.161039 0.825594 0.017393
709 1 0.500527 0.822068 0.494285
681 1 0.345608 0.668582 0.489729
450 1 0.747353 0.579171 0.00918449
1 1 0.00187608 0.985335 0.0284622
698 1 0.08011 0.903798 0.496743
665 1 0.654892 0.519639 0.491033
493 1 0.49108 0.832539 0.00932636
233 1 0.659296 0.996928 0.482013
697 1 0.989855 0.822771 0.496651
701 1 0.168482 0.818678 0.472315
658 1 0.410355 0.581011 0.496989
502 1 0.922134 0.910805 0.0113047
437 1 0.179253 0.500263 -0.00175557
682 1 0.40307 0.752365 0.495814
217 1 0.0062202 0.990872 0.490254
675 1 0.0777648 0.67052 0.587934
722 1 0.0814294 0.579966 0.659022
807 1 0.590152 0.499209 0.918508
656 1 0.177864 0.582816 0.58128
679 1 0.242678 0.670349 0.583687
660 1 0.337253 0.574508 0.593422
490 1 0.411443 0.915214 0.985995
469 1 0.502545 0.655707 0.984419
664 1 0.501952 0.582855 0.588242
683 1 0.416319 0.658412 0.579439
730 1 0.410959 0.596922 0.670246
663 1 0.580267 0.506377 0.593656
670 1 0.909454 0.576431 0.50891
458 1 0.0778849 0.752945 0.989604
687 1 0.581948 0.662048 0.590926
734 1 0.593687 0.589255 0.675808
757 1 0.505231 0.674338 0.684047
668 1 0.661658 0.573689 0.587674
738 1 0.744263 0.566589 0.684957
863 1 0.921832 0.837889 0.901495
761 1 0.67074 0.664832 0.663616
691 1 0.740873 0.656108 0.589997
473 1 0.66404 0.667665 0.996827
652 1 0.00868792 0.580951 0.581877
672 1 0.830988 0.575004 0.59247
862 1 0.924562 0.933813 0.836139
859 1 0.751298 0.822735 0.9133
745 1 0.994099 0.670888 0.659416
699 1 0.0889794 0.84372 0.584815
746 1 0.0984935 0.74935 0.667333
769 1 0.00622617 0.827089 0.684891
309 1 0.825851 0.998062 0.656969
773 1 0.166289 0.846711 0.675513
680 1 0.158405 0.746109 0.58173
750 1 0.247249 0.759007 0.650369
684 1 0.325798 0.737378 0.564803
688 1 0.496621 0.748669 0.605858
754 1 0.410212 0.739104 0.657872
785 1 0.679878 0.838573 0.679063
711 1 0.588336 0.832744 0.585951
758 1 0.58812 0.760682 0.67669
692 1 0.663417 0.741372 0.583109
715 1 0.729419 0.840343 0.583496
696 1 0.840802 0.749246 0.594301
693 1 0.821285 0.6698 0.512765
465 1 0.336497 0.667004 0.981416
695 1 0.911055 0.663475 0.586131
676 1 0.0156713 0.756682 0.575849
719 1 0.919025 0.823299 0.583558
700 1 0.00359612 0.91006 0.593799
770 1 0.0877708 0.917442 0.682789
307 1 0.753189 0.986661 0.751338
704 1 0.180729 0.91285 0.578983
857 1 0.652145 0.851591 0.843677
703 1 0.232889 0.823915 0.563965
774 1 0.25383 0.921926 0.659674
717 1 0.844216 0.829106 0.511003
777 1 0.33271 0.832326 0.641605
708 1 0.321794 0.927042 0.578317
707 1 0.431203 0.821 0.573357
223 1 0.249201 1.00142 0.578554
781 1 0.509442 0.84663 0.672936
778 1 0.417414 0.947673 0.652152
689 1 0.661977 0.66608 0.499334
712 1 0.503404 0.906677 0.573317
782 1 0.588632 0.909671 0.662599
716 1 0.662818 0.924761 0.572573
729 1 0.327349 0.508653 0.677174
690 1 0.754502 0.748452 0.526281
686 1 0.586026 0.73802 0.504688
219 1 0.07746 0.979922 0.57426
860 1 0.67581 0.919557 0.923571
481 1 0.99629 0.813056 0.997578
720 1 0.825105 0.902958 0.593447
790 1 0.923576 0.919972 0.660551
864 1 0.837701 0.913695 0.921298
749 1 0.165079 0.663243 0.669451
311 1 0.902451 0.996111 0.748835
821 1 0.173844 0.675527 0.830093
728 1 0.167263 0.572254 0.745748
747 1 0.0840116 0.649841 0.745931
726 1 0.241064 0.582388 0.668259
751 1 0.259969 0.674707 0.748979
753 1 0.320674 0.662207 0.664862
497 1 0.664346 0.828536 0.992818
732 1 0.336104 0.588155 0.755912
825 1 0.329524 0.669758 0.834737
793 1 0.993226 0.51256 0.833709
855 1 0.571671 0.842768 0.923422
736 1 0.501691 0.579369 0.748768
759 1 0.586204 0.66621 0.748911
806 1 0.579793 0.593527 0.819474
833 1 0.659932 0.662489 0.833219
740 1 0.678547 0.589433 0.752619
494 1 0.567416 0.918701 1.00058
724 1 0.994096 0.573408 0.746484
744 1 0.844375 0.573759 0.743599
742 1 0.923665 0.573444 0.665605
767 1 0.903073 0.657996 0.745498
748 1 0.997677 0.738434 0.746362
752 1 0.16886 0.761304 0.752789
771 1 0.0829477 0.829795 0.751552
822 1 0.255017 0.747827 0.821079
756 1 0.333391 0.768491 0.743523
849 1 0.326403 0.852207 0.834064
755 1 0.397097 0.675116 0.747742
779 1 0.415395 0.83522 0.746011
826 1 0.425103 0.750178 0.822297
760 1 0.486503 0.758145 0.737177
764 1 0.661935 0.749147 0.757957
829 1 0.502341 0.664974 0.824236
762 1 0.751795 0.746988 0.667022
763 1 0.757715 0.660992 0.741913
834 1 0.755241 0.748275 0.824555
837 1 0.835457 0.663607 0.828924
765 1 0.833142 0.666147 0.668692
766 1 0.916572 0.754098 0.675586
768 1 0.832542 0.757351 0.748724
838 1 0.914814 0.742042 0.81841
789 1 0.815645 0.838943 0.681244
462 1 0.242536 0.761169 0.984665
841 1 0.996983 0.841372 0.829763
733 1 0.504651 0.502881 0.674278
775 1 0.248793 0.829526 0.740307
776 1 0.173319 0.938325 0.745316
846 1 0.238162 0.923954 0.834398
853 1 0.513232 0.842854 0.82408
780 1 0.340284 0.918603 0.735074
655 1 0.24845 0.505082 0.59357
850 1 0.405034 0.92599 0.842372
854 1 0.581175 0.923555 0.833513
784 1 0.501147 0.936264 0.74972
783 1 0.593261 0.847745 0.751493
381 1 0.835119 0.996299 0.845252
786 1 0.746628 0.922844 0.650984
858 1 0.75107 0.920851 0.852017
787 1 0.742462 0.838036 0.780118
788 1 0.664725 0.925898 0.75882
791 1 0.923495 0.826618 0.751524
792 1 0.831003 0.916589 0.742929
772 1 0.00728335 0.917783 0.753564
856 1 0.497016 0.914576 0.907409
851 1 0.417642 0.836761 0.907711
794 1 0.0820692 0.581335 0.828579
449 1 0.66545 0.504673 0.995449
661 1 0.502868 0.504651 0.504905
798 1 0.247857 0.596459 0.820317
800 1 0.174653 0.596418 0.914483
823 1 0.249857 0.674861 0.911771
442 1 0.401867 0.586034 0.987906
802 1 0.418345 0.585858 0.828598
844 1 0.00630226 0.916107 0.924155
804 1 0.326861 0.591333 0.903236
847 1 0.245125 0.852667 0.9214
808 1 0.499447 0.570686 0.904446
812 1 0.661269 0.5857 0.910798
845 1 0.176441 0.836197 0.824299
810 1 0.75189 0.583277 0.840506
816 1 0.838521 0.58526 0.920393
848 1 0.155917 0.910883 0.919437
852 1 0.329426 0.920813 0.922013
814 1 0.906439 0.581697 0.832731
796 1 0.995855 0.588562 0.911629
820 1 0.00683571 0.744462 0.893468
817 1 0.00426221 0.656662 0.82551
818 1 0.0796547 0.734103 0.81559
799 1 0.252799 0.51379 0.913552
819 1 0.0780684 0.670706 0.905017
843 1 0.0719155 0.828037 0.914637
842 1 0.0853897 0.917072 0.839143
824 1 0.16409 0.755333 0.904272
828 1 0.328342 0.761878 0.902652
827 1 0.427835 0.656327 0.905953
832 1 0.507994 0.758355 0.911434
446 1 0.585554 0.592483 0.999532
830 1 0.580798 0.755278 0.811211
831 1 0.578513 0.674798 0.908268
470 1 0.57585 0.75923 0.995509
466 1 0.408966 0.74916 0.982055
438 1 0.248809 0.576924 0.999414
835 1 0.753241 0.661643 0.917531
836 1 0.647807 0.754611 0.892437
840 1 0.840168 0.766371 0.912929
861 1 0.834982 0.840967 0.831931
839 1 0.920201 0.672406 0.906643
474 1 0.746482 0.74558 0.985307
299 1 0.411291 1.00057 0.759815
669 1 0.822309 0.506857 0.509986
461 1 0.168481 0.677932 0.984271
706 1 0.419763 0.921055 0.499052
377 1 0.669482 0.994249 0.843868
305 1 0.667099 0.999961 0.678401
434 1 0.0860239 0.589451 0.990041
654 1 0.261047 0.587037 0.50749
649 1 0.997127 0.503549 0.502293
367 1 0.244625 0.996202 0.927243
365 1 0.159327 1.00064 0.853222
673 1 0.9939 0.666965 0.500779
801 1 0.336506 0.500429 0.829624
373 1 0.500422 1.00075 0.831133
231 1 0.5788 0.998444 0.566704
811 1 0.745447 0.517178 0.920073
725 1 0.159483 0.500695 0.667215
735 1 0.596576 0.515141 0.753894
727 1 0.248125 0.505918 0.757584
797 1 0.176193 0.501065 0.844784
651 1 0.0862445 0.50151 0.584988
795 1 0.102822 0.514243 0.919738
813 1 0.837531 0.49745 0.837404
295 1 0.251471 1.00015 0.758416
482 1 0.0819093 0.897778 0.997817
454 1 0.913906 0.585042 0.988675
685 1 0.492197 0.677004 0.503493
694 1 0.915247 0.751735 0.508256
477 1 0.845143 0.677253 0.984294
498 1 0.746121 0.926095 0.9967
501 1 0.827757 0.841926 0.996501
457 1 0.997401 0.672161 0.984905
666 1 0.741676 0.584057 0.513238
433 1 0.0107909 0.503096 0.984886
489 1 0.326357 0.829686 0.98941
17 1 0.660175 0.994441 0.998329
237 1 0.831682 0.998191 0.51417
713 1 0.666103 0.834817 0.503619
650 1 0.0852984 0.578618 0.502517
