ITEM: TIMESTEP
1500
ITEM: NUMBER OF ATOMS
864
ITEM: BOX BOUNDS pp pp pp
0.0000000000000000e+00 3.1559999999999999e+01
0.0000000000000000e+00 3.1559999999999999e+01
0.0000000000000000e+00 3.1559999999999999e+01
ITEM: ATOMS id type xs ys zs
213 1 0.835889 0.345163 0.330329
4 1 0.0174988 0.0907376 0.0677493
217 1 -0.0110705 -0.00911332 0.504803
74 1 0.0940731 0.0993233 0.165828
97 1 1.00645 0.165683 0.159197
215 1 0.920255 0.350899 0.417004
8 1 0.170218 0.100768 0.0808916
31 1 0.262783 0.162922 0.0772483
78 1 0.249583 0.0887371 0.157649
12 1 0.328461 0.0535634 0.0787382
35 1 0.408381 0.162309 0.0821858
16 1 0.491425 0.0826481 0.0868107
20 1 0.668323 0.0849987 0.085163
581 1 0.173408 0.494781 0.345491
39 1 0.591852 0.152399 0.0883538
24 1 0.826733 0.0866659 0.0749131
216 1 0.829111 0.416498 0.425882
455 1 0.926252 0.491319 0.0776115
73 1 -0.00593058 -0.00329502 0.16388
583 1 0.252898 0.480864 0.423076
94 1 0.925409 0.0868413 0.163641
509 1 0.190017 0.499685 0.159692
27 1 0.0763666 0.174313 0.0777118
121 1 1.00253 0.325127 0.167572
19 1 0.750508 0.00779066 0.0751549
32 1 0.169211 0.248507 0.08243
36 1 0.327062 0.259007 0.0811022
55 1 0.236741 0.342243 0.0820661
101 1 0.159874 0.1811 0.176557
102 1 0.253729 0.238792 0.15639
129 1 0.321395 0.329151 0.165078
15 1 0.592909 0.0110557 0.0730313
40 1 0.503422 0.244766 0.0834565
59 1 0.420743 0.339713 0.0855346
109 1 0.48826 0.17163 0.170395
17 1 0.657891 -0.00245932 -0.00134354
441 1 0.33075 0.497633 0.0127238
44 1 0.667335 0.242037 0.0855955
63 1 0.59049 0.342453 0.0771173
110 1 0.591423 0.243095 0.155092
249 1 0.344027 0.171493 0.501691
43 1 0.758494 0.163501 0.081143
48 1 0.829926 0.246208 0.0853818
67 1 0.745435 0.323061 0.091248
93 1 0.831326 -0.000391673 0.165408
28 1 0.989604 0.246526 0.0686564
163 1 0.738312 0.00435885 0.427534
47 1 0.904983 0.16282 0.0777506
71 1 0.901656 0.324154 0.0868802
118 1 0.922793 0.235992 0.157262
141 1 0.831376 0.322263 0.168047
51 1 0.0787925 0.336199 0.0791112
56 1 0.156084 0.40978 0.0891852
122 1 0.0856137 0.406708 0.172031
126 1 0.246577 0.407064 0.166607
83 1 0.426378 -0.00275924 0.239821
60 1 0.327837 0.40943 0.0847013
64 1 0.498381 0.415238 0.0842459
258 1 0.742091 0.248434 0.515516
134 1 0.585946 0.412981 0.150337
587 1 0.417081 0.497737 0.423238
211 1 0.750986 0.331584 0.409753
68 1 0.676656 0.418122 0.0822484
137 1 0.658498 0.340529 0.15872
149 1 0.163201 0.010822 0.336916
85 1 0.501567 -0.00179549 0.161363
589 1 0.492581 0.495016 0.322354
52 1 0.0118788 0.417384 0.0979964
72 1 0.831034 0.412853 0.0773348
142 1 0.925592 0.421229 0.164532
167 1 0.912432 -0.00928875 0.402784
447 1 0.574756 0.509665 0.0912164
76 1 0.00959031 0.0827305 0.263886
146 1 0.087159 0.09304 0.343406
80 1 0.165939 0.082724 0.242243
84 1 0.336165 0.0822714 0.251823
82 1 0.418168 0.0906893 0.17635
88 1 0.499309 0.0904625 0.257877
107 1 0.42513 0.180788 0.25735
206 1 0.588707 0.440704 0.333183
201 1 0.342573 0.324015 0.334502
86 1 0.569698 0.0840739 0.178675
579 1 0.0900881 0.498418 0.411674
92 1 0.666292 0.0822259 0.254458
158 1 0.583102 0.0703062 0.345975
200 1 0.166975 0.395156 0.427021
90 1 0.75351 0.0809376 0.154468
113 1 0.683739 0.163072 0.175623
115 1 0.758978 0.153948 0.249255
81 1 0.329555 0.00107672 0.177355
96 1 0.833953 0.0749341 0.254356
98 1 0.0766455 0.248041 0.160964
99 1 0.0739618 0.172378 0.262735
100 1 1.00073 0.255361 0.259179
170 1 0.0751475 0.252069 0.348993
103 1 0.245271 0.159702 0.253561
104 1 0.172684 0.247172 0.255228
105 1 0.32785 0.150497 0.172554
108 1 0.332713 0.23972 0.249842
127 1 0.252465 0.31618 0.261844
174 1 0.255021 0.234656 0.336505
106 1 0.40673 0.254876 0.156699
112 1 0.526351 0.254212 0.233143
131 1 0.42762 0.338551 0.255096
182 1 0.582394 0.253433 0.325921
205 1 0.50263 0.324283 0.322006
111 1 0.591689 0.164086 0.253865
114 1 0.757418 0.241612 0.170156
116 1 0.662944 0.241138 0.230443
185 1 0.686516 0.159095 0.328783
117 1 0.824318 0.149483 0.172213
119 1 0.933852 0.162361 0.242278
120 1 0.82587 0.245005 0.250054
123 1 0.0849108 0.329594 0.270928
197 1 0.167056 0.316414 0.349125
194 1 0.0932845 0.414358 0.335767
193 1 -0.0112196 0.331947 0.341771
207 1 0.581548 0.311443 0.416371
125 1 0.180216 0.323131 0.165329
128 1 0.171885 0.400974 0.241827
132 1 0.336007 0.40222 0.259764
202 1 0.411592 0.402854 0.342351
130 1 0.402575 0.396182 0.172392
133 1 0.501813 0.344292 0.171453
208 1 0.492937 0.41458 0.412013
135 1 0.58633 0.342362 0.238908
136 1 0.492125 0.421897 0.243042
210 1 0.739093 0.407573 0.336805
209 1 0.650117 0.343665 0.326056
443 1 0.419508 0.4882 0.0965696
138 1 0.747585 0.41674 0.158138
139 1 0.738766 0.338306 0.252422
140 1 0.664843 0.432341 0.244731
144 1 0.833707 0.416924 0.247061
214 1 0.933161 0.431578 0.331151
212 1 0.651449 0.40195 0.414401
124 1 0.0230775 0.428962 0.24884
143 1 0.914458 0.327222 0.235757
148 1 1.0022 0.0758347 0.42091
150 1 0.257177 0.0740535 0.331422
152 1 0.169092 0.0913324 0.420906
156 1 0.343962 0.0864061 0.416642
175 1 0.253181 0.150125 0.414756
179 1 0.428464 0.159405 0.433176
181 1 0.497056 0.168571 0.33845
154 1 0.423305 0.0861453 0.335555
160 1 0.49872 0.0765275 0.428543
218 1 0.0769943 0.0697658 0.511881
198 1 0.24028 0.405254 0.335898
183 1 0.592812 0.173381 0.403607
164 1 0.656165 0.0874682 0.42677
203 1 0.416001 0.324618 0.419651
433 1 0.00483444 0.492381 -0.00337804
162 1 0.752844 0.0687427 0.338543
507 1 0.0985507 0.500077 0.253795
3 1 0.0880676 0.0141603 0.0843867
166 1 0.917915 0.0889723 0.327215
168 1 0.839017 0.0746617 0.408682
23 1 0.906198 0.0148336 0.0939246
195 1 0.0858453 0.326736 0.430291
169 1 1.00286 0.167738 0.334156
171 1 0.0787472 0.151766 0.432862
172 1 0.999372 0.252523 0.418859
176 1 0.158797 0.228148 0.417952
77 1 0.169052 0.00123894 0.157387
199 1 0.253858 0.313924 0.41851
173 1 0.158261 0.171539 0.326147
177 1 0.33616 0.158938 0.327153
196 1 0.0173552 0.417062 0.424327
180 1 0.334713 0.247985 0.409099
178 1 0.41589 0.23962 0.338423
184 1 0.489809 0.246356 0.422586
188 1 0.673732 0.24206 0.425573
204 1 0.335766 0.413288 0.425812
186 1 0.741429 0.246922 0.326618
192 1 0.82223 0.256613 0.412911
187 1 0.75811 0.174154 0.412628
190 1 0.91312 0.246386 0.342203
189 1 0.830229 0.173844 0.344365
191 1 0.917509 0.162487 0.419112
281 1 0.657742 0.328954 0.511623
515 1 0.412577 0.492373 0.243761
577 1 0.00166244 0.517653 0.33996
585 1 0.329894 0.486228 0.337389
45 1 0.812265 0.166793 -0.00921701
599 1 0.932709 0.494081 0.441579
505 1 0.0042523 0.502239 0.153507
439 1 0.252941 0.480794 0.0798267
597 1 0.840002 0.494358 0.343905
95 1 0.934429 -0.00408719 0.245961
525 1 0.840234 0.49637 0.151974
511 1 0.247855 0.488705 0.265631
234 1 0.755749 0.0920033 0.49301
222 1 0.242704 0.0849028 0.503024
11 1 0.425896 -9.00669e-05 0.0973251
58 1 0.401261 0.411065 -0.00972467
241 1 1.00244 0.155541 0.505393
262 1 0.895353 0.26086 0.484844
33 1 0.32749 0.17714 -0.00342783
66 1 0.748516 0.414923 -0.00518059
273 1 0.33242 0.325068 0.504369
277 1 0.491507 0.326525 0.490707
54 1 0.254955 0.406011 -0.00725005
238 1 0.910571 0.0826197 0.504478
62 1 0.588979 0.412941 -0.00398683
38 1 0.58129 0.237451 0.0045962
437 1 0.176817 0.492488 0.0092864
50 1 0.0956209 0.411314 -0.00485399
282 1 0.727021 0.42488 0.497884
37 1 0.500772 0.159706 -0.00805448
61 1 0.496343 0.333418 0.00296271
269 1 0.161373 0.319872 0.502632
46 1 0.902899 0.247812 -0.0129565
13 1 0.50004 0.000905334 -0.00688238
1 1 -0.00141211 0.00718031 -0.0047513
289 1 1.00081 -0.00783432 0.674243
224 1 0.171858 0.0960314 0.584401
243 1 0.0798357 0.155592 0.590214
309 1 0.82818 0.00310514 0.655011
291 1 0.0906438 -0.000632504 0.749998
247 1 0.249091 0.177577 0.593538
294 1 0.255107 0.0771651 0.661181
317 1 0.168698 0.171063 0.663733
228 1 0.334675 0.0822426 0.575349
232 1 0.493975 0.0750352 0.590361
298 1 0.415964 0.0740593 0.665836
725 1 0.174598 0.49573 0.652155
236 1 0.653612 0.0800872 0.590176
430 1 0.921723 0.41972 0.821629
302 1 0.574922 0.074888 0.665879
325 1 0.503643 0.173811 0.659663
240 1 0.833721 0.0814953 0.577851
6 1 0.253273 0.0955864 0.999542
30 1 0.251358 0.253696 1.00307
220 1 0.993139 0.0844303 0.591472
14 1 0.588072 0.0920549 0.99803
29 1 0.172261 0.183474 1.00047
381 1 0.839061 -0.00200979 0.824999
244 1 0.00446417 0.254923 0.583356
248 1 0.157756 0.250919 0.587195
314 1 0.0685786 0.248079 0.665155
252 1 0.339519 0.240916 0.584495
271 1 0.24616 0.331062 0.577791
318 1 0.255052 0.263109 0.670231
341 1 0.153313 0.334304 0.674377
361 1 1.00423 0.0139682 0.835815
251 1 0.426417 0.171772 0.588283
321 1 0.342477 0.159587 0.652515
345 1 0.353552 0.326891 0.680246
659 1 0.415028 0.488185 0.602153
809 1 0.658043 0.511071 0.848013
723 1 0.0756552 0.503702 0.748463
255 1 0.588832 0.16424 0.592654
256 1 0.515699 0.253805 0.571176
260 1 0.658557 0.245976 0.578569
329 1 0.668959 0.180583 0.677624
259 1 0.738929 0.169403 0.57876
264 1 0.838333 0.24445 0.579162
357 1 0.843643 0.325115 0.648325
649 1 1.01037 0.519599 0.517296
266 1 0.0772331 0.415041 0.507514
263 1 0.92048 0.177479 0.572301
287 1 0.912567 0.330745 0.574
337 1 -0.0111549 0.330442 0.653712
267 1 0.0837916 0.331998 0.575823
268 1 0.998293 0.415524 0.575019
26 1 0.0800722 0.240346 0.986438
286 1 0.920119 0.415582 0.50296
226 1 0.418783 0.0633087 0.50213
272 1 0.162528 0.408332 0.586823
276 1 0.338696 0.397158 0.598902
342 1 0.251968 0.414916 0.671356
379 1 0.745603 0.0137892 0.906984
275 1 0.433156 0.334718 0.58944
280 1 0.512816 0.4037 0.571062
349 1 0.516251 0.329625 0.675855
432 1 0.834611 0.43812 0.903281
797 1 0.162458 0.498675 0.829945
279 1 0.588727 0.333694 0.60081
284 1 0.662433 0.421182 0.59114
377 1 0.67145 0.00878934 0.823078
299 1 0.425513 -0.00279721 0.755578
283 1 0.744299 0.348808 0.578135
288 1 0.823964 0.419946 0.59221
369 1 0.334335 0.0114423 0.817296
407 1 0.90796 0.170894 0.915154
655 1 0.275275 0.48323 0.595812
290 1 0.0813869 0.0689007 0.66613
296 1 0.160538 0.094658 0.735007
315 1 0.0809476 0.165568 0.755423
385 1 0.989936 0.167069 0.832017
366 1 0.252482 0.093773 0.822667
319 1 0.248225 0.168549 0.744105
393 1 0.340116 0.159639 0.834228
300 1 0.334331 0.0840519 0.737259
304 1 0.487879 0.0799639 0.754902
323 1 0.41119 0.161095 0.750768
397 1 0.488194 0.171876 0.835375
429 1 0.838134 0.343825 0.830189
374 1 0.574475 0.0765128 0.832247
308 1 0.662461 0.089154 0.751608
306 1 0.744002 0.0863891 0.667013
378 1 0.760375 0.0835378 0.819024
312 1 0.825955 0.0875242 0.736197
331 1 0.747727 0.176721 0.745817
426 1 0.741472 0.41502 0.843185
427 1 0.752056 0.331717 0.919566
292 1 1.00295 0.0843084 0.738568
310 1 0.912987 0.0857867 0.669489
313 1 1.00117 0.16553 0.668971
335 1 0.914313 0.165926 0.73502
386 1 0.0774265 0.246733 0.829336
320 1 0.156819 0.252721 0.741187
339 1 0.0616673 0.329183 0.747933
324 1 0.344348 0.250779 0.754131
343 1 0.264207 0.330826 0.755093
413 1 0.175156 0.328796 0.830969
322 1 0.425268 0.253376 0.667503
394 1 0.41697 0.248321 0.847565
328 1 0.501301 0.252449 0.759668
326 1 0.5882 0.248973 0.670514
327 1 0.57806 0.160663 0.738183
398 1 0.587558 0.251487 0.82924
351 1 0.579371 0.331319 0.7542
330 1 0.755576 0.259719 0.655252
332 1 0.670385 0.263518 0.754978
402 1 0.752141 0.25633 0.830472
333 1 0.835644 0.172836 0.657924
425 1 0.670374 0.330685 0.849303
316 1 -0.0123204 0.249316 0.765205
334 1 0.923312 0.246321 0.659497
336 1 0.843777 0.253354 0.734312
409 1 0.996442 0.341467 0.830514
359 1 0.925974 0.335959 0.747266
338 1 0.0575535 0.420187 0.660137
410 1 0.081802 0.406611 0.814719
70 1 0.933534 0.401506 1.01905
235 1 0.740854 -0.0102916 0.577618
344 1 0.157263 0.423127 0.748524
414 1 0.244838 0.424111 0.818391
348 1 0.347428 0.413029 0.76843
346 1 0.442165 0.410218 0.675184
347 1 0.427466 0.337994 0.757439
417 1 0.336945 0.3278 0.837072
418 1 0.429119 0.422484 0.847512
421 1 0.505938 0.325627 0.841007
350 1 0.582344 0.425658 0.673319
352 1 0.51561 0.417421 0.761423
422 1 0.590208 0.412609 0.844979
353 1 0.677932 0.340793 0.669983
354 1 0.752928 0.41913 0.675625
355 1 0.76801 0.335684 0.739215
356 1 0.664555 0.419944 0.758769
360 1 0.834328 0.422521 0.747376
424 1 0.499808 0.419073 0.936942
340 1 0.9886 0.425387 0.733379
358 1 0.90525 0.409236 0.6645
362 1 0.080518 0.0828091 0.817819
364 1 1.00019 0.0819308 0.910882
727 1 0.251011 0.501341 0.746648
372 1 0.331938 0.0981143 0.930117
368 1 0.166839 0.0937689 0.905415
391 1 0.248176 0.168865 0.904323
389 1 0.161133 0.181785 0.827005
376 1 0.494383 0.0815763 0.909027
370 1 0.423293 0.0848762 0.846939
395 1 0.411587 0.17226 0.929795
431 1 0.925775 0.332499 0.922048
428 1 0.680325 0.416706 0.923583
733 1 0.510378 0.510677 0.674134
399 1 0.580933 0.165264 0.905829
795 1 0.0918701 0.486367 0.915284
380 1 0.664856 0.0896487 0.899878
416 1 0.174287 0.404563 0.915231
419 1 0.423263 0.327853 0.926957
405 1 0.839632 0.172199 0.813667
363 1 0.090849 0.00427997 0.909389
420 1 0.324601 0.419261 0.910261
384 1 0.837237 0.0854029 0.928783
382 1 0.910795 0.087312 0.824286
661 1 0.50285 0.509438 0.516213
388 1 -0.000331783 0.248033 0.899616
387 1 0.0758763 0.156243 0.89432
392 1 0.169711 0.25214 0.917818
411 1 0.0890998 0.320951 0.926129
415 1 0.257693 0.327161 0.907232
390 1 0.269467 0.243702 0.82986
246 1 0.252218 0.23686 0.49077
799 1 0.258608 0.504925 0.921299
406 1 0.897828 0.265074 0.839231
400 1 0.504682 0.252202 0.928543
396 1 0.334258 0.24769 0.928685
408 1 0.823138 0.246786 0.917068
53 1 0.164918 0.336829 1.01091
404 1 0.671435 0.236548 0.918712
423 1 0.5867 0.323363 0.93201
401 1 0.673592 0.178311 0.835021
403 1 0.752033 0.160948 0.903792
412 1 0.00558412 0.407428 0.912733
365 1 0.171498 0.0234226 0.826102
373 1 0.487583 -0.0268363 0.843941
307 1 0.748885 0.00721006 0.739737
663 1 0.592085 0.507469 0.594769
807 1 0.581455 0.504469 0.927636
49 1 0.0022737 0.322266 0.988993
253 1 0.501077 0.165099 0.504536
10 1 0.406567 0.069133 1.00971
815 1 0.926592 0.486504 0.912224
297 1 0.339362 0.00266806 0.654639
34 1 0.420127 0.24125 1.00957
274 1 0.41514 0.411479 0.500278
731 1 0.422243 0.497688 0.756529
729 1 0.34413 0.498802 0.677054
305 1 0.663163 -0.00662168 0.659231
311 1 0.915664 -0.00060877 0.746952
367 1 0.257017 0.02482 0.914234
295 1 0.24814 0.00870502 0.745768
230 1 0.570416 0.0775324 0.514609
41 1 0.667219 0.162624 1.00096
270 1 0.230947 0.411465 0.512126
2 1 0.0846645 0.10133 0.981185
657 1 0.345107 0.494612 0.511753
254 1 0.579811 0.235606 0.488723
57 1 0.339224 0.331746 1.00506
22 1 0.92499 0.0795778 1.00568
21 1 0.833427 0.00667264 1.00624
5 1 0.169077 0.00904035 0.992303
653 1 0.157434 0.494449 0.51254
69 1 0.831872 0.338066 1.0014
42 1 0.761343 0.258628 1.00621
18 1 0.750591 0.0852006 1.00074
285 1 0.824341 0.342257 0.508314
25 1 -0.0112275 0.176793 0.985676
9 1 0.322172 -0.0176632 0.995689
250 1 0.415825 0.247823 0.50349
65 1 0.676406 0.330925 1.00972
278 1 0.588217 0.420766 0.493515
245 1 0.156632 0.164723 0.506652
261 1 0.834066 0.170692 0.488596
257 1 0.656821 0.168963 0.498212
242 1 0.0808958 0.239796 0.499786
453 1 0.850217 0.486542 1.00352
265 1 -0.011137 0.329639 0.494815
481 1 -0.0100904 0.839128 0.00313161
459 1 0.09454 0.663913 0.0840849
451 1 0.754265 0.500958 0.078097
506 1 0.0962168 0.574127 0.174012
440 1 0.179302 0.5841 0.0839268
521 1 0.684494 0.517854 0.16748
510 1 0.255515 0.583564 0.174689
444 1 0.340006 0.579023 0.084313
467 1 0.411269 0.673732 0.0876726
537 1 0.319453 0.663438 0.166611
682 1 0.404827 0.746395 0.489195
645 1 0.837735 0.83823 0.335369
448 1 0.480541 0.582826 0.074322
471 1 0.575947 0.675629 0.0683296
518 1 0.586444 0.599952 0.147537
647 1 0.927852 0.838362 0.418236
452 1 0.667834 0.585856 0.0676662
456 1 0.843598 0.583003 0.0852551
522 1 0.772229 0.59193 0.170316
155 1 0.399964 0.995347 0.404735
436 1 -0.00514268 0.578558 0.0881343
482 1 0.0823309 0.937354 -0.00902341
526 1 0.917554 0.579232 0.160883
697 1 0.00331745 0.846856 0.503301
530 1 0.0776202 0.748402 0.156855
461 1 0.15689 0.658561 0.00165952
463 1 0.251043 0.662511 0.0783999
464 1 0.177081 0.754486 0.0938016
487 1 0.244239 0.843062 0.0887127
533 1 0.175968 0.663771 0.176702
534 1 0.239148 0.745286 0.17921
557 1 0.154945 0.849539 0.166768
527 1 0.932029 0.492901 0.240627
468 1 0.310751 0.753517 0.0884297
491 1 0.427978 0.848095 0.0766955
517 1 0.497172 0.506243 0.171576
472 1 0.491824 0.748326 0.0867927
565 1 0.504134 0.833026 0.160145
569 1 0.658634 0.834711 0.158671
462 1 0.245697 0.746258 0.000330096
593 1 0.674999 0.505693 0.340224
153 1 0.327623 1.00717 0.325174
475 1 0.753101 0.657134 0.0795926
476 1 0.667844 0.750866 0.0925149
480 1 0.833668 0.739371 0.0682671
460 1 1.01239 0.743886 0.0754221
479 1 0.932096 0.672594 0.073667
503 1 0.915546 0.830279 0.0794052
529 1 1.00165 0.666883 0.171193
483 1 0.0881705 0.842767 0.0701363
484 1 0.99947 0.933837 0.0756344
591 1 0.573935 0.493041 0.42093
469 1 0.485341 0.659771 -0.00081783
75 1 0.0882022 1.00974 0.238254
513 1 0.331992 0.488021 0.173232
488 1 0.171456 0.920835 0.0649439
492 1 0.335673 0.926754 0.0859884
648 1 0.818876 0.932639 0.409714
639 1 0.574671 0.828223 0.422793
165 1 0.836292 0.999846 0.324399
638 1 0.578513 0.907906 0.328727
157 1 0.50463 0.989409 0.331767
495 1 0.572913 0.841101 0.0775007
435 1 0.0956143 0.502642 0.0904454
496 1 0.499242 0.924678 0.0793526
497 1 0.669262 0.84722 -0.0134601
499 1 0.754371 0.841931 0.0676913
221 1 0.177547 0.975372 0.506962
500 1 0.657345 0.927906 0.0779868
644 1 0.651116 0.914002 0.412989
237 1 0.82831 1.00696 0.500344
79 1 0.245371 1.01453 0.243991
504 1 0.82407 0.924144 0.0921645
87 1 0.58371 0.998431 0.242046
512 1 0.178101 0.591514 0.26092
578 1 0.0910261 0.573799 0.339696
601 1 1.00655 0.655008 0.342296
516 1 0.32464 0.572281 0.25509
535 1 0.244761 0.670669 0.260251
605 1 0.16534 0.659896 0.348726
609 1 0.327539 0.659342 0.342361
686 1 0.574664 0.740706 0.496047
637 1 0.496837 0.823789 0.317771
514 1 0.41143 0.57881 0.16208
586 1 0.416328 0.575111 0.321299
493 1 0.494934 0.8319 -0.00176825
520 1 0.498795 0.583839 0.254645
541 1 0.491847 0.656359 0.162441
543 1 0.587523 0.664262 0.243354
524 1 0.666225 0.592147 0.272188
528 1 0.84052 0.564057 0.262583
594 1 0.766855 0.587969 0.331165
634 1 0.400315 0.91573 0.310693
640 1 0.502516 0.90841 0.414964
621 1 0.837476 0.669963 0.345809
508 1 0.00248152 0.572487 0.244004
551 1 0.925647 0.659453 0.252304
531 1 0.0859532 0.659476 0.243857
532 1 -0.00628517 0.74916 0.254469
555 1 0.0905767 0.842293 0.241209
602 1 0.0698381 0.777483 0.325731
536 1 0.159118 0.735898 0.258062
629 1 0.164518 0.826329 0.337058
538 1 0.393701 0.76468 0.153103
539 1 0.398657 0.662898 0.249276
540 1 0.322149 0.750438 0.245556
542 1 0.591231 0.74031 0.163077
544 1 0.490886 0.744479 0.234219
545 1 0.674445 0.657056 0.154379
546 1 0.753136 0.731996 0.156838
547 1 0.766934 0.653815 0.251978
548 1 0.667746 0.756794 0.243552
571 1 0.742 0.842962 0.235852
549 1 0.856564 0.659119 0.159591
553 1 1.01358 0.838362 0.156235
550 1 0.918009 0.756731 0.172289
552 1 0.817057 0.749864 0.272183
622 1 0.926454 0.748801 0.327085
466 1 0.404644 0.767652 0.00792535
554 1 0.0830264 0.935805 0.166922
465 1 0.324159 0.667927 -0.00453903
559 1 0.235957 0.841522 0.253167
558 1 0.252347 0.923869 0.170025
560 1 0.165813 0.928767 0.259961
161 1 0.659707 0.990925 0.319972
450 1 0.760665 0.573245 -0.0073451
561 1 0.325852 0.8429 0.15417
563 1 0.415377 0.826394 0.238526
562 1 0.413622 0.909532 0.176018
564 1 0.319668 0.919492 0.249943
568 1 0.506345 0.915542 0.248092
641 1 0.66266 0.82724 0.323606
567 1 0.58142 0.841631 0.244894
566 1 0.58029 0.92282 0.163885
642 1 0.746543 0.920597 0.319681
573 1 0.830955 0.813351 0.159609
570 1 0.73499 0.923784 0.15705
572 1 0.666405 0.909697 0.244211
576 1 0.835708 0.919043 0.23613
630 1 0.250309 0.926472 0.333031
633 1 0.322951 0.834101 0.320703
646 1 0.92504 0.919347 0.327127
575 1 0.910107 0.827574 0.256633
556 1 -0.00164806 0.907735 0.247716
574 1 0.916826 0.921653 0.171638
694 1 0.916645 0.765229 0.499389
580 1 0.998421 0.578448 0.43077
584 1 0.177601 0.569619 0.44348
603 1 0.0920179 0.657568 0.425893
501 1 0.830752 0.832169 -0.00974492
445 1 0.486166 0.491985 0.00861447
582 1 0.251566 0.569952 0.343404
607 1 0.259533 0.659909 0.425716
636 1 0.335989 0.91602 0.401773
588 1 0.321046 0.566591 0.428482
613 1 0.502921 0.66844 0.32113
590 1 0.585301 0.581661 0.344471
592 1 0.493852 0.566372 0.423859
596 1 0.658266 0.584618 0.415532
628 1 1.01961 0.928009 0.418789
600 1 0.835682 0.584964 0.41698
145 1 0.0148203 1.00772 0.339753
626 1 0.0836641 0.920543 0.331868
598 1 0.911546 0.584874 0.334596
632 1 0.177665 0.913541 0.424409
623 1 0.924578 0.665496 0.419033
625 1 -0.00809781 0.841339 0.341442
604 1 1.01576 0.767994 0.42009
627 1 0.0912871 0.847049 0.418214
612 1 0.340512 0.749918 0.402056
606 1 0.238667 0.752739 0.341729
608 1 0.145538 0.754114 0.410871
631 1 0.258088 0.838541 0.404834
617 1 0.674882 0.682339 0.328682
616 1 0.499183 0.74474 0.4002
635 1 0.413484 0.830135 0.405203
610 1 0.420125 0.73355 0.320411
611 1 0.42412 0.653623 0.406606
615 1 0.580035 0.660579 0.41799
614 1 0.57517 0.746117 0.314781
624 1 0.845912 0.752004 0.417482
643 1 0.752627 0.85017 0.403821
620 1 0.649654 0.751053 0.410286
619 1 0.737012 0.658964 0.418701
618 1 0.754063 0.744799 0.36173
693 1 0.844415 0.660083 0.489527
91 1 0.757391 1.00235 0.235358
706 1 0.421982 0.920924 0.490358
718 1 0.89823 0.915084 0.496412
490 1 0.406906 0.925704 -0.0122722
159 1 0.586671 0.996875 0.423803
438 1 0.255123 0.580712 0.00458233
7 1 0.238184 1.0056 0.079927
595 1 0.743078 0.523484 0.421176
442 1 0.40927 0.581722 -0.00086209
702 1 0.263338 0.914831 0.50077
151 1 0.244975 1.00265 0.415461
519 1 0.590554 0.502711 0.239835
717 1 0.825937 0.837641 0.492599
147 1 0.0954506 1.00449 0.434012
89 1 0.668546 1.01414 0.161083
523 1 0.752045 0.497123 0.251898
689 1 0.659702 0.66695 0.503732
478 1 0.916147 0.754827 -0.00266991
665 1 0.64312 0.509515 0.499606
650 1 0.0926346 0.576718 0.512922
486 1 0.248014 0.918486 -0.00572815
494 1 0.580479 0.921787 -0.0119222
678 1 0.262155 0.750016 0.487842
690 1 0.757983 0.744682 0.493935
681 1 0.333919 0.648434 0.50155
474 1 0.748996 0.746929 -0.0054991
714 1 0.749118 0.912511 0.501503
502 1 0.907593 0.922353 0.0171245
705 1 0.351166 0.842761 0.506751
710 1 0.58195 0.913113 0.50009
225 1 0.328146 0.998882 0.499257
713 1 0.667088 0.832087 0.492176
673 1 0.00701502 0.668367 0.497946
656 1 0.166279 0.587151 0.600626
470 1 0.604769 0.758221 1.00544
675 1 0.100955 0.673549 0.587017
722 1 0.0796394 0.602338 0.666887
660 1 0.352462 0.580397 0.594932
667 1 0.744315 0.510133 0.593107
664 1 0.493342 0.596769 0.586344
683 1 0.416865 0.671356 0.588859
730 1 0.422915 0.571612 0.690155
862 1 0.915039 0.917089 0.826454
446 1 0.571215 0.583099 1.00683
709 1 0.490088 0.82394 0.485219
813 1 0.854349 0.512102 0.828412
687 1 0.589671 0.684841 0.586341
741 1 0.819608 0.51438 0.677868
668 1 0.659253 0.603266 0.583942
223 1 0.253842 0.991219 0.590611
793 1 1.00417 0.500955 0.82066
738 1 0.730879 0.602806 0.66063
743 1 0.913051 0.514542 0.741618
651 1 0.0796418 0.502236 0.594938
652 1 1.00211 0.601398 0.591519
672 1 0.835024 0.588492 0.589637
742 1 0.907776 0.587148 0.671571
671 1 0.907199 0.5023 0.59416
811 1 0.756374 0.51336 0.912068
858 1 0.752943 0.926985 0.830213
699 1 0.0859651 0.834641 0.589651
746 1 0.0755513 0.764049 0.665981
749 1 0.164253 0.670874 0.675218
721 1 0.99053 0.51497 0.677961
301 1 0.495503 0.979687 0.663021
679 1 0.257272 0.658716 0.578865
680 1 0.18582 0.739216 0.570709
703 1 0.24437 0.832739 0.574412
684 1 0.325894 0.745387 0.587733
750 1 0.241774 0.749443 0.65926
227 1 0.419408 0.986083 0.587719
707 1 0.413647 0.829429 0.599455
229 1 0.504417 0.994188 0.496427
805 1 0.503463 0.49426 0.843611
303 1 0.568736 0.992001 0.755929
688 1 0.491067 0.754097 0.573207
383 1 0.911317 0.996015 0.912848
691 1 0.759654 0.675486 0.568457
692 1 0.663399 0.759266 0.566248
715 1 0.757509 0.832094 0.575923
676 1 0.994075 0.766712 0.582374
695 1 0.913036 0.666595 0.580065
696 1 0.845089 0.755896 0.586397
719 1 0.910096 0.850503 0.569834
766 1 0.908245 0.769783 0.658495
231 1 0.576795 0.99606 0.590364
293 1 0.169628 1.0042 0.659927
704 1 0.173753 0.913661 0.589233
770 1 0.0739058 0.917876 0.669105
677 1 0.176293 0.680361 0.490794
239 1 0.912815 0.998556 0.583654
708 1 0.342162 0.909986 0.586931
774 1 0.253576 0.908138 0.668744
669 1 0.825584 0.49538 0.503513
861 1 0.847868 0.830373 0.828657
778 1 0.400156 0.916029 0.685736
803 1 0.406207 0.491572 0.927397
711 1 0.567407 0.821818 0.569256
712 1 0.493095 0.902197 0.582666
801 1 0.333624 0.495145 0.827487
859 1 0.764101 0.839767 0.905741
716 1 0.669073 0.896134 0.578652
864 1 0.82947 0.925589 0.929631
789 1 0.828815 0.84066 0.65485
219 1 0.0916527 0.998381 0.589478
371 1 0.408173 1.00544 0.903113
700 1 -0.00794068 0.917038 0.589449
720 1 0.817348 0.925813 0.576324
790 1 0.909228 0.921287 0.66794
737 1 0.66087 0.503157 0.676193
685 1 0.491451 0.674342 0.498131
724 1 0.993253 0.597721 0.745279
794 1 0.0794853 0.578004 0.815375
747 1 0.0764215 0.675256 0.746702
854 1 0.591984 0.910914 0.823009
726 1 0.255262 0.584189 0.673319
728 1 0.181311 0.589037 0.752596
753 1 0.328081 0.668764 0.662776
732 1 0.333558 0.586808 0.756001
736 1 0.509056 0.575065 0.765556
755 1 0.410874 0.661396 0.772582
857 1 0.682147 0.840577 0.833288
734 1 0.587073 0.592363 0.678477
759 1 0.577437 0.683971 0.753302
840 1 0.83414 0.724869 0.928422
375 1 0.575366 1.00063 0.914883
740 1 0.666247 0.591996 0.749535
765 1 0.838566 0.684772 0.67237
844 1 0.00438513 0.921968 0.917301
845 1 0.173628 0.828508 0.817241
856 1 0.501214 0.899782 0.92512
744 1 0.820631 0.599143 0.739725
745 1 -0.00407993 0.682895 0.66791
748 1 0.991817 0.776117 0.757861
752 1 0.165443 0.747147 0.747302
751 1 0.248185 0.663221 0.747587
773 1 0.164094 0.834113 0.66629
775 1 0.244607 0.825752 0.743578
756 1 0.329229 0.734995 0.758484
849 1 0.325977 0.822273 0.822443
754 1 0.412591 0.743837 0.670913
779 1 0.399998 0.819562 0.750419
757 1 0.484149 0.662605 0.673968
760 1 0.499697 0.749141 0.761664
781 1 0.490091 0.828929 0.680435
758 1 0.573203 0.749908 0.667819
783 1 0.587481 0.829997 0.751826
853 1 0.496382 0.82186 0.828537
785 1 0.666826 0.824092 0.668788
761 1 0.661037 0.693624 0.660304
762 1 0.754358 0.759219 0.656782
763 1 0.743339 0.683694 0.730336
764 1 0.67109 0.747378 0.766291
834 1 0.764208 0.741792 0.826683
769 1 0.988623 0.833406 0.666153
841 1 1.01097 0.852611 0.834586
767 1 0.919355 0.687926 0.744526
768 1 0.83803 0.7485 0.756305
791 1 0.900828 0.844913 0.737479
838 1 0.920884 0.76006 0.844461
771 1 0.0871517 0.843737 0.743388
842 1 0.0975817 0.922899 0.838813
776 1 0.161907 0.924532 0.744311
860 1 0.669732 0.934015 0.920767
777 1 0.328292 0.822981 0.669682
846 1 0.2303 0.923951 0.825675
780 1 0.315448 0.911878 0.755071
837 1 0.850278 0.655707 0.839987
851 1 0.398474 0.843282 0.919169
850 1 0.40738 0.899748 0.826844
830 1 0.58038 0.756769 0.841777
820 1 0.997812 0.759425 0.926736
852 1 0.321589 0.929811 0.897624
782 1 0.577229 0.904152 0.667684
784 1 0.490019 0.904837 0.752279
787 1 0.7534 0.829006 0.738058
786 1 0.746305 0.914788 0.675269
788 1 0.667966 0.917301 0.7403
848 1 0.173091 0.907602 0.913019
772 1 0.0169481 0.924088 0.759414
792 1 0.827357 0.916146 0.746471
800 1 0.168264 0.569083 0.923845
819 1 0.0850649 0.657997 0.925001
863 1 0.915224 0.854385 0.912045
822 1 0.245805 0.737253 0.82329
804 1 0.338242 0.588961 0.924357
823 1 0.242073 0.660437 0.924681
798 1 0.243177 0.579486 0.834903
825 1 0.33371 0.673296 0.849806
828 1 0.326681 0.764307 0.908353
808 1 0.506199 0.590917 0.916977
827 1 0.423685 0.662324 0.918461
802 1 0.41798 0.582628 0.843156
855 1 0.583499 0.839608 0.906965
829 1 0.501804 0.664002 0.844141
826 1 0.426444 0.750447 0.835025
806 1 0.585313 0.58437 0.838922
833 1 0.658811 0.662728 0.836869
835 1 0.752339 0.661982 0.917219
832 1 0.507802 0.753928 0.913056
810 1 0.758314 0.591175 0.830879
812 1 0.67282 0.598476 0.933278
821 1 0.159621 0.649842 0.83845
843 1 0.0812862 0.837687 0.918977
796 1 0.0110652 0.5927 0.911451
839 1 0.928248 0.664103 0.913877
847 1 0.242526 0.830124 0.89818
816 1 0.846403 0.575434 0.923713
814 1 0.931569 0.584731 0.842721
817 1 0.00162826 0.675276 0.834678
836 1 0.67158 0.7466 0.899307
824 1 0.166172 0.747069 0.911657
831 1 0.587392 0.673629 0.919687
818 1 0.0763663 0.751679 0.840226
735 1 0.590683 0.506573 0.763369
739 1 0.739814 0.503168 0.758691
498 1 0.752411 0.929794 1.00757
233 1 0.660414 1.00201 0.507409
674 1 0.0815655 0.750119 0.503783
654 1 0.254951 0.561288 0.527229
489 1 0.327184 0.839482 1.01316
485 1 0.174696 0.830282 1.00401
662 1 0.57946 0.591298 0.513644
666 1 0.749039 0.582061 0.511333
457 1 0.00357663 0.678539 0.990689
658 1 0.413886 0.577699 0.512953
449 1 0.676548 0.497894 1.00493
670 1 0.907066 0.581661 0.505937
698 1 0.0768245 0.917034 0.513137
454 1 0.919543 0.570082 1.0016
434 1 0.0772565 0.586363 1.00869
477 1 0.833409 0.658806 1.00423
473 1 0.663156 0.678349 1.00952
458 1 0.0919767 0.75188 1.00478
701 1 0.165072 0.824474 0.493278
