ITEM: TIMESTEP
9500
ITEM: NUMBER OF ATOMS
1372
ITEM: BOX BOUNDS pp pp pp
0.0000000000000000e+00 3.6820000000000000e+01
0.0000000000000000e+00 3.6820000000000000e+01
0.0000000000000000e+00 3.6820000000000000e+01
ITEM: ATOMS id type xs ys zs
8 1 0.144963 0.0731567 0.0710161
100 1 0.0799122 0.0757641 0.146906
103 1 0.157293 -0.00349764 0.14827
12 1 0.290302 0.0638807 0.0744074
104 1 0.219548 0.0724004 0.154011
21 1 0.210829 0.143378 0.0757911
102 1 0.00181486 0.0814191 0.232964
7 1 0.218739 0.00843107 0.0753237
346 1 0.215105 0.996561 0.505459
14 1 0.428631 0.0764304 0.0803183
108 1 0.357201 0.0802679 0.150264
375 1 0.136757 0.631258 0.489165
772 1 0.494208 0.865172 0.0718449
376 1 0.356003 0.575521 0.512533
239 1 -0.00474028 0.429917 0.279696
130 1 -0.00714385 0.354555 0.213263
295 1 0.00480831 0.990618 0.441862
117 1 0.146645 0.138527 0.14289
17 1 0.0599743 0.135939 0.0782992
22 1 0.136447 0.221255 0.0658219
114 1 0.0726505 0.209345 0.143051
31 1 0.0593046 0.275974 0.0699805
121 1 0.282928 0.142351 0.141805
26 1 0.277343 0.203526 0.0724277
118 1 0.241925 0.22694 0.151967
225 1 -0.00280873 0.277517 0.283234
135 1 0.307353 0.292413 0.136314
125 1 0.430591 0.143043 0.15207
25 1 0.36357 0.146592 0.0767571
28 1 0.430113 0.207708 0.084024
122 1 0.351803 0.210384 0.148112
39 1 0.361002 0.266488 0.0691274
361 1 0.144097 0.352146 0.48954
381 1 0.222846 0.711552 0.490638
183 1 0.0213335 0.851145 0.142597
131 1 0.132427 0.288255 0.132145
36 1 0.143289 0.367687 0.0824073
128 1 0.072439 0.351962 0.139741
884 1 0.509301 -0.0033727 0.354646
688 1 0.497364 1.00663 0.0743993
869 1 0.494715 0.933519 0.145675
35 1 0.220966 0.288351 0.0801686
40 1 0.298529 0.35844 0.0692013
132 1 0.220432 0.362016 0.152771
49 1 0.223909 0.426335 0.073779
1 1 -0.00315011 0.99002 0.000450586
1002 1 0.502239 0.506906 0.412362
186 1 -0.00105363 0.928536 0.218322
207 1 0.356658 1.01289 0.342258
814 1 0.507147 0.295389 0.20922
139 1 0.439949 0.283754 0.138126
42 1 0.435344 0.351889 0.0598837
136 1 0.375861 0.359073 0.133532
53 1 0.369548 0.419975 0.0636668
954 1 0.488885 0.704718 0.348306
386 1 0.0840768 0.864585 0.503246
45 1 0.0773939 0.435149 0.0841556
145 1 0.15354 0.437468 0.143606
50 1 0.136185 0.515178 0.0756617
142 1 0.0733238 0.516609 0.156073
59 1 0.0651318 0.57004 0.0675336
159 1 0.138473 0.583028 0.15747
342 1 0.358524 0.933008 0.434093
294 1 0.43028 0.945327 0.358923
149 1 0.296473 0.428862 0.131992
54 1 0.288865 0.496439 0.0626909
146 1 0.214113 0.500063 0.141934
855 1 0.500737 0.813668 0.150196
153 1 0.426001 0.433415 0.13944
56 1 0.413446 0.497339 0.0581731
150 1 0.360446 0.496334 0.136728
67 1 0.36306 0.579491 0.0714089
167 1 0.436783 0.553797 0.128928
86 1 0.0717452 0.921312 0.00190096
287 1 0.212866 0.858046 0.357226
337 1 -0.00106372 0.852559 0.42009
64 1 0.132762 0.640757 0.0728348
156 1 0.0556462 0.633967 0.138139
173 1 0.134728 0.703885 0.136373
72 1 0.064043 0.790671 -0.00307274
968 1 0.499324 0.86183 0.349392
63 1 0.206777 0.575749 0.0823799
163 1 0.28286 0.568514 0.138506
68 1 0.281274 0.636938 0.0721169
160 1 0.210846 0.647294 0.142176
77 1 0.216941 0.705735 0.0727894
70 1 0.424432 0.650292 0.0613466
164 1 0.369211 0.651288 0.12854
81 1 0.360899 0.728037 0.0691357
967 1 0.517915 0.924633 0.289375
127 1 0.00624606 0.281594 0.147384
73 1 0.0590274 0.715825 0.0781423
78 1 0.143346 0.796051 0.0630719
170 1 0.0773973 0.779002 0.138397
87 1 0.0761309 0.865423 0.074816
187 1 0.153774 0.847488 0.155291
32 1 -0.00627887 0.353372 0.0755057
387 1 -0.00308632 0.922116 0.491098
799 1 0.510333 0.21482 0.147669
172 1 -0.00300117 0.792586 0.220314
177 1 0.284729 0.716115 0.135735
82 1 0.288955 0.786855 0.0610756
174 1 0.208539 0.773587 0.140316
52 1 0.35124 0.497034 -0.00965885
382 1 0.151261 0.783039 0.498215
181 1 0.430447 0.714732 0.13964
316 1 0.0103383 0.435712 0.416404
84 1 0.430904 0.803032 0.0851444
178 1 0.364308 0.799048 0.146458
379 1 0.0698159 0.716894 0.484992
341 1 0.291476 0.869282 0.424028
3 1 0.0740938 1.00938 0.0677364
92 1 0.147735 0.924562 0.0730445
184 1 0.0839758 0.941092 0.147314
292 1 0.289778 0.942338 0.357049
369 1 0.355356 0.424069 0.494888
107 1 0.285037 0.000719473 0.152273
191 1 0.283458 0.849787 0.134247
91 1 0.217013 0.859372 0.0766726
96 1 0.292471 0.917559 0.067091
188 1 0.223869 0.923306 0.144833
270 1 0.00246936 0.782115 0.353791
897 1 0.504988 0.233369 0.271096
111 1 0.429189 -0.000574983 0.146818
11 1 0.349149 0.0014938 0.0806663
95 1 0.360288 0.862108 0.066168
195 1 0.428744 0.873101 0.149861
98 1 0.433181 0.93336 0.070963
192 1 0.349267 0.934811 0.139193
374 1 0.218968 0.574586 0.497596
106 1 0.145968 0.0762456 0.213321
198 1 0.0654063 0.0671635 0.289305
215 1 0.151742 0.138439 0.290841
201 1 0.147406 0.998403 0.284187
101 1 0.0849003 1.00843 0.221743
110 1 0.283041 0.0699529 0.218809
202 1 0.220013 0.0794591 0.295717
105 1 0.214453 -0.00583216 0.227294
219 1 0.296523 0.142138 0.289799
205 1 0.279999 -0.00250467 0.277407
112 1 0.429228 0.072155 0.206813
206 1 0.367265 0.0763401 0.278915
223 1 0.431001 0.162425 0.29082
340 1 0.2182 0.929778 0.418878
771 1 0.485073 0.918555 -0.000166143
115 1 0.0793039 0.146926 0.216583
120 1 0.156257 0.219827 0.1986
212 1 0.0800051 0.216816 0.281973
229 1 0.146416 0.276411 0.280238
119 1 0.224081 0.155989 0.213228
124 1 0.302611 0.209325 0.222238
216 1 0.214431 0.221834 0.278866
390 1 0.348178 0.848032 0.506511
123 1 0.364172 0.148328 0.223297
126 1 0.424205 0.230629 0.215033
220 1 0.368155 0.233666 0.290282
912 1 0.50153 0.287164 0.368287
129 1 0.0778763 0.28576 0.208532
134 1 0.147177 0.356355 0.203607
226 1 0.0829637 0.358289 0.264622
243 1 0.145198 0.428175 0.268571
233 1 0.291995 0.288857 0.288953
133 1 0.21877 0.291945 0.217496
138 1 0.288204 0.35398 0.222635
230 1 0.219095 0.36 0.283052
365 1 0.0768819 0.418924 0.498244
237 1 0.438074 0.297936 0.298294
137 1 0.361053 0.303792 0.22382
140 1 0.436678 0.352558 0.207834
234 1 0.36462 0.368977 0.293918
151 1 0.352734 0.425375 0.221282
251 1 0.43303 0.43579 0.288914
143 1 0.0821275 0.429952 0.196347
148 1 0.145986 0.499085 0.206732
240 1 0.071767 0.494001 0.275166
247 1 0.286581 0.436885 0.285606
147 1 0.224674 0.431732 0.208392
152 1 0.287264 0.502562 0.205127
244 1 0.22172 0.49988 0.277414
261 1 0.2987 0.577297 0.264178
339 1 0.146044 0.862331 0.43195
154 1 0.437027 0.503561 0.212064
248 1 0.360414 0.507268 0.284232
165 1 0.363443 0.559245 0.198906
257 1 0.131822 0.570002 0.278685
157 1 0.0686359 0.583406 0.209336
162 1 0.131241 0.649552 0.221828
254 1 0.0648715 0.637639 0.289217
271 1 0.152642 0.707091 0.283233
199 1 0.0731716 1.01065 0.360728
161 1 0.217422 0.578614 0.219019
166 1 0.296128 0.657925 0.207286
258 1 0.22288 0.642339 0.29322
175 1 0.221 0.701443 0.223106
297 1 0.144997 -0.00521788 0.424481
265 1 0.42717 0.57264 0.277674
168 1 0.427446 0.632676 0.198057
262 1 0.361555 0.643224 0.281113
279 1 0.428322 0.704576 0.277229
288 1 0.13886 0.917923 0.358587
171 1 0.0761128 0.720507 0.215002
176 1 0.162347 0.782981 0.223076
268 1 0.0854832 0.774724 0.290381
185 1 0.086019 0.850284 0.221901
275 1 0.290747 0.715094 0.284869
180 1 0.267883 0.771749 0.209485
272 1 0.227427 0.791713 0.294372
189 1 0.235518 0.852293 0.214521
289 1 0.289265 0.864513 0.290703
1009 1 0.4934 0.647645 0.426215
179 1 0.361018 0.725729 0.205789
182 1 0.419625 0.800345 0.219098
276 1 0.355749 0.790631 0.285017
338 1 0.0676536 0.92011 0.428277
285 1 0.155714 0.849347 0.283323
190 1 0.143431 0.931387 0.215035
282 1 0.0661448 0.929331 0.29109
194 1 0.295166 0.93622 0.218397
286 1 0.227723 0.923969 0.291166
785 1 0.499796 0.059112 0.148796
109 1 0.358448 -0.00252113 0.226536
293 1 0.429831 0.860173 0.292586
193 1 0.358128 0.864115 0.213428
209 1 0.436866 1.00294 0.287671
196 1 0.449328 0.934277 0.222241
290 1 0.359348 0.931978 0.288472
325 1 0.147013 0.563355 0.422904
46 1 0.007466 0.497872 0.073611
204 1 0.155611 0.0751994 0.3688
296 1 0.0726808 0.0660851 0.433984
304 1 0.160028 0.154163 0.427127
18 1 -0.00510816 0.204234 0.0742009
280 1 0.42348 0.786833 0.357297
203 1 0.211998 1.00609 0.357851
299 1 0.278979 1.00152 0.431986
208 1 0.292268 0.0762129 0.356195
298 1 0.221846 0.0698434 0.437773
217 1 0.228492 0.147736 0.3573
264 1 0.299932 0.645607 0.356204
283 1 0.0759228 0.851733 0.351947
301 1 0.44309 1.00612 0.41679
210 1 0.4322 0.0703498 0.359493
300 1 0.357955 0.0664041 0.427094
308 1 0.427721 0.145545 0.428843
335 1 0.356964 0.784149 0.431412
260 1 0.137321 0.645612 0.360327
213 1 0.0758164 0.132746 0.349921
218 1 0.154683 0.21648 0.363386
303 1 0.0803793 0.202125 0.425441
227 1 0.0689238 0.290521 0.350028
311 1 0.134962 0.288181 0.426819
328 1 0.345864 0.62445 0.431853
326 1 0.212383 0.643669 0.4062
269 1 0.0794461 0.717398 0.371851
306 1 0.296424 0.156197 0.428088
222 1 0.289553 0.214945 0.348848
305 1 0.223291 0.22639 0.428387
313 1 0.288004 0.298126 0.413441
1016 1 0.49416 0.775732 0.428728
266 1 0.421905 0.637771 0.350464
221 1 0.360444 0.147289 0.356819
224 1 0.440111 0.231848 0.363094
307 1 0.357099 0.231813 0.419222
235 1 0.355446 0.302159 0.355297
856 1 0.484987 0.728643 0.208681
273 1 0.221888 0.722809 0.35054
232 1 0.140257 0.362865 0.350848
310 1 0.0610192 0.354077 0.427675
318 1 0.141152 0.426822 0.425953
324 1 0.0788076 0.631993 0.429547
278 1 0.288561 0.782258 0.36586
231 1 0.211015 0.290355 0.343515
236 1 0.288361 0.368077 0.347812
312 1 0.213095 0.35033 0.418318
320 1 0.293911 0.434015 0.423285
333 1 0.219159 0.784201 0.42465
255 1 0.0700966 0.567728 0.350117
315 1 0.427076 0.293748 0.425092
238 1 0.441175 0.361593 0.365642
314 1 0.349324 0.360943 0.429761
249 1 0.359126 0.4351 0.354203
322 1 0.422683 0.439966 0.420347
336 1 0.410132 0.707434 0.433048
332 1 0.151687 0.708818 0.434748
343 1 0.430747 0.851656 0.419973
241 1 0.0707206 0.425619 0.34419
246 1 0.135251 0.497977 0.342285
317 1 0.0782029 0.500319 0.414847
274 1 0.143995 0.77831 0.350335
331 1 0.0759962 0.784451 0.42518
259 1 0.211191 0.568958 0.343063
245 1 0.215523 0.431597 0.354313
327 1 0.270453 0.565858 0.427038
319 1 0.219048 0.49474 0.423026
250 1 0.283974 0.503699 0.345746
291 1 0.356193 0.859015 0.357547
329 1 0.434386 0.572815 0.407638
263 1 0.348151 0.571857 0.34861
252 1 0.433282 0.5058 0.347175
321 1 0.356983 0.509647 0.420336
277 1 0.358442 0.715783 0.345409
334 1 0.286214 0.713095 0.432023
981 1 0.507631 0.0781825 0.421219
370 1 0.290225 0.502124 0.497857
4 1 0.00107164 0.0517657 0.0684391
267 1 0.0077975 0.714433 0.290117
841 1 0.496479 0.636637 0.136829
15 1 0.00131864 0.1261 0.00134437
354 1 0.137654 0.205708 0.49859
358 1 0.0827011 0.288268 0.506367
214 1 0.00104589 0.210639 0.360944
323 1 -0.0068343 0.567046 0.41545
88 1 -9.20088e-05 0.930502 0.0837521
702 1 0.499304 0.144452 0.0684626
242 1 0.00174667 0.496065 0.344735
93 1 0.283519 0.853316 0.00196026
83 1 0.433258 0.723131 -0.000549169
347 1 0.145375 0.0689226 0.498073
389 1 0.140939 0.932671 0.502371
66 1 0.356628 0.634836 -0.000426526
371 1 0.420853 0.501615 0.499239
355 1 0.358903 0.14162 0.497426
33 1 0.147276 0.291935 0.000968575
69 1 0.432538 0.571972 -0.00319222
351 1 0.0658002 0.133344 0.506712
362 1 0.359362 0.298581 0.496702
757 1 0.484389 0.79553 -0.00528587
80 1 0.359265 0.787345 -0.000637993
372 1 0.0585862 0.555592 0.479211
377 1 0.280439 0.640777 0.495207
13 1 0.427778 0.000737117 0.00269185
9 1 0.282182 0.00160372 -0.00012948
5 1 0.140453 0.996702 0.0003892
47 1 0.13567 0.421539 0.00278415
38 1 0.347344 0.354813 -0.00295784
48 1 0.205508 0.50381 0.0105166
363 1 0.280847 0.355777 0.513788
1072 1 0.503649 0.851892 0.497489
79 1 0.284798 0.71377 0.000975055
51 1 0.29268 0.426068 -0.00822298
34 1 0.217694 0.365893 -0.00275787
743 1 0.491014 0.650825 -0.00465024
364 1 0.434261 0.369021 0.497939
1058 1 0.492691 0.563687 0.502408
353 1 0.231152 0.14479 0.494188
75 1 0.128719 0.712693 0.00854484
76 1 0.212745 0.775788 0.00104092
394 1 0.06857 0.0555304 0.56815
400 1 0.147612 0.0858561 0.63948
395 1 0.06472 0.00404304 0.647612
411 1 0.163652 0.133838 0.556584
438 1 0.0107872 0.496373 0.628288
547 1 -0.000252422 0.579124 0.708092
659 1 0.00781721 0.720606 0.85826
398 1 0.226984 0.0666519 0.561772
404 1 0.294453 0.0700299 0.641575
413 1 0.221505 0.136 0.646076
415 1 0.288399 0.146288 0.567394
1108 1 0.491129 0.289495 0.640171
402 1 0.361971 0.0809097 0.565147
406 1 0.425988 0.0718647 0.643603
405 1 0.42558 1.00712 0.580445
1164 1 0.507688 0.85136 0.647864
383 1 0.354924 0.71638 0.502534
6 1 0.212779 0.0711192 1.00592
1079 1 0.49737 0.063998 0.566475
1331 1 0.506176 0.648409 0.861309
409 1 0.0621746 0.142527 0.649373
408 1 0.0700138 0.209257 0.567769
414 1 0.141797 0.188601 0.638658
423 1 0.0732711 0.289032 0.637229
1150 1 0.48975 0.702758 0.647671
1219 1 0.491144 0.515541 0.71422
24 1 0.365883 0.213337 0.998036
412 1 0.215339 0.216992 0.567371
418 1 0.28096 0.229434 0.638169
427 1 0.199265 0.276384 0.649084
417 1 0.353866 0.148141 0.639826
419 1 0.428893 0.146969 0.568379
416 1 0.355887 0.20943 0.562784
420 1 0.420024 0.231613 0.623882
433 1 0.423528 0.303027 0.563645
431 1 0.353174 0.298369 0.656476
384 1 0.275383 0.785086 0.497538
1107 1 0.490994 0.380568 0.565616
1276 1 0.499156 0.992389 0.925782
425 1 0.149558 0.274206 0.573978
422 1 0.0638401 0.355026 0.568318
428 1 0.13839 0.360772 0.649014
439 1 0.138307 0.423263 0.562583
536 1 -0.00201904 0.51014 0.785166
1080 1 0.493762 0.998882 0.64598
1065 1 0.478521 0.711291 0.507307
429 1 0.299387 0.289353 0.576616
426 1 0.214604 0.356138 0.580944
432 1 0.288914 0.367774 0.642178
441 1 0.210667 0.427697 0.631543
443 1 0.289796 0.435585 0.578371
430 1 0.360948 0.376309 0.566985
434 1 0.435081 0.36584 0.636517
447 1 0.426085 0.445232 0.569821
23 1 0.27874 0.133747 0.996292
437 1 0.0720594 0.42872 0.643211
436 1 0.080492 0.504842 0.56535
442 1 0.143674 0.490276 0.639784
645 1 0.00360625 0.565531 0.85177
44 1 0.0791468 0.498262 1.00198
440 1 0.214802 0.503273 0.571755
446 1 0.278545 0.515604 0.64259
1318 1 0.517181 0.430209 0.932577
41 1 0.423521 0.284435 1.00092
1360 1 0.499168 0.852895 0.921121
445 1 0.352958 0.437805 0.65264
444 1 0.356652 0.50383 0.575163
448 1 0.42796 0.494588 0.647582
459 1 0.361734 0.575835 0.651691
461 1 0.414963 0.574167 0.579254
451 1 0.0759451 0.567438 0.632599
453 1 0.14853 0.566526 0.561723
450 1 0.0788591 0.640165 0.55755
456 1 0.139809 0.644588 0.62674
683 1 0.340394 0.858628 0.929866
508 1 -0.00579746 0.203431 0.788802
682 1 0.367105 0.935586 0.86079
410 1 0.00631373 0.213982 0.643646
455 1 0.208682 0.57701 0.634039
457 1 0.28165 0.577547 0.56781
454 1 0.214348 0.644399 0.564872
460 1 0.283564 0.648235 0.642868
469 1 0.222006 0.719566 0.63722
458 1 0.341199 0.64439 0.573145
462 1 0.417488 0.649833 0.642426
473 1 0.352831 0.726977 0.655196
37 1 0.289109 0.2812 1.01505
475 1 0.414536 0.712697 0.577367
522 1 0.00557346 0.360353 0.779053
491 1 0.00295679 0.999937 0.719708
1275 1 0.496534 0.0792861 0.852345
465 1 0.0613639 0.713435 0.633331
467 1 0.134921 0.707485 0.549244
464 1 0.0606355 0.791574 0.571494
470 1 0.140505 0.783314 0.641357
479 1 0.0603492 0.861702 0.650005
481 1 0.138662 0.852711 0.580142
1262 1 0.498883 0.852618 0.797774
471 1 0.285843 0.715758 0.56106
468 1 0.21995 0.791894 0.568309
474 1 0.280717 0.780618 0.663535
483 1 0.211917 0.854615 0.639681
485 1 0.288919 0.849461 0.577052
472 1 0.36957 0.804517 0.582617
476 1 0.42574 0.782476 0.645672
676 1 -0.0040683 0.929873 0.937018
1205 1 0.496384 0.35262 0.71226
397 1 0.151729 0.013691 0.568773
478 1 0.0789711 0.940975 0.566247
484 1 0.13379 0.933622 0.645167
686 1 0.427091 0.930501 0.932174
19 1 0.150985 0.142109 1.00171
401 1 0.281916 -0.00886615 0.565315
399 1 0.233698 0.00932452 0.638394
482 1 0.204732 0.926038 0.569801
488 1 0.278888 0.924125 0.643143
403 1 0.354785 1.00029 0.637058
494 1 0.000499668 0.0692253 0.789818
27 1 0.428646 0.145082 0.990691
487 1 0.350393 0.850511 0.657094
489 1 0.430831 0.867867 0.577749
486 1 0.358867 0.929506 0.579013
490 1 0.42848 0.926343 0.637821
1094 1 0.493505 0.138041 0.635313
492 1 0.0825756 0.0761793 0.725564
498 1 0.159448 0.0709818 0.785724
507 1 0.0724346 0.119507 0.80427
509 1 0.162471 0.135123 0.71415
493 1 0.0711678 1.00042 0.784399
496 1 0.22946 0.06924 0.723224
502 1 0.285885 0.0737395 0.791686
513 1 0.279472 0.148527 0.718976
497 1 0.224344 0.995468 0.788641
500 1 0.358843 0.0705803 0.720432
504 1 0.425447 0.0751847 0.791078
515 1 0.367601 0.14024 0.779603
503 1 0.418076 1.00432 0.709139
501 1 0.362085 0.00614842 0.790168
517 1 0.434473 0.152584 0.703526
506 1 0.0585163 0.208329 0.719576
512 1 0.144181 0.216041 0.788322
523 1 0.137529 0.282445 0.713125
511 1 0.217273 0.142284 0.791745
510 1 0.216281 0.214691 0.712626
516 1 0.28056 0.210832 0.788368
525 1 0.205901 0.28564 0.797866
1359 1 0.496857 0.924073 0.853616
514 1 0.345422 0.213227 0.722237
518 1 0.432391 0.209881 0.775351
529 1 0.362094 0.287811 0.781605
385 1 0.420961 0.791858 0.505364
663 1 0.136034 0.707654 0.852078
521 1 0.0756146 0.288951 0.785849
520 1 0.0735017 0.363264 0.709625
526 1 0.128269 0.363041 0.795377
537 1 0.139919 0.424789 0.720017
535 1 0.0683515 0.427188 0.791945
527 1 0.274638 0.29815 0.71935
524 1 0.200904 0.359612 0.718264
530 1 0.286325 0.360741 0.804275
539 1 0.21707 0.427931 0.786177
531 1 0.43078 0.273145 0.704471
528 1 0.350314 0.365628 0.721266
532 1 0.434774 0.356661 0.77595
685 1 0.431407 0.859014 0.86227
665 1 0.205636 0.707619 0.934931
534 1 0.0632067 0.509297 0.708734
540 1 0.138988 0.50956 0.777041
666 1 0.140945 0.780839 0.927471
541 1 0.275662 0.441742 0.712659
538 1 0.206514 0.516377 0.713607
544 1 0.277346 0.504833 0.791573
555 1 0.284063 0.584262 0.708946
545 1 0.423107 0.435964 0.716487
543 1 0.353919 0.430915 0.791493
542 1 0.346597 0.510525 0.716931
546 1 0.420154 0.498985 0.790691
557 1 0.357201 0.571822 0.788975
559 1 0.427032 0.587039 0.726288
551 1 0.131142 0.575065 0.721327
549 1 0.0682714 0.579813 0.785818
548 1 0.0711075 0.64034 0.700248
554 1 0.151912 0.6492 0.773633
565 1 0.1413 0.708404 0.698768
670 1 0.276433 0.781524 0.931247
553 1 0.211965 0.576777 0.785727
552 1 0.21543 0.64511 0.701558
558 1 0.280713 0.635619 0.785396
569 1 0.278341 0.706877 0.717539
661 1 0.0696901 0.712329 0.928757
556 1 0.355332 0.643192 0.723461
560 1 0.426723 0.646938 0.805593
571 1 0.349012 0.696687 0.799191
573 1 0.432328 0.715616 0.740622
664 1 0.201829 0.791119 0.860617
601 1 0.44104 0.000751812 0.857605
563 1 0.0776914 0.711609 0.76846
562 1 0.0728013 0.790897 0.701217
568 1 0.142426 0.781582 0.788398
577 1 0.0660908 0.855724 0.773004
579 1 0.142856 0.863674 0.70464
681 1 0.275116 0.854158 0.851886
567 1 0.21699 0.712899 0.793115
566 1 0.199655 0.778662 0.713839
572 1 0.28333 0.782811 0.787131
581 1 0.204515 0.854157 0.77676
583 1 0.283547 0.85599 0.720374
570 1 0.366673 0.768478 0.733107
574 1 0.434706 0.784136 0.801771
587 1 0.433335 0.851607 0.722548
533 1 -0.0031606 0.421695 0.711056
495 1 0.14538 0.00699439 0.692213
576 1 0.0677812 0.930223 0.713439
582 1 0.144866 0.932534 0.780669
678 1 0.225608 0.935882 0.861357
654 1 0.348188 0.637361 0.857878
499 1 0.288731 0.981098 0.717498
580 1 0.203133 0.933673 0.710525
586 1 0.299803 0.919701 0.79465
585 1 0.361615 0.84726 0.783566
584 1 0.365435 0.921322 0.70448
588 1 0.416048 0.928618 0.782568
684 1 0.297352 0.937505 0.939474
590 1 0.0697995 0.0491034 0.876476
596 1 0.143085 0.0645762 0.937346
607 1 0.144351 0.138561 0.849493
605 1 0.0744082 0.146476 0.922065
593 1 0.141348 -0.00405958 0.849658
680 1 0.143891 0.934892 0.934316
679 1 0.234055 0.871633 0.927683
1192 1 0.516617 0.155268 0.784289
672 1 0.425889 0.7782 0.924688
597 1 0.284418 1.00672 0.853716
595 1 0.21503 -0.00609254 0.934066
594 1 0.208262 0.0604509 0.866744
600 1 0.280167 0.0683613 0.926626
609 1 0.213934 0.138765 0.931921
677 1 0.140607 0.861708 0.872347
599 1 0.360839 0.00121411 0.92195
598 1 0.374716 0.067859 0.858203
602 1 0.433574 0.0649852 0.937195
613 1 0.369495 0.136012 0.918851
615 1 0.429999 0.149339 0.848412
674 1 0.0697666 0.914328 0.836625
604 1 0.0787966 0.220654 0.853779
610 1 0.144654 0.220682 0.925944
619 1 0.0705843 0.285808 0.929314
621 1 0.13784 0.290284 0.86474
1135 1 0.484845 0.6425 0.570189
655 1 0.354459 0.567859 0.935293
668 1 0.35564 0.786316 0.852885
611 1 0.280515 0.131334 0.864238
608 1 0.221619 0.203544 0.867793
614 1 0.290955 0.203424 0.920681
623 1 0.231017 0.274685 0.930856
625 1 0.288795 0.278676 0.859441
589 1 0.00273435 0.992948 0.854402
675 1 0.0687171 0.865019 0.931806
612 1 0.360648 0.208779 0.848585
616 1 0.432298 0.219457 0.921806
627 1 0.350402 0.283496 0.933444
629 1 0.431831 0.286629 0.852782
591 1 0.0675057 0.996358 0.943761
1136 1 0.488523 0.585216 0.650512
658 1 0.422336 0.639686 0.931554
687 1 0.493625 0.0689295 1.00545
669 1 0.346099 0.71813 0.92339
618 1 0.0627442 0.359806 0.853461
624 1 0.141058 0.350009 0.940255
622 1 0.213046 0.356506 0.862315
628 1 0.287675 0.356175 0.923061
656 1 0.288866 0.640999 0.925447
626 1 0.355807 0.348753 0.862267
630 1 0.429388 0.346307 0.926582
641 1 0.35359 0.422827 0.934217
650 1 0.21781 0.651454 0.860014
635 1 0.145342 0.451387 0.848785
633 1 0.0704677 0.413279 0.921541
632 1 0.0766634 0.504731 0.860479
638 1 0.145482 0.507918 0.929893
649 1 0.137599 0.574155 0.85565
1261 1 0.478843 0.931673 0.714193
667 1 0.274146 0.719535 0.859389
639 1 0.285915 0.431271 0.862525
637 1 0.203788 0.429336 0.931601
636 1 0.21479 0.500513 0.859918
642 1 0.276685 0.501793 0.931229
653 1 0.280045 0.573483 0.865134
61 1 0.148739 0.576435 1.00204
651 1 0.209527 0.574975 0.932117
643 1 0.425434 0.436148 0.860053
644 1 0.433945 0.507347 0.928063
640 1 0.354906 0.505959 0.865232
657 1 0.43668 0.574418 0.862564
660 1 0.0751145 0.789431 0.85565
671 1 0.421312 0.714371 0.863143
647 1 0.0652753 0.576797 0.92262
652 1 0.136458 0.6482 0.935907
646 1 0.0732439 0.646102 0.850862
648 1 -0.00815677 0.646437 0.926065
466 1 -0.0167945 0.777878 0.635631
1332 1 0.500078 0.579872 0.93019
1163 1 0.497927 0.941691 0.569603
1149 1 0.493573 0.785614 0.563666
435 1 -0.00442602 0.414854 0.574853
65 1 0.278442 0.572677 0.992352
1121 1 0.492134 0.510026 0.58246
592 1 -0.00608649 0.0628823 0.926297
1220 1 0.488902 0.43074 0.790623
1122 1 0.500593 0.425818 0.653987
578 1 -0.0083232 0.93098 0.777568
673 1 -0.00671869 0.861858 0.845725
368 1 0.154763 0.489897 0.486521
393 1 0.0060208 0.993647 0.571596
20 1 0.210242 0.209931 1.00567
357 1 0.42456 0.229592 0.496328
29 1 0.00107424 0.270451 0.996749
348 1 0.355894 0.999821 0.502687
424 1 0.00948035 0.350417 0.6442
634 1 -0.00373197 0.495207 0.924966
606 1 0.000237608 0.215237 0.921401
349 1 0.298691 0.082728 0.487133
620 1 -0.00471302 0.361061 0.929246
407 1 0.000830385 0.145035 0.574004
392 1 0.428993 0.938739 0.505844
564 1 -0.00135633 0.794945 0.778159
1044 1 0.497258 0.295599 0.504897
388 1 0.201763 0.862158 0.505999
10 1 0.360995 0.0805457 1.00046
89 1 0.156145 0.85652 0.990068
90 1 0.222993 0.927501 1.00365
360 1 0.199512 0.284898 0.495341
16 1 0.074516 0.205033 0.999028
2 1 0.0736363 0.0773488 0.998975
30 1 0.0605952 0.355569 1.00858
359 1 -0.00633028 0.351756 0.495773
350 1 0.424137 0.071489 0.491618
43 1 0.00404196 0.424974 0.995477
344 1 0.0735617 -0.00381657 0.495704
356 1 0.280459 0.231576 0.498032
378 1 0.419482 0.640405 0.502536
391 1 0.272901 0.916298 0.499383
367 1 0.221635 0.425322 0.490287
62 1 0.205493 0.644182 1.00188
97 1 0.413616 0.861679 0.991857
58 1 0.0655817 0.642758 1.00447
1051 1 0.500479 0.447121 0.485785
55 1 0.442716 0.420196 0.999158
94 1 0.358432 0.939567 1.0042
692 1 0.573916 0.0712532 0.0751513
788 1 0.637507 0.0748978 0.13916
705 1 0.642162 0.152408 0.080073
691 1 0.645251 0.992072 0.086832
787 1 0.563977 0.98815 0.135919
696 1 0.716071 0.0739667 0.0745281
792 1 0.793362 0.0631576 0.152031
695 1 0.784708 -0.0187047 0.0805314
700 1 0.849643 0.0633649 0.0812614
796 1 0.938572 0.0634534 0.14931
704 1 0.647134 0.212689 4.49042e-05
699 1 0.926287 1.01028 0.0829699
801 1 0.560821 0.136966 0.139902
706 1 0.572391 0.215151 0.0801546
802 1 0.646686 0.223144 0.148112
719 1 0.643237 0.281366 0.0753637
800 1 0.489736 0.160209 0.216561
309 1 0.996504 0.291802 0.429953
1038 1 0.643352 0.135754 0.490702
805 1 0.716989 0.139335 0.149753
709 1 0.790622 0.132142 0.0682827
710 1 0.7153 0.200322 0.0660464
806 1 0.786842 0.211436 0.146873
819 1 0.726416 0.280912 0.144522
809 1 0.850561 0.139333 0.145091
979 1 0.919956 0.839612 0.369316
713 1 0.926032 0.138235 0.0801504
714 1 0.859427 0.198414 0.061968
810 1 0.920422 0.217455 0.142261
1034 1 0.717752 0.0669039 0.497367
988 1 0.493474 0.217656 0.429737
815 1 0.571863 0.288334 0.144521
720 1 0.576688 0.355881 0.0741816
816 1 0.658673 0.345214 0.138717
733 1 0.645219 0.428737 0.0655084
144 1 0.995577 0.493408 0.215305
723 1 0.795948 0.272446 0.0635875
724 1 0.715427 0.346058 0.0638539
820 1 0.787805 0.35802 0.135383
737 1 0.779267 0.419053 0.0668165
727 1 0.930368 0.277626 0.0624035
823 1 0.854592 0.300652 0.13591
728 1 0.855926 0.353895 0.0607535
824 1 0.924054 0.356927 0.138674
741 1 0.932723 0.431734 0.0689422
829 1 0.58596 0.41903 0.14061
734 1 0.572866 0.497623 0.0671822
830 1 0.631796 0.511236 0.141556
843 1 0.560357 0.571676 0.130061
747 1 0.634707 0.580548 0.0653986
330 1 0.983678 0.704101 0.43372
833 1 0.710925 0.428258 0.137191
738 1 0.705169 0.503199 0.0721851
834 1 0.773621 0.491273 0.129089
197 1 0.997395 1.0026 0.294855
837 1 0.859101 0.418051 0.125577
742 1 0.858905 0.492956 0.0779222
838 1 0.933548 0.498124 0.135851
748 1 0.575065 0.651514 0.0797409
844 1 0.639325 0.633195 0.14091
857 1 0.553446 0.731563 0.145376
761 1 0.643139 0.725435 0.0785948
939 1 0.500566 0.642855 0.276743
847 1 0.711219 0.573033 0.143164
751 1 0.781998 0.576886 0.0794928
752 1 0.707686 0.656687 0.0732843
848 1 0.789506 0.644355 0.137407
765 1 0.798339 0.723932 0.0792837
861 1 0.723463 0.724362 0.133715
730 1 0.507597 0.430278 0.0605886
851 1 0.855366 0.574082 0.135469
755 1 0.925023 0.555996 0.0679731
756 1 0.860094 0.635309 0.066933
852 1 0.935149 0.643781 0.139214
769 1 0.926118 0.69968 0.060418
986 1 0.864015 1.00256 0.433023
211 1 1.00296 0.155795 0.286267
228 1 0.995166 0.363754 0.354851
762 1 0.566003 0.800997 0.0768389
858 1 0.639733 0.805426 0.133958
775 1 0.629946 0.882545 0.0750271
980 1 0.857968 0.928089 0.368163
766 1 0.713276 0.797061 0.0744792
862 1 0.793679 0.79671 0.148879
779 1 0.779666 0.869019 0.0860248
722 1 0.781671 0.352417 -0.00828345
865 1 0.875686 0.718515 0.145831
770 1 0.862067 0.796831 0.0733874
866 1 0.936416 0.800705 0.155756
783 1 0.931021 0.858972 0.0855682
879 1 0.860778 0.865557 0.145314
1075 1 0.785346 0.860816 0.498996
1049 1 0.927629 0.290126 0.502682
774 1 0.641893 0.935882 -0.00042513
953 1 0.488856 0.790463 0.287894
764 1 0.790306 0.781103 -0.0108639
871 1 0.567173 0.878383 0.139219
776 1 0.56177 0.933978 0.0574077
872 1 0.643979 0.924849 0.157935
1029 1 0.933979 0.921652 0.426905
791 1 0.717183 0.00628096 0.152762
875 1 0.709453 0.857646 0.156071
780 1 0.716842 0.927278 0.0883181
876 1 0.786485 0.92457 0.151725
795 1 0.86304 1.00084 0.151179
940 1 0.509193 0.581526 0.3531
784 1 0.864333 0.933355 0.0796047
880 1 0.931269 0.938484 0.157987
281 1 0.998212 0.851789 0.294437
777 1 0.715596 0.858585 0.00795174
790 1 0.574081 0.0832126 0.206197
886 1 0.645974 0.0654625 0.283012
789 1 0.642033 0.00263261 0.211062
794 1 0.721323 0.0624246 0.224569
890 1 0.793369 0.0677869 0.283065
903 1 0.712005 0.1445 0.28526
793 1 0.793719 0.0032508 0.220274
781 1 0.84778 0.850903 0.0126009
798 1 0.871402 0.0687757 0.214451
894 1 0.93442 0.0747201 0.289701
797 1 0.926757 -0.00339287 0.236111
1076 1 0.708635 0.921405 0.492262
898 1 0.503199 0.146862 0.355422
803 1 0.65227 0.135842 0.216018
899 1 0.57782 0.137432 0.284942
804 1 0.576944 0.22124 0.218281
900 1 0.651124 0.208681 0.285092
817 1 0.647044 0.28426 0.218604
807 1 0.801676 0.139557 0.225319
808 1 0.727676 0.200688 0.211554
904 1 0.777533 0.207499 0.28893
821 1 0.798076 0.288733 0.211237
917 1 0.717568 0.283677 0.2775
811 1 0.935706 0.144861 0.215397
907 1 0.863749 0.148596 0.284212
812 1 0.858951 0.211838 0.219399
908 1 0.930954 0.214162 0.289342
825 1 0.940278 0.281026 0.215113
1032 1 0.570547 0.0701962 0.500657
200 1 0.997935 0.0651257 0.357397
913 1 0.567683 0.29396 0.293951
818 1 0.589647 0.362954 0.211092
914 1 0.645693 0.353611 0.285648
927 1 0.58194 0.420566 0.294144
822 1 0.732652 0.349693 0.207908
918 1 0.779336 0.360135 0.279545
835 1 0.786943 0.424251 0.204656
921 1 0.861389 0.288492 0.282422
826 1 0.861301 0.351089 0.216467
922 1 0.928338 0.354506 0.290992
975 1 0.796358 0.855024 0.368309
284 1 1.01032 0.927137 0.363073
831 1 0.656115 0.429397 0.206638
832 1 0.575579 0.485862 0.222166
928 1 0.6497 0.504513 0.283445
845 1 0.639485 0.570248 0.210051
931 1 0.712812 0.428014 0.284629
836 1 0.719293 0.506506 0.208457
932 1 0.778148 0.500528 0.276395
698 1 0.932967 0.0584012 0.00103373
976 1 0.713439 0.924037 0.354429
839 1 0.921043 0.420036 0.217432
935 1 0.848128 0.424292 0.296435
840 1 0.853777 0.497253 0.200899
936 1 0.922197 0.500637 0.273968
941 1 0.572873 0.571033 0.281187
846 1 0.567765 0.651347 0.199222
942 1 0.634598 0.646429 0.276913
955 1 0.550814 0.717134 0.27525
849 1 0.784196 0.575913 0.20284
945 1 0.712789 0.58198 0.28074
850 1 0.710794 0.648513 0.202446
946 1 0.790404 0.637797 0.288502
782 1 0.924073 0.930552 0.00197289
949 1 0.840902 0.557694 0.288382
853 1 0.923953 0.561925 0.205696
854 1 0.867224 0.643945 0.21244
950 1 0.916766 0.635301 0.294762
963 1 0.860132 0.709817 0.292917
859 1 0.650886 0.722643 0.194017
860 1 0.566898 0.7945 0.210442
956 1 0.6338 0.782792 0.282292
959 1 0.710393 0.705786 0.275533
863 1 0.791905 0.706472 0.22113
864 1 0.724856 0.787536 0.208914
960 1 0.792546 0.779079 0.284934
973 1 0.719386 0.847003 0.291042
750 1 0.783222 0.64663 0.0103425
786 1 0.503509 1.00584 0.22342
867 1 0.929574 0.718077 0.218129
868 1 0.8565 0.785173 0.217408
964 1 0.934586 0.783481 0.28156
881 1 0.924678 0.859058 0.231964
966 1 0.850845 0.780004 0.37061
885 1 0.5795 0.00289916 0.282357
873 1 0.645959 0.849107 0.216452
969 1 0.582253 0.85642 0.285471
874 1 0.58441 0.934345 0.216825
970 1 0.650225 0.927981 0.285352
965 1 0.938814 0.710037 0.352882
877 1 0.803887 0.85852 0.219647