ITEM: TIMESTEP
6750
ITEM: NUMBER OF ATOMS
864
ITEM: BOX BOUNDS pp pp pp
0.0000000000000000e+00 3.1559999999999999e+01
0.0000000000000000e+00 3.1559999999999999e+01
0.0000000000000000e+00 3.1559999999999999e+01
ITEM: ATOMS id type xs ys zs
27 1 0.0780606 0.154362 0.08462
4 1 1.00776 0.0667279 0.0830842
97 1 -0.0173452 0.169584 0.168868
527 1 0.929731 0.504604 0.242891
8 1 0.167945 0.0800745 0.0721016
31 1 0.252261 0.148561 0.081836
54 1 0.244571 0.40941 -0.00421266
78 1 0.248495 0.082601 0.167357
12 1 0.344831 0.0975107 0.079458
35 1 0.417563 0.171865 0.0896367
16 1 0.499979 0.0837248 0.0832997
89 1 0.667349 -0.00982583 0.163722
109 1 0.488267 0.173793 0.177147
214 1 0.914263 0.415436 0.337565
196 1 -0.00349057 0.41769 0.428469
86 1 0.573643 0.0965532 0.164232
20 1 0.668935 0.0786733 0.095973
43 1 0.744141 0.176869 0.102124
24 1 0.814662 0.0848154 0.0846527
34 1 0.416503 0.246668 0.00654082
47 1 0.901042 0.15155 0.0825194
94 1 0.914028 0.0809403 0.16396
443 1 0.408826 0.509889 0.0852506
51 1 0.0940964 0.318491 0.0818245
32 1 0.169259 0.222761 0.0772975
101 1 0.172966 0.159291 0.168099
98 1 0.0681843 0.242057 0.177969
129 1 0.327736 0.336996 0.177072
102 1 0.241841 0.236374 0.164229
153 1 0.359011 -3.00039e-05 0.333876
511 1 0.245472 0.505499 0.263376
81 1 0.342231 -0.000835304 0.158037
36 1 0.32776 0.258025 0.0903636
40 1 0.49987 0.250452 0.0873066
39 1 0.579374 0.167793 0.0754339
63 1 0.577063 0.338286 0.073884
110 1 0.576012 0.25863 0.164875
26 1 0.0858838 0.246536 -0.00205217
44 1 0.655004 0.252112 0.0969834
48 1 0.827256 0.248198 0.0851616
117 1 0.833825 0.157213 0.167358
114 1 0.745576 0.262628 0.165363
441 1 0.336476 0.514924 -0.00321294
28 1 1.00043 0.23714 0.087987
71 1 0.897467 0.326433 0.0688427
95 1 0.910638 -0.00533861 0.256168
210 1 0.744388 0.409799 0.337031
122 1 0.0812148 0.412089 0.158178
226 1 0.421935 0.085371 0.498483
277 1 0.493981 0.331663 0.487832
55 1 0.256595 0.339103 0.0854584
56 1 0.156183 0.417473 0.079325
126 1 0.232339 0.422815 0.161804
3 1 0.0873579 -0.00822185 0.0681455
59 1 0.421014 0.332639 0.0918172
60 1 0.328355 0.431007 0.0915957
130 1 0.412517 0.421156 0.169689
230 1 0.579325 0.0743376 0.512706
579 1 0.0891183 0.496395 0.431107
238 1 0.915528 0.0766256 0.514366
64 1 0.500746 0.413445 0.0704471
68 1 0.672926 0.419758 0.0771775
281 1 0.662063 0.321347 0.507465
585 1 0.326915 0.490875 0.329352
212 1 0.658429 0.413929 0.428258
218 1 0.0862158 0.0879198 0.527303
93 1 0.827261 0.00879666 0.16828
597 1 0.820033 0.500051 0.332372
67 1 0.758785 0.330354 0.0790486
72 1 0.829472 0.408797 0.0689603
52 1 1.01451 0.428034 0.065569
513 1 0.321935 0.508041 0.159744
25 1 0.988199 0.159202 -0.0058418
151 1 0.275471 0.00165622 0.416903
74 1 0.08481 0.0682044 0.164852
38 1 0.566596 0.251009 -0.0105975
80 1 0.174138 0.077622 0.243012
76 1 0.999655 0.0920595 0.24508
216 1 0.837663 0.412965 0.421977
103 1 0.252633 0.155031 0.247894
150 1 0.250499 0.0795485 0.341442
84 1 0.365545 0.0885939 0.255447
82 1 0.415675 0.0805686 0.164928
88 1 0.500782 0.0795508 0.241527
105 1 0.337522 0.168182 0.164431
107 1 0.424768 0.184703 0.268478
206 1 0.583252 0.418626 0.342815
111 1 0.577089 0.176179 0.249961
92 1 0.657501 0.0837968 0.248868
181 1 0.508311 0.169257 0.319577
208 1 0.4984 0.41712 0.41552
515 1 0.413465 0.51126 0.25796
90 1 0.739708 0.0781461 0.173557
115 1 0.742556 0.174623 0.249601
162 1 0.744035 0.0789738 0.316501
96 1 0.819982 0.0868618 0.251735
119 1 0.908649 0.161071 0.264641
79 1 0.260175 0.00711726 0.250649
166 1 0.920956 0.0721701 0.33926
99 1 0.0736197 0.158439 0.245796
173 1 0.17645 0.163533 0.324244
104 1 0.177109 0.257757 0.272987
127 1 0.243409 0.344493 0.252573
106 1 0.405866 0.250687 0.163831
133 1 0.507121 0.344279 0.158106
108 1 0.328905 0.247832 0.249766
131 1 0.427469 0.330592 0.246828
113 1 0.657657 0.163536 0.171009
112 1 0.511745 0.262372 0.261514
116 1 0.657475 0.251992 0.241585
135 1 0.59721 0.339972 0.262884
137 1 0.670403 0.345876 0.170971
141 1 0.835584 0.338527 0.171852
118 1 0.912363 0.266702 0.166021
100 1 -0.0180943 0.250548 0.256826
120 1 0.822863 0.23993 0.251841
253 1 0.510266 0.157319 0.508564
125 1 0.171946 0.321925 0.16481
121 1 0.00569957 0.338041 0.140718
123 1 0.077484 0.327225 0.24198
128 1 0.161038 0.439583 0.24491
124 1 0.0155757 0.420783 0.24463
19 1 0.754097 -0.00980885 0.0968662
132 1 0.332745 0.423879 0.254866
202 1 0.41868 0.42746 0.328778
200 1 0.172581 0.431153 0.422986
451 1 0.75117 0.498779 0.0797513
134 1 0.587006 0.42184 0.171734
136 1 0.502225 0.418235 0.246285
140 1 0.663959 0.428194 0.259385
138 1 0.741888 0.419592 0.176633
139 1 0.745308 0.33702 0.251554
144 1 0.835846 0.428785 0.253588
142 1 0.924674 0.407155 0.155068
143 1 0.930727 0.336401 0.249554
523 1 0.744269 0.497139 0.252347
194 1 0.083664 0.420283 0.332348
169 1 -0.000598422 0.155036 0.344971
146 1 0.103655 0.0765291 0.3386
91 1 0.743445 -0.012499 0.242625
599 1 0.918511 0.496193 0.411386
204 1 0.329415 0.415894 0.435759
177 1 0.3255 0.162196 0.325134
152 1 0.172478 0.0880978 0.434269
241 1 -0.0189361 0.165336 0.49286
154 1 0.439236 0.0955058 0.345975
156 1 0.340392 0.103761 0.41041
160 1 0.515867 0.0858947 0.424951
158 1 0.583055 0.0671063 0.322713
164 1 0.673068 0.0832292 0.411609
77 1 0.174409 -0.00698094 0.155288
189 1 0.813903 0.162163 0.341726
215 1 0.907184 0.327326 0.4341
187 1 0.767718 0.166991 0.433371
168 1 0.827453 0.074878 0.411786
199 1 0.244081 0.337221 0.419735
192 1 0.819379 0.268666 0.408418
148 1 1.00665 0.0760446 0.428026
191 1 0.902115 0.161289 0.401828
197 1 0.154386 0.335846 0.337189
195 1 0.10805 0.352886 0.424618
170 1 0.0738222 0.240653 0.322277
171 1 0.0830672 0.159142 0.408723
172 1 0.0252022 0.264999 0.425693
198 1 0.234134 0.428071 0.334028
190 1 0.934821 0.260711 0.341664
174 1 0.256167 0.257018 0.3419
175 1 0.257207 0.163311 0.427406
201 1 0.326551 0.336641 0.328358
176 1 0.163468 0.252872 0.409056
180 1 0.33278 0.256909 0.415601
205 1 0.506352 0.342145 0.340281
178 1 0.410466 0.275072 0.338079
203 1 0.400576 0.345275 0.42059
179 1 0.429293 0.181394 0.418032
184 1 0.510733 0.243455 0.422574
209 1 0.672592 0.330915 0.339955
207 1 0.58789 0.328379 0.429288
183 1 0.590917 0.157004 0.421414
182 1 0.589846 0.256671 0.339357
188 1 0.681882 0.240597 0.423698
186 1 0.746169 0.242151 0.333554
185 1 0.665486 0.167179 0.315606
213 1 0.826906 0.343744 0.328378
211 1 0.742769 0.338496 0.427782
193 1 0.012803 0.341902 0.340623
7 1 0.255299 0.00471809 0.0741739
22 1 0.904193 0.0826421 -0.00363689
73 1 1.00989 -0.0128156 0.170646
222 1 0.270069 0.0937892 0.499779
250 1 0.419089 0.26058 0.490224
217 1 1.00313 0.00301388 0.522771
9 1 0.344442 -0.0107671 -0.0115241
70 1 0.924252 0.423862 0.0115505
234 1 0.751 0.0685584 0.504589
278 1 0.579664 0.415122 0.500985
245 1 0.161321 0.167509 0.50223
657 1 0.340439 0.505504 0.499063
57 1 0.336359 0.340783 0.0131807
433 1 0.00954167 0.504853 -0.0127827
274 1 0.400329 0.407385 0.511993
49 1 -0.00183018 0.325062 0.00250673
61 1 0.488184 0.327965 0.00579567
246 1 0.247124 0.253178 0.486574
13 1 0.485399 -0.00039772 0.000646471
58 1 0.404828 0.425133 0.0167965
249 1 0.34433 0.178317 0.486577
285 1 0.827772 0.335477 0.508529
220 1 0.00701809 0.0779752 0.60228
243 1 0.07662 0.156583 0.59619
313 1 -0.00286782 0.177406 0.678426
224 1 0.17225 0.0774372 0.581572
228 1 0.344398 0.0887999 0.58236
294 1 0.252659 0.0824103 0.66367
269 1 0.173579 0.340352 0.510171
298 1 0.413684 0.0893079 0.662643
227 1 0.414448 -0.00555511 0.602296
799 1 0.258291 0.497102 0.928641
232 1 0.503402 0.0694535 0.584066
255 1 0.582531 0.164945 0.586554
236 1 0.672765 0.08457 0.572422
306 1 0.744968 0.0637523 0.656488
815 1 0.919018 0.49936 0.919021
270 1 0.245562 0.426236 0.513186
18 1 0.74286 0.0923011 1.00341
240 1 0.829169 0.0813443 0.582764
263 1 0.926548 0.159686 0.594234
739 1 0.751632 0.508398 0.75189
239 1 0.905956 -0.0127508 0.581217
30 1 0.260655 0.253124 1.00224
248 1 0.170511 0.236246 0.579062
341 1 0.172153 0.337197 0.667766
244 1 1.01079 0.247648 0.579256
247 1 0.256032 0.180788 0.574318
271 1 0.256589 0.337209 0.592448
733 1 0.49246 0.497785 0.670747
29 1 0.160099 0.164339 0.993722
251 1 0.406681 0.171569 0.567392
45 1 0.828242 0.173835 1.00255
252 1 0.338452 0.250418 0.574403
322 1 0.415658 0.242149 0.659201
321 1 0.334906 0.180174 0.659338
256 1 0.492053 0.25304 0.585252
325 1 0.498887 0.161626 0.671501
326 1 0.569785 0.252075 0.655487
260 1 0.671828 0.246539 0.587562
279 1 0.562883 0.336086 0.572867
365 1 0.164999 -0.0146671 0.843108
805 1 0.495025 0.50429 0.830825
329 1 0.657718 0.15451 0.659063
259 1 0.75554 0.16231 0.60137
330 1 0.739846 0.242654 0.677907
283 1 0.751366 0.334372 0.583942
363 1 0.0688662 -0.00766098 0.90114
361 1 0.991969 0.00766762 0.814714
264 1 0.828371 0.248848 0.579351
287 1 0.913295 0.338065 0.586292
265 1 0.0167515 0.342067 0.507671
262 1 0.907837 0.236776 0.502176
297 1 0.332227 0.00928874 0.668358
267 1 0.0901242 0.331461 0.593209
813 1 0.832384 0.505388 0.831749
337 1 -0.0087855 0.354397 0.663517
445 1 0.508461 0.494026 0.996103
272 1 0.154746 0.411039 0.592185
427 1 0.748492 0.326366 0.910486
807 1 0.576757 0.497798 0.920447
275 1 0.41704 0.331974 0.580337
276 1 0.325878 0.413575 0.596135
280 1 0.504877 0.42729 0.572961
793 1 -0.00732683 0.500319 0.844148
349 1 0.490108 0.33507 0.664141
353 1 0.670752 0.332217 0.661822
350 1 0.581182 0.42458 0.668668
432 1 0.828888 0.414655 0.901187
284 1 0.654296 0.400109 0.574606
288 1 0.837904 0.420342 0.592315
354 1 0.741318 0.412548 0.664668
65 1 0.660854 0.324159 1.00103
430 1 0.927611 0.412289 0.835789
268 1 -0.0038429 0.429429 0.589675
357 1 0.833045 0.338492 0.66807
358 1 0.918967 0.431921 0.676128
290 1 0.0866649 0.0769114 0.680813
317 1 0.156759 0.160376 0.674621
292 1 0.984283 0.0979952 0.766536
428 1 0.663143 0.400499 0.912636
296 1 0.170277 0.0766454 0.752996
319 1 0.243842 0.166893 0.745576
422 1 0.578271 0.402033 0.831711
366 1 0.249476 0.0708571 0.832402
300 1 0.344848 0.0986798 0.751585
370 1 0.430125 0.0727225 0.830024
323 1 0.430038 0.170874 0.748117
302 1 0.584526 0.0826699 0.672616
304 1 0.496546 0.0716811 0.746039
327 1 0.576234 0.157733 0.754146
424 1 0.499364 0.408598 0.917775
379 1 0.754381 -0.0115963 0.928637
219 1 0.100441 -0.000607899 0.572122
308 1 0.671384 0.07274 0.753854
312 1 0.835385 0.0775195 0.737628
378 1 0.745825 0.0752482 0.836812
333 1 0.836356 0.180106 0.683879
310 1 0.922603 0.0971568 0.67408
382 1 0.908946 0.0863032 0.841153
419 1 0.39554 0.324551 0.922729
335 1 0.922243 0.179381 0.767871
315 1 0.0727438 0.172789 0.759844
314 1 0.0803392 0.25384 0.67104
386 1 0.0905904 0.260014 0.824669
320 1 0.164055 0.262175 0.742119
318 1 0.261316 0.251904 0.656235
343 1 0.264036 0.338212 0.752255
389 1 0.153484 0.163335 0.829711
390 1 0.244465 0.240126 0.824002
324 1 0.332054 0.248874 0.750418
417 1 0.338756 0.31718 0.830324
347 1 0.421203 0.321088 0.73357
394 1 0.423889 0.248796 0.824301
397 1 0.507046 0.165498 0.831843
328 1 0.51186 0.250659 0.746169
351 1 0.586606 0.328017 0.727289
332 1 0.654243 0.238651 0.756384
421 1 0.497359 0.328698 0.833835
398 1 0.566743 0.252904 0.831697
401 1 0.661058 0.152365 0.827773
331 1 0.738977 0.150657 0.744096
336 1 0.824751 0.262263 0.763885
405 1 0.813711 0.166606 0.814704
402 1 0.737111 0.238942 0.823292
334 1 0.90513 0.25647 0.669503
316 1 0.994965 0.266856 0.760299
385 1 0.99178 0.176644 0.844683
406 1 0.912777 0.276453 0.839099
338 1 0.0868727 0.424609 0.66806
339 1 0.0844797 0.341921 0.740729
410 1 0.0674776 0.411277 0.830991
409 1 1.0091 0.328947 0.84676
404 1 0.64887 0.268548 0.915169
413 1 0.169256 0.333977 0.834392
342 1 0.248636 0.409115 0.672602
344 1 0.173006 0.409013 0.754751
414 1 0.265628 0.405413 0.837975
345 1 0.34816 0.323276 0.657285
42 1 0.747211 0.259902 1.01461
348 1 0.352326 0.407696 0.743008
346 1 0.420038 0.413779 0.656968
352 1 0.498167 0.414756 0.738089
425 1 0.652471 0.324472 0.82072
356 1 0.672574 0.425512 0.75321
371 1 0.411527 -0.00105615 0.908286
355 1 0.745368 0.329284 0.754351
426 1 0.745101 0.42296 0.829506
360 1 0.821806 0.41885 0.740612
429 1 0.819006 0.33462 0.838359
359 1 0.909692 0.343111 0.750384
340 1 0.996746 0.423191 0.756036
418 1 0.422847 0.417887 0.833637
412 1 1.00054 0.409413 0.929487
362 1 0.0853687 0.0822405 0.838517
387 1 0.0747802 0.163893 0.914133
62 1 0.590253 0.412255 0.99468
368 1 0.173517 0.0830476 0.914594
423 1 0.565682 0.330419 0.918965
372 1 0.336464 0.0775506 0.910742
376 1 0.495035 0.0661875 0.926606
266 1 0.076367 0.423541 0.512974
408 1 0.825631 0.251087 0.930767
374 1 0.56638 0.0775588 0.822752
399 1 0.580301 0.164405 0.924114
6 1 0.263201 0.0803593 0.990838
801 1 0.339887 0.493908 0.831369
403 1 0.73966 0.158771 0.903685
721 1 1.00382 0.498521 0.675387
380 1 0.664782 0.082171 0.911349
384 1 0.821553 0.0851555 0.921363
797 1 0.173483 0.491599 0.824542
416 1 0.172216 0.421172 0.909064
420 1 0.340804 0.428577 0.933585
364 1 0.994656 0.0792265 0.912524
407 1 0.905848 0.165471 0.913908
431 1 0.908326 0.344133 0.93269
411 1 0.0826423 0.331789 0.916044
400 1 0.475392 0.260335 0.91716
392 1 0.170024 0.2389 0.909641
388 1 0.983595 0.249218 0.913789
391 1 0.248541 0.164692 0.906598
415 1 0.263439 0.339499 0.917484
396 1 0.319806 0.240031 0.906578
393 1 0.330001 0.17003 0.824803
395 1 0.415248 0.165072 0.924769
809 1 0.649768 0.490916 0.849424
307 1 0.743134 -0.00202008 0.742444
731 1 0.408633 0.503652 0.751485
223 1 0.267693 0.00182043 0.581805
795 1 0.0837758 0.510306 0.906142
242 1 0.0911471 0.244836 0.501409
811 1 0.742189 0.498089 0.911586
2 1 0.0818863 0.0772454 0.986927
231 1 0.579634 -0.0161961 0.56814
229 1 0.505172 -0.00800911 0.4984
69 1 0.814189 0.336689 0.994068
14 1 0.579532 0.0849593 1.00352
66 1 0.736395 0.41397 0.994835
286 1 0.916592 0.40364 0.50135
37 1 0.499158 0.165274 0.994073
225 1 0.343001 0.00370385 0.496202
282 1 0.748205 0.412544 0.510623
10 1 0.411362 0.0760627 1.00181
53 1 0.174019 0.329244 1.00118
449 1 0.661254 0.498052 0.994214
273 1 0.32166 0.319178 0.494121
254 1 0.588747 0.247884 0.503532
50 1 0.0940578 0.408208 0.995806
41 1 0.673186 0.177809 0.991417
261 1 0.833889 0.165485 0.515166
258 1 0.751762 0.240428 0.511019
257 1 0.67272 0.160892 0.496845
33 1 0.326294 0.169905 0.995804
46 1 0.910347 0.241367 1.00718
459 1 0.0790533 0.680465 0.101193
506 1 0.0829049 0.588127 0.164023
440 1 0.178632 0.591817 0.0796121
145 1 1.01839 1.02114 0.31309
463 1 0.253326 0.667258 0.0914849
489 1 0.339722 0.843828 -0.00680117
505 1 1.00246 0.521006 0.149955
628 1 0.0157039 0.938193 0.414721
444 1 0.34203 0.588622 0.0845249
714 1 0.750453 0.89826 0.519093
438 1 0.26475 0.592041 0.00543338
448 1 0.503193 0.576917 0.08918
518 1 0.58613 0.583682 0.176948
452 1 0.662193 0.560001 0.0798912
647 1 0.921689 0.830317 0.429328
522 1 0.750892 0.577268 0.154704
456 1 0.83699 0.579691 0.0627902
475 1 0.758131 0.655634 0.0761613
436 1 1.009 0.59038 0.0813989
549 1 0.831947 0.664964 0.170703
147 1 0.0929132 1.00463 0.4315
460 1 1.00244 0.755415 0.0858807
464 1 0.170403 0.73994 0.0756319
11 1 0.423964 1.01042 0.0885275
525 1 0.831622 0.494795 0.152099
482 1 0.0676326 0.914737 -0.025121
561 1 0.326267 0.832579 0.16263
468 1 0.34285 0.746115 0.0907963
537 1 0.354713 0.664157 0.160233
83 1 0.424409 0.991036 0.239316
467 1 0.429438 0.665599 0.0762438
541 1 0.50802 0.667221 0.162287
591 1 0.581927 0.498969 0.419454
472 1 0.507175 0.760496 0.0692155
471 1 0.574609 0.671787 0.0808169
149 1 0.184536 1.00223 0.32677
87 1 0.594399 0.981686 0.240535
476 1 0.674658 0.74237 0.0837391
480 1 0.834898 0.740276 0.0812446
709 1 0.501388 0.843709 0.503365
75 1 0.0902468 0.995167 0.243475
167 1 0.925142 1.00204 0.425189
479 1 0.90565 0.66766 0.0739413
503 1 0.916472 0.826791 0.0768493
483 1 0.0763749 0.843741 0.0765233
554 1 0.0724044 0.913789 0.158772
435 1 0.104316 0.51475 0.0865389
488 1 0.169046 0.908961 0.0740587
487 1 0.265049 0.837809 0.0630827
492 1 0.334334 0.914158 0.0763489
491 1 0.419855 0.827506 0.0795553
496 1 0.51279 0.926177 0.0891987
562 1 0.421625 0.908992 0.166409
521 1 0.674976 0.495374 0.161851
495 1 0.588158 0.827211 0.0870059
566 1 0.590911 0.908888 0.173628
625 1 0.00402471 0.841146 0.331879
499 1 0.761429 0.835602 0.0896075
595 1 0.744304 0.497484 0.42888
500 1 0.674618 0.922504 0.0800777
646 1 0.936125 0.933756 0.340336
504 1 0.839109 0.918502 0.0730591
484 1 1.00102 0.930087 0.0819039
574 1 0.906755 0.931359 0.174335
533 1 0.169207 0.670795 0.173808
531 1 0.0828178 0.674145 0.245411
512 1 0.163423 0.593501 0.246702
605 1 0.166815 0.681379 0.322053
677 1 0.173896 0.659094 0.508578
510 1 0.255945 0.598358 0.168203
535 1 0.268146 0.674121 0.233504
514 1 0.420662 0.5752 0.176692
583 1 0.25336 0.502468 0.409076
516 1 0.332601 0.592803 0.251305
586 1 0.406394 0.589815 0.340952
520 1 0.500258 0.601732 0.257126
545 1 0.67827 0.659302 0.149948
447 1 0.585986 0.487973 0.0741074
718 1 0.921847 0.912286 0.485059
524 1 0.660428 0.587877 0.249778
590 1 0.584409 0.59664 0.323097
507 1 0.0766084 0.51164 0.235487
165 1 0.828436 0.995819 0.321563
594 1 0.741329 0.578135 0.350167
528 1 0.821933 0.577134 0.249288
547 1 0.75018 0.651804 0.249355
526 1 0.898196 0.578977 0.157283
648 1 0.828981 0.923313 0.398885
508 1 0.00461698 0.590012 0.241546
551 1 0.911595 0.666252 0.247833
642 1 0.747531 0.915715 0.331903
529 1 0.994871 0.664053 0.175247
530 1 0.0752527 0.770811 0.168168
536 1 0.157852 0.76219 0.246494
555 1 0.0773254 0.842139 0.254471
602 1 0.07828 0.751424 0.320927
532 1 1.01 0.747417 0.241411
534 1 0.242701 0.757636 0.149611
606 1 0.254593 0.755959 0.331137
540 1 0.342636 0.744048 0.249802
559 1 0.248192 0.829523 0.245052
609 1 0.326049 0.671254 0.347057
539 1 0.411028 0.658478 0.251528
538 1 0.425911 0.756766 0.162823
637 1 0.508737 0.840091 0.33352
563 1 0.412109 0.829865 0.249347
613 1 0.489371 0.671594 0.335934
542 1 0.579908 0.746527 0.171062
543 1 0.597531 0.674314 0.245807
544 1 0.500504 0.744914 0.26487
548 1 0.684746 0.735853 0.24758
614 1 0.579852 0.745782 0.340711
617 1 0.679373 0.663386 0.335404
546 1 0.745508 0.750654 0.153929
552 1 0.829575 0.737606 0.253324
569 1 0.672528 0.839153 0.151578
571 1 0.757036 0.825358 0.260827
618 1 0.751102 0.738133 0.343977
573 1 0.835166 0.830121 0.178847
622 1 0.939369 0.758667 0.318483
550 1 0.924796 0.755021 0.167181
560 1 0.174201 0.922413 0.250016
629 1 0.177893 0.837763 0.33311
626 1 0.101877 0.91388 0.332332
517 1 0.511937 0.503257 0.177134
641 1 0.664471 0.832627 0.332904
558 1 0.251009 0.914113 0.149401
644 1 0.67774 0.917568 0.416033
557 1 0.165737 0.844316 0.164063
630 1 0.250615 0.920419 0.329882
565 1 0.505522 0.82559 0.178214
455 1 0.921333 0.505384 0.0771158
509 1 0.175317 0.517049 0.167263
577 1 1.01419 0.503111 0.324092
564 1 0.330353 0.909353 0.248205
633 1 0.334605 0.837329 0.330659
638 1 0.59432 0.920439 0.328447
568 1 0.500124 0.90272 0.252638
567 1 0.593384 0.80761 0.25503
572 1 0.678933 0.901412 0.230103
645 1 0.842866 0.8279 0.326645
570 1 0.768429 0.915731 0.169803
553 1 -0.0171664 0.849338 0.151778
575 1 0.92228 0.839783 0.245533
576 1 0.819203 0.913859 0.264836
556 1 1.00419 0.916959 0.255692
23 1 0.916005 1.00706 0.0887312
643 1 0.763545 0.831577 0.425582
578 1 0.085139 0.584251 0.324395
584 1 0.173072 0.578823 0.424363
589 1 0.49203 0.522045 0.345493
616 1 0.506052 0.74652 0.421118
582 1 0.238495 0.601551 0.331368
635 1 0.424034 0.841157 0.410269
588 1 0.321265 0.587939 0.4093
615 1 0.581415 0.6631 0.411997
624 1 0.854558 0.745171 0.389947
620 1 0.664305 0.75195 0.4154
592 1 0.500079 0.601531 0.419173
619 1 0.75877 0.663614 0.420019
640 1 0.506934 0.918608 0.420934
596 1 0.663493 0.579635 0.439446
634 1 0.426141 0.916494 0.323587
593 1 0.665813 0.501346 0.346565
598 1 0.926175 0.576222 0.322052
600 1 0.830499 0.575798 0.41689
621 1 0.829617 0.644538 0.329265
580 1 0.016412 0.58447 0.416352
623 1 0.911413 0.659818 0.39946
639 1 0.591558 0.838405 0.409992
632 1 0.187541 0.924149 0.411408
603 1 0.086258 0.670414 0.406897
604 1 -0.0100419 0.741492 0.408926
627 1 0.0855746 0.841932 0.405079
608 1 0.149363 0.753108 0.427196
607 1 0.242419 0.678015 0.427414
631 1 0.250587 0.836886 0.423425
612 1 0.332572 0.755606 0.414274
636 1 0.342998 0.915915 0.401259
610 1 0.422937 0.752988 0.352606
611 1 0.410908 0.683981 0.424702
601 1 -0.00177823 0.665535 0.322852
159 1 0.593411 1.00132 0.412029
155 1 0.42492 0.995951 0.419308
519 1 0.572043 0.510196 0.252792
465 1 0.341696 0.665101 0.00373044
681 1 0.325562 0.673218 0.495075
163 1 0.75277 0.995327 0.411432
693 1 0.840505 0.674062 0.495827
157 1 0.501799 0.986784 0.337192
237 1 0.841194 0.982267 0.502317
15 1 0.57558 1.01349 0.0865339
581 1 0.167668 0.50745 0.338614
450 1 0.735442 0.578291 -0.0125482
587 1 0.395862 0.502684 0.411246
478 1 0.901206 0.755836 -0.00347512
486 1 0.249683 0.925723 -0.00580396
439 1 0.25292 0.493093 0.0707238
161 1 0.671001 0.994606 0.326999
85 1 0.513379 0.994339 0.169498
717 1 0.843397 0.833797 0.497955
669 1 0.814896 0.492701 0.501461
494 1 0.59262 0.918513 0.00229219
702 1 0.255359 0.914207 0.516291
485 1 0.16679 0.817493 0.00514984
701 1 0.160572 0.843686 0.486332
674 1 0.0871991 0.745201 0.508384
477 1 0.828491 0.650204 -0.0176754
685 1 0.502833 0.669573 0.507438
678 1 0.252177 0.760145 0.499314
706 1 0.415913 0.92286 0.509663
690 1 0.759712 0.75247 0.507649
670 1 0.920137 0.591915 0.504897
474 1 0.74817 0.748118 -0.0106039
461 1 0.144452 0.665586 -0.0150106
694 1 0.911402 0.747542 0.494377
501 1 0.818704 0.829721 -0.00431239
498 1 0.747093 0.911504 0.0105761
17 1 0.675826 1.01339 0.013853
656 1 0.168366 0.588396 0.594955
652 1 0.995942 0.581273 0.595373
671 1 0.912512 0.497933 0.585143
862 1 0.89876 0.915378 0.830608
659 1 0.396886 0.501321 0.583449
803 1 0.418445 0.492817 0.924496
726 1 0.262095 0.583347 0.674485
705 1 0.336741 0.842754 0.511051
434 1 0.0924315 0.579394 1.012
658 1 0.419714 0.593194 0.495835
660 1 0.343924 0.599093 0.591293
664 1 0.488732 0.577326 0.576365
730 1 0.40268 0.586865 0.6742
295 1 0.254011 0.996309 0.743573
753 1 0.345058 0.682483 0.669247
687 1 0.574857 0.67076 0.599513
686 1 0.58447 0.756416 0.490876
729 1 0.332361 0.486184 0.670854
697 1 1.00005 0.819811 0.494562
668 1 0.658924 0.59157 0.569393
672 1 0.834927 0.56864 0.574421
738 1 0.754593 0.585774 0.66902
761 1 0.659457 0.662517 0.667315
723 1 0.0682849 0.508472 0.753943
651 1 0.0813068 0.513326 0.588123
742 1 0.912029 0.565923 0.677171
454 1 0.920785 0.579341 0.995601
235 1 0.741788 0.991963 0.578163
373 1 0.502142 0.990039 0.840674
675 1 0.0779537 0.659527 0.597851
680 1 0.176204 0.75126 0.582196
746 1 0.101017 0.748562 0.656189
727 1 0.265245 0.488033 0.758016
679 1 0.261428 0.666977 0.596549
684 1 0.343731 0.754353 0.572106
749 1 0.177119 0.666634 0.686649
750 1 0.254102 0.756817 0.661289
777 1 0.330006 0.829888 0.650664
683 1 0.424961 0.668019 0.593056
757 1 0.493104 0.668849 0.670261
754 1 0.423813 0.758892 0.671333
688 1 0.497753 0.755234 0.580819
711 1 0.574906 0.836538 0.586504
781 1 0.501529 0.831279 0.660201
691 1 0.756196 0.662601 0.579115
692 1 0.652772 0.74113 0.586039
696 1 0.84179 0.745226 0.596562
785 1 0.651995 0.834263 0.676141
309 1 0.835499 0.995073 0.662661
473 1 0.666635 0.650949 1.01683
741 1 0.822365 0.49134 0.668492
299 1 0.406431 0.995844 0.747519
676 1 0.012192 0.745215 0.586234
769 1 0.00159652 0.839573 0.656536
695 1 0.93295 0.668893 0.573014
719 1 0.925319 0.821483 0.576191
745 1 0.992038 0.67712 0.65617
699 1 0.101096 0.831155 0.576823
773 1 0.177718 0.838545 0.66012
704 1 0.165524 0.914854 0.567798
700 1 -0.00662418 0.908011 0.571897
770 1 0.0944676 0.929503 0.660197
860 1 0.666136 0.909902 0.918081
703 1 0.257299 0.833088 0.582425
774 1 0.263752 0.917243 0.662639
708 1 0.336744 0.927579 0.586031
383 1 0.900579 0.995698 0.92469
707 1 0.418632 0.833155 0.574999
663 1 0.584336 0.496118 0.584034
712 1 0.501233 0.91868 0.586221
864 1 0.833837 0.916148 0.932483
698 1 0.0789315 0.910584 0.494908
497 1 0.670887 0.828846 1.0005
715 1 0.744728 0.822391 0.589463
716 1 0.651927 0.913714 0.586616
786 1 0.743353 0.91518 0.67913
789 1 0.837277 0.835587 0.688787
857 1 0.659364 0.831354 0.844466
720 1 0.824497 0.902983 0.599305
722 1 0.107246 0.592507 0.677378
817 1 0.00379289 0.678193 0.814687
728 1 0.155961 0.588888 0.777835
859 1 0.74572 0.83233 0.921263
367 1 0.253603 1.00203 0.923157
751 1 0.266616 0.664405 0.758754
21 1 0.833968 1.00389 1.01126
732 1 0.338497 0.581759 0.758927
736 1 0.493018 0.579062 0.746327
369 1 0.326473 1.00985 0.834663
734 1 0.583292 0.591191 0.668813
759 1 0.566425 0.670602 0.755217
740 1 0.66011 0.566499 0.745194
744 1 0.838978 0.578175 0.749576
810 1 0.745213 0.586134 0.826188
763 1 0.765808 0.662053 0.742204
858 1 0.742671 0.919292 0.834656
458 1 0.0633906 0.748334 1.00877
765 1 0.842106 0.656679 0.649291
724 1 0.00118685 0.595276 0.736784
814 1 0.917842 0.581378 0.844476
767 1 0.903432 0.675359 0.733791
821 1 0.170526 0.677503 0.838935
747 1 0.0817253 0.667709 0.746286
818 1 0.0902247 0.751638 0.822683
752 1 0.184191 0.750213 0.757981
775 1 0.255494 0.836592 0.755581
756 1 0.330246 0.761264 0.75291
822 1 0.2485 0.750716 0.843704
755 1 0.417503 0.676401 0.75575
779 1 0.412321 0.835579 0.742157
758 1 0.583831 0.758771 0.661256
760 1 0.498606 0.753447 0.744074
783 1 0.563519 0.836563 0.746658
764 1 0.669383 0.735388 0.749087
762 1 0.740097 0.734194 0.659286
834 1 0.743094 0.750233 0.829523
768 1 0.830879 0.743073 0.754301
787 1 0.72844 0.838232 0.765567
861 1 0.817551 0.842163 0.83511
748 1 1.00642 0.750589 0.733069
766 1 0.914912 0.765644 0.67863
838 1 0.924336 0.750858 0.810995
375 1 0.581753 0.986305 0.92174
666 1 0.752004 0.579427 0.502985
233 1 0.662805 0.997105 0.497087
771 1 0.089703 0.835912 0.732488
772 1 1.01629 0.904838 0.750133
842 1 0.0922314 0.906779 0.829596
776 1 0.177428 0.912957 0.754637
846 1 0.245557 0.917409 0.849307
845 1 0.174178 0.840048 0.836329
854 1 0.582724 0.907862 0.835954
377 1 0.661042 0.994862 0.837412
778 1 0.414224 0.910633 0.656643
311 1 0.9195 0.990997 0.743628
780 1 0.336228 0.911023 0.749319
850 1 0.406434 0.913445 0.832789
844 1 -0.0153683 0.909725 0.901618
782 1 0.580618 0.913559 0.677307
784 1 0.486111 0.921314 0.75284
788 1 0.660277 0.907298 0.755043
792 1 0.817851 0.915119 0.756636
1 1 0.981993 1.00821 0.98858
790 1 0.92589 0.922727 0.657933
791 1 0.93391 0.839312 0.747136
843 1 0.0871781 0.827351 0.916908
848 1 0.165615 0.898555 0.935652
794 1 0.0599945 0.592821 0.834751
796 1 0.996574 0.599634 0.924793
819 1 0.0800939 0.667493 0.911068
798 1 0.253628 0.585972 0.827985
800 1 0.162708 0.57407 0.912771
804 1 0.328499 0.57261 0.906723
825 1 0.342613 0.659124 0.832144
856 1 0.492109 0.915762 0.929597
836 1 0.647959 0.747946 0.91972
802 1 0.412977 0.584938 0.84583
829 1 0.492812 0.665355 0.834498
806 1 0.5831 0.583508 0.831403
808 1 0.504727 0.587305 0.913799
831 1 0.583409 0.662178 0.906398
812 1 0.661316 0.588669 0.903721
839 1 0.917064 0.663888 0.92198
833 1 0.664463 0.657768 0.811087
835 1 0.741854 0.664796 0.915939
837 1 0.83259 0.663928 0.840198
840 1 0.816407 0.747402 0.913306
855 1 0.582078 0.842144 0.923347
816 1 0.838756 0.577832 0.913389
863 1 0.902796 0.817089 0.898553
852 1 0.330436 0.917722 0.904781
841 1 0.00221216 0.818926 0.824898
820 1 0.997521 0.756716 0.912908
823 1 0.252369 0.659425 0.916709
824 1 0.145972 0.7467 0.918054
828 1 0.33861 0.743545 0.923719
847 1 0.253814 0.821836 0.93906
830 1 0.581717 0.761461 0.823946
725 1 0.179961 0.496323 0.66484
851 1 0.418695 0.838631 0.908854
826 1 0.40656 0.752506 0.833232
827 1 0.416606 0.665755 0.923739
832 1 0.502375 0.738131 0.905747
853 1 0.491405 0.843417 0.824739
849 1 0.323864 0.823382 0.838851
682 1 0.425659 0.760676 0.490578
737 1 0.665601 0.502249 0.665835
667 1 0.749988 0.490206 0.5826
650 1 0.0695753 0.58853 0.508601
735 1 0.58231 0.495908 0.745889
381 1 0.816329 1.00247 0.842135
649 1 0.986115 0.50768 0.50058
301 1 0.500149 1 0.666119
453 1 0.837534 0.501563 0.989887
743 1 0.9118 0.50081 0.761253
305 1 0.661286 1.00698 0.654223
289 1 1.01336 0.989394 0.655541
293 1 0.169419 1.00605 0.665132
457 1 -0.00979891 0.673566 1.00127
303 1 0.589329 1.00206 0.753183
655 1 0.267201 0.506472 0.588912
462 1 0.254164 0.733323 1.0073
689 1 0.665902 0.671709 0.501477
221 1 0.19257 1.00119 0.497695
446 1 0.583683 0.58112 1.00382
291 1 0.0808674 1.00109 0.764717
502 1 0.9228 0.908971 0.99464
661 1 0.489487 0.494557 0.493902
653 1 0.165914 0.518516 0.515135
481 1 -0.00473112 0.841068 0.994601
5 1 0.162581 1.00442 0.988631
442 1 0.432002 0.57421 0.991578
470 1 0.58232 0.751387 0.993677
654 1 0.250677 0.587098 0.507364
710 1 0.59195 0.903115 0.494624
713 1 0.673319 0.826067 0.502323
665 1 0.654579 0.490196 0.501248
469 1 0.498012 0.662034 0.995311
493 1 0.500521 0.836516 0.998636
662 1 0.57357 0.591993 0.502373
466 1 0.425561 0.751809 0.999843
673 1 1.00499 0.677829 0.487747
437 1 0.175063 0.506191 1.00507
490 1 0.417468 0.913744 1.01763
