ITEM: TIMESTEP
5500
ITEM: NUMBER OF ATOMS
2048
ITEM: BOX BOUNDS pp pp pp
0.0000000000000000e+00 4.2079999999999998e+01
0.0000000000000000e+00 4.2079999999999998e+01
0.0000000000000000e+00 4.2079999999999998e+01
ITEM: ATOMS id type xs ys zs
130 1 0.0734009 0.0669231 0.129869
8 1 0.136699 0.0685686 0.0676704
4 1 0.999967 0.0664714 0.062318
1179 1 0.811656 0.498032 0.179883
42 1 0.31465 0.183127 0.00446017
12 1 0.242733 0.070677 0.0600342
39 1 0.190784 0.13041 0.0786762
153 1 0.757678 0.00787688 0.124315
1309 1 0.878688 0.490024 0.2447
43 1 0.310197 0.116148 0.0660508
1183 1 0.937993 0.498369 0.181048
385 1 0.995629 0.00315002 0.373116
16 1 0.374191 0.0614106 0.0622393
47 1 0.439315 0.123897 0.06133
69 1 0.131325 0.248106 0.0105666
1 1 0.00415637 0.0065149 0.006532
20 1 0.502439 0.0537228 0.0725161
24 1 0.619823 0.0701955 0.0484656
512 1 0.871125 0.429744 0.438158
177 1 0.492958 0.10784 0.13244
78 1 0.446469 0.295659 0.00391987
484 1 0.99853 0.435152 0.432101
150 1 0.690868 0.0621773 0.122543
31 1 0.935144 0.00992971 0.0601276
287 1 0.925637 0.0118495 0.314744
101 1 0.126461 0.383596 0.00741424
28 1 0.746469 0.0652407 0.0616903
32 1 0.87665 0.0705631 0.0665951
59 1 0.814388 0.119861 0.0609706
154 1 0.811645 0.064098 0.122986
1303 1 0.692285 0.498591 0.313798
158 1 0.943726 0.0728412 0.128921
63 1 0.934535 0.124524 0.0675642
131 1 0.0680043 0.00566697 0.184405
35 1 0.0666415 0.116308 0.0733407
36 1 0.00188405 0.195814 0.0570003
40 1 0.122934 0.196163 0.0716597
259 1 0.0623692 0.00516339 0.307115
197 1 0.133485 0.259521 0.127496
159 1 0.93468 0.0151052 0.189884
1435 1 0.815233 0.485502 0.431646
71 1 0.191391 0.252185 0.0641861
94 1 0.929817 0.315098 0.00661826
1055 1 0.944982 0.499496 0.0552971
44 1 0.250286 0.198166 0.0571079
75 1 0.316061 0.2521 0.0661527
173 1 0.353343 0.108535 0.1377
205 1 0.375213 0.252581 0.122728
48 1 0.373931 0.178951 0.0690224
79 1 0.442892 0.244018 0.067529
52 1 0.497725 0.181602 0.0762075
51 1 0.55806 0.117348 0.0708071
181 1 0.634759 0.129029 0.117839
56 1 0.621138 0.193512 0.0627086
83 1 0.556582 0.251265 0.0807345
55 1 0.691693 0.12716 0.0557349
1031 1 0.193785 0.494003 0.0577345
60 1 0.746074 0.186118 0.0585879
64 1 0.876624 0.192956 0.0621179
91 1 0.798456 0.243866 0.056694
186 1 0.809219 0.195658 0.123666
217 1 0.745433 0.249532 0.136265
2 1 0.0677531 0.0644402 0.00261556
606 1 0.937833 0.304345 0.490572
67 1 0.065613 0.266729 0.0643616
194 1 0.0633445 0.318271 0.130975
72 1 0.13638 0.321749 0.0646573
229 1 0.121854 0.388203 0.116529
1153 1 0.996588 0.499746 0.118604
103 1 0.193658 0.380523 0.0684882
1307 1 0.820259 0.488931 0.3077
76 1 0.249258 0.311653 0.0702472
202 1 0.318987 0.320726 0.126575
233 1 0.251366 0.378021 0.127034
118 1 0.684646 0.438575 0.000660725
80 1 0.369269 0.308768 0.0531456
206 1 0.432274 0.311228 0.114054
237 1 0.372031 0.388186 0.125907
34 1 0.0630276 0.196287 0.00338134
84 1 0.506506 0.310268 0.0658086
88 1 0.620635 0.325982 0.0698855
210 1 0.565366 0.315137 0.148275
245 1 0.622168 0.376053 0.134549
129 1 0.00190795 0.00666345 0.128748
143 1 0.437712 0.00881892 0.191335
87 1 0.685223 0.254051 0.066454
119 1 0.676951 0.380982 0.0740814
214 1 0.698004 0.31684 0.129799
92 1 0.742502 0.319781 0.0572383
96 1 0.865102 0.311413 0.0635552
218 1 0.79908 0.308703 0.119622
95 1 0.941894 0.252859 0.0617196
68 1 0.996372 0.315344 0.0741711
127 1 0.938619 0.375814 0.0639965
225 1 0.00848391 0.383726 0.120212
62 1 0.936488 0.195109 0.00962547
99 1 0.067189 0.380953 0.0643439
226 1 0.0636797 0.45057 0.130407
281 1 0.748501 0.00319997 0.244262
104 1 0.132483 0.44277 0.0583609
230 1 0.187738 0.443121 0.123259
269 1 0.376077 0.00677938 0.26616
107 1 0.314756 0.384237 0.070708
108 1 0.254858 0.438049 0.0659898
234 1 0.310981 0.444843 0.136407
507 1 0.799577 0.367822 0.440063
77 1 0.38109 0.241364 0.00811857
112 1 0.37496 0.45016 0.0588826
111 1 0.44499 0.3898 0.0746697
116 1 0.492754 0.446622 0.0561233
1281 1 0.00344374 0.488234 0.244384
115 1 0.562657 0.383532 0.0632923
242 1 0.548709 0.447624 0.127798
120 1 0.61981 0.438755 0.0657481
124 1 0.748497 0.443867 0.0587522
249 1 0.758909 0.384663 0.109991
246 1 0.691403 0.437003 0.12274
81 1 0.522647 0.258697 0.00126726
123 1 0.815599 0.378616 0.056682
1431 1 0.690428 0.49703 0.436749
65 1 0.999728 0.262548 0.00534159
100 1 0.99783 0.438348 0.0657318
128 1 0.87785 0.435011 0.0583346
5 1 0.126733 0.00845928 0.00304472
163 1 0.0631237 0.131313 0.187518
136 1 0.139111 0.0603354 0.175774
134 1 0.201012 0.0564352 0.129078
262 1 0.191813 0.0468558 0.251891
167 1 0.200917 0.126772 0.189004
505 1 0.748325 0.367641 0.383183
297 1 0.24488 0.11424 0.268595
169 1 0.260951 0.129801 0.13169
140 1 0.259291 0.0494968 0.197699
138 1 0.294915 0.054885 0.12723
144 1 0.37106 0.0591927 0.205489
171 1 0.303854 0.117914 0.204947
266 1 0.314768 0.0680576 0.268986
1433 1 0.753895 0.484701 0.374514
3 1 0.0626243 0.0118879 0.0675263
133 1 0.13077 0.00252368 0.12646
142 1 0.426033 0.0568236 0.126636
148 1 0.501196 0.0578871 0.198404
175 1 0.432413 0.116444 0.185591
146 1 0.575869 0.0653374 0.124521
274 1 0.56887 0.0588386 0.255995
179 1 0.565451 0.127318 0.176036
152 1 0.633548 0.0623471 0.183966
574 1 0.937715 0.184427 0.494255
1289 1 0.253626 0.49632 0.266158
183 1 0.686262 0.120062 0.187392
185 1 0.752057 0.125544 0.122624
313 1 0.739386 0.12789 0.253561
1305 1 0.744398 0.491217 0.255466
156 1 0.748901 0.0712916 0.188686
160 1 0.873242 0.0818407 0.175902
187 1 0.812183 0.131402 0.180383
189 1 0.87468 0.138648 0.119885
503 1 0.686244 0.372326 0.446256
161 1 0.00198596 0.128476 0.122139
132 1 0.00193398 0.0724999 0.188882
191 1 0.938364 0.125348 0.184297
317 1 0.867623 0.136353 0.255592
162 1 0.0643845 0.18704 0.117342
290 1 0.0749581 0.201865 0.248704
195 1 0.0710081 0.253211 0.179049
193 1 0.00434971 0.247058 0.117183
165 1 0.126671 0.130168 0.127057
166 1 0.187251 0.194567 0.124061
168 1 0.13857 0.186786 0.190531
201 1 0.259049 0.245932 0.128955
172 1 0.255868 0.187318 0.197524
329 1 0.248045 0.243156 0.262304
294 1 0.192957 0.171682 0.261217
170 1 0.319555 0.180789 0.13216
176 1 0.377621 0.186421 0.191244
203 1 0.318269 0.251408 0.187835
298 1 0.307911 0.184998 0.263521
174 1 0.430854 0.182782 0.121735
302 1 0.426761 0.194265 0.258458
305 1 0.510258 0.123278 0.25721
180 1 0.489616 0.183397 0.204225
178 1 0.566459 0.18643 0.116714
184 1 0.630532 0.18007 0.186555
182 1 0.692228 0.184488 0.113387
213 1 0.627426 0.252327 0.133067
310 1 0.680313 0.183651 0.251737
188 1 0.743234 0.183184 0.194529
314 1 0.800095 0.176002 0.260182
192 1 0.868051 0.18674 0.186553
219 1 0.816041 0.249421 0.191209
190 1 0.938065 0.193708 0.120828
164 1 0.00354607 0.186133 0.18626
223 1 0.93503 0.253516 0.178918
318 1 0.933229 0.190478 0.244356
349 1 0.878947 0.248122 0.245558
322 1 0.058317 0.31211 0.236318
200 1 0.131497 0.316126 0.19132
196 1 0.999277 0.325241 0.183512
227 1 0.0712102 0.390776 0.190509
199 1 0.19407 0.251175 0.200664
325 1 0.140552 0.258058 0.256295
198 1 0.190852 0.313075 0.132661
204 1 0.25027 0.318802 0.187254
361 1 0.249676 0.389493 0.255662
326 1 0.203715 0.316598 0.253054
330 1 0.300403 0.316977 0.249954
235 1 0.310564 0.378658 0.189176
333 1 0.369306 0.247285 0.254092
365 1 0.37458 0.369623 0.254716
208 1 0.376368 0.318739 0.194306
207 1 0.438035 0.256707 0.192702
209 1 0.494964 0.240337 0.130641
212 1 0.491865 0.310025 0.177607
334 1 0.428665 0.309335 0.255326
211 1 0.570335 0.228124 0.186092
216 1 0.63307 0.315405 0.186364
338 1 0.560368 0.318877 0.23489
341 1 0.624966 0.248076 0.240264
215 1 0.687931 0.248864 0.191642
342 1 0.689692 0.30644 0.259225
221 1 0.868796 0.24832 0.129762
345 1 0.7488 0.24256 0.249141
220 1 0.747593 0.303422 0.19279
346 1 0.806388 0.303483 0.260075
222 1 0.93077 0.3071 0.121736
224 1 0.873205 0.304975 0.190026
255 1 0.927233 0.373081 0.174824
228 1 0.991302 0.433014 0.185904
353 1 0.999609 0.379602 0.249809
504 1 0.615033 0.428961 0.436065
231 1 0.185759 0.372782 0.199774
232 1 0.125439 0.450244 0.180438
357 1 0.129146 0.387661 0.252914
236 1 0.246036 0.445678 0.179498
1439 1 0.942099 0.496376 0.443708
238 1 0.43343 0.446905 0.125244
239 1 0.441638 0.373344 0.17359
240 1 0.370179 0.441461 0.196455
244 1 0.49439 0.44547 0.194862
366 1 0.433206 0.426074 0.243743
241 1 0.501516 0.388304 0.128774
369 1 0.502271 0.368631 0.246931
373 1 0.631818 0.376214 0.25414
243 1 0.577411 0.38759 0.194164
248 1 0.643252 0.44209 0.193477
370 1 0.566891 0.446031 0.24317
247 1 0.689372 0.36648 0.186332
374 1 0.684754 0.431611 0.256711
252 1 0.752495 0.435468 0.175349
377 1 0.745591 0.370923 0.250163
508 1 0.746065 0.431153 0.438646
605 1 0.872451 0.248632 0.493844
250 1 0.818565 0.437271 0.122341
251 1 0.810351 0.365077 0.181799
256 1 0.872675 0.435525 0.180529
378 1 0.800663 0.430712 0.229516
253 1 0.866544 0.369272 0.118839
254 1 0.935254 0.432647 0.124466
381 1 0.874416 0.378047 0.23576
382 1 0.937892 0.432091 0.242235
258 1 0.0630844 0.064865 0.245769
293 1 0.12207 0.123337 0.246083
289 1 0.000545323 0.14315 0.251441
264 1 0.115735 0.0721281 0.310047
501 1 0.620451 0.371468 0.370103
74 1 0.305642 0.323169 0.00344208
295 1 0.1841 0.115471 0.327487
1429 1 0.626213 0.495722 0.383715
268 1 0.247241 0.0476505 0.319018
272 1 0.38455 0.0825139 0.323052
299 1 0.312309 0.124552 0.332672
499 1 0.552315 0.373967 0.438235
270 1 0.433299 0.0650472 0.268886
301 1 0.36983 0.130977 0.258157
398 1 0.438003 0.0594366 0.380624
1417 1 0.25136 0.493434 0.386111
276 1 0.494028 0.0528461 0.323672
309 1 0.616411 0.123961 0.249206
500 1 0.500933 0.440879 0.434107
7 1 0.184075 0.00417853 0.0606372
278 1 0.686635 0.0561862 0.252012
280 1 0.632737 0.0560782 0.310395
406 1 0.685893 0.0546425 0.377766
284 1 0.753414 0.0508338 0.311615
282 1 0.809224 0.0710634 0.252176
286 1 0.923677 0.0702145 0.252787
288 1 0.866007 0.0590773 0.320984
260 1 0.989998 0.0739756 0.318423
319 1 0.931079 0.131152 0.316341
291 1 0.050529 0.133837 0.312218
292 1 0.00558194 0.201893 0.315138
296 1 0.132353 0.189111 0.309382
323 1 0.0700029 0.267008 0.308183
418 1 0.0607579 0.180488 0.373611
327 1 0.185344 0.26068 0.315791
422 1 0.186642 0.199647 0.381187
300 1 0.249446 0.180872 0.334215
304 1 0.371146 0.182074 0.322707
331 1 0.305544 0.254796 0.311787
426 1 0.313555 0.19627 0.380584
337 1 0.505776 0.25503 0.252113
303 1 0.448625 0.132169 0.30693
429 1 0.378242 0.129771 0.386354
430 1 0.428032 0.196273 0.381201
308 1 0.503319 0.192198 0.314575
306 1 0.566443 0.190498 0.258358
307 1 0.572347 0.109909 0.323772
312 1 0.625628 0.181251 0.317448
434 1 0.562988 0.179263 0.381405
311 1 0.686415 0.125826 0.317749
438 1 0.690365 0.18023 0.380455
441 1 0.739397 0.118941 0.373324
469 1 0.618381 0.249091 0.382364
315 1 0.791927 0.123469 0.316004
316 1 0.737204 0.192039 0.315544
445 1 0.87262 0.12604 0.377267
320 1 0.875069 0.194703 0.309825
446 1 0.933807 0.19043 0.37239
450 1 0.0635326 0.307405 0.368221
328 1 0.126206 0.328433 0.310124
454 1 0.18066 0.322061 0.369981
359 1 0.191229 0.381178 0.318122
457 1 0.252645 0.251848 0.380452
453 1 0.121609 0.24776 0.381295
332 1 0.253651 0.318988 0.313016
363 1 0.315217 0.382418 0.31882
458 1 0.307418 0.329354 0.384524
493 1 0.379474 0.36967 0.373741
461 1 0.362576 0.261269 0.378099
335 1 0.433879 0.250112 0.317719
336 1 0.362503 0.307388 0.315306
462 1 0.440491 0.31361 0.368477
340 1 0.504037 0.316011 0.307771
339 1 0.561478 0.251193 0.312428
343 1 0.675165 0.248506 0.319668
344 1 0.62384 0.318638 0.307466
470 1 0.675401 0.309772 0.386051
347 1 0.80374 0.242165 0.315575
348 1 0.746519 0.308792 0.323858
474 1 0.81174 0.317476 0.366786
351 1 0.929184 0.24818 0.314777
321 1 0.00197981 0.255827 0.231383
324 1 0.987236 0.303909 0.305612
350 1 0.937388 0.322284 0.24085
352 1 0.878145 0.310516 0.301677
477 1 0.873646 0.256509 0.370372
478 1 0.938578 0.311805 0.371038
355 1 0.0651899 0.380052 0.306971
354 1 0.0678719 0.44231 0.252984
356 1 0.998076 0.441286 0.312719
482 1 0.0588844 0.446221 0.376811
358 1 0.184501 0.449937 0.241335
360 1 0.117741 0.450036 0.318416
1047 1 0.688089 0.498332 0.0632192
464 1 0.371078 0.31996 0.443792
364 1 0.250519 0.442613 0.320432
362 1 0.316525 0.441963 0.25162
491 1 0.309969 0.375361 0.451339
367 1 0.440002 0.369837 0.306849
368 1 0.380765 0.440156 0.317493
1291 1 0.316426 0.493904 0.324219
155 1 0.814742 0.0155392 0.193089
498 1 0.561694 0.442132 0.37487
497 1 0.504563 0.38058 0.363188
371 1 0.568121 0.381156 0.314156
372 1 0.496731 0.430322 0.298714
376 1 0.62498 0.441181 0.32428
502 1 0.691115 0.427845 0.374283
375 1 0.689912 0.366391 0.314372
577 1 0.99546 0.242881 0.498719
467 1 0.554281 0.249181 0.434645
379 1 0.811702 0.371512 0.304853
380 1 0.755672 0.431321 0.303398
506 1 0.811713 0.424003 0.371865
495 1 0.451419 0.371531 0.430852
510 1 0.936166 0.430555 0.367212
384 1 0.871822 0.422912 0.312382
383 1 0.934396 0.369714 0.303794
386 1 0.0518356 0.0673406 0.381483
392 1 0.119639 0.0594709 0.437083
417 1 0.981663 0.126466 0.379723
476 1 0.74106 0.302632 0.443378
1181 1 0.875715 0.495011 0.130093
496 1 0.368524 0.434382 0.438901
390 1 0.184884 0.0647367 0.384703
421 1 0.116279 0.129606 0.372772
423 1 0.188071 0.129728 0.439054
490 1 0.306016 0.437021 0.389719
488 1 0.128908 0.435064 0.442245
394 1 0.320824 0.0553479 0.378173
396 1 0.239545 0.0522144 0.442057
400 1 0.374177 0.0589638 0.437235
492 1 0.247798 0.440704 0.447742
105 1 0.24876 0.380385 0.0135428
404 1 0.494148 0.0599869 0.439573
50 1 0.561999 0.183136 0.00780837
431 1 0.439495 0.125692 0.441153
480 1 0.873841 0.313356 0.432616
139 1 0.316644 0.000755513 0.20972
402 1 0.568694 0.0566392 0.38209
408 1 0.623487 0.0581013 0.43965
468 1 0.504449 0.311399 0.439656
465 1 0.495818 0.251651 0.383394
479 1 0.936758 0.240815 0.434447
412 1 0.746319 0.063231 0.442514
410 1 0.805063 0.0492577 0.379321
466 1 0.560824 0.31641 0.367793
414 1 0.929721 0.0611511 0.376532
416 1 0.870712 0.0616361 0.435684
388 1 0.989471 0.0619045 0.437097
494 1 0.438479 0.439049 0.365676
403 1 0.553058 0.00627273 0.447204
419 1 0.0753912 0.121119 0.435538
424 1 0.130661 0.186411 0.439036
486 1 0.19234 0.435936 0.385269
475 1 0.81355 0.258037 0.420416
1051 1 0.828528 0.498323 0.0603439
425 1 0.252428 0.119856 0.384386
427 1 0.308022 0.137008 0.432493
428 1 0.249673 0.189791 0.434176
432 1 0.377999 0.196796 0.437714
511 1 0.936142 0.374124 0.430345
463 1 0.435406 0.256629 0.446738
569 1 0.745263 0.120326 0.498385
471 1 0.671688 0.245231 0.436853
433 1 0.490637 0.122609 0.381091
435 1 0.561665 0.122171 0.438338
436 1 0.50571 0.18016 0.434547
509 1 0.879992 0.368579 0.371782
459 1 0.318714 0.260005 0.447344
437 1 0.629681 0.122414 0.377811
439 1 0.685306 0.118355 0.438582
440 1 0.61899 0.183663 0.437279
473 1 0.735897 0.251293 0.37639
444 1 0.750744 0.182476 0.43849
443 1 0.806182 0.122031 0.43699
442 1 0.804799 0.183468 0.364563
448 1 0.871973 0.193072 0.432019
489 1 0.247338 0.380554 0.382742
420 1 0.995748 0.185001 0.435011
447 1 0.927617 0.130754 0.440474
449 1 9.23254e-05 0.256388 0.375386
483 1 0.0661312 0.369352 0.428315
451 1 0.0649976 0.253379 0.433499
485 1 0.125731 0.39434 0.372514
456 1 0.116784 0.318938 0.450478
481 1 0.00244003 0.369149 0.366126
452 1 0.993251 0.310633 0.431809
472 1 0.620181 0.318313 0.443984
455 1 0.177559 0.245133 0.444585
487 1 0.176326 0.370428 0.437591
460 1 0.25095 0.31641 0.448183
1287 1 0.190042 0.49306 0.327877
1437 1 0.869149 0.488061 0.368093
399 1 0.43127 0.00221366 0.44236
557 1 0.367311 0.127896 0.494469
545 1 0.992732 0.126717 0.495705
1411 1 0.0627384 0.492266 0.446705
263 1 0.16971 0.00567294 0.315514
113 1 0.493018 0.371621 0.00215292
147 1 0.563015 0.00105514 0.185695
1173 1 0.619345 0.485012 0.131685
622 1 0.435656 0.43018 0.49512
273 1 0.506518 0.00052717 0.253522
1301 1 0.627201 0.497111 0.247232
566 1 0.683548 0.18276 0.496292
257 1 0.994595 0.0190679 0.252717
261 1 0.123634 0.0013656 0.242348
1421 1 0.375649 0.4947 0.385682
66 1 0.0666556 0.324685 0.000314036
1299 1 0.565649 0.496471 0.315652
389 1 0.112843 0.00829496 0.373982
70 1 0.187234 0.31884 0.00319481
141 1 0.363669 0.00962436 0.130194
1043 1 0.566571 0.498484 0.0588401
1409 1 0.986154 0.498467 0.373915
1293 1 0.373208 0.491673 0.25197
411 1 0.801506 0.00567099 0.445271
126 1 0.945962 0.437611 0.00131224
19 1 0.568719 0.000697958 0.0632333
581 1 0.120455 0.244442 0.495453
1557 1 0.621103 0.498195 0.491167
637 1 0.87562 0.371045 0.495154
46 1 0.454593 0.183279 0.0027091
573 1 0.867359 0.125586 0.495444
93 1 0.875923 0.258887 0.00325538
549 1 0.127911 0.115234 0.495498
90 1 0.798626 0.313478 0.00551068
86 1 0.675681 0.320766 0.00768172
117 1 0.620078 0.383764 0.0111364
526 1 0.428088 0.065768 0.495112
121 1 0.749851 0.388623 0.00815001
89 1 0.735402 0.259985 0.00117377
609 1 0.996414 0.375682 0.487101
1553 1 0.498667 0.494383 0.489028
1033 1 0.252421 0.493696 0.00407466
85 1 0.612547 0.25976 0.00964587
534 1 0.683509 0.0589598 0.497717
561 1 0.509579 0.117336 0.497665
54 1 0.681793 0.193515 0.000313441
109 1 0.387234 0.37602 0.0183137
18 1 0.55632 0.0526099 0.000759038
1045 1 0.621487 0.499895 0.000956794
582 1 0.184419 0.304024 0.495963
546 1 0.0636451 0.182453 0.491966
122 1 0.821889 0.442933 0.00273124
45 1 0.375863 0.122484 0.00109983
554 1 0.310747 0.190312 0.498642
585 1 0.251032 0.252281 0.497066
626 1 0.554561 0.440845 0.494763
37 1 0.126215 0.137001 0.0194592
614 1 0.182939 0.444575 0.498462
642 1 0.0612103 0.0611574 0.62555
673 1 0.996593 0.127707 0.627849
791 1 0.691754 0.00548494 0.809877
520 1 0.114686 0.0694449 0.559473
551 1 0.200265 0.11986 0.561972
789 1 0.620516 0.003742 0.757986
677 1 0.116703 0.130673 0.627676
646 1 0.186915 0.0572474 0.61892
524 1 0.260845 0.0658896 0.567937
555 1 0.324251 0.132478 0.56273
650 1 0.320138 0.0706743 0.623825
681 1 0.25111 0.140099 0.627126
515 1 0.0578306 0.00790597 0.563548
528 1 0.370895 0.060839 0.554015
654 1 0.438023 0.0601287 0.635993
689 1 0.495115 0.124181 0.627885
522 1 0.305004 0.0648125 0.50139
685 1 0.376494 0.132205 0.630303
532 1 0.501823 0.0746291 0.566507
536 1 0.624165 0.0547476 0.569326
658 1 0.560797 0.0626061 0.623905
899 1 0.0574097 0.00592414 0.939212
535 1 0.675905 0.00184312 0.559019
1024 1 0.880356 0.439027 0.930124
662 1 0.68866 0.0486774 0.636562
540 1 0.755618 0.0524764 0.555049
697 1 0.760534 0.100391 0.623035
1023 1 0.944067 0.387996 0.931565
571 1 0.817288 0.127118 0.560472
558 1 0.440598 0.186463 0.510944
513 1 0.993868 0.00356006 0.503847
516 1 0.996567 0.0677448 0.566688
544 1 0.873214 0.0633799 0.565108
670 1 0.950386 0.0633905 0.634841
785 1 0.491591 0.000600132 0.753481
547 1 0.0504076 0.12501 0.570497
674 1 0.0510789 0.194911 0.617295
579 1 0.0566882 0.239094 0.554147
709 1 0.114177 0.241615 0.625023
552 1 0.122521 0.174679 0.549691
583 1 0.183198 0.238305 0.558857
678 1 0.184284 0.182284 0.62022
713 1 0.255261 0.245617 0.617512
799 1 0.942749 0.00439724 0.809112
556 1 0.255579 0.184515 0.56219
560 1 0.385187 0.191538 0.566678
587 1 0.313266 0.252504 0.561126
562 1 0.558156 0.184783 0.503115
559 1 0.430677 0.124977 0.563043
686 1 0.452162 0.191216 0.624029
1927 1 0.192385 0.489233 0.935586
564 1 0.504171 0.188273 0.568337
563 1 0.56788 0.126966 0.572253
595 1 0.560031 0.248674 0.566062
693 1 0.635068 0.113255 0.629862
567 1 0.69262 0.111942 0.567164
568 1 0.62975 0.190325 0.567531
725 1 0.626752 0.256213 0.625748
694 1 0.690165 0.184184 0.638125
1539 1 0.0558112 0.492821 0.566309
572 1 0.741228 0.184891 0.562446
603 1 0.807236 0.252194 0.568648
576 1 0.868212 0.183685 0.571508
653 1 0.377814 0.00959531 0.61825
1559 1 0.685126 0.497301 0.568872
575 1 0.936939 0.121831 0.575085
548 1 0.986004 0.186769 0.562964
705 1 0.984462 0.241175 0.616988
1923 1 0.0692738 0.494271 0.938423
706 1 0.0599223 0.316633 0.615635
584 1 0.118848 0.291114 0.56167
611 1 0.0568782 0.378967 0.556818
651 1 0.302716 0.00847384 0.690822
771 1 0.0550904 0.000396721 0.806148
710 1 0.179061 0.308166 0.621967
588 1 0.25476 0.318247 0.563698
714 1 0.307584 0.314688 0.63346
717 1 0.38032 0.249485 0.628639
589 1 0.377629 0.241368 0.503055
1929 1 0.256373 0.492018 0.882026
592 1 0.380841 0.315031 0.565518
591 1 0.438215 0.259169 0.575626
623 1 0.436937 0.372285 0.570662
718 1 0.430149 0.320401 0.63063
721 1 0.509999 0.250809 0.632281
753 1 0.503813 0.36938 0.629035
596 1 0.503117 0.309679 0.566932
627 1 0.563521 0.368229 0.560764
722 1 0.570235 0.31049 0.62279
599 1 0.684092 0.25283 0.560245
600 1 0.630216 0.309935 0.565739
726 1 0.686843 0.309199 0.634102
729 1 0.746968 0.249234 0.625676
1945 1 0.74876 0.487939 0.869332
604 1 0.74844 0.310904 0.568569
635 1 0.815327 0.377499 0.57046
608 1 0.873225 0.317464 0.556544
1669 1 0.119256 0.488879 0.619481
607 1 0.933475 0.249927 0.556105
580 1 0.999794 0.308978 0.551582
1541 1 0.117433 0.491534 0.505685
612 1 0.996035 0.432928 0.559312
738 1 0.0502604 0.431229 0.630327
1943 1 0.692776 0.492919 0.942889
665 1 0.758552 0.000579794 0.628699
6 1 0.194725 0.0520561 0.993819
616 1 0.119488 0.431695 0.559435
615 1 0.193497 0.373269 0.564798
620 1 0.244342 0.441227 0.567729
1811 1 0.555467 0.498451 0.80837
773 1 0.114451 0.00738848 0.755101
619 1 0.316354 0.373448 0.570289
624 1 0.377037 0.442412 0.563351
1018 1 0.8131 0.436749 0.870873
1921 1 0.998942 0.496727 0.878452
565 1 0.621266 0.128487 0.508149
1021 1 0.869403 0.376212 0.873203
617 1 0.243287 0.371072 0.504735
1019 1 0.81254 0.37488 0.936772
1925 1 0.127244 0.498387 0.879235
628 1 0.500356 0.437218 0.567253
632 1 0.610938 0.441903 0.565839
1687 1 0.677243 0.499063 0.675446
631 1 0.688885 0.378681 0.5629
758 1 0.678954 0.433375 0.622714
919 1 0.692198 0.00773628 0.932385
1013 1 0.627938 0.367727 0.87599
761 1 0.745212 0.377458 0.629103
630 1 0.685031 0.439726 0.507671
636 1 0.755362 0.435462 0.558775
633 1 0.744045 0.364507 0.504884
639 1 0.946369 0.365565 0.565991
765 1 0.86993 0.362665 0.631447
640 1 0.886298 0.433805 0.555895
737 1 0.00520684 0.365499 0.62303
770 1 0.0583037 0.067946 0.745736
644 1 0.00133049 0.0557187 0.698271
675 1 0.0611415 0.136143 0.676144
648 1 0.126661 0.0576907 0.676197
541 1 0.88416 0.00436276 0.512028
1931 1 0.313883 0.499684 0.938021
1014 1 0.690973 0.430561 0.875164
652 1 0.248323 0.065897 0.674283
610 1 0.0601871 0.431124 0.501016
683 1 0.311111 0.130849 0.69492
813 1 0.363249 0.125282 0.745949
1689 1 0.745839 0.487176 0.634788
1543 1 0.185064 0.497874 0.564757
656 1 0.375105 0.0614536 0.695373
782 1 0.438793 0.0689011 0.740128
1941 1 0.629206 0.488516 0.875635
1015 1 0.683159 0.371534 0.941569
660 1 0.509968 0.0581731 0.683533
664 1 0.617462 0.0707026 0.708884
691 1 0.562586 0.117167 0.686643
695 1 0.69282 0.113507 0.684171
668 1 0.748056 0.057018 0.693163
1020 1 0.751781 0.4421 0.940699
790 1 0.69073 0.073401 0.753187
1011 1 0.561759 0.373641 0.934133
666 1 0.82312 0.0602724 0.627706
699 1 0.807303 0.124177 0.690056
672 1 0.88189 0.063782 0.682764
825 1 0.744888 0.128143 0.756248
701 1 0.872077 0.121385 0.63344
703 1 0.940855 0.128354 0.693219
802 1 0.0678189 0.182451 0.744655
679 1 0.182825 0.123588 0.679728
680 1 0.130154 0.190443 0.680401
806 1 0.182804 0.188904 0.746173
841 1 0.253938 0.259193 0.74703
684 1 0.244365 0.187901 0.693607
809 1 0.241404 0.124828 0.753458
682 1 0.311779 0.193759 0.62445
688 1 0.386505 0.18795 0.690103
687 1 0.440288 0.132838 0.682486
692 1 0.514753 0.176528 0.686268
845 1 0.370878 0.246632 0.757754
814 1 0.440519 0.195427 0.754497
690 1 0.567459 0.190829 0.627994
696 1 0.618316 0.183051 0.690571
853 1 0.630193 0.257352 0.739704
700 1 0.749595 0.186868 0.691982
727 1 0.695254 0.249219 0.687942
821 1 0.622916 0.126548 0.758544
698 1 0.805974 0.192612 0.628876
733 1 0.873282 0.256898 0.621635
826 1 0.819746 0.179817 0.758093
704 1 0.875525 0.183632 0.693584
702 1 0.925972 0.187894 0.628039
676 1 0.994306 0.197075 0.689392
735 1 0.928825 0.246829 0.69143
830 1 0.940509 0.191868 0.744946
707 1 0.0622322 0.246583 0.685152
834 1 0.0608179 0.324442 0.76568
869 1 0.12564 0.379799 0.759303
712 1 0.118924 0.310544 0.675729
833 1 0.996752 0.259936 0.749381
837 1 0.123892 0.25271 0.742787
711 1 0.194322 0.243552 0.672969
743 1 0.177656 0.382413 0.689095
838 1 0.175267 0.307276 0.728928
745 1 0.251587 0.367814 0.623822
715 1 0.314057 0.250917 0.686912
716 1 0.243318 0.306783 0.680954
842 1 0.318374 0.320594 0.744502
719 1 0.440655 0.253109 0.67913
720 1 0.373666 0.307139 0.683921
724 1 0.508047 0.31579 0.692449
877 1 0.374273 0.386876 0.741272
723 1 0.562029 0.249222 0.690677
728 1 0.629261 0.311503 0.685595
757 1 0.6259 0.378215 0.624213
854 1 0.691986 0.318944 0.750777
730 1 0.813655 0.312584 0.62582
731 1 0.817742 0.24936 0.678109
732 1 0.755569 0.31323 0.682648
858 1 0.809014 0.318458 0.743254
763 1 0.811964 0.380676 0.683509
736 1 0.876499 0.306348 0.680898
857 1 0.753582 0.244484 0.750407
893 1 0.866059 0.378734 0.749687
708 1 0.00164629 0.297958 0.671894
734 1 0.93435 0.301898 0.61425
862 1 0.932273 0.316234 0.755451
739 1 0.0624548 0.364755 0.686381
1016 1 0.622935 0.435519 0.94055
781 1 0.377739 0.00178829 0.744832
1671 1 0.193991 0.490349 0.688312
741 1 0.121285 0.370078 0.617265
744 1 0.111208 0.433319 0.680006
742 1 0.194314 0.43525 0.625289
518 1 0.182611 0.0589955 0.516209
1563 1 0.80947 0.491719 0.578462
747 1 0.302357 0.370427 0.688426
748 1 0.258475 0.435723 0.684878
746 1 0.310701 0.444081 0.617266
874 1 0.313522 0.429931 0.760465
749 1 0.375081 0.37394 0.631676
1813 1 0.625347 0.495717 0.753724
750 1 0.434574 0.442383 0.628024
751 1 0.430156 0.379516 0.685397
752 1 0.374249 0.437315 0.681945
756 1 0.494822 0.442036 0.685786
755 1 0.565338 0.372835 0.682421
754 1 0.55864 0.431547 0.630289
645 1 0.121948 0.00120789 0.614504
885 1 0.622049 0.371249 0.747339
1006 1 0.440071 0.444207 0.886467
759 1 0.684209 0.372973 0.688396
760 1 0.629535 0.435426 0.688494
1012 1 0.5029 0.436218 0.934904
542 1 0.933046 0.0673349 0.506291
762 1 0.812536 0.436245 0.630857
764 1 0.753957 0.433764 0.693426
890 1 0.816359 0.438739 0.74598
740 1 0.993837 0.429168 0.685183
766 1 0.945248 0.422653 0.623626
767 1 0.939373 0.370447 0.68991
768 1 0.879759 0.43814 0.687948
865 1 0.00388977 0.381774 0.752292
894 1 0.932945 0.43011 0.748688
805 1 0.123561 0.120041 0.753659
801 1 0.00283655 0.129769 0.734571
776 1 0.129949 0.0639441 0.812099
774 1 0.186829 0.0726868 0.736905
780 1 0.248037 0.0579739 0.813118
1805 1 0.365049 0.49213 0.74205
1821 1 0.875512 0.497345 0.750725
778 1 0.299337 0.065639 0.751868
784 1 0.364151 0.0517892 0.809216
906 1 0.309606 0.0666871 0.871898
775 1 0.183681 0.0019628 0.824233
815 1 0.426815 0.113675 0.814196
910 1 0.426641 0.0547225 0.869048
788 1 0.494416 0.0574333 0.816315
786 1 0.550198 0.057564 0.756148
792 1 0.623095 0.0630409 0.811178
819 1 0.558985 0.10926 0.814207
796 1 0.758581 0.0603712 0.810998
918 1 0.697122 0.0669244 0.872718
1008 1 0.378494 0.444502 0.938929
1004 1 0.260159 0.426599 0.949468
586 1 0.307016 0.326831 0.509325
794 1 0.818292 0.0685113 0.747175
800 1 0.868763 0.0591531 0.818479
827 1 0.81924 0.129912 0.815543
829 1 0.875051 0.123382 0.753179
798 1 0.943729 0.0658076 0.751392
772 1 0.000538565 0.0635759 0.79987
831 1 0.941185 0.124754 0.810363
803 1 0.0507905 0.126981 0.812102
929 1 0.00126301 0.129442 0.882022
808 1 0.144412 0.196524 0.815981
930 1 0.0517046 0.18767 0.865731
933 1 0.113027 0.127091 0.871398
807 1 0.189201 0.122643 0.817402
934 1 0.186859 0.197789 0.881019
812 1 0.241911 0.199012 0.805203
810 1 0.312723 0.192808 0.748908
811 1 0.298739 0.13992 0.80708
938 1 0.317142 0.187088 0.877235
816 1 0.379523 0.190163 0.829077
973 1 0.380841 0.263013 0.885
941 1 0.377466 0.116954 0.890779
817 1 0.494877 0.125049 0.757978
820 1 0.491811 0.183016 0.818516
942 1 0.433035 0.178865 0.886047
818 1 0.556441 0.183155 0.754075
849 1 0.491333 0.260188 0.753381
822 1 0.683241 0.185684 0.746227
823 1 0.693162 0.130486 0.817341
824 1 0.626746 0.199261 0.797257
828 1 0.742307 0.19098 0.831288
861 1 0.863363 0.249042 0.739185
832 1 0.884618 0.194454 0.804477
859 1 0.815151 0.259025 0.810488
954 1 0.824208 0.193088 0.865238
989 1 0.882452 0.247967 0.881032
804 1 0.998248 0.183625 0.804201
863 1 0.927157 0.262695 0.806429
958 1 0.939541 0.190912 0.864249
835 1 0.05866 0.242881 0.807318
840 1 0.130417 0.315655 0.819265
839 1 0.194629 0.272333 0.805086
966 1 0.193151 0.314136 0.885732
844 1 0.260709 0.317685 0.819345
871 1 0.188407 0.364915 0.824142
969 1 0.257986 0.248285 0.875471
843 1 0.316869 0.253093 0.822428
873 1 0.243504 0.383244 0.74822
848 1 0.368385 0.317217 0.807904
875 1 0.316799 0.377948 0.818638
970 1 0.31927 0.32056 0.897707
1005 1 0.377903 0.368802 0.869847
846 1 0.430629 0.312298 0.742967
847 1 0.440498 0.250345 0.816858
879 1 0.4463 0.380934 0.813778
974 1 0.44525 0.313679 0.880433
852 1 0.491877 0.316172 0.810194
851 1 0.565465 0.24353 0.813255
850 1 0.561807 0.310244 0.755661
856 1 0.630656 0.308488 0.802462
978 1 0.556249 0.311121 0.868929
977 1 0.505345 0.235848 0.878395
855 1 0.686309 0.24654 0.804166
982 1 0.68141 0.308523 0.867737
981 1 0.622663 0.251536 0.873579
985 1 0.751975 0.254258 0.878816
860 1 0.748073 0.303236 0.81213
864 1 0.867324 0.320614 0.81343
986 1 0.811789 0.311297 0.874707
891 1 0.808636 0.377333 0.817497
836 1 0.994627 0.321967 0.812287
993 1 0.00397474 0.388619 0.867377
1951 1 0.947976 0.497398 0.941715
1002 1 0.316316 0.435993 0.883012
867 1 0.0740068 0.384597 0.824079
997 1 0.128851 0.377508 0.885278
866 1 0.0594791 0.448986 0.743571
868 1 0.000379683 0.442545 0.805851
1007 1 0.435127 0.379034 0.93676
1000 1 0.126532 0.440973 0.934951
872 1 0.125002 0.453797 0.808595
870 1 0.180526 0.430594 0.756782
1003 1 0.328965 0.378059 0.946588
998 1 0.182463 0.444379 0.85911
876 1 0.248137 0.444635 0.805637
880 1 0.378032 0.434674 0.813744
878 1 0.438076 0.445056 0.750596
884 1 0.50244 0.439358 0.80637
882 1 0.568343 0.433156 0.738624
881 1 0.507734 0.377099 0.753191
883 1 0.559272 0.374439 0.81423
1010 1 0.566922 0.442866 0.871728
888 1 0.619197 0.432383 0.803529
621 1 0.371141 0.37648 0.507486
886 1 0.682124 0.443959 0.748366
889 1 0.745963 0.376754 0.760549
887 1 0.682551 0.377147 0.815598
995 1 0.0576167 0.366373 0.936637
1017 1 0.752392 0.370312 0.87647
892 1 0.743828 0.435662 0.808975
896 1 0.865112 0.436447 0.814227