ITEM: TIMESTEP
22500
ITEM: NUMBER OF ATOMS
864
ITEM: BOX BOUNDS pp pp pp
0.0000000000000000e+00 3.1559999999999999e+01
0.0000000000000000e+00 3.1559999999999999e+01
0.0000000000000000e+00 3.1559999999999999e+01
ITEM: ATOMS id type xs ys zs
8 1 0.160347 0.0710976 0.0821103
447 1 0.585014 0.494126 0.0685332
27 1 0.0858254 0.177199 0.0802407
593 1 0.665653 0.496266 0.32531
226 1 0.420766 0.0858827 0.498486
31 1 0.230038 0.147913 0.0955222
101 1 0.153833 0.178567 0.179835
78 1 0.242542 0.0623267 0.169264
12 1 0.322837 0.0796925 0.085074
35 1 0.408753 0.153503 0.0874712
82 1 0.412156 0.0725894 0.155903
16 1 0.506749 0.070914 0.0743667
20 1 0.668365 0.102157 0.0588587
39 1 0.581585 0.169581 0.105895
278 1 0.57826 0.423048 0.489582
589 1 0.502089 0.48602 0.341919
253 1 0.504039 0.160571 0.477614
24 1 0.829107 0.0876698 0.0787086
49 1 0.00573232 0.336441 0.00429636
151 1 0.253384 0.00987814 0.426735
4 1 0.987068 0.0744414 0.0912457
47 1 0.907245 0.16916 0.0674811
455 1 0.904183 0.487688 0.0719061
97 1 0.996825 0.162217 0.15967
274 1 0.418487 0.421532 0.492332
94 1 0.904823 0.0994273 0.156657
32 1 0.163894 0.251439 0.0850719
257 1 0.682668 0.152533 0.480244
273 1 0.351014 0.329095 0.4831
50 1 0.0678089 0.416522 0.00545317
36 1 0.337872 0.242911 0.0848833
102 1 0.251183 0.243397 0.154397
59 1 0.401857 0.335776 0.0797303
250 1 0.426502 0.252752 0.49155
106 1 0.415559 0.239034 0.169976
73 1 0.997911 0.00732092 0.171169
40 1 0.502844 0.240576 0.0895532
110 1 0.589317 0.256941 0.15939
63 1 0.587345 0.334826 0.0828052
44 1 0.662703 0.256105 0.0787828
43 1 0.759406 0.176037 0.0619598
67 1 0.743294 0.343191 0.0661498
61 1 0.499754 0.337311 0.00933564
93 1 0.844537 0.00551955 0.168193
48 1 0.832367 0.256249 0.0825691
28 1 0.00332345 0.257714 0.0787292
118 1 0.915927 0.252949 0.16253
51 1 0.0889169 0.32263 0.0845876
52 1 -0.000409163 0.424013 0.0856988
56 1 0.177995 0.412194 0.0953017
595 1 0.754996 0.499319 0.437754
55 1 0.244564 0.329961 0.0847372
507 1 0.0809967 0.499077 0.254255
165 1 0.83485 0.00179376 0.332525
60 1 0.322547 0.427029 0.0874942
435 1 0.09823 0.485452 0.0777044
64 1 0.493325 0.414236 0.0852236
137 1 0.668909 0.346733 0.159212
133 1 0.499613 0.341179 0.164322
266 1 0.0781893 0.419481 0.481361
85 1 0.511209 0.00799249 0.166329
153 1 0.326032 0.0114986 0.340337
68 1 0.674357 0.418095 0.0717192
138 1 0.75742 0.410545 0.159591
72 1 0.829608 0.413355 0.0750353
71 1 0.927706 0.335799 0.0836057
141 1 0.841443 0.33444 0.154266
525 1 0.836409 0.497256 0.154785
230 1 0.587606 0.0854981 0.478159
74 1 0.0872384 0.0818375 0.162033
146 1 0.0735884 0.0952479 0.345964
173 1 0.168828 0.163957 0.33765
80 1 0.167087 0.079944 0.243256
103 1 0.241352 0.164293 0.237894
37 1 0.491941 0.170047 0.0019723
150 1 0.245901 0.096907 0.322586
84 1 0.330529 0.0670204 0.252867
88 1 0.500277 0.0770752 0.263573
86 1 0.599626 0.0770454 0.154254
649 1 0.997435 0.491102 0.498761
158 1 0.58692 0.0870561 0.319024
92 1 0.679047 0.0763017 0.228246
90 1 0.757322 0.0841263 0.157998
117 1 0.830339 0.176801 0.163325
212 1 0.676851 0.43187 0.411884
162 1 0.759146 0.0684516 0.320374
115 1 0.75606 0.156894 0.241266
76 1 0.993715 0.0863571 0.24159
96 1 0.837641 0.0862105 0.256515
189 1 0.834527 0.172304 0.340634
166 1 0.923254 0.0879971 0.332673
216 1 0.825216 0.410585 0.41997
99 1 0.0841923 0.147936 0.258171
98 1 0.074484 0.252439 0.167785
197 1 0.175183 0.334761 0.343743
104 1 0.163133 0.257173 0.259743
127 1 0.246405 0.327484 0.242889
177 1 0.326274 0.156052 0.326135
109 1 0.50198 0.142489 0.164444
107 1 0.418515 0.157458 0.257214
105 1 0.316788 0.153369 0.166778
108 1 0.320831 0.249131 0.240593
131 1 0.40651 0.33063 0.237016
113 1 0.686452 0.167859 0.161794
112 1 0.508646 0.24451 0.244921
111 1 0.574763 0.156869 0.240642
116 1 0.667512 0.258572 0.240395
182 1 0.594357 0.259918 0.326295
209 1 0.663761 0.34621 0.327292
181 1 0.498306 0.180705 0.338242
114 1 0.752798 0.255792 0.163389
120 1 0.830797 0.247543 0.237123
186 1 0.739587 0.255028 0.31452
100 1 0.986187 0.243729 0.255826
119 1 0.912175 0.158764 0.24258
143 1 0.918871 0.326137 0.25039
193 1 0.00290728 0.329781 0.345349
122 1 0.0872341 0.412349 0.171084
125 1 0.172407 0.329208 0.168049
123 1 0.0751933 0.313611 0.257406
128 1 0.155314 0.402108 0.257727
194 1 0.0827568 0.417917 0.333263
126 1 0.253769 0.409674 0.178467
132 1 0.328492 0.415964 0.254968
198 1 0.249983 0.417768 0.338032
201 1 0.326457 0.332181 0.33389
2 1 0.0737716 0.0930637 0.0201418
130 1 0.409927 0.420321 0.175322
75 1 0.0820073 0.00163367 0.242858
129 1 0.324145 0.324426 0.161024
202 1 0.417516 0.417827 0.330903
38 1 0.576937 0.254351 0.00447861
134 1 0.586046 0.419675 0.156665
135 1 0.587377 0.34878 0.238137
136 1 0.496284 0.432013 0.237167
140 1 0.668299 0.425478 0.250463
213 1 0.832488 0.322788 0.308681
139 1 0.74901 0.332895 0.24321
144 1 0.833916 0.423097 0.243451
210 1 0.750249 0.418038 0.323773
121 1 0.00733794 0.343266 0.167965
214 1 0.910196 0.413721 0.334566
124 1 0.990372 0.413024 0.256184
142 1 0.926005 0.413334 0.171541
152 1 0.161149 0.0884187 0.425762
171 1 0.0726454 0.168038 0.426959
208 1 0.50791 0.404146 0.408245
175 1 0.246082 0.159799 0.417651
184 1 0.509959 0.255328 0.418271
161 1 0.669911 0.00697533 0.31492
206 1 0.593472 0.427147 0.322316
154 1 0.417584 0.081478 0.344584
156 1 0.338883 0.0743482 0.416512
233 1 0.661911 0.00323054 0.497058
160 1 0.515803 0.0798977 0.40593
179 1 0.41743 0.174067 0.412436
513 1 0.326979 0.497432 0.165686
191 1 0.914837 0.166721 0.423463
190 1 0.914187 0.256367 0.352573
509 1 0.162015 0.498209 0.165241
192 1 0.826396 0.25082 0.422777
183 1 0.596475 0.166976 0.397769
200 1 0.161704 0.418559 0.416154
215 1 0.921196 0.34051 0.422698
164 1 0.679649 0.0767044 0.406846
187 1 0.749078 0.146312 0.410488
203 1 0.420366 0.352412 0.404948
196 1 1.00014 0.415176 0.415812
169 1 0.997545 0.172393 0.336764
148 1 0.991837 0.0719516 0.421861
168 1 0.834371 0.0874548 0.423525
188 1 0.677925 0.245346 0.39421
172 1 0.996228 0.240516 0.426282
170 1 0.092991 0.253397 0.349675
195 1 0.0728628 0.327489 0.439277
176 1 0.162409 0.234869 0.432468
211 1 0.741847 0.337438 0.412834
511 1 0.236805 0.489094 0.251014
199 1 0.245884 0.335813 0.419171
174 1 0.253731 0.245656 0.3146
204 1 0.321726 0.421455 0.413225
178 1 0.427942 0.259161 0.313946
180 1 0.324654 0.252942 0.412262
205 1 0.495914 0.341893 0.304023
207 1 0.598968 0.33925 0.410648
185 1 0.667517 0.166301 0.31058
443 1 0.404821 0.500129 0.0897322
587 1 0.399773 0.49392 0.407938
149 1 0.157653 0.0211416 0.344056
254 1 0.604282 0.248964 0.4753
25 1 0.997181 0.164698 0.014019
234 1 0.755201 0.0788968 0.50016
277 1 0.505381 0.336271 0.496328
505 1 0.998697 0.497484 0.17277
22 1 0.902396 0.0675478 0.00610031
270 1 0.252905 0.403538 0.497184
41 1 0.667042 0.189483 0.00178842
69 1 0.830107 0.332039 0.00420683
249 1 0.334851 0.168057 0.489683
29 1 0.17659 0.174858 0.00198091
269 1 0.169378 0.333875 0.497832
14 1 0.576293 0.0955206 0.00458853
30 1 0.256398 0.245924 0.00138392
34 1 0.430086 0.251546 0.0122363
281 1 0.657369 0.348597 0.498367
290 1 0.0678369 0.0800925 0.682022
220 1 0.998419 0.0835144 0.581641
431 1 0.910741 0.333096 0.910863
45 1 0.831844 0.168781 0.98463
313 1 0.00271127 0.179895 0.673014
299 1 0.440126 0.00515967 0.752297
224 1 0.156088 0.0612941 0.595569
294 1 0.25004 0.0783912 0.650789
430 1 0.916439 0.412283 0.842295
295 1 0.255642 0.00044468 0.755281
297 1 0.334592 0.00942123 0.667563
228 1 0.343585 0.0917493 0.580187
232 1 0.511827 0.0790956 0.574454
235 1 0.731472 0.00928333 0.581931
729 1 0.316483 0.499201 0.664317
236 1 0.650018 0.0916914 0.568273
255 1 0.579349 0.161216 0.576593
306 1 0.728117 0.0791062 0.664718
240 1 0.83392 0.0840136 0.580225
259 1 0.745487 0.160173 0.573515
310 1 0.921894 0.0943841 0.673948
263 1 0.913377 0.172406 0.591908
245 1 0.167444 0.156683 0.52743
243 1 0.0742323 0.170587 0.590575
248 1 0.163457 0.259322 0.603891
267 1 0.0836533 0.355675 0.577958
247 1 0.249692 0.168356 0.580461
318 1 0.249754 0.240582 0.65779
317 1 0.15594 0.161941 0.672391
453 1 0.83019 0.499417 0.991855
321 1 0.322818 0.163382 0.665519
251 1 0.430257 0.17715 0.570442
252 1 0.346357 0.253451 0.5788
325 1 0.501264 0.175112 0.658223
256 1 0.516759 0.238742 0.553585
260 1 0.666996 0.234647 0.561925
279 1 0.585626 0.332558 0.587232
349 1 0.495624 0.332507 0.681219
303 1 0.574007 0.00195222 0.753293
333 1 0.839042 0.167644 0.666048
18 1 0.761612 0.0875074 0.988172
264 1 0.830978 0.245089 0.586722
283 1 0.744748 0.315998 0.585986
261 1 0.828329 0.171747 0.511287
244 1 0.000810916 0.257415 0.595386
357 1 0.845288 0.337752 0.673032
309 1 0.830036 0.0079278 0.669974
54 1 0.252857 0.404993 0.996709
815 1 0.916339 0.490278 0.917167
272 1 0.171389 0.415469 0.578641
271 1 0.240568 0.33418 0.580315
345 1 0.332893 0.327894 0.665643
276 1 0.319745 0.411351 0.58627
342 1 0.235348 0.426568 0.66954
222 1 0.253122 0.0811223 0.504776
365 1 0.161147 0.00247558 0.841882
275 1 0.416872 0.334151 0.576387
659 1 0.398573 0.488095 0.5803
42 1 0.758185 0.257866 0.997247
353 1 0.664651 0.302902 0.669269
280 1 0.489259 0.414638 0.579837
284 1 0.6531 0.414545 0.584284
427 1 0.755308 0.336727 0.904359
651 1 0.0806056 0.492753 0.58207
13 1 0.509289 0.0021074 0.992306
305 1 0.651397 -0.0010281 0.671855
354 1 0.742137 0.395831 0.657616
287 1 0.911383 0.323357 0.593008
288 1 0.829489 0.414004 0.583783
268 1 0.994801 0.412522 0.597933
238 1 0.915302 0.0839324 0.508913
292 1 1.00052 0.0912819 0.762488
362 1 0.0973733 0.0958927 0.840401
296 1 0.165868 0.0788764 0.749944
315 1 0.0849054 0.184605 0.751749
428 1 0.668482 0.412492 0.901719
289 1 0.989593 0.0039473 0.68424
366 1 0.248869 0.0743775 0.83774
298 1 0.42184 0.0778934 0.65989
300 1 0.31906 0.0859879 0.74689
323 1 0.410318 0.163764 0.737592
302 1 0.601386 0.0903602 0.668829
329 1 0.660672 0.170561 0.646379
304 1 0.505835 0.096361 0.727212
308 1 0.665016 0.0772053 0.751395
331 1 0.747803 0.164358 0.743046
10 1 0.415659 0.0907027 0.999448
312 1 0.836279 0.085231 0.745961
405 1 0.838237 0.169004 0.845187
217 1 0.00845362 0.00267183 0.515133
307 1 0.744696 0.00497265 0.746353
335 1 0.910979 0.172672 0.754512
382 1 0.91135 0.0865173 0.835947
337 1 0.00618589 0.333494 0.663747
314 1 0.0897247 0.258592 0.669214
320 1 0.177804 0.243681 0.746615
341 1 0.153862 0.346106 0.675108
319 1 0.247978 0.159646 0.74546
393 1 0.347653 0.158805 0.826193
343 1 0.253156 0.332909 0.754734
322 1 0.412549 0.250037 0.669339
324 1 0.321234 0.257157 0.745774
394 1 0.421057 0.252475 0.827109
328 1 0.49472 0.240423 0.748767
326 1 0.567618 0.251174 0.661869
327 1 0.588339 0.179508 0.738048
332 1 0.662886 0.248977 0.761543
330 1 0.757036 0.247044 0.671063
355 1 0.746437 0.332398 0.750498
334 1 0.91276 0.255435 0.672663
316 1 0.0101267 0.267057 0.75146
336 1 0.850136 0.259823 0.757449
359 1 0.9337 0.346762 0.748562
338 1 0.0755148 0.422949 0.682617
667 1 0.740008 0.496838 0.584472
339 1 0.0989844 0.336361 0.762475
340 1 4.88064e-06 0.425372 0.764556
735 1 0.580978 0.495035 0.744077
344 1 0.174855 0.421211 0.75884
348 1 0.326088 0.424872 0.75076
417 1 0.329098 0.347954 0.826302
347 1 0.407454 0.346374 0.757166
346 1 0.408813 0.417263 0.671231
418 1 0.420456 0.427672 0.849424
350 1 0.569186 0.406072 0.660784
351 1 0.580823 0.321506 0.756418
352 1 0.507499 0.418315 0.752915
723 1 0.0792204 0.498712 0.756067
26 1 0.083068 0.246754 0.993841
426 1 0.750452 0.415092 0.824472
356 1 0.65975 0.402003 0.73009
360 1 0.830484 0.411823 0.748256
358 1 0.918912 0.421604 0.671052
311 1 0.912016 0.00897465 0.765838
432 1 0.830789 0.415504 0.906725
385 1 0.00500773 0.163613 0.845285
387 1 0.0798314 0.168784 0.914622
218 1 0.083958 0.0933273 0.503414
420 1 0.339952 0.414011 0.917906
733 1 0.480362 0.497398 0.667964
368 1 0.168748 0.062787 0.925427
391 1 0.273235 0.16579 0.916574
372 1 0.337042 0.0817199 0.91211
246 1 0.258726 0.255779 0.508809
370 1 0.434748 0.07968 0.829352
416 1 0.146761 0.424598 0.919582
397 1 0.497985 0.160843 0.837884
376 1 0.504392 0.0801503 0.926047
374 1 0.589517 0.091413 0.830661
399 1 0.575385 0.168587 0.915951
380 1 0.674355 0.0769577 0.910697
401 1 0.672701 0.162357 0.82317
403 1 0.741037 0.17472 0.909868
378 1 0.759717 0.0882555 0.83368
384 1 0.8354 0.0786531 0.919793
424 1 0.509819 0.40758 0.921384
423 1 0.577312 0.320473 0.916485
364 1 0.99478 0.082045 0.915432
231 1 0.597492 0.00641741 0.575821
377 1 0.657496 0.00711461 0.831634
386 1 0.0954007 0.253226 0.848465
388 1 0.997505 0.244661 0.92446
392 1 0.18078 0.243915 0.914474
411 1 0.0785358 0.334631 0.920473
413 1 0.174854 0.332822 0.847546
390 1 0.26557 0.235293 0.836498
389 1 0.168133 0.168677 0.846252
415 1 0.253479 0.321318 0.918656
396 1 0.336821 0.25178 0.916903
807 1 0.600101 0.494567 0.920846
395 1 0.419556 0.164951 0.908018
400 1 0.502536 0.246643 0.918852
425 1 0.659131 0.32843 0.833142
398 1 0.582525 0.246602 0.837291
404 1 0.664648 0.246893 0.913468
422 1 0.58571 0.428463 0.840485
402 1 0.759643 0.256393 0.828056
408 1 0.841202 0.252638 0.912503
429 1 0.83881 0.341366 0.828339
414 1 0.251378 0.422133 0.836514
421 1 0.505343 0.334372 0.823242
239 1 0.918137 0.0129608 0.593596
419 1 0.430319 0.345277 0.91933
409 1 0.00273018 0.339774 0.843699
406 1 0.924576 0.252449 0.836314
407 1 0.924605 0.15427 0.932815
412 1 0.00383777 0.415931 0.92626
410 1 0.0711725 0.417281 0.848722
6 1 0.243948 0.0768102 0.996514
70 1 0.918642 0.406996 0.99647
657 1 0.330659 0.497749 0.507985
62 1 0.583293 0.416587 1.0004
262 1 0.919336 0.241319 0.502625
363 1 0.0806307 0.00526859 0.923826
66 1 0.756496 0.425883 0.985381
737 1 0.666859 0.498212 0.670504
731 1 0.415058 0.498947 0.754349
301 1 0.504914 0.00143421 0.664334
65 1 0.660535 0.339767 0.987558
282 1 0.743696 0.411355 0.505514
743 1 0.924422 0.497706 0.76335
242 1 0.0981741 0.250321 0.518861
799 1 0.264643 0.485188 0.917951
241 1 1.00213 0.171473 0.503417
381 1 0.820917 0.00169722 0.832127
383 1 0.903276 0.000227233 0.910947
797 1 0.138703 0.498782 0.838422
223 1 0.267082 0.0027532 0.578921
285 1 0.847618 0.338294 0.503931
57 1 0.342773 0.321403 0.991577
653 1 0.17174 0.495509 0.508612
258 1 0.755032 0.245327 0.508744
53 1 0.167568 0.337171 0.985253
46 1 0.91642 0.256996 0.997403
286 1 0.913604 0.416224 0.511394
33 1 0.34386 0.172885 0.989474
265 1 0.988231 0.325327 0.505828
58 1 0.404108 0.416425 0.997996
628 1 -0.00243002 0.923057 0.420416
440 1 0.166366 0.589623 0.0709861
459 1 0.0759344 0.676944 0.0857961
465 1 0.319022 0.674692 0.0109857
506 1 0.0863677 0.579122 0.147854
463 1 0.243658 0.666253 0.0916043
510 1 0.246837 0.570784 0.163116
585 1 0.324964 0.506612 0.316265
493 1 0.505937 0.825711 0.000965671
694 1 0.922913 0.745212 0.498525
444 1 0.323697 0.582986 0.0861154
514 1 0.403956 0.591684 0.157602
448 1 0.492584 0.580939 0.076216
11 1 0.42093 0.989877 0.0792891
471 1 0.591089 0.664004 0.074035
518 1 0.573677 0.59501 0.155816
434 1 0.0856156 0.587071 0.0110444
1 1 0.997042 0.993166 0.00148325
452 1 0.666377 0.591217 0.0820418
522 1 0.746652 0.580683 0.175138
456 1 0.833351 0.589307 0.0804228
591 1 0.583947 0.499865 0.412396
83 1 0.419512 0.995411 0.232166
647 1 0.919437 0.83371 0.427542
436 1 0.995961 0.58769 0.0840398
479 1 0.912894 0.666077 0.0914072
549 1 0.831412 0.669519 0.178926
526 1 0.909887 0.601507 0.178935
530 1 0.0861601 0.743865 0.17624
464 1 0.160173 0.744758 0.0961593
483 1 0.090639 0.828537 0.0775227
557 1 0.164329 0.835434 0.167434
553 1 0.0125615 0.834322 0.155365
481 1 -2.17022e-06 0.83587 0.0142967
537 1 0.323043 0.678047 0.169871
467 1 0.42955 0.677568 0.0789897
468 1 0.33687 0.756341 0.0974686
472 1 0.495126 0.744775 0.0987628
491 1 0.415805 0.832514 0.0880185
538 1 0.415067 0.74278 0.184905
583 1 0.251426 0.501315 0.420545
495 1 0.596807 0.827755 0.0852039
81 1 0.340723 0.991272 0.152293
581 1 0.162748 0.508895 0.334322
475 1 0.753591 0.671022 0.0898912
476 1 0.678575 0.754336 0.0861059
19 1 0.755128 0.992819 0.095426
460 1 0.989247 0.748424 0.0963713
480 1 0.823137 0.75449 0.101293
145 1 0.00833044 0.998818 0.335057
488 1 0.16331 0.906885 0.0796962
554 1 0.0815983 0.908839 0.166623
706 1 0.424017 0.914822 0.499138
487 1 0.254029 0.831414 0.0967197
558 1 0.255944 0.920492 0.170574
561 1 0.338082 0.84356 0.16371
515 1 0.418962 0.51177 0.238113
489 1 0.338342 0.821285 0.0113797
492 1 0.338793 0.915821 0.0811469
645 1 0.841863 0.835519 0.336112
496 1 0.525184 0.922162 0.0732041
23 1 0.909357 0.993487 0.0821784
523 1 0.759539 0.506959 0.250744
642 1 0.740235 0.912315 0.344115
500 1 0.676086 0.913011 0.0912161
499 1 0.754516 0.827748 0.0960368
570 1 0.753231 0.90069 0.174347
503 1 0.924359 0.838471 0.091082
573 1 0.831949 0.833119 0.187895
504 1 0.838092 0.910285 0.106211
484 1 0.991335 0.929902 0.0860038
512 1 0.17515 0.582606 0.246928
531 1 0.0863217 0.664642 0.26472
533 1 0.165374 0.662919 0.175195
458 1 0.0855686 0.751255 -0.000268821
527 1 0.909395 0.504323 0.252523
535 1 0.247284 0.670048 0.255388
582 1 0.24816 0.591149 0.338914
516 1 0.326032 0.577611 0.241625
609 1 0.332627 0.676055 0.336582
539 1 0.414115 0.656228 0.267726
586 1 0.425851 0.561935 0.33157
87 1 0.589406 0.997617 0.237484
461 1 0.155051 0.669211 0.00393419
541 1 0.495037 0.667609 0.173627
545 1 0.672977 0.667393 0.157629
520 1 0.499107 0.585776 0.256084
543 1 0.59186 0.669244 0.239783
613 1 0.508714 0.658175 0.332917
433 1 0.983734 0.508329 0.00630669
473 1 0.671096 0.670078 0.002895
524 1 0.65774 0.584717 0.243154
594 1 0.73996 0.579677 0.339701
7 1 0.250629 0.991808 0.0717333
528 1 0.839786 0.583204 0.261823
508 1 0.994582 0.579802 0.252788
529 1 0.0154564 0.65477 0.172499
648 1 0.829188 0.923743 0.408986
536 1 0.176346 0.761738 0.246402
605 1 0.174546 0.666852 0.333008
555 1 0.0863149 0.834614 0.244627
602 1 0.0885667 0.756589 0.31998
534 1 0.253978 0.761685 0.172255
606 1 0.250968 0.756489 0.337379
540 1 0.324013 0.75525 0.25193
565 1 0.49853 0.841207 0.165389
610 1 0.422763 0.752157 0.349118
563 1 0.411434 0.825459 0.253358
544 1 0.518203 0.738923 0.246481
542 1 0.585679 0.745305 0.161794
548 1 0.674503 0.754435 0.261209
567 1 0.591006 0.825035 0.255151
546 1 0.744605 0.744366 0.182152
547 1 0.747039 0.666885 0.259854
552 1 0.829615 0.748902 0.251321
618 1 0.759219 0.757922 0.341024
621 1 0.832405 0.682349 0.342687
550 1 0.919411 0.758085 0.170849
551 1 0.910391 0.680293 0.257471
532 1 0.00193803 0.741659 0.246857
575 1 0.924853 0.831788 0.254424
560 1 0.176924 0.90482 0.259138
556 1 0.000997971 0.911985 0.25026
629 1 0.166487 0.83768 0.336979
95 1 0.925731 0.996927 0.258221
559 1 0.267299 0.844567 0.24554
564 1 0.344197 0.924061 0.247404
630 1 0.267683 0.925341 0.328977
633 1 0.323615 0.837064 0.338444
562 1 0.432204 0.922164 0.16538
634 1 0.415231 0.9179 0.333335
568 1 0.501907 0.911035 0.25151
643 1 0.744977 0.837926 0.428033
637 1 0.49748 0.825688 0.328228
638 1 0.589539 0.898783 0.334174
566 1 0.580813 0.902272 0.163311
572 1 0.660858 0.912775 0.253199
641 1 0.675298 0.826524 0.335778
644 1 0.655012 0.905554 0.408074
451 1 0.756107 0.508083 0.0767911
569 1 0.676131 0.819712 0.174135
571 1 0.750759 0.830736 0.256698
574 1 0.91848 0.916902 0.174967
576 1 0.838136 0.916828 0.253006
646 1 0.920102 0.919629 0.332354
625 1 0.0149133 0.8374 0.337504
710 1 0.583369 0.906919 0.48953
578 1 0.0876075 0.577288 0.334059
640 1 0.509018 0.907228 0.405215
584 1 0.175114 0.590371 0.415273
580 1 0.0132259 0.580552 0.415868
167 1 0.91897 0.997172 0.427568
622 1 0.935288 0.752696 0.332144
159 1 0.599075 0.994345 0.387278
588 1 0.31814 0.578879 0.414974
611 1 0.402684 0.653866 0.425914
592 1 0.485622 0.579115 0.425196
91 1 0.756002 0.988953 0.245158
624 1 0.819921 0.757018 0.421213
89 1 0.653952 0.985521 0.157991
617 1 0.660249 0.657542 0.327555
590 1 0.578471 0.567612 0.330727
596 1 0.663693 0.572817 0.406572
599 1 0.911653 0.514029 0.408262
636 1 0.334304 0.918084 0.407055
600 1 0.828934 0.57711 0.426341
517 1 0.502857 0.512512 0.157199
147 1 0.0872094 0.976835 0.411278
598 1 0.910186 0.603058 0.33594
445 1 0.494877 0.500045 0.0106548
632 1 0.179159 0.925074 0.418517
601 1 0.000331441 0.6674 0.332723
603 1 0.0894406 0.667552 0.417048
604 1 0.0132323 0.75135 0.40903
627 1 0.0847386 0.864249 0.415345
631 1 0.255095 0.840152 0.450286
608 1 0.159198 0.761144 0.425581
607 1 0.250347 0.671635 0.414758
15 1 0.598516 0.995395 0.0584544
626 1 0.0820304 0.924089 0.319571
521 1 0.662954 0.502539 0.145493
635 1 0.414105 0.838868 0.422208
616 1 0.495202 0.73044 0.416099
612 1 0.325221 0.754114 0.423307
614 1 0.601595 0.748041 0.32919
620 1 0.654933 0.734482 0.416957
615 1 0.579019 0.656868 0.410018
639 1 0.570805 0.815968 0.420656
623 1 0.922674 0.674505 0.414148
619 1 0.738732 0.661952 0.406961
579 1 0.0968794 0.506233 0.419657
163 1 0.747927 0.991636 0.410441
79 1 0.242099 0.991509 0.249473
477 1 0.83584 0.673676 0.00724552
229 1 0.490279 0.999334 0.490549
501 1 0.845229 0.834149 0.0196255
597 1 0.826619 0.50285 0.343053
439 1 0.238475 0.510053 0.0871377
577 1 0.0105277 0.502796 0.337343
466 1 0.421287 0.751868 0.00335482
155 1 0.422132 0.999227 0.411958
462 1 0.246061 0.752407 0.0130678
3 1 0.0875803 0.980981 0.0735295
157 1 0.503653 0.987349 0.328895
682 1 0.412402 0.740568 0.479471
21 1 0.818849 0.999966 0.00895906
77 1 0.163752 0.993813 0.162896
519 1 0.581366 0.500601 0.239344
714 1 0.745726 0.923556 0.500886
486 1 0.257554 0.903289 0.0167531
673 1 0.998307 0.676699 0.48805
490 1 0.414855 0.915775 0.00168645
658 1 0.408437 0.56621 0.494884
225 1 0.341073 0.993197 0.490787
693 1 0.829452 0.664286 0.486862
701 1 0.158166 0.849405 0.492753
666 1 0.745705 0.590015 0.494869
442 1 0.407065 0.589955 1.8696e-05
685 1 0.488046 0.649008 0.500451
469 1 0.511861 0.65806 0.00349365
498 1 0.754863 0.908305 0.013825
690 1 0.736639 0.727383 0.486792
677 1 0.157562 0.668612 0.495884
454 1 0.906476 0.592169 0.00949705
674 1 0.08011 0.751215 0.493507
675 1 0.078834 0.680628 0.583039
9 1 0.347952 0.994625 0.993173
727 1 0.238802 0.511508 0.766284
656 1 0.146048 0.582782 0.588853
660 1 0.332049 0.580373 0.575999
679 1 0.227188 0.669853 0.585201
741 1 0.849142 0.506628 0.663119
753 1 0.324522 0.660758 0.66432
664 1 0.490312 0.575822 0.585495
683 1 0.41907 0.66065 0.58331
730 1 0.400758 0.568258 0.659641
718 1 0.915442 0.91955 0.501574
864 1 0.828317 0.906316 0.919507
668 1 0.653714 0.582861 0.589809
672 1 0.816846 0.57962 0.593051
738 1 0.743196 0.591689 0.671296
803 1 0.411586 0.50633 0.913567
652 1 0.989273 0.58784 0.583809
742 1 0.914434 0.591606 0.667482
665 1 0.666391 0.502622 0.504865
676 1 0.986912 0.742233 0.580097
699 1 0.0688961 0.828418 0.578342
745 1 0.986666 0.66676 0.659206
497 1 0.681894 0.830029 1.00047
749 1 0.162996 0.667966 0.67425
680 1 0.158064 0.760373 0.578133
684 1 0.351748 0.740952 0.570591
773 1 0.189941 0.841833 0.657683
379 1 0.76278 0.996665 0.910449
754 1 0.411093 0.743764 0.667326
688 1 0.488496 0.751049 0.589179
707 1 0.435397 0.85256 0.589467
361 1 0.00135525 0.99904 0.840126
687 1 0.567257 0.667047 0.575037
711 1 0.573824 0.822775 0.584752
692 1 0.682205 0.737008 0.587939
781 1 0.5087 0.827441 0.691309
785 1 0.652354 0.832077 0.665627
438 1 0.247097 0.603409 0.99805
691 1 0.761858 0.665852 0.571357
696 1 0.816092 0.766249 0.582457
762 1 0.746894 0.760558 0.674005
678 1 0.236891 0.747791 0.498162
765 1 0.828565 0.672157 0.658416
695 1 0.899807 0.652966 0.581811
662 1 0.585648 0.57351 0.501681
766 1 0.914441 0.747719 0.654208
704 1 0.165374 0.92219 0.588218
700 1 0.993326 0.921703 0.593105
698 1 0.0808161 0.92488 0.503941
703 1 0.254414 0.830049 0.574958
777 1 0.354351 0.835479 0.668753
774 1 0.260674 0.918954 0.665893
293 1 0.169146 0.998143 0.680339
860 1 0.681224 0.911928 0.917835
708 1 0.346483 0.911869 0.583077
778 1 0.423449 0.924527 0.66861
712 1 0.529231 0.927941 0.576845
713 1 0.665752 0.839189 0.507991
782 1 0.57311 0.914788 0.671899
716 1 0.660063 0.919414 0.590161
291 1 0.0866351 0.990244 0.761832
715 1 0.744829 0.840337 0.571676
720 1 0.845954 0.925728 0.591769
793 1 0.0153982 0.51835 0.84405
789 1 0.819556 0.848939 0.671442
219 1 0.0766 0.990405 0.609669
669 1 0.839411 0.504219 0.512928
719 1 0.916304 0.84076 0.595111
227 1 0.427337 0.986645 0.583718
722 1 0.070149 0.584202 0.657198
858 1 0.747786 0.926854 0.824619
728 1 0.162303 0.584792 0.755467
724 1 0.998904 0.585868 0.755345
726 1 0.245798 0.584997 0.65926
751 1 0.245779 0.664995 0.744188
705 1 0.353408 0.831638 0.508851
732 1 0.328518 0.578025 0.746569
829 1 0.503945 0.661509 0.833896
859 1 0.762201 0.823282 0.90955
734 1 0.579154 0.587067 0.672154
736 1 0.507853 0.577182 0.753025
740 1 0.663847 0.579675 0.750786
810 1 0.7528 0.589713 0.829472
805 1 0.495509 0.506183 0.825124
744 1 0.830625 0.586641 0.758967
767 1 0.911929 0.659693 0.745981
837 1 0.830625 0.675658 0.836395
663 1 0.58491 0.50035 0.606408
841 1 0.995549 0.845985 0.831389
747 1 0.0693443 0.673047 0.748962
746 1 0.0767264 0.759977 0.66998
769 1 0.994865 0.840264 0.678008
771 1 0.0758132 0.831071 0.764213
818 1 0.0868265 0.750527 0.837296
750 1 0.239589 0.748562 0.656317
752 1 0.159349 0.756909 0.748658
822 1 0.245307 0.745448 0.838332
757 1 0.487266 0.647261 0.66059
756 1 0.325458 0.75182 0.73374
755 1 0.415563 0.642351 0.742288
779 1 0.411771 0.831836 0.755354
758 1 0.579448 0.736633 0.64877
759 1 0.581238 0.662916 0.745152
760 1 0.497186 0.726157 0.73706
783 1 0.583329 0.826487 0.764785
764 1 0.666856 0.741001 0.740138
830 1 0.581125 0.744523 0.835333
761 1 0.666453 0.658907 0.664276
763 1 0.755903 0.671343 0.742316
857 1 0.676378 0.840566 0.839681
787 1 0.743844 0.852102 0.745312
748 1 -0.000111421 0.752273 0.749354
768 1 0.833437 0.73608 0.740342
861 1 0.836411 0.833953 0.830817
791 1 0.898532 0.825944 0.737533
770 1 0.0874925 0.904511 0.668121
776 1 0.179364 0.914752 0.752547
772 1 0.993154 0.929294 0.757719
842 1 0.0852763 0.931537 0.842145
482 1 0.0853991 0.903647 0.993073
775 1 0.258491 0.833827 0.743498
846 1 0.246559 0.924702 0.837261
845 1 0.179231 0.831799 0.826537
780 1 0.334106 0.907676 0.746371
850 1 0.423259 0.907456 0.826603
650 1 0.0763113 0.593526 0.508466
725 1 0.15087 0.504875 0.681282
795 1 0.0789414 0.510082 0.939733
784 1 0.498765 0.91429 0.757196
788 1 0.65003 0.917542 0.746177
367 1 0.258819 0.985764 0.927934
786 1 0.748263 0.937131 0.662959
671 1 0.925498 0.506059 0.585088
862 1 0.91335 0.919361 0.837832
790 1 0.915233 0.91257 0.683576
792 1 0.834101 0.937272 0.754126
739 1 0.749993 0.513308 0.751415
852 1 0.342217 0.902181 0.920644
794 1 0.083099 0.594841 0.832929
811 1 0.741493 0.501943 0.902904
796 1 0.991678 0.575589 0.926256
798 1 0.255976 0.593678 0.838141
854 1 0.584078 0.912431 0.82669
800 1 0.165615 0.591413 0.917969
804 1 0.335935 0.598869 0.909558
721 1 0.996462 0.501995 0.659036
844 1 0.00744381 0.916514 0.915316
802 1 0.418311 0.581535 0.838866
827 1 0.4243 0.676316 0.912392
369 1 0.338095 0.985887 0.825558
655 1 0.241145 0.508189 0.585522
806 1 0.585915 0.571899 0.830507
808 1 0.518453 0.566908 0.914806
812 1 0.665703 0.57762 0.913109
833 1 0.669921 0.663048 0.820924
843 1 0.0829925 0.82718 0.908944
437 1 0.180902 0.501872 0.985691
816 1 0.828815 0.587509 0.91095
835 1 0.750299 0.668128 0.924823
809 1 0.667218 0.500884 0.826976
839 1 0.922792 0.666226 0.919068
814 1 0.919133 0.584435 0.833962
801 1 0.338696 0.510923 0.831617
702 1 0.250141 0.925523 0.507088
817 1 -0.000193244 0.684755 0.829023
819 1 0.0805111 0.67991 0.92062
371 1 0.424847 0.997579 0.921738
820 1 0.996477 0.750042 0.93216
821 1 0.158059 0.67734 0.822222
824 1 0.160559 0.755902 0.921324
847 1 0.249701 0.847281 0.919674
823 1 0.247364 0.672473 0.923021
825 1 0.340459 0.672453 0.832216
826 1 0.424799 0.747865 0.828938
851 1 0.406887 0.82334 0.916038
828 1 0.326163 0.757215 0.908715
853 1 0.499885 0.827435 0.832051
831 1 0.584808 0.670498 0.9228
832 1 0.493499 0.751657 0.923157
855 1 0.598399 0.841366 0.903253
834 1 0.737315 0.747156 0.820167
836 1 0.678785 0.750436 0.910973
840 1 0.837052 0.749286 0.91107
848 1 0.158931 0.914405 0.912417
856 1 0.50272 0.916608 0.915968
863 1 0.917685 0.820533 0.917425
849 1 0.324013 0.844842 0.832586
838 1 0.909476 0.751851 0.824086
813 1 0.822046 0.500853 0.830421
450 1 0.759468 0.585664 0.995195
375 1 0.59126 0.987091 0.916238
697 1 0.992083 0.825657 0.508196
373 1 0.502723 0.990397 0.83339
502 1 0.912503 0.912156 0.990671
717 1 0.835175 0.852494 0.502622
681 1 0.322531 0.665157 0.500755
474 1 0.772345 0.763995 0.999787
478 1 0.908816 0.753111 1.00076
5 1 0.164048 0.98339 0.997231
686 1 0.594935 0.757061 0.509546
221 1 0.154415 0.99917 0.507824
661 1 0.496244 0.502633 0.510056
457 1 0.00663534 0.663331 0.996045
709 1 0.501071 0.8315 0.502708
470 1 0.600499 0.760261 0.998244
449 1 0.676129 0.50385 0.995694
654 1 0.245582 0.588698 0.517561
670 1 0.917494 0.580215 0.502225
17 1 0.684082 0.992035 0.992828
689 1 0.646162 0.659116 0.500695
494 1 0.597313 0.909994 0.989213
446 1 0.599438 0.588484 0.995029
237 1 0.832619 0.994434 0.502381
485 1 0.174599 0.831349 0.994528
441 1 0.330274 0.504825 0.99826
