ITEM: TIMESTEP
20300
ITEM: NUMBER OF ATOMS
864
ITEM: BOX BOUNDS pp pp pp
0.0000000000000000e+00 3.1559999999999999e+01
0.0000000000000000e+00 3.1559999999999999e+01
0.0000000000000000e+00 3.1559999999999999e+01
ITEM: ATOMS id type xs ys zs
8 1 0.182765 0.0893614 0.0841855
22 1 0.931923 0.0845599 -0.0075023
4 1 0.000984522 0.0818814 0.0799398
75 1 0.0672957 0.00404388 0.239316
12 1 0.341164 0.0731653 0.0854979
31 1 0.255814 0.172163 0.0871382
78 1 0.259326 0.0843679 0.162596
149 1 0.146551 0.00880778 0.311561
19 1 0.742977 0.0098101 0.0875221
16 1 0.511961 0.0892284 0.0942227
435 1 0.0904305 0.499181 0.0761943
193 1 1.00686 0.345703 0.329427
20 1 0.679465 0.0889998 0.0917478
43 1 0.747805 0.169943 0.0879751
589 1 0.510632 0.503534 0.341063
24 1 0.848227 0.0865549 0.0788519
47 1 0.925684 0.162222 0.0763107
245 1 0.159839 0.164495 0.486282
27 1 0.078942 0.175611 0.0714749
28 1 -0.00861344 0.239512 0.0840349
54 1 0.250602 0.434008 -0.00220168
101 1 0.170468 0.16643 0.160572
32 1 0.167402 0.25671 0.0676105
55 1 0.254982 0.327441 0.0844568
513 1 0.326642 0.486763 0.179385
36 1 0.332403 0.242404 0.0618138
35 1 0.414843 0.17059 0.0933059
59 1 0.414723 0.323155 0.0868747
40 1 0.482822 0.246992 0.062257
106 1 0.423469 0.249235 0.170902
133 1 0.497672 0.342278 0.168169
39 1 0.584579 0.155061 0.093484
110 1 0.571169 0.262825 0.177607
44 1 0.658187 0.242861 0.0913328
67 1 0.745365 0.325126 0.0804998
114 1 0.756337 0.253375 0.156801
453 1 0.834519 0.502077 -0.00615144
455 1 0.911014 0.510125 0.0745694
48 1 0.839632 0.249034 0.0764345
117 1 0.85084 0.170693 0.15624
118 1 0.912275 0.26393 0.165106
437 1 0.161698 0.509553 -0.00164263
266 1 0.0747863 0.415833 0.49883
51 1 0.0761387 0.339332 0.0835275
215 1 0.919029 0.331204 0.414036
61 1 0.49021 0.339465 -0.00159972
93 1 0.828748 0.0122611 0.175175
33 1 0.341466 0.149494 0.00122043
577 1 0.990415 0.491398 0.320579
56 1 0.180205 0.414536 0.0823755
60 1 0.320898 0.417623 0.0770532
505 1 0.993331 0.509643 0.164291
433 1 -0.0105048 0.499912 0.0103558
64 1 0.50319 0.411978 0.0759534
130 1 0.412395 0.42565 0.15509
89 1 0.676649 -0.00638809 0.184885
63 1 0.586702 0.345716 0.0936783
137 1 0.668199 0.344465 0.170748
68 1 0.674513 0.418461 0.0798072
257 1 0.661678 0.156307 0.520428
71 1 0.916686 0.338681 0.0815329
196 1 -0.0149342 0.418422 0.412216
153 1 0.342276 -0.0135673 0.324256
52 1 1.00088 0.430268 0.0842471
72 1 0.824246 0.416025 0.076417
165 1 0.83126 0.00488177 0.325603
74 1 0.0759469 0.0979788 0.154735
76 1 0.996739 0.0876436 0.239153
97 1 -0.00786765 0.167983 0.166539
211 1 0.755447 0.33383 0.417136
80 1 0.155317 0.0788246 0.228934
103 1 0.238607 0.160583 0.244991
84 1 0.327684 0.0698445 0.24011
150 1 0.257181 0.0773605 0.336195
82 1 0.40621 0.0875167 0.168836
107 1 0.404794 0.173141 0.257399
154 1 0.417829 0.0731468 0.34439
216 1 0.83739 0.416562 0.406716
86 1 0.59181 0.0835598 0.177577
88 1 0.510726 0.0960676 0.262584
90 1 0.743754 0.0792136 0.178128
208 1 0.498231 0.420154 0.416894
92 1 0.667685 0.0850465 0.252031
94 1 0.910659 0.0835799 0.171868
96 1 0.824985 0.093557 0.253566
119 1 0.913862 0.180488 0.239458
99 1 0.0797094 0.169921 0.242778
98 1 0.0835186 0.245926 0.154852
100 1 1.0063 0.264684 0.253173
123 1 0.0895299 0.335388 0.233617
170 1 0.0865589 0.256144 0.324958
102 1 0.233809 0.252472 0.165463
105 1 0.328365 0.171333 0.171747
104 1 0.1632 0.248596 0.245479
109 1 0.505237 0.16884 0.184759
108 1 0.315801 0.253118 0.244785
112 1 0.493782 0.256912 0.249376
111 1 0.579681 0.174543 0.251606
181 1 0.485578 0.167596 0.343199
135 1 0.571497 0.342199 0.265701
115 1 0.753381 0.176595 0.241922
113 1 0.671845 0.165405 0.1754
116 1 0.667747 0.254305 0.246885
139 1 0.748414 0.326277 0.248673
186 1 0.764928 0.247908 0.335253
120 1 0.839613 0.252084 0.235377
143 1 0.914459 0.338071 0.234362
189 1 0.828536 0.166325 0.348881
169 1 1.00254 0.173795 0.317766
122 1 0.0898176 0.43367 0.164634
125 1 0.159137 0.319003 0.149517
126 1 0.260868 0.413581 0.168454
151 1 0.241598 0.00182884 0.407911
129 1 0.331591 0.325559 0.170364
127 1 0.236994 0.332628 0.243451
128 1 0.163465 0.41216 0.256849
131 1 0.424167 0.334523 0.246224
132 1 0.331947 0.407874 0.264644
136 1 0.499144 0.420893 0.244981
212 1 0.673864 0.409403 0.413463
134 1 0.572349 0.41567 0.169341
206 1 0.583515 0.431345 0.329475
511 1 0.245914 0.50852 0.262569
141 1 0.82355 0.343905 0.170316
140 1 0.663559 0.407786 0.25076
210 1 0.758754 0.415238 0.326841
138 1 0.744586 0.420573 0.165014
144 1 0.833188 0.424059 0.236161
214 1 0.923153 0.410115 0.310758
121 1 -0.00746422 0.335634 0.167979
124 1 1.00763 0.435804 0.234635
142 1 0.923551 0.426512 0.167942
146 1 0.0800757 0.0833629 0.317093
152 1 0.171698 0.0858256 0.405643
148 1 -0.0161212 0.0861856 0.399909
171 1 0.0856166 0.173534 0.399949
217 1 -0.0163297 0.0125163 0.486731
173 1 0.163105 0.172773 0.328338
156 1 0.333796 0.0847397 0.441028
91 1 0.742199 0.00193003 0.257396
202 1 0.414747 0.427093 0.331004
177 1 0.338995 0.143993 0.341255
179 1 0.412146 0.162274 0.424428
204 1 0.327451 0.418119 0.404344
160 1 0.512589 0.0820069 0.431874
158 1 0.59824 0.100358 0.339054
183 1 0.572507 0.175583 0.428103
198 1 0.242954 0.408824 0.333486
657 1 0.311334 0.49329 0.495941
164 1 0.670311 0.102727 0.412898
162 1 0.753057 0.0899254 0.337603
187 1 0.750179 0.171794 0.409217
168 1 0.840263 0.0815208 0.415485
166 1 0.90776 0.0912274 0.321969
85 1 0.522013 0.00292291 0.184459
515 1 0.426403 0.501158 0.247596
519 1 0.5843 0.510081 0.245533
172 1 0.99272 0.236233 0.41672
176 1 0.160848 0.257054 0.415457
199 1 0.248476 0.329517 0.40812
175 1 0.255424 0.157691 0.420405
197 1 0.15842 0.328611 0.317904
174 1 0.26355 0.235384 0.334504
203 1 0.408998 0.346421 0.424187
201 1 0.330192 0.323766 0.325962
180 1 0.345627 0.256536 0.416895
178 1 0.426025 0.260253 0.348245
195 1 0.080787 0.34133 0.415603
205 1 0.489286 0.346836 0.340493
207 1 0.583575 0.328488 0.412922
184 1 0.501907 0.255112 0.418921
182 1 0.578744 0.245371 0.330519
209 1 0.682398 0.322859 0.339712
213 1 0.838754 0.335042 0.308028
188 1 0.655775 0.236486 0.410553
185 1 0.683465 0.174265 0.32482
200 1 0.155703 0.417395 0.416876
509 1 0.170296 0.494466 0.177985
192 1 0.838286 0.252002 0.424396
190 1 0.919901 0.261037 0.324596
191 1 0.912012 0.166126 0.418406
194 1 0.0796977 0.410975 0.330843
49 1 -0.0042224 0.332344 0.00482392
238 1 0.919677 0.0991866 0.496137
585 1 0.330617 0.517731 0.336505
3 1 0.0983307 -0.00683664 0.0757119
591 1 0.589889 0.496818 0.423447
234 1 0.750521 0.0880435 0.485693
599 1 0.913234 0.508614 0.426927
593 1 0.659828 0.508246 0.337928
38 1 0.576845 0.253673 -0.00123756
525 1 0.831773 0.51676 0.15515
65 1 0.666064 0.314519 0.00649252
167 1 0.90276 -0.00447165 0.402119
57 1 0.325825 0.338182 -0.00793755
81 1 0.324302 -0.00720223 0.15119
254 1 0.587003 0.249873 0.500979
58 1 0.417084 0.421869 -0.00382376
6 1 0.261479 0.0611693 -0.00140411
62 1 0.592274 0.393434 0.000386545
17 1 0.676016 0.0077709 0.000785562
29 1 0.16161 0.175122 0.002599
218 1 0.080141 0.0936225 0.485309
42 1 0.742677 0.244705 0.00103731
274 1 0.405684 0.431616 0.501487
270 1 0.233166 0.420169 0.486953
281 1 0.671456 0.333463 0.496251
14 1 0.591837 0.0861785 0.0027179
70 1 0.915412 0.422348 0.0114937
278 1 0.583994 0.416662 0.501955
37 1 0.514939 0.168281 -0.00659927
241 1 -0.00137747 0.170506 0.506797
50 1 0.0727585 0.409251 0.00368458
269 1 0.162281 0.331295 0.480932
220 1 1.0168 0.0781537 0.570711
317 1 0.177022 0.163508 0.673341
739 1 0.74404 0.501938 0.761216
223 1 0.256188 -0.0248453 0.592503
224 1 0.155009 0.0945115 0.573468
247 1 0.244095 0.162849 0.599774
228 1 0.326869 0.0750383 0.572313
321 1 0.3416 0.156314 0.654635
277 1 0.48428 0.358735 0.497079
325 1 0.495759 0.168357 0.673453
795 1 0.0927562 0.488478 0.919077
251 1 0.416653 0.156509 0.579124
232 1 0.495575 0.0788538 0.586282
255 1 0.562217 0.157753 0.571831
302 1 0.580444 0.0857147 0.667142
667 1 0.740961 0.50301 0.580287
430 1 0.927436 0.428746 0.836519
236 1 0.666717 0.0826984 0.601149
259 1 0.746091 0.166571 0.577579
329 1 0.668967 0.170626 0.666633
311 1 0.917027 0.00347546 0.758074
729 1 0.320596 0.491366 0.659975
240 1 0.838974 0.0882796 0.582083
263 1 0.921482 0.158702 0.58729
431 1 0.914266 0.33683 0.914562
243 1 0.0848804 0.170734 0.584031
248 1 0.172383 0.241818 0.585235
244 1 0.99662 0.242199 0.580457
258 1 0.744954 0.236519 0.495453
252 1 0.341184 0.254266 0.582398
318 1 0.272835 0.246432 0.657534
345 1 0.341648 0.333335 0.671347
807 1 0.572022 0.495663 0.920133
731 1 0.401011 0.500602 0.735525
322 1 0.425374 0.245585 0.658339
293 1 0.160477 0.00122033 0.672305
256 1 0.501023 0.263399 0.572481
326 1 0.582022 0.256759 0.654675
261 1 0.829187 0.164212 0.498881
260 1 0.67011 0.25775 0.584228
330 1 0.747937 0.249716 0.657529
283 1 0.750484 0.33098 0.575721
250 1 0.423036 0.266174 0.506742
264 1 0.840672 0.244002 0.579399
334 1 0.920071 0.241078 0.667363
801 1 0.340172 0.508593 0.830952
267 1 0.0874617 0.331885 0.607914
338 1 0.0861509 0.422108 0.657707
272 1 0.151342 0.407527 0.571655
271 1 0.2505 0.330759 0.579691
276 1 0.323418 0.411335 0.57254
342 1 0.245272 0.409314 0.657058
723 1 0.0883659 0.493068 0.739956
305 1 0.673073 0.00678567 0.679061
275 1 0.414366 0.336073 0.593462
346 1 0.418277 0.41052 0.666584
349 1 0.507243 0.329745 0.660901
303 1 0.578499 0.0111583 0.756175
280 1 0.485084 0.424848 0.582836
279 1 0.580872 0.332613 0.572519
284 1 0.66409 0.420161 0.582171
350 1 0.580974 0.409055 0.660901
663 1 0.576521 0.495203 0.575616
219 1 0.0914303 0.00333327 0.573532
373 1 0.498666 0.00754183 0.843226
353 1 0.656291 0.338567 0.670407
288 1 0.81286 0.421758 0.576535
357 1 0.844812 0.321338 0.674577
381 1 0.834345 -0.00147212 0.851251
337 1 -0.00591341 0.317326 0.661913
287 1 0.911365 0.328716 0.583836
268 1 0.999674 0.410653 0.581031
358 1 0.901391 0.420562 0.655307
741 1 0.81746 0.508313 0.668441
290 1 0.0890608 0.0855424 0.669762
296 1 0.180138 0.088623 0.756683
292 1 0.00893147 0.100949 0.750101
735 1 0.587256 0.494392 0.743944
273 1 0.312297 0.339131 0.492618
294 1 0.254271 0.0683706 0.659496
300 1 0.331953 0.0694199 0.751765
389 1 0.171937 0.166558 0.837519
298 1 0.418907 0.0750387 0.670705
323 1 0.411668 0.162528 0.742592
370 1 0.421699 0.0967287 0.846383
375 1 0.572672 0.00279062 0.917437
304 1 0.501149 0.0864954 0.761732
374 1 0.583103 0.0869823 0.828931
308 1 0.680322 0.0860955 0.758224
306 1 0.759771 0.0765034 0.665975
333 1 0.835749 0.17542 0.668324
312 1 0.834547 0.0937811 0.766369
310 1 0.92188 0.0822789 0.678287
382 1 0.91276 0.0849808 0.848033
432 1 0.819493 0.414297 0.922226
671 1 0.90327 0.498488 0.582055
315 1 0.0881484 0.171314 0.750152
385 1 1.01848 0.161281 0.840372
314 1 0.0782467 0.24475 0.673742
386 1 0.0910592 0.256293 0.834856
313 1 0.00517127 0.165954 0.666649
316 1 1.01489 0.24399 0.763589
319 1 0.26004 0.157258 0.752325
320 1 0.166936 0.248646 0.748267
324 1 0.344022 0.240078 0.744702
343 1 0.252338 0.3221 0.744201
328 1 0.504501 0.242956 0.742561
347 1 0.440307 0.340118 0.751445
394 1 0.414349 0.239577 0.818608
397 1 0.499642 0.176231 0.836904
421 1 0.508063 0.327485 0.832332
327 1 0.585452 0.174664 0.746564
425 1 0.667719 0.312669 0.832735
332 1 0.669385 0.25585 0.727734
331 1 0.745842 0.177153 0.760337
402 1 0.773321 0.244715 0.833609
335 1 0.935336 0.159274 0.764841
336 1 0.851599 0.250036 0.755024
406 1 0.927604 0.248915 0.84611
409 1 1.00418 0.339608 0.843328
339 1 0.085245 0.363708 0.742812
344 1 0.181492 0.410344 0.759446
428 1 0.673706 0.416194 0.934166
659 1 0.399194 0.50243 0.5806
341 1 0.167984 0.335879 0.678765
417 1 0.354625 0.328556 0.811346
348 1 0.329254 0.406557 0.748846
414 1 0.258755 0.417121 0.843118
282 1 0.748666 0.420876 0.496483
265 1 0.999599 0.332147 0.499653
418 1 0.423855 0.431936 0.820221
295 1 0.233646 -0.0028954 0.747959
422 1 0.582831 0.400987 0.808873
352 1 0.505476 0.422311 0.748235
351 1 0.579634 0.320881 0.747931
426 1 0.735775 0.412343 0.848848
805 1 0.509165 0.495971 0.832065
356 1 0.659705 0.422369 0.741019
355 1 0.747121 0.339219 0.766818
354 1 0.759699 0.424504 0.676798
360 1 0.841 0.41294 0.760459
340 1 -0.00364379 0.428439 0.757158
359 1 0.928875 0.33292 0.761
307 1 0.764425 -0.00478635 0.761404
362 1 0.0964303 0.0908423 0.824993
364 1 0.0055983 0.0870907 0.915649
368 1 0.168964 0.0938441 0.91603
249 1 0.332771 0.17089 0.494914
366 1 0.254391 0.0805219 0.840212
411 1 0.0919477 0.349174 0.915744
393 1 0.335186 0.160322 0.842928
424 1 0.501993 0.40378 0.903672
309 1 0.832699 -0.0062417 0.666222
372 1 0.330583 0.0727122 0.918134
376 1 0.505005 0.102585 0.910407
408 1 0.844287 0.246642 0.934659
429 1 0.83395 0.336807 0.845279
285 1 0.833056 0.335227 0.503287
380 1 0.661882 0.072965 0.915666
378 1 0.754013 0.0734715 0.849055
53 1 0.185576 0.336913 0.986909
410 1 0.0820438 0.422824 0.834203
412 1 -0.00420216 0.427262 0.92712
416 1 0.172624 0.41411 0.913644
384 1 0.838282 0.0960993 0.915759
420 1 0.34452 0.435423 0.918479
387 1 0.0781271 0.172493 0.928814
388 1 1.02278 0.265252 0.93301
390 1 0.264432 0.244333 0.82311
392 1 0.176061 0.251217 0.915353
391 1 0.260404 0.170835 0.91395
396 1 0.340226 0.249077 0.907701
401 1 0.685705 0.152815 0.851838
400 1 0.495293 0.258334 0.915106
395 1 0.420979 0.174033 0.921978
419 1 0.419796 0.339956 0.909173
407 1 0.925809 0.178172 0.915236
413 1 0.174898 0.327796 0.827991
415 1 0.271896 0.335779 0.90057
398 1 0.583662 0.243628 0.833682
423 1 0.589978 0.33754 0.909863
399 1 0.592391 0.163583 0.907197
403 1 0.763937 0.177084 0.920809
427 1 0.756474 0.318 0.924706
405 1 0.851999 0.168356 0.837522
404 1 0.663022 0.24943 0.915912
721 1 0.991059 0.490331 0.665052
793 1 0.00543855 0.504984 0.84469
797 1 0.179327 0.489394 0.832478
18 1 0.746499 0.0867211 0.987502
365 1 0.161048 0.0116019 0.835367
239 1 0.907038 0.003945 0.581866
289 1 1.00643 0.00696972 0.67518
235 1 0.753229 0.0293071 0.571184
34 1 0.411181 0.258092 0.987573
253 1 0.494299 0.180481 0.493024
246 1 0.251285 0.239503 0.507627
811 1 0.745562 0.501619 0.923777
291 1 0.0816948 0.0167804 0.755452
69 1 0.84092 0.331593 1.00496
21 1 0.826504 0.00622413 1.00858
25 1 -0.0047688 0.174713 0.996284
222 1 0.245006 0.0896432 0.501383
226 1 0.422929 0.0740158 0.496649
45 1 0.84063 0.156967 1.00397
10 1 0.422249 0.0816028 1.0045
13 1 0.506388 0.00622054 1.00206
649 1 1.00316 0.497979 0.504913
46 1 0.920443 0.253865 1.00644
66 1 0.756947 0.412209 0.998526
30 1 0.26016 0.256598 0.983484
41 1 0.666649 0.170391 1.01656
26 1 0.0842836 0.263751 1.01254
237 1 0.832324 0.00375974 0.489725
230 1 0.591956 0.0770587 0.510326
2 1 0.111213 0.0845584 1.00671
286 1 0.918926 0.423303 0.495896
242 1 0.0670582 0.245523 0.492343
262 1 0.910407 0.244903 0.508096
159 1 0.596573 1.00848 0.431992
439 1 0.246584 0.503063 0.0888315
440 1 0.162951 0.587466 0.0835315
648 1 0.831863 0.916831 0.40092
444 1 0.33838 0.572858 0.0831633
514 1 0.412797 0.581794 0.176455
448 1 0.493871 0.592766 0.0941011
452 1 0.670173 0.578242 0.0820615
646 1 0.919282 0.917862 0.328896
221 1 0.17166 1.00681 0.495788
647 1 0.914543 0.838216 0.409883
456 1 0.829422 0.592154 0.0745126
475 1 0.745516 0.657788 0.0756071
522 1 0.740242 0.584066 0.162614
447 1 0.585661 0.496686 0.0788528
436 1 -0.00220995 0.577675 0.0790547
526 1 0.923907 0.594687 0.158306
155 1 0.436934 0.994342 0.419615
459 1 0.0718492 0.655325 0.0782919
464 1 0.15216 0.725888 0.0752861
95 1 0.911329 1.00232 0.244226
529 1 -0.00733241 0.676343 0.16774
530 1 0.0780708 0.745146 0.172737
463 1 0.248063 0.652606 0.0964122
534 1 0.233616 0.754706 0.165066
468 1 0.324849 0.73138 0.0946109
557 1 0.156111 0.836751 0.164224
467 1 0.408756 0.656508 0.0864254
538 1 0.405505 0.739444 0.169453
491 1 0.408304 0.804738 0.0719213
561 1 0.332363 0.826077 0.160336
471 1 0.580511 0.654898 0.0701642
541 1 0.496572 0.678698 0.165999
472 1 0.506082 0.729788 0.0749648
476 1 0.673434 0.743957 0.0723646
542 1 0.60226 0.742626 0.158415
545 1 0.665145 0.652869 0.159052
549 1 0.841308 0.659304 0.16194
546 1 0.756204 0.734635 0.175256
480 1 0.825744 0.755777 0.0989568
11 1 0.440379 1.01156 0.0982009
460 1 1.0153 0.745087 0.0793622
479 1 0.925676 0.676146 0.0790241
503 1 0.907796 0.827498 0.0899153
550 1 0.911686 0.745898 0.176213
233 1 0.672348 0.995368 0.508314
470 1 0.591654 0.73451 -0.00788517
483 1 0.081319 0.831508 0.0869746
554 1 0.086677 0.923912 0.159771
553 1 -0.00540178 0.831369 0.152077
487 1 0.245709 0.819474 0.0791282
488 1 0.161064 0.903543 0.0796963
492 1 0.309279 0.901178 0.0836736
497 1 0.665841 0.838351 0.00620188
145 1 1.00289 1.00517 0.331749
443 1 0.42574 0.499442 0.0792434
496 1 0.519202 0.923382 0.0886406
565 1 0.501823 0.830761 0.153753
507 1 0.0933287 0.510335 0.25461
495 1 0.586416 0.811113 0.0798334
500 1 0.666784 0.917688 0.0869723
569 1 0.668925 0.827691 0.159716
644 1 0.668509 0.910942 0.413308
566 1 0.589973 0.904491 0.169411
15 1 0.587716 1.01032 0.0917401
499 1 0.749157 0.834374 0.0810018
570 1 0.737193 0.914724 0.160867
521 1 0.655346 0.501043 0.16458
517 1 0.498255 0.505859 0.16593
579 1 0.0659751 0.487028 0.411793
484 1 0.000182061 0.906432 0.0749321
504 1 0.824682 0.932427 0.0970385
574 1 0.923667 0.920193 0.148412
642 1 0.751263 0.916565 0.325276
506 1 0.0897569 0.578085 0.170186
578 1 0.0733171 0.582329 0.34083
587 1 0.399157 0.501105 0.410027
510 1 0.248022 0.577217 0.177658
666 1 0.749405 0.582111 0.507625
512 1 0.158175 0.58988 0.255759
533 1 0.167992 0.667881 0.180992
451 1 0.749653 0.494341 0.077943
527 1 0.917266 0.503662 0.237331
516 1 0.33401 0.578595 0.250881
586 1 0.420096 0.589565 0.326363
713 1 0.673961 0.826117 0.490489
539 1 0.399811 0.685629 0.255375
7 1 0.263492 0.988794 0.0747832
689 1 0.662852 0.659165 0.500591
518 1 0.571193 0.596498 0.16873
520 1 0.506706 0.582385 0.253409
590 1 0.58323 0.58825 0.339743
23 1 0.9208 1.01656 0.0879605
524 1 0.66995 0.597479 0.256111
528 1 0.839101 0.576651 0.247652
594 1 0.756924 0.574158 0.324205
1 1 0.00838606 1.00721 -0.0029505
79 1 0.2422 1.01057 0.247366
581 1 0.160005 0.504656 0.338103
637 1 0.499567 0.828497 0.329309
508 1 0.99851 0.583618 0.247986
598 1 0.916951 0.579409 0.330138
531 1 0.0800538 0.668271 0.249311
605 1 0.156132 0.651454 0.348947
555 1 0.0715006 0.845735 0.239044
536 1 0.158917 0.747686 0.257435
625 1 0.00350128 0.844531 0.331286
535 1 0.249126 0.647402 0.250773
559 1 0.242831 0.832574 0.263051
540 1 0.301282 0.743189 0.263023
537 1 0.326516 0.666388 0.177079
544 1 0.494715 0.750345 0.244236
543 1 0.58167 0.667265 0.256697
614 1 0.570499 0.746239 0.331345
567 1 0.576081 0.82424 0.251353
613 1 0.489879 0.668112 0.33096
547 1 0.753527 0.667822 0.259393
548 1 0.667634 0.746516 0.255162
552 1 0.834575 0.738817 0.25727
571 1 0.752683 0.838248 0.241124
617 1 0.673797 0.674488 0.331315
641 1 0.66782 0.83017 0.330957
601 1 -0.0108537 0.662168 0.338817
551 1 0.91461 0.659193 0.255562
532 1 0.00771713 0.756318 0.257788
621 1 0.832608 0.664077 0.339429
83 1 0.420576 0.967019 0.223962
626 1 0.0748759 0.917534 0.334255
639 1 0.574651 0.82655 0.410696
558 1 0.244331 0.902411 0.170554
640 1 0.501741 0.895102 0.414283
560 1 0.155378 0.930772 0.241988
562 1 0.418699 0.908233 0.129858
709 1 0.514961 0.820201 0.499761
563 1 0.420234 0.834724 0.234627
564 1 0.311965 0.913058 0.240401
87 1 0.597367 1.00625 0.248032
568 1 0.499642 0.912068 0.246952
638 1 0.579215 0.928156 0.344945
710 1 0.576526 0.916924 0.486773
572 1 0.657916 0.912677 0.264013
576 1 0.844107 0.915228 0.252937
573 1 0.841195 0.835182 0.160464
147 1 0.082314 1.01152 0.410199
556 1 -0.0055036 0.930601 0.249501
575 1 0.929443 0.839302 0.255044
163 1 0.751266 0.999152 0.408771
624 1 0.842798 0.747626 0.41246
643 1 0.76641 0.828482 0.412562
634 1 0.421538 0.90549 0.328443
584 1 0.148447 0.576187 0.425971
580 1 0.993376 0.583271 0.428116
603 1 0.079706 0.671666 0.412755
635 1 0.402809 0.844225 0.418093
630 1 0.23962 0.91537 0.33047
582 1 0.242641 0.585426 0.344713
607 1 0.232185 0.666068 0.435845
698 1 0.078754 0.914002 0.514293
615 1 0.598694 0.669996 0.409868
627 1 0.08161 0.848043 0.420368
588 1 0.308971 0.58506 0.422235
592 1 0.48723 0.58463 0.412665
611 1 0.415158 0.671166 0.416645
628 1 0.00589684 0.916237 0.431909
636 1 0.33022 0.929821 0.421143
596 1 0.683897 0.587388 0.41582
618 1 0.755579 0.751806 0.331756
622 1 0.914172 0.745778 0.334309
619 1 0.759787 0.662372 0.416759
620 1 0.659819 0.754909 0.406525
600 1 0.828433 0.568744 0.419999
623 1 0.910404 0.652342 0.411432
157 1 0.488159 0.990397 0.330311
632 1 0.160987 0.914033 0.420905
604 1 0.97985 0.752351 0.422727
602 1 0.0737708 0.742167 0.337612
608 1 0.161543 0.762095 0.4323
697 1 1.00059 0.833269 0.516791
629 1 0.159559 0.836239 0.332895
609 1 0.329239 0.66551 0.350209
631 1 0.247599 0.844752 0.43351
606 1 0.235247 0.738446 0.348558
633 1 0.322334 0.845078 0.346739
645 1 0.836626 0.831276 0.326081
612 1 0.32806 0.758891 0.422962
610 1 0.398333 0.770106 0.328472
616 1 0.485787 0.756992 0.41282
597 1 0.856424 0.498446 0.318668
686 1 0.592649 0.750466 0.504269
482 1 0.0961761 0.912752 -0.0174943
73 1 1.01842 1.00332 0.152205
523 1 0.732777 0.492378 0.251917
161 1 0.670085 1.01267 0.341106
583 1 0.248542 0.493447 0.407419
77 1 0.188978 1.00073 0.151887
595 1 0.751892 0.500106 0.40148
718 1 0.910507 0.926235 0.494801
501 1 0.827653 0.829543 0.0128499
458 1 0.0795929 0.74444 -0.00737122
702 1 0.235456 0.915409 0.507283
662 1 0.58764 0.577412 0.491868
705 1 0.347566 0.822723 0.511
674 1 0.077078 0.749948 0.498245
681 1 0.33329 0.666835 0.514452
701 1 0.161108 0.840496 0.510997
665 1 0.674617 0.506342 0.492656
490 1 0.421157 0.909314 0.010378
714 1 0.753135 0.921132 0.48803
486 1 0.237887 0.893465 -0.00468936
445 1 0.496796 0.502149 0.00226629
485 1 0.155662 0.815667 0.0026442
678 1 0.251285 0.762776 0.504879
650 1 0.0665658 0.578882 0.499688
670 1 0.907287 0.578702 0.507201
494 1 0.585303 0.927491 0.00511396
654 1 0.250394 0.583529 0.500111
675 1 0.0740982 0.662299 0.582203
656 1 0.160706 0.582973 0.567096
862 1 0.918839 0.918557 0.840341
864 1 0.839198 0.92186 0.92718
799 1 0.258189 0.497328 0.911648
660 1 0.324097 0.574836 0.575634
679 1 0.242444 0.674067 0.572218
726 1 0.240882 0.593281 0.656288
753 1 0.334734 0.649987 0.663073
725 1 0.160184 0.493587 0.650749
683 1 0.419025 0.658728 0.586637
664 1 0.496897 0.578198 0.584535
730 1 0.418826 0.577746 0.664572
301 1 0.496983 0.992841 0.663961
844 1 -0.00113315 0.921974 0.922425
706 1 0.425375 0.893586 0.50619
668 1 0.653174 0.585796 0.580071
691 1 0.7504 0.66588 0.5862
815 1 0.919405 0.49647 0.92026
738 1 0.731451 0.586801 0.664392
861 1 0.8274 0.832731 0.853131
672 1 0.827029 0.575495 0.596225
652 1 0.987017 0.58317 0.571335
745 1 0.984011 0.656069 0.674816
765 1 0.845352 0.661794 0.680732
694 1 0.915759 0.764541 0.501162
746 1 0.064424 0.739697 0.668486
677 1 0.148309 0.652622 0.493441
676 1 0.992501 0.750552 0.582835
699 1 0.0802054 0.835414 0.582753
769 1 0.986286 0.835696 0.666193
680 1 0.146096 0.748484 0.570108
684 1 0.338255 0.742848 0.584756
703 1 0.256304 0.836974 0.585299
813 1 0.831794 0.486609 0.838313
477 1 0.829291 0.685415 1.00954
688 1 0.513765 0.760247 0.591002
754 1 0.434362 0.763952 0.669102
707 1 0.427296 0.831717 0.590948
781 1 0.514784 0.847077 0.684041
449 1 0.659117 0.488879 1.0026
687 1 0.579305 0.667742 0.582753
711 1 0.599772 0.851756 0.576351
758 1 0.600977 0.768406 0.666569
692 1 0.681449 0.752388 0.577381
489 1 0.319044 0.807766 0.999377
743 1 0.917079 0.495934 0.743185
379 1 0.743038 0.995577 0.921638
696 1 0.834988 0.732885 0.573109
695 1 0.921188 0.659668 0.591713
719 1 0.89972 0.836101 0.59119
704 1 0.166876 0.917668 0.593006
231 1 0.601861 0.982493 0.588298
860 1 0.658896 0.927962 0.923692
682 1 0.428048 0.747791 0.524323
367 1 0.273548 0.989911 0.909368
9 1 0.359656 0.997289 1.02038
502 1 0.930254 0.929215 1.00051
708 1 0.34711 0.914465 0.586678
712 1 0.506801 0.91152 0.591241
299 1 0.42382 1.00242 0.759967
778 1 0.422771 0.898617 0.669523
782 1 0.585983 0.930022 0.687783
716 1 0.688157 0.913472 0.577564
859 1 0.745813 0.848676 0.934486
363 1 0.0860225 1.01185 0.919936
651 1 0.081397 0.513989 0.589695
469 1 0.507771 0.664709 0.985054
454 1 0.918378 0.590882 1.0051
715 1 0.782313 0.821999 0.567371
785 1 0.675276 0.838671 0.665521
720 1 0.812626 0.919384 0.58505
700 1 0.98829 0.923163 0.584195
465 1 0.322853 0.663246 1.01254
722 1 0.0730021 0.581424 0.687562
749 1 0.159834 0.673105 0.674278
377 1 0.659952 0.999245 0.830252
728 1 0.174632 0.576402 0.739641
732 1 0.322971 0.584832 0.744682
751 1 0.261062 0.673426 0.742203
802 1 0.433537 0.571941 0.824292
736 1 0.505599 0.599269 0.748104
755 1 0.417302 0.661137 0.738322
825 1 0.340575 0.663245 0.828753
829 1 0.508033 0.670785 0.83316
858 1 0.760417 0.920154 0.852326
803 1 0.430439 0.500662 0.917064
734 1 0.580932 0.586105 0.659224
806 1 0.579161 0.587111 0.814623
757 1 0.509001 0.686887 0.673471
740 1 0.670225 0.575312 0.751791
744 1 0.840208 0.572412 0.763886
763 1 0.737304 0.658712 0.74462
810 1 0.762315 0.569398 0.830958
733 1 0.511823 0.50848 0.669337
742 1 0.912032 0.568022 0.669959
724 1 1.001 0.581708 0.768952
767 1 0.9155 0.667636 0.763191
809 1 0.648688 0.489499 0.847416
747 1 0.0662724 0.682589 0.750513
845 1 0.176046 0.835927 0.825397
752 1 0.143792 0.755412 0.756445
771 1 0.0677678 0.823389 0.745305
750 1 0.247212 0.755271 0.67592
777 1 0.334816 0.830591 0.669309
822 1 0.242275 0.750639 0.830778
756 1 0.342415 0.749068 0.744476
826 1 0.417945 0.744175 0.833956
853 1 0.505451 0.840616 0.858015
761 1 0.658729 0.672581 0.660346
759 1 0.583645 0.681576 0.745695
760 1 0.504301 0.755376 0.762171
783 1 0.584232 0.84827 0.774238
764 1 0.674744 0.762716 0.753666
762 1 0.758006 0.743113 0.661798
833 1 0.669492 0.663788 0.834395
834 1 0.741988 0.752026 0.836032
766 1 0.902771 0.749283 0.673199
768 1 0.826304 0.759247 0.751508
748 1 0.989408 0.756776 0.744532
791 1 0.912589 0.835727 0.755176
770 1 0.0706005 0.906937 0.656384
857 1 0.675367 0.841622 0.849887
772 1 1.01018 0.921087 0.757917
773 1 0.155368 0.808911 0.667655
776 1 0.158197 0.907074 0.738474
855 1 0.599522 0.821154 0.921882
493 1 0.503127 0.836996 1.00865
849 1 0.320512 0.838723 0.83312
775 1 0.249427 0.832044 0.748369
774 1 0.239962 0.895982 0.666437
780 1 0.321876 0.916808 0.749561
779 1 0.416177 0.826197 0.760659
850 1 0.418034 0.894883 0.840321
784 1 0.490925 0.917086 0.765739
727 1 0.245122 0.494614 0.731739
854 1 0.578267 0.924368 0.842459
863 1 0.910287 0.836851 0.931153
786 1 0.752969 0.930631 0.667893
788 1 0.682698 0.917023 0.749139
787 1 0.752168 0.837699 0.742254
856 1 0.485114 0.915252 0.924445
789 1 0.826387 0.829958 0.669682
790 1 0.927834 0.9307 0.674554
792 1 0.834347 0.919457 0.748366
794 1 0.099988 0.56225 0.833133
819 1 0.0860816 0.676433 0.907634
821 1 0.141926 0.664858 0.821538
800 1 0.175516 0.580683 0.921691
796 1 -0.00546401 0.583098 0.914201
836 1 0.683979 0.739239 0.917109
840 1 0.83141 0.747129 0.91665
798 1 0.248995 0.585626 0.825032
823 1 0.234357 0.666696 0.900923
804 1 0.331296 0.611603 0.925597
369 1 0.350932 0.978214 0.833054
661 1 0.48043 0.515781 0.491829
841 1 -0.013118 0.834149 0.834971
808 1 0.503245 0.582476 0.912828
812 1 0.669329 0.577711 0.918758
838 1 0.913135 0.754684 0.835041
835 1 0.755034 0.656355 0.925238
830 1 0.596632 0.73323 0.846075
846 1 0.244215 0.916116 0.827872
814 1 0.920729 0.569591 0.84633
839 1 0.91871 0.667482 0.920855
837 1 0.822629 0.672708 0.833323
816 1 0.841851 0.579279 0.911251
852 1 0.347357 0.901077 0.92636
818 1 0.0705262 0.761525 0.839723
843 1 0.0693086 0.839263 0.909845
824 1 0.162807 0.760676 0.900707
828 1 0.332601 0.745754 0.920066
847 1 0.254607 0.826027 0.915026
817 1 1.00063 0.677878 0.834116
848 1 0.177855 0.91959 0.904995
842 1 0.0965295 0.91345 0.827993
827 1 0.422148 0.653804 0.910705
851 1 0.419547 0.822055 0.93547
820 1 1.0057 0.757719 0.922247
832 1 0.507067 0.755221 0.928
831 1 0.59247 0.645692 0.908781
693 1 0.840646 0.666735 0.487882
669 1 0.829884 0.497631 0.498149
478 1 0.904678 0.752669 1.00165
685 1 0.511874 0.664653 0.489783
466 1 0.420116 0.724003 0.999702
383 1 0.912206 1.00147 0.923196
737 1 0.66149 0.496285 0.660507
457 1 1.00353 0.657468 0.994959
446 1 0.572588 0.576326 1.00182
462 1 0.233835 0.743965 1.0015
227 1 0.427194 0.992435 0.589244
653 1 0.145273 0.498362 0.487221
361 1 0.00939248 1.00412 0.836769
658 1 0.400606 0.588543 0.492537
225 1 0.33392 0.98947 0.505863
297 1 0.356279 0.98687 0.670106
371 1 0.42364 1.01269 0.920675
655 1 0.23381 0.481889 0.565193
450 1 0.747144 0.577478 1.00258
717 1 0.844994 0.846021 0.487073
441 1 0.342432 0.511667 0.996109
5 1 0.179968 0.989261 1.00602
473 1 0.670235 0.648102 1.00435
434 1 0.078585 0.581147 0.987486
474 1 0.750777 0.748861 0.995125
438 1 0.253662 0.589912 0.998192
229 1 0.504187 0.996103 0.511256
690 1 0.756136 0.748903 0.483534
481 1 -0.00113533 0.826987 1.00372
442 1 0.432102 0.579801 1.00681
498 1 0.747632 0.915801 1.01214
673 1 0.987301 0.67874 0.49352
461 1 0.157829 0.666145 0.983886
