ITEM: TIMESTEP
9500
ITEM: NUMBER OF ATOMS
864
ITEM: BOX BOUNDS pp pp pp
0.0000000000000000e+00 3.1559999999999999e+01
0.0000000000000000e+00 3.1559999999999999e+01
0.0000000000000000e+00 3.1559999999999999e+01
ITEM: ATOMS id type xs ys zs
74 1 0.0761248 0.0740405 0.154145
155 1 0.418937 0.00762429 0.415439
4 1 0.996087 0.0828618 0.0761669
213 1 0.827659 0.319074 0.330407
8 1 0.176464 0.0847143 0.0825145
12 1 0.331729 0.0919379 0.0781736
31 1 0.253054 0.17233 0.073936
101 1 0.171834 0.164709 0.150252
16 1 0.499678 0.0776822 0.0692411
35 1 0.421535 0.178911 0.0766933
82 1 0.427805 0.0874029 0.172359
105 1 0.339158 0.177529 0.159729
439 1 0.254477 0.498637 0.0904215
20 1 0.694415 0.0818175 0.087251
39 1 0.579742 0.183445 0.0806894
113 1 0.666538 0.177745 0.155045
86 1 0.600626 0.0894391 0.13126
7 1 0.248197 0.00441834 0.0861659
151 1 0.256829 0.00850306 0.415604
214 1 0.914062 0.409788 0.324373
43 1 0.765358 0.169902 0.0797464
149 1 0.17102 0.00896071 0.330043
161 1 0.665764 0.0109015 0.315714
24 1 0.824769 0.0743374 0.081149
11 1 0.41546 0.009261 0.0651045
27 1 0.091776 0.172975 0.0821609
51 1 0.0873728 0.345369 0.0728029
278 1 0.585227 0.416191 0.503123
443 1 0.406037 0.494203 0.0939623
14 1 0.588259 0.0887987 0.0138863
32 1 0.183962 0.252137 0.0824347
649 1 0.998392 0.495246 0.496894
55 1 0.24181 0.336254 0.0909239
102 1 0.24577 0.244391 0.161647
437 1 0.180883 0.499712 4.49491e-06
36 1 0.332419 0.257126 0.0891479
40 1 0.495809 0.256106 0.0755846
59 1 0.40028 0.34321 0.0874118
3 1 0.0724288 0.00629675 0.0768535
63 1 0.590665 0.32996 0.0735634
44 1 0.667807 0.265976 0.0802234
109 1 0.502295 0.170748 0.161303
110 1 0.58331 0.255457 0.164138
114 1 0.749312 0.246851 0.16598
137 1 0.671511 0.329886 0.17136
47 1 0.91254 0.159565 0.0726983
28 1 0.999281 0.262658 0.0786202
48 1 0.835094 0.256901 0.0863547
56 1 0.164978 0.420383 0.0836651
122 1 0.0871449 0.401895 0.170996
70 1 0.91632 0.421924 0.00493278
91 1 0.757037 0.0031492 0.260121
513 1 0.320252 0.494236 0.177223
126 1 0.233953 0.424009 0.170905
215 1 0.905482 0.323681 0.404117
60 1 0.31737 0.416137 0.0876827
517 1 0.48523 0.479479 0.184527
285 1 0.843532 0.324966 0.501538
266 1 0.0762875 0.414296 0.488067
64 1 0.483974 0.411525 0.077092
68 1 0.657308 0.414679 0.0878082
505 1 0.994597 0.475724 0.152529
67 1 0.758982 0.327981 0.0680578
79 1 0.242564 0.0111353 0.239997
25 1 0.0071984 0.179979 0.000295512
72 1 0.822622 0.42736 0.0932682
52 1 0.00597576 0.404558 0.0710449
71 1 0.905332 0.341491 0.0890885
121 1 0.992893 0.338952 0.173704
212 1 0.673224 0.407178 0.415768
99 1 0.0884182 0.155474 0.23863
76 1 0.986749 0.0847786 0.25231
81 1 0.329806 0.00847383 0.172357
78 1 0.258861 0.0946919 0.151623
80 1 0.163627 0.0842299 0.235044
150 1 0.245291 0.0912662 0.327449
77 1 0.162229 0.0120585 0.158112
84 1 0.32713 0.0866571 0.257414
88 1 0.507533 0.0867765 0.246193
216 1 0.843281 0.404927 0.421088
209 1 0.663865 0.323668 0.33499
158 1 0.569684 0.0791998 0.337516
92 1 0.664276 0.0985191 0.248938
90 1 0.7472 0.0901893 0.176847
96 1 0.844716 0.0847154 0.235799
97 1 0.997126 0.174397 0.163887
94 1 0.916074 0.0728313 0.149224
119 1 0.913013 0.17271 0.247703
166 1 0.927242 0.0803859 0.339634
274 1 0.428214 0.415456 0.492158
169 1 0.992941 0.164857 0.330573
98 1 0.0839789 0.25311 0.15627
104 1 0.163778 0.252425 0.24598
100 1 0.00972 0.253669 0.240816
173 1 0.153738 0.158556 0.335748
103 1 0.236343 0.170686 0.247346
108 1 0.323565 0.242955 0.260126
177 1 0.337317 0.174035 0.338491
107 1 0.406559 0.158938 0.256549
106 1 0.424648 0.248211 0.168121
178 1 0.416535 0.254328 0.322466
112 1 0.490653 0.242394 0.253356
133 1 0.512535 0.336939 0.151788
181 1 0.492279 0.162891 0.349204
111 1 0.584614 0.165952 0.25353
182 1 0.573288 0.247593 0.338111
115 1 0.757449 0.16114 0.246172
116 1 0.668387 0.244668 0.240601
186 1 0.755131 0.241069 0.334336
141 1 0.822893 0.333646 0.161218
117 1 0.832288 0.165098 0.157905
190 1 0.917936 0.257018 0.331184
120 1 0.838312 0.245883 0.245005
118 1 0.923413 0.256596 0.168245
143 1 0.899603 0.332588 0.233884
194 1 0.0938297 0.424972 0.351492
211 1 0.746011 0.32671 0.407175
123 1 0.0829632 0.333401 0.273114
125 1 0.154457 0.329209 0.170931
124 1 0.000435383 0.414153 0.259912
128 1 0.177596 0.400461 0.26678
509 1 0.153682 0.494332 0.171491
127 1 0.248777 0.317279 0.256932
198 1 0.251594 0.406974 0.353226
129 1 0.31872 0.331169 0.171396
132 1 0.315769 0.41613 0.271116
201 1 0.328427 0.31979 0.349126
130 1 0.403503 0.416927 0.188297
131 1 0.412077 0.32437 0.241193
202 1 0.404255 0.408694 0.334116
153 1 0.342242 0.00237455 0.329588
135 1 0.600316 0.323655 0.247105
136 1 0.508145 0.39941 0.243388
134 1 0.583278 0.416359 0.168462
87 1 0.581674 0.0131531 0.249383
66 1 0.752269 0.420879 0.0153351
138 1 0.739134 0.415004 0.155624
140 1 0.665974 0.416291 0.248449
139 1 0.757979 0.330687 0.25139
210 1 0.746789 0.409072 0.323134
5 1 0.160504 0.00717759 0.00618255
142 1 0.908551 0.414866 0.16797
144 1 0.823603 0.412633 0.241244
159 1 0.588353 -0.00382796 0.418621
206 1 0.588559 0.400574 0.326006
146 1 0.0809124 0.0796009 0.330697
171 1 0.0839034 0.158389 0.419613
83 1 0.427294 0.00719955 0.254609
515 1 0.39886 0.493423 0.26215
152 1 0.170073 0.0743241 0.424084
156 1 0.331396 0.0869319 0.414444
595 1 0.741769 0.495306 0.403658
46 1 0.919767 0.251376 0.00462977
154 1 0.415121 0.0824152 0.344977
208 1 0.498188 0.409021 0.414209
207 1 0.576069 0.335413 0.416495
160 1 0.509019 0.0805442 0.429509
164 1 0.66809 0.0737518 0.406635
591 1 0.57623 0.480005 0.410249
187 1 0.750246 0.168629 0.412233
162 1 0.767082 0.0894006 0.331948
185 1 0.673897 0.161507 0.330702
597 1 0.828231 0.477317 0.339201
148 1 0.997639 0.0803887 0.424123
168 1 0.846586 0.0746778 0.422892
511 1 0.253145 0.496776 0.259348
196 1 0.983099 0.399456 0.410031
170 1 0.0790183 0.246577 0.345619
193 1 0.991022 0.327424 0.33195
176 1 0.165267 0.242578 0.43294
195 1 0.0706766 0.332707 0.422122
75 1 0.0729644 0.00499976 0.245661
174 1 0.229336 0.250917 0.351323
175 1 0.237755 0.164725 0.426903
180 1 0.316586 0.240067 0.422971
199 1 0.257684 0.33021 0.433338
203 1 0.413787 0.321038 0.415699
179 1 0.407001 0.16834 0.416377
165 1 0.848677 0.0107578 0.326896
147 1 0.0832195 0.000123943 0.424967
205 1 0.499948 0.325756 0.323633
183 1 0.582558 0.161951 0.420212
188 1 0.667273 0.244583 0.420017
184 1 0.497865 0.252565 0.416525
197 1 0.160036 0.33358 0.366078
192 1 0.828391 0.248739 0.416699
189 1 0.840923 0.174742 0.329567
200 1 0.1719 0.425692 0.438139
172 1 0.999043 0.235736 0.428905
204 1 0.339661 0.426554 0.431688
191 1 0.916889 0.164059 0.416263
577 1 0.989765 0.491569 0.336586
527 1 0.91043 0.486681 0.243996
2 1 0.0876135 0.0865198 0.00265693
455 1 0.918365 0.500759 0.0845092
23 1 0.923191 0.00213378 0.0742467
226 1 0.425852 0.0707416 0.501771
163 1 0.759317 0.0139799 0.405358
58 1 0.409374 0.398765 -0.00121874
17 1 0.66402 0.0090286 0.00510036
507 1 0.0925252 0.475635 0.252293
447 1 0.586541 0.498573 0.0920409
41 1 0.66023 0.171926 0.00982039
95 1 0.91591 0.00309697 0.245318
6 1 0.252927 0.07587 0.000677659
85 1 0.516982 0.00788925 0.167918
217 1 0.988568 0.00401797 0.493786
593 1 0.657557 0.484994 0.328346
519 1 0.574169 0.496528 0.240864
73 1 0.00173163 -0.00132432 0.161206
29 1 0.166748 0.15715 0.00985797
589 1 0.502599 0.480439 0.317748
273 1 0.345201 0.321421 0.496424
33 1 0.327382 0.180308 0.000747183
599 1 0.930628 0.499026 0.417485
254 1 0.578268 0.242899 0.500193
53 1 0.176982 0.341509 0.00583124
282 1 0.750033 0.410988 0.495249
62 1 0.573002 0.417626 0.0116785
261 1 0.831973 0.179145 0.492944
9 1 0.333699 -0.00023521 -0.0010941
26 1 0.0977436 0.257767 0.0108431
37 1 0.506929 0.177778 0.00412978
233 1 0.689306 0.0029721 0.487824
224 1 0.175222 0.081886 0.599846
286 1 0.914175 0.421981 0.513354
453 1 0.822807 0.498472 0.999818
294 1 0.273002 0.0685186 0.665134
228 1 0.354784 0.0648274 0.582654
731 1 0.422094 0.496103 0.742133
232 1 0.493935 0.0818986 0.602836
325 1 0.504486 0.152927 0.684644
253 1 0.503523 0.150267 0.523439
236 1 0.681286 0.0919896 0.581288
302 1 0.598761 0.0862621 0.661025
265 1 0.994729 0.344542 0.510436
803 1 0.431708 0.491326 0.919903
306 1 0.754685 0.0889293 0.666617
240 1 0.835864 0.101065 0.592552
333 1 0.835878 0.185942 0.663222
220 1 1.00192 0.0684315 0.586951
412 1 0.989933 0.423943 0.920296
310 1 0.916073 0.0819306 0.669844
243 1 0.0757699 0.168411 0.593868
248 1 0.170539 0.246789 0.581518
244 1 0.00881346 0.259789 0.583557
314 1 0.0768206 0.25858 0.667295
234 1 0.758778 0.091728 0.505097
239 1 0.908429 0.00249493 0.581744
363 1 0.089387 0.00707408 0.925545
247 1 0.263447 0.152707 0.588043
318 1 0.238853 0.247472 0.665516
801 1 0.348985 0.487636 0.816431
252 1 0.337022 0.243176 0.569174
251 1 0.432337 0.163373 0.601521
256 1 0.505181 0.247687 0.589604
275 1 0.418606 0.322969 0.577509
255 1 0.588579 0.168938 0.585632
260 1 0.666487 0.263342 0.600142
329 1 0.681446 0.168045 0.664218
326 1 0.579384 0.2444 0.665664
54 1 0.250642 0.419062 0.992315
259 1 0.752697 0.171153 0.582947
283 1 0.756885 0.333235 0.588233
264 1 0.842102 0.250172 0.582838
263 1 0.927509 0.180597 0.586266
287 1 0.918359 0.331775 0.602697
334 1 0.923179 0.245897 0.671089
309 1 0.833435 0.00937262 0.675796
267 1 0.086363 0.338278 0.58019
268 1 0.99578 0.43205 0.587094
337 1 1.00131 0.338364 0.678726
295 1 0.243722 0.00613474 0.759441
271 1 0.256429 0.321489 0.569818
272 1 0.158017 0.415993 0.578645
249 1 0.355363 0.151361 0.506466
38 1 0.587108 0.248365 0.991422
65 1 0.671031 0.331208 0.988644
276 1 0.33082 0.401088 0.57027
280 1 0.503831 0.414128 0.577393
665 1 0.665075 0.490038 0.511594
346 1 0.418009 0.409767 0.652813
270 1 0.255941 0.422388 0.503851
279 1 0.576525 0.324458 0.583204
383 1 0.925207 -0.000403828 0.923644
284 1 0.652893 0.413414 0.58548
357 1 0.839454 0.323569 0.684013
288 1 0.82968 0.402688 0.577905
669 1 0.824465 0.486119 0.499285
667 1 0.758657 0.481309 0.595461
375 1 0.577273 0.00766807 0.932863
365 1 0.164969 0.0195643 0.839579
290 1 0.0879012 0.0834687 0.665302
428 1 0.66862 0.415799 0.917848
296 1 0.169525 0.0914735 0.750621
292 1 1.00167 0.0757522 0.746364
315 1 0.074394 0.153868 0.751806
362 1 0.0809767 0.0884011 0.830409
321 1 0.342792 0.160422 0.661629
300 1 0.345293 0.0851935 0.768317
366 1 0.244966 0.0947748 0.831752
319 1 0.265501 0.156782 0.729478
432 1 0.824589 0.417843 0.90221
298 1 0.410588 0.0605253 0.671278
304 1 0.514546 0.068653 0.745603
370 1 0.4392 0.0729602 0.846355
308 1 0.657064 0.0800692 0.750901
733 1 0.499094 0.496467 0.647498
807 1 0.566854 0.489623 0.919541
331 1 0.773727 0.169331 0.75418
378 1 0.745084 0.0734268 0.831279
312 1 0.835614 0.0759321 0.753671
405 1 0.844592 0.155053 0.835802
367 1 0.250441 0.0126337 0.911214
382 1 0.934592 0.0741678 0.842593
385 1 0.99928 0.16968 0.850528
313 1 0.00200175 0.148554 0.662215
317 1 0.172236 0.159089 0.669525
409 1 0.00856355 0.327837 0.833741
386 1 0.0870521 0.240268 0.823998
320 1 0.16427 0.263898 0.747754
324 1 0.318719 0.250027 0.742365
343 1 0.24995 0.331058 0.747564
322 1 0.412498 0.25022 0.66728
345 1 0.327756 0.32939 0.64965
417 1 0.329375 0.329104 0.832138
323 1 0.423549 0.145111 0.753891
328 1 0.494279 0.239959 0.745237
349 1 0.500551 0.336937 0.666746
394 1 0.420564 0.244022 0.82038
327 1 0.591207 0.180212 0.74731
398 1 0.606626 0.247509 0.83513
353 1 0.676709 0.334254 0.671706
332 1 0.673319 0.259432 0.745012
351 1 0.585215 0.345586 0.750236
425 1 0.677654 0.334999 0.829414
330 1 0.742641 0.252075 0.670055
355 1 0.758773 0.336415 0.761211
336 1 0.854195 0.250349 0.765497
316 1 1.0013 0.24286 0.758721
406 1 0.925801 0.232913 0.844114
335 1 0.925447 0.167021 0.758414
429 1 0.847279 0.324614 0.838183
338 1 0.0763024 0.430364 0.671864
339 1 0.0787279 0.349402 0.738242
422 1 0.582393 0.432895 0.838633
341 1 0.158186 0.337949 0.658704
342 1 0.241586 0.41085 0.642928
344 1 0.168872 0.429222 0.748603
348 1 0.328499 0.410565 0.718751
347 1 0.417875 0.334741 0.753163
30 1 0.230961 0.255065 0.991224
245 1 0.160575 0.147165 0.507148
241 1 0.996328 0.169649 0.505114
352 1 0.490732 0.42352 0.745523
262 1 0.926985 0.257592 0.506579
350 1 0.573646 0.426811 0.659007
356 1 0.65908 0.425099 0.753625
369 1 0.329278 0.0112713 0.834667
729 1 0.344534 0.491491 0.63694
426 1 0.756148 0.439407 0.827971
354 1 0.751254 0.411276 0.682792
419 1 0.427186 0.329433 0.906094
340 1 0.998392 0.42787 0.745874
360 1 0.839174 0.416336 0.746948
359 1 0.924903 0.329359 0.747538
430 1 0.925096 0.415144 0.827268
358 1 0.916405 0.420548 0.665741
368 1 0.16608 0.0840244 0.917702
418 1 0.415708 0.408588 0.837845
389 1 0.174157 0.17125 0.843281
372 1 0.33244 0.0951337 0.899402
250 1 0.425295 0.239808 0.502275
397 1 0.514072 0.167672 0.83514
395 1 0.405844 0.172737 0.934255
376 1 0.500798 0.0926764 0.924069
61 1 0.521023 0.3206 0.98911
219 1 0.0934131 0.0105739 0.581972
374 1 0.579722 0.0778282 0.835239
380 1 0.667706 0.0798376 0.914298
403 1 0.760461 0.151048 0.900162
235 1 0.754006 0.0017044 0.587005
410 1 0.0864858 0.415033 0.835963
424 1 0.499743 0.404538 0.921825
364 1 0.0163999 0.0835939 0.92407
384 1 0.847831 0.0699647 0.902583
407 1 0.927012 0.160871 0.928644
361 1 0.00544477 0.000767294 0.835658
222 1 0.251262 0.0749147 0.503229
408 1 0.827777 0.235063 0.915237
387 1 0.088247 0.16105 0.918529
392 1 0.157658 0.261003 0.907308
57 1 0.308834 0.326527 0.997659
414 1 0.245114 0.425282 0.832811
388 1 0.00468134 0.251058 0.922006
415 1 0.244731 0.330678 0.910248
391 1 0.25348 0.174878 0.9276
390 1 0.251568 0.258069 0.831534
413 1 0.149904 0.336171 0.828278
393 1 0.33083 0.177033 0.825227
421 1 0.512374 0.322612 0.815759
396 1 0.332435 0.25627 0.909536
400 1 0.484693 0.2444 0.918912
399 1 0.587347 0.165378 0.926732
423 1 0.590208 0.328876 0.908405
420 1 0.326998 0.413746 0.919098
411 1 0.0818372 0.332986 0.916914
22 1 0.918821 0.0817725 1.00084
404 1 0.697777 0.236322 0.899599
401 1 0.675568 0.151618 0.830678
427 1 0.751995 0.339211 0.908352
402 1 0.758945 0.248233 0.823053
431 1 0.919471 0.344517 0.911881
416 1 0.177205 0.420844 0.913932
218 1 0.0699311 0.0932659 0.503974
659 1 0.414086 0.497548 0.570446
18 1 0.740137 0.0854397 0.9879
651 1 0.0831725 0.5006 0.571497
305 1 0.679213 0.00264456 0.671701
42 1 0.751615 0.250709 0.996191
246 1 0.247317 0.232364 0.514026
257 1 0.668579 0.172037 0.500217
69 1 0.83771 0.326853 0.975195
281 1 0.660651 0.330654 0.515624
657 1 0.333191 0.499586 0.502949
237 1 0.825322 6.32794e-05 0.506613
242 1 0.087805 0.253687 0.512181
238 1 0.901749 0.0889989 0.512457
269 1 0.159942 0.334275 0.500531
449 1 0.643261 0.495386 0.986496
45 1 0.83743 0.161379 0.992272
277 1 0.497168 0.330021 0.503451
49 1 0.0113 0.338355 0.991124
34 1 0.406565 0.264015 0.99521
258 1 0.743273 0.26017 0.506738
10 1 0.401121 0.0927946 0.997307
50 1 0.095254 0.431393 0.984599
230 1 0.588168 0.0782726 0.511654
440 1 0.183111 0.579856 0.0814441
698 1 0.0805532 0.932113 0.500472
436 1 0.00627641 0.583972 0.0848416
441 1 0.337918 0.502036 0.0116121
701 1 0.154643 0.847399 0.487743
510 1 0.24447 0.58561 0.176034
490 1 0.410262 0.921584 0.00789352
470 1 0.562957 0.75486 0.000410171
658 1 0.405868 0.595003 0.489798
433 1 0.994241 0.507137 0.00593432
717 1 0.832155 0.840095 0.496173
444 1 0.328321 0.578943 0.090707
514 1 0.398035 0.579463 0.188087
525 1 0.816119 0.502536 0.180435
448 1 0.479576 0.565808 0.107755
518 1 0.581775 0.575765 0.165237
452 1 0.667745 0.575762 0.0909794
471 1 0.564208 0.653714 0.0954557
475 1 0.753784 0.665863 0.0960208
545 1 0.666654 0.659562 0.15723
673 1 0.996759 0.674195 0.487615
456 1 0.826047 0.576172 0.0883143
526 1 0.89764 0.568208 0.165987
435 1 0.0888247 0.506421 0.0846015
167 1 0.913205 0.990481 0.422561
459 1 0.0890903 0.656058 0.0689052
460 1 0.993482 0.738245 0.0803586
483 1 0.0706856 0.83248 0.086574
529 1 0.00925045 0.662044 0.163175
89 1 0.673231 0.988669 0.157033
464 1 0.16662 0.751355 0.0836742
463 1 0.264879 0.663816 0.0903873
523 1 0.746551 0.505947 0.27132
468 1 0.341585 0.746602 0.0969497
467 1 0.412524 0.660016 0.0961727
561 1 0.316817 0.838017 0.148001
581 1 0.166237 0.510835 0.343049
472 1 0.491588 0.748094 0.0851512
15 1 0.580796 0.994742 0.0878834
476 1 0.649506 0.741917 0.0917119
546 1 0.734929 0.750577 0.171787
479 1 0.916314 0.654955 0.0839591
480 1 0.839936 0.738106 0.087533
503 1 0.922492 0.834417 0.0767982
681 1 0.336684 0.679258 0.487988
550 1 0.92562 0.736672 0.169426
585 1 0.329005 0.50306 0.343061
487 1 0.231738 0.838465 0.0703581
488 1 0.158126 0.918604 0.0889165
492 1 0.341152 0.931742 0.0905299
521 1 0.671456 0.501133 0.174056
558 1 0.248086 0.922991 0.158723
485 1 0.154689 0.825301 0.00569514
491 1 0.409067 0.843467 0.086141
496 1 0.490455 0.925886 0.0850199
562 1 0.419942 0.939504 0.164345
646 1 0.91641 0.9196 0.327427
474 1 0.761636 0.737366 0.00405623
662 1 0.591795 0.566627 0.494824
495 1 0.575346 0.843411 0.0842295
694 1 0.910173 0.754251 0.486735
566 1 0.577854 0.91563 0.156242
145 1 1.00086 0.993145 0.326982
499 1 0.75027 0.84508 0.0672637
500 1 0.661044 0.91175 0.0712542
454 1 0.922807 0.581361 0.00209904
484 1 0.998517 0.918677 0.0772302
504 1 0.842665 0.916468 0.0787956
693 1 0.814068 0.669207 0.48996
506 1 0.0863703 0.585736 0.152173
578 1 0.0726365 0.567821 0.319484
508 1 0.008997 0.555901 0.237626
647 1 0.923756 0.842859 0.413647
512 1 0.163351 0.57969 0.243273
535 1 0.247108 0.662536 0.275727
648 1 0.829541 0.915085 0.401032
537 1 0.324974 0.669139 0.184678
628 1 0.00799675 0.9295 0.416206
516 1 0.326126 0.580319 0.261166
586 1 0.409731 0.582105 0.341951
539 1 0.40318 0.678921 0.254365
666 1 0.754261 0.581517 0.498397
520 1 0.490407 0.573929 0.25899
590 1 0.574653 0.569821 0.333164
524 1 0.654952 0.579898 0.260231
522 1 0.749873 0.592384 0.181831
594 1 0.751364 0.597092 0.326195
549 1 0.838742 0.661106 0.177313
617 1 0.658545 0.672417 0.335921
528 1 0.840633 0.587239 0.266795
601 1 0.0123844 0.662098 0.32086
621 1 0.821234 0.668458 0.331128
598 1 0.932304 0.583039 0.334198
533 1 0.172155 0.677578 0.173951
531 1 0.086802 0.671677 0.242395
530 1 0.0789502 0.757331 0.164675
532 1 0.00286049 0.753633 0.245597
555 1 0.100864 0.822379 0.24322
534 1 0.25705 0.756047 0.179568
536 1 0.177247 0.738077 0.258856
605 1 0.150583 0.656654 0.332405
540 1 0.323475 0.761429 0.256233
538 1 0.415107 0.76315 0.169142
610 1 0.431654 0.751468 0.33681
563 1 0.416318 0.830963 0.261804
542 1 0.560492 0.745243 0.167223
541 1 0.492379 0.650253 0.174742
543 1 0.569387 0.664544 0.251252
544 1 0.505056 0.754431 0.26169
565 1 0.484467 0.847601 0.169041
637 1 0.489091 0.836517 0.339314
613 1 0.504331 0.658316 0.338151
614 1 0.589267 0.744029 0.334881
645 1 0.825385 0.839268 0.316469
618 1 0.748716 0.758571 0.326152
547 1 0.717791 0.679716 0.248759
548 1 0.651956 0.763489 0.245476
569 1 0.663078 0.844064 0.163654
552 1 0.836426 0.758332 0.24048
551 1 0.934554 0.643457 0.24063
575 1 0.910861 0.832018 0.24917
557 1 0.179099 0.833148 0.169278
642 1 0.736025 0.923223 0.327429
554 1 0.0816668 0.913491 0.172528
560 1 0.166485 0.929609 0.245819
556 1 0.992501 0.916546 0.24491
473 1 0.665674 0.662651 0.0150226
644 1 0.672307 0.916356 0.423682
559 1 0.246416 0.833625 0.257105
564 1 0.337311 0.921727 0.246694
568 1 0.502359 0.929036 0.250611
634 1 0.418796 0.920346 0.322036
640 1 0.505075 0.924346 0.427545
567 1 0.583631 0.849647 0.251647
638 1 0.587166 0.918492 0.344928
625 1 0.00913977 0.848638 0.323631
570 1 0.749569 0.909029 0.152219
571 1 0.746989 0.840363 0.243351
573 1 0.816696 0.830936 0.158164
641 1 0.662966 0.826396 0.336978
572 1 0.655473 0.929523 0.24006
576 1 0.822177 0.91948 0.254135
553 1 0.99223 0.833903 0.165487
574 1 0.916615 0.936691 0.160259
445 1 0.501461 0.499905 0.0169456
584 1 0.173671 0.586337 0.418155
603 1 0.0801079 0.67949 0.405483
713 1 0.676452 0.83262 0.501008
689 1 0.666926 0.653133 0.491296
587 1 0.408672 0.504618 0.406654
604 1 1.00078 0.761506 0.425197
582 1 0.247513 0.581209 0.343017
442 1 0.419555 0.572105 0.00444741
631 1 0.237385 0.834992 0.414347
588 1 0.324384 0.587235 0.414061
592 1 0.509794 0.570984 0.408938
611 1 0.420461 0.672449 0.41577
615 1 0.581433 0.662059 0.417095
633 1 0.334219 0.827019 0.340299
630 1 0.263532 0.931345 0.325658
624 1 0.836648 0.768635 0.397271
596 1 0.661957 0.573426 0.410987
600 1 0.842058 0.566165 0.398351
93 1 0.831335 0.99587 0.16216
580 1 0.000846504 0.594892 0.412521
623 1 0.905244 0.672987 0.419208
629 1 0.164461 0.843263 0.330886
579 1 0.0780213 0.503244 0.423877
583 1 0.245734 0.506624 0.428372
632 1 0.182511 0.93143 0.423308
602 1 0.0753315 0.757607 0.326189
627 1 0.0835295 0.850097 0.398692
606 1 0.230936 0.752215 0.347545
607 1 0.246299 0.668765 0.414163
608 1 0.1545 0.754493 0.412897
609 1 0.327276 0.67214 0.350026
635 1 0.417105 0.834649 0.421006
612 1 0.335036 0.757336 0.42026
626 1 0.0937787 0.936263 0.333409
636 1 0.337469 0.922955 0.413642
620 1 0.669155 0.752473 0.426288
639 1 0.575516 0.833518 0.415248
616 1 0.508634 0.753896 0.415376
622 1 0.918611 0.743022 0.328082
643 1 0.752456 0.836951 0.411152
619 1 0.735511 0.664249 0.410459
682 1 0.414608 0.76129 0.499191
677 1 0.167592 0.674806 0.494994
697 1 0.0135889 0.834226 0.502222
451 1 0.744284 0.502407 0.0931547
494 1 0.578097 0.919625 0.00448556
462 1 0.254046 0.736383 0.00508832
709 1 0.491692 0.838605 0.499097
446 1 0.563211 0.575319 0.021461
466 1 0.412298 0.734409 0.00796435
661 1 0.506787 0.503179 0.502514
501 1 0.83163 0.827625 3.15286e-05
19 1 0.751893 0.990281 0.0810358
157 1 0.502031 0.990734 0.339737
678 1 0.242959 0.757883 0.48825
705 1 0.334432 0.835709 0.482751
493 1 0.496096 0.838844 0.0112949
502 1 0.913676 0.913713 -0.00186068
438 1 0.25791 0.595681 0.00231134
482 1 0.0784697 0.918342 0.00890886
654 1 0.257518 0.591807 0.485734
469 1 0.49562 0.656824 0.00763216
706 1 0.418857 0.923293 0.490524
465 1 0.33433 0.661166 0.00888872
650 1 0.0775161 0.586641 0.490956
702 1 0.257468 0.917242 0.494962
13 1 0.499124 0.997979 0.00528237
486 1 0.246652 0.925068 0.00903068
675 1 0.0787218 0.6614 0.56644
793 1 0.985129 0.501978 0.845525
815 1 0.906918 0.501026 0.920976
377 1 0.668191 0.993229 0.847878
656 1 0.156638 0.591841 0.573932
749 1 0.160441 0.6813 0.640125
660 1 0.340572 0.604074 0.579121
683 1 0.428798 0.670647 0.574657
753 1 0.347555 0.677186 0.665202
730 1 0.432284 0.575285 0.668435
221 1 0.174004 0.990854 0.502986
664 1 0.491382 0.582566 0.559846
687 1 0.581483 0.650209 0.576073
811 1 0.748871 0.498279 0.917697
741 1 0.834935 0.50824 0.663743
668 1 0.683726 0.568822 0.589345
672 1 0.837325 0.570883 0.580495
481 1 0.993903 0.83877 1.00049
652 1 0.995404 0.598615 0.577153
862 1 0.926137 0.923658 0.839145
373 1 0.511515 0.988269 0.847481
653 1 0.169984 0.517529 0.498938
676 1 0.00341865 0.752707 0.57579
679 1 0.245388 0.683118 0.569979
680 1 0.166718 0.768757 0.571499
750 1 0.244051 0.748692 0.662596
703 1 0.259798 0.828373 0.577389
301 1 0.50276 0.986602 0.667274
684 1 0.342652 0.759497 0.58147
754 1 0.420488 0.766046 0.680542
688 1 0.497502 0.749188 0.586236
711 1 0.598087 0.822092 0.570096
692 1 0.670361 0.742676 0.579916
691 1 0.741254 0.652658 0.576556
715 1 0.763368 0.84375 0.592222
696 1 0.820998 0.75994 0.579598
739 1 0.752359 0.501757 0.742783
225 1 0.333361 0.99058 0.507943
745 1 0.00569354 0.675224 0.646184
725 1 0.14695 0.517195 0.659519
695 1 0.888832 0.674084 0.570333
719 1 0.915529 0.827363 0.567875
799 1 0.255829 0.521032 0.906685
813 1 0.836782 0.504796 0.821149
773 1 0.171302 0.835844 0.660922
699 1 0.0870505 0.849107 0.576449
670 1 0.909526 0.584328 0.499833
704 1 0.181877 0.904127 0.57423
863 1 0.901783 0.828018 0.919715
723 1 0.0599529 0.519206 0.740841
721 1 0.993196 0.51878 0.666759
781 1 0.515792 0.832795 0.662462
707 1 0.417589 0.836779 0.584784
777 1 0.335438 0.825464 0.667106
708 1 0.324556 0.916355 0.596375
712 1 0.519204 0.904362 0.577809
778 1 0.42334 0.903661 0.691046
297 1 0.343529 0.981666 0.679101
299 1 0.428324 0.995985 0.769448
716 1 0.671285 0.924347 0.590281
735 1 0.586199 0.498443 0.753396
782 1 0.587748 0.922698 0.66807
655 1 0.256674 0.518757 0.582529
720 1 0.831408 0.932676 0.58372
786 1 0.760159 0.911494 0.674868
307 1 0.767614 0.984852 0.7501
700 1 0.00333809 0.908424 0.5689
790 1 0.918754 0.921613 0.659515
685 1 0.509139 0.679866 0.505741
857 1 0.672779 0.833171 0.830232
371 1 0.41013 0.991505 0.927504
722 1 0.0741064 0.606301 0.673781
805 1 0.501163 0.505573 0.819435
747 1 0.0925569 0.66671 0.755844
724 1 0.999499 0.606286 0.743766
743 1 0.932002 0.519491 0.755008
820 1 0.992991 0.748431 0.924146
726 1 0.24602 0.599391 0.654316
728 1 0.156564 0.5668 0.751058
732 1 0.33643 0.587513 0.74253
839 1 0.918474 0.648734 0.912912
736 1 0.518789 0.59337 0.748573
757 1 0.501688 0.653792 0.655299
734 1 0.588931 0.584603 0.663156
740 1 0.679168 0.582705 0.756536
759 1 0.595607 0.674519 0.73413
761 1 0.677211 0.661078 0.666484
738 1 0.761946 0.589583 0.67149
859 1 0.741099 0.839407 0.918301
744 1 0.839799 0.576312 0.741617
861 1 0.828069 0.823397 0.83907
742 1 0.911122 0.593269 0.659347
767 1 0.908141 0.668987 0.751665
814 1 0.914377 0.589612 0.826733
671 1 0.920506 0.506435 0.588554
746 1 0.0766197 0.773721 0.655823
748 1 0.0137607 0.749734 0.744043
752 1 0.149906 0.764682 0.755469
771 1 0.0829743 0.8514 0.735988
769 1 0.997269 0.834562 0.6524
845 1 0.172477 0.840513 0.837045
818 1 0.0699009 0.770342 0.835297
751 1 0.231721 0.662325 0.735551
825 1 0.325224 0.660379 0.846083
775 1 0.246243 0.828374 0.732588
821 1 0.163521 0.663834 0.836069
822 1 0.240943 0.748661 0.829605
756 1 0.31964 0.742023 0.758337
755 1 0.421961 0.680125 0.738851
779 1 0.404503 0.820428 0.771816
758 1 0.580013 0.750535 0.666543
760 1 0.509887 0.756281 0.746539
762 1 0.755512 0.765123 0.670468
763 1 0.758115 0.667664 0.757128
785 1 0.663387 0.835776 0.667932
764 1 0.669015 0.76192 0.748865
787 1 0.742596 0.839236 0.750038
837 1 0.828152 0.670257 0.832828
766 1 0.919279 0.751214 0.6523
765 1 0.839288 0.670943 0.661609
768 1 0.825546 0.763311 0.749754
791 1 0.93518 0.829922 0.756224
838 1 0.914598 0.73269 0.848859
231 1 0.597568 0.99701 0.595026
842 1 0.0813123 0.924871 0.836754
770 1 0.0967927 0.91774 0.65458
776 1 0.167532 0.921569 0.756607
223 1 0.253249 0.993568 0.587164
774 1 0.249358 0.913763 0.668593
780 1 0.326442 0.903038 0.767578
850 1 0.414385 0.908641 0.840156
864 1 0.828878 0.906541 0.923895
849 1 0.309485 0.83497 0.840176
854 1 0.588919 0.905387 0.841145
783 1 0.59289 0.829662 0.745981
784 1 0.500681 0.908251 0.755352
788 1 0.663453 0.918582 0.753398
789 1 0.856815 0.834267 0.671286
858 1 0.747301 0.923498 0.839788
772 1 0.00378568 0.920984 0.743994
795 1 0.0875451 0.505198 0.900226
792 1 0.851501 0.90699 0.748957
381 1 0.838331 0.989426 0.840574
229 1 0.499388 0.994312 0.51092
794 1 0.0699329 0.577244 0.823849
800 1 0.167307 0.587211 0.910075
796 1 0.998586 0.583299 0.924351
856 1 0.497432 0.91541 0.919285
798 1 0.245105 0.579858 0.817769
804 1 0.349906 0.571346 0.915147
860 1 0.655246 0.921025 0.92145
802 1 0.423589 0.59234 0.807369
848 1 0.159086 0.924736 0.911909
291 1 0.0895765 0.996823 0.750894
833 1 0.665926 0.67543 0.841406
806 1 0.601375 0.599136 0.850119
846 1 0.251802 0.921362 0.851757
808 1 0.4945 0.588543 0.910871
841 1 0.987534 0.833566 0.859043
737 1 0.65992 0.500267 0.674074
844 1 0.00628526 0.912323 0.91908
812 1 0.665109 0.582252 0.929793
810 1 0.734747 0.586676 0.842885
835 1 0.744937 0.655453 0.909831
817 1 0.008261 0.65748 0.840494
816 1 0.835207 0.576663 0.901513
710 1 0.600208 0.914856 0.500366
843 1 0.0946797 0.843158 0.921629
819 1 0.0853667 0.661157 0.912057
824 1 0.164739 0.743881 0.908224
823 1 0.246045 0.671075 0.90842
852 1 0.330961 0.915058 0.918489
829 1 0.501271 0.667009 0.829724
826 1 0.405078 0.734695 0.836415
851 1 0.406843 0.841047 0.933032
827 1 0.412991 0.664046 0.923417
828 1 0.322312 0.748614 0.921645
832 1 0.487574 0.746003 0.907311
840 1 0.823517 0.761222 0.920609
855 1 0.584841 0.817821 0.919129
853 1 0.508034 0.825461 0.824373
831 1 0.584063 0.674466 0.934992
830 1 0.586215 0.74534 0.833995
727 1 0.249872 0.498379 0.729126
21 1 0.828994 0.991705 0.997184
847 1 0.233369 0.836394 0.941134
834 1 0.755373 0.753189 0.830387
836 1 0.690161 0.751423 0.92275
663 1 0.590765 0.502447 0.579381
809 1 0.662089 0.498256 0.842644
303 1 0.583628 0.99072 0.757566
289 1 0.997127 0.991688 0.664189
379 1 0.748565 0.99445 0.9151
227 1 0.41295 0.974692 0.583568
797 1 0.169411 0.499568 0.827605
311 1 0.918794 0.996172 0.753405
293 1 0.166471 0.990227 0.659562
434 1 0.0954678 0.577048 0.992492
477 1 0.850286 0.659704 0.996439
686 1 0.589856 0.748683 0.501797
458 1 0.0712636 0.744493 0.99004
461 1 0.169844 0.661346 0.990118
714 1 0.755114 0.909088 0.502349
450 1 0.744478 0.590193 0.996969
1 1 1.00253 0.999868 0.995786
497 1 0.659206 0.813051 0.997279
690 1 0.748462 0.756488 0.503914
674 1 0.0890694 0.755171 0.505694
489 1 0.326001 0.84457 1.00134
498 1 0.736558 0.921072 0.986749
457 1 0.000574674 0.660667 0.999031
478 1 0.909148 0.757106 0.995219
718 1 0.909397 0.914577 0.511101
