ITEM: TIMESTEP
12000
ITEM: NUMBER OF ATOMS
864
ITEM: BOX BOUNDS pp pp pp
0.0000000000000000e+00 3.1559999999999999e+01
0.0000000000000000e+00 3.1559999999999999e+01
0.0000000000000000e+00 3.1559999999999999e+01
ITEM: ATOMS id type xs ys zs
74 1 0.0918815 0.0909668 0.162361
2 1 0.0756739 0.0708441 0.0020832
8 1 0.177352 0.0831327 0.0803693
12 1 0.333708 0.0842862 0.0936386
16 1 0.498552 0.0916502 0.0875084
10 1 0.417334 0.0871684 0.00433336
35 1 0.420654 0.164203 0.0881291
37 1 0.498555 0.16122 1.17629e-05
9 1 0.344591 0.00255777 0.00613168
39 1 0.583332 0.159031 0.0825724
15 1 0.58746 0.00248827 0.0788101
85 1 0.513845 0.00888366 0.162115
20 1 0.667519 0.0868794 0.0839924
24 1 0.813512 0.0913621 0.0761751
4 1 0.998738 0.0789333 0.0982367
47 1 0.904292 0.160169 0.0840312
27 1 0.0857613 0.184562 0.0904903
51 1 0.0817462 0.330994 0.0967476
32 1 0.164202 0.2604 0.08206
26 1 0.0914826 0.247401 0.0123449
53 1 0.162017 0.328766 0.00220017
31 1 0.252985 0.183088 0.0928787
125 1 0.169253 0.331891 0.162368
33 1 0.331967 0.170914 0.0145247
36 1 0.338693 0.250493 0.0936947
40 1 0.495394 0.243616 0.0800576
133 1 0.493387 0.309064 0.166643
34 1 0.423075 0.249001 0.00900694
61 1 0.49242 0.331915 0.00463202
44 1 0.666607 0.252061 0.0823335
63 1 0.579262 0.324846 0.0895307
137 1 0.666424 0.331713 0.165319
43 1 0.740811 0.176218 0.0713778
48 1 0.824967 0.2573 0.0794094
45 1 0.828841 0.171212 0.00623297
28 1 0.983198 0.262189 0.0731401
97 1 0.990959 0.181896 0.152992
118 1 0.903214 0.252236 0.165473
46 1 0.913609 0.223966 0.00315284
69 1 0.835369 0.327905 0.0062551
52 1 0.00414904 0.425522 0.0701115
505 1 0.00888369 0.493603 0.156516
55 1 0.264722 0.342146 0.0997732
56 1 0.174308 0.410858 0.0894337
60 1 0.332836 0.424327 0.0998996
54 1 0.262081 0.40744 0.00941913
126 1 0.245269 0.436548 0.157505
59 1 0.411938 0.339026 0.0913996
443 1 0.424033 0.488997 0.0810728
441 1 0.334239 0.49023 0.000248938
58 1 0.423611 0.415157 0.00143608
64 1 0.508527 0.414139 0.0801868
68 1 0.658103 0.422912 0.0805767
447 1 0.590126 0.497899 0.0826561
65 1 0.656481 0.344906 0.0102461
445 1 0.500861 0.497284 0.0103896
67 1 0.74563 0.343577 0.0861733
521 1 0.676426 0.497235 0.158498
66 1 0.748435 0.418044 0.005542
138 1 0.748926 0.413208 0.165598
451 1 0.74946 0.492038 0.0813804
71 1 0.915937 0.336058 0.0849633
72 1 0.838912 0.423583 0.0846946
142 1 0.92591 0.425395 0.161976
146 1 0.0908712 0.0840073 0.324023
75 1 0.0888767 0.00954074 0.237608
78 1 0.245194 0.089216 0.170006
153 1 0.332227 0.0151174 0.310899
80 1 0.168913 0.0855713 0.243746
84 1 0.322066 0.0962551 0.243865
79 1 0.244052 0.0086547 0.246183
82 1 0.422002 0.0683139 0.169238
109 1 0.498556 0.160791 0.173636
88 1 0.489251 0.0732364 0.254958
181 1 0.492883 0.154061 0.325453
86 1 0.594084 0.0844612 0.168787
158 1 0.569125 0.0784512 0.327459
111 1 0.584468 0.166355 0.254556
90 1 0.753693 0.0796199 0.178427
113 1 0.667778 0.155685 0.174636
92 1 0.672908 0.0756574 0.251305
96 1 0.828343 0.0922723 0.261468
185 1 0.672544 0.162288 0.327853
95 1 0.910069 0.0136427 0.252127
76 1 0.997444 0.0887372 0.250912
94 1 0.912983 0.0860012 0.171399
119 1 0.917795 0.16437 0.246946
73 1 0.994456 0.00945055 0.171814
93 1 0.838767 0.00828963 0.175013
98 1 0.0640764 0.250233 0.17499
99 1 0.0903446 0.174989 0.249914
123 1 0.0828083 0.318816 0.251099
104 1 0.163345 0.258866 0.253851
105 1 0.330973 0.168953 0.169454
101 1 0.166971 0.171724 0.172897
103 1 0.266543 0.188435 0.259747
173 1 0.175921 0.17031 0.325164
102 1 0.259814 0.257527 0.169279
108 1 0.341007 0.259817 0.256494
107 1 0.407066 0.172584 0.248451
106 1 0.411317 0.243126 0.173667
112 1 0.487409 0.243951 0.253587
110 1 0.582716 0.251286 0.167219
116 1 0.651665 0.248362 0.254253
213 1 0.830759 0.332084 0.312689
141 1 0.826611 0.320404 0.19186
115 1 0.750381 0.171573 0.26436
114 1 0.734668 0.241127 0.186463
117 1 0.826365 0.168192 0.1669
121 1 0.985338 0.326704 0.168624
100 1 0.998842 0.247915 0.264061
120 1 0.835407 0.243233 0.252573
190 1 0.916614 0.258464 0.331575
143 1 0.923795 0.322499 0.259548
507 1 0.0803455 0.492446 0.264354
509 1 0.153048 0.499555 0.171256
122 1 0.0853578 0.413717 0.176081
124 1 0.00668325 0.399859 0.255912
128 1 0.165841 0.413485 0.256875
127 1 0.253102 0.351861 0.244563
129 1 0.345936 0.33998 0.170878
131 1 0.423754 0.340361 0.246166
132 1 0.342954 0.4187 0.259582
130 1 0.427838 0.417646 0.174432
515 1 0.418646 0.487402 0.269806
135 1 0.581781 0.344914 0.245037
134 1 0.574902 0.427381 0.171475
136 1 0.500596 0.418898 0.268356
210 1 0.766246 0.416853 0.326762
139 1 0.746442 0.338597 0.249297
209 1 0.667106 0.337802 0.322697
140 1 0.68716 0.431265 0.252638
144 1 0.82459 0.427079 0.244057
527 1 0.929064 0.494898 0.243968
597 1 0.839742 0.492926 0.318242
214 1 0.913643 0.405397 0.328499
169 1 0.0120154 0.155458 0.340763
152 1 0.16513 0.0793324 0.425436
148 1 0.0125536 0.0698634 0.406363
171 1 0.0964928 0.158234 0.41645
150 1 0.252096 0.0943217 0.33767
151 1 0.262323 0.0039685 0.407566
222 1 0.236643 0.0855797 0.493522
156 1 0.331812 0.0899636 0.415819
154 1 0.420394 0.0843828 0.340195
160 1 0.498133 0.0842567 0.411124
155 1 0.402969 0.00525256 0.409419
225 1 0.341805 0.00631859 0.491377
226 1 0.415256 0.0889571 0.494718
159 1 0.585145 0.00604575 0.418701
164 1 0.657159 0.0882694 0.411864
183 1 0.576963 0.158148 0.419903
163 1 0.740912 0.000527772 0.429981
165 1 0.820865 0.00943826 0.345248
162 1 0.739343 0.0746241 0.348575
168 1 0.831564 0.09842 0.418851
234 1 0.736495 0.0811861 0.49158
167 1 0.922111 0.0103695 0.423559
166 1 0.908409 0.0745956 0.343084
237 1 0.836875 0.00783141 0.499125
238 1 0.926157 0.0891368 0.494006
170 1 0.0979104 0.254081 0.333437
172 1 0.0117125 0.24699 0.430719
193 1 0.00546469 0.320375 0.342912
174 1 0.249626 0.254309 0.337492
180 1 0.327573 0.25396 0.415745
176 1 0.167634 0.245709 0.428224
175 1 0.242733 0.172443 0.423581
199 1 0.252306 0.328782 0.412139
179 1 0.416539 0.17086 0.414781
178 1 0.413369 0.257085 0.344213
203 1 0.416915 0.329392 0.418459
177 1 0.337305 0.17235 0.341458
277 1 0.494135 0.326443 0.494993
250 1 0.416278 0.243761 0.498652
257 1 0.654068 0.177533 0.497367
182 1 0.584126 0.238986 0.33363
184 1 0.520824 0.248017 0.418547
205 1 0.511976 0.331522 0.342987
207 1 0.59239 0.332762 0.412552
211 1 0.763665 0.330301 0.41594
189 1 0.828771 0.178361 0.344446
186 1 0.746573 0.263106 0.334763
192 1 0.830102 0.23954 0.425363
187 1 0.748978 0.168848 0.418055
188 1 0.676866 0.24969 0.406186
281 1 0.669623 0.320112 0.486684
191 1 0.918315 0.170869 0.396024
215 1 0.91659 0.32358 0.426094
262 1 0.920121 0.248638 0.496609
194 1 0.0786966 0.417869 0.335244
200 1 0.16525 0.424673 0.417198
195 1 0.078247 0.338505 0.41619
269 1 0.178341 0.343692 0.491445
198 1 0.253829 0.424531 0.339602
204 1 0.32248 0.423541 0.426886
197 1 0.178955 0.33666 0.337208
274 1 0.419643 0.413434 0.494124
201 1 0.335776 0.335268 0.339938
202 1 0.40739 0.420851 0.362536
589 1 0.500983 0.493931 0.345009
591 1 0.589986 0.491147 0.418516
208 1 0.506771 0.409775 0.422386
206 1 0.591387 0.41758 0.334476
212 1 0.674978 0.402192 0.412757
593 1 0.675141 0.491615 0.340112
595 1 0.761679 0.480521 0.420843
282 1 0.75225 0.403944 0.499523
196 1 0.998101 0.411888 0.419155
216 1 0.836288 0.403513 0.411839
577 1 0.994115 0.48397 0.336987
599 1 0.906479 0.492868 0.405755
669 1 0.841176 0.494123 0.494183
243 1 0.0770866 0.155936 0.595295
220 1 0.00515256 0.0812958 0.588558
289 1 0.00055545 0.00224312 0.659067
218 1 0.0870941 0.0803585 0.509638
241 1 0.0182551 0.160083 0.502059
217 1 0.010462 0.00682226 0.51025
224 1 0.173191 0.0773587 0.587092
228 1 0.331686 0.0800466 0.577764
294 1 0.244059 0.0695858 0.663428
247 1 0.238025 0.157897 0.593989
301 1 0.491706 0.0145786 0.652113
298 1 0.419236 0.0812261 0.658093
232 1 0.488371 0.0912689 0.582081
229 1 0.499296 0.0032104 0.500916
255 1 0.584367 0.159802 0.578129
236 1 0.653314 0.0887952 0.587904
231 1 0.583177 0.0123797 0.576649
233 1 0.662443 0.0124961 0.500937
230 1 0.562765 0.0802148 0.501979
259 1 0.73887 0.149732 0.561497
333 1 0.823935 0.162219 0.660421
240 1 0.831582 0.0842828 0.584138
235 1 0.760564 0.00215935 0.572718
305 1 0.676129 0.00882887 0.658418
263 1 0.919128 0.153077 0.587673
239 1 0.921712 0.00345796 0.578179
261 1 0.849908 0.155433 0.510194
245 1 0.159543 0.172562 0.515098
314 1 0.0649304 0.240477 0.664228
267 1 0.0894539 0.331175 0.593247
242 1 0.0897598 0.259565 0.50861
273 1 0.33042 0.332262 0.502292
248 1 0.167164 0.254323 0.589085
318 1 0.25364 0.254082 0.659835
271 1 0.244306 0.330328 0.585202
249 1 0.329915 0.170171 0.507754
246 1 0.257252 0.256483 0.501175
252 1 0.338879 0.247487 0.58343
251 1 0.406509 0.166999 0.591028
256 1 0.498483 0.234791 0.601556
275 1 0.422627 0.327038 0.574117
253 1 0.495071 0.17072 0.500738
349 1 0.496352 0.333094 0.661999
329 1 0.660141 0.167363 0.659587
254 1 0.570092 0.254617 0.513957
258 1 0.764456 0.241113 0.500261
260 1 0.68226 0.248957 0.582465
264 1 0.82349 0.241524 0.591287
285 1 0.825145 0.325681 0.511814
244 1 0.999287 0.232199 0.583564
265 1 0.991992 0.330012 0.514815
721 1 0.00206468 0.497378 0.666607
266 1 0.0877026 0.421724 0.501479
655 1 0.256389 0.496608 0.588944
272 1 0.169508 0.41274 0.586914
276 1 0.320784 0.412063 0.586368
270 1 0.24446 0.419898 0.503674
659 1 0.416127 0.488677 0.591949
661 1 0.499232 0.492554 0.502124
279 1 0.585967 0.338902 0.593354
663 1 0.565258 0.493693 0.582571
280 1 0.504289 0.400005 0.571667
284 1 0.654321 0.421644 0.604908
665 1 0.659347 0.478918 0.505156
278 1 0.590257 0.399147 0.50112
283 1 0.74352 0.333975 0.598206
288 1 0.829093 0.425423 0.589232
268 1 0.999872 0.421733 0.595991
287 1 0.922059 0.334651 0.601432
358 1 0.918341 0.430292 0.662235
286 1 0.918176 0.416831 0.515571
361 1 0.00314277 0.00139934 0.829378
290 1 0.0945882 0.0673063 0.666669
362 1 0.0972593 0.091226 0.829446
315 1 0.0793785 0.161284 0.738298
317 1 0.168094 0.163372 0.67541
321 1 0.322536 0.163886 0.672147
295 1 0.242435 0.000324767 0.749909
296 1 0.174101 0.0963353 0.759966
299 1 0.411558 0.00748834 0.742979
300 1 0.333393 0.0737664 0.733811
323 1 0.422853 0.164249 0.749912
370 1 0.416698 0.0785335 0.822683
325 1 0.509832 0.165376 0.675779
304 1 0.506982 0.0732632 0.734674
302 1 0.586793 0.0850902 0.6672
374 1 0.579602 0.0685549 0.824952
308 1 0.65984 0.0857879 0.750056
306 1 0.750131 0.0929008 0.669846
312 1 0.826051 0.0778331 0.744128
405 1 0.820733 0.153279 0.818105
378 1 0.745357 0.0738584 0.821881
310 1 0.912037 0.0746589 0.67618
313 1 0.998688 0.156207 0.674903
292 1 0.990974 0.0768911 0.754734
335 1 0.908123 0.152558 0.744684
341 1 0.166446 0.327635 0.670026
320 1 0.152016 0.247105 0.747059
339 1 0.0707416 0.327829 0.758045
386 1 0.0899964 0.228064 0.832338
319 1 0.254764 0.169673 0.75371
413 1 0.166985 0.332129 0.831449
343 1 0.255471 0.327536 0.746041
393 1 0.329252 0.175956 0.831972
390 1 0.243562 0.253565 0.828296
324 1 0.334082 0.247778 0.751944
322 1 0.412876 0.254278 0.670041
394 1 0.415067 0.249562 0.825166
328 1 0.49404 0.240034 0.745863
347 1 0.423203 0.326766 0.755286
326 1 0.579284 0.269494 0.674521
327 1 0.588514 0.17115 0.747839
398 1 0.579414 0.242172 0.828236
353 1 0.667746 0.328393 0.679159
331 1 0.737187 0.175936 0.754531
332 1 0.667145 0.266262 0.76649
330 1 0.739427 0.235814 0.672967
336 1 0.828301 0.24456 0.746154
402 1 0.768013 0.249899 0.830056
355 1 0.74962 0.318613 0.748856
334 1 0.923013 0.239236 0.67039
357 1 0.834 0.320748 0.670679
316 1 0.993547 0.25814 0.763597
359 1 0.915333 0.330133 0.748598
385 1 0.995544 0.167177 0.829506
723 1 0.0827348 0.490731 0.754446
338 1 0.104408 0.4086 0.674755
410 1 0.0847786 0.41999 0.830022
337 1 0.000413376 0.334068 0.672705
725 1 0.158211 0.495965 0.679341
344 1 0.177253 0.420376 0.753676
342 1 0.251934 0.40874 0.673464
345 1 0.331013 0.336381 0.674286
731 1 0.414828 0.499524 0.75675
348 1 0.340943 0.417012 0.762971
346 1 0.417429 0.41665 0.673234
418 1 0.423516 0.403674 0.825858
350 1 0.579305 0.418112 0.668304
351 1 0.583297 0.338947 0.76084
352 1 0.501545 0.412583 0.748674
356 1 0.659176 0.436878 0.73787
739 1 0.746423 0.498425 0.751636
354 1 0.751242 0.414541 0.670856
429 1 0.833836 0.34296 0.817916
360 1 0.842898 0.411108 0.735727
340 1 0.996255 0.408243 0.746799
430 1 0.913217 0.426333 0.829658
387 1 0.0788282 0.159857 0.923568
368 1 0.158433 0.080896 0.928819
365 1 0.164794 0.000697439 0.834548
363 1 0.0840837 0.00793293 0.899051
366 1 0.245427 0.0769694 0.83581
389 1 0.184789 0.157872 0.851324
391 1 0.255156 0.165037 0.93251
367 1 0.259421 0.000699661 0.914707
6 1 0.255326 0.073667 0.994177
29 1 0.180946 0.148915 0.99695
397 1 0.497944 0.15752 0.847833
372 1 0.33783 0.0706539 0.90867
376 1 0.49085 0.0713829 0.921086
395 1 0.403938 0.155467 0.920291
399 1 0.593873 0.158451 0.914486
14 1 0.589674 0.0727177 0.999441
18 1 0.743823 0.0900566 0.999751
380 1 0.668359 0.086747 0.919617
403 1 0.748711 0.159988 0.918709
384 1 0.829179 0.0653863 0.91227
383 1 0.915621 0.00186825 0.914291
22 1 0.90722 0.0833985 0.993119
382 1 0.908147 0.0770975 0.837674
364 1 0.986651 0.0704979 0.911323
25 1 0.985953 0.160428 0.993257
411 1 0.0876906 0.318125 0.915098
417 1 0.330512 0.333274 0.84492
392 1 0.167279 0.249636 0.928744
30 1 0.255222 0.267914 0.985986
57 1 0.349392 0.33087 0.994271
396 1 0.342644 0.255691 0.916218
419 1 0.424993 0.32389 0.904737
41 1 0.664081 0.175554 0.99923
423 1 0.583578 0.328285 0.91893
401 1 0.659295 0.17109 0.833722
421 1 0.501836 0.32374 0.834565
400 1 0.503637 0.244181 0.928035
38 1 0.590555 0.2552 0.98738
404 1 0.6747 0.23785 0.913447
42 1 0.750984 0.256784 0.994904
49 1 0.990234 0.330941 0.989109
409 1 0.995954 0.331869 0.852579
388 1 0.975991 0.24356 0.920711
407 1 0.910049 0.169427 0.89686
406 1 0.90721 0.256864 0.83621
408 1 0.834972 0.252596 0.916738
416 1 0.159659 0.42009 0.919828
50 1 0.0753831 0.412334 0.982923
437 1 0.15913 0.493289 0.994588
799 1 0.2462 0.497694 0.916448
414 1 0.256493 0.414867 0.846084
415 1 0.234173 0.335175 0.915849
803 1 0.429744 0.490973 0.916136
424 1 0.495615 0.406348 0.908991
420 1 0.350978 0.42275 0.914371
422 1 0.577501 0.428302 0.845512
425 1 0.660804 0.339148 0.845433
62 1 0.579732 0.421012 0.985225
809 1 0.66694 0.496953 0.83617
426 1 0.743784 0.417405 0.834959
428 1 0.669738 0.414692 0.917718
427 1 0.77015 0.342855 0.921868
432 1 0.825455 0.436009 0.901426
412 1 0.993758 0.420875 0.920921
453 1 0.833353 0.485674 0.998967
431 1 0.902892 0.349261 0.911115
70 1 0.919239 0.425292 0.99673
440 1 0.138474 0.583382 0.0796362
436 1 0.00267872 0.587281 0.0844891
533 1 0.156348 0.653545 0.160438
435 1 0.0829653 0.500747 0.0852704
461 1 0.160084 0.666122 0.0124981
444 1 0.331694 0.582556 0.0759295
463 1 0.242607 0.658211 0.0885695
537 1 0.32725 0.664136 0.155362
439 1 0.252886 0.504255 0.0742799
510 1 0.240635 0.585304 0.16552
448 1 0.503111 0.577647 0.091599
471 1 0.594594 0.65898 0.079174
518 1 0.583209 0.573722 0.163112
446 1 0.584247 0.588134 0.00283292
452 1 0.675557 0.578782 0.0900766
545 1 0.686355 0.666256 0.157999
475 1 0.75284 0.657901 0.0761439
456 1 0.829169 0.578085 0.0692161
525 1 0.82916 0.50096 0.158625
479 1 0.920506 0.665987 0.0806607
526 1 0.922473 0.577173 0.157085
549 1 0.842789 0.652239 0.14904
455 1 0.914261 0.500586 0.087469
433 1 0.996873 0.509222 0.00651126
477 1 0.842585 0.654887 0.00483366
459 1 0.0650762 0.680025 0.087244
530 1 0.0868838 0.761567 0.162929
465 1 0.328139 0.670145 0.007082
464 1 0.174086 0.755405 0.0839115
468 1 0.330121 0.767933 0.0741189
467 1 0.426266 0.671892 0.0930678
466 1 0.408291 0.734169 0.00976821
491 1 0.415664 0.832487 0.100377
472 1 0.502521 0.736522 0.0851687
542 1 0.585959 0.753174 0.163498
470 1 0.574239 0.757972 0.00287161
476 1 0.681294 0.754659 0.0820899
480 1 0.830172 0.744527 0.0642699
546 1 0.76705 0.761147 0.161463
569 1 0.6688 0.82778 0.160429
473 1 0.676731 0.673476 0.00504807
460 1 0.995394 0.756576 0.0788016
503 1 0.916747 0.831062 0.0972758
550 1 0.907211 0.750006 0.165901
478 1 0.917755 0.746291 0.00635346
3 1 0.0742956 0.998092 0.0862978
483 1 0.0730554 0.833548 0.0810297
488 1 0.158076 0.917986 0.074856
557 1 0.159994 0.838478 0.163759
5 1 0.153157 0.994267 0.000176866
7 1 0.251028 0.986497 0.0793619
77 1 0.174513 0.98783 0.153052
487 1 0.241076 0.842879 0.0745814
81 1 0.324524 0.997506 0.161461
485 1 0.173165 0.836309 0.00258003
492 1 0.342458 0.915098 0.0875818
562 1 0.408791 0.913872 0.166483
493 1 0.494332 0.834063 0.0214421
11 1 0.441986 0.991253 0.087136
490 1 0.413049 0.912054 0.00692232
495 1 0.590244 0.834768 0.0896556
496 1 0.507185 0.912511 0.0962687
500 1 0.656269 0.911428 0.0865391
498 1 0.751959 0.922148 0.00159951
19 1 0.758006 0.994865 0.108425
499 1 0.7509 0.839166 0.0857665
504 1 0.826172 0.909948 0.081184
17 1 0.673998 0.99537 0.00713135
23 1 0.909762 0.994798 0.0807837
484 1 0.993796 0.905897 0.0803288
574 1 0.90652 0.927963 0.159935
1 1 0.985444 0.991049 0.00835117
21 1 0.834452 0.995915 0.0083614
506 1 0.077523 0.579689 0.175403
512 1 0.166113 0.576501 0.247884
581 1 0.158521 0.50004 0.327739
511 1 0.250211 0.500266 0.23942
585 1 0.324395 0.50428 0.322703
535 1 0.236063 0.665756 0.237124
517 1 0.49828 0.500721 0.174652
516 1 0.338923 0.585528 0.253459
609 1 0.334226 0.655594 0.330864
514 1 0.416386 0.588868 0.173805
539 1 0.418583 0.660728 0.245843
586 1 0.420204 0.576503 0.330298
513 1 0.337365 0.504957 0.176985
520 1 0.503208 0.573572 0.250046
541 1 0.516704 0.659597 0.170674
543 1 0.57878 0.649746 0.258424
519 1 0.58216 0.507213 0.259612
522 1 0.763821 0.589255 0.16847
523 1 0.754739 0.513842 0.24412
524 1 0.668046 0.589805 0.231534
547 1 0.752585 0.662244 0.261201
621 1 0.830326 0.664575 0.32159
508 1 0.989224 0.576021 0.248418
528 1 0.842566 0.579828 0.242332
551 1 0.913001 0.665911 0.247863
601 1 0.990146 0.665221 0.332805
531 1 0.0852438 0.672073 0.241995
529 1 0.00134451 0.677902 0.171365
536 1 0.154297 0.753235 0.250848
605 1 0.158782 0.667269 0.318426
534 1 0.236549 0.74827 0.167004
606 1 0.241458 0.751138 0.325393
540 1 0.33304 0.73513 0.256729
538 1 0.412316 0.746111 0.174075
561 1 0.336424 0.823286 0.186398
610 1 0.41601 0.75061 0.321379
565 1 0.506789 0.822133 0.168909
544 1 0.509483 0.739513 0.244492
637 1 0.513503 0.821309 0.323538
567 1 0.589899 0.829423 0.242519
614 1 0.595068 0.733238 0.327098
548 1 0.682039 0.743558 0.233132
618 1 0.738255 0.74884 0.327905
532 1 0.996235 0.758972 0.246571
552 1 0.839888 0.761919 0.258279
553 1 0.998595 0.830297 0.168177
573 1 0.846131 0.83297 0.167573
622 1 0.913203 0.763093 0.332786
554 1 0.0886657 0.918567 0.179161
555 1 0.0813856 0.841995 0.251051
626 1 0.082273 0.923788 0.313217
558 1 0.256577 0.909861 0.173733
560 1 0.168737 0.914684 0.251406
559 1 0.238435 0.833529 0.236303
564 1 0.332188 0.929188 0.242013
633 1 0.325298 0.835311 0.313299
630 1 0.251587 0.913715 0.328979
634 1 0.41817 0.923495 0.325284
563 1 0.426004 0.837117 0.261595
568 1 0.495549 0.916458 0.229303
83 1 0.420264 0.987079 0.241825
89 1 0.662045 0.992785 0.170231
161 1 0.659596 0.994895 0.332232
566 1 0.585827 0.914504 0.17447
87 1 0.593404 0.99114 0.253004
91 1 0.754358 0.999939 0.248355
572 1 0.668378 0.910131 0.256658
571 1 0.766121 0.850936 0.258083
570 1 0.744945 0.91596 0.17756
646 1 0.92799 0.909796 0.331941
145 1 0.989905 0.993677 0.330892
556 1 0.995612 0.924246 0.244513
576 1 0.83459 0.928941 0.261987
575 1 0.9176 0.845392 0.246618
650 1 0.072269 0.575065 0.494789
579 1 0.0758513 0.500195 0.414827
578 1 0.0500175 0.579633 0.3405
584 1 0.149893 0.597838 0.417307
582 1 0.238583 0.579792 0.338471
588 1 0.32994 0.579173 0.419018
583 1 0.23949 0.517769 0.43226
613 1 0.481544 0.664326 0.33517
611 1 0.410752 0.663274 0.419622
587 1 0.425905 0.502397 0.419216
590 1 0.575882 0.581824 0.348108
592 1 0.515469 0.578876 0.432898
617 1 0.672934 0.655857 0.340933
594 1 0.752069 0.589783 0.344872
596 1 0.669352 0.578195 0.42926
666 1 0.760586 0.573408 0.479977
598 1 0.922036 0.574886 0.334128
673 1 0.98786 0.663852 0.499407
580 1 0.987658 0.575575 0.420012
600 1 0.838968 0.581237 0.402395
670 1 0.907149 0.578594 0.497375
649 1 0.998228 0.502949 0.499284
604 1 0.0141676 0.762792 0.410016
603 1 0.0691626 0.670844 0.415783
602 1 0.0920875 0.753141 0.334152
674 1 0.104073 0.746993 0.49797
607 1 0.251071 0.67172 0.405247
608 1 0.182521 0.771189 0.418048
677 1 0.174764 0.675447 0.498023
612 1 0.3418 0.743492 0.403695
635 1 0.416993 0.833104 0.391347
616 1 0.498774 0.749293 0.418762
705 1 0.344099 0.830757 0.498032
615 1 0.595804 0.671203 0.418125
620 1 0.666075 0.747667 0.414496
713 1 0.659909 0.826326 0.484708
643 1 0.754395 0.826813 0.409936
619 1 0.759221 0.673685 0.414624
624 1 0.82263 0.747312 0.409151
690 1 0.758519 0.747236 0.496736
689 1 0.678079 0.679978 0.496608
694 1 0.923821 0.74999 0.484615
623 1 0.907782 0.672492 0.407681
628 1 0.00693567 0.921008 0.415567
147 1 0.0867701 0.989377 0.413965
625 1 0.024763 0.839072 0.341977
627 1 0.0961513 0.848745 0.439638
698 1 0.0753166 0.928901 0.497972
221 1 0.164833 0.999292 0.494025
697 1 0.00348974 0.847681 0.487281
149 1 0.175285 0.985199 0.348713
632 1 0.18738 0.903699 0.419631
629 1 0.170975 0.839217 0.335437
631 1 0.267226 0.842881 0.416647
702 1 0.260155 0.910455 0.499477
157 1 0.494551 0.993816 0.338627
640 1 0.493551 0.913319 0.42236
636 1 0.337993 0.916145 0.418102
706 1 0.416994 0.922195 0.494216
639 1 0.572487 0.840029 0.420727
644 1 0.666343 0.922642 0.409992
641 1 0.660055 0.836674 0.345971
638 1 0.576235 0.911299 0.336818
710 1 0.592594 0.917763 0.488663
642 1 0.750337 0.921004 0.344522
714 1 0.751603 0.915028 0.490144
647 1 0.917401 0.8361 0.419982
648 1 0.84961 0.913498 0.414612
645 1 0.83787 0.846656 0.335013
718 1 0.931343 0.919979 0.497474
717 1 0.839329 0.833763 0.492467
652 1 0.00144782 0.593017 0.585486
675 1 0.0868293 0.662681 0.568221
653 1 0.161316 0.506003 0.506374
651 1 0.0875357 0.503026 0.591909
656 1 0.171596 0.587242 0.585293
654 1 0.256047 0.588839 0.518938
660 1 0.337395 0.568511 0.592919
683 1 0.413998 0.663925 0.588455
664 1 0.488023 0.569049 0.584191
658 1 0.40753 0.572922 0.514112
657 1 0.334329 0.502662 0.50046
685 1 0.499166 0.657127 0.505906
687 1 0.577537 0.661043 0.585273
662 1 0.591221 0.565743 0.506176
757 1 0.50091 0.647001 0.666373
734 1 0.58061 0.581523 0.651853
737 1 0.664375 0.509574 0.659441
667 1 0.742106 0.50751 0.567713
668 1 0.67867 0.587601 0.588054
738 1 0.751594 0.592837 0.666218
672 1 0.81592 0.575045 0.573746
693 1 0.823952 0.665099 0.501216
742 1 0.903147 0.59234 0.644427
671 1 0.924758 0.508031 0.58341
746 1 0.0807457 0.756103 0.62994
773 1 0.165012 0.829028 0.647494
745 1 0.00472606 0.681146 0.655406
679 1 0.256125 0.670896 0.591826
749 1 0.178255 0.67403 0.653596
680 1 0.169127 0.756936 0.580602
750 1 0.260218 0.75758 0.661181
678 1 0.253175 0.751848 0.504137
681 1 0.320316 0.668399 0.505557
701 1 0.179986 0.833292 0.509375
684 1 0.339159 0.747893 0.581666
707 1 0.408999 0.826126 0.581082
688 1 0.487643 0.744409 0.586018
709 1 0.499268 0.82691 0.502741
682 1 0.414298 0.740907 0.501271
692 1 0.666665 0.758677 0.580148
761 1 0.654116 0.675531 0.655245
686 1 0.582586 0.748238 0.506625
691 1 0.756185 0.676775 0.57819
696 1 0.829097 0.758274 0.578005
676 1 0.996188 0.772265 0.558738
695 1 0.922732 0.67718 0.578798
765 1 0.837416 0.674273 0.658859
699 1 0.0919297 0.841013 0.553818
700 1 0.00726163 0.90151 0.577692
219 1 0.0823285 0.985195 0.582164
703 1 0.259799 0.839856 0.584086
704 1 0.167828 0.922908 0.581258
774 1 0.243915 0.912878 0.663877
223 1 0.249402 0.991221 0.570744
297 1 0.325448 0.998252 0.650375
708 1 0.339797 0.908168 0.57649
227 1 0.414365 0.998194 0.580271
711 1 0.578434 0.847004 0.568242
712 1 0.503342 0.911778 0.576864
716 1 0.663281 0.932547 0.580955
782 1 0.580068 0.929709 0.65816
785 1 0.658184 0.834425 0.653623
715 1 0.746199 0.834699 0.558597
786 1 0.75444 0.917955 0.646217
769 1 0.990345 0.833495 0.655332
719 1 0.913109 0.836678 0.583295
720 1 0.843354 0.926038 0.565261
789 1 0.838458 0.835807 0.657651
722 1 0.0893758 0.594887 0.667337
794 1 0.0807883 0.594327 0.825573
728 1 0.165364 0.603738 0.752656
793 1 0.00874722 0.518658 0.818639
726 1 0.25426 0.587499 0.667929
727 1 0.250852 0.500014 0.734015
797 1 0.169606 0.504335 0.825353
733 1 0.490685 0.510627 0.668188
729 1 0.343033 0.500831 0.675643
753 1 0.343603 0.664837 0.670266
730 1 0.410773 0.587756 0.675639
732 1 0.345217 0.585494 0.766935
735 1 0.574671 0.510422 0.751325
736 1 0.503453 0.592939 0.750779
759 1 0.592184 0.665794 0.749614
741 1 0.825875 0.502409 0.670245
740 1 0.668406 0.589635 0.736743
810 1 0.730187 0.590749 0.820864
813 1 0.83225 0.514835 0.831816
744 1 0.841814 0.591228 0.75454
724 1 0.999316 0.595932 0.742961
743 1 0.919274 0.501852 0.753328
747 1 0.0795954 0.680064 0.739811
818 1 0.0735195 0.754173 0.825712
771 1 0.0773721 0.817434 0.737952
752 1 0.174642 0.749497 0.750875
751 1 0.251816 0.673104 0.752586
775 1 0.254488 0.830185 0.754094
754 1 0.410911 0.758354 0.667298
755 1 0.420509 0.6711 0.762913
756 1 0.34262 0.746368 0.746463
826 1 0.424105 0.750696 0.830425
760 1 0.505957 0.752415 0.755264
758 1 0.569394 0.742487 0.669124
764 1 0.653152 0.757505 0.739516
857 1 0.661386 0.828046 0.821353
763 1 0.726607 0.679307 0.750104
762 1 0.755041 0.754639 0.670291
834 1 0.743925 0.761075 0.823104
768 1 0.821825 0.745694 0.752678
861 1 0.828383 0.825796 0.830684
766 1 0.906948 0.75519 0.672431
748 1 0.993631 0.759314 0.734345
767 1 0.916466 0.668199 0.736465
791 1 0.914142 0.826091 0.753879
817 1 0.988847 0.679811 0.824178
293 1 0.162961 0.989166 0.673965
291 1 0.0848824 0.998208 0.754322
770 1 0.0823846 0.895589 0.671024
776 1 0.168322 0.921699 0.755048
846 1 0.260522 0.923737 0.824963
369 1 0.330981 0.999541 0.828219
781 1 0.499063 0.843695 0.682273
778 1 0.422184 0.929549 0.667356
850 1 0.418041 0.9103 0.828184
780 1 0.333922 0.938705 0.73899
777 1 0.340645 0.842359 0.667912
779 1 0.403313 0.839427 0.751679
784 1 0.497955 0.92311 0.754555
373 1 0.489649 0.999678 0.829442
303 1 0.586984 0.991683 0.747317
783 1 0.583297 0.839435 0.746515
377 1 0.672917 0.994957 0.825136
858 1 0.740843 0.906883 0.829621
788 1 0.672331 0.931707 0.732995
787 1 0.749802 0.845003 0.73688
307 1 0.75554 0.999676 0.752318
311 1 0.917453 0.99402 0.761888
772 1 0.996779 0.89713 0.749157
790 1 0.910466 0.921764 0.66832
792 1 0.841102 0.911175 0.758071
309 1 0.833859 0.984552 0.671889
795 1 0.0797321 0.502221 0.907482
434 1 0.0786252 0.592158 0.994058
796 1 0.00446734 0.586968 0.91212
800 1 0.159029 0.578993 0.916594
798 1 0.246196 0.593912 0.837528
804 1 0.330255 0.580587 0.918522
823 1 0.243616 0.659686 0.920657
801 1 0.330015 0.503248 0.851007
438 1 0.256361 0.574898 0.98712
802 1 0.426441 0.582501 0.835976
808 1 0.496423 0.586345 0.918891
442 1 0.418569 0.574672 0.994583
469 1 0.494878 0.664795 0.993392
805 1 0.512097 0.507209 0.83944
806 1 0.585375 0.578951 0.838843
812 1 0.663701 0.599167 0.907792
831 1 0.581447 0.665973 0.92389
807 1 0.599287 0.509587 0.928599
811 1 0.745053 0.511757 0.916438
816 1 0.822663 0.583652 0.911924
837 1 0.82224 0.665966 0.842133
450 1 0.748108 0.58656 0.996616
449 1 0.675806 0.510129 0.998131
815 1 0.921585 0.504669 0.906805
814 1 0.926074 0.595481 0.836165
839 1 0.91071 0.659978 0.920868
454 1 0.917764 0.56899 0.992937
821 1 0.157752 0.671334 0.845156
819 1 0.0798367 0.679491 0.90313
843 1 0.107888 0.833263 0.916721
458 1 0.0701401 0.74275 0.984723
822 1 0.255536 0.744379 0.839174
845 1 0.179128 0.824258 0.839051
849 1 0.324835 0.833204 0.833523
824 1 0.181193 0.756417 0.931646
825 1 0.331199 0.667693 0.835835
828 1 0.333066 0.742902 0.911832
462 1 0.267711 0.753458 0.994143
851 1 0.421829 0.821076 0.916096
827 1 0.416576 0.672912 0.917064
829 1 0.504279 0.673158 0.833335
833 1 0.655831 0.678962 0.835451
830 1 0.581261 0.761132 0.838974
832 1 0.502917 0.748959 0.912642
836 1 0.668428 0.755646 0.918874
840 1 0.830606 0.754126 0.923602
835 1 0.746889 0.67298 0.919988
474 1 0.743959 0.7628 0.992842
841 1 0.999638 0.828576 0.840559
457 1 0.987186 0.668396 0.989771
820 1 0.988024 0.756388 0.915209
863 1 0.921795 0.832769 0.921615
838 1 0.902355 0.749986 0.845648
501 1 0.837458 0.833318 0.999584
842 1 0.0980159 0.899805 0.834923
844 1 0.00567742 0.927721 0.909914
482 1 0.0751447 0.914319 0.986566
486 1 0.266592 0.920252 0.993914
848 1 0.172576 0.917748 0.924548
847 1 0.255624 0.836257 0.908459
856 1 0.490561 0.918576 0.920114
371 1 0.416944 0.995138 0.90653
852 1 0.337173 0.924133 0.909141
489 1 0.340038 0.837277 0.984342
494 1 0.588762 0.927403 0.995618
375 1 0.574281 0.992791 0.907188
855 1 0.580147 0.836353 0.924515
860 1 0.663767 0.912165 0.910897
853 1 0.500419 0.841983 0.844168
854 1 0.583815 0.90807 0.838299
13 1 0.507476 0.994389 0.999591
497 1 0.673686 0.847903 0.995306
859 1 0.754811 0.844328 0.915715
379 1 0.751437 0.992214 0.916076
381 1 0.840041 0.991845 0.833802
862 1 0.918484 0.908062 0.843439
864 1 0.834507 0.920098 0.925089
481 1 0.997704 0.844097 0.989331
502 1 0.921743 0.914751 0.988952
