ITEM: TIMESTEP
8100
ITEM: NUMBER OF ATOMS
864
ITEM: BOX BOUNDS pp pp pp
0.0000000000000000e+00 3.1559999999999999e+01
0.0000000000000000e+00 3.1559999999999999e+01
0.0000000000000000e+00 3.1559999999999999e+01
ITEM: ATOMS id type xs ys zs
4 1 0.994962 0.0792308 0.0863824
8 1 0.15484 0.070625 0.0855759
101 1 0.164654 0.167468 0.156739
669 1 0.835119 0.492248 0.489188
577 1 1.00742 0.521275 0.332176
505 1 0.00105117 0.499889 0.175315
105 1 0.329337 0.169735 0.165729
50 1 0.0722241 0.417189 0.00159861
12 1 0.321482 0.0935073 0.0686185
16 1 0.500901 0.0898446 0.0759003
35 1 0.403343 0.156975 0.0755506
109 1 0.501093 0.172533 0.157437
82 1 0.425981 0.0928894 0.148658
213 1 0.834036 0.330924 0.350236
39 1 0.58759 0.171512 0.0793412
527 1 0.924624 0.501434 0.255578
515 1 0.419196 0.508568 0.24506
91 1 0.734958 0.00453408 0.261775
20 1 0.676469 0.100514 0.0896186
90 1 0.758012 0.0930283 0.168058
24 1 0.836861 0.0906404 0.0913068
94 1 0.926127 0.0788957 0.178614
286 1 0.919941 0.413892 0.491305
117 1 0.835126 0.161161 0.174446
27 1 0.0787656 0.163016 0.0926943
97 1 -0.0102161 0.161078 0.167169
98 1 0.0933687 0.253278 0.163971
15 1 0.603748 -0.00658195 0.0848871
249 1 0.357868 0.162312 0.491887
32 1 0.1629 0.257382 0.0794834
31 1 0.244663 0.170602 0.0776468
11 1 0.412174 -0.0031738 0.0860614
83 1 0.420752 -0.00411676 0.242222
36 1 0.324016 0.256904 0.0935079
59 1 0.396207 0.350909 0.0937708
455 1 0.910869 0.50692 0.0942772
106 1 0.417261 0.239671 0.169699
7 1 0.256713 0.00209157 0.106042
6 1 0.227484 0.084931 0.00824597
40 1 0.470753 0.262587 0.0758234
133 1 0.479884 0.337215 0.169371
110 1 0.56094 0.26082 0.150455
43 1 0.768332 0.159884 0.0728649
44 1 0.663144 0.265186 0.0915398
114 1 0.736519 0.27141 0.156407
597 1 0.826303 0.493899 0.333026
30 1 0.241729 0.259963 0.0158416
28 1 0.00226702 0.26514 0.0773982
48 1 0.830507 0.256892 0.0875951
19 1 0.74887 -0.00608697 0.0749329
47 1 0.909594 0.169258 0.0788974
85 1 0.500039 0.00246568 0.164384
18 1 0.755243 0.0775822 -0.00475704
41 1 0.677102 0.157397 -0.00993933
51 1 0.0752902 0.334264 0.0774315
56 1 0.15571 0.420459 0.0844489
52 1 0.00429502 0.413171 0.110537
55 1 0.256866 0.341362 0.0927159
126 1 0.246555 0.433234 0.166035
159 1 0.592713 0.0100222 0.420354
525 1 0.845355 0.49104 0.181548
60 1 0.327347 0.429397 0.0866222
130 1 0.426635 0.426055 0.169159
63 1 0.598249 0.33843 0.0711121
64 1 0.504129 0.405504 0.0885298
134 1 0.589397 0.423809 0.161254
46 1 0.921322 0.269902 0.00718
274 1 0.424418 0.417721 0.514138
68 1 0.676107 0.420794 0.0814179
67 1 0.758695 0.341072 0.0820544
138 1 0.745341 0.413503 0.170998
137 1 0.661145 0.349062 0.181652
157 1 0.513096 0.00329978 0.324971
281 1 0.682383 0.322881 0.501757
71 1 0.920291 0.341245 0.0970773
72 1 0.820571 0.420594 0.0923303
142 1 0.927818 0.407356 0.186768
87 1 0.596152 0.00713164 0.235075
589 1 0.498362 0.500064 0.340995
149 1 0.172333 0.0136207 0.33735
74 1 0.0813996 0.0702146 0.173196
146 1 0.0865523 0.0851467 0.351009
99 1 0.0760588 0.160178 0.238376
78 1 0.256056 0.0852786 0.15449
80 1 0.165309 0.0888932 0.241583
84 1 0.33695 0.079973 0.235983
103 1 0.247201 0.162646 0.254181
150 1 0.267076 0.0863407 0.323628
173 1 0.166328 0.160419 0.340385
177 1 0.338467 0.167775 0.329639
107 1 0.425886 0.16936 0.251957
214 1 0.910449 0.410977 0.350998
86 1 0.586985 0.090677 0.147504
216 1 0.818919 0.42134 0.411993
88 1 0.505193 0.0877961 0.24104
158 1 0.590185 0.0841178 0.314944
92 1 0.668616 0.0941186 0.229617
115 1 0.743223 0.189367 0.23997
10 1 0.414256 0.0796717 -0.00355927
210 1 0.757046 0.403898 0.328412
76 1 1.00285 0.0704637 0.258959
96 1 0.82514 0.0698999 0.255295
100 1 0.00704551 0.242237 0.234259
123 1 0.0964468 0.330514 0.258779
170 1 0.0692214 0.240461 0.333674
102 1 0.245563 0.238024 0.161609
104 1 0.158415 0.240955 0.255717
108 1 0.321334 0.251791 0.243564
174 1 0.255696 0.254652 0.344169
129 1 0.311855 0.327575 0.175651
131 1 0.402428 0.343439 0.246359
201 1 0.324699 0.353302 0.33373
178 1 0.421973 0.266138 0.321029
111 1 0.580437 0.157239 0.228118
112 1 0.515751 0.244565 0.239874
182 1 0.586198 0.263379 0.334342
135 1 0.57312 0.345564 0.248177
181 1 0.532687 0.171254 0.324683
113 1 0.671496 0.183751 0.16533
116 1 0.647974 0.261648 0.250348
185 1 0.653942 0.18531 0.323664
186 1 0.749654 0.246168 0.334648
209 1 0.668321 0.322081 0.335162
120 1 0.833908 0.257432 0.272978
119 1 0.91452 0.159264 0.244388
118 1 0.922883 0.257665 0.168836
190 1 0.920566 0.25185 0.343917
122 1 0.0866406 0.428445 0.177154
121 1 0.0124916 0.343254 0.181684
212 1 0.672791 0.400072 0.416782
222 1 0.255589 0.0866245 0.508037
125 1 0.151327 0.339115 0.165687
127 1 0.24017 0.325039 0.252846
128 1 0.175915 0.417683 0.235681
198 1 0.236677 0.426033 0.340717
132 1 0.320761 0.420123 0.242693
202 1 0.412749 0.416568 0.330511
447 1 0.595819 0.502842 0.0848587
81 1 0.343873 0.000525521 0.165652
206 1 0.580368 0.414811 0.348323
136 1 0.501445 0.41888 0.246574
140 1 0.655266 0.424254 0.247044
139 1 0.752621 0.328541 0.253478
437 1 0.155291 0.500163 0.00613584
187 1 0.748669 0.15743 0.401355
141 1 0.829425 0.328839 0.185805
143 1 0.923128 0.327053 0.258765
124 1 -0.00306691 0.422269 0.262676
144 1 0.837539 0.408437 0.263221
169 1 0.997228 0.157662 0.330897
148 1 -0.0107118 0.0785013 0.412557
277 1 0.499678 0.336336 0.493814
208 1 0.495646 0.426015 0.42248
152 1 0.169699 0.0859485 0.435614
175 1 0.260804 0.158289 0.413034
156 1 0.349655 0.0825097 0.407982
246 1 0.255441 0.239422 0.509753
154 1 0.436472 0.083984 0.318598
160 1 0.511642 0.0823463 0.403026
69 1 0.811851 0.31816 -0.00125357
163 1 0.745233 0.0201439 0.414248
183 1 0.578142 0.170716 0.418883
204 1 0.323971 0.40623 0.436696
215 1 0.933773 0.327893 0.422321
189 1 0.832193 0.170492 0.338898
153 1 0.337258 0.00334112 0.313713
164 1 0.654845 0.0958107 0.402456
162 1 0.751193 0.0846617 0.32495
200 1 0.15898 0.406146 0.426433
211 1 0.754059 0.332202 0.421011
199 1 0.247081 0.314113 0.430138
166 1 0.917187 0.085432 0.332886
191 1 0.924501 0.155255 0.411558
168 1 0.842836 0.094217 0.420421
188 1 0.663235 0.230956 0.424742
171 1 0.0748378 0.158934 0.42111
195 1 0.0845876 0.31564 0.422673
172 1 -0.00291883 0.240225 0.421093
176 1 0.157888 0.226176 0.428863
451 1 0.741905 0.508866 0.0824206
523 1 0.757611 0.503505 0.25067
194 1 0.0861946 0.410703 0.330343
180 1 0.338463 0.252062 0.416
197 1 0.168752 0.343264 0.335234
196 1 0.00386361 0.415398 0.411787
179 1 0.413743 0.187163 0.409784
203 1 0.413082 0.332921 0.411874
192 1 0.852905 0.248304 0.420581
193 1 0.00290094 0.337305 0.333763
207 1 0.586529 0.327628 0.418748
205 1 0.500396 0.348264 0.344559
184 1 0.498214 0.249505 0.413747
229 1 0.505632 0.00122945 0.499907
665 1 0.659105 0.50113 0.485739
250 1 0.419162 0.265009 0.488453
233 1 0.664792 -0.00198356 0.498779
254 1 0.580897 0.250854 0.496829
453 1 0.839398 0.508071 0.0129376
22 1 0.91349 0.0713428 0.0136509
266 1 0.0765924 0.41436 0.500549
70 1 0.916241 0.412248 0.0134025
226 1 0.418929 0.0712214 0.4862
661 1 0.517878 0.506308 0.507933
238 1 0.921562 0.0769708 0.504968
54 1 0.255521 0.415619 0.00302941
282 1 0.744331 0.409283 0.499555
649 1 -0.00571691 0.489621 0.496583
49 1 0.00255755 0.331064 -0.00842275
258 1 0.767139 0.234074 0.478725
234 1 0.762636 0.0871937 0.492432
285 1 0.833107 0.33706 0.491471
33 1 0.329223 0.168747 -0.00852833
2 1 0.0848751 0.0779032 -0.000878191
14 1 0.599773 0.064498 0.012777
224 1 0.159332 0.0760712 0.57952
220 1 0.999377 0.0872023 0.587701
269 1 0.167053 0.316651 0.510087
657 1 0.331489 0.491591 0.513473
231 1 0.57347 0.00173617 0.586336
228 1 0.324323 0.0893577 0.581427
303 1 0.580077 0.00229338 0.741794
793 1 0.989249 0.507665 0.845481
803 1 0.410673 0.506724 0.923638
298 1 0.411146 0.0935721 0.64604
241 1 0.987174 0.165104 0.501787
1 1 0.0026663 0.000465413 1.01108
309 1 0.831724 -0.0130354 0.671931
232 1 0.49245 0.0753718 0.582243
255 1 0.591937 0.166408 0.589837
302 1 0.570414 0.0798193 0.665374
445 1 0.497152 0.506677 0.988846
236 1 0.679454 0.0634245 0.578481
412 1 -0.0159276 0.417049 0.916894
807 1 0.574858 0.500522 0.916137
240 1 0.831235 0.0714916 0.58372
263 1 0.914504 0.176625 0.602816
38 1 0.577502 0.244599 1.00234
262 1 0.917978 0.262854 0.504593
243 1 0.073915 0.16622 0.580547
248 1 0.168658 0.240968 0.58528
267 1 0.0824483 0.329864 0.592588
247 1 0.261683 0.176716 0.585765
271 1 0.260877 0.318864 0.59167
345 1 0.325177 0.336628 0.676333
251 1 0.42309 0.175427 0.579307
252 1 0.345833 0.244264 0.579163
322 1 0.419034 0.241584 0.68554
275 1 0.424364 0.335169 0.578122
223 1 0.246396 0.000488242 0.58833
256 1 0.506207 0.244269 0.572967
279 1 0.603558 0.320359 0.581801
260 1 0.677256 0.240287 0.588761
325 1 0.517261 0.178734 0.670399
329 1 0.665253 0.153326 0.665694
259 1 0.764343 0.152765 0.578306
330 1 0.748619 0.247323 0.669736
371 1 0.419533 -0.0085074 0.91636
383 1 0.917266 5.50313e-05 0.924058
264 1 0.849725 0.262624 0.590288
244 1 1.0026 0.254757 0.603212
297 1 0.32816 0.00849167 0.670844
338 1 0.0743829 0.403769 0.665803
268 1 1.01731 0.412148 0.582431
299 1 0.401156 0.00228214 0.759208
13 1 0.514026 0.00875001 1.00874
272 1 0.161797 0.427895 0.57493
342 1 0.235828 0.424975 0.675648
245 1 0.169484 0.170004 0.508308
369 1 0.322533 0.00535858 0.840998
432 1 0.828249 0.42679 0.930358
276 1 0.332688 0.412315 0.602937
427 1 0.762509 0.34446 0.91457
219 1 0.0715876 0.00522789 0.582658
377 1 0.663693 -0.00126932 0.819145
280 1 0.504042 0.43297 0.585613
349 1 0.498833 0.333041 0.660306
426 1 0.745528 0.420922 0.847467
353 1 0.678597 0.330346 0.657553
795 1 0.0896048 0.499641 0.912251
367 1 0.246246 0.0177201 0.92357
284 1 0.664981 0.417532 0.568275
283 1 0.75926 0.305016 0.57543
288 1 0.827192 0.414172 0.571579
354 1 0.751627 0.414709 0.653538
57 1 0.327894 0.338319 1.00391
797 1 0.15578 0.493126 0.826559
287 1 0.93081 0.339285 0.587494
357 1 0.828068 0.33365 0.663151
419 1 0.41447 0.33672 0.916223
290 1 0.0838536 0.0725718 0.681049
237 1 0.8372 0.00543979 0.486245
62 1 0.586535 0.407988 1.00072
418 1 0.403628 0.421319 0.830241
296 1 0.172132 0.0761167 0.750446
294 1 0.24226 0.0913407 0.67104
300 1 0.322889 0.087588 0.740815
319 1 0.241255 0.164468 0.753
323 1 0.41256 0.159201 0.764558
304 1 0.500837 0.0915626 0.746373
327 1 0.596516 0.167796 0.745378
374 1 0.581437 0.093496 0.83012
306 1 0.749972 0.0681218 0.65599
308 1 0.678067 0.0750727 0.742238
312 1 0.821515 0.0704775 0.748108
331 1 0.753805 0.162276 0.755653
401 1 0.655274 0.173706 0.840238
310 1 0.923728 0.0767485 0.671285
333 1 0.828088 0.153848 0.682944
313 1 1.01065 0.16301 0.677697
301 1 0.479388 -0.00879974 0.694573
292 1 0.999416 0.0921906 0.757482
335 1 0.912785 0.1579 0.747613
314 1 0.0916532 0.247226 0.654416
315 1 0.0826339 0.160935 0.75868
320 1 0.163712 0.252721 0.74899
317 1 0.154446 0.169417 0.670517
321 1 0.33539 0.166733 0.666051
318 1 0.246598 0.256245 0.683075
324 1 0.330818 0.24237 0.748646
343 1 0.244184 0.34219 0.752396
394 1 0.405148 0.251337 0.831486
326 1 0.589388 0.258242 0.664626
328 1 0.502698 0.256007 0.749084
398 1 0.570916 0.244292 0.840209
332 1 0.666785 0.251225 0.744242
355 1 0.749912 0.336277 0.749364
336 1 0.836849 0.249638 0.73793
316 1 1.00208 0.247666 0.766387
334 1 0.933008 0.25174 0.68363
359 1 0.894703 0.348319 0.744238
406 1 0.91795 0.263461 0.840507
341 1 0.175423 0.332358 0.646489
337 1 0.0179351 0.314582 0.684594
339 1 0.0746967 0.335421 0.773763
340 1 0.9919 0.411413 0.746327
409 1 0.992641 0.341556 0.834711
659 1 0.412454 0.497827 0.588789
61 1 0.508051 0.337242 0.998087
344 1 0.141357 0.422422 0.751481
348 1 0.322865 0.427304 0.751188
347 1 0.417709 0.329943 0.756309
346 1 0.407381 0.411111 0.678501
352 1 0.490975 0.422461 0.768767
53 1 0.162442 0.334799 1.00198
422 1 0.581125 0.411885 0.829052
351 1 0.570097 0.347346 0.740045
350 1 0.583545 0.408093 0.640265
356 1 0.671274 0.424033 0.74257
423 1 0.584821 0.325063 0.926911
425 1 0.65407 0.334503 0.814529
430 1 0.912682 0.421236 0.828534
358 1 0.90691 0.40912 0.663851
360 1 0.814887 0.428541 0.763821
362 1 0.0836786 0.0697425 0.832174
417 1 0.323425 0.334177 0.836182
368 1 0.156825 0.0756687 0.918414
420 1 0.324597 0.425916 0.907097
428 1 0.664941 0.414697 0.926185
366 1 0.2361 0.0936757 0.835133
391 1 0.241975 0.16417 0.932953
393 1 0.330582 0.14084 0.834089
372 1 0.329172 0.0838588 0.926369
424 1 0.486081 0.414863 0.917058
291 1 0.0874295 -0.0207211 0.754629
370 1 0.415464 0.0754503 0.8439
376 1 0.498256 0.0815057 0.932479
397 1 0.496708 0.163158 0.846338
380 1 0.670372 0.0756798 0.921884
416 1 0.152815 0.406303 0.910572
723 1 0.0726099 0.510333 0.745999
414 1 0.246957 0.415315 0.829096
378 1 0.752488 0.0833341 0.835532
415 1 0.247165 0.325539 0.908006
382 1 0.905804 0.0657269 0.836103
364 1 0.014373 0.0705057 0.914998
384 1 0.82211 0.0839167 0.917213
387 1 0.0910233 0.16459 0.93408
388 1 0.992362 0.239333 0.919222
386 1 0.072003 0.238109 0.843168
392 1 0.161374 0.247859 0.911771
389 1 0.156779 0.164706 0.836841
390 1 0.244005 0.240308 0.827851
396 1 0.310485 0.24897 0.912055
395 1 0.416809 0.161845 0.911747
399 1 0.582584 0.158919 0.925902
400 1 0.47639 0.248927 0.920739
404 1 0.654113 0.248645 0.917221
34 1 0.386214 0.257612 1.00285
402 1 0.751068 0.269625 0.829402
403 1 0.745199 0.171118 0.902012
405 1 0.851895 0.16765 0.836788
408 1 0.843877 0.23867 0.920235
431 1 0.905475 0.347159 0.903383
429 1 0.830471 0.342832 0.827454
385 1 -0.00140019 0.157344 0.847865
407 1 0.926917 0.139423 0.924214
421 1 0.488009 0.332849 0.839457
410 1 0.0550001 0.422994 0.838065
413 1 0.16404 0.320114 0.835793
411 1 0.0719116 0.328099 0.904847
66 1 0.760295 0.444267 1.00017
227 1 0.403391 -0.00540635 0.583183
293 1 0.175628 -0.00645314 0.675296
295 1 0.252966 0.00669458 0.756182
373 1 0.502198 0.0131079 0.835116
242 1 0.0805704 0.244623 0.497862
37 1 0.493391 0.160517 0.999925
270 1 0.24959 0.412424 0.50012
65 1 0.680085 0.340635 1.00482
278 1 0.581014 0.400458 0.491341
45 1 0.835773 0.155615 0.984174
273 1 0.332213 0.330259 0.506891
449 1 0.657195 0.501131 0.990538
58 1 0.410424 0.401474 1.00997
25 1 -0.00403915 0.15731 1.00925
29 1 0.160246 0.176033 1.01612
42 1 0.747724 0.242258 1.0015
230 1 0.594221 0.077591 0.51488
265 1 1.0096 0.326549 0.502438
218 1 0.0727958 0.0836542 0.489087
261 1 0.843719 0.167922 0.504325
253 1 0.509396 0.150367 0.495107
257 1 0.669769 0.167203 0.508522
26 1 0.0737115 0.24638 1.0057
459 1 0.0641311 0.655715 0.0894076
436 1 0.992696 0.568971 0.0813619
628 1 -0.00153998 0.919518 0.412407
440 1 0.166585 0.58273 0.0882358
463 1 0.247064 0.679769 0.0843544
151 1 0.263867 1.00211 0.41262
165 1 0.826726 1.00676 0.338121
450 1 0.76199 0.585066 -0.00844122
435 1 0.0794016 0.504736 0.0956096
444 1 0.356543 0.569154 0.0802178
448 1 0.50907 0.576673 0.0849897
507 1 0.085807 0.506662 0.25841
454 1 0.92031 0.592809 -0.00260785
452 1 0.668509 0.585075 0.102149
439 1 0.247528 0.515467 0.073255
518 1 0.588763 0.585786 0.176516
456 1 0.834336 0.578161 0.0839931
549 1 0.846507 0.676329 0.168613
475 1 0.753418 0.649438 0.0878451
641 1 0.665466 0.828796 0.32514
167 1 0.909687 1.00334 0.410527
526 1 0.907973 0.590083 0.181755
73 1 0.00404972 0.985553 0.174506
479 1 0.931988 0.663324 0.0838382
648 1 0.824002 0.918545 0.420715
464 1 0.153299 0.739849 0.0860836
460 1 0.98632 0.752929 0.0890531
483 1 0.0887786 0.835739 0.0830981
487 1 0.269539 0.816227 0.0863402
468 1 0.35187 0.757353 0.0629228
561 1 0.347505 0.828199 0.1686
467 1 0.435924 0.678352 0.0778594
491 1 0.431608 0.833569 0.0688669
537 1 0.353747 0.671806 0.145077
538 1 0.435174 0.76026 0.155924
541 1 0.510644 0.65836 0.155174
472 1 0.521215 0.756448 0.0844774
471 1 0.588793 0.661504 0.0910578
476 1 0.665827 0.745506 0.0992804
542 1 0.591631 0.741709 0.176465
495 1 0.593369 0.841964 0.076245
587 1 0.388834 0.484507 0.419318
519 1 0.57682 0.497066 0.254174
443 1 0.436184 0.50069 0.0755579
499 1 0.750016 0.821496 0.0802266
591 1 0.576004 0.499033 0.416523
546 1 0.745472 0.750382 0.174424
480 1 0.836428 0.747221 0.0998547
550 1 0.916907 0.773527 0.174455
503 1 0.909879 0.846809 0.09208
573 1 0.82169 0.836332 0.159192
509 1 0.168682 0.503024 0.180048
75 1 0.0909139 0.998368 0.258542
644 1 0.659338 0.908949 0.414962
554 1 0.088223 0.907744 0.15947
484 1 1.0001 0.913339 0.0754171
581 1 0.157746 0.492764 0.350627
488 1 0.177038 0.921453 0.097866
492 1 0.344625 0.912017 0.0820681
93 1 0.83553 1.0022 0.166564
496 1 0.515107 0.920701 0.0764484
565 1 0.51722 0.839916 0.161809
155 1 0.408189 0.999369 0.41152
566 1 0.597334 0.912085 0.168486
569 1 0.66473 0.836839 0.163411
511 1 0.244733 0.505357 0.265722
640 1 0.488731 0.925726 0.411955
639 1 0.576158 0.841728 0.428448
500 1 0.680743 0.904898 0.0852154
570 1 0.746087 0.914334 0.160688
585 1 0.330583 0.489868 0.324637
504 1 0.83228 0.918637 0.0869589
583 1 0.258519 0.495586 0.423773
77 1 0.177785 1.00069 0.175554
501 1 0.820513 0.826027 0.00842599
482 1 0.0790592 0.913114 -0.000187043
529 1 0.995651 0.677466 0.174047
506 1 0.0865829 0.575277 0.169523
508 1 0.000815206 0.589352 0.244068
578 1 0.0838815 0.602818 0.341386
510 1 0.253091 0.580659 0.167655
635 1 0.423861 0.837213 0.419468
512 1 0.171946 0.583307 0.254709
533 1 0.159804 0.663509 0.162984
516 1 0.336716 0.579584 0.257518
514 1 0.429188 0.581674 0.164039
95 1 0.9064 0.996677 0.257626
586 1 0.412436 0.569991 0.337395
517 1 0.507485 0.502144 0.157252
520 1 0.504551 0.596954 0.252189
524 1 0.671574 0.60065 0.249481
590 1 0.587547 0.579199 0.333452
630 1 0.26984 0.926499 0.333604
522 1 0.760164 0.582376 0.166962
528 1 0.83959 0.595288 0.2599
547 1 0.749721 0.666472 0.243138
594 1 0.750303 0.594209 0.324249
617 1 0.672723 0.68418 0.331926
636 1 0.337874 0.909763 0.418252
551 1 0.919746 0.681829 0.249245
598 1 0.927214 0.583943 0.325489
147 1 0.0904408 1.00189 0.416799
530 1 0.0758014 0.756404 0.150379
557 1 0.185551 0.837631 0.146788
553 1 -6.11756e-05 0.835759 0.163806
531 1 0.0939425 0.661288 0.244071
555 1 0.0914958 0.82888 0.248008
535 1 0.257459 0.65955 0.238221
536 1 0.16979 0.734498 0.249964
534 1 0.244108 0.737334 0.173902
540 1 0.352503 0.744279 0.237864
609 1 0.328358 0.659734 0.345742
539 1 0.417461 0.662062 0.235743
610 1 0.412419 0.734681 0.331429
545 1 0.675184 0.661287 0.167496
543 1 0.590197 0.673252 0.265463
544 1 0.501339 0.751869 0.238011
614 1 0.584513 0.744284 0.343628
637 1 0.503792 0.842653 0.330251
548 1 0.667183 0.750623 0.250061
621 1 0.840133 0.676304 0.340365
552 1 0.820853 0.749869 0.25989
571 1 0.745998 0.843713 0.247977
532 1 0.996065 0.765618 0.255913
575 1 0.91038 0.843445 0.255596
626 1 0.0961202 0.91447 0.340142
556 1 1.01474 0.905046 0.258731
560 1 0.167252 0.906891 0.244637
604 1 0.994531 0.74987 0.421245
558 1 0.261339 0.921109 0.166905
559 1 0.253752 0.825384 0.239872
625 1 0.00574283 0.831689 0.340063
562 1 0.426058 0.914416 0.159566
563 1 0.426549 0.837107 0.253051
564 1 0.350914 0.914997 0.243182
634 1 0.414249 0.916423 0.329951
627 1 0.107946 0.842448 0.422304
567 1 0.581234 0.839092 0.26006
568 1 0.515239 0.931561 0.25305
638 1 0.572573 0.919901 0.344155
572 1 0.664863 0.918389 0.248592
642 1 0.760675 0.921705 0.342334
576 1 0.822109 0.92149 0.246111
622 1 0.919808 0.772341 0.339558
574 1 0.910639 0.922872 0.175594
646 1 0.92713 0.914026 0.329804
647 1 0.9158 0.835209 0.425233
601 1 0.00482989 0.680958 0.325036
580 1 0.994081 0.59558 0.410453
584 1 0.158672 0.583998 0.415892
603 1 0.0786078 0.678394 0.413613
458 1 0.0848486 0.741583 -0.00561254
618 1 0.75681 0.747826 0.335171
643 1 0.762842 0.829136 0.41248
582 1 0.25566 0.583644 0.338998
588 1 0.327227 0.576605 0.412762
611 1 0.409982 0.673342 0.424815
457 1 -0.00286637 0.663195 -0.00847634
521 1 0.658856 0.50205 0.180264
592 1 0.485404 0.567472 0.429208
595 1 0.744254 0.496783 0.409242
596 1 0.664899 0.580206 0.407491
600 1 0.834989 0.581041 0.407105
632 1 0.181094 0.918376 0.414553
470 1 0.599438 0.742998 0.00532248
145 1 1.0151 0.998554 0.333332
619 1 0.750198 0.665636 0.398524
502 1 0.904338 0.904757 -0.00750339
623 1 0.924161 0.67198 0.409111
23 1 0.918018 0.996405 0.0900436
602 1 0.0956672 0.741439 0.333577
608 1 0.177859 0.751702 0.410458
629 1 0.17007 0.82241 0.317515
620 1 0.67107 0.749795 0.41028
605 1 0.17309 0.662317 0.333205
607 1 0.246278 0.670525 0.417826
631 1 0.250077 0.827239 0.395909
633 1 0.34407 0.81816 0.336352
606 1 0.266238 0.752481 0.314553
161 1 0.65372 0.993793 0.33447
612 1 0.321919 0.752123 0.424727
613 1 0.494278 0.659724 0.359727
624 1 0.848297 0.750179 0.417498
615 1 0.599672 0.66522 0.411463
616 1 0.492565 0.754439 0.409398
645 1 0.842334 0.847225 0.336451
89 1 0.67507 0.993249 0.157174
673 1 1.01154 0.667014 0.497214
682 1 0.420244 0.75253 0.491196
698 1 0.0912614 0.930252 0.507951
79 1 0.25032 0.999819 0.250159
650 1 0.0829125 0.589779 0.494527
221 1 0.186025 0.999386 0.501333
666 1 0.754439 0.58445 0.484292
709 1 0.4996 0.836879 0.491796
478 1 0.910976 0.753948 0.00551717
579 1 0.0767603 0.505841 0.405614
513 1 0.340184 0.504298 0.159008
599 1 0.925603 0.506986 0.407897
593 1 0.671562 0.496606 0.331213
3 1 0.0823838 0.9938 0.0841065
693 1 0.828117 0.659969 0.467836
705 1 0.334361 0.830835 0.507677
685 1 0.494809 0.66481 0.497225
689 1 0.6798 0.672334 0.482163
674 1 0.0944835 0.755944 0.491453
697 1 0.0101292 0.843181 0.498828
462 1 0.256243 0.747375 -0.00313565
433 1 0.00200075 0.502443 -0.00933274
686 1 0.580288 0.743903 0.49248
653 1 0.167884 0.492554 0.483615
477 1 0.839184 0.670359 0.00333307
217 1 0.00250656 1.00078 0.498939
662 1 0.57851 0.589281 0.492641
481 1 1.00336 0.8249 0.000978888
473 1 0.680269 0.646662 0.0201171
438 1 0.243851 0.575009 -0.0097258
486 1 0.25503 0.918674 0.0058241
714 1 0.736296 0.913558 0.488727
485 1 0.177045 0.849282 0.00890391
490 1 0.425584 0.924356 0.00616411
474 1 0.732597 0.751417 -0.00301418
5 1 0.172973 0.992656 0.00897342
656 1 0.162345 0.59107 0.591614
722 1 0.0879644 0.600595 0.678768
721 1 0.0164591 0.507975 0.654001
660 1 0.327133 0.58864 0.588141
726 1 0.253121 0.591275 0.674803
753 1 0.343005 0.673303 0.664072
683 1 0.42458 0.663337 0.56964
664 1 0.494051 0.583357 0.578112
730 1 0.412716 0.583278 0.652441
734 1 0.593317 0.583397 0.652824
741 1 0.822193 0.501718 0.657009
668 1 0.664755 0.587083 0.56323
691 1 0.748397 0.673656 0.567439
738 1 0.73346 0.580236 0.658649
862 1 0.917789 0.921968 0.825838
672 1 0.830822 0.59581 0.571041
652 1 0.988963 0.587125 0.583734
305 1 0.674125 0.987532 0.658771
667 1 0.742077 0.486737 0.571706
675 1 0.0708003 0.653421 0.58329
699 1 0.0813452 0.855247 0.578569
680 1 0.150442 0.750967 0.590325
676 1 0.01312 0.751503 0.558141
749 1 0.168251 0.685365 0.67402
679 1 0.24699 0.664938 0.587419
750 1 0.253965 0.754752 0.666973
684 1 0.325452 0.752757 0.582766
381 1 0.819396 0.997949 0.839394
754 1 0.419636 0.756215 0.673935
688 1 0.49888 0.75282 0.564154
725 1 0.156042 0.508231 0.664907
687 1 0.574537 0.667575 0.57506
758 1 0.573531 0.750965 0.65742
677 1 0.152803 0.663307 0.511064
737 1 0.666467 0.492986 0.660384
692 1 0.660223 0.753997 0.578049
715 1 0.754045 0.844657 0.575278
696 1 0.83912 0.767291 0.58138
761 1 0.673201 0.668003 0.646603
739 1 0.750778 0.502946 0.760081
695 1 0.912575 0.663393 0.576435
719 1 0.91412 0.8326 0.575224
494 1 0.593299 0.920887 0.996914
735 1 0.593527 0.492717 0.754956
770 1 0.0818467 0.910762 0.68029
704 1 0.17565 0.916021 0.598339
239 1 0.912788 0.994598 0.58524
703 1 0.255412 0.836204 0.592924
708 1 0.333371 0.922507 0.59974
707 1 0.429546 0.834161 0.585445
778 1 0.414563 0.900285 0.671373
777 1 0.331514 0.83469 0.674734
694 1 0.913218 0.735556 0.493263
711 1 0.56632 0.830691 0.58451
712 1 0.494362 0.918835 0.601415
805 1 0.504768 0.507261 0.835068
782 1 0.57907 0.922054 0.662215
785 1 0.654467 0.83108 0.651734
716 1 0.66314 0.918339 0.579258
720 1 0.836254 0.922298 0.58179
864 1 0.839556 0.913145 0.913991
655 1 0.23951 0.501193 0.563008
311 1 0.907188 0.997309 0.747688
700 1 -0.00736906 0.921108 0.583346
844 1 -0.0138237 0.921961 0.914981
307 1 0.744888 0.991191 0.747103
724 1 0.99809 0.586081 0.746765
745 1 0.00485713 0.656902 0.670658
747 1 0.0838583 0.671823 0.748643
817 1 0.978546 0.662605 0.833224
794 1 0.0796126 0.582906 0.823311
815 1 0.914096 0.49649 0.935431
859 1 0.755653 0.833422 0.900715
728 1 0.16529 0.575287 0.746797
732 1 0.351924 0.584534 0.738383
681 1 0.335008 0.66381 0.50675
858 1 0.748536 0.920564 0.824762
736 1 0.513114 0.577703 0.743793
658 1 0.414215 0.575057 0.504148
757 1 0.509168 0.658067 0.661477
802 1 0.409366 0.581757 0.848984
740 1 0.673441 0.576237 0.760324
806 1 0.582975 0.582778 0.835805
743 1 0.903703 0.488197 0.741788
744 1 0.825624 0.577872 0.732075
763 1 0.747638 0.677417 0.739848
810 1 0.756431 0.576191 0.839344
742 1 0.914665 0.582853 0.660864
465 1 0.331332 0.657977 0.99861
746 1 0.0684301 0.745603 0.660107
818 1 0.0771735 0.759419 0.849628
748 1 0.00813223 0.745138 0.756268
752 1 0.155548 0.762635 0.749119
751 1 0.253615 0.671262 0.761361
756 1 0.327546 0.742541 0.75373
825 1 0.336474 0.652758 0.832542
755 1 0.427777 0.657669 0.75151
760 1 0.485061 0.748928 0.74796
759 1 0.591156 0.655337 0.752346
830 1 0.590228 0.758182 0.826178
764 1 0.655726 0.734852 0.727672
833 1 0.672352 0.679098 0.820274
762 1 0.744032 0.765118 0.669407
768 1 0.834867 0.7455 0.739282
789 1 0.834896 0.834757 0.680865
787 1 0.74988 0.833847 0.747708
834 1 0.758349 0.754123 0.81733
765 1 0.834738 0.657131 0.653847
766 1 0.920071 0.75171 0.649035
767 1 0.912251 0.674244 0.744028
841 1 0.986484 0.831607 0.835067
838 1 0.908502 0.740264 0.826696
791 1 0.92951 0.815955 0.737606
769 1 0.00282721 0.830296 0.656478
771 1 0.0860932 0.844091 0.764711
773 1 0.164413 0.836929 0.665583
776 1 0.175462 0.902386 0.743966
845 1 0.168108 0.830033 0.847311
774 1 0.247568 0.91153 0.671355
775 1 0.248383 0.831431 0.755783
780 1 0.336689 0.920409 0.749772
781 1 0.504291 0.830161 0.670027
466 1 0.427937 0.765417 0.971403
779 1 0.412596 0.83532 0.755131
850 1 0.418959 0.927859 0.830447
784 1 0.495361 0.900325 0.752374
671 1 0.911526 0.482196 0.588304
783 1 0.582414 0.82507 0.749595
788 1 0.659663 0.921394 0.747489
854 1 0.570759 0.928868 0.833846
733 1 0.501118 0.509099 0.656161
857 1 0.669543 0.844331 0.824418
786 1 0.743 0.902611 0.670796
792 1 0.827179 0.917417 0.750047
772 1 0.998568 0.916809 0.749739
790 1 0.912429 0.904655 0.668101
821 1 0.160724 0.678489 0.837724
819 1 0.0629485 0.666078 0.905289
727 1 0.242799 0.496887 0.753941
663 1 0.587631 0.508032 0.591879
809 1 0.667452 0.499396 0.842767
361 1 1.00303 1.0009 0.8139
375 1 0.592813 1.00113 0.920289
800 1 0.154014 0.597927 0.92118
798 1 0.23867 0.584064 0.832956
823 1 0.250461 0.668553 0.899985
804 1 0.329802 0.577472 0.918569
469 1 0.520175 0.664077 1.00304
729 1 0.323083 0.506883 0.650019
799 1 0.215418 0.50781 0.911486
365 1 0.168205 0.999655 0.828414
813 1 0.838589 0.497581 0.841368
808 1 0.505512 0.586666 0.920415
831 1 0.604716 0.670341 0.929466
812 1 0.668851 0.591267 0.896296
816 1 0.843608 0.582828 0.923554
289 1 0.990843 0.991913 0.667867
690 1 0.747074 0.759873 0.497963
856 1 0.497012 0.913269 0.924517
851 1 0.417362 0.845342 0.903843
814 1 0.909639 0.567574 0.826208
796 1 -0.00870495 0.583033 0.919411
839 1 0.918892 0.67348 0.925219
847 1 0.261351 0.826254 0.913644
852 1 0.334877 0.916465 0.906224
17 1 0.670449 0.987981 1.00078
848 1 0.187559 0.919885 0.916714
824 1 0.182285 0.747677 0.92154
843 1 0.0752063 0.831658 0.930586
849 1 0.322189 0.833793 0.832909
822 1 0.241169 0.753902 0.831879
828 1 0.336571 0.748215 0.910912
860 1 0.656649 0.914758 0.908339
842 1 0.0607998 0.902316 0.84706
461 1 0.174004 0.66205 1.00566
829 1 0.494537 0.669932 0.828596
826 1 0.412841 0.740192 0.836522
827 1 0.415811 0.66499 0.916728
853 1 0.485168 0.819105 0.833001
846 1 0.254183 0.925844 0.830487
855 1 0.575123 0.836893 0.903034
832 1 0.516249 0.747199 0.917589
836 1 0.676831 0.762577 0.892936
840 1 0.829433 0.757259 0.921159
835 1 0.730069 0.663722 0.93003
837 1 0.836947 0.655704 0.831303
863 1 0.915468 0.823207 0.915934
861 1 0.841024 0.81832 0.836246
820 1 1.00279 0.748518 0.916814
811 1 0.74739 0.506871 0.917507
717 1 0.838489 0.846486 0.496653
651 1 0.0907524 0.513867 0.572057
710 1 0.566064 0.909749 0.512846
363 1 0.0844082 0.981443 0.920428
434 1 0.0797622 0.588094 1.00054
731 1 0.419449 0.512105 0.749127
235 1 0.76531 0.989304 0.586752
801 1 0.308126 0.506761 0.831504
442 1 0.423709 0.595667 0.99531
379 1 0.737472 0.997177 0.913855
441 1 0.32637 0.500168 1.00144
225 1 0.318014 1.00118 0.501386
713 1 0.661321 0.829546 0.508076
21 1 0.829743 1.00876 1.00913
497 1 0.655087 0.831945 0.991094
493 1 0.51047 0.827868 0.996704
706 1 0.407382 0.916004 0.504362
498 1 0.752018 0.919644 0.986427
718 1 0.925184 0.922766 0.487252
654 1 0.253241 0.593932 0.4893
489 1 0.340817 0.843325 0.994611
678 1 0.241665 0.740527 0.50231
701 1 0.166028 0.836007 0.512458
702 1 0.265864 0.909525 0.500708
446 1 0.591725 0.584545 1.00213
670 1 0.916443 0.563002 0.503323
9 1 0.31404 1.00306 1.0067
