ITEM: TIMESTEP
21000
ITEM: NUMBER OF ATOMS
5324
ITEM: BOX BOUNDS pp pp pp
0.0000000000000000e+00 5.7859999999999999e+01
0.0000000000000000e+00 5.7859999999999999e+01
0.0000000000000000e+00 5.7859999999999999e+01
ITEM: ATOMS id type xs ys zs
47 1 0.0446121 0.0899784 0.0473551
8 1 0.089806 0.0492635 0.0372412
291 1 0.0864625 0.0823804 0.0931631
244 1 0.0410878 0.0412307 0.0858982
243 1 0.000313715 0.000824271 0.0888103
51 1 0.129568 0.0891032 0.0455599
248 1 0.140048 0.0427356 0.0926899
295 1 0.173948 0.0897918 0.0916032
6 1 0.140248 0.0428945 0.00889617
12 1 0.183758 0.0429945 0.049112
55 1 0.222152 0.0812445 0.0542295
252 1 0.233164 0.0369524 0.0957538
53 1 0.182893 0.0891033 0.00660921
10 1 0.230808 0.044191 0.0125257
16 1 0.277981 0.0444459 0.0482153
299 1 0.274734 0.0874174 0.0883265
59 1 0.323704 0.0828993 0.0470809
256 1 0.321148 0.0480368 0.0949539
13 1 0.28223 0.00120682 0.00494259
14 1 0.333633 0.0447818 0.00320103
20 1 0.370691 0.0415425 0.0465523
303 1 0.368935 0.0817832 0.0973032
63 1 0.413156 0.0898402 0.0495
260 1 0.417399 0.04811 0.0910537
259 1 0.367812 0.0021606 0.0967481
19 1 0.406965 0.000148099 0.043744
61 1 0.373442 0.088899 0.0023737
21 1 0.452038 0.00163711 0.00977545
24 1 0.461797 0.0451031 0.05053
307 1 0.46051 0.089403 0.0930058
67 1 0.507725 0.0954781 0.0466704
264 1 0.500222 0.0426928 0.0952931
28 1 0.542773 0.0419078 0.0427205
23 1 0.501581 0.00382647 0.0523448
267 1 0.544487 0.00359929 0.0994598
311 1 0.554518 0.0866368 0.0873036
71 1 0.599244 0.0910942 0.0451944
268 1 0.59241 0.0422323 0.0925377
26 1 0.594117 0.0487481 0.000749701
27 1 0.585086 0.00148183 0.0509456
69 1 0.552104 0.092909 0.00500896
31 1 0.679775 0.00248482 0.0566114
32 1 0.639296 0.0461233 0.0433175
272 1 0.692258 0.0484339 0.0962826
75 1 0.691033 0.0851006 0.0453751
315 1 0.639288 0.0919693 0.0911937
30 1 0.688071 0.0394581 0.00777423
271 1 0.637097 0.00920318 0.0947577
73 1 0.63948 0.0925383 0.00218203
319 1 0.733875 0.0991076 0.0903911
36 1 0.727975 0.0387322 0.0496393
79 1 0.779704 0.0920549 0.0491562
276 1 0.772632 0.0387923 0.0902394
40 1 0.817756 0.045401 0.0542308
77 1 0.74163 0.0878569 0.00831289
283 1 0.905667 0.00492609 0.0922729
323 1 0.821019 0.0961638 0.091847
280 1 0.869465 0.0518778 0.0936543
83 1 0.869664 0.0983063 0.0428011
38 1 0.854089 0.0506227 0.00911126
287 1 0.995068 0.087173 0.0933216
4 1 0.994721 0.0486923 0.0364774
44 1 0.914124 0.0497089 0.0438895
327 1 0.916739 0.0921081 0.0965749
284 1 0.95223 0.042706 0.087785
87 1 0.957083 0.0912081 0.0512552
42 1 0.951479 0.0460462 0.00117105
91 1 0.047081 0.180854 0.053832
288 1 0.0459122 0.132206 0.0949036
52 1 0.0880223 0.135933 0.041925
48 1 0.00334463 0.134981 0.0433172
331 1 0.00135184 0.174984 0.0973272
93 1 0.0866835 0.173902 0.0013765
46 1 0.0418348 0.133835 0.00329107
335 1 0.0959163 0.183289 0.093067
95 1 0.140796 0.185503 0.0532019
56 1 0.170208 0.132783 0.044954
339 1 0.181757 0.179075 0.0936262
97 1 0.181554 0.183867 0.00756187
99 1 0.240109 0.180174 0.0407995
296 1 0.222894 0.133548 0.0812144
343 1 0.267846 0.181505 0.096125
54 1 0.234132 0.132742 0.00434454
60 1 0.276066 0.128964 0.0478353
103 1 0.318024 0.171621 0.0490433
300 1 0.328903 0.122456 0.0908898
58 1 0.330835 0.127924 0.0020694
105 1 0.35937 0.176911 0.00346246
347 1 0.365741 0.176708 0.0958166
64 1 0.375052 0.133034 0.0483298
107 1 0.414113 0.174764 0.0537429
304 1 0.412032 0.133291 0.0964543
68 1 0.456915 0.133978 0.0533356
351 1 0.467102 0.182153 0.0974986
111 1 0.501828 0.177938 0.0437106
66 1 0.505177 0.138726 0.00130846
109 1 0.460485 0.175442 0.00971057
72 1 0.556316 0.136732 0.0449299
355 1 0.550554 0.177511 0.0883093
115 1 0.596175 0.185274 0.051206
312 1 0.598025 0.131894 0.0996286
113 1 0.553191 0.182796 0.00528392
74 1 0.680059 0.135963 0.00451805
359 1 0.638845 0.179962 0.0909904
76 1 0.637701 0.133898 0.045212
119 1 0.680529 0.181881 0.0508096
316 1 0.679466 0.136903 0.0939786
80 1 0.722544 0.13757 0.0458938
117 1 0.641387 0.183324 0.00529301
363 1 0.730515 0.198444 0.0921526
123 1 0.773155 0.181074 0.0475323
320 1 0.776174 0.141253 0.0862024
367 1 0.812884 0.196032 0.0919596
121 1 0.731604 0.193502 0.00953992
84 1 0.821602 0.136028 0.042446
127 1 0.864883 0.178155 0.0393705
324 1 0.859428 0.143656 0.0894638
371 1 0.913421 0.181889 0.0920566
88 1 0.912567 0.133826 0.0485928
131 1 0.95512 0.177514 0.0497208
129 1 0.910315 0.190937 0.00198228
86 1 0.952732 0.149281 0.000188836
137 1 0.0899257 0.266793 0.0017823
135 1 0.048923 0.276908 0.0496417
332 1 0.0433796 0.232671 0.0989211
96 1 0.0869997 0.223442 0.048341
92 1 0.0069081 0.225128 0.0494964
375 1 0.00280496 0.276492 0.0931478
133 1 0.00345204 0.275747 0.0082467
379 1 0.0957753 0.272328 0.0896647
139 1 0.139332 0.269912 0.0438143
336 1 0.144128 0.223177 0.0958902
100 1 0.179288 0.228608 0.046818
94 1 0.129982 0.221543 0.00378941
383 1 0.189641 0.267439 0.0920874
143 1 0.225446 0.264495 0.0416865
340 1 0.225587 0.224128 0.086017
104 1 0.272025 0.228271 0.0416311
387 1 0.27289 0.268406 0.0851532
147 1 0.317039 0.266986 0.0444443
344 1 0.322985 0.227418 0.0914879
391 1 0.35837 0.270695 0.0929739
102 1 0.31914 0.224999 0.00424343
108 1 0.368066 0.213791 0.0466948
151 1 0.411918 0.267143 0.0430604
348 1 0.407381 0.225042 0.0861011
112 1 0.45219 0.221244 0.0497814
395 1 0.454513 0.260303 0.0909743
106 1 0.408875 0.221019 0.00181765
149 1 0.367149 0.263429 0.00184292
155 1 0.497911 0.279314 0.0453496
352 1 0.503845 0.227137 0.0817955
399 1 0.544273 0.277611 0.0839268
110 1 0.494853 0.231306 7.74376e-05
157 1 0.541636 0.281279 0.00166484
116 1 0.547012 0.23004 0.0453826
159 1 0.587608 0.266882 0.0401812
356 1 0.594953 0.234798 0.0840096
161 1 0.631839 0.269843 0.0051875
120 1 0.639587 0.224027 0.044929
403 1 0.637604 0.268958 0.0825402
163 1 0.686407 0.273405 0.0506881
407 1 0.720056 0.272501 0.0953891
118 1 0.683168 0.229381 0.00581105
124 1 0.730988 0.237349 0.0487149
167 1 0.775412 0.279217 0.0538808
364 1 0.770204 0.236512 0.0932156
128 1 0.817468 0.228716 0.0429646
165 1 0.734262 0.271244 0.00516977
169 1 0.82081 0.275963 0.00435321
411 1 0.82194 0.282676 0.0967013
171 1 0.859432 0.278756 0.0494688
368 1 0.869009 0.228323 0.0931939
415 1 0.905771 0.274294 0.0891217
173 1 0.902291 0.278523 0.000530285
132 1 0.914115 0.223814 0.0493966
175 1 0.953285 0.291358 0.0456261
372 1 0.958814 0.228411 0.0943595
130 1 0.953435 0.234287 0.00761251
179 1 0.0524767 0.363157 0.0429246
376 1 0.0549441 0.323187 0.097055
136 1 0.0102841 0.321587 0.0540942
419 1 0.00221328 0.369914 0.0920321
177 1 0.00393154 0.358835 0.00131386
134 1 0.0424696 0.317141 0.00284205
181 1 0.0908087 0.357845 0.00874154
185 1 0.179479 0.361968 0.00388607
140 1 0.0959252 0.318746 0.0445245
423 1 0.100782 0.358835 0.0903136
183 1 0.140624 0.360457 0.0511326
380 1 0.145122 0.311026 0.0884596
144 1 0.181525 0.31549 0.0444221
427 1 0.188315 0.356262 0.0891702
187 1 0.228853 0.363058 0.0465119
384 1 0.235579 0.315155 0.0877256
431 1 0.268652 0.361914 0.0935634
189 1 0.272067 0.365874 0.00297254
148 1 0.274078 0.315165 0.0418049
191 1 0.316523 0.357763 0.0448302
388 1 0.31162 0.315594 0.0868779
152 1 0.35806 0.311492 0.0409148
435 1 0.358256 0.356105 0.0921558
195 1 0.402264 0.360704 0.040922
156 1 0.448027 0.313848 0.0439875
392 1 0.401041 0.315241 0.0855256
439 1 0.447284 0.358375 0.0831327
154 1 0.504506 0.32468 0.0017045
199 1 0.503176 0.361851 0.0514874
396 1 0.50136 0.319012 0.0903553
197 1 0.457828 0.36419 0.00940602
160 1 0.548617 0.321458 0.0486223
443 1 0.546537 0.358547 0.0970399
203 1 0.592342 0.366649 0.0444687
400 1 0.59813 0.319976 0.0918628
164 1 0.632161 0.318068 0.0444033
444 1 0.596832 0.398801 0.0957866
447 1 0.644771 0.364439 0.088866
207 1 0.684586 0.370293 0.0367453
404 1 0.680693 0.317822 0.092672
168 1 0.725087 0.320014 0.050115
451 1 0.72624 0.359025 0.0905458
211 1 0.769423 0.368856 0.0424188
408 1 0.78185 0.3326 0.0941651
166 1 0.775514 0.318916 0.000196518
172 1 0.818327 0.323536 0.044537
455 1 0.824265 0.369502 0.0893982
215 1 0.858315 0.365429 0.0412722
412 1 0.866169 0.328129 0.0882003
176 1 0.904045 0.324475 0.0462896
459 1 0.914668 0.364655 0.0931822
219 1 0.953693 0.359388 0.0413996
416 1 0.962148 0.31612 0.0995362
178 1 0.0490617 0.410927 0.0050696
222 1 0.0493935 0.454141 0.0478244
420 1 0.0537305 0.410479 0.089323
2905 1 0.0436088 0.495815 0.0891689
2666 1 0.0886753 0.492948 0.0415982
221 1 0.00062756 0.449865 0.000925377
184 1 0.0979996 0.405014 0.0479707
188 1 0.177015 0.413161 0.0526741
465 1 0.0999991 0.453257 0.0902123
224 1 0.140802 0.463039 0.0471656
424 1 0.137934 0.410195 0.0983373
223 1 0.101499 0.448008 0.00602825
225 1 0.176927 0.452599 0.00410723
2907 1 0.140066 0.493457 0.0956533
2670 1 0.265906 0.495647 0.0464505
2909 1 0.225979 0.49373 0.0962734
467 1 0.182131 0.454308 0.0994126
226 1 0.22303 0.45041 0.0500683
428 1 0.223842 0.404116 0.0960323
469 1 0.266379 0.452483 0.0931686
186 1 0.222876 0.408633 0.00481765
2667 1 0.225763 0.496769 0.000635965
227 1 0.266663 0.454202 0.00962606
192 1 0.274609 0.407281 0.0528468
432 1 0.320736 0.402257 0.0923281
228 1 0.318101 0.448972 0.0517442
196 1 0.356267 0.405309 0.0480704
229 1 0.357258 0.445141 0.0105134
2672 1 0.369673 0.496383 0.0478323
2913 1 0.415635 0.498539 0.090769
471 1 0.363779 0.455525 0.0904522
436 1 0.405081 0.402898 0.0931998
230 1 0.41134 0.453412 0.0462871
200 1 0.44884 0.41147 0.0434277
194 1 0.408918 0.410901 0.00158915
2671 1 0.411481 0.491945 0.00319026
2673 1 0.505229 0.499575 0.00260861
198 1 0.49892 0.405812 0.00663468
473 1 0.458685 0.455178 0.0884955
232 1 0.501798 0.453966 0.0434564
440 1 0.501124 0.407655 0.0938278
2674 1 0.459413 0.496319 0.0497204
2915 1 0.499083 0.499585 0.0911059
231 1 0.459269 0.453223 0.00107257
2676 1 0.551691 0.493683 0.0466182
204 1 0.546662 0.40705 0.0459165
475 1 0.552067 0.451324 0.0921648
234 1 0.590306 0.446742 0.0498486
2917 1 0.593545 0.497494 0.0945306
233 1 0.55413 0.450467 0.00104635
477 1 0.632654 0.448947 0.0913932
2678 1 0.631694 0.488384 0.0476396
235 1 0.635244 0.452083 0.0028124
2675 1 0.589271 0.49447 0.00158348
448 1 0.687469 0.41165 0.0963674
208 1 0.637201 0.404629 0.0416765
236 1 0.683342 0.447232 0.0410535
2919 1 0.678 0.490686 0.0846683
2677 1 0.676597 0.499229 0.00345471
212 1 0.731113 0.410391 0.0511517
479 1 0.738115 0.449969 0.0955865
452 1 0.77517 0.406771 0.0901635
238 1 0.777041 0.444322 0.0471368
2680 1 0.737695 0.496102 0.0550408
481 1 0.819517 0.452352 0.0930477
216 1 0.826703 0.411708 0.0427454
240 1 0.870125 0.454776 0.0391854
456 1 0.86813 0.415142 0.0875048
220 1 0.908018 0.406531 0.0311768
2923 1 0.870182 0.492685 0.0891057
2684 1 0.909065 0.49765 0.0381268
2682 1 0.819172 0.499479 0.0391709
180 1 0.998436 0.402559 0.0442983
483 1 0.918566 0.457382 0.0951608
463 1 0.999677 0.454204 0.0824343
242 1 0.952366 0.451307 0.0431112
460 1 0.954524 0.410487 0.0828648
2664 1 0.99898 0.496324 0.041821
2925 1 0.962687 0.496114 0.0855783
289 1 0.0516547 0.0944364 0.138663
486 1 0.0461273 0.0483648 0.195422
250 1 0.0781413 0.0456491 0.140541
246 1 0.00719311 0.0433326 0.134133
529 1 0.00612501 0.0963727 0.177792
489 1 0.0910432 0.00132065 0.184159
533 1 0.0951779 0.0830771 0.183102
490 1 0.145165 0.0395142 0.177639
293 1 0.13804 0.0972391 0.143638
254 1 0.187298 0.0445801 0.137414
537 1 0.185148 0.0842157 0.187633
494 1 0.229156 0.0437166 0.184133
297 1 0.23331 0.0911882 0.135632
541 1 0.274567 0.0828911 0.185115
258 1 0.273239 0.0418471 0.141109
498 1 0.320704 0.0453886 0.18288
301 1 0.320683 0.0912539 0.136935
262 1 0.366803 0.0306117 0.141808
545 1 0.36793 0.0866649 0.179347
305 1 0.414676 0.0875055 0.138972
502 1 0.419393 0.0400409 0.183264
549 1 0.45724 0.0850158 0.181605
266 1 0.460575 0.0468711 0.134222
506 1 0.499852 0.0415299 0.181455
309 1 0.503492 0.0892724 0.14408
270 1 0.544643 0.0445374 0.143751
553 1 0.550458 0.0923406 0.181306
313 1 0.583889 0.0788852 0.13749
510 1 0.59454 0.0442631 0.183841
269 1 0.598801 0.00510024 0.141929
274 1 0.640903 0.0503009 0.133085
557 1 0.639309 0.0905047 0.182912
317 1 0.682231 0.0965543 0.139191
514 1 0.684737 0.0465304 0.183491
513 1 0.640585 0.00602848 0.190709
273 1 0.674926 0.00550355 0.140889
517 1 0.728421 0.000681522 0.176953
561 1 0.73271 0.0913579 0.177262
278 1 0.736436 0.0489173 0.128907
518 1 0.775698 0.0437528 0.171571
565 1 0.819843 0.0909334 0.179839
282 1 0.822174 0.046197 0.131635
522 1 0.86369 0.0520704 0.174825
281 1 0.872954 0.00133891 0.136999
286 1 0.91172 0.0460883 0.138557
569 1 0.913248 0.0987435 0.177806
526 1 0.946466 0.0435206 0.187024
329 1 0.95594 0.0818602 0.138268
333 1 0.053058 0.179122 0.131541
530 1 0.0445277 0.146197 0.18494
573 1 0.00791839 0.191218 0.185509
577 1 0.085868 0.193038 0.18088
290 1 0.00511766 0.136951 0.141469
292 1 0.141041 0.139735 0.100349
294 1 0.0918142 0.132031 0.139463
337 1 0.134877 0.179456 0.143989
534 1 0.142988 0.136512 0.184523
581 1 0.188816 0.178756 0.182618
298 1 0.187459 0.133979 0.135995
341 1 0.225377 0.177812 0.135499
538 1 0.224405 0.135691 0.181057
585 1 0.269083 0.175542 0.179891
302 1 0.274581 0.135238 0.135944
345 1 0.321764 0.174567 0.13653
542 1 0.310083 0.133208 0.182579
589 1 0.367216 0.181246 0.181565
306 1 0.366926 0.136389 0.137264
349 1 0.411192 0.179167 0.138281
546 1 0.408118 0.133939 0.185037
308 1 0.508024 0.131059 0.105172
310 1 0.454892 0.136344 0.144391
593 1 0.456963 0.185136 0.181591
353 1 0.511493 0.190194 0.139168
550 1 0.508206 0.146556 0.178906
597 1 0.550735 0.197352 0.183683
314 1 0.554981 0.137544 0.143262
357 1 0.589031 0.190904 0.136887
554 1 0.598058 0.135662 0.181213
318 1 0.639393 0.143794 0.141949
601 1 0.64589 0.186237 0.187186
361 1 0.693609 0.182673 0.139067
558 1 0.680261 0.139677 0.17922
321 1 0.781734 0.103262 0.130582
322 1 0.728149 0.141509 0.137238
605 1 0.736232 0.185156 0.180359
365 1 0.774403 0.181033 0.130051
562 1 0.775905 0.137023 0.17789
325 1 0.865129 0.100564 0.133865
326 1 0.827484 0.148395 0.135675
609 1 0.822127 0.18513 0.18223
369 1 0.874879 0.184651 0.139919
566 1 0.866047 0.139876 0.188451
328 1 0.95955 0.13222 0.101492
330 1 0.916458 0.139821 0.137727
613 1 0.920224 0.183791 0.184996
373 1 0.955895 0.187404 0.133868
570 1 0.960278 0.138985 0.186973
377 1 0.050477 0.278021 0.137321
574 1 0.0462567 0.237438 0.180145
617 1 0.00509842 0.277941 0.177285
338 1 0.0933533 0.226985 0.132135
621 1 0.0962206 0.274185 0.18948
381 1 0.144474 0.274202 0.130032
578 1 0.135784 0.231614 0.182106
625 1 0.175693 0.273292 0.181038
342 1 0.17864 0.226093 0.140364
385 1 0.227105 0.269878 0.139222
582 1 0.22149 0.226723 0.178851
629 1 0.265745 0.271745 0.184468
346 1 0.274572 0.216856 0.135234
389 1 0.311878 0.267253 0.14114
586 1 0.331147 0.224042 0.178922
633 1 0.373635 0.272721 0.176649
350 1 0.36678 0.22199 0.136473
393 1 0.410307 0.263276 0.134218
590 1 0.409988 0.222512 0.183219
637 1 0.452788 0.264169 0.184389
354 1 0.460015 0.223029 0.135267
397 1 0.506476 0.268542 0.127129
594 1 0.501322 0.227676 0.189743
358 1 0.555142 0.239402 0.134471
641 1 0.554271 0.267953 0.189644
401 1 0.602019 0.278308 0.135489
598 1 0.599359 0.229033 0.18569
360 1 0.680561 0.23027 0.102086
362 1 0.64169 0.224631 0.146618
645 1 0.63781 0.270491 0.194497
405 1 0.666995 0.278883 0.140141
602 1 0.68959 0.235945 0.177657
649 1 0.735189 0.275852 0.178917
366 1 0.733121 0.232736 0.136439
409 1 0.774641 0.280978 0.132596
606 1 0.775857 0.225584 0.176625
370 1 0.816778 0.234314 0.137087
653 1 0.824801 0.273748 0.183416
413 1 0.867533 0.273985 0.139341
610 1 0.866575 0.22789 0.186911
374 1 0.910704 0.230382 0.13613
657 1 0.910112 0.271758 0.184424
334 1 0.999866 0.228814 0.140558
417 1 0.954997 0.269777 0.139892
614 1 0.959248 0.229987 0.187466
421 1 0.0423121 0.37859 0.138975
618 1 0.0477279 0.316686 0.177613
378 1 0.00900985 0.322445 0.134343
382 1 0.0992471 0.318485 0.134274
665 1 0.0958573 0.36118 0.178796
425 1 0.140727 0.362151 0.136193
622 1 0.143586 0.318248 0.185749
386 1 0.184104 0.322066 0.139774
669 1 0.187702 0.362842 0.181732
429 1 0.234417 0.352929 0.136393
626 1 0.225573 0.317175 0.185201
673 1 0.270237 0.362052 0.185009
390 1 0.279618 0.31963 0.139207
433 1 0.313172 0.363011 0.138069
630 1 0.319877 0.32412 0.182913
394 1 0.361622 0.317591 0.139615
677 1 0.364396 0.366255 0.180519
437 1 0.411234 0.351667 0.132597
634 1 0.418214 0.313233 0.175054
398 1 0.446045 0.307274 0.121937
681 1 0.453168 0.356336 0.178929
441 1 0.495914 0.358704 0.142326
638 1 0.498084 0.303409 0.177046
685 1 0.542017 0.364043 0.175767
402 1 0.548843 0.305907 0.134287
445 1 0.582231 0.35426 0.138961
642 1 0.58878 0.312456 0.180705
689 1 0.642246 0.360004 0.19264
406 1 0.63859 0.329331 0.143929
449 1 0.685108 0.366689 0.139626
646 1 0.688734 0.314873 0.18703
410 1 0.727541 0.32052 0.135863
693 1 0.729019 0.362912 0.189146
453 1 0.779129 0.364736 0.143669
650 1 0.784512 0.314594 0.181328
697 1 0.824351 0.364099 0.187656
414 1 0.823391 0.324496 0.135627
457 1 0.868798 0.367294 0.138298
654 1 0.86486 0.31806 0.178455
418 1 0.902649 0.320136 0.13434
701 1 0.917446 0.360595 0.178513
661 1 0.999329 0.369537 0.187789
461 1 0.96362 0.379624 0.139732
658 1 0.961762 0.328619 0.169474
2906 1 0.00162917 0.499477 0.132759
464 1 0.0552315 0.466158 0.134288
662 1 0.0477272 0.413275 0.183335
707 1 0.0890548 0.467242 0.183678
422 1 0.00327498 0.427062 0.137968
2910 1 0.180249 0.493873 0.14143
666 1 0.131776 0.404656 0.180555
426 1 0.093554 0.408123 0.133809
466 1 0.135043 0.455876 0.138808
3149 1 0.140629 0.498496 0.185763
3151 1 0.22506 0.499393 0.182941
430 1 0.185586 0.402707 0.139339
709 1 0.183941 0.44657 0.187243
468 1 0.226587 0.454737 0.141585
670 1 0.231758 0.415474 0.191924
434 1 0.265453 0.404764 0.146064
711 1 0.269915 0.458242 0.189071
674 1 0.311625 0.412854 0.180502
470 1 0.314629 0.455161 0.138582
438 1 0.358724 0.408646 0.136496
713 1 0.361272 0.455752 0.178937
3155 1 0.409527 0.498143 0.176442
678 1 0.4122 0.409189 0.173592
472 1 0.409904 0.454167 0.128995
2916 1 0.450599 0.495646 0.131899
2918 1 0.545308 0.494702 0.141011
442 1 0.459421 0.40223 0.135227
715 1 0.456081 0.460371 0.178788
682 1 0.502493 0.411303 0.173059
474 1 0.497463 0.455292 0.135542
717 1 0.540639 0.453323 0.177747
3157 1 0.5013 0.499211 0.182631
446 1 0.549103 0.405898 0.132417
686 1 0.59355 0.408826 0.179817
476 1 0.596966 0.453822 0.14285
2920 1 0.635116 0.498994 0.137285
3159 1 0.592058 0.499403 0.180261
3161 1 0.685138 0.496548 0.180128
719 1 0.636773 0.455459 0.186195
450 1 0.639335 0.40613 0.136775
478 1 0.676703 0.454363 0.139242
690 1 0.683691 0.406827 0.182879
721 1 0.725036 0.447743 0.182272
454 1 0.736353 0.404315 0.136369
480 1 0.774248 0.454635 0.13961
694 1 0.778436 0.411325 0.179993
2922 1 0.72869 0.498327 0.14016
3163 1 0.779128 0.497837 0.182973
2924 1 0.826213 0.49532 0.132388
723 1 0.822111 0.459203 0.177485
458 1 0.824154 0.402306 0.137987
482 1 0.869823 0.45481 0.13838
698 1 0.873865 0.420143 0.185026
462 1 0.914739 0.412097 0.132678
705 1 0.997959 0.45583 0.185023
702 1 0.955009 0.416847 0.180308
725 1 0.916398 0.456643 0.177334
484 1 0.959111 0.458674 0.135489
2926 1 0.911377 0.498465 0.140722
531 1 0.0481841 0.0985719 0.231944
728 1 0.0391204 0.0464292 0.273283
487 1 0.045437 0.00197651 0.233658
491 1 0.145352 0.00102271 0.234096
775 1 0.0929829 0.0918381 0.270714
492 1 0.0998828 0.0477382 0.233199
535 1 0.137568 0.0910478 0.228209
732 1 0.142409 0.0448154 0.27342
779 1 0.174313 0.0908763 0.270524
495 1 0.222453 0.00757721 0.233946
496 1 0.183284 0.0502532 0.232532
736 1 0.223118 0.0439994 0.280393
539 1 0.230476 0.0836796 0.236722
783 1 0.270203 0.0855451 0.289463
500 1 0.276742 0.0446956 0.225472
740 1 0.315549 0.0441873 0.2767
543 1 0.319665 0.0873912 0.232488
504 1 0.3595 0.0473374 0.227718
787 1 0.35638 0.0954457 0.274421
499 1 0.318262 0.00170571 0.237153
744 1 0.411146 0.0461966 0.276054
547 1 0.411066 0.0871773 0.227147
743 1 0.365727 0.0125433 0.273009
747 1 0.461111 0.0110664 0.278893
791 1 0.455404 0.0917886 0.267255
508 1 0.464227 0.0430352 0.227903
748 1 0.503902 0.052479 0.280526
512 1 0.538872 0.0540261 0.227364
795 1 0.545357 0.095014 0.276754
751 1 0.543203 0.00727643 0.265371
511 1 0.597441 0.0108115 0.230567
752 1 0.591723 0.058975 0.277886
555 1 0.600074 0.0930174 0.228469
515 1 0.690691 0.0030274 0.227299
755 1 0.643517 0.00601811 0.279424
516 1 0.644547 0.0481454 0.229005
799 1 0.640988 0.0937067 0.275447
559 1 0.692152 0.0939822 0.221169
756 1 0.691579 0.0487597 0.263044
759 1 0.733419 0.00132641 0.274041
803 1 0.739996 0.0849267 0.266765
520 1 0.738851 0.0419763 0.21955
760 1 0.776392 0.0423248 0.273797
563 1 0.775516 0.0904227 0.226533
524 1 0.809653 0.043068 0.220455
807 1 0.821049 0.0884806 0.264601
764 1 0.857031 0.0397912 0.264776
567 1 0.867868 0.0891013 0.227609
528 1 0.902706 0.0426886 0.227133
767 1 0.915686 0.0027556 0.274014
488 1 0.995444 0.0470643 0.218385
811 1 0.912096 0.0861063 0.272131
771 1 0.997146 0.090778 0.283481
768 1 0.957574 0.04207 0.265182
571 1 0.962652 0.0963424 0.224635
575 1 0.0498618 0.180298 0.242294
772 1 0.039577 0.131464 0.280156
532 1 0.00187837 0.135443 0.231842
819 1 0.0962975 0.182841 0.275171
536 1 0.0956269 0.133641 0.225489
579 1 0.134443 0.184256 0.216014
776 1 0.140277 0.14512 0.263237
823 1 0.185314 0.183912 0.26077
540 1 0.186234 0.136162 0.228135
583 1 0.229992 0.176746 0.225546
780 1 0.228083 0.127502 0.270864
544 1 0.272675 0.134829 0.228246
827 1 0.264362 0.177802 0.276515
587 1 0.319925 0.178182 0.218631
784 1 0.310916 0.128133 0.281326
548 1 0.363496 0.128664 0.228073
831 1 0.358032 0.169743 0.2748
591 1 0.403478 0.181434 0.229434
788 1 0.40382 0.129292 0.277295
835 1 0.444393 0.173203 0.272964
551 1 0.501705 0.101447 0.216677
552 1 0.454935 0.142997 0.221276
595 1 0.503681 0.180309 0.232438
792 1 0.507018 0.141345 0.276962
839 1 0.545771 0.181528 0.278221
556 1 0.549703 0.144787 0.226258
599 1 0.594641 0.184816 0.229879
796 1 0.593308 0.135373 0.270622
560 1 0.644037 0.133484 0.228254
843 1 0.637062 0.185006 0.272198
603 1 0.688633 0.173731 0.236679
800 1 0.694973 0.128738 0.273762
847 1 0.735196 0.180959 0.289161
564 1 0.743711 0.140433 0.224504
607 1 0.781512 0.187433 0.22844
804 1 0.774158 0.134334 0.282994
851 1 0.823521 0.17275 0.274409
568 1 0.820597 0.134679 0.224757
611 1 0.869922 0.188491 0.231139
808 1 0.869872 0.133086 0.269222
815 1 0.9992 0.183466 0.271233
855 1 0.910088 0.177266 0.273063
572 1 0.913554 0.132274 0.22649
615 1 0.956496 0.180665 0.229561
812 1 0.955488 0.137285 0.274339
619 1 0.0446723 0.278234 0.230136
816 1 0.0504277 0.236109 0.270269
580 1 0.0871294 0.234009 0.229085
859 1 0.00070791 0.280612 0.273863
863 1 0.0928734 0.280462 0.268979
623 1 0.134206 0.274303 0.234368
820 1 0.13837 0.222744 0.267011
867 1 0.171308 0.275391 0.283275
584 1 0.178872 0.228215 0.219388
627 1 0.217899 0.267321 0.222994
824 1 0.222524 0.221574 0.278196
871 1 0.269703 0.267864 0.265953
588 1 0.272918 0.221756 0.221579
631 1 0.321187 0.274018 0.224203
828 1 0.311161 0.222298 0.2775
592 1 0.359309 0.231288 0.241978
875 1 0.363574 0.281079 0.271389
635 1 0.409193 0.260886 0.224817
832 1 0.404476 0.227749 0.278566
879 1 0.465838 0.273729 0.277062
596 1 0.458498 0.221657 0.230066
639 1 0.505452 0.276296 0.230426
836 1 0.500313 0.224975 0.273086
883 1 0.542628 0.276004 0.27318
600 1 0.548596 0.230929 0.238992
643 1 0.590766 0.27985 0.234527
840 1 0.593048 0.230626 0.272584
887 1 0.63718 0.267775 0.279675
604 1 0.643785 0.227342 0.234609
647 1 0.690194 0.271231 0.227366
844 1 0.69069 0.225102 0.27704
608 1 0.734046 0.221888 0.233378
891 1 0.741838 0.266158 0.271181
651 1 0.777086 0.271617 0.226981
848 1 0.782089 0.221458 0.278371
895 1 0.811703 0.276057 0.280183
612 1 0.82319 0.229922 0.227575
655 1 0.873253 0.278863 0.232633
852 1 0.866915 0.231566 0.274373
576 1 0.998201 0.231687 0.229689
616 1 0.917349 0.237236 0.234146
899 1 0.909986 0.276709 0.28147
659 1 0.961496 0.280675 0.219861
856 1 0.953113 0.236546 0.279208
663 1 0.0477867 0.364274 0.227334
860 1 0.0478718 0.327663 0.273556
907 1 0.0877868 0.3839 0.272847
903 1 0.00431183 0.37024 0.266085
620 1 0.00308079 0.321029 0.216676
624 1 0.0921286 0.329935 0.234009
667 1 0.135694 0.365915 0.228301
864 1 0.134986 0.322103 0.2703
628 1 0.17253 0.321506 0.231647
911 1 0.178498 0.368394 0.272742
671 1 0.223352 0.358542 0.229681
868 1 0.22734 0.313482 0.275919
632 1 0.26939 0.315003 0.230325
915 1 0.270813 0.363488 0.267813
675 1 0.312744 0.366527 0.227534
872 1 0.312703 0.319735 0.268891
636 1 0.365736 0.313272 0.218198
919 1 0.370587 0.355988 0.268534
679 1 0.40784 0.362769 0.21858
876 1 0.413215 0.314148 0.272061
640 1 0.44828 0.315546 0.226077
923 1 0.456248 0.358609 0.269698
683 1 0.501608 0.362906 0.217178
880 1 0.506149 0.323888 0.266915
927 1 0.546851 0.367474 0.271627
644 1 0.547201 0.322726 0.226074
687 1 0.588802 0.361955 0.231714
884 1 0.594412 0.321618 0.273973
931 1 0.635337 0.361307 0.271232
648 1 0.642329 0.317138 0.234794
691 1 0.69085 0.362103 0.23479
888 1 0.683621 0.318508 0.27387
652 1 0.737782 0.318095 0.224667
935 1 0.729896 0.364477 0.279597
695 1 0.77692 0.363204 0.225774
892 1 0.776781 0.321796 0.271696
939 1 0.829882 0.368047 0.273258
656 1 0.823137 0.316533 0.223327
699 1 0.871518 0.364174 0.21911
896 1 0.866086 0.31745 0.27492
943 1 0.911932 0.365346 0.272153
660 1 0.915078 0.327378 0.231535
703 1 0.954888 0.364729 0.221052
900 1 0.969722 0.323445 0.26991
904 1 0.0396251 0.412447 0.276492
706 1 0.0443192 0.45687 0.233147
668 1 0.0912599 0.419649 0.220201
908 1 0.139511 0.413143 0.271201
949 1 0.0934296 0.455849 0.275049
708 1 0.137745 0.459863 0.232918
951 1 0.176099 0.458012 0.273801
672 1 0.180593 0.411243 0.231253
710 1 0.221334 0.464394 0.231458
912 1 0.224957 0.415675 0.269035
953 1 0.270809 0.455298 0.270809
676 1 0.274537 0.411709 0.23225
916 1 0.325799 0.409755 0.275671
712 1 0.315806 0.457179 0.225458
680 1 0.363502 0.403501 0.22627
3397 1 0.413478 0.491369 0.269353
955 1 0.367223 0.453005 0.276323
920 1 0.40717 0.401452 0.271336
714 1 0.407717 0.442649 0.222739
3156 1 0.364539 0.492445 0.22787
3399 1 0.498554 0.49411 0.267251
688 1 0.539757 0.404816 0.221163
957 1 0.455498 0.449171 0.27282
684 1 0.457703 0.406421 0.226775
924 1 0.50461 0.407533 0.265377
716 1 0.492118 0.447927 0.223365
959 1 0.544056 0.454125 0.275924
3401 1 0.584264 0.497308 0.276686
3160 1 0.545503 0.495063 0.224178
718 1 0.595112 0.460363 0.230153
928 1 0.587545 0.412535 0.267144
961 1 0.634507 0.460052 0.277176
692 1 0.638451 0.41403 0.233766
932 1 0.681869 0.407014 0.281379
720 1 0.678473 0.455192 0.231244
3164 1 0.731108 0.496094 0.223991
696 1 0.731001 0.405475 0.230045
963 1 0.732073 0.450635 0.269933
936 1 0.772863 0.404945 0.276651
722 1 0.778282 0.4491 0.228366
3405 1 0.775331 0.495911 0.272217
700 1 0.825094 0.415813 0.227864
965 1 0.823714 0.453776 0.270304
940 1 0.865726 0.407199 0.271602
724 1 0.869519 0.458042 0.233997
967 1 0.908723 0.45526 0.278183
3148 1 0.99565 0.497234 0.233969
704 1 0.90947 0.407203 0.227439
664 1 0.994947 0.413515 0.222329
947 1 0.996874 0.453063 0.269005
726 1 0.952952 0.460814 0.228799
944 1 0.951393 0.416886 0.276861
973 1 0.0908376 0.00243973 0.353394
773 1 0.0445391 0.0854807 0.322606
970 1 0.0456254 0.0399315 0.35995
730 1 0.00293491 0.04031 0.315328
1017 1 0.0861911 0.0814895 0.357434
1013 1 0.00481525 0.0906435 0.365229
734 1 0.0947343 0.0380676 0.309292
974 1 0.136376 0.0498889 0.369242
1021 1 0.172707 0.0963695 0.361489
777 1 0.131127 0.0889751 0.320658
738 1 0.177187 0.044606 0.318222
981 1 0.266295 0.00214702 0.361643
781 1 0.220164 0.0869717 0.322452
978 1 0.220517 0.041429 0.366914
742 1 0.272243 0.0370639 0.317219
1025 1 0.264529 0.0868305 0.361109
741 1 0.32073 0.00213168 0.317047
982 1 0.312935 0.0429284 0.359664
785 1 0.318244 0.0868342 0.326599
1029 1 0.36006 0.0987478 0.364632
746 1 0.364888 0.0500951 0.316953
986 1 0.404187 0.0398492 0.357363
789 1 0.399422 0.0924481 0.321503
1033 1 0.447753 0.0897338 0.360505
750 1 0.452762 0.0485192 0.319096
989 1 0.450476 0.0016436 0.365918
793 1 0.500824 0.0941221 0.327845
990 1 0.495309 0.0488321 0.371205
753 1 0.591799 0.0101699 0.313101
754 1 0.545749 0.05352 0.324943
1037 1 0.552584 0.0975791 0.368504
994 1 0.593432 0.0452949 0.368922
797 1 0.5922 0.0972071 0.316593
1041 1 0.632611 0.0946308 0.37227
758 1 0.635223 0.0539537 0.320581
993 1 0.553911 0.00662209 0.36309
998 1 0.680764 0.0530122 0.371384
1045 1 0.725387 0.0943559 0.37317
762 1 0.719444 0.054762 0.317479
997 1 0.639631 0.00563327 0.365126
757 1 0.691466 0.00218523 0.315757
761 1 0.766672 0.00266897 0.320053
1001 1 0.734304 0.00642521 0.364137
1002 1 0.773852 0.0491273 0.361922
805 1 0.774091 0.0899894 0.321695
766 1 0.825278 0.0497026 0.320308
809 1 0.872411 0.0890883 0.320604
1006 1 0.864468 0.0418888 0.369769
1049 1 0.827067 0.0852301 0.367435
770 1 0.910702 0.0443518 0.315617
1053 1 0.911489 0.0920108 0.366711
1010 1 0.955252 0.0397869 0.35338
813 1 0.953898 0.0916592 0.323284
817 1 0.0441127 0.182252 0.313841
1014 1 0.0465066 0.145526 0.361677
778 1 0.0851736 0.14033 0.317505
1061 1 0.0944798 0.187172 0.364264
821 1 0.135106 0.186001 0.322091
1018 1 0.135349 0.139898 0.359726
1065 1 0.182842 0.183085 0.366538
782 1 0.182561 0.133742 0.317839
825 1 0.223593 0.18405 0.318845
1022 1 0.220458 0.139089 0.363897
1069 1 0.27087 0.179887 0.366007
786 1 0.273517 0.138941 0.321878
829 1 0.316205 0.181187 0.313399
1026 1 0.311758 0.133838 0.36693
790 1 0.360483 0.132 0.319882
1073 1 0.3571 0.173279 0.363914
833 1 0.405691 0.180318 0.315804
1030 1 0.405394 0.139049 0.360565
1077 1 0.449564 0.183555 0.359775
794 1 0.461411 0.137368 0.315085
837 1 0.497724 0.184087 0.319371
1034 1 0.4974 0.145294 0.3664
798 1 0.541555 0.137874 0.323376
1081 1 0.545568 0.179344 0.367568
841 1 0.585581 0.177918 0.319544
1038 1 0.592875 0.138657 0.365341
802 1 0.632103 0.139443 0.320614
801 1 0.678705 0.108017 0.334787
1085 1 0.639133 0.184723 0.364864
845 1 0.680754 0.17142 0.318456
1042 1 0.678947 0.141728 0.379286
1089 1 0.727209 0.175341 0.35684
806 1 0.73224 0.130741 0.326239
849 1 0.783828 0.18098 0.323387
1046 1 0.768258 0.135094 0.367208
1093 1 0.822132 0.179694 0.365159
810 1 0.821206 0.127092 0.324881