ITEM: TIMESTEP
20000
ITEM: NUMBER OF ATOMS
500
ITEM: BOX BOUNDS pp pp pp
0.0000000000000000e+00 2.6299999999999997e+01
0.0000000000000000e+00 2.6299999999999997e+01
0.0000000000000000e+00 2.6299999999999997e+01
ITEM: ATOMS id type xs ys zs
23 1 0.0977985 0.194258 0.0830884
52 1 0.0970853 0.103246 0.192666
75 1 0.191285 0.202575 0.195365
2 1 0.0900338 0.0807684 0.00376838
71 1 0.00538804 0.195994 0.184609
8 1 0.207353 0.0826413 0.100545
27 1 0.282196 0.201169 0.0932438
56 1 0.297555 0.10338 0.196784
12 1 0.396277 0.119193 0.0875248
79 1 0.393193 0.185096 0.19244
7 1 0.316621 0.00239109 0.10707
6 1 0.27855 0.108201 0.0043313
31 1 0.502531 0.191984 0.0858504
60 1 0.491992 0.0688366 0.226822
16 1 0.588781 0.107081 0.112909
83 1 0.587332 0.198473 0.228618
29 1 0.402191 0.20834 0.0058948
10 1 0.510229 0.0941622 0.00614136
33 1 0.598894 0.193041 0.0123657
35 1 0.695967 0.183364 0.10762
64 1 0.678343 0.111886 0.203313
20 1 0.794867 0.0970542 0.11654
87 1 0.781336 0.196767 0.211641
14 1 0.683806 0.0889563 0.00460447
15 1 0.685895 0.0135349 0.115919
4 1 0.990572 0.0960834 0.099848
39 1 0.879076 0.203703 0.0987214
68 1 0.897209 0.113442 0.192666
19 1 0.8912 0.00361631 0.100529
42 1 0.0806021 0.405428 0.0798292
72 1 0.0993187 0.296172 0.184357
28 1 0.187331 0.296132 0.094492
93 1 0.193844 0.384753 0.188966
24 1 0.00845131 0.295724 0.0925555
301 1 0.103966 0.484373 0.177434
254 1 0.215984 0.479618 0.0923746
303 1 0.317425 0.490601 0.194345
44 1 0.304467 0.383648 0.0935154
76 1 0.298108 0.291001 0.192155
95 1 0.39129 0.389856 0.203555
32 1 0.39634 0.285541 0.0933036
46 1 0.491198 0.394161 0.110085
80 1 0.486087 0.297901 0.202271
97 1 0.597245 0.430251 0.212022
36 1 0.592113 0.299926 0.11412
258 1 0.594878 0.493732 0.100263
30 1 0.513836 0.290816 0.00964008
260 1 0.772719 0.496934 0.0852405
48 1 0.687857 0.396658 0.0949222
84 1 0.697829 0.294497 0.202832
40 1 0.79065 0.293787 0.118561
47 1 0.608373 0.399211 0.00385103
91 1 0.990498 0.385582 0.191498
99 1 0.80849 0.401212 0.197947
50 1 0.899738 0.394944 0.0917849
88 1 0.889197 0.28751 0.196203
309 1 0.915868 0.499592 0.200606
38 1 0.904019 0.294695 0.00964912
136 1 0.0831803 0.210709 0.496589
73 1 0.0899338 0.193667 0.284346
102 1 0.101595 0.105439 0.389639
127 1 0.000193908 0.0983172 0.490156
53 1 0.100487 0.00859301 0.301263
126 1 0.0909079 0.00689704 0.469868
103 1 0.203649 0.00978602 0.404968
113 1 0.2009 0.196504 0.406116
58 1 0.216548 0.118012 0.292013
77 1 0.301571 0.210523 0.291908
104 1 0.291166 0.107493 0.425107
115 1 0.392862 0.185998 0.408113
62 1 0.377536 0.0948859 0.306179
105 1 0.382062 0.00470504 0.407081
107 1 0.599685 0.00761178 0.406588
81 1 0.478728 0.184683 0.302915
106 1 0.498869 0.0889495 0.410899
117 1 0.578148 0.21416 0.385947
66 1 0.598069 0.0904699 0.298317
140 1 0.482631 0.213823 0.499615
133 1 0.595708 0.105957 0.495118
85 1 0.703144 0.2153 0.313146
108 1 0.701731 0.0966714 0.405873
70 1 0.784737 0.0856625 0.289634
119 1 0.794128 0.208294 0.406219
142 1 0.690575 0.20036 0.494582
135 1 0.791331 0.0975241 0.496373
69 1 0.883919 0.00678714 0.286412
54 1 0.997674 0.0914697 0.30169
111 1 0.992287 0.198291 0.396113
110 1 0.883017 0.096108 0.394075
89 1 0.888884 0.18713 0.301792
134 1 0.904206 0.0016807 0.481789
302 1 0.00736182 0.498558 0.301774
351 1 0.0903014 0.483042 0.393064
74 1 0.00399218 0.290251 0.298146
122 1 0.172803 0.394796 0.378888
112 1 0.0966399 0.289735 0.394546
92 1 0.0957471 0.397745 0.284204
78 1 0.194008 0.288783 0.296068
304 1 0.19208 0.495204 0.285187
146 1 0.0890266 0.402064 0.489666
378 1 0.392722 0.496925 0.478742
114 1 0.309542 0.296465 0.407816
123 1 0.39408 0.387883 0.390615
82 1 0.397385 0.306699 0.304546
94 1 0.284769 0.386071 0.30513
352 1 0.27821 0.488333 0.396351
147 1 0.29563 0.406159 0.499199
306 1 0.409242 0.495855 0.320429
143 1 0.582333 0.301302 0.490619
86 1 0.587314 0.314834 0.290872
96 1 0.491414 0.402033 0.295867
116 1 0.491492 0.306906 0.409311
148 1 0.494915 0.417913 0.485861
90 1 0.796669 0.322939 0.304019
379 1 0.611427 0.48218 0.493457
354 1 0.71365 0.482505 0.404969
124 1 0.61359 0.394716 0.385457
118 1 0.703325 0.306943 0.401557
98 1 0.698826 0.39953 0.291944
125 1 0.833402 0.405425 0.41473
121 1 0.980151 0.402353 0.395592
100 1 0.901701 0.397948 0.291958
120 1 0.896452 0.284264 0.391054
145 1 0.840835 0.294797 0.499443
137 1 0.991933 0.296957 0.491961
152 1 0.089543 0.0882065 0.603483
173 1 0.107554 0.215146 0.70133
158 1 0.193717 0.0847903 0.705286
175 1 0.172551 0.198784 0.59891
155 1 0.184044 0.00440529 0.603318
171 1 0.00111538 0.206901 0.591052
156 1 0.301617 0.095847 0.597066
177 1 0.298602 0.180935 0.700309
179 1 0.378404 0.199947 0.602494
138 1 0.287638 0.221893 0.515658
129 1 0.204356 0.0896493 0.520737
131 1 0.391177 0.0996451 0.510925
128 1 0.29963 0.00585311 0.513716
162 1 0.405263 0.0931355 0.694493
160 1 0.498982 0.0998215 0.597729
181 1 0.486218 0.197888 0.694064
183 1 0.59285 0.198663 0.58673
166 1 0.597061 0.120524 0.690683
159 1 0.401617 0.00494605 0.602397
130 1 0.499052 0.00369313 0.50133
164 1 0.708167 0.0916966 0.605959
185 1 0.707004 0.216542 0.681376
187 1 0.784399 0.198783 0.586832
165 1 0.696995 0.0159483 0.701495
163 1 0.607924 0.00688115 0.588646
154 1 0.999 0.102661 0.690445
170 1 0.807963 0.111609 0.704207
168 1 0.909335 0.0993301 0.594217
189 1 0.909069 0.211028 0.68685
167 1 0.80605 0.0149204 0.612181
169 1 0.90128 0.019643 0.69675
144 1 0.879432 0.175902 0.509982
172 1 0.113676 0.309381 0.601348
192 1 0.104972 0.419853 0.692552
178 1 0.184536 0.304874 0.715314
191 1 0.0174245 0.408432 0.591716
174 1 0.0195165 0.31702 0.693594
139 1 0.191336 0.322121 0.500526
193 1 0.203361 0.410894 0.602153
176 1 0.285041 0.306111 0.610992
194 1 0.295994 0.406815 0.718115
182 1 0.378189 0.294969 0.705945
195 1 0.394815 0.401929 0.627661
406 1 0.408739 0.499334 0.706833
405 1 0.485347 0.477301 0.596012
180 1 0.487123 0.304909 0.610182
196 1 0.525873 0.409462 0.711703
186 1 0.598963 0.285398 0.691047
197 1 0.589722 0.393242 0.598899
141 1 0.402001 0.305453 0.520221
408 1 0.607258 0.497714 0.707088
407 1 0.689146 0.483814 0.609387
184 1 0.686079 0.313383 0.596227
198 1 0.695673 0.379695 0.710197
149 1 0.713981 0.396173 0.501291
150 1 0.912533 0.414095 0.520153
199 1 0.803918 0.405678 0.602356
190 1 0.803646 0.314181 0.694146
188 1 0.906318 0.307962 0.596189
200 1 0.880684 0.415449 0.692645
205 1 0.191595 0.00018972 0.796873
202 1 0.0914114 0.112353 0.790138
223 1 0.0908119 0.190266 0.901906
225 1 0.183933 0.185998 0.821326
221 1 0.00617329 0.209583 0.802424
208 1 0.183912 0.0826924 0.895585
25 1 0.188494 0.195612 0.982924
204 1 0.00477374 0.0884351 0.90115
207 1 0.29058 0.00411823 0.907023
206 1 0.2974 0.0906567 0.807911
227 1 0.296794 0.188554 0.906735
212 1 0.41057 0.0966715 0.891829
229 1 0.4 0.205813 0.789058
210 1 0.504877 0.106935 0.791423
231 1 0.502288 0.197285 0.896758
216 1 0.588015 0.0961705 0.892986
209 1 0.406874 0.00231243 0.795809
213 1 0.617005 0.00907476 0.794871
217 1 0.798776 0.0143735 0.818177
215 1 0.696844 0.00290364 0.905997
233 1 0.601001 0.204028 0.806511
214 1 0.71222 0.125867 0.782685
235 1 0.685379 0.187461 0.911813
37 1 0.789914 0.178589 1
17 1 0.807613 0.00594478 0.993836
18 1 0.91579 0.110929 0.995467
220 1 0.804659 0.131672 0.887032
237 1 0.816539 0.215863 0.788492
218 1 0.920714 0.125468 0.792989
239 1 0.912102 0.198234 0.902563
219 1 0.909834 0.000588863 0.894962
21 1 0.991765 0.202665 0.996912
451 1 0.0967252 0.497683 0.797983
224 1 0.00454856 0.297637 0.907722
222 1 0.0838277 0.320168 0.805654
242 1 0.101192 0.415296 0.893545
228 1 0.175034 0.299879 0.890849
243 1 0.19942 0.404793 0.818631
22 1 0.103438 0.297101 0.999069
43 1 0.199042 0.401486 0.978109
244 1 0.313428 0.391817 0.901716
226 1 0.281047 0.27535 0.808796
253 1 0.308952 0.472976 0.99608
26 1 0.301304 0.290141 0.993729
458 1 0.590446 0.487439 0.910756
456 1 0.404732 0.492623 0.889117
45 1 0.413428 0.385285 0.999754
230 1 0.508847 0.295966 0.799682
232 1 0.408627 0.296147 0.88853
246 1 0.505084 0.390074 0.903536
245 1 0.415155 0.397415 0.791802
249 1 0.797932 0.38957 0.816881
234 1 0.702627 0.284343 0.804378
248 1 0.697941 0.385981 0.906459
247 1 0.631069 0.407504 0.809199
236 1 0.612089 0.28731 0.903365
49 1 0.787282 0.385407 0.999753
34 1 0.707914 0.285498 0.992325
240 1 0.809136 0.277653 0.899669
238 1 0.898525 0.308187 0.787582
250 1 0.891028 0.400033 0.90305
241 1 0.989211 0.400063 0.810746
41 1 0.993266 0.412009 0.991443
263 1 0.115375 0.608547 0.11211
312 1 0.10524 0.704786 0.185501
264 1 0.000980932 0.710747 0.102956
311 1 8.72058e-06 0.620945 0.193685
251 1 0.112675 0.506775 0.00903456
262 1 0.127375 0.711625 0.0170232
315 1 0.21375 0.615168 0.197111
268 1 0.213026 0.710719 0.098855
267 1 0.315218 0.611858 0.126899
316 1 0.30219 0.71095 0.216989
265 1 0.224257 0.599908 0.0149474
269 1 0.382395 0.590984 0.0261207
319 1 0.404055 0.60045 0.22894
272 1 0.408262 0.706073 0.100007
271 1 0.513499 0.600058 0.10257
320 1 0.488868 0.693876 0.198346
256 1 0.417727 0.520485 0.122994
305 1 0.50239 0.508908 0.228607
323 1 0.606096 0.598876 0.207034
276 1 0.607805 0.689683 0.0926061
275 1 0.703305 0.613627 0.113362
324 1 0.706232 0.683776 0.212022
280 1 0.790042 0.711978 0.105194
307 1 0.708223 0.504409 0.204148
259 1 0.896643 0.515206 0.017666
327 1 0.800298 0.601362 0.196379
279 1 0.894328 0.610977 0.104811
328 1 0.906352 0.704807 0.216902
252 1 0.988435 0.518528 0.102023
277 1 0.803511 0.604374 0.00562376
283 1 0.11122 0.815638 0.110078
332 1 0.106651 0.902614 0.222481
281 1 0.00404575 0.809754 0.0207965
3 1 0.104459 0.9952 0.100537
282 1 0.111468 0.892046 0.00379777
59 1 0.397709 0.991109 0.221733
55 1 0.206621 0.986798 0.192608
288 1 0.211761 0.903178 0.0825487
335 1 0.210332 0.814387 0.213207
287 1 0.31941 0.791873 0.0958285
336 1 0.305173 0.882 0.206097
286 1 0.301084 0.889897 8.58498e-05
11 1 0.487892 0.990696 0.104641
292 1 0.400778 0.888915 0.100597
339 1 0.401146 0.801317 0.224698
291 1 0.502254 0.812847 0.10681
340 1 0.483809 0.909138 0.203032
296 1 0.588398 0.909186 0.0949745
343 1 0.583645 0.799385 0.20392
63 1 0.588311 0.990193 0.19876
293 1 0.598515 0.798126 0.00408279
13 1 0.586748 0.99393 0.009289
295 1 0.691028 0.788835 0.130813
344 1 0.681173 0.892871 0.206816
347 1 0.786556 0.781092 0.215081
67 1 0.785297 0.991189 0.191673
300 1 0.791365 0.889119 0.116057
51 1 0.994794 0.991842 0.206519
284 1 0.993139 0.905076 0.106658
331 1 0.997358 0.802351 0.204708
299 1 0.899165 0.802922 0.10544
348 1 0.89712 0.89628 0.198978
298 1 0.882391 0.892846 0.0194961
1 1 0.993519 0.991001 0.00919722
384 1 0.188824 0.715168 0.499673
313 1 0.10537 0.611061 0.275759
357 1 0.103001 0.689872 0.401567
356 1 0.00814323 0.582844 0.3898
314 1 0.0121537 0.708185 0.309838
318 1 0.19596 0.701788 0.293147
377 1 0.180739 0.508632 0.490947
358 1 0.206687 0.612478 0.407053
317 1 0.28535 0.59995 0.306171
359 1 0.304758 0.690673 0.397102
322 1 0.394715 0.696966 0.312365
383 1 0.303039 0.594946 0.497737
360 1 0.418652 0.599718 0.397116
321 1 0.519764 0.61601 0.306743
361 1 0.511216 0.702914 0.403174
362 1 0.593668 0.597729 0.422787
353 1 0.514053 0.503855 0.396215
386 1 0.402315 0.696734 0.48749
326 1 0.614103 0.709851 0.291503
325 1 0.710874 0.604028 0.326193
363 1 0.696119 0.69555 0.408991
387 1 0.707098 0.603909 0.492208
308 1 0.609001 0.514034 0.321615
355 1 0.909369 0.506825 0.413909
310 1 0.823303 0.517834 0.307879
364 1 0.812928 0.596342 0.409579
330 1 0.803956 0.700867 0.328881
365 1 0.912534 0.72774 0.386939
329 1 0.916536 0.607316 0.305998
382 1 0.988839 0.697861 0.495819
390 1 0.803158 0.705972 0.479293
334 1 0.00514961 0.880379 0.320536
366 1 0.00892591 0.800642 0.411348
333 1 0.107878 0.791035 0.292886
367 1 0.107732 0.898667 0.399438
393 1 0.304451 0.795963 0.489599
57 1 0.29137 0.997002 0.29288
369 1 0.293921 0.905354 0.403241
337 1 0.302111 0.800145 0.314172
342 1 0.385567 0.9071 0.311743
368 1 0.204768 0.789098 0.404117
338 1 0.204623 0.914151 0.296691
394 1 0.21213 0.900523 0.49899
61 1 0.504021 0.980504 0.309958
372 1 0.593529 0.806886 0.410196
371 1 0.509215 0.898877 0.404198
341 1 0.503219 0.799129 0.30966
370 1 0.40427 0.787118 0.406318
374 1 0.78965 0.812415 0.423522
373 1 0.689418 0.888388 0.400753
345 1 0.712038 0.80148 0.320375
350 1 0.790621 0.898257 0.277493
346 1 0.600862 0.887617 0.300009
65 1 0.689409 0.999665 0.309789
109 1 0.799373 0.998158 0.385792
132 1 0.701897 0.985225 0.487403
101 1 0.982883 0.993927 0.381832
399 1 0.903455 0.80489 0.498992
349 1 0.90389 0.804024 0.283198
375 1 0.889417 0.907108 0.390777
412 1 0.0915628 0.703786 0.596951
413 1 0.105893 0.590352 0.680309
401 1 0.109765 0.501054 0.588722
411 1 0.00199899 0.6093 0.595585
402 1 0.0146974 0.51302 0.695284
376 1 0.0122691 0.516482 0.503254
381 1 0.0962847 0.612363 0.507096
418 1 0.211594 0.719283 0.695344
415 1 0.20627 0.607043 0.58702
416 1 0.305242 0.695959 0.584961
417 1 0.301553 0.605212 0.673214
403 1 0.297398 0.505733 0.595767
404 1 0.202668 0.51371 0.713791
422 1 0.410195 0.697384 0.68713
419 1 0.409382 0.5951 0.584616
420 1 0.493424 0.69908 0.587737
421 1 0.515383 0.595284 0.682524
426 1 0.590787 0.705537 0.685737
385 1 0.504209 0.572711 0.501639
423 1 0.60532 0.587257 0.587386
424 1 0.700352 0.711805 0.598763
425 1 0.685466 0.609663 0.687161
430 1 0.79324 0.692541 0.697618
410 1 0.790162 0.503489 0.688208
388 1 0.602269 0.69833 0.508286
380 1 0.797775 0.500557 0.506754
409 1 0.921978 0.506121 0.610203
427 1 0.81162 0.607885 0.609437
414 1 0.993135 0.693892 0.682282
428 1 0.903256 0.703786 0.591774
429 1 0.905895 0.590308 0.709569
389 1 0.8913 0.599135 0.511058
391 1 0.0904857 0.808789 0.507942
432 1 0.106587 0.912435 0.589257
433 1 0.100361 0.798468 0.692333
151 1 0.00216188 0.989274 0.587046
153 1 0.085351 0.998492 0.697584
435 1 0.219441 0.815085 0.604088
438 1 0.214256 0.903644 0.695966
436 1 0.318562 0.914338 0.611101
437 1 0.320572 0.798973 0.685515
439 1 0.392466 0.785794 0.585507
157 1 0.303646 0.999819 0.706279
396 1 0.383118 0.895057 0.504172
398 1 0.596046 0.899364 0.504194
161 1 0.509518 0.991692 0.687348
442 1 0.414371 0.900054 0.69038
440 1 0.493291 0.908613 0.581614
441 1 0.51323 0.815539 0.684546
395 1 0.489723 0.798037 0.506503
443 1 0.613467 0.803323 0.597177
397 1 0.705378 0.80438 0.511517
446 1 0.610017 0.912923 0.695548
444 1 0.694302 0.914756 0.593378
445 1 0.696831 0.790749 0.701479
450 1 0.793836 0.879865 0.6928
434 1 0.984119 0.897226 0.691202
431 1 0.997943 0.814109 0.604248
447 1 0.805723 0.790686 0.588112
448 1 0.900316 0.904269 0.597933
449 1 0.891823 0.804525 0.681386
400 1 0.800297 0.904124 0.505099
392 1 0.996763 0.897242 0.501498
462 1 0.115569 0.702676 0.787295
463 1 0.103053 0.614776 0.919917
461 1 0.0110945 0.610777 0.799061
465 1 0.185991 0.601145 0.803171
464 1 0.0107096 0.702391 0.898879
261 1 0.0077076 0.625702 0.996489
453 1 0.299687 0.506856 0.800784
468 1 0.204193 0.689207 0.904104
466 1 0.310208 0.70428 0.79127
467 1 0.322479 0.592202 0.893427
454 1 0.207134 0.510622 0.905879
266 1 0.318478 0.694729 0.996368
469 1 0.426569 0.599441 0.795424
472 1 0.416574 0.703564 0.883385
470 1 0.524698 0.696173 0.805899
471 1 0.517369 0.610221 0.906465
473 1 0.588829 0.592752 0.803764
455 1 0.502925 0.507003 0.821476
270 1 0.512944 0.681278 0.998996
255 1 0.491011 0.507938 0.995129
457 1 0.694845 0.508077 0.80585
476 1 0.611094 0.718186 0.906056
474 1 0.67968 0.689116 0.802305
475 1 0.697835 0.600884 0.897845
477 1 0.790731 0.602449 0.787461
480 1 0.782557 0.686382 0.887958
460 1 0.789956 0.500551 0.901615
274 1 0.705627 0.682228 0.995505
273 1 0.60535 0.589519 0.986647
257 1 0.698128 0.509052 0.980976
459 1 0.916163 0.500563 0.801469
278 1 0.902651 0.703298 0.996892
478 1 0.885867 0.70531 0.78118
479 1 0.899266 0.606958 0.888886
452 1 0.987084 0.5239 0.915665
201 1 0.00917798 0.994509 0.790403
481 1 0.0135124 0.807948 0.805584
483 1 0.0955163 0.799593 0.896515
482 1 0.117862 0.892761 0.802175
203 1 0.0964617 0.983078 0.910482
285 1 0.218326 0.792448 0.990499
492 1 0.39091 0.895216 0.890509
488 1 0.201262 0.90628 0.898791
487 1 0.302411 0.781458 0.883873
486 1 0.301441 0.89185 0.796448
485 1 0.210999 0.805127 0.800529
9 1 0.392437 0.989805 0.991692
5 1 0.207371 0.993679 0.996295
211 1 0.498667 0.998922 0.915705
290 1 0.488522 0.893988 0.998324
493 1 0.599886 0.794464 0.786101
489 1 0.431579 0.789857 0.782131
491 1 0.501969 0.807763 0.89139
490 1 0.522206 0.8941 0.795329
289 1 0.41734 0.779695 0.99858
497 1 0.783121 0.774638 0.792802
294 1 0.702937 0.904098 0.991411
494 1 0.705802 0.924226 0.797675
496 1 0.613466 0.895762 0.898489
495 1 0.704071 0.802449 0.898701
500 1 0.808382 0.906674 0.896013
499 1 0.901987 0.77829 0.889103
498 1 0.89733 0.877523 0.798874
484 1 0.978499 0.892688 0.914349
297 1 0.812493 0.795136 0.985387
