ITEM: TIMESTEP
28000
ITEM: NUMBER OF ATOMS
4000
ITEM: BOX BOUNDS pp pp pp
0.0000000000000000e+00 5.2599999999999994e+01
0.0000000000000000e+00 5.2599999999999994e+01
0.0000000000000000e+00 5.2599999999999994e+01
ITEM: ATOMS id type xs ys zs
8 1 0.0986727 0.0499458 0.0442924
202 1 0.0466004 0.0457831 0.08679
2 1 0.0484602 0.0465779 0.00146501
12 1 0.197001 0.0439793 0.0447589
206 1 0.154592 0.0448044 0.0976312
47 1 0.149979 0.0969691 0.041027
205 1 0.100225 0.00121369 0.096647
245 1 0.118497 0.0954417 0.0911736
51 1 0.247456 0.0912685 0.0476767
210 1 0.244827 0.0464193 0.0899979
16 1 0.300631 0.0454311 0.0406028
214 1 0.359991 0.0490883 0.0979021
55 1 0.352605 0.0957232 0.0486038
253 1 0.306574 0.0978649 0.0935873
20 1 0.40625 0.0463911 0.0482463
257 1 0.403432 0.0981872 0.0969786
59 1 0.456427 0.0943461 0.0479564
218 1 0.457519 0.0486518 0.0980908
18 1 0.457124 0.048314 0.00254962
24 1 0.511946 0.049697 0.0515085
222 1 0.559641 0.0585426 0.0967279
261 1 0.507907 0.0962271 0.0961402
28 1 0.600772 0.0445481 0.0515756
26 1 0.657087 0.0458473 0.00316033
265 1 0.604519 0.0986773 0.0967201
32 1 0.708818 0.0555603 0.0524821
36 1 0.799863 0.0476334 0.0477467
31 1 0.757151 0.00358848 0.0454312
75 1 0.846415 0.0989197 0.0561621
40 1 0.889517 0.0446263 0.0479297
277 1 0.897618 0.0913696 0.0985327
73 1 0.809445 0.0965945 0.00345232
34 1 0.842769 0.0447179 0.000711867
4 1 0.989423 0.053272 0.0453189
201 1 0.990177 0.00187799 0.0925944
238 1 0.944631 0.0489965 0.0951921
39 1 0.943379 0.00419724 0.0489785
1 1 0.994182 0.00543927 0.00263942
43 1 0.0459439 0.102337 0.0550714
48 1 0.0994568 0.150709 0.0562422
83 1 0.0468933 0.192777 0.0552395
42 1 0.0423194 0.148912 0.00383577
249 1 0.19741 0.101353 0.0949989
52 1 0.197686 0.143497 0.0456204
289 1 0.197262 0.192147 0.0888571
246 1 0.149501 0.150056 0.0988258
250 1 0.246713 0.144545 0.0853619
50 1 0.249316 0.146214 0.00328839
56 1 0.301894 0.144161 0.0442281
254 1 0.357844 0.145285 0.0840882
293 1 0.304887 0.187028 0.0881234
54 1 0.359344 0.15608 0.00228892
57 1 0.399721 0.103669 0.00545356
60 1 0.412367 0.149493 0.0503467
99 1 0.457553 0.197596 0.0556918
258 1 0.453927 0.145077 0.0981353
97 1 0.417287 0.199449 0.00273998
58 1 0.460233 0.147129 0.00391728
63 1 0.560146 0.100237 0.0415267
64 1 0.505225 0.148151 0.0560555
262 1 0.556873 0.151429 0.0932155
101 1 0.506269 0.198348 0.00617736
62 1 0.547391 0.151462 0.000445348
67 1 0.652701 0.101856 0.047467
68 1 0.606765 0.149215 0.0466778
266 1 0.647674 0.15046 0.0908599
107 1 0.657528 0.194789 0.0456253
305 1 0.601736 0.199409 0.0980253
66 1 0.656356 0.146409 0.00535489
71 1 0.759406 0.100025 0.0442822
72 1 0.711169 0.144972 0.0511557
76 1 0.799999 0.150396 0.0497125
111 1 0.747929 0.197111 0.0527819
269 1 0.706321 0.100802 0.0993605
274 1 0.849456 0.151465 0.0978875
80 1 0.884688 0.145845 0.0457071
317 1 0.898058 0.196927 0.0930845
241 1 0.987355 0.102984 0.0938234
79 1 0.94243 0.101918 0.0415976
44 1 0.991378 0.143004 0.046881
278 1 0.943037 0.149924 0.0910632
78 1 0.944543 0.149596 0.00129502
81 1 0.00507663 0.20244 0.00810372
84 1 2.78868e-05 0.254023 0.0552554
82 1 0.0481667 0.251005 0.00109623
85 1 0.0992633 0.205103 0.00135076
87 1 0.148076 0.201337 0.0463081
88 1 0.110306 0.256785 0.0471535
286 1 0.149667 0.254448 0.0976547
92 1 0.195264 0.252899 0.039967
329 1 0.196315 0.298466 0.0874994
285 1 0.101751 0.204638 0.0996836
325 1 0.10222 0.299987 0.0953665
91 1 0.247905 0.203703 0.04745
131 1 0.255123 0.28366 0.0510378
95 1 0.36691 0.20476 0.0499866
96 1 0.310967 0.239397 0.0501408
135 1 0.350845 0.29319 0.0534999
94 1 0.359455 0.251286 0.00324017
137 1 0.401622 0.299848 0.00634674
297 1 0.405638 0.206675 0.0983218
100 1 0.411175 0.252959 0.0490004
298 1 0.457633 0.248886 0.0946207
98 1 0.456379 0.250645 0.00219111
103 1 0.553854 0.204309 0.0576114
104 1 0.501436 0.254613 0.0510028
143 1 0.558075 0.293382 0.0468976
141 1 0.50526 0.295507 0.00494317
102 1 0.552092 0.24871 0.0101484
108 1 0.612425 0.255246 0.0471009
306 1 0.657641 0.262705 0.0971705
112 1 0.698691 0.246084 0.0465351
151 1 0.746718 0.298511 0.0460035
116 1 0.797556 0.246812 0.0464301
353 1 0.789248 0.296374 0.0939775
313 1 0.799677 0.200833 0.098963
310 1 0.747304 0.242945 0.0932698
115 1 0.84518 0.202068 0.0475085
314 1 0.8489 0.250762 0.0981495
114 1 0.856333 0.254233 0.00643569
117 1 0.899202 0.20415 0.00712956
120 1 0.903934 0.252801 0.0507696
119 1 0.944802 0.203364 0.0506399
281 1 0.998671 0.200518 0.0916599
125 1 0.0935593 0.31145 0.00178772
123 1 0.0502391 0.308402 0.0483243
322 1 0.0522606 0.355773 0.097176
122 1 0.0508029 0.359149 0.0045428
127 1 0.152995 0.30979 0.0416213
128 1 0.100749 0.357399 0.0534859
326 1 0.147236 0.352609 0.0970383
167 1 0.157978 0.398303 0.0456659
165 1 0.104775 0.399732 0.000687211
132 1 0.206992 0.35448 0.0480636
136 1 0.296778 0.342393 0.0445314
330 1 0.254008 0.337825 0.0994244
373 1 0.296751 0.397783 0.0907865
175 1 0.348838 0.399054 0.0523526
334 1 0.353544 0.343519 0.0963146
134 1 0.354719 0.352711 0.00478821
173 1 0.303717 0.391945 0.00372643
133 1 0.305502 0.30081 0.00373452
177 1 0.410016 0.396846 0.0028343
140 1 0.400828 0.348358 0.0516884
139 1 0.455906 0.306653 0.0548743
338 1 0.45228 0.354708 0.0966494
138 1 0.462968 0.351848 0.00291676
144 1 0.504779 0.351741 0.0570079
148 1 0.599785 0.339526 0.0543812
183 1 0.55385 0.397864 0.0588618
381 1 0.505038 0.396928 0.0993106
185 1 0.594467 0.392529 0.00839434
142 1 0.551599 0.340912 0.00220924
147 1 0.65156 0.305827 0.0478529
346 1 0.649427 0.358043 0.0971525
152 1 0.696371 0.354474 0.0535187
191 1 0.73968 0.39949 0.0487509
156 1 0.790249 0.358036 0.0472998
150 1 0.735922 0.351933 0.00611382
157 1 0.896323 0.307543 0.0107404
155 1 0.837078 0.310779 0.0432174
354 1 0.83702 0.347545 0.0988077
160 1 0.889652 0.358399 0.0497834
195 1 0.845339 0.39929 0.0520955
158 1 0.950642 0.355686 0.000515731
124 1 0.99961 0.354753 0.0426488
159 1 0.949495 0.311333 0.0511744
358 1 0.949363 0.352866 0.0982768
321 1 0.998839 0.305236 0.0933436
163 1 0.052522 0.413713 0.0473519
164 1 0.00144787 0.45486 0.0485768
361 1 0.00658601 0.400127 0.0944953
168 1 0.101626 0.452397 0.0493201
171 1 0.25259 0.411182 0.0466463
172 1 0.200154 0.444971 0.0411641
370 1 0.255444 0.451891 0.0933624
369 1 0.208294 0.407252 0.0991162
2009 1 0.208481 0.495901 0.00626483
2017 1 0.399911 0.493814 0.0114229
176 1 0.305853 0.452654 0.050095
374 1 0.352677 0.454895 0.0982687
174 1 0.356064 0.437858 0.00266185
2019 1 0.454824 0.496318 0.0539916
377 1 0.400564 0.401586 0.0948518
179 1 0.456045 0.402858 0.0493673
178 1 0.455055 0.45238 0.00231407
180 1 0.400368 0.445607 0.0513807
378 1 0.453335 0.446436 0.0937208
184 1 0.504068 0.446558 0.0512959
188 1 0.598651 0.451813 0.0563927
182 1 0.551405 0.450116 0.000504369
181 1 0.508074 0.40027 0.00130004
187 1 0.641203 0.405315 0.0547928
386 1 0.644293 0.461912 0.0983449
186 1 0.642835 0.450377 0.00193167
2229 1 0.69631 0.499948 0.0919898
2029 1 0.697256 0.493311 0.00317259
192 1 0.703306 0.446796 0.0494834
393 1 0.79093 0.400788 0.0996402
196 1 0.793918 0.44723 0.0583636
2031 1 0.754705 0.494183 0.0439442
193 1 0.7977 0.405836 0.00231544
190 1 0.750881 0.450687 3.14039e-05
2033 1 0.802851 0.498056 0.00451916
200 1 0.89712 0.443456 0.0527673
394 1 0.852809 0.448515 0.0974287
2233 1 0.801673 0.499975 0.0965483
199 1 0.94723 0.402123 0.0567993
398 1 0.946828 0.449758 0.0966956
2037 1 0.905853 0.49246 0.0104374
243 1 0.0479185 0.0893265 0.133771
402 1 0.05107 0.0542018 0.187612
203 1 0.041709 0.00645865 0.139463
401 1 0.00541654 0.00179321 0.197393
405 1 0.0974453 0.0041788 0.198849
208 1 0.104322 0.051903 0.145238
406 1 0.15269 0.0472556 0.196548
247 1 0.148599 0.0998117 0.156495
212 1 0.19613 0.0479327 0.145112
251 1 0.254314 0.0873733 0.140655
211 1 0.252854 0.00227317 0.154654
215 1 0.351952 0.00336367 0.145465
216 1 0.301312 0.0449142 0.143399
220 1 0.401634 0.0529926 0.146587
259 1 0.448271 0.0997631 0.144836
418 1 0.45082 0.0508114 0.190236
219 1 0.454398 0.00174427 0.141992
224 1 0.513623 0.0465757 0.148264
263 1 0.549033 0.0995522 0.153302
223 1 0.549258 0.000376769 0.145132
425 1 0.597764 0.00469148 0.197465
226 1 0.655561 0.0418859 0.106073
228 1 0.602391 0.0511433 0.148279
267 1 0.654853 0.0955921 0.148387
232 1 0.708837 0.0488294 0.144091
230 1 0.758533 0.0445422 0.103336
231 1 0.756316 0.00308665 0.154919
234 1 0.847074 0.0418958 0.100118
273 1 0.801286 0.0955724 0.100977
236 1 0.805694 0.0524131 0.152053
275 1 0.849799 0.0987398 0.144799
240 1 0.898654 0.0389138 0.143759
204 1 0.990313 0.0469309 0.140683
441 1 0.988732 0.0985417 0.192741
242 1 0.0463058 0.150534 0.100377
442 1 0.0463688 0.15142 0.199386
445 1 0.0975743 0.113537 0.193503
248 1 0.101726 0.148958 0.143005
287 1 0.160442 0.199199 0.151499
252 1 0.218496 0.143785 0.149092
291 1 0.253341 0.193546 0.140858
450 1 0.257591 0.145502 0.19612
255 1 0.352857 0.101079 0.14728
453 1 0.302462 0.100235 0.193249
256 1 0.304225 0.148981 0.14218
260 1 0.397222 0.152787 0.139988
295 1 0.351351 0.198193 0.144999
454 1 0.344953 0.153276 0.193085
497 1 0.399743 0.195712 0.194922
457 1 0.404729 0.106785 0.193432
299 1 0.451566 0.193429 0.147745
264 1 0.50296 0.148126 0.144458
462 1 0.55045 0.152437 0.194969
268 1 0.596474 0.150751 0.143917
465 1 0.598274 0.105685 0.197046
501 1 0.502174 0.194046 0.199606
309 1 0.692663 0.195658 0.102656
509 1 0.696476 0.192639 0.198369
307 1 0.646275 0.191228 0.15334
466 1 0.651232 0.141484 0.198053
270 1 0.755565 0.151158 0.103957
271 1 0.757703 0.101673 0.149304
272 1 0.701222 0.146487 0.15011
470 1 0.75056 0.147843 0.196592
311 1 0.752419 0.198657 0.153734
469 1 0.703667 0.101194 0.196643
276 1 0.80228 0.148828 0.150761
474 1 0.849573 0.151365 0.199992
315 1 0.851304 0.197645 0.145321
513 1 0.805306 0.198937 0.192155
279 1 0.939427 0.100838 0.14877
244 1 0.995583 0.142183 0.1427
280 1 0.904399 0.157583 0.147459
481 1 0.000728107 0.20617 0.190256
282 1 0.055332 0.24176 0.102075
283 1 0.0468543 0.202009 0.147491
482 1 0.049817 0.25134 0.192753
284 1 0.00267187 0.251863 0.140883
288 1 0.101878 0.254823 0.149617
292 1 0.197803 0.254842 0.145806
485 1 0.112132 0.201181 0.189922
290 1 0.244677 0.241943 0.103021
296 1 0.298486 0.24253 0.144497
331 1 0.257384 0.293568 0.149418
529 1 0.212296 0.297242 0.198755
294 1 0.350891 0.252156 0.100525
333 1 0.302983 0.290686 0.104328
335 1 0.353535 0.299043 0.142891
494 1 0.352396 0.252478 0.19055
537 1 0.401525 0.294328 0.191645
300 1 0.407841 0.255423 0.144943
304 1 0.497388 0.248989 0.146737
498 1 0.450999 0.241458 0.19351
301 1 0.502475 0.201841 0.108083
303 1 0.547813 0.205588 0.15128
302 1 0.548723 0.25225 0.100484
345 1 0.598374 0.296712 0.101184
343 1 0.561324 0.293016 0.155065
505 1 0.598198 0.205017 0.194437
308 1 0.606825 0.249061 0.146477
545 1 0.610743 0.29063 0.199498
349 1 0.70486 0.298873 0.111699
312 1 0.701302 0.2428 0.155586
316 1 0.797446 0.254882 0.151488
549 1 0.702635 0.29607 0.196952
517 1 0.897362 0.21113 0.191453
320 1 0.894933 0.253519 0.14464
514 1 0.849242 0.254939 0.194301
557 1 0.896525 0.299412 0.197278
318 1 0.9483 0.261878 0.104907
319 1 0.95079 0.207387 0.144241
518 1 0.953218 0.245935 0.187598
323 1 0.0524763 0.300751 0.138296
324 1 0.00102594 0.354167 0.142978
363 1 0.0503144 0.394082 0.153192
521 1 0.0061557 0.308125 0.194467
327 1 0.14844 0.307926 0.138417
328 1 0.100708 0.356462 0.151121
525 1 0.100153 0.302169 0.191899
332 1 0.200725 0.35778 0.16086
371 1 0.251897 0.39274 0.138817
530 1 0.256059 0.361047 0.197566
336 1 0.302317 0.351456 0.147328
534 1 0.351172 0.35115 0.193022
337 1 0.407498 0.302012 0.104906
340 1 0.401046 0.35378 0.143195
339 1 0.458442 0.300374 0.1411
344 1 0.499642 0.350061 0.14211
538 1 0.444748 0.350575 0.187328
581 1 0.49374 0.396812 0.19722
541 1 0.500293 0.306975 0.193571
341 1 0.512251 0.303819 0.101838
342 1 0.558447 0.356355 0.102144
542 1 0.554049 0.347497 0.197362
383 1 0.548101 0.396741 0.162517
348 1 0.607636 0.357006 0.146533
347 1 0.647875 0.302867 0.151294
546 1 0.65416 0.349294 0.198089
352 1 0.691039 0.353139 0.146051
350 1 0.748171 0.346003 0.103673
351 1 0.753904 0.306727 0.154745
391 1 0.744213 0.397795 0.146366
357 1 0.886111 0.304679 0.102534
355 1 0.844859 0.302134 0.148849
356 1 0.804164 0.360304 0.151708
360 1 0.893112 0.353415 0.143349
554 1 0.852156 0.348829 0.199924
359 1 0.95831 0.305821 0.148051
558 1 0.940222 0.355386 0.193157
399 1 0.943082 0.399501 0.147622
2401 1 0.00104357 0.487831 0.199604
365 1 0.0984219 0.405185 0.104048
362 1 0.044324 0.454657 0.110523
562 1 0.0478208 0.448511 0.1999
2205 1 0.0982081 0.489599 0.101315
2203 1 0.0464356 0.499068 0.151774
368 1 0.102416 0.44866 0.15647
366 1 0.152314 0.458776 0.105604
367 1 0.153743 0.404182 0.149732
566 1 0.157621 0.453936 0.196459
2211 1 0.246871 0.495639 0.153357
372 1 0.206107 0.440355 0.15523
376 1 0.292192 0.447022 0.148264
2209 1 0.200358 0.495435 0.101497
375 1 0.346603 0.412543 0.144168
573 1 0.307854 0.401009 0.194799
380 1 0.396903 0.455755 0.144206
574 1 0.344376 0.455375 0.198987
379 1 0.450572 0.401984 0.148353
578 1 0.444355 0.457952 0.187681
384 1 0.499749 0.444423 0.147837
577 1 0.403394 0.401237 0.191651
382 1 0.55842 0.454036 0.105597
388 1 0.598179 0.455696 0.152811
389 1 0.688888 0.406801 0.104735
385 1 0.605389 0.403496 0.104463
387 1 0.643718 0.411921 0.148884
392 1 0.694723 0.461137 0.151539
390 1 0.744067 0.450493 0.104376
396 1 0.799199 0.447692 0.144346
2231 1 0.757459 0.494679 0.149463
397 1 0.89785 0.400111 0.10011
395 1 0.852236 0.405853 0.145341
400 1 0.898838 0.448175 0.151304
594 1 0.845885 0.453458 0.197743
2235 1 0.84937 0.49774 0.142127
2237 1 0.905741 0.496315 0.108403
364 1 0.997639 0.43828 0.145304
2239 1 0.963433 0.494427 0.144897
598 1 0.944177 0.458372 0.194464
601 1 0.00487732 0.00192124 0.298488
403 1 0.049962 0.00132197 0.252358
605 1 0.0956707 0.0128146 0.295625
408 1 0.103388 0.0569775 0.241021
606 1 0.143144 0.0584727 0.296391
409 1 0.202507 0.00323604 0.205895
410 1 0.244348 0.05346 0.200143
449 1 0.202196 0.0998994 0.204221
412 1 0.200157 0.0548764 0.254507
610 1 0.255937 0.0485452 0.296386
411 1 0.251844 0.00419847 0.252555
613 1 0.306297 0.00911668 0.288437
416 1 0.30145 0.0542926 0.242109
414 1 0.35384 0.04855 0.203118
614 1 0.357397 0.0570554 0.295161
415 1 0.356338 0.00664535 0.248295
617 1 0.401414 0.00653483 0.292605
420 1 0.404273 0.0536359 0.245671
461 1 0.497492 0.0973607 0.203353
417 1 0.407256 0.00449045 0.200423
422 1 0.552384 0.0570751 0.201403
424 1 0.512937 0.0511406 0.249991
622 1 0.552744 0.0580316 0.298391
428 1 0.593297 0.051444 0.247483
621 1 0.50696 0.00372568 0.299302
625 1 0.60669 0.00511717 0.295333
426 1 0.644349 0.0615482 0.20304
467 1 0.643626 0.0933634 0.251349
665 1 0.603072 0.0980885 0.29751
427 1 0.650229 0.0147948 0.246335
429 1 0.697047 0.00750187 0.205446
432 1 0.707267 0.060422 0.250152
430 1 0.753839 0.0467559 0.200583
436 1 0.799497 0.0514395 0.252096
630 1 0.74817 0.0424933 0.29606
473 1 0.806398 0.0911474 0.200263
434 1 0.860089 0.0470686 0.201023
477 1 0.896577 0.0999093 0.204092
440 1 0.899414 0.0517727 0.254967
404 1 0.998116 0.0507712 0.243747
439 1 0.94799 2.1462e-05 0.251505
438 1 0.947056 0.052526 0.201597
479 1 0.950579 0.0956795 0.245574
443 1 0.0385953 0.104308 0.244532
641 1 0.00175974 0.103301 0.294847
448 1 0.0992089 0.151504 0.241514
645 1 0.0933142 0.106078 0.294008
642 1 0.0501344 0.163043 0.295038
446 1 0.151994 0.149617 0.202458
447 1 0.151191 0.102229 0.24587
487 1 0.160064 0.193836 0.245653
685 1 0.103754 0.194606 0.287451
646 1 0.149246 0.15207 0.29114
649 1 0.195833 0.104573 0.299105
451 1 0.259045 0.10215 0.252598
452 1 0.212308 0.153932 0.2528
489 1 0.21156 0.193776 0.203274
650 1 0.27389 0.145191 0.298731
456 1 0.309146 0.148821 0.242454
653 1 0.31512 0.100527 0.293349
455 1 0.355417 0.103428 0.232309
460 1 0.389925 0.148857 0.242984
693 1 0.311903 0.19318 0.297217
459 1 0.449489 0.105496 0.257914
458 1 0.447269 0.152139 0.20814
463 1 0.548831 0.108274 0.250863
464 1 0.501605 0.151891 0.248965
503 1 0.55001 0.193211 0.251003
468 1 0.602842 0.146863 0.246635
666 1 0.649453 0.147963 0.297654
507 1 0.655724 0.195177 0.253233
471 1 0.757288 0.104716 0.252796
472 1 0.702783 0.147957 0.25401
511 1 0.75114 0.190983 0.248967
475 1 0.8484 0.100312 0.250761
476 1 0.80265 0.146305 0.238034
677 1 0.895262 0.104561 0.29912
444 1 0.997814 0.153469 0.24198
480 1 0.901763 0.150938 0.248196
478 1 0.942462 0.159044 0.200319
678 1 0.949522 0.148926 0.299378
483 1 0.0509135 0.20316 0.245609
488 1 0.0971612 0.244673 0.234094
484 1 0.00395978 0.245801 0.246801
523 1 0.0555054 0.297907 0.243819
682 1 0.059593 0.245976 0.293424
721 1 0.00385189 0.29439 0.29393
486 1 0.158922 0.249034 0.200212
527 1 0.157719 0.298695 0.245054
725 1 0.106827 0.298604 0.293309
686 1 0.140008 0.245436 0.295684
490 1 0.258369 0.243168 0.201055
491 1 0.260145 0.203556 0.252055
492 1 0.209981 0.240246 0.248994
531 1 0.250114 0.29211 0.25376
493 1 0.310278 0.206644 0.202999
496 1 0.309352 0.254173 0.249155
495 1 0.355905 0.202842 0.249797
500 1 0.399102 0.24566 0.24561
499 1 0.448384 0.206267 0.254908
504 1 0.492194 0.257888 0.237247
737 1 0.4016 0.299824 0.298521
539 1 0.448787 0.299565 0.23969
502 1 0.551732 0.253265 0.212505
702 1 0.546436 0.25499 0.284655
506 1 0.656848 0.247632 0.203234
508 1 0.606135 0.242422 0.244898
706 1 0.656032 0.251431 0.289348
510 1 0.749251 0.249126 0.200564
553 1 0.798568 0.299359 0.204139
709 1 0.705934 0.200455 0.299087
512 1 0.708027 0.246747 0.255177
516 1 0.794762 0.256148 0.255667
515 1 0.842741 0.205162 0.249489
714 1 0.853199 0.255062 0.296226
555 1 0.850163 0.299363 0.245224
519 1 0.944762 0.204773 0.243545
520 1 0.900255 0.253842 0.250106
718 1 0.949291 0.257954 0.291601
522 1 0.0499623 0.354335 0.200889
528 1 0.0943836 0.35108 0.244065
722 1 0.0429873 0.351412 0.296798
563 1 0.0500616 0.395161 0.248998
526 1 0.146782 0.356949 0.208352
726 1 0.157212 0.348159 0.294383
533 1 0.296096 0.302125 0.202721
532 1 0.21175 0.344377 0.240616
769 1 0.204396 0.393746 0.296555
733 1 0.297704 0.30272 0.294816
535 1 0.354304 0.30304 0.247389
536 1 0.306537 0.357205 0.254371
734 1 0.35675 0.354851 0.294726
540 1 0.3999 0.356266 0.243777
741 1 0.499808 0.30178 0.296972
544 1 0.488814 0.349551 0.245738
543 1 0.541833 0.303637 0.244516
548 1 0.594875 0.34734 0.246988
583 1 0.550067 0.399776 0.243623
745 1 0.591116 0.308154 0.296498
547 1 0.644214 0.309321 0.254617
552 1 0.698323 0.346958 0.250272
749 1 0.695894 0.309473 0.298513
587 1 0.645908 0.395152 0.250584
550 1 0.74613 0.352474 0.200994
753 1 0.799926 0.300191 0.296915
551 1 0.745365 0.303655 0.250844
556 1 0.792154 0.352676 0.23822
591 1 0.747247 0.398581 0.249985
754 1 0.845956 0.350682 0.294594
595 1 0.851326 0.398729 0.25305
559 1 0.950283 0.303287 0.232102
561 1 0.990229 0.398378 0.201247
524 1 0.996224 0.350398 0.246669
560 1 0.902656 0.349815 0.244662
758 1 0.949135 0.347205 0.293299
761 1 0.986985 0.39865 0.296151
2403 1 0.0470524 0.497484 0.246196
2405 1 0.0909315 0.496365 0.203352
564 1 0.000257809 0.439627 0.249143
569 1 0.197437 0.401129 0.207717
567 1 0.143052 0.40897 0.254741
565 1 0.1026 0.404957 0.206474
568 1 0.104951 0.461609 0.256319
572 1 0.191573 0.446498 0.260905
570 1 0.259507 0.45144 0.206189
571 1 0.252423 0.404762 0.254703
770 1 0.249052 0.456265 0.299088
2415 1 0.356309 0.496246 0.245649
576 1 0.314932 0.44653 0.256457
575 1 0.363811 0.410946 0.243181
2413 1 0.300618 0.498838 0.212652
580 1 0.404609 0.458825 0.242515
579 1 0.445587 0.401561 0.241631
777 1 0.410457 0.401364 0.296675
584 1 0.489788 0.449687 0.235715
778 1 0.449599 0.454032 0.288173
582 1 0.546771 0.455575 0.204122
585 1 0.599503 0.404692 0.200045
588 1 0.594613 0.453374 0.244885
781 1 0.502973 0.402682 0.287059
782 1 0.552221 0.448246 0.29268
2625 1 0.596695 0.499724 0.296792
2621 1 0.507496 0.497671 0.293509
586 1 0.651807 0.453271 0.204576
589 1 0.694586 0.40388 0.200562
2429 1 0.700686 0.499292 0.206506
590 1 0.748835 0.451676 0.200477
789 1 0.703304 0.402545 0.295927
592 1 0.705325 0.451944 0.254696
596 1 0.799432 0.447881 0.248395
2431 1 0.75043 0.491096 0.251676
597 1 0.892043 0.406336 0.200029
2435 1 0.851002 0.498458 0.250596
593 1 0.802241 0.402848 0.202196
794 1 0.846309 0.445128 0.299185
600 1 0.894574 0.454745 0.247242
797 1 0.903885 0.408927 0.297244
599 1 0.941373 0.404351 0.241126
798 1 0.945063 0.453811 0.29383
602 1 0.0476068 0.0583737 0.302011
608 1 0.0963139 0.0565011 0.34662
603 1 0.0505654 0.00242611 0.355127
607 1 0.149479 0.00466953 0.345174
806 1 0.152406 0.0469702 0.395585
612 1 0.193236 0.0532785 0.342374
809 1 0.201397 0.00302195 0.393829
810 1 0.248625 0.0403848 0.392693
616 1 0.299016 0.0501673 0.347087
849 1 0.202659 0.0970907 0.388634
615 1 0.352982 0.00784056 0.332076
813 1 0.30292 0.00274585 0.392897
814 1 0.356109 0.0473823 0.395113
853 1 0.309804 0.0885765 0.393366
618 1 0.453941 0.051714 0.300085
657 1 0.403464 0.0961279 0.302119
620 1 0.404398 0.0461006 0.345342
817 1 0.403915 0.00670499 0.399653
619 1 0.45573 0.00550586 0.347977
624 1 0.505297 0.0507644 0.35202
628 1 0.598038 0.0427697 0.350129
623 1 0.549976 0.00522886 0.34912
822 1 0.553356 0.0504907 0.397102
626 1 0.650866 0.0490747 0.304791
869 1 0.695372 0.087121 0.397213
826 1 0.643357 0.0454208 0.389217
673 1 0.78874 0.0932911 0.306258
632 1 0.709116 0.0434201 0.341006
671 1 0.748809 0.0947272 0.355198
829 1 0.705796 0.000651316 0.394931
634 1 0.853349 0.0512723 0.310152
636 1 0.80443 0.0424392 0.355848
638 1 0.953981 0.0584207 0.301431
604 1 0.99711 0.049762 0.350892
637 1 0.908458 2.94931e-05 0.306643
640 1 0.904279 0.0586749 0.345117
679 1 0.951193 0.0987885 0.351229
841 1 0.994962 0.0928639 0.395994
643 1 0.055503 0.109752 0.347716
648 1 0.105796 0.150889 0.339879
647 1 0.150906 0.104439 0.346847
846 1 0.149975 0.144112 0.398781
889 1 0.195285 0.19032 0.396161
652 1 0.212721 0.149171 0.338819
651 1 0.262231 0.104951 0.349835
689 1 0.202874 0.197363 0.300613
691 1 0.258469 0.198335 0.346286
654 1 0.35838 0.147148 0.304795
656 1 0.307333 0.149993 0.355578
655 1 0.358615 0.101822 0.351885
660 1 0.399589 0.148347 0.354987
661 1 0.49706 0.100015 0.302336
658 1 0.44802 0.158887 0.302144
659 1 0.451025 0.100299 0.355596
858 1 0.456781 0.156677 0.397374
861 1 0.504015 0.102241 0.3991
663 1 0.556251 0.106908 0.3459
664 1 0.505435 0.148017 0.350179
662 1 0.5478 0.148994 0.301334
703 1 0.554617 0.192376 0.349785
667 1 0.653961 0.10164 0.346773
865 1 0.603729 0.102041 0.389479
668 1 0.601741 0.153601 0.340052
866 1 0.645076 0.154935 0.392752
672 1 0.695808 0.146823 0.35913
670 1 0.741243 0.147652 0.306205
669 1 0.70056 0.100545 0.302975
711 1 0.753578 0.198082 0.348512
676 1 0.787957 0.148391 0.349066
913 1 0.805332 0.189649 0.396119
674 1 0.835239 0.142031 0.30477
675 1 0.834817 0.101614 0.353787
715 1 0.853647 0.195793 0.349359
680 1 0.897251 0.148001 0.347811
644 1 0.99984 0.154766 0.34613
717 1 0.903101 0.194025 0.304715
719 1 0.950822 0.194489 0.347002
878 1 0.944448 0.145144 0.395659
681 1 0.00158369 0.206853 0.303685
683 1 0.0598659 0.205216 0.344785
688 1 0.0880784 0.260101 0.3542
684 1 0.00302975 0.252377 0.348502
921 1 0.0048368 0.294962 0.397824
687 1 0.145773 0.203821 0.33996
729 1 0.189754 0.292437 0.303746
727 1 0.146295 0.29078 0.355357
886 1 0.144706 0.238443 0.399521
692 1 0.201613 0.241385 0.353711
690 1 0.256129 0.246841 0.304964
731 1 0.258865 0.290029 0.354769
929 1 0.206262 0.297167 0.393419
697 1 0.398979 0.203802 0.300923
696 1 0.308047 0.252353 0.35131
694 1 0.345283 0.254988 0.303663
695 1 0.353921 0.202031 0.349175
700 1 0.396508 0.265452 0.353542
933 1 0.309515 0.29835 0.393996
698 1 0.449629 0.256559 0.303233
699 1 0.450953 0.207908 0.353723
705 1 0.598934 0.204357 0.300692
701 1 0.504948 0.204014 0.303869
704 1 0.512595 0.253774 0.351955
708 1 0.592696 0.249979 0.339031
905 1 0.602489 0.206928 0.389899
707 1 0.660541 0.211682 0.339053
747 1 0.647472 0.292281 0.344343
906 1 0.661668 0.254257 0.394597
945 1 0.604891 0.294613 0.395218
710 1 0.748931 0.257068 0.301666
712 1 0.714458 0.251277 0.356821
751 1 0.750281 0.299431 0.347719
716 1 0.799997 0.243755 0.351902
713 1 0.801204 0.200893 0.305309
755 1 0.855371 0.297938 0.351493
957 1 0.898935 0.299081 0.395672
914 1 0.849792 0.246672 0.395725
881 1 0.992966 0.202052 0.397356
720 1 0.905942 0.248459 0.346993
918 1 0.950342 0.250318 0.399536
765 1 0.0912158 0.398074 0.307945
723 1 0.0397285 0.303019 0.342034
763 1 0.0415551 0.397949 0.352371
728 1 0.0898564 0.344322 0.351736
965 1 0.0911164 0.394437 0.399294
767 1 0.148078 0.399066 0.343885
732 1 0.193666 0.346118 0.351458
926 1 0.144295 0.342546 0.396869
730 1 0.245188 0.337052 0.300969
930 1 0.256161 0.350938 0.389826
771 1 0.247805 0.397667 0.340504
736 1 0.299643 0.348198 0.343655
735 1 0.351737 0.305823 0.346419
973 1 0.309851 0.395945 0.396186
775 1 0.356759 0.397366 0.348345
934 1 0.353794 0.346929 0.398583
739 1 0.454331 0.303855 0.345345
740 1 0.404049 0.344203 0.353822
738 1 0.454115 0.350733 0.302736
743 1 0.547906 0.303931 0.351213
744 1 0.502543 0.347355 0.346693
742 1 0.547312 0.35661 0.300477
748 1 0.597838 0.350905 0.350218
981 1 0.505137 0.39624 0.396689
746 1 0.647566 0.351609 0.308477
946 1 0.648242 0.343293 0.387885
750 1 0.751541 0.344743 0.302195
953 1 0.79857 0.302831 0.393282
752 1 0.702355 0.35074 0.354553
791 1 0.756249 0.39273 0.352748
793 1 0.802266 0.398879 0.300689
757 1 0.896114 0.304301 0.304124
756 1 0.801642 0.348458 0.351594
954 1 0.852313 0.349546 0.394453
795 1 0.855656 0.397415 0.352838
993 1 0.80985 0.396554 0.399755
760 1 0.905531 0.350995 0.348983
958 1 0.947896 0.346634 0.398625
759 1 0.951818 0.302746 0.350282
724 1 0.999316 0.352316 0.35023
799 1 0.950422 0.397366 0.355398
961 1 0.998289 0.3895 0.399752
2603 1 0.0509663 0.49965 0.347061
762 1 0.0467561 0.440742 0.30165
966 1 0.149626 0.448692 0.395052
766 1 0.150752 0.453251 0.305803
768 1 0.101537 0.459143 0.341056
772 1 0.196893 0.447195 0.349438
969 1 0.197801 0.400023 0.393822
2611 1 0.251804 0.494597 0.351498
970 1 0.249705 0.441076 0.387363
776 1 0.298259 0.449754 0.344838
2615 1 0.35356 0.494449 0.353203
2813 1 0.305893 0.481125 0.399292
773 1 0.308918 0.401567 0.302373
774 1 0.358586 0.450912 0.310416
974 1 0.354224 0.442612 0.39912
779 1 0.455348 0.400148 0.349818
780 1 0.412476 0.447822 0.350781
784 1 0.495118 0.450128 0.339151
977 1 0.414433 0.401163 0.396214
982 1 0.533708 0.455337 0.399856
783 1 0.547704 0.402853 0.343202
785 1 0.594975 0.405184 0.300166
2623 1 0.544451 0.498085 0.344276
2627 1 0.644766 0.499812 0.355161
989 1 0.696794 0.404474 0.388369
788 1 0.602301 0.451875 0.358747
786 1 0.646544 0.441818 0.301971
985 1 0.605383 0.400757 0.398133
787 1 0.646515 0.402759 0.347934
986 1 0.646717 0.45692 0.399584
792 1 0.699178 0.450879 0.344221
2631 1 0.756441 0.498843 0.347863
2829 1 0.706252 0.493481 0.396027
790 1 0.754128 0.447054 0.301816
990 1 0.7571 0.448798 0.3927
796 1 0.808895 0.451201 0.350413
994 1 0.851072 0.452431 0.398645
800 1 0.893978 0.45056 0.341236
2639 1 0.948092 0.499873 0.350921
997 1 0.900084 0.407639 0.398598
764 1 0.997387 0.446779 0.353174
801 1 0.0023078 6.6301e-08 0.408666
802 1 0.0528379 0.0566242 0.400606
804 1 0.00332451 0.0477422 0.455847
803 1 0.0465409 0.00202949 0.456422
1002 1 0.0525543 0.0595096 0.493437
808 1 0.10186 0.0472939 0.448157
812 1 0.197032 0.0559894 0.451148
1006 1 0.152833 0.0519712 0.49542
811 1 0.248162 0.00654121 0.447877
851 1 0.242968 0.0983325 0.44852
1010 1 0.248041 0.0483558 0.497141
815 1 0.35847 0.000701698 0.440496
816 1 0.308658 0.0402865 0.446987
855 1 0.357166 0.0918121 0.446544
1014 1 0.351834 0.0554332 0.498109
1053 1 0.301286 0.0981292 0.490255
821 1 0.492226 0.00260141 0.402505
857 1 0.404865 0.0981526 0.402481
818 1 0.458369 0.058698 0.40103
820 1 0.405957 0.0516656 0.449428
824 1 0.483288 0.051566 0.457144
1057 1 0.402601 0.0927733 0.498126
863 1 0.557754 0.0986 0.446766
1022 1 0.539095 0.0499225 0.497606
1065 1 0.592434 0.0959112 0.495983
1026 1 0.652651 0.0560903 0.492952
828 1 0.60124 0.044389 0.447489
867 1 0.643557 0.0980816 0.443353
1069 1 0.703909 0.0991024 0.497914
873 1 0.798454 0.0924867 0.40793
832 1 0.708034 0.0461256 0.448274
830 1 0.755675 0.0445301 0.402407
871 1 0.756125 0.0889081 0.456106
836 1 0.795793 0.0424091 0.450157
1029 1 0.708672 0.00246157 0.496014
834 1 0.862132 0.0453313 0.40566
875 1 0.848103 0.0965942 0.45515
840 1 0.899356 0.0513967 0.45491
1073 1 0.803364 0.0953079 0.498351
1037 1 0.899364 0.00251069 0.498337
877 1 0.902954 0.093466 0.400066
838 1 0.94905 0.0461495 0.405753
839 1 0.953401 0.00103071 0.453375
879 1 0.950695 0.0940361 0.454843
885 1 0.0934021 0.182745 0.401278
842 1 0.0369763 0.154194 0.401423
843 1 0.0313125 0.106579 0.446873
848 1 0.088031 0.141727 0.46285
845 1 0.0955538 0.103726 0.407935
883 1 0.0402503 0.197524 0.457013
1085 1 0.0998422 0.195408 0.498677
847 1 0.14816 0.103245 0.449722
887 1 0.148086 0.193163 0.451985
893 1 0.296048 0.190506 0.400903
852 1 0.201624 0.146262 0.447153
850 1 0.245113 0.150602 0.400023
891 1 0.248641 0.197195 0.450293
856 1 0.299452 0.146013 0.449107
1054 1 0.346851 0.138197 0.49491
854 1 0.354228 0.151507 0.403223
860 1 0.397095 0.151373 0.452162
895 1 0.352467 0.199234 0.454726
859 1 0.449539 0.107286 0.446882
899 1 0.44728 0.194999 0.446642
1061 1 0.497886 0.105118 0.494141
862 1 0.559393 0.153209 0.400189
864 1 0.506383 0.151724 0.450544
868 1 0.598872 0.151685 0.452987
872 1 0.689316 0.143305 0.441476
907 1 0.656259 0.195523 0.449659
1066 1 0.649904 0.145326 0.494959
1070 1 0.749388 0.141305 0.490875
870 1 0.748584 0.140713 0.408489
911 1 0.759686 0.194548 0.446793
1109 1 0.705221 0.196689 0.498055
1113 1 0.797719 0.195047 0.49928
876 1 0.806251 0.145492 0.452217
874 1 0.853129 0.139703 0.404595
915 1 0.852793 0.193556 0.451689
917 1 0.900481 0.191017 0.400657
880 1 0.902127 0.139302 0.454571
844 1 0.993093 0.152087 0.453936
925 1 0.0930165 0.292053 0.405874
923 1 0.0455874 0.296622 0.457702
882 1 0.0521703 0.241786 0.407251
1125 1 0.103078 0.29072 0.496523
1086 1 0.144685 0.24353 0.498256
927 1 0.156327 0.293979 0.448528
888 1 0.106788 0.246751 0.446158
892 1 0.191078 0.242783 0.449607