ITEM: TIMESTEP
15700
ITEM: NUMBER OF ATOMS
864
ITEM: BOX BOUNDS pp pp pp
0.0000000000000000e+00 3.1559999999999999e+01
0.0000000000000000e+00 3.1559999999999999e+01
0.0000000000000000e+00 3.1559999999999999e+01
ITEM: ATOMS id type xs ys zs
8 1 0.173049 0.071318 0.0747872
4 1 1.01088 0.0898008 0.0872861
101 1 0.160353 0.153724 0.16094
74 1 0.0805555 0.0821442 0.156875
527 1 0.923594 0.502514 0.259488
31 1 0.243164 0.16737 0.0767483
105 1 0.351582 0.152307 0.161163
65 1 0.673442 0.327606 0.0186511
75 1 0.0642144 -0.000876298 0.245189
12 1 0.327868 0.0785345 0.0803776
82 1 0.415309 0.0594427 0.155602
35 1 0.413146 0.164141 0.0768679
16 1 0.504908 0.0727658 0.099209
216 1 0.824886 0.423135 0.428222
39 1 0.566804 0.165654 0.09598
20 1 0.640914 0.0681613 0.0902325
507 1 0.0810267 0.492256 0.259855
196 1 0.996676 0.409154 0.424817
70 1 0.911767 0.411266 0.0101024
90 1 0.741906 0.0756514 0.170055
24 1 0.818941 0.0859965 0.0776707
525 1 0.838788 0.512611 0.17352
94 1 0.928577 0.0969204 0.169283
215 1 0.910126 0.339438 0.420405
25 1 0.0030598 0.170773 0.0182162
27 1 0.0936557 0.172653 0.0878359
32 1 0.155942 0.262553 0.0820576
98 1 0.0905929 0.241511 0.163098
281 1 0.643325 0.333447 0.49877
125 1 0.149013 0.334357 0.16223
55 1 0.235113 0.337064 0.0831209
23 1 0.918628 0.00545152 0.0762055
278 1 0.573627 0.426103 0.502274
238 1 0.915394 0.0840605 0.513447
36 1 0.319867 0.249072 0.0797877
106 1 0.415784 0.249135 0.174151
40 1 0.494333 0.25325 0.0859451
133 1 0.483897 0.339236 0.172416
53 1 0.153246 0.34031 0.00230521
44 1 0.64992 0.246238 0.0926283
63 1 0.572867 0.330298 0.0870005
43 1 0.733788 0.166258 0.0831647
48 1 0.835645 0.248712 0.0824458
67 1 0.742276 0.3437 0.10094
61 1 0.494274 0.329137 0.000654716
26 1 0.0784197 0.251423 0.00206116
28 1 -0.00495037 0.247462 0.0926815
47 1 0.912391 0.170076 0.0843149
118 1 0.910895 0.250942 0.161882
221 1 0.159729 0.00921266 0.500303
51 1 0.0806595 0.359137 0.0866655
73 1 1.00318 0.00060495 0.15502
122 1 0.0806224 0.426836 0.175083
151 1 0.243579 0.0095731 0.415937
56 1 0.165062 0.424783 0.0974769
60 1 0.325794 0.418136 0.0926015
126 1 0.24882 0.417591 0.16837
58 1 0.386773 0.415759 -0.0047496
212 1 0.661351 0.421663 0.43118
59 1 0.407999 0.326643 0.0902375
167 1 0.906771 0.00778508 0.412906
130 1 0.41775 0.427511 0.169186
511 1 0.247791 0.493711 0.254694
64 1 0.483573 0.403744 0.0803818
134 1 0.559436 0.42475 0.16233
68 1 0.667723 0.430635 0.0979317
3 1 0.0907651 0.00394035 0.0674432
176 1 0.160453 0.22924 0.403493
261 1 0.822928 0.177958 0.51431
72 1 0.823324 0.416618 0.0761901
138 1 0.758623 0.426398 0.165709
157 1 0.496521 0.00655976 0.334843
241 1 0.987873 0.165512 0.505532
173 1 0.175863 0.163786 0.321419
147 1 0.0852284 0.00977955 0.422659
71 1 0.913366 0.326428 0.0879704
52 1 0.994569 0.434392 0.0939247
142 1 0.928031 0.424392 0.176331
121 1 -0.00203711 0.327177 0.168316
177 1 0.321012 0.158368 0.329519
80 1 0.164514 0.0730396 0.247422
76 1 -0.00545263 0.084441 0.25821
146 1 0.0927188 0.0931881 0.332535
97 1 1.01065 0.166081 0.170203
169 1 1.0152 0.168288 0.324559
207 1 0.58536 0.348065 0.409602
78 1 0.254209 0.0856353 0.167652
150 1 0.239055 0.0708063 0.328068
84 1 0.329036 0.0856159 0.245943
109 1 0.478118 0.153696 0.168238
107 1 0.402876 0.158825 0.265574
88 1 0.481174 0.0620483 0.239679
54 1 0.248878 0.424298 0.0100457
188 1 0.665552 0.243722 0.404935
86 1 0.580484 0.0813836 0.180172
111 1 0.580979 0.164756 0.261996
113 1 0.66927 0.157744 0.165038
204 1 0.336838 0.432154 0.411497
92 1 0.667934 0.055566 0.252211
115 1 0.747215 0.183451 0.234939
162 1 0.749759 0.0836043 0.316595
159 1 0.606349 -0.00794484 0.428449
96 1 0.837793 0.0870049 0.244481
166 1 0.917641 0.0886109 0.339091
119 1 0.921844 0.162466 0.254894
117 1 0.831141 0.163931 0.162988
189 1 0.829399 0.15247 0.323622
99 1 0.0865962 0.162934 0.24941
104 1 0.161499 0.254681 0.251985
123 1 0.0765754 0.324927 0.252015
103 1 0.258066 0.182257 0.235046
102 1 0.232493 0.247607 0.147609
174 1 0.250794 0.254086 0.349302
201 1 0.322317 0.338907 0.321883
108 1 0.326126 0.256702 0.248639
112 1 0.488719 0.220753 0.254423
110 1 0.558649 0.243007 0.177698
135 1 0.582927 0.332508 0.239014
116 1 0.657073 0.24839 0.227374
209 1 0.668446 0.331834 0.323972
137 1 0.65633 0.345156 0.165459
114 1 0.736261 0.24581 0.151165
120 1 0.82269 0.250336 0.25025
141 1 0.833229 0.340844 0.174435
139 1 0.745877 0.329495 0.232976
193 1 0.99255 0.340913 0.3272
100 1 0.991807 0.241719 0.246066
190 1 0.901891 0.234798 0.324898
143 1 0.919096 0.32078 0.252159
208 1 0.498671 0.416776 0.407916
124 1 0.00143041 0.417558 0.24892
194 1 0.078447 0.403406 0.333843
128 1 0.16914 0.401565 0.247632
203 1 0.418571 0.327431 0.396651
127 1 0.235271 0.322743 0.237401
132 1 0.323535 0.407468 0.243503
129 1 0.317302 0.328331 0.161138
131 1 0.409899 0.329065 0.253273
202 1 0.412261 0.426965 0.34231
136 1 0.499044 0.42064 0.257783
206 1 0.575961 0.421506 0.326278
186 1 0.743929 0.249811 0.326975
199 1 0.260813 0.331446 0.424652
140 1 0.659311 0.413786 0.236786
210 1 0.731984 0.412599 0.322386
144 1 0.823224 0.425639 0.254687
198 1 0.247377 0.408492 0.330483
197 1 0.174313 0.319494 0.332849
214 1 0.912074 0.410301 0.339881
148 1 1.00833 0.0916991 0.429346
152 1 0.160977 0.098575 0.413721
213 1 0.824258 0.346814 0.334959
182 1 0.588415 0.261567 0.323972
200 1 0.169891 0.390173 0.405174
156 1 0.332643 0.0849784 0.422303
175 1 0.254347 0.174755 0.421358
205 1 0.505935 0.333608 0.322037
154 1 0.393933 0.0778176 0.335038
179 1 0.426082 0.154481 0.418044
160 1 0.520271 0.0755565 0.416486
181 1 0.49743 0.142889 0.337603
178 1 0.410302 0.249187 0.326007
171 1 0.0772558 0.166173 0.413587
195 1 0.0688672 0.330782 0.406108
158 1 0.592494 0.0879776 0.33369
185 1 0.67778 0.1669 0.31846
183 1 0.582776 0.17487 0.418919
184 1 0.511378 0.25276 0.41276
187 1 0.752056 0.165205 0.401589
164 1 0.686782 0.0786509 0.396533
168 1 0.833785 0.0885399 0.413002
180 1 0.354069 0.23076 0.415477
211 1 0.734863 0.342163 0.401573
191 1 0.907686 0.173058 0.415459
192 1 0.830601 0.250934 0.417723
172 1 0.984283 0.259524 0.395575
170 1 0.0814554 0.245447 0.334007
14 1 0.578768 0.0589346 0.00174467
435 1 0.0904244 0.511815 0.0851146
521 1 0.661911 0.510285 0.168125
515 1 0.416587 0.50717 0.250857
234 1 0.764027 0.0907798 0.497902
593 1 0.658959 0.501527 0.33532
597 1 0.824004 0.490973 0.34183
226 1 0.422353 0.0909058 0.501776
599 1 0.916383 0.484983 0.424116
83 1 0.394609 -0.0163534 0.241903
585 1 0.331833 0.492716 0.329165
91 1 0.756339 -0.00699213 0.247159
455 1 0.916903 0.522896 0.0810371
93 1 0.830115 0.0103391 0.155759
225 1 0.32582 0.00911258 0.503199
145 1 -0.0026224 0.0161694 0.342511
583 1 0.255307 0.504031 0.410155
577 1 1.00586 0.486154 0.334214
445 1 0.493301 0.507079 0.00351373
447 1 0.573697 0.502396 0.0815813
165 1 0.84412 0.00411133 0.331543
79 1 0.250958 -0.006609 0.246079
41 1 0.62879 0.15801 0.0101781
242 1 0.0682047 0.247031 0.488188
269 1 0.165994 0.340215 0.50418
258 1 0.733721 0.272023 0.496672
22 1 0.923957 0.0896244 0.0113069
270 1 0.242531 0.42294 0.491778
253 1 0.508938 0.174056 0.497224
34 1 0.414379 0.235753 -0.00857583
50 1 0.0856217 0.436543 -0.00225142
46 1 0.926376 0.255081 0.00846599
657 1 0.342021 0.511883 0.498242
218 1 0.0942498 0.096393 0.500793
257 1 0.681998 0.158642 0.486963
274 1 0.426806 0.420721 0.504713
229 1 0.521001 -0.00576195 0.499273
38 1 0.581435 0.247174 0.0175047
222 1 0.246301 0.0988145 0.502353
66 1 0.745334 0.414089 0.000572836
49 1 0.999594 0.33806 0.0175837
266 1 0.101034 0.413697 0.483074
250 1 0.421386 0.247944 0.490632
62 1 0.590276 0.407673 0.00806003
220 1 1.00789 0.0823381 0.579941
224 1 0.160709 0.0810817 0.583178
290 1 0.073539 0.0764648 0.675331
727 1 0.251157 0.502907 0.755211
228 1 0.330262 0.080184 0.586
247 1 0.243634 0.17731 0.585691
363 1 0.0742232 0.00176512 0.923599
431 1 0.913945 0.326629 0.928099
721 1 1.0053 0.494095 0.653464
232 1 0.501594 0.0726794 0.574458
29 1 0.163954 0.170487 1.00477
449 1 0.671504 0.506332 0.99748
432 1 0.815281 0.41574 0.922223
425 1 0.666733 0.332986 0.855035
21 1 0.844564 0.00548276 0.992584
369 1 0.336563 -0.00104729 0.83803
236 1 0.678806 0.0667164 0.579929
306 1 0.753028 0.0788715 0.680209
381 1 0.830033 -0.00586182 0.830213
799 1 0.256276 0.49137 0.912386
240 1 0.828904 0.080133 0.586076
231 1 0.605377 0.00476552 0.587551
69 1 0.834408 0.331489 1.0049
299 1 0.412785 0.00400512 0.758128
243 1 0.09299 0.16686 0.587452
314 1 0.0927678 0.260377 0.664446
244 1 0.99979 0.247258 0.573942
317 1 0.163351 0.167846 0.666735
30 1 0.246226 0.246223 1.00058
735 1 0.576078 0.495254 0.746922
248 1 0.163059 0.241256 0.572509
252 1 0.361278 0.259143 0.583668
251 1 0.43693 0.162593 0.578487
275 1 0.420006 0.344616 0.589337
345 1 0.345728 0.331147 0.659121
255 1 0.580604 0.152142 0.58336
256 1 0.495696 0.254539 0.599353
260 1 0.66812 0.25703 0.581849
279 1 0.588505 0.327687 0.586603
326 1 0.595852 0.250752 0.665991
349 1 0.504689 0.341217 0.6674
361 1 1.0072 -0.00613092 0.830855
259 1 0.731382 0.164012 0.588467
264 1 0.825945 0.251391 0.590218
330 1 0.734598 0.25933 0.67564
263 1 0.912517 0.166989 0.593698
287 1 0.928158 0.336719 0.611408
737 1 0.656486 0.49742 0.672552
267 1 0.0854284 0.329882 0.573373
338 1 0.0936322 0.423453 0.667362
412 1 1.00219 0.409108 0.920454
285 1 0.822031 0.31994 0.48442
273 1 0.346059 0.345504 0.483009
271 1 0.259179 0.328194 0.585136
272 1 0.16838 0.403672 0.580417
341 1 0.173499 0.334594 0.668676
365 1 0.162261 0.00162643 0.838698
276 1 0.33269 0.415397 0.582061
346 1 0.428523 0.428329 0.661855
427 1 0.742056 0.325417 0.929748
291 1 0.0965137 -0.00472664 0.756529
411 1 0.0818328 0.334058 0.918521
280 1 0.517592 0.437823 0.585332
284 1 0.649185 0.415404 0.573922
350 1 0.584982 0.408629 0.672826
409 1 0.0099605 0.351476 0.833067
283 1 0.74707 0.333251 0.585266
807 1 0.58686 0.491415 0.919712
410 1 0.0941585 0.43459 0.821201
268 1 0.00765522 0.419807 0.571172
288 1 0.829202 0.392508 0.588602
297 1 0.326657 0.000816837 0.66399
416 1 0.158267 0.420378 0.917486
296 1 0.163084 0.0848206 0.74083
292 1 0.00462414 0.0758026 0.756639
649 1 -0.00488967 0.498006 0.501726
362 1 0.0822984 0.078871 0.835916
294 1 0.255468 0.0917085 0.690805
300 1 0.34004 0.0843631 0.750144
319 1 0.241026 0.179846 0.744836
366 1 0.262994 0.0869575 0.829516
393 1 0.335036 0.163382 0.836646
298 1 0.41466 0.0821095 0.660934
323 1 0.424591 0.16135 0.747046
304 1 0.502768 0.0809336 0.769201
809 1 0.660719 0.494487 0.829765
302 1 0.586954 0.0807823 0.666505
308 1 0.668288 0.0979343 0.756981
422 1 0.577641 0.418935 0.830577
741 1 0.83584 0.508693 0.66709
428 1 0.665457 0.415036 0.92525
312 1 0.842786 0.0789018 0.750439
405 1 0.833869 0.162428 0.823061
245 1 0.174941 0.178374 0.494465
310 1 0.921339 0.0792116 0.661681
382 1 0.923772 0.0867682 0.840691
407 1 0.919771 0.174554 0.909297
315 1 0.0754883 0.172395 0.743278
313 1 1.00213 0.162497 0.657615
316 1 0.0143175 0.266852 0.762174
320 1 0.161861 0.257326 0.755618
386 1 0.0677132 0.259965 0.857685
318 1 0.271301 0.24597 0.667041
324 1 0.338311 0.229449 0.75177
343 1 0.259758 0.332381 0.749337
390 1 0.243163 0.269213 0.826885
321 1 0.351139 0.156127 0.654535
322 1 0.42275 0.259228 0.672335
394 1 0.411688 0.255229 0.826187
347 1 0.413868 0.343614 0.751504
398 1 0.57588 0.247568 0.824689
325 1 0.500704 0.17357 0.680559
327 1 0.58154 0.164201 0.760917
328 1 0.49151 0.265018 0.750985
351 1 0.580387 0.344368 0.756609
353 1 0.663202 0.340616 0.670933
421 1 0.505472 0.339109 0.83789
329 1 0.659928 0.163888 0.675643
333 1 0.82665 0.16308 0.671452
332 1 0.651062 0.264727 0.757644
331 1 0.749484 0.170136 0.75062
355 1 0.748015 0.339044 0.748918
335 1 0.930393 0.158733 0.740818
334 1 0.920702 0.248533 0.672379
337 1 0.0210741 0.341336 0.661163
336 1 0.840243 0.248315 0.756859
359 1 0.917103 0.337583 0.739712
339 1 0.089754 0.334319 0.765295
340 1 0.0170501 0.407974 0.745742
417 1 0.330062 0.3305 0.836387
342 1 0.261403 0.418685 0.656101
344 1 0.179287 0.416421 0.743901
739 1 0.748979 0.490594 0.767317
348 1 0.339495 0.442449 0.751221
352 1 0.493247 0.424017 0.741327
420 1 0.319671 0.403809 0.915875
793 1 1.00441 0.497431 0.843873
418 1 0.416511 0.427889 0.83752
419 1 0.417056 0.313483 0.923664
429 1 0.829603 0.333109 0.832147
356 1 0.664939 0.409611 0.752054
406 1 0.920856 0.261065 0.831139
426 1 0.74156 0.407755 0.83725
354 1 0.745115 0.429742 0.679277
400 1 0.510042 0.234888 0.914073
430 1 0.914747 0.400421 0.844918
357 1 0.833372 0.325547 0.673643
358 1 0.909291 0.425913 0.670738
360 1 0.828454 0.417574 0.756669
18 1 0.741419 0.0839413 1.00441
424 1 0.494033 0.429784 0.916489
414 1 0.247147 0.417207 0.825916
408 1 0.832561 0.250757 0.906974
396 1 0.326089 0.248366 0.907722
368 1 0.169482 0.0919569 0.92154
387 1 0.0752273 0.170371 0.914488
391 1 0.24184 0.164719 0.906807
372 1 0.327328 0.0864635 0.919877
415 1 0.239103 0.340887 0.932301
293 1 0.171928 0.0108718 0.652005
33 1 0.330425 0.172685 0.993359
370 1 0.426768 0.0765542 0.849013
395 1 0.415412 0.166202 0.91934
376 1 0.501792 0.0779879 0.923212
389 1 0.165974 0.166855 0.822702
402 1 0.747615 0.260124 0.819707
401 1 0.66365 0.185856 0.823776
397 1 0.508715 0.160805 0.833744
399 1 0.585044 0.162362 0.910902
374 1 0.597347 0.0728339 0.845876
380 1 0.674391 0.0689873 0.918295
404 1 0.647109 0.252553 0.926295
378 1 0.745941 0.0921818 0.828794
413 1 0.155369 0.332364 0.84803
403 1 0.743993 0.165402 0.9081
392 1 0.164786 0.26115 0.92181
385 1 0.00597483 0.170023 0.839522
384 1 0.820365 0.0855121 0.903356
364 1 0.992723 0.0976001 0.933238
423 1 0.583283 0.342827 0.916555
813 1 0.848185 0.493102 0.850407
388 1 0.999657 0.253103 0.937101
246 1 0.275374 0.254735 0.49407
37 1 0.494908 0.172372 0.994196
230 1 0.601953 0.0903186 0.492279
219 1 0.0839323 -0.00358424 0.590631
10 1 0.424339 0.0889032 0.995725
265 1 1.00217 0.334981 0.498795
2 1 0.0906331 0.0893478 0.999224
249 1 0.338527 0.157753 0.513663
282 1 0.745446 0.429637 0.506171
254 1 0.571861 0.261795 0.50194
57 1 0.330351 0.305915 0.999222
217 1 -0.00380477 -0.010112 0.520386
9 1 0.322981 -0.0104156 0.987621
42 1 0.751287 0.249883 0.998446
286 1 0.905971 0.402492 0.510065
6 1 0.264254 0.0900456 1.00215
262 1 0.92458 0.269332 0.495419
45 1 0.83539 0.161281 0.987281
277 1 0.499748 0.35106 0.516759
1 1 0.990653 -0.00661012 0.992238
440 1 0.17106 0.593142 0.075244
717 1 0.821753 0.829808 0.505084
87 1 0.578408 0.996413 0.263103
510 1 0.257485 0.580985 0.169178
463 1 0.239514 0.684591 0.0814795
481 1 0.994308 0.832391 -0.00201221
444 1 0.323848 0.580283 0.0845038
589 1 0.498866 0.500536 0.331432
713 1 0.680446 0.823788 0.498394
448 1 0.511893 0.590974 0.0865313
702 1 0.239082 0.921419 0.489402
81 1 0.32604 0.995413 0.157827
7 1 0.253728 0.998946 0.0622509
645 1 0.837303 0.835114 0.329158
451 1 0.751348 0.510233 0.077827
452 1 0.669774 0.571752 0.0787758
456 1 0.834226 0.586905 0.0868501
436 1 0.00549797 0.579289 0.0919287
625 1 0.988428 0.814602 0.332305
502 1 0.915489 0.908496 0.00429533
459 1 0.0913082 0.665331 0.0908452
483 1 0.066273 0.844535 0.07569
533 1 0.164414 0.671326 0.184971
498 1 0.748685 0.918174 -0.00920438
464 1 0.160865 0.761401 0.0904387
487 1 0.236249 0.839518 0.0840772
534 1 0.243343 0.7524 0.162136
77 1 0.154884 1.00232 0.160966
509 1 0.178901 0.505068 0.159178
467 1 0.407379 0.65592 0.0931864
468 1 0.331003 0.755279 0.0732478
472 1 0.495508 0.752636 0.0874888
491 1 0.421713 0.827741 0.0786338
465 1 0.33225 0.67744 0.000584449
471 1 0.598997 0.671061 0.0935116
476 1 0.681717 0.75226 0.0806872
654 1 0.245309 0.584143 0.488244
475 1 0.743718 0.654371 0.0832639
480 1 0.823188 0.734975 0.0961505
149 1 0.146311 1.00393 0.315942
549 1 0.837542 0.65508 0.171322
529 1 -0.00929241 0.664799 0.172393
479 1 0.918518 0.681179 0.0951744
460 1 0.00328031 0.770324 0.0804377
503 1 0.903275 0.804006 0.0949194
550 1 0.922528 0.752263 0.181532
553 1 0.995625 0.838634 0.158936
628 1 0.000999822 0.928182 0.412446
488 1 0.165446 0.92745 0.090183
554 1 0.0723779 0.91818 0.147507
557 1 0.161063 0.841879 0.1666
505 1 0.0100097 0.501776 0.180178
643 1 0.754509 0.851629 0.414972
558 1 0.248388 0.927673 0.154358
644 1 0.663333 0.905944 0.420229
648 1 0.845976 0.915022 0.404765
492 1 0.333807 0.898282 0.0895737
496 1 0.489023 0.922628 0.075158
11 1 0.411709 0.996848 0.0666301
636 1 0.329221 0.920836 0.415781
640 1 0.50153 0.918491 0.411711
495 1 0.592709 0.82176 0.081028
500 1 0.665802 0.904909 0.0875299
579 1 0.0810712 0.498059 0.420782
499 1 0.753118 0.841941 0.0727981
504 1 0.840932 0.91521 0.0757371
573 1 0.828491 0.83598 0.179147
153 1 0.322289 1.00515 0.34159
19 1 0.747923 0.982087 0.0830593
439 1 0.253519 0.501598 0.0790112
519 1 0.573289 0.518196 0.251006
484 1 -0.00169135 0.931882 0.069242
574 1 0.913485 0.914511 0.154559
506 1 0.0850466 0.583247 0.169311
512 1 0.170434 0.577558 0.239266
578 1 0.0933258 0.579324 0.329379
442 1 0.409197 0.587748 0.0143815
516 1 0.33271 0.590083 0.24892
605 1 0.169817 0.670175 0.331471
514 1 0.413664 0.587468 0.175172
586 1 0.402687 0.577262 0.328711
520 1 0.493255 0.593559 0.248069
634 1 0.403142 0.934716 0.344643
518 1 0.582439 0.586714 0.164438
590 1 0.586978 0.583328 0.346762
522 1 0.742786 0.579258 0.161427
524 1 0.67193 0.579515 0.262524
617 1 0.684173 0.667702 0.341438
547 1 0.753924 0.656657 0.258063
508 1 0.987577 0.583344 0.255195
526 1 0.913965 0.581528 0.169618
528 1 0.834988 0.565251 0.273853
598 1 0.927434 0.566966 0.345351
551 1 0.896278 0.656686 0.257751
453 1 0.83601 0.519617 0.000392054
531 1 0.0813363 0.650483 0.253947
530 1 0.0749011 0.744199 0.166296
536 1 0.184315 0.754288 0.251357
602 1 0.0850163 0.742813 0.322449
537 1 0.331271 0.666505 0.168128
535 1 0.240915 0.670664 0.255777
540 1 0.325517 0.750037 0.237458
559 1 0.244714 0.843517 0.269136
629 1 0.152707 0.823514 0.332078
541 1 0.504999 0.671931 0.162772
538 1 0.408501 0.7621 0.163214
539 1 0.403869 0.667451 0.24883
610 1 0.409152 0.73376 0.340509
545 1 0.674826 0.667717 0.182118
542 1 0.604016 0.756325 0.177744
543 1 0.590122 0.653117 0.262254
544 1 0.489794 0.743011 0.25555
546 1 0.754554 0.7409 0.181911
569 1 0.693318 0.841183 0.161453
548 1 0.672041 0.749097 0.25687
641 1 0.665024 0.834616 0.342404
571 1 0.748096 0.832547 0.25508
618 1 0.745617 0.757017 0.330725
552 1 0.835128 0.7518 0.248841
532 1 0.996063 0.72151 0.256603
161 1 0.668091 0.991973 0.340424
555 1 0.0622849 0.813479 0.249756
560 1 0.163179 0.922695 0.234677
626 1 0.0594804 0.919881 0.317423
237 1 0.839217 1.00683 0.495578
633 1 0.34921 0.831753 0.335481
564 1 0.325093 0.909887 0.260993
561 1 0.313052 0.838806 0.175981
562 1 0.418536 0.900674 0.169679
563 1 0.41506 0.851233 0.255312
568 1 0.506082 0.899283 0.246157
566 1 0.596524 0.898719 0.17075
565 1 0.513315 0.823233 0.170419
567 1 0.59421 0.82506 0.269677
637 1 0.500758 0.830559 0.332053
638 1 0.583429 0.922268 0.336354
694 1 0.914692 0.737994 0.518674
570 1 0.754766 0.929705 0.175517
642 1 0.750263 0.917241 0.327212
632 1 0.153317 0.918643 0.41696
572 1 0.671179 0.920316 0.245059
646 1 0.926404 0.935612 0.333801
630 1 0.238702 0.926537 0.338792
575 1 0.913112 0.826546 0.252317
556 1 0.98826 0.910021 0.245384
576 1 0.83837 0.926061 0.246068
627 1 0.0741612 0.833712 0.412612
580 1 0.000735596 0.579915 0.412693
603 1 0.0854028 0.6567 0.417559
163 1 0.761719 0.994424 0.396154
582 1 0.242233 0.573377 0.32842
443 1 0.409791 0.489111 0.0787854
584 1 0.172997 0.57231 0.409652
622 1 0.91387 0.733143 0.330417
620 1 0.676087 0.747926 0.411049
588 1 0.341081 0.571558 0.412991
624 1 0.828059 0.77053 0.413174
592 1 0.494825 0.596074 0.415032
615 1 0.578483 0.66397 0.421535
690 1 0.759035 0.743696 0.50161
594 1 0.763134 0.589232 0.341784
596 1 0.67322 0.587494 0.420182
619 1 0.762086 0.674394 0.423185
600 1 0.84452 0.580703 0.420122
587 1 0.420649 0.509326 0.405084
647 1 0.917715 0.835826 0.414413
601 1 1.00376 0.647483 0.33316
623 1 0.927779 0.661974 0.421916
604 1 0.00977648 0.730335 0.424046
606 1 0.244721 0.748648 0.342884
631 1 0.247621 0.840353 0.40706
608 1 0.16507 0.745951 0.421374
609 1 0.330021 0.673578 0.328971
607 1 0.250657 0.664169 0.42489
612 1 0.331254 0.747631 0.411607
635 1 0.426809 0.841333 0.422948
611 1 0.409264 0.660564 0.41582
621 1 0.834757 0.664322 0.345153
639 1 0.569876 0.816119 0.414249
613 1 0.494629 0.661642 0.334852
616 1 0.483606 0.742931 0.413632
614 1 0.586617 0.743814 0.336841
517 1 0.483879 0.511142 0.160555
595 1 0.740669 0.491439 0.414958
441 1 0.328191 0.50645 -0.00284874
494 1 0.593759 0.912315 0.000659794
437 1 0.167184 0.506256 0.0133966
470 1 0.593915 0.729804 -0.00359925
665 1 0.670244 0.502153 0.508156
705 1 0.336387 0.835482 0.493155
155 1 0.412422 1.00805 0.428713
513 1 0.33388 0.494851 0.181958
523 1 0.746883 0.502458 0.249903
85 1 0.496957 0.979229 0.174669
95 1 0.915277 1.00451 0.237823
591 1 0.591446 0.509641 0.426833
89 1 0.662733 0.990462 0.156456
15 1 0.574025 0.976242 0.0979695
581 1 0.167273 0.470909 0.33312
17 1 0.67245 0.985014 0.00289504
461 1 0.173974 0.678008 0.00411422
501 1 0.834572 0.821363 -0.0120986
697 1 -0.00115161 0.826763 0.495075
473 1 0.674795 0.669362 -0.00667596
446 1 0.581508 0.577639 -0.00154771
450 1 0.745953 0.589563 -0.0025937
457 1 0.0109944 0.666915 0.010548
701 1 0.161902 0.847925 0.503445
662 1 0.594981 0.597311 0.505497
681 1 0.333665 0.66001 0.49627
653 1 0.172867 0.503243 0.521733
462 1 0.24181 0.763785 -0.00200428
477 1 0.830504 0.659013 0.0124171
689 1 0.67051 0.677553 0.491868
434 1 0.0980055 0.592015 -0.000203884
718 1 0.919354 0.912864 0.496189
454 1 0.932613 0.59935 0.0114305
650 1 0.0935434 0.576528 0.494076
661 1 0.49427 0.506124 0.508128
233 1 0.683248 0.989127 0.502603
652 1 -0.0146199 0.576444 0.587949
675 1 0.0942538 0.67071 0.594399
745 1 0.00881323 0.663253 0.655726
466 1 0.422532 0.757895 0.99929
667 1 0.757694 0.500634 0.599918
685 1 0.49858 0.665564 0.497813
656 1 0.162322 0.58975 0.588791
863 1 0.908955 0.826426 0.918538
679 1 0.24337 0.657979 0.575011
367 1 0.245406 0.99428 0.911638
815 1 0.934512 0.493454 0.914764
660 1 0.32913 0.589909 0.576027
730 1 0.412041 0.593343 0.661239
862 1 0.914171 0.907167 0.83317
655 1 0.249448 0.50854 0.582788
664 1 0.503888 0.586554 0.576058
757 1 0.501236 0.670105 0.66884
490 1 0.410406 0.91026 0.990204
668 1 0.67933 0.593152 0.57534
761 1 0.68607 0.665973 0.672742
691 1 0.757869 0.676107 0.593747
672 1 0.823878 0.578859 0.578239
844 1 0.989615 0.906479 0.909077
742 1 0.912056 0.576968 0.671183
486 1 0.255693 0.906674 1.00571
223 1 0.25354 1.00092 0.580278
680 1 0.168617 0.75323 0.582881
746 1 0.0996587 0.753744 0.67061
301 1 0.492021 1.00343 0.674532
703 1 0.264015 0.832344 0.592853
750 1 0.255369 0.735921 0.663452
686 1 0.581473 0.751667 0.503415
683 1 0.429903 0.662735 0.581516
684 1 0.336187 0.744029 0.592029
754 1 0.420425 0.747383 0.661798
303 1 0.591163 1.00892 0.76017
723 1 0.0947244 0.509987 0.754391
688 1 0.499985 0.753359 0.580577
687 1 0.584307 0.667619 0.58147
711 1 0.59052 0.836935 0.585969
758 1 0.592494 0.748423 0.653649
781 1 0.503704 0.845114 0.670449
692 1 0.661151 0.754419 0.581229
762 1 0.749079 0.766986 0.665033
765 1 0.832639 0.666145 0.662815
375 1 0.59155 0.988243 0.920465
797 1 0.176826 0.509459 0.836262
671 1 0.90059 0.48504 0.572653
695 1 0.92802 0.667219 0.590327
696 1 0.835715 0.76003 0.592643
676 1 0.00690198 0.746749 0.573245
789 1 0.848895 0.831655 0.667929
699 1 0.0915936 0.826907 0.582988
773 1 0.171305 0.840249 0.666809
704 1 0.173774 0.916991 0.598506
307 1 0.756319 0.992695 0.747932
693 1 0.836308 0.66195 0.518602
371 1 0.413867 0.991626 0.919876
774 1 0.257629 0.91293 0.660861
725 1 0.163863 0.509424 0.66185
651 1 0.0868388 0.488326 0.577468
707 1 0.427502 0.835125 0.589237
708 1 0.343783 0.902372 0.579731
777 1 0.35579 0.81731 0.653078
305 1 0.681878 1.00189 0.670343
712 1 0.50844 0.921368 0.588645
716 1 0.664001 0.919135 0.579943
782 1 0.580746 0.921824 0.674539
295 1 0.233165 0.99624 0.744325
710 1 0.585897 0.908007 0.506951
715 1 0.744689 0.835417 0.576808
786 1 0.745917 0.904774 0.663979
785 1 0.661728 0.839239 0.66934
377 1 0.678303 0.997512 0.823952
729 1 0.341663 0.49678 0.64989
720 1 0.849127 0.900365 0.590672
719 1 0.915775 0.825337 0.571949
700 1 0.999601 0.905295 0.588223
722 1 0.0793492 0.577961 0.667755
794 1 0.0887687 0.578335 0.83668
749 1 0.166343 0.66084 0.675406
728 1 0.169921 0.581901 0.74792
747 1 0.0914173 0.660836 0.744848
753 1 0.324743 0.655201 0.670355
726 1 0.256643 0.577776 0.660693
821 1 0.171289 0.663565 0.816876
859 1 0.736378 0.832165 0.928341
864 1 0.823016 0.908555 0.917451
856 1 0.497492 0.90522 0.91762
732 1 0.329256 0.570981 0.742075
755 1 0.408458 0.665207 0.744791
736 1 0.520495 0.583142 0.75208
734 1 0.592344 0.597965 0.6591
806 1 0.591671 0.593959 0.835232
829 1 0.507836 0.678787 0.823776
833 1 0.672681 0.67879 0.836392
738 1 0.755883 0.578858 0.677561
855 1 0.58282 0.834141 0.91229
740 1 0.649213 0.568281 0.753471
744 1 0.83663 0.577862 0.771616
724 1 1.00766 0.582955 0.744086
379 1 0.755904 1.00435 0.913702
748 1 0.00332317 0.753446 0.752057
845 1 0.179357 0.835646 0.835099
751 1 0.253241 0.663577 0.746291
752 1 0.170898 0.760331 0.750068
775 1 0.260292 0.827583 0.726185
822 1 0.245066 0.74347 0.847897
756 1 0.330383 0.750863 0.729899
779 1 0.417252 0.827745 0.733383
825 1 0.327418 0.661469 0.821635
826 1 0.406106 0.750418 0.824075
759 1 0.586249 0.668102 0.73442
760 1 0.508009 0.740954 0.743362
764 1 0.679464 0.738349 0.74442
830 1 0.589688 0.751258 0.824585
763 1 0.75308 0.656805 0.758598
834 1 0.757598 0.750827 0.834864
766 1 0.92371 0.751279 0.665762
769 1 0.999589 0.827246 0.652446
767 1 0.921074 0.665692 0.741564
768 1 0.830128 0.751994 0.736267
791 1 0.91862 0.841809 0.74648
861 1 0.836269 0.831698 0.825419
771 1 0.0786713 0.841011 0.744613
770 1 0.0831314 0.915524 0.654972
842 1 0.0798147 0.917612 0.845962
860 1 0.661658 0.916734 0.910686
485 1 0.158086 0.846384 0.999449
776 1 0.160155 0.918071 0.767524
846 1 0.254772 0.934831 0.8236
851 1 0.417309 0.820346 0.909261
780 1 0.334238 0.91785 0.757061
805 1 0.50994 0.507941 0.831278
659 1 0.421519 0.517844 0.583175
778 1 0.403569 0.919297 0.682134
849 1 0.332646 0.822752 0.82328
783 1 0.588521 0.832692 0.744356
784 1 0.500437 0.922801 0.762005
854 1 0.586943 0.896224 0.828117
787 1 0.756142 0.828444 0.751985
788 1 0.660128 0.921192 0.754048
792 1 0.822836 0.908539 0.738476
858 1 0.753418 0.914717 0.835076
853 1 0.497292 0.826841 0.81196
669 1 0.823925 0.500175 0.503677
790 1 0.922526 0.913312 0.671633
772 1 0.00978605 0.929687 0.736328
838 1 0.904957 0.749614 0.806205
848 1 0.164579 0.915933 0.911382
800 1 0.172157 0.585666 0.920829
819 1 0.100163 0.679246 0.917684
309 1 0.836556 0.995332 0.67581
798 1 0.245829 0.59572 0.82412
850 1 0.415966 0.902575 0.831265
847 1 0.245599 0.838076 0.907972
5 1 0.167215 0.99583 0.988686
843 1 0.0736565 0.847307 0.911632
802 1 0.435123 0.595286 0.83128
804 1 0.340904 0.600164 0.913067
827 1 0.420165 0.683499 0.916513
808 1 0.50844 0.596374 0.91354
812 1 0.656784 0.585657 0.922666
810 1 0.72781 0.57821 0.835586
837 1 0.834626 0.671893 0.825648
816 1 0.832646 0.581149 0.912436
795 1 0.0895956 0.502018 0.916978
840 1 0.838003 0.726842 0.922331
814 1 0.936589 0.590147 0.831148
817 1 0.0094825 0.67271 0.819893
796 1 0.00961529 0.581388 0.923327
839 1 0.933491 0.656564 0.917508
289 1 0.995454 1.00293 0.660488
818 1 0.0992279 0.748803 0.826558
841 1 -0.00896996 0.836277 0.828709
824 1 0.157802 0.767505 0.920409
823 1 0.247108 0.67726 0.92316
828 1 0.336405 0.746286 0.902147
852 1 0.318174 0.908487 0.903263
832 1 0.500895 0.752413 0.89817
857 1 0.66929 0.827012 0.819977
831 1 0.587936 0.666879 0.917061
836 1 0.667786 0.757083 0.911183
820 1 -0.000257373 0.762514 0.902403
835 1 0.748583 0.669199 0.910598
733 1 0.49894 0.511592 0.658337
311 1 0.925443 0.99375 0.747916
743 1 0.929597 0.493624 0.760598
803 1 0.431228 0.518626 0.9197
383 1 0.922024 0.998789 0.907336
373 1 0.506414 0.994316 0.846667
801 1 0.347296 0.517285 0.83767
666 1 0.752405 0.588535 0.491155
235 1 0.760142 0.994522 0.589523
731 1 0.421926 0.518299 0.751476
709 1 0.500157 0.844061 0.506976
239 1 0.915276 0.989199 0.586413
227 1 0.415555 1.00072 0.587975
670 1 0.915151 0.576638 0.500462
663 1 0.585973 0.518883 0.585531
811 1 0.741911 0.497775 0.913623
698 1 0.0808446 0.91507 0.495485
433 1 0.990796 0.496652 1.00687
13 1 0.497316 0.989748 0.988891
714 1 0.765665 0.92937 0.498375
673 1 0.0208426 0.663863 0.507052
474 1 0.757198 0.748815 1.00425
497 1 0.650188 0.820353 0.994358
678 1 0.263641 0.740784 0.495215
493 1 0.518029 0.823614 1.00921
658 1 0.418563 0.590397 0.493904
478 1 0.927499 0.74236 1.00399
458 1 0.0768878 0.760372 0.989923
674 1 0.0897346 0.764228 0.492748
469 1 0.496098 0.673926 0.997363
682 1 0.41762 0.754011 0.505678
706 1 0.407444 0.924431 0.487473
489 1 0.32615 0.82544 0.988335
438 1 0.264952 0.586667 0.998033
482 1 0.0836682 0.921192 0.989681
677 1 0.159337 0.670365 0.489408
