ITEM: TIMESTEP
26500
ITEM: NUMBER OF ATOMS
1372
ITEM: BOX BOUNDS pp pp pp
0.0000000000000000e+00 3.6820000000000000e+01
0.0000000000000000e+00 3.6820000000000000e+01
0.0000000000000000e+00 3.6820000000000000e+01
ITEM: ATOMS id type xs ys zs
8 1 0.139562 0.0677998 0.074129
100 1 0.0541466 0.058043 0.140989
688 1 0.488505 0.994364 0.069795
102 1 -0.00342346 0.0631441 0.215246
940 1 0.494992 0.589116 0.367518
772 1 0.508667 0.856081 0.0601921
12 1 0.277712 0.0587128 0.0660461
104 1 0.214873 0.0678051 0.142956
953 1 0.494864 0.789591 0.296866
842 1 0.488738 0.579721 0.222632
911 1 0.504986 0.360696 0.290865
108 1 0.340918 0.0716408 0.134432
14 1 0.422938 0.0620937 0.0555594
11 1 0.350108 1.00207 0.0628184
111 1 0.418776 1.00261 0.129757
74 1 0.00575192 0.802223 0.0881364
291 1 0.376174 0.85893 0.35996
214 1 0.00732161 0.212805 0.353581
17 1 0.0748081 0.137153 0.0720443
117 1 0.142122 0.14441 0.148613
22 1 0.142914 0.211996 0.0593313
114 1 0.067587 0.21379 0.148375
183 1 0.0142827 0.86645 0.156038
242 1 0.00379186 0.497058 0.354946
121 1 0.28192 0.142881 0.147818
21 1 0.21223 0.131927 0.0739654
26 1 0.273701 0.218096 0.0654869
118 1 0.213878 0.206909 0.154946
144 1 0.0154208 0.49301 0.21878
25 1 0.344515 0.126344 0.0698603
125 1 0.418567 0.141284 0.137883
122 1 0.354303 0.208574 0.125514
28 1 0.42473 0.214502 0.0660025
207 1 0.354705 1.00383 0.358682
31 1 0.0630801 0.288189 0.0601802
131 1 0.135876 0.276013 0.135593
36 1 0.133759 0.362855 0.0830145
128 1 0.0723428 0.361324 0.151052
145 1 0.141528 0.42804 0.148828
99 1 -0.00834191 0.98782 0.152181
869 1 0.489862 0.928444 0.147197
18 1 0.00199028 0.209561 0.0785395
925 1 0.506465 0.497693 0.270774
35 1 0.21376 0.289824 0.0771183
135 1 0.289086 0.265707 0.141096
40 1 0.28897 0.367312 0.0702489
132 1 0.224042 0.359881 0.151447
149 1 0.297601 0.42597 0.141195
995 1 0.506185 0.357594 0.428723
39 1 0.351805 0.29543 0.0768202
139 1 0.418137 0.28664 0.146099
42 1 0.436813 0.350853 0.0749469
136 1 0.355901 0.355479 0.14062
53 1 0.360331 0.429512 0.0773954
32 1 0.000511811 0.352537 0.0705809
364 1 0.440499 0.358721 0.513052
45 1 0.0778127 0.429709 0.0680853
50 1 0.155379 0.503304 0.0693347
142 1 0.0827575 0.496997 0.136362
159 1 0.1453 0.558827 0.154585
702 1 0.49367 0.146922 0.0749774
294 1 0.431187 0.930711 0.353689
211 1 -0.000505704 0.148342 0.287625
49 1 0.211562 0.420301 0.0827138
54 1 0.281484 0.498685 0.079861
146 1 0.21679 0.48477 0.151173
63 1 0.218755 0.574506 0.0658839
366 1 0.00123187 0.504088 0.497278
41 1 0.424811 0.29341 -0.00969124
153 1 0.42069 0.41657 0.137123
56 1 0.424205 0.496997 0.0851893
150 1 0.353418 0.499519 0.148697
342 1 0.365225 0.929444 0.420427
1016 1 0.494317 0.77582 0.421108
340 1 0.203118 0.916047 0.420241
59 1 0.0717818 0.555885 0.0680392
64 1 0.142904 0.626526 0.0776659
156 1 0.0683814 0.642077 0.134701
173 1 0.146313 0.7181 0.142319
163 1 0.296429 0.570702 0.142154
68 1 0.2869 0.639424 0.0668649
160 1 0.215831 0.655936 0.133117
177 1 0.292943 0.71028 0.142825
58 1 0.0749453 0.630622 -0.000718718
167 1 0.423779 0.572348 0.145941
67 1 0.35872 0.568804 0.0666779
70 1 0.424063 0.631463 0.0691729
164 1 0.355931 0.634942 0.138705
181 1 0.421137 0.709688 0.140814
81 1 0.360399 0.70599 0.06436
856 1 0.48808 0.723297 0.239897
292 1 0.29132 0.920591 0.358598
127 1 -0.00446688 0.281694 0.141959
73 1 0.0723316 0.707761 0.0697429
78 1 0.150389 0.775478 0.0732965
170 1 0.0935435 0.795193 0.148768
187 1 0.154346 0.857076 0.146892
87 1 0.0846061 0.850356 0.0675538
77 1 0.222477 0.719052 0.0632058
82 1 0.291384 0.780953 0.0570752
174 1 0.214249 0.783205 0.139638
191 1 0.276414 0.864883 0.149979
91 1 0.217662 0.840813 0.0651093
46 1 -0.00633986 0.501452 0.0804653
84 1 0.424035 0.788901 0.0593631
178 1 0.335708 0.791069 0.132349
195 1 0.437454 0.8565 0.124731
374 1 0.216575 0.571277 0.508375
373 1 0.00809405 0.645748 0.500482
3 1 0.0808064 0.997904 0.0676137
103 1 0.145431 -0.00919608 0.144534
113 1 0.00723334 0.138601 0.140434
92 1 0.156446 0.913552 0.0690997
184 1 0.0751693 0.932894 0.130272
203 1 0.222766 0.997541 0.353653
716 1 0.502004 0.285172 0.0800318
107 1 0.290237 0.999316 0.148272
7 1 0.205654 1.00633 0.0719469
1002 1 0.505037 0.508761 0.434851
96 1 0.278523 0.934842 0.0741724
188 1 0.212272 0.933075 0.141264
95 1 0.35593 0.860306 0.0791765
98 1 0.420258 0.928021 0.064433
192 1 0.352828 0.935792 0.131705
813 1 0.501252 0.359846 0.142965
744 1 0.508359 0.568902 0.0651591
106 1 0.13764 0.0766932 0.207597
198 1 0.0658249 0.06277 0.289754
201 1 0.139005 0.00283932 0.28509
115 1 0.0671342 0.144442 0.220126
110 1 0.296709 0.0691445 0.21415
202 1 0.208158 0.0614321 0.279729
205 1 0.281908 1.00483 0.286182
119 1 0.226122 0.139554 0.227355
299 1 0.30173 0.00895907 0.447572
341 1 0.275699 0.858942 0.431264
112 1 0.431335 0.0654268 0.222447
206 1 0.362078 0.0715024 0.288025
223 1 0.434168 0.149968 0.28504
109 1 0.354878 0.992961 0.21672
1009 1 0.487187 0.63365 0.443955
215 1 0.149011 0.145522 0.282992
120 1 0.152667 0.213678 0.22015
212 1 0.0781945 0.219726 0.292952
344 1 0.0619275 1.00517 0.505944
219 1 0.293959 0.143328 0.302948
124 1 0.297944 0.220031 0.224805
216 1 0.224014 0.210693 0.29131
123 1 0.35971 0.144334 0.219505
126 1 0.428704 0.218196 0.210264
220 1 0.37503 0.214621 0.29108
785 1 0.489916 0.0688522 0.132748
129 1 0.0812226 0.286255 0.222207
229 1 0.154718 0.280762 0.285975
134 1 0.150497 0.350358 0.219818
226 1 0.078996 0.350318 0.293785
243 1 0.151895 0.418158 0.289622
143 1 0.0768789 0.417252 0.224945
197 1 -0.0139798 0.0135691 0.287282
133 1 0.229833 0.288723 0.216307
233 1 0.303984 0.281608 0.305061
138 1 0.298207 0.35463 0.229063
230 1 0.222363 0.356059 0.284481
147 1 0.229369 0.429691 0.221903
247 1 0.288353 0.435485 0.292787
939 1 0.48716 0.644706 0.289741
237 1 0.438852 0.288428 0.291336
137 1 0.365053 0.292875 0.221644
140 1 0.436067 0.365688 0.213237
234 1 0.369149 0.354785 0.295712
60 1 0.00170809 0.640412 0.0658942
148 1 0.139125 0.483384 0.225294
240 1 0.0656095 0.483432 0.291861
157 1 0.0673289 0.576531 0.211511
281 1 -0.0028635 0.852148 0.284219
152 1 0.28437 0.504877 0.216391
244 1 0.212421 0.49297 0.287572
161 1 0.221092 0.568993 0.204746
261 1 0.289544 0.569321 0.283858
339 1 0.123315 0.859545 0.429251
251 1 0.417652 0.426706 0.292384
151 1 0.358847 0.420535 0.226134
154 1 0.42718 0.500391 0.213119
248 1 0.360384 0.50925 0.294263
265 1 0.42434 0.576646 0.280977
165 1 0.35609 0.572906 0.211691
199 1 0.0772685 0.00232035 0.361858
257 1 0.141446 0.5681 0.272809
162 1 0.136669 0.639975 0.193859
254 1 0.0827117 0.637905 0.283236
171 1 0.0739354 0.702781 0.209999
166 1 0.28505 0.641935 0.212711
258 1 0.201493 0.637732 0.282855
275 1 0.278884 0.716214 0.280131
175 1 0.204524 0.715207 0.217852
288 1 0.145611 0.932977 0.354038
168 1 0.430985 0.652493 0.211567
262 1 0.337571 0.645842 0.299576
179 1 0.35171 0.713893 0.202054
271 1 0.135847 0.715822 0.289889
176 1 0.151185 0.794495 0.231087
268 1 0.0726057 0.781691 0.294524
285 1 0.149951 0.860136 0.289613
185 1 0.0775286 0.85617 0.230997
180 1 0.289889 0.787515 0.219719
272 1 0.219666 0.786645 0.278182
189 1 0.209146 0.860373 0.217226
279 1 0.412144 0.711289 0.297216
182 1 0.423278 0.791697 0.210207
276 1 0.352973 0.784887 0.290942
101 1 0.0763197 0.00167366 0.210682
190 1 0.143189 0.930253 0.218307
282 1 0.0658114 0.934497 0.287583
335 1 0.354267 0.807536 0.432995
338 1 0.0690873 0.934063 0.440964
105 1 0.212008 0.998695 0.214905
289 1 0.299836 0.858652 0.29124
194 1 0.28942 0.918418 0.225348
286 1 0.224621 0.928519 0.294178
209 1 0.424534 -0.00139199 0.284292
293 1 0.424681 0.859649 0.292436
193 1 0.360032 0.868565 0.194784
196 1 0.435617 0.928301 0.225526
290 1 0.357159 0.935214 0.291222
88 1 -0.00259106 0.928543 0.0760571
297 1 0.150418 0.00463334 0.42743
204 1 0.147193 0.0725666 0.349527
296 1 0.0658304 0.0706237 0.42361
304 1 0.149699 0.146827 0.438163
213 1 0.0783179 0.138201 0.351667
283 1 0.0777199 0.859165 0.351396
208 1 0.287428 0.0707172 0.358903
298 1 0.21557 0.0746907 0.429456
217 1 0.222607 0.152747 0.37272
306 1 0.29923 0.158091 0.436399
301 1 0.428496 0.0102268 0.435841
210 1 0.426205 0.0651769 0.352649
300 1 0.359886 0.079975 0.422415
221 1 0.378442 0.152106 0.366936
308 1 0.430743 0.145293 0.434232
954 1 0.490576 0.70375 0.360854
218 1 0.149341 0.210615 0.368892
303 1 0.0828588 0.215953 0.429963
227 1 0.0735738 0.275502 0.366877
311 1 0.148872 0.27856 0.428998
169 1 0.00567198 0.714568 0.136027
336 1 0.41431 0.720584 0.420732
222 1 0.312361 0.213284 0.361611
305 1 0.221713 0.221711 0.427396
313 1 0.284093 0.289848 0.427608
231 1 0.225471 0.294011 0.360361
270 1 0.0036401 0.784068 0.36237
855 1 0.507081 0.789772 0.138072
224 1 0.442801 0.211215 0.357409
307 1 0.368474 0.226241 0.43335
315 1 0.439654 0.293878 0.436464
235 1 0.378798 0.275076 0.365961
228 1 0.00683411 0.34606 0.362131
333 1 0.20061 0.797102 0.431353
274 1 0.137461 0.782929 0.358458
310 1 0.0778662 0.345387 0.429786
232 1 0.146247 0.345713 0.357565
318 1 0.154399 0.42586 0.428652
343 1 0.431297 0.848666 0.439697
236 1 0.293226 0.361638 0.361975
312 1 0.211536 0.346493 0.431487
245 1 0.214465 0.412367 0.354259
238 1 0.436342 0.359724 0.365235
314 1 0.364589 0.361052 0.44631
295 1 -0.0034768 0.00500638 0.447158
287 1 0.222193 0.849498 0.351171
278 1 0.280942 0.783855 0.368789
280 1 0.427055 0.776697 0.358442
241 1 0.0780087 0.417524 0.365348
246 1 0.140944 0.490623 0.360004
317 1 0.0793768 0.482254 0.440454
334 1 0.254432 0.71972 0.420972
259 1 0.201133 0.566687 0.345419
320 1 0.291386 0.4311 0.4359
319 1 0.220027 0.494346 0.423234
250 1 0.287941 0.506073 0.350944
799 1 0.500859 0.209216 0.140924
249 1 0.35781 0.423157 0.365971
322 1 0.435201 0.434768 0.423883
263 1 0.345515 0.574102 0.363765
252 1 0.426609 0.515692 0.357824
321 1 0.352716 0.497769 0.426638
225 1 0.00166672 0.287263 0.283908
331 1 0.0681899 0.79273 0.43129
277 1 0.341695 0.71892 0.360245
324 1 0.079633 0.628927 0.419354
260 1 0.146038 0.637037 0.355284
255 1 0.0782102 0.558341 0.350038
325 1 0.150275 0.556859 0.433387
332 1 0.138187 0.707265 0.421527
326 1 0.205873 0.635638 0.439611
327 1 0.285377 0.571919 0.430326
273 1 0.206437 0.70697 0.349236
264 1 0.266662 0.630125 0.352654
269 1 0.0652041 0.709977 0.362319
266 1 0.409399 0.645781 0.360318
328 1 0.344741 0.644643 0.428936
329 1 0.414345 0.574291 0.438561
897 1 0.504826 0.2229 0.285529
884 1 0.496606 1.01158 0.357831
337 1 -0.0069344 0.862817 0.426378
19 1 0.137975 0.137487 -0.00281024
376 1 0.35359 0.566225 0.508133
141 1 0.00655753 0.427353 0.143624
23 1 0.281868 0.133339 -0.0125392
4 1 0.00609237 0.069966 0.0638069
309 1 -0.00514948 0.281901 0.429208
302 1 -0.000907752 0.150838 0.420769
758 1 0.489093 0.718963 0.0667962
316 1 0.00160283 0.417586 0.430591
898 1 0.502469 0.130419 0.359874
130 1 -0.0065165 0.346438 0.21061
814 1 0.496571 0.288271 0.20965
1065 1 0.489198 0.701906 0.514795
988 1 0.505921 0.219745 0.435734
841 1 0.495875 0.642063 0.135238
239 1 0.00420099 0.414763 0.29676
267 1 -0.000715551 0.713931 0.279366
284 1 0.000333294 0.926445 0.349647
359 1 0.00309406 0.352203 0.500293
33 1 0.151232 0.284085 -0.00148066
377 1 0.280955 0.642959 0.501809
383 1 0.336642 0.728755 0.478561
44 1 0.0699982 0.497102 0.00318143
24 1 0.343044 0.199732 0.00929952
378 1 0.411769 0.652435 0.499768
347 1 0.142065 0.0683073 0.504426
30 1 0.0837483 0.360671 -0.00578607
72 1 0.0600778 0.788041 0.0036227
55 1 0.432718 0.446115 -0.00741481
365 1 0.0754096 0.424777 0.499988
391 1 0.295363 0.927693 0.487644
62 1 0.205272 0.637719 -0.004779
349 1 0.281743 0.0952283 0.497453
387 1 0.000533311 0.933903 0.504215
37 1 0.279715 0.27012 -0.00990775
61 1 0.149289 0.562464 0.0012707
372 1 0.0810077 0.564334 0.499626
89 1 0.152164 0.856926 0.00287758
388 1 0.212244 0.859775 0.502921
386 1 0.0575718 0.855087 0.50339
34 1 0.217819 0.359635 0.0119429
6 1 0.208998 0.0722005 -0.00110321
345 1 -0.0109277 0.0873026 0.495471
394 1 0.0608484 0.0852244 0.574087
400 1 0.142862 0.0718397 0.646253
411 1 0.140144 0.135119 0.576148
395 1 0.0649676 -0.00472305 0.651727
86 1 0.0757705 0.918141 1.00353
398 1 0.209886 0.0707384 0.562908
404 1 0.28077 0.0618371 0.638884
413 1 0.209034 0.140171 0.635358
771 1 0.501642 0.92946 0.99147
536 1 -0.00247958 0.508188 0.787674
402 1 0.361414 0.0678957 0.573064
406 1 0.427808 0.0618029 0.636617
417 1 0.365006 0.145855 0.647096
599 1 0.365845 -0.00974283 0.91521
601 1 0.430669 -0.0161608 0.845745
405 1 0.434348 0.990346 0.573596
367 1 0.213746 0.418831 0.492315
368 1 0.157379 0.496085 0.496808
356 1 0.276059 0.214968 0.504562
409 1 0.0649686 0.136112 0.646864
408 1 0.069912 0.210758 0.575655
414 1 0.143392 0.203456 0.647644
425 1 0.146428 0.294833 0.575551
83 1 0.427149 0.71049 0.998316
363 1 0.277073 0.358875 0.500833
662 1 -0.0113547 0.787779 0.923602
415 1 0.28628 0.14276 0.579225
412 1 0.221657 0.211178 0.576879
418 1 0.288909 0.217927 0.656489
427 1 0.20832 0.271173 0.637903
429 1 0.282695 0.282841 0.572799
620 1 0.00910142 0.367712 0.926556
419 1 0.43067 0.13344 0.579025
416 1 0.355306 0.203713 0.571612
420 1 0.438017 0.212293 0.64116
433 1 0.439557 0.274895 0.576181
431 1 0.359286 0.278516 0.644667
423 1 0.0733696 0.295085 0.650109
422 1 0.0857658 0.361581 0.567125
428 1 0.149535 0.359944 0.644574
437 1 0.0774679 0.427794 0.635331
686 1 0.439211 0.919389 0.91634
1192 1 0.515736 0.139392 0.776098
13 1 0.428009 0.989646 0.994813
426 1 0.224669 0.355528 0.585219
432 1 0.311931 0.363853 0.656848
1290 1 0.499615 0.152776 0.9231
90 1 0.211594 0.943901 0.988107
430 1 0.357265 0.351548 0.572681
434 1 0.422334 0.350498 0.637803
1122 1 0.505015 0.435215 0.642219
1276 1 0.502261 -0.00841469 0.922362
439 1 0.145129 0.431179 0.567486
436 1 0.0710504 0.499015 0.570578
442 1 0.153606 0.492723 0.641832
352 1 0.00807873 0.21538 0.502763
443 1 0.28982 0.431168 0.567322
441 1 0.233164 0.421722 0.648734
440 1 0.223173 0.495822 0.573944
446 1 0.294517 0.489732 0.647577
447 1 0.440254 0.441205 0.568833
445 1 0.377254 0.436672 0.650773
444 1 0.364312 0.501895 0.585518
448 1 0.436421 0.501226 0.653744
459 1 0.351381 0.581732 0.650585
461 1 0.429329 0.576814 0.587221
361 1 0.146531 0.353237 0.489727
453 1 0.138911 0.562409 0.56339
451 1 0.0686439 0.549726 0.653328
450 1 0.0663089 0.634611 0.579507
456 1 0.142972 0.63401 0.639473
465 1 0.0696255 0.709079 0.641285
682 1 0.360746 0.914581 0.843561
683 1 0.354842 0.855278 0.926761
457 1 0.292306 0.571224 0.583268
455 1 0.210816 0.577655 0.629827
454 1 0.211201 0.653097 0.565656
460 1 0.274481 0.643549 0.64327
1177 1 0.503442 0.0660555 0.697583
458 1 0.353841 0.639466 0.571048
462 1 0.417599 0.652557 0.648175
475 1 0.413699 0.71681 0.578316
679 1 0.207029 0.858404 0.919151
575 1 -0.00822218 0.859243 0.71444
684 1 0.296069 0.927679 0.920898
467 1 0.13417 0.713182 0.574093
464 1 0.0648904 0.796745 0.576454
470 1 0.141848 0.774757 0.652287
479 1 0.0614703 0.862708 0.640596
481 1 0.135857 0.868324 0.55927
379 1 0.0698734 0.718267 0.499229
410 1 -0.00886583 0.22409 0.646607
471 1 0.285398 0.710679 0.554442
469 1 0.214891 0.722106 0.629009
375 1 0.132967 0.638456 0.491965
468 1 0.217453 0.795664 0.562305
474 1 0.281968 0.785663 0.64754
483 1 0.201315 0.860795 0.640385
473 1 0.339884 0.706065 0.642564
472 1 0.348186 0.781494 0.568465
476 1 0.431509 0.782322 0.643218
678 1 0.2133 0.940971 0.861121
392 1 0.443194 0.921039 0.509903
397 1 0.143776 0.00733965 0.565706
478 1 0.0647127 0.931606 0.567688
484 1 0.143209 0.942936 0.639854
424 1 0.00168734 0.363402 0.643228
485 1 0.288933 0.854206 0.573487
399 1 0.21041 1.00513 0.627724
401 1 0.282919 1.00573 0.558085
482 1 0.214399 0.933941 0.568123
488 1 0.274921 0.923614 0.629072
1289 1 0.504305 0.220135 0.847604
489 1 0.448555 0.848555 0.57101
487 1 0.350867 0.850195 0.646189
348 1 0.370177 0.98003 0.505207
403 1 0.356313 1.00393 0.636327
486 1 0.360969 0.931136 0.587909
490 1 0.436064 0.930045 0.639391
492 1 0.0661735 0.0763775 0.717419
498 1 0.139719 0.0755282 0.787725
507 1 0.0679095 0.141629 0.785465
493 1 0.0772779 0.00405172 0.77936
496 1 0.210733 0.0603194 0.711403
502 1 0.2907 0.0596329 0.778873
499 1 0.293297 0.994854 0.707631
519 1 -0.00759504 0.305583 0.724644
1346 1 0.50312 0.708963 0.93126
500 1 0.363572 0.0628053 0.711762
504 1 0.426314 0.0579686 0.778843
503 1 0.442541 0.992485 0.707511
501 1 0.356237 0.984922 0.783932
743 1 0.488391 0.638741 0.998037
509 1 0.138052 0.148802 0.720632
506 1 0.0593227 0.20635 0.711743
512 1 0.143049 0.214944 0.791438
513 1 0.28572 0.126762 0.704055
511 1 0.213733 0.129282 0.778126
510 1 0.218589 0.204766 0.712586
516 1 0.278629 0.197086 0.783251
1317 1 0.504999 0.499115 0.852119
1332 1 0.499427 0.57373 0.92778
517 1 0.432159 0.136978 0.715729
515 1 0.357806 0.131826 0.781277
514 1 0.369874 0.207244 0.712321
518 1 0.43539 0.219354 0.77528
523 1 0.137149 0.279387 0.722483
521 1 0.0565778 0.284882 0.789448
520 1 0.0712504 0.352481 0.720021
526 1 0.137679 0.342748 0.791331
435 1 0.00657516 0.424705 0.559619
603 1 -0.00886072 0.13893 0.870207
527 1 0.286201 0.288814 0.713244
525 1 0.209851 0.277314 0.787886
524 1 0.215629 0.346757 0.728394
530 1 0.282498 0.353213 0.790732
346 1 0.213204 -0.00595439 0.494061
529 1 0.363489 0.27499 0.780212
531 1 0.433752 0.284611 0.701033
528 1 0.379561 0.362227 0.720722
532 1 0.44542 0.336904 0.78364
421 1 0.00935985 0.292094 0.578548
535 1 0.0766725 0.418658 0.795179
537 1 0.1333 0.422169 0.712608
534 1 0.0736381 0.487447 0.714113
540 1 0.135074 0.504488 0.785724
549 1 0.0694301 0.569283 0.768456
539 1 0.212035 0.428483 0.774905
541 1 0.303055 0.415126 0.724205
538 1 0.215373 0.489719 0.713504
544 1 0.287444 0.483242 0.785253
681 1 0.280993 0.852142 0.847128
545 1 0.443041 0.442748 0.724326
543 1 0.380966 0.419496 0.805282
542 1 0.360589 0.495158 0.718285
546 1 0.455464 0.508299 0.78427
559 1 0.432934 0.579255 0.707908
660 1 0.0674093 0.782391 0.851615
551 1 0.143037 0.57215 0.704638
548 1 0.064076 0.637479 0.700941
554 1 0.141193 0.636483 0.776791
563 1 0.068827 0.703968 0.781938
553 1 0.219229 0.568494 0.785097
555 1 0.263752 0.567115 0.709529
552 1 0.20343 0.645982 0.715559
558 1 0.2875 0.645167 0.7806
569 1 0.278183 0.706804 0.715934
677 1 0.136057 0.855326 0.841097
557 1 0.345769 0.575353 0.77949
556 1 0.35358 0.643144 0.712095
560 1 0.415748 0.640474 0.772803
573 1 0.431427 0.712915 0.721656
571 1 0.356385 0.710489 0.788446
680 1 0.140639 0.927566 0.922478
565 1 0.132335 0.701433 0.709473
562 1 0.0652717 0.782238 0.706108
568 1 0.145676 0.793844 0.781862
567 1 0.200148 0.702723 0.778959
566 1 0.206767 0.798798 0.711146
572 1 0.282207 0.780415 0.778308
583 1 0.283921 0.855447 0.707899
674 1 0.0658887 0.936607 0.851303
631 1 0.00796643 0.425316 0.8576
570 1 0.355729 0.782684 0.716373
574 1 0.433631 0.788178 0.792746
587 1 0.429483 0.850715 0.715492
585 1 0.369645 0.846242 0.782419
591 1 0.0631061 -0.00138278 0.920593
675 1 0.0669762 0.85787 0.923968
495 1 0.140186 0.00361997 0.714186
577 1 0.0599735 0.863728 0.782971
579 1 0.133747 0.871868 0.713318
576 1 0.0625654 0.926871 0.716179
582 1 0.153958 0.945191 0.781014
1220 1 0.502533 0.42212 0.799416
581 1 0.207677 0.867917 0.776283
497 1 0.223037 0.0111198 0.806183
580 1 0.221396 0.937114 0.704969
586 1 0.273265 0.935917 0.789681
650 1 0.221636 0.631687 0.859667
584 1 0.355882 0.9312 0.692185
588 1 0.452028 0.930533 0.774561
1150 1 0.503703 0.714302 0.649289
656 1 0.276242 0.649414 0.926533
1136 1 0.508788 0.568893 0.648675
593 1 0.134723 0.0086015 0.861024
590 1 0.0628321 0.0659248 0.858958
596 1 0.14253 0.0733753 0.926938
605 1 0.0685647 0.130116 0.929699
597 1 0.288763 1.00111 0.857219
595 1 0.214085 -0.00243101 0.919887
594 1 0.226645 0.0859794 0.856862
600 1 0.293794 0.0777417 0.925939
609 1 0.211685 0.136436 0.927149
668 1 0.350735 0.78265 0.850477
598 1 0.369441 0.0602885 0.847089
602 1 0.427629 0.0637253 0.929829
1072 1 0.504598 0.854874 0.490277
672 1 0.427612 0.784559 0.917063
1051 1 0.503282 0.442628 0.500545
607 1 0.140426 0.145775 0.85547
604 1 0.0649454 0.20561 0.846862
610 1 0.137454 0.214735 0.917991
611 1 0.297959 0.135792 0.845895
608 1 0.215765 0.205057 0.866525
614 1 0.300468 0.193678 0.916665
97 1 0.432676 0.847871 0.994487
1360 1 0.514847 0.849333 0.929888
613 1 0.366515 0.13819 0.922849
615 1 0.44569 0.1401 0.846959
612 1 0.372979 0.209046 0.851703
616 1 0.429397 0.213194 0.934461
52 1 0.356116 0.493393 1.00435
670 1 0.278268 0.787248 0.915139
621 1 0.123599 0.276438 0.857685
619 1 0.0693282 0.280672 0.947909
618 1 0.0742895 0.360709 0.867443
624 1 0.146729 0.348111 0.922811
623 1 0.224663 0.281822 0.917179
625 1 0.286177 0.265033 0.84454
622 1 0.208655 0.348249 0.850107
628 1 0.294308 0.35656 0.936207
664 1 0.201018 0.773169 0.851069
657 1 0.434923 0.579012 0.852589
627 1 0.354642 0.27823 0.9209
629 1 0.429071 0.279212 0.865967
626 1 0.349962 0.345953 0.856208
630 1 0.432622 0.362898 0.935616
654 1 0.352227 0.641332 0.85307
665 1 0.212017 0.712373 0.92885
633 1 0.0769676 0.431949 0.939661
635 1 0.139639 0.424435 0.86367
632 1 0.0756987 0.503914 0.862655
638 1 0.161612 0.493435 0.929203
647 1 0.0686827 0.569577 0.931147
667 1 0.278565 0.710927 0.858341
637 1 0.210097 0.413059 0.914854
639 1 0.29699 0.42511 0.863096
636 1 0.207524 0.496635 0.83929
642 1 0.270243 0.493492 0.917804
651 1 0.209988 0.575353 0.92728
671 1 0.438232 0.71621 0.842259
669 1 0.349368 0.721297 0.919803
658 1 0.434872 0.645761 0.918014
643 1 0.441474 0.418412 0.86799
641 1 0.365678 0.424115 0.921628
640 1 0.361342 0.504561 0.849868
644 1 0.427853 0.497451 0.90966
655 1 0.355384 0.56331 0.921478
449 1 -0.00350791 0.578159 0.570722
663 1 0.143225 0.693989 0.868483
685 1 0.444398 0.860634 0.849924
666 1 0.14036 0.781499 0.916739
661 1 0.0598674 0.715378 0.909846
649 1 0.130381 0.574486 0.845783
646 1 0.060561 0.641473 0.845647
652 1 0.139928 0.628166 0.929866
653 1 0.293383 0.568693 0.853328
381 1 0.208947 0.710569 0.501722
1093 1 0.507154 0.216537 0.570837
757 1 0.500962 0.777894 0.994547
94 1 0.355902 0.919504 0.989074
355 1 0.363847 0.14837 0.49885
1233 1 0.504194 0.645944 0.718312
382 1 0.148891 0.797999 0.503203
1107 1 0.500715 0.355306 0.584764
617 1 0.00453194 0.291602 0.864696
93 1 0.285672 0.85053 0.990684
65 1 0.279828 0.568108 0.994771
351 1 0.0807132 0.145448 0.495514
76 1 0.211216 0.779981 0.992289
362 1 0.354173 0.283989 0.504545
5 1 0.131771 -0.00872468 0.991514
66 1 0.369082 0.637328 0.980332
522 1 -0.00655673 0.364851 0.787434
371 1 0.423758 0.50934 0.512359
47 1 0.152914 0.427096 0.99365
354 1 0.138007 0.226718 0.512118
353 1 0.208083 0.151339 0.507088
10 1 0.358885 0.064715 0.990477
27 1 0.439417 0.144554 1.0009
357 1 0.435634 0.213432 0.50791
360 1 0.215738 0.282453 0.503811
48 1 0.223959 0.501669 1.00087
51 1 0.291105 0.431629 0.991756
79 1 0.29208 0.703985 0.995278
384 1 0.26531 0.785638 0.493804
390 1 0.362101 0.871177 0.520225
358 1 0.0718071 0.29158 0.507363
71 1 0.013508 0.709065 0.999202
687 1 0.499705 0.0573183 0.991621
16 1 0.0803746 0.211069 1.00478
75 1 0.134996 0.709412 0.982388
350 1 0.432658 0.0756129 0.499222
38 1 0.371889 0.370559 1.00194
9 1 0.28756 1.00167 0.990543
80 1 0.360267 0.773495 0.992776
20 1 0.210849 0.197935 1.0002
2 1 0.0707597 0.0626384 0.995867
370 1 0.291656 0.504334 0.499844
369 1 0.376939 0.43415 0.501718
385 1 0.416293 0.780965 0.498782
69 1 0.436755 0.554234 1.0035
389 1 0.137167 0.938285 0.504497
692 1 0.566872 0.0685315 0.0654383
788 1 0.637572 0.0607265 0.140116
787 1 0.56598 1.00434 0.134946
801 1 0.575265 0.137732 0.148172
705 1 0.642051 0.142114 0.0657393
323 1 1.01994 0.560451 0.424443
696 1 0.71511 0.0694779 0.068994
792 1 0.784433 0.0661027 0.149287
695 1 0.774238 -0.00439539 0.0769751
791 1 0.712025 1.00116 0.150338
700 1 0.868804 0.0647853 0.0765221
796 1 0.931234 0.069201 0.137739
699 1 0.915701 -0.0133491 0.0817888
827 1 0.496087 0.513711 0.13966
706 1 0.566903 0.214274 0.070611
802 1 0.632323 0.212696 0.144278
1077 1 0.928149 0.87378 0.48982
709 1 0.777611 0.140382 0.0722839
805 1 0.716351 0.142241 0.150554
710 1 0.712251 0.214617 0.0842357
806 1 0.78353 0.212152 0.139951
723 1 0.787698 0.293613 0.0785992
819 1 0.713325 0.281879 0.142527
713 1 0.927085 0.146868 0.0909301
809 1 0.850306 0.139046 0.148489
714 1 0.859503 0.221967 0.0774004
810 1 0.916941 0.21755 0.151626
823 1 0.855462 0.289069 0.14236
727 1 0.932417 0.273772 0.0745574
753 1 0.854317 0.568818 -0.00744169
749 1 0.711108 0.573983 -0.00119475
719 1 0.646324 0.285769 0.0666187
815 1 0.565871 0.288384 0.141614
720 1 0.558238 0.357207 0.0727477
816 1 0.635396 0.354986 0.141885
979 1 0.935752 0.850884 0.351147
724 1 0.716795 0.362026 0.0685482
820 1 0.784709 0.361698 0.147945
737 1 0.79088 0.430176 0.081043
833 1 0.717873 0.430025 0.146311
728 1 0.850907 0.365209 0.071943
824 1 0.939221 0.360872 0.141317
741 1 0.931112 0.43017 0.0822479
837 1 0.86201 0.425473 0.145872
1057 1 0.861261 0.489906 0.492403
715 1 0.502448 0.341994 -0.00305907
721 1 0.716396 0.292428 0.000743064
256 1 1.00995 0.646115 0.340306
733 1 0.650268 0.436466 0.085598
829 1 0.570957 0.435661 0.137639
1029 1 0.930678 0.934436 0.41868
734 1 0.582669 0.514268 0.073744
830 1 0.637391 0.51627 0.150897
843 1 0.567748 0.574865 0.154662
57 1 0.994292 0.57697 -0.00811302
732 1 0.6442 0.504189 0.00378164
738 1 0.717499 0.511181 0.0721171
834 1 0.773732 0.498228 0.147845
751 1 0.783016 0.580741 0.0762282
731 1 0.577041 0.427131 0.00355525
745 1 0.569252 0.566825 -0.0150447
742 1 0.848881 0.500243 0.0845918
838 1 0.9212 0.507324 0.153364
851 1 0.854372 0.566991 0.151722
755 1 0.935063 0.572875 0.0700324
747 1 0.628367 0.593499 0.0776273
748 1 0.558276 0.654653 0.0626764
844 1 0.63281 0.649574 0.156353
857 1 0.562291 0.712376 0.13902
761 1 0.63897 0.717081 0.0796867
186 1 0.998925 0.930635 0.228444
980 1 0.844761 0.932883 0.359817
847 1 0.718406 0.577721 0.149602
752 1 0.704998 0.647798 0.0707842
848 1 0.793104 0.645351 0.159127
765 1 0.784901 0.718809 0.0701389
861 1 0.707953 0.724348 0.139453
708 1 0.779621 0.221305 0.0122382
1071 1 0.854147 0.790059 0.49271
756 1 0.856165 0.641742 0.0719279
852 1 0.937864 0.640522 0.13538
865 1 0.87499 0.71368 0.135392
769 1 0.940456 0.711849 0.0685087
1026 1 0.70222 0.863746 0.424331
380 1 0.995458 0.773476 0.495502
116 1 1.0008 0.209251 0.214516
762 1 0.576256 0.784936 0.0664903
858 1 0.633339 0.78365 0.150102
1039 1 0.57269 0.220102 0.504904
766 1 0.704297 0.792 0.0639906
862 1 0.789865 0.762607 0.158284
779 1 0.768175 0.86407 0.0766579
1031 1 0.640044 0.009652 0.500726
1045 1 0.630402 0.30065 0.498958
984 1 0.703878 0.00694037 0.432897
770 1 0.856464 0.792887 0.0882604
866 1 0.934444 0.794959 0.141027
253 1 1.00899 0.572706 0.277863
871 1 0.554145 0.871824 0.134008
691 1 0.640411 0.00593938 0.0609746
775 1 0.634533 0.86113 0.0725581
776 1 0.55834 0.94109 0.0667335
872 1 0.635618 0.940247 0.137877
1027 1 0.774208 0.922261 0.420878
875 1 0.692874 0.861927 0.139085
780 1 0.704397 0.930813 0.0809532
876 1 0.785186 0.926818 0.147267
1041 1 0.698393 0.232762 0.499969
795 1 0.854391 -0.0061499 0.149897
976 1 0.708779 0.935176 0.356761
1069 1 0.71854 0.791622 0.492291
783 1 0.901717 0.859728 0.0724406
879 1 0.856398 0.859799 0.158482
784 1 0.846804 0.931053 0.0771514
880 1 0.934317 0.914834 0.14647
1034 1 0.711255 0.0880354 0.502026
736 1 0.791996 0.50478 0.00973285
790 1 0.556848 0.0689903 0.217609
886 1 0.642502 0.0715108 0.28392
789 1 0.634348 0.99367 0.220857
885 1 0.568273 0.994798 0.288971
803 1 0.642465 0.137068 0.210646
794 1 0.714596 0.0764655 0.21892
890 1 0.775429 0.0665788 0.290396
793 1 0.774569 -0.00750968 0.216704
889 1 0.709382 0.997871 0.282953
870 1 0.502746 0.85465 0.227959
798 1 0.851988 0.0698442 0.221398
894 1 0.921035 0.0805221 0.279162
893 1 0.858502 1.00721 0.298171
811 1 0.928647 0.139119 0.212194
1076 1 0.713381 0.928183 0.505811
782 1 0.93325 0.921622 -0.0109381
899 1 0.560557 0.141721 0.27903
804 1 0.571526 0.225182 0.220168
900 1 0.646579 0.216194 0.272237
817 1 0.643985 0.290698 0.203853
913 1 0.566259 0.290421 0.278886
903 1 0.721537 0.152616 0.28737
807 1 0.777463 0.144793 0.220513
808 1 0.706551 0.217648 0.210253
904 1 0.777727 0.223777 0.273918
917 1 0.701274 0.309724 0.275968
821 1 0.781342 0.290262 0.209243
907 1 0.846169 0.140491 0.293544
812 1 0.860434 0.214189 0.225858
908 1 0.927137 0.219764 0.289322
921 1 0.851035 0.292534 0.278997
971 1 0.637281 0.858092 0.358482
818 1 0.565843 0.36147 0.215546
914 1 0.625088 0.359923 0.27965
831 1 0.6412 0.428243 0.204634
707 1 0.717459 0.153491 0.00687711
926 1 0.487572 0.447367 0.348113
822 1 0.707609 0.361556 0.204524
918 1 0.781971 0.375575 0.272234
835 1 0.7846 0.440849 0.215137
825 1 0.92237 0.278995 0.210828
826 1 0.859933 0.356853 0.208094
922 1 0.929556 0.355883 0.287862
839 1 0.930181 0.421155 0.221029
935 1 0.859874 0.426386 0.283858
927 1 0.57113 0.429997 0.287657
832 1 0.577104 0.511791 0.216002
928 1 0.638914 0.499764 0.292025
845 1 0.648967 0.583774 0.224537
754 1 0.91736 0.637467 -0.0122153
931 1 0.699392 0.422616 0.28094
836 1 0.706036 0.502322 0.2165
932 1 0.793963 0.512591 0.28558
849 1 0.786265 0.565586 0.215247
840 1 0.855881 0.500009 0.225205
936 1 0.945918 0.4903 0.281124
853 1 0.940389 0.571286 0.219331
949 1 0.866729 0.577871 0.2775
1 1 1.00144 0.987279 -0.00394088
941 1 0.567305 0.580823 0.283893
846 1 0.556719 0.65628 0.233808
942 1 0.634641 0.648311 0.296528
859 1 0.644745 0.714416 0.226643
945 1 0.722892 0.570558 0.288316
850 1 0.714112 0.665561 0.218658
946 1 0.790849 0.639373 0.291837
959 1 0.716979 0.716828 0.290117
863 1 0.797056 0.708918 0.231775
1078 1 0.84207 0.927859 0.487147
854 1 0.882818 0.64573 0.209745
950 1 0.938705 0.64249 0.282908
963 1 0.867122 0.715852 0.281494
867 1 0.935405 0.730446 0.212986
730 1 0.486544 0.43294 0.063902
955 1 0.560917 0.723375 0.298114
860 1 0.563831 0.778137 0.223262
956 1 0.629879 0.797293 0.290221
864 1 0.711082 0.780216 0.215206
960 1 0.786624 0.787872 0.281791
973 1 0.707452 0.863459 0.282626
877 1 0.771458 0.852363 0.214681
868 1 0.857518 0.790461 0.22297
964 1 0.939827 0.785202 0.284621
881 1 0.931581 0.860087 0.2214
1023 1 0.494303 0.933296 0.41933
1025 1 0.644029 0.935311 0.429227
781 1 0.847354 0.858089 -0.0046064
873 1 0.619757 0.854023 0.21501