ITEM: TIMESTEP
11500
ITEM: NUMBER OF ATOMS
1372
ITEM: BOX BOUNDS pp pp pp
0.0000000000000000e+00 3.6820000000000000e+01
0.0000000000000000e+00 3.6820000000000000e+01
0.0000000000000000e+00 3.6820000000000000e+01
ITEM: ATOMS id type xs ys zs
8 1 0.139408 0.0678249 0.0823503
100 1 0.0511968 0.0580521 0.150837
17 1 0.0600941 0.152015 0.0732627
3 1 0.0703956 1.0011 0.0759957
117 1 0.131301 0.147036 0.156058
93 1 0.287843 0.852577 -0.000123074
169 1 -0.00024326 0.710437 0.132806
12 1 0.279375 0.0764045 0.0711124
104 1 0.209291 0.0708784 0.147112
7 1 0.217756 0.000816483 0.0621105
107 1 0.276678 -0.00540741 0.146381
127 1 0.00239747 0.283545 0.144333
14 1 0.425175 0.0593239 0.0814529
108 1 0.338833 0.074789 0.139718
90 1 0.209138 0.928428 0.0033356
111 1 0.443937 0.985334 0.150637
113 1 0.0106926 0.149766 0.149163
22 1 0.14482 0.223579 0.0743195
114 1 0.0880881 0.219721 0.158753
31 1 0.084869 0.299443 0.0690639
131 1 0.145561 0.290862 0.141909
295 1 -0.00393351 -0.0130174 0.430212
841 1 0.493136 0.627594 0.154732
72 1 0.0716453 0.785554 0.00649386
121 1 0.270378 0.149778 0.133852
21 1 0.197381 0.152601 0.0885128
26 1 0.280571 0.218601 0.071455
118 1 0.214177 0.22696 0.143715
35 1 0.229547 0.304308 0.073353
135 1 0.288802 0.304945 0.140666
347 1 0.148788 0.0799258 0.514977
25 1 0.348142 0.13731 0.0781485
125 1 0.40791 0.135422 0.148728
28 1 0.424864 0.207627 0.0761799
122 1 0.357475 0.220219 0.145768
139 1 0.427788 0.289373 0.134772
786 1 0.504973 0.00894895 0.210812
207 1 0.351008 0.007037 0.342603
1023 1 0.493962 0.929698 0.399516
74 1 -0.00162055 0.785281 0.0689366
981 1 0.49883 0.0683614 0.435176
386 1 0.0785666 0.848655 0.501281
36 1 0.150646 0.367693 0.0629726
128 1 0.0653647 0.350695 0.143782
45 1 0.0640504 0.424082 0.0645239
145 1 0.139626 0.416848 0.144169
342 1 0.35479 0.943279 0.416828
38 1 0.362067 0.363724 0.000306844
716 1 0.497361 0.280367 0.0732051
94 1 0.358785 0.923097 0.0143693
141 1 0.0126326 0.442311 0.13243
40 1 0.2882 0.378379 0.0705736
132 1 0.227155 0.365955 0.144354
79 1 0.280142 0.71085 -0.0131493
39 1 0.361498 0.291429 0.0647997
42 1 0.433474 0.368649 0.0682164
136 1 0.361602 0.371259 0.137921
701 1 0.499828 0.195461 0.000634468
294 1 0.416513 0.933307 0.352393
50 1 0.1471 0.502179 0.0595723
142 1 0.0715851 0.507737 0.136569
59 1 0.0721372 0.563026 0.0588867
159 1 0.164069 0.572703 0.130756
58 1 0.0908073 0.635733 -0.0323186
49 1 0.216867 0.434737 0.0638276
814 1 0.491607 0.288791 0.212675
149 1 0.291565 0.434732 0.146295
54 1 0.294193 0.491398 0.0700992
146 1 0.21566 0.488979 0.145163
163 1 0.288844 0.569693 0.142863
757 1 0.498058 0.785092 -0.00211421
392 1 0.438503 0.932093 0.488768
53 1 0.368115 0.435261 0.0677226
153 1 0.432302 0.427461 0.147303
56 1 0.439654 0.493499 0.0659157
150 1 0.361752 0.496841 0.144104
291 1 0.34188 0.870046 0.35327
6 1 0.205438 0.0831678 0.011379
64 1 0.1485 0.62118 0.0559997
156 1 0.0765943 0.635474 0.127089
73 1 0.075344 0.720027 0.0761262
744 1 0.489323 0.577673 0.0679446
330 1 -0.00452238 0.70208 0.431116
63 1 0.221679 0.562537 0.0520227
68 1 0.294761 0.621998 0.0741642
160 1 0.213531 0.65479 0.133939
897 1 0.498803 0.20741 0.282814
67 1 0.378142 0.572484 0.0707294
167 1 0.430044 0.55532 0.160252
70 1 0.423967 0.654507 0.0720938
164 1 0.357551 0.642119 0.147709
81 1 0.357573 0.717705 0.0626844
988 1 0.500388 0.218213 0.419983
702 1 0.497616 0.143404 0.0701429
89 1 0.135408 0.859044 0.0214857
228 1 0.00904516 0.362719 0.350746
173 1 0.133981 0.71843 0.142197
78 1 0.148703 0.788431 0.0761881
170 1 0.0694881 0.794271 0.15648
187 1 0.145458 0.853031 0.138892
23 1 0.275148 0.145293 0.00962965
326 1 0.217495 0.645038 0.426069
77 1 0.221582 0.715506 0.0605901
177 1 0.292746 0.702727 0.123854
82 1 0.294239 0.787651 0.067538
174 1 0.214091 0.788713 0.141483
91 1 0.225118 0.862721 0.0697845
191 1 0.28711 0.851893 0.141937
332 1 0.162952 0.71653 0.417979
181 1 0.424303 0.718078 0.144954
84 1 0.439004 0.771121 0.071948
178 1 0.362179 0.784891 0.141827
95 1 0.347795 0.862266 0.0727983
324 1 0.0779501 0.6386 0.420429
292 1 0.276504 0.942809 0.343174
87 1 0.061738 0.865761 0.0691482
103 1 0.147927 -0.00804566 0.147635
92 1 0.144389 0.931873 0.0796023
184 1 0.0765627 0.918247 0.15378
46 1 0.00742671 0.506182 0.0572724
260 1 0.144649 0.63943 0.354467
316 1 0.00509287 0.431319 0.427595
18 1 -0.0006524 0.231889 0.0636267
37 1 0.281984 0.279695 -0.00293327
96 1 0.28157 0.932343 0.0643348
188 1 0.218597 0.924327 0.136472
195 1 0.431019 0.860689 0.141796
11 1 0.345724 0.00421405 0.0790457
98 1 0.431482 0.92346 0.0813157
192 1 0.355268 0.926032 0.151654
325 1 0.143579 0.5666 0.448275
341 1 0.287119 0.868223 0.42497
4 1 -0.00219552 0.0656408 0.0643714
106 1 0.14194 0.073895 0.215733
198 1 0.0661475 0.0649484 0.283507
215 1 0.14436 0.149801 0.29181
2 1 0.0721127 0.0737902 0.000913159
110 1 0.288235 0.0784497 0.216997
202 1 0.195802 0.0772794 0.288002
219 1 0.283068 0.150156 0.280908
205 1 0.266622 1.02007 0.281007
112 1 0.429236 0.0654637 0.197061
206 1 0.366615 0.0660625 0.264191
109 1 0.357993 1.00155 0.206771
209 1 0.435125 -0.00396166 0.274474
123 1 0.33817 0.151621 0.202171
1016 1 0.500306 0.78763 0.426888
115 1 0.0694046 0.146152 0.224204
120 1 0.140654 0.222318 0.238513
212 1 0.0652561 0.211341 0.300737
229 1 0.140691 0.296238 0.300041
340 1 0.217159 0.935034 0.435373
119 1 0.203961 0.163933 0.213616
124 1 0.276883 0.213209 0.207002
216 1 0.212491 0.2303 0.2767
133 1 0.220754 0.293489 0.212796
223 1 0.418793 0.144216 0.277424
126 1 0.429753 0.211461 0.203165
220 1 0.357304 0.209444 0.27301
137 1 0.345149 0.289827 0.219107
799 1 0.496883 0.206974 0.144339
288 1 0.142873 0.930218 0.368691
338 1 0.0707702 0.933141 0.436636
129 1 0.0684904 0.285594 0.222038
134 1 0.160927 0.362259 0.209702
226 1 0.0610755 0.376879 0.274503
243 1 0.146343 0.421048 0.285307
143 1 0.0789862 0.438149 0.206543
233 1 0.289494 0.284236 0.287839
138 1 0.285564 0.35456 0.232439
230 1 0.213482 0.354394 0.291929
237 1 0.423701 0.286084 0.291445
140 1 0.416073 0.352938 0.221743
234 1 0.3563 0.366069 0.294914
283 1 0.0869295 0.849314 0.359285
148 1 0.146147 0.503891 0.215414
240 1 0.0802152 0.497939 0.286513
257 1 0.136207 0.578119 0.284905
247 1 0.282649 0.430119 0.281725
147 1 0.224375 0.424364 0.213221
152 1 0.30055 0.502502 0.218912
244 1 0.213564 0.49622 0.28351
277 1 0.360515 0.720606 0.357655
336 1 0.437867 0.710396 0.433864
251 1 0.441713 0.430956 0.295207
151 1 0.349155 0.428227 0.223535
154 1 0.429181 0.488745 0.225624
248 1 0.370574 0.504682 0.289891
165 1 0.365992 0.566993 0.221595
265 1 0.422943 0.584415 0.298026
157 1 0.0626937 0.577361 0.212181
162 1 0.13806 0.636365 0.203895
254 1 0.0741129 0.645647 0.286055
171 1 0.0703305 0.707154 0.205773
261 1 0.289662 0.564293 0.300412
161 1 0.225387 0.565113 0.203705
166 1 0.285988 0.630783 0.22333
258 1 0.214204 0.63889 0.284205
175 1 0.206927 0.710914 0.207535
275 1 0.275353 0.712733 0.285518
168 1 0.426519 0.63834 0.224761
262 1 0.354704 0.649018 0.294939
280 1 0.434767 0.782735 0.358697
328 1 0.367703 0.65293 0.424236
271 1 0.155251 0.719138 0.29142
176 1 0.138344 0.786598 0.218643
268 1 0.0534963 0.777707 0.292485
285 1 0.140231 0.860264 0.285931
185 1 0.053509 0.860996 0.231441
180 1 0.287131 0.77095 0.199918
272 1 0.219612 0.794547 0.27537
189 1 0.224882 0.853399 0.208636
279 1 0.434862 0.720278 0.286022
179 1 0.366012 0.714288 0.220515
182 1 0.432048 0.787297 0.216038
276 1 0.344002 0.783851 0.273307
193 1 0.349163 0.861543 0.217976
201 1 0.141465 1.00655 0.285268
101 1 0.0606392 0.989185 0.222134
190 1 0.140825 0.924886 0.218925
282 1 0.063982 0.932114 0.289613
335 1 0.354158 0.790322 0.429435
86 1 0.080724 0.935852 0.000966721
105 1 0.210533 -0.00358667 0.214295
289 1 0.278504 0.869288 0.282114
194 1 0.286273 0.9304 0.212684
286 1 0.19984 0.927119 0.282188
293 1 0.406866 0.849135 0.295404
196 1 0.447058 0.920058 0.221945
290 1 0.356429 0.927581 0.284188
343 1 0.421985 0.858618 0.437172
199 1 0.0656303 0.999726 0.351716
297 1 0.130604 1.00484 0.435342
204 1 0.130271 0.068622 0.367212
296 1 0.0606547 0.0687759 0.44784
304 1 0.134036 0.135381 0.433618
213 1 0.0649571 0.134405 0.361086
60 1 0.0143166 0.650045 0.0521654
269 1 0.0906876 0.723357 0.36211
299 1 0.283996 0.00689492 0.411208
203 1 0.206815 0.00621897 0.349987
208 1 0.287001 0.0813292 0.357334
298 1 0.200261 0.0750114 0.436395
331 1 0.0759367 0.789662 0.434016
144 1 0.00911909 0.503574 0.214041
301 1 0.426927 1.00407 0.42198
210 1 0.418486 0.0619462 0.344819
300 1 0.354365 0.0654616 0.434345
308 1 0.428506 0.139856 0.442569
898 1 0.49553 0.132279 0.358241
263 1 0.351209 0.572723 0.364856
218 1 0.145983 0.219607 0.362143
303 1 0.0675297 0.210039 0.417749
311 1 0.128121 0.283545 0.425062
155 1 0.00554536 0.579412 0.132774
256 1 -0.000268704 0.632798 0.35733
333 1 0.229616 0.789709 0.42513
306 1 0.271836 0.149329 0.434906
217 1 0.211206 0.139249 0.367734
222 1 0.278638 0.211449 0.368271
305 1 0.210226 0.226664 0.442543
274 1 0.166878 0.783983 0.357994
287 1 0.222153 0.864449 0.354967
221 1 0.364443 0.142139 0.369653
224 1 0.421962 0.21228 0.342562
307 1 0.349125 0.212339 0.449033
266 1 0.429236 0.645978 0.362471
227 1 0.0715069 0.290698 0.354602
232 1 0.139782 0.362802 0.368156
310 1 0.0684697 0.355111 0.437966
264 1 0.284991 0.640195 0.371467
252 1 0.425096 0.501729 0.372836
313 1 0.286334 0.285462 0.434212
231 1 0.222809 0.302734 0.366719
236 1 0.296752 0.362794 0.361817
312 1 0.203359 0.372322 0.444845
320 1 0.284885 0.431648 0.444875
245 1 0.213243 0.42762 0.350847
278 1 0.286237 0.784608 0.34969
315 1 0.41914 0.280278 0.422791
235 1 0.344791 0.267518 0.359063
238 1 0.412585 0.356134 0.361011
314 1 0.35569 0.365127 0.432218
318 1 0.135763 0.428112 0.441254
241 1 0.0775132 0.428979 0.353821
255 1 0.0767324 0.570314 0.363423
246 1 0.146631 0.495687 0.355497
317 1 0.0744025 0.502918 0.433668
334 1 0.29767 0.716115 0.432843
273 1 0.224892 0.719136 0.356564
259 1 0.213074 0.568668 0.360484
327 1 0.288896 0.573222 0.441156
319 1 0.211887 0.489522 0.441219
250 1 0.277085 0.497881 0.375318
339 1 0.146478 0.850066 0.426927
329 1 0.438523 0.572863 0.430727
249 1 0.354456 0.434568 0.356188
322 1 0.438924 0.425814 0.444211
321 1 0.35768 0.496571 0.432831
32 1 -0.00158504 0.354557 0.0670116
355 1 0.343647 0.134467 0.495353
813 1 0.494852 0.354136 0.142089
253 1 -0.00805572 0.569925 0.268104
158 1 -0.00147878 0.648207 0.205444
20 1 0.210251 0.218916 0.00768164
5 1 0.148164 1.00887 0.0107021
356 1 0.281365 0.218336 0.505335
912 1 0.496231 0.287865 0.347179
97 1 0.425325 0.856562 0.00338102
19 1 0.132569 0.151407 0.0129608
827 1 0.505609 0.503451 0.134312
772 1 0.503156 0.851732 0.0811155
323 1 0.00832243 0.572624 0.432392
357 1 0.444683 0.216051 0.502031
378 1 0.433535 0.641451 0.50093
380 1 0.0026055 0.791761 0.506148
33 1 0.151573 0.301963 -0.00335484
383 1 0.354948 0.723292 0.506015
376 1 0.366968 0.566384 0.493722
349 1 0.285967 0.0735882 0.510606
388 1 0.208855 0.856316 0.50921
370 1 0.291195 0.497641 0.515336
382 1 0.156226 0.785119 0.49666
1037 1 0.508461 0.152586 0.495515
377 1 0.289461 0.640901 0.503321
41 1 0.431801 0.283146 0.00526642
43 1 -0.00272787 0.427839 -0.00969039
384 1 0.283369 0.792265 0.50707
80 1 0.372067 0.789659 -0.00277748
389 1 0.145102 0.93006 0.494281
391 1 0.283861 0.933957 0.50703
394 1 0.0658848 0.0801704 0.567443
400 1 0.140339 0.0771944 0.637685
409 1 0.0792283 0.141227 0.650506
683 1 0.352612 0.876484 0.92288
397 1 0.146232 0.0144656 0.572915
1262 1 0.507479 0.8591 0.772988
1275 1 0.498435 0.0663659 0.853442
398 1 0.227654 0.0744239 0.580484
404 1 0.288135 0.0764864 0.649002
415 1 0.282349 0.146921 0.570953
401 1 0.281992 -0.00747808 0.58013
1079 1 0.508269 0.0744127 0.577823
631 1 0.001569 0.456621 0.847946
24 1 0.35925 0.201534 1.01023
402 1 0.349474 0.0680905 0.580942
406 1 0.430044 0.0932955 0.647787
417 1 0.355095 0.1389 0.642814
419 1 0.423243 0.138556 0.565752
403 1 0.354075 1.00575 0.64597
411 1 0.139666 0.146898 0.575744
408 1 0.0678431 0.212893 0.571437
414 1 0.129575 0.215301 0.645082
353 1 0.21912 0.145512 0.496864
413 1 0.201292 0.136798 0.644291
412 1 0.208776 0.213306 0.584772
418 1 0.278631 0.196707 0.643944
603 1 -1.11545e-05 0.141569 0.85697
416 1 0.352417 0.214123 0.56624
420 1 0.419416 0.203649 0.633485
433 1 0.432843 0.274538 0.574169
685 1 0.430555 0.864693 0.866
682 1 0.363583 0.939053 0.862629
371 1 0.441463 0.495047 0.49791
425 1 0.132067 0.283984 0.580699
423 1 0.0528354 0.269532 0.652643
422 1 0.0589316 0.359604 0.578412
428 1 0.137583 0.367928 0.640037
437 1 0.0566955 0.425687 0.64949
439 1 0.128479 0.432405 0.575204
429 1 0.287397 0.284986 0.579049
427 1 0.208976 0.290015 0.634692
426 1 0.19124 0.367887 0.573226
432 1 0.299804 0.355336 0.638712
441 1 0.219606 0.427791 0.638615
589 1 0.00366475 -0.00330252 0.866095
431 1 0.358901 0.284118 0.624611
430 1 0.372644 0.364627 0.57486
434 1 0.441584 0.358168 0.640813
447 1 0.435139 0.448627 0.569441
385 1 0.424393 0.795628 0.495723
10 1 0.342256 0.0878112 0.995125
436 1 0.0769143 0.507749 0.579384
442 1 0.152403 0.504084 0.639735
451 1 0.0847869 0.579255 0.652138
1163 1 0.497223 0.919494 0.576391
65 1 0.285787 0.571795 0.989348
443 1 0.295245 0.425065 0.568711
440 1 0.224625 0.511898 0.581074
446 1 0.301017 0.508261 0.641211
477 1 0.021823 0.855813 0.57383
592 1 0.00763252 0.072929 0.926706
445 1 0.361169 0.433764 0.653526
444 1 0.3585 0.500219 0.570995
448 1 0.430945 0.502621 0.648696
452 1 -0.00597409 0.655676 0.638605
374 1 0.21337 0.57007 0.502875
453 1 0.147247 0.569044 0.562906
450 1 0.0740032 0.646561 0.578628
456 1 0.151355 0.655122 0.64423
47 1 0.145523 0.430441 0.99407
686 1 0.438277 0.931456 0.93314
455 1 0.223509 0.584284 0.639414
457 1 0.291379 0.577909 0.575087
454 1 0.22543 0.649388 0.57148
460 1 0.296534 0.643717 0.634446
469 1 0.23111 0.714285 0.644722
1290 1 0.505112 0.130405 0.926509
550 1 -0.00428016 0.642794 0.784994
459 1 0.374747 0.578397 0.631971
461 1 0.427582 0.5633 0.560439
458 1 0.354425 0.646772 0.55935
462 1 0.415828 0.656409 0.628666
473 1 0.35415 0.717931 0.635654
358 1 0.064908 0.282573 0.498826
362 1 0.35594 0.28841 0.511825
375 1 0.148863 0.646087 0.50239
465 1 0.0680239 0.718435 0.648358
467 1 0.147914 0.711218 0.570621
464 1 0.0754033 0.770044 0.564644
470 1 0.142653 0.779042 0.640346
481 1 0.144637 0.849015 0.576204
471 1 0.284961 0.712884 0.574251
468 1 0.216353 0.779217 0.574592
485 1 0.28321 0.864889 0.578526
648 1 0.0114296 0.630186 0.922006
85 1 -0.0107559 0.865425 1.00601
715 1 0.500601 0.354114 0.996106
463 1 -0.003165 0.723549 0.57651
475 1 0.420022 0.729677 0.57231
472 1 0.360745 0.796601 0.570533
476 1 0.412236 0.790692 0.655846
1248 1 0.49436 0.700971 0.786895
372 1 0.0691609 0.572049 0.506947
76 1 0.219405 0.781665 1.00535
395 1 0.0818437 0.00869566 0.64195
479 1 0.0786464 0.838813 0.646053
478 1 0.0875411 0.936542 0.571161
484 1 0.137377 0.937462 0.647454
1234 1 0.502628 0.572599 0.771914
399 1 0.202526 1.0089 0.649402
483 1 0.202701 0.855555 0.640381
482 1 0.191801 0.926694 0.572878
488 1 0.25987 0.919183 0.639996
405 1 0.427249 1.01188 0.589562
487 1 0.350862 0.866061 0.645284
489 1 0.434409 0.855299 0.565631
486 1 0.350874 0.93097 0.575014
490 1 0.415873 0.926382 0.640191
363 1 0.278318 0.3558 0.509154
601 1 0.436432 0.998135 0.85555
1191 1 0.4973 0.198981 0.720966
492 1 0.0614351 0.0698606 0.703706
498 1 0.135736 0.0759422 0.789774
507 1 0.0723885 0.139413 0.796201
493 1 0.0762726 0.00687605 0.789344
495 1 0.145663 0.00864741 0.722813
1093 1 0.503023 0.21866 0.569567
496 1 0.206243 0.0727966 0.708425
502 1 0.28139 0.0692895 0.786557
511 1 0.217296 0.138814 0.786206
497 1 0.204937 0.00197745 0.790093
500 1 0.365454 0.0715312 0.70799
504 1 0.425625 0.0507412 0.785528
517 1 0.426204 0.135355 0.726531
503 1 0.432796 0.00414053 0.69486
501 1 0.347405 -0.00218158 0.780998
509 1 0.136188 0.144406 0.721409
506 1 0.0631446 0.204022 0.717325
512 1 0.137453 0.216878 0.770289
521 1 0.0759557 0.295804 0.77992
1108 1 0.496701 0.285589 0.647216
513 1 0.274035 0.137133 0.718468
510 1 0.217708 0.215224 0.705476
516 1 0.281769 0.202508 0.790083
664 1 0.220304 0.796923 0.851717
515 1 0.361163 0.123461 0.794091
514 1 0.354031 0.202868 0.717153
518 1 0.428552 0.209619 0.790379
531 1 0.425618 0.271655 0.709276
606 1 0.00552248 0.213908 0.914167
681 1 0.274365 0.866982 0.867771
523 1 0.145522 0.279432 0.707517
520 1 0.0755218 0.363289 0.709809
526 1 0.145623 0.357094 0.77601
525 1 0.213287 0.282048 0.774579
527 1 0.287387 0.263935 0.72738
524 1 0.219068 0.347366 0.71251
530 1 0.29302 0.342588 0.77688
539 1 0.217119 0.428258 0.773179
390 1 0.356663 0.87111 0.49806
578 1 0.00746027 0.929933 0.783985
529 1 0.359087 0.274525 0.774191
528 1 0.356708 0.346636 0.702192
532 1 0.420518 0.347965 0.770486
670 1 0.279248 0.791316 0.934362
537 1 0.15471 0.435661 0.702755
535 1 0.0777478 0.430364 0.778032
534 1 0.0665365 0.502725 0.700389
540 1 0.150599 0.499818 0.766119
366 1 0.0061646 0.505509 0.503749
541 1 0.28761 0.422132 0.710087
538 1 0.227071 0.500702 0.697885
544 1 0.283334 0.499131 0.772
555 1 0.300435 0.570864 0.702286
553 1 0.222742 0.567888 0.766931
519 1 -0.00245981 0.304004 0.724673
543 1 0.378241 0.424932 0.761936
545 1 0.446421 0.420938 0.701886
542 1 0.354854 0.503923 0.720075
546 1 0.434269 0.489278 0.775398
557 1 0.351159 0.566701 0.787227
559 1 0.426348 0.571842 0.713556
551 1 0.142371 0.569867 0.714215
549 1 0.0708968 0.566933 0.773561
548 1 0.0802722 0.644463 0.722748
554 1 0.15847 0.648345 0.789626
565 1 0.14108 0.719397 0.709817
563 1 0.0725133 0.719156 0.798412
552 1 0.219958 0.642767 0.71008
558 1 0.285272 0.651693 0.780092
567 1 0.223885 0.718344 0.770061
674 1 0.0733514 0.926968 0.872674
556 1 0.348816 0.638084 0.71651
560 1 0.416987 0.647936 0.79156
573 1 0.412178 0.7065 0.707649
571 1 0.349934 0.714389 0.784569
660 1 0.0766321 0.797012 0.855331
562 1 0.0719448 0.785637 0.731169
568 1 0.155618 0.797541 0.781155
579 1 0.138151 0.856731 0.719402
675 1 0.0903705 0.860896 0.944786
474 1 0.295374 0.79015 0.645644
569 1 0.294569 0.713218 0.705832
566 1 0.225771 0.784763 0.711107
572 1 0.288374 0.779865 0.786845
581 1 0.208594 0.873364 0.798486
570 1 0.345551 0.802338 0.721013
574 1 0.410696 0.784831 0.793135
587 1 0.425699 0.863171 0.712628
585 1 0.357033 0.872405 0.795818
597 1 0.27849 1.00487 0.870778
577 1 0.0692004 0.859755 0.786634
576 1 0.084996 0.938712 0.718599
69 1 0.425131 0.573454 0.982082
361 1 0.129443 0.358728 0.495968
583 1 0.267945 0.869206 0.720634
582 1 0.138517 0.934848 0.795908
499 1 0.275902 -0.00629609 0.715281
580 1 0.202546 0.933191 0.727754
586 1 0.276844 0.941961 0.798552
678 1 0.20499 0.936363 0.863058
584 1 0.346457 0.924358 0.718562
588 1 0.423557 0.934925 0.77252
591 1 0.0752417 1.00948 0.928276
590 1 0.0789791 0.0742463 0.864517
596 1 0.148153 0.0692255 0.924116
605 1 0.0828852 0.15941 0.923668
354 1 0.136641 0.226477 0.50197
595 1 0.203238 0.995437 0.943076
594 1 0.206722 0.0749221 0.85377
600 1 0.269311 0.0723887 0.93145
684 1 0.269111 0.93236 0.933631
599 1 0.355874 0.996233 0.932264
598 1 0.354243 0.0557691 0.859629
602 1 0.416646 0.0676926 0.94008
615 1 0.432789 0.134626 0.86643
679 1 0.21677 0.858793 0.939748
607 1 0.145163 0.156652 0.858359
604 1 0.0792693 0.225015 0.846303
610 1 0.158565 0.231438 0.917954
564 1 0.00232673 0.785352 0.792446
379 1 0.0845646 0.708083 0.491874
609 1 0.19688 0.150954 0.93503
611 1 0.276765 0.138174 0.864863
608 1 0.2138 0.218696 0.843543
614 1 0.271544 0.21021 0.929689
623 1 0.226016 0.306412 0.916697
625 1 0.282047 0.277967 0.840809
1164 1 0.499465 0.846948 0.638521
613 1 0.360291 0.141981 0.924613
612 1 0.353306 0.205893 0.857587
616 1 0.423415 0.203818 0.945983
629 1 0.423914 0.273971 0.85385
666 1 0.151437 0.793128 0.940007
621 1 0.150801 0.296102 0.850014
1205 1 0.504553 0.341682 0.713161
659 1 0.000335357 0.715156 0.864256
677 1 0.138719 0.866141 0.853559
619 1 0.0728381 0.288597 0.91617
618 1 0.080857 0.362655 0.852235
624 1 0.13913 0.359391 0.925766
635 1 0.14699 0.429993 0.84843
669 1 0.35914 0.719827 0.931179
622 1 0.224415 0.359419 0.846519
628 1 0.304863 0.352197 0.931096
639 1 0.299276 0.426263 0.839053
637 1 0.212202 0.420026 0.924584
665 1 0.207389 0.717694 0.930559
668 1 0.349067 0.793318 0.862221
627 1 0.355009 0.270854 0.93997
626 1 0.359338 0.342412 0.851027
630 1 0.427661 0.351389 0.936081
641 1 0.355838 0.435501 0.90878
672 1 0.42883 0.801857 0.927591
653 1 0.278805 0.574325 0.84523
633 1 0.0630317 0.424618 0.922429
632 1 0.0812994 0.497661 0.840683
638 1 0.141561 0.498799 0.913839
649 1 0.162434 0.565286 0.844216
647 1 0.0687976 0.559193 0.921798
658 1 0.425835 0.632619 0.907959
654 1 0.350852 0.655629 0.862799
636 1 0.216105 0.495497 0.838651
642 1 0.287657 0.508936 0.917054
651 1 0.206969 0.570378 0.928351
680 1 0.151223 0.932644 0.930702
593 1 0.139101 0.00263128 0.855249
671 1 0.42524 0.710092 0.863567
643 1 0.419918 0.411372 0.843856
644 1 0.429048 0.504915 0.919061
640 1 0.363253 0.497059 0.846209
657 1 0.43179 0.571208 0.839249
655 1 0.3509 0.572665 0.910503
652 1 0.16032 0.650593 0.907355
646 1 0.0840766 0.647182 0.850044
663 1 0.159613 0.721864 0.841148
661 1 0.091653 0.726137 0.919201
667 1 0.284679 0.721031 0.863334
656 1 0.27747 0.639016 0.924358
650 1 0.228182 0.650126 0.852481
1220 1 0.496525 0.41457 0.789957
1360 1 0.498701 0.85903 0.932021
71 1 -0.00205569 0.711029 0.990119
66 1 0.35811 0.640354 0.983334
673 1 0.00130807 0.854864 0.865366
508 1 0.00953641 0.210942 0.787396
52 1 0.353951 0.510448 0.998548
368 1 0.142163 0.496993 0.513152
1303 1 0.487511 0.340016 0.860902
365 1 0.0589587 0.429311 0.503344
30 1 0.0663807 0.363846 0.988288
620 1 -0.00230871 0.349495 0.920819
1247 1 0.487739 0.773203 0.731438
662 1 0.00798016 0.792834 0.931575
575 1 0.00776362 0.853371 0.716978
1136 1 0.486435 0.582473 0.634532
1233 1 0.485847 0.650169 0.710042
1304 1 0.497424 0.271901 0.935021
505 1 -0.00592204 0.132297 0.712812
617 1 0.00121931 0.28854 0.839038
421 1 -0.000675888 0.283512 0.576087
1346 1 0.502905 0.703986 0.93344
729 1 0.490272 0.506587 0.986466
1206 1 0.491714 0.287069 0.779262
410 1 0.00144922 0.195989 0.64911
373 1 -0.000280021 0.64816 0.512217
369 1 0.360731 0.427458 0.510012
44 1 0.067742 0.493344 0.996201
13 1 0.414948 1.00058 1.00423
27 1 0.428817 0.139501 1.01067
75 1 0.142258 0.7235 0.999107
350 1 0.428572 0.0632383 0.505044
351 1 0.0594033 0.151218 0.505596
381 1 0.21205 0.715049 0.497985
48 1 0.222695 0.489272 0.986254
344 1 0.0717914 0.997274 0.503797
1 1 0.00450939 0.993068 1.00896
15 1 0.00489557 0.144688 0.999116
83 1 0.429817 0.697946 0.997517
55 1 0.438253 0.428606 0.993485
364 1 0.443473 0.348881 0.488585
61 1 0.143179 0.55933 0.986956
348 1 0.35385 0.988316 0.499631
387 1 -0.00198723 0.932124 0.511696
34 1 0.225286 0.365997 0.995328
62 1 0.210868 0.641356 0.994367
367 1 0.212403 0.446258 0.520008
57 1 0.00791979 0.580144 0.996014
360 1 0.205972 0.289209 0.518577
51 1 0.288553 0.426876 0.985989
16 1 0.0853402 0.225538 0.980817
346 1 0.219849 0.00688338 0.500027
9 1 0.28784 1.00204 1.00123
692 1 0.576589 0.0687262 0.0721282
788 1 0.644296 0.0839242 0.144064
705 1 0.650366 0.145177 0.0673931
730 1 0.505715 0.433052 0.0709938
801 1 0.56895 0.147936 0.140605
771 1 0.504703 0.918716 0.00211934
1043 1 0.84825 0.218119 0.506047
130 1 1.00073 0.364166 0.215958
696 1 0.721733 0.0722638 0.0666284
792 1 0.790412 0.0698844 0.1398
695 1 0.798148 0.999839 0.0695981
709 1 0.789073 0.134165 0.0664096
197 1 0.990559 0.00490647 0.286578
828 1 0.503193 0.432605 0.218274
700 1 0.860346 0.0688264 0.0694166
796 1 0.932422 0.0762378 0.142443
713 1 0.945497 0.139987 0.0744532
795 1 0.847886 1.00035 0.150319
1028 1 0.836292 0.862311 0.425741
706 1 0.582409 0.210311 0.0551021
802 1 0.6422 0.219347 0.133789
719 1 0.62406 0.295131 0.067275
1074 1 0.571289 0.925563 0.499576
214 1 0.995006 0.220503 0.352829
805 1 0.726221 0.158985 0.13973
710 1 0.717255 0.215624 0.0609677
806 1 0.800078 0.235322 0.142031
723 1 0.776081 0.297009 0.0676124
809 1 0.855188 0.148826 0.139817
714 1 0.840582 0.220685 0.0624711
810 1 0.941987 0.215075 0.136461
823 1 0.868033 0.2894 0.140678
88 1 0.988583 0.934819 0.0720516
855 1 0.504891 0.784124 0.151659
815 1 0.567922 0.288482 0.148584
720 1 0.564248 0.359895 0.0770654
816 1 0.631357 0.350075 0.144384
733 1 0.635718 0.423885 0.0704959
829 1 0.568959 0.435478 0.14693
749 1 0.720636 0.561985 -0.00960011
1066 1 0.650575 0.714388 0.498962
1002 1 0.503608 0.500283 0.419266
819 1 0.718888 0.277365 0.135658
724 1 0.708744 0.36624 0.0704129
820 1 0.785741 0.350027 0.136712
833 1 0.71395 0.432589 0.139843
727 1 0.923163 0.283977 0.0572882
728 1 0.855484 0.361498 0.0752587
824 1 0.93424 0.355359 0.137873
837 1 0.857585 0.441835 0.138242
741 1 0.937459 0.438729 0.0672267
995 1 0.496389 0.346289 0.41325
869 1 0.514022 0.925572 0.133542
734 1 0.589919 0.502784 0.0842499
830 1 0.646145 0.496126 0.147769
747 1 0.651096 0.569218 0.0729739
172 1 0.985366 0.779895 0.222606
980 1 0.845716 0.939525 0.36204
737 1 0.781797 0.426172 0.0723654
738 1 0.717928 0.504205 0.068886
834 1 0.777959 0.504656 0.14582
847 1 0.722857 0.577375 0.155841
751 1 0.794427 0.570718 0.0652464
742 1 0.860216 0.494 0.0682969
838 1 0.937308 0.507322 0.133875
755 1 0.936528 0.582123 0.0667227
1075 1 0.766571 0.844031 0.508075
102 1 0.988947 0.0739251 0.219443
1029 1 0.913622 0.940689 0.423446
843 1 0.567243 0.571053 0.147963
748 1 0.568401 0.62489 0.0551159
844 1 0.63422 0.643877 0.142496
267 1 0.983972 0.709328 0.288588
856 1 0.493378 0.703956 0.211787
752 1 0.722685 0.630409 0.0778503
848 1 0.794072 0.642085 0.13965
765 1 0.780999 0.710281 0.0735425
861 1 0.710337 0.697476 0.132756
968 1 0.488705 0.860877 0.331414
884 1 0.508053 0.00431442 0.360223
851 1 0.863697 0.56898 0.126221
756 1 0.862592 0.648459 0.0686671
852 1 0.934243 0.648277 0.134772
769 1 0.931368 0.722909 0.0628982
865 1 0.856957 0.712332 0.141212
1009 1 0.502453 0.643608 0.430641
785 1 0.504419 0.0800064 0.132134
857 1 0.56355 0.69898 0.131987
761 1 0.643607 0.688099 0.0553216
762 1 0.570278 0.7841 0.0707184
858 1 0.655255 0.777443 0.12901
775 1 0.661798 0.847564 0.0711872
895 1 0.924355 0.00685555 0.352458
242 1 1.00792 0.512985 0.360657
740 1 0.934594 0.512193 0.0015897
766 1 0.724584 0.780941 0.0457605
862 1 0.769873 0.787062 0.131146
779 1 0.774904 0.858879 0.0666617
1055 1 0.722396 0.499648 0.511748
225 1 1.00009 0.281394 0.289081
770 1 0.851936 0.789498 0.0702285
866 1 0.933114 0.783515 0.14174
879 1 0.849289 0.849128 0.14582
1048 1 0.72498 0.349561 0.492161
787 1 0.57224 0.00669898 0.15042
691 1 0.644251 0.0035818 0.072982
871 1 0.595611 0.863545 0.133579
776 1 0.574085 0.917563 0.0679547
872 1 0.651357 0.934393 0.145301
883 1 0.491905 0.0749647 0.280737
791 1 0.722367 0.0186344 0.147808
875 1 0.716628 0.865128 0.144558
780 1 0.714721 0.931311 0.0722881
876 1 0.777016 0.937927 0.149409
925 1 0.498612 0.501288 0.295056
699 1 0.9204 -0.00786058 0.0884348
783 1 0.920519 0.850225 0.076585
784 1 0.853032 0.92464 0.0690013
880 1 0.901242 0.92589 0.156951
1076 1 0.711686 0.921098 0.496324
790 1 0.58042 0.0871574 0.206965
886 1 0.643478 0.0860008 0.288212
803 1 0.650999 0.1565 0.204825
899 1 0.563256 0.143012 0.280354
281 1 0.983864 0.845466 0.290193
794 1 0.708366 0.0832627 0.219461
890 1 0.785782 0.0863739 0.288862
807 1 0.778049 0.141244 0.215046
889 1 0.709771 0.00591767 0.28978
954 1 0.502124 0.719584 0.362301
798 1 0.853103 0.0795762 0.219664
894 1 0.9263 0.0820402 0.300042
804 1 0.579253 0.216424 0.214978
900 1 0.633339 0.212823 0.285394
817 1 0.646149 0.291103 0.218325
913 1 0.567712 0.282159 0.277557
1077 1 0.920677 0.866836 0.480607
903 1 0.708408 0.155214 0.288549
808 1 0.71898 0.221358 0.208146
904 1 0.790385 0.212874 0.282404
917 1 0.716935 0.282862 0.282803
811 1 0.937933 0.149392 0.207313
907 1 0.860257 0.145495 0.286286
812 1 0.867989 0.218873 0.205963
908 1 0.931841 0.207508 0.286594
825 1 0.936246 0.287525 0.20614
921 1 0.855558 0.285496 0.276166
309 1 1.00791 0.287183 0.416255
818 1 0.566733 0.364884 0.210558
914 1 0.625342 0.35174 0.286723
831 1 0.644829 0.421751 0.219579
927 1 0.562803 0.436972 0.287312
821 1 0.78917 0.294591 0.213144
822 1 0.713434 0.362083 0.201146
918 1 0.794178 0.363555 0.277702
835 1 0.797386 0.417592 0.20395
931 1 0.727876 0.426412 0.290381
337 1 1.00964 0.863346 0.402415
826 1 0.873452 0.354159 0.2077
922 1 0.937225 0.360376 0.293522
839 1 0.938371 0.431012 0.212377
935 1 0.856076 0.427599 0.276431
832 1 0.56692 0.502529 0.224364
928 1 0.664114 0.499146 0.28621
845 1 0.646437 0.571553 0.207084
836 1 0.732561 0.490181 0.224905
932 1 0.79692 0.506506 0.285655
949 1 0.85211 0.57763 0.285478
849 1 0.787292 0.566919 0.21638
773 1 0.576766 0.848649 -0.00538801
840 1 0.873228 0.503225 0.208775
936 1 0.9171 0.505874 0.284499
853 1 0.939076 0.576044 0.200929
975 1 0.785589 0.864441 0.34711
941 1 0.578118 0.571662 0.291717
846 1 0.566743 0.650339 0.219081
942 1 0.639996 0.639519 0.285689
955 1 0.584414 0.710796 0.293309
859 1 0.646995 0.717223 0.203322
945 1 0.711308 0.575279 0.28432
850 1 0.70578 0.645996 0.208983
946 1 0.779315 0.642664 0.267989
854 1 0.861202 0.631287 0.202883
950 1 0.921683 0.647196 0.2844
963 1 0.848536 0.712423 0.278301
976 1 0.697423 0.937701 0.348257
860 1 0.578528 0.777253 0.203984
956 1 0.634615 0.791799 0.282015
1027 1 0.774754 0.93953 0.431756
984 1 0.72082 0.0135489 0.438777
863 1 0.77796 0.705902 0.208658
959 1 0.695565 0.710627 0.281855
864 1 0.71425 0.796409 0.223261
960 1 0.790481 0.780128 0.29665
877 1 0.785743 0.858882 0.215046
842 1 0.490836 0.565826 0.228587
867 1 0.914754 0.705055 0.21153
868 1 0.836933 0.776333 0.201397
964 1 0.914968 0.775605 0.299244
881 1 0.91793 0.856254 0.216598
891 1 0.773288 0.0161302 0.358049
789 1 0.649705 0.00533761 0.206234
885 1 0.576449 0.00777248 0.287189
873 1 0.638244 0.854853 0.212001
969 1 0.56973 0.860066 0.278911
874 1 0.575088 0.928861 0.215145
970 1 0.637716 0.938144 0.279149
1026 1 0.714626 0.863692 0.410559
793 1 0.780081 0.00298803 0.220597
973 1 0.704199 0.866006 0.287766
878 1 0.715806 0.931323 0.223423
974 1 0.7701 0.939086 0.296427
1078 1 0.851664 0.921406 0.50119
893 1 0.854962 0.0086711 0.287754