ITEM: TIMESTEP
8200
ITEM: NUMBER OF ATOMS
864
ITEM: BOX BOUNDS pp pp pp
0.0000000000000000e+00 3.1559999999999999e+01
0.0000000000000000e+00 3.1559999999999999e+01
0.0000000000000000e+00 3.1559999999999999e+01
ITEM: ATOMS id type xs ys zs
4 1 0.992545 0.0944878 0.0890646
8 1 0.159738 0.0918559 0.0817573
101 1 0.162841 0.165192 0.174019
525 1 0.841926 0.514599 0.176675
591 1 0.577211 0.48709 0.426004
23 1 0.915077 -0.00211319 0.0823663
105 1 0.328789 0.172123 0.166882
513 1 0.337207 0.51917 0.169988
12 1 0.340336 0.0836615 0.0985735
16 1 0.503866 0.0767806 0.0753955
35 1 0.43152 0.173606 0.0695614
109 1 0.489465 0.185202 0.167087
82 1 0.425071 0.092833 0.171994
213 1 0.832963 0.345069 0.338827
39 1 0.58524 0.166219 0.0769243
2 1 0.0797081 0.0745683 0.0241157
85 1 0.506017 -3.6461e-05 0.171397
54 1 0.25307 0.434559 0.011883
20 1 0.63384 0.0753112 0.0967131
90 1 0.741116 0.0694158 0.141215
24 1 0.83493 0.099819 0.0719235
94 1 0.902817 0.0847425 0.170546
79 1 0.25559 0.000689528 0.24452
117 1 0.812702 0.152272 0.167571
27 1 0.070409 0.172844 0.0704399
97 1 0.00329837 0.176506 0.162421
98 1 0.0827338 0.249345 0.165389
145 1 -0.00410414 0.0166561 0.328635
515 1 0.40266 0.504126 0.250052
32 1 0.173582 0.234233 0.0848246
31 1 0.257879 0.171053 0.0882534
517 1 0.496839 0.47298 0.182529
87 1 0.586632 -0.00373829 0.260312
36 1 0.323591 0.251421 0.0666321
59 1 0.406121 0.333293 0.076118
33 1 0.35569 0.152935 -0.00534983
106 1 0.414954 0.2593 0.165345
242 1 0.0806653 0.24192 0.493544
585 1 0.313925 0.505793 0.33737
40 1 0.489998 0.259891 0.0777217
133 1 0.502467 0.332989 0.173555
110 1 0.573211 0.243491 0.174354
43 1 0.748358 0.167212 0.0797778
44 1 0.668561 0.255829 0.0960161
114 1 0.74631 0.260571 0.181013
73 1 0.991385 -0.0112167 0.155415
218 1 0.0833044 0.0787715 0.495206
28 1 -0.00744122 0.264483 0.090535
48 1 0.820774 0.261521 0.0908309
57 1 0.318517 0.342619 -0.00402611
47 1 0.922094 0.177002 0.093206
589 1 0.501436 0.482355 0.332277
77 1 0.156073 -0.00279228 0.175532
167 1 0.914115 0.0218318 0.401323
51 1 0.075768 0.336851 0.0912481
56 1 0.153332 0.422924 0.093802
52 1 0.987831 0.415914 0.0957362
55 1 0.226521 0.34331 0.0955844
126 1 0.242333 0.426749 0.165797
266 1 0.0874374 0.414077 0.494594
29 1 0.169145 0.157719 0.00539692
60 1 0.324938 0.427888 0.102146
130 1 0.408167 0.411224 0.167264
63 1 0.584673 0.326586 0.0828737
64 1 0.510141 0.418145 0.0776944
134 1 0.589193 0.407237 0.151649
75 1 0.0763999 0.0138849 0.23463
270 1 0.244007 0.427766 0.488168
68 1 0.668021 0.426026 0.0994111
67 1 0.743961 0.330067 0.0893249
138 1 0.753611 0.434055 0.166446
137 1 0.666826 0.334842 0.1649
58 1 0.410297 0.445301 0.00489995
95 1 0.913023 -0.00522405 0.237588
71 1 0.916285 0.340785 0.0969733
72 1 0.833518 0.414786 0.0820236
142 1 0.908504 0.424389 0.177981
157 1 0.500877 -0.00328375 0.32853
163 1 0.750426 -0.0179964 0.410475
241 1 0.00605671 0.1576 0.503065
74 1 0.0831348 0.0924001 0.154091
146 1 0.0797794 0.0771248 0.343403
99 1 0.0780504 0.165531 0.257573
78 1 0.241867 0.0786186 0.172978
80 1 0.164186 0.0897007 0.252639
84 1 0.3492 0.1029 0.253122
103 1 0.257712 0.154616 0.238915
150 1 0.259372 0.101965 0.344443
173 1 0.154222 0.168967 0.326069
177 1 0.333472 0.184079 0.330934
107 1 0.433862 0.176185 0.255099
214 1 0.924326 0.424092 0.327907
86 1 0.569466 0.101946 0.17598
216 1 0.83697 0.423218 0.419021
88 1 0.495199 0.0830751 0.252355
158 1 0.598272 0.0906355 0.323579
92 1 0.661742 0.0804137 0.239376
115 1 0.732081 0.171939 0.239754
50 1 0.070579 0.413192 0.0153762
210 1 0.751945 0.424728 0.329637
76 1 0.996766 0.0998131 0.264219
96 1 0.823124 0.0825832 0.241491
100 1 0.998728 0.248533 0.265464
123 1 0.0797873 0.322002 0.254152
170 1 0.0818078 0.250624 0.33462
102 1 0.252491 0.248147 0.16104
104 1 0.14614 0.244479 0.25361
108 1 0.337033 0.247939 0.251136
174 1 0.241198 0.237875 0.338813
129 1 0.313911 0.332112 0.164962
131 1 0.402069 0.327181 0.245876
201 1 0.328377 0.314096 0.344993
178 1 0.416617 0.251803 0.336795
111 1 0.577294 0.179527 0.259138
112 1 0.499361 0.268187 0.261394
182 1 0.589383 0.260982 0.334398
135 1 0.601466 0.339293 0.2396
181 1 0.50529 0.170125 0.34158
113 1 0.67253 0.166953 0.153628
116 1 0.661416 0.253496 0.248375
185 1 0.673074 0.169021 0.341497
186 1 0.752968 0.254077 0.34075
209 1 0.66495 0.322017 0.33771
120 1 0.829212 0.250441 0.241713
119 1 0.906451 0.172524 0.249278
118 1 0.923209 0.268097 0.176088
190 1 0.904837 0.255802 0.34268
122 1 0.0773663 0.408148 0.176799
121 1 0.98876 0.349382 0.188616
212 1 0.663469 0.410322 0.428151
205 1 0.496923 0.339809 0.352207
125 1 0.177266 0.323439 0.18554
127 1 0.25293 0.313438 0.262381
128 1 0.175297 0.426167 0.242972
198 1 0.243156 0.415954 0.323228
132 1 0.332229 0.413393 0.245355
202 1 0.39668 0.408245 0.327472
519 1 0.58086 0.486373 0.258172
207 1 0.568071 0.334029 0.42571
206 1 0.580133 0.402089 0.335812
136 1 0.487696 0.404524 0.25685
140 1 0.673955 0.416753 0.252744
139 1 0.755282 0.34167 0.259511
155 1 0.435585 -0.00243095 0.423454
187 1 0.742314 0.163969 0.420646
141 1 0.835586 0.349685 0.173919
143 1 0.911401 0.333727 0.262115
124 1 1.00801 0.429261 0.257259
144 1 0.83488 0.427876 0.256674
169 1 0.994099 0.177277 0.335751
148 1 -0.00526727 0.0977163 0.411383
435 1 0.0716744 0.506462 0.0993049
208 1 0.481084 0.420328 0.434405
152 1 0.179603 0.0950847 0.403094
175 1 0.250367 0.164128 0.428138
156 1 0.329528 0.0860709 0.423528
149 1 0.159041 -0.00221615 0.337311
154 1 0.417465 0.0970866 0.336668
160 1 0.511442 0.0794208 0.405725
193 1 1.00988 0.340794 0.345868
587 1 0.403774 0.49189 0.422447
183 1 0.585095 0.163896 0.418783
204 1 0.323417 0.410172 0.424437
215 1 0.927887 0.340406 0.420699
189 1 0.819733 0.171656 0.320272
192 1 0.827416 0.239969 0.412844
164 1 0.665765 0.0811518 0.40546
162 1 0.746254 0.0861051 0.331735
200 1 0.16052 0.415939 0.404607
211 1 0.744257 0.341162 0.424359
199 1 0.251723 0.324721 0.420656
166 1 0.902083 0.0884153 0.312625
191 1 0.912504 0.167003 0.405646
168 1 0.822717 0.0845186 0.409222
188 1 0.657709 0.248293 0.438349
171 1 0.0766992 0.167366 0.41135
195 1 0.0845591 0.330256 0.419676
172 1 0.994327 0.249141 0.416392
176 1 0.169692 0.239122 0.415102
203 1 0.403727 0.343468 0.411983
184 1 0.505299 0.245586 0.431732
194 1 0.0838217 0.42043 0.325746
180 1 0.331687 0.238476 0.429538
197 1 0.173081 0.330531 0.33605
196 1 1.01044 0.428596 0.412933
179 1 0.408473 0.174182 0.413994
222 1 0.232358 0.075916 0.498542
165 1 0.823518 -0.00864296 0.318311
41 1 0.664784 0.164877 -0.00390553
25 1 -0.0112893 0.182176 -0.00476485
151 1 0.249482 0.00229667 0.404023
447 1 0.580847 0.506072 0.0758238
269 1 0.171539 0.332764 0.497113
246 1 0.24484 0.238267 0.507862
81 1 0.32836 0.00570099 0.162607
238 1 0.917507 0.104614 0.500927
26 1 0.0979968 0.253265 0.00361067
153 1 0.325246 0.0165355 0.329185
253 1 0.497846 0.146591 0.496692
665 1 0.660542 0.497218 0.506338
45 1 0.83695 0.176434 -0.00368512
18 1 0.737662 0.0825522 0.0247405
281 1 0.67439 0.336045 0.508251
69 1 0.81856 0.338494 0.00191321
234 1 0.73986 0.0760398 0.488011
65 1 0.669183 0.338055 -0.00554801
657 1 0.331867 0.49544 0.501854
6 1 0.25291 0.0696811 0.00502265
42 1 0.742967 0.256195 0.00317295
285 1 0.827268 0.318643 0.488081
226 1 0.416356 0.0804272 0.502129
70 1 0.91407 0.420527 0.00438495
282 1 0.745412 0.425039 0.504086
224 1 0.152662 0.0718006 0.581214
220 1 0.011868 0.0836707 0.581036
361 1 0.00444271 -0.00546299 0.830174
309 1 0.842095 0.0103126 0.667362
250 1 0.418227 0.242278 0.490489
228 1 0.32908 0.0870639 0.594748
383 1 0.923965 0.0179777 0.912562
38 1 0.573306 0.242724 1.00305
811 1 0.764152 0.510738 0.912561
298 1 0.401984 0.0800064 0.677121
661 1 0.480007 0.517633 0.503094
803 1 0.415925 0.507142 0.917911
37 1 0.496052 0.141558 0.987835
232 1 0.492281 0.0881962 0.585264
255 1 0.586269 0.142417 0.581691
302 1 0.591307 0.071531 0.670686
735 1 0.584754 0.495759 0.739577
236 1 0.66656 0.066571 0.589974
412 1 1.00077 0.430616 0.919003
230 1 0.588046 0.084219 0.482544
240 1 0.822303 0.0921799 0.573372
263 1 0.925433 0.169659 0.588621
379 1 0.746041 0.0117396 0.942827
277 1 0.478344 0.334037 0.500264
243 1 0.091559 0.171138 0.590997
248 1 0.156983 0.252247 0.573029
267 1 0.0852835 0.346961 0.576451
247 1 0.233686 0.146259 0.592459
271 1 0.235462 0.326343 0.58151
345 1 0.332364 0.322832 0.670586
251 1 0.41341 0.16098 0.576153
252 1 0.33705 0.250924 0.576841
322 1 0.405921 0.238447 0.680888
275 1 0.410258 0.336568 0.586223
262 1 0.915955 0.250846 0.490293
256 1 0.494547 0.24472 0.58424
279 1 0.573019 0.319546 0.573462
260 1 0.684789 0.257618 0.583066
325 1 0.48749 0.161861 0.686582
329 1 0.664061 0.165596 0.670244
259 1 0.760211 0.175407 0.587853
330 1 0.755863 0.26051 0.662539
733 1 0.50669 0.500579 0.649137
239 1 0.916198 0.0183547 0.562043
264 1 0.841603 0.250732 0.587658
244 1 0.00397853 0.250413 0.58162
62 1 0.593357 0.411863 0.986576
338 1 0.0781703 0.423635 0.671592
268 1 0.00688703 0.425231 0.573139
375 1 0.596182 0.00470507 0.911505
813 1 0.840993 0.516034 0.822974
272 1 0.18357 0.418464 0.591657
342 1 0.249773 0.407575 0.672497
223 1 0.24223 -0.00777255 0.58236
797 1 0.166601 0.493975 0.829139
432 1 0.846509 0.409988 0.924858
276 1 0.317785 0.41553 0.585699
427 1 0.747058 0.340431 0.914969
805 1 0.491951 0.497497 0.816536
727 1 0.242234 0.485341 0.749598
280 1 0.497005 0.408835 0.586182
349 1 0.48051 0.330822 0.663377
426 1 0.767197 0.417441 0.822328
353 1 0.668514 0.349925 0.671094
295 1 0.244046 0.00456349 0.758307
34 1 0.420957 0.244547 0.989395
284 1 0.652311 0.405594 0.584221
283 1 0.759008 0.344701 0.57184
288 1 0.841754 0.415376 0.578453
354 1 0.747781 0.415138 0.657013
66 1 0.732495 0.4228 1.00747
258 1 0.75653 0.238469 0.49863
287 1 0.910858 0.341009 0.568145
357 1 0.851859 0.325575 0.660269
419 1 0.411434 0.341989 0.934859
290 1 0.0822002 0.0733253 0.665542
311 1 0.927651 0.0043861 0.753658
815 1 0.912032 0.506335 0.916131
418 1 0.414405 0.425616 0.841399
296 1 0.170291 0.0765176 0.759276
294 1 0.245056 0.0791689 0.676917
300 1 0.327178 0.0883171 0.756401
319 1 0.248596 0.161853 0.75905
323 1 0.419383 0.172981 0.770635
304 1 0.505192 0.0572951 0.740136
327 1 0.580495 0.172053 0.750411
374 1 0.584715 0.0882148 0.82818
306 1 0.766269 0.0781528 0.674816
308 1 0.674069 0.0768969 0.759098
312 1 0.843071 0.0805783 0.75732
331 1 0.752693 0.169319 0.752248
401 1 0.659645 0.181535 0.847448
310 1 0.935378 0.0779801 0.666112
333 1 0.839683 0.163087 0.66212
313 1 0.0178915 0.163786 0.663615
227 1 0.416071 0.00469885 0.581391
292 1 0.00872544 0.0761855 0.748175
335 1 0.927686 0.159683 0.741194
314 1 0.0958901 0.253494 0.665441
315 1 0.0811118 0.160668 0.749375
320 1 0.166778 0.239331 0.755962
317 1 0.164684 0.155874 0.677943
321 1 0.333951 0.166357 0.679551
318 1 0.246207 0.239752 0.673496
324 1 0.331041 0.24798 0.758479
343 1 0.245249 0.330435 0.739057
394 1 0.418434 0.258242 0.842463
326 1 0.585741 0.234054 0.65822
328 1 0.505 0.253724 0.747686
398 1 0.596143 0.259047 0.824974
332 1 0.679861 0.254818 0.751003
355 1 0.762397 0.322237 0.750912
336 1 0.845046 0.245051 0.747538
316 1 0.00395969 0.233795 0.755061
334 1 0.939866 0.247233 0.666815
359 1 0.935911 0.326799 0.742333
406 1 0.929723 0.24399 0.82575
341 1 0.155196 0.344638 0.667744
337 1 0.0114282 0.32515 0.659386
339 1 0.0633296 0.321549 0.765805
340 1 0.00491665 0.437041 0.761551
409 1 0.979473 0.347596 0.843491
725 1 0.148916 0.504617 0.654551
729 1 0.328021 0.499283 0.666501
344 1 0.146023 0.406128 0.755209
348 1 0.333689 0.415827 0.7588
347 1 0.428553 0.339942 0.749796
346 1 0.412232 0.403629 0.666561
352 1 0.507651 0.424949 0.730829
801 1 0.310208 0.501369 0.839555
422 1 0.584178 0.428278 0.827884
351 1 0.587064 0.349044 0.752017
350 1 0.576318 0.404972 0.659275
356 1 0.673066 0.430109 0.73752
423 1 0.58669 0.337482 0.911721
425 1 0.673504 0.355737 0.824877
430 1 0.916131 0.438844 0.839792
358 1 0.92822 0.412674 0.655701
360 1 0.845733 0.401149 0.745154
362 1 0.0936867 0.068136 0.832693
417 1 0.324681 0.330614 0.822042
368 1 0.162287 0.071001 0.928507
420 1 0.327025 0.424095 0.919056
428 1 0.684961 0.448368 0.910808
366 1 0.250474 0.0837758 0.844936
391 1 0.237179 0.163918 0.917783
393 1 0.333641 0.167953 0.840119
372 1 0.345837 0.0782075 0.915295
424 1 0.498274 0.424605 0.912805
229 1 0.506667 0.00304245 0.513592
370 1 0.420345 0.0633939 0.828919
376 1 0.499312 0.0628612 0.914862
397 1 0.507075 0.175356 0.844025
380 1 0.673414 0.0889668 0.907704
416 1 0.168778 0.417721 0.914072
655 1 0.256615 0.499833 0.588502
414 1 0.244164 0.400257 0.81968
378 1 0.751442 0.0958692 0.841778
415 1 0.257069 0.32731 0.91163
382 1 0.927827 0.0939424 0.828608
364 1 1.01822 0.0840119 0.918573
384 1 0.814247 0.0928942 0.938235
387 1 0.0822361 0.16813 0.929474
388 1 0.998091 0.25501 0.917902
386 1 0.0756336 0.244277 0.830865
392 1 0.154065 0.24741 0.917885
389 1 0.168028 0.160273 0.836547
390 1 0.248101 0.241051 0.84391
396 1 0.340071 0.254773 0.919415
395 1 0.429338 0.160856 0.909288
399 1 0.577189 0.157676 0.917261
400 1 0.501454 0.252105 0.911659
404 1 0.666487 0.247216 0.924445
278 1 0.568101 0.414272 0.508947
402 1 0.738274 0.242028 0.842426
403 1 0.754591 0.180216 0.925456
405 1 0.847581 0.16252 0.837163
408 1 0.83847 0.261291 0.92994
431 1 0.928932 0.339763 0.925672
429 1 0.850179 0.321518 0.837482
385 1 0.0125221 0.160927 0.833102
407 1 0.920627 0.176773 0.912476
421 1 0.499134 0.354137 0.829768
410 1 0.0731666 0.419057 0.832415
413 1 0.168645 0.325295 0.837789
411 1 0.0645129 0.339339 0.928219
377 1 0.681132 0.00554967 0.841061
286 1 0.93156 0.424652 0.49893
795 1 0.0947128 0.510063 0.917898
249 1 0.314421 0.154731 0.508851
49 1 1.00443 0.333686 1.01489
273 1 0.345783 0.332415 0.49631
53 1 0.171213 0.331934 1.00933
14 1 0.590041 0.0797034 1.00586
10 1 0.428898 0.0617091 0.991155
30 1 0.244776 0.248056 0.999687
274 1 0.414075 0.418832 0.511658
61 1 0.492562 0.343045 0.990689
254 1 0.580863 0.225576 0.509541
22 1 0.932048 0.0918081 1.00234
445 1 0.498095 0.503133 1.00026
5 1 0.162697 -0.00572075 1.00795
245 1 0.160243 0.162491 0.491351
21 1 0.835976 -0.000782074 1.01006
257 1 0.67506 0.159728 0.50613
261 1 0.83775 0.162649 0.484278
265 1 1.0139 0.328896 0.501216
46 1 0.914844 0.257629 1.01101
459 1 0.0784194 0.657816 0.089205
436 1 0.994822 0.585759 0.0861873
628 1 1.00899 0.91217 0.419491
440 1 0.171165 0.60034 0.0934069
463 1 0.258312 0.676231 0.0993175
451 1 0.751905 0.503863 0.0747393
7 1 0.247446 0.986029 0.0917299
439 1 0.254343 0.512407 0.0928808
159 1 0.574894 0.993236 0.412442
444 1 0.345453 0.596901 0.0898969
448 1 0.496148 0.589387 0.0728006
1 1 1.00589 0.99645 -0.00313874
13 1 0.496993 0.984748 -0.00181933
452 1 0.663215 0.58319 0.0906071
442 1 0.41242 0.571507 -0.00420833
518 1 0.568539 0.586858 0.161931
456 1 0.835416 0.580839 0.0890624
549 1 0.832531 0.67035 0.164065
475 1 0.738111 0.658231 0.0780904
641 1 0.675034 0.831407 0.330192
443 1 0.438847 0.502091 0.0936592
526 1 0.912305 0.604783 0.163152
93 1 0.836081 1.01769 0.146344
479 1 0.923895 0.675897 0.0851719
648 1 0.825729 0.9164 0.408976
464 1 0.171279 0.749845 0.0921789
460 1 0.00291928 0.746642 0.0866566
483 1 0.0800117 0.832458 0.0782625
487 1 0.251286 0.828116 0.0716291
468 1 0.346198 0.750225 0.0871665
561 1 0.349559 0.829172 0.157539
467 1 0.426488 0.665326 0.080226
491 1 0.432181 0.835395 0.0846471
537 1 0.33843 0.675267 0.171977
538 1 0.427319 0.759534 0.177366
541 1 0.497759 0.673878 0.160925
472 1 0.510804 0.759266 0.0927799
471 1 0.581562 0.680294 0.0882729
476 1 0.666687 0.739421 0.079404
542 1 0.588715 0.74963 0.166265
495 1 0.585599 0.832952 0.0784502
597 1 0.824791 0.510379 0.355439
511 1 0.250602 0.503988 0.24701
523 1 0.751566 0.500938 0.253963
499 1 0.747935 0.821346 0.0828188
237 1 0.831441 1.00812 0.493983
546 1 0.747113 0.734531 0.170725
480 1 0.816581 0.730449 0.0813151
550 1 0.915346 0.745596 0.161553
503 1 0.895825 0.826702 0.0719706
573 1 0.833716 0.826953 0.15491
507 1 0.0789819 0.503249 0.237863
221 1 0.154123 0.991808 0.494046
644 1 0.660219 0.928842 0.406652
554 1 0.0669641 0.92207 0.177271
484 1 -0.00552967 0.90636 0.087205
498 1 0.754893 0.909658 -0.010898
488 1 0.163715 0.910458 0.0922439
492 1 0.357594 0.903581 0.085217
19 1 0.742365 0.988583 0.06305
496 1 0.500302 0.914677 0.0970316
565 1 0.498684 0.83978 0.176608
505 1 0.979804 0.509824 0.167775
566 1 0.58633 0.905901 0.168294
569 1 0.667903 0.835531 0.154468
697 1 1.00386 0.837598 0.500249
640 1 0.507129 0.913254 0.416324
639 1 0.589014 0.819257 0.422219
500 1 0.669684 0.910411 0.0798512
570 1 0.755342 0.906365 0.160457
89 1 0.652977 0.992469 0.158384
504 1 0.818717 0.915123 0.0777961
583 1 0.249876 0.509572 0.421496
674 1 0.0857961 0.737963 0.497673
11 1 0.416234 1.00685 0.0755843
91 1 0.752576 1.00251 0.222572
529 1 0.00158049 0.667898 0.185247
506 1 0.0981306 0.588728 0.173808
508 1 0.992895 0.5868 0.247422
578 1 0.0812795 0.590936 0.332231
510 1 0.243634 0.584425 0.16985
635 1 0.43006 0.823242 0.438345
512 1 0.173587 0.586872 0.254418
533 1 0.158454 0.678004 0.168825
516 1 0.331567 0.587951 0.260103
514 1 0.434621 0.577377 0.175959
15 1 0.575431 0.989994 0.0692242
586 1 0.421216 0.570728 0.340319
147 1 0.0808014 0.988299 0.409508
520 1 0.505896 0.561766 0.25975
524 1 0.664284 0.566851 0.249394
590 1 0.583778 0.566568 0.324762
630 1 0.252807 0.923572 0.329266
522 1 0.750117 0.582292 0.172547
528 1 0.835256 0.575217 0.258641
547 1 0.738714 0.655908 0.260588
594 1 0.730633 0.5904 0.335975
617 1 0.652232 0.660137 0.335332
636 1 0.338585 0.939751 0.409997
551 1 0.90883 0.672803 0.252517
598 1 0.922569 0.584063 0.335296
509 1 0.166785 0.498717 0.165251
530 1 0.0715932 0.750456 0.163721
557 1 0.160519 0.835869 0.173457
553 1 0.985103 0.832704 0.152685
531 1 0.0791831 0.674083 0.256816
555 1 0.0855208 0.827255 0.255787
535 1 0.256641 0.668211 0.258967
536 1 0.172424 0.741335 0.255004
534 1 0.262006 0.767773 0.171634
540 1 0.339657 0.75124 0.257508
609 1 0.341974 0.65232 0.343207
539 1 0.418574 0.668871 0.260116
610 1 0.424108 0.745903 0.336561
545 1 0.670713 0.668847 0.168859
543 1 0.582296 0.661741 0.254597
544 1 0.506851 0.746462 0.254068
614 1 0.586762 0.761996 0.324016
637 1 0.486742 0.82961 0.334204
548 1 0.666853 0.73417 0.250027
621 1 0.829501 0.652055 0.333667
552 1 0.836567 0.759722 0.24084
571 1 0.742473 0.820199 0.245267
532 1 0.0028172 0.75949 0.263794
575 1 0.925613 0.831808 0.240733
626 1 0.0839821 0.919208 0.315445
556 1 0.998518 0.914379 0.255444
560 1 0.169254 0.921469 0.262889
604 1 1.00439 0.749374 0.413276
558 1 0.259622 0.90872 0.170219
559 1 0.26235 0.827787 0.261341
625 1 0.00207627 0.840221 0.342048
562 1 0.416694 0.933218 0.164527
563 1 0.419147 0.832052 0.25368
564 1 0.347395 0.91902 0.269107
634 1 0.421099 0.922469 0.33601
627 1 0.0919389 0.833866 0.421583
567 1 0.597655 0.824216 0.243318
568 1 0.499049 0.909134 0.264158
638 1 0.582617 0.916402 0.329492
572 1 0.672222 0.917604 0.228199
642 1 0.746687 0.911521 0.313649
576 1 0.839306 0.908802 0.239097
622 1 0.902965 0.751029 0.346078
574 1 0.913123 0.908696 0.157161
646 1 0.918094 0.933841 0.333977
647 1 0.90748 0.829958 0.411513
601 1 0.997653 0.674186 0.32861
580 1 1.00006 0.591732 0.409948
584 1 0.168358 0.592895 0.427202
603 1 0.0777045 0.667127 0.421549
161 1 0.690024 1.0054 0.31608
618 1 0.75941 0.73931 0.326649
643 1 0.758753 0.837973 0.407412
582 1 0.24299 0.580349 0.336614
588 1 0.335016 0.582137 0.42956
611 1 0.42658 0.666193 0.409192
527 1 0.914667 0.504822 0.261412
670 1 0.924202 0.585723 0.487074
592 1 0.503176 0.573041 0.421464
599 1 0.927755 0.5044 0.414853
596 1 0.659661 0.57966 0.419889
600 1 0.826303 0.588581 0.419882
632 1 0.174797 0.911672 0.403272
701 1 0.186369 0.832471 0.487773
593 1 0.669368 0.490887 0.336608
619 1 0.752712 0.663781 0.425831
577 1 -0.00123397 0.508428 0.327892
623 1 0.912124 0.662318 0.414727
3 1 0.0835666 0.984921 0.0889141
602 1 0.0826296 0.75027 0.343511
608 1 0.178364 0.739938 0.423353
629 1 0.174704 0.828752 0.339671
620 1 0.673518 0.743101 0.413506
605 1 0.16682 0.665223 0.329443
607 1 0.249926 0.653684 0.416046
631 1 0.274578 0.838498 0.397762
633 1 0.362718 0.830614 0.35201
606 1 0.25946 0.753813 0.342473
521 1 0.648508 0.502841 0.167308
612 1 0.332903 0.747521 0.413202
613 1 0.5119 0.649155 0.330104
624 1 0.827232 0.739 0.417328
615 1 0.588623 0.663616 0.408869
616 1 0.507421 0.742727 0.401265
645 1 0.842343 0.845007 0.323763
595 1 0.742381 0.497665 0.420665
458 1 0.0867465 0.748539 0.00369209
465 1 0.343064 0.672706 -0.00605177
682 1 0.416855 0.743898 0.499132
579 1 0.0854985 0.515729 0.420981
455 1 0.904818 0.50295 0.0893297
581 1 0.161601 0.497389 0.332638
698 1 0.080659 0.911824 0.499539
718 1 0.906077 0.920239 0.478464
83 1 0.402562 1.0127 0.254743
702 1 0.248273 0.925788 0.475867
705 1 0.335871 0.832826 0.49808
681 1 0.319854 0.676529 0.497239
669 1 0.854637 0.501017 0.498121
457 1 0.00751756 0.659579 0.00730256
686 1 0.585949 0.74084 0.502709
462 1 0.260747 0.74809 -0.0123525
233 1 0.667577 0.994367 0.486055
449 1 0.655568 0.508065 -0.00835518
658 1 0.419852 0.603742 0.497842
713 1 0.672736 0.82198 0.49246
461 1 0.169543 0.679095 0.0141356
481 1 -0.00787085 0.835662 -0.00574095
685 1 0.510781 0.662966 0.502733
438 1 0.256339 0.603181 0.0128806
710 1 0.592105 0.91838 0.49992
649 1 0.00364869 0.506276 0.490859
706 1 0.413462 0.918998 0.499351
434 1 0.0762346 0.57259 0.00900886
441 1 0.325309 0.506652 0.0087424
217 1 -0.0118221 1.0124 0.482819
225 1 0.335387 1.01987 0.494263
9 1 0.328149 0.998097 0.00733543
486 1 0.247781 0.913657 0.00341767
454 1 0.905981 0.580864 0.00320064
470 1 0.588878 0.752452 -0.0142102
714 1 0.741077 0.911053 0.497593
650 1 0.0912333 0.594413 0.516396
656 1 0.161086 0.586317 0.590496
722 1 0.0790508 0.58893 0.666789
297 1 0.341185 1.00783 0.669103
660 1 0.33147 0.573891 0.584243
726 1 0.247643 0.587511 0.663188
753 1 0.331903 0.662114 0.671946
683 1 0.405163 0.664052 0.581852
664 1 0.487136 0.596868 0.5804
730 1 0.406719 0.577972 0.661726
734 1 0.570123 0.59525 0.657954
453 1 0.83618 0.497038 0.994547
668 1 0.669039 0.587978 0.576852
691 1 0.76654 0.664614 0.587062
738 1 0.761166 0.597732 0.670508
862 1 0.901259 0.912016 0.847034
672 1 0.853195 0.585085 0.584678
652 1 -0.000612155 0.589572 0.566885
381 1 0.81573 1.00215 0.846898
501 1 0.822332 0.831058 0.996101
675 1 0.0848911 0.682863 0.591593
699 1 0.0866426 0.823583 0.575647
680 1 0.169489 0.750723 0.579811
676 1 0.996982 0.762532 0.581249
749 1 0.176474 0.683194 0.656565
679 1 0.258752 0.671037 0.586707
750 1 0.256075 0.760436 0.646756
684 1 0.342977 0.749339 0.570966
723 1 0.0937275 0.503491 0.743951
754 1 0.418638 0.740823 0.673906
688 1 0.502909 0.753193 0.564958
291 1 0.0848465 0.997273 0.752868
687 1 0.598848 0.667174 0.585415
758 1 0.584109 0.757729 0.669943
689 1 0.662431 0.665813 0.494555
446 1 0.579351 0.588672 0.995529
692 1 0.662809 0.752143 0.585883
715 1 0.742791 0.830323 0.58156
696 1 0.825553 0.749298 0.587421
761 1 0.676342 0.665452 0.667818
299 1 0.423424 0.991666 0.752914
695 1 0.928388 0.664828 0.585257
719 1 0.908934 0.824031 0.584718
659 1 0.405717 0.492154 0.58953
737 1 0.6792 0.497128 0.649419
770 1 0.0787542 0.925915 0.65952
704 1 0.155736 0.907209 0.580396
305 1 0.671477 0.990492 0.675862
703 1 0.253245 0.835041 0.578803
708 1 0.334525 0.925755 0.575577
707 1 0.409064 0.820567 0.581387
778 1 0.406376 0.916047 0.661294
777 1 0.336555 0.833449 0.680588
673 1 -0.00968968 0.665845 0.4893
711 1 0.593278 0.828576 0.584373
712 1 0.494367 0.922586 0.590981
367 1 0.259562 0.989437 0.923291
782 1 0.57882 0.900058 0.660383
785 1 0.673421 0.826426 0.667538
716 1 0.664007 0.928381 0.57549
720 1 0.843136 0.900805 0.574114
864 1 0.823455 0.915866 0.916269
741 1 0.850347 0.490187 0.669375
293 1 0.170194 0.98833 0.672206
700 1 0.983814 0.910909 0.570688
844 1 -0.00871663 0.919888 0.914798
231 1 0.575823 0.991124 0.597716
724 1 -0.00227996 0.575223 0.75326
745 1 1.00563 0.661834 0.670797
747 1 0.0858292 0.662725 0.74376
817 1 -0.00653747 0.677365 0.81941
794 1 0.0802078 0.593324 0.847303
371 1 0.416316 0.9795 0.908399
859 1 0.740605 0.827157 0.906471
728 1 0.167105 0.593165 0.736753
732 1 0.324539 0.583655 0.749121
303 1 0.600973 1.00109 0.759004
858 1 0.740476 0.911414 0.833692
736 1 0.492697 0.577456 0.747767
693 1 0.849281 0.658885 0.502373
757 1 0.486039 0.661988 0.652568
802 1 0.413982 0.568956 0.830073
740 1 0.649542 0.577057 0.728319
806 1 0.593689 0.569899 0.826297
307 1 0.751323 0.99316 0.747525
744 1 0.831506 0.589816 0.751116
763 1 0.760465 0.672753 0.755141
810 1 0.753548 0.58627 0.824722
742 1 0.933785 0.583792 0.668141
365 1 0.168708 0.989926 0.840934
746 1 0.0840517 0.756788 0.665162
818 1 0.0713492 0.750777 0.824022
748 1 1.00075 0.767019 0.740195
752 1 0.153598 0.745603 0.754151
751 1 0.23972 0.673753 0.744035
756 1 0.324707 0.744824 0.738782
825 1 0.320139 0.668931 0.818137
755 1 0.412143 0.659144 0.740155
760 1 0.491766 0.749664 0.746065
759 1 0.57208 0.656767 0.75266
830 1 0.57986 0.745263 0.817118
764 1 0.677248 0.740893 0.741555
833 1 0.672486 0.657426 0.821168
762 1 0.754969 0.744753 0.666427
768 1 0.852644 0.751418 0.75159
789 1 0.825598 0.831757 0.661538
787 1 0.761036 0.831007 0.749721
834 1 0.743034 0.743039 0.831567
765 1 0.851282 0.672189 0.674735
766 1 0.930111 0.75468 0.659572
767 1 0.923026 0.656246 0.758199
841 1 0.998173 0.847341 0.836566
838 1 0.916136 0.762678 0.854345
791 1 0.915247 0.841079 0.745509
769 1 -0.0110838 0.844504 0.660914
771 1 0.0909971 0.835243 0.747559
773 1 0.17752 0.842581 0.662953
776 1 0.164527 0.907992 0.750986
845 1 0.16314 0.833093 0.831397
774 1 0.260974 0.92706 0.657401
775 1 0.239419 0.820869 0.746371
780 1 0.331391 0.919255 0.743952
781 1 0.493158 0.822594 0.651319
731 1 0.405021 0.498658 0.738985
779 1 0.425424 0.839497 0.739816
850 1 0.404407 0.913769 0.825293
784 1 0.511193 0.908479 0.74616
721 1 1.00573 0.494595 0.664536
783 1 0.575065 0.825683 0.749576
788 1 0.665495 0.911127 0.742736
854 1 0.588016 0.904459 0.828116
490 1 0.430402 0.897881 0.984684
857 1 0.668399 0.8267 0.822431
786 1 0.761312 0.919393 0.66705
792 1 0.836638 0.915862 0.76815
772 1 -0.00274429 0.915407 0.749087
790 1 0.922631 0.941387 0.670306
821 1 0.160073 0.66429 0.829028
819 1 0.0999329 0.658105 0.936689
473 1 0.661327 0.669383 0.993289
739 1 0.768638 0.500533 0.725667
793 1 0.00915814 0.515883 0.83507
489 1 0.338699 0.826354 1.00793
671 1 0.928767 0.502484 0.583251
800 1 0.169917 0.579704 0.920101
798 1 0.238238 0.579704 0.819088
823 1 0.237526 0.663437 0.919176
804 1 0.33551 0.584429 0.910316
663 1 0.577359 0.48851 0.57703
373 1 0.515081 0.999782 0.828002
651 1 0.0717324 0.506209 0.584934
667 1 0.769553 0.517022 0.580321
807 1 0.586751 0.502999 0.914278
808 1 0.494698 0.589999 0.921535
831 1 0.582838 0.666647 0.905511
812 1 0.666024 0.589298 0.905305
816 1 0.844815 0.587843 0.910669
477 1 0.836378 0.669193 0.993598
369 1 0.320535 0.986888 0.836189
856 1 0.511916 0.9279 0.906368
851 1 0.418626 0.830791 0.896098
814 1 0.916972 0.581099 0.835991
796 1 -0.0202717 0.582686 0.927853
839 1 0.918294 0.675971 0.915167
847 1 0.255667 0.819865 0.912519
852 1 0.323503 0.898594 0.91735
450 1 0.76392 0.578219 0.98378
848 1 0.166363 0.906587 0.911009
824 1 0.174384 0.748351 0.903784
843 1 0.0785355 0.831795 0.927939
849 1 0.323828 0.827575 0.828383
822 1 0.246385 0.743403 0.829603
828 1 0.325908 0.731801 0.911492
860 1 0.655444 0.915924 0.916421
842 1 0.0779315 0.925216 0.83883
653 1 0.168422 0.500736 0.494541
829 1 0.495486 0.66033 0.837644
826 1 0.402132 0.746493 0.831844
827 1 0.420713 0.674272 0.912134
853 1 0.501921 0.841688 0.832457
846 1 0.238674 0.907185 0.837884
855 1 0.582651 0.834507 0.90502
832 1 0.50014 0.752374 0.897249
836 1 0.664673 0.751123 0.919836
840 1 0.831337 0.757177 0.918014
835 1 0.751983 0.660725 0.896938
837 1 0.840422 0.671885 0.832811
863 1 0.914357 0.837545 0.931101
861 1 0.841253 0.834316 0.829297
820 1 0.0118754 0.739428 0.918142
809 1 0.68272 0.509845 0.816431
437 1 0.171522 0.505474 1.01382
219 1 0.0713245 0.990069 0.569597
799 1 0.25081 0.509752 0.928657
363 1 0.086306 0.99753 0.923072
666 1 0.753472 0.584223 0.496566
469 1 0.50331 0.673738 0.998765
289 1 0.00110425 0.998687 0.674032
743 1 0.92302 0.48952 0.745462
235 1 0.759507 0.999376 0.589344
301 1 0.483438 0.992018 0.662274
654 1 0.24561 0.574881 0.502901
485 1 0.172508 0.822183 0.987413
474 1 0.741252 0.735306 0.993192
17 1 0.662569 0.996491 0.998532
433 1 0.992342 0.495132 1.00586
497 1 0.671697 0.835363 0.997489
717 1 0.832817 0.82207 0.490052
466 1 0.421923 0.763011 0.992712
478 1 0.923463 0.749182 1.00389
502 1 0.916094 0.911447 1.02133
662 1 0.57892 0.567227 0.50758
690 1 0.762855 0.745362 0.503231
494 1 0.578929 0.908339 1.00137
493 1 0.514052 0.820179 0.995235
678 1 0.250148 0.755258 0.509196
482 1 0.0957701 0.914483 0.999411
709 1 0.504902 0.843407 0.512013
694 1 0.923709 0.759418 0.496121
677 1 0.178602 0.661663 0.514272
