ITEM: TIMESTEP
11000
ITEM: NUMBER OF ATOMS
1372
ITEM: BOX BOUNDS pp pp pp
0.0000000000000000e+00 3.6820000000000000e+01
0.0000000000000000e+00 3.6820000000000000e+01
0.0000000000000000e+00 3.6820000000000000e+01
ITEM: ATOMS id type xs ys zs
8 1 0.154075 0.0797443 0.0701417
100 1 0.0811174 0.0735941 0.155508
17 1 0.0572923 0.128406 0.0618816
3 1 0.0771057 0.0169709 0.0728464
12 1 0.288956 0.0883977 0.0770136
104 1 0.223417 0.0848633 0.150708
121 1 0.281654 0.147411 0.160117
953 1 0.501441 0.791255 0.290268
14 1 0.426791 0.0682747 0.0851093
108 1 0.356237 0.0820692 0.141014
1016 1 0.493019 0.807103 0.434838
25 1 0.364524 0.144678 0.0782981
1051 1 0.50844 0.426172 0.501237
117 1 0.143608 0.143049 0.148448
22 1 0.135432 0.209728 0.0743569
114 1 0.0686017 0.213969 0.138417
284 1 0.00930147 0.934899 0.344751
21 1 0.210224 0.154793 0.067105
26 1 0.284426 0.203556 0.0790152
118 1 0.214023 0.2162 0.145454
35 1 0.206966 0.27754 0.0821723
125 1 0.42112 0.156252 0.153468
28 1 0.419066 0.217665 0.0800793
122 1 0.353327 0.208719 0.152138
39 1 0.355611 0.290793 0.0793062
139 1 0.428668 0.287319 0.151773
347 1 0.12901 0.0677227 0.501721
31 1 0.0807409 0.275817 0.0700708
131 1 0.13464 0.274974 0.148282
36 1 0.151331 0.353129 0.0769487
128 1 0.0701334 0.363795 0.13593
45 1 0.0670449 0.418945 0.0628901
145 1 0.148019 0.41452 0.140545
291 1 0.350987 0.876103 0.355133
343 1 0.415007 0.854923 0.425657
346 1 0.214965 0.0122891 0.515161
135 1 0.282879 0.284253 0.162666
40 1 0.280485 0.363761 0.0745835
132 1 0.217542 0.35919 0.148512
49 1 0.216428 0.435245 0.0782881
242 1 -0.00746564 0.496113 0.357676
46 1 0.00251682 0.49562 0.0861725
42 1 0.427504 0.359335 0.0768473
136 1 0.359515 0.353376 0.140074
53 1 0.359106 0.432991 0.0717528
153 1 0.427874 0.434388 0.134149
294 1 0.428971 0.934322 0.362867
90 1 0.231454 0.932928 -4.91183e-05
65 1 0.275513 0.569578 0.0108294
50 1 0.140097 0.48682 0.0700052
142 1 0.0754763 0.485136 0.152787
897 1 0.501994 0.211305 0.287458
702 1 0.492955 0.152013 0.0846542
149 1 0.291835 0.434874 0.14227
54 1 0.28583 0.500629 0.0768533
146 1 0.210596 0.500064 0.140817
63 1 0.205103 0.58164 0.0789464
76 1 0.233893 0.800536 0.00633834
56 1 0.430221 0.498949 0.0738234
150 1 0.368868 0.510293 0.135673
67 1 0.34987 0.576366 0.0730771
167 1 0.434353 0.578907 0.141871
349 1 0.286422 0.0906122 0.498583
130 1 0.0044918 0.355186 0.216851
59 1 0.0759585 0.564656 0.0850699
159 1 0.135365 0.566798 0.149557
64 1 0.143341 0.645274 0.0756822
156 1 0.0557954 0.63262 0.157637
342 1 0.360374 0.932933 0.429438
169 1 0.0149489 0.720321 0.144655
228 1 -0.00818413 0.354463 0.358051
144 1 0.00607704 0.492929 0.237352
163 1 0.284607 0.569505 0.142056
68 1 0.286466 0.634208 0.0777141
160 1 0.214291 0.658085 0.142969
77 1 0.218132 0.713751 0.074442
177 1 0.283224 0.718745 0.138795
813 1 0.498719 0.353738 0.136727
389 1 0.145047 0.922556 0.501163
72 1 0.0753796 0.776601 0.000986823
207 1 0.35801 -0.000365667 0.363234
70 1 0.429476 0.629821 0.0602011
164 1 0.364623 0.645455 0.144669
81 1 0.344082 0.703429 0.0746616
41 1 0.421833 0.286555 -0.0126053
173 1 0.127891 0.716831 0.136987
73 1 0.0615483 0.705007 0.0649366
78 1 0.155336 0.774055 0.0626384
170 1 0.0697407 0.786188 0.110864
87 1 0.0731024 0.859359 0.0652496
187 1 0.142895 0.855891 0.141772
883 1 0.50359 0.0587266 0.286231
82 1 0.291805 0.793792 0.0720588
174 1 0.218322 0.785242 0.146643
91 1 0.220656 0.85381 0.0811406
828 1 0.496751 0.430813 0.197006
183 1 0.0053581 0.851929 0.127893
181 1 0.426528 0.724126 0.132109
84 1 0.423449 0.782659 0.0672084
178 1 0.360595 0.783663 0.144079
95 1 0.363931 0.844129 0.0667911
195 1 0.421474 0.856427 0.137023
387 1 -0.00648071 0.932115 0.496903
38 1 0.356938 0.363991 0.00574296
103 1 0.156424 -0.00340595 0.148788
60 1 0.00660548 0.625685 0.0813076
92 1 0.137701 0.935048 0.0787071
184 1 0.0683578 0.922793 0.136488
299 1 0.281245 0.0129089 0.442815
253 1 -0.0105491 0.559558 0.298269
7 1 0.225518 0.00559708 0.0705399
107 1 0.285927 0.00372295 0.143416
191 1 0.29316 0.852193 0.143455
96 1 0.289152 0.928994 0.0752183
188 1 0.220321 0.925793 0.146309
111 1 0.424312 1.00865 0.148567
11 1 0.36173 0.982749 0.0746995
98 1 0.427666 0.919924 0.073138
192 1 0.351969 0.920847 0.142809
203 1 0.215825 1.01448 0.362401
370 1 0.278349 0.49447 0.48497
106 1 0.147953 0.0844702 0.218885
198 1 0.0707521 0.0728459 0.289537
110 1 0.288187 0.0699484 0.221136
202 1 0.218056 0.0751058 0.281791
105 1 0.21196 -0.00158434 0.219203
119 1 0.217623 0.1515 0.22746
340 1 0.213354 0.927362 0.431833
112 1 0.422667 0.080059 0.218251
206 1 0.356604 0.0696402 0.291864
109 1 0.36127 0.00635415 0.210572
209 1 0.418996 0.0071327 0.285782
1072 1 0.492837 0.860659 0.51165
215 1 0.142365 0.140488 0.299812
115 1 0.0722688 0.158333 0.202844
120 1 0.147791 0.21841 0.217534
212 1 0.0754582 0.212547 0.274313
229 1 0.139913 0.281103 0.289338
129 1 0.0710367 0.284803 0.22524
219 1 0.281255 0.140618 0.297437
124 1 0.280446 0.219142 0.23186
216 1 0.213563 0.209654 0.293697
233 1 0.283018 0.29901 0.28541
223 1 0.423545 0.147864 0.287337
123 1 0.355214 0.141499 0.221438
126 1 0.425921 0.217635 0.218897
220 1 0.362687 0.224896 0.282732
137 1 0.360012 0.281466 0.210048
968 1 0.500886 0.866371 0.353136
134 1 0.136993 0.34779 0.214524
226 1 0.0653858 0.356851 0.295394
243 1 0.145072 0.423201 0.288009
143 1 0.0732187 0.416698 0.211998
292 1 0.286999 0.941343 0.349938
133 1 0.214877 0.280853 0.216531
138 1 0.282293 0.367085 0.206393
230 1 0.213896 0.360451 0.27534
247 1 0.284848 0.428226 0.277656
147 1 0.220957 0.432701 0.206835
237 1 0.432341 0.291474 0.289163
140 1 0.438151 0.352177 0.211338
234 1 0.365709 0.368865 0.287446
251 1 0.437591 0.433249 0.28157
270 1 -0.011632 0.784953 0.351699
148 1 0.140642 0.505748 0.223326
240 1 0.0752571 0.498411 0.289505
257 1 0.150826 0.56751 0.288506
341 1 0.283014 0.853872 0.429572
152 1 0.286631 0.49699 0.20491
244 1 0.224426 0.500209 0.275924
261 1 0.290041 0.57064 0.284282
161 1 0.221692 0.57892 0.208638
151 1 0.375376 0.430446 0.212256
154 1 0.439342 0.506887 0.203234
248 1 0.360258 0.498332 0.287379
165 1 0.356149 0.571153 0.216556
265 1 0.422056 0.568084 0.274022
102 1 -0.000661061 0.0734251 0.216573
283 1 0.0779121 0.857743 0.364042
157 1 0.0753717 0.572649 0.229993
162 1 0.153244 0.639014 0.217257
254 1 0.0760291 0.644157 0.290081
166 1 0.283354 0.641147 0.204077
258 1 0.219387 0.645619 0.285539
175 1 0.216445 0.712013 0.225515
275 1 0.293372 0.710806 0.276331
338 1 0.0669126 0.925658 0.432676
168 1 0.42743 0.662707 0.209579
262 1 0.361056 0.649797 0.279526
279 1 0.426998 0.721873 0.291175
9 1 0.301652 -0.00283254 -0.00131029
127 1 0.0107851 0.287038 0.146307
271 1 0.150082 0.72091 0.289784
171 1 0.0742677 0.711611 0.226801
176 1 0.146941 0.793377 0.214916
268 1 0.0763197 0.789399 0.289113
285 1 0.153283 0.850387 0.285484
180 1 0.280131 0.790339 0.218648
272 1 0.225191 0.7883 0.28713
189 1 0.217222 0.853896 0.212437
386 1 0.0696011 0.85505 0.493987
288 1 0.150165 0.934559 0.367017
179 1 0.358244 0.732462 0.2111
182 1 0.431898 0.786556 0.217347
276 1 0.367835 0.790784 0.288685
193 1 0.358725 0.850511 0.213342
335 1 0.355589 0.791144 0.428577
360 1 0.206027 0.278373 0.492455
201 1 0.146918 -0.00644984 0.291471
101 1 0.0834356 -0.0135328 0.21764
185 1 0.0692282 0.849552 0.208616
190 1 0.156182 0.921614 0.208101
282 1 0.0773417 0.920977 0.278207
205 1 0.282679 1.01128 0.296543
289 1 0.289199 0.873353 0.268916
194 1 0.292812 0.935858 0.213223
286 1 0.214535 0.930171 0.279738
293 1 0.424728 0.866488 0.277741
196 1 0.412431 0.934854 0.210225
290 1 0.364354 0.936942 0.287987
329 1 0.432969 0.569842 0.426405
280 1 0.426215 0.792053 0.35525
199 1 0.0633368 0.00783099 0.351725
297 1 0.150515 0.000155745 0.429224
204 1 0.153171 0.0764329 0.350734
296 1 0.0604184 0.0664778 0.414523
339 1 0.149053 0.856032 0.421946
266 1 0.434463 0.643247 0.358342
208 1 0.287636 0.0656865 0.366456
298 1 0.199206 0.0845659 0.438497
306 1 0.283102 0.151908 0.415359
155 1 -0.00411722 0.547732 0.159132
13 1 0.412973 0.00438014 0.00359322
301 1 0.430381 0.00615573 0.424364
210 1 0.430627 0.0748266 0.357955
300 1 0.359099 0.083341 0.420576
308 1 0.434824 0.139093 0.42745
336 1 0.430226 0.719139 0.422879
75 1 0.147766 0.717013 -0.00379458
304 1 0.11601 0.132005 0.424241
213 1 0.0666467 0.143725 0.348133
218 1 0.136733 0.21727 0.353978
303 1 0.0592817 0.217451 0.407815
311 1 0.131531 0.281889 0.416751
967 1 0.486973 0.934046 0.28608
333 1 0.212314 0.775819 0.435869
277 1 0.347319 0.715417 0.363841
217 1 0.212466 0.148604 0.363473
222 1 0.294665 0.229187 0.34396
305 1 0.215158 0.227404 0.417133
313 1 0.28086 0.299408 0.430911
278 1 0.286283 0.790642 0.360017
221 1 0.356717 0.155584 0.351016
224 1 0.426365 0.219271 0.354772
307 1 0.356073 0.225068 0.422383
315 1 0.436205 0.284565 0.430901
281 1 0.00340689 0.858571 0.281821
141 1 0.00113817 0.429653 0.15279
227 1 0.0677913 0.287124 0.349684
232 1 0.142489 0.352051 0.353411
310 1 0.0567658 0.338048 0.42943
318 1 0.127808 0.431069 0.429628
241 1 0.0686557 0.429389 0.357508
273 1 0.227577 0.715835 0.347507
231 1 0.210677 0.290578 0.349133
236 1 0.287861 0.36611 0.346149
312 1 0.205547 0.361269 0.420657
320 1 0.293985 0.419649 0.422383
245 1 0.214877 0.428034 0.361471
287 1 0.21015 0.851864 0.356996
235 1 0.364634 0.296641 0.35369
238 1 0.440328 0.365573 0.364707
314 1 0.363772 0.343596 0.433409
249 1 0.356557 0.431896 0.352544
322 1 0.426457 0.432809 0.419166
80 1 0.367693 0.774671 0.0033456
325 1 0.146647 0.574231 0.422138
255 1 0.0731709 0.570909 0.348017
246 1 0.144789 0.498531 0.356905
317 1 0.0595685 0.501518 0.435778
259 1 0.209308 0.563491 0.358752
327 1 0.288343 0.570589 0.425074
319 1 0.203619 0.492508 0.42873
250 1 0.288036 0.500447 0.350837
89 1 0.156571 0.860119 0.0108953
274 1 0.139908 0.793598 0.364187
321 1 0.360429 0.505201 0.414281
252 1 0.437778 0.50127 0.352987
263 1 0.360641 0.57746 0.349966
328 1 0.359507 0.648084 0.43662
1009 1 0.502858 0.648674 0.435279
331 1 0.0686327 0.79006 0.428756
211 1 -0.00480076 0.129629 0.291747
260 1 0.150197 0.642587 0.355523
269 1 0.081162 0.722336 0.358261
324 1 0.0604188 0.659269 0.41522
332 1 0.146169 0.710603 0.420772
334 1 0.289685 0.712014 0.437911
264 1 0.274811 0.629554 0.35365
326 1 0.209614 0.64951 0.438128
988 1 0.496384 0.215661 0.419613
388 1 0.220106 0.855081 0.50198
800 1 0.490145 0.144049 0.222543
344 1 0.0613022 0.999979 0.488625
197 1 -0.00114908 0.992235 0.266546
353 1 0.222227 0.162259 0.497098
94 1 0.371153 0.917159 0.00483995
93 1 0.296131 0.864741 -0.00226805
186 1 0.0023366 0.916759 0.204008
58 1 0.0677678 0.637748 0.0046808
239 1 -0.00849079 0.419922 0.288096
785 1 0.500212 0.0773161 0.149465
44 1 0.0824015 0.498843 -0.00434218
363 1 0.298603 0.364615 0.500632
786 1 0.507421 -0.00481156 0.21542
368 1 0.142029 0.505999 0.490841
47 1 0.138537 0.42715 -0.00173045
48 1 0.207752 0.503202 0.011327
383 1 0.358042 0.727671 0.51108
367 1 0.205746 0.427977 0.506394
374 1 0.209239 0.573561 0.489862
365 1 0.0516611 0.417909 0.490976
354 1 0.141084 0.198043 0.480832
356 1 0.304089 0.216205 0.50418
6 1 0.218372 0.0790199 0.0114099
83 1 0.437364 0.708479 -0.00561592
687 1 0.500319 0.074987 0.0132606
715 1 0.490272 0.35822 -0.00143917
51 1 0.284473 0.433146 0.0114864
20 1 0.215867 0.220053 -0.00288154
27 1 0.427879 0.155026 0.00406371
351 1 0.0624132 0.153753 0.502305
384 1 0.284889 0.787673 0.50363
37 1 0.287711 0.28706 -0.000605603
371 1 0.419387 0.512741 0.504942
10 1 0.354621 0.089892 0.00503934
79 1 0.296597 0.717115 -0.00220375
348 1 0.360959 0.0138288 0.484431
34 1 0.217154 0.356034 -0.000281336
61 1 0.142577 0.567746 0.00418019
392 1 0.427318 0.927502 0.500734
357 1 0.421273 0.215008 0.501335
377 1 0.279486 0.649955 0.509458
369 1 0.375693 0.429985 0.495644
394 1 0.0647672 0.0712848 0.567893
400 1 0.141259 0.0850573 0.631491
411 1 0.1312 0.150825 0.572829
409 1 0.0736624 0.132988 0.648513
1058 1 0.506279 0.572398 0.493877
398 1 0.211747 0.0858997 0.562321
404 1 0.282665 0.0836162 0.642531
413 1 0.21212 0.151321 0.634817
415 1 0.295894 0.142171 0.573728
401 1 0.293622 0.011331 0.57377
399 1 0.209178 -0.000782599 0.618395
402 1 0.365571 0.0620486 0.559711
406 1 0.436795 0.0633368 0.639897
405 1 0.43984 0.99072 0.565094
417 1 0.371537 0.131348 0.628544
1234 1 0.491694 0.573069 0.785084
771 1 0.484944 0.918175 0.999046
601 1 0.4292 -0.00609957 0.840767
408 1 0.0726432 0.217433 0.57613
414 1 0.129357 0.220085 0.647537
686 1 0.412746 0.937026 0.925083
425 1 0.137593 0.292446 0.56212
412 1 0.218061 0.22117 0.565616
418 1 0.284598 0.225447 0.641148
429 1 0.29289 0.289248 0.568673
1220 1 0.488523 0.424291 0.782156
419 1 0.435708 0.13767 0.568926
416 1 0.364817 0.218592 0.582095
420 1 0.436133 0.211201 0.638097
433 1 0.436428 0.285081 0.584438
431 1 0.358746 0.294387 0.646115
69 1 0.438452 0.569788 0.982901
682 1 0.356263 0.93806 0.849251
423 1 0.0670144 0.291795 0.633784
422 1 0.0548945 0.347341 0.565322
428 1 0.130996 0.362203 0.637472
437 1 0.0674015 0.424458 0.651605
648 1 -0.00464256 0.630104 0.925137
427 1 0.202585 0.290491 0.640854
426 1 0.218739 0.353139 0.570797
432 1 0.281001 0.373103 0.627352
441 1 0.200259 0.421653 0.633476
350 1 0.442256 0.0738458 0.492668
430 1 0.364149 0.359426 0.574708
434 1 0.427464 0.351569 0.647104
447 1 0.423024 0.425615 0.570032
1107 1 0.50169 0.362314 0.579895
1135 1 0.487747 0.648552 0.571697
439 1 0.12584 0.419894 0.563483
436 1 0.0689915 0.503758 0.551661
442 1 0.139888 0.502639 0.634204
453 1 0.158969 0.580526 0.568706
1150 1 0.484786 0.719464 0.653032
547 1 0.00486244 0.565712 0.705907
494 1 0.00259168 0.0595067 0.78725
30 1 0.0682415 0.361203 1.00207
443 1 0.280958 0.443084 0.559218
440 1 0.205673 0.500324 0.559816
446 1 0.262388 0.495243 0.638108
1290 1 0.500846 0.138795 0.93204
445 1 0.35213 0.435053 0.643651
444 1 0.347608 0.496433 0.558369
448 1 0.416356 0.50888 0.634496
1331 1 0.488942 0.639613 0.853815
595 1 0.215616 1.01636 0.93199
451 1 0.0752023 0.567809 0.635441
450 1 0.0610782 0.640625 0.568548
456 1 0.139143 0.641114 0.651115
465 1 0.0577629 0.720619 0.642299
679 1 0.225589 0.856779 0.940122
701 1 0.49949 0.21191 1.00523
455 1 0.212832 0.575403 0.647464
457 1 0.267527 0.576466 0.578335
454 1 0.209946 0.653581 0.574828
460 1 0.288082 0.6427 0.644035
469 1 0.215075 0.710574 0.660735
471 1 0.290628 0.717802 0.582248
459 1 0.34918 0.56989 0.629367
461 1 0.421331 0.581423 0.572219
458 1 0.346769 0.647987 0.571909
462 1 0.411151 0.637785 0.645368
684 1 0.293049 0.932393 0.931815
678 1 0.216178 0.923716 0.868131
1318 1 0.497109 0.420215 0.92917
467 1 0.128969 0.719627 0.574267
464 1 0.0589185 0.79328 0.573
470 1 0.143576 0.79055 0.6471
591 1 0.0894731 1.01506 0.923832
468 1 0.202592 0.777245 0.575254
474 1 0.279268 0.781785 0.669104
483 1 0.211252 0.857431 0.639034
473 1 0.345105 0.708879 0.649404
475 1 0.418767 0.725341 0.584142
472 1 0.347226 0.786436 0.582241
476 1 0.433537 0.795003 0.643963
674 1 0.0666931 0.923358 0.864523
680 1 0.137058 0.931582 0.926768
395 1 0.0781606 0.999069 0.638186
593 1 0.15156 0.00173735 0.854863
479 1 0.0809467 0.862119 0.653673
481 1 0.130348 0.851179 0.56636
397 1 0.131774 0.999296 0.558616
478 1 0.0704387 0.91608 0.563676
484 1 0.143027 0.930124 0.612767
378 1 0.419291 0.64035 0.501465
396 1 0.0156364 0.0570604 0.652616
485 1 0.275805 0.845106 0.577173
482 1 0.218406 0.930356 0.558374
488 1 0.276662 0.922476 0.636963
466 1 -0.00494477 0.797256 0.643944
403 1 0.362659 1.00375 0.644316
487 1 0.351452 0.866218 0.643325
489 1 0.424357 0.862608 0.584906
486 1 0.362872 0.937056 0.571763
490 1 0.437809 0.939096 0.656689
492 1 0.0903867 0.0719428 0.722801
498 1 0.14752 0.0645481 0.789537
509 1 0.13786 0.153122 0.720276
421 1 -0.00503729 0.281282 0.573239
496 1 0.212393 0.0739095 0.702493
502 1 0.285351 0.0699997 0.773095
671 1 0.425116 0.710293 0.852761
500 1 0.349545 0.0737672 0.714944
504 1 0.434794 0.067408 0.787684
515 1 0.357315 0.147045 0.782279
517 1 0.425314 0.134013 0.71538
507 1 0.0687828 0.141925 0.789827
506 1 0.0616543 0.218163 0.716054
512 1 0.14046 0.221118 0.777707
521 1 0.0674748 0.282114 0.784408
513 1 0.280582 0.151303 0.706714
511 1 0.218269 0.140412 0.773727
510 1 0.220543 0.212876 0.713749
516 1 0.29212 0.204451 0.785233
525 1 0.208902 0.292718 0.782907
527 1 0.272327 0.294707 0.703716
514 1 0.352833 0.207986 0.718456
518 1 0.421592 0.216038 0.788131
529 1 0.351711 0.288991 0.785732
533 1 -0.00203677 0.435199 0.710688
523 1 0.132582 0.287101 0.707265
520 1 0.0721185 0.361555 0.717434
526 1 0.129531 0.356852 0.782775
537 1 0.14865 0.42882 0.723551
524 1 0.201039 0.357848 0.710087
530 1 0.28013 0.347252 0.785701
539 1 0.219546 0.424678 0.78799
541 1 0.277647 0.438298 0.7143
1275 1 0.495346 0.0728285 0.861507
531 1 0.419725 0.277794 0.71571
528 1 0.343212 0.371172 0.709789
532 1 0.436536 0.349141 0.781945
543 1 0.354433 0.431985 0.778813
669 1 0.347292 0.702478 0.918773
535 1 0.0785462 0.435973 0.788907
534 1 0.0795177 0.498872 0.716357
540 1 0.14305 0.496519 0.786607
538 1 0.204246 0.501318 0.713249
544 1 0.283548 0.495566 0.786093
668 1 0.348442 0.786979 0.854957
545 1 0.422767 0.431244 0.700464
542 1 0.348961 0.517817 0.701157
546 1 0.416085 0.501809 0.78791
551 1 0.139604 0.577255 0.719448
549 1 0.075015 0.572214 0.782884
548 1 0.0625003 0.6576 0.709845
554 1 0.145547 0.640364 0.800784
565 1 0.143486 0.712155 0.722787
555 1 0.279871 0.567647 0.717009
553 1 0.213645 0.565452 0.789508
552 1 0.226257 0.640748 0.72955
558 1 0.282183 0.63779 0.788091
557 1 0.347114 0.568747 0.791994
559 1 0.429844 0.557592 0.718066
556 1 0.354856 0.638302 0.714733
560 1 0.419882 0.638018 0.781314
573 1 0.426639 0.710141 0.721003
563 1 0.0793061 0.708014 0.791195
562 1 0.0906556 0.786522 0.717875
568 1 0.152124 0.785182 0.807059
577 1 0.0881968 0.862759 0.800338
569 1 0.290128 0.719358 0.726502
567 1 0.205772 0.708822 0.788043
566 1 0.213167 0.802145 0.725653
572 1 0.288833 0.790007 0.784388
581 1 0.217454 0.853077 0.804405
583 1 0.282712 0.862836 0.722701
571 1 0.35282 0.709309 0.789044
570 1 0.361251 0.788072 0.708758
574 1 0.423372 0.793023 0.79263
587 1 0.43235 0.853004 0.715761
493 1 0.0805037 0.00179208 0.790726
579 1 0.140825 0.854522 0.726926
495 1 0.152608 1.008 0.699072
576 1 0.0810418 0.936181 0.723183
582 1 0.16642 0.927667 0.786871
497 1 0.218663 1.01111 0.775953
499 1 0.286953 -0.00125607 0.694202
580 1 0.216408 0.923499 0.708777
586 1 0.280635 0.930403 0.783724
503 1 0.420592 1.01408 0.715884
501 1 0.354492 0.00353856 0.787896
585 1 0.354013 0.858083 0.785753
584 1 0.357387 0.931442 0.717798
588 1 0.433293 0.919 0.789118
590 1 0.0726024 0.0834191 0.855388
596 1 0.152592 0.0784566 0.915556
607 1 0.148138 0.144193 0.851443
605 1 0.0685032 0.141676 0.929522
491 1 0.0207565 1.00379 0.724748
1317 1 0.495256 0.499178 0.854964
1164 1 0.504215 0.849169 0.65182
597 1 0.285603 -0.00284655 0.855008
594 1 0.22641 0.07826 0.852779
600 1 0.28574 0.0711658 0.934379
609 1 0.213722 0.165792 0.925978
611 1 0.281834 0.147969 0.868064
407 1 -0.00675512 0.151041 0.560514
599 1 0.357533 0.0254985 0.928037
598 1 0.351445 0.0791561 0.844697
602 1 0.431061 0.0751533 0.947238
613 1 0.354763 0.144685 0.91724
615 1 0.431796 0.135256 0.849506
1233 1 0.489875 0.646944 0.716149
672 1 0.424526 0.772375 0.921929
604 1 0.0752284 0.214579 0.859262
610 1 0.143341 0.21473 0.928145
621 1 0.142768 0.287547 0.866263
1030 1 0.507892 1.01101 0.491291
480 1 -0.00196536 0.9225 0.645346
617 1 0.00181946 0.291977 0.859302
608 1 0.217517 0.217199 0.852111
614 1 0.287768 0.217162 0.930921
623 1 0.211867 0.286665 0.929304
625 1 0.281231 0.282362 0.857332
1247 1 0.496429 0.779037 0.733174
685 1 0.425248 0.863419 0.851761
1192 1 0.4981 0.137733 0.785923
659 1 0.00614064 0.719173 0.847109
1304 1 0.510941 0.280512 0.932823
606 1 0.000452277 0.21449 0.933936
1191 1 0.500973 0.217255 0.7142
612 1 0.353383 0.222782 0.863667
616 1 0.420831 0.206535 0.920503
627 1 0.354941 0.288552 0.923311
629 1 0.427651 0.280649 0.853733
631 1 0.00982859 0.419113 0.853136
683 1 0.361029 0.856888 0.918819
676 1 -0.00348838 0.922143 0.92357
619 1 0.0689739 0.289398 0.931706
618 1 0.0791048 0.361418 0.859495
624 1 0.157261 0.363957 0.9333
673 1 -0.00110177 0.85173 0.854767
622 1 0.210116 0.353954 0.853925
628 1 0.295853 0.351901 0.93044
626 1 0.367376 0.357567 0.849382
630 1 0.433853 0.350528 0.927151
641 1 0.354272 0.425267 0.938155
358 1 0.073642 0.266413 0.488757
477 1 -0.00505204 0.872308 0.561233
379 1 0.0680848 0.705102 0.503845
1346 1 0.497578 0.705073 0.916106
635 1 0.142663 0.423007 0.859127
633 1 0.0680814 0.42907 0.927938
632 1 0.0779687 0.499553 0.854576
638 1 0.143058 0.500365 0.9201
1248 1 0.503417 0.709255 0.786615
639 1 0.292169 0.403277 0.85252
637 1 0.231721 0.425196 0.941401
636 1 0.22223 0.47655 0.865847
642 1 0.292352 0.505487 0.931158
667 1 0.278499 0.711258 0.843537
52 1 0.363781 0.503518 1.01139
1262 1 0.504052 0.857493 0.795495
643 1 0.421427 0.43087 0.854984
644 1 0.418282 0.502999 0.932562
640 1 0.343976 0.485872 0.853298
16 1 0.0699127 0.214333 1.00183
550 1 -0.00644726 0.649686 0.781825
670 1 0.300362 0.793528 0.930476
649 1 0.154632 0.570565 0.862863
647 1 0.0680488 0.56678 0.929329
652 1 0.153024 0.635021 0.934217
646 1 0.0815698 0.627216 0.862005
656 1 0.279745 0.633924 0.940075
650 1 0.224268 0.647322 0.858957
653 1 0.293752 0.573352 0.862125
651 1 0.2169 0.562605 0.925454
681 1 0.292855 0.857048 0.856465
654 1 0.35416 0.635773 0.860695
655 1 0.357397 0.571745 0.938795
658 1 0.426289 0.649282 0.933338
657 1 0.41915 0.561882 0.855577
463 1 -0.00795562 0.715833 0.553787
664 1 0.22345 0.784607 0.869097
663 1 0.150143 0.704922 0.865327
666 1 0.162134 0.78147 0.938586
661 1 0.0622684 0.704931 0.924012
677 1 0.144208 0.862037 0.870353
675 1 0.0820942 0.850494 0.934853
660 1 0.0858889 0.778381 0.876794
665 1 0.227525 0.70882 0.936086
634 1 -0.00182439 0.495933 0.917124
1359 1 0.491071 0.932826 0.862682
1303 1 0.503123 0.350161 0.850824
376 1 0.340908 0.576559 0.504558
536 1 0.00721234 0.503283 0.783311
1360 1 0.505359 0.845659 0.928324
361 1 0.133807 0.349451 0.491753
564 1 0.0152372 0.789674 0.790699
575 1 0.0113775 0.859395 0.711215
662 1 0.00414429 0.779467 0.933611
1149 1 0.4809 0.791414 0.572318
589 1 0.0114278 -0.00717612 0.85965
375 1 0.146675 0.645841 0.501407
1177 1 0.511879 0.0704957 0.718213
1065 1 0.475888 0.709653 0.503967
1276 1 0.495288 1.01278 0.936868
757 1 0.503046 0.785034 1.00403
19 1 0.145937 0.148446 1.00426
2 1 0.0681996 0.0752424 0.990878
24 1 0.348898 0.211918 1.00494
390 1 0.353493 0.868958 0.50547
1 1 0.00420035 -0.00607765 0.98965
385 1 0.421987 0.786397 0.503561
85 1 -0.00097264 0.846423 0.996311
381 1 0.219768 0.719895 0.503989
33 1 0.137924 0.297131 0.998314
66 1 0.353775 0.639585 1.003
382 1 0.132481 0.780515 0.492876
55 1 0.429013 0.430592 0.998331
364 1 0.447862 0.350323 0.505393
391 1 0.2845 0.931846 0.493345
29 1 0.00648923 0.290945 1.00189
57 1 -0.000249866 0.552574 1.00648
362 1 0.351141 0.289416 0.502124
5 1 0.150935 -0.00506606 1.00379
62 1 0.216612 0.652766 1.00902
97 1 0.433111 0.839199 0.98576
1044 1 0.514406 0.270658 0.510858
345 1 -0.000820244 0.079879 0.49451
23 1 0.279561 0.147404 1.00981
86 1 0.0810024 0.934453 1.00339
372 1 0.0736491 0.579525 0.486637
355 1 0.369263 0.137318 0.503002
692 1 0.578635 0.0590552 0.0688962
788 1 0.642654 0.0662303 0.141553
705 1 0.638261 0.134978 0.0599558
787 1 0.565911 0.992514 0.12968
32 1 1.00553 0.351936 0.0746829
696 1 0.704115 0.0533029 0.0746223
792 1 0.777728 0.0603344 0.136868
695 1 0.78321 1.00367 0.0621185
805 1 0.708876 0.142147 0.137391
841 1 0.499351 0.652552 0.140275
791 1 0.714176 0.988668 0.142545
700 1 0.855546 0.0687721 0.0756452
796 1 0.920589 0.0767835 0.134595
842 1 0.499586 0.587167 0.205352
1047 1 0.787873 0.269351 0.514902
801 1 0.572426 0.13793 0.128027
706 1 0.559342 0.225715 0.0794147
802 1 0.635762 0.206107 0.126003
719 1 0.637938 0.278149 0.0615972
815 1 0.560543 0.286825 0.145339
895 1 0.932673 0.988875 0.348813
1029 1 0.917736 0.935987 0.416071
799 1 0.491116 0.221273 0.148486
709 1 0.770891 0.129515 0.0709289
710 1 0.71214 0.21558 0.0626368
806 1 0.788024 0.207634 0.12966
819 1 0.716519 0.293413 0.135903
723 1 0.788216 0.286186 0.0698879
926 1 0.51596 0.430548 0.357156
809 1 0.860133 0.153243 0.137666
713 1 0.930074 0.143015 0.0791859
714 1 0.867774 0.219016 0.0714478
810 1 0.938688 0.211362 0.1473
727 1 0.930871 0.288722 0.0803294
823 1 0.855845 0.28309 0.148867
980 1 0.858053 0.937477 0.356196
939 1 0.483799 0.649375 0.282562
720 1 0.551566 0.345612 0.0666375
816 1 0.63392 0.345142 0.120623
744 1 0.491068 0.562262 0.0645703
225 1 1.00528 0.274726 0.288376
724 1 0.715293 0.364424 0.0591352
820 1 0.78187 0.349544 0.142653
737 1 0.781035 0.444183 0.0667075
74 1 0.993977 0.772611 0.0521898
1002 1 0.50271 0.497693 0.430964
1077 1 0.927173 0.860893 0.498208
728 1 0.865305 0.352959 0.0701483
824 1 0.925721 0.34395 0.148522
837 1 0.858808 0.415611 0.143742
986 1 0.874231 0.0206402 0.432663
733 1 0.647826 0.425387 0.0667642
829 1 0.566358 0.424211 0.133282
734 1 0.569181 0.504637 0.0735536
830 1 0.64153 0.493854 0.140712
843 1 0.579919 0.575387 0.140455
1056 1 0.918718 0.434755 0.49433
833 1 0.7045 0.42568 0.144005
738 1 0.707744 0.496699 0.0598377
834 1 0.781507 0.494823 0.154798
688 1 0.476693 1.00022 0.0652176
741 1 0.936413 0.418347 0.071211
742 1 0.868279 0.504217 0.0881081
838 1 0.923207 0.480487 0.154482
755 1 0.936367 0.563735 0.0852149
295 1 0.998916 0.0005275 0.420459
758 1 0.497756 0.71888 0.068277
747 1 0.637174 0.564067 0.0523508
748 1 0.568567 0.642022 0.0740613
844 1 0.636443 0.652723 0.131524
857 1 0.578771 0.720289 0.148415
1026 1 0.734455 0.860133 0.430625
88 1 1.00649 0.931189 0.0584073
18 1 1.00462 0.212895 0.0675871
891 1 0.786877 -0.00523496 0.3595
847 1 0.707117 0.563291 0.130258
751 1 0.793361 0.572848 0.0653962
752 1 0.716849 0.646253 0.0805234
848 1 0.782799 0.643755 0.138979
765 1 0.79196 0.693317 0.0703131
861 1 0.700731 0.712654 0.151644
1023 1 0.492141 0.935021 0.439462
1071 1 0.851555 0.802488 0.510019
851 1 0.840372 0.576965 0.14619
756 1 0.867982 0.629645 0.080291
852 1 0.936381 0.622325 0.158512
769 1 0.938086 0.696744 0.0786162
865 1 0.86111 0.692516 0.147157
814 1 0.498926 0.287277 0.214899
761 1 0.643456 0.721584 0.0669195
762 1 0.575749 0.784296 0.0795905
858 1 0.63705 0.797185 0.157949
940 1 0.500503 0.578757 0.355178
869 1 0.485397 0.934467 0.144357
256 1 0.991327 0.644891 0.348262
766 1 0.713431 0.782094 0.082315
862 1 0.795967 0.761594 0.130399
330 1 0.987593 0.717924 0.425062
911 1 0.505021 0.367128 0.27768
770 1 0.865119 0.773203 0.0727526
866 1 0.935229 0.787627 0.125968
879 1 0.86971 0.841857 0.152568
43 1 0.998229 0.434513 -0.017048
691 1 0.643919 0.984413 0.069992
775 1 0.637114 0.851693 0.0836884
871 1 0.564426 0.865473 0.140696
776 1 0.569379 0.913406 0.05957
872 1 0.655258 0.924802 0.151593
827 1 0.505165 0.510146 0.135598
984 1 0.719496 0.996927 0.436066
214 1 0.991051 0.211151 0.344945
779 1 0.795714 0.848185 0.0786796
1064 1 0.852893 0.643776 0.510475
875 1 0.719827 0.858382 0.15127
780 1 0.720848 0.921063 0.0731399
876 1 0.782887 0.929672 0.143564
71 1 0.992043 0.696605 -0.000683995
699 1 0.926292 0.997544 0.0697535
783 1 0.916891 0.868518 0.0754581
795 1 0.851831 1.00441 0.137585
784 1 0.852843 0.934718 0.0636046
880 1 0.926255 0.927698 0.146279
337 1 0.991289 0.868114 0.425084
1027 1 0.791648 0.925519 0.426716
790 1 0.572555 0.0558299 0.199015
886 1 0.641199 0.0709384 0.285822
789 1 0.644874 -0.00381471 0.210969
803 1 0.630175 0.13061 0.200037
899 1 0.566081 0.128565 0.29185
885 1 0.567325 0.992645 0.288382
794 1 0.721139 0.0784509 0.211916
890 1 0.785943 0.0818335 0.282058
793 1 0.788747 0.996276 0.213029
807 1 0.784744 0.143265 0.200271
889 1 0.716697 0.00375337 0.276148
798 1 0.873945 0.0828891 0.206024
894 1 0.932983 0.0569431 0.284352
811 1 0.93913 0.141628 0.210376
893 1 0.860702 0.993468 0.270572
804 1 0.562969 0.208697 0.20862
900 1 0.629503 0.209127 0.276028
817 1 0.638449 0.279818 0.20119
913 1 0.56977 0.273842 0.28652
976 1 0.713624 0.945138 0.367548
975 1 0.785313 0.859489 0.344458
884 1 0.490601 0.00373298 0.355436
903 1 0.714412 0.148765 0.272575
808 1 0.712393 0.223903 0.201511
904 1 0.770844 0.225056 0.277416
821 1 0.785009 0.292292 0.209124
917 1 0.703332 0.283899 0.283773
200 1 0.994942 0.0638255 0.355341
316 1 0.999004 0.428121 0.419806
907 1 0.853421 0.143443 0.296053
812 1 0.850969 0.217512 0.223943
908 1 0.923974 0.206704 0.280437
740 1 0.930334 0.494515 0.00879034
818 1 0.561606 0.364469 0.200579
914 1 0.636726 0.350625 0.279201
831 1 0.642711 0.4101 0.213435
822 1 0.712798 0.34403 0.214846
918 1 0.787346 0.355414 0.293243
835 1 0.7796 0.426202 0.219645
931 1 0.716087 0.411771 0.285432
855 1 0.509438 0.778661 0.144671
825 1 0.919525 0.282189 0.232081
921 1 0.855443 0.284367 0.295427
826 1 0.8543 0.354592 0.211566
922 1 0.920131 0.354837 0.304499
839 1 0.925903 0.409068 0.21834
267 1 0.99764 0.715839 0.288263
730 1 0.50498 0.432523 0.0683129
927 1 0.588911 0.422014 0.305717
832 1 0.573189 0.498718 0.223164
928 1 0.655756 0.476285 0.282594
845 1 0.640879 0.566841 0.217571
836 1 0.702294 0.496276 0.208435
932 1 0.763621 0.490616 0.286252
945 1 0.699889 0.572513 0.289207
935 1 0.853682 0.419919 0.280318
840 1 0.846348 0.490448 0.222972
936 1 0.92734 0.485642 0.280753
949 1 0.82905 0.569834 0.295251
853 1 0.92339 0.556263 0.215268
941 1 0.571052 0.58462 0.287316
846 1 0.571976 0.642737 0.212953
942 1 0.639939 0.643943 0.284262
955 1 0.572067 0.711089 0.287152
1024 1 0.566467 0.856115 0.434897
849 1 0.785181 0.566626 0.212427
850 1 0.719548 0.648653 0.212686
946 1 0.774397 0.643027 0.286059
863 1 0.784742 0.721718 0.20957
854 1 0.840526 0.630805 0.223905
950 1 0.910411 0.62033 0.28064
867 1 0.939458 0.7205 0.211374
859 1 0.634519 0.709286 0.214163
860 1 0.579446 0.798042 0.218222
956 1 0.644719 0.79527 0.295377
873 1 0.648631 0.85991 0.222609
959 1 0.706379 0.731153 0.288416
864 1 0.710896 0.795656 0.225403
960 1 0.783444 0.777258 0.289214
963 1 0.865891 0.712725 0.266116
868 1 0.859541 0.772446 0.202057
964 1 0.927791 0.787491 0.273379
977 1 0.863137 0.861032 0.281412