ITEM: TIMESTEP
14250
ITEM: NUMBER OF ATOMS
864
ITEM: BOX BOUNDS pp pp pp
0.0000000000000000e+00 3.1559999999999999e+01
0.0000000000000000e+00 3.1559999999999999e+01
0.0000000000000000e+00 3.1559999999999999e+01
ITEM: ATOMS id type xs ys zs
8 1 0.161858 0.0890437 0.0782725
4 1 1.01415 0.0687724 0.0760164
27 1 0.0786144 0.17798 0.0989066
74 1 0.0913054 0.0683792 0.163771
31 1 0.248222 0.162473 0.0860835
216 1 0.836389 0.426479 0.406844
78 1 0.242846 0.0799125 0.178951
511 1 0.244634 0.50288 0.254111
12 1 0.322705 0.0782497 0.0842212
35 1 0.424793 0.171115 0.0759029
109 1 0.50259 0.172278 0.154162
16 1 0.484363 0.0782124 0.0738669
20 1 0.668343 0.0689786 0.0791303
653 1 0.164827 0.499786 0.487614
26 1 0.0844332 0.245533 0.00370567
86 1 0.591264 0.0788669 0.163255
577 1 0.00820749 0.496534 0.317741
24 1 0.835488 0.0705067 0.0864739
90 1 0.74778 0.0753447 0.158745
163 1 0.740935 0.000734783 0.415725
47 1 0.913624 0.154439 0.083877
249 1 0.34615 0.161727 0.503888
97 1 1.00311 0.16024 0.166056
98 1 0.0723407 0.259892 0.174354
32 1 0.177513 0.257133 0.102728
28 1 -0.00917402 0.245589 0.0832617
105 1 0.321372 0.157794 0.166918
36 1 0.344209 0.250547 0.0740075
55 1 0.243932 0.337951 0.0765428
282 1 0.744668 0.41926 0.49145
129 1 0.334858 0.334319 0.16848
59 1 0.416671 0.336265 0.0816924
106 1 0.416183 0.256306 0.159852
40 1 0.499306 0.245775 0.0709728
133 1 0.496119 0.340938 0.148657
91 1 0.755516 -0.0138682 0.258759
39 1 0.582916 0.163278 0.0839034
63 1 0.575312 0.345495 0.0761356
44 1 0.66342 0.238091 0.0673316
50 1 0.0828736 0.415952 0.00290932
77 1 0.173087 0.00177686 0.154563
43 1 0.732999 0.157063 0.0891953
67 1 0.751897 0.305932 0.087655
151 1 0.253734 0.000389695 0.416088
48 1 0.835702 0.227386 0.101495
118 1 0.919838 0.230054 0.165267
597 1 0.82801 0.500808 0.313041
33 1 0.328124 0.172 0.00285943
51 1 0.0742591 0.327248 0.0935236
52 1 0.987493 0.402567 0.0748523
215 1 0.901944 0.341616 0.412274
56 1 0.15419 0.4078 0.0847303
126 1 0.259597 0.422259 0.163079
95 1 0.91499 -0.0113213 0.255193
60 1 0.336289 0.41519 0.089905
130 1 0.420342 0.428836 0.164699
64 1 0.487455 0.413264 0.0716236
214 1 0.901671 0.411266 0.326405
579 1 0.0863673 0.479242 0.413208
167 1 0.924518 0.00905653 0.40323
68 1 0.665652 0.431876 0.0735503
75 1 0.0802231 -0.00876824 0.238892
71 1 0.900213 0.327603 0.0934798
211 1 0.743731 0.352392 0.395041
72 1 0.8332 0.429262 0.0864816
3 1 0.0965161 -0.0111804 0.0752522
583 1 0.249932 0.493349 0.42249
76 1 -0.0152641 0.0871334 0.248296
80 1 0.155367 0.0872306 0.253552
101 1 0.175171 0.167313 0.168153
84 1 0.341414 0.0927168 0.248322
150 1 0.278563 0.0879498 0.336192
2 1 0.0815004 0.0901396 -0.00959598
210 1 0.73888 0.424734 0.31392
82 1 0.406736 0.0878224 0.153678
88 1 0.511334 0.0788718 0.241945
107 1 0.422501 0.162607 0.244572
154 1 0.416002 0.0753597 0.324643
92 1 0.67114 0.0705361 0.235397
111 1 0.592014 0.154124 0.245269
185 1 0.65876 0.162007 0.334031
162 1 0.742492 0.0769231 0.334844
209 1 0.658019 0.350886 0.330143
96 1 0.842231 0.0880725 0.261181
94 1 0.918875 0.0834494 0.164558
119 1 0.922947 0.193197 0.261857
99 1 0.09605 0.181138 0.255939
104 1 0.177352 0.255041 0.237703
123 1 0.0800753 0.334977 0.249386
169 1 0.00951617 0.177794 0.330037
173 1 0.181527 0.166587 0.327622
177 1 0.361853 0.163409 0.349223
102 1 0.26198 0.243667 0.166762
103 1 0.262918 0.174665 0.257674
108 1 0.34925 0.242472 0.260331
127 1 0.257008 0.341083 0.237841
201 1 0.328691 0.331171 0.325714
174 1 0.25072 0.258678 0.320714
205 1 0.498405 0.338013 0.336561
178 1 0.43587 0.240294 0.339718
131 1 0.414002 0.350747 0.254941
181 1 0.514642 0.167987 0.33644
137 1 0.655065 0.32978 0.16102
112 1 0.510829 0.253513 0.262666
110 1 0.575307 0.255725 0.161757
116 1 0.65482 0.241619 0.250068
135 1 0.592192 0.334843 0.248698
113 1 0.663057 0.169063 0.164678
115 1 0.729556 0.15416 0.250304
114 1 0.73612 0.241163 0.177536
100 1 1.00435 0.258247 0.257507
120 1 0.81381 0.237786 0.249333
117 1 0.823126 0.156246 0.176731
189 1 0.845793 0.169292 0.337569
125 1 0.165266 0.336252 0.16863
122 1 0.0783513 0.412366 0.167081
121 1 0.981395 0.33139 0.165978
124 1 -0.00216245 0.403438 0.241755
128 1 0.171754 0.399991 0.255822
132 1 0.332982 0.418906 0.255523
587 1 0.420257 0.507718 0.416197
149 1 0.162358 -0.000625717 0.338097
202 1 0.434137 0.437059 0.323596
136 1 0.496636 0.42233 0.240369
83 1 0.420241 -0.00224455 0.249763
208 1 0.493005 0.411795 0.42058
134 1 0.571808 0.424646 0.150617
206 1 0.567831 0.41957 0.332678
140 1 0.654118 0.412995 0.237844
139 1 0.731039 0.324832 0.240457
138 1 0.744817 0.418289 0.163202
455 1 0.924442 0.501102 0.0911765
207 1 0.578648 0.340954 0.41509
143 1 0.898654 0.315558 0.23715
141 1 0.810691 0.33069 0.161335
142 1 0.908027 0.414668 0.175845
144 1 0.828607 0.412511 0.24053
146 1 0.0928259 0.090338 0.338064
669 1 0.830078 0.503418 0.492442
81 1 0.330123 0.0067446 0.174303
152 1 0.189607 0.107283 0.420689
156 1 0.348312 0.0873429 0.425752
212 1 0.654195 0.432743 0.428093
204 1 0.351331 0.407612 0.407505
57 1 0.337497 0.339747 0.000261339
160 1 0.517627 0.0892593 0.411655
179 1 0.437038 0.173093 0.428931
241 1 -0.00175737 0.175773 0.50931
158 1 0.59358 0.0780963 0.342447
183 1 0.59351 0.16614 0.441852
265 1 0.99677 0.340196 0.489619
519 1 0.584527 0.494189 0.240051
523 1 0.740664 0.499794 0.235581
599 1 0.916086 0.497718 0.38633
65 1 0.672277 0.32763 0.000210005
164 1 0.666135 0.0874952 0.438294
49 1 0.987807 0.333148 -0.00726303
168 1 0.840814 0.0799769 0.404838
166 1 0.93014 0.097458 0.33146
148 1 0.0101545 0.106879 0.409016
191 1 0.918033 0.159989 0.420371
193 1 0.996283 0.335111 0.328018
171 1 0.0865241 0.177137 0.425234
170 1 0.0756235 0.2588 0.333384
176 1 0.165049 0.247566 0.421472
197 1 0.164269 0.321388 0.330007
175 1 0.265955 0.186469 0.418456
199 1 0.263867 0.318436 0.419254
581 1 0.15687 0.497556 0.326284
198 1 0.244879 0.428794 0.340806
203 1 0.43667 0.323291 0.433171
180 1 0.355503 0.241748 0.4125
200 1 0.172898 0.404036 0.415207
184 1 0.515997 0.253293 0.416121
182 1 0.588495 0.264886 0.336808
188 1 0.662467 0.254188 0.418288
187 1 0.734734 0.165668 0.409141
213 1 0.83407 0.326135 0.31825
186 1 0.751603 0.240401 0.334347
507 1 0.0922372 0.487796 0.247859
447 1 0.579698 0.508939 0.0739508
196 1 0.988516 0.41723 0.404781
190 1 0.923578 0.258595 0.350528
172 1 0.0110477 0.25014 0.424841
192 1 0.82577 0.268478 0.417043
145 1 0.0110995 -0.00293059 0.328252
195 1 0.0778895 0.350364 0.410868
194 1 0.0888539 0.414817 0.324806
53 1 0.161811 0.327408 0.00601846
34 1 0.422695 0.24981 -0.00782509
30 1 0.255318 0.255624 -0.00851811
147 1 0.0830034 0.0154646 0.420936
505 1 0.982548 0.498917 0.185896
25 1 1.00315 0.164264 -0.000592702
266 1 0.0916955 0.417461 0.505381
238 1 0.921134 0.0768328 0.4943
286 1 0.923278 0.419325 0.494624
237 1 0.827306 0.0125338 0.491502
270 1 0.257927 0.406001 0.484011
246 1 0.249006 0.253297 0.499506
45 1 0.827454 0.150377 0.0116005
66 1 0.758411 0.423148 -0.00253617
269 1 0.170066 0.340549 0.503439
261 1 0.820858 0.177191 0.496071
257 1 0.675719 0.17976 0.514785
258 1 0.743676 0.269893 0.495009
10 1 0.398733 0.087159 0.000465731
54 1 0.245272 0.419481 0.0146806
6 1 0.254854 0.0927374 -0.00518322
5 1 0.17351 0.0042938 -0.00477986
220 1 0.0100996 0.100361 0.570566
224 1 0.166829 0.112952 0.583273
317 1 0.16674 0.1898 0.661204
290 1 0.0987818 0.0824882 0.664178
313 1 0.00589712 0.170853 0.654716
235 1 0.752129 0.00556183 0.577652
228 1 0.337693 0.081469 0.605286
294 1 0.256063 0.0925908 0.67055
795 1 0.0746337 0.505594 0.925527
229 1 0.512694 -0.0113832 0.510111
311 1 0.922148 0.0137392 0.717224
232 1 0.506537 0.0732942 0.599989
251 1 0.428367 0.164722 0.598524
298 1 0.414745 0.0901981 0.685199
255 1 0.594596 0.162787 0.591862
723 1 0.0858155 0.484948 0.763244
302 1 0.586186 0.0771329 0.663479
309 1 0.833599 0.00665422 0.656228
236 1 0.669221 0.0743939 0.591223
240 1 0.832745 0.0941199 0.579128
259 1 0.75341 0.185113 0.580887
813 1 0.818879 0.487692 0.833659
263 1 0.907959 0.180109 0.57473
218 1 0.0975321 0.100308 0.493044
333 1 0.835404 0.179118 0.653977
233 1 0.658997 -0.00889101 0.497789
731 1 0.417193 0.497846 0.743782
243 1 0.0817344 0.18988 0.586074
314 1 0.0936259 0.263034 0.677383
244 1 0.000465594 0.269348 0.575313
247 1 0.263532 0.162241 0.574351
248 1 0.164533 0.26365 0.57875
252 1 0.334492 0.242015 0.576512
293 1 0.158517 6.07574e-05 0.669798
271 1 0.250274 0.328425 0.584656
256 1 0.503438 0.241905 0.60313
325 1 0.515763 0.167456 0.673856
275 1 0.421401 0.335547 0.582491
345 1 0.326833 0.326039 0.65969
279 1 0.57984 0.337387 0.595437
260 1 0.663944 0.267746 0.585606
326 1 0.579508 0.258384 0.670559
349 1 0.500028 0.338704 0.668139
330 1 0.752074 0.260009 0.666093
264 1 0.825626 0.271384 0.578031
283 1 0.746658 0.345274 0.581094
353 1 0.679977 0.34124 0.67574
741 1 0.836549 0.506719 0.662197
334 1 0.924245 0.263053 0.654525
287 1 0.913417 0.336519 0.578595
267 1 0.0923064 0.330811 0.595983
272 1 0.176427 0.424692 0.583369
276 1 0.320785 0.424538 0.580252
37 1 0.502555 0.15448 0.993769
346 1 0.401279 0.410992 0.667163
381 1 0.832745 0.0147871 0.820385
280 1 0.499515 0.41995 0.596603
350 1 0.581728 0.413783 0.675653
245 1 0.177863 0.179045 0.496016
284 1 0.661966 0.42162 0.591136
297 1 0.330981 -0.00354091 0.688784
431 1 0.916251 0.316376 0.914324
303 1 0.595879 -0.00526053 0.739217
268 1 0.00991489 0.410119 0.585306
430 1 0.919434 0.416892 0.842293
288 1 0.824444 0.404818 0.603284
358 1 0.922534 0.41937 0.664258
803 1 0.40806 0.513963 0.902413
62 1 0.577329 0.418746 0.993282
221 1 0.170412 0.00828128 0.503388
296 1 0.184628 0.0926431 0.748773
809 1 0.67737 0.50042 0.826605
300 1 0.325396 0.0901659 0.758071
733 1 0.507072 0.511275 0.655069
321 1 0.336062 0.177191 0.672803
69 1 0.830194 0.323639 1.00981
304 1 0.501739 0.0875821 0.747358
370 1 0.409786 0.0820453 0.822891
432 1 0.839049 0.417242 0.925441
671 1 0.924332 0.487767 0.585867
327 1 0.585758 0.159086 0.749046
397 1 0.494471 0.165365 0.832762
374 1 0.572203 0.0788065 0.830363
306 1 0.762629 0.0879568 0.674897
42 1 0.74417 0.242672 0.992046
308 1 0.665476 0.0846805 0.737891
310 1 0.927158 0.0967749 0.647111
428 1 0.669127 0.418321 0.912542
222 1 0.25888 0.0716369 0.515936
292 1 0.00869083 0.0805101 0.741119
312 1 0.846362 0.103918 0.745021
278 1 0.569116 0.431308 0.508694
337 1 0.00205738 0.336703 0.671772
315 1 0.0877404 0.164908 0.758392
316 1 0.00474948 0.257883 0.75194
386 1 0.0890122 0.254586 0.831012
320 1 0.172403 0.244957 0.75218
318 1 0.259902 0.247898 0.660351
319 1 0.25635 0.174724 0.750866
390 1 0.254353 0.250851 0.831637
324 1 0.333816 0.246282 0.747349
322 1 0.41153 0.248506 0.655105
323 1 0.40412 0.176617 0.755183
394 1 0.41991 0.270484 0.841461
328 1 0.496855 0.260497 0.747136
398 1 0.581229 0.245757 0.825435
351 1 0.592266 0.335196 0.755293
401 1 0.665538 0.175427 0.820358
329 1 0.67161 0.164505 0.674531
332 1 0.654093 0.248602 0.743436
331 1 0.758738 0.173949 0.736315
335 1 0.929025 0.185927 0.734372
336 1 0.842063 0.23697 0.763447
359 1 0.922185 0.341287 0.764066
406 1 0.927 0.249418 0.835264
357 1 0.83832 0.325592 0.661835
341 1 0.174762 0.328525 0.664516
338 1 0.091099 0.42761 0.66227
339 1 0.0879061 0.33826 0.758334
344 1 0.167209 0.407133 0.740664
667 1 0.751998 0.490816 0.57933
343 1 0.254187 0.334389 0.745518
342 1 0.260785 0.409142 0.660502
427 1 0.756548 0.33508 0.918515
426 1 0.753902 0.401114 0.833365
348 1 0.324934 0.425365 0.753535
347 1 0.41787 0.343841 0.750623
811 1 0.753413 0.500801 0.914395
369 1 0.325597 -0.00592338 0.847224
735 1 0.593145 0.498146 0.758482
421 1 0.506683 0.341493 0.84337
352 1 0.506382 0.434185 0.746047
356 1 0.671795 0.423367 0.762595
422 1 0.594401 0.413868 0.830628
388 1 0.00466846 0.249784 0.909084
355 1 0.757325 0.328215 0.75727
425 1 0.664142 0.332044 0.842502
354 1 0.760228 0.420313 0.679646
340 1 0.00512797 0.415988 0.767593
360 1 0.84267 0.422352 0.74788
429 1 0.831794 0.341079 0.843912
423 1 0.594871 0.328161 0.923624
424 1 0.496325 0.420295 0.91916
408 1 0.83022 0.249402 0.923492
362 1 0.0952074 0.0933088 0.839326
412 1 0.996006 0.40666 0.918051
234 1 0.751708 0.0921499 0.49579
413 1 0.174723 0.341918 0.835009
366 1 0.24948 0.0775963 0.844137
368 1 0.17187 0.0889024 0.916033
372 1 0.334362 0.0820535 0.910213
393 1 0.341607 0.174335 0.845877
793 1 0.998116 0.500116 0.837983
409 1 -0.00459319 0.327624 0.834697
403 1 0.75478 0.170892 0.914977
402 1 0.741618 0.25254 0.841198
418 1 0.402441 0.415979 0.843553
807 1 0.587506 0.504619 0.908561
376 1 0.493214 0.0753546 0.911838
380 1 0.670952 0.084482 0.91258
404 1 0.665608 0.244935 0.911873
416 1 0.165244 0.42031 0.941195
405 1 0.846145 0.173204 0.845017
378 1 0.76943 0.0988027 0.820676
410 1 0.0826684 0.40314 0.853821
219 1 0.0867978 -0.00949308 0.58516
414 1 0.244508 0.415358 0.844332
382 1 0.926081 0.079637 0.817563
385 1 -0.00145699 0.15861 0.843091
364 1 0.00196799 0.0773985 0.910235
384 1 0.837782 0.0848299 0.91505
407 1 0.913385 0.179566 0.927667
389 1 0.16938 0.16928 0.835992
387 1 0.0835121 0.171245 0.925072
411 1 0.0775136 0.330249 0.930013
419 1 0.408083 0.342307 0.921635
417 1 0.323468 0.336767 0.837298
391 1 0.247363 0.177622 0.912879
392 1 0.16529 0.254604 0.914385
415 1 0.238322 0.327179 0.911002
420 1 0.329331 0.412928 0.915671
395 1 0.403087 0.160599 0.925601
396 1 0.333723 0.259088 0.915518
400 1 0.498049 0.255928 0.916437
399 1 0.590343 0.146672 0.915303
217 1 0.00392138 0.0107351 0.497513
371 1 0.421239 -0.0232423 0.903899
797 1 0.159542 0.488609 0.841507
239 1 0.914211 0.0091637 0.587813
373 1 0.493681 0.000633629 0.828959
289 1 0.00159995 0.000605363 0.655621
291 1 0.0909171 0.00830038 0.754147
277 1 0.513105 0.337905 0.509972
725 1 0.173084 0.50554 0.683661
254 1 0.582576 0.253172 0.512737
361 1 0.00504962 -0.00351694 0.83564
281 1 0.650604 0.353268 0.498944
61 1 0.502578 0.341033 0.992778
250 1 0.428268 0.241487 0.510387
729 1 0.322223 0.500589 0.669915
242 1 0.0865761 0.261822 0.497896
14 1 0.588146 0.0804386 0.998653
58 1 0.420618 0.412697 0.999777
379 1 0.75179 0.00163732 0.917477
262 1 0.917446 0.26762 0.484882
46 1 0.913284 0.235815 1.01935
449 1 0.678785 0.508421 0.988421
273 1 0.342158 0.317921 0.505424
230 1 0.579075 0.0821347 0.510162
18 1 0.749732 0.0703882 0.995824
437 1 0.143502 0.505999 1.02148
29 1 0.173012 0.179168 1.00568
38 1 0.572899 0.249432 0.998053
274 1 0.417725 0.404508 0.495427
226 1 0.433084 0.0795876 0.497109
70 1 0.908947 0.409165 1.00612
253 1 0.508965 0.154466 0.513957
285 1 0.828405 0.341698 0.494322
41 1 0.664692 0.164111 0.989568
22 1 0.924323 0.0730739 1.01705
436 1 0.997956 0.578015 0.0974293
589 1 0.509861 0.507588 0.332097
533 1 0.163198 0.665625 0.163699
89 1 0.665995 0.991273 0.157915
440 1 0.160601 0.582678 0.0930755
510 1 0.248094 0.577908 0.167256
444 1 0.338364 0.581249 0.0768049
439 1 0.2459 0.509178 0.0905337
161 1 0.668908 0.991585 0.332309
514 1 0.408561 0.580578 0.163424
509 1 0.163681 0.480971 0.173124
713 1 0.670411 0.820097 0.504304
517 1 0.491669 0.508685 0.165187
448 1 0.508655 0.585481 0.0806238
593 1 0.66582 0.507224 0.32012
518 1 0.588494 0.587515 0.155695
11 1 0.410704 0.996433 0.0791201
452 1 0.661469 0.575719 0.074158
456 1 0.840821 0.589198 0.0851318
153 1 0.339714 1.00493 0.336821
475 1 0.753264 0.672545 0.0894535
479 1 0.919547 0.6703 0.0924417
693 1 0.827263 0.656397 0.496323
549 1 0.836629 0.660653 0.171099
461 1 0.155576 0.670243 0.00824284
459 1 0.079586 0.674812 0.0866254
483 1 0.0885606 0.836873 0.0880174
553 1 -0.00373327 0.829389 0.177799
530 1 0.0942341 0.753539 0.16523
434 1 0.0762452 0.585113 0.00688714
515 1 0.431893 0.50706 0.244117
79 1 0.251387 1.00566 0.262335
463 1 0.250727 0.660858 0.100134
464 1 0.162512 0.760142 0.0730719
534 1 0.251535 0.746852 0.164417
468 1 0.333757 0.742257 0.0611844
487 1 0.249693 0.827792 0.0911241
513 1 0.339602 0.494676 0.181275
467 1 0.417642 0.659875 0.0756595
541 1 0.497374 0.663915 0.15522
537 1 0.343975 0.672942 0.157378
471 1 0.585719 0.662013 0.0792368
472 1 0.510256 0.748732 0.0785401
565 1 0.504019 0.829266 0.159559
476 1 0.679044 0.764607 0.0631482
525 1 0.842699 0.504542 0.170341
19 1 0.746875 0.974661 0.0854868
443 1 0.41197 0.501058 0.0671935
460 1 -0.00375206 0.760415 0.0776373
85 1 0.494538 0.99476 0.164411
480 1 0.833348 0.750844 0.0790059
503 1 0.910293 0.828409 0.0823308
628 1 0.0176503 0.927476 0.414649
488 1 0.168143 0.916929 0.0968197
557 1 0.18061 0.834006 0.170626
558 1 0.251742 0.921511 0.156883
527 1 0.914459 0.494448 0.254601
155 1 0.432925 1.00348 0.410739
491 1 0.409301 0.829188 0.0795939
561 1 0.332711 0.820901 0.153789
492 1 0.331916 0.909648 0.0774362
496 1 0.49992 0.893604 0.0713028
646 1 0.906676 0.914801 0.337605
521 1 0.665908 0.489414 0.1562
495 1 0.581552 0.827837 0.0884217
500 1 0.651567 0.906597 0.0814407
566 1 0.577741 0.913527 0.162976
23 1 0.916237 1.00181 0.0990828
641 1 0.657544 0.842028 0.33203
499 1 0.741229 0.859902 0.069413
644 1 0.659883 0.917408 0.412011
591 1 0.588497 0.512746 0.41435
504 1 0.835918 0.921334 0.0873646
484 1 -0.00150121 0.892682 0.0956592
649 1 1.00436 0.498697 0.496506
9 1 0.343361 0.988812 -0.0143034
506 1 0.068423 0.585382 0.181506
508 1 0.000383387 0.587412 0.254126
531 1 0.0736626 0.668462 0.250595
578 1 0.0848698 0.575416 0.351657
165 1 0.822721 0.991764 0.348592
512 1 0.157114 0.582242 0.251828
582 1 0.250372 0.582707 0.330914
516 1 0.348239 0.596226 0.246052
609 1 0.345489 0.666349 0.34128
642 1 0.745708 0.90481 0.336863
520 1 0.516353 0.591017 0.239374
613 1 0.498203 0.680226 0.326531
586 1 0.420404 0.58109 0.333119
524 1 0.65597 0.577001 0.243234
543 1 0.589079 0.662637 0.237052
590 1 0.587014 0.595122 0.349033
7 1 0.251515 0.997873 0.0747863
522 1 0.745311 0.575951 0.16554
594 1 0.74452 0.58101 0.326164
435 1 0.0604279 0.495971 0.0930574
648 1 0.839198 0.926151 0.432641
87 1 0.573851 1.00098 0.250107
526 1 0.915333 0.591319 0.19446
528 1 0.82537 0.584357 0.253136
601 1 0.00937198 0.665907 0.344001
536 1 0.169015 0.740251 0.244005
625 1 -0.00557815 0.83388 0.338122
532 1 0.00744536 0.76024 0.253985
555 1 0.088847 0.830816 0.251845
535 1 0.25645 0.666381 0.262094
559 1 0.261274 0.840315 0.23432
538 1 0.417235 0.749981 0.147735
539 1 0.431301 0.665203 0.236966
540 1 0.34765 0.738326 0.250668
544 1 0.50667 0.748324 0.235895
563 1 0.410214 0.83162 0.243446
545 1 0.671094 0.661948 0.162078
542 1 0.596422 0.748699 0.160862
569 1 0.6615 0.840565 0.163336
614 1 0.577054 0.761637 0.33465
548 1 0.658932 0.761672 0.25042
567 1 0.584601 0.84226 0.24652
547 1 0.733879 0.667951 0.255107
546 1 0.740444 0.743149 0.16048
529 1 -0.0048838 0.685857 0.163436
550 1 0.911606 0.753433 0.160891
573 1 0.833344 0.821471 0.156464
552 1 0.828871 0.753396 0.253026
551 1 0.932378 0.696725 0.264825
93 1 0.836026 1.0068 0.17628
554 1 0.0806214 0.904872 0.166107
626 1 0.0834998 0.918266 0.319396
560 1 0.172275 0.909826 0.244659
556 1 0.987662 0.909094 0.247328
451 1 0.751792 0.500829 0.0820244
159 1 0.576171 0.998124 0.419406
630 1 0.257761 0.911502 0.340321
564 1 0.338813 0.921673 0.255325
666 1 0.748736 0.56534 0.510188
562 1 0.40412 0.905277 0.158297
637 1 0.498288 0.831374 0.32669
568 1 0.48481 0.907982 0.25519
572 1 0.662174 0.914864 0.254706
595 1 0.738418 0.499358 0.406239
570 1 0.75022 0.913339 0.164593
638 1 0.567693 0.904058 0.361143
571 1 0.746312 0.829409 0.244906
640 1 0.501788 0.908242 0.436819
574 1 0.919381 0.898662 0.16275
575 1 0.914973 0.81516 0.266779
576 1 0.827295 0.907026 0.248554
643 1 0.728294 0.833072 0.416303
580 1 0.989585 0.561688 0.409449
634 1 0.430573 0.914499 0.352009
633 1 0.338604 0.844293 0.349725
647 1 0.900205 0.84302 0.419957
636 1 0.335151 0.915928 0.438856
620 1 0.65408 0.738721 0.423511
584 1 0.171308 0.598755 0.428589
605 1 0.181038 0.682759 0.340779
433 1 -0.00754344 0.49857 0.00506029
588 1 0.320071 0.576933 0.411103
619 1 0.757238 0.661868 0.415498
624 1 0.822794 0.751989 0.417569
617 1 0.651217 0.679598 0.323083
615 1 0.570831 0.679358 0.414009
592 1 0.498309 0.588304 0.405596
596 1 0.66752 0.598638 0.411839
689 1 0.681285 0.666569 0.506765
632 1 0.169335 0.924906 0.426821
622 1 0.921619 0.748461 0.351496
600 1 0.835107 0.577541 0.406883
665 1 0.65525 0.520267 0.504154
629 1 0.170027 0.838045 0.325595
623 1 0.912324 0.659073 0.422502
598 1 0.917524 0.60022 0.32931
602 1 0.0854999 0.75284 0.323502
627 1 0.100169 0.848301 0.406759
604 1 0.00495424 0.748914 0.41821
603 1 0.0989053 0.686501 0.421797
606 1 0.256947 0.763554 0.318978
608 1 0.172104 0.766542 0.413313
631 1 0.248263 0.83275 0.425101
607 1 0.250096 0.6751 0.421149
673 1 0.00884359 0.657395 0.488556
610 1 0.422842 0.763174 0.337941
635 1 0.421023 0.838879 0.426168
611 1 0.423812 0.669481 0.409258
612 1 0.328556 0.754498 0.403598
639 1 0.584162 0.817527 0.424372
616 1 0.494018 0.756428 0.422579
645 1 0.828462 0.835116 0.341194
621 1 0.825912 0.669335 0.320745
618 1 0.719245 0.75751 0.342323
73 1 0.000898019 1.00023 0.161935
670 1 0.917248 0.572873 0.507414
15 1 0.575172 0.989947 0.0805817
157 1 0.504047 1.00076 0.32571
585 1 0.339796 0.503781 0.328056
710 1 0.581619 0.903011 0.510536
21 1 0.83415 1.00672 -0.00505199
13 1 0.500849 0.988863 -0.0137846
501 1 0.832096 0.836804 0.00851921
438 1 0.235717 0.574622 0.00804402
502 1 0.927148 0.908588 0.0176019
690 1 0.760279 0.737173 0.507562
474 1 0.748213 0.760644 -0.0103403
701 1 0.15982 0.836448 0.508513
717 1 0.829524 0.830216 0.506887
718 1 0.928512 0.935658 0.498708
1 1 1.00209 0.977228 0.0311128
465 1 0.338796 0.65459 -0.00543386
482 1 0.073694 0.912885 0.000579433
682 1 0.414845 0.743798 0.503132
489 1 0.340985 0.825146 -0.0103683
658 1 0.391452 0.578604 0.494848
470 1 0.594466 0.740207 -0.011754
681 1 0.324386 0.653722 0.492852
678 1 0.24183 0.754971 0.504324
714 1 0.745724 0.905299 0.489352
650 1 0.0766284 0.574032 0.466718
473 1 0.66712 0.666358 0.00871124
446 1 0.594985 0.582245 -0.0144555
662 1 0.573109 0.597439 0.495048
656 1 0.151736 0.587817 0.552882
652 1 1.00642 0.600305 0.576001
675 1 0.0846877 0.669535 0.565395
844 1 0.998805 0.919067 0.91333
679 1 0.242567 0.663238 0.573958
660 1 0.333852 0.56466 0.579514
493 1 0.508739 0.807994 0.994208
457 1 1.00411 0.678226 0.994754
664 1 0.488534 0.594927 0.584809
683 1 0.398926 0.668634 0.573659
753 1 0.311799 0.656118 0.657092
739 1 0.752394 0.501608 0.73266
687 1 0.58411 0.663045 0.572887
734 1 0.596345 0.583328 0.678369
363 1 0.0858651 1.00563 0.93027
295 1 0.245086 1.00014 0.763693
668 1 0.670908 0.58169 0.590621
672 1 0.829743 0.574598 0.581151
691 1 0.753835 0.660444 0.583121
738 1 0.745894 0.580497 0.66943
761 1 0.67717 0.67077 0.672961
478 1 0.919325 0.751734 1.00089
305 1 0.673249 0.994928 0.668851
676 1 -0.00178733 0.752276 0.588514
746 1 0.0774418 0.750364 0.65757
699 1 0.0787982 0.836979 0.584864
801 1 0.332624 0.49542 0.836336
299 1 0.41659 0.995896 0.755351
680 1 0.160742 0.753032 0.588959
721 1 -1.83422e-06 0.492776 0.668093
815 1 0.921437 0.499411 0.928731
684 1 0.311939 0.752961 0.584853
688 1 0.496668 0.739764 0.58821
661 1 0.502881 0.526209 0.494195
785 1 0.662585 0.840543 0.678314
711 1 0.589221 0.838549 0.586607
758 1 0.591523 0.746717 0.67402
383 1 0.927889 0.998441 0.921285
692 1 0.673354 0.727838 0.583827
762 1 0.774193 0.747524 0.658741
696 1 0.839905 0.745778 0.583786
715 1 0.756842 0.828359 0.579778
765 1 0.839704 0.652455 0.658615
697 1 0.00262545 0.850294 0.480322
462 1 0.244512 0.741394 1.00688
695 1 0.907839 0.670298 0.566215
745 1 0.00105764 0.662801 0.655778
719 1 0.92545 0.829285 0.573858
227 1 0.415793 1.00504 0.600865
766 1 0.917294 0.741319 0.654529
494 1 0.574818 0.900512 0.998716
704 1 0.181479 0.92904 0.571639
307 1 0.744675 1.01377 0.751097
651 1 0.0787456 0.509136 0.592991
466 1 0.412731 0.750905 0.998568
703 1 0.243586 0.838598 0.592316
774 1 0.22843 0.920441 0.67373
377 1 0.672179 1.01514 0.837056
477 1 0.83005 0.66289 1.00084
375 1 0.584197 0.998809 0.923455
367 1 0.249686 0.999592 0.921245
707 1 0.414209 0.827319 0.595271
708 1 0.333679 0.920949 0.595848
712 1 0.489605 0.898126 0.598569
782 1 0.580408 0.909632 0.665949
805 1 0.499924 0.488919 0.843227
862 1 0.925263 0.934655 0.821677
789 1 0.826924 0.839245 0.651235
716 1 0.669214 0.906095 0.567406
720 1 0.843647 0.920203 0.568228
786 1 0.752961 0.909151 0.67647
365 1 0.16991 1.01372 0.841329
799 1 0.241848 0.49012 0.917878
700 1 1.00298 0.911895 0.57552
790 1 0.904699 0.917827 0.658704
301 1 0.500771 0.99521 0.687994
722 1 0.076255 0.592867 0.672867
859 1 0.750745 0.826093 0.905138
231 1 0.578549 0.986062 0.593385
726 1 0.246204 0.577722 0.674385
749 1 0.170863 0.642206 0.658778
728 1 0.142164 0.585141 0.754994
732 1 0.329447 0.57558 0.749014
825 1 0.32929 0.654494 0.846008
730 1 0.399272 0.592379 0.666862
802 1 0.429365 0.576585 0.830911
755 1 0.40342 0.653261 0.759818
736 1 0.511552 0.572503 0.754148
757 1 0.483807 0.664981 0.686656
759 1 0.582051 0.666163 0.743466
829 1 0.494529 0.658732 0.822462
806 1 0.586249 0.592406 0.831609
833 1 0.667564 0.666189 0.824259
740 1 0.671844 0.580248 0.75288
810 1 0.747927 0.598944 0.828443
744 1 0.836584 0.57069 0.752284
763 1 0.758693 0.673674 0.749083
742 1 0.931732 0.573644 0.64137
724 1 0.000200006 0.588228 0.753692
767 1 0.910951 0.645061 0.743163
860 1 0.665521 0.927756 0.910326
747 1 0.0875501 0.678789 0.72841
752 1 0.162908 0.751873 0.758059
769 1 -0.0143051 0.842618 0.665588
818 1 0.0783831 0.742222 0.828686
777 1 0.325948 0.83188 0.672263
751 1 0.229606 0.658104 0.745867
750 1 0.227143 0.743103 0.66485
775 1 0.236375 0.82744 0.741172
756 1 0.314009 0.744771 0.74758
754 1 0.395269 0.728558 0.680871
826 1 0.395686 0.740274 0.832041
779 1 0.42515 0.822609 0.718777
760 1 0.492364 0.74571 0.74416
781 1 0.52012 0.824172 0.671027
764 1 0.668628 0.744824 0.753319
783 1 0.581808 0.8207 0.767266
768 1 0.842856 0.751026 0.734441
787 1 0.758435 0.827033 0.754391
857 1 0.657586 0.836297 0.854971
748 1 1.00197 0.752212 0.74078
838 1 0.920596 0.740735 0.833561
770 1 0.0806938 0.914799 0.665432
771 1 0.0844318 0.831726 0.737609
776 1 0.159359 0.91795 0.747622
842 1 0.0802274 0.91744 0.842414
773 1 0.158144 0.840671 0.661358
846 1 0.242707 0.906456 0.849843
845 1 0.149954 0.840494 0.830346
778 1 0.420114 0.920516 0.678249
780 1 0.323517 0.898822 0.754566
850 1 0.41469 0.907855 0.820214
854 1 0.586995 0.926551 0.832521
784 1 0.509573 0.908928 0.761835
788 1 0.662662 0.909222 0.753761
864 1 0.851787 0.930626 0.915641
858 1 0.746328 0.916931 0.821951
861 1 0.844391 0.844112 0.839249
792 1 0.829477 0.931671 0.74704
841 1 0.992562 0.837905 0.830381
791 1 0.923078 0.83136 0.744821
772 1 0.00041747 0.924898 0.744139
469 1 0.504957 0.66542 0.998374
17 1 0.669356 0.983999 1.00015
794 1 0.0661453 0.585897 0.83659
796 1 0.99269 0.595193 0.919055
819 1 0.0856298 0.661995 0.917311
855 1 0.567119 0.829984 0.903437
851 1 0.404343 0.81621 0.905125
798 1 0.23431 0.581369 0.84178
800 1 0.157764 0.57702 0.935268
821 1 0.149508 0.662429 0.821191
823 1 0.235767 0.662736 0.90789
737 1 0.662561 0.492584 0.662768
804 1 0.321254 0.564677 0.935647
808 1 0.503685 0.587567 0.921031
659 1 0.419532 0.497155 0.5864
481 1 1.00387 0.825628 0.998935
812 1 0.672119 0.593419 0.909105
856 1 0.490595 0.901136 0.885531
853 1 0.485997 0.813061 0.822743
816 1 0.833314 0.584399 0.916648
835 1 0.749062 0.671011 0.926608
848 1 0.15458 0.914045 0.920675
849 1 0.321324 0.825018 0.829014
852 1 0.334169 0.915094 0.918894
814 1 0.911992 0.573243 0.831575
843 1 0.0812773 0.835033 0.918455
820 1 0.997551 0.747982 0.915244
824 1 0.158958 0.748505 0.92783
822 1 0.238885 0.731188 0.833764
828 1 0.32024 0.741262 0.923238
827 1 0.420226 0.650409 0.91904
863 1 0.925973 0.846819 0.920229
832 1 0.516981 0.735055 0.916201
830 1 0.572515 0.730093 0.831788
831 1 0.58327 0.66011 0.916004
836 1 0.66354 0.746174 0.907764
727 1 0.242125 0.501821 0.769319
847 1 0.246357 0.828579 0.928859
839 1 0.908219 0.674843 0.927276
840 1 0.823719 0.743525 0.932107
834 1 0.750485 0.739973 0.836714
837 1 0.832176 0.679368 0.841712
817 1 0.992963 0.668114 0.829651
454 1 0.929794 0.583211 1.01835
663 1 0.581597 0.524324 0.593377
685 1 0.489988 0.667619 0.499973
223 1 0.263487 1.00652 0.59495
655 1 0.238908 0.517208 0.579416
705 1 0.333437 0.809664 0.497309
698 1 0.0899528 0.921041 0.496747
743 1 0.923559 0.496819 0.742936
694 1 0.924325 0.755235 0.487035
485 1 0.151645 0.841273 1.00274
441 1 0.318672 0.493058 1.01054
445 1 0.499634 0.488665 0.994047
709 1 0.507476 0.823888 0.51593
450 1 0.75178 0.57956 0.999443
706 1 0.420751 0.90082 0.513731
458 1 0.0790542 0.750826 1.00399
486 1 0.238869 0.916163 1.00581
497 1 0.679008 0.833177 0.981916
674 1 0.0809548 0.752895 0.503392
490 1 0.426249 0.909039 1.00261
225 1 0.359913 1.00422 0.503818
677 1 0.175152 0.674688 0.493768
702 1 0.249442 0.903504 0.500527
498 1 0.76673 0.920664 0.978357
657 1 0.31871 0.493244 0.504476
453 1 0.843547 0.508229 1.006
686 1 0.586735 0.750018 0.505783
654 1 0.245657 0.58272 0.498346
442 1 0.41627 0.576631 0.993407
