ITEM: TIMESTEP
25250
ITEM: NUMBER OF ATOMS
864
ITEM: BOX BOUNDS pp pp pp
0.0000000000000000e+00 3.1559999999999999e+01
0.0000000000000000e+00 3.1559999999999999e+01
0.0000000000000000e+00 3.1559999999999999e+01
ITEM: ATOMS id type xs ys zs
74 1 0.0974964 0.0907065 0.159043
4 1 0.994917 0.100097 0.0857442
27 1 0.0839516 0.176333 0.0877501
8 1 0.174409 0.0824285 0.0747779
31 1 0.23702 0.183376 0.0816146
12 1 0.322114 0.0934934 0.0800009
451 1 0.755093 0.489557 0.0787395
46 1 0.919573 0.26297 0.00439337
2 1 0.0769783 0.0963762 0.0148607
16 1 0.492841 0.0962019 0.0739792
35 1 0.40249 0.179551 0.0821546
214 1 0.918005 0.429061 0.338257
82 1 0.424228 0.0934 0.151017
79 1 0.258033 0.00390673 0.244511
39 1 0.58206 0.172434 0.0666308
20 1 0.662371 0.0861122 0.092223
159 1 0.582549 0.00301582 0.398378
53 1 0.156156 0.346685 0.00716942
24 1 0.830449 0.0832028 0.0940238
19 1 0.753987 0.00444923 0.0876154
94 1 0.902115 0.0804825 0.171535
97 1 0.991044 0.1539 0.173009
51 1 0.0890224 0.341367 0.100781
32 1 0.157216 0.255936 0.0841091
98 1 0.0855421 0.241973 0.182204
102 1 0.256177 0.25123 0.175137
36 1 0.327081 0.246339 0.0773625
40 1 0.488479 0.256913 0.0794332
133 1 0.497504 0.328598 0.156758
591 1 0.588305 0.484117 0.420938
44 1 0.65378 0.253026 0.0689269
63 1 0.57697 0.330199 0.069217
579 1 0.088069 0.493758 0.421846
43 1 0.741693 0.171196 0.0831166
114 1 0.745499 0.257302 0.163312
91 1 0.739323 0.0195544 0.243752
47 1 0.908673 0.176434 0.103425
48 1 0.827718 0.258464 0.0887382
28 1 0.98884 0.247443 0.0878998
71 1 0.910333 0.350489 0.0953111
52 1 0.00206312 0.412654 0.100411
587 1 0.4133 0.487667 0.413944
435 1 0.0608224 0.499881 0.0813772
77 1 0.166644 0.00557699 0.169358
55 1 0.246842 0.331151 0.0750206
281 1 0.659014 0.332689 0.497414
56 1 0.153488 0.428135 0.0727543
60 1 0.327617 0.416371 0.093325
59 1 0.418042 0.340457 0.0906361
64 1 0.495624 0.418551 0.0789478
81 1 0.330833 0.00589357 0.151275
212 1 0.681447 0.413074 0.408505
137 1 0.662581 0.320136 0.154504
68 1 0.670612 0.409779 0.0807891
134 1 0.586419 0.405887 0.15114
67 1 0.756727 0.330457 0.0803519
72 1 0.825583 0.412658 0.0823997
95 1 0.909326 0.00166537 0.248491
583 1 0.252818 0.49132 0.432297
141 1 0.829041 0.348809 0.165533
216 1 0.837243 0.409787 0.415617
211 1 0.756715 0.330911 0.401327
173 1 0.171854 0.160089 0.32663
99 1 0.0779947 0.148631 0.247818
101 1 0.184558 0.164174 0.16832
78 1 0.24948 0.082052 0.157579
80 1 0.173395 0.0788786 0.253937
103 1 0.251125 0.176231 0.249672
241 1 0.988458 0.172148 0.496536
105 1 0.338904 0.166575 0.183017
84 1 0.326895 0.0853078 0.252352
88 1 0.48821 0.0808722 0.259545
109 1 0.511681 0.174446 0.155772
87 1 0.581923 0.00978196 0.247077
113 1 0.639856 0.159294 0.15807
86 1 0.565931 0.078397 0.164922
111 1 0.565062 0.18073 0.244482
158 1 0.579029 0.0947515 0.332514
206 1 0.567557 0.406152 0.324196
92 1 0.662231 0.0953576 0.26192
90 1 0.7481 0.0839308 0.158092
162 1 0.754315 0.0786084 0.331881
96 1 0.826535 0.0899775 0.246136
76 1 0.987015 0.0706564 0.246246
119 1 0.916289 0.171516 0.249454
597 1 0.833048 0.499837 0.332778
166 1 0.898402 0.0938284 0.32325
189 1 0.818999 0.163867 0.318069
121 1 0.000422558 0.342388 0.169409
104 1 0.167852 0.251858 0.251377
100 1 0.997822 0.2487 0.252812
123 1 0.0801354 0.329955 0.248489
169 1 0.00461217 0.149678 0.327198
193 1 0.0116602 0.334182 0.32712
125 1 0.169647 0.328999 0.163692
174 1 0.242848 0.245159 0.332474
108 1 0.34325 0.253302 0.273813
106 1 0.402748 0.251464 0.169987
201 1 0.335903 0.332018 0.344825
107 1 0.419997 0.178269 0.254389
178 1 0.420812 0.257074 0.342499
205 1 0.492365 0.332799 0.330245
110 1 0.583189 0.256955 0.155488
112 1 0.486176 0.268808 0.244796
182 1 0.5687 0.256041 0.334011
117 1 0.819504 0.162636 0.166293
115 1 0.730134 0.173425 0.23597
116 1 0.648479 0.255353 0.249409
120 1 0.837472 0.252324 0.244968
186 1 0.737532 0.245342 0.335963
139 1 0.739407 0.327934 0.259803
118 1 0.9136 0.273986 0.165296
143 1 0.929181 0.342607 0.257525
213 1 0.855824 0.335748 0.323875
122 1 0.0843082 0.425074 0.180403
126 1 0.237231 0.417325 0.166316
127 1 0.242443 0.334595 0.251826
128 1 0.166975 0.420265 0.258888
198 1 0.250215 0.413009 0.345342
89 1 0.656549 0.00366882 0.159279
129 1 0.321369 0.332233 0.159838
73 1 0.00479617 0.0118866 0.161581
130 1 0.412345 0.420557 0.171703
208 1 0.502764 0.427503 0.410286
131 1 0.408559 0.337591 0.244248
132 1 0.323477 0.410936 0.255391
202 1 0.423369 0.413758 0.326409
135 1 0.580648 0.336197 0.235193
136 1 0.503575 0.415243 0.243927
140 1 0.660658 0.413606 0.242617
83 1 0.402002 0.00870081 0.245621
270 1 0.251089 0.410187 0.499848
210 1 0.756723 0.417081 0.316187
209 1 0.652903 0.337723 0.330273
138 1 0.74682 0.410795 0.169772
144 1 0.849727 0.415989 0.249687
142 1 0.910514 0.428127 0.158228
124 1 0.996981 0.438529 0.269505
146 1 0.0817613 0.0736945 0.344355
171 1 0.0788127 0.162873 0.414086
150 1 0.254457 0.0767502 0.330607
177 1 0.33909 0.167805 0.340571
152 1 0.164163 0.0933055 0.426341
156 1 0.326246 0.0962567 0.413783
447 1 0.589857 0.486015 0.0851057
50 1 0.0719075 0.433704 0.000769208
154 1 0.408144 0.0819364 0.338756
181 1 0.495615 0.166933 0.34736
242 1 0.0838824 0.234533 0.490082
160 1 0.500907 0.0740606 0.410491
164 1 0.679626 0.067718 0.410194
261 1 0.834743 0.166658 0.496287
521 1 0.665202 0.496067 0.157076
151 1 0.242616 0.00412955 0.420518
45 1 0.851972 0.170906 0.0077776
187 1 0.748193 0.172499 0.413443
14 1 0.57846 0.079165 0.00299995
148 1 0.99791 0.0742293 0.431466
168 1 0.827691 0.0870496 0.423609
191 1 0.914196 0.169685 0.406549
273 1 0.347549 0.336709 0.48956
195 1 0.080784 0.338635 0.409067
170 1 0.0911626 0.242171 0.328284
172 1 0.0115844 0.245315 0.400707
649 1 0.00769117 0.493034 0.488312
175 1 0.248387 0.165653 0.409583
176 1 0.167348 0.242484 0.412138
180 1 0.3476 0.242468 0.430776
11 1 0.415001 0.00536996 0.0744823
184 1 0.506974 0.263032 0.427361
203 1 0.428703 0.343911 0.426019
179 1 0.420715 0.177308 0.427223
93 1 0.830741 0.000771351 0.167902
185 1 0.659748 0.173723 0.333449
207 1 0.584513 0.344185 0.419849
188 1 0.66925 0.254058 0.418678
183 1 0.581809 0.163303 0.41757
34 1 0.405661 0.261078 0.00858674
199 1 0.241914 0.326978 0.40612
204 1 0.335118 0.420192 0.405784
42 1 0.746387 0.263305 0.00203973
190 1 0.923522 0.247764 0.331369
192 1 0.832761 0.247208 0.408189
215 1 0.923274 0.327232 0.409255
593 1 0.670583 0.495113 0.337505
196 1 0.000524936 0.417282 0.40186
197 1 0.166656 0.341756 0.33184
194 1 0.0901067 0.412804 0.330295
589 1 0.499226 0.494549 0.332358
200 1 0.164481 0.411655 0.413607
1 1 0.996656 0.0135843 0.00227087
595 1 0.756997 0.493529 0.412142
511 1 0.244744 0.499119 0.250357
285 1 0.826252 0.322321 0.487793
269 1 0.163424 0.32665 0.484812
258 1 0.744212 0.249868 0.49648
265 1 0.00280533 0.312702 0.483577
17 1 0.668053 0.006419 0.00200804
286 1 0.92047 0.405286 0.482145
254 1 0.581944 0.248719 0.495744
249 1 0.334605 0.163837 0.499318
278 1 0.570792 0.413641 0.49846
226 1 0.410953 0.0798835 0.494369
230 1 0.577617 0.0718133 0.49135
246 1 0.241835 0.25535 0.486749
661 1 0.496336 0.496599 0.494469
62 1 0.576344 0.414907 0.00095026
54 1 0.24388 0.42393 0.00632381
221 1 0.15876 0.0102767 0.499518
22 1 0.911813 0.0841737 0.0143431
57 1 0.338775 0.353466 0.00715855
65 1 0.65717 0.334486 0.00719429
18 1 0.769294 0.093928 0.00816616
257 1 0.677129 0.163069 0.493451
37 1 0.492201 0.179196 0.000646194
282 1 0.749416 0.401824 0.487828
69 1 0.831211 0.337076 0.00583297
453 1 0.83679 0.493084 0.00961751
243 1 0.0771619 0.173665 0.585147
727 1 0.253623 0.492377 0.733995
30 1 0.233399 0.264369 0.994028
220 1 0.991488 0.0902322 0.578242
290 1 0.0825685 0.100833 0.664847
431 1 0.924827 0.329781 0.919328
224 1 0.164493 0.0661091 0.594888
247 1 0.254107 0.180986 0.59155
228 1 0.33348 0.0798716 0.576649
430 1 0.91499 0.420843 0.829206
289 1 0.0205255 0.00656024 0.664048
251 1 0.406261 0.161184 0.581944
25 1 0.992674 0.169432 0.996391
298 1 0.426022 0.0842378 0.67312
325 1 0.487792 0.172823 0.674474
412 1 0.999263 0.403437 0.911264
232 1 0.499487 0.0831061 0.586496
255 1 0.57896 0.153635 0.58162
219 1 0.0775461 0.0014957 0.575267
302 1 0.588927 0.0812338 0.67647
428 1 0.666277 0.415937 0.919731
303 1 0.598539 0.0103228 0.752715
236 1 0.676323 0.094481 0.582528
240 1 0.833334 0.075507 0.577175
329 1 0.656239 0.168888 0.653206
259 1 0.755761 0.171 0.582326
58 1 0.406875 0.432617 0.990589
263 1 0.917637 0.162305 0.585654
805 1 0.499179 0.486322 0.840111
61 1 0.49513 0.333334 0.99301
267 1 0.0782207 0.327007 0.576735
248 1 0.166663 0.258799 0.588497
314 1 0.0788464 0.245716 0.67218
317 1 0.168791 0.180222 0.655727
271 1 0.245485 0.328939 0.572217
318 1 0.264207 0.258712 0.663379
793 1 0.00712592 0.492314 0.844099
252 1 0.321392 0.251526 0.559049
275 1 0.403682 0.338028 0.594102
322 1 0.417349 0.245629 0.678136
441 1 0.323958 0.493877 0.990491
256 1 0.504486 0.253142 0.601516
279 1 0.590381 0.330596 0.583834
307 1 0.736683 0.0106478 0.744925
260 1 0.668802 0.243309 0.568361
264 1 0.832017 0.242341 0.58335
357 1 0.844922 0.337124 0.651614
333 1 0.843328 0.160001 0.658262
244 1 0.00177077 0.239028 0.582246
287 1 0.925902 0.342928 0.575948
334 1 0.922073 0.245585 0.682214
731 1 0.41716 0.497819 0.764686
659 1 0.421761 0.493209 0.583808
272 1 0.161174 0.406286 0.578972
222 1 0.245732 0.0791278 0.513121
432 1 0.841898 0.412423 0.911325
427 1 0.757465 0.334071 0.910235
274 1 0.425012 0.41408 0.515711
379 1 0.74918 0.00673466 0.924289
276 1 0.317534 0.409148 0.573129
280 1 0.515624 0.425083 0.589721
346 1 0.422336 0.417245 0.687413
383 1 0.902646 0.0109252 0.916357
284 1 0.675717 0.419692 0.57424
350 1 0.583208 0.42346 0.675566
349 1 0.509461 0.33878 0.66373
377 1 0.667443 0.00983339 0.838559
9 1 0.339919 0.00199134 0.986058
283 1 0.731388 0.330053 0.585999
268 1 0.989022 0.421945 0.568365
288 1 0.82893 0.406646 0.571822
358 1 0.907527 0.426396 0.659126
811 1 0.75421 0.495022 0.904963
388 1 0.00768338 0.250358 0.905167
424 1 0.498666 0.405867 0.911818
292 1 0.0155174 0.0635079 0.748012
294 1 0.259983 0.103668 0.66159
296 1 0.182771 0.0684008 0.746255
300 1 0.329449 0.0849295 0.758017
321 1 0.33621 0.174648 0.656308
223 1 0.257197 0.000486713 0.608328
304 1 0.503815 0.075881 0.743943
323 1 0.414371 0.156893 0.746993
370 1 0.421359 0.0802513 0.823858
418 1 0.414898 0.40048 0.842083
308 1 0.673144 0.096627 0.750249
374 1 0.579298 0.0804631 0.82741
419 1 0.405261 0.324361 0.917224
306 1 0.762865 0.0839453 0.675672
378 1 0.752246 0.089913 0.820486
310 1 0.925743 0.0797676 0.663694
408 1 0.844716 0.256982 0.916443
312 1 0.848132 0.0958358 0.741244
335 1 0.931305 0.159834 0.743591
315 1 0.0687899 0.158636 0.763606
341 1 0.173841 0.322112 0.680601
320 1 0.146333 0.248099 0.748455
319 1 0.240969 0.16268 0.753462
343 1 0.249903 0.337503 0.749426
324 1 0.328633 0.25351 0.760882
345 1 0.327997 0.34403 0.678647
390 1 0.238347 0.251688 0.819759
393 1 0.333318 0.170414 0.825484
328 1 0.504192 0.251408 0.74427
397 1 0.496092 0.167922 0.838112
394 1 0.425876 0.250881 0.820785
326 1 0.588663 0.24109 0.674807
327 1 0.594474 0.176091 0.757016
332 1 0.679001 0.263991 0.738642
398 1 0.593276 0.250972 0.84736
421 1 0.503481 0.324298 0.828757
330 1 0.758763 0.254853 0.667804
401 1 0.672688 0.162247 0.836581
331 1 0.761804 0.174863 0.738411
313 1 0.997343 0.179722 0.670147
316 1 0.996914 0.270356 0.746205
336 1 0.838104 0.250653 0.746884
406 1 0.919208 0.249088 0.836211
338 1 0.0914032 0.392025 0.656674
337 1 0.996407 0.324556 0.654896
339 1 0.0802418 0.345507 0.750131
344 1 0.151174 0.423926 0.750325
340 1 0.987975 0.410189 0.734436
413 1 0.177576 0.344262 0.828799
342 1 0.248138 0.410041 0.664186
414 1 0.246088 0.421514 0.840561
405 1 0.835033 0.17912 0.830253
348 1 0.342705 0.405876 0.762447
347 1 0.424715 0.333791 0.735155
70 1 0.926394 0.411562 0.995881
729 1 0.333522 0.48674 0.656837
353 1 0.652278 0.344948 0.661585
352 1 0.500254 0.422519 0.756057
422 1 0.585321 0.40633 0.834995
351 1 0.580864 0.343266 0.747656
354 1 0.748762 0.42549 0.672178
425 1 0.673781 0.331403 0.846483
355 1 0.752692 0.337083 0.745659
426 1 0.75948 0.409665 0.812463
356 1 0.659129 0.408933 0.76454
360 1 0.834583 0.427158 0.740545
385 1 0.988438 0.176308 0.843233
429 1 0.837463 0.337965 0.830235
227 1 0.411343 0.00030633 0.588743
420 1 0.327805 0.417248 0.90876
409 1 0.994001 0.338091 0.821605
359 1 0.900096 0.333701 0.738646
362 1 0.0932876 0.0702064 0.840104
364 1 0.986571 0.0919556 0.912741
387 1 0.0781364 0.154001 0.921169
368 1 0.164207 0.0801939 0.924143
415 1 0.248404 0.34897 0.922381
404 1 0.666839 0.23703 0.925647
417 1 0.324823 0.331515 0.828822
366 1 0.25902 0.0758108 0.834279
391 1 0.23583 0.165578 0.899667
231 1 0.580946 0.0031257 0.596768
372 1 0.315153 0.0943531 0.920776
376 1 0.489151 0.0863882 0.917839
803 1 0.407996 0.493771 0.900856
797 1 0.157848 0.498725 0.825041
399 1 0.582808 0.156493 0.913753
380 1 0.655072 0.0661509 0.923291
403 1 0.747936 0.162935 0.920943
402 1 0.746507 0.250684 0.824203
445 1 0.504244 0.488477 0.985126
266 1 0.0808764 0.406887 0.507268
725 1 0.169536 0.498262 0.674174
416 1 0.160748 0.432412 0.919612
384 1 0.823148 0.0861801 0.903268
382 1 0.909957 0.0786033 0.826866
407 1 0.906276 0.169524 0.918995
363 1 0.0748483 0.00732635 0.929037
410 1 0.0870518 0.408134 0.846226
389 1 0.154519 0.165672 0.819631
386 1 0.0751903 0.25589 0.828013
807 1 0.587402 0.495769 0.914554
392 1 0.162582 0.251203 0.905689
411 1 0.0896597 0.333483 0.917282
400 1 0.493686 0.244593 0.91827
396 1 0.316733 0.261643 0.92186
395 1 0.410815 0.189426 0.919158
423 1 0.58698 0.335884 0.924462
667 1 0.754209 0.499661 0.59641
305 1 0.670531 0.0138805 0.660121
371 1 0.407928 0.00596815 0.903024
311 1 0.912188 0.00112811 0.759013
10 1 0.400117 0.096521 0.997908
813 1 0.83799 0.496678 0.832061
6 1 0.242247 0.0759308 0.994479
651 1 0.0905194 0.499967 0.589094
235 1 0.753208 0.0014698 0.592222
809 1 0.669626 0.486538 0.83305
218 1 0.0709992 0.082272 0.510438
21 1 0.830899 0.00620396 0.998994
653 1 0.166587 0.482765 0.504373
66 1 0.740098 0.411725 0.994029
277 1 0.497982 0.333581 0.516822
238 1 0.908629 0.0775496 0.503013
29 1 0.177924 0.172376 0.989511
26 1 0.0848321 0.246177 0.997872
233 1 0.666555 0.00726613 0.514237
245 1 0.164915 0.158605 0.511199
33 1 0.314354 0.173111 0.994046
38 1 0.578582 0.248867 0.985253
234 1 0.760144 0.074078 0.507016
41 1 0.675262 0.164412 0.996422
49 1 0.0100706 0.330253 0.992763
250 1 0.428248 0.253384 0.511384
669 1 0.827081 0.487706 0.51055
253 1 0.504689 0.175059 0.502572
657 1 0.3486 0.484885 0.506584
262 1 0.913301 0.24984 0.506784
440 1 0.149613 0.584514 0.0992936
237 1 0.829204 0.991068 0.491088
163 1 0.760485 0.998128 0.414293
510 1 0.24885 0.577661 0.168633
474 1 0.756434 0.747528 0.00982601
5 1 0.164698 0.998877 0.00186855
461 1 0.164411 0.664034 0.00935969
444 1 0.340459 0.577022 0.0800104
467 1 0.429882 0.659372 0.0779083
153 1 0.345207 0.996127 0.339037
448 1 0.503212 0.581372 0.0851624
518 1 0.580756 0.589776 0.172428
628 1 0.988557 0.91535 0.428982
501 1 0.824634 0.840666 0.00488711
527 1 0.90138 0.510327 0.235467
452 1 0.652004 0.573006 0.0898099
686 1 0.588845 0.7589 0.49658
475 1 0.735558 0.659306 0.0836967
648 1 0.845035 0.901734 0.404063
456 1 0.844784 0.581673 0.0728416
436 1 0.9967 0.595061 0.0836043
523 1 0.757986 0.511991 0.24275
665 1 0.670665 0.503552 0.490955
7 1 0.250937 0.996692 0.0796799
459 1 0.0877788 0.664438 0.109277
483 1 0.0784283 0.834948 0.0969495
464 1 0.161074 0.748601 0.0803915
513 1 0.343663 0.501828 0.159415
670 1 0.919375 0.572107 0.497644
463 1 0.241028 0.650223 0.0842965
487 1 0.238947 0.821331 0.0665753
577 1 0.999576 0.51173 0.349714
455 1 0.924559 0.503884 0.0826323
439 1 0.247883 0.504908 0.0838363
468 1 0.33671 0.753738 0.0913012
472 1 0.50617 0.752737 0.0900192
491 1 0.417772 0.824307 0.0831607
471 1 0.577709 0.671564 0.0930115
569 1 0.662245 0.825265 0.171459
476 1 0.667847 0.737422 0.0699494
499 1 0.734804 0.8251 0.0857289
480 1 0.832494 0.750373 0.0731108
482 1 0.0823107 0.922374 0.0111056
507 1 0.0798211 0.507281 0.271829
525 1 0.822329 0.516881 0.160757
479 1 0.91401 0.674283 0.0810923
460 1 0.991908 0.741541 0.0960717
550 1 0.909587 0.756491 0.166616
484 1 0.991961 0.921289 0.0938
167 1 0.917886 0.999316 0.41433
557 1 0.173507 0.829981 0.153541
85 1 0.485733 0.9987 0.17061
488 1 0.166285 0.906437 0.0803027
492 1 0.327695 0.921519 0.0755137
558 1 0.249611 0.917176 0.155752
599 1 0.915456 0.503594 0.423308
565 1 0.491756 0.840925 0.154735
562 1 0.405438 0.92768 0.164999
517 1 0.499981 0.502352 0.168846
75 1 0.0831245 0.999263 0.247189
495 1 0.58278 0.826203 0.0854117
496 1 0.482549 0.927758 0.0795533
500 1 0.6574 0.92122 0.0898078
504 1 0.823758 0.91512 0.0810972
573 1 0.828571 0.827104 0.149289
3 1 0.0915744 0.998821 0.0874396
644 1 0.671018 0.919772 0.422595
503 1 0.914514 0.82216 0.0762694
574 1 0.91462 0.916696 0.159097
553 1 0.998307 0.82665 0.179988
443 1 0.429083 0.500001 0.0792007
506 1 0.0781213 0.581521 0.178446
619 1 0.744604 0.664325 0.423095
533 1 0.179642 0.658149 0.183301
643 1 0.749178 0.843648 0.404284
642 1 0.76092 0.912274 0.321723
512 1 0.157925 0.581346 0.254677
582 1 0.241589 0.576623 0.340964
535 1 0.261177 0.661755 0.256016
641 1 0.660868 0.835688 0.322223
514 1 0.419369 0.585349 0.173275
509 1 0.165078 0.502316 0.185681
516 1 0.330493 0.57438 0.243511
537 1 0.336367 0.66724 0.153279
586 1 0.419646 0.579014 0.344887
613 1 0.48826 0.672321 0.319942
609 1 0.340001 0.655016 0.344024
539 1 0.395489 0.659348 0.258827
640 1 0.494758 0.923695 0.41974
520 1 0.490098 0.58271 0.257632
524 1 0.66567 0.580817 0.239062
545 1 0.662578 0.683519 0.164099
639 1 0.57505 0.83172 0.408018
549 1 0.827852 0.663749 0.150841
522 1 0.744549 0.58097 0.161328
594 1 0.762161 0.582053 0.328604
502 1 0.914358 0.925843 0.00491207
493 1 0.508791 0.839156 0.0042371
508 1 0.995673 0.596366 0.25814
528 1 0.843284 0.601993 0.240832
526 1 0.9186 0.579418 0.15331
530 1 0.0809617 0.752105 0.173738
531 1 0.0953487 0.679015 0.246643
555 1 0.0856062 0.838913 0.246399
601 1 0.988144 0.659855 0.34879
534 1 0.250802 0.740789 0.166263
536 1 0.175899 0.751982 0.24251
540 1 0.333732 0.750032 0.239628
538 1 0.418552 0.747032 0.179959
561 1 0.341811 0.835948 0.1697
544 1 0.512713 0.751904 0.244476
541 1 0.495877 0.660019 0.169196
542 1 0.58019 0.751644 0.171355
543 1 0.592374 0.666177 0.244644
548 1 0.677926 0.743902 0.26075
567 1 0.585665 0.836811 0.247936
547 1 0.755884 0.66 0.248513
546 1 0.750363 0.747029 0.152897
618 1 0.754203 0.748266 0.345089
551 1 0.910551 0.68731 0.249636
532 1 0.0131481 0.758551 0.266664
552 1 0.824769 0.752104 0.23405
529 1 0.99767 0.666906 0.177474
622 1 0.911945 0.73925 0.34056
165 1 0.834745 0.99397 0.325664
554 1 0.0678934 0.915564 0.16501
626 1 0.0953342 0.91751 0.328563
585 1 0.330579 0.518914 0.353831
633 1 0.337195 0.840522 0.332921
560 1 0.172293 0.918563 0.24172
559 1 0.257056 0.837087 0.239767
630 1 0.247776 0.927851 0.333075
563 1 0.415452 0.8369 0.246028
564 1 0.336129 0.919629 0.257574
568 1 0.505006 0.914061 0.245512
635 1 0.421168 0.823911 0.419517
617 1 0.674012 0.653534 0.32955
638 1 0.591722 0.918181 0.3369
566 1 0.576919 0.91409 0.171116
634 1 0.423757 0.904253 0.332032
570 1 0.741179 0.908341 0.154126
572 1 0.661933 0.921333 0.237054
571 1 0.749791 0.831818 0.235459
576 1 0.836173 0.913385 0.229947
646 1 0.90497 0.915951 0.315424
623 1 0.921637 0.653425 0.434852
556 1 0.998606 0.922724 0.248077
645 1 0.829837 0.821255 0.318739
575 1 0.91253 0.820431 0.24551
632 1 0.172457 0.912202 0.432045
636 1 0.328062 0.912483 0.422938
578 1 0.0808135 0.587084 0.349817
603 1 0.0841491 0.677898 0.415144
605 1 0.175968 0.676868 0.327151
624 1 0.831715 0.751722 0.41631
584 1 0.173217 0.569892 0.423425
607 1 0.257885 0.65115 0.423129
155 1 0.407523 0.997979 0.425495
588 1 0.339096 0.571419 0.441051
611 1 0.427334 0.663349 0.417705
621 1 0.825701 0.660552 0.358111
592 1 0.505283 0.585658 0.411893
590 1 0.596272 0.572567 0.346551
647 1 0.928279 0.833399 0.397896
505 1 0.993609 0.510167 0.175813
625 1 0.0196737 0.851027 0.335654
596 1 0.683811 0.578201 0.418422
614 1 0.577649 0.732738 0.329949
519 1 0.5797 0.505021 0.254148
580 1 0.00409815 0.59882 0.433316
600 1 0.838256 0.578339 0.416879
598 1 0.909875 0.583476 0.32591
602 1 0.102339 0.75794 0.325448
627 1 0.0985294 0.822298 0.411611
604 1 0.994246 0.758682 0.401079
629 1 0.173859 0.837829 0.319365
606 1 0.255932 0.740259 0.344853
612 1 0.34557 0.74648 0.403919
608 1 0.178741 0.747463 0.411358
631 1 0.238139 0.827458 0.414378
23 1 0.903568 0.997793 0.0890966
147 1 0.0772509 0.99415 0.417106
610 1 0.415519 0.749012 0.323736
616 1 0.502282 0.744577 0.409474
615 1 0.579255 0.66572 0.415366
620 1 0.670735 0.746809 0.410376
637 1 0.497289 0.827031 0.325974
690 1 0.749056 0.756986 0.488673
161 1 0.675289 0.987435 0.332331
581 1 0.165987 0.503438 0.337293
713 1 0.672457 0.836362 0.495359
157 1 0.490775 0.995841 0.341503
145 1 0.992209 0.992369 0.340698
450 1 0.760582 0.583012 0.00328997
149 1 0.158399 0.998657 0.336583
515 1 0.4095 0.50231 0.267337
15 1 0.574575 0.997029 0.086887
674 1 0.103198 0.752167 0.496546
662 1 0.587833 0.568477 0.485125
666 1 0.756055 0.584897 0.49849
449 1 0.674875 0.503781 0.00709195
485 1 0.148405 0.841876 0.000583359
673 1 0.0172833 0.691257 0.490956
689 1 0.650831 0.65378 0.496618
498 1 0.73748 0.927962 0.0175758
682 1 0.424817 0.741694 0.496924
710 1 0.583386 0.936964 0.482019
437 1 0.152052 0.515045 0.0105884
694 1 0.910967 0.755156 0.483399
458 1 0.0747231 0.762542 0.018658
481 1 0.999446 0.836618 0.0109743
677 1 0.175873 0.668054 0.493931
434 1 0.0771851 0.594548 0.0115575
697 1 0.00566732 0.810716 0.499227
446 1 0.575816 0.567451 0.00874315
650 1 0.0928159 0.582865 0.494384
718 1 0.913923 0.913445 0.496771
714 1 0.749998 0.908919 0.497662
497 1 0.653917 0.842161 0.00468366
217 1 0.993874 0.9891 0.498951
494 1 0.566463 0.918111 0.0055811
675 1 0.0873667 0.656853 0.576007
375 1 0.583685 0.982147 0.926617
663 1 0.603586 0.517616 0.588248
656 1 0.17569 0.5992 0.57437
660 1 0.350584 0.572505 0.566413
299 1 0.404666 0.992074 0.75979
801 1 0.323704 0.505532 0.828575
841 1 0.00778441 0.824134 0.834901
361 1 0.98911 0.998654 0.844172
664 1 0.507534 0.567929 0.573278
687 1 0.58872 0.646439 0.586343
734 1 0.596529 0.580108 0.678488
309 1 0.82708 0.984217 0.668516
668 1 0.683375 0.58964 0.5828
738 1 0.753074 0.593243 0.66053
672 1 0.833779 0.583966 0.581102
863 1 0.902628 0.846069 0.920008
737 1 0.670943 0.500281 0.669646
652 1 0.0114444 0.576864 0.580979
695 1 0.937836 0.66373 0.570875
742 1 0.914754 0.584766 0.665892
745 1 0.00306928 0.654262 0.656975
442 1 0.419109 0.569386 0.992067
733 1 0.505244 0.50413 0.681947
746 1 0.0850307 0.737855 0.663877
680 1 0.180402 0.749523 0.574594
699 1 0.0907938 0.821286 0.591555
457 1 0.990336 0.674887 0.99194
679 1 0.265242 0.664953 0.589493
684 1 0.352529 0.726468 0.589546
750 1 0.247425 0.741221 0.680436
749 1 0.169876 0.657418 0.676882
777 1 0.347272 0.818953 0.661525
685 1 0.510174 0.676532 0.51122
489 1 0.32064 0.835298 0.996358
683 1 0.429625 0.657878 0.592761
754 1 0.43303 0.752991 0.657792
757 1 0.515114 0.656515 0.667876
761 1 0.675254 0.671604 0.667117
688 1 0.525511 0.765317 0.584721
758 1 0.592384 0.738841 0.669361
781 1 0.492061 0.841557 0.662876
691 1 0.743777 0.680272 0.575216
692 1 0.664626 0.754173 0.577249
715 1 0.748221 0.835598 0.577858
762 1 0.754214 0.764672 0.670172
676 1 0.00153474 0.752044 0.595426
696 1 0.826873 0.760918 0.577957
369 1 0.330262 0.974618 0.831864
723 1 0.0743927 0.508431 0.749405
704 1 0.154685 0.908038 0.594189
700 1 0.997142 0.903909 0.584414
239 1 0.927869 0.977387 0.58477
297 1 0.341713 0.996697 0.673117
703 1 0.256003 0.83367 0.598764
721 1 0.982691 0.506112 0.670254
859 1 0.758242 0.84063 0.913395
707 1 0.416693 0.830553 0.569738
708 1 0.34392 0.907732 0.585768
778 1 0.410195 0.912143 0.681499
795 1 0.0820446 0.507924 0.915902
711 1 0.592089 0.844022 0.570493
712 1 0.506943 0.908314 0.589053
782 1 0.603712 0.920152 0.665136
735 1 0.59595 0.505164 0.756864
716 1 0.677912 0.924516 0.579627
864 1 0.819045 0.924988 0.919168
433 1 0.98923 0.50782 0.997164
367 1 0.246596 0.998861 0.909308
654 1 0.255004 0.586843 0.505694
720 1 0.82964 0.910207 0.57962
719 1 0.90741 0.834831 0.584928
799 1 0.252387 0.506384 0.908127
739 1 0.74968 0.508343 0.753455
722 1 0.087792 0.580419 0.666309
794 1 0.0795611 0.574002 0.839623
301 1 0.507057 0.989191 0.671998
726 1 0.245813 0.574492 0.658407
860 1 0.673769 0.916599 0.930806
681 1 0.347102 0.66124 0.501628
728 1 0.184922 0.580077 0.754153
730 1 0.420745 0.563977 0.660687
658 1 0.430515 0.58608 0.501357
732 1 0.337563 0.581938 0.742991
736 1 0.505267 0.576264 0.759429
755 1 0.432157 0.668642 0.74513
802 1 0.417345 0.577954 0.840773
806 1 0.585892 0.579772 0.843624
381 1 0.832283 0.990726 0.832028
833 1 0.675941 0.683844 0.842784
765 1 0.828322 0.669759 0.649928
740 1 0.693951 0.598172 0.775046
810 1 0.779858 0.592506 0.841508
373 1 0.506257 0.989664 0.816877
655 1 0.243027 0.501629 0.583069
724 1 0.991552 0.600986 0.7548
744 1 0.836146 0.572966 0.752018
767 1 0.903578 0.659114 0.744285
837 1 0.833658 0.678999 0.824662
747 1 0.0970073 0.656842 0.752101
748 1 0.00213379 0.728915 0.732358
752 1 0.157774 0.743238 0.754902
753 1 0.343308 0.665698 0.670004
751 1 0.254115 0.666217 0.759918
775 1 0.245549 0.821953 0.752785
849 1 0.333252 0.811776 0.834783
756 1 0.339343 0.745441 0.746791
826 1 0.421329 0.74456 0.831072
760 1 0.504691 0.7519 0.748949
779 1 0.436335 0.825446 0.754149
829 1 0.504498 0.669582 0.83128
785 1 0.675854 0.832178 0.66245
759 1 0.592352 0.662731 0.761521
764 1 0.670846 0.746504 0.74719
830 1 0.595361 0.753301 0.823503
834 1 0.747922 0.753524 0.838467
763 1 0.764226 0.670746 0.734771
787 1 0.753897 0.840628 0.768002
861 1 0.831056 0.848763 0.831718
789 1 0.830331 0.847299 0.683105
766 1 0.908282 0.746968 0.664688
768 1 0.832902 0.765779 0.750511
769 1 0.999686 0.828994 0.679227
773 1 0.170451 0.82511 0.65974
771 1 0.0949189 0.844884 0.777322
770 1 0.0767531 0.893916 0.671274
772 1 0.00209882 0.915595 0.773365
842 1 0.0829695 0.92858 0.854531
843 1 0.0728473 0.845488 0.912115
774 1 0.260384 0.911269 0.663103
776 1 0.166876 0.913333 0.752797
780 1 0.331024 0.904888 0.749004
846 1 0.251825 0.900496 0.832677
365 1 0.168222 0.990673 0.832694
850 1 0.419729 0.892288 0.839048
784 1 0.516526 0.897815 0.748237
783 1 0.587056 0.835125 0.747017
854 1 0.588421 0.926402 0.842013
788 1 0.665299 0.922179 0.749206
702 1 0.244566 0.933629 0.535797
857 1 0.673329 0.840942 0.836799
858 1 0.738528 0.929616 0.839225
786 1 0.745668 0.909881 0.663689
862 1 0.908412 0.919649 0.846442
790 1 0.911402 0.927035 0.680823
792 1 0.835409 0.920063 0.756905
791 1 0.91735 0.847611 0.755453
856 1 0.496387 0.908402 0.911592
821 1 0.164785 0.660863 0.835963
820 1 0.987641 0.763806 0.919666
817 1 0.00411139 0.678556 0.830711
469 1 0.514397 0.658784 0.991461
832 1 0.510356 0.741207 0.915044
798 1 0.257429 0.587633 0.832343
800 1 0.164895 0.571954 0.903208
823 1 0.242001 0.660897 0.910796
847 1 0.254338 0.824826 0.907792
804 1 0.326595 0.579589 0.917741
808 1 0.498316 0.575681 0.915244
844 1 0.99508 0.920494 0.935576
848 1 0.162517 0.923196 0.921192
840 1 0.839087 0.7733 0.914423
812 1 0.680273 0.594257 0.904159
816 1 0.834967 0.592773 0.924735
835 1 0.763112 0.674888 0.919345
838 1 0.915232 0.749465 0.831955
852 1 0.325233 0.903614 0.913726
814 1 0.894594 0.583781 0.836789
796 1 0.00135387 0.598391 0.913419
839 1 0.924019 0.660794 0.899302
818 1 0.0954515 0.755601 0.850348
845 1 0.172158 0.828729 0.842789
819 1 0.0957325 0.659616 0.92682
824 1 0.171612 0.751609 0.9295
825 1 0.352224 0.666784 0.835473
822 1 0.249295 0.740073 0.843947
828 1 0.334539 0.746794 0.916616
853 1 0.511931 0.836387 0.833464
827 1 0.422374 0.674181 0.922115
851 1 0.419759 0.822438 0.918608
836 1 0.66475 0.752602 0.93225
831 1 0.580623 0.658698 0.907247
855 1 0.587459 0.830987 0.908398
671 1 0.915038 0.503619 0.58641
291 1 0.0829439 0.985226 0.749127
693 1 0.823324 0.666124 0.504842
490 1 0.418558 0.905261 0.999748
295 1 0.25845 0.994951 0.748396
478 1 0.912314 0.766988 0.989531
705 1 0.306932 0.845033 0.501956
13 1 0.502667 0.994677 0.990115
741 1 0.834065 0.506556 0.666345
717 1 0.836085 0.828394 0.500449
815 1 0.91931 0.505813 0.914003
293 1 0.163429 0.980284 0.672566
477 1 0.848099 0.676752 0.98907
743 1 0.914103 0.502835 0.760966
486 1 0.246131 0.925316 0.983741
701 1 0.186493 0.839345 0.523086
454 1 0.91551 0.581598 0.993424
470 1 0.579369 0.746558 0.999215
698 1 0.0620614 0.904784 0.510693
473 1 0.653175 0.645921 0.999082
678 1 0.264477 0.749004 0.506253
709 1 0.511791 0.835139 0.5006
438 1 0.252841 0.586701 0.990917
466 1 0.407337 0.757941 0.999612
465 1 0.350206 0.659146 0.99443
225 1 0.323283 0.995968 0.507307
706 1 0.415789 0.913229 0.50745
229 1 0.496456 0.999086 0.510132
462 1 0.26247 0.728184 0.999349
