ITEM: TIMESTEP
1500
ITEM: NUMBER OF ATOMS
864
ITEM: BOX BOUNDS pp pp pp
0.0000000000000000e+00 3.1559999999999999e+01
0.0000000000000000e+00 3.1559999999999999e+01
0.0000000000000000e+00 3.1559999999999999e+01
ITEM: ATOMS id type xs ys zs
4 1 -0.00513441 0.0811767 0.0897773
23 1 0.911958 -0.00103087 0.0920504
74 1 0.0897951 0.0973254 0.16611
8 1 0.175765 0.0844662 0.0731946
226 1 0.413138 0.0763444 0.509578
78 1 0.255188 0.0832151 0.163851
58 1 0.419884 0.415127 0.00514982
12 1 0.336868 0.0918937 0.0939902
35 1 0.420174 0.176911 0.0853005
439 1 0.256995 0.490932 0.0926835
95 1 0.911627 -0.00392073 0.229614
16 1 0.491814 0.0829799 0.0702378
20 1 0.663199 0.09681 0.0697239
39 1 0.588926 0.175938 0.0673717
86 1 0.592042 0.0904165 0.142034
435 1 0.0818878 0.49984 0.0757033
451 1 0.756384 0.497217 0.0787507
24 1 0.826651 0.0916062 0.083707
43 1 0.747089 0.170759 0.0887768
90 1 0.743745 0.0979141 0.166106
22 1 0.912947 0.0919188 0.0139325
214 1 0.919311 0.420466 0.323083
149 1 0.177101 -0.0129015 0.328935
94 1 0.910343 0.0804637 0.164858
447 1 0.578152 0.490442 0.0775595
27 1 0.104997 0.173127 0.0857989
51 1 0.0752282 0.354003 0.0748291
525 1 0.827258 0.517886 0.15195
583 1 0.25161 0.498695 0.428249
31 1 0.251117 0.165167 0.0773697
32 1 0.17305 0.254123 0.085349
55 1 0.250777 0.336393 0.100459
91 1 0.738102 -0.0015788 0.252348
36 1 0.327703 0.251634 0.0891092
40 1 0.491745 0.257541 0.0833175
59 1 0.39428 0.338543 0.0791262
106 1 0.405031 0.26824 0.164114
129 1 0.344257 0.349844 0.183723
44 1 0.680231 0.252825 0.0865286
517 1 0.507466 0.489805 0.167009
109 1 0.506769 0.164744 0.155589
48 1 0.842788 0.251505 0.0941279
114 1 0.745109 0.245882 0.174233
28 1 0.00776797 0.252341 0.0881058
57 1 0.323524 0.352249 -0.00976775
47 1 0.92821 0.173103 0.0901898
71 1 0.915336 0.326736 0.0899547
118 1 0.927505 0.248525 0.184602
121 1 0.0217027 0.324542 0.179993
93 1 0.817879 -0.00736572 0.155915
122 1 0.0890169 0.401928 0.172078
159 1 0.571045 0.0102264 0.418287
56 1 0.16793 0.417789 0.0818997
282 1 0.75028 0.41205 0.506967
60 1 0.328946 0.416023 0.090987
64 1 0.496764 0.404541 0.0828914
130 1 0.422743 0.418338 0.17445
133 1 0.488172 0.335107 0.162773
63 1 0.586327 0.314796 0.0742256
68 1 0.65412 0.408835 0.0890118
134 1 0.577483 0.41138 0.171935
215 1 0.915635 0.343971 0.423846
70 1 0.918057 0.405951 0.0139682
11 1 0.399433 0.00354374 0.0825985
67 1 0.75499 0.323613 0.100552
72 1 0.83502 0.41571 0.090297
141 1 0.848025 0.333282 0.168852
595 1 0.747814 0.503717 0.413192
213 1 0.838705 0.336877 0.321417
52 1 0.998836 0.433477 0.0776397
194 1 0.0894503 0.414542 0.343026
515 1 0.420427 0.489572 0.257718
99 1 0.0795074 0.154899 0.257174
146 1 0.0791433 0.079198 0.332073
81 1 0.330758 0.010325 0.175841
189 1 0.826979 0.169671 0.312057
80 1 0.162919 0.0841771 0.239729
103 1 0.249423 0.169527 0.237862
211 1 0.746523 0.335291 0.406477
82 1 0.427063 0.0950251 0.159738
84 1 0.32614 0.0935979 0.249475
88 1 0.504433 0.0858864 0.242512
107 1 0.417507 0.161085 0.25362
216 1 0.831063 0.410944 0.427283
205 1 0.514913 0.322508 0.335207
113 1 0.646283 0.172962 0.168067
158 1 0.591918 0.0771345 0.338529
206 1 0.588671 0.423444 0.343361
208 1 0.498441 0.410055 0.420819
212 1 0.671027 0.414277 0.407451
92 1 0.666084 0.0921767 0.265662
162 1 0.769784 0.0805861 0.335562
76 1 0.997805 0.0789599 0.257916
96 1 0.834946 0.070436 0.247671
166 1 0.903017 0.0670337 0.331655
157 1 0.498052 0.0206804 0.32537
193 1 0.0121305 0.3417 0.34348
98 1 0.0913396 0.241138 0.172021
101 1 0.176632 0.173336 0.165983
104 1 0.153181 0.238024 0.257537
169 1 0.993234 0.16235 0.326307
170 1 0.0792202 0.240752 0.340204
102 1 0.25953 0.258951 0.173098
173 1 0.163652 0.161441 0.341009
174 1 0.249634 0.232452 0.33501
105 1 0.334925 0.172056 0.160089
108 1 0.338424 0.240803 0.251374
131 1 0.406977 0.322178 0.267774
110 1 0.571589 0.256485 0.163846
111 1 0.574628 0.182547 0.245462
112 1 0.493579 0.258206 0.231755
116 1 0.66117 0.246448 0.244286
115 1 0.744064 0.163773 0.251482
117 1 0.836892 0.171179 0.169954
139 1 0.756135 0.335663 0.251557
190 1 0.912208 0.250589 0.346212
97 1 1.00637 0.170641 0.164308
100 1 1.00777 0.261906 0.26049
119 1 0.920437 0.156553 0.240816
120 1 0.830959 0.255847 0.261037
143 1 0.93313 0.335289 0.247573
123 1 0.085977 0.334327 0.267076
124 1 0.0121831 0.420928 0.25538
585 1 0.348823 0.505813 0.3453
186 1 0.74886 0.248092 0.336386
19 1 0.754551 0.00186829 0.0731592
125 1 0.161507 0.331256 0.183113
126 1 0.254661 0.412173 0.178397
127 1 0.243886 0.31702 0.270243
128 1 0.166261 0.41129 0.261505
187 1 0.752458 0.161692 0.420899
132 1 0.332147 0.420402 0.263768
136 1 0.499776 0.397457 0.256531
201 1 0.332681 0.318927 0.343737
209 1 0.670608 0.323513 0.3201
135 1 0.589642 0.325149 0.259547
137 1 0.666897 0.324072 0.169117
140 1 0.669267 0.408914 0.248493
188 1 0.671002 0.247678 0.423428
210 1 0.763683 0.420682 0.322094
138 1 0.754453 0.412158 0.174823
144 1 0.84464 0.426466 0.229793
142 1 0.939602 0.404056 0.166441
204 1 0.342831 0.397668 0.41836
152 1 0.157636 0.0793768 0.421299
171 1 0.0818107 0.161487 0.426185
443 1 0.410669 0.496893 0.0967075
150 1 0.24522 0.0964593 0.329179
156 1 0.330598 0.0767576 0.418029
182 1 0.587852 0.240173 0.350916
185 1 0.675681 0.16401 0.341613
509 1 0.16212 0.482109 0.177866
202 1 0.432713 0.419398 0.343033
154 1 0.40166 0.0748671 0.323857
160 1 0.4867 0.0776273 0.427924
179 1 0.404039 0.175122 0.420427
196 1 0.985975 0.418458 0.418078
172 1 1.00231 0.234707 0.424591
7 1 0.239296 -0.00638184 0.0826065
203 1 0.426915 0.328965 0.422346
207 1 0.584738 0.333569 0.424898
183 1 0.611564 0.160252 0.427861
191 1 0.904894 0.154064 0.404236
249 1 0.327716 0.158538 0.499794
523 1 0.746053 0.4983 0.252427
164 1 0.677672 0.0784361 0.412201
200 1 0.161406 0.415474 0.436888
148 1 -0.000866735 0.0867911 0.408237
168 1 0.832822 0.076956 0.430302
192 1 0.827826 0.243803 0.418246
151 1 0.243531 -0.00777139 0.421229
195 1 0.0746811 0.328947 0.431967
176 1 0.153882 0.252919 0.434003
198 1 0.253733 0.404847 0.345834
180 1 0.32284 0.249991 0.42967
197 1 0.1561 0.319156 0.343825
199 1 0.249465 0.328955 0.420768
175 1 0.247188 0.158964 0.421253
177 1 0.328506 0.161149 0.344511
184 1 0.506327 0.234545 0.425927
181 1 0.494128 0.155932 0.345739
178 1 0.426228 0.24007 0.334243
577 1 1.00098 0.494714 0.335577
587 1 0.428941 0.498458 0.419852
579 1 0.0871095 0.501187 0.421969
511 1 0.239894 0.490505 0.255232
513 1 0.33339 0.49699 0.17264
75 1 0.0754855 0.00538554 0.243781
253 1 0.503132 0.151125 0.498134
591 1 0.59074 0.499591 0.419678
521 1 0.65996 0.491332 0.169237
161 1 0.666425 0.000233569 0.337564
167 1 0.921752 -0.0068491 0.414378
597 1 0.837121 0.49606 0.327758
45 1 0.839054 0.167069 -0.00715611
89 1 0.675445 0.0214222 0.151778
85 1 0.515081 0.0148767 0.154206
61 1 0.497373 0.329871 -0.00156649
15 1 0.578711 0.00721495 0.0634943
445 1 0.500717 0.488713 -0.00365484
599 1 0.901415 0.496508 0.423643
73 1 0.00450464 0.0120528 0.160341
507 1 0.092233 0.5016 0.256533
519 1 0.585688 0.486447 0.247226
87 1 0.594688 0.0039822 0.227531
42 1 0.748524 0.252654 0.00347513
266 1 0.0656751 0.411012 0.50232
285 1 0.835808 0.326527 0.494996
46 1 0.922159 0.248998 0.0148381
441 1 0.316342 0.505517 -0.00273225
54 1 0.24376 0.425523 0.0117507
245 1 0.155464 0.17653 0.511883
669 1 0.828939 0.499983 0.500359
65 1 0.674982 0.340576 0.00191794
2 1 0.0939049 0.0678773 0.00150306
49 1 1.01232 0.340876 -0.00868239
25 1 1.0182 0.170711 0.00594535
33 1 0.338461 0.169073 -0.00117272
665 1 0.662449 0.487777 0.494726
277 1 0.517682 0.334621 0.495483
453 1 0.818657 0.499725 -0.00763117
30 1 0.256171 0.268499 -0.00953355
281 1 0.66892 0.322724 0.507972
262 1 0.909324 0.25807 0.495324
34 1 0.40164 0.265452 0.000397752
224 1 0.155834 0.085501 0.565635
795 1 0.0773391 0.497858 0.918668
243 1 0.0802932 0.168307 0.583451
270 1 0.263033 0.408405 0.500873
274 1 0.413631 0.40886 0.494638
254 1 0.593145 0.249649 0.507683
228 1 0.321818 0.0733971 0.5882
247 1 0.245786 0.154511 0.580716
17 1 0.654828 -0.00442055 0.995801
232 1 0.512257 0.0776835 0.587733
251 1 0.402968 0.155936 0.573976
298 1 0.418188 0.0838995 0.654135
430 1 0.916556 0.431785 0.837333
236 1 0.66077 0.0701201 0.604465
255 1 0.574146 0.164779 0.590177
302 1 0.582038 0.0892274 0.67556
431 1 0.916962 0.3339 0.917538
735 1 0.600806 0.490609 0.739646
240 1 0.838568 0.0773323 0.582139
306 1 0.751095 0.0853734 0.679322
220 1 1.00491 0.0842729 0.578961
235 1 0.765442 0.00432476 0.604131
805 1 0.501487 0.491222 0.835308
218 1 0.0665936 0.0748473 0.501104
244 1 0.992155 0.248641 0.584038
248 1 0.178319 0.259654 0.58015
267 1 0.0843538 0.320153 0.579066
50 1 0.0829822 0.415535 0.996287
271 1 0.248276 0.343347 0.593354
318 1 0.249177 0.248821 0.672729
252 1 0.321758 0.262044 0.588621
256 1 0.493178 0.233179 0.579719
275 1 0.422188 0.341028 0.586207
322 1 0.40897 0.259051 0.665314
345 1 0.326065 0.332957 0.685758
41 1 0.676698 0.161651 0.995617
260 1 0.657807 0.252215 0.588609
279 1 0.572823 0.337964 0.576523
326 1 0.57643 0.247636 0.670516
259 1 0.750133 0.170996 0.589675
283 1 0.74811 0.335899 0.585543
330 1 0.753657 0.249231 0.676205
353 1 0.670011 0.33702 0.67154
263 1 0.898479 0.16441 0.586199
264 1 0.836062 0.254653 0.582004
287 1 0.910424 0.340024 0.577599
286 1 0.915308 0.418842 0.515845
237 1 0.835911 0.00229163 0.513035
269 1 0.182816 0.334352 0.514631
337 1 0.987519 0.33815 0.659368
338 1 0.0756758 0.422319 0.67123
426 1 0.756336 0.413901 0.841426
427 1 0.770903 0.324599 0.911228
272 1 0.161728 0.40643 0.587333
276 1 0.344664 0.423494 0.584839
341 1 0.177793 0.338731 0.677146
342 1 0.26336 0.420336 0.673262
10 1 0.414106 0.0809632 0.998256
449 1 0.667967 0.483834 1.0122
346 1 0.407431 0.421461 0.677725
69 1 0.830573 0.335938 1.01721
280 1 0.496899 0.412233 0.569596
284 1 0.672419 0.407227 0.591616
349 1 0.500339 0.325108 0.67096
350 1 0.580227 0.419075 0.649235
803 1 0.407903 0.494612 0.927549
432 1 0.851136 0.414819 0.914144
422 1 0.595097 0.420633 0.83119
354 1 0.756297 0.426787 0.676351
268 1 1.00453 0.424527 0.59163
288 1 0.827236 0.414542 0.57947
1 1 0.99064 0.000186859 1.01119
727 1 0.254738 0.510816 0.757926
290 1 0.0851874 0.0860597 0.658145
315 1 0.08737 0.168493 0.746898
424 1 0.495227 0.416564 0.92135
294 1 0.242895 0.0799723 0.665027
296 1 0.156496 0.0855284 0.753778
317 1 0.166259 0.165687 0.665752
319 1 0.242399 0.158237 0.747414
311 1 0.928153 0.0163217 0.742997
300 1 0.347012 0.0748892 0.742538
370 1 0.41233 0.0992908 0.833655
323 1 0.426688 0.178813 0.745537
393 1 0.336349 0.176379 0.833554
304 1 0.496854 0.088782 0.771385
374 1 0.585966 0.0920491 0.826746
308 1 0.662896 0.100235 0.752629
329 1 0.663195 0.164309 0.654695
428 1 0.677325 0.415592 0.920816
378 1 0.755551 0.0778829 0.825259
312 1 0.841783 0.0835057 0.756332
401 1 0.668674 0.163437 0.8439
655 1 0.254312 0.489139 0.593704
292 1 0.0129829 0.093067 0.73935
310 1 0.919327 0.0879287 0.661054
382 1 0.932021 0.0966664 0.815304
313 1 -0.0103931 0.17303 0.667756
335 1 0.919933 0.172362 0.750942
314 1 0.0855334 0.253369 0.659475
316 1 0.00667842 0.267404 0.74581
386 1 0.0778905 0.262864 0.843512
320 1 0.160445 0.247623 0.746792
389 1 0.154681 0.16943 0.829631
339 1 0.0807166 0.350298 0.743883
413 1 0.155859 0.351707 0.827654
321 1 0.328547 0.159232 0.671976
343 1 0.241487 0.329207 0.766801
324 1 0.329107 0.249048 0.76043
394 1 0.427025 0.255016 0.819747
325 1 0.490871 0.166572 0.65442
327 1 0.594568 0.180738 0.760805
328 1 0.509053 0.272229 0.754828
397 1 0.50005 0.182058 0.830763
398 1 0.600924 0.262864 0.830662
421 1 0.494015 0.349257 0.825033
331 1 0.744259 0.169993 0.757017
332 1 0.660743 0.259222 0.746008
402 1 0.767739 0.253089 0.829817
333 1 0.833627 0.171842 0.682623
355 1 0.756135 0.340264 0.741907
425 1 0.689301 0.330838 0.845065
357 1 0.835311 0.329568 0.662373
334 1 0.912275 0.25998 0.67821
336 1 0.843738 0.252221 0.758656
340 1 0.988516 0.42492 0.739764
409 1 -0.00485276 0.336907 0.839823
807 1 0.589911 0.49881 0.919894
241 1 0.969319 0.165279 0.500068
375 1 0.586661 -0.000940291 0.919766
344 1 0.171559 0.429487 0.751002
414 1 0.253758 0.429329 0.82918
667 1 0.75286 0.496257 0.58527
347 1 0.420607 0.345411 0.74491
348 1 0.332528 0.41906 0.761845
418 1 0.411539 0.426452 0.835054
729 1 0.343077 0.503418 0.672079
351 1 0.583409 0.343245 0.749106
352 1 0.500021 0.423818 0.748645
356 1 0.68578 0.422337 0.763093
233 1 0.673226 -0.000393411 0.50698
360 1 0.843497 0.419524 0.747325
429 1 0.832812 0.338865 0.829839
358 1 0.915697 0.419986 0.660623
359 1 0.925652 0.344283 0.756529
657 1 0.338899 0.490181 0.48918
257 1 0.670812 0.169122 0.513737
362 1 0.0822053 0.0815848 0.823046
261 1 0.837891 0.171681 0.491243
230 1 0.588172 0.0734922 0.516809
391 1 0.242783 0.165637 0.922413
366 1 0.235814 0.086883 0.842042
368 1 0.163749 0.0900802 0.919955
295 1 0.25759 0.0173482 0.754834
26 1 0.0904947 0.252666 1.0038
410 1 0.0786123 0.418449 0.831193
372 1 0.339353 0.0925575 0.919287
395 1 0.426857 0.194198 0.918494
412 1 1.00005 0.423066 0.903179
376 1 0.510833 0.0890719 0.906377
380 1 0.675984 0.0685935 0.917838
399 1 0.598832 0.169132 0.917146
384 1 0.837253 0.0759194 0.890773
416 1 0.157371 0.421749 0.91145
13 1 0.496521 -0.0074686 0.984679
242 1 0.0767001 0.249406 0.504499
37 1 0.514611 0.207818 0.995501
385 1 0.0101844 0.172685 0.830351
405 1 0.828084 0.167712 0.83545
364 1 1.00778 0.076556 0.921613
420 1 0.307634 0.422636 0.921056
387 1 0.0834242 0.172352 0.915762
388 1 -0.0106768 0.251265 0.931665
411 1 0.0973358 0.34229 0.914858
415 1 0.247742 0.334877 0.899817
392 1 0.169154 0.261792 0.913285
390 1 0.236027 0.244026 0.838974
371 1 0.404253 0.00528936 0.906014
419 1 0.403668 0.349972 0.924027
406 1 0.923673 0.253261 0.833466
417 1 0.327918 0.344337 0.839019
396 1 0.331331 0.261198 0.910558
407 1 0.924381 0.167134 0.902847
423 1 0.591361 0.345561 0.910742
404 1 0.684045 0.247187 0.907113
400 1 0.50844 0.269582 0.896427
403 1 0.763955 0.173899 0.914826
303 1 0.589861 0.00378785 0.752315
408 1 0.850734 0.250221 0.926216
21 1 0.835299 0.00996716 1.00283
289 1 0.00990886 0.00139554 0.657039
369 1 0.326281 0.0291267 0.837678
238 1 0.917043 0.0642704 0.496884
381 1 0.842749 -0.00737538 0.808379
293 1 0.159657 0.00981805 0.68361
234 1 0.749294 0.0882848 0.500421
66 1 0.758989 0.409445 1.00271
661 1 0.5136 0.500366 0.49554
813 1 0.834094 0.510932 0.829466
29 1 0.15336 0.171904 0.992484
229 1 0.495603 -0.00263399 0.494733
659 1 0.431116 0.499413 0.567639
265 1 -0.00304744 0.32299 0.49505
723 1 0.0806933 0.503164 0.748852
239 1 0.92002 -0.015616 0.60243
62 1 0.574831 0.410374 1.00794
365 1 0.158942 0.00345908 0.830192
6 1 0.260715 0.0785898 1.00806
297 1 0.334021 -0.00335892 0.662998
14 1 0.57909 0.0928097 0.998781
246 1 0.246285 0.237076 0.504576
53 1 0.172172 0.341949 0.99957
18 1 0.75552 0.081077 0.996893
278 1 0.588959 0.411588 0.508535
222 1 0.243548 0.0700602 0.478725
38 1 0.601889 0.261487 0.97237
250 1 0.410668 0.247672 0.517309
273 1 0.340174 0.336828 0.521632
649 1 0.991496 0.520875 0.509272
258 1 0.758731 0.250595 0.497988
685 1 0.503564 0.66805 0.495171
440 1 0.172134 0.571472 0.0918674
650 1 0.0792435 0.5758 0.496215
469 1 0.483311 0.667644 0.0129781
510 1 0.241807 0.580634 0.167333
533 1 0.171686 0.666482 0.179909
444 1 0.314435 0.578639 0.0775826
448 1 0.498967 0.56626 0.0795116
442 1 0.410124 0.565411 0.0055078
514 1 0.423621 0.575254 0.184762
147 1 0.0837052 0.996771 0.404709
452 1 0.666185 0.577953 0.0744147
518 1 0.597787 0.574803 0.148433
702 1 0.239318 0.903682 0.484998
593 1 0.665241 0.498829 0.328236
475 1 0.746481 0.663739 0.0837987
489 1 0.316835 0.821399 -0.00620144
436 1 -0.00367505 0.582783 0.0978393
456 1 0.85236 0.596816 0.0912449
153 1 0.319443 0.987491 0.328979
5 1 0.176918 1.00978 -0.0133266
83 1 0.425536 1.0055 0.225362
459 1 0.11125 0.675914 0.0864357
454 1 0.934084 0.592508 -0.00364987
553 1 0.996716 0.8222 0.168652
455 1 0.918331 0.511409 0.0658516
77 1 0.159083 1.00576 0.158923
463 1 0.246154 0.661874 0.0793289
464 1 0.184072 0.745812 0.0666705
534 1 0.26012 0.743614 0.177698
467 1 0.409066 0.648034 0.0768723
468 1 0.334483 0.738577 0.0964397
491 1 0.427261 0.831314 0.084592
472 1 0.503913 0.749458 0.0724332
537 1 0.343682 0.649421 0.168768
565 1 0.50167 0.836915 0.163291
79 1 0.246732 1.013 0.246909
471 1 0.576588 0.656686 0.0826579
495 1 0.593238 0.838013 0.0907035
476 1 0.667096 0.736735 0.0811513
527 1 0.922389 0.501099 0.242946
499 1 0.744503 0.822227 0.0676869
546 1 0.744811 0.732855 0.170023
460 1 1.01526 0.749316 0.0903943
589 1 0.504533 0.495287 0.339332
479 1 0.920524 0.678547 0.0864672
480 1 0.827621 0.748237 0.0974587
503 1 0.920268 0.833034 0.0750806
483 1 0.0828648 0.829222 0.0860796
478 1 0.933313 0.755278 -0.00254954
678 1 0.223392 0.755072 0.503618
487 1 0.253564 0.838067 0.102773
488 1 0.162355 0.913813 0.0803245
492 1 0.331044 0.919539 0.0895996
647 1 0.909994 0.844834 0.416089
163 1 0.745442 0.996808 0.414966
496 1 0.497916 0.933432 0.069498
561 1 0.346405 0.843754 0.171164
645 1 0.81403 0.833715 0.333851
686 1 0.581683 0.749954 0.484952
145 1 0.99095 0.988703 0.320265
500 1 0.661558 0.923422 0.0687931
697 1 0.0186921 0.841867 0.488896
709 1 0.496646 0.823796 0.489546
484 1 1.00584 0.923564 0.0760902
504 1 0.822285 0.925302 0.0725712
701 1 0.154972 0.829774 0.475043
648 1 0.829202 0.92022 0.410059
623 1 0.909474 0.670897 0.420384
614 1 0.589444 0.741945 0.324305
506 1 0.0967721 0.58635 0.166696
508 1 0.00524384 0.577576 0.261054
531 1 0.0839785 0.663939 0.253589
601 1 0.99605 0.658193 0.329477
512 1 0.180195 0.577175 0.252589
516 1 0.339068 0.568299 0.251782
535 1 0.269854 0.649097 0.25092
639 1 0.570832 0.846161 0.40216
520 1 0.506704 0.589983 0.257779
541 1 0.490414 0.665663 0.155924
616 1 0.506161 0.741633 0.413025
620 1 0.666572 0.758036 0.41233
617 1 0.667092 0.66996 0.32629
524 1 0.65246 0.58783 0.244569
543 1 0.575435 0.671917 0.247495
545 1 0.662078 0.660941 0.165823
590 1 0.58827 0.583888 0.327017
165 1 0.823995 0.99455 0.32325
662 1 0.583791 0.583921 0.506792
642 1 0.742737 0.919884 0.333848
522 1 0.740766 0.579699 0.158783
594 1 0.763216 0.574455 0.335996
526 1 0.921879 0.583341 0.177275
528 1 0.828779 0.585162 0.235016
529 1 -0.00574147 0.666664 0.180686
549 1 0.833562 0.670255 0.172243
551 1 0.899229 0.665255 0.253871
627 1 0.0822234 0.833248 0.398616
530 1 0.0755907 0.741399 0.180093
602 1 0.0734805 0.743476 0.335676
536 1 0.190837 0.742883 0.25964
557 1 0.154156 0.814564 0.168468
559 1 0.252158 0.836111 0.231496
540 1 0.353351 0.745947 0.254195
613 1 0.501102 0.669194 0.328663
538 1 0.420658 0.7576 0.163852
539 1 0.433722 0.675666 0.242732
563 1 0.426942 0.838775 0.250017
544 1 0.508355 0.762302 0.236692
641 1 0.660619 0.840089 0.342067
542 1 0.584912 0.750718 0.161246
618 1 0.738472 0.753472 0.338564
547 1 0.748494 0.660206 0.256627
548 1 0.658336 0.755692 0.245188
552 1 0.826624 0.742828 0.246855
573 1 0.820142 0.840543 0.16313
532 1 0.992401 0.739638 0.253297
550 1 0.914489 0.749404 0.170665
575 1 0.918394 0.819949 0.250392
622 1 0.911325 0.748291 0.340489
625 1 0.976028 0.848931 0.338608
626 1 0.0657246 0.911697 0.322219
555 1 0.0648644 0.819395 0.255326
554 1 0.0675662 0.911774 0.164987
556 1 0.993037 0.907063 0.240399
558 1 0.258058 0.93234 0.165931
560 1 0.144707 0.923701 0.247388
564 1 0.328382 0.927923 0.245865
3 1 0.0921229 1.00068 0.0864244
634 1 0.414351 0.918797 0.323309
562 1 0.428019 0.916367 0.15607
568 1 0.519778 0.936942 0.235143
638 1 0.593245 0.924258 0.327229
628 1 -0.00383798 0.928529 0.421
567 1 0.579966 0.843048 0.230269
569 1 0.670176 0.825764 0.165859
566 1 0.59158 0.930341 0.150151
572 1 0.666774 0.915538 0.238218
571 1 0.74105 0.826513 0.253146
570 1 0.731949 0.917466 0.150838
576 1 0.81286 0.924298 0.245458
646 1 0.901262 0.922568 0.324854
225 1 0.319175 0.996068 0.503574
574 1 0.915485 0.904365 0.169382
644 1 0.658924 0.910809 0.419571
578 1 0.0899393 0.587917 0.32939
580 1 0.985841 0.586183 0.413942
584 1 0.158431 0.583052 0.41339
605 1 0.180357 0.659389 0.333475
624 1 0.838472 0.746892 0.413004
582 1 0.257864 0.572307 0.325436
636 1 0.335557 0.910912 0.415042
586 1 0.428985 0.590463 0.333563
588 1 0.328393 0.586299 0.418519
592 1 0.514976 0.564499 0.418631
640 1 0.504476 0.933674 0.397911
466 1 0.410499 0.759771 0.00890479
615 1 0.591855 0.664032 0.418471
596 1 0.675621 0.590449 0.396956
446 1 0.584601 0.569545 -0.00537456
630 1 0.241245 0.899049 0.329083
619 1 0.761006 0.664249 0.41391
611 1 0.427107 0.659784 0.425707
598 1 0.909384 0.577984 0.325152
600 1 0.829607 0.580202 0.416164
632 1 0.158829 0.916862 0.409509
610 1 0.424128 0.752452 0.344017
603 1 0.0763194 0.65324 0.409397
604 1 1.00017 0.741334 0.4268
608 1 0.159252 0.735121 0.41041
643 1 0.740857 0.835663 0.414128
633 1 0.337965 0.838128 0.325664
606 1 0.260888 0.735357 0.339396
607 1 0.247085 0.66749 0.428975
629 1 0.157549 0.825454 0.314556
631 1 0.24454 0.823426 0.397298
612 1 0.339873 0.760798 0.414643
621 1 0.820452 0.678117 0.328083
635 1 0.41975 0.837878 0.412857
637 1 0.501422 0.848581 0.320007
609 1 0.345535 0.665343 0.35241
505 1 0.0372772 0.498049 0.170924
698 1 0.0921506 0.915777 0.486563
155 1 0.419302 0.990771 0.411114
473 1 0.670757 0.671448 -0.00488945
581 1 0.178432 0.492577 0.348715
457 1 0.00902773 0.679017 0.00531081
706 1 0.417763 0.921301 0.503396
713 1 0.667644 0.84495 0.50473
710 1 0.568264 0.903666 0.500725
658 1 0.412745 0.571197 0.494597
437 1 0.156651 0.501051 -0.00144481
694 1 0.915342 0.755924 0.492997
717 1 0.807547 0.841862 0.491294
502 1 0.910819 0.923212 0.00173699
482 1 0.0922109 0.912398 -0.00673042
434 1 0.0934579 0.598106 0.0156231
689 1 0.671355 0.654523 0.493678
477 1 0.855688 0.670539 0.0146199
465 1 0.330508 0.668811 0.00207805
485 1 0.168141 0.831031 0.00170946
486 1 0.243446 0.921588 0.00668441
693 1 0.833215 0.667438 0.500174
841 1 0.997991 0.832435 0.840581
383 1 0.902894 0.995005 0.908331
722 1 0.085 0.595313 0.66578
745 1 0.00166758 0.682919 0.687633
656 1 0.160508 0.586008 0.578489
660 1 0.328427 0.567809 0.584716
493 1 0.504181 0.835022 1.00704
862 1 0.921695 0.922325 0.831632
726 1 0.24885 0.579718 0.670504
217 1 0.996699 0.991948 0.505014
223 1 0.245203 1.00667 0.585731
739 1 0.750554 0.506168 0.7431
863 1 0.91531 0.845284 0.918325
844 1 0.00151144 0.932046 0.928069
664 1 0.492592 0.574541 0.566672
864 1 0.831394 0.906084 0.932917
670 1 0.911228 0.58553 0.498423
668 1 0.663038 0.589171 0.582471
859 1 0.743868 0.828235 0.9107
691 1 0.756402 0.677821 0.57678
652 1 -0.0101464 0.606968 0.607099
681 1 0.337071 0.669908 0.480186
672 1 0.828732 0.58209 0.566464
695 1 0.914267 0.674453 0.578617
860 1 0.674722 0.919047 0.911679
675 1 0.0770828 0.672656 0.599944
746 1 0.0906708 0.754612 0.683692
679 1 0.240367 0.661269 0.562338
680 1 0.166212 0.73197 0.596882
684 1 0.306735 0.741409 0.574369
753 1 0.334376 0.659994 0.638969
714 1 0.756949 0.932232 0.516804
683 1 0.428359 0.657728 0.570647
707 1 0.401128 0.812969 0.590504
754 1 0.413524 0.745549 0.668762
653 1 0.168856 0.488181 0.501681
687 1 0.578246 0.672241 0.573045
688 1 0.501822 0.755511 0.573585
711 1 0.585679 0.832176 0.584249
692 1 0.664696 0.756624 0.57546
715 1 0.740304 0.826851 0.587712
762 1 0.738011 0.752843 0.664684
673 1 0.995463 0.659937 0.497796
676 1 0.996474 0.751715 0.587632
696 1 0.831594 0.765831 0.556722
699 1 0.0860446 0.830014 0.583666
700 1 0.00862253 0.912398 0.590302
704 1 0.16898 0.915166 0.581072
770 1 0.0945254 0.913745 0.671256
703 1 0.246064 0.841527 0.581079
708 1 0.341381 0.911343 0.581546
774 1 0.260165 0.924022 0.653768
854 1 0.577731 0.91236 0.845808
778 1 0.423376 0.916068 0.655659
811 1 0.755614 0.514625 0.908125
712 1 0.49571 0.917424 0.571435
782 1 0.574921 0.913955 0.6556
716 1 0.664119 0.916876 0.580505
720 1 0.823763 0.898467 0.599684
786 1 0.73522 0.923831 0.665715
301 1 0.502126 0.99838 0.667774
856 1 0.490823 0.905647 0.912978
719 1 0.926746 0.832245 0.574705
789 1 0.833487 0.817783 0.669601
851 1 0.420156 0.821305 0.918999
794 1 0.0769834 0.580856 0.826576
361 1 0.00442078 0.998247 0.839282
728 1 0.161513 0.581623 0.746782
798 1 0.245592 0.581188 0.836147
732 1 0.337984 0.571643 0.75256
730 1 0.415836 0.582735 0.671266
802 1 0.421726 0.585796 0.838673
736 1 0.502814 0.567535 0.745345
755 1 0.421784 0.666853 0.74605
501 1 0.834698 0.823071 1.0087
734 1 0.580371 0.582516 0.670129
740 1 0.666009 0.583287 0.740449
757 1 0.489431 0.666914 0.661902
761 1 0.664624 0.669307 0.662059
793 1 0.998321 0.499691 0.814902
738 1 0.742143 0.594103 0.664978
810 1 0.756276 0.609903 0.826797
744 1 0.840153 0.583253 0.756051
837 1 0.847118 0.665312 0.827396
724 1 0.98325 0.590463 0.758041
742 1 0.900606 0.602045 0.671079
767 1 0.908791 0.681531 0.745787
747 1 0.0847515 0.665331 0.756387
817 1 0.999296 0.663431 0.837917
818 1 0.08712 0.748583 0.825586
752 1 0.169745 0.7594 0.751805
749 1 0.177659 0.65828 0.672806
750 1 0.259075 0.744525 0.67968
751 1 0.256647 0.662009 0.755238
756 1 0.344565 0.739734 0.761733
779 1 0.408258 0.834135 0.730695
760 1 0.498373 0.748395 0.742863
781 1 0.501405 0.837972 0.654846
758 1 0.578868 0.752492 0.661215
759 1 0.573743 0.659567 0.752224
830 1 0.565103 0.743557 0.841935
853 1 0.494354 0.832418 0.836464
763 1 0.761768 0.676572 0.73619
764 1 0.662836 0.759211 0.75404
787 1 0.743307 0.832274 0.756083
857 1 0.663078 0.822549 0.843415
765 1 0.830033 0.671742 0.659245
748 1 -0.0007469 0.762597 0.755601
766 1 0.932975 0.767126 0.675952
768 1 0.839221 0.749212 0.759781
769 1 0.0088461 0.826636 0.669077
771 1 0.0857008 0.83297 0.747845
776 1 0.184565 0.916621 0.739979
815 1 0.910396 0.499869 0.924429
852 1 0.336078 0.90879 0.914539
773 1 0.170361 0.831768 0.663655
775 1 0.248405 0.82947 0.74395
777 1 0.327781 0.836158 0.656174
780 1 0.325149 0.913984 0.745085
850 1 0.416431 0.921771 0.816697
377 1 0.665788 1.00326 0.835977
498 1 0.739995 0.905744 0.994026
783 1 0.572381 0.826676 0.752542
784 1 0.492202 0.906641 0.74572
731 1 0.421923 0.500245 0.740672
785 1 0.660023 0.829798 0.661881
788 1 0.660228 0.90917 0.749076
858 1 0.756753 0.930237 0.828728
792 1 0.82714 0.893704 0.752464
790 1 0.919236 0.897253 0.662607
791 1 0.912307 0.828279 0.759628
772 1 0.999811 0.916916 0.738839
846 1 0.232901 0.936022 0.826402
796 1 0.0112424 0.581519 0.915764
819 1 0.0822148 0.658949 0.918413
737 1 0.668498 0.501347 0.655789
438 1 0.239206 0.578488 1.00655
823 1 0.252101 0.661465 0.914468
804 1 0.328696 0.578702 0.927356
800 1 0.163185 0.577188 0.920123
849 1 0.341619 0.83609 0.826845
808 1 0.486416 0.568976 0.92034
474 1 0.74164 0.753958 0.983753
812 1 0.659243 0.601413 0.922369
806 1 0.568573 0.579262 0.833628
733 1 0.497091 0.490831 0.65791
299 1 0.42432 1.00856 0.738143
835 1 0.750362 0.659796 0.926018
721 1 -0.00130378 0.502159 0.671286
816 1 0.84033 0.603179 0.926597
839 1 0.919777 0.669965 0.917917
814 1 0.923893 0.578557 0.855484
843 1 0.0939577 0.83417 0.912025
820 1 0.0180348 0.752452 0.909681
821 1 0.165005 0.659104 0.836932
845 1 0.170956 0.84701 0.828124
725 1 0.163378 0.492381 0.658229
847 1 0.240673 0.816882 0.905177
824 1 0.164324 0.738892 0.917724
828 1 0.33676 0.74105 0.917651
822 1 0.233873 0.743803 0.839933
827 1 0.417519 0.657274 0.921489
825 1 0.33346 0.668348 0.835979
826 1 0.423771 0.75218 0.830997
829 1 0.497099 0.656307 0.835753
379 1 0.758372 0.993643 0.924517
743 1 0.914814 0.506127 0.74778
797 1 0.152783 0.497418 0.838377
855 1 0.581323 0.822754 0.915017
832 1 0.486383 0.747353 0.934083
831 1 0.560907 0.658523 0.92155
363 1 0.0890889 0.993506 0.918699
836 1 0.650332 0.737142 0.90547
833 1 0.664907 0.662352 0.821247
834 1 0.74327 0.745748 0.822664
227 1 0.411213 1.00756 0.582991
840 1 0.832 0.749048 0.914287
838 1 0.921541 0.752903 0.840407
861 1 0.832222 0.830955 0.837263
367 1 0.265486 1.00302 0.921957
848 1 0.172129 0.909088 0.919372
842 1 0.0787626 0.914867 0.832981
654 1 0.249885 0.571436 0.502639
461 1 0.175216 0.666472 0.993887
741 1 0.836212 0.517105 0.665512
231 1 0.58294 0.984129 0.573972
663 1 0.583989 0.508008 0.589306
307 1 0.748746 1.00435 0.74325
690 1 0.74468 0.758264 0.495832
373 1 0.504505 1.0004 0.841013
291 1 0.0823058 0.98565 0.757038
458 1 0.0880688 0.746023 1.00229
682 1 0.421992 0.7516 0.502597
666 1 0.75016 0.581221 0.497266
309 1 0.843213 0.97974 0.680586
305 1 0.66088 0.99905 0.679925
809 1 0.667928 0.508595 0.823676
219 1 0.0841467 0.994371 0.582742
799 1 0.239126 0.503513 0.928752
671 1 0.910726 0.504689 0.588471
9 1 0.328135 0.991061 1.00654
801 1 0.339528 0.510689 0.85124
651 1 0.0773938 0.507522 0.585321
490 1 0.398862 0.894937 1.0019
462 1 0.244674 0.748805 0.986393
677 1 0.140535 0.659603 0.500392
450 1 0.744549 0.584713 0.999628
481 1 1.01824 0.826079 0.98725
470 1 0.588879 0.745935 1.00738
674 1 0.0807395 0.755148 0.499712
221 1 0.172356 1.00028 0.50885
433 1 1.00105 0.493132 0.992335
497 1 0.658959 0.831106 0.993763
718 1 0.91554 0.92323 0.498998
494 1 0.576863 0.917623 0.986153
705 1 0.339517 0.831915 0.491824
