ITEM: TIMESTEP
27600
ITEM: NUMBER OF ATOMS
864
ITEM: BOX BOUNDS pp pp pp
0.0000000000000000e+00 3.1559999999999999e+01
0.0000000000000000e+00 3.1559999999999999e+01
0.0000000000000000e+00 3.1559999999999999e+01
ITEM: ATOMS id type xs ys zs
74 1 0.0814191 0.075623 0.169307
101 1 0.153547 0.164796 0.17532
69 1 0.83339 0.324539 -0.00574937
8 1 0.165848 0.0809168 0.091209
78 1 0.248722 0.0891931 0.157203
31 1 0.241306 0.191225 0.0761553
649 1 -0.00393132 0.489855 0.512721
12 1 0.334627 0.0790533 0.0960267
16 1 0.518399 0.0921793 0.0792059
35 1 0.419854 0.178329 0.0868305
669 1 0.824875 0.502616 0.489401
65 1 0.662143 0.341134 -0.000181635
39 1 0.597554 0.182449 0.0759946
29 1 0.154359 0.175096 0.0127746
147 1 0.0969745 -0.0120815 0.414484
20 1 0.667895 0.0685799 0.0602819
24 1 0.813934 0.065153 0.0730678
43 1 0.729119 0.157069 0.0717867
81 1 0.347182 0.0256183 0.185999
4 1 1.01108 0.0767648 0.0886196
25 1 1.00846 0.155725 0.008474
27 1 0.0845249 0.16777 0.0888114
28 1 -0.00302662 0.235768 0.0852501
97 1 0.00150167 0.156009 0.171065
98 1 0.0831384 0.242884 0.169179
282 1 0.736459 0.42423 0.496445
66 1 0.750436 0.415191 0.00194178
149 1 0.175825 -0.00612181 0.333607
32 1 0.16003 0.260212 0.0862613
102 1 0.239615 0.236914 0.174572
55 1 0.258067 0.32771 0.102298
36 1 0.342747 0.251103 0.0734407
40 1 0.503198 0.271938 0.0932893
106 1 0.421674 0.24392 0.17279
63 1 0.580888 0.352186 0.0946708
110 1 0.578648 0.266085 0.162274
286 1 0.912828 0.42114 0.507254
44 1 0.661872 0.263594 0.0791157
46 1 0.929834 0.24265 0.0030501
114 1 0.750394 0.261133 0.160711
47 1 0.909269 0.167291 0.076802
48 1 0.835987 0.252255 0.0838382
71 1 0.930828 0.336949 0.0756356
118 1 0.916672 0.247217 0.167092
261 1 0.835109 0.167419 0.50207
234 1 0.764338 0.0820284 0.488881
661 1 0.483275 0.500059 0.499972
51 1 0.0858666 0.339943 0.079805
121 1 0.995848 0.328472 0.175389
122 1 0.0877174 0.42331 0.180348
56 1 0.166223 0.399289 0.111126
60 1 0.32866 0.414128 0.0812686
523 1 0.754155 0.479015 0.264731
59 1 0.416672 0.331075 0.0992982
258 1 0.762201 0.248659 0.516717
64 1 0.486455 0.410029 0.0844384
67 1 0.741751 0.338474 0.0726251
68 1 0.667748 0.427056 0.0848783
521 1 0.657472 0.493622 0.176856
589 1 0.492361 0.498666 0.348257
52 1 0.012459 0.421393 0.0898875
72 1 0.832448 0.412759 0.0716818
581 1 0.172233 0.503599 0.330964
585 1 0.311609 0.495356 0.334199
99 1 0.0684709 0.170165 0.258999
76 1 0.991368 0.0845917 0.26365
146 1 0.0894033 0.0806458 0.336874
513 1 0.329703 0.502249 0.156337
525 1 0.833011 0.484556 0.16348
80 1 0.167005 0.0868744 0.247235
150 1 0.247846 0.0876092 0.333248
103 1 0.235946 0.172877 0.255078
84 1 0.338425 0.107857 0.270989
82 1 0.433856 0.0974348 0.145045
154 1 0.428956 0.0866781 0.331508
88 1 0.506036 0.0916328 0.221474
105 1 0.338755 0.163243 0.163619
196 1 1.00298 0.42264 0.424074
86 1 0.598489 0.0893328 0.156003
92 1 0.659529 0.0787242 0.241715
113 1 0.66951 0.18086 0.164232
181 1 0.524505 0.158319 0.33124
90 1 0.736304 0.0782323 0.149208
214 1 0.912529 0.42201 0.346693
198 1 0.240722 0.398775 0.332716
115 1 0.732214 0.168838 0.250405
94 1 0.897636 0.083462 0.153724
96 1 0.827044 0.0856746 0.233
100 1 0.995372 0.238385 0.254474
104 1 0.155491 0.253907 0.251209
170 1 0.0778458 0.247856 0.33367
174 1 0.251147 0.263279 0.332841
107 1 0.43727 0.165622 0.248536
108 1 0.335432 0.248707 0.257145
131 1 0.402987 0.339172 0.242417
109 1 0.506598 0.172662 0.165403
133 1 0.498623 0.340495 0.173252
111 1 0.587011 0.17246 0.2473
112 1 0.505848 0.251795 0.242914
116 1 0.658144 0.254484 0.24082
135 1 0.575662 0.327415 0.252761
186 1 0.735388 0.267134 0.33195
139 1 0.764352 0.339834 0.260117
141 1 0.846053 0.326901 0.157654
169 1 0.993105 0.166311 0.334197
117 1 0.819857 0.172259 0.161169
189 1 0.8181 0.175551 0.330405
120 1 0.844892 0.261104 0.253259
119 1 0.912225 0.157507 0.240378
123 1 0.0715528 0.319262 0.259182
124 1 1.00232 0.412438 0.25374
125 1 0.158253 0.333423 0.195033
126 1 0.269344 0.404952 0.175036
129 1 0.325904 0.304598 0.17114
127 1 0.247022 0.33653 0.251095
128 1 0.156302 0.425612 0.263471
132 1 0.332509 0.413532 0.255177
593 1 0.656452 0.486474 0.342702
130 1 0.403784 0.422734 0.168311
136 1 0.496256 0.418584 0.265486
11 1 0.417264 0.0105933 0.091051
200 1 0.158135 0.420531 0.422592
197 1 0.153579 0.317972 0.347727
205 1 0.507777 0.333134 0.322051
137 1 0.668794 0.337004 0.15439
134 1 0.558913 0.433098 0.179623
140 1 0.667504 0.407474 0.256276
7 1 0.245701 -0.00129955 0.0829217
202 1 0.410362 0.40396 0.33341
587 1 0.398054 0.494868 0.409313
138 1 0.755527 0.401166 0.16574
144 1 0.845391 0.42148 0.242761
83 1 0.432583 0.00536899 0.248318
143 1 0.925228 0.339996 0.2641
142 1 0.915912 0.411423 0.162542
62 1 0.583728 0.423126 0.00855731
148 1 -0.0044016 0.0852425 0.412763
152 1 0.167109 0.092742 0.409542
193 1 -0.00776626 0.333264 0.342408
216 1 0.823516 0.411087 0.428103
156 1 0.335188 0.094392 0.403614
175 1 0.241521 0.179711 0.432792
203 1 0.418156 0.323465 0.416001
194 1 0.0749969 0.404533 0.335132
160 1 0.510952 0.0840957 0.420697
595 1 0.748192 0.507342 0.410656
210 1 0.750559 0.412171 0.349988
192 1 0.821217 0.249825 0.416254
158 1 0.588704 0.0782908 0.322189
190 1 0.910187 0.259349 0.337101
447 1 0.590167 0.50096 0.092122
185 1 0.674934 0.164267 0.332529
162 1 0.743315 0.0769742 0.326026
164 1 0.668284 0.0834846 0.400831
168 1 0.83501 0.0707193 0.410339
208 1 0.487583 0.415465 0.424909
204 1 0.323818 0.398567 0.412832
166 1 0.897982 0.086191 0.316972
191 1 0.902526 0.156844 0.402636
215 1 0.916503 0.342224 0.422328
199 1 0.233117 0.33613 0.425881
171 1 0.0866563 0.166103 0.417453
173 1 0.181067 0.172962 0.339497
195 1 0.0707114 0.334614 0.421003
172 1 1.00253 0.250883 0.409572
201 1 0.33373 0.321626 0.34572
176 1 0.170696 0.251415 0.429503
206 1 0.565465 0.421413 0.342906
177 1 0.341537 0.192744 0.347482
178 1 0.420553 0.261306 0.319105
179 1 0.425297 0.172577 0.401565
180 1 0.31086 0.255262 0.428258
207 1 0.569579 0.333565 0.418876
183 1 0.581263 0.168979 0.415467
184 1 0.498307 0.252128 0.41957
182 1 0.579747 0.250667 0.343751
211 1 0.74477 0.328213 0.430596
213 1 0.829874 0.328357 0.348871
209 1 0.653646 0.338332 0.33002
187 1 0.745472 0.167691 0.411932
188 1 0.665306 0.249997 0.422777
212 1 0.650976 0.407491 0.423514
157 1 0.507793 0.00858858 0.332374
151 1 0.261604 0.00696044 0.423682
30 1 0.240733 0.268813 -0.00209
519 1 0.584624 0.502923 0.247394
229 1 0.508139 0.000186587 0.508395
61 1 0.501629 0.334201 0.0116023
38 1 0.581426 0.257686 0.00165072
230 1 0.593355 0.103214 0.492226
167 1 0.912957 0.00735341 0.411339
238 1 0.928877 0.0912979 0.492256
75 1 0.0921814 0.00553348 0.254319
583 1 0.256599 0.493179 0.425922
85 1 0.520226 0.00239189 0.158289
161 1 0.654691 -0.000296404 0.326375
577 1 -0.0114166 0.506241 0.332809
37 1 0.508089 0.180683 0.00660028
2 1 0.089764 0.0912944 0.00658948
10 1 0.417262 0.103053 0.0092567
54 1 0.244496 0.41498 -0.00800772
70 1 0.939034 0.424888 -0.00505021
22 1 0.926757 0.0861874 0.00544309
278 1 0.569915 0.414065 0.500635
45 1 0.83009 0.166622 0.00124018
49 1 0.00594793 0.331212 0.00554417
262 1 0.910101 0.252304 0.488163
242 1 0.0733144 0.250716 0.504795
26 1 0.075029 0.256375 0.00971763
6 1 0.235945 0.0930355 0.00605603
222 1 0.251999 0.0888971 0.492324
249 1 0.336762 0.165408 0.49152
241 1 -0.00103775 0.180343 0.491905
233 1 0.673355 0.0112847 0.49833
57 1 0.343036 0.340818 0.00887149
33 1 0.329267 0.153298 0.000753921
224 1 0.181798 0.0870442 0.575952
313 1 0.00982554 0.148845 0.679943
247 1 0.249393 0.156143 0.579212
228 1 0.327405 0.0815543 0.57635
294 1 0.248332 0.0819505 0.668717
251 1 0.414281 0.166292 0.588063
232 1 0.507686 0.0792609 0.577519
655 1 0.253559 0.505389 0.581278
34 1 0.423236 0.262053 1.00648
254 1 0.582986 0.249253 0.499391
302 1 0.592416 0.0912284 0.663538
41 1 0.668048 0.181552 0.991135
253 1 0.508868 0.166176 0.506213
236 1 0.678896 0.0861387 0.590485
306 1 0.735953 0.0842616 0.680112
259 1 0.757219 0.161912 0.60345
220 1 0.995905 0.0747858 0.582475
240 1 0.832305 0.0783479 0.57749
310 1 0.924196 0.0712752 0.670927
243 1 0.0727922 0.161637 0.586562
314 1 0.0781235 0.255688 0.662183
337 1 0.995974 0.329999 0.663092
651 1 0.0817693 0.502215 0.585784
248 1 0.16924 0.25513 0.592578
367 1 0.244405 0.005504 0.941377
252 1 0.344184 0.259091 0.58634
275 1 0.424506 0.322004 0.600392
256 1 0.500224 0.253347 0.596925
325 1 0.512472 0.162907 0.665467
219 1 0.070138 0.00703332 0.586192
257 1 0.684418 0.162946 0.498653
255 1 0.60058 0.163137 0.577204
279 1 0.584962 0.323485 0.58489
223 1 0.250404 -0.00381298 0.587279
245 1 0.159827 0.172649 0.508926
260 1 0.667707 0.25083 0.581572
283 1 0.756289 0.336119 0.5854
264 1 0.852723 0.235516 0.584338
273 1 0.336731 0.332661 0.492312
14 1 0.580413 0.0829707 1.00056
263 1 0.925747 0.15242 0.584236
244 1 0.992859 0.254485 0.57698
287 1 0.909358 0.323931 0.570579
793 1 0.992624 0.493424 0.820033
334 1 0.933868 0.242327 0.663104
357 1 0.841848 0.331014 0.655067
218 1 0.0993756 0.0909839 0.497604
267 1 0.0753476 0.335757 0.59434
272 1 0.176297 0.413218 0.571354
268 1 0.991416 0.421477 0.593041
815 1 0.926997 0.497561 0.914362
739 1 0.756101 0.49566 0.740101
271 1 0.246354 0.337498 0.596743
276 1 0.328509 0.418154 0.589971
377 1 0.66071 -0.00909051 0.82939
381 1 0.837572 0.00241533 0.831004
309 1 0.828199 0.00069842 0.655
280 1 0.509093 0.404998 0.599137
667 1 0.735768 0.499631 0.570347
350 1 0.596637 0.419736 0.673566
409 1 0.00547534 0.32512 0.829145
379 1 0.741082 -0.000601216 0.890847
431 1 0.922282 0.332336 0.926653
412 1 0.0107953 0.40572 0.912709
284 1 0.65864 0.420983 0.583052
288 1 0.824956 0.425179 0.572305
354 1 0.749399 0.415089 0.662591
371 1 0.418193 -0.000127019 0.928184
358 1 0.911844 0.417762 0.659561
659 1 0.427769 0.487462 0.588248
290 1 0.0994765 0.0701396 0.657866
292 1 0.0217863 0.0639126 0.752831
385 1 -0.00945608 0.160007 0.8308
317 1 0.157878 0.168643 0.668365
299 1 0.417335 0.0110527 0.751568
269 1 0.148286 0.32916 0.505459
296 1 0.162722 0.0856976 0.747258
300 1 0.335413 0.0967756 0.740048
298 1 0.422218 0.0874656 0.664499
304 1 0.502878 0.0741207 0.749733
308 1 0.662085 0.0959721 0.751875
235 1 0.745456 0.00774391 0.576849
50 1 0.0846068 0.415072 0.995954
411 1 0.0872114 0.330254 0.926447
329 1 0.651092 0.179697 0.67575
331 1 0.754655 0.167396 0.747616
733 1 0.510149 0.495388 0.662866
312 1 0.83145 0.0631162 0.737937
333 1 0.832493 0.164134 0.669222
335 1 0.925914 0.162647 0.742007
277 1 0.50002 0.327033 0.509059
382 1 0.921915 0.069742 0.808019
221 1 0.159878 0.00929939 0.487777
315 1 0.0961635 0.1634 0.763418
320 1 0.164533 0.253872 0.757007
316 1 0.0140007 0.233599 0.751836
339 1 0.0863956 0.332556 0.741761
386 1 0.0755377 0.24165 0.845436
318 1 0.240668 0.251699 0.67638
319 1 0.243257 0.174809 0.756606
389 1 0.170462 0.16756 0.846772
321 1 0.318039 0.184775 0.662888
323 1 0.424319 0.164167 0.757082
322 1 0.410151 0.242928 0.67733
324 1 0.332614 0.243147 0.765083
394 1 0.41672 0.249539 0.840288
326 1 0.590747 0.260438 0.667683
327 1 0.575525 0.166605 0.763621
328 1 0.498391 0.247435 0.751264
351 1 0.5726 0.337001 0.759808
332 1 0.66676 0.260381 0.760509
330 1 0.747829 0.258131 0.663729
336 1 0.833034 0.25814 0.746922
355 1 0.757693 0.340321 0.750365
359 1 0.920629 0.320488 0.751988
341 1 0.164203 0.331786 0.666129
338 1 0.0751173 0.422534 0.668
344 1 0.16385 0.418385 0.750558
343 1 0.249906 0.332158 0.763384
342 1 0.254741 0.410982 0.676178
349 1 0.509042 0.332765 0.687007
345 1 0.326261 0.327887 0.675443
347 1 0.398208 0.334346 0.760913
348 1 0.334249 0.420546 0.739889
346 1 0.431759 0.406518 0.680197
226 1 0.416939 0.0803384 0.502059
410 1 0.0785146 0.405327 0.82598
353 1 0.669258 0.342635 0.680197
18 1 0.748535 0.0779679 0.992776
352 1 0.51149 0.421991 0.747565
356 1 0.665859 0.415364 0.758202
427 1 0.755795 0.34245 0.917752
425 1 0.684002 0.329732 0.837685
426 1 0.753991 0.425428 0.830778
360 1 0.849467 0.412112 0.741746
429 1 0.832624 0.349027 0.826581
432 1 0.838573 0.416691 0.92879
430 1 0.910352 0.426982 0.837879
428 1 0.672008 0.416889 0.919054
340 1 0.98444 0.415626 0.737534
362 1 0.0920041 0.0894653 0.843165
368 1 0.163607 0.0790235 0.925971
239 1 0.908296 0.00301706 0.571655
366 1 0.226622 0.0843732 0.839089
421 1 0.489526 0.323489 0.826921
370 1 0.404209 0.0922492 0.855901
372 1 0.328684 0.0792533 0.924999
397 1 0.504144 0.168787 0.839115
374 1 0.562206 0.081736 0.842889
376 1 0.491204 0.0883702 0.914581
399 1 0.579559 0.160459 0.920069
380 1 0.651882 0.0824079 0.895979
418 1 0.42322 0.415672 0.840707
408 1 0.837075 0.259617 0.921312
378 1 0.754261 0.0803492 0.822656
422 1 0.598469 0.406566 0.841316
405 1 0.854901 0.158803 0.832814
384 1 0.849571 0.0780187 0.913336
364 1 0.995851 0.0698768 0.909092
415 1 0.240384 0.339602 0.917208
420 1 0.32534 0.418696 0.915849
388 1 -0.00232587 0.235441 0.924457
387 1 0.0854334 0.160054 0.92855
392 1 0.16575 0.254951 0.9173
413 1 0.148926 0.32574 0.850154
390 1 0.25043 0.248707 0.843544
391 1 0.249863 0.157547 0.922935
396 1 0.32696 0.24744 0.93383
414 1 0.251865 0.422398 0.828962
393 1 0.329766 0.169955 0.846049
395 1 0.422906 0.189669 0.93647
419 1 0.401859 0.330563 0.918408
416 1 0.177488 0.424111 0.913425
398 1 0.57761 0.255963 0.833084
423 1 0.579525 0.354098 0.927184
400 1 0.505288 0.255184 0.919981
424 1 0.508075 0.435519 0.916922
402 1 0.754364 0.251132 0.83504
401 1 0.669816 0.176497 0.84713
403 1 0.762517 0.14713 0.912078
404 1 0.657213 0.257736 0.922255
417 1 0.322829 0.322188 0.851934
406 1 0.913968 0.247171 0.830239
407 1 0.92456 0.159933 0.913134
729 1 0.33867 0.500145 0.672787
305 1 0.662483 0.00349993 0.660548
250 1 0.40981 0.249238 0.503227
266 1 0.0775088 0.417972 0.498499
449 1 0.676115 0.49834 0.995274
58 1 0.416755 0.422894 0.995855
270 1 0.252155 0.418694 0.508962
657 1 0.344144 0.498714 0.512814
42 1 0.746596 0.249265 0.993214
285 1 0.821484 0.34211 0.504116
246 1 0.248165 0.276516 0.5157
281 1 0.655929 0.338104 0.510132
265 1 0.990386 0.327542 0.498071
1 1 -0.0106586 -0.000390534 1.00809
274 1 0.428287 0.403095 0.512713
53 1 0.16051 0.338008 1.00782
217 1 0.995669 0.00209384 0.50506
506 1 0.0753862 0.585615 0.160509
91 1 0.753269 0.995011 0.247042
440 1 0.170068 0.578253 0.0927528
463 1 0.23786 0.66288 0.0830282
444 1 0.332283 0.596122 0.0953768
579 1 0.0789839 0.490557 0.415878
9 1 0.327748 1.00733 0.00630189
467 1 0.417194 0.665102 0.089225
537 1 0.337519 0.664975 0.17599
541 1 0.501398 0.668306 0.177406
469 1 0.504019 0.66081 -0.00439517
451 1 0.740612 0.495189 0.0873805
448 1 0.488996 0.584476 0.100497
452 1 0.670671 0.575381 0.0992112
93 1 0.819125 0.995584 0.153398
648 1 0.818731 0.921588 0.414641
456 1 0.837848 0.572134 0.083075
475 1 0.746006 0.667472 0.0904685
545 1 0.665518 0.663267 0.170383
438 1 0.246696 0.588364 0.00196532
436 1 1.0165 0.577866 0.0746006
479 1 0.915928 0.655648 0.0763195
714 1 0.737474 0.925623 0.496283
628 1 1.00605 0.926687 0.421062
526 1 0.912273 0.579035 0.161563
439 1 0.238702 0.475906 0.0920031
95 1 0.920658 1.00095 0.228992
459 1 0.0983434 0.66809 0.0732512
464 1 0.167123 0.748795 0.074182
553 1 1.00373 0.838639 0.156018
530 1 0.0820728 0.746513 0.162648
533 1 0.162638 0.658624 0.183981
73 1 0.00378729 0.999688 0.156356
717 1 0.823187 0.829513 0.490794
468 1 0.336807 0.745092 0.0793299
487 1 0.25036 0.825247 0.0878818
79 1 0.251581 1.00349 0.247958
472 1 0.503365 0.751554 0.0893929
462 1 0.257523 0.743904 -0.0150831
471 1 0.573729 0.665473 0.0797483
476 1 0.662655 0.735283 0.0715204
495 1 0.581762 0.823486 0.0845903
159 1 0.574021 1.00892 0.418606
480 1 0.815665 0.738833 0.0837058
435 1 0.101631 0.489189 0.0786302
689 1 0.660383 0.670685 0.497044
460 1 1.00297 0.742104 0.0737866
450 1 0.751913 0.581976 0.00255214
486 1 0.246094 0.921777 0.00847759
483 1 0.0761464 0.824059 0.080254
554 1 0.0807692 0.919593 0.164076
445 1 0.502341 0.489836 0.00567197
455 1 0.931339 0.502986 0.0870721
488 1 0.156448 0.925196 0.0834533
557 1 0.164647 0.842322 0.15889
561 1 0.340958 0.832158 0.161623
442 1 0.425634 0.577085 -0.0125186
15 1 0.594318 0.992814 0.0742695
491 1 0.422812 0.827754 0.0760169
492 1 0.331786 0.918823 0.0905
507 1 0.0734682 0.511169 0.264543
642 1 0.750503 0.914193 0.336856
662 1 0.576969 0.588479 0.492186
165 1 0.825696 1.00514 0.323431
496 1 0.514111 0.916763 0.0870915
500 1 0.668184 0.896952 0.0809365
566 1 0.60845 0.912696 0.176275
517 1 0.478103 0.497284 0.160543
632 1 0.177533 0.920606 0.430454
644 1 0.661912 0.937086 0.411123
499 1 0.748027 0.819085 0.0824739
569 1 0.669346 0.820219 0.167283
573 1 0.843077 0.818103 0.180904
639 1 0.582844 0.834827 0.406554
637 1 0.501063 0.836789 0.339136
640 1 0.49471 0.939124 0.409178
627 1 0.09318 0.847518 0.424884
503 1 0.914383 0.827267 0.0782559
484 1 0.988546 0.927072 0.0802489
504 1 0.835856 0.900013 0.0835465
505 1 0.00560124 0.502262 0.177184
512 1 0.167661 0.578968 0.259208
508 1 -8.75018e-05 0.588408 0.254979
578 1 0.0820998 0.57419 0.336485
601 1 0.992119 0.67186 0.320747
510 1 0.248567 0.592261 0.174504
638 1 0.572335 0.914045 0.328027
516 1 0.321858 0.587575 0.260144
535 1 0.25691 0.681605 0.271053
514 1 0.412254 0.58819 0.178542
586 1 0.4184 0.587327 0.333644
520 1 0.493858 0.57611 0.244493
518 1 0.570521 0.586408 0.165521
524 1 0.666988 0.574839 0.252527
543 1 0.569581 0.646726 0.258901
590 1 0.59142 0.571179 0.335321
522 1 0.766542 0.566535 0.169485
547 1 0.758525 0.665963 0.259962
594 1 0.738272 0.58119 0.32744
549 1 0.833307 0.663886 0.172322
641 1 0.672681 0.82255 0.333741
528 1 0.837297 0.583833 0.261267
621 1 0.854235 0.654776 0.338801
529 1 0.994322 0.658963 0.157372
531 1 0.0829612 0.659855 0.259135
536 1 0.170682 0.76383 0.22839
532 1 0.999302 0.744221 0.242546
625 1 0.0092297 0.838574 0.328488
534 1 0.253527 0.738333 0.163691
540 1 0.343287 0.748366 0.258039
559 1 0.25957 0.838923 0.261784
606 1 0.256299 0.754619 0.34086
538 1 0.423673 0.735859 0.163093
565 1 0.504576 0.826633 0.165367
539 1 0.412462 0.671115 0.263186
563 1 0.42906 0.840002 0.242574
609 1 0.340677 0.673784 0.336348
633 1 0.348462 0.823641 0.334518
542 1 0.58926 0.744592 0.17596
544 1 0.502832 0.7534 0.24047
567 1 0.573454 0.842958 0.252887
614 1 0.573877 0.761286 0.331341
613 1 0.50041 0.674017 0.334381
548 1 0.672299 0.748045 0.25575
546 1 0.751551 0.745927 0.174674
552 1 0.83926 0.735026 0.251744
550 1 0.91409 0.745623 0.157931
551 1 0.908551 0.653027 0.248719
622 1 0.901168 0.74519 0.332579
555 1 0.0932039 0.833782 0.254224
626 1 0.0818669 0.930911 0.328536
616 1 0.49345 0.759505 0.423733
558 1 0.253524 0.912759 0.161143
629 1 0.162489 0.835357 0.34126
560 1 0.169913 0.916213 0.231215
630 1 0.249946 0.917587 0.342158
615 1 0.564985 0.673822 0.417639
562 1 0.417721 0.926374 0.169534
697 1 0.997112 0.82912 0.493232
564 1 0.331661 0.914465 0.246886
634 1 0.416431 0.932653 0.322106
636 1 0.34554 0.917204 0.404148
643 1 0.724528 0.84776 0.422565
568 1 0.499017 0.91542 0.240601
570 1 0.753539 0.89236 0.157225
571 1 0.753583 0.81857 0.252787
645 1 0.83394 0.839524 0.334084
572 1 0.670233 0.916679 0.273002
576 1 0.830162 0.90983 0.245708
646 1 0.921544 0.912848 0.343844
145 1 0.0043075 1.01468 0.342225
575 1 0.91458 0.827887 0.256198
556 1 0.000505485 0.923794 0.2497
574 1 0.912902 0.920566 0.155634
694 1 0.92479 0.75593 0.487583
603 1 0.0747654 0.66956 0.407756
620 1 0.662061 0.724369 0.40832
605 1 0.171744 0.656908 0.353239
584 1 0.159495 0.57783 0.424249
582 1 0.248386 0.586963 0.331743
635 1 0.426375 0.852988 0.410233
588 1 0.323961 0.581866 0.413978
611 1 0.427156 0.673464 0.416175
592 1 0.497314 0.579558 0.417244
624 1 0.828724 0.762797 0.412442
527 1 0.912556 0.502492 0.243752
596 1 0.664182 0.589608 0.410188
619 1 0.753922 0.656637 0.412223
617 1 0.660835 0.658312 0.328772
77 1 0.166559 1.00977 0.171533
650 1 0.0909567 0.579849 0.508469
690 1 0.735991 0.757965 0.485014
580 1 0.995272 0.584841 0.423757
600 1 0.834672 0.58041 0.411568
598 1 0.92225 0.583607 0.351277
623 1 0.915783 0.668864 0.424235
647 1 0.931856 0.821666 0.405546
604 1 0.008281 0.75025 0.395482
602 1 0.108878 0.743029 0.320671
710 1 0.584233 0.91497 0.496686
618 1 0.757836 0.748052 0.341144
610 1 0.427284 0.751419 0.338446
631 1 0.254159 0.834092 0.422039
608 1 0.173747 0.758585 0.415219
607 1 0.253029 0.67173 0.417365
612 1 0.344728 0.753117 0.421973
666 1 0.747819 0.574849 0.491166
457 1 -0.00688003 0.676164 -0.00956449
597 1 0.845343 0.496932 0.334257
493 1 0.500824 0.841286 0.005993
673 1 0.0124156 0.668318 0.494201
163 1 0.749413 1.00616 0.416184
23 1 0.896532 0.989203 0.0722145
509 1 0.167789 0.507171 0.174217
511 1 0.246908 0.501006 0.242522
599 1 0.908451 0.488978 0.424891
3 1 0.0802445 1.00494 0.0781436
494 1 0.58862 0.904433 0.00592536
19 1 0.733496 0.992534 0.0576153
237 1 0.830982 0.996682 0.492466
155 1 0.402165 1.01234 0.41111
153 1 0.320157 1.00999 0.322411
591 1 0.574501 0.497623 0.416662
87 1 0.586278 1.00254 0.243029
89 1 0.680047 0.987162 0.16601
515 1 0.415669 0.490399 0.251925
443 1 0.409261 0.498301 0.0786755
698 1 0.0830422 0.929899 0.502944
470 1 0.586526 0.751798 0.00300987
453 1 0.849357 0.499109 0.00367855
489 1 0.331944 0.854891 -0.00172505
434 1 0.0788995 0.581159 -0.00988715
674 1 0.087987 0.760792 0.485594
677 1 0.169614 0.671006 0.489069
718 1 0.907478 0.913505 0.488551
482 1 0.0890229 0.914306 -0.000201471
441 1 0.322158 0.507992 0.0178091
654 1 0.242728 0.58224 0.500584
13 1 0.494823 0.990502 0.00401613
446 1 0.584249 0.575015 0.0141338
490 1 0.415325 0.927257 0.00272445
653 1 0.164185 0.49199 0.505393
705 1 0.343948 0.830668 0.493025
702 1 0.259258 0.914822 0.508094
681 1 0.342911 0.669616 0.495082
481 1 0.99547 0.852679 0.000779555
658 1 0.411217 0.589472 0.489141
478 1 0.902944 0.741509 0.00409975
686 1 0.581505 0.754293 0.494828
665 1 0.659189 0.500449 0.490725
656 1 0.156532 0.577857 0.597936
365 1 0.154994 0.987548 0.836637
745 1 0.986537 0.666703 0.661433
749 1 0.16692 0.684905 0.660006
737 1 0.663165 0.506967 0.656021
713 1 0.659799 0.835085 0.511023
841 1 -0.00546292 0.83191 0.825157
295 1 0.264148 1.00985 0.758661
803 1 0.414639 0.491244 0.922904
660 1 0.352721 0.576096 0.58446
863 1 0.918206 0.819585 0.913974
721 1 0.99924 0.51195 0.666456
730 1 0.422754 0.584369 0.676989
757 1 0.498595 0.669206 0.686222
664 1 0.500069 0.574336 0.576399
687 1 0.593441 0.662379 0.586694
383 1 0.920596 0.995076 0.907647
734 1 0.568218 0.582465 0.652861
668 1 0.668694 0.582263 0.562197
738 1 0.762685 0.584782 0.670866
765 1 0.837096 0.681657 0.657661
672 1 0.811109 0.575355 0.577618
652 1 1.00401 0.59466 0.57671
811 1 0.762814 0.534237 0.906531
742 1 0.900542 0.590248 0.647565
675 1 0.0926229 0.660115 0.580939
699 1 0.081289 0.849126 0.581604
680 1 0.14183 0.758934 0.583387
676 1 0.0207465 0.750189 0.574113
679 1 0.246967 0.659089 0.589084
703 1 0.251813 0.841412 0.591049
373 1 0.490876 0.997066 0.840897
683 1 0.430591 0.653215 0.590986
684 1 0.321321 0.739418 0.572783
707 1 0.432224 0.828637 0.576017
497 1 0.67938 0.836495 0.990966
735 1 0.57652 0.516479 0.747993
369 1 0.339985 1.01303 0.837637
688 1 0.503846 0.731788 0.573663
758 1 0.580841 0.751383 0.652101
692 1 0.663617 0.743846 0.574832
761 1 0.68773 0.652186 0.646774
691 1 0.755988 0.67128 0.572794
762 1 0.741762 0.750357 0.65668
696 1 0.833887 0.756819 0.576402
695 1 0.930168 0.681136 0.576748
766 1 0.917564 0.754778 0.668953
743 1 0.912422 0.51381 0.724735
704 1 0.159913 0.933719 0.575027
700 1 0.987846 0.91784 0.56952
770 1 0.0935938 0.910524 0.672266
861 1 0.844787 0.830796 0.825078
859 1 0.756773 0.825333 0.904296
864 1 0.854202 0.90672 0.904387
777 1 0.337822 0.834989 0.653563
774 1 0.246655 0.922539 0.669156
731 1 0.44302 0.49625 0.755088
361 1 0.0104524 0.988779 0.826385
708 1 0.328306 0.924971 0.586152
778 1 0.423379 0.919951 0.674441
855 1 0.588059 0.834753 0.92455
711 1 0.568171 0.842116 0.578966
712 1 0.491368 0.92493 0.58125
781 1 0.499477 0.834855 0.675119
860 1 0.674348 0.907645 0.902426
663 1 0.573672 0.499296 0.570775
498 1 0.766335 0.904831 0.99353
856 1 0.490899 0.915948 0.922251
716 1 0.677009 0.921195 0.586526
715 1 0.741464 0.831148 0.584326
786 1 0.754475 0.931252 0.663349
720 1 0.820166 0.916915 0.569724
307 1 0.745934 0.990358 0.746582
789 1 0.82872 0.842332 0.671082
719 1 0.910292 0.831977 0.574665
797 1 0.171016 0.504398 0.83318
848 1 0.158015 0.917166 0.929759
722 1 0.0757772 0.589398 0.662858
728 1 0.168484 0.578096 0.73425
671 1 0.912893 0.498749 0.582807
726 1 0.260579 0.565699 0.666326
751 1 0.271696 0.657988 0.740848
363 1 0.0751185 1.00633 0.909338
375 1 0.571079 0.991494 0.913549
732 1 0.345074 0.571048 0.750647
825 1 0.332344 0.662179 0.841613
753 1 0.335132 0.654737 0.65885
829 1 0.495127 0.689538 0.854195
736 1 0.501069 0.604064 0.766912
806 1 0.584738 0.585066 0.839424
759 1 0.6054 0.65053 0.729282
846 1 0.251719 0.902743 0.826276
809 1 0.671657 0.505415 0.828869
740 1 0.678582 0.579947 0.736629
763 1 0.747978 0.666571 0.738934
810 1 0.749534 0.59013 0.824687
724 1 -0.00653219 0.597047 0.76068
744 1 0.832424 0.573681 0.74747
297 1 0.334515 0.999215 0.674449
814 1 0.928697 0.57556 0.836005
746 1 0.0709878 0.749312 0.666316
747 1 0.0942355 0.661929 0.745396
752 1 0.176831 0.736937 0.738798
750 1 0.26181 0.752509 0.662362
773 1 0.151797 0.820442 0.668874
775 1 0.241661 0.824791 0.74947
754 1 0.401226 0.745689 0.645726
756 1 0.346038 0.767365 0.742617
755 1 0.402618 0.676428 0.756776
826 1 0.40232 0.755537 0.82736
760 1 0.499603 0.745538 0.753917
830 1 0.577928 0.76243 0.838393
764 1 0.661834 0.743385 0.757056
857 1 0.67333 0.825205 0.827318
833 1 0.667798 0.657715 0.833469
785 1 0.653598 0.836845 0.657837
768 1 0.826507 0.751197 0.732726
767 1 0.893515 0.65891 0.740097
769 1 0.00920117 0.837448 0.658266
748 1 0.990596 0.735678 0.757241
838 1 0.914574 0.74558 0.825044
458 1 0.0889982 0.757292 0.996471
727 1 0.244953 0.500066 0.746524
771 1 0.0760648 0.829011 0.752244
849 1 0.331587 0.829963 0.844514
776 1 0.161979 0.902859 0.748744
845 1 0.171611 0.823533 0.838096
852 1 0.329263 0.923 0.910353
779 1 0.431346 0.849563 0.754312
850 1 0.405271 0.922466 0.839393
780 1 0.330842 0.91161 0.744585
784 1 0.492895 0.933666 0.753755
782 1 0.57245 0.926529 0.662886
783 1 0.582111 0.827934 0.742204
854 1 0.590876 0.899234 0.823959
788 1 0.662804 0.927334 0.73947
799 1 0.252993 0.502158 0.924558
787 1 0.746757 0.850965 0.735873
858 1 0.761001 0.909784 0.83458
862 1 0.929795 0.919657 0.834247
790 1 0.918567 0.903121 0.649188
791 1 0.921985 0.83549 0.747359
772 1 0.0163585 0.912334 0.745018
792 1 0.82834 0.913767 0.763541
795 1 0.0773026 0.490088 0.899897
231 1 0.594861 1.00324 0.580459
794 1 0.0809023 0.589431 0.836016
800 1 0.155821 0.579048 0.918034
819 1 0.0943253 0.668107 0.913273
817 1 -0.00183201 0.667274 0.840732
798 1 0.263067 0.569564 0.839674
804 1 0.335093 0.572174 0.927464
21 1 0.819947 0.998219 0.982281
802 1 0.417491 0.596141 0.830931
827 1 0.414834 0.664839 0.918719
808 1 0.51131 0.584005 0.919755
812 1 0.669831 0.580686 0.924355
301 1 0.496008 1.011 0.674263
311 1 0.919337 0.973374 0.732967
837 1 0.836954 0.658794 0.832203
291 1 0.0907982 0.983871 0.754013
835 1 0.745816 0.661432 0.901804
816 1 0.85276 0.584253 0.917671
227 1 0.406592 1.00099 0.603399
796 1 1.00162 0.587599 0.911136
801 1 0.343671 0.498742 0.831227
820 1 0.00220653 0.762977 0.910447
821 1 0.185532 0.658903 0.812721
824 1 0.173251 0.746061 0.9219
818 1 0.0879787 0.738137 0.825861
805 1 0.490961 0.508792 0.841843
822 1 0.270814 0.738679 0.820653
823 1 0.248588 0.658525 0.912783
847 1 0.244676 0.846956 0.914791
844 1 0.00317543 0.914239 0.917459
832 1 0.513954 0.752547 0.930686
851 1 0.411415 0.83264 0.918986
853 1 0.491368 0.823669 0.847147
828 1 0.335059 0.747372 0.911073
303 1 0.579158 1.00149 0.754695
842 1 0.0926706 0.899633 0.835334
836 1 0.662744 0.751294 0.912382
831 1 0.59108 0.657514 0.91193
834 1 0.762556 0.751378 0.820573
840 1 0.840789 0.745659 0.91047
843 1 0.086429 0.836846 0.918264
839 1 0.919476 0.672618 0.909909
293 1 0.175387 1.00492 0.672003
289 1 0.0069448 0.988168 0.667537
807 1 0.593651 0.494943 0.912686
454 1 0.924479 0.586618 0.989457
501 1 0.847064 0.831125 0.990175
813 1 0.842702 0.50407 0.826766
723 1 0.0839068 0.4991 0.751793
725 1 0.170658 0.482929 0.658084
741 1 0.827129 0.501509 0.652436
685 1 0.49962 0.660627 0.500185
709 1 0.505187 0.840439 0.490059
678 1 0.226008 0.75774 0.511747
693 1 0.832972 0.675133 0.491154
461 1 0.167276 0.661191 1.00008
485 1 0.173763 0.842345 1.00719
670 1 0.909274 0.592003 0.493293
433 1 0.00844797 0.502895 0.994664
5 1 0.152575 1.00115 0.997255
17 1 0.662767 0.999858 0.975331
682 1 0.422749 0.733395 0.506345
474 1 0.746672 0.742585 0.979224
477 1 0.818179 0.65988 1.01092
701 1 0.165797 0.844592 0.500824
473 1 0.651347 0.664588 0.99668
502 1 0.919655 0.918335 0.986244
225 1 0.331867 1.0133 0.495272
466 1 0.416752 0.756721 0.996116
706 1 0.428587 0.924902 0.493746
465 1 0.346997 0.666364 0.999366
437 1 0.16269 0.491943 0.993651
