ITEM: TIMESTEP
23250
ITEM: NUMBER OF ATOMS
864
ITEM: BOX BOUNDS pp pp pp
0.0000000000000000e+00 3.1559999999999999e+01
0.0000000000000000e+00 3.1559999999999999e+01
0.0000000000000000e+00 3.1559999999999999e+01
ITEM: ATOMS id type xs ys zs
8 1 0.162821 0.0836417 0.0770752
27 1 0.0844138 0.161813 0.0899739
4 1 0.979364 0.0888036 0.0943552
42 1 0.762495 0.255885 0.00418218
78 1 0.248359 0.079513 0.184383
12 1 0.327946 0.0836635 0.0891528
31 1 0.22952 0.163484 0.0910471
2 1 0.08546 0.0893228 5.98285e-05
35 1 0.413514 0.153774 0.0804006
16 1 0.494226 0.0943645 0.079002
109 1 0.50715 0.16765 0.176077
82 1 0.430935 0.0821229 0.176151
157 1 0.48859 0.0149896 0.339878
39 1 0.578368 0.173564 0.0836147
85 1 0.502247 0.00284349 0.191917
11 1 0.433725 0.00461908 0.0953738
657 1 0.364728 0.497312 0.493811
20 1 0.665068 0.0927508 0.0785218
24 1 0.841743 0.0884182 0.0886662
89 1 0.675688 0.0206316 0.165943
196 1 0.010446 0.40028 0.422288
75 1 0.0903447 0.00253483 0.249717
53 1 0.176982 0.328699 0.00060191
94 1 0.922068 0.0915758 0.184089
47 1 0.914641 0.175608 0.0914939
15 1 0.575198 0.00592466 0.103202
216 1 0.831502 0.400526 0.417368
32 1 0.165892 0.258456 0.0969525
28 1 0.0102638 0.248677 0.0958609
36 1 0.327026 0.222506 0.0762678
55 1 0.24678 0.340654 0.082759
106 1 0.422262 0.259814 0.1668
591 1 0.57924 0.497221 0.414437
129 1 0.318765 0.326601 0.170949
14 1 0.590766 0.0883713 0.00478204
40 1 0.499123 0.251613 0.0917776
110 1 0.585907 0.261634 0.165069
63 1 0.592019 0.329878 0.0899173
44 1 0.684059 0.250215 0.0759287
43 1 0.777711 0.167119 0.0985805
114 1 0.744378 0.243398 0.173055
113 1 0.655941 0.171041 0.155354
525 1 0.842582 0.479933 0.168412
48 1 0.831152 0.25071 0.109344
71 1 0.919577 0.32001 0.0897791
45 1 0.845422 0.179083 0.00447761
51 1 0.0807705 0.331039 0.0894374
52 1 0.00763588 0.404079 0.083134
29 1 0.152552 0.175536 0.00149375
18 1 0.756864 0.0933805 0.00777441
56 1 0.168958 0.413636 0.0890083
60 1 0.335951 0.407046 0.0822705
50 1 0.0931721 0.400764 0.000614105
25 1 0.00620586 0.172988 0.00778136
59 1 0.423886 0.329253 0.0853753
451 1 0.758534 0.493019 0.0630734
155 1 0.407654 0.0170247 0.419763
64 1 0.500875 0.425611 0.0662628
153 1 0.323975 0.0133622 0.357363
211 1 0.755929 0.328461 0.409847
68 1 0.677906 0.417892 0.0913541
67 1 0.758239 0.334724 0.0917535
138 1 0.752771 0.4124 0.174007
72 1 0.843452 0.399454 0.0882595
195 1 0.0825801 0.304209 0.414061
200 1 0.161319 0.424936 0.418014
74 1 0.0827796 0.0958853 0.180187
80 1 0.161633 0.0890541 0.260094
146 1 0.0827932 0.0753858 0.336488
147 1 0.0794704 0.00971505 0.41956
84 1 0.341173 0.0646115 0.240788
150 1 0.254297 0.0927552 0.333623
177 1 0.337009 0.170427 0.344415
589 1 0.494562 0.492572 0.320241
208 1 0.495057 0.406161 0.406886
154 1 0.409609 0.0842254 0.331583
88 1 0.491745 0.0951059 0.263697
91 1 0.743424 0.0106734 0.254665
285 1 0.830854 0.327281 0.497195
86 1 0.575907 0.0849574 0.169338
92 1 0.667393 0.110595 0.244627
181 1 0.508858 0.189576 0.334689
111 1 0.578713 0.175188 0.259456
185 1 0.667737 0.157549 0.35551
90 1 0.751394 0.092803 0.167593
96 1 0.833063 0.0797391 0.246449
115 1 0.767934 0.16939 0.244175
212 1 0.650481 0.405576 0.397299
76 1 0.00606644 0.0736549 0.252454
435 1 0.0813729 0.494752 0.0909733
117 1 0.848664 0.172854 0.176926
189 1 0.848368 0.170681 0.339929
98 1 0.0905994 0.247125 0.172251
101 1 0.166334 0.168565 0.172671
99 1 0.0834669 0.153166 0.260937
100 1 0.0274432 0.24402 0.251777
170 1 0.0837598 0.227537 0.33827
97 1 0.00731622 0.161694 0.179662
105 1 0.355053 0.167457 0.165558
102 1 0.253259 0.231176 0.157831
125 1 0.193411 0.325411 0.174627
103 1 0.25534 0.173202 0.244766
104 1 0.165219 0.249399 0.271247
108 1 0.336024 0.250925 0.242602
133 1 0.501214 0.33107 0.159581
107 1 0.410261 0.172049 0.2598
112 1 0.510538 0.266179 0.251687
178 1 0.413199 0.261862 0.325752
131 1 0.414545 0.336661 0.238889
137 1 0.672161 0.330472 0.156278
116 1 0.663381 0.232606 0.251266
182 1 0.593397 0.252797 0.334099
135 1 0.593526 0.345586 0.237398
209 1 0.676723 0.337655 0.329708
139 1 0.75842 0.326038 0.247186
120 1 0.84431 0.250943 0.260002
186 1 0.748688 0.238546 0.330733
141 1 0.841192 0.330247 0.175898
118 1 0.928731 0.252115 0.175969
119 1 0.929854 0.165085 0.264914
143 1 0.92679 0.324525 0.250562
122 1 0.0810411 0.416344 0.175104
121 1 0.00650252 0.330036 0.172666
123 1 0.0975141 0.326179 0.246048
124 1 0.0147565 0.419817 0.264651
194 1 0.0917573 0.414199 0.338574
126 1 0.248162 0.420334 0.163618
128 1 0.167338 0.41593 0.256966
127 1 0.25598 0.335287 0.262817
577 1 0.990383 0.486651 0.333009
130 1 0.421323 0.408384 0.15291
132 1 0.344086 0.417495 0.232416
136 1 0.482362 0.423037 0.242667
87 1 0.585691 0.0142681 0.254575
204 1 0.317494 0.417541 0.421117
206 1 0.584714 0.420278 0.319318
134 1 0.586607 0.419269 0.167012
140 1 0.670346 0.425587 0.242448
210 1 0.75414 0.409599 0.323585
593 1 0.669462 0.490516 0.327251
214 1 0.924179 0.400636 0.333572
202 1 0.400835 0.426204 0.347912
193 1 0.0190075 0.331658 0.338129
144 1 0.843285 0.415801 0.244059
142 1 0.930904 0.415018 0.171648
274 1 0.433617 0.424253 0.494119
171 1 0.0782575 0.156224 0.427434
203 1 0.405664 0.335926 0.424503
173 1 0.180126 0.164161 0.338367
26 1 0.0913836 0.26169 0.016921
152 1 0.172146 0.0848463 0.413728
175 1 0.242155 0.157066 0.432153
282 1 0.740381 0.409726 0.487989
156 1 0.342691 0.0950546 0.423897
160 1 0.483172 0.0876943 0.420729
201 1 0.338423 0.341354 0.33764
597 1 0.831057 0.493541 0.339067
158 1 0.568282 0.08945 0.349858
164 1 0.661955 0.0720357 0.423211
183 1 0.571182 0.165569 0.420268
46 1 0.918653 0.248911 0.0139458
187 1 0.75463 0.169291 0.410665
162 1 0.752341 0.0805949 0.339212
23 1 0.913176 0.0093763 0.109237
41 1 0.677894 0.176849 0.00687782
168 1 0.827743 0.0796327 0.415591
169 1 0.999752 0.156898 0.345184
191 1 0.910682 0.158115 0.426331
148 1 0.994966 0.0821618 0.430715
166 1 0.909601 0.0711669 0.344188
13 1 0.516547 0.0053052 0.0114431
172 1 0.997158 0.242667 0.425807
174 1 0.26343 0.258343 0.340731
190 1 0.932397 0.248319 0.337636
197 1 0.179953 0.331285 0.342074
176 1 0.176636 0.252281 0.421786
199 1 0.251575 0.330378 0.437088
205 1 0.48786 0.347006 0.320181
179 1 0.430038 0.176226 0.395317
180 1 0.335408 0.238156 0.424237
213 1 0.833193 0.330458 0.339952
77 1 0.171792 0.00117259 0.17039
257 1 0.670135 0.149137 0.495413
184 1 0.483728 0.262995 0.413861
207 1 0.581759 0.331838 0.418364
198 1 0.2768 0.428928 0.315456
188 1 0.66447 0.244505 0.41069
192 1 0.853186 0.24419 0.417599
215 1 0.92618 0.32216 0.413944
513 1 0.331397 0.489563 0.155617
455 1 0.926001 0.493792 0.0882012
595 1 0.748952 0.496713 0.41931
165 1 0.830179 -0.000681767 0.332098
161 1 0.668417 0.0062494 0.337905
222 1 0.252557 0.0781241 0.492688
258 1 0.747625 0.254333 0.492675
583 1 0.245626 0.49844 0.414766
145 1 0.0058664 0.00424517 0.338864
505 1 0.00266683 0.495416 0.179114
443 1 0.40619 0.489424 0.0736765
3 1 0.0708296 0.0312423 0.0965892
230 1 0.587625 0.0829488 0.496043
253 1 0.480118 0.170606 0.493267
221 1 0.163374 0.00667195 0.488841
22 1 0.921027 0.0796701 0.00686331
38 1 0.605574 0.2501 0.000985208
30 1 0.246462 0.255426 0.0184676
286 1 0.91186 0.410176 0.48605
665 1 0.650152 0.501527 0.495665
277 1 0.502072 0.333018 0.487091
254 1 0.576981 0.251342 0.492747
70 1 0.926798 0.412158 0.00511982
6 1 0.252131 0.0850535 0.00777647
242 1 0.0852767 0.239961 0.494404
54 1 0.234973 0.415803 0.00942971
1 1 1.00013 0.00782661 0.0227429
653 1 0.145305 0.497317 0.494674
241 1 -0.000547205 0.175582 0.508964
290 1 0.081408 0.0800363 0.675413
62 1 0.593886 0.420318 0.998193
224 1 0.163 0.0866737 0.582576
247 1 0.253532 0.164985 0.597099
294 1 0.261721 0.0766252 0.663785
228 1 0.324887 0.0913421 0.581117
251 1 0.414651 0.17449 0.573293
298 1 0.40324 0.0839534 0.662517
321 1 0.342119 0.17361 0.669091
737 1 0.673233 0.494393 0.660376
725 1 0.163355 0.492637 0.666361
232 1 0.50592 0.078753 0.590229
302 1 0.591309 0.0814998 0.679643
365 1 0.16241 0.00743698 0.829004
236 1 0.668536 0.0824931 0.578694
306 1 0.710153 0.08201 0.674896
226 1 0.410113 0.0758857 0.515925
220 1 0.0164405 0.0901293 0.586534
240 1 0.833321 0.0852563 0.578514
263 1 0.8992 0.169766 0.583685
238 1 0.91073 0.0904356 0.509277
333 1 0.829123 0.175314 0.671358
243 1 0.0889433 0.171833 0.593119
244 1 0.00211413 0.247185 0.592909
314 1 0.0819258 0.254237 0.663265
218 1 0.0851233 0.0833217 0.501916
248 1 0.172956 0.257322 0.592343
252 1 0.334523 0.253736 0.587353
318 1 0.252918 0.249089 0.666277
317 1 0.165898 0.170592 0.674124
21 1 0.841155 0.00568423 0.998039
256 1 0.497482 0.25091 0.581496
329 1 0.650407 0.169572 0.660387
255 1 0.5681 0.171196 0.564258
33 1 0.340371 0.162064 0.99878
325 1 0.498705 0.163504 0.646606
326 1 0.573649 0.249087 0.654357
349 1 0.500419 0.335407 0.658807
259 1 0.746104 0.155253 0.597405
260 1 0.665464 0.243636 0.576832
330 1 0.736939 0.261249 0.667447
223 1 0.252004 0.00586393 0.576176
264 1 0.809854 0.242864 0.585918
334 1 0.918611 0.247556 0.66127
313 1 0.00957373 0.153726 0.675854
267 1 0.0862988 0.337999 0.587538
272 1 0.155829 0.417495 0.576708
268 1 0.982079 0.422675 0.574442
341 1 0.163188 0.33885 0.678243
271 1 0.240747 0.355837 0.591952
276 1 0.340316 0.425387 0.585032
342 1 0.247121 0.417157 0.674932
266 1 0.0702252 0.425046 0.502503
275 1 0.414747 0.347184 0.567685
235 1 0.746165 0.00897763 0.58519
346 1 0.419111 0.415844 0.674358
345 1 0.334563 0.341544 0.677639
381 1 0.840298 0.00936746 0.820343
430 1 0.92998 0.42971 0.812866
279 1 0.569612 0.337995 0.573099
280 1 0.495118 0.419101 0.58838
265 1 0.00781383 0.328399 0.508087
283 1 0.743842 0.343592 0.577944
284 1 0.66446 0.420603 0.576612
354 1 0.756832 0.411562 0.663545
66 1 0.755083 0.40404 0.996269
287 1 0.90911 0.325646 0.578651
288 1 0.834337 0.403668 0.57366
358 1 0.914046 0.412626 0.660403
357 1 0.829641 0.328291 0.663508
721 1 0.00696527 0.497079 0.668307
379 1 0.742283 0.00874999 0.909027
315 1 0.0792922 0.162901 0.75189
295 1 0.244626 0.00381398 0.763662
296 1 0.161091 0.0979302 0.761802
319 1 0.251351 0.164706 0.750146
366 1 0.252235 0.07799 0.843338
389 1 0.148184 0.196602 0.833328
427 1 0.752609 0.333841 0.914878
300 1 0.339627 0.0760074 0.75922
323 1 0.406591 0.164472 0.745905
370 1 0.408469 0.074684 0.830692
293 1 0.172143 -0.00183586 0.667698
801 1 0.329847 0.498492 0.840115
304 1 0.501698 0.0812752 0.750977
308 1 0.663568 0.0839019 0.76581
374 1 0.580304 0.0918077 0.832082
432 1 0.864726 0.419378 0.913686
217 1 0.999297 0.0109741 0.509869
799 1 0.252026 0.480854 0.927493
331 1 0.733666 0.166851 0.746075
378 1 0.750777 0.0902686 0.831828
312 1 0.828599 0.0842823 0.740457
405 1 0.842493 0.170173 0.823224
310 1 0.915485 0.0731705 0.672743
292 1 0.00153702 0.0767839 0.742981
335 1 0.907778 0.162537 0.741686
382 1 0.930108 0.0860479 0.82823
339 1 0.0771183 0.336355 0.736406
386 1 0.0662259 0.277913 0.825507
320 1 0.17368 0.258902 0.748105
390 1 0.256894 0.249351 0.842805
322 1 0.419427 0.247435 0.654773
324 1 0.318652 0.247059 0.744956
328 1 0.506495 0.241397 0.738732
347 1 0.422542 0.319905 0.743029
393 1 0.333008 0.160161 0.832212
394 1 0.415521 0.241854 0.828954
327 1 0.573109 0.15939 0.745305
332 1 0.659334 0.243623 0.743729
425 1 0.65604 0.336901 0.823802
402 1 0.755422 0.247362 0.830394
336 1 0.827468 0.262031 0.753918
355 1 0.74452 0.330804 0.756499
385 1 0.99715 0.179177 0.817644
316 1 0.997893 0.253513 0.730962
406 1 0.924461 0.251824 0.831127
359 1 0.919022 0.330808 0.734063
338 1 0.0850153 0.410794 0.666339
337 1 0.988632 0.335733 0.66201
410 1 0.0773001 0.423075 0.827987
409 1 0.987238 0.343415 0.813533
344 1 0.160439 0.41165 0.765724
343 1 0.242121 0.343651 0.759451
414 1 0.246555 0.412605 0.833473
417 1 0.34497 0.349216 0.821709
413 1 0.160803 0.316144 0.837015
348 1 0.31687 0.42629 0.756122
352 1 0.491074 0.422057 0.746465
422 1 0.582513 0.422331 0.809591
353 1 0.648923 0.344426 0.657625
350 1 0.577258 0.41985 0.662104
351 1 0.581662 0.317986 0.743093
803 1 0.417659 0.499526 0.914447
309 1 0.831041 0.000925168 0.667744
426 1 0.737771 0.420754 0.82967
356 1 0.67117 0.428789 0.752653
360 1 0.839368 0.412926 0.751286
429 1 0.85486 0.335344 0.832926
340 1 0.00934417 0.423235 0.738126
428 1 0.671076 0.410572 0.911243
362 1 0.0684062 0.0781081 0.829736
364 1 0.992555 0.0780503 0.926918
367 1 0.236503 0.00419958 0.920425
61 1 0.510699 0.327427 0.996609
65 1 0.663198 0.336772 0.996249
731 1 0.419571 0.498809 0.756002
368 1 0.151247 0.0821562 0.905334
441 1 0.332113 0.48563 0.996199
58 1 0.42525 0.411564 0.997405
383 1 0.908917 0.0112802 0.909425
372 1 0.335291 0.0804118 0.912564
397 1 0.494364 0.161437 0.835691
363 1 0.0661911 0.00246648 0.919833
249 1 0.329109 0.168666 0.501436
376 1 0.493971 0.0898325 0.922104
651 1 0.078975 0.492138 0.582098
424 1 0.497777 0.41503 0.911712
419 1 0.427044 0.324795 0.914603
380 1 0.674634 0.0956704 0.92053
384 1 0.829209 0.0887727 0.923288
735 1 0.599699 0.501398 0.734321
412 1 0.994896 0.411586 0.911683
407 1 0.925594 0.163452 0.922015
418 1 0.423184 0.419607 0.824753
388 1 0.00283612 0.242124 0.90837
415 1 0.249331 0.334986 0.908443
811 1 0.766931 0.498283 0.923559
387 1 0.076184 0.161696 0.922318
411 1 0.0940862 0.330687 0.924603
431 1 0.930578 0.320933 0.907037
416 1 0.166932 0.410182 0.909489
420 1 0.346982 0.408248 0.916354
392 1 0.168195 0.249583 0.924789
391 1 0.237715 0.164742 0.907355
396 1 0.319464 0.239432 0.934291
270 1 0.246235 0.430983 0.501143
246 1 0.255541 0.254806 0.510754
400 1 0.501495 0.254371 0.917428
395 1 0.425952 0.170438 0.92338
401 1 0.665117 0.163108 0.832388
399 1 0.583145 0.170056 0.917829
423 1 0.566237 0.337401 0.907576
398 1 0.590282 0.246932 0.827959
375 1 0.585163 0.00715072 0.927404
421 1 0.505732 0.324328 0.818087
408 1 0.843535 0.2462 0.898081
404 1 0.680034 0.249032 0.912365
403 1 0.763948 0.17217 0.909544
741 1 0.828547 0.498826 0.670475
667 1 0.746501 0.485569 0.585098
795 1 0.07291 0.493962 0.912741
797 1 0.156518 0.500707 0.84714
34 1 0.406022 0.246886 0.998928
807 1 0.591901 0.4913 0.911416
37 1 0.513544 0.175895 0.992609
245 1 0.168112 0.175569 0.512996
453 1 0.846713 0.479389 0.995412
57 1 0.322194 0.338452 0.990479
307 1 0.746564 0.00767023 0.757352
262 1 0.918143 0.251677 0.506786
261 1 0.829054 0.172242 0.506399
281 1 0.651962 0.321614 0.502552
437 1 0.153004 0.499835 0.99425
269 1 0.161151 0.335236 0.506546
69 1 0.850665 0.337319 0.986724
669 1 0.841376 0.496577 0.509103
273 1 0.328265 0.356161 0.506947
49 1 0.00643317 0.325766 0.993665
278 1 0.572694 0.420619 0.50421
234 1 0.755173 0.0768392 0.507739
250 1 0.402441 0.25414 0.504838
225 1 0.328455 -0.0022787 0.499734
10 1 0.414161 0.0781938 0.997886
506 1 0.0748128 0.58228 0.158095
436 1 0.988038 0.582953 0.0950933
440 1 0.165725 0.588071 0.0742567
459 1 0.0668449 0.662289 0.0796713
507 1 0.0821687 0.501379 0.249007
439 1 0.244161 0.513688 0.0793079
533 1 0.17073 0.667044 0.164345
527 1 0.913273 0.502466 0.252146
674 1 0.0684967 0.739355 0.493689
444 1 0.333848 0.569142 0.0725143
19 1 0.750775 0.997909 0.0888996
149 1 0.153722 0.99861 0.343401
467 1 0.404533 0.67767 0.0888902
713 1 0.673674 0.833555 0.497037
514 1 0.41051 0.592774 0.150673
17 1 0.681984 0.992007 0.00970892
673 1 0.988029 0.656982 0.500234
448 1 0.498488 0.579316 0.0753152
452 1 0.689286 0.572708 0.0786691
471 1 0.575137 0.672342 0.083725
81 1 0.336075 0.998677 0.160403
541 1 0.505423 0.65513 0.159813
628 1 0.997216 0.906767 0.403213
7 1 0.267729 0.996946 0.0828317
522 1 0.770876 0.586497 0.143158
475 1 0.753649 0.666347 0.076685
456 1 0.832595 0.572041 0.0632483
95 1 0.90763 0.996282 0.250503
509 1 0.15796 0.507845 0.169106
526 1 0.903733 0.58314 0.161322
473 1 0.668497 0.655463 3.92374e-05
464 1 0.15881 0.742478 0.0732458
460 1 0.00736128 0.75241 0.0791051
557 1 0.165895 0.84049 0.160574
587 1 0.421346 0.520659 0.407066
79 1 0.235275 0.998225 0.259731
463 1 0.247653 0.668224 0.0688479
487 1 0.248029 0.835343 0.0864303
534 1 0.249303 0.761032 0.157299
481 1 0.996685 0.836006 0.00198229
468 1 0.330504 0.761263 0.0845092
472 1 0.489568 0.753275 0.0953565
491 1 0.420152 0.831675 0.080294
163 1 0.759664 0.985971 0.434697
538 1 0.404694 0.752321 0.157208
83 1 0.413995 0.98126 0.247086
159 1 0.579978 0.996765 0.424961
710 1 0.577764 0.908171 0.491012
495 1 0.582914 0.827195 0.0983832
476 1 0.671822 0.753823 0.0895079
73 1 0.996103 0.991779 0.184248
499 1 0.754643 0.845953 0.0868919
480 1 0.844939 0.755985 0.0648931
658 1 0.432257 0.595237 0.493839
549 1 0.826836 0.66854 0.157448
546 1 0.75027 0.737735 0.16516
479 1 0.917245 0.65651 0.0909672
550 1 0.928355 0.74722 0.160591
167 1 0.927024 0.997669 0.420055
581 1 0.167695 0.504893 0.319754
483 1 0.0950938 0.825563 0.0766352
662 1 0.587639 0.597872 0.489987
470 1 0.599852 0.758957 0.0106126
488 1 0.158972 0.923082 0.0818961
492 1 0.328511 0.915155 0.0833872
558 1 0.258705 0.928612 0.16889
599 1 0.916833 0.506206 0.411415
496 1 0.500602 0.912278 0.092706
562 1 0.413856 0.912289 0.172195
490 1 0.428865 0.899204 0.00041306
500 1 0.659622 0.916751 0.0969964
497 1 0.665193 0.848982 0.00837817
504 1 0.849838 0.93182 0.0789431
569 1 0.656995 0.829485 0.168653
579 1 0.0793957 0.505931 0.413252
503 1 0.911229 0.843816 0.0630257
484 1 0.995635 0.908078 0.0853062
574 1 0.951213 0.892158 0.176984
553 1 0.019972 0.816707 0.163262
529 1 0.000164128 0.668505 0.180008
531 1 0.0847747 0.672452 0.244328
626 1 0.0809072 0.909259 0.338317
717 1 0.84102 0.828291 0.4998
510 1 0.244005 0.58956 0.165323
537 1 0.326366 0.669835 0.155039
512 1 0.158673 0.585907 0.241576
535 1 0.247206 0.670733 0.240096
661 1 0.503412 0.506685 0.495994
516 1 0.331022 0.594685 0.232469
520 1 0.504417 0.573751 0.238706
518 1 0.591247 0.582616 0.164391
524 1 0.677347 0.574019 0.240983
547 1 0.753247 0.667578 0.253929
641 1 0.678048 0.834938 0.309893
508 1 0.998215 0.582885 0.263112
528 1 0.835893 0.590095 0.257072
598 1 0.915021 0.589994 0.33831
530 1 0.0857329 0.731206 0.154576
602 1 0.0892764 0.7492 0.338727
561 1 0.329045 0.846453 0.175247
536 1 0.170063 0.757722 0.237637
540 1 0.336605 0.765653 0.247016
559 1 0.24731 0.843951 0.260894
539 1 0.417304 0.6695 0.225053
563 1 0.420965 0.85927 0.2666
545 1 0.656316 0.664597 0.166091
543 1 0.582665 0.663023 0.240904
542 1 0.577332 0.748586 0.173854
544 1 0.506196 0.754698 0.261083
548 1 0.669113 0.736723 0.251852
621 1 0.829929 0.677591 0.345166
552 1 0.83597 0.741116 0.252484
573 1 0.847518 0.83205 0.168515
571 1 0.765508 0.82575 0.235544
618 1 0.748808 0.751113 0.326632
645 1 0.840188 0.823767 0.336629
551 1 0.918487 0.665963 0.252024
532 1 0.00799972 0.749549 0.252119
554 1 0.0794177 0.919361 0.151521
625 1 0.998926 0.818675 0.330923
555 1 0.077601 0.839266 0.247829
560 1 0.158044 0.908695 0.243689
585 1 0.330724 0.512777 0.340509
648 1 0.835575 0.908097 0.414502
629 1 0.177866 0.821358 0.33722
564 1 0.324087 0.931016 0.258079
630 1 0.238826 0.931427 0.336282
633 1 0.340421 0.843125 0.334513
568 1 0.5069 0.92762 0.25939
567 1 0.582637 0.832546 0.255344
566 1 0.580888 0.92289 0.166011
565 1 0.493118 0.82967 0.185841
572 1 0.665258 0.918501 0.241049
638 1 0.599331 0.913529 0.323979
642 1 0.757375 0.907744 0.318008
570 1 0.75351 0.926587 0.179446
576 1 0.842768 0.908388 0.255743
646 1 0.910672 0.931694 0.337319
575 1 0.925432 0.814501 0.254777
556 1 0.997443 0.911952 0.279595
493 1 0.504506 0.821404 0.00803364
578 1 0.0845205 0.58095 0.332925
603 1 0.0938334 0.665615 0.406803
584 1 0.169659 0.592685 0.422407
521 1 0.676452 0.499926 0.150676
582 1 0.237616 0.589007 0.3285
605 1 0.171633 0.672703 0.331425
494 1 0.572749 0.914572 0.000739804
523 1 0.758954 0.503667 0.228829
643 1 0.749838 0.825205 0.416066
636 1 0.337707 0.92479 0.428362
588 1 0.336663 0.59671 0.417746
586 1 0.416129 0.582566 0.322633
639 1 0.596197 0.843594 0.406923
590 1 0.583127 0.569808 0.323908
617 1 0.678263 0.657256 0.341194
592 1 0.504484 0.576587 0.39976
596 1 0.660319 0.572945 0.412138
594 1 0.758823 0.579038 0.34083
644 1 0.674648 0.909924 0.404502
619 1 0.751676 0.674026 0.409807
604 1 0.994744 0.732639 0.418917
519 1 0.584086 0.507093 0.235227
580 1 0.991964 0.584301 0.40828
600 1 0.832108 0.587483 0.422839
623 1 0.902311 0.668803 0.432467
627 1 0.0854399 0.823979 0.413251
151 1 0.244958 0.988609 0.425796
632 1 0.15909 0.910585 0.420717
640 1 0.499871 0.919995 0.408382
606 1 0.250938 0.745343 0.329638
608 1 0.168481 0.748985 0.427331
607 1 0.254234 0.663925 0.414874
635 1 0.41595 0.828488 0.422975
637 1 0.500457 0.830868 0.346808
610 1 0.417301 0.748572 0.30767
613 1 0.502153 0.666094 0.320397
609 1 0.328508 0.660728 0.324552
611 1 0.428031 0.668615 0.398773
612 1 0.343306 0.73256 0.408309
616 1 0.505018 0.742407 0.405846
614 1 0.584981 0.757587 0.336371
615 1 0.585366 0.65958 0.396758
631 1 0.26164 0.842828 0.411111
634 1 0.403807 0.930049 0.344725
624 1 0.833104 0.748891 0.424467
620 1 0.674336 0.746739 0.417211
647 1 0.917024 0.823997 0.422045
601 1 0.0131666 0.668117 0.338119
622 1 0.927541 0.724533 0.334474
709 1 0.499212 0.835177 0.494627
515 1 0.402143 0.50626 0.246125
447 1 0.590427 0.506713 0.074997
517 1 0.497194 0.504753 0.159931
93 1 0.830963 0.997001 0.183354
482 1 0.0756335 0.917571 0.00161417
511 1 0.262194 0.511025 0.244592
706 1 0.414012 0.911356 0.492963
702 1 0.256249 0.911033 0.501017
697 1 -0.000393509 0.844401 0.491253
682 1 0.426289 0.749711 0.490067
469 1 0.499084 0.678544 0.00291895
486 1 0.237275 0.920323 0.0109186
650 1 0.0754602 0.584375 0.492064
689 1 0.683741 0.657849 0.490071
498 1 0.761174 0.925515 0.000222039
457 1 0.990294 0.671172 0.00563727
9 1 0.346158 0.990425 0.00288424
718 1 0.919979 0.916633 0.491256
678 1 0.251488 0.755972 0.490478
477 1 0.836172 0.657341 -0.000402582
686 1 0.5995 0.736544 0.49162
229 1 0.492297 0.990744 0.496449
442 1 0.414465 0.581739 0.00579092
649 1 0.990191 0.504751 0.496169
454 1 0.919369 0.576791 0.000880868
465 1 0.338941 0.670107 0.0145276
489 1 0.33533 0.836273 0.00220253
434 1 0.0749517 0.585718 -0.00104675
701 1 0.164908 0.829366 0.519393
291 1 0.0780365 0.998379 0.757814
722 1 0.0832381 0.576043 0.659655
501 1 0.825492 0.832184 0.983384
656 1 0.160518 0.582662 0.578877
660 1 0.351231 0.584546 0.567359
371 1 0.425906 0.98381 0.918892
666 1 0.741572 0.565608 0.507159
727 1 0.229071 0.504424 0.765541
663 1 0.582938 0.508112 0.582297
446 1 0.60051 0.571994 0.995377
683 1 0.421996 0.66419 0.575412
862 1 0.917109 0.922268 0.828363
361 1 0.995419 0.992652 0.835816
664 1 0.496895 0.590584 0.577878
687 1 0.585963 0.663033 0.575425
668 1 0.660443 0.585313 0.596846
761 1 0.65062 0.677815 0.664293
377 1 0.652936 0.997452 0.833068
219 1 0.0795791 0.996335 0.58829
691 1 0.737346 0.663428 0.585619
859 1 0.734783 0.831055 0.918617
671 1 0.91258 0.503252 0.585001
652 1 0.995144 0.57233 0.591447
672 1 0.811619 0.581548 0.584611
864 1 0.831108 0.922882 0.919014
815 1 0.923227 0.510967 0.920671
462 1 0.259566 0.758714 0.993017
675 1 0.063921 0.654496 0.590297
680 1 0.155006 0.747017 0.586405
746 1 0.0797093 0.752054 0.667629
745 1 0.981773 0.663595 0.663625
679 1 0.235447 0.667255 0.587847
733 1 0.505255 0.50743 0.685625
773 1 0.176662 0.841158 0.643907
703 1 0.253382 0.842657 0.576529
670 1 0.912719 0.584313 0.49676
753 1 0.337633 0.665339 0.657955
684 1 0.31404 0.752606 0.582089
707 1 0.406391 0.823667 0.578392
655 1 0.253104 0.50981 0.584148
688 1 0.495862 0.75619 0.591218
711 1 0.581218 0.826938 0.586107
692 1 0.657441 0.748162 0.579888
785 1 0.660414 0.82428 0.667594
693 1 0.811911 0.657416 0.50832
762 1 0.75086 0.760797 0.67268
715 1 0.739114 0.828548 0.587284
743 1 0.924433 0.508591 0.740657
478 1 0.923128 0.769874 0.986844
301 1 0.493678 0.988139 0.652719
695 1 0.915238 0.684205 0.577466
696 1 0.830305 0.752204 0.582655
676 1 0.00620321 0.749453 0.586373
766 1 0.90854 0.751953 0.668122
719 1 0.919931 0.830046 0.585134
723 1 0.0896425 0.501654 0.75255
699 1 0.0807991 0.841325 0.591428
770 1 0.0733254 0.922045 0.661913
854 1 0.563373 0.908319 0.835411
303 1 0.56862 0.987983 0.737584
704 1 0.167848 0.934671 0.568133
445 1 0.503685 0.50119 0.990568
299 1 0.416277 0.996386 0.757558
813 1 0.836959 0.508205 0.826202
485 1 0.169428 0.832683 0.9943
708 1 0.329564 0.916793 0.58297
712 1 0.495328 0.898853 0.576478
855 1 0.589474 0.832519 0.934452
729 1 0.338346 0.500313 0.673257
231 1 0.569553 0.989233 0.579582
860 1 0.665565 0.919786 0.921632
716 1 0.655215 0.897863 0.586795
659 1 0.426577 0.501161 0.588724
698 1 0.0732478 0.918806 0.504141
789 1 0.828508 0.831608 0.667165
305 1 0.659784 0.993773 0.655893
720 1 0.833093 0.912294 0.600729
700 1 0.993588 0.916498 0.574492
769 1 0.00436836 0.842484 0.664207
739 1 0.749276 0.513472 0.756609
724 1 0.0127355 0.580978 0.73704
747 1 0.0715899 0.672615 0.728587
848 1 0.171337 0.909234 0.903767
857 1 0.663181 0.837326 0.845405
726 1 0.242874 0.594112 0.665397
846 1 0.241712 0.917632 0.833274
728 1 0.166985 0.589081 0.74957
732 1 0.334921 0.581333 0.76124
751 1 0.261962 0.65886 0.753621
839 1 0.90879 0.679837 0.916682
730 1 0.416459 0.581492 0.661169
757 1 0.489292 0.671311 0.673711
833 1 0.652592 0.673419 0.831141
755 1 0.415085 0.664933 0.751145
802 1 0.409753 0.573381 0.834598
734 1 0.570701 0.586535 0.668294
736 1 0.493359 0.589812 0.757784
740 1 0.665048 0.592553 0.741118
738 1 0.736627 0.582856 0.66963
863 1 0.92224 0.828633 0.895039
744 1 0.844736 0.585154 0.747923
852 1 0.313396 0.915175 0.92408
742 1 0.899996 0.575116 0.651519
814 1 0.922594 0.585911 0.84313
837 1 0.835946 0.663154 0.827429
749 1 0.158996 0.667331 0.665943
752 1 0.172123 0.743483 0.759166
748 1 0.00972087 0.763723 0.746272
771 1 0.0982294 0.833136 0.736543
841 1 0.0236558 0.834527 0.823165
750 1 0.255182 0.737022 0.67691
775 1 0.240203 0.836506 0.75786
822 1 0.249743 0.742771 0.842858
777 1 0.325072 0.835125 0.679605
754 1 0.409574 0.748593 0.680823
756 1 0.332336 0.73071 0.767173
760 1 0.512049 0.74724 0.755251
758 1 0.575456 0.766417 0.675093
759 1 0.584693 0.669171 0.740707
783 1 0.574714 0.833758 0.74989
781 1 0.491498 0.827373 0.665608
763 1 0.764307 0.667976 0.747704
764 1 0.661697 0.760979 0.753456
787 1 0.734389 0.842455 0.758764
768 1 0.826233 0.760782 0.753649
765 1 0.822801 0.672284 0.6567
767 1 0.897662 0.674891 0.740728
838 1 0.919209 0.739251 0.826355
842 1 0.0833376 0.923087 0.83736
776 1 0.158859 0.926015 0.761517
844 1 0.993819 0.916486 0.915566
774 1 0.254742 0.923846 0.663835
780 1 0.324422 0.921043 0.75924
778 1 0.401517 0.899804 0.666028
779 1 0.418003 0.830022 0.757611
782 1 0.579931 0.906159 0.662586
784 1 0.485758 0.912429 0.740152
788 1 0.65339 0.924579 0.739591
786 1 0.753705 0.908904 0.677578
858 1 0.745816 0.931815 0.837741
861 1 0.831161 0.832534 0.837796
792 1 0.831488 0.920536 0.750256
840 1 0.813104 0.747593 0.913332
790 1 0.913289 0.912421 0.684315
791 1 0.91941 0.831053 0.746542
772 1 0.0105461 0.914335 0.74627
227 1 0.411318 0.987225 0.5681
794 1 0.0870246 0.59942 0.833625
800 1 0.144803 0.58203 0.917694
819 1 0.077482 0.666917 0.915552
825 1 0.343151 0.660773 0.856971
823 1 0.245647 0.670367 0.925608
798 1 0.248805 0.572337 0.854096
821 1 0.175882 0.655141 0.840499
856 1 0.500185 0.908668 0.91483
804 1 0.334664 0.580581 0.932632
827 1 0.432695 0.666227 0.919205
853 1 0.49111 0.830149 0.83257
835 1 0.746719 0.666857 0.91342
806 1 0.581588 0.585218 0.819509
831 1 0.581331 0.654653 0.915215
808 1 0.507773 0.575123 0.904202
850 1 0.41986 0.909416 0.822443
810 1 0.746575 0.594896 0.826243
812 1 0.674963 0.589025 0.919288
845 1 0.155363 0.830286 0.823875
816 1 0.818347 0.586932 0.908617
796 1 0.0058881 0.595665 0.911591
818 1 0.0924678 0.727217 0.826122
817 1 0.00198198 0.659872 0.803166
820 1 0.0108769 0.744813 0.890401
843 1 0.0757431 0.829018 0.90916
849 1 0.337951 0.835138 0.836369
824 1 0.167122 0.756021 0.918263
847 1 0.247632 0.828472 0.906499
826 1 0.417994 0.744429 0.839623
828 1 0.331507 0.747488 0.917069
851 1 0.41091 0.832397 0.921338
829 1 0.498855 0.664987 0.835927
836 1 0.667277 0.742178 0.91342
832 1 0.51937 0.746 0.925805
830 1 0.58055 0.758147 0.832035
834 1 0.745964 0.742561 0.825385
458 1 0.0807429 0.756933 0.985397
289 1 0.995042 0.99679 0.655881
502 1 0.923469 0.924475 0.99262
311 1 0.913204 0.998866 0.749989
239 1 0.91826 0.991493 0.585301
450 1 0.754799 0.585791 0.997379
297 1 0.344769 0.995624 0.670448
809 1 0.677559 0.506964 0.834098
369 1 0.329407 0.98754 0.845605
793 1 0.00636205 0.50884 0.831999
449 1 0.678608 0.500129 0.987402
373 1 0.507389 0.997663 0.84556
805 1 0.504444 0.50385 0.819945
233 1 0.665143 0.999155 0.506574
5 1 0.165478 0.998499 1.00108
474 1 0.744401 0.7449 0.995844
438 1 0.241904 0.582754 0.98853
237 1 0.846539 0.996539 0.506741
433 1 -0.00315221 0.506495 0.993705
714 1 0.756499 0.915051 0.527569
705 1 0.335235 0.827658 0.50803
681 1 0.34115 0.683613 0.504259
694 1 0.926808 0.757535 0.503621
677 1 0.153922 0.656991 0.5016
461 1 0.158228 0.667699 0.980702
654 1 0.244561 0.581611 0.502718
466 1 0.419005 0.754242 0.994366
690 1 0.74759 0.745902 0.503066
685 1 0.507456 0.691476 0.510452
