ITEM: TIMESTEP
14200
ITEM: NUMBER OF ATOMS
864
ITEM: BOX BOUNDS pp pp pp
0.0000000000000000e+00 3.1559999999999999e+01
0.0000000000000000e+00 3.1559999999999999e+01
0.0000000000000000e+00 3.1559999999999999e+01
ITEM: ATOMS id type xs ys zs
27 1 0.0815109 0.170025 0.0855968
8 1 0.168995 0.0834434 0.0700013
437 1 0.179871 0.492461 -0.00217854
443 1 0.416181 0.493679 0.0879007
12 1 0.329934 0.0826027 0.087162
527 1 0.89806 0.477156 0.256372
78 1 0.251518 0.0873952 0.164423
82 1 0.416317 0.0711531 0.161457
35 1 0.386854 0.170772 0.0672063
16 1 0.491097 0.0809776 0.0807651
15 1 0.580772 0.00960659 0.0861816
46 1 0.906214 0.253614 0.0156795
7 1 0.249958 -0.0140849 0.0703243
86 1 0.585298 0.084821 0.150347
39 1 0.577109 0.173024 0.0865044
53 1 0.181075 0.338947 -0.00336344
595 1 0.735045 0.502743 0.417476
20 1 0.669062 0.0904253 0.0793223
43 1 0.769805 0.185 0.0818792
589 1 0.494245 0.482316 0.337551
50 1 0.0972248 0.423177 0.0220382
90 1 0.747647 0.0777782 0.168809
34 1 0.425478 0.239951 -0.00263524
4 1 0.00457757 0.0738741 0.0817206
24 1 0.831672 0.0898275 0.0913241
215 1 0.926899 0.331198 0.402283
94 1 0.929198 0.083054 0.182123
101 1 0.181569 0.163512 0.170012
32 1 0.165775 0.254469 0.0801857
28 1 -0.00499768 0.265165 0.0859364
98 1 0.10395 0.255779 0.184812
31 1 0.243595 0.162587 0.0704454
36 1 0.314416 0.246628 0.0758367
59 1 0.401932 0.319335 0.075
106 1 0.407813 0.244852 0.157592
19 1 0.752142 0.0122142 0.0773145
439 1 0.261129 0.490092 0.0866953
435 1 0.0610663 0.493176 0.0896181
40 1 0.490875 0.251447 0.078009
44 1 0.661401 0.245681 0.0844873
63 1 0.582036 0.334752 0.0819221
505 1 0.986913 0.492906 0.16574
48 1 0.841352 0.261562 0.096079
67 1 0.757902 0.330057 0.0814636
159 1 0.588189 -0.00576463 0.404676
47 1 0.930948 0.167543 0.0885181
118 1 0.923324 0.252323 0.170285
71 1 0.915391 0.340808 0.0835034
51 1 0.0859595 0.32335 0.105585
56 1 0.168543 0.394547 0.0957083
196 1 1.00628 0.428671 0.415593
22 1 0.922242 0.0931183 0.00427468
242 1 0.0885005 0.264385 0.484192
216 1 0.827829 0.416659 0.421676
55 1 0.250296 0.325504 0.106008
60 1 0.333603 0.396839 0.0979953
233 1 0.651426 0.00439482 0.486462
211 1 0.767397 0.32027 0.420026
130 1 0.422053 0.415456 0.163661
54 1 0.260422 0.412476 0.00993178
455 1 0.923004 0.485196 0.0804017
205 1 0.501856 0.32674 0.331077
230 1 0.582386 0.082346 0.488175
64 1 0.490915 0.386112 0.075427
134 1 0.579675 0.430114 0.168273
195 1 0.07424 0.349462 0.409033
447 1 0.577176 0.493927 0.0743564
182 1 0.576563 0.238632 0.335619
68 1 0.664359 0.417075 0.0874235
72 1 0.834213 0.415831 0.0617864
172 1 -0.00217916 0.246135 0.414051
203 1 0.406849 0.351782 0.419672
170 1 0.092647 0.260472 0.34252
193 1 0.00182313 0.337696 0.329786
52 1 -0.00333474 0.407568 0.0757113
142 1 0.900189 0.417923 0.168445
74 1 0.0707436 0.0855177 0.167083
80 1 0.177134 0.0706118 0.256697
76 1 0.00171902 0.076163 0.254389
99 1 0.100417 0.166662 0.250724
146 1 0.0825032 0.0842494 0.334483
103 1 0.272403 0.170682 0.263867
177 1 0.341872 0.163097 0.338482
150 1 0.262889 0.0698735 0.33847
188 1 0.65406 0.237965 0.424906
105 1 0.329866 0.171149 0.165508
109 1 0.481944 0.160931 0.144856
282 1 0.740848 0.410733 0.488154
84 1 0.342699 0.0779044 0.262677
107 1 0.405332 0.165548 0.243962
154 1 0.408392 0.0778287 0.347681
88 1 0.501538 0.0815303 0.239317
111 1 0.566026 0.167938 0.242228
173 1 0.17896 0.165871 0.33071
92 1 0.677627 0.0762896 0.263149
115 1 0.746038 0.170629 0.264435
191 1 0.916638 0.172471 0.397666
96 1 0.841881 0.0826402 0.244007
166 1 0.916926 0.0847529 0.338078
119 1 0.920966 0.164337 0.250929
125 1 0.173255 0.33107 0.184771
104 1 0.172353 0.246749 0.260957
100 1 0.0058142 0.249161 0.254718
123 1 0.0739072 0.338667 0.249881
102 1 0.248916 0.244962 0.176396
174 1 0.256061 0.256881 0.343671
129 1 0.341415 0.32339 0.179658
108 1 0.336376 0.249147 0.260187
112 1 0.499023 0.24755 0.24125
131 1 0.429464 0.327096 0.254881
133 1 0.486133 0.333472 0.165513
110 1 0.571371 0.245798 0.158514
135 1 0.583015 0.325763 0.239813
137 1 0.659805 0.334379 0.169703
113 1 0.66559 0.163191 0.175257
117 1 0.835145 0.164933 0.172693
114 1 0.742697 0.249263 0.164927
116 1 0.667424 0.253384 0.246299
120 1 0.815874 0.254299 0.247874
209 1 0.649828 0.316641 0.338882
141 1 0.832751 0.331754 0.174803
97 1 0.00365436 0.168295 0.182393
190 1 0.917224 0.259025 0.323269
122 1 0.0968816 0.430961 0.180477
124 1 1.00782 0.418719 0.258642
194 1 0.0908392 0.426037 0.322491
212 1 0.656661 0.411274 0.421489
89 1 0.663775 0.00629935 0.17251
192 1 0.849971 0.257707 0.418188
127 1 0.249711 0.340752 0.251387
128 1 0.173463 0.412801 0.256467
126 1 0.264642 0.42009 0.175407
198 1 0.255692 0.414149 0.331678
525 1 0.830719 0.488346 0.165473
132 1 0.349448 0.418565 0.261782
136 1 0.506897 0.404764 0.246959
202 1 0.426604 0.411309 0.327875
77 1 0.171375 0.0112165 0.173423
69 1 0.829223 0.334909 -0.00741822
206 1 0.574865 0.397385 0.339358
140 1 0.652229 0.42537 0.253826
207 1 0.582651 0.316055 0.421773
138 1 0.759918 0.404226 0.15999
210 1 0.726072 0.401917 0.342019
139 1 0.720064 0.343666 0.253124
200 1 0.180793 0.437891 0.439298
199 1 0.245492 0.330582 0.414709
274 1 0.416822 0.423042 0.508664
121 1 1.00855 0.341653 0.171384
208 1 0.498656 0.400417 0.421471
449 1 0.669999 0.491149 0.00966277
143 1 0.907964 0.333401 0.241095
144 1 0.81277 0.402855 0.272876
214 1 0.931585 0.417328 0.332684
213 1 0.834035 0.320704 0.337354
201 1 0.337863 0.329462 0.328046
169 1 1.00946 0.180004 0.331567
148 1 0.998654 0.0810516 0.416344
171 1 0.0897913 0.186787 0.41264
197 1 0.166103 0.351737 0.337904
597 1 0.810794 0.491222 0.34276
152 1 0.146217 0.0814142 0.416045
156 1 0.329001 0.0807025 0.425749
175 1 0.245219 0.152385 0.430612
184 1 0.499056 0.254518 0.425798
176 1 0.184292 0.241249 0.421879
179 1 0.40997 0.172734 0.42249
160 1 0.495887 0.0839875 0.409146
158 1 0.578077 0.0803397 0.329838
181 1 0.49272 0.157757 0.325907
185 1 0.664024 0.15757 0.327608
183 1 0.576146 0.173201 0.416412
180 1 0.331132 0.238051 0.419827
187 1 0.748406 0.179249 0.420887
164 1 0.668864 0.0934109 0.418198
162 1 0.777046 0.0899867 0.340723
178 1 0.417916 0.242404 0.329824
186 1 0.747677 0.261398 0.32793
189 1 0.833204 0.180745 0.328453
168 1 0.848229 0.0769765 0.425794
204 1 0.330712 0.425254 0.425804
163 1 0.744701 -0.00587014 0.405264
517 1 0.500124 0.505092 0.152075
49 1 0.000582511 0.337167 -0.0060702
433 1 -0.00804402 0.485805 -0.0106206
286 1 0.924446 0.419667 0.485183
57 1 0.325181 0.328052 -0.00736544
149 1 0.165688 0.00288241 0.336561
75 1 0.0833287 0.00316676 0.266803
521 1 0.67909 0.490231 0.154574
523 1 0.744088 0.48966 0.242937
519 1 0.573028 0.509877 0.260661
155 1 0.427669 -0.0164379 0.413876
593 1 0.666895 0.498478 0.332212
18 1 0.752616 0.0772015 -0.00502113
238 1 0.919323 0.0744713 0.501424
507 1 0.0720111 0.51411 0.263761
45 1 0.830181 0.159796 0.00106087
649 1 0.00739201 0.497821 0.497163
270 1 0.252838 0.43702 0.503819
511 1 0.256374 0.502114 0.259326
17 1 0.663765 0.0126225 0.0110148
451 1 0.756612 0.482187 0.0746439
87 1 0.58767 -0.00926971 0.257013
21 1 0.844696 0.0102422 0.00541056
62 1 0.576377 0.397213 -0.00169385
241 1 1.00513 0.168171 0.500689
38 1 0.571076 0.241153 -0.00629056
273 1 0.33127 0.330035 0.492367
262 1 0.920245 0.244945 0.504024
269 1 0.162406 0.335373 0.488321
285 1 0.835091 0.3337 0.49628
250 1 0.422189 0.257787 0.504228
253 1 0.501803 0.165864 0.487479
257 1 0.66136 0.161745 0.510949
265 1 0.997056 0.332519 0.502923
281 1 0.665074 0.324197 0.499324
237 1 0.824175 0.00486741 0.509691
14 1 0.579119 0.0901497 0.00189143
220 1 1.00247 0.074605 0.595367
729 1 0.345189 0.489974 0.661646
741 1 0.846452 0.501091 0.660725
10 1 0.39641 0.0841382 0.987651
65 1 0.665278 0.331119 1.00467
224 1 0.166624 0.0806418 0.58535
235 1 0.743441 0.00358978 0.591169
363 1 0.0845013 0.00815596 0.905351
254 1 0.574026 0.240693 0.502342
228 1 0.319647 0.0860973 0.59195
251 1 0.435656 0.174178 0.578175
232 1 0.509752 0.0793558 0.583792
26 1 0.0780379 0.268585 1.00916
226 1 0.423438 0.0858231 0.496286
236 1 0.666683 0.0842112 0.585604
302 1 0.578739 0.103221 0.672735
1 1 -0.00359039 0.0153096 0.992875
305 1 0.658649 0.0148104 0.67485
2 1 0.0784846 0.0958864 0.989319
431 1 0.921305 0.314617 0.919911
306 1 0.750434 0.0829623 0.662545
246 1 0.258141 0.258324 0.499767
240 1 0.837935 0.0879489 0.588903
263 1 0.911074 0.159291 0.577034
807 1 0.578846 0.495143 0.913635
731 1 0.411464 0.486167 0.756448
243 1 0.0895522 0.174909 0.581125
314 1 0.0794843 0.241509 0.665169
244 1 0.99998 0.246732 0.5751
248 1 0.161265 0.254695 0.581796
247 1 0.247577 0.176606 0.59019
6 1 0.240277 0.0829797 0.983604
252 1 0.33335 0.250869 0.574072
275 1 0.4176 0.333623 0.581699
345 1 0.331045 0.341782 0.651077
255 1 0.580124 0.165066 0.584679
256 1 0.499598 0.265767 0.584009
259 1 0.743041 0.165112 0.579131
260 1 0.66803 0.24607 0.568483
283 1 0.757643 0.341741 0.580698
329 1 0.672929 0.173551 0.667077
333 1 0.837656 0.170255 0.672132
361 1 1.00204 -0.00343933 0.834817
264 1 0.825292 0.244295 0.579536
287 1 0.911721 0.333889 0.584168
267 1 0.080983 0.323991 0.584953
430 1 0.912001 0.417143 0.831304
268 1 1.0003 0.408988 0.57667
338 1 0.0835593 0.417598 0.659625
813 1 0.838334 0.499799 0.832396
271 1 0.238671 0.343258 0.558011
799 1 0.24625 0.49569 0.918303
272 1 0.164451 0.421206 0.563625
276 1 0.33823 0.415001 0.570378
341 1 0.172345 0.339214 0.656983
342 1 0.255658 0.420305 0.653736
346 1 0.426486 0.409429 0.667224
426 1 0.739965 0.412361 0.834011
727 1 0.232679 0.494943 0.749238
427 1 0.758047 0.331957 0.910361
279 1 0.570907 0.346602 0.583993
280 1 0.506555 0.42657 0.596528
284 1 0.670165 0.439104 0.573384
425 1 0.66426 0.329836 0.832669
416 1 0.173869 0.417137 0.909479
288 1 0.848696 0.420005 0.576237
357 1 0.828697 0.3343 0.664239
358 1 0.911894 0.425001 0.670388
290 1 0.0857463 0.0792297 0.672134
432 1 0.841567 0.39838 0.914556
293 1 0.157566 -0.00879759 0.684609
296 1 0.159343 0.0857447 0.761477
294 1 0.243369 0.0930666 0.67932
298 1 0.417151 0.0926788 0.641924
300 1 0.356517 0.082672 0.739382
323 1 0.405277 0.188065 0.742936
370 1 0.416446 0.0858632 0.827989
423 1 0.588648 0.335064 0.904221
428 1 0.669825 0.417104 0.93131
304 1 0.489946 0.0898957 0.749655
308 1 0.654234 0.0859634 0.771672
325 1 0.487071 0.176416 0.676952
327 1 0.580378 0.178678 0.7543
375 1 0.595528 0.00130872 0.91172
312 1 0.841786 0.0946879 0.749935
378 1 0.767646 0.0681502 0.826958
42 1 0.745795 0.253802 1.00487
310 1 0.915324 0.07621 0.674199
292 1 0.994208 0.0784419 0.753922
335 1 0.917467 0.168759 0.752391
382 1 0.918818 0.089524 0.840624
299 1 0.430101 0.00329595 0.71677
315 1 0.0757261 0.163797 0.738778
313 1 0.988846 0.165447 0.652696
316 1 0.994931 0.242869 0.737177
317 1 0.157215 0.17437 0.661707
320 1 0.174423 0.246229 0.743014
318 1 0.246473 0.256149 0.659544
321 1 0.337717 0.178411 0.648147
319 1 0.264101 0.180908 0.751481
324 1 0.321918 0.269362 0.732766
322 1 0.431295 0.269638 0.668668
394 1 0.40673 0.258972 0.825177
328 1 0.492674 0.247139 0.764334
326 1 0.59463 0.251875 0.655821
332 1 0.668237 0.253038 0.759015
401 1 0.655942 0.169241 0.838949
330 1 0.747777 0.24978 0.674225
405 1 0.833405 0.161114 0.830776
331 1 0.746614 0.169616 0.750014
402 1 0.761246 0.243643 0.835106
334 1 0.914039 0.256752 0.651848
385 1 0.996594 0.153603 0.82041
337 1 0.995226 0.340287 0.661044
336 1 0.831153 0.245293 0.750651
406 1 0.923043 0.23048 0.829964
339 1 0.0777371 0.322518 0.741779
410 1 0.0969056 0.411408 0.839711
671 1 0.928818 0.496538 0.567364
413 1 0.160142 0.322699 0.830117
343 1 0.238011 0.345607 0.750455
344 1 0.158132 0.413059 0.746832
811 1 0.758183 0.492489 0.903117
422 1 0.582184 0.41878 0.837426
347 1 0.411472 0.340021 0.739575
348 1 0.323085 0.424363 0.747776
301 1 0.515913 0.015915 0.664496
349 1 0.515036 0.329512 0.67274
350 1 0.601378 0.407313 0.670337
223 1 0.247431 0.00786939 0.582544
351 1 0.583579 0.313344 0.752788
352 1 0.506489 0.410966 0.749807
356 1 0.673223 0.425713 0.744495
25 1 1.00377 0.180981 1.01581
424 1 0.494781 0.40133 0.91085
429 1 0.822393 0.339419 0.818875
353 1 0.675931 0.326286 0.642795
354 1 0.753416 0.41722 0.67268
355 1 0.743052 0.339574 0.739505
418 1 0.408305 0.416628 0.834457
421 1 0.502216 0.333911 0.824702
359 1 0.907941 0.333936 0.745709
340 1 0.00156977 0.411363 0.745151
360 1 0.823718 0.421842 0.751943
409 1 0.982845 0.337889 0.817113
420 1 0.325343 0.410258 0.906027
239 1 0.926816 0.00399303 0.590311
362 1 0.0800606 0.0885254 0.82496
368 1 0.171078 0.0892463 0.891546
291 1 0.079829 -0.00694038 0.760837
667 1 0.768003 0.497108 0.594393
445 1 0.491371 0.491279 0.985273
227 1 0.420808 0.00450612 0.573517
366 1 0.268271 0.0838937 0.796471
372 1 0.319696 0.0823328 0.899889
415 1 0.244774 0.32938 0.895832
397 1 0.485464 0.168418 0.828303
395 1 0.400862 0.165991 0.911903
376 1 0.491122 0.0684642 0.906615
417 1 0.32099 0.332932 0.81729
414 1 0.227783 0.414441 0.827887
411 1 0.0771707 0.319409 0.904538
399 1 0.569807 0.161396 0.922392
374 1 0.556525 0.0882498 0.829413
815 1 0.925751 0.496707 0.902652
380 1 0.673468 0.0819589 0.912964
384 1 0.835727 0.0813174 0.918219
743 1 0.911991 0.510151 0.752523
408 1 0.83898 0.251344 0.915396
735 1 0.586268 0.509433 0.749141
364 1 0.000812093 0.094488 0.921298
407 1 0.910514 0.164351 0.913248
412 1 1.0044 0.39363 0.907901
249 1 0.336587 0.165414 0.508916
403 1 0.755637 0.157853 0.915335
386 1 0.0601756 0.241948 0.823796
387 1 0.0954796 0.16811 0.919395
388 1 -0.0039879 0.242663 0.923505
392 1 0.170058 0.251168 0.924327
390 1 0.250815 0.250401 0.823654
389 1 0.145358 0.185393 0.830269
393 1 0.347508 0.160365 0.830936
391 1 0.238827 0.167055 0.899956
41 1 0.660326 0.16744 0.986158
419 1 0.400547 0.320581 0.914274
400 1 0.487092 0.244538 0.91295
396 1 0.324039 0.247017 0.903686
398 1 0.578874 0.254648 0.831407
404 1 0.673382 0.241443 0.909952
37 1 0.496914 0.16041 1.00936
222 1 0.242492 0.0828016 0.506937
801 1 0.318202 0.508883 0.831564
381 1 0.836069 -0.00563228 0.830206
373 1 0.488027 -0.00499697 0.811493
383 1 0.918649 0.0136309 0.914909
369 1 0.336843 -0.00712138 0.816609
309 1 0.829174 -0.000339278 0.680061
29 1 0.164492 0.16617 1.00509
441 1 0.34164 0.493734 0.992975
218 1 0.0774139 0.0754337 0.488022
225 1 0.324083 0.00263344 0.497583
61 1 0.488301 0.316329 0.993115
234 1 0.737748 0.0749376 0.502263
277 1 0.497725 0.331623 0.5004
278 1 0.561022 0.429048 0.499891
245 1 0.14953 0.173858 0.495846
266 1 0.0790028 0.421247 0.491169
30 1 0.246542 0.237455 0.995608
58 1 0.402182 0.411004 1.00845
70 1 0.915547 0.404558 0.993461
258 1 0.753865 0.246305 0.501696
33 1 0.318409 0.161545 0.984408
453 1 0.832626 0.491489 0.98845
261 1 0.819836 0.16185 0.499551
66 1 0.751111 0.405706 0.993981
5 1 0.166755 0.00248254 0.989201
221 1 0.155107 0.00621952 0.509188
459 1 0.0905563 0.656534 0.0954544
436 1 1.00086 0.58265 0.0830236
509 1 0.186305 0.495189 0.17091
646 1 0.916564 0.923395 0.326164
506 1 0.081788 0.562592 0.16435
440 1 0.183265 0.569288 0.079077
510 1 0.254632 0.589446 0.170256
444 1 0.335864 0.573996 0.0918115
591 1 0.563272 0.504516 0.413196
467 1 0.418768 0.660395 0.0871422
514 1 0.422395 0.584918 0.165492
85 1 0.496943 0.996218 0.173294
448 1 0.503816 0.589949 0.0733011
471 1 0.576154 0.664521 0.077389
452 1 0.67836 0.580863 0.0828058
3 1 0.101997 0.998615 0.0769345
456 1 0.832859 0.559 0.0758183
549 1 0.839776 0.653655 0.156107
522 1 0.76677 0.573797 0.178793
545 1 0.679069 0.651432 0.17176
457 1 0.985275 0.663859 -0.00704593
529 1 0.994456 0.661071 0.159932
479 1 0.90867 0.649719 0.0748439
460 1 0.990662 0.7422 0.0674537
464 1 0.160206 0.735965 0.0786754
91 1 0.758289 0.998931 0.239839
537 1 0.338342 0.664933 0.158141
463 1 0.257735 0.658311 0.0831225
487 1 0.238641 0.824497 0.0772968
534 1 0.256634 0.742007 0.16001
468 1 0.336652 0.746356 0.0943912
472 1 0.487132 0.74555 0.0922048
476 1 0.656269 0.741413 0.103502
587 1 0.420733 0.494487 0.420157
542 1 0.584674 0.749726 0.176897
475 1 0.752549 0.655177 0.0885891
546 1 0.745097 0.752916 0.163475
165 1 0.830894 1.00141 0.331583
497 1 0.652012 0.823327 0.0082072
480 1 0.833267 0.741493 0.0905653
161 1 0.668315 0.992663 0.334795
483 1 0.0988318 0.823005 0.0783346
488 1 0.162886 0.911262 0.0846194
554 1 0.0890744 0.926442 0.19265
153 1 0.342117 0.988229 0.339492
557 1 0.180311 0.835919 0.172354
558 1 0.254586 0.928656 0.151146
579 1 0.0835488 0.492125 0.414368
648 1 0.828565 0.934301 0.421527
677 1 0.156059 0.677404 0.497166
581 1 0.173107 0.507384 0.322333
491 1 0.415783 0.82446 0.0856968
492 1 0.331838 0.903393 0.0832392
561 1 0.331689 0.820802 0.178219
438 1 0.268421 0.566747 0.00461338
147 1 0.0821316 0.991833 0.413369
666 1 0.759959 0.578105 0.506014
495 1 0.567271 0.844171 0.0902966
496 1 0.501651 0.922444 0.0722313
566 1 0.581263 0.927642 0.165753
95 1 0.909077 1.00008 0.234804
674 1 0.084914 0.763808 0.514802
569 1 0.65469 0.836215 0.149287
500 1 0.656362 0.931862 0.085758
499 1 0.754194 0.836515 0.0931856
570 1 0.735198 0.92891 0.151948
628 1 0.990536 0.905437 0.415326
503 1 0.924599 0.825833 0.0805128
484 1 0.0373772 0.909965 0.0881095
504 1 0.84328 0.914939 0.0769653
573 1 0.828215 0.852403 0.162251
574 1 0.9238 0.915023 0.157864
508 1 0.98782 0.576549 0.244106
531 1 0.0805964 0.65643 0.230314
512 1 0.167425 0.590991 0.24852
582 1 0.245321 0.591759 0.335505
516 1 0.339851 0.594922 0.250123
541 1 0.509281 0.665956 0.157906
644 1 0.663311 0.904445 0.400371
586 1 0.415013 0.593512 0.324429
642 1 0.751612 0.922459 0.3208
520 1 0.493888 0.582379 0.243637
518 1 0.589258 0.570609 0.163663
524 1 0.660287 0.581846 0.262375
590 1 0.581399 0.602162 0.348934
594 1 0.752013 0.579693 0.324282
617 1 0.673578 0.672476 0.332396
526 1 0.919926 0.582545 0.156458
528 1 0.840693 0.582544 0.255851
598 1 0.908473 0.584505 0.336925
621 1 0.844248 0.665769 0.32945
533 1 0.166732 0.656801 0.158616
530 1 0.095812 0.752169 0.160328
605 1 0.164864 0.66307 0.330989
535 1 0.239636 0.673367 0.255712
536 1 0.159732 0.742079 0.248167
540 1 0.331852 0.745924 0.256881
606 1 0.258087 0.758751 0.332842
538 1 0.411195 0.751171 0.176389
539 1 0.411737 0.677635 0.250224
565 1 0.499196 0.838717 0.160688
543 1 0.579628 0.656494 0.24745
544 1 0.492066 0.756634 0.257329
567 1 0.573618 0.839234 0.236736
547 1 0.773407 0.669649 0.245924
548 1 0.677354 0.741783 0.255918
552 1 0.860927 0.757838 0.250168
550 1 0.922227 0.748399 0.149717
532 1 0.990286 0.739871 0.245009
551 1 0.910947 0.669092 0.243922
167 1 0.916392 1.00454 0.413918
553 1 0.0163989 0.827891 0.163327
481 1 0.0125457 0.826564 8.51192e-05
555 1 0.104457 0.830884 0.267577
93 1 0.834535 0.999085 0.145986
559 1 0.255531 0.839704 0.244223
560 1 0.181631 0.92383 0.243224
633 1 0.332579 0.832221 0.342872
564 1 0.335071 0.909782 0.259928
630 1 0.242814 0.918459 0.336541
718 1 0.912744 0.925531 0.501337
513 1 0.337927 0.495922 0.174734
562 1 0.420687 0.920683 0.169355
563 1 0.416985 0.838324 0.258279
634 1 0.417913 0.905297 0.341757
637 1 0.504555 0.825997 0.339803
568 1 0.497454 0.910878 0.2554
638 1 0.587713 0.910429 0.330423
157 1 0.497381 0.999749 0.323112
641 1 0.663321 0.830168 0.314923
571 1 0.737593 0.841075 0.237264
572 1 0.662443 0.917295 0.240869
639 1 0.596512 0.810959 0.410387
670 1 0.932183 0.586931 0.494393
575 1 0.922789 0.846914 0.240296
556 1 0.000457458 0.926713 0.252791
576 1 0.837727 0.920469 0.233332
585 1 0.338094 0.496434 0.343651
601 1 0.999169 0.659045 0.34024
578 1 0.0812797 0.588893 0.334299
580 1 0.00236763 0.578238 0.416707
73 1 1.00612 0.991587 0.157907
83 1 0.420313 0.991583 0.256231
584 1 0.132524 0.591966 0.422095
494 1 0.583164 0.928376 -0.0107463
588 1 0.346632 0.593879 0.411711
613 1 0.499899 0.663941 0.319998
145 1 1.00392 1.00061 0.335623
640 1 0.503427 0.909653 0.419758
636 1 0.328972 0.915194 0.432379
635 1 0.426556 0.836275 0.428086
669 1 0.828235 0.504193 0.49619
625 1 1.0015 0.833992 0.314696
592 1 0.492632 0.593092 0.405485
615 1 0.614541 0.676532 0.422984
631 1 0.262969 0.838459 0.421242
596 1 0.67195 0.586712 0.405537
619 1 0.75856 0.659273 0.424706
632 1 0.152697 0.917177 0.431018
717 1 0.841743 0.836715 0.513783
577 1 -0.0120301 0.494495 0.343484
626 1 0.0911827 0.912966 0.343285
629 1 0.167374 0.827736 0.34925
600 1 0.838715 0.591425 0.410458
647 1 0.895557 0.845091 0.417638
602 1 0.0817785 0.737754 0.336014
603 1 0.0596685 0.677471 0.412425
608 1 0.162119 0.752367 0.421608
604 1 0.993436 0.758978 0.409831
609 1 0.339978 0.668205 0.32572
607 1 0.230614 0.667378 0.410875
612 1 0.33941 0.746167 0.42085
623 1 0.919067 0.675187 0.412246
627 1 0.0669403 0.829289 0.397744
611 1 0.420114 0.670831 0.406445
610 1 0.408107 0.759808 0.332649
713 1 0.679579 0.825659 0.509334
616 1 0.517849 0.734935 0.425955
614 1 0.57632 0.733639 0.326229
622 1 0.914797 0.768605 0.338965
643 1 0.759297 0.845139 0.432664
618 1 0.769797 0.745608 0.326418
620 1 0.69972 0.758778 0.412221
624 1 0.836607 0.757168 0.414709
645 1 0.829227 0.852649 0.315272
23 1 0.927318 1.00482 0.078264
81 1 0.341981 0.993013 0.167828
515 1 0.433409 0.483338 0.245368
13 1 0.487229 1.01328 -0.00484814
583 1 0.237108 0.536492 0.422072
498 1 0.744072 0.928045 0.0121548
79 1 0.270506 1.00848 0.247711
599 1 0.909448 0.50098 0.413736
11 1 0.420498 0.999369 0.0730437
151 1 0.238828 1.00671 0.436229
434 1 0.0813419 0.562177 -0.00164577
477 1 0.829496 0.650449 0.00929167
485 1 0.16182 0.826929 -0.00732786
705 1 0.336379 0.83895 0.5098
474 1 0.74808 0.756567 0.0244607
690 1 0.762324 0.75349 0.494208
698 1 0.0695453 0.908265 0.504669
678 1 0.246055 0.756372 0.488789
493 1 0.48326 0.830461 0.00228477
470 1 0.571496 0.752155 0.00417968
473 1 0.649311 0.677357 -0.00685076
478 1 0.900809 0.739667 -0.00109832
654 1 0.252143 0.61393 0.509624
657 1 0.327768 0.513449 0.494029
658 1 0.409148 0.591838 0.50254
697 1 0.983636 0.834428 0.501512
458 1 0.0850554 0.740094 0.00907537
693 1 0.838238 0.669096 0.496372
662 1 0.582504 0.5954 0.481163
710 1 0.593749 0.90092 0.491473
661 1 0.504476 0.523871 0.502993
501 1 0.845693 0.834711 0.0134616
665 1 0.654679 0.497935 0.483202
652 1 0.996457 0.577767 0.587282
675 1 0.0779383 0.67771 0.568806
722 1 0.0895406 0.600916 0.642263
656 1 0.170435 0.597991 0.572548
660 1 0.335083 0.574799 0.595131
709 1 0.507606 0.840405 0.502465
694 1 0.912178 0.756476 0.483413
730 1 0.414878 0.584922 0.69704
844 1 0.0178821 0.911502 0.910669
683 1 0.420536 0.671532 0.595132
753 1 0.347234 0.657548 0.673091
664 1 0.494096 0.589162 0.58475
668 1 0.667937 0.562803 0.565958
761 1 0.688301 0.632288 0.647127
691 1 0.771796 0.663074 0.571262
737 1 0.689897 0.512883 0.672388
738 1 0.777075 0.584402 0.67295
672 1 0.83872 0.581953 0.57996
695 1 0.917838 0.66985 0.574217
795 1 0.0741599 0.483791 0.924349
303 1 0.590519 1.00429 0.762974
699 1 0.067914 0.828706 0.593741
681 1 0.341728 0.676504 0.521906
679 1 0.251626 0.678497 0.590933
680 1 0.165891 0.755337 0.586393
773 1 0.175265 0.838456 0.659945
703 1 0.244786 0.82943 0.567518
684 1 0.332433 0.755373 0.592104
688 1 0.495131 0.759224 0.581612
707 1 0.419776 0.830093 0.58003
687 1 0.606025 0.673158 0.596824
692 1 0.680509 0.752781 0.600549
711 1 0.597752 0.843749 0.582678
696 1 0.836222 0.750713 0.587163
762 1 0.756999 0.749847 0.67345
231 1 0.586837 1.01418 0.571675
676 1 0.989185 0.753053 0.575939
486 1 0.241544 0.913767 0.996178
766 1 0.9158 0.752364 0.651002
769 1 0.995545 0.84282 0.682626
723 1 0.0938193 0.503018 0.764668
704 1 0.170118 0.909504 0.582304
797 1 0.160197 0.500736 0.84255
793 1 0.00356836 0.513372 0.829234
864 1 0.84747 0.916282 0.93514
725 1 0.152546 0.497711 0.672765
651 1 0.0771339 0.513978 0.586022
708 1 0.331768 0.923733 0.574731
489 1 0.325161 0.829551 1.00617
311 1 0.917423 0.99112 0.760506
307 1 0.743961 0.984811 0.748689
706 1 0.42239 0.908595 0.510556
712 1 0.507926 0.928289 0.583857
716 1 0.664762 0.919405 0.598689
715 1 0.763505 0.838679 0.587066
720 1 0.839496 0.93191 0.580609
786 1 0.757792 0.922845 0.662542
469 1 0.491799 0.679632 1.0055
809 1 0.659596 0.49526 0.83243
719 1 0.920683 0.837919 0.581329
700 1 0.997144 0.915513 0.582998
377 1 0.689239 0.997183 0.841067
297 1 0.332598 1.01356 0.666756
702 1 0.245068 0.92982 0.508511
745 1 -0.00716877 0.673559 0.658628
794 1 0.085021 0.598975 0.835419
749 1 0.186535 0.6611 0.671279
726 1 0.258173 0.573301 0.667786
733 1 0.48636 0.504054 0.673842
728 1 0.160412 0.585294 0.748378
751 1 0.264949 0.664908 0.745656
798 1 0.238188 0.582502 0.829151
732 1 0.317605 0.567439 0.744918
802 1 0.42232 0.575575 0.834718
755 1 0.419684 0.673944 0.76486
736 1 0.509166 0.589538 0.751694
734 1 0.578905 0.591617 0.664878
759 1 0.589656 0.693162 0.764001
740 1 0.669655 0.601391 0.755033
763 1 0.757938 0.658631 0.75493
810 1 0.741307 0.580285 0.837719
742 1 0.923012 0.588321 0.672332
724 1 1.02029 0.593092 0.746588
744 1 0.834657 0.590726 0.772296
767 1 0.913012 0.668694 0.751733
814 1 0.927106 0.597908 0.829072
747 1 0.0726471 0.682588 0.756225
746 1 0.0764494 0.747512 0.659665
771 1 0.0913915 0.826602 0.741107
750 1 0.254449 0.757432 0.665863
777 1 0.329297 0.848463 0.652803
752 1 0.162348 0.750638 0.759416
754 1 0.4129 0.74329 0.676872
756 1 0.333417 0.760549 0.741289
757 1 0.504572 0.670795 0.676913
779 1 0.409145 0.835872 0.728405
758 1 0.581923 0.750894 0.665562
781 1 0.514624 0.849553 0.654998
760 1 0.493211 0.748121 0.7604
764 1 0.680708 0.75061 0.766934
783 1 0.594773 0.822621 0.747428
765 1 0.847626 0.672918 0.666923
837 1 0.82846 0.674684 0.846151
834 1 0.755358 0.771507 0.843579
768 1 0.84114 0.740083 0.758272
748 1 0.989754 0.755667 0.746821
791 1 0.925256 0.844561 0.764695
838 1 0.918836 0.736293 0.839824
461 1 0.174712 0.652582 1.00657
770 1 0.076743 0.922542 0.67482
776 1 0.158517 0.909739 0.755549
842 1 0.0862988 0.911419 0.82845
774 1 0.24601 0.924246 0.661615
775 1 0.23494 0.82532 0.755678
845 1 0.172972 0.821737 0.842655
846 1 0.233921 0.90943 0.837947
673 1 0.98746 0.678749 0.497398
780 1 0.334824 0.917786 0.730751
778 1 0.421755 0.930515 0.647203
784 1 0.494432 0.909298 0.749178
860 1 0.67059 0.920545 0.928113
782 1 0.586448 0.928877 0.67558
785 1 0.680111 0.839635 0.681744
854 1 0.576195 0.924058 0.8365
295 1 0.25046 0.987006 0.752658
787 1 0.760233 0.843286 0.759131
788 1 0.657868 0.910838 0.778762
789 1 0.840376 0.843448 0.666152
792 1 0.839079 0.915201 0.758084
861 1 0.850232 0.821751 0.846497
689 1 0.671193 0.653263 0.519487
862 1 0.91135 0.910404 0.849842
857 1 0.668211 0.826788 0.860085
790 1 0.916746 0.924523 0.672921
772 1 -0.00267738 0.914454 0.764253
805 1 0.499987 0.492298 0.83281
462 1 0.254553 0.739173 1.00349
821 1 0.166432 0.673899 0.843924
379 1 0.761337 0.996907 0.929899
800 1 0.156789 0.571549 0.923514
823 1 0.243841 0.672334 0.920625
804 1 0.323417 0.591136 0.91737
365 1 0.171006 1.00291 0.83597
490 1 0.407625 0.910298 1.01296
825 1 0.337384 0.679973 0.830238
808 1 0.491086 0.58049 0.926306
827 1 0.417849 0.67123 0.910843
367 1 0.252208 1.00317 0.903234
806 1 0.592859 0.583223 0.848362
289 1 -0.00257507 1.00185 0.667022
219 1 0.0850099 0.996667 0.586371
812 1 0.673049 0.580976 0.934442
816 1 0.837707 0.581171 0.907311
817 1 0.00640925 0.668183 0.833777
796 1 0.0126806 0.576591 0.927856
839 1 0.905041 0.657604 0.91542
803 1 0.415215 0.500416 0.907715
721 1 -0.0109045 0.498366 0.683825
818 1 0.0778822 0.751664 0.833212
841 1 0.994693 0.82813 0.842006
819 1 0.0995011 0.663909 0.924968
843 1 0.0836024 0.825488 0.917979
824 1 0.160896 0.741384 0.926158
822 1 0.250329 0.747413 0.831231
828 1 0.32689 0.744492 0.918309
442 1 0.406223 0.582648 1.00447
853 1 0.486978 0.832984 0.843607
826 1 0.41307 0.758905 0.828967
829 1 0.511075 0.653543 0.834301
859 1 0.754721 0.837355 0.943877
831 1 0.578419 0.661303 0.909468
832 1 0.499955 0.74079 0.913116
830 1 0.584501 0.764433 0.843251
836 1 0.666688 0.749669 0.923575
833 1 0.684571 0.663916 0.843299
835 1 0.745932 0.655925 0.939059
840 1 0.819922 0.750323 0.93245
849 1 0.322668 0.833388 0.839921
820 1 1.00095 0.741469 0.924614
863 1 0.925125 0.816116 0.934824
851 1 0.402824 0.839237 0.909254
858 1 0.766177 0.918978 0.836864
848 1 0.163941 0.908693 0.912164
847 1 0.242152 0.828959 0.920861
852 1 0.326902 0.913503 0.909685
856 1 0.496771 0.926868 0.925618
855 1 0.569674 0.836554 0.93207
850 1 0.400479 0.915713 0.815259
663 1 0.57315 0.508821 0.604927
659 1 0.418379 0.504637 0.571949
655 1 0.242466 0.507355 0.577026
9 1 0.337958 1.00248 0.996367
685 1 0.505313 0.667525 0.510831
739 1 0.751602 0.503294 0.75486
446 1 0.589053 0.578762 0.999143
371 1 0.411644 0.981244 0.908681
450 1 0.75095 0.568973 1.00844
682 1 0.422309 0.758748 0.496865
482 1 0.0885865 0.915439 0.986706
714 1 0.749394 0.93509 0.492363
454 1 0.915167 0.564383 1.00789
466 1 0.41848 0.749457 0.992105
686 1 0.587109 0.758267 0.504741
701 1 0.15932 0.835084 0.502909
465 1 0.33265 0.664664 1.00638
502 1 0.948556 0.918393 1.01069
217 1 -0.00259587 0.995797 0.504454
229 1 0.506117 1.0004 0.488262
650 1 0.0646512 0.601367 0.497752
653 1 0.152127 0.509792 0.510156
