ITEM: TIMESTEP
2750
ITEM: NUMBER OF ATOMS
864
ITEM: BOX BOUNDS pp pp pp
0.0000000000000000e+00 3.1559999999999999e+01
0.0000000000000000e+00 3.1559999999999999e+01
0.0000000000000000e+00 3.1559999999999999e+01
ITEM: ATOMS id type xs ys zs
27 1 0.0814297 0.152612 0.0798716
8 1 0.156421 0.0776844 0.0656635
4 1 0.990316 0.0845499 0.0755403
97 1 -0.00531702 0.154847 0.163018
10 1 0.407956 0.0703178 0.0242203
31 1 0.25405 0.177238 0.0743634
78 1 0.251336 0.0816355 0.172145
101 1 0.170696 0.156726 0.14669
105 1 0.334818 0.174517 0.161547
41 1 0.66979 0.170353 0.0153213
12 1 0.31608 0.0855652 0.0701762
16 1 0.504711 0.0812272 0.0780079
109 1 0.496293 0.169508 0.177931
35 1 0.432692 0.186126 0.0821679
20 1 0.672728 0.0755495 0.0859492
257 1 0.666323 0.16678 0.497983
113 1 0.658104 0.164297 0.172221
95 1 0.923514 0.0125904 0.251568
145 1 0.00305358 0.00948403 0.346779
599 1 0.917498 0.488345 0.409793
90 1 0.74262 0.0847248 0.172265
43 1 0.750964 0.166165 0.108032
515 1 0.411896 0.502329 0.257189
24 1 0.829486 0.0881436 0.0894568
47 1 0.911021 0.159544 0.0768591
45 1 0.836716 0.166816 -0.00153996
274 1 0.41767 0.421583 0.513714
28 1 0.000674688 0.242274 0.0820222
581 1 0.172473 0.508974 0.334202
81 1 0.334624 0.010647 0.166439
32 1 0.160832 0.252418 0.0826945
36 1 0.330007 0.252705 0.0904706
102 1 0.244253 0.24943 0.161641
125 1 0.157272 0.336236 0.143422
55 1 0.244167 0.320118 0.0842908
595 1 0.763914 0.487937 0.409137
577 1 0.0103422 0.49393 0.338566
40 1 0.503614 0.268242 0.0854221
59 1 0.4211 0.352679 0.0834035
106 1 0.414171 0.260426 0.15467
39 1 0.56796 0.179961 0.0957923
63 1 0.595747 0.33837 0.0891285
505 1 0.00207269 0.49732 0.160439
44 1 0.678456 0.250354 0.0980479
67 1 0.751408 0.334608 0.0701747
48 1 0.829511 0.254411 0.0675465
455 1 0.918208 0.508027 0.0726268
163 1 0.744255 0.0056539 0.414927
118 1 0.91468 0.241282 0.172172
34 1 0.424954 0.264559 0.00839209
513 1 0.339541 0.497487 0.171368
51 1 0.0723449 0.320428 0.0829366
56 1 0.170414 0.426818 0.0900716
249 1 0.327671 0.157518 0.502577
451 1 0.754963 0.492947 0.0825597
521 1 0.661997 0.494415 0.159482
129 1 0.336219 0.330276 0.161251
60 1 0.332383 0.43477 0.0788874
165 1 0.843224 0.0189849 0.338101
87 1 0.589694 0.0150214 0.219827
64 1 0.493893 0.444293 0.0818473
134 1 0.575681 0.423445 0.15053
22 1 0.906737 0.0751131 0.00504105
57 1 0.316009 0.337431 0.00137861
68 1 0.669765 0.420225 0.0868967
138 1 0.771196 0.412949 0.155858
72 1 0.833876 0.419855 0.0740623
18 1 0.75353 0.0940519 0.0077697
52 1 -0.00810999 0.407266 0.0917079
71 1 0.919215 0.330991 0.0744778
74 1 0.0860904 0.0901929 0.166141
99 1 0.0756489 0.172327 0.238789
80 1 0.167345 0.0856681 0.250774
103 1 0.255199 0.174113 0.256472
150 1 0.25466 0.0888863 0.334456
597 1 0.852103 0.490927 0.326881
216 1 0.841917 0.408565 0.426976
82 1 0.412266 0.0965415 0.157832
84 1 0.347531 0.0905013 0.25098
86 1 0.575609 0.0946 0.156899
88 1 0.490089 0.0876359 0.248807
92 1 0.666509 0.0910548 0.24517
215 1 0.928977 0.3291 0.40958
117 1 0.841632 0.159905 0.179368
281 1 0.666828 0.327014 0.493881
115 1 0.746849 0.16176 0.240307
94 1 0.906769 0.0740239 0.165622
211 1 0.743108 0.339922 0.412259
96 1 0.826502 0.0771052 0.242361
76 1 -0.00463101 0.0821027 0.237799
169 1 0.000628338 0.166263 0.335715
98 1 0.0766878 0.243469 0.16712
100 1 1.00098 0.253218 0.244328
170 1 0.0828999 0.248387 0.337243
104 1 0.161381 0.24077 0.237953
108 1 0.334474 0.25995 0.233213
127 1 0.242505 0.315318 0.239433
197 1 0.168863 0.326972 0.32964
107 1 0.408458 0.180874 0.236285
112 1 0.488989 0.259712 0.249812
131 1 0.416461 0.332014 0.252931
178 1 0.407119 0.252829 0.337321
110 1 0.584404 0.263715 0.179148
111 1 0.584641 0.151027 0.249931
133 1 0.492078 0.341566 0.16817
135 1 0.589915 0.339009 0.257585
137 1 0.675276 0.360417 0.193455
209 1 0.677707 0.310594 0.33056
116 1 0.675515 0.245232 0.246678
114 1 0.748529 0.267462 0.176126
139 1 0.751273 0.335272 0.259118
141 1 0.837908 0.327743 0.156948
119 1 0.92775 0.16087 0.251044
120 1 0.82861 0.258044 0.255121
121 1 0.985297 0.33669 0.167524
122 1 0.0804865 0.416682 0.157765
123 1 0.0895948 0.327344 0.237496
126 1 0.258325 0.415338 0.166414
128 1 0.155634 0.420832 0.23489
132 1 0.329256 0.413222 0.264911
130 1 0.41502 0.413899 0.177482
202 1 0.417014 0.410718 0.345429
210 1 0.755295 0.412921 0.326774
437 1 0.16403 0.505597 -0.00158472
151 1 0.257774 -0.0121469 0.414351
136 1 0.489985 0.415913 0.250963
206 1 0.58214 0.421658 0.331094
140 1 0.662175 0.444071 0.253981
79 1 0.262844 0.00951515 0.256138
144 1 0.837362 0.405772 0.238899
583 1 0.237985 0.481296 0.420983
142 1 0.907867 0.427136 0.14803
143 1 0.909621 0.336346 0.250663
124 1 -0.00495026 0.41283 0.266298
214 1 0.920637 0.403792 0.338439
213 1 0.838988 0.339005 0.338172
146 1 0.0988176 0.0884801 0.326943
148 1 1.01081 0.0833011 0.432527
152 1 0.176996 0.0651254 0.414074
173 1 0.174591 0.17395 0.322444
93 1 0.828574 -0.00609199 0.171228
212 1 0.663665 0.424895 0.397481
156 1 0.330209 0.074956 0.410736
208 1 0.502771 0.398911 0.414926
154 1 0.410858 0.0740977 0.33742
181 1 0.464545 0.163748 0.321586
657 1 0.330279 0.493679 0.50495
160 1 0.489814 0.0869419 0.423625
158 1 0.559654 0.0935766 0.339508
665 1 0.676088 0.496394 0.489552
203 1 0.410877 0.347971 0.434768
162 1 0.741542 0.0725304 0.322498
164 1 0.651659 0.0851332 0.40079
204 1 0.318042 0.400162 0.419149
166 1 0.925937 0.0926333 0.343695
168 1 0.83987 0.0838284 0.41834
201 1 0.326485 0.332072 0.329696
171 1 0.0942382 0.163212 0.412832
195 1 0.0782258 0.329733 0.407715
62 1 0.583261 0.443794 0.00182618
174 1 0.260693 0.237065 0.33896
175 1 0.260337 0.165657 0.417022
176 1 0.164995 0.243838 0.406545
180 1 0.328166 0.244442 0.420454
205 1 0.4996 0.332071 0.340147
177 1 0.341965 0.158551 0.33638
179 1 0.415745 0.166173 0.433002
184 1 0.495091 0.251765 0.411108
207 1 0.586024 0.32765 0.420995
182 1 0.576835 0.241241 0.312518
183 1 0.581871 0.166098 0.410852
185 1 0.677495 0.172781 0.331181
188 1 0.655551 0.242717 0.403508
187 1 0.754833 0.159108 0.419857
186 1 0.775064 0.239111 0.345435
190 1 0.914005 0.2488 0.333338
172 1 0.00869285 0.247618 0.419342
189 1 0.844433 0.147478 0.32884
192 1 0.857032 0.244734 0.422191
191 1 0.93027 0.16013 0.431789
222 1 0.245814 0.0861142 0.509961
254 1 0.579864 0.240266 0.50002
587 1 0.423083 0.502786 0.416662
194 1 0.086316 0.416705 0.33663
200 1 0.165423 0.401552 0.417677
196 1 0.0117352 0.414126 0.419311
193 1 1.00446 0.322274 0.322917
198 1 0.248961 0.413738 0.332562
199 1 0.239952 0.329641 0.419106
147 1 0.0913294 -0.00426802 0.423652
669 1 0.834411 0.492902 0.496537
579 1 0.0957888 0.486869 0.41865
61 1 0.501563 0.33936 0.00164838
649 1 0.00267025 0.490864 0.503661
507 1 0.0800631 0.491012 0.24904
159 1 0.569679 0.00153598 0.411635
54 1 0.248477 0.426719 0.0126766
286 1 0.914324 0.412721 0.502966
14 1 0.57824 0.106399 -0.000194769
75 1 0.0756272 0.00930244 0.249345
435 1 0.0742803 0.498434 0.0839249
241 1 0.00907921 0.167167 0.508504
233 1 0.672191 0.00300315 0.488797
266 1 0.0869803 0.403594 0.507069
225 1 0.31879 0.00210129 0.497811
38 1 0.60459 0.250233 0.00302403
53 1 0.165412 0.343508 0.0160556
258 1 0.759583 0.248265 0.47912
17 1 0.663038 0.00158009 0.0114944
230 1 0.579824 0.0988263 0.49538
237 1 0.842192 -0.00647207 0.493674
21 1 0.825172 0.0065562 0.0139548
290 1 0.099928 0.0815298 0.667567
224 1 0.160386 0.0909671 0.581518
433 1 1.0044 0.496303 0.983998
238 1 0.925723 0.0844146 0.507912
317 1 0.159379 0.162596 0.676153
228 1 0.333955 0.080396 0.57768
321 1 0.324906 0.160542 0.68847
729 1 0.337691 0.506391 0.677524
294 1 0.256694 0.0727872 0.672611
231 1 0.572899 -0.00302591 0.595547
261 1 0.844736 0.157212 0.492822
298 1 0.408898 0.0941249 0.674114
232 1 0.498606 0.0909387 0.577239
50 1 0.0902818 0.422057 0.993835
667 1 0.742592 0.500965 0.585255
255 1 0.586226 0.16832 0.599896
377 1 0.681437 -0.00615675 0.832587
49 1 0.0100905 0.32818 0.993667
66 1 0.745026 0.417672 0.988946
799 1 0.258562 0.493989 0.925679
236 1 0.665654 0.0916558 0.577898
65 1 0.670865 0.321216 1.00294
297 1 0.34025 -0.0125256 0.660795
242 1 0.097469 0.247056 0.502008
220 1 0.0107497 0.0877785 0.587461
240 1 0.832204 0.0753477 0.572171
379 1 0.740975 0.013656 0.929764
69 1 0.837363 0.344708 0.999307
431 1 0.923996 0.32027 0.912138
243 1 0.0806849 0.167145 0.585031
314 1 0.0800234 0.24791 0.682013
248 1 0.163934 0.247865 0.599112
267 1 0.0945671 0.324177 0.582975
725 1 0.165847 0.508758 0.658633
341 1 0.154197 0.336907 0.676303
26 1 0.0876539 0.252999 0.996326
247 1 0.246301 0.162874 0.605982
252 1 0.325217 0.252974 0.588651
318 1 0.251062 0.258403 0.676971
271 1 0.242669 0.327737 0.590733
301 1 0.493733 0.0094528 0.666098
251 1 0.401832 0.157357 0.577057
322 1 0.396049 0.255829 0.680655
275 1 0.424226 0.335512 0.576925
345 1 0.331189 0.332322 0.664005
721 1 0.00700028 0.489203 0.694261
256 1 0.499023 0.257204 0.589314
260 1 0.665181 0.249226 0.590697
671 1 0.932262 0.500307 0.578883
663 1 0.601627 0.501779 0.569953
259 1 0.752511 0.167945 0.570573
30 1 0.240187 0.251714 0.999644
353 1 0.673194 0.34235 0.655065
70 1 0.917192 0.421762 1.00233
244 1 -0.00194443 0.245366 0.591623
263 1 0.913526 0.159389 0.595858
264 1 0.832077 0.241118 0.57156
287 1 0.916246 0.316837 0.589885
334 1 0.911041 0.241771 0.676151
733 1 0.494537 0.496328 0.657062
338 1 0.0812002 0.413656 0.66225
432 1 0.837797 0.423479 0.910086
272 1 0.164415 0.415135 0.592732
269 1 0.162085 0.320915 0.498745
250 1 0.401824 0.251265 0.494745
273 1 0.32507 0.33389 0.50345
276 1 0.335563 0.418424 0.579003
226 1 0.405739 0.077151 0.500083
346 1 0.424895 0.415058 0.662759
811 1 0.739145 0.497197 0.898002
229 1 0.499025 0.00204055 0.501986
279 1 0.589364 0.32397 0.568841
280 1 0.506544 0.407985 0.587796
350 1 0.579388 0.411703 0.661159
375 1 0.577398 0.00396458 0.930486
423 1 0.584117 0.325646 0.91508
284 1 0.672011 0.422836 0.566577
283 1 0.750035 0.319788 0.586503
354 1 0.747219 0.418487 0.65124
307 1 0.771033 0.0161312 0.732237
410 1 0.0865389 0.410389 0.826994
411 1 0.102568 0.332315 0.928464
268 1 1.00713 0.408113 0.587418
288 1 0.84813 0.429498 0.599344
337 1 0.0108975 0.332432 0.657774
219 1 0.0837336 0.00229527 0.571491
412 1 -0.00539771 0.415003 0.899818
296 1 0.185406 0.0778463 0.759331
313 1 0.00755671 0.153652 0.659763
362 1 0.0746329 0.0694488 0.845395
420 1 0.334987 0.40472 0.90875
407 1 0.908289 0.171992 0.927442
300 1 0.336951 0.0735655 0.753065
323 1 0.414616 0.168494 0.766163
370 1 0.419976 0.0777096 0.838622
388 1 -0.00235234 0.240867 0.91661
302 1 0.57277 0.084274 0.686509
304 1 0.498041 0.072712 0.75579
329 1 0.672944 0.149785 0.677315
374 1 0.589302 0.0775252 0.836077
306 1 0.745561 0.0825322 0.651336
739 1 0.749443 0.500815 0.75316
308 1 0.683477 0.0856521 0.7702
331 1 0.761095 0.150426 0.751228
419 1 0.405115 0.323589 0.920966
333 1 0.832239 0.166623 0.670732
312 1 0.850755 0.0906109 0.755825
292 1 -0.00474438 0.0677921 0.749236
310 1 0.921816 0.0666096 0.656309
405 1 0.836364 0.16835 0.838871
418 1 0.424914 0.423432 0.830561
408 1 0.832631 0.258925 0.918926
315 1 0.0799682 0.147886 0.750715
316 1 1.00101 0.253578 0.754338
320 1 0.163205 0.247547 0.75172
413 1 0.169592 0.324783 0.822772
319 1 0.244249 0.175032 0.757744
390 1 0.241808 0.247603 0.842734
324 1 0.332402 0.238643 0.769319
343 1 0.255009 0.33667 0.753964
394 1 0.417913 0.251276 0.842302
397 1 0.50366 0.157519 0.827771
417 1 0.331075 0.341833 0.823006
325 1 0.479253 0.172171 0.665942
328 1 0.50041 0.253766 0.757374
347 1 0.407471 0.330179 0.753116
326 1 0.590145 0.242619 0.675858
327 1 0.613246 0.167366 0.762478
351 1 0.592772 0.336044 0.750519
398 1 0.582714 0.258099 0.836067
330 1 0.748865 0.244864 0.669818
332 1 0.68281 0.251138 0.760247
355 1 0.756311 0.324292 0.741168
335 1 0.927103 0.159055 0.734489
336 1 0.834384 0.236069 0.758628
359 1 0.912556 0.339204 0.742476
339 1 0.077815 0.338881 0.750048
385 1 0.997781 0.164138 0.822347
427 1 0.752794 0.330989 0.913071
342 1 0.255254 0.416522 0.661733
344 1 0.178909 0.413541 0.74896
404 1 0.67307 0.250411 0.912286
406 1 0.911644 0.234686 0.834682
2 1 0.0732552 0.0797588 0.99445
348 1 0.333353 0.427594 0.749164
349 1 0.500371 0.32637 0.668655
425 1 0.677491 0.331143 0.831205
421 1 0.500008 0.334934 0.844408
352 1 0.498749 0.402259 0.754279
424 1 0.512417 0.421096 0.928455
356 1 0.665064 0.414459 0.746231
426 1 0.751499 0.40237 0.827352
357 1 0.829751 0.309971 0.665457
430 1 0.915343 0.416762 0.831884
340 1 0.00233001 0.410782 0.765573
358 1 0.930608 0.421002 0.661222
360 1 0.833733 0.421763 0.741244
422 1 0.576437 0.417617 0.848082
389 1 0.153158 0.157864 0.836725
387 1 0.0746766 0.158114 0.918846
368 1 0.163561 0.0776728 0.917806
402 1 0.759232 0.247259 0.836113
366 1 0.245748 0.0696327 0.846422
393 1 0.326778 0.146112 0.8405
372 1 0.351067 0.083504 0.922722
396 1 0.32964 0.254034 0.92986
416 1 0.174502 0.427861 0.908442
429 1 0.845563 0.332245 0.832606
376 1 0.504907 0.0862216 0.911724
395 1 0.430676 0.163756 0.926413
401 1 0.687986 0.165852 0.844077
399 1 0.591694 0.172651 0.896296
400 1 0.514062 0.242576 0.918697
378 1 0.752176 0.0875374 0.846045
403 1 0.759297 0.171355 0.924693
380 1 0.665758 0.0883038 0.935326
364 1 0.986552 0.0859002 0.919501
384 1 0.828211 0.083437 0.924294
382 1 0.9231 0.0846761 0.833619
428 1 0.663773 0.402999 0.919236
386 1 0.0717248 0.25128 0.839195
409 1 -0.00600309 0.322168 0.837254
392 1 0.166736 0.24609 0.916962
737 1 0.661209 0.489741 0.666762
415 1 0.227275 0.338641 0.916161
391 1 0.24332 0.160623 0.914599
414 1 0.263544 0.421298 0.825695
218 1 0.0973899 0.0797124 0.501678
29 1 0.16286 0.164901 0.993541
262 1 0.925246 0.235004 0.507345
245 1 0.164318 0.171353 0.510445
58 1 0.419233 0.412227 0.989185
234 1 0.750029 0.0819456 0.491714
291 1 0.0918095 -0.000904921 0.766057
453 1 0.848 0.500641 0.993424
381 1 0.828235 0.0146147 0.831706
803 1 0.434002 0.493284 0.908623
371 1 0.432722 -0.0102963 0.918585
223 1 0.254704 0.00244252 0.589888
655 1 0.256441 0.494091 0.590828
33 1 0.345763 0.172693 1.01315
653 1 0.164736 0.481615 0.507688
277 1 0.509583 0.33579 0.498669
270 1 0.248157 0.403148 0.506418
42 1 0.751161 0.253705 0.990366
661 1 0.499668 0.506581 0.513405
253 1 0.487072 0.171434 0.515217
265 1 -0.00292835 0.320914 0.502769
25 1 -0.0112331 0.163805 0.99516
282 1 0.757491 0.413251 0.499925
37 1 0.501686 0.187767 1.01019
246 1 0.252111 0.232693 0.507765
285 1 0.828971 0.324383 0.496825
278 1 0.587186 0.409642 0.498357
6 1 0.25049 0.0661263 0.988921
221 1 0.16869 -0.0134051 0.51026
46 1 0.92116 0.24196 1.00881
459 1 0.0869156 0.673207 0.0762639
523 1 0.769521 0.490568 0.241031
440 1 0.153676 0.594828 0.0680403
533 1 0.158546 0.656431 0.160835
510 1 0.23834 0.585246 0.160443
648 1 0.838881 0.917659 0.413746
444 1 0.327177 0.591866 0.0999947
448 1 0.494049 0.590969 0.0746426
646 1 0.912919 0.931673 0.332788
452 1 0.666586 0.595988 0.0927959
518 1 0.604917 0.601611 0.175926
545 1 0.672826 0.685492 0.161864
642 1 0.738049 0.918914 0.334016
645 1 0.837102 0.832758 0.335146
475 1 0.745393 0.666006 0.0664701
456 1 0.82997 0.583516 0.0748712
522 1 0.740867 0.565164 0.169
436 1 -0.00200934 0.577134 0.0684302
673 1 1.00153 0.672357 0.50817
526 1 0.924714 0.580972 0.149579
589 1 0.498449 0.497388 0.340942
527 1 0.927622 0.492306 0.245113
464 1 0.18876 0.769974 0.065073
530 1 0.0703079 0.753932 0.164171
460 1 1.00296 0.738418 0.0868988
553 1 0.998911 0.834534 0.185674
463 1 0.247065 0.666003 0.0827425
487 1 0.260727 0.846548 0.0879568
467 1 0.409824 0.660981 0.0845911
468 1 0.319689 0.748114 0.0779794
538 1 0.412925 0.742825 0.174674
155 1 0.41498 0.987997 0.417993
472 1 0.500198 0.755521 0.0792118
541 1 0.490958 0.670404 0.174562
537 1 0.331632 0.678943 0.177566
561 1 0.332859 0.830413 0.172965
471 1 0.582825 0.669792 0.085491
476 1 0.647185 0.761586 0.0900152
585 1 0.340491 0.488676 0.33831
7 1 0.23641 0.990777 0.076854
477 1 0.833683 0.668378 0.0120232
480 1 0.833536 0.748812 0.104395
77 1 0.156785 1.00722 0.160204
479 1 0.911999 0.673551 0.0960512
549 1 0.815132 0.648272 0.165042
509 1 0.163125 0.506011 0.173231
483 1 0.0708246 0.845932 0.105356
488 1 0.164097 0.919992 0.0994195
554 1 0.0799911 0.929432 0.172643
650 1 0.0780036 0.590872 0.495271
557 1 0.171307 0.830933 0.153277
493 1 0.507299 0.849865 0.00162493
491 1 0.411506 0.818714 0.0981481
492 1 0.341489 0.920244 0.0811666
562 1 0.403438 0.917926 0.164734
718 1 0.91573 0.910565 0.493892
495 1 0.574835 0.837303 0.0927182
525 1 0.840312 0.515972 0.156314
496 1 0.490073 0.909637 0.0962379
500 1 0.678675 0.925385 0.0839469
478 1 0.917537 0.739673 0.00538347
499 1 0.739041 0.838638 0.0983223
504 1 0.821533 0.918461 0.0973302
593 1 0.673393 0.510704 0.339719
466 1 0.416229 0.746902 0.00556425
489 1 0.343936 0.843797 0.00262184
503 1 0.917533 0.835415 0.0974113
484 1 0.995237 0.916965 0.094802
574 1 0.916445 0.920844 0.176265
506 1 0.0809373 0.582457 0.150445
638 1 0.584287 0.923873 0.325036
531 1 0.0776177 0.659417 0.256998
508 1 -0.00545694 0.573185 0.232513
639 1 0.593932 0.816662 0.439061
512 1 0.160295 0.585437 0.247948
516 1 0.318451 0.582702 0.259561
717 1 0.824957 0.817891 0.47281
535 1 0.241123 0.652489 0.256986
630 1 0.251224 0.920393 0.335506
609 1 0.323216 0.658437 0.339737
149 1 0.178208 1.01263 0.326275
517 1 0.489992 0.511116 0.166651
514 1 0.414001 0.589029 0.178886
586 1 0.404973 0.574542 0.341823
520 1 0.49338 0.585262 0.252393
539 1 0.4068 0.673517 0.26276
543 1 0.596214 0.661653 0.252163
590 1 0.583364 0.590318 0.333575
524 1 0.675714 0.590511 0.259552
547 1 0.76326 0.672881 0.248625
528 1 0.839855 0.583968 0.236032
551 1 0.919357 0.655727 0.2376
644 1 0.666852 0.930561 0.415469
529 1 0.00326961 0.661779 0.169747
555 1 0.0805252 0.838283 0.256809
532 1 1.00843 0.757639 0.262889
534 1 0.249447 0.755012 0.180042
536 1 0.150876 0.748877 0.237531
606 1 0.246701 0.747642 0.339483
629 1 0.161639 0.846573 0.335004
540 1 0.319392 0.748618 0.263272
563 1 0.408209 0.836051 0.250885
544 1 0.48927 0.754365 0.256304
610 1 0.414236 0.747376 0.348115
613 1 0.496788 0.670989 0.335504
542 1 0.569573 0.745569 0.179267
641 1 0.648753 0.831876 0.345343
617 1 0.672115 0.68087 0.32877
548 1 0.659308 0.759262 0.252639
614 1 0.574109 0.745686 0.340164
546 1 0.749569 0.751409 0.179403
552 1 0.838005 0.748677 0.261523
573 1 0.819439 0.835739 0.180027
550 1 0.931218 0.747755 0.170997
575 1 0.902167 0.839766 0.249911
511 1 0.249284 0.491791 0.24663
560 1 0.171737 0.92285 0.241307
556 1 -0.0155073 0.925691 0.253749
631 1 0.24197 0.848073 0.418176
559 1 0.236319 0.832995 0.259669
558 1 0.245668 0.916875 0.165224
627 1 0.0841163 0.836996 0.417362
443 1 0.410054 0.520906 0.0816928
565 1 0.492231 0.831849 0.175658
564 1 0.315607 0.918113 0.247059
568 1 0.495183 0.910847 0.254942
567 1 0.582933 0.8408 0.258975
569 1 0.651293 0.829751 0.169015
566 1 0.578063 0.918054 0.175062
570 1 0.741036 0.92327 0.170919
572 1 0.669669 0.919987 0.251327
571 1 0.744185 0.836986 0.26053
576 1 0.836646 0.92656 0.266845
632 1 0.169043 0.920085 0.420712
690 1 0.741037 0.748655 0.498973
625 1 -0.0079105 0.840192 0.336828
601 1 1.00253 0.667398 0.331896
640 1 0.492336 0.906514 0.410422
578 1 0.084424 0.574113 0.346477
584 1 0.172334 0.573129 0.420618
580 1 0.996253 0.574628 0.419854
582 1 0.260556 0.572136 0.345769
19 1 0.750053 1.00776 0.0974427
626 1 0.0843842 0.929184 0.317267
519 1 0.57712 0.490191 0.242473
588 1 0.335774 0.576806 0.432195
592 1 0.506384 0.58387 0.420832
611 1 0.413049 0.659986 0.419539
153 1 0.33652 1.00288 0.339797
23 1 0.920932 0.998729 0.0952746
596 1 0.678563 0.577339 0.415141
594 1 0.771036 0.569967 0.319772
634 1 0.408402 0.905714 0.34067
636 1 0.337652 0.92014 0.419367
73 1 1.00051 1.00403 0.162624
621 1 0.842409 0.668458 0.322512
598 1 0.924758 0.586023 0.326235
600 1 0.855576 0.587683 0.416165
15 1 0.577281 1.00149 0.10054
605 1 0.15986 0.654796 0.348977
602 1 0.087409 0.747723 0.331442
603 1 0.0713887 0.665385 0.419318
607 1 0.248813 0.653226 0.435694
608 1 0.163391 0.744046 0.421647
612 1 0.333309 0.739274 0.421654
635 1 0.409281 0.832288 0.420252
633 1 0.33276 0.832517 0.352252
637 1 0.498692 0.824508 0.335131
616 1 0.506083 0.758719 0.413584
3 1 0.083243 0.990577 0.0813348
620 1 0.674201 0.743554 0.423145
701 1 0.160931 0.834957 0.510173
615 1 0.588525 0.674616 0.413565
643 1 0.742527 0.835198 0.407713
618 1 0.743483 0.754025 0.331552
619 1 0.753925 0.663606 0.412315
647 1 0.915009 0.849032 0.415096
604 1 1.00819 0.748564 0.414519
622 1 0.92496 0.752275 0.335586
623 1 0.919308 0.664384 0.410872
624 1 0.83602 0.742243 0.40149
628 1 0.00355506 0.924776 0.399547
693 1 0.843604 0.664181 0.505577
157 1 0.490847 1.00216 0.329877
439 1 0.23041 0.506422 0.0850027
91 1 0.752276 0.997197 0.252747
167 1 0.916082 1.00576 0.413127
658 1 0.434892 0.585547 0.498337
83 1 0.410327 0.982029 0.258662
713 1 0.674227 0.830234 0.506108
11 1 0.421438 0.995951 0.0929439
438 1 0.261214 0.585647 0.00119832
85 1 0.494358 0.999101 0.179849
591 1 0.56925 0.480377 0.418983
447 1 0.580964 0.523752 0.0688868
89 1 0.670509 1.00315 0.169106
685 1 0.509005 0.669076 0.482838
161 1 0.650767 1.015 0.321117
666 1 0.753895 0.566988 0.499007
677 1 0.165863 0.655574 0.502295
501 1 0.827221 0.822646 0.0236213
705 1 0.322381 0.842345 0.498252
481 1 -0.0135965 0.83825 0.00649497
494 1 0.588538 0.915182 0.000447037
217 1 -0.00364069 0.988997 0.498022
502 1 0.893069 0.923187 0.0119773
458 1 0.0753874 0.767673 0.0172287
714 1 0.764346 0.908644 0.490668
709 1 0.508711 0.833914 0.50078
694 1 0.910484 0.761453 0.488033
682 1 0.42141 0.745193 0.48534
662 1 0.584952 0.574515 0.484241
486 1 0.263847 0.907442 -0.00201935
449 1 0.671501 0.512765 0.00419302
13 1 0.5058 0.994227 0.0148631
652 1 0.000632799 0.596006 0.596348
706 1 0.425941 0.912815 0.501011
675 1 0.083605 0.672129 0.587998
239 1 0.912933 0.995775 0.574768
656 1 0.155378 0.574975 0.581599
689 1 0.665511 0.659463 0.502578
660 1 0.331037 0.578781 0.587172
710 1 0.589 0.937834 0.490925
497 1 0.672436 0.837108 0.991849
683 1 0.432551 0.683069 0.574037
664 1 0.502301 0.581651 0.58985
753 1 0.322916 0.675199 0.665145
668 1 0.665404 0.584001 0.576062
734 1 0.581774 0.568563 0.662551
441 1 0.345839 0.502194 0.987884
801 1 0.340871 0.50146 0.849549
738 1 0.751343 0.578872 0.661199
5 1 0.160161 0.981807 1.00546
702 1 0.249863 0.92168 0.495878
672 1 0.824961 0.574049 0.584973
695 1 0.920222 0.671262 0.58675
765 1 0.820565 0.657963 0.652167
434 1 0.0814053 0.587329 0.99052
680 1 0.163101 0.747249 0.587197
727 1 0.247997 0.508256 0.752827
367 1 0.250588 0.983547 0.923617
679 1 0.247378 0.654175 0.568334
684 1 0.332939 0.75329 0.582174
750 1 0.253159 0.7529 0.653941
754 1 0.421598 0.759159 0.666489
795 1 0.0871045 0.49027 0.909873
289 1 1.00532 1.00033 0.659889
687 1 0.56501 0.662112 0.575704
688 1 0.494106 0.758291 0.579567
692 1 0.661419 0.744659 0.583241
758 1 0.573896 0.751073 0.668022
797 1 0.17687 0.505313 0.836427
691 1 0.75261 0.65451 0.559898
715 1 0.752002 0.838754 0.574957
785 1 0.672406 0.841074 0.663461
762 1 0.744986 0.748041 0.641295
299 1 0.409332 0.995519 0.754699
676 1 0.00420619 0.751622 0.589043
696 1 0.840672 0.755682 0.568139
766 1 0.911852 0.747097 0.650322
363 1 0.0706111 0.993703 0.917859
699 1 0.0753723 0.841392 0.584512
700 1 -0.00309162 0.920919 0.581912
704 1 0.15638 0.917157 0.580335
651 1 0.0698831 0.509725 0.593544
773 1 0.162284 0.837882 0.645178
741 1 0.826075 0.501712 0.673374
777 1 0.338085 0.841669 0.655709
703 1 0.252736 0.839961 0.576915
708 1 0.333311 0.923904 0.578457
774 1 0.245733 0.924127 0.646456
805 1 0.515236 0.499068 0.825346
707 1 0.415525 0.820188 0.562062
469 1 0.500006 0.662234 1.00023
778 1 0.420868 0.918146 0.658421
712 1 0.506516 0.918046 0.580297
807 1 0.581575 0.508379 0.912063
711 1 0.594652 0.849376 0.570594
781 1 0.488331 0.84234 0.669501
782 1 0.572773 0.909708 0.665319
716 1 0.669499 0.926993 0.562919
698 1 0.0880232 0.918332 0.488435
844 1 0.986513 0.901583 0.914981
863 1 0.907744 0.832906 0.94121
813 1 0.833683 0.499506 0.835502
719 1 0.918495 0.838058 0.574043
862 1 0.899599 0.920466 0.822479
720 1 0.828563 0.914927 0.569228
383 1 0.910204 0.991042 0.922194
745 1 0.000401368 0.679643 0.667477
722 1 0.0889728 0.588654 0.681867
794 1 0.0884256 0.580522 0.829893
809 1 0.662109 0.507273 0.820281
728 1 0.172908 0.603945 0.762827
726 1 0.23743 0.587162 0.67613
732 1 0.325922 0.594156 0.742245
730 1 0.410624 0.581563 0.656776
825 1 0.328564 0.677541 0.827807
757 1 0.488801 0.662186 0.660791
829 1 0.509656 0.662937 0.830448
457 1 0.000198305 0.670491 0.994821
736 1 0.49979 0.578665 0.743263
740 1 0.65603 0.578118 0.748278
759 1 0.58715 0.661904 0.729428
806 1 0.58074 0.588695 0.823925
858 1 0.754159 0.915274 0.838171
742 1 0.921682 0.583027 0.666173
724 1 0.00322161 0.591087 0.749557
744 1 0.839355 0.582785 0.749148
361 1 -0.0233732 0.978431 0.840133
746 1 0.084012 0.753865 0.666834
749 1 0.176033 0.668052 0.671295
747 1 0.083807 0.672795 0.742745
752 1 0.168117 0.761477 0.753112
748 1 0.992786 0.754744 0.750901
751 1 0.24277 0.677824 0.760831
822 1 0.250928 0.759407 0.829786
756 1 0.34184 0.746253 0.745403
755 1 0.420041 0.670987 0.740679
853 1 0.504273 0.835503 0.82561
826 1 0.415118 0.758873 0.832128
761 1 0.667943 0.660479 0.646499
760 1 0.494058 0.759141 0.757026
783 1 0.596884 0.833085 0.755349
764 1 0.665923 0.736105 0.730348
833 1 0.658871 0.660288 0.821683
763 1 0.741277 0.641122 0.738506
787 1 0.756794 0.826902 0.739335
769 1 0.996718 0.842346 0.66042
767 1 0.916796 0.675534 0.762409
768 1 0.838633 0.756615 0.7512
817 1 0.0123315 0.674702 0.824934
771 1 0.0738357 0.851603 0.736832
770 1 0.0952659 0.920837 0.664336
776 1 0.171951 0.911651 0.736916
864 1 0.827994 0.923698 0.913321
311 1 0.911506 0.991838 0.739756
845 1 0.164441 0.83756 0.835379
775 1 0.255353 0.832147 0.729904
846 1 0.253769 0.921199 0.819416
780 1 0.332779 0.917816 0.739312
450 1 0.747286 0.578453 0.983677
779 1 0.410943 0.839349 0.763224
850 1 0.414037 0.909487 0.847814
849 1 0.328509 0.836133 0.831032
735 1 0.579634 0.479443 0.746432
654 1 0.24848 0.565256 0.505238
854 1 0.58269 0.927199 0.845491
784 1 0.497095 0.919776 0.754727
856 1 0.503225 0.906846 0.910969
861 1 0.837247 0.834024 0.823467
788 1 0.681693 0.920645 0.750232
786 1 0.73609 0.913334 0.64681
790 1 0.898965 0.907723 0.664744
789 1 0.828019 0.82945 0.649769
772 1 0.995981 0.925592 0.733934
792 1 0.820304 0.917864 0.741884
791 1 0.911922 0.835617 0.744176
678 1 0.253166 0.759273 0.503512
819 1 0.080365 0.672015 0.921362
796 1 1.00997 0.59161 0.907422
309 1 0.82332 0.990001 0.656114
800 1 0.174239 0.578495 0.919661
798 1 0.257505 0.592272 0.837257
821 1 0.162498 0.675498 0.848993
227 1 0.420509 1.00631 0.573784
860 1 0.674919 0.9197 0.917982
804 1 0.35112 0.590789 0.928276
802 1 0.404023 0.593223 0.82919
808 1 0.493632 0.57852 0.889281
848 1 0.153507 0.913697 0.910329
841 1 0.995845 0.83303 0.827732
842 1 0.068965 0.914357 0.83472
723 1 0.100476 0.492969 0.749429
812 1 0.672357 0.571884 0.903615
659 1 0.407946 0.50719 0.577236
835 1 0.749717 0.67234 0.913734
810 1 0.74857 0.583849 0.829304
838 1 0.914639 0.750127 0.839022
793 1 0.990554 0.519141 0.828655
847 1 0.25367 0.846932 0.91238
814 1 0.91518 0.593906 0.841342
731 1 0.41816 0.517277 0.754678
816 1 0.827235 0.589284 0.907237
852 1 0.342632 0.903395 0.922243
818 1 0.07663 0.766534 0.829492
843 1 0.0767479 0.837138 0.920681
820 1 0.997757 0.760143 0.919944
839 1 0.916976 0.664378 0.924677
837 1 0.830357 0.683521 0.832619
824 1 0.162655 0.755731 0.922867
823 1 0.2521 0.67299 0.898495
828 1 0.331579 0.766383 0.910051
303 1 0.59964 0.995198 0.745349
827 1 0.41317 0.671634 0.920116
851 1 0.420193 0.823849 0.916351
832 1 0.51636 0.743468 0.895887
834 1 0.747692 0.743349 0.820493
830 1 0.588085 0.746624 0.822185
857 1 0.678323 0.835751 0.831777
840 1 0.843465 0.749684 0.919334
831 1 0.587137 0.66707 0.910648
855 1 0.594854 0.830132 0.911795
836 1 0.673397 0.752629 0.905577
859 1 0.768817 0.827964 0.913393
743 1 0.914111 0.499066 0.741454
482 1 0.0798645 0.915482 1.00935
373 1 0.506573 0.999883 0.827541
485 1 0.172581 0.84328 0.99308
235 1 0.74703 0.998845 0.562859
442 1 0.41491 0.592754 1.00589
470 1 0.577585 0.751631 0.99033
490 1 0.422801 0.918919 1.00605
295 1 0.258786 1.00242 0.760752
305 1 0.675769 1.00062 0.671759
293 1 0.171569 1.00462 0.677208
815 1 0.91537 0.504514 0.908863
369 1 0.329585 0.997305 0.849775
9 1 0.341249 0.99367 0.98816
365 1 0.171408 0.996649 0.833857
681 1 0.333709 0.659918 0.506169
445 1 0.500448 0.507372 0.994433
454 1 0.92766 0.577047 0.987379
446 1 0.592407 0.604742 0.989318
697 1 0.00569639 0.838807 0.495304
498 1 0.745148 0.927894 1.00012
1 1 0.997396 0.990264 1.00153
465 1 0.327854 0.674378 1.00324
670 1 0.922409 0.591193 0.505052
674 1 0.0780107 0.756911 0.509409
473 1 0.667663 0.6734 0.996461
474 1 0.757935 0.746616 0.994146
462 1 0.258098 0.75599 0.98107
686 1 0.577 0.748155 0.512406
461 1 0.186845 0.664514 0.989374
