ITEM: TIMESTEP
7300
ITEM: NUMBER OF ATOMS
864
ITEM: BOX BOUNDS pp pp pp
0.0000000000000000e+00 3.1559999999999999e+01
0.0000000000000000e+00 3.1559999999999999e+01
0.0000000000000000e+00 3.1559999999999999e+01
ITEM: ATOMS id type xs ys zs
8 1 0.152294 0.0946814 0.0695039
74 1 0.0911012 0.076818 0.171318
27 1 0.074743 0.165693 0.0873412
101 1 0.181704 0.172861 0.173329
21 1 0.842218 -0.00597253 0.00448711
196 1 1.00052 0.413792 0.424254
12 1 0.314746 0.0608436 0.0771386
42 1 0.760908 0.252817 -0.000321056
149 1 0.17173 0.0114647 0.335013
82 1 0.413279 0.0724326 0.155998
16 1 0.499159 0.0844248 0.0843799
167 1 0.919282 -2.90629e-05 0.416356
105 1 0.330218 0.15974 0.167453
258 1 0.744522 0.254096 0.501872
86 1 0.596847 0.0767084 0.170875
20 1 0.660646 0.0951486 0.096367
50 1 0.0883046 0.423001 0.012841
19 1 0.743826 0.0258746 0.0902453
43 1 0.741047 0.180569 0.0837742
90 1 0.744408 0.10023 0.175721
525 1 0.826356 0.501042 0.18102
521 1 0.674863 0.509726 0.16514
24 1 0.821745 0.0983352 0.0766836
4 1 -0.00113715 0.0850402 0.0802162
47 1 0.913448 0.16037 0.0953447
216 1 0.832561 0.412133 0.42452
94 1 0.913649 0.070228 0.147459
214 1 0.918432 0.421258 0.336877
32 1 0.179189 0.244449 0.0890298
51 1 0.0839249 0.339672 0.0881903
98 1 0.0746389 0.248402 0.164733
31 1 0.253193 0.155592 0.0813937
125 1 0.152598 0.323482 0.159818
102 1 0.261557 0.238446 0.165286
155 1 0.42253 0.0139512 0.416462
109 1 0.495876 0.160563 0.166111
36 1 0.334872 0.239926 0.0904835
35 1 0.409786 0.157244 0.0874029
583 1 0.25705 0.499687 0.41313
145 1 1.00837 0.0131237 0.33711
40 1 0.493085 0.251037 0.0810251
39 1 0.580086 0.178433 0.0791807
44 1 0.667738 0.26059 0.0837268
110 1 0.575761 0.256186 0.156852
581 1 0.172072 0.494284 0.31272
48 1 0.830362 0.247053 0.0949381
67 1 0.757227 0.322817 0.0879915
114 1 0.753834 0.255573 0.189057
3 1 0.0989769 -0.00704484 0.0909334
579 1 0.11028 0.487257 0.409281
97 1 0.999921 0.160206 0.170113
28 1 0.988706 0.25359 0.0982739
121 1 0.982032 0.327799 0.173226
117 1 0.819979 0.172928 0.165931
118 1 0.919506 0.239062 0.181615
221 1 0.168089 0.0137176 0.500013
122 1 0.0773917 0.403 0.171333
45 1 0.828473 0.166441 -0.00150581
165 1 0.825507 -0.00143396 0.311476
75 1 0.082282 0.00518236 0.256911
56 1 0.175495 0.403062 0.0993237
55 1 0.253926 0.334883 0.0864925
210 1 0.745549 0.42039 0.342564
59 1 0.413005 0.330191 0.0761772
60 1 0.337957 0.407421 0.0790628
133 1 0.491752 0.330352 0.154483
266 1 0.0820916 0.404769 0.518161
129 1 0.33543 0.319786 0.159192
147 1 0.0851627 0.0116926 0.420449
91 1 0.726582 -6.50342e-05 0.244572
64 1 0.50053 0.429389 0.0923042
63 1 0.572379 0.333857 0.0746083
68 1 0.664164 0.406915 0.0812648
141 1 0.842011 0.32272 0.180772
72 1 0.823006 0.408331 0.106567
159 1 0.589786 -0.00119485 0.405759
71 1 0.914705 0.336576 0.0801069
52 1 1.00377 0.410479 0.079431
212 1 0.667175 0.41726 0.402105
142 1 0.907668 0.41169 0.181553
211 1 0.749345 0.336872 0.410284
519 1 0.596253 0.525502 0.236196
80 1 0.184474 0.0902963 0.248926
169 1 0.00240092 0.154168 0.333607
146 1 0.0845097 0.087892 0.326015
78 1 0.250237 0.0795893 0.158515
188 1 0.662612 0.253955 0.419494
103 1 0.259931 0.173013 0.250495
84 1 0.331371 0.0738484 0.250089
150 1 0.262161 0.0988355 0.334647
182 1 0.569059 0.252768 0.334907
107 1 0.416693 0.152721 0.234
88 1 0.520167 0.0927779 0.238344
18 1 0.756807 0.0806915 -0.00314617
111 1 0.591771 0.189097 0.247219
92 1 0.65878 0.0815907 0.245777
185 1 0.660046 0.18066 0.323828
162 1 0.721271 0.0820581 0.33961
207 1 0.585165 0.328453 0.423774
192 1 0.826642 0.253013 0.422503
585 1 0.329818 0.480189 0.33462
96 1 0.841719 0.0664755 0.230461
76 1 -0.0147133 0.0790854 0.235183
166 1 0.912253 0.0756499 0.314837
99 1 0.0849693 0.160054 0.242433
104 1 0.157272 0.254545 0.253337
100 1 -0.00299127 0.237729 0.255942
173 1 0.168578 0.180649 0.329758
197 1 0.159191 0.318699 0.338333
170 1 0.0822053 0.247339 0.334781
127 1 0.251886 0.323189 0.244705
108 1 0.341159 0.250806 0.255277
106 1 0.421073 0.241595 0.171591
112 1 0.504143 0.256334 0.237019
131 1 0.424216 0.327893 0.237834
205 1 0.495075 0.335567 0.330511
116 1 0.665883 0.266059 0.255128
135 1 0.586704 0.326192 0.239301
137 1 0.652887 0.334938 0.152375
113 1 0.663729 0.17914 0.167779
115 1 0.747202 0.167061 0.255131
209 1 0.670967 0.335942 0.335951
120 1 0.842576 0.243718 0.259345
139 1 0.753092 0.332101 0.258183
119 1 0.909482 0.154421 0.247326
213 1 0.829735 0.335653 0.33522
513 1 0.323901 0.514232 0.143208
123 1 0.0719963 0.326323 0.237967
128 1 0.161644 0.393461 0.257837
124 1 -0.00530267 0.41787 0.256224
172 1 0.995389 0.24571 0.426491
126 1 0.246172 0.414924 0.182479
132 1 0.342026 0.405085 0.238741
198 1 0.24485 0.41113 0.335731
202 1 0.425524 0.429073 0.325676
130 1 0.41932 0.416787 0.160129
136 1 0.493706 0.419747 0.246575
242 1 0.0670124 0.23883 0.505735
134 1 0.600322 0.428815 0.175392
206 1 0.572285 0.415455 0.320198
204 1 0.324218 0.410418 0.428724
208 1 0.487889 0.420356 0.425807
140 1 0.661779 0.402241 0.255644
138 1 0.742815 0.403803 0.181241
144 1 0.822514 0.427693 0.259482
215 1 0.913521 0.338971 0.419708
143 1 0.912989 0.323833 0.264192
193 1 1.0085 0.323197 0.325531
152 1 0.17545 0.0943501 0.420055
241 1 0.984956 0.163031 0.513623
151 1 0.249744 0.0182913 0.412104
200 1 0.167251 0.388602 0.421313
189 1 0.833547 0.155894 0.334644
186 1 0.752866 0.243355 0.339858
181 1 0.489002 0.166198 0.321281
177 1 0.361554 0.156449 0.330191
154 1 0.421049 0.0685418 0.320837
156 1 0.342926 0.0809516 0.411817
190 1 0.905691 0.24401 0.346225
29 1 0.160294 0.165317 -0.00339983
179 1 0.429838 0.171147 0.419665
158 1 0.583627 0.0908994 0.328707
160 1 0.509052 0.0861214 0.408122
164 1 0.640035 0.0913022 0.417786
195 1 0.0763012 0.324054 0.417572
178 1 0.432342 0.247648 0.334061
194 1 0.0832069 0.416843 0.322389
187 1 0.764731 0.167979 0.423108
191 1 0.918403 0.159061 0.41195
168 1 0.837921 0.0683024 0.389488
148 1 0.991576 0.0866909 0.414418
171 1 0.0742423 0.173903 0.41864
176 1 0.157373 0.247633 0.418155
183 1 0.567125 0.192404 0.415908
174 1 0.256425 0.249691 0.331969
201 1 0.335611 0.334944 0.328762
184 1 0.495469 0.271551 0.431901
199 1 0.243345 0.32824 0.411792
175 1 0.264028 0.176582 0.408372
180 1 0.340158 0.260182 0.407266
203 1 0.421397 0.335975 0.405124
269 1 0.150332 0.30973 0.514194
222 1 0.247402 0.0897949 0.504782
246 1 0.251201 0.254532 0.491387
69 1 0.816455 0.34954 0.00326626
14 1 0.578278 0.100919 -0.0063455
49 1 0.000340398 0.321526 0.00379419
449 1 0.663372 0.506717 -0.00987159
65 1 0.682247 0.33973 -0.00291346
70 1 0.89986 0.429636 0.00909232
53 1 0.161834 0.333806 0.0104001
54 1 0.264224 0.429753 0.00296108
41 1 0.680147 0.180655 0.000977525
282 1 0.750494 0.413944 0.504911
257 1 0.665943 0.167089 0.496207
25 1 -0.00636056 0.180838 0.00511272
22 1 0.921744 0.0755849 -0.00590028
277 1 0.503169 0.33801 0.519181
285 1 0.83664 0.336539 0.517183
433 1 0.00301457 0.502799 0.0141312
657 1 0.330008 0.485021 0.510846
224 1 0.148002 0.0827392 0.597294
220 1 1.01668 0.0863906 0.594731
290 1 0.085782 0.0700928 0.680303
807 1 0.583341 0.493468 0.92164
228 1 0.328185 0.0817098 0.588951
294 1 0.246897 0.0873103 0.680464
37 1 0.494571 0.181314 0.994542
303 1 0.578571 -0.00780258 0.746756
232 1 0.508324 0.0697234 0.590408
298 1 0.404655 0.0825844 0.665525
66 1 0.742374 0.430382 1.00914
255 1 0.580947 0.1646 0.578847
249 1 0.332703 0.164097 0.485671
432 1 0.834551 0.42574 0.917269
329 1 0.653397 0.17524 0.660978
665 1 0.665422 0.50228 0.501308
363 1 0.0834606 0.00728878 0.919517
236 1 0.66335 0.0912912 0.586737
259 1 0.748041 0.170202 0.595374
240 1 0.833967 0.0856075 0.588031
430 1 0.916834 0.407213 0.847473
721 1 0.985693 0.499447 0.668208
265 1 -0.0169069 0.33704 0.513155
263 1 0.906989 0.174035 0.579593
310 1 0.927616 0.0932332 0.663574
229 1 0.515835 0.00105671 0.489382
313 1 -0.00112992 0.184904 0.668246
243 1 0.0887743 0.180715 0.595535
289 1 -0.000182552 0.00687517 0.677568
811 1 0.755984 0.504768 0.908771
293 1 0.172876 0.00801971 0.681306
321 1 0.335813 0.165868 0.661213
248 1 0.164195 0.248788 0.606178
247 1 0.23469 0.161656 0.586543
271 1 0.234745 0.323225 0.583208
252 1 0.327687 0.247248 0.585054
235 1 0.745559 0.0171226 0.583746
318 1 0.250087 0.253939 0.680129
251 1 0.41812 0.184319 0.574709
275 1 0.417437 0.330737 0.593266
286 1 0.920619 0.420473 0.502298
256 1 0.495787 0.253803 0.58661
279 1 0.587353 0.332982 0.58844
260 1 0.660957 0.252916 0.574429
283 1 0.743357 0.320906 0.601643
353 1 0.651289 0.331822 0.667939
230 1 0.565272 0.0932477 0.494409
264 1 0.831162 0.24088 0.579403
333 1 0.833414 0.171744 0.679885
244 1 0.999557 0.252027 0.582408
365 1 0.159868 0.00900787 0.837643
267 1 0.0757175 0.329752 0.600391
272 1 0.163324 0.417504 0.595586
338 1 0.074238 0.417942 0.665494
10 1 0.439566 0.083086 0.991625
815 1 0.926216 0.499636 0.912437
342 1 0.250222 0.411423 0.667156
223 1 0.250985 -0.00241986 0.587154
383 1 0.91813 -0.0202708 0.913245
276 1 0.337601 0.410925 0.599983
280 1 0.489375 0.418434 0.581395
284 1 0.659799 0.419026 0.594405
350 1 0.566065 0.418386 0.649135
30 1 0.249898 0.246026 1.00952
288 1 0.830905 0.435258 0.573424
354 1 0.754131 0.40807 0.671222
253 1 0.499076 0.174915 0.492282
268 1 0.986787 0.418306 0.583805
287 1 0.911841 0.326526 0.593954
358 1 0.910134 0.400623 0.661667
663 1 0.566187 0.501332 0.581529
231 1 0.592362 0.000684614 0.581674
296 1 0.157551 0.0819143 0.761818
315 1 0.0881858 0.17012 0.757234
362 1 0.075045 0.0873025 0.846773
385 1 0.000239989 0.176069 0.845452
226 1 0.430371 0.0891893 0.497229
300 1 0.335058 0.0866269 0.750058
319 1 0.242643 0.160703 0.759732
426 1 0.751672 0.414251 0.833353
366 1 0.250876 0.0811506 0.826425
427 1 0.758285 0.326169 0.910359
304 1 0.512297 0.0728522 0.754563
370 1 0.436464 0.0896336 0.824854
302 1 0.572394 0.0907699 0.671141
254 1 0.57125 0.249036 0.512636
407 1 0.918577 0.164966 0.918076
306 1 0.754091 0.0869581 0.66856
308 1 0.670192 0.0802706 0.734632
331 1 0.741595 0.159426 0.75393
312 1 0.826332 0.0923222 0.768463
292 1 0.004385 0.102231 0.758924
335 1 0.925563 0.167682 0.750283
314 1 0.0752802 0.247788 0.685619
316 1 -0.00966718 0.248497 0.760681
339 1 0.0853273 0.332859 0.741513
409 1 0.00675651 0.34033 0.844657
317 1 0.155131 0.166161 0.673096
320 1 0.165892 0.252745 0.751572
345 1 0.327294 0.334993 0.676997
390 1 0.251817 0.246184 0.833056
325 1 0.498242 0.16897 0.661015
324 1 0.33898 0.258986 0.753782
322 1 0.41785 0.251093 0.669579
323 1 0.428359 0.171808 0.754172
347 1 0.42554 0.323144 0.752792
421 1 0.497073 0.338094 0.838162
328 1 0.503822 0.244721 0.757459
327 1 0.586645 0.166742 0.76493
326 1 0.581205 0.244314 0.675988
398 1 0.581757 0.245871 0.845316
351 1 0.575897 0.317258 0.766071
349 1 0.499423 0.327632 0.66943
332 1 0.673277 0.25076 0.778174
330 1 0.727545 0.253432 0.681733
429 1 0.836335 0.337801 0.832841
402 1 0.769242 0.244484 0.833902
334 1 0.908234 0.245015 0.667919
336 1 0.850102 0.245584 0.771277
406 1 0.923192 0.268762 0.857371
341 1 0.171928 0.32905 0.672296
404 1 0.671706 0.252404 0.911657
340 1 0.00143285 0.40374 0.761345
413 1 0.176767 0.339771 0.841055
423 1 0.579002 0.347316 0.925438
344 1 0.163516 0.408681 0.744725
343 1 0.249567 0.334609 0.759094
414 1 0.240412 0.42202 0.855417
348 1 0.329342 0.418634 0.762469
417 1 0.322563 0.346336 0.848103
346 1 0.426987 0.421616 0.671771
418 1 0.417269 0.419578 0.837475
352 1 0.502534 0.401849 0.751863
356 1 0.662753 0.409282 0.739621
425 1 0.670462 0.343435 0.838819
400 1 0.503365 0.254404 0.923143
422 1 0.581728 0.40861 0.834801
357 1 0.82322 0.323559 0.673362
355 1 0.752896 0.335826 0.753621
428 1 0.685829 0.424484 0.912188
359 1 0.910129 0.334306 0.749107
337 1 -0.0161108 0.321798 0.680559
360 1 0.830381 0.415155 0.744722
420 1 0.331635 0.427057 0.913129
397 1 0.493973 0.1743 0.837104
424 1 0.500205 0.412509 0.922165
795 1 0.0805465 0.491216 0.931067
368 1 0.178916 0.0800895 0.908583
297 1 0.33259 0.00189995 0.658595
372 1 0.343607 0.0860277 0.913717
389 1 0.16737 0.173032 0.850643
391 1 0.264219 0.165634 0.910814
410 1 0.105523 0.42089 0.840531
731 1 0.412244 0.497637 0.748931
376 1 0.5165 0.0828317 0.903768
395 1 0.413815 0.169848 0.913609
61 1 0.497647 0.339331 0.996741
416 1 0.174018 0.416569 0.94281
374 1 0.597865 0.0924404 0.83322
399 1 0.584347 0.176555 0.928884
380 1 0.663603 0.0955913 0.925131
431 1 0.916829 0.327587 0.933427
411 1 0.0989795 0.34945 0.917204
378 1 0.752432 0.0812461 0.852797
384 1 0.84039 0.069838 0.914545
403 1 0.75826 0.172086 0.922264
405 1 0.835685 0.146519 0.851141
419 1 0.404058 0.337762 0.915116
364 1 0.9888 0.0768517 0.916309
382 1 0.918513 0.0750369 0.835964
408 1 0.837734 0.24994 0.912698
386 1 0.0845073 0.256652 0.842311
387 1 0.0740387 0.167679 0.922677
388 1 1.00992 0.255578 0.926687
392 1 0.157043 0.25867 0.932924
412 1 0.00356682 0.425632 0.937575
396 1 0.33392 0.251952 0.92148
393 1 0.333393 0.162896 0.820651
415 1 0.250306 0.343182 0.934404
401 1 0.676148 0.1571 0.836476
394 1 0.415089 0.248282 0.843212
239 1 0.906151 0.00413167 0.579773
667 1 0.741149 0.492748 0.582158
361 1 1.01095 -0.00732531 0.831959
809 1 0.680149 0.497139 0.822836
309 1 0.84717 0.000132033 0.664554
307 1 0.770663 -0.00366318 0.751833
651 1 0.0806309 0.509154 0.589766
805 1 0.498491 0.493598 0.829596
62 1 0.580089 0.418396 1.00564
295 1 0.254128 0.000623648 0.75643
741 1 0.848978 0.504928 0.669805
234 1 0.754305 0.0979579 0.505268
377 1 0.666616 0.00785846 0.824682
655 1 0.247075 0.491331 0.590189
803 1 0.397379 0.518701 0.91156
661 1 0.490932 0.498523 0.501908
38 1 0.590667 0.260524 0.990812
733 1 0.510907 0.502069 0.672986
33 1 0.335166 0.165461 0.995177
261 1 0.839692 0.155163 0.491916
723 1 0.0814019 0.502871 0.755243
379 1 0.741012 0.00730275 0.927682
299 1 0.416843 -0.00262573 0.760587
227 1 0.428673 -0.00474123 0.57699
301 1 0.497585 0.00505986 0.666704
233 1 0.676415 0.0153263 0.489914
17 1 0.663341 0.0172431 1.01455
729 1 0.343036 0.501795 0.660512
367 1 0.247315 -0.00752512 0.918404
5 1 0.149865 0.0111496 1.00829
218 1 0.0787768 0.0871322 0.502964
6 1 0.240105 0.0786075 0.999435
250 1 0.403166 0.253148 0.490091
273 1 0.323607 0.328499 0.501908
278 1 0.582335 0.40936 0.510629
653 1 0.165814 0.487331 0.498644
238 1 0.921935 0.0785509 0.496445
26 1 0.0851846 0.246072 1.02802
46 1 0.907419 0.245741 1.01924
281 1 0.667331 0.34421 0.508037
57 1 0.336934 0.328535 1.0001
274 1 0.405398 0.410429 0.513365
237 1 0.838861 0.0154456 0.497464
34 1 0.4114 0.249635 1.00929
58 1 0.413759 0.421347 0.98842
262 1 0.908986 0.247255 0.490012
2 1 0.0687988 0.0951031 0.999348
245 1 0.165008 0.165887 0.500988
270 1 0.232314 0.396542 0.502859
436 1 0.994846 0.582301 0.0972163
459 1 0.0735404 0.66487 0.0766158
93 1 0.827615 1.00066 0.151208
440 1 0.152246 0.586899 0.0819645
444 1 0.323991 0.598407 0.0764428
437 1 0.179899 0.507399 0.00189344
467 1 0.405719 0.682519 0.0685469
85 1 0.491121 0.999154 0.168053
527 1 0.908948 0.49475 0.248767
448 1 0.49271 0.595538 0.0777139
595 1 0.737231 0.488621 0.430741
591 1 0.572085 0.484422 0.418153
507 1 0.0752499 0.490264 0.250022
452 1 0.686229 0.588132 0.0766957
593 1 0.654745 0.496365 0.335434
522 1 0.753927 0.594061 0.1695
456 1 0.834511 0.589137 0.089618
526 1 0.906201 0.584449 0.17643
479 1 0.915573 0.685696 0.0931426
81 1 0.330035 0.985025 0.163165
589 1 0.513404 0.496838 0.324341
530 1 0.0735733 0.748832 0.170604
460 1 1.00013 0.754448 0.0832383
553 1 1.009 0.848644 0.183495
483 1 0.0822351 0.825025 0.0896982
438 1 0.255475 0.594331 -0.00932397
463 1 0.244363 0.667378 0.0959676
464 1 0.15963 0.740431 0.0839109
487 1 0.264298 0.817016 0.0662532
557 1 0.164586 0.823176 0.174984
650 1 0.0949843 0.573185 0.502573
468 1 0.32668 0.74231 0.0847653
538 1 0.411411 0.749693 0.160474
537 1 0.324382 0.66174 0.169814
471 1 0.580051 0.67226 0.0744991
472 1 0.496897 0.737491 0.083404
476 1 0.674207 0.739447 0.0641862
569 1 0.669122 0.825591 0.155749
495 1 0.573337 0.806903 0.0846307
475 1 0.75338 0.671474 0.0944724
499 1 0.76626 0.845146 0.0735448
79 1 0.256017 0.980816 0.247701
439 1 0.240906 0.505502 0.077819
480 1 0.83105 0.762251 0.069098
550 1 0.910861 0.758276 0.159331
503 1 0.915382 0.832173 0.0866974
554 1 0.0987197 0.930693 0.169303
83 1 0.410794 1.00059 0.247085
488 1 0.155393 0.896702 0.0906145
558 1 0.23341 0.906232 0.166055
709 1 0.499242 0.835067 0.487295
492 1 0.334878 0.909341 0.0838948
491 1 0.429776 0.819473 0.0855106
561 1 0.320008 0.817071 0.169875
562 1 0.4081 0.909721 0.158133
496 1 0.50605 0.924585 0.0863318
678 1 0.244719 0.742139 0.50288
163 1 0.751328 1.00144 0.403484
505 1 0.994462 0.487875 0.174503
500 1 0.667233 0.900046 0.0853697
504 1 0.841053 0.919076 0.0822716
484 1 0.019096 0.916391 0.0984637
506 1 0.0797969 0.581508 0.167914
508 1 0.998342 0.571199 0.236371
531 1 0.0693263 0.665002 0.252518
529 1 1.00668 0.669916 0.171947
510 1 0.239142 0.573776 0.157452
225 1 0.324997 1.02116 0.495622
533 1 0.145551 0.666445 0.162145
512 1 0.151873 0.582082 0.244329
535 1 0.235966 0.666877 0.250921
582 1 0.255813 0.578764 0.327653
157 1 0.497366 1.00285 0.338595
514 1 0.406211 0.588264 0.159664
646 1 0.916024 0.925206 0.336036
516 1 0.353031 0.576936 0.255197
520 1 0.506473 0.59996 0.239583
518 1 0.590106 0.6031 0.163382
648 1 0.83785 0.935784 0.408174
590 1 0.583789 0.588574 0.33097
543 1 0.591276 0.664906 0.255966
642 1 0.749403 0.913901 0.31835
524 1 0.692811 0.597708 0.248587
547 1 0.765436 0.677587 0.260086
528 1 0.838843 0.591693 0.25745
551 1 0.917932 0.672611 0.255474
549 1 0.833861 0.673123 0.167572
601 1 -0.00538204 0.663363 0.337165
536 1 0.157476 0.741429 0.257159
532 1 -0.000704603 0.755038 0.255665
625 1 0.00745443 0.823991 0.344467
534 1 0.239086 0.748195 0.165223
606 1 0.25035 0.735008 0.332675
540 1 0.325927 0.734656 0.246351
539 1 0.411145 0.658204 0.256722
610 1 0.400649 0.735045 0.336779
544 1 0.479403 0.743318 0.244939
613 1 0.496149 0.673438 0.342239
542 1 0.586268 0.728068 0.171751
545 1 0.677729 0.674175 0.160933
541 1 0.498546 0.665594 0.162356
614 1 0.58239 0.767501 0.337871
548 1 0.676543 0.766339 0.250596
546 1 0.757308 0.763881 0.153802
552 1 0.844672 0.755303 0.253679
575 1 0.915649 0.841776 0.252004
622 1 0.919421 0.744327 0.332141
555 1 0.0858526 0.841404 0.265896
556 1 1.00621 0.913598 0.272783
633 1 0.331425 0.819339 0.31755
11 1 0.426112 0.997032 0.0757331
560 1 0.175198 0.915046 0.251357
559 1 0.240974 0.83249 0.246756
564 1 0.342182 0.905542 0.249449
629 1 0.179307 0.824139 0.345306
630 1 0.254117 0.908478 0.330504
563 1 0.422941 0.824424 0.253667
565 1 0.506154 0.816728 0.160251
567 1 0.576356 0.810044 0.24238
568 1 0.484543 0.920873 0.251372
566 1 0.589617 0.89875 0.153869
638 1 0.584401 0.918305 0.326758
15 1 0.578374 1.00102 0.0924942
570 1 0.751344 0.91324 0.162112
7 1 0.223984 0.994597 0.0774177
573 1 0.82987 0.840208 0.160642
571 1 0.762452 0.829752 0.244706
572 1 0.669318 0.894261 0.253326
73 1 0.00376241 0.990505 0.171486
626 1 0.107685 0.933568 0.343223
574 1 0.929778 0.906296 0.172586
576 1 0.824549 0.913405 0.231409
578 1 0.0818356 0.580642 0.330225
603 1 0.0823834 0.670783 0.414383
584 1 0.171167 0.587996 0.408737
23 1 0.925154 0.980154 0.0975306
639 1 0.577741 0.829131 0.418236
605 1 0.168885 0.661574 0.333449
607 1 0.247619 0.650592 0.416249
588 1 0.342317 0.573085 0.391545
586 1 0.442768 0.579395 0.322003
636 1 0.334121 0.906245 0.413512
628 1 -0.000894044 0.916066 0.41041
644 1 0.67112 0.921407 0.414696
592 1 0.509817 0.5794 0.418355
596 1 0.652242 0.557675 0.414182
511 1 0.264454 0.514163 0.24803
634 1 0.415832 0.92775 0.334562
594 1 0.752429 0.568941 0.34592
617 1 0.673866 0.654336 0.349539
455 1 0.920451 0.501753 0.108031
640 1 0.499472 0.923725 0.417384
580 1 1.00572 0.588596 0.421607
600 1 0.827851 0.589708 0.426391
598 1 0.918424 0.579485 0.337567
623 1 0.92117 0.687975 0.42032
608 1 0.154494 0.755122 0.426926
602 1 0.0811494 0.745401 0.332008
604 1 0.00674681 0.744269 0.409324
624 1 0.844494 0.754204 0.415431
637 1 0.491755 0.835405 0.342043
161 1 0.664656 0.993272 0.322322
609 1 0.334778 0.661173 0.323779
631 1 0.254341 0.825628 0.428009
599 1 0.917377 0.508542 0.424901
632 1 0.196386 0.925206 0.423447
635 1 0.405913 0.833264 0.419436
611 1 0.411361 0.665245 0.412398
612 1 0.329765 0.749744 0.412052
666 1 0.74917 0.575605 0.504709
627 1 0.0827915 0.835757 0.410784
615 1 0.574894 0.680457 0.408359
616 1 0.502004 0.751007 0.415248
643 1 0.750871 0.847338 0.418725
618 1 0.75666 0.75356 0.328276
641 1 0.674798 0.840937 0.333006
619 1 0.753736 0.672017 0.425703
645 1 0.839019 0.82984 0.337106
620 1 0.669062 0.758147 0.400555
647 1 0.926134 0.833216 0.41056
621 1 0.839865 0.670397 0.348691
434 1 0.0858249 0.568951 0.00218286
523 1 0.735106 0.496111 0.259781
461 1 0.171979 0.665635 -0.00631703
517 1 0.495098 0.518881 0.146047
153 1 0.332923 0.988149 0.332694
702 1 0.260389 0.927659 0.500218
87 1 0.578515 0.994629 0.253521
515 1 0.432402 0.498745 0.243091
509 1 0.164383 0.479859 0.170307
713 1 0.662385 0.832671 0.489748
701 1 0.157151 0.828803 0.500992
435 1 0.0894846 0.492127 0.0918397
95 1 0.911833 0.988428 0.241468
447 1 0.583502 0.501987 0.0926899
450 1 0.745442 0.586537 -0.00217299
705 1 0.32961 0.833876 0.496476
577 1 0.0107318 0.50642 0.353288
706 1 0.413415 0.927926 0.487697
597 1 0.825938 0.494317 0.348088
451 1 0.746187 0.494784 0.0907054
587 1 0.393432 0.485831 0.419975
443 1 0.409191 0.494704 0.0739813
77 1 0.175583 1.00749 0.172901
89 1 0.652918 0.980525 0.169226
662 1 0.572643 0.584022 0.506932
685 1 0.499837 0.66058 0.496932
697 1 -0.00296669 0.833374 0.490584
217 1 1.0007 1.00541 0.514809
693 1 0.839307 0.67389 0.496986
681 1 0.330772 0.657754 0.503954
682 1 0.41924 0.755454 0.493151
686 1 0.586333 0.749514 0.496687
454 1 0.897934 0.582978 0.00146304
674 1 0.0927993 0.742169 0.512815
441 1 0.337222 0.512319 -0.00513831
694 1 0.914872 0.762071 0.505953
482 1 0.0750499 0.908194 0.00597421
493 1 0.50352 0.835167 -0.0101599
710 1 0.58092 0.912383 0.506123
656 1 0.172643 0.578996 0.561137
675 1 0.0734251 0.656392 0.57174
445 1 0.499212 0.492823 0.999426
671 1 0.915973 0.497994 0.580441
660 1 0.327435 0.576497 0.583607
726 1 0.239825 0.567455 0.674144
654 1 0.256378 0.572918 0.494336
698 1 0.0913294 0.934021 0.491446
753 1 0.348115 0.660565 0.662407
683 1 0.419236 0.663405 0.581951
757 1 0.501147 0.669503 0.658954
371 1 0.43799 0.998281 0.90632
219 1 0.0843773 0.997178 0.600285
664 1 0.491595 0.580451 0.582785
668 1 0.658788 0.571023 0.587087
841 1 0.00374359 0.83762 0.826771
844 1 0.00441676 0.916926 0.915462
672 1 0.837296 0.567494 0.58451
691 1 0.742618 0.670712 0.573237
658 1 0.424633 0.578276 0.492647
739 1 0.759311 0.499505 0.735565
652 1 0.984643 0.580615 0.594938
695 1 0.920711 0.679032 0.574497
291 1 0.0918732 0.996875 0.755515
311 1 0.917939 1.01718 0.747529
863 1 0.934292 0.827103 0.903692
680 1 0.165978 0.727583 0.574987
676 1 -0.00576919 0.753944 0.590023
699 1 0.0773877 0.828781 0.580888
679 1 0.24737 0.657826 0.593173
750 1 0.240118 0.755031 0.669874
684 1 0.347661 0.746119 0.567765
777 1 0.327386 0.818356 0.647441
703 1 0.236838 0.841916 0.576946
707 1 0.435326 0.855682 0.574128
754 1 0.416108 0.757686 0.654894
688 1 0.486748 0.75209 0.577559
490 1 0.412533 0.9141 1.00022
458 1 0.0811871 0.741976 0.996392
687 1 0.584475 0.673809 0.590542
711 1 0.582617 0.829772 0.5675
758 1 0.589033 0.763364 0.643027
761 1 0.669896 0.662562 0.659316
692 1 0.664992 0.756382 0.564948
762 1 0.749887 0.751003 0.654101
696 1 0.826451 0.750887 0.582567
785 1 0.672385 0.852302 0.646386
489 1 0.326674 0.831489 0.980904
745 1 1.01445 0.670059 0.656785
766 1 0.908332 0.766083 0.659111
473 1 0.665044 0.665513 0.991837
305 1 0.674608 0.991296 0.659477
770 1 0.0818243 0.913485 0.66898
773 1 0.166364 0.832342 0.650322
700 1 0.995905 0.920044 0.580512
486 1 0.253197 0.918887 0.996482
704 1 0.160138 0.925036 0.574844
708 1 0.334862 0.93082 0.575897
369 1 0.332008 0.999631 0.838019
778 1 0.397295 0.918843 0.662776
689 1 0.650417 0.654243 0.491602
797 1 0.17405 0.506715 0.839093
13 1 0.512581 0.995805 0.994594
373 1 0.508787 0.996745 0.833402
712 1 0.507856 0.923484 0.579687
737 1 0.663775 0.496904 0.673177
673 1 0.999763 0.686781 0.492096
381 1 0.848582 0.995574 0.826517
715 1 0.761159 0.837965 0.586218
716 1 0.682743 0.922646 0.570478
720 1 0.83707 0.921715 0.560142
786 1 0.770933 0.926964 0.664287
789 1 0.839333 0.842935 0.661324
838 1 0.944431 0.743486 0.833644
690 1 0.747363 0.752578 0.491522
719 1 0.911036 0.844255 0.575445
749 1 0.151543 0.650193 0.651606
864 1 0.810114 0.923491 0.925112
722 1 0.0663098 0.578104 0.66784
794 1 0.0825689 0.572994 0.831637
724 1 -0.00388552 0.586765 0.7658
747 1 0.0854866 0.663052 0.743108
728 1 0.147809 0.58106 0.749676
732 1 0.321075 0.575814 0.750931
860 1 0.677984 0.914108 0.915839
718 1 0.924048 0.930345 0.498191
730 1 0.418361 0.58275 0.675503
855 1 0.584107 0.827426 0.901515
802 1 0.411315 0.60318 0.820479
736 1 0.494908 0.587376 0.743909
734 1 0.58564 0.586683 0.667042
740 1 0.674704 0.580562 0.7483
840 1 0.846795 0.754046 0.915549
738 1 0.750008 0.57684 0.659424
744 1 0.828953 0.582558 0.744066
763 1 0.750672 0.664839 0.732195
765 1 0.847312 0.66562 0.653616
742 1 0.919352 0.582757 0.674901
854 1 0.598772 0.922885 0.833626
746 1 0.0944625 0.749748 0.663138
769 1 1.00624 0.83638 0.66409
818 1 0.0725258 0.758219 0.831255
751 1 0.220336 0.661892 0.745121
752 1 0.152046 0.755898 0.753367
775 1 0.244954 0.842926 0.739819
821 1 0.160204 0.651291 0.824267
755 1 0.420836 0.680019 0.733663
829 1 0.503676 0.6596 0.819371
756 1 0.324007 0.747145 0.728843
826 1 0.439836 0.748701 0.819116
759 1 0.596628 0.658632 0.741297
760 1 0.524039 0.744201 0.736879
783 1 0.598381 0.841793 0.727299
764 1 0.655613 0.756831 0.730469
787 1 0.751806 0.830048 0.754578
768 1 0.822996 0.751964 0.74915
834 1 0.744246 0.747348 0.822937
857 1 0.664635 0.832983 0.81912
748 1 0.998599 0.746185 0.741944
767 1 0.920079 0.668631 0.747281
791 1 0.92182 0.826369 0.742219
859 1 0.751406 0.820645 0.896346
771 1 0.0799262 0.850791 0.751876
776 1 0.175456 0.921899 0.739782
772 1 0.00706483 0.916325 0.743439
856 1 0.509522 0.907323 0.891945
774 1 0.244062 0.911366 0.665138
846 1 0.233951 0.920575 0.838677
780 1 0.331905 0.927959 0.74868
849 1 0.34201 0.828183 0.830899
779 1 0.407923 0.838901 0.734492
784 1 0.498005 0.921294 0.744509
781 1 0.491787 0.827511 0.662766
782 1 0.578983 0.920692 0.660153
833 1 0.660648 0.671535 0.831672
858 1 0.751106 0.923069 0.83102
788 1 0.673672 0.928458 0.760501
792 1 0.83998 0.916482 0.753789
853 1 0.520183 0.828849 0.82216
862 1 0.929962 0.921855 0.816984
861 1 0.846003 0.84029 0.832884
790 1 0.91365 0.920768 0.667345
501 1 0.834004 0.835808 0.984743
717 1 0.823668 0.83322 0.497581
847 1 0.250332 0.848046 0.90615
796 1 0.00261733 0.581743 0.92526
800 1 0.171936 0.590016 0.910514
725 1 0.151359 0.499878 0.675844
798 1 0.25642 0.587926 0.832352
848 1 0.155315 0.925587 0.926331
804 1 0.335503 0.604211 0.907974
808 1 0.503242 0.575802 0.919213
842 1 0.0957445 0.926149 0.826679
852 1 0.332937 0.920356 0.90771
806 1 0.589178 0.572937 0.842485
831 1 0.575518 0.660782 0.905532
836 1 0.667513 0.739376 0.916996
793 1 1.01105 0.473004 0.848083
649 1 1.00522 0.490185 0.49903
812 1 0.673642 0.591631 0.913287
810 1 0.751599 0.580104 0.82829
835 1 0.757633 0.662672 0.91505
457 1 0.994037 0.659038 1.00324
850 1 0.42472 0.912108 0.829428
814 1 0.909433 0.576662 0.83347
837 1 0.843828 0.668693 0.832891
816 1 0.847315 0.580101 0.906895
817 1 -0.00390651 0.651632 0.854489
820 1 0.000519698 0.737658 0.929885
843 1 0.0795788 0.82581 0.912861
819 1 0.0921947 0.655157 0.926055
824 1 0.171928 0.740121 0.916525
502 1 0.925503 0.914869 1.00347
839 1 0.924092 0.654641 0.920621
822 1 0.24366 0.75238 0.827589
845 1 0.159961 0.836916 0.817488
823 1 0.252806 0.669353 0.896116
825 1 0.327805 0.682676 0.823555
743 1 0.928641 0.491722 0.769732
828 1 0.346462 0.752965 0.904947
827 1 0.417909 0.675398 0.902711
832 1 0.500502 0.752031 0.898561
851 1 0.423827 0.825733 0.904567
830 1 0.591352 0.755478 0.838083
494 1 0.580395 0.905126 1.00169
442 1 0.407183 0.596651 1.01216
469 1 0.501835 0.662664 0.982812
498 1 0.747109 0.935545 1.02629
477 1 0.840693 0.666892 1.01352
727 1 0.243047 0.487979 0.750116
669 1 0.831192 0.502528 0.49325
470 1 0.573042 0.752239 0.984076
375 1 0.60504 1.01009 0.923584
659 1 0.414526 0.501138 0.582046
799 1 0.253942 0.517319 0.921314
813 1 0.833772 0.501471 0.809408
801 1 0.320259 0.504718 0.835709
735 1 0.582718 0.500883 0.758222
462 1 0.251094 0.735385 0.991401
466 1 0.430297 0.753601 0.982711
446 1 0.581281 0.570948 0.99952
9 1 0.339162 1.00424 0.991464
478 1 0.91716 0.748574 1.00253
465 1 0.342689 0.681593 0.986163
714 1 0.753354 0.930286 0.494334
670 1 0.930005 0.586092 0.494572
474 1 0.758931 0.748357 0.995424
497 1 0.672273 0.836111 0.98626
1 1 0.0135406 1.00475 1.00795
481 1 -0.000698571 0.831907 1.01018
485 1 0.167892 0.836907 1.0005
677 1 0.163195 0.663038 0.491337
453 1 0.819879 0.512041 0.99803
