ITEM: TIMESTEP
22500
ITEM: NUMBER OF ATOMS
500
ITEM: BOX BOUNDS pp pp pp
0.0000000000000000e+00 2.6299999999999997e+01
0.0000000000000000e+00 2.6299999999999997e+01
0.0000000000000000e+00 2.6299999999999997e+01
ITEM: ATOMS id type xs ys zs
23 1 0.114359 0.201652 0.0997638
52 1 0.100599 0.10511 0.195565
8 1 0.182099 0.0916191 0.099305
4 1 0.987253 0.0899808 0.106534
75 1 0.214837 0.201845 0.189318
27 1 0.300708 0.216237 0.0770837
56 1 0.298658 0.105231 0.167804
79 1 0.385127 0.207068 0.175441
3 1 0.0851343 0.00476574 0.0956075
109 1 0.80325 0.000231197 0.395534
308 1 0.600792 0.492374 0.297224
12 1 0.400985 0.117434 0.0667938
31 1 0.510363 0.21691 0.0818901
60 1 0.494714 0.121445 0.169424
17 1 0.797886 0.00280406 0.0203541
22 1 0.0928676 0.296991 0.00682633
74 1 0.988637 0.287321 0.321433
16 1 0.592867 0.103715 0.0748084
83 1 0.585252 0.232176 0.195792
35 1 0.686509 0.196936 0.0965217
64 1 0.663177 0.102797 0.188913
20 1 0.79072 0.112963 0.105958
90 1 0.785042 0.294721 0.305962
19 1 0.892193 0.00432252 0.112775
120 1 0.890647 0.282749 0.386932
260 1 0.815977 0.492836 0.100313
71 1 0.00557666 0.191513 0.205949
87 1 0.776158 0.20115 0.208102
39 1 0.884614 0.201545 0.117514
68 1 0.881646 0.105034 0.198193
43 1 0.206466 0.421388 0.00154612
147 1 0.288892 0.397848 0.498032
42 1 0.119647 0.408638 0.0827845
72 1 0.0979361 0.288071 0.202572
28 1 0.185407 0.301065 0.097106
24 1 0.00296607 0.302017 0.115252
100 1 0.88436 0.384356 0.301315
21 1 0.982618 0.203805 0.0249481
11 1 0.496419 0.011205 0.0946819
93 1 0.196734 0.394362 0.195904
44 1 0.301066 0.393073 0.0964358
76 1 0.300192 0.305719 0.18049
125 1 0.804825 0.407119 0.391088
103 1 0.211886 0.0179279 0.369227
38 1 0.907436 0.307981 0.0197142
95 1 0.393568 0.3978 0.195857
32 1 0.420779 0.294913 0.0795656
46 1 0.509553 0.409181 0.096554
80 1 0.487066 0.312293 0.213619
97 1 0.600133 0.399429 0.190255
36 1 0.599411 0.322591 0.0897838
48 1 0.711244 0.404521 0.0888609
84 1 0.693174 0.319473 0.185082
40 1 0.797478 0.303873 0.104661
53 1 0.104821 0.00992901 0.290145
353 1 0.512994 0.498844 0.401132
91 1 0.00658164 0.397215 0.206064
99 1 0.79176 0.401102 0.195434
50 1 0.903693 0.39094 0.115535
88 1 0.884615 0.283557 0.207425
73 1 0.106062 0.168222 0.315651
102 1 0.0946871 0.0796344 0.40936
113 1 0.200054 0.176186 0.412737
54 1 0.994027 0.106961 0.301911
58 1 0.21694 0.0982913 0.279016
6 1 0.280006 0.0857149 0.00132795
77 1 0.300398 0.203918 0.308762
104 1 0.312149 0.102156 0.390703
115 1 0.388989 0.210782 0.410535
118 1 0.689827 0.282031 0.394586
146 1 0.115338 0.409177 0.494141
124 1 0.59637 0.411566 0.413944
62 1 0.389471 0.116483 0.282
81 1 0.477547 0.206449 0.299952
106 1 0.461516 0.107752 0.391132
117 1 0.58679 0.194506 0.400988
66 1 0.571706 0.125994 0.272385
61 1 0.492908 0.00864399 0.295177
98 1 0.698859 0.388832 0.302391
85 1 0.670182 0.200827 0.294285
108 1 0.690633 0.0968846 0.399174
70 1 0.768175 0.0956472 0.287839
119 1 0.783029 0.199438 0.393045
86 1 0.586063 0.313725 0.30037
111 1 0.00270307 0.200858 0.400605
110 1 0.878025 0.0988835 0.386144
89 1 0.880035 0.195609 0.297201
116 1 0.505596 0.30542 0.417598
355 1 0.888707 0.489471 0.38527
78 1 0.19142 0.27558 0.293228
122 1 0.204228 0.393121 0.39192
121 1 0.00231425 0.401545 0.397504
112 1 0.093811 0.285029 0.407014
92 1 0.11559 0.40201 0.29327
96 1 0.502894 0.402128 0.310637
354 1 0.702749 0.495805 0.378413
107 1 0.575717 0.00542084 0.39864
252 1 0.00188796 0.492935 0.102986
82 1 0.386187 0.299784 0.30295
94 1 0.299072 0.415963 0.3032
123 1 0.388759 0.403645 0.390352
114 1 0.289932 0.299017 0.402776
139 1 0.19078 0.287027 0.498613
351 1 0.105794 0.494654 0.389759
41 1 0.0107945 0.405197 0.00689637
18 1 0.888743 0.0960478 0.00504147
105 1 0.403246 0.00162807 0.398739
9 1 0.396659 0.00424673 0.00434249
304 1 0.201713 0.495663 0.293036
305 1 0.503354 0.49083 0.192907
301 1 0.101118 0.494772 0.180344
1 1 0.995028 0.00686641 0.00375539
15 1 0.688925 0.00684207 0.105526
57 1 0.305907 0.00570468 0.286292
306 1 0.40914 0.497001 0.292327
47 1 0.61273 0.410714 3.80368e-06
34 1 0.722798 0.30976 0.00407249
135 1 0.797257 0.102783 0.488388
127 1 0.982132 0.0987126 0.482573
14 1 0.708454 0.0930351 0.00776299
141 1 0.399156 0.318103 0.494121
143 1 0.599233 0.281733 0.499212
140 1 0.484163 0.191353 0.498291
131 1 0.398277 0.104451 0.499986
255 1 0.504711 0.49208 0.00388298
253 1 0.311757 0.498614 0.00183105
152 1 0.100219 0.0879102 0.583242
173 1 0.114792 0.214317 0.702275
175 1 0.208471 0.193793 0.603029
154 1 0.00824254 0.108813 0.691261
171 1 0.00876538 0.201033 0.590284
403 1 0.302544 0.49749 0.59112
457 1 0.691954 0.489585 0.817293
158 1 0.184565 0.0974831 0.70312
156 1 0.308651 0.0961051 0.598646
177 1 0.302273 0.214441 0.705033
179 1 0.396197 0.214079 0.595297
162 1 0.386062 0.102006 0.706287
406 1 0.379939 0.498107 0.690545
205 1 0.199141 0.0081436 0.807805
160 1 0.491144 0.0972103 0.592697
181 1 0.489058 0.204347 0.696688
166 1 0.611777 0.100819 0.702429
183 1 0.596121 0.189441 0.605034
409 1 0.90819 0.493098 0.611844
241 1 0.0118546 0.388374 0.827895
164 1 0.699422 0.0959447 0.594763
185 1 0.70927 0.198601 0.70356
150 1 0.913827 0.397392 0.526288
187 1 0.795641 0.198533 0.595913
155 1 0.206238 0.0129305 0.605837
170 1 0.808916 0.110536 0.70914
168 1 0.894045 0.115243 0.591842
189 1 0.916823 0.21619 0.711225
26 1 0.307592 0.314576 0.995903
45 1 0.404896 0.401523 0.992398
172 1 0.107621 0.298843 0.602584
192 1 0.110644 0.411172 0.721228
250 1 0.900978 0.380303 0.900568
178 1 0.207531 0.31196 0.70962
193 1 0.200104 0.415106 0.61246
238 1 0.891555 0.292886 0.820455
224 1 0.00179895 0.295184 0.921377
402 1 0.00701376 0.492245 0.695965
379 1 0.608609 0.497426 0.505209
176 1 0.278193 0.306714 0.600315
194 1 0.298079 0.410199 0.704533
182 1 0.399746 0.320162 0.702244
201 1 0.00341356 0.00454916 0.783281
195 1 0.394457 0.389023 0.592608
180 1 0.497873 0.309675 0.608917
196 1 0.490851 0.425295 0.705624
197 1 0.596745 0.40773 0.630544
186 1 0.600217 0.278671 0.700263
30 1 0.503181 0.315166 0.98108
129 1 0.199503 0.103766 0.506708
184 1 0.693959 0.282709 0.608937
198 1 0.701469 0.404597 0.713759
199 1 0.807418 0.383912 0.604641
190 1 0.807379 0.29165 0.703921
142 1 0.69637 0.182081 0.506364
191 1 0.0136694 0.410169 0.615052
174 1 0.0117453 0.311825 0.704096
188 1 0.898213 0.280357 0.607131
200 1 0.903411 0.376618 0.708167
29 1 0.426547 0.205558 0.971536
167 1 0.806819 0.00741177 0.584505
217 1 0.799513 0.0222749 0.798658
202 1 0.107288 0.112001 0.793093
223 1 0.0935433 0.208004 0.886617
221 1 0.0147841 0.194238 0.793529
151 1 0.999606 0.006762 0.594809
144 1 0.907303 0.212545 0.501221
232 1 0.391496 0.317652 0.892779
208 1 0.18056 0.088004 0.898938
225 1 0.213217 0.190483 0.814422
206 1 0.291328 0.0938661 0.793139
227 1 0.320862 0.205619 0.907929
236 1 0.601297 0.295354 0.881446
212 1 0.391999 0.0980782 0.897796
229 1 0.399408 0.214548 0.784355
210 1 0.523805 0.0828962 0.797112
231 1 0.502473 0.190101 0.878597
33 1 0.592946 0.208441 0.980604
233 1 0.600775 0.200128 0.79191
216 1 0.626999 0.100067 0.902582
214 1 0.70497 0.105687 0.80055
235 1 0.712892 0.194222 0.920406
220 1 0.818531 0.0948335 0.901598
240 1 0.805073 0.281531 0.903947
226 1 0.285768 0.308925 0.814342
244 1 0.298607 0.419647 0.894928
204 1 0.0139156 0.100324 0.891625
237 1 0.809764 0.190151 0.801435
218 1 0.922491 0.108888 0.792109
239 1 0.903851 0.190801 0.910431
234 1 0.710981 0.301133 0.785863
249 1 0.817817 0.401106 0.802419
248 1 0.726027 0.387399 0.900761
245 1 0.413121 0.40671 0.804476
246 1 0.518037 0.416189 0.897484
228 1 0.204829 0.300153 0.923947
243 1 0.204118 0.41137 0.800633
242 1 0.0940711 0.395515 0.912103
222 1 0.113556 0.305874 0.803528
230 1 0.499065 0.308911 0.791201
247 1 0.593568 0.387721 0.789303
451 1 0.0869598 0.493309 0.812943
215 1 0.71735 0.00257928 0.909832
10 1 0.515168 0.101516 0.963018
410 1 0.80554 0.48652 0.705609
407 1 0.697142 0.498377 0.607948
452 1 0.991727 0.49384 0.901627
148 1 0.503502 0.397625 0.508897
136 1 0.10284 0.196828 0.507656
49 1 0.817024 0.403204 0.997377
376 1 0.00453559 0.493093 0.503196
145 1 0.794667 0.289511 0.505572
133 1 0.601047 0.0899224 0.506535
25 1 0.195167 0.194297 0.996811
37 1 0.798646 0.198004 0.999499
149 1 0.680965 0.386084 0.515432
259 1 0.922216 0.485273 0.998502
138 1 0.299082 0.205133 0.511112
380 1 0.788905 0.472593 0.506092
2 1 0.0767337 0.120568 0.994816
137 1 0.0238835 0.330304 0.514432
263 1 0.090311 0.604531 0.0986348
312 1 0.0954486 0.69955 0.214229
315 1 0.20313 0.599318 0.195984
268 1 0.197563 0.698763 0.116966
59 1 0.414592 0.988401 0.188315
311 1 0.985197 0.613689 0.192637
134 1 0.889946 0.999525 0.497158
303 1 0.312147 0.506162 0.186058
267 1 0.306316 0.598393 0.0917553
316 1 0.30088 0.704255 0.20351
273 1 0.590711 0.597773 0.00497284
319 1 0.411247 0.611394 0.195519
272 1 0.405685 0.698332 0.109632
55 1 0.196927 0.997255 0.188483
69 1 0.904857 0.97973 0.300033
286 1 0.301147 0.895953 0.00182414
271 1 0.508998 0.611216 0.108851
320 1 0.495271 0.700359 0.216508
323 1 0.601937 0.601464 0.200383
276 1 0.597424 0.693385 0.0885508
266 1 0.299572 0.70261 0.00138339
374 1 0.785636 0.807554 0.395896
381 1 0.0953669 0.595522 0.491399
256 1 0.41274 0.527755 0.101342
400 1 0.797383 0.902135 0.496665
275 1 0.691519 0.60787 0.0943543
324 1 0.709927 0.705012 0.196148
63 1 0.587316 0.991392 0.199488
280 1 0.799941 0.717071 0.103724
327 1 0.816725 0.599878 0.186551
264 1 0.00422872 0.705163 0.0818291
279 1 0.911377 0.588566 0.0892919
328 1 0.880871 0.705803 0.209256
378 1 0.386832 0.502999 0.488871
7 1 0.300654 0.992939 0.103159
283 1 0.0993649 0.802789 0.0889748
332 1 0.0990668 0.884751 0.199843
288 1 0.183439 0.908526 0.100018
284 1 0.990102 0.89461 0.0955144
335 1 0.205667 0.791672 0.205222
254 1 0.211594 0.501264 0.0963609
309 1 0.902653 0.5031 0.213675
287 1 0.300106 0.79627 0.107045
336 1 0.295184 0.902692 0.207635
292 1 0.422064 0.899809 0.0890265
339 1 0.393979 0.808791 0.191246
341 1 0.484358 0.792994 0.315247
291 1 0.499822 0.788778 0.103843
340 1 0.497721 0.901423 0.202648
368 1 0.194337 0.803055 0.400482
375 1 0.90064 0.889113 0.408159
369 1 0.294373 0.909611 0.395353
389 1 0.893577 0.566605 0.499236
296 1 0.607677 0.897578 0.112315
343 1 0.585719 0.797141 0.197443
295 1 0.697828 0.80353 0.112127
344 1 0.691782 0.915979 0.200853
347 1 0.795745 0.80719 0.200489
67 1 0.804223 0.989163 0.204533
349 1 0.890581 0.811535 0.291832
331 1 0.00665174 0.792618 0.192952
300 1 0.79685 0.903394 0.117789
299 1 0.907201 0.796361 0.100862
348 1 0.912461 0.885977 0.20352
337 1 0.283886 0.803773 0.305091
334 1 0.0101364 0.893414 0.297993
313 1 0.10759 0.589257 0.295954
357 1 0.0909366 0.690346 0.386234
318 1 0.201915 0.6732 0.304057
356 1 0.990607 0.603261 0.393536
258 1 0.609163 0.501175 0.103716
338 1 0.190703 0.920128 0.290617
251 1 0.0995677 0.511803 0.0157237
358 1 0.194679 0.597692 0.404143
317 1 0.306926 0.592742 0.293306
359 1 0.303281 0.698411 0.405444
322 1 0.380224 0.698027 0.31328
377 1 0.197998 0.503202 0.493726
372 1 0.586311 0.803871 0.416913
342 1 0.393708 0.893804 0.296707
370 1 0.398582 0.807096 0.396795
360 1 0.399256 0.599626 0.38847
321 1 0.502937 0.595566 0.292133
361 1 0.496513 0.6792 0.396227
362 1 0.619378 0.59548 0.408125
326 1 0.602686 0.705005 0.29104
101 1 0.976829 0.998678 0.396949
367 1 0.107468 0.930841 0.399838
371 1 0.489135 0.909959 0.379886
373 1 0.663794 0.914429 0.410306
325 1 0.690694 0.608406 0.280554
363 1 0.700445 0.711639 0.391537
333 1 0.119501 0.800729 0.307238
364 1 0.79968 0.595524 0.411412
345 1 0.702057 0.80521 0.29821
314 1 0.993599 0.690178 0.301856
330 1 0.793426 0.674852 0.303786
365 1 0.887201 0.693197 0.387069
329 1 0.896211 0.602141 0.310631
350 1 0.787671 0.899791 0.293815
366 1 0.0113168 0.798582 0.392728
346 1 0.584821 0.893569 0.290614
310 1 0.800525 0.52293 0.282488
51 1 0.990462 0.993388 0.214991
269 1 0.403047 0.602626 0.00297666
65 1 0.69523 0.997251 0.311823
399 1 0.904281 0.778475 0.477069
352 1 0.293666 0.503092 0.395679
5 1 0.181044 0.993918 0.000776507
277 1 0.798916 0.603184 0.00985608
302 1 0.0097384 0.500809 0.27749
307 1 0.708265 0.509557 0.189449
385 1 0.500591 0.596269 0.497727
289 1 0.390094 0.8062 0.0242826
390 1 0.813947 0.686218 0.497556
285 1 0.202973 0.788714 0.0230772
397 1 0.707093 0.796609 0.495564
388 1 0.60493 0.697695 0.495016
265 1 0.220322 0.594286 0.00473078
386 1 0.396727 0.692131 0.491622
293 1 0.608952 0.803795 0.0152787
130 1 0.490012 0.988926 0.488615
278 1 0.906401 0.688981 2.03481e-05
396 1 0.390291 0.897997 0.495256
412 1 0.114066 0.699045 0.604772
413 1 0.0971604 0.585861 0.703011
211 1 0.500026 0.986843 0.901459
418 1 0.215311 0.691581 0.698991
415 1 0.202982 0.603477 0.609792
416 1 0.30878 0.702004 0.598331
417 1 0.315481 0.606534 0.6977
422 1 0.405112 0.700845 0.687863
157 1 0.298308 0.993689 0.710074
419 1 0.388687 0.594184 0.590477
420 1 0.504684 0.706654 0.591233
421 1 0.504685 0.606857 0.720899
393 1 0.303811 0.796144 0.501992
453 1 0.296151 0.509858 0.797352
481 1 0.0079311 0.803299 0.798085
426 1 0.613553 0.69046 0.70603
423 1 0.611404 0.595468 0.596995
424 1 0.722863 0.688571 0.598505
425 1 0.699021 0.581415 0.713418
430 1 0.787361 0.684211 0.704627
408 1 0.590584 0.513063 0.699622
484 1 0.0107265 0.895268 0.881198
427 1 0.803461 0.587913 0.618404
411 1 0.00829199 0.596764 0.598797
414 1 0.00511323 0.690738 0.688814
428 1 0.896521 0.68518 0.597389
429 1 0.91073 0.58692 0.714434
401 1 0.105954 0.511132 0.600961
161 1 0.508521 0.984093 0.708307
163 1 0.589173 0.998548 0.608189
432 1 0.128584 0.903971 0.603872
433 1 0.0934279 0.80758 0.678491
434 1 0.976766 0.886176 0.693241
431 1 0.996566 0.798909 0.579917
438 1 0.206822 0.91156 0.70227
297 1 0.803045 0.798897 0.999429
391 1 0.102304 0.798056 0.519511
435 1 0.209761 0.795896 0.610651
436 1 0.306714 0.90699 0.593623
437 1 0.297198 0.80159 0.715298
442 1 0.390672 0.911328 0.698245
439 1 0.391085 0.811874 0.597547
203 1 0.0937473 0.993225 0.881163
454 1 0.175796 0.500582 0.913753
257 1 0.70612 0.519968 0.998489
169 1 0.892747 0.99058 0.687637
440 1 0.490744 0.889681 0.606432
441 1 0.483226 0.805638 0.700026
126 1 0.105131 0.993419 0.509801
498 1 0.901619 0.907888 0.802039
499 1 0.912305 0.803869 0.907672
219 1 0.923144 0.998237 0.891357
443 1 0.588545 0.793048 0.615973
446 1 0.619137 0.906467 0.722903
444 1 0.703188 0.908739 0.602303
445 1 0.700729 0.797723 0.69109
450 1 0.79851 0.887294 0.697458
153 1 0.104279 0.999 0.692788
159 1 0.399203 0.992563 0.587672
13 1 0.614042 0.986915 0.991263
500 1 0.824968 0.897433 0.899226
447 1 0.800468 0.794496 0.589307
448 1 0.894929 0.904658 0.580978
449 1 0.894808 0.785455 0.687114
404 1 0.207727 0.51076 0.709508
462 1 0.106312 0.704444 0.798825
463 1 0.106672 0.591347 0.907111
468 1 0.209491 0.687871 0.897584
461 1 0.000864456 0.604621 0.8128
460 1 0.82108 0.503388 0.908407
392 1 0.0188225 0.90369 0.500068
465 1 0.197166 0.592778 0.814739
466 1 0.297543 0.706139 0.80657
467 1 0.294359 0.594305 0.895337
495 1 0.707686 0.793929 0.896757
459 1 0.910834 0.503201 0.803477
469 1 0.388359 0.607473 0.807704
472 1 0.393193 0.710177 0.906432
470 1 0.48274 0.70361 0.809752
471 1 0.485233 0.613792 0.912767
473 1 0.601872 0.618563 0.804309
476 1 0.591132 0.705615 0.916354
497 1 0.807117 0.799117 0.802142
493 1 0.612828 0.790805 0.808628
494 1 0.720653 0.903855 0.814317
474 1 0.700685 0.696716 0.805673
475 1 0.707054 0.605773 0.891008
490 1 0.514544 0.88221 0.801444
464 1 0.997646 0.70204 0.900129
477 1 0.812253 0.589873 0.792764
480 1 0.806295 0.706041 0.892137
478 1 0.898537 0.692535 0.796974
479 1 0.907417 0.615231 0.891646
489 1 0.388218 0.809837 0.810733
492 1 0.396253 0.892438 0.915786
209 1 0.403561 0.99258 0.816729
485 1 0.194933 0.801761 0.798021
488 1 0.202591 0.899182 0.918932
483 1 0.107248 0.795414 0.906665
482 1 0.101563 0.903736 0.781881
496 1 0.624283 0.896247 0.905592
486 1 0.289929 0.897192 0.797577
487 1 0.270341 0.799727 0.916928
213 1 0.629827 0.992472 0.82431
491 1 0.498839 0.805554 0.906713
165 1 0.717094 0.998078 0.708604
405 1 0.493672 0.50473 0.60193
281 1 0.0107468 0.800748 0.991786
455 1 0.508711 0.501483 0.808688
458 1 0.601974 0.522966 0.902419
456 1 0.386578 0.51003 0.887681
282 1 0.0851843 0.904151 0.995293
384 1 0.192712 0.711347 0.503304
207 1 0.289694 0.999493 0.908017
262 1 0.106983 0.695461 0.991061
298 1 0.90276 0.919965 0.991127
398 1 0.599655 0.899365 0.52486
290 1 0.510826 0.897167 0.996738
395 1 0.491059 0.806641 0.513118
294 1 0.714917 0.887908 0.992761
270 1 0.482911 0.715078 0.999433
274 1 0.696863 0.704322 0.998653
394 1 0.211792 0.872585 0.511388
132 1 0.699923 0.995531 0.501682
387 1 0.711692 0.58289 0.511055
382 1 0.0109959 0.689959 0.504453
261 1 0.00924237 0.599443 0.988112
128 1 0.28444 0.993376 0.505297
383 1 0.275475 0.600691 0.504999
