ITEM: TIMESTEP
7750
ITEM: NUMBER OF ATOMS
864
ITEM: BOX BOUNDS pp pp pp
0.0000000000000000e+00 3.1559999999999999e+01
0.0000000000000000e+00 3.1559999999999999e+01
0.0000000000000000e+00 3.1559999999999999e+01
ITEM: ATOMS id type xs ys zs
27 1 0.0837345 0.150987 0.0864787
4 1 -0.00217859 0.0779146 0.0725658
75 1 0.0700515 0.0156488 0.256074
8 1 0.161829 0.0769184 0.0732101
101 1 0.178022 0.157261 0.15533
78 1 0.244088 0.0793715 0.14426
12 1 0.326318 0.0784465 0.0730783
16 1 0.508772 0.0920289 0.0867463
35 1 0.417899 0.156208 0.0716462
3 1 0.0839005 -0.00959428 0.0725082
433 1 0.00530981 0.518087 0.00505086
591 1 0.580567 0.498913 0.412859
15 1 0.581689 0.00902092 0.0870624
86 1 0.592799 0.0849914 0.159034
20 1 0.66891 0.0731297 0.0901451
85 1 0.491952 -0.00905438 0.163898
43 1 0.74934 0.175187 0.0854575
90 1 0.762198 0.0978178 0.175997
70 1 0.922635 0.429068 0.00137012
24 1 0.827372 0.0733091 0.0809219
94 1 0.920044 0.0713244 0.160816
83 1 0.422518 0.00823793 0.236666
216 1 0.836044 0.417465 0.421658
54 1 0.252409 0.407982 0.0144055
32 1 0.181265 0.253129 0.0836606
28 1 1.01487 0.249633 0.0933594
51 1 0.10479 0.328803 0.0987915
31 1 0.249601 0.151974 0.0601954
55 1 0.260018 0.333284 0.101485
102 1 0.251555 0.241163 0.192489
36 1 0.346313 0.249366 0.0876088
129 1 0.348177 0.328669 0.167972
59 1 0.430226 0.331502 0.100049
145 1 0.988357 -0.00453624 0.344875
147 1 0.0807692 -0.0121978 0.411477
7 1 0.246424 -0.00385795 0.0793157
40 1 0.49384 0.24856 0.0894232
39 1 0.586866 0.170701 0.0842079
63 1 0.576789 0.340408 0.0973915
109 1 0.495686 0.169096 0.170828
443 1 0.399686 0.498258 0.085359
44 1 0.662309 0.249655 0.0800958
48 1 0.838079 0.252343 0.0833007
435 1 0.0898367 0.516466 0.0875127
597 1 0.816011 0.504308 0.334017
47 1 0.908402 0.166192 0.0801848
71 1 0.930729 0.33973 0.0899626
34 1 0.443369 0.264354 -0.00201634
56 1 0.170593 0.42234 0.0791663
122 1 0.0949458 0.418196 0.158552
125 1 0.183551 0.326036 0.181968
521 1 0.662912 0.504109 0.161937
126 1 0.241183 0.430965 0.160395
595 1 0.748564 0.483263 0.416451
161 1 0.64567 0.0010395 0.33241
60 1 0.343671 0.410313 0.0930444
64 1 0.490612 0.418552 0.0947522
215 1 0.908238 0.337863 0.437818
30 1 0.266172 0.252839 0.0117918
134 1 0.586861 0.428438 0.170669
68 1 0.665174 0.429433 0.0787977
93 1 0.832225 0.00457093 0.177919
513 1 0.327626 0.508706 0.166385
241 1 1.00943 0.16834 0.509529
67 1 0.740751 0.335793 0.0715507
72 1 0.850876 0.435883 0.0921803
138 1 0.758388 0.421699 0.157596
52 1 0.0147598 0.425148 0.0791711
121 1 0.004799 0.324617 0.168561
142 1 0.930651 0.418687 0.166732
274 1 0.417087 0.408762 0.485141
206 1 0.591402 0.414309 0.33298
74 1 0.0838291 0.0705447 0.165067
97 1 0.013288 0.17099 0.163735
146 1 0.0628666 0.0757869 0.342532
169 1 0.997069 0.162697 0.337081
105 1 0.306797 0.154796 0.156051
80 1 0.16893 0.0900143 0.246523
84 1 0.33834 0.0771139 0.243261
103 1 0.258723 0.157101 0.262649
82 1 0.42237 0.0865875 0.156639
88 1 0.499457 0.086015 0.23571
107 1 0.405058 0.16258 0.244029
154 1 0.414269 0.0849434 0.321796
95 1 0.910846 0.000756231 0.241214
527 1 0.926112 0.486556 0.251087
113 1 0.665411 0.173475 0.167629
111 1 0.576933 0.170815 0.247824
92 1 0.662713 0.0802743 0.255171
189 1 0.833128 0.175839 0.349679
204 1 0.329906 0.408184 0.4122
76 1 0.998075 0.0958399 0.240486
96 1 0.838219 0.0900782 0.252013
166 1 0.918818 0.0826539 0.322923
159 1 0.592902 0.000289817 0.430122
98 1 0.0988547 0.246393 0.170615
99 1 0.0881101 0.161135 0.25178
100 1 0.00136492 0.237571 0.246002
193 1 0.00956299 0.339391 0.344664
104 1 0.164405 0.231493 0.264716
127 1 0.262192 0.334905 0.256205
108 1 0.339191 0.254706 0.255073
133 1 0.508417 0.333076 0.181655
106 1 0.416647 0.252734 0.176332
112 1 0.490587 0.231409 0.25836
131 1 0.42162 0.332312 0.264578
110 1 0.583307 0.256421 0.163281
182 1 0.585559 0.250285 0.318277
114 1 0.753893 0.261911 0.158931
117 1 0.835934 0.18757 0.166477
116 1 0.662724 0.265311 0.23064
115 1 0.737407 0.18589 0.245102
137 1 0.667123 0.360838 0.170328
139 1 0.744303 0.326433 0.250431
141 1 0.841048 0.347142 0.155738
120 1 0.847733 0.285239 0.244045
119 1 0.900553 0.171539 0.250889
118 1 0.916415 0.249689 0.163938
143 1 0.945619 0.357955 0.266378
123 1 0.0797323 0.335891 0.239033
124 1 0.0246217 0.4278 0.259452
128 1 0.151772 0.424961 0.247742
211 1 0.754145 0.340887 0.4053
208 1 0.502235 0.415376 0.405779
1 1 1.00322 0.00176465 -0.0131388
132 1 0.325532 0.419132 0.254097
198 1 0.241598 0.415492 0.34011
593 1 0.670231 0.505137 0.318801
130 1 0.413242 0.431031 0.173341
202 1 0.427331 0.412523 0.346061
136 1 0.517479 0.41604 0.257147
135 1 0.582315 0.338674 0.250585
140 1 0.669346 0.43152 0.244541
212 1 0.669974 0.407388 0.419714
210 1 0.768481 0.412377 0.334711
214 1 0.932641 0.428539 0.358029
144 1 0.851618 0.411063 0.252893
207 1 0.593056 0.328197 0.410488
171 1 0.0839148 0.170138 0.427919
152 1 0.16321 0.0807994 0.434346
148 1 0.989561 0.0761175 0.420137
150 1 0.267275 0.0745424 0.328959
173 1 0.175245 0.155673 0.33968
175 1 0.255656 0.164302 0.41753
29 1 0.161876 0.169973 -0.00201901
190 1 0.928155 0.252341 0.32889
187 1 0.761491 0.176029 0.422019
177 1 0.339902 0.150942 0.345009
156 1 0.327179 0.0821302 0.412591
179 1 0.41142 0.147024 0.420422
160 1 0.502656 0.0768532 0.426624
199 1 0.254189 0.317942 0.401919
201 1 0.343428 0.341364 0.328103
87 1 0.578479 -0.00737844 0.23445
158 1 0.580914 0.0914457 0.355993
188 1 0.675945 0.257518 0.426979
185 1 0.668838 0.173137 0.333271
164 1 0.681605 0.0911695 0.416703
196 1 0.0208262 0.421841 0.415623
213 1 0.849467 0.332529 0.339001
162 1 0.748873 0.0843383 0.329561
163 1 0.734517 0.000948432 0.398583
191 1 0.919891 0.172846 0.416138
168 1 0.818898 0.0644073 0.405727
195 1 0.089902 0.323399 0.412735
186 1 0.762692 0.257229 0.336823
200 1 0.160182 0.424956 0.421288
172 1 -0.00781435 0.255122 0.41584
170 1 0.080203 0.239362 0.332982
180 1 0.329363 0.240488 0.417296
176 1 0.172922 0.246954 0.397459
174 1 0.248317 0.254999 0.315011
197 1 0.171616 0.337605 0.310084
194 1 0.0929219 0.421103 0.335203
178 1 0.400425 0.245446 0.34142
181 1 0.500815 0.158446 0.330372
203 1 0.430981 0.328393 0.411693
205 1 0.501634 0.330514 0.328921
209 1 0.677757 0.337412 0.335328
183 1 0.59435 0.170465 0.427748
184 1 0.500684 0.24874 0.416045
192 1 0.837056 0.261107 0.419993
66 1 0.753666 0.418395 0.0153584
157 1 0.500222 0.0139221 0.329503
57 1 0.346357 0.334833 0.0146718
250 1 0.428132 0.242542 0.495373
89 1 0.673181 -0.00564907 0.17234
523 1 0.759556 0.489602 0.237901
149 1 0.159298 0.0208881 0.333122
153 1 0.334716 -0.00780037 0.332377
58 1 0.411088 0.417502 -0.00595752
525 1 0.84664 0.509689 0.17445
246 1 0.247819 0.259733 0.497356
441 1 0.327132 0.492434 0.00854753
649 1 -0.000199816 0.498775 0.507633
665 1 0.667071 0.488302 0.496309
38 1 0.567197 0.254581 0.00790327
277 1 0.50015 0.332062 0.488623
230 1 0.591011 0.0825549 0.499418
46 1 0.921485 0.2572 0.0114877
25 1 1.01474 0.184697 0.00819263
261 1 0.84506 0.17287 0.500629
270 1 0.246095 0.411954 0.493617
237 1 0.819216 0.00975714 0.503591
218 1 0.063719 0.0630751 0.488969
62 1 0.576921 0.425808 -0.00335387
53 1 0.172416 0.336838 -0.00482542
233 1 0.687512 0.0115746 0.492843
33 1 0.336656 0.15815 -0.00306253
65 1 0.665163 0.346703 0.00824463
69 1 0.842573 0.339734 0.00115983
273 1 0.337629 0.326521 0.484539
290 1 0.0942897 0.0983715 0.665748
224 1 0.162933 0.0937783 0.571775
220 1 0.0079187 0.0846999 0.584847
257 1 0.663099 0.160349 0.504619
228 1 0.337197 0.0791821 0.578707
321 1 0.327571 0.183595 0.655375
247 1 0.244847 0.178918 0.570952
41 1 0.667964 0.165188 0.987182
297 1 0.330926 -0.000877978 0.651436
298 1 0.421252 0.082232 0.66396
251 1 0.411628 0.165614 0.592663
219 1 0.0889798 0.00608966 0.579163
430 1 0.909804 0.428309 0.829876
232 1 0.503809 0.0817794 0.583829
236 1 0.662143 0.0800019 0.583962
667 1 0.747869 0.486871 0.593557
42 1 0.761366 0.250912 0.992238
240 1 0.829884 0.07073 0.581975
306 1 0.758245 0.0959481 0.686583
286 1 0.93041 0.416114 0.514955
659 1 0.422405 0.486351 0.575446
437 1 0.164495 0.502863 1.00786
310 1 0.911989 0.0730414 0.650733
307 1 0.733019 0.000195266 0.740526
243 1 0.0863885 0.171497 0.590635
314 1 0.109674 0.256365 0.653148
811 1 0.759307 0.489547 0.92543
248 1 0.179688 0.251089 0.578322
655 1 0.247001 0.490696 0.589063
721 1 0.00658398 0.49497 0.686299
252 1 0.329067 0.260474 0.560664
322 1 0.406654 0.265128 0.663581
295 1 0.246056 0.0157271 0.745881
255 1 0.579474 0.162058 0.583778
256 1 0.492667 0.24137 0.585329
279 1 0.581638 0.331987 0.580242
326 1 0.58387 0.250695 0.678083
259 1 0.752692 0.151745 0.592384
260 1 0.665226 0.237551 0.578745
264 1 0.83531 0.250349 0.585804
330 1 0.762768 0.243415 0.669219
801 1 0.338741 0.490873 0.826913
244 1 0.00403363 0.258522 0.584978
333 1 0.841156 0.163634 0.663215
263 1 0.917082 0.185075 0.596473
313 1 0.998504 0.16347 0.659424
367 1 0.240013 0.00177787 0.915399
432 1 0.846946 0.421992 0.916025
267 1 0.0898682 0.332844 0.582525
338 1 0.0801461 0.401993 0.682958
272 1 0.169103 0.419627 0.594096
363 1 0.0797524 0.000803757 0.912878
271 1 0.239185 0.334348 0.574553
341 1 0.173105 0.334089 0.670123
431 1 0.914935 0.343474 0.914219
653 1 0.173616 0.513986 0.504358
275 1 0.423012 0.326869 0.569934
276 1 0.342965 0.402649 0.568797
737 1 0.66572 0.500194 0.677296
299 1 0.417519 -0.00294986 0.745468
280 1 0.499598 0.416297 0.582582
349 1 0.500526 0.321528 0.663774
284 1 0.674856 0.40518 0.593959
291 1 0.0792694 0.00230619 0.740399
283 1 0.74425 0.317868 0.588326
288 1 0.839858 0.425503 0.579842
245 1 0.184386 0.172891 0.49494
426 1 0.772059 0.410171 0.827937
287 1 0.926673 0.344822 0.594739
268 1 0.00693385 0.417683 0.594076
337 1 1.00408 0.332409 0.677275
358 1 0.922014 0.414574 0.66474
369 1 0.339486 -0.00485691 0.840354
296 1 0.159542 0.10095 0.7547
362 1 0.0640774 0.086721 0.81262
294 1 0.249395 0.0867901 0.664299
366 1 0.236025 0.101874 0.842478
300 1 0.329457 0.0839745 0.77175
319 1 0.254068 0.178665 0.747332
429 1 0.841958 0.332734 0.833853
325 1 0.497207 0.170373 0.66883
323 1 0.406297 0.177083 0.745118
304 1 0.501907 0.0956791 0.74791
302 1 0.579662 0.0932031 0.673976
308 1 0.658797 0.0809 0.761048
327 1 0.595773 0.16838 0.758794
427 1 0.742768 0.342497 0.934279
727 1 0.256526 0.509145 0.743048
378 1 0.749994 0.0970461 0.820261
424 1 0.488708 0.412788 0.917219
422 1 0.57151 0.403474 0.833046
312 1 0.834338 0.0749024 0.741165
292 1 0.995555 0.071157 0.726477
382 1 0.920874 0.0838267 0.831158
428 1 0.669838 0.429647 0.934657
389 1 0.153325 0.171248 0.832602
315 1 0.0725714 0.1806 0.7326
320 1 0.162501 0.248842 0.748749
339 1 0.0777244 0.321275 0.757428
318 1 0.252542 0.25887 0.660012
317 1 0.17774 0.171831 0.659821
390 1 0.235642 0.253694 0.827266
324 1 0.332273 0.252895 0.738822
345 1 0.326505 0.336049 0.661583
347 1 0.396086 0.343009 0.753884
328 1 0.497013 0.248015 0.755151
353 1 0.674026 0.306908 0.663068
351 1 0.581004 0.327378 0.757295
329 1 0.649002 0.174892 0.671878
332 1 0.662066 0.263047 0.760113
331 1 0.74893 0.178156 0.762887
355 1 0.757753 0.321411 0.755818
401 1 0.658077 0.188623 0.858913
402 1 0.754984 0.262284 0.840526
385 1 1.00486 0.171035 0.831331
335 1 0.914192 0.167752 0.742721
316 1 -0.00902092 0.243814 0.747173
336 1 0.840266 0.263735 0.740976
334 1 0.916224 0.264906 0.664489
281 1 0.66035 0.340982 0.51007
410 1 0.0831313 0.425374 0.850112
420 1 0.339927 0.407978 0.919705
342 1 0.249606 0.41433 0.683967
343 1 0.240211 0.338817 0.752567
344 1 0.157688 0.415652 0.751502
348 1 0.33508 0.423905 0.729158
417 1 0.326826 0.334627 0.844433
346 1 0.432724 0.412169 0.66474
418 1 0.405044 0.411221 0.834754
416 1 0.176834 0.418494 0.917627
350 1 0.583477 0.391152 0.669904
352 1 0.492969 0.400065 0.747593
356 1 0.668282 0.406163 0.752204
357 1 0.832195 0.337609 0.65223
354 1 0.758585 0.412686 0.670588
360 1 0.843711 0.409635 0.744597
340 1 0.994583 0.407982 0.759272
359 1 0.920068 0.333038 0.767526
733 1 0.51636 0.483801 0.676321
805 1 0.499143 0.485786 0.828547
266 1 0.0963651 0.427149 0.51595
368 1 0.152516 0.0975148 0.910135
364 1 0.994675 0.10122 0.92441
387 1 0.0822734 0.178241 0.933413
391 1 0.248165 0.186782 0.930643
809 1 0.672604 0.493751 0.823972
370 1 0.422327 0.0777416 0.829467
393 1 0.333581 0.200724 0.833666
415 1 0.256099 0.331224 0.936985
413 1 0.160484 0.333051 0.826243
372 1 0.335942 0.084869 0.906583
414 1 0.25436 0.418691 0.846532
397 1 0.499251 0.159041 0.831778
374 1 0.577529 0.0892403 0.844512
376 1 0.499036 0.0709574 0.911594
380 1 0.662829 0.0888979 0.90899
399 1 0.573098 0.166667 0.923268
265 1 0.0162628 0.339927 0.492411
813 1 0.834687 0.51372 0.83948
37 1 0.491988 0.159657 1.00184
403 1 0.764548 0.177434 0.90823
797 1 0.181128 0.504087 0.843439
365 1 0.152365 0.0232496 0.837404
388 1 0.99534 0.253819 0.924423
384 1 0.826939 0.089401 0.917661
405 1 0.848374 0.167036 0.828505
407 1 0.910042 0.173102 0.94263
26 1 0.0956714 0.255209 1.02051
386 1 0.0792486 0.254648 0.84257
392 1 0.157185 0.254452 0.917451
254 1 0.569128 0.252908 0.496709
10 1 0.429005 0.0720078 1.00364
411 1 0.0882314 0.331768 0.925618
394 1 0.419525 0.266887 0.818961
419 1 0.417062 0.320524 0.91678
396 1 0.351 0.24573 0.933013
395 1 0.424905 0.158533 0.900931
400 1 0.502439 0.237217 0.913297
421 1 0.495255 0.337985 0.834615
398 1 0.58428 0.26589 0.84707
423 1 0.578275 0.34569 0.935591
409 1 0.00982585 0.338665 0.84192
425 1 0.67977 0.348066 0.848066
404 1 0.668876 0.270114 0.928398
412 1 0.994166 0.421532 0.913302
406 1 0.922406 0.242583 0.842311
408 1 0.844261 0.262372 0.913626
258 1 0.751157 0.246174 0.509408
50 1 0.0921732 0.413247 0.994698
242 1 0.0777291 0.252921 0.502645
45 1 0.821115 0.157201 1.00835
282 1 0.740873 0.402251 0.513168
803 1 0.411107 0.498451 0.921083
249 1 0.330154 0.158458 0.501135
285 1 0.827393 0.336565 0.514089
663 1 0.599675 0.492954 0.582049
18 1 0.735016 0.0794147 0.985829
231 1 0.582537 -0.00115676 0.569454
49 1 -0.00588525 0.34434 1.00658
222 1 0.247592 0.0667869 0.50418
235 1 0.752345 -0.00132804 0.583155
253 1 0.496161 0.156539 0.498638
262 1 0.939469 0.24334 0.506649
669 1 0.835563 0.490704 0.502201
5 1 0.163605 0.0127526 0.996376
234 1 0.757095 0.1051 0.496512
269 1 0.171432 0.339276 0.491588
22 1 0.909305 0.0762497 0.997731
278 1 0.578308 0.41136 0.491682
61 1 0.509857 0.353605 1.0161
226 1 0.418948 0.0749355 0.508125
238 1 0.913578 0.0758688 0.492724
9 1 0.331722 0.0155036 0.987776
2 1 0.0780859 0.0870914 0.995974
14 1 0.594756 0.0860304 1.01564
657 1 0.329508 0.505718 0.496868
6 1 0.256604 0.0885881 0.975368
459 1 0.0979721 0.658297 0.0786897
529 1 0.0116411 0.671096 0.157982
511 1 0.243013 0.497521 0.248784
151 1 0.2389 0.989725 0.415081
493 1 0.491476 0.822086 -0.00265677
155 1 0.420007 1.00851 0.407125
440 1 0.17022 0.580573 0.0878647
645 1 0.83326 0.844382 0.336878
510 1 0.249903 0.587085 0.170686
585 1 0.326965 0.495355 0.333051
444 1 0.326137 0.593354 0.078355
467 1 0.420253 0.660306 0.0966849
514 1 0.408771 0.572318 0.174477
515 1 0.407064 0.490948 0.26692
647 1 0.911618 0.829783 0.420783
448 1 0.482428 0.566108 0.085511
579 1 0.0826684 0.50878 0.419125
599 1 0.911933 0.506458 0.428856
581 1 0.159124 0.491063 0.343154
452 1 0.668884 0.596305 0.103464
456 1 0.821627 0.587925 0.0792205
549 1 0.832458 0.667296 0.181032
644 1 0.668265 0.920637 0.402717
436 1 0.0121722 0.587599 0.080786
643 1 0.758065 0.837361 0.415471
526 1 0.917891 0.582912 0.164823
73 1 1.00615 0.980726 0.150985
530 1 0.0893875 0.750344 0.148794
557 1 0.163759 0.839221 0.161976
553 1 -0.00659759 0.828482 0.166912
91 1 0.741394 0.997485 0.24786
463 1 0.259896 0.678594 0.090167
464 1 0.175098 0.757072 0.0605155
487 1 0.245609 0.852014 0.0710669
217 1 0.996385 0.992029 0.50528
468 1 0.338112 0.749851 0.0772022
472 1 0.49406 0.740841 0.0815181
491 1 0.412106 0.826012 0.0741638
471 1 0.581516 0.674606 0.0816445
476 1 0.662424 0.743036 0.0760884
542 1 0.578684 0.760547 0.176625
475 1 0.756964 0.673038 0.0823784
480 1 0.82817 0.74369 0.0812314
509 1 0.169793 0.5037 0.160949
11 1 0.425373 1.00484 0.078881
479 1 0.919282 0.678442 0.0876038
460 1 0.0045339 0.748552 0.0772922
550 1 0.907815 0.744909 0.171887
503 1 0.915183 0.810331 0.0808119
77 1 0.164877 1.00136 0.1508
685 1 0.504114 0.668749 0.499351
483 1 0.0860756 0.833667 0.072742
554 1 0.0855673 0.912696 0.161092
484 1 0.972626 0.902096 0.0707803
488 1 0.163721 0.918971 0.0672008
507 1 0.0943124 0.505334 0.239256
23 1 0.910455 0.995408 0.076431
713 1 0.676259 0.820249 0.503869
558 1 0.237745 0.921622 0.169419
492 1 0.333884 0.933479 0.0639298
439 1 0.258118 0.502324 0.0845496
79 1 0.256768 1.00748 0.241892
496 1 0.499188 0.914538 0.0611035
562 1 0.402553 0.930592 0.154939
718 1 0.899234 0.919273 0.49419
648 1 0.82081 0.919385 0.411461
447 1 0.565969 0.493105 0.0884427
495 1 0.57967 0.824957 0.0867976
566 1 0.587125 0.924162 0.151874
577 1 0.999777 0.500782 0.337765
450 1 0.745348 0.597362 -0.0054472
499 1 0.738968 0.828903 0.0970929
500 1 0.665347 0.899271 0.0806316
504 1 0.840201 0.898098 0.0835524
666 1 0.740341 0.57147 0.501852
689 1 0.660961 0.649628 0.490441
574 1 0.910478 0.900994 0.17248
501 1 0.826367 0.821559 0.00245741
639 1 0.574123 0.813189 0.421188
506 1 0.0807811 0.584911 0.16754
512 1 0.16393 0.576351 0.246733
454 1 0.911011 0.593708 0.0159931
605 1 0.155089 0.653896 0.3355
533 1 0.165178 0.658782 0.16129
535 1 0.234447 0.66278 0.24317
537 1 0.330648 0.65752 0.173322
516 1 0.320196 0.576318 0.250295
609 1 0.334877 0.666063 0.342614
539 1 0.418918 0.670961 0.258553
520 1 0.48941 0.606541 0.248976
518 1 0.576636 0.585671 0.171833
524 1 0.668921 0.578624 0.236989
589 1 0.493911 0.504139 0.332892
640 1 0.49381 0.922832 0.42414
81 1 0.325622 1.00752 0.156659
522 1 0.755136 0.594659 0.175551
528 1 0.836464 0.584114 0.25661
19 1 0.761002 0.978574 0.0942396
508 1 1.00111 0.565869 0.241469
551 1 0.92737 0.671094 0.25076
598 1 0.906973 0.56223 0.336234
531 1 0.0921336 0.661805 0.253209
532 1 1.02425 0.750162 0.256583
536 1 0.173383 0.762151 0.263747
602 1 0.0904748 0.750169 0.335273
534 1 0.23078 0.760329 0.171308
561 1 0.342928 0.846361 0.145865
540 1 0.342244 0.768215 0.236527
559 1 0.260823 0.833215 0.2373
538 1 0.431793 0.765593 0.167118
563 1 0.416166 0.840628 0.245024
545 1 0.66209 0.665453 0.176392
541 1 0.501786 0.669631 0.164565
543 1 0.583474 0.654934 0.249094
544 1 0.49782 0.751525 0.25124
548 1 0.662143 0.743158 0.261661
569 1 0.668593 0.823603 0.180777
614 1 0.585471 0.738919 0.340548
547 1 0.744218 0.669211 0.262471
546 1 0.75402 0.742205 0.182276
621 1 0.825909 0.658858 0.33711
552 1 0.831094 0.765701 0.261278
601 1 0.994886 0.666076 0.334237
622 1 0.904218 0.741132 0.334784
636 1 0.323488 0.917939 0.425529
555 1 0.0871914 0.834876 0.240559
556 1 1.0073 0.913741 0.241134
626 1 0.0745939 0.925137 0.327722
560 1 0.164587 0.925698 0.256271
564 1 0.34026 0.917586 0.244886
632 1 0.149676 0.917681 0.411461
453 1 0.824066 0.500745 0.00868563
608 1 0.156096 0.740928 0.416703
583 1 0.251315 0.495883 0.42508
637 1 0.494448 0.830758 0.339455
565 1 0.499261 0.838332 0.161197
634 1 0.413582 0.913695 0.340394
641 1 0.6645 0.825303 0.352923
567 1 0.59522 0.827063 0.262444
568 1 0.501995 0.921206 0.244227
572 1 0.659009 0.913963 0.268672
638 1 0.576239 0.918873 0.334803
610 1 0.40772 0.757259 0.325119
571 1 0.741338 0.834715 0.259058
642 1 0.748219 0.922283 0.321671
570 1 0.747334 0.900418 0.16932
576 1 0.833318 0.909498 0.246062
646 1 0.923612 0.919967 0.325049
573 1 0.831705 0.826349 0.16926
575 1 0.921364 0.825296 0.251852
625 1 0.00462546 0.835828 0.319896
630 1 0.247279 0.924012 0.321215
604 1 1.00216 0.747307 0.418346
578 1 0.0764351 0.579585 0.3342
607 1 0.255358 0.651891 0.410815
580 1 0.996863 0.582499 0.425377
584 1 0.17052 0.586479 0.416431
624 1 0.831435 0.750887 0.407035
612 1 0.32987 0.749343 0.417544
628 1 0.994061 0.921805 0.419344
620 1 0.65689 0.741582 0.432647
582 1 0.248672 0.566762 0.331524
588 1 0.354949 0.584577 0.429919
586 1 0.403132 0.582486 0.334131
592 1 0.482386 0.588892 0.425411
611 1 0.410853 0.678972 0.420681
615 1 0.581355 0.650763 0.411981
613 1 0.492555 0.670364 0.34387
590 1 0.598854 0.58406 0.318123
596 1 0.665264 0.566527 0.414927
616 1 0.484821 0.753965 0.419802
631 1 0.253239 0.83993 0.411426
594 1 0.747331 0.579342 0.344767
619 1 0.751937 0.658311 0.42954
600 1 0.826212 0.574978 0.417286
623 1 0.904101 0.652756 0.415478
617 1 0.671201 0.662709 0.350625
618 1 0.74529 0.742724 0.347141
629 1 0.1641 0.857743 0.334891
635 1 0.413144 0.840906 0.424273
603 1 0.0677465 0.66288 0.411839
627 1 0.0758121 0.844088 0.416042
633 1 0.331571 0.841514 0.333877
606 1 0.26008 0.751793 0.335808
658 1 0.422973 0.586567 0.521521
709 1 0.504729 0.823622 0.502492
455 1 0.928249 0.504969 0.0865978
517 1 0.505043 0.503523 0.186165
451 1 0.744063 0.514818 0.0886429
477 1 0.829787 0.66663 -0.00672684
710 1 0.591433 0.888258 0.496055
165 1 0.833453 0.99767 0.319207
167 1 0.896224 0.999146 0.409776
466 1 0.420556 0.742285 0.00251533
678 1 0.248911 0.749064 0.496481
13 1 0.515934 1.00924 -0.0108389
497 1 0.677053 0.827537 0.000419059
661 1 0.498667 0.494871 0.502629
505 1 2.99236e-05 0.506479 0.158383
519 1 0.580461 0.499407 0.254941
587 1 0.414313 0.495887 0.406003
465 1 0.330895 0.664462 -0.0132551
434 1 0.0874712 0.578111 -0.00433658
21 1 0.813148 0.996924 -0.00669199
717 1 0.824298 0.822662 0.49434
694 1 0.917122 0.759264 0.499405
677 1 0.165551 0.670374 0.496329
714 1 0.744255 0.91026 0.49661
449 1 0.664987 0.516037 0.0176875
473 1 0.657586 0.664548 -0.00587123
446 1 0.574195 0.571795 0.00637726
442 1 0.407978 0.579392 -0.00168021
494 1 0.5961 0.905876 -0.00923082
675 1 0.078265 0.662858 0.593311
749 1 0.164929 0.667565 0.68608
656 1 0.167516 0.589366 0.59769
679 1 0.241435 0.664218 0.580087
844 1 0.989602 0.914623 0.90912
660 1 0.31986 0.58358 0.571513
683 1 0.421759 0.669617 0.586121
311 1 0.914301 1.00226 0.732778
664 1 0.506718 0.566147 0.592394
687 1 0.584826 0.647157 0.561646
864 1 0.827028 0.909636 0.908411
862 1 0.904064 0.919544 0.815534
863 1 0.898756 0.824165 0.928364
668 1 0.664848 0.573916 0.567971
672 1 0.839855 0.580533 0.59095
457 1 0.0231288 0.658452 1.00644
489 1 0.33301 0.822125 0.998533
652 1 0.998362 0.581196 0.586577
695 1 0.926226 0.671585 0.584537
651 1 0.0760835 0.506992 0.57872
742 1 0.923861 0.588202 0.67559
699 1 0.0832895 0.827597 0.58412
680 1 0.162224 0.754636 0.589332
676 1 0.993723 0.761056 0.576761
17 1 0.664817 0.998547 1.01741
746 1 0.078668 0.766217 0.668935
703 1 0.243643 0.826427 0.583079
750 1 0.239812 0.744267 0.661156
462 1 0.258801 0.736891 0.996024
301 1 0.506504 1.00098 0.658898
684 1 0.334672 0.749955 0.578283
707 1 0.424278 0.834094 0.582294
754 1 0.402281 0.732255 0.67021
688 1 0.488241 0.74673 0.575485
758 1 0.591741 0.738744 0.654923
692 1 0.673174 0.729711 0.583844
711 1 0.584829 0.818043 0.588296
781 1 0.500681 0.795831 0.673767
227 1 0.425707 1.00165 0.599835
691 1 0.760724 0.647168 0.56677
765 1 0.829799 0.672652 0.666783
715 1 0.743365 0.825594 0.58842
438 1 0.257483 0.588121 1.01746
696 1 0.815912 0.753574 0.591905
766 1 0.907013 0.756696 0.656839
769 1 -0.0189378 0.831578 0.654884
662 1 0.574132 0.575688 0.489526
735 1 0.580143 0.49056 0.753365
770 1 0.0823583 0.921312 0.65055
704 1 0.169977 0.912219 0.575442
458 1 0.0807928 0.755004 1.00393
708 1 0.325042 0.923982 0.584435
498 1 0.761117 0.903781 0.998461
381 1 0.83147 1.00369 0.836082
778 1 0.435904 0.914965 0.660987
712 1 0.515596 0.909186 0.571888
716 1 0.67778 0.923842 0.578031
375 1 0.588545 0.986221 0.9131
725 1 0.16718 0.494807 0.668014
815 1 0.917036 0.512701 0.933418
720 1 0.832219 0.916145 0.578098
795 1 0.0943238 0.508084 0.915085
361 1 0.995679 1.00957 0.84373
860 1 0.675014 0.930259 0.917796
719 1 0.908515 0.837523 0.575748
700 1 0.000749746 0.917545 0.583127
722 1 0.0796306 0.582251 0.665235
724 1 1.00104 0.594232 0.751297
728 1 0.178286 0.580682 0.751402
745 1 1.00357 0.677534 0.671661
747 1 0.0732651 0.670171 0.743208
726 1 0.257054 0.584735 0.66865
751 1 0.254625 0.673965 0.748871
383 1 0.901532 0.998567 0.915428
731 1 0.424582 0.484901 0.754164
732 1 0.34338 0.583272 0.747896
730 1 0.413937 0.590523 0.663651
734 1 0.590621 0.583887 0.65626
674 1 0.0772309 0.748093 0.508504
736 1 0.487853 0.57003 0.752895
740 1 0.688543 0.585104 0.748255
856 1 0.509128 0.912357 0.910977
289 1 0.000964892 1.00553 0.647648
229 1 0.505215 0.989392 0.500403
738 1 0.746474 0.577532 0.654576
744 1 0.838351 0.58547 0.740802
855 1 0.587309 0.824592 0.924907
814 1 0.91778 0.586564 0.834417
767 1 0.915606 0.665029 0.743746
817 1 0.99647 0.663719 0.835526
841 1 0.9868 0.836795 0.826177
818 1 0.082262 0.7624 0.8228
748 1 -0.00159562 0.776887 0.736826
771 1 0.0838441 0.854598 0.742388
753 1 0.336529 0.664717 0.649538
752 1 0.175699 0.75962 0.74855
756 1 0.328535 0.757768 0.74537
777 1 0.330251 0.847832 0.66591
755 1 0.425108 0.651196 0.757191
760 1 0.517583 0.725285 0.765441
779 1 0.423298 0.809528 0.749062
757 1 0.505953 0.666865 0.656433
759 1 0.580757 0.640314 0.762057
761 1 0.669994 0.661334 0.662675
783 1 0.579449 0.8222 0.753998
829 1 0.503953 0.652614 0.840747
830 1 0.584787 0.734629 0.844931
861 1 0.820461 0.836834 0.827693
764 1 0.65491 0.729641 0.747066
763 1 0.7619 0.679033 0.748358
762 1 0.730878 0.756622 0.675684
768 1 0.832121 0.758383 0.732823
838 1 0.917709 0.749034 0.809017
789 1 0.838443 0.84508 0.657526
791 1 0.905985 0.841365 0.735034
701 1 0.155299 0.832318 0.490877
842 1 0.0736896 0.925875 0.817438
773 1 0.16191 0.837743 0.675493
776 1 0.172369 0.940801 0.770462
772 1 0.993644 0.909202 0.742332
845 1 0.164683 0.858335 0.821617
840 1 0.82973 0.742456 0.91441
774 1 0.232469 0.90924 0.663783
775 1 0.248974 0.845742 0.744101
780 1 0.352424 0.899476 0.75253
851 1 0.416565 0.821216 0.91841
850 1 0.42292 0.899795 0.825887
852 1 0.345151 0.916392 0.902823
784 1 0.495096 0.897954 0.754569
847 1 0.259565 0.844644 0.911518
782 1 0.572199 0.897987 0.663929
788 1 0.655621 0.919019 0.740815
854 1 0.586911 0.899497 0.836681
785 1 0.662639 0.839396 0.661136
858 1 0.739713 0.911804 0.84078
857 1 0.663131 0.823047 0.831673
786 1 0.751501 0.916198 0.659999
787 1 0.740631 0.851305 0.743186
790 1 0.927537 0.914256 0.65292
792 1 0.817495 0.925639 0.753377
794 1 0.0797386 0.582603 0.836009
821 1 0.159147 0.676062 0.823557
800 1 0.169252 0.579023 0.922881
796 1 1.00644 0.582317 0.915874
819 1 0.0874177 0.6579 0.904658
846 1 0.259806 0.928484 0.832346
798 1 0.261137 0.582468 0.837433
823 1 0.247257 0.666894 0.913129
223 1 0.236491 0.999411 0.595321
481 1 0.995602 0.825713 0.982695
729 1 0.347389 0.506096 0.665317
804 1 0.316595 0.58019 0.926452
303 1 0.578166 0.985186 0.744667
802 1 0.413678 0.56844 0.829883
808 1 0.489779 0.578024 0.915584
806 1 0.573959 0.570769 0.840332
812 1 0.651799 0.575687 0.92924
831 1 0.570806 0.656548 0.92709
835 1 0.749637 0.66811 0.909559
810 1 0.741479 0.586014 0.851303
743 1 0.913904 0.487797 0.749591
837 1 0.831509 0.663431 0.821819
793 1 -0.00732766 0.50131 0.835075
816 1 0.831947 0.581722 0.929788
839 1 0.910459 0.664312 0.905708
848 1 0.15486 0.930763 0.911477
824 1 0.164064 0.737873 0.916355
820 1 0.0102034 0.729904 0.91098
849 1 0.341499 0.820242 0.829385
822 1 0.250136 0.755711 0.822772
723 1 0.0898148 0.508306 0.751067
843 1 0.0809733 0.844096 0.895392
825 1 0.341703 0.669162 0.826758
826 1 0.418601 0.753622 0.844094
827 1 0.405453 0.672176 0.910353
828 1 0.319485 0.760489 0.909752
379 1 0.735007 1.01076 0.902783
853 1 0.502431 0.819173 0.832013
833 1 0.662833 0.665023 0.832696
832 1 0.508028 0.748119 0.92125
836 1 0.660997 0.755345 0.928172
859 1 0.752058 0.831978 0.912763
834 1 0.74381 0.747583 0.830856
681 1 0.326294 0.668075 0.48809
482 1 0.0730881 0.914897 0.999781
371 1 0.41916 1.00378 0.916053
693 1 0.841449 0.68756 0.507674
671 1 0.921164 0.499171 0.592254
706 1 0.410809 0.91755 0.500338
377 1 0.649914 0.992697 0.820148
486 1 0.255243 0.925163 0.991725
470 1 0.582873 0.750731 1.01167
807 1 0.569026 0.487807 0.917469
741 1 0.837271 0.49552 0.674681
305 1 0.654741 0.998549 0.667213
739 1 0.755484 0.502374 0.745994
799 1 0.254332 0.487709 0.924548
293 1 0.168284 1.00919 0.672546
373 1 0.515934 0.99549 0.83555
239 1 0.914117 0.997124 0.574718
309 1 0.826708 0.995379 0.661992
698 1 0.07793 0.919593 0.506343
485 1 0.163948 0.844822 0.988241
673 1 0.994851 0.661884 0.497477
474 1 0.746936 0.743449 0.999682
690 1 0.7484 0.74616 0.503264
705 1 0.331987 0.838642 0.513971
697 1 1.00158 0.845068 0.498603
445 1 0.490708 0.490349 1.00591
650 1 0.0828802 0.597017 0.492732
490 1 0.420198 0.918764 0.987027
502 1 0.888607 0.920626 0.997386
469 1 0.487732 0.657725 0.99563
682 1 0.403539 0.758474 0.495855
478 1 0.924049 0.738286 0.998452
654 1 0.247468 0.58668 0.494136
670 1 0.921275 0.577708 0.514401
686 1 0.589619 0.746676 0.508617
461 1 0.167331 0.652845 0.994688
225 1 0.33581 1.01173 0.503217
702 1 0.248763 0.912021 0.495595
221 1 0.171838 0.990202 0.496307
