ITEM: TIMESTEP
13000
ITEM: NUMBER OF ATOMS
1372
ITEM: BOX BOUNDS pp pp pp
0.0000000000000000e+00 3.6820000000000000e+01
0.0000000000000000e+00 3.6820000000000000e+01
0.0000000000000000e+00 3.6820000000000000e+01
ITEM: ATOMS id type xs ys zs
8 1 0.14777 0.0983211 0.0691119
100 1 0.0932834 0.0693339 0.141063
3 1 0.0817937 0.0106115 0.070392
117 1 0.141512 0.158682 0.14792
103 1 0.162853 -0.000296009 0.140877
57 1 -0.00617131 0.555587 0.00980536
940 1 0.489075 0.571951 0.360159
301 1 0.435956 0.994136 0.423952
841 1 0.483894 0.642536 0.139155
12 1 0.296285 0.0708498 0.078397
104 1 0.214886 0.0777374 0.156964
14 1 0.426795 0.0857359 0.0709279
108 1 0.36227 0.074373 0.154241
25 1 0.363388 0.147272 0.0856522
125 1 0.435786 0.14058 0.153977
1009 1 0.495594 0.637881 0.426146
17 1 0.0713591 0.148099 0.0776608
343 1 0.424616 0.850476 0.425007
22 1 0.151115 0.217575 0.0625146
114 1 0.06552 0.214956 0.145235
24 1 0.358906 0.205653 0.0132029
968 1 0.50218 0.856829 0.357784
121 1 0.286394 0.155143 0.161697
21 1 0.231552 0.143844 0.0802906
26 1 0.293599 0.21135 0.0839832
118 1 0.215334 0.209012 0.134448
883 1 0.502968 0.0679055 0.292818
46 1 -0.000332605 0.48258 0.0761205
28 1 0.440207 0.208158 0.0861838
122 1 0.376044 0.207304 0.151916
139 1 0.431852 0.287207 0.140249
31 1 0.0846589 0.27646 0.080947
131 1 0.154298 0.29445 0.156703
36 1 0.154986 0.341597 0.0775798
128 1 0.0750913 0.353293 0.139928
45 1 0.0602313 0.400611 0.0648567
145 1 0.152981 0.416723 0.137563
20 1 0.223133 0.198501 -0.00942714
758 1 0.499523 0.721468 0.0649428
35 1 0.213401 0.283366 0.0677521
135 1 0.275041 0.286258 0.152202
40 1 0.300494 0.355063 0.0560633
132 1 0.222969 0.35589 0.150121
49 1 0.220479 0.408476 0.0680532
72 1 0.0695191 0.780809 0.00286146
39 1 0.357013 0.273626 0.0837726
42 1 0.423696 0.341317 0.0637846
136 1 0.352833 0.344447 0.136669
53 1 0.346727 0.434821 0.0705929
294 1 0.437098 0.92026 0.357501
50 1 0.130973 0.484096 0.0743039
142 1 0.0622006 0.51102 0.142488
59 1 0.0648476 0.570012 0.0691148
159 1 0.146084 0.57533 0.136646
186 1 0.00228378 0.919041 0.221669
342 1 0.351765 0.91745 0.410706
1030 1 0.494365 0.992386 0.506841
149 1 0.27713 0.427755 0.135546
54 1 0.279334 0.515309 0.0670052
146 1 0.208562 0.502596 0.13038
163 1 0.274667 0.571826 0.140485
63 1 0.209878 0.580253 0.0609396
94 1 0.362742 0.937407 -0.00838752
153 1 0.427731 0.409711 0.136113
56 1 0.420539 0.489545 0.0644039
150 1 0.34095 0.498431 0.137581
167 1 0.419753 0.561869 0.145932
2 1 0.0656981 0.0815637 0.0111844
842 1 0.495467 0.569979 0.199401
287 1 0.213583 0.85531 0.341085
295 1 0.0031257 0.997406 0.448348
64 1 0.135153 0.632885 0.0644332
156 1 0.0823215 0.655807 0.147074
73 1 0.074674 0.728314 0.0787652
173 1 0.151579 0.708911 0.135329
203 1 0.212163 1.00167 0.35531
383 1 0.355966 0.709 0.49468
68 1 0.280102 0.646661 0.0622928
160 1 0.21386 0.642559 0.132435
77 1 0.210738 0.715273 0.0650386
177 1 0.295089 0.719129 0.12354
41 1 0.424735 0.276011 0.00406695
884 1 0.491579 1.00704 0.35384
856 1 0.498599 0.722495 0.224927
939 1 0.49135 0.647541 0.293213
67 1 0.354384 0.564675 0.0773318
70 1 0.423084 0.644274 0.0716015
164 1 0.352721 0.641504 0.128619
81 1 0.360716 0.720585 0.0550038
181 1 0.419001 0.716833 0.129919
299 1 0.290778 -0.00100875 0.422459
78 1 0.14985 0.796975 0.075858
170 1 0.0843204 0.787134 0.148033
87 1 0.0774113 0.853576 0.0768257
340 1 0.224754 0.926439 0.423787
37 1 0.287001 0.287955 -0.0238799
82 1 0.285494 0.785181 0.0652697
174 1 0.216939 0.790634 0.139085
828 1 0.49003 0.428396 0.206334
33 1 0.139304 0.282068 -0.000868156
1044 1 0.498399 0.29829 0.496463
84 1 0.425683 0.792847 0.0707764
178 1 0.346029 0.787141 0.145259
95 1 0.354952 0.855558 0.0615833
195 1 0.410936 0.847159 0.14526
292 1 0.278371 0.929438 0.35379
330 1 0.000307124 0.703921 0.414316
44 1 0.0768683 0.490821 0.00569202
51 1 0.285677 0.426537 -0.00335979
363 1 0.275345 0.349139 0.482993
187 1 0.143444 0.860965 0.145177
92 1 0.14505 0.937839 0.0763635
184 1 0.0714831 0.939513 0.14592
1023 1 0.500548 0.929333 0.42291
197 1 0.0119657 0.991251 0.278816
7 1 0.224453 0.00338927 0.0642752
107 1 0.287248 0.00224922 0.145578
91 1 0.207649 0.862282 0.0735912
191 1 0.288881 0.864837 0.145686
96 1 0.290166 0.930181 0.074019
188 1 0.219883 0.933823 0.148673
111 1 0.436891 0.00150916 0.146375
870 1 0.503015 0.862312 0.215379
339 1 0.136892 0.872974 0.423425
11 1 0.361149 0.000950476 0.0790287
98 1 0.438978 0.936918 0.0757063
192 1 0.359624 0.930217 0.152198
106 1 0.139122 0.0672287 0.219198
198 1 0.0607896 0.0733717 0.295473
215 1 0.126891 0.151436 0.301333
115 1 0.0746898 0.141633 0.225382
201 1 0.142691 1.00394 0.289075
9 1 0.292262 -0.00858929 -0.00111489
110 1 0.293742 0.0674955 0.220513
202 1 0.205002 0.0716297 0.286645
205 1 0.278071 0.0028877 0.294886
105 1 0.223 0.00770306 0.211319
827 1 0.494094 0.49714 0.137598
112 1 0.432313 0.0639987 0.222403
206 1 0.359965 0.0731607 0.291356
123 1 0.366032 0.140657 0.214548
223 1 0.428046 0.144801 0.283512
357 1 0.438979 0.223951 0.504266
120 1 0.137895 0.222922 0.209335
212 1 0.069252 0.215864 0.299466
129 1 0.0761921 0.288932 0.21757
219 1 0.281506 0.132615 0.281326
119 1 0.211224 0.156017 0.217895
124 1 0.282547 0.22593 0.225475
216 1 0.202729 0.219917 0.286603
256 1 0.00177929 0.646303 0.336591
126 1 0.443577 0.223042 0.222057
220 1 0.376657 0.216755 0.285842
237 1 0.438591 0.303279 0.286158
229 1 0.139935 0.292167 0.288532
134 1 0.156181 0.361194 0.222691
226 1 0.0738924 0.359321 0.278128
143 1 0.0772334 0.443583 0.210444
1051 1 0.514232 0.437768 0.516917
772 1 0.498946 0.856948 0.0700974
133 1 0.216294 0.290986 0.233933
233 1 0.30165 0.300194 0.285878
138 1 0.284674 0.360259 0.219367
230 1 0.221113 0.372592 0.291076
137 1 0.364152 0.282392 0.218562
140 1 0.431743 0.35575 0.209039
234 1 0.364495 0.364543 0.276141
251 1 0.434735 0.415234 0.275604
151 1 0.360059 0.425151 0.195575
338 1 0.0664192 0.9294 0.444239
375 1 0.139782 0.639838 0.503617
243 1 0.144993 0.438399 0.269083
148 1 0.145797 0.495787 0.193761
240 1 0.0660331 0.512316 0.272479
247 1 0.288271 0.433658 0.278165
147 1 0.216225 0.426341 0.210452
152 1 0.27932 0.497646 0.210406
244 1 0.217465 0.497903 0.29093
161 1 0.220641 0.566816 0.209424
154 1 0.414386 0.492499 0.207566
248 1 0.345437 0.499043 0.276014
165 1 0.343902 0.576825 0.202423
265 1 0.412032 0.565235 0.26379
364 1 0.441646 0.374502 0.488288
257 1 0.147394 0.574304 0.269487
157 1 0.066735 0.585289 0.197571
162 1 0.153859 0.659951 0.209786
254 1 0.0704274 0.658546 0.271109
261 1 0.293988 0.583363 0.281656
166 1 0.293634 0.652393 0.203353
258 1 0.217789 0.644814 0.27548
275 1 0.287042 0.71208 0.281378
168 1 0.410597 0.641507 0.200175
262 1 0.35416 0.641607 0.28346
288 1 0.15545 0.925152 0.340162
171 1 0.0653564 0.727352 0.204673
271 1 0.146301 0.712966 0.279735
176 1 0.153337 0.777143 0.209651
268 1 0.0708089 0.786632 0.277266
356 1 0.287128 0.219349 0.495927
175 1 0.227425 0.722712 0.204742
180 1 0.284466 0.790882 0.205229
272 1 0.222284 0.777377 0.270522
189 1 0.217841 0.860097 0.214258
279 1 0.419448 0.712863 0.281038
179 1 0.363318 0.723097 0.209509
182 1 0.431373 0.789283 0.220155
276 1 0.35529 0.78206 0.281719
193 1 0.362565 0.855382 0.22347
102 1 0.0119436 0.0698409 0.218226
335 1 0.344689 0.788894 0.43091
285 1 0.139342 0.854103 0.288567
185 1 0.0875792 0.856096 0.213423
101 1 0.0847641 -0.00293763 0.216792
190 1 0.149528 0.929622 0.209822
282 1 0.0772564 0.923782 0.286381
379 1 0.077704 0.708148 0.495111
289 1 0.283731 0.86027 0.281576
194 1 0.284706 0.941718 0.208512
286 1 0.216417 0.929971 0.273752
326 1 0.216916 0.63948 0.434687
332 1 0.145322 0.714756 0.426841
109 1 0.353743 0.0041371 0.224101
209 1 0.43497 -0.00143598 0.282269
269 1 0.0775987 0.720816 0.353256
293 1 0.429604 0.858546 0.279292
196 1 0.433713 0.921555 0.206164
290 1 0.360688 0.93576 0.291895
199 1 0.082542 0.974391 0.361523
297 1 0.139493 0.985869 0.425815
204 1 0.122504 0.0605717 0.365887
296 1 0.0594181 0.0698614 0.437486
304 1 0.140692 0.159281 0.419428
208 1 0.295097 0.0694444 0.359217
298 1 0.212967 0.0845963 0.419579
306 1 0.291002 0.148546 0.414662
61 1 0.143232 0.560345 -0.00437195
207 1 0.362961 -0.00106162 0.357294
280 1 0.430227 0.786575 0.358228
74 1 0.00124628 0.790843 0.066435
210 1 0.425431 0.0808054 0.358306
300 1 0.357657 0.0797974 0.422791
308 1 0.434364 0.143055 0.426513
221 1 0.358876 0.151571 0.349622
771 1 0.498903 0.931138 -0.0173441
362 1 0.36656 0.297111 0.503748
213 1 0.0567938 0.129914 0.366236
218 1 0.14142 0.222891 0.358312
303 1 0.0693671 0.216818 0.419169
227 1 0.0723141 0.295168 0.356466
183 1 0.00267332 0.863648 0.143532
266 1 0.415021 0.633369 0.359873
217 1 0.216452 0.152089 0.346509
222 1 0.290084 0.22 0.351032
305 1 0.219491 0.218666 0.409248
313 1 0.297929 0.284039 0.42404
328 1 0.352652 0.626491 0.430006
71 1 -0.0116003 0.708643 0.00539069
336 1 0.411866 0.719481 0.420766
224 1 0.444477 0.208931 0.358574
307 1 0.36906 0.233534 0.433573
315 1 0.425302 0.301354 0.434037
235 1 0.361995 0.291623 0.35659
277 1 0.356248 0.702728 0.348168
16 1 0.0584875 0.220636 0.00306115
311 1 0.145992 0.309338 0.421926
232 1 0.152314 0.377195 0.353601
310 1 0.0648921 0.367453 0.430709
291 1 0.351457 0.85179 0.347377
130 1 0.00541188 0.358849 0.208903
333 1 0.206013 0.795067 0.434015
231 1 0.219675 0.297453 0.34614
236 1 0.279848 0.366404 0.364382
312 1 0.216542 0.370029 0.425965
320 1 0.291616 0.434581 0.438511
245 1 0.22055 0.43278 0.355056
341 1 0.274161 0.849956 0.406337
274 1 0.139856 0.794525 0.360784
322 1 0.416228 0.431622 0.425288
249 1 0.345826 0.429836 0.358098
238 1 0.433487 0.370872 0.363886
314 1 0.352781 0.353226 0.427423
283 1 0.0726893 0.860182 0.352757
278 1 0.281318 0.776134 0.350737
273 1 0.204788 0.728226 0.358683
327 1 0.286858 0.566231 0.431117
259 1 0.220802 0.575386 0.352862
325 1 0.133903 0.579826 0.424193
318 1 0.136395 0.445406 0.427278
241 1 0.0738759 0.415369 0.346698
255 1 0.0688985 0.590388 0.338055
246 1 0.130991 0.511245 0.361005
317 1 0.0653447 0.504548 0.410725
169 1 0.00692243 0.732763 0.138498
334 1 0.276642 0.714826 0.418492
319 1 0.212102 0.511585 0.42495
250 1 0.280206 0.502835 0.361427
260 1 0.15413 0.641922 0.342811
324 1 0.0795404 0.651478 0.415268
264 1 0.279885 0.646186 0.358508
321 1 0.353825 0.50118 0.420658
263 1 0.356491 0.566518 0.345442
252 1 0.425402 0.500023 0.343804
329 1 0.427437 0.5667 0.430816
331 1 0.0791801 0.793237 0.433341
267 1 -0.00473949 0.73336 0.278819
323 1 0.000795575 0.581484 0.421837
360 1 0.221462 0.282186 0.480833
382 1 0.142078 0.797686 0.501072
1072 1 0.499707 0.853428 0.493164
99 1 0.0192918 0.0110946 0.14178
127 1 -0.00260655 0.280648 0.151929
13 1 0.431765 0.00296576 -0.00271431
58 1 0.066617 0.642761 0.0114355
346 1 0.221219 -0.00392861 0.496956
281 1 -0.0112699 0.855569 0.287555
200 1 0.0157228 0.0431928 0.364612
211 1 -0.00450708 0.151886 0.281468
744 1 0.491907 0.562933 0.0804047
32 1 -0.000235306 0.337933 0.0740147
172 1 0.00791321 0.79965 0.205551
43 1 -0.012996 0.417757 0.00319608
116 1 0.00574596 0.213325 0.213046
369 1 0.358004 0.429642 0.49964
378 1 0.41975 0.637192 0.497479
359 1 0.00717538 0.353542 0.501277
361 1 0.14792 0.363859 0.50606
349 1 0.284113 0.0724565 0.487113
385 1 0.418357 0.77485 0.486826
391 1 0.296905 0.931538 0.497755
10 1 0.358918 0.07821 0.0079012
5 1 0.150325 0.0038352 -0.00148385
358 1 0.0736043 0.285803 0.479097
347 1 0.148276 0.0749942 0.488906
76 1 0.206226 0.791647 0.00917665
365 1 0.0795434 0.429279 0.501455
1 1 -0.00280969 -0.00381134 0.00196062
354 1 0.139394 0.225917 0.508895
350 1 0.428369 0.0737883 0.507923
348 1 0.361723 -0.0119872 0.485071
384 1 0.27081 0.777152 0.510417
47 1 0.137792 0.417804 0.00525545
743 1 0.494052 0.636781 -0.000361213
89 1 0.141832 0.864143 0.00532245
757 1 0.4908 0.788728 -0.00234079
1065 1 0.504253 0.711414 0.501532
376 1 0.352969 0.570473 0.505912
55 1 0.426843 0.420133 -0.0159791
394 1 0.0916922 0.0769696 0.559408
400 1 0.154901 0.0781971 0.629612
411 1 0.15002 0.143707 0.555356
388 1 0.220214 0.861012 0.493067
1177 1 0.490252 0.0711406 0.709907
1248 1 0.483711 0.717137 0.783025
589 1 -0.00101492 -0.00345843 0.842507
1317 1 0.493971 0.498571 0.838766
617 1 -0.00112825 0.284936 0.854304
398 1 0.222042 0.0827678 0.553575
404 1 0.284291 0.0671202 0.623498
415 1 0.293777 0.146607 0.55162
1058 1 0.495968 0.578812 0.500549
402 1 0.352769 0.0678933 0.54874
406 1 0.433493 0.0764567 0.617188
419 1 0.442744 0.151432 0.565513
564 1 0.00204604 0.79183 0.781677
601 1 0.433213 0.0256947 0.842328
409 1 0.0756613 0.144281 0.642807
408 1 0.0768242 0.212106 0.572803
414 1 0.146434 0.203596 0.641622
425 1 0.15308 0.28545 0.574778
413 1 0.228297 0.143518 0.623208
412 1 0.220493 0.214032 0.559141
418 1 0.294786 0.213575 0.634522
427 1 0.219603 0.274335 0.641036
522 1 0.00692466 0.339988 0.78078
396 1 -0.000569281 0.0632973 0.644686
417 1 0.374248 0.156291 0.633739
416 1 0.366624 0.217942 0.562806
420 1 0.432152 0.228167 0.632714
433 1 0.421139 0.300625 0.573239
431 1 0.348247 0.287402 0.646583
662 1 -0.00758087 0.787115 0.924411
575 1 -0.0184746 0.859756 0.708574
423 1 0.0799921 0.276972 0.641106
422 1 0.0791892 0.352725 0.563846
428 1 0.153884 0.34953 0.63819
1205 1 0.499741 0.359176 0.714091
1345 1 0.493059 0.780287 0.853561
90 1 0.207525 0.930491 1.00772
429 1 0.29225 0.285797 0.575189
426 1 0.227137 0.349766 0.560286
432 1 0.275721 0.358169 0.63948
430 1 0.328854 0.369441 0.561068
434 1 0.408189 0.362188 0.647889
447 1 0.431545 0.422931 0.567312
75 1 0.13116 0.707337 1.00794
437 1 0.0767645 0.430877 0.64294
439 1 0.139278 0.426133 0.57954
436 1 0.0780718 0.503491 0.566136
442 1 0.136247 0.510674 0.640172
451 1 0.0682231 0.577021 0.650736
1164 1 0.495814 0.858969 0.639612
438 1 0.00740225 0.501034 0.633286
441 1 0.194742 0.433712 0.646194
443 1 0.26446 0.437336 0.565262
440 1 0.197601 0.500487 0.579895
446 1 0.266184 0.495253 0.636416
455 1 0.203232 0.57886 0.636513
445 1 0.342348 0.433763 0.623854
444 1 0.362716 0.507582 0.575111
448 1 0.426322 0.498392 0.637972
461 1 0.424482 0.579691 0.569559
48 1 0.198631 0.488848 1.02417
344 1 0.0883454 -0.00472271 0.498762
603 1 0.00464622 0.131117 0.856928
453 1 0.12836 0.5763 0.57121
450 1 0.0715809 0.652119 0.580488
456 1 0.137606 0.643664 0.651216
465 1 0.0695188 0.720388 0.653637
467 1 0.131627 0.711516 0.572107
1359 1 0.490983 0.942461 0.850006
686 1 0.428077 0.94775 0.920885
457 1 0.274197 0.580848 0.569165
454 1 0.207459 0.662406 0.57555
460 1 0.282305 0.63952 0.637964
471 1 0.283777 0.71896 0.570755
1261 1 0.499561 0.933913 0.72957
459 1 0.351096 0.570098 0.642791
458 1 0.352522 0.641014 0.571001
462 1 0.420483 0.647382 0.648357
473 1 0.341969 0.711905 0.630374
389 1 0.15193 0.928281 0.506755
505 1 0.00262551 0.137181 0.711141
682 1 0.334207 0.934838 0.843562
367 1 0.21757 0.430809 0.491209
464 1 0.0699453 0.781243 0.582646
470 1 0.136648 0.788356 0.64335
481 1 0.135852 0.852107 0.574727
479 1 0.0725425 0.862985 0.648108
480 1 -0.0044919 0.940674 0.648154
1150 1 0.48695 0.71423 0.642364
469 1 0.210255 0.714082 0.663639
468 1 0.205672 0.780689 0.576532
485 1 0.286646 0.84645 0.572868
483 1 0.220142 0.851625 0.637915
474 1 0.276168 0.782426 0.660009
424 1 0.0167118 0.362191 0.653777
83 1 0.418177 0.711308 0.991383
475 1 0.427383 0.710735 0.562041
472 1 0.356516 0.782911 0.553933
476 1 0.426732 0.795203 0.647392
487 1 0.3468 0.845528 0.650623
489 1 0.436669 0.865944 0.569203
491 1 0.00445424 1.00878 0.724354
372 1 0.0727585 0.574004 0.497653
648 1 -0.00838106 0.629605 0.943753
397 1 0.14375 -0.00735956 0.574473
395 1 0.0712161 0.0104355 0.63523
478 1 0.0653324 0.932042 0.561568
484 1 0.13756 0.931993 0.635534
1331 1 0.495664 0.648693 0.853756
401 1 0.293868 0.99968 0.550041
399 1 0.218509 -0.00186913 0.619996
482 1 0.219063 0.92579 0.565377
488 1 0.286608 0.921955 0.629371
403 1 0.367096 0.0116141 0.632425
69 1 0.419908 0.564652 0.995837
679 1 0.20756 0.860886 0.938584
405 1 0.426327 -0.0105276 0.563077
486 1 0.361629 0.917492 0.57469
490 1 0.417468 0.927897 0.64458
684 1 0.282879 0.932877 0.926235
1332 1 0.51225 0.561178 0.928039
595 1 0.213932 1.00523 0.931613
492 1 0.0797645 0.0713532 0.706066
498 1 0.139779 0.0718816 0.786452
493 1 0.0777224 1.00785 0.774563
495 1 0.142861 -0.00808788 0.702818
1262 1 0.489833 0.855705 0.797121
496 1 0.213766 0.0646181 0.693867
502 1 0.294471 0.0809006 0.766899
500 1 0.364521 0.0784613 0.705601
504 1 0.436556 0.0871609 0.776506
517 1 0.4319 0.156224 0.700032
501 1 0.362182 0.0206814 0.790811
515 1 0.358823 0.151436 0.779554
27 1 0.431705 0.148218 1.01095
507 1 0.0806572 0.149339 0.7807
509 1 0.146223 0.147791 0.713834
506 1 0.0711087 0.217821 0.710705
512 1 0.142565 0.216505 0.786072
523 1 0.154936 0.272513 0.70649
511 1 0.224474 0.134822 0.783524
513 1 0.284201 0.14207 0.70644
510 1 0.22064 0.20312 0.704768
516 1 0.288124 0.213051 0.785636
527 1 0.279905 0.287326 0.722054
514 1 0.35173 0.219956 0.718051
518 1 0.412052 0.21541 0.775562
529 1 0.348901 0.284301 0.785756
678 1 0.214406 0.924026 0.855174
521 1 0.0707221 0.278562 0.799553
520 1 0.0904887 0.343944 0.71064
526 1 0.149238 0.352465 0.789413
1346 1 0.494549 0.714068 0.930869
537 1 0.134563 0.429609 0.723062
535 1 0.0553317 0.423935 0.783948
1318 1 0.511859 0.426861 0.917742
525 1 0.209052 0.285507 0.783959
524 1 0.22131 0.360459 0.709976
530 1 0.294195 0.365201 0.783925
374 1 0.215941 0.567191 0.503033
531 1 0.431981 0.293445 0.714687
528 1 0.348339 0.354399 0.716616
532 1 0.41488 0.348014 0.783685
1233 1 0.487664 0.646529 0.713088
1289 1 0.514171 0.216434 0.853085
665 1 0.197842 0.719614 0.939444
534 1 0.0757656 0.503767 0.730171
540 1 0.142565 0.496796 0.790392
549 1 0.0578311 0.57959 0.786126
539 1 0.21119 0.42847 0.776729
541 1 0.285626 0.424491 0.708021
538 1 0.206647 0.500922 0.707857
544 1 0.276459 0.494531 0.773384
555 1 0.276921 0.560348 0.70153
553 1 0.19881 0.569893 0.784492
543 1 0.359226 0.438716 0.780521
545 1 0.419115 0.41702 0.709859
542 1 0.357996 0.500138 0.707995
546 1 0.428876 0.499377 0.781978
677 1 0.138681 0.856976 0.858851
661 1 0.0493157 0.708935 0.941095
551 1 0.130683 0.583371 0.72216
548 1 0.063442 0.64277 0.722277
554 1 0.126928 0.655487 0.794752
565 1 0.136158 0.705908 0.721093
552 1 0.208731 0.638047 0.719639
558 1 0.283114 0.619097 0.785711
569 1 0.278703 0.712788 0.722297
557 1 0.348347 0.556061 0.78607
559 1 0.424802 0.561399 0.715803
556 1 0.342875 0.635871 0.713771
560 1 0.414558 0.639651 0.784543
573 1 0.420736 0.714524 0.710719
571 1 0.35181 0.711783 0.790194
663 1 0.118138 0.718899 0.863459
1206 1 0.508228 0.286368 0.789731
563 1 0.0614423 0.714746 0.786946
562 1 0.0693196 0.795227 0.71549
568 1 0.129641 0.77912 0.793576
577 1 0.0739031 0.860886 0.779614
680 1 0.137281 0.920781 0.928244
674 1 0.0703973 0.934083 0.855162
567 1 0.214483 0.706214 0.797389
566 1 0.216383 0.78192 0.732728
572 1 0.288005 0.782882 0.798606
583 1 0.266834 0.864197 0.712013
550 1 -0.00280439 0.649678 0.796426
666 1 0.134818 0.783361 0.93281
570 1 0.348152 0.781625 0.716993
574 1 0.41048 0.773839 0.786766
585 1 0.338732 0.856444 0.775558
644 1 0.432299 0.505445 0.917377
579 1 0.140523 0.86691 0.721673
576 1 0.0692917 0.928541 0.713746
582 1 0.135139 0.939053 0.797118
497 1 0.217586 0.00315068 0.776332
581 1 0.207824 0.858777 0.783946
499 1 0.295653 0.991079 0.68988
580 1 0.203975 0.929885 0.700001
586 1 0.283589 0.94298 0.761964
503 1 0.417828 0.00273226 0.711069
587 1 0.42665 0.852402 0.715157
584 1 0.357772 0.927139 0.717478
588 1 0.411702 0.932661 0.791143
591 1 0.0706434 1.00262 0.918208
590 1 0.0732009 0.0669802 0.848062
596 1 0.134412 0.0733931 0.932037
605 1 0.0693556 0.138908 0.926156
607 1 0.140386 0.140902 0.848066
593 1 0.152375 0.0108108 0.858648
675 1 0.0679357 0.866018 0.9388
643 1 0.423512 0.434978 0.846075
597 1 0.280133 0.00376021 0.85337
594 1 0.2184 0.082793 0.852478
600 1 0.286879 0.0843205 0.927919
611 1 0.286643 0.164477 0.862425
669 1 0.348924 0.712935 0.93015
672 1 0.429237 0.7867 0.928971
660 1 0.067309 0.792995 0.861975
599 1 0.355711 0.0113092 0.937361
598 1 0.344323 0.0962041 0.858006
602 1 0.422224 0.0801268 0.934741
613 1 0.369885 0.151787 0.931247
646 1 0.0610233 0.642382 0.867123
640 1 0.350167 0.503045 0.853977
604 1 0.0776993 0.205058 0.858296
610 1 0.136824 0.209774 0.926058
621 1 0.14629 0.273186 0.858335
685 1 0.402739 0.860218 0.849131
657 1 0.425931 0.578634 0.856834
609 1 0.20127 0.137479 0.923429
608 1 0.206883 0.210465 0.861242
614 1 0.291637 0.209976 0.939581
671 1 0.415375 0.712481 0.85874
683 1 0.357439 0.871933 0.931564
615 1 0.425992 0.146106 0.854137
612 1 0.358615 0.214725 0.855836
616 1 0.434344 0.20791 0.934374
627 1 0.361937 0.281629 0.923831
652 1 0.134716 0.642954 0.917594
659 1 0.00243061 0.712443 0.862743
667 1 0.266021 0.719224 0.8641
619 1 0.0695582 0.275861 0.924161
618 1 0.060421 0.352436 0.850362
624 1 0.130186 0.351687 0.921047
633 1 0.0674032 0.412299 0.93935
655 1 0.36014 0.558068 0.920986
623 1 0.207569 0.277044 0.928682
625 1 0.286725 0.270545 0.861101
622 1 0.219932 0.352173 0.852683
628 1 0.274641 0.354132 0.925728
637 1 0.208636 0.41825 0.926797
654 1 0.343343 0.635781 0.863269
670 1 0.271092 0.786875 0.933566
629 1 0.425919 0.284543 0.851076
626 1 0.35004 0.353029 0.860947
630 1 0.431919 0.363319 0.912225
641 1 0.359606 0.433994 0.916139
658 1 0.408872 0.641109 0.921957
656 1 0.268191 0.631564 0.929102
635 1 0.132688 0.418459 0.859172
632 1 0.0657618 0.482842 0.872122
638 1 0.1443 0.490501 0.927412
649 1 0.128915 0.570146 0.847259
647 1 0.0730311 0.56998 0.937653
650 1 0.218238 0.624929 0.849366
668 1 0.35462 0.786848 0.861894
681 1 0.28281 0.850672 0.8606
639 1 0.278836 0.429248 0.845916
653 1 0.276132 0.553279 0.853443
636 1 0.21187 0.486525 0.855035
642 1 0.266356 0.485015 0.930748
651 1 0.19119 0.560823 0.909412
664 1 0.200938 0.78896 0.867135
1135 1 0.493875 0.638951 0.572542
1163 1 0.498096 0.929438 0.57231
1149 1 0.484988 0.784475 0.569047
390 1 0.352905 0.85604 0.500113
79 1 0.279208 0.70576 0.995055
368 1 0.144586 0.509695 0.494502
477 1 -0.000358845 0.860119 0.590305
370 1 0.282549 0.504336 0.504471
466 1 -0.0176016 0.784728 0.650401
97 1 0.426842 0.861453 1.00455
1234 1 0.495471 0.576351 0.777796
1247 1 0.498285 0.778266 0.702856
23 1 0.288369 0.136147 1.00878
377 1 0.273298 0.653533 0.495297
578 1 0.00112507 0.926194 0.776004
1360 1 0.480551 0.86348 0.926453
93 1 0.27887 0.870617 0.995787
38 1 0.359433 0.355188 0.986615
392 1 0.429805 0.91867 0.489578
80 1 0.346959 0.788141 0.98765
52 1 0.361906 0.490045 0.996776
30 1 0.074155 0.34836 0.998333
66 1 0.342584 0.623345 0.991179
352 1 0.00710726 0.210677 0.515493
19 1 0.149013 0.15062 0.999473
729 1 0.500451 0.49899 0.997111
687 1 0.50643 0.0836047 1.00345
6 1 0.220435 0.0727407 1.00373
353 1 0.211632 0.146443 0.478913
386 1 0.0637539 0.85165 0.510754
387 1 -0.0125488 0.921545 0.510522
345 1 0.00915022 0.0688148 0.528613
381 1 0.201408 0.713847 0.494799
62 1 0.199688 0.636711 0.995709
351 1 0.0783512 0.14201 0.493178
355 1 0.369765 0.144784 0.489545
34 1 0.206101 0.347585 0.993334
65 1 0.27498 0.562507 0.987621
86 1 0.0792312 0.941966 1.00839
371 1 0.430557 0.498546 0.511071
692 1 0.572601 0.0695693 0.0689008
788 1 0.646839 0.0731593 0.160736
694 1 0.785093 0.0845835 0.0240679
787 1 0.570771 1.00407 0.139952
691 1 0.644279 1.00014 0.0659016
141 1 0.988426 0.415288 0.134073
696 1 0.711611 0.0705181 0.0787042
792 1 0.78986 0.0666558 0.14032
791 1 0.719167 0.999991 0.1377
800 1 0.500298 0.145236 0.224465
302 1 1.00092 0.150744 0.434232
700 1 0.86276 0.0844069 0.0730532
796 1 0.941472 0.0704515 0.140377
713 1 0.925599 0.162323 0.0898258
705 1 0.640636 0.133018 0.075176
801 1 0.580894 0.139817 0.157619
706 1 0.600585 0.208194 0.0837261
802 1 0.646903 0.214566 0.1618
979 1 0.934464 0.848114 0.365141
986 1 0.865874 0.993493 0.438437
709 1 0.781701 0.147295 0.0942488
805 1 0.705078 0.147856 0.140684
710 1 0.701012 0.219057 0.0744811
806 1 0.7711 0.219173 0.152767
723 1 0.769272 0.281578 0.0831699
730 1 0.487211 0.432989 0.0646623
809 1 0.855109 0.15217 0.157797
714 1 0.843008 0.215906 0.0881042
810 1 0.927682 0.226514 0.151275
823 1 0.861217 0.293449 0.157105
15 1 0.999874 0.153057 0.00663463
895 1 0.932078 0.995829 0.347186
716 1 0.496758 0.267477 0.0674089
745 1 0.562191 0.572368 0.00586621
719 1 0.636405 0.291718 0.0749034
815 1 0.571038 0.278134 0.153271
720 1 0.553339 0.353152 0.069622
816 1 0.637216 0.348395 0.150609
1029 1 0.92684 0.914864 0.438569
1016 1 0.506033 0.773912 0.432292
819 1 0.715112 0.290898 0.162033
724 1 0.703784 0.354026 0.0859441
820 1 0.785704 0.353186 0.151813
737 1 0.780698 0.416898 0.0928159
739 1 0.854096 0.426765 -0.00312621
727 1 0.91656 0.272329 0.0701981
728 1 0.860178 0.352071 0.0776752
824 1 0.926569 0.351669 0.14718
702 1 0.507607 0.138654 0.0782618
911 1 0.515706 0.362946 0.296999
980 1 0.867928 0.932189 0.365863
225 1 1.00803 0.293061 0.282356
733 1 0.631805 0.41196 0.0766095
829 1 0.553468 0.427751 0.137322
734 1 0.57228 0.49535 0.075824
830 1 0.644441 0.498846 0.143456
843 1 0.566813 0.579445 0.132182
833 1 0.699902 0.422535 0.15559
738 1 0.699564 0.487148 0.0721602
834 1 0.785526 0.499485 0.151201
847 1 0.71556 0.552841 0.151694
751 1 0.776461 0.571852 0.0910484
837 1 0.860664 0.424362 0.161505
741 1 0.924153 0.417491 0.0701084
742 1 0.854921 0.480737 0.0829346
838 1 0.923035 0.492871 0.144525
755 1 0.928085 0.565693 0.0785955
316 1 0.997434 0.430569 0.43178
1028 1 0.858417 0.84287 0.438522
735 1 0.739216 0.436736 0.00446136
747 1 0.650215 0.570192 0.0789105
748 1 0.566082 0.651439 0.0675554
844 1 0.62901 0.635882 0.155064
786 1 0.500201 -0.00455842 0.218799
785 1 0.499337 0.0705478 0.151237
752 1 0.701546 0.648712 0.0782083
848 1 0.775127 0.639944 0.148515
861 1 0.713724 0.724428 0.141064
1048 1 0.707942 0.36321 0.505251
926 1 0.497397 0.431173 0.364289
897 1 0.511711 0.218983 0.296068
851 1 0.854742 0.56094 0.139685
756 1 0.841485 0.640057 0.0693875
852 1 0.920269 0.636834 0.132479
865 1 0.84857 0.72637 0.136302
857 1 0.563883 0.711504 0.142905
761 1 0.639703 0.714948 0.0962166
762 1 0.580156 0.77996 0.0660898
858 1 0.640246 0.79888 0.135268
1026 1 0.713254 0.839901 0.436974
309 1 1.00014 0.28424 0.418639
18 1 0.999631 0.21261 0.0757971
765 1 0.785736 0.714718 0.0706453
766 1 0.724982 0.789336 0.0661333
862 1 0.786409 0.791631 0.145068
1039 1 0.572439 0.219974 0.502056
769 1 0.930189 0.710935 0.0819989
770 1 0.859329 0.78971 0.0660331
866 1 0.936016 0.791122 0.138375
708 1 0.777058 0.215311 0.0153663
775 1 0.654982 0.847323 0.0443748
871 1 0.571598 0.849027 0.130159
776 1 0.559967 0.922481 0.0699806
872 1 0.635824 0.927588 0.124425
228 1 0.992346 0.360117 0.366803
967 1 0.497803 0.930234 0.286061
695 1 0.794058 0.000817658 0.0618723
779 1 0.794728 0.854959 0.0729876
875 1 0.713622 0.866364 0.136457
780 1 0.713355 0.934182 0.0608611
876 1 0.79397 0.925157 0.131067
690 1 0.644217 0.0731879 -0.00180407
795 1 0.866103 1.01409 0.141121
879 1 0.856285 0.848929 0.141579
699 1 0.93822 0.00179489 0.0757514
783 1 0.92959 0.8472 0.0673566
784 1 0.875948 0.921703 0.0812803
880 1 0.950884 0.938684 0.145562
242 1 1.00827 0.498175 0.343364
790 1 0.570446 0.0737026 0.220376
886 1 0.65309 0.0734999 0.285384
803 1 0.650351 0.147565 0.232595
789 1 0.653848 0.996489 0.202912
794 1 0.719357 0.0809054 0.207501
890 1 0.783109 0.0574125 0.285024
807 1 0.788826 0.138142 0.216392
889 1 0.705961 1.00107 0.286486
903 1 0.72245 0.142223 0.294069
793 1 0.798139 0.975771 0.208486
798 1 0.85206 0.0529977 0.229661
894 1 0.945267 0.0699709 0.284062
907 1 0.859889 0.135145 0.284267
893 1 0.852246 0.978909 0.292483
797 1 0.942387 1.00075 0.212188
899 1 0.567137 0.135588 0.281258
804 1 0.578551 0.209635 0.223804
900 1 0.645897 0.213904 0.303685
984 1 0.716132 -0.00407242 0.431243
808 1 0.7194 0.217649 0.233384
904 1 0.792455 0.21087 0.294322
917 1 0.710134 0.2964 0.294872
821 1 0.777342 0.297301 0.22924
1027 1 0.796805 0.937419 0.442134
811 1 0.93324 0.146431 0.21851
812 1 0.847166 0.220174 0.21516
908 1 0.928925 0.216798 0.287636
825 1 0.938137 0.293065 0.221251
921 1 0.864886 0.29271 0.292403
898 1 0.508728 0.127917 0.364159
817 1 0.6339 0.281078 0.222844
913 1 0.581703 0.289794 0.290763
818 1 0.578547 0.357269 0.231438
914 1 0.650549 0.368735 0.29323
144 1 0.99736 0.500361 0.201046
822 1 0.701405 0.359763 0.218707
918 1 0.787615 0.361265 0.298195
976 1 0.701811 0.920184 0.357956
826 1 0.852243 0.352967 0.223692
922 1 0.929129 0.36928 0.287897
831 1 0.628765 0.436273 0.215825
927 1 0.578581 0.436142 0.303162
832 1 0.569954 0.50795 0.206562
928 1 0.648623 0.4915 0.284753
845 1 0.635253 0.57658 0.215896
941 1 0.565238 0.560403 0.278555
975 1 0.783084 0.874275 0.369825
835 1 0.776391 0.419227 0.222829
931 1 0.717008 0.425579 0.294825
836 1 0.718892 0.499012 0.221271
932 1 0.783414 0.499426 0.294004
945 1 0.706763 0.578847 0.277612
839 1 0.934394 0.421235 0.207876
935 1 0.862119 0.437285 0.282302
840 1 0.851342 0.508068 0.21555
936 1 0.942187 0.498238 0.274389
88 1 1.00313 0.927278 0.069059
846 1 0.554174 0.642969 0.210028
942 1 0.637991 0.652328 0.295738
955 1 0.571638 0.716992 0.2906
859 1 0.627768 0.710917 0.211579
954 1 0.49613 0.712993 0.355359
849 1 0.781732 0.568899 0.218701
850 1 0.709463 0.645291 0.211918
946 1 0.787147 0.652315 0.267862
767 1 0.870804 0.707361 0.0108485
949 1 0.857554 0.571899 0.287512
853 1 0.917595 0.574547 0.212632
854 1 0.856202 0.637339 0.203187
950 1 0.925156 0.657872 0.269717
1024 1 0.564423 0.86254 0.418053
860 1 0.56712 0.792652 0.207147
956 1 0.651468 0.773545 0.286927
873 1 0.645726 0.860835 0.202503
863 1 0.781249 0.726222 0.20533
959 1 0.71061 0.711427 0.271945
864 1 0.722336 0.796388 0.208963
960 1 0.789771 0.796111 0.283629
963 1 0.857714 0.714081 0.278842
867 1 0.927117 0.713485 0.188735
868 1 0.867241 0.786836 0.211522
964 1 0.925343 0.786246 0.276124
885 1 0.582651 1.00771 0.280862
969 1 0.583941 0.855634 0.279922
874 1 0.573916 0.935405 0.219586
970 1 0.647589 0.923967 0.279229
877 1 0.79082 0.872324 0.211728
973 1 0.708678 0.851849 0.282053
878 1 0.719135 0.929523 0.214631
974 1 0.774052 0.927126 0.284986
881 1 0.932122 0.862693 0.201043
977 1 0.856619 0.852958 0.302507