ITEM: TIMESTEP
2250
ITEM: NUMBER OF ATOMS
864
ITEM: BOX BOUNDS pp pp pp
0.0000000000000000e+00 3.1559999999999999e+01
0.0000000000000000e+00 3.1559999999999999e+01
0.0000000000000000e+00 3.1559999999999999e+01
ITEM: ATOMS id type xs ys zs
74 1 0.0939818 0.078764 0.171239
669 1 0.829225 0.487504 0.495761
8 1 0.179032 0.0959593 0.0895788
12 1 0.327787 0.0915777 0.0814336
17 1 0.670905 0.0123218 0.010042
155 1 0.435025 0.00648854 0.425205
147 1 0.0859529 0.000837838 0.420501
35 1 0.422657 0.162699 0.0844231
595 1 0.738704 0.491361 0.422875
513 1 0.337507 0.477538 0.165057
91 1 0.751749 0.00466767 0.239917
16 1 0.489814 0.0718675 0.0935629
515 1 0.417767 0.488681 0.241778
517 1 0.510126 0.487344 0.156885
86 1 0.592992 0.0882228 0.177208
216 1 0.830678 0.416665 0.394888
20 1 0.666212 0.0864982 0.0958607
90 1 0.751544 0.0822025 0.170051
24 1 0.83486 0.0781485 0.090683
4 1 0.0019362 0.0843255 0.0460717
94 1 0.916877 0.0853647 0.159851
27 1 0.0896601 0.159698 0.0753426
32 1 0.179692 0.256567 0.0839077
51 1 0.0938307 0.34608 0.0938363
98 1 0.10134 0.249355 0.149314
31 1 0.255168 0.17084 0.0765916
102 1 0.253663 0.255956 0.166825
55 1 0.252579 0.341233 0.0765985
5 1 0.167148 0.00146466 0.0011211
36 1 0.32968 0.267013 0.0853949
40 1 0.498507 0.245526 0.0838936
106 1 0.410097 0.257908 0.179275
527 1 0.903204 0.486079 0.25601
39 1 0.582636 0.170665 0.0789535
110 1 0.591949 0.245459 0.152542
579 1 0.0802586 0.488195 0.425906
44 1 0.672131 0.246371 0.0780051
43 1 0.756027 0.158829 0.0881184
73 1 0.00240047 0.00626964 0.159451
114 1 0.759214 0.243787 0.176401
81 1 0.336682 0.0185588 0.16008
79 1 0.253668 0.0127726 0.24929
28 1 0.0121261 0.24108 0.0791983
47 1 0.916703 0.164557 0.0851189
48 1 0.820768 0.233937 0.0666986
71 1 0.918728 0.336462 0.0803761
254 1 0.581917 0.259288 0.497909
161 1 0.672297 0.00369288 0.324446
122 1 0.0743683 0.424077 0.163908
196 1 0.996203 0.402629 0.410725
125 1 0.178384 0.339863 0.157387
13 1 0.498929 0.00418408 0.0146631
129 1 0.328235 0.346104 0.158365
56 1 0.166826 0.424733 0.0876881
126 1 0.233217 0.42377 0.175259
70 1 0.911864 0.437414 0.00777554
7 1 0.253443 0.012354 0.0773538
649 1 0.995541 0.49463 0.49482
59 1 0.417838 0.328804 0.0800527
60 1 0.34103 0.413665 0.0772159
130 1 0.427048 0.406427 0.161297
50 1 0.0746624 0.437656 0.00616195
447 1 0.592245 0.499086 0.0647851
63 1 0.591535 0.327033 0.0869511
64 1 0.499202 0.407534 0.0807888
134 1 0.590705 0.419442 0.159904
165 1 0.821886 0.00979186 0.327618
585 1 0.330044 0.497027 0.343365
587 1 0.432327 0.484904 0.420033
68 1 0.661423 0.413067 0.0724978
67 1 0.742339 0.342436 0.0677086
137 1 0.681383 0.325292 0.156255
138 1 0.752032 0.419047 0.154422
52 1 0.997166 0.421306 0.0788726
72 1 0.823553 0.413283 0.0794281
210 1 0.749825 0.406095 0.327453
80 1 0.167931 0.087082 0.258963
97 1 0.00487897 0.169932 0.163912
99 1 0.0868891 0.166392 0.24705
211 1 0.748144 0.342495 0.406113
14 1 0.575308 0.0809865 0.0118297
286 1 0.91076 0.415491 0.491389
78 1 0.262375 0.0946346 0.170354
84 1 0.332257 0.0879554 0.259426
150 1 0.265291 0.0791194 0.357519
82 1 0.412464 0.0963684 0.172271
285 1 0.823903 0.343784 0.48919
521 1 0.663336 0.496396 0.152266
154 1 0.418305 0.109332 0.337219
242 1 0.0827483 0.238693 0.497791
88 1 0.494349 0.0901982 0.255965
92 1 0.681044 0.0826235 0.252163
158 1 0.577732 0.0838258 0.325585
185 1 0.671569 0.173655 0.310766
189 1 0.819168 0.191827 0.335288
162 1 0.75176 0.0862869 0.3434
76 1 0.999783 0.0926029 0.260069
96 1 0.842831 0.0865641 0.24982
119 1 0.929014 0.170972 0.241418
169 1 0.013475 0.179648 0.341033
100 1 0.0198484 0.245584 0.250799
104 1 0.162731 0.253232 0.241133
123 1 0.0851325 0.336548 0.250388
170 1 0.0940752 0.241182 0.340517
101 1 0.178046 0.166008 0.160354
105 1 0.337374 0.181046 0.155189
103 1 0.252948 0.174533 0.247047
108 1 0.336013 0.261839 0.262639
173 1 0.17651 0.1699 0.339277
174 1 0.253126 0.260068 0.335899
109 1 0.496698 0.177814 0.167749
107 1 0.404958 0.171186 0.245379
131 1 0.419399 0.335808 0.2541
177 1 0.323928 0.167445 0.334041
178 1 0.414417 0.239077 0.33001
181 1 0.503473 0.168927 0.325802
112 1 0.500636 0.259051 0.249888
111 1 0.58602 0.169806 0.24288
182 1 0.586124 0.249039 0.323363
209 1 0.657474 0.337792 0.329471
116 1 0.664756 0.249559 0.22905
113 1 0.674083 0.168124 0.156128
115 1 0.758246 0.151631 0.252899
117 1 0.836801 0.174193 0.157439
120 1 0.836821 0.241208 0.25234
118 1 0.913376 0.252805 0.154095
121 1 0.0112216 0.326333 0.167832
193 1 0.00892336 0.323081 0.344006
188 1 0.664597 0.258453 0.41948
208 1 0.502623 0.401321 0.423403
157 1 0.506215 0.00590669 0.323927
128 1 0.159267 0.426138 0.250993
186 1 0.738654 0.263287 0.319097
127 1 0.243872 0.330009 0.248533
132 1 0.328236 0.415412 0.252364
133 1 0.495925 0.308734 0.160004
212 1 0.664262 0.422758 0.422201
203 1 0.424176 0.333894 0.424512
136 1 0.499037 0.415338 0.256132
202 1 0.424774 0.412972 0.336942
201 1 0.335725 0.345862 0.335827
204 1 0.334882 0.423875 0.425902
205 1 0.508921 0.326703 0.335559
206 1 0.577822 0.413613 0.3426
135 1 0.578595 0.342201 0.248653
519 1 0.596806 0.486248 0.234474
140 1 0.667754 0.404443 0.253808
139 1 0.743314 0.332653 0.245582
144 1 0.840533 0.394203 0.239638
142 1 0.909882 0.421658 0.158155
143 1 0.931177 0.310219 0.245114
214 1 0.920532 0.392207 0.330377
124 1 0.00207658 0.410691 0.254629
141 1 0.826853 0.314489 0.161354
163 1 0.758479 0.00402285 0.412435
146 1 0.088469 0.078755 0.34319
198 1 0.24905 0.40665 0.333146
171 1 0.0865299 0.156168 0.418936
194 1 0.0854324 0.420645 0.34183
213 1 0.842396 0.322235 0.331038
191 1 0.91808 0.165738 0.41102
152 1 0.170334 0.0783963 0.415391
184 1 0.513192 0.238855 0.404179
156 1 0.350455 0.0837544 0.417105
160 1 0.506216 0.085171 0.408819
164 1 0.6662 0.0630062 0.405833
200 1 0.170851 0.398089 0.423516
207 1 0.582997 0.33361 0.416205
187 1 0.738561 0.171592 0.409932
168 1 0.832 0.0885903 0.415084
85 1 0.501707 0.00349117 0.171216
192 1 0.833437 0.260264 0.429102
197 1 0.164965 0.335846 0.332139
190 1 0.914179 0.240163 0.338525
148 1 0.995822 0.0804801 0.411819
166 1 0.916576 0.0854063 0.329374
183 1 0.596808 0.151809 0.404669
215 1 0.911587 0.328694 0.424812
172 1 0.998417 0.250173 0.424421
195 1 0.083562 0.332238 0.417037
175 1 0.243781 0.175405 0.415969
176 1 0.165442 0.247766 0.418417
199 1 0.25546 0.321948 0.419898
257 1 0.656567 0.168743 0.496542
180 1 0.339884 0.248777 0.425489
179 1 0.418427 0.182003 0.418707
75 1 0.0768064 0.00702111 0.264402
49 1 0.994101 0.329794 0.00204275
523 1 0.745863 0.498525 0.248428
22 1 0.904563 0.0921513 0.00765013
53 1 0.164223 0.335253 0.00607405
95 1 0.922606 0.00595465 0.246425
230 1 0.584438 0.0854695 0.491251
253 1 0.513209 0.1661 0.488663
589 1 0.496189 0.489889 0.332855
507 1 0.0724575 0.497304 0.247583
145 1 0.000700212 0.00282962 0.334527
3 1 0.0980293 0.00648608 0.0905826
9 1 0.348088 0.016739 0.00437156
218 1 0.0860397 0.0709912 0.497982
217 1 0.995852 0.00205072 0.491393
54 1 0.260093 0.413598 0.00201441
222 1 0.254719 0.0773613 0.496984
62 1 0.576669 0.410639 0.000363817
30 1 0.258311 0.251297 0.00183059
6 1 0.258516 0.0965251 0.00191219
445 1 0.503682 0.491845 0.0088734
10 1 0.424603 0.0921307 0.00615334
226 1 0.437629 0.0907835 0.494496
665 1 0.654397 0.49203 0.499087
273 1 0.331939 0.3446 0.499386
21 1 0.838564 0.0062955 0.00958971
266 1 0.0878235 0.40605 0.496851
18 1 0.760373 0.0679581 0.0148319
261 1 0.842646 0.154951 0.497072
281 1 0.676097 0.334727 0.494281
46 1 0.926259 0.242036 0.0186604
34 1 0.415996 0.251944 0.00279835
38 1 0.585107 0.267105 0.00357346
45 1 0.821634 0.154728 0.00109404
270 1 0.246588 0.416542 0.497956
224 1 0.167637 0.0888277 0.592746
313 1 0.993837 0.165403 0.667838
220 1 0.996095 0.0761651 0.57567
737 1 0.666845 0.489791 0.69148
294 1 0.266574 0.0734025 0.658869
262 1 0.922178 0.24009 0.512642
367 1 0.249259 0.00265955 0.936276
228 1 0.341322 0.0783302 0.581603
325 1 0.492165 0.156756 0.681597
430 1 0.923339 0.430101 0.830531
57 1 0.356404 0.340465 0.986826
227 1 0.427711 0.000113238 0.576835
739 1 0.755482 0.495383 0.762881
232 1 0.493877 0.0869818 0.594283
255 1 0.582527 0.157129 0.57816
236 1 0.668691 0.0784342 0.581244
306 1 0.754292 0.0407676 0.655367
431 1 0.92184 0.331109 0.925691
259 1 0.728219 0.164063 0.579354
240 1 0.827386 0.0754697 0.572121
263 1 0.923796 0.158377 0.587254
651 1 0.0785577 0.491127 0.580787
243 1 0.0758165 0.165301 0.587091
267 1 0.0825599 0.323003 0.571874
244 1 0.992753 0.24747 0.595968
375 1 0.592484 0.0119413 0.926124
723 1 0.072404 0.496496 0.753034
247 1 0.264613 0.167191 0.599737
248 1 0.173579 0.240695 0.582974
341 1 0.169465 0.327558 0.651198
345 1 0.338565 0.333517 0.660013
365 1 0.172484 0.0053003 0.827913
251 1 0.420904 0.157375 0.586574
252 1 0.336683 0.245635 0.579534
275 1 0.419605 0.320477 0.577302
321 1 0.343167 0.148773 0.680405
322 1 0.417711 0.246162 0.661428
256 1 0.489833 0.23687 0.577465
326 1 0.578307 0.228557 0.655358
329 1 0.681319 0.167229 0.674566
279 1 0.573786 0.325274 0.592953
667 1 0.75583 0.496728 0.589926
260 1 0.66719 0.251077 0.576455
330 1 0.753657 0.264362 0.681767
264 1 0.811297 0.239067 0.592162
333 1 0.811808 0.152726 0.664573
287 1 0.898583 0.321831 0.589839
334 1 0.900756 0.243769 0.661139
357 1 0.830933 0.335905 0.66628
659 1 0.423489 0.493996 0.58543
289 1 0.997072 0.0116716 0.666593
383 1 0.92845 0.00775302 0.924287
272 1 0.173065 0.415711 0.579514
338 1 0.0843848 0.398433 0.651551
301 1 0.506069 0.012667 0.671876
271 1 0.253393 0.342702 0.572361
733 1 0.506488 0.490027 0.672343
241 1 0.00304862 0.164175 0.501197
276 1 0.333434 0.429752 0.585495
280 1 0.500833 0.413955 0.582206
797 1 0.15959 0.483843 0.841059
219 1 0.0835147 0.00499513 0.582168
295 1 0.263575 0.00327329 0.737374
284 1 0.666377 0.413134 0.592458
350 1 0.59968 0.418252 0.680371
725 1 0.168912 0.499134 0.651391
369 1 0.34331 0.00198597 0.847112
278 1 0.580779 0.413142 0.512968
283 1 0.736317 0.335929 0.588101
811 1 0.749349 0.489661 0.911183
799 1 0.250153 0.490214 0.921157
268 1 0.983244 0.407487 0.582364
288 1 0.836343 0.419981 0.578228
290 1 0.0720858 0.0872562 0.673021
362 1 0.0930408 0.08303 0.840075
296 1 0.177374 0.0823939 0.742321
292 1 0.00963629 0.0723206 0.762029
282 1 0.735972 0.420134 0.50518
300 1 0.339184 0.0700789 0.75434
393 1 0.330878 0.165599 0.822193
65 1 0.664302 0.333942 0.991989
246 1 0.25038 0.250727 0.504129
61 1 0.49627 0.335743 0.998426
420 1 0.338088 0.427989 0.914008
298 1 0.42006 0.0734972 0.674825
304 1 0.501071 0.0820422 0.763094
370 1 0.411825 0.086126 0.834905
245 1 0.180741 0.167636 0.500573
302 1 0.586774 0.0823905 0.664361
327 1 0.581425 0.175876 0.755701
428 1 0.655648 0.410669 0.914141
432 1 0.843545 0.421682 0.912028
308 1 0.679305 0.0768997 0.739306
378 1 0.756127 0.0845586 0.825032
312 1 0.842173 0.0659921 0.746806
331 1 0.745957 0.17268 0.757998
405 1 0.841217 0.165484 0.840445
388 1 0.0280633 0.249356 0.906149
310 1 0.910548 0.0790507 0.662476
422 1 0.562408 0.422379 0.828845
315 1 0.079831 0.180941 0.760175
314 1 0.082538 0.260951 0.665872
317 1 0.165036 0.186349 0.674123
319 1 0.248581 0.163985 0.748066
318 1 0.265366 0.264063 0.667567
320 1 0.158863 0.269157 0.745359
323 1 0.426916 0.16003 0.758021
324 1 0.349325 0.243467 0.746181
347 1 0.413037 0.337138 0.772245
421 1 0.502372 0.332561 0.842027
353 1 0.660853 0.319949 0.673726
328 1 0.495442 0.251862 0.752959
351 1 0.574081 0.334586 0.753637
332 1 0.661253 0.245493 0.753058
355 1 0.74946 0.324516 0.77719
336 1 0.833581 0.248992 0.764224
425 1 0.653991 0.320685 0.834618
316 1 0.00197793 0.259369 0.77188
335 1 0.915155 0.168227 0.743739
359 1 0.926518 0.331917 0.760316
404 1 0.65115 0.246564 0.921194
337 1 0.97873 0.335545 0.663199
339 1 0.0763722 0.345398 0.749965
340 1 0.983006 0.423347 0.738223
410 1 0.0677763 0.426164 0.831504
344 1 0.159722 0.412887 0.721655
398 1 0.580516 0.237095 0.836358
342 1 0.258534 0.419648 0.658408
423 1 0.572415 0.33555 0.919048
343 1 0.249775 0.333363 0.754508
400 1 0.50155 0.245752 0.912049
346 1 0.41409 0.416209 0.684758
348 1 0.331217 0.420523 0.752761
397 1 0.498771 0.162521 0.839407
402 1 0.731427 0.246648 0.842291
406 1 0.914641 0.246401 0.833844
349 1 0.487681 0.327902 0.678872
352 1 0.498503 0.40718 0.750977
424 1 0.502891 0.427037 0.911192
426 1 0.759812 0.413219 0.838121
354 1 0.755162 0.41205 0.679508
356 1 0.684147 0.411396 0.764108
360 1 0.834692 0.412614 0.760299
427 1 0.759561 0.341197 0.916221
408 1 0.833214 0.244844 0.917458
358 1 0.907571 0.421306 0.658693
412 1 0.993699 0.419835 0.920746
387 1 0.103324 0.166411 0.909084
415 1 0.265181 0.336806 0.92567
391 1 0.25568 0.167347 0.902479
368 1 0.179017 0.0906464 0.925436
366 1 0.252533 0.076035 0.826773
372 1 0.33387 0.0884319 0.923656
401 1 0.671852 0.149033 0.837007
395 1 0.421758 0.169262 0.908228
374 1 0.582748 0.0893975 0.831594
399 1 0.58524 0.16219 0.917459
376 1 0.503864 0.070715 0.920408
419 1 0.419449 0.345769 0.90931
380 1 0.688591 0.0837584 0.928056
403 1 0.751919 0.173958 0.924401
396 1 0.330011 0.250044 0.905775
382 1 0.922792 0.0740366 0.830583
385 1 0.00880864 0.16278 0.840505
364 1 0.00600883 0.0893966 0.908808
384 1 0.838299 0.0821948 0.916889
407 1 0.91764 0.169815 0.935615
413 1 0.153962 0.340598 0.824796
418 1 0.422945 0.4294 0.840564
416 1 0.167707 0.409357 0.923335
409 1 0.00574211 0.337535 0.844961
411 1 0.0698269 0.344895 0.93665
386 1 0.0986988 0.254112 0.829904
414 1 0.253154 0.408384 0.826278
389 1 0.174033 0.171707 0.832844
390 1 0.249229 0.248963 0.834527
392 1 0.165288 0.278672 0.919681
417 1 0.329966 0.326312 0.838608
429 1 0.840238 0.327052 0.847369
394 1 0.4157 0.240924 0.832083
303 1 0.593856 0.00275913 0.749198
671 1 0.915872 0.493142 0.580335
69 1 0.846634 0.34396 0.999187
29 1 0.186399 0.176316 0.995114
221 1 0.170007 0.00951994 0.517962
249 1 0.324394 0.152104 0.510427
371 1 0.41812 0.012571 0.921613
663 1 0.594269 0.497641 0.592899
258 1 0.748752 0.253062 0.510016
250 1 0.409759 0.240722 0.50193
25 1 0.00875258 0.170618 0.989559
661 1 0.512859 0.495584 0.500426
58 1 0.417531 0.426564 0.992056
2 1 0.103819 0.0936101 0.999411
33 1 0.33635 0.17255 0.994041
42 1 0.754581 0.264586 0.988652
274 1 0.4165 0.408835 0.515446
238 1 0.91258 0.0685722 0.508404
265 1 0.997971 0.322699 0.510263
269 1 0.165954 0.320218 0.509874
41 1 0.668485 0.166077 0.995326
66 1 0.745516 0.426327 0.983736
234 1 0.743203 0.0796582 0.508344
26 1 0.0919055 0.252066 0.99928
37 1 0.504086 0.17168 0.988144
277 1 0.509624 0.330833 0.501828
229 1 0.510095 0.0128478 0.512792
440 1 0.170366 0.597308 0.0819997
459 1 0.0759349 0.659292 0.0939549
714 1 0.750767 0.901215 0.497481
506 1 0.089773 0.575001 0.162835
628 1 0.991364 0.918903 0.411279
233 1 0.670411 0.985496 0.498552
599 1 0.916318 0.502811 0.410169
653 1 0.161584 0.507254 0.495485
462 1 0.253125 0.743384 0.00139765
444 1 0.341109 0.585261 0.0990595
493 1 0.495955 0.83138 0.00708149
438 1 0.247998 0.601424 0.00294325
448 1 0.487747 0.5837 0.0724863
452 1 0.665731 0.587414 0.086238
149 1 0.172114 0.995675 0.327188
545 1 0.659287 0.66961 0.157684
167 1 0.904471 0.994866 0.423479
475 1 0.764508 0.665544 0.0918645
93 1 0.828225 0.994757 0.160931
159 1 0.585334 0.991504 0.407734
522 1 0.752826 0.57987 0.178492
436 1 0.991059 0.592232 0.0892339
456 1 0.832472 0.586829 0.0881948
439 1 0.252378 0.516749 0.0816285
549 1 0.836855 0.662217 0.172914
526 1 0.920368 0.585466 0.165704
646 1 0.908141 0.927395 0.331068
529 1 0.996455 0.673565 0.162309
530 1 0.0876323 0.75004 0.16931
489 1 0.319012 0.830342 0.013132
463 1 0.253647 0.669303 0.0866986
464 1 0.166275 0.744899 0.0885197
494 1 0.590765 0.931675 0.0107913
23 1 0.919217 0.995708 0.0876841
466 1 0.415146 0.745033 0.00649921
468 1 0.331351 0.75064 0.0894198
467 1 0.401239 0.666672 0.0794871
471 1 0.567612 0.66913 0.0699298
472 1 0.496314 0.752575 0.0909004
476 1 0.663769 0.752618 0.093002
499 1 0.749516 0.846699 0.0827804
546 1 0.751988 0.742844 0.165146
453 1 0.821059 0.504512 0.00931132
485 1 0.172841 0.824757 0.00972215
479 1 0.9082 0.655337 0.0766483
460 1 0.0111493 0.754376 0.0967305
480 1 0.835779 0.737076 0.0763732
573 1 0.827215 0.825759 0.162754
505 1 0.992644 0.500396 0.168074
483 1 0.0920735 0.831336 0.106159
553 1 0.998554 0.838334 0.166797
554 1 0.0705275 0.914767 0.16945
19 1 0.750248 0.986886 0.0893294
484 1 0.00600557 0.919295 0.082329
488 1 0.166619 0.922784 0.0959759
487 1 0.250348 0.833727 0.0895009
689 1 0.669826 0.671302 0.498111
492 1 0.336197 0.915332 0.0851628
561 1 0.33311 0.837952 0.16249
491 1 0.411348 0.830536 0.0837109
562 1 0.412152 0.91165 0.164116
470 1 0.582441 0.759936 0.00536098
495 1 0.58523 0.829653 0.0957253
569 1 0.663115 0.826677 0.163109
496 1 0.508963 0.909137 0.0946289
566 1 0.59377 0.906529 0.164533
500 1 0.677367 0.914779 0.0848415
642 1 0.741233 0.917192 0.343347
644 1 0.663218 0.90623 0.42636
504 1 0.837509 0.908118 0.091498
570 1 0.742753 0.906019 0.180828
583 1 0.236809 0.51433 0.427649
648 1 0.825521 0.919115 0.410307
503 1 0.92367 0.845549 0.0887865
574 1 0.916886 0.924294 0.165843
531 1 0.0759411 0.671963 0.245791
578 1 0.0812733 0.581769 0.32912
512 1 0.160168 0.58455 0.257866
510 1 0.245184 0.597451 0.163475
535 1 0.248888 0.667816 0.254791
537 1 0.332979 0.666643 0.1714
609 1 0.340192 0.649854 0.315351
582 1 0.249507 0.581013 0.317969
509 1 0.166819 0.507992 0.167599
514 1 0.432037 0.571686 0.17012
516 1 0.33861 0.565272 0.226759
520 1 0.505324 0.581175 0.253738
541 1 0.497619 0.667025 0.16663
662 1 0.57519 0.58338 0.487753
518 1 0.580437 0.577036 0.152844
524 1 0.666684 0.588231 0.241059
543 1 0.587829 0.66724 0.234435
547 1 0.758039 0.677571 0.253935
151 1 0.254054 0.988169 0.416384
451 1 0.742384 0.50281 0.0847509
508 1 0.998547 0.590301 0.245003
528 1 0.843818 0.581246 0.244732
598 1 0.918875 0.594059 0.325423
621 1 0.835345 0.680104 0.329897
640 1 0.491063 0.922985 0.407568
601 1 0.0108713 0.671506 0.335651
533 1 0.162001 0.666356 0.172007
536 1 0.16959 0.766489 0.256327
602 1 0.0830658 0.753948 0.317383
534 1 0.242375 0.740016 0.159347
557 1 0.166519 0.83853 0.176829
606 1 0.247893 0.760768 0.329202
559 1 0.246724 0.845628 0.24602
540 1 0.332934 0.75416 0.234606
538 1 0.414485 0.753196 0.154545
539 1 0.417026 0.677135 0.254635
610 1 0.407346 0.751848 0.336189
637 1 0.487147 0.820598 0.329749
565 1 0.494224 0.832079 0.173942
544 1 0.491745 0.745716 0.242595
542 1 0.575754 0.747602 0.168497
614 1 0.581889 0.757268 0.336314
618 1 0.732852 0.752351 0.335454
548 1 0.670399 0.745414 0.242039
571 1 0.75616 0.811445 0.246832
617 1 0.664862 0.666603 0.330231
550 1 0.929175 0.748729 0.154252
532 1 0.995505 0.770427 0.253103
552 1 0.844041 0.746565 0.238405
551 1 0.921194 0.674623 0.24223
638 1 0.563684 0.916878 0.321667
555 1 0.0761379 0.835204 0.254337
560 1 0.160443 0.92456 0.254699
556 1 0.998289 0.924792 0.249009
629 1 0.170436 0.838461 0.339235
558 1 0.250319 0.934342 0.167986
564 1 0.346364 0.922928 0.24778
563 1 0.417863 0.833362 0.249353
568 1 0.503041 0.909392 0.238509
486 1 0.253546 0.922232 0.0117386
433 1 0.991982 0.513959 0.0102763
567 1 0.587502 0.82691 0.240249
591 1 0.580434 0.505554 0.391492
636 1 0.344203 0.922338 0.406207
572 1 0.660581 0.912815 0.254685
641 1 0.663966 0.83503 0.334115
576 1 0.835149 0.920639 0.246869
624 1 0.819112 0.746003 0.404705
631 1 0.250658 0.84318 0.414634
630 1 0.256373 0.918464 0.328782
625 1 0.998072 0.824049 0.346494
575 1 0.911618 0.838944 0.234736
584 1 0.172278 0.598628 0.424533
603 1 0.078033 0.669852 0.424979
580 1 0.00520684 0.595628 0.413076
635 1 0.411882 0.838796 0.418631
605 1 0.163942 0.661948 0.333374
588 1 0.331494 0.588682 0.411133
647 1 0.894775 0.834897 0.406756
597 1 0.823944 0.504274 0.335097
586 1 0.420081 0.57867 0.330711
87 1 0.585629 0.997591 0.245892
620 1 0.657503 0.746454 0.412498
590 1 0.593769 0.59587 0.326018
592 1 0.494119 0.585456 0.424679
497 1 0.65774 0.835632 0.0149228
634 1 0.428282 0.909237 0.325315
643 1 0.749473 0.837226 0.412706
596 1 0.663677 0.585621 0.420834
619 1 0.743338 0.648095 0.396522
594 1 0.748536 0.58282 0.312062
632 1 0.160171 0.934611 0.417588
626 1 0.0817774 0.909926 0.330318
645 1 0.823509 0.83168 0.32758
622 1 0.914071 0.754974 0.327615
623 1 0.909743 0.66563 0.411916
600 1 0.826179 0.585994 0.399389
604 1 0.994083 0.740513 0.415216
627 1 0.0723069 0.85248 0.418212
608 1 0.163839 0.744471 0.411162
443 1 0.41244 0.500648 0.0833993
607 1 0.256992 0.665443 0.391865
612 1 0.328337 0.7422 0.410018
713 1 0.652725 0.817355 0.498491
455 1 0.897056 0.509195 0.0907719
633 1 0.340192 0.848319 0.33383
611 1 0.416363 0.665042 0.406691
616 1 0.499277 0.750208 0.422355
615 1 0.568807 0.668094 0.409451
639 1 0.576697 0.85544 0.40737
613 1 0.497816 0.66159 0.325893
435 1 0.0657232 0.510093 0.0832808
442 1 0.409106 0.587917 0.00817955
89 1 0.674562 0.995775 0.176402
674 1 0.0766077 0.754043 0.497093
11 1 0.407422 0.999389 0.0883122
581 1 0.16245 0.51306 0.341949
577 1 0.981739 0.509885 0.324249
490 1 0.426981 0.912128 0.00687248
511 1 0.251153 0.510737 0.248255
705 1 0.330015 0.840509 0.486554
682 1 0.420533 0.75366 0.496592
678 1 0.247337 0.72358 0.484145
701 1 0.160868 0.830273 0.489585
153 1 0.348204 0.99979 0.332792
465 1 0.324277 0.6707 0.00289099
654 1 0.256453 0.590926 0.495404
657 1 0.320566 0.50718 0.487195
77 1 0.168199 0.996733 0.179124
83 1 0.435619 0.994169 0.248079
15 1 0.588223 0.999801 0.100304
593 1 0.680073 0.508499 0.336754
525 1 0.822171 0.504573 0.165522
478 1 0.907955 0.769651 0.00470494
502 1 0.914454 0.918229 0.00017483
670 1 0.904814 0.584844 0.489013
225 1 0.336642 0.983793 0.492484
650 1 0.0759235 0.587041 0.48888
706 1 0.411627 0.920101 0.498769
710 1 0.562423 0.907345 0.48781
690 1 0.740956 0.750082 0.479567
697 1 0.989054 0.839201 0.496843
458 1 0.0784758 0.748633 0.0129493
673 1 0.997166 0.665949 0.498498
441 1 0.338054 0.503621 0.00269479
461 1 0.168991 0.669364 0.000354331
481 1 0.0135325 0.836305 0.0241873
450 1 0.742898 0.600941 0.00822859
446 1 0.591448 0.582737 0.00510854
693 1 0.822677 0.67182 0.488265
437 1 0.180539 0.503078 0.0101134
658 1 0.412952 0.588704 0.495712
717 1 0.819199 0.820334 0.499543
652 1 0.999959 0.582796 0.587649
675 1 0.0716416 0.660682 0.576473
235 1 0.738847 0.975854 0.57057
307 1 0.741953 0.987341 0.746074
237 1 0.836056 0.993912 0.505404
656 1 0.152389 0.58232 0.581921
660 1 0.321634 0.571332 0.579793
749 1 0.165773 0.650872 0.653706
795 1 0.0826275 0.50805 0.919732
664 1 0.498743 0.586008 0.586571
299 1 0.419826 0.9877 0.746145
683 1 0.405433 0.66916 0.586734
841 1 0.0138283 0.836756 0.837329
730 1 0.406579 0.587852 0.656683
668 1 0.674455 0.578759 0.579854
685 1 0.499385 0.659466 0.505411
1 1 0.00565537 0.987119 0.996655
691 1 0.743427 0.667183 0.574137
844 1 0.0113376 0.911905 0.91949
731 1 0.422226 0.501689 0.752182
672 1 0.829457 0.573439 0.571654
695 1 0.915032 0.648974 0.581307
297 1 0.342294 0.994756 0.649476
746 1 0.0827154 0.744916 0.658259
699 1 0.0810061 0.836145 0.581317
769 1 0.0031638 0.832569 0.663273
801 1 0.347506 0.520543 0.830823
679 1 0.253546 0.670665 0.582332
680 1 0.159551 0.759206 0.582374
684 1 0.338519 0.749233 0.574479
688 1 0.497755 0.752412 0.58355
707 1 0.420937 0.82926 0.591342
687 1 0.586 0.661786 0.583521
711 1 0.573202 0.835074 0.582579
692 1 0.67224 0.75762 0.578993
758 1 0.58919 0.747671 0.657368
231 1 0.589575 0.991792 0.585176
696 1 0.835201 0.739754 0.59582
762 1 0.734775 0.736253 0.660168
789 1 0.825742 0.8188 0.667493
311 1 0.919775 0.990454 0.750261
727 1 0.255726 0.50424 0.744196
676 1 0.00116566 0.747988 0.582241
719 1 0.912475 0.833081 0.580799
766 1 0.914165 0.759541 0.666016
381 1 0.835866 0.987087 0.831644
773 1 0.159328 0.840116 0.664917
700 1 0.00873418 0.931736 0.578484
770 1 0.0861269 0.910175 0.666734
863 1 0.923102 0.837714 0.909607
704 1 0.16616 0.923453 0.588083
703 1 0.227668 0.840992 0.572122
777 1 0.346375 0.823426 0.674192
708 1 0.335074 0.893119 0.579695
741 1 0.823947 0.505723 0.673768
778 1 0.411839 0.91965 0.672311
712 1 0.508683 0.919372 0.588909
807 1 0.581937 0.516533 0.924373
716 1 0.660527 0.899913 0.580921
815 1 0.907619 0.512253 0.92057
715 1 0.749712 0.823031 0.593208
720 1 0.826928 0.902877 0.574229
293 1 0.154932 0.998711 0.672525
469 1 0.484865 0.671348 0.999068
722 1 0.0807139 0.568722 0.667285
724 1 0.992038 0.583387 0.752272
794 1 0.0625262 0.593252 0.837928
726 1 0.246855 0.574109 0.654409
728 1 0.162919 0.568517 0.742738
751 1 0.243467 0.659339 0.734838
732 1 0.329181 0.588411 0.740346
736 1 0.497249 0.584629 0.754494
757 1 0.487371 0.663805 0.660265
755 1 0.417053 0.666234 0.753349
734 1 0.585141 0.579718 0.676204
759 1 0.575495 0.669205 0.750562
740 1 0.662374 0.584453 0.750645
761 1 0.66032 0.663985 0.663844
738 1 0.74135 0.567388 0.668985
765 1 0.839941 0.650003 0.662
763 1 0.756823 0.663098 0.737765
744 1 0.829547 0.576067 0.752815
810 1 0.744979 0.607647 0.835437
742 1 0.917296 0.572917 0.65848
767 1 0.911078 0.661034 0.735318
745 1 0.00344864 0.660729 0.66939
747 1 0.0825144 0.658875 0.747636
818 1 0.0883486 0.742286 0.82525
750 1 0.247052 0.76621 0.654955
752 1 0.170952 0.742683 0.737004
775 1 0.263897 0.828868 0.771962
822 1 0.236721 0.717077 0.823781
754 1 0.421389 0.747052 0.684775
753 1 0.323547 0.691351 0.663579
756 1 0.336246 0.743902 0.756169
849 1 0.335482 0.837945 0.84803
826 1 0.423714 0.749538 0.84138
760 1 0.494264 0.751879 0.759677
785 1 0.658315 0.831655 0.675579
830 1 0.576688 0.761685 0.841349
764 1 0.676958 0.739761 0.741314
787 1 0.736668 0.833271 0.748557
768 1 0.819177 0.745694 0.755364
834 1 0.739802 0.774768 0.835553
857 1 0.650033 0.838381 0.840124
837 1 0.841331 0.667828 0.829151
748 1 0.995571 0.74962 0.737278
791 1 0.930353 0.840963 0.759314
771 1 0.0946428 0.821197 0.758525
772 1 0.0114089 0.907179 0.740408
776 1 0.177047 0.914763 0.758818
774 1 0.252251 0.921369 0.665122
309 1 0.831341 0.976322 0.650536
845 1 0.180792 0.823102 0.837143
846 1 0.252625 0.92976 0.829084
779 1 0.42392 0.837226 0.756134
780 1 0.344512 0.914863 0.769829
850 1 0.414732 0.916222 0.860093
784 1 0.509587 0.930369 0.746218
781 1 0.509918 0.824276 0.674744
854 1 0.58175 0.91836 0.832159
783 1 0.583298 0.823955 0.749342
782 1 0.585481 0.914304 0.662699
788 1 0.664324 0.910416 0.750465
473 1 0.661687 0.673422 0.997862
786 1 0.73452 0.915513 0.652802
861 1 0.827153 0.840627 0.830209
858 1 0.734174 0.908869 0.8438
792 1 0.836058 0.898974 0.740328
377 1 0.668117 0.999293 0.82534
735 1 0.586047 0.513026 0.757313
790 1 0.911505 0.91198 0.665191
862 1 0.91915 0.919537 0.837081
796 1 0.994179 0.597629 0.918467
694 1 0.909795 0.754061 0.500722
223 1 0.258333 0.999987 0.572084
798 1 0.244963 0.564385 0.826414
825 1 0.326179 0.657133 0.836306
800 1 0.173583 0.566219 0.914627
804 1 0.325646 0.57217 0.930372
864 1 0.835372 0.920989 0.92431
802 1 0.424969 0.595075 0.835123
808 1 0.493892 0.588848 0.934444
827 1 0.395428 0.66276 0.926732
373 1 0.498461 0.997494 0.829059
860 1 0.655035 0.921085 0.921611
806 1 0.58741 0.586045 0.842445
812 1 0.669073 0.585695 0.923822
833 1 0.648413 0.676092 0.839652
809 1 0.663192 0.504636 0.827183
816 1 0.831258 0.597393 0.911603
835 1 0.754053 0.684162 0.906212
305 1 0.663053 0.994135 0.666255
856 1 0.505059 0.930348 0.934073
814 1 0.918939 0.607729 0.836557
291 1 0.0783226 0.994671 0.745993
817 1 0.999942 0.684449 0.81999
819 1 0.117274 0.658805 0.912543
743 1 0.912576 0.500942 0.755966
848 1 0.169053 0.925973 0.914835
820 1 0.0218942 0.745347 0.910928
824 1 0.192393 0.743286 0.913305
821 1 0.162232 0.646277 0.814722
847 1 0.25464 0.849089 0.927388
823 1 0.247688 0.645768 0.905065
852 1 0.340021 0.931443 0.933212
853 1 0.490081 0.84564 0.846657
828 1 0.314828 0.752749 0.90914
829 1 0.507688 0.665087 0.840444
793 1 0.988167 0.516951 0.845565
805 1 0.499732 0.513376 0.844057
832 1 0.498006 0.749229 0.924037
855 1 0.575194 0.838791 0.932488
831 1 0.581054 0.66273 0.928371
851 1 0.405108 0.827554 0.934757
859 1 0.733941 0.836334 0.921598
840 1 0.835214 0.759962 0.90255
836 1 0.651122 0.757632 0.922797
813 1 0.841698 0.500371 0.834026
839 1 0.929725 0.698424 0.925456
838 1 0.914938 0.756597 0.830379
655 1 0.239516 0.507841 0.568161
842 1 0.0925077 0.917392 0.826655
843 1 0.0961711 0.840603 0.909278
449 1 0.666494 0.502751 0.989014
729 1 0.337159 0.500198 0.673991
379 1 0.742342 0.997091 0.903802
239 1 0.912843 0.992532 0.58634
363 1 0.0804479 0.993537 0.92145
361 1 0.00811305 0.986382 0.836885
803 1 0.413521 0.512037 0.925439
709 1 0.483477 0.834935 0.501778
721 1 0.99217 0.503954 0.659462
501 1 0.83249 0.837217 0.998851
698 1 0.0873524 0.927571 0.506854
474 1 0.748059 0.744689 0.996521
457 1 0.991869 0.669609 0.996657
677 1 0.164754 0.667336 0.52244
434 1 0.0797323 0.593983 0.99727
498 1 0.748532 0.922284 0.989505
681 1 0.33162 0.664093 0.50025
686 1 0.575428 0.738936 0.503391
666 1 0.736659 0.575847 0.501297
482 1 0.0926473 0.917965 0.999373
477 1 0.84353 0.673559 0.983052
702 1 0.239179 0.921175 0.501649
718 1 0.916532 0.918116 0.502215
454 1 0.91769 0.579441 0.997418
