ITEM: TIMESTEP
19500
ITEM: NUMBER OF ATOMS
864
ITEM: BOX BOUNDS pp pp pp
0.0000000000000000e+00 3.1559999999999999e+01
0.0000000000000000e+00 3.1559999999999999e+01
0.0000000000000000e+00 3.1559999999999999e+01
ITEM: ATOMS id type xs ys zs
27 1 0.0758646 0.157575 0.0790805
101 1 0.170873 0.154413 0.152381
97 1 0.984325 0.18166 0.16015
19 1 0.750546 0.0069178 0.0845653
8 1 0.15933 0.0719818 0.104616
78 1 0.249929 0.07886 0.161594
21 1 0.842288 0.00685408 0.00229346
12 1 0.339853 0.088822 0.100055
35 1 0.429085 0.164854 0.083204
16 1 0.507867 0.0843706 0.0835032
513 1 0.335516 0.497692 0.169417
509 1 0.155466 0.487749 0.157911
73 1 0.988838 0.0109337 0.171782
86 1 0.571165 0.084762 0.16742
3 1 0.0798425 0.0032999 0.0921323
77 1 0.165383 0.0146801 0.185764
20 1 0.672553 0.0849959 0.0780248
24 1 0.82259 0.0823928 0.0855909
90 1 0.743562 0.0641285 0.176427
117 1 0.82027 0.152226 0.172715
149 1 0.157914 0.0129527 0.345322
38 1 0.593133 0.253962 0.00443171
597 1 0.830093 0.497269 0.327562
4 1 0.978785 0.0756655 0.0897653
47 1 0.907547 0.168989 0.0808994
196 1 0.0139818 0.4207 0.423441
98 1 0.0833581 0.246399 0.162453
28 1 0.00579144 0.260138 0.0851029
234 1 0.746779 0.0917285 0.484291
2 1 0.0831946 0.0738338 0.0133195
31 1 0.259386 0.163945 0.0858919
32 1 0.150501 0.232903 0.0799403
55 1 0.250009 0.343075 0.076109
102 1 0.250174 0.25002 0.16906
36 1 0.343773 0.264955 0.0787993
40 1 0.502388 0.258319 0.0874451
226 1 0.409402 0.0794321 0.496475
581 1 0.158583 0.483933 0.338127
39 1 0.575269 0.162791 0.085891
133 1 0.503981 0.340061 0.163307
63 1 0.590848 0.334029 0.0940866
110 1 0.578549 0.248996 0.166235
137 1 0.674879 0.336222 0.167053
505 1 0.0205971 0.486121 0.162284
79 1 0.255165 0.0037759 0.252063
43 1 0.746628 0.165516 0.0842107
44 1 0.673282 0.253556 0.10068
67 1 0.757207 0.341595 0.0705562
114 1 0.751228 0.253794 0.177166
515 1 0.415584 0.488869 0.245928
48 1 0.834182 0.234778 0.0831056
71 1 0.905805 0.325853 0.0871188
118 1 0.89496 0.246032 0.169309
579 1 0.0889587 0.496037 0.420876
51 1 0.0843288 0.329701 0.0938946
52 1 0.00256283 0.407641 0.0807482
589 1 0.499821 0.492454 0.316791
56 1 0.162105 0.41415 0.0879624
60 1 0.337815 0.427762 0.0695582
213 1 0.849948 0.338302 0.334426
50 1 0.0804293 0.410734 0.00244691
59 1 0.427894 0.331362 0.0852209
129 1 0.321596 0.343045 0.165833
583 1 0.237431 0.494502 0.420363
64 1 0.514769 0.429184 0.0857464
523 1 0.767672 0.480381 0.23523
205 1 0.487933 0.343595 0.325037
68 1 0.682789 0.420389 0.0664258
72 1 0.845245 0.416932 0.0811765
159 1 0.59216 0.0131914 0.418006
199 1 0.257132 0.325647 0.429695
85 1 0.484446 0.0178471 0.181964
74 1 0.0638386 0.0881145 0.17012
76 1 0.00280292 0.0823263 0.26014
157 1 0.493148 0.00154297 0.320027
146 1 0.0686203 0.0759641 0.345969
253 1 0.489033 0.167769 0.488203
507 1 0.0800372 0.48766 0.255281
439 1 0.245744 0.495698 0.0759619
80 1 0.158284 0.0934899 0.256911
105 1 0.336147 0.177877 0.176158
214 1 0.931426 0.424774 0.34927
84 1 0.328372 0.0793224 0.254082
82 1 0.411801 0.101374 0.185072
88 1 0.49175 0.090168 0.255088
111 1 0.581648 0.156576 0.254181
92 1 0.650545 0.0708182 0.251333
185 1 0.680697 0.172938 0.324787
204 1 0.334002 0.425284 0.423553
96 1 0.837434 0.0752556 0.237946
115 1 0.754163 0.168909 0.251258
153 1 0.320148 0.00940363 0.351619
94 1 0.931652 0.0962917 0.189512
57 1 0.353361 0.328843 0.00138206
119 1 0.923237 0.168733 0.258816
166 1 0.917379 0.0754287 0.334068
99 1 0.0815097 0.165912 0.248007
123 1 0.0769439 0.325195 0.256648
170 1 0.079344 0.248759 0.335422
103 1 0.244389 0.156786 0.242853
104 1 0.162678 0.247092 0.257733
174 1 0.255487 0.248938 0.331386
177 1 0.325407 0.169385 0.348922
109 1 0.493614 0.183016 0.180149
106 1 0.412402 0.266622 0.183062
107 1 0.415745 0.181773 0.266249
108 1 0.327374 0.268777 0.248875
112 1 0.49211 0.264255 0.256257
181 1 0.496087 0.175056 0.340146
116 1 0.664267 0.249465 0.242664
135 1 0.57919 0.339331 0.255764
113 1 0.676933 0.160087 0.162967
120 1 0.830541 0.250023 0.252183
141 1 0.823795 0.338918 0.164418
139 1 0.752372 0.344264 0.256121
121 1 0.989608 0.337626 0.168623
100 1 0.00279334 0.249995 0.248742
143 1 0.914914 0.324808 0.244514
189 1 0.837259 0.173919 0.330468
193 1 0.00807954 0.342093 0.345536
190 1 0.905261 0.250738 0.321335
122 1 0.0910423 0.40034 0.16481
128 1 0.170792 0.417604 0.254251
124 1 0.993103 0.417697 0.242239
198 1 0.241373 0.413169 0.348935
197 1 0.150595 0.325977 0.33848
125 1 0.176585 0.333856 0.16485
126 1 0.249347 0.420895 0.176592
127 1 0.232955 0.327134 0.256528
132 1 0.314991 0.411163 0.263253
130 1 0.42933 0.42246 0.144529
131 1 0.414552 0.352349 0.239277
201 1 0.336771 0.334506 0.343364
134 1 0.591736 0.434002 0.166675
136 1 0.50469 0.419895 0.233145
206 1 0.573738 0.421693 0.325063
23 1 0.907587 0.00212628 0.0890086
138 1 0.7563 0.417841 0.147732
140 1 0.658825 0.418564 0.254868
144 1 0.857495 0.419704 0.24515
33 1 0.339711 0.16871 0.0202518
250 1 0.43003 0.260507 0.488679
210 1 0.755493 0.422777 0.33754
142 1 0.927669 0.418489 0.159065
212 1 0.674793 0.437755 0.412523
148 1 0.997669 0.080584 0.42874
65 1 0.657227 0.336258 0.00328572
150 1 0.245306 0.0771696 0.329525
152 1 0.151256 0.0961092 0.406894
83 1 0.406878 0.000780829 0.256013
208 1 0.495027 0.425867 0.402606
154 1 0.410698 0.0972896 0.336375
156 1 0.315766 0.0837896 0.421175
160 1 0.500099 0.0841725 0.425094
179 1 0.40193 0.162669 0.425952
216 1 0.833819 0.414509 0.413883
202 1 0.41235 0.423597 0.330244
158 1 0.571205 0.0838291 0.336981
207 1 0.580167 0.351329 0.420243
164 1 0.671276 0.0844967 0.411841
162 1 0.750541 0.0739133 0.335644
168 1 0.833393 0.0862958 0.411549
187 1 0.752594 0.16901 0.40326
511 1 0.244573 0.499906 0.263206
151 1 0.241865 0.00741668 0.420451
585 1 0.320735 0.497932 0.34611
169 1 0.990804 0.176777 0.336027
195 1 0.0825998 0.32983 0.416446
171 1 0.0802871 0.178628 0.421858
172 1 0.991246 0.263185 0.422478
173 1 0.159574 0.166702 0.33096
176 1 0.156387 0.254128 0.416186
200 1 0.151826 0.407857 0.4206
175 1 0.236969 0.168843 0.425905
180 1 0.334382 0.245703 0.440228
178 1 0.417358 0.262553 0.339667
184 1 0.522256 0.263352 0.416508
194 1 0.0899324 0.414429 0.323922
192 1 0.830495 0.252923 0.398237
209 1 0.658986 0.33425 0.342959
183 1 0.583402 0.171163 0.426077
182 1 0.583457 0.241373 0.324815
203 1 0.420353 0.343871 0.417276
211 1 0.752331 0.341593 0.409589
186 1 0.747234 0.259839 0.325707
188 1 0.652054 0.248102 0.41874
191 1 0.90299 0.167724 0.412896
215 1 0.908501 0.337908 0.419179
11 1 0.42789 0.0145555 0.0886608
7 1 0.255654 0.000685025 0.0929157
75 1 0.0750827 0.00242236 0.258481
435 1 0.0905184 0.494011 0.073359
525 1 0.840826 0.499234 0.15269
155 1 0.417896 0.00345742 0.4031
591 1 0.583811 0.48735 0.406668
147 1 0.0830132 0.00914843 0.427145
587 1 0.415308 0.499147 0.4245
225 1 0.327344 0.0035685 0.497931
270 1 0.245216 0.412763 0.488807
18 1 0.747484 0.0777066 0.00760939
13 1 0.496299 0.017965 0.00338805
6 1 0.234243 0.0875349 0.0113137
41 1 0.661238 0.17331 0.00392415
661 1 0.511324 0.496826 0.497078
42 1 0.747937 0.247939 0.0168979
286 1 0.919938 0.419411 0.494685
53 1 0.156415 0.325242 0.0161407
222 1 0.240911 0.0794452 0.496886
265 1 0.995156 0.344992 0.495672
285 1 0.811031 0.331236 0.486041
278 1 0.605993 0.414069 0.499048
262 1 0.900131 0.253157 0.493739
69 1 0.85553 0.326767 0.00277079
230 1 0.585607 0.0827141 0.497267
261 1 0.817204 0.178868 0.485486
14 1 0.583461 0.0821328 0.00274174
70 1 0.924081 0.427047 0.00804088
34 1 0.420477 0.245809 0.00308813
46 1 0.936317 0.232821 0.00413489
30 1 0.248591 0.257478 0.0121293
22 1 0.906406 0.084527 0.0123056
241 1 0.980162 0.164389 0.494301
49 1 0.993445 0.329219 0.00325075
61 1 0.518843 0.335746 0.0217446
25 1 0.0034879 0.156009 0.00522414
220 1 0.995694 0.0832979 0.567101
290 1 0.0769549 0.0844731 0.650938
224 1 0.160582 0.0754845 0.579487
651 1 0.0826972 0.496898 0.598707
805 1 0.521802 0.497999 0.836317
671 1 0.904142 0.499185 0.579866
218 1 0.0743528 0.0921427 0.506647
228 1 0.321695 0.0701535 0.589587
247 1 0.24298 0.145292 0.580533
294 1 0.25211 0.0739379 0.669678
66 1 0.767492 0.414623 0.996923
251 1 0.433054 0.163685 0.586285
325 1 0.497296 0.166744 0.677108
303 1 0.587347 0.00188124 0.75875
291 1 0.0771984 0.00145251 0.736955
431 1 0.942809 0.33558 0.912246
232 1 0.501443 0.0848727 0.565083
255 1 0.574205 0.167814 0.585043
236 1 0.674685 0.0906979 0.583043
302 1 0.582052 0.0866791 0.655963
383 1 0.928124 0.00478521 0.924925
240 1 0.822686 0.08105 0.587769
306 1 0.745705 0.0686903 0.680644
329 1 0.666678 0.160418 0.667594
449 1 0.681464 0.48971 0.988587
663 1 0.599948 0.494195 0.578491
310 1 0.917245 0.0829021 0.657777
263 1 0.912135 0.167659 0.589249
301 1 0.506517 0.00159782 0.675941
243 1 0.0830556 0.170876 0.58217
313 1 0.005807 0.168825 0.661524
244 1 0.995815 0.259588 0.582821
445 1 0.50564 0.488423 0.990052
743 1 0.925138 0.498649 0.760319
248 1 0.172112 0.241065 0.602261
318 1 0.263935 0.244014 0.674077
252 1 0.337589 0.250004 0.579869
341 1 0.179821 0.337211 0.657849
275 1 0.427591 0.364241 0.5879
256 1 0.496196 0.271856 0.580118
349 1 0.505527 0.342726 0.664233
326 1 0.565557 0.24671 0.664034
373 1 0.485867 0.00918132 0.828143
795 1 0.0898266 0.496278 0.905688
260 1 0.658958 0.25277 0.60896
259 1 0.751781 0.162587 0.58684
264 1 0.830684 0.230844 0.571534
283 1 0.743575 0.322273 0.590119
379 1 0.747641 0.00558999 0.917823
334 1 0.913949 0.241311 0.669254
10 1 0.412805 0.084197 0.993275
267 1 0.0834477 0.339412 0.594597
37 1 0.505941 0.171113 0.998023
381 1 0.855454 0.000872261 0.839405
337 1 0.00391365 0.341777 0.66847
271 1 0.254125 0.322648 0.59404
272 1 0.181775 0.432581 0.589959
342 1 0.256482 0.415637 0.681453
45 1 0.835372 0.167929 0.993856
276 1 0.332935 0.420833 0.578109
280 1 0.505296 0.432474 0.588056
345 1 0.347367 0.324883 0.659008
793 1 0.000946791 0.493434 0.832253
279 1 0.580016 0.344423 0.59056
350 1 0.586206 0.427031 0.667242
361 1 0.00125043 0.00715341 0.836116
284 1 0.682377 0.419214 0.586277
288 1 0.840822 0.421296 0.591244
249 1 0.328948 0.1591 0.515507
428 1 0.680517 0.394074 0.918822
287 1 0.907369 0.338903 0.577978
357 1 0.844466 0.334666 0.665171
268 1 0.989428 0.430447 0.597416
358 1 0.919116 0.415548 0.679812
432 1 0.847528 0.416669 0.907129
296 1 0.156712 0.0833873 0.739626
292 1 0.998052 0.0837636 0.74292
315 1 0.0789752 0.166661 0.746355
317 1 0.167899 0.158981 0.667704
426 1 0.749613 0.424227 0.833789
739 1 0.75764 0.492101 0.746963
300 1 0.349042 0.0774037 0.741231
366 1 0.239996 0.0865296 0.840443
321 1 0.339919 0.158737 0.653764
319 1 0.241704 0.155225 0.744796
298 1 0.423361 0.0793558 0.659146
304 1 0.513353 0.0847441 0.746467
393 1 0.331821 0.14836 0.821453
323 1 0.413911 0.165759 0.74268
370 1 0.40655 0.0708564 0.844202
374 1 0.576084 0.073908 0.841764
327 1 0.584609 0.182 0.742182
281 1 0.687812 0.338382 0.50527
308 1 0.657943 0.0865793 0.756253
331 1 0.743395 0.162053 0.755159
401 1 0.66077 0.176363 0.836575
312 1 0.829208 0.0758804 0.750497
333 1 0.833274 0.168047 0.66795
382 1 0.915691 0.0789691 0.826643
314 1 0.0803498 0.258404 0.667745
386 1 0.0867621 0.245263 0.834254
316 1 0.00757523 0.26298 0.7467
413 1 0.172864 0.315564 0.829653
320 1 0.17073 0.239045 0.745348
324 1 0.336574 0.242267 0.750502
322 1 0.42166 0.237256 0.658634
394 1 0.422352 0.244839 0.835426
397 1 0.506653 0.175643 0.824003
328 1 0.498977 0.261168 0.746578
353 1 0.67092 0.332206 0.673803
332 1 0.67389 0.243859 0.737664
330 1 0.757814 0.247506 0.661798
425 1 0.668413 0.320696 0.820422
355 1 0.764163 0.330822 0.750687
402 1 0.766732 0.250622 0.829594
335 1 0.907434 0.153257 0.740152
405 1 0.841217 0.168894 0.835098
336 1 0.843373 0.253338 0.752988
406 1 0.924226 0.25226 0.837226
807 1 0.598328 0.49815 0.909012
338 1 0.0955391 0.410347 0.672233
339 1 0.0819064 0.343778 0.746781
340 1 0.993954 0.418504 0.750771
409 1 0.0125263 0.331026 0.837068
410 1 0.0932602 0.421763 0.819306
344 1 0.168736 0.423431 0.740979
343 1 0.270815 0.316717 0.740655
347 1 0.416875 0.320813 0.765349
348 1 0.342765 0.421831 0.752353
346 1 0.428449 0.422223 0.674877
351 1 0.583455 0.331535 0.742796
352 1 0.515135 0.409697 0.763778
356 1 0.661654 0.406989 0.744774
803 1 0.42978 0.472752 0.909104
354 1 0.743794 0.416191 0.676296
360 1 0.838622 0.421867 0.772871
430 1 0.928597 0.420967 0.844818
359 1 0.921595 0.32673 0.770249
801 1 0.347467 0.499728 0.838386
305 1 0.664087 0.00337682 0.65791
362 1 0.0888037 0.0858187 0.830149
368 1 0.164314 0.0826123 0.920804
387 1 0.0836386 0.158861 0.911911
389 1 0.15732 0.163553 0.824681
372 1 0.310417 0.0773793 0.936168
391 1 0.264615 0.178804 0.925552
246 1 0.241066 0.249874 0.518939
395 1 0.403798 0.163983 0.908104
423 1 0.592224 0.319504 0.914513
424 1 0.516007 0.405356 0.901413
238 1 0.897071 0.0718279 0.504138
422 1 0.607611 0.424603 0.83452
376 1 0.499472 0.0807319 0.920357
399 1 0.593796 0.163008 0.922405
378 1 0.748405 0.0826667 0.836593
380 1 0.676315 0.0879979 0.911696
414 1 0.229834 0.412367 0.833027
266 1 0.0735002 0.425802 0.512943
418 1 0.422281 0.401319 0.831505
417 1 0.32288 0.334293 0.836076
364 1 0.994287 0.0782537 0.910292
384 1 0.830415 0.0835489 0.91067
363 1 0.0801816 0.00379105 0.916809
58 1 0.437516 0.404432 0.992963
1 1 0.00254173 0.00473745 0.995198
385 1 0.983959 0.157414 0.832643
411 1 0.0810167 0.326799 0.925008
388 1 0.00332805 0.247179 0.927255
392 1 0.175143 0.235513 0.924318
390 1 0.252005 0.240331 0.811879
269 1 0.167714 0.334344 0.506933
421 1 0.510691 0.32147 0.838648
400 1 0.507396 0.247888 0.914388
396 1 0.332688 0.258725 0.918392
419 1 0.428036 0.324343 0.917222
412 1 0.0128812 0.414696 0.92449
415 1 0.244906 0.333528 0.928972
398 1 0.587671 0.254858 0.826929
404 1 0.67036 0.25285 0.918115
242 1 0.0754756 0.258912 0.508984
427 1 0.760546 0.318674 0.931455
408 1 0.84213 0.245173 0.922393
429 1 0.844909 0.330842 0.8527
403 1 0.756854 0.176449 0.915789
416 1 0.154368 0.410836 0.919292
420 1 0.343024 0.39567 0.922375
407 1 0.922188 0.159632 0.926736
258 1 0.736163 0.248351 0.502246
277 1 0.508868 0.352097 0.502371
62 1 0.591299 0.417728 0.996375
233 1 0.653504 0.00263134 0.505341
254 1 0.584295 0.255056 0.509963
273 1 0.339147 0.34743 0.502152
26 1 0.078637 0.230114 0.995633
54 1 0.254715 0.423898 0.997627
245 1 0.157819 0.176683 0.50727
274 1 0.419928 0.427535 0.501606
282 1 0.757465 0.4317 0.51468
653 1 0.161635 0.492524 0.502574
257 1 0.670701 0.167234 0.50659
437 1 0.175109 0.499161 0.977536
29 1 0.156862 0.15659 0.992963
436 1 0.0148667 0.586688 0.0840637
625 1 0.992858 0.830729 0.333728
440 1 0.16946 0.578861 0.0747272
444 1 0.329351 0.564896 0.0862579
229 1 0.501365 0.993591 0.495599
167 1 0.904311 0.996277 0.417581
521 1 0.685885 0.500959 0.159044
467 1 0.416655 0.644702 0.0915448
494 1 0.576358 0.911844 0.000779887
89 1 0.663349 0.995131 0.157763
448 1 0.503924 0.579405 0.0678707
471 1 0.587339 0.670862 0.0734885
518 1 0.583697 0.5871 0.153582
648 1 0.82382 0.898535 0.409457
452 1 0.672704 0.57879 0.0784147
451 1 0.763107 0.507005 0.0770859
456 1 0.826922 0.587195 0.0830801
479 1 0.934097 0.665686 0.084646
526 1 0.944261 0.577045 0.172525
237 1 0.822204 0.991594 0.489107
459 1 0.0894007 0.662348 0.0831194
460 1 0.0201202 0.747168 0.0761367
483 1 0.0841218 0.8243 0.0772018
530 1 0.0930179 0.743025 0.159678
482 1 0.0790147 0.919399 0.00519607
464 1 0.175264 0.73725 0.0739429
463 1 0.249741 0.650819 0.0939849
468 1 0.348012 0.732481 0.112137
595 1 0.749391 0.51387 0.409125
527 1 0.927488 0.503062 0.26093
161 1 0.657128 0.999235 0.33542
565 1 0.494834 0.83575 0.183649
537 1 0.340656 0.644064 0.170891
538 1 0.432806 0.739104 0.18223
472 1 0.499334 0.762329 0.0872012
476 1 0.665141 0.75568 0.0709199
495 1 0.579597 0.843041 0.0823573
542 1 0.587416 0.755178 0.152236
569 1 0.662442 0.842353 0.170726
475 1 0.745062 0.671626 0.0540662
499 1 0.757174 0.829548 0.0715828
145 1 0.991132 0.987562 0.34001
480 1 0.841254 0.7428 0.0698332
550 1 0.91294 0.756925 0.157648
15 1 0.60653 0.998573 0.074197
488 1 0.164889 0.935238 0.105247
484 1 0.999439 0.937861 0.082023
654 1 0.241729 0.584036 0.486478
163 1 0.746332 0.995644 0.41093
487 1 0.2529 0.823518 0.0918455
455 1 0.906732 0.513699 0.0771657
481 1 0.0109954 0.844244 0.000221762
493 1 0.491822 0.83316 0.00622328
492 1 0.330288 0.90954 0.0918101
491 1 0.415916 0.823705 0.107415
561 1 0.324949 0.827826 0.168154
81 1 0.341862 0.999675 0.163361
91 1 0.761149 0.981691 0.254815
496 1 0.50608 0.928717 0.0900382
566 1 0.57773 0.92704 0.170888
647 1 0.90756 0.819278 0.417396
500 1 0.674192 0.914563 0.0838025
504 1 0.839788 0.922395 0.0749756
570 1 0.758673 0.914544 0.155796
462 1 0.277526 0.730871 0.0258344
599 1 0.921195 0.515526 0.415434
503 1 0.92707 0.842192 0.0796882
93 1 0.833918 0.996035 0.163615
506 1 0.0955701 0.582715 0.167475
508 1 0.00599727 0.574977 0.252294
605 1 0.146156 0.681283 0.350104
490 1 0.418936 0.914575 0.0234047
510 1 0.230442 0.568875 0.170841
512 1 0.154766 0.568834 0.264507
582 1 0.245109 0.592799 0.341177
516 1 0.330789 0.571817 0.246321
533 1 0.16907 0.660496 0.183965
717 1 0.812586 0.827035 0.488804
9 1 0.333974 0.993717 0.0173311
624 1 0.817427 0.750144 0.415269
514 1 0.415043 0.582729 0.177059
539 1 0.415967 0.663751 0.258734
586 1 0.413565 0.571486 0.329713
613 1 0.499785 0.651743 0.338398
609 1 0.329126 0.664425 0.321814
447 1 0.582415 0.510014 0.0782826
520 1 0.502101 0.56966 0.25604
543 1 0.574432 0.659541 0.248919
590 1 0.581455 0.581164 0.326286
541 1 0.509189 0.669209 0.151312
693 1 0.823882 0.666113 0.478132
522 1 0.738943 0.603987 0.150024
524 1 0.662338 0.582224 0.236866
594 1 0.748401 0.58657 0.332429
643 1 0.740131 0.819361 0.408276
528 1 0.822111 0.576808 0.230531
598 1 0.914983 0.589044 0.313964
529 1 0.00685452 0.669301 0.168581
501 1 0.844674 0.832016 0.00818013
645 1 0.833695 0.830533 0.326126
644 1 0.666968 0.917756 0.410801
531 1 0.0850286 0.662225 0.251162
536 1 0.152032 0.752573 0.250679
532 1 0.0154572 0.758392 0.228886
602 1 0.081268 0.758307 0.329699
601 1 0.999414 0.673691 0.323215
534 1 0.245995 0.731952 0.165375
535 1 0.247132 0.647094 0.248235
540 1 0.333103 0.747414 0.241001
559 1 0.241791 0.834497 0.246398
629 1 0.159697 0.82627 0.329285
610 1 0.408102 0.746222 0.34643
544 1 0.503723 0.749893 0.261757
563 1 0.417166 0.824186 0.254251
637 1 0.499002 0.832332 0.336365
545 1 0.664242 0.67039 0.145795
614 1 0.582536 0.731357 0.32659
548 1 0.6664 0.762773 0.256839
546 1 0.742324 0.765707 0.149526
549 1 0.832237 0.663882 0.141865
547 1 0.732779 0.678029 0.239823
571 1 0.747978 0.838089 0.238844
617 1 0.674224 0.654027 0.32594
552 1 0.828586 0.735803 0.228927
621 1 0.833664 0.659371 0.316987
551 1 0.913738 0.673093 0.237061
553 1 0.0116173 0.849532 0.160126
622 1 0.911932 0.740183 0.317191
554 1 0.0796381 0.932989 0.169987
555 1 0.088873 0.851784 0.252596
626 1 0.0927396 0.920299 0.345117
560 1 0.168928 0.918761 0.251557
556 1 0.996989 0.910505 0.25833
558 1 0.251794 0.91352 0.168025
557 1 0.163107 0.833937 0.164113
564 1 0.332021 0.90872 0.253481
630 1 0.256957 0.92019 0.332599
633 1 0.341157 0.830722 0.337802
562 1 0.407154 0.910632 0.174683
639 1 0.573243 0.83176 0.407604
631 1 0.264694 0.831486 0.41341
568 1 0.486313 0.909795 0.262545
567 1 0.578188 0.840438 0.250232
638 1 0.564821 0.923814 0.338958
572 1 0.669438 0.925857 0.247563
634 1 0.408869 0.916537 0.340033
636 1 0.330118 0.916949 0.419266
642 1 0.751052 0.906952 0.32399
165 1 0.835592 0.988144 0.330169
576 1 0.841142 0.912122 0.234577
573 1 0.837549 0.836171 0.164406
574 1 0.921123 0.91697 0.168201
575 1 0.926846 0.824476 0.23538
646 1 0.907649 0.903442 0.323255
578 1 0.0766292 0.587832 0.339401
584 1 0.161673 0.580123 0.403983
603 1 0.0753663 0.677099 0.423509
698 1 0.0722348 0.909057 0.494024
607 1 0.254875 0.6638 0.422075
588 1 0.337271 0.591242 0.410709
486 1 0.242449 0.908637 0.0185031
628 1 0.992859 0.892546 0.411033
611 1 0.424019 0.664515 0.421631
5 1 0.171231 0.993687 0.00513103
690 1 0.730456 0.747142 0.492218
592 1 0.496371 0.575826 0.417074
615 1 0.580001 0.660956 0.423081
618 1 0.761857 0.740597 0.31783
577 1 0.000682575 0.512819 0.338526
596 1 0.659289 0.573071 0.421121
600 1 0.83523 0.575361 0.409349
619 1 0.745667 0.669459 0.410601
604 1 0.988875 0.740517 0.40416
640 1 0.492803 0.930812 0.410597
580 1 0.008015 0.595186 0.426295
632 1 0.178702 0.918508 0.41242
627 1 0.0728934 0.822815 0.405997
686 1 0.592896 0.734039 0.497182
612 1 0.314795 0.745631 0.395184
608 1 0.179246 0.762006 0.418905
606 1 0.232679 0.736248 0.312972
616 1 0.507668 0.732271 0.412779
635 1 0.419641 0.841098 0.413361
623 1 0.914271 0.66078 0.40833
641 1 0.657112 0.864292 0.321841
620 1 0.657895 0.744735 0.40044
443 1 0.419569 0.50001 0.0711093
694 1 0.906931 0.737715 0.488451
669 1 0.833249 0.506875 0.495674
710 1 0.576697 0.913035 0.475474
517 1 0.501236 0.504649 0.161352
713 1 0.644554 0.82501 0.48859
87 1 0.57307 0.99433 0.245888
682 1 0.402864 0.743529 0.490881
689 1 0.66402 0.65773 0.494244
95 1 0.909998 0.99636 0.252368
502 1 0.918447 0.925406 0.00138851
519 1 0.585608 0.500583 0.248372
718 1 0.90406 0.899729 0.48388
593 1 0.681025 0.511964 0.320969
709 1 0.498361 0.835194 0.48653
438 1 0.259327 0.582977 0.000821125
489 1 0.340669 0.828764 0.020227
697 1 0.985947 0.80682 0.489463
673 1 0.998428 0.679012 0.498102
217 1 0.983224 0.977273 0.489939
433 1 0.00289145 0.506623 0.0110922
674 1 0.0794595 0.75208 0.498389
469 1 0.493293 0.669826 0.00371312
702 1 0.249757 0.90874 0.492861
498 1 0.763105 0.932439 0.0105188
485 1 0.153069 0.84043 0.00222392
478 1 0.92722 0.757037 0.00426358
434 1 0.0907084 0.570239 0.00197719
677 1 0.165773 0.659373 0.479739
656 1 0.169604 0.575804 0.581411
235 1 0.749981 0.995299 0.574365
815 1 0.922724 0.518593 0.91577
239 1 0.902046 0.985672 0.588161
307 1 0.745063 0.98341 0.75616
660 1 0.343825 0.592265 0.591683
664 1 0.516246 0.584788 0.591309
477 1 0.834617 0.673108 0.994681
650 1 0.0743591 0.588122 0.512858
668 1 0.66844 0.585913 0.578474
761 1 0.662433 0.684869 0.67617
672 1 0.85001 0.590488 0.588153
691 1 0.744804 0.658932 0.587686
738 1 0.735669 0.593884 0.662026
473 1 0.667976 0.679935 0.967841
652 1 0.00760951 0.593069 0.59863
695 1 0.931496 0.678914 0.583745
742 1 0.916822 0.593785 0.675039
675 1 0.0935028 0.67555 0.57005
746 1 0.114471 0.751358 0.659159
799 1 0.257965 0.504164 0.909062
369 1 0.320276 0.98463 0.828301
680 1 0.173519 0.757614 0.577163
679 1 0.234247 0.672212 0.5763
684 1 0.336323 0.765525 0.583905
703 1 0.255103 0.835574 0.580588
659 1 0.419302 0.5034 0.58345
223 1 0.240645 0.986991 0.576472
297 1 0.328641 0.984335 0.674674
683 1 0.410824 0.676843 0.577138
688 1 0.482815 0.759186 0.579301
707 1 0.410925 0.835254 0.588257
667 1 0.768842 0.510834 0.598781
731 1 0.437196 0.513835 0.762603
811 1 0.766332 0.511177 0.912675
687 1 0.575214 0.677658 0.576481
711 1 0.570972 0.816269 0.566194
692 1 0.667868 0.75334 0.574392
696 1 0.816396 0.726518 0.581936
676 1 0.00473487 0.750875 0.588714
461 1 0.170764 0.662754 0.993795
699 1 0.0813284 0.821744 0.584034
770 1 0.0680621 0.913894 0.65395
862 1 0.911641 0.91066 0.837917
17 1 0.660704 0.997674 0.982537
704 1 0.16709 0.905904 0.581457
708 1 0.333393 0.916584 0.582178
864 1 0.840974 0.919865 0.931569
781 1 0.504232 0.824926 0.66457
712 1 0.498417 0.909057 0.571902
863 1 0.921605 0.840436 0.92221
813 1 0.84449 0.503937 0.833867
474 1 0.745715 0.752936 0.985116
457 1 0.00918495 0.651331 0.999438
860 1 0.682694 0.917631 0.91337
293 1 0.148026 0.985503 0.651363
716 1 0.645715 0.900786 0.580311
715 1 0.736438 0.835342 0.592326
309 1 0.828212 0.997643 0.665402
231 1 0.571627 0.990155 0.571747
299 1 0.421216 0.989456 0.747934
719 1 0.895096 0.815898 0.572986
700 1 0.986174 0.890261 0.56937
720 1 0.826792 0.907121 0.589373
769 1 0.988242 0.827787 0.65717
790 1 0.916708 0.912518 0.660778
722 1 0.0812753 0.601658 0.669023
817 1 0.00991737 0.692612 0.820032
794 1 0.080295 0.58545 0.833005
797 1 0.166705 0.510668 0.829041
728 1 0.167638 0.59227 0.759768
726 1 0.252231 0.590093 0.683932
733 1 0.512272 0.502289 0.664987
295 1 0.236153 0.988393 0.75431
732 1 0.339816 0.579528 0.756521
730 1 0.428407 0.578878 0.673588
857 1 0.658151 0.842563 0.831806
859 1 0.761308 0.837657 0.913169
442 1 0.419081 0.578649 0.989862
734 1 0.602087 0.590036 0.667244
757 1 0.501592 0.674603 0.668366
852 1 0.327777 0.902286 0.939515
736 1 0.519302 0.586919 0.742618
371 1 0.386016 0.998038 0.912897
740 1 0.675253 0.59561 0.749954
744 1 0.835038 0.587127 0.753933
856 1 0.497498 0.922666 0.908074
724 1 0.00168909 0.581882 0.755999
767 1 0.920099 0.69678 0.7422
814 1 0.926554 0.609393 0.811757
836 1 0.679294 0.75779 0.893607
747 1 0.0881804 0.675615 0.742842
748 1 0.0128781 0.757987 0.73041
771 1 0.0792636 0.842262 0.752572
749 1 0.187601 0.670711 0.674448
752 1 0.16157 0.762109 0.750903
750 1 0.257956 0.758175 0.661589
751 1 0.238008 0.685272 0.768141
775 1 0.246629 0.835456 0.741588
753 1 0.327842 0.663015 0.691503
756 1 0.325075 0.755964 0.747905
754 1 0.410287 0.738571 0.669551
826 1 0.406971 0.746286 0.832514
755 1 0.43127 0.647941 0.754052
760 1 0.494782 0.746832 0.751821
759 1 0.582837 0.680744 0.749426
758 1 0.581098 0.74693 0.649948
783 1 0.57561 0.829809 0.748213
762 1 0.743087 0.758642 0.659138
765 1 0.834973 0.658547 0.668132
764 1 0.66862 0.757779 0.768543
763 1 0.754011 0.682142 0.741547
787 1 0.74702 0.838343 0.750847
789 1 0.835425 0.834593 0.674853
745 1 0.00382633 0.671259 0.679012
768 1 0.839242 0.766419 0.749961
766 1 0.896308 0.743669 0.654255
838 1 0.924591 0.75708 0.825123
851 1 0.420166 0.837191 0.927722
773 1 0.166639 0.84408 0.667727
776 1 0.14987 0.918054 0.743078
772 1 0.00277258 0.91565 0.758045
841 1 0.997121 0.842878 0.841923
843 1 0.0809774 0.839051 0.917733
774 1 0.24762 0.915021 0.656291
777 1 0.335076 0.835041 0.668297
780 1 0.334801 0.896008 0.75528
849 1 0.329904 0.826168 0.84562
778 1 0.422711 0.907401 0.661479
848 1 0.172176 0.906838 0.92835
779 1 0.414345 0.818869 0.746282
842 1 0.0797938 0.927154 0.844627
782 1 0.577685 0.913388 0.676712
784 1 0.491609 0.910217 0.76268
854 1 0.588208 0.92712 0.847568
785 1 0.65567 0.831057 0.669781
786 1 0.740519 0.922737 0.657041
788 1 0.661451 0.909642 0.750263
858 1 0.759862 0.915262 0.830484
791 1 0.910844 0.837916 0.747354
792 1 0.830646 0.911126 0.745997
861 1 0.837076 0.833708 0.83707
844 1 0.991611 0.92751 0.913573
800 1 0.16804 0.575951 0.911736
796 1 0.00244365 0.586194 0.913589
470 1 0.583363 0.759924 0.995003
798 1 0.258418 0.592223 0.832928
804 1 0.322281 0.588112 0.914767
802 1 0.435885 0.572283 0.8555
825 1 0.317021 0.674141 0.821469
837 1 0.827475 0.671128 0.818983
850 1 0.397085 0.912091 0.842464
806 1 0.584491 0.579764 0.838095
834 1 0.767267 0.751479 0.8325
808 1 0.516779 0.577971 0.928789
833 1 0.666846 0.667988 0.846813
839 1 0.924242 0.669079 0.915254
729 1 0.337078 0.514067 0.673117
847 1 0.246554 0.830237 0.938933
812 1 0.677643 0.581161 0.916021
810 1 0.746486 0.591255 0.834534
835 1 0.760219 0.663821 0.907277
816 1 0.839171 0.585763 0.907929
818 1 0.0939294 0.749001 0.832016
819 1 0.0835811 0.65561 0.91813
821 1 0.158755 0.665517 0.834714
820 1 0.995259 0.763668 0.917341
458 1 0.0815979 0.740164 0.989269
845 1 0.166244 0.843761 0.828711
824 1 0.156439 0.767902 0.916887
822 1 0.237562 0.756851 0.839172
823 1 0.250434 0.67389 0.924951
827 1 0.423756 0.669853 0.910176
829 1 0.511828 0.667545 0.83345
828 1 0.329218 0.747173 0.923746
832 1 0.493094 0.749561 0.930658
846 1 0.246047 0.907625 0.841297
853 1 0.490011 0.82337 0.83199
830 1 0.585726 0.75838 0.838702
855 1 0.572155 0.837137 0.915603
831 1 0.575526 0.66696 0.923409
840 1 0.837738 0.755162 0.915764
367 1 0.247165 0.989033 0.920958
219 1 0.0706062 0.99346 0.570399
737 1 0.673732 0.500369 0.666414
721 1 0.985069 0.504104 0.665098
311 1 0.916342 0.997874 0.739396
446 1 0.588981 0.588421 0.998758
289 1 0.990381 0.992506 0.644586
450 1 0.744907 0.582297 0.991627
375 1 0.568052 0.993808 0.928754
678 1 0.249428 0.75817 0.500908
666 1 0.757074 0.572169 0.515317
741 1 0.843741 0.504595 0.683718
227 1 0.412742 0.99223 0.587476
655 1 0.256965 0.506324 0.604932
727 1 0.260458 0.506347 0.761969
725 1 0.169185 0.508411 0.668779
809 1 0.673886 0.514238 0.824619
723 1 0.0807383 0.500154 0.73181
365 1 0.157626 0.991967 0.838807
377 1 0.672785 0.998745 0.833036
735 1 0.59049 0.509134 0.73928
454 1 0.917047 0.585543 0.996318
497 1 0.667489 0.836151 0.989253
681 1 0.332332 0.660559 0.50057
662 1 0.57518 0.590092 0.508216
658 1 0.412865 0.580027 0.503417
465 1 0.344115 0.65429 0.99541
466 1 0.415185 0.75309 0.998078
657 1 0.336161 0.504435 0.501091
701 1 0.167737 0.838003 0.502525
705 1 0.340154 0.837531 0.50656
670 1 0.921946 0.600484 0.506553
714 1 0.7353 0.908161 0.502034
649 1 0.999842 0.511891 0.522331
665 1 0.679954 0.507496 0.508672
453 1 0.8397 0.506023 0.985455
441 1 0.338998 0.504756 0.978238
221 1 0.156355 0.987921 0.510184
685 1 0.493132 0.664491 0.512764
706 1 0.415732 0.920268 0.508896
