ITEM: TIMESTEP
21000
ITEM: NUMBER OF ATOMS
1372
ITEM: BOX BOUNDS pp pp pp
0.0000000000000000e+00 3.6820000000000000e+01
0.0000000000000000e+00 3.6820000000000000e+01
0.0000000000000000e+00 3.6820000000000000e+01
ITEM: ATOMS id type xs ys zs
8 1 0.142045 0.0758174 0.0714896
100 1 0.0531048 0.0698992 0.139127
17 1 0.0783317 0.150522 0.0781638
3 1 0.0806138 0.99288 0.0840485
1016 1 0.49977 0.785738 0.438423
281 1 -0.016348 0.862255 0.283504
12 1 0.280409 0.0742553 0.0688155
104 1 0.205525 0.0720095 0.161824
107 1 0.277999 1.00542 0.156427
364 1 0.421468 0.354135 0.499852
4 1 0.00372963 0.0798425 0.0671797
108 1 0.3527 0.0667136 0.152966
14 1 0.416542 0.0717576 0.0639578
25 1 0.344143 0.143977 0.0817378
125 1 0.417045 0.145834 0.133848
11 1 0.337966 0.00259973 0.072272
111 1 0.416427 0.00273263 0.139981
183 1 0.000501611 0.845974 0.151599
369 1 0.360451 0.430001 0.500875
301 1 0.417213 0.0059621 0.419835
22 1 0.143401 0.218841 0.0726264
114 1 0.075312 0.232592 0.149387
117 1 0.149525 0.139471 0.148395
343 1 0.419461 0.85473 0.41892
377 1 0.276705 0.639813 0.495694
21 1 0.213855 0.133495 0.0691408
121 1 0.280823 0.131477 0.144047
26 1 0.287478 0.218268 0.0719176
118 1 0.220725 0.209977 0.134276
141 1 0.0155872 0.4227 0.145938
135 1 0.282526 0.292101 0.13508
35 1 0.22131 0.292939 0.069593
758 1 0.501929 0.711325 0.0785684
28 1 0.41811 0.204071 0.067927
122 1 0.356954 0.227522 0.139517
139 1 0.426153 0.287425 0.125787
39 1 0.361133 0.281826 0.0672921
968 1 0.505634 0.873551 0.370227
384 1 0.279396 0.786266 0.495496
131 1 0.16128 0.295212 0.135334
31 1 0.0845532 0.29541 0.0694292
36 1 0.153903 0.363744 0.0732421
128 1 0.0836584 0.342303 0.145844
45 1 0.0731495 0.427631 0.0593192
145 1 0.129934 0.427576 0.141591
940 1 0.496082 0.571437 0.353318
925 1 0.497256 0.507463 0.293298
40 1 0.296849 0.348272 0.0672421
132 1 0.217318 0.367658 0.145746
49 1 0.233497 0.430305 0.0772156
42 1 0.428598 0.363385 0.0686937
136 1 0.356487 0.36163 0.145286
53 1 0.358656 0.424789 0.0714611
716 1 0.509871 0.266697 0.0666448
349 1 0.259496 0.0747666 0.509754
50 1 0.140754 0.498791 0.0852672
142 1 0.076539 0.506154 0.141926
1058 1 0.503269 0.573801 0.508458
841 1 0.501522 0.6466 0.151763
149 1 0.287868 0.43825 0.144525
54 1 0.286132 0.495773 0.0718244
146 1 0.215836 0.504732 0.148107
63 1 0.208052 0.568823 0.0706727
294 1 0.430487 0.928484 0.34911
153 1 0.432643 0.435781 0.12577
56 1 0.434313 0.513673 0.0533912
150 1 0.359514 0.491663 0.137666
800 1 0.510948 0.145641 0.207753
392 1 0.432743 0.930463 0.48183
270 1 0.00359825 0.791364 0.381965
59 1 0.079369 0.573662 0.0713132
159 1 0.146246 0.583518 0.141043
64 1 0.155756 0.64836 0.0593397
156 1 0.0790329 0.64111 0.131771
173 1 0.14358 0.723854 0.148864
10 1 0.35113 0.0818173 -0.00395689
163 1 0.285834 0.561793 0.132312
68 1 0.28534 0.636408 0.0725784
160 1 0.213944 0.645805 0.139667
67 1 0.363671 0.570241 0.0664745
167 1 0.436715 0.575385 0.138183
70 1 0.435219 0.641704 0.0770707
164 1 0.352644 0.63846 0.140497
81 1 0.352747 0.713593 0.0733608
897 1 0.497191 0.213868 0.273213
73 1 0.0694143 0.713851 0.0700068
78 1 0.146787 0.78887 0.0743992
170 1 0.072307 0.782123 0.137775
177 1 0.286594 0.708652 0.140916
77 1 0.219471 0.714772 0.0722057
82 1 0.295941 0.775885 0.0702864
174 1 0.223349 0.781102 0.142247
191 1 0.29541 0.849567 0.142177
88 1 0.00857344 0.929442 0.0713973
181 1 0.434871 0.708064 0.148609
84 1 0.43323 0.777429 0.0867105
178 1 0.360433 0.785738 0.141611
744 1 0.513847 0.567498 0.0861006
1002 1 0.507318 0.501646 0.422698
187 1 0.140878 0.846601 0.156434
87 1 0.0693945 0.853201 0.064282
103 1 0.14511 0.00195069 0.139904
92 1 0.148475 0.924785 0.0790692
184 1 0.0762072 0.911811 0.142216
46 1 0.00367449 0.491232 0.0771359
348 1 0.348881 -0.000254929 0.504591
7 1 0.211174 -0.000439505 0.07075
91 1 0.220508 0.849705 0.08129
96 1 0.281051 0.923682 0.0905516
188 1 0.20554 0.926736 0.153464
278 1 0.292308 0.79033 0.370201
113 1 0.00490752 0.15069 0.139446
95 1 0.370133 0.849955 0.0749789
195 1 0.430305 0.862294 0.149732
98 1 0.425166 0.933782 0.0698866
192 1 0.347022 0.922698 0.140868
287 1 0.214641 0.856893 0.348135
342 1 0.356875 0.940382 0.420781
106 1 0.133909 0.0696549 0.217769
198 1 0.0575014 0.0535672 0.290893
215 1 0.138869 0.149547 0.284639
101 1 0.0631944 0.982205 0.205019
201 1 0.124251 0.99017 0.274713
110 1 0.290254 0.068457 0.219855
202 1 0.19949 0.0763594 0.275578
105 1 0.201192 1.00611 0.219705
205 1 0.278786 -0.0022519 0.283079
112 1 0.436337 0.0819231 0.213429
206 1 0.355515 0.0730403 0.27457
109 1 0.355193 -0.0125337 0.215714
331 1 0.0828241 0.790994 0.433576
115 1 0.0640508 0.123656 0.216269
120 1 0.146451 0.225604 0.212018
212 1 0.0709778 0.210992 0.283701
129 1 0.0702874 0.282967 0.220014
119 1 0.2109 0.156493 0.21487
219 1 0.282525 0.145042 0.285392
124 1 0.294172 0.214593 0.207018
216 1 0.212969 0.225649 0.28136
123 1 0.366611 0.151596 0.20778
223 1 0.425699 0.147707 0.277711
126 1 0.431599 0.224687 0.207961
220 1 0.352488 0.227302 0.28814
237 1 0.427377 0.298065 0.270049
137 1 0.350257 0.297404 0.211534
274 1 0.155535 0.778119 0.357417
229 1 0.138921 0.296368 0.279708
134 1 0.151524 0.368578 0.218385
226 1 0.0730429 0.364444 0.282357
371 1 0.432723 0.502281 0.492685
233 1 0.286386 0.282118 0.273745
133 1 0.209037 0.284024 0.208908
138 1 0.278686 0.355166 0.216552
230 1 0.217555 0.352412 0.288668
341 1 0.279344 0.862488 0.425503
140 1 0.432581 0.36369 0.200697
234 1 0.347039 0.36322 0.28322
151 1 0.360905 0.427207 0.206003
340 1 0.215348 0.936909 0.412473
302 1 0.00668886 0.137239 0.432629
292 1 0.287889 0.926429 0.355523
243 1 0.152623 0.42878 0.284595
143 1 0.0684129 0.438105 0.226423
148 1 0.137813 0.50488 0.219151
240 1 0.0576242 0.504498 0.289085
799 1 0.50017 0.213186 0.138668
147 1 0.22852 0.440037 0.218312
247 1 0.283511 0.433558 0.291423
152 1 0.295841 0.512659 0.22649
244 1 0.214928 0.497901 0.292943
261 1 0.283131 0.583675 0.292723
18 1 0.0102819 0.214806 0.0664739
79 1 0.277171 0.717361 -0.00140935
251 1 0.422784 0.421897 0.292002
154 1 0.42488 0.503854 0.216922
248 1 0.367636 0.498624 0.294687
165 1 0.359703 0.574145 0.201042
265 1 0.438523 0.586115 0.283764
157 1 0.0630649 0.581291 0.220165
257 1 0.145962 0.565175 0.284568
162 1 0.136399 0.654647 0.224308
254 1 0.0557147 0.644641 0.295154
271 1 0.134292 0.711867 0.29532
171 1 0.0616358 0.724462 0.211351
161 1 0.208723 0.587711 0.22023
166 1 0.286559 0.634699 0.208556
258 1 0.216577 0.648885 0.283615
954 1 0.518707 0.706657 0.353909
168 1 0.427475 0.635326 0.209814
262 1 0.369494 0.653716 0.282178
390 1 0.333511 0.856023 0.494825
199 1 0.0512498 0.992907 0.357727
702 1 0.504104 0.148055 0.0722064
176 1 0.136865 0.779746 0.219352
268 1 0.0729803 0.793164 0.293932
185 1 0.0737353 0.860988 0.219769
275 1 0.286369 0.714529 0.271841
175 1 0.216749 0.71691 0.215683
180 1 0.291553 0.780938 0.207454
272 1 0.211477 0.787072 0.276431
279 1 0.435744 0.722263 0.302347
179 1 0.371537 0.714074 0.211649
182 1 0.427213 0.791458 0.207911
276 1 0.370181 0.793302 0.283122
336 1 0.437938 0.717411 0.427101
288 1 0.133271 0.946109 0.355926
285 1 0.137211 0.851023 0.292241
190 1 0.136283 0.923128 0.221568
282 1 0.0666551 0.919314 0.297312
189 1 0.213111 0.852544 0.211505
289 1 0.286337 0.845417 0.288528
194 1 0.284459 0.921912 0.22164
286 1 0.210018 0.931159 0.284503
338 1 0.0771119 0.947682 0.438382
209 1 0.437826 1.01531 0.278353
193 1 0.358383 0.865031 0.214804
293 1 0.427636 0.861099 0.27563
196 1 0.432482 0.945579 0.205733
290 1 0.36085 0.931522 0.295157
339 1 0.147379 0.87281 0.415658
297 1 0.141404 1.01567 0.432467
204 1 0.135352 0.06793 0.347214
296 1 0.0572021 0.0638264 0.440078
304 1 0.120729 0.127543 0.42341
299 1 0.282992 0.0132013 0.418846
208 1 0.269448 0.0701235 0.34661
298 1 0.204572 0.0843619 0.414949
217 1 0.213539 0.143081 0.345888
203 1 0.217446 -0.00193583 0.346065
207 1 0.362562 0.00898711 0.350199
210 1 0.426871 0.0738356 0.353627
300 1 0.35024 0.0735756 0.426145
283 1 0.0704951 0.866649 0.372408
13 1 0.433259 -0.00254003 -0.00421541
60 1 -0.0055697 0.639283 0.0769968
213 1 0.0638779 0.137511 0.3497
218 1 0.140692 0.214598 0.353693
303 1 0.0759753 0.214095 0.423457
311 1 0.147671 0.288924 0.415741
227 1 0.076876 0.296443 0.356971
266 1 0.440487 0.647029 0.357595
306 1 0.280924 0.132477 0.429191
222 1 0.283203 0.210019 0.356062
305 1 0.213464 0.218483 0.427182
231 1 0.223083 0.287326 0.350658
328 1 0.36648 0.646234 0.426776
308 1 0.424421 0.153339 0.416424
221 1 0.361384 0.142048 0.342931
224 1 0.423536 0.226258 0.350139
307 1 0.353723 0.208338 0.433389
273 1 0.226683 0.713464 0.351253
335 1 0.363419 0.779723 0.420613
291 1 0.354343 0.84686 0.350819
310 1 0.070963 0.348684 0.431973
232 1 0.139588 0.364282 0.350204
330 1 0.00666078 0.713264 0.437224
313 1 0.273871 0.289783 0.442227
236 1 0.27765 0.358694 0.361529
312 1 0.212012 0.367046 0.431057
320 1 0.295475 0.413504 0.436494
898 1 0.500121 0.151441 0.359068
315 1 0.431472 0.287626 0.422055
235 1 0.35092 0.288642 0.362879
238 1 0.425247 0.349633 0.348659
314 1 0.364789 0.346011 0.43365
318 1 0.126753 0.423515 0.4224
241 1 0.0716581 0.429461 0.343798
255 1 0.0719453 0.573794 0.359668
246 1 0.14222 0.495078 0.369289
317 1 0.0624764 0.489443 0.429899
280 1 0.446188 0.79157 0.357425
245 1 0.206475 0.421084 0.356641
327 1 0.294283 0.572912 0.412779
319 1 0.220182 0.497825 0.414099
250 1 0.288467 0.504032 0.34259
379 1 0.0845346 0.713111 0.496281
329 1 0.436796 0.570754 0.425865
263 1 0.384172 0.561853 0.354603
322 1 0.42851 0.411747 0.425006
249 1 0.352906 0.425421 0.358142
252 1 0.438077 0.482719 0.360732
321 1 0.354217 0.498959 0.422784
324 1 0.0813336 0.649378 0.424617
325 1 0.141213 0.569724 0.425062
260 1 0.154665 0.63949 0.356272
332 1 0.156216 0.717263 0.427928
269 1 0.065274 0.732711 0.358152
334 1 0.275431 0.706556 0.425006
277 1 0.361124 0.725599 0.352921
264 1 0.303073 0.651509 0.348819
326 1 0.223766 0.63994 0.419505
259 1 0.216967 0.572775 0.358201
333 1 0.219069 0.791204 0.423965
372 1 0.08289 0.568853 0.499592
388 1 0.213754 0.868501 0.499421
1009 1 0.500623 0.635076 0.422922
225 1 -0.00578896 0.293892 0.278845
381 1 0.203367 0.708551 0.506384
883 1 0.497588 0.0881744 0.284764
350 1 0.43035 0.0660898 0.509545
102 1 -0.00784474 0.0600847 0.219684
228 1 -0.00554541 0.352145 0.364216
911 1 0.500064 0.354337 0.27855
72 1 0.071897 0.777888 -0.00578274
24 1 0.351431 0.209447 -0.00355995
23 1 0.2812 0.138793 -0.00656273
86 1 0.0757974 0.936488 -0.00296646
80 1 0.363178 0.795266 -0.00389697
89 1 0.144873 0.861114 0.00156799
19 1 0.139862 0.154291 -0.011493
27 1 0.432383 0.141321 -0.000585089
33 1 0.148991 0.28095 -0.00248131
90 1 0.222227 0.921031 0.0135693
373 1 0.0115431 0.646429 0.49784
346 1 0.202925 0.00865621 0.500404
52 1 0.361173 0.505713 -0.0113971
58 1 0.0700905 0.653144 0.00903474
1072 1 0.486344 0.852825 0.492557
378 1 0.431375 0.631916 0.491603
75 1 0.150866 0.721611 0.00117916
354 1 0.153875 0.21608 0.503904
20 1 0.212339 0.206353 0.0140245
358 1 0.0805383 0.27756 0.493214
771 1 0.498012 0.928493 0.00682737
9 1 0.281263 0.997416 -0.00173808
376 1 0.348623 0.579503 0.497321
368 1 0.145635 0.484879 0.501722
1051 1 0.499905 0.428027 0.492213
391 1 0.27609 0.938925 0.500211
15 1 0.0242243 0.139051 -0.00739574
48 1 0.206637 0.497445 0.0147616
97 1 0.429293 0.85791 -0.000474632
93 1 0.292751 0.863405 0.0190378
1030 1 0.494399 1.00801 0.499511
743 1 0.499801 0.647685 0.00660295
386 1 0.0689629 0.864157 0.50885
370 1 0.283486 0.508353 0.487004
394 1 0.0590388 0.0690448 0.581849
400 1 0.128325 0.0624214 0.652762
411 1 0.139098 0.132105 0.570157
409 1 0.0693032 0.154839 0.644922
1094 1 0.511063 0.129419 0.651663
1150 1 0.493177 0.713791 0.633003
397 1 0.131516 1.00147 0.580673
360 1 0.214375 0.284899 0.520112
44 1 0.0676739 0.493146 0.998672
466 1 -0.00328773 0.77765 0.623879
398 1 0.197614 0.0644574 0.582245
404 1 0.279759 0.074513 0.641495
399 1 0.201526 0.999494 0.651493
413 1 0.198115 0.133937 0.658972
5 1 0.151617 0.999234 0.995515
16 1 0.0769006 0.223049 1.00496
402 1 0.359287 0.079492 0.571404
406 1 0.436248 0.0795709 0.64039
601 1 0.452831 -0.00301839 0.870541
599 1 0.367788 0.996529 0.921894
662 1 -0.00776312 0.77012 0.919968
408 1 0.0764727 0.217366 0.570957
425 1 0.138758 0.298269 0.586282
423 1 0.07351 0.298355 0.649814
83 1 0.421341 0.71671 1.00678
686 1 0.434883 0.923166 0.925444
345 1 0.00494146 0.0747071 0.511689
415 1 0.281328 0.144063 0.558808
412 1 0.202176 0.210833 0.582715
418 1 0.284083 0.206014 0.639397
429 1 0.287084 0.278936 0.578219
427 1 0.222472 0.28616 0.657269
1149 1 0.487557 0.769066 0.563543
419 1 0.433525 0.136269 0.57191
417 1 0.370537 0.148776 0.637315
416 1 0.352703 0.208525 0.570215
420 1 0.433897 0.213425 0.64515
431 1 0.362895 0.279958 0.635267
603 1 0.00038503 0.145684 0.855695
355 1 0.365761 0.144127 0.500095
422 1 0.0710669 0.366412 0.58106
428 1 0.141624 0.356978 0.656637
437 1 0.0757244 0.427704 0.656943
682 1 0.360149 0.925076 0.863674
522 1 -0.00713668 0.360343 0.783583
426 1 0.220101 0.360895 0.589332
432 1 0.294269 0.350972 0.64822
443 1 0.283965 0.427359 0.571033
441 1 0.208426 0.433514 0.644435
634 1 0.00105444 0.504669 0.930076
1317 1 0.497842 0.508593 0.850195
433 1 0.440197 0.282184 0.572309
430 1 0.352387 0.350865 0.573494
434 1 0.436594 0.34797 0.64619
445 1 0.358393 0.416241 0.638032
1136 1 0.499122 0.580345 0.646743
1332 1 0.506306 0.571877 0.929226
344 1 0.0593892 0.999197 0.512744
389 1 0.138294 0.927974 0.4962
477 1 -0.0141876 0.863482 0.56431
439 1 0.14282 0.433233 0.582795
463 1 -0.000287012 0.700496 0.563649
436 1 0.063409 0.485052 0.569218
442 1 0.149464 0.513803 0.656205
440 1 0.216685 0.511602 0.575958
446 1 0.292917 0.502542 0.639995
455 1 0.220488 0.56375 0.651542
575 1 0.00588615 0.834801 0.714124
673 1 0.0158952 0.844359 0.859533
447 1 0.429307 0.41446 0.572126
444 1 0.350697 0.498431 0.56265
448 1 0.4266 0.500677 0.633972
1233 1 0.495691 0.641931 0.716317
424 1 -0.0031043 0.358675 0.636578
1275 1 0.499862 0.0864654 0.857822
351 1 0.0773846 0.148462 0.499067
453 1 0.128201 0.558264 0.570675
451 1 0.0678089 0.566674 0.639042
450 1 0.0772375 0.640442 0.569074
456 1 0.140117 0.625392 0.646031
467 1 0.147034 0.719795 0.586492
679 1 0.221949 0.852476 0.935068
457 1 0.289441 0.569562 0.569861
454 1 0.21359 0.649421 0.575979
460 1 0.278887 0.643498 0.647847
459 1 0.359834 0.567673 0.64196
461 1 0.426069 0.566873 0.56374
458 1 0.356335 0.638332 0.578198
462 1 0.429653 0.646164 0.638211
595 1 0.205558 0.98518 0.922163
597 1 0.28425 0.983406 0.858331
1065 1 0.493938 0.703437 0.496707
465 1 0.0680795 0.704061 0.641962
464 1 0.0816844 0.782839 0.565007
470 1 0.144286 0.789419 0.64056
481 1 0.156087 0.863192 0.563756
589 1 -0.00256989 1.00475 0.859313
1331 1 0.501831 0.646394 0.866392
471 1 0.294325 0.709083 0.572234
469 1 0.227487 0.72186 0.650257
468 1 0.219611 0.774603 0.576635
474 1 0.299125 0.773748 0.649109
485 1 0.274198 0.870421 0.567828
483 1 0.216137 0.854997 0.643842
382 1 0.158665 0.783656 0.488973
367 1 0.220919 0.430559 0.496783
1346 1 0.492096 0.711812 0.942693
475 1 0.416386 0.714275 0.572922
473 1 0.359358 0.710612 0.656974
472 1 0.342326 0.805531 0.570585
476 1 0.429319 0.782542 0.662948
489 1 0.419142 0.865261 0.548727
487 1 0.361688 0.860219 0.638809
362 1 0.341518 0.281479 0.5081
395 1 0.0603347 -0.0128696 0.645072
479 1 0.0720027 0.854577 0.647179
478 1 0.0597582 0.925203 0.571171
484 1 0.139182 0.924786 0.630287
2 1 0.081407 0.0707102 0.999348
684 1 0.290468 0.919604 0.933976
401 1 0.281318 1.00037 0.57892
1080 1 0.497687 0.994799 0.634861
482 1 0.212495 0.934163 0.573223
488 1 0.289393 0.939708 0.649667
403 1 0.35581 0.00264652 0.639777
405 1 0.429296 -0.0247445 0.568601
486 1 0.351602 0.930441 0.562913
490 1 0.426681 0.921616 0.645331
678 1 0.206624 0.912585 0.852951
1163 1 0.502477 0.926387 0.569305
675 1 0.0674144 0.851045 0.941909
492 1 0.0625914 0.0641887 0.714447
498 1 0.14033 0.0747594 0.789385
509 1 0.120928 0.146323 0.726495
507 1 0.0817343 0.146823 0.814349
493 1 0.0621343 1.00855 0.789758
496 1 0.208459 0.0737101 0.725126
502 1 0.287663 0.0685819 0.787635
513 1 0.291409 0.13652 0.718293
511 1 0.222467 0.14424 0.790402
500 1 0.362314 0.064014 0.709791
504 1 0.425471 0.064932 0.786805
517 1 0.428983 0.139431 0.709378
414 1 0.142772 0.21447 0.65399
506 1 0.0750493 0.222179 0.720714
512 1 0.151171 0.225376 0.796944
523 1 0.15714 0.286742 0.723541
510 1 0.220813 0.211121 0.723602
516 1 0.303675 0.212085 0.785934
527 1 0.286686 0.272733 0.717876
356 1 0.263928 0.215992 0.505794
515 1 0.368881 0.147518 0.79029
514 1 0.361676 0.207825 0.712383
518 1 0.434246 0.211421 0.807086
521 1 0.0696338 0.297503 0.788153
520 1 0.0630325 0.362024 0.719432
526 1 0.143576 0.359564 0.783692
537 1 0.152336 0.438893 0.723013
535 1 0.0756109 0.432716 0.780233
525 1 0.229448 0.295139 0.786272
524 1 0.216026 0.370513 0.723025
530 1 0.301238 0.35872 0.769124
539 1 0.215357 0.438309 0.789191
357 1 0.43358 0.216112 0.494951
680 1 0.146159 0.909707 0.927139
531 1 0.433418 0.282744 0.713318
529 1 0.377018 0.289819 0.785624
528 1 0.375348 0.348423 0.713793
532 1 0.442373 0.353828 0.79094
545 1 0.42784 0.437101 0.715249
543 1 0.363751 0.431141 0.786394
593 1 0.143422 -0.00351639 0.849192
534 1 0.0646611 0.498406 0.708036
540 1 0.142193 0.502898 0.784176
551 1 0.125912 0.568273 0.722922
549 1 0.0729612 0.564964 0.79312
541 1 0.293687 0.428728 0.70374
538 1 0.227296 0.491464 0.715419
544 1 0.287271 0.499796 0.782643
555 1 0.287401 0.568263 0.718182
542 1 0.360567 0.494306 0.704214
546 1 0.42784 0.500841 0.782492
578 1 0.0186723 0.915993 0.800266
548 1 0.0652593 0.632848 0.710461
554 1 0.144273 0.637372 0.795639
563 1 0.0740746 0.703509 0.774608
553 1 0.21327 0.567369 0.797406
552 1 0.209576 0.622151 0.721259
558 1 0.288236 0.637584 0.797022
567 1 0.212631 0.703043 0.777278
569 1 0.284436 0.69875 0.715459
557 1 0.357424 0.562735 0.783297
559 1 0.424167 0.572986 0.707045
556 1 0.360047 0.637743 0.72038
560 1 0.42498 0.635696 0.785818
573 1 0.434413 0.715408 0.721936
571 1 0.34968 0.712092 0.791551
674 1 0.0829646 0.91796 0.861479
565 1 0.143934 0.702783 0.702276
562 1 0.0815308 0.77465 0.707521
568 1 0.150135 0.771872 0.778879
577 1 0.0835457 0.850856 0.770525
566 1 0.205594 0.793058 0.712782
572 1 0.288685 0.792931 0.778722
570 1 0.356731 0.789123 0.716943
574 1 0.431344 0.777321 0.786553
585 1 0.359186 0.854543 0.77828
587 1 0.426176 0.860454 0.71621
505 1 0.00645073 0.147597 0.725564
495 1 0.140075 1.00895 0.732489
579 1 0.146285 0.8677 0.70477
576 1 0.0721882 0.932482 0.718067
582 1 0.147759 0.923715 0.769392
1345 1 0.502257 0.773372 0.855708
497 1 0.214189 0.988746 0.788216
499 1 0.290138 1.00399 0.713411
583 1 0.292731 0.86484 0.713602
581 1 0.213431 0.849961 0.779077
580 1 0.225403 0.922038 0.718693
586 1 0.284684 0.920515 0.792954
501 1 0.359941 -0.00614908 0.791935
503 1 0.429544 -0.00722262 0.700963
584 1 0.352683 0.930199 0.724151
588 1 0.42387 0.924161 0.786236
55 1 0.418595 0.426492 0.999829
591 1 0.0841548 1.00551 0.929382
590 1 0.0735826 0.0691076 0.858243
596 1 0.155756 0.0739287 0.938987
607 1 0.152116 0.152338 0.863211
605 1 0.0777726 0.143757 0.914233
352 1 -0.00612386 0.214664 0.504656
594 1 0.216005 0.0716434 0.857208
600 1 0.284827 0.0619321 0.930054
609 1 0.222682 0.148328 0.922913
611 1 0.292735 0.139212 0.855057
1164 1 0.49282 0.847934 0.623561
598 1 0.359715 0.0685673 0.859676
602 1 0.442053 0.0678863 0.929642
613 1 0.348724 0.136842 0.923744
615 1 0.42734 0.139735 0.864226
656 1 0.287858 0.648952 0.920573
685 1 0.436038 0.846422 0.846162
604 1 0.0769502 0.222762 0.862234
610 1 0.160634 0.21902 0.923549
621 1 0.144851 0.298601 0.850008
619 1 0.0755668 0.291153 0.926486
608 1 0.225638 0.22293 0.849302
614 1 0.288074 0.210861 0.931626
625 1 0.301157 0.298733 0.847921
612 1 0.35943 0.222615 0.85813
616 1 0.417015 0.210764 0.927916
654 1 0.358613 0.648003 0.863741
668 1 0.355722 0.788847 0.855032
618 1 0.0809481 0.368387 0.851976
624 1 0.163413 0.364507 0.930162
1261 1 0.497459 0.92023 0.701689
669 1 0.354562 0.714785 0.931481
623 1 0.231535 0.292986 0.921911
622 1 0.229996 0.361766 0.853353
628 1 0.302138 0.367873 0.931539
670 1 0.288366 0.784075 0.936318
657 1 0.437065 0.570851 0.865597
629 1 0.439192 0.289491 0.858448
627 1 0.365467 0.286355 0.930905
626 1 0.376684 0.36729 0.850327
630 1 0.444181 0.365746 0.938295
672 1 0.445465 0.794137 0.922893
661 1 0.0557651 0.699635 0.917956
671 1 0.418786 0.722073 0.864999
663 1 0.142995 0.709173 0.862227
633 1 0.0746248 0.427543 0.926658
635 1 0.148726 0.432715 0.864806
632 1 0.0697218 0.495041 0.85075
638 1 0.14638 0.492673 0.942127
664 1 0.216707 0.7816 0.843989
677 1 0.146543 0.845107 0.846356
639 1 0.297228 0.433788 0.852361
637 1 0.23038 0.429183 0.932068
636 1 0.22115 0.490548 0.862663
642 1 0.295156 0.491219 0.91959
653 1 0.295231 0.567779 0.859702
651 1 0.218355 0.561354 0.932773
665 1 0.210819 0.726959 0.93126
658 1 0.414954 0.652103 0.928043
681 1 0.28577 0.849571 0.86471
683 1 0.369563 0.856089 0.9252
641 1 0.367441 0.429582 0.92211
643 1 0.435443 0.431608 0.862246
655 1 0.358662 0.570479 0.92336
640 1 0.365035 0.494777 0.852486
644 1 0.435527 0.497571 0.935459
649 1 0.146334 0.573224 0.871381
646 1 0.0740762 0.642443 0.85121
652 1 0.13412 0.645548 0.944275
666 1 0.153193 0.787518 0.928595
647 1 0.0706296 0.581858 0.929541
660 1 0.0691617 0.773407 0.866292
667 1 0.288038 0.723839 0.861784
650 1 0.214735 0.64295 0.866753
561 1 -0.011803 0.697878 0.706931
374 1 0.216221 0.572821 0.484141
1247 1 0.505447 0.775378 0.710947
363 1 0.278241 0.352895 0.506155
519 1 0.00592872 0.283806 0.711431
1276 1 0.509937 0.00272527 0.943444
1135 1 0.502472 0.636087 0.569693
396 1 -0.00992031 0.0814582 0.648168
410 1 0.00280168 0.228546 0.636857
533 1 -0.00932876 0.443998 0.716287
421 1 0.0172364 0.289814 0.563332
1303 1 0.518047 0.354319 0.865787
1177 1 0.500619 0.058219 0.71665
606 1 0.0115896 0.211627 0.9336
47 1 0.143663 0.428824 1.00353
1262 1 0.493692 0.855826 0.781699
1121 1 0.492073 0.486189 0.559245
1178 1 0.50066 0.988456 0.779955
61 1 0.136291 0.55937 0.99705
380 1 0.00749304 0.788642 0.492902
94 1 0.370274 0.922397 0.992867
359 1 -0.00417007 0.337345 0.490399
66 1 0.361198 0.647851 1.00862
385 1 0.422194 0.779065 0.496764
38 1 0.361136 0.356858 1.00165
361 1 0.147177 0.363542 0.504218
76 1 0.222641 0.787549 1.00842
41 1 0.430627 0.280855 1.00821
365 1 0.0692643 0.413517 0.489097
85 1 -0.00661617 0.844051 1.00204
37 1 0.280825 0.285567 0.997146
29 1 0.000713027 0.288935 1.00128
347 1 0.137044 0.0689328 0.506184
6 1 0.216928 0.0622332 1.00413
69 1 0.425209 0.584777 0.992408
30 1 0.0812043 0.354129 0.996915
51 1 0.286909 0.438117 1.00541
62 1 0.228599 0.633873 0.985881
383 1 0.345702 0.714632 0.492173
353 1 0.200299 0.14202 0.486172
375 1 0.153712 0.636937 0.506209
65 1 0.282017 0.564918 1.02096
34 1 0.231165 0.364475 1.0077
692 1 0.57314 0.0733204 0.0712776
788 1 0.647292 0.0663374 0.138038
801 1 0.573953 0.142906 0.142182
214 1 0.9913 0.228937 0.350459
746 1 0.638486 0.652217 -0.00796436
696 1 0.719468 0.0660471 0.0610425
792 1 0.772034 0.0808524 0.137637
695 1 0.783057 0.992272 0.0623119
709 1 0.784411 0.15895 0.0704225
791 1 0.713682 -0.00710231 0.129834
366 1 0.99381 0.501907 0.495097
700 1 0.854511 0.0684496 0.0752215
796 1 0.929983 0.0739281 0.137924
699 1 0.932431 0.00435998 0.0568956
713 1 0.938538 0.15028 0.0591109
809 1 0.851243 0.143241 0.141186
172 1 0.999076 0.793935 0.224292
795 1 0.854276 0.00141535 0.149563
705 1 0.634782 0.14177 0.0768171
706 1 0.587047 0.216211 0.0723365
802 1 0.649443 0.218799 0.144298
719 1 0.638867 0.293437 0.0489101
1029 1 0.916163 0.933646 0.434492
337 1 1.00363 0.8619 0.441633
786 1 0.50472 0.0046319 0.208904
805 1 0.717804 0.150258 0.131371
710 1 0.704397 0.21753 0.0666333
806 1 0.792121 0.212713 0.148939
723 1 0.78785 0.291212 0.0613407
819 1 0.724902 0.280199 0.124108
239 1 0.984083 0.424482 0.289893
714 1 0.868137 0.229723 0.0679186
810 1 0.936872 0.219979 0.136971
727 1 0.934222 0.294425 0.067984
980 1 0.848537 0.934171 0.356831
815 1 0.56799 0.292422 0.143162
720 1 0.573152 0.35248 0.0707746
816 1 0.648568 0.348514 0.125248
829 1 0.575329 0.440543 0.145434
733 1 0.647292 0.439551 0.0885836
995 1 0.507592 0.356853 0.427757
895 1 0.930214 0.992099 0.355838
724 1 0.720027 0.366485 0.0720305
820 1 0.780339 0.362527 0.142112
737 1 0.784986 0.438379 0.0751949
823 1 0.857627 0.289789 0.141703
728 1 0.855417 0.350879 0.0682717
824 1 0.927313 0.356353 0.133271
741 1 0.921385 0.43256 0.0608326
1039 1 0.58253 0.203547 0.499647
158 1 0.993011 0.644248 0.215975
734 1 0.578125 0.506926 0.0775117
747 1 0.63854 0.581218 0.0706369
843 1 0.57756 0.588146 0.141995
830 1 0.63738 0.514841 0.149369
739 1 0.850618 0.424875 0.00540642
884 1 0.507367 0.00560633 0.360239
740 1 0.917315 0.510383 -0.0028649
833 1 0.722209 0.439277 0.145758
738 1 0.71135 0.515773 0.0766881
834 1 0.794098 0.502235 0.147098
751 1 0.791206 0.569273 0.0882696
814 1 0.505351 0.280907 0.212921
753 1 0.84581 0.574343 0.00140589
837 1 0.871285 0.424348 0.152557
742 1 0.869943 0.506948 0.0756104
838 1 0.933305 0.48087 0.147131
755 1 0.940152 0.572498 0.0700266
169 1 1.00228 0.711555 0.139691
748 1 0.5824 0.661961 0.0769549
844 1 0.657805 0.65429 0.155706
761 1 0.64675 0.722495 0.0702179
857 1 0.580205 0.714943 0.15365
975 1 0.78576 0.864487 0.357744
847 1 0.716799 0.582139 0.154993
752 1 0.706773 0.648092 0.069807
848 1 0.788242 0.649759 0.150126
861 1 0.715607 0.725508 0.151993
765 1 0.791396 0.702961 0.0759225
200 1 0.99801 0.0775125 0.351631
851 1 0.864693 0.577873 0.139928
756 1 0.8622 0.634627 0.0626437
852 1 0.928862 0.651025 0.146101
855 1 0.505878 0.780303 0.139725
722 1 0.777102 0.357647 -0.00530165
762 1 0.575591 0.786445 0.0669332
858 1 0.64251 0.787143 0.146648
871 1 0.5736 0.849485 0.14697
1074 1 0.574347 0.932349 0.501628
99 1 0.993578 0.995912 0.130374
813 1 0.502978 0.346794 0.124172
766 1 0.715226 0.794261 0.0726337
862 1 0.779135 0.801307 0.152461
769 1 0.925046 0.708524 0.0666147
865 1 0.855883 0.717502 0.150897
770 1 0.855839 0.778322 0.0739445
866 1 0.915183 0.788649 0.146025
926 1 0.505148 0.427883 0.352247
284 1 0.986089 0.922881 0.36684
691 1 0.634198 0.990042 0.0584956
787 1 0.570037 -0.00267377 0.138045
1027 1 0.794957 0.940048 0.438312
775 1 0.644298 0.862086 0.0748865
776 1 0.576062 0.922948 0.0855749
872 1 0.644856 0.917358 0.147818
1037 1 0.497564 0.153237 0.501822
827 1 0.519557 0.50622 0.153806
74 1 1.0145 0.782962 0.0712798
754 1 0.93395 0.64236 -0.00171618
988 1 0.502007 0.216416 0.428795
875 1 0.720649 0.864477 0.145185
779 1 0.78891 0.85462 0.0567747
780 1 0.723024 0.916045 0.0650582
876 1 0.784388 0.936182 0.144285
976 1 0.706881 0.936168 0.351088
879 1 0.84875 0.865852 0.13761
783 1 0.936625 0.850352 0.0789846
784 1 0.863464 0.923073 0.066539
880 1 0.927707 0.929217 0.13359
953 1 0.505739 0.781523 0.283873
1025 1 0.635654 0.925626 0.434784
939 1 0.506044 0.642066 0.272727
1024 1 0.566047 0.855336 0.438564
790 1 0.579338 0.0678793 0.207186
886 1 0.640221 0.0721908 0.275222
899 1 0.567832 0.154501 0.278087
789 1 0.638998 0.996315 0.20875
803 1 0.645369 0.152116 0.213713
794 1 0.705388 0.0676512 0.206118
890 1 0.779701 0.0678011 0.285714
807 1 0.776649 0.136226 0.213317
903 1 0.717136 0.147206 0.277626
793 1 0.78312 -0.00225562 0.214918
798 1 0.857981 0.0673698 0.222783
894 1 0.935076 0.0545832 0.292607
811 1 0.934273 0.137133 0.206732
893 1 0.842644 0.996455 0.279607
972 1 0.586736 0.927451 0.362702
804 1 0.57381 0.226237 0.223239
900 1 0.641783 0.230263 0.277486
808 1 0.722695 0.213393 0.211271
904 1 0.785276 0.210378 0.280034
917 1 0.718201 0.293293 0.281683
821 1 0.787856 0.288523 0.215308
1031 1 0.638054 -0.00801102 0.502111
907 1 0.860829 0.145638 0.274807
812 1 0.86375 0.211267 0.213108
908 1 0.932116 0.224845 0.282588
921 1 0.855824 0.286854 0.283758
982 1 0.576891 0.00706825 0.426365
913 1 0.577923 0.30232 0.286057
817 1 0.638047 0.296893 0.196635
818 1 0.572796 0.363252 0.193405
914 1 0.641589 0.361335 0.28485
822 1 0.704493 0.360636 0.21375
918 1 0.775021 0.370541 0.290095
825 1 0.935176 0.290469 0.198636
826 1 0.84924 0.35264 0.212432
922 1 0.924144 0.347857 0.282905
831 1 0.636531 0.443488 0.220075
927 1 0.572764 0.422377 0.290219
832 1 0.570712 0.507908 0.224551
928 1 0.645648 0.508333 0.287896
845 1 0.654616 0.568421 0.2223
941 1 0.570634 0.57288 0.300695
931 1 0.715241 0.437481 0.29092
835 1 0.788182 0.427649 0.211426
836 1 0.721612 0.500594 0.216636
932 1 0.797063 0.492774 0.295503
945 1 0.746108 0.568499 0.282896
935 1 0.861245 0.424743 0.279945
839 1 0.929135 0.423956 0.215886
840 1 0.85928 0.493678 0.215927
936 1 0.917354 0.488409 0.302904
949 1 0.85435 0.573052 0.293695
853 1 0.933507 0.569186 0.218635
846 1 0.587436 0.634666 0.225271
942 1 0.659715 0.626956 0.30064
955 1 0.571542 0.711485 0.283638
859 1 0.646792 0.725614 0.229434
849 1 0.793696 0.57154 0.200461
850 1 0.718571 0.649062 0.231189
946 1 0.797426 0.643396 0.291702
863 1 0.792316 0.713731 0.229471
967 1 0.500795 0.935671 0.28386
887 1 0.630685 0.00184976 0.352515
854 1 0.869274 0.633085 0.218745
950 1 0.93512 0.655532 0.290101
860 1 0.576113 0.785358 0.222575
956 1 0.644973 0.786888 0.306216
969 1 0.574534 0.85895 0.295389
873 1 0.646053 0.853809 0.217961
959 1 0.719513 0.716558 0.300956
864 1 0.715565 0.789988 0.225363
960 1 0.784847 0.792365 0.298676
973 1 0.717094 0.855184 0.299187
867 1 0.927261 0.722793 0.212995
963 1 0.865105 0.713395 0.29027
868 1 0.849957 0.789698 0.211611
964 1 0.925435 0.793104 0.292065
881 1 0.924601 0.866352 0.194422
977 1 0.85885 0.857409 0.284673
828 1 0.498049 0.442755 0.228744
885 1 0.56833 -0.000344297 0.29174
874 1 0.57789 0.92087 0.222015
970 1 0.639729 0.933671 0.283412
877 1 0.789679 0.862731 0.214749
889 1 0.705157 -0.00267391 0.279803
878 1 0.715466 0.931152 0.20852
974 1 0.777628 0.92925 0.281434
732 1 0.644213 0.504012 0.000238457
797 1 0.922149 0.993577 0.218533
882 1 0.852145 0.924912 0.211642
978 1 0.912653 0.926527 0.278006
1026 1 0.719931 0.866097 0.431835
253 1 0.989072 0.567075 0.293073
888 1 0.568076 0.0755813 0.340321
983 1 0.646056 0.0773364 0.40949