ITEM: TIMESTEP
19500
ITEM: NUMBER OF ATOMS
864
ITEM: BOX BOUNDS pp pp pp
0.0000000000000000e+00 3.1559999999999999e+01
0.0000000000000000e+00 3.1559999999999999e+01
0.0000000000000000e+00 3.1559999999999999e+01
ITEM: ATOMS id type xs ys zs
74 1 0.0806385 0.0901149 0.17596
27 1 0.0754297 0.162173 0.0790252
83 1 0.399847 -0.00516377 0.237816
149 1 0.167217 0.00518083 0.325675
42 1 0.749998 0.222496 0.00314324
437 1 0.174344 0.50589 0.00183758
8 1 0.150571 0.0908352 0.081548
12 1 0.329893 0.0732974 0.0866635
589 1 0.495857 0.473902 0.319683
216 1 0.817999 0.40498 0.428773
16 1 0.49299 0.0890891 0.0778436
109 1 0.493418 0.171421 0.142813
65 1 0.679909 0.312051 0.0201931
249 1 0.325647 0.164338 0.504348
86 1 0.576563 0.0819505 0.171773
39 1 0.581046 0.160732 0.0941112
20 1 0.658292 0.0658131 0.0834457
222 1 0.240705 0.0800969 0.485781
217 1 0.0053129 0.0159646 0.486906
24 1 0.840443 0.0716628 0.0903183
261 1 0.820669 0.168498 0.500743
90 1 0.758905 0.0771847 0.157328
4 1 0.00819574 0.0545555 0.0893337
521 1 0.666519 0.518962 0.171913
94 1 0.921266 0.0799753 0.157283
47 1 0.923134 0.163191 0.0910747
32 1 0.166916 0.268776 0.0874378
98 1 0.0825019 0.266988 0.176496
2 1 0.0861266 0.0730709 -0.00371386
31 1 0.246292 0.172667 0.0828937
55 1 0.261088 0.346122 0.0797326
36 1 0.324572 0.256697 0.0778565
218 1 0.0744594 0.101864 0.502972
105 1 0.334638 0.175006 0.163197
35 1 0.404472 0.157515 0.0896466
507 1 0.0666479 0.493105 0.254813
106 1 0.427766 0.2598 0.161107
591 1 0.589014 0.489016 0.408822
113 1 0.665103 0.148127 0.172266
40 1 0.514922 0.253006 0.086524
63 1 0.598681 0.338377 0.0928569
44 1 0.663495 0.239412 0.108366
449 1 0.674582 0.483495 0.00414064
43 1 0.737511 0.156643 0.0972986
48 1 0.829142 0.242601 0.081373
67 1 0.766514 0.333243 0.0981105
137 1 0.662215 0.336256 0.182209
114 1 0.758461 0.242418 0.173718
451 1 0.755223 0.490227 0.0918011
28 1 0.00783247 0.253058 0.0851522
141 1 0.855876 0.333217 0.171108
121 1 0.999829 0.331528 0.165582
51 1 0.0801057 0.340041 0.0947193
519 1 0.566807 0.49165 0.243619
211 1 0.744632 0.315714 0.420472
56 1 0.165037 0.399975 0.0815551
60 1 0.347366 0.42807 0.0847208
126 1 0.242629 0.418995 0.162165
587 1 0.428103 0.489887 0.403638
81 1 0.335483 0.00248726 0.159202
59 1 0.425693 0.34966 0.0825575
64 1 0.513821 0.420912 0.0934672
134 1 0.595819 0.413161 0.168922
212 1 0.66427 0.398683 0.423858
197 1 0.156051 0.342127 0.338838
241 1 0.993293 0.172967 0.503174
68 1 0.685763 0.410587 0.0948604
138 1 0.749016 0.425061 0.179238
71 1 0.918185 0.330412 0.0830596
72 1 0.837397 0.412825 0.0890728
52 1 -0.00458618 0.413469 0.0804171
142 1 0.928982 0.418154 0.167212
577 1 1.00777 0.511472 0.338024
198 1 0.247455 0.426264 0.334914
80 1 0.163852 0.0935252 0.253901
146 1 0.0780635 0.0863144 0.322937
76 1 0.992053 0.0844648 0.252288
78 1 0.229935 0.0971248 0.159527
150 1 0.261234 0.0910226 0.323689
192 1 0.831826 0.248523 0.428194
82 1 0.42434 0.0825779 0.15977
208 1 0.50872 0.409091 0.412063
84 1 0.33149 0.0892654 0.238055
88 1 0.509801 0.0817872 0.24797
154 1 0.416501 0.0703612 0.323963
111 1 0.560761 0.17323 0.236765
181 1 0.490788 0.158922 0.330316
185 1 0.667737 0.174611 0.32107
158 1 0.581154 0.0801895 0.340161
92 1 0.667422 0.0754606 0.249396
25 1 1.00918 0.152749 -0.0099355
145 1 -0.0107816 -0.002735 0.323816
593 1 0.666729 0.487006 0.335667
96 1 0.830479 0.0741454 0.239402
119 1 0.923117 0.173761 0.248659
166 1 0.916679 0.0807689 0.342778
97 1 1.01118 0.177355 0.167925
99 1 0.0699819 0.173676 0.249451
100 1 0.00418695 0.261371 0.258975
101 1 0.158581 0.181077 0.161407
103 1 0.253578 0.178556 0.244174
104 1 0.172643 0.268331 0.243609
102 1 0.254582 0.253593 0.162348
174 1 0.254482 0.24779 0.330654
201 1 0.332026 0.329736 0.344641
107 1 0.426795 0.167534 0.236694
108 1 0.338655 0.252522 0.247732
178 1 0.416984 0.246941 0.328222
110 1 0.575793 0.255505 0.169276
112 1 0.4871 0.254146 0.246063
115 1 0.749767 0.155211 0.247921
117 1 0.834415 0.171232 0.169842
116 1 0.669671 0.243406 0.235615
120 1 0.837497 0.257755 0.246864
118 1 0.911547 0.249007 0.150339
190 1 0.915977 0.25978 0.325925
238 1 0.924697 0.0843041 0.50223
123 1 0.0794769 0.344253 0.253026
122 1 0.0761722 0.416315 0.172137
194 1 0.0660142 0.428039 0.34197
128 1 0.147698 0.420795 0.270361
124 1 0.993107 0.419123 0.258882
511 1 0.254824 0.484372 0.252044
127 1 0.252959 0.33883 0.266478
125 1 0.165926 0.344595 0.172725
129 1 0.334424 0.342373 0.161692
131 1 0.407818 0.322406 0.24198
132 1 0.334663 0.411667 0.255754
130 1 0.414197 0.415759 0.17741
202 1 0.408829 0.41072 0.33069
205 1 0.498797 0.331792 0.344413
133 1 0.504992 0.340051 0.154053
135 1 0.57192 0.330056 0.250811
136 1 0.496054 0.403051 0.23553
206 1 0.589619 0.401776 0.340472
210 1 0.734334 0.399164 0.343304
140 1 0.662005 0.421161 0.253024
139 1 0.751647 0.345459 0.257234
213 1 0.826852 0.335092 0.337421
214 1 0.915856 0.39807 0.342616
246 1 0.242463 0.243133 0.494962
143 1 0.920434 0.334481 0.255536
144 1 0.835378 0.414113 0.24878
171 1 0.0834554 0.172837 0.405166
152 1 0.156755 0.0858121 0.405393
209 1 0.657635 0.316496 0.33547
581 1 0.158392 0.4926 0.348581
189 1 0.838012 0.172602 0.308992
527 1 0.919048 0.509605 0.245613
523 1 0.748362 0.490338 0.265757
200 1 0.165234 0.428464 0.430216
207 1 0.586117 0.325205 0.421945
156 1 0.330038 0.0780329 0.412276
160 1 0.487457 0.0834022 0.417884
186 1 0.744423 0.248056 0.320314
187 1 0.76145 0.180929 0.402204
515 1 0.421236 0.49218 0.253563
183 1 0.566738 0.163308 0.406283
164 1 0.656325 0.112285 0.411104
162 1 0.750871 0.0857031 0.326052
196 1 0.981355 0.418271 0.432275
199 1 0.239564 0.331354 0.402497
188 1 0.664306 0.228599 0.412559
148 1 1.00765 0.0937955 0.414207
168 1 0.819478 0.0895478 0.407464
169 1 -0.00329929 0.175705 0.328901
583 1 0.244233 0.515396 0.409634
170 1 0.0842013 0.255778 0.328301
173 1 0.161684 0.178129 0.327776
193 1 1.01769 0.335869 0.356892
172 1 -0.00856477 0.244915 0.400933
195 1 0.0830481 0.34147 0.433144
176 1 0.165149 0.25433 0.413769
435 1 0.0889989 0.492111 0.0843598
180 1 0.327441 0.232111 0.42184
177 1 0.346839 0.160868 0.328204
175 1 0.243207 0.171639 0.416173
203 1 0.416125 0.329322 0.410926
204 1 0.330863 0.421842 0.41684
191 1 0.918958 0.169697 0.410999
179 1 0.404263 0.166865 0.417531
215 1 0.928514 0.318222 0.414036
184 1 0.492419 0.252171 0.405769
182 1 0.570044 0.243359 0.332745
226 1 0.409169 0.0906953 0.493181
18 1 0.747378 0.0742875 0.0182437
439 1 0.233646 0.499644 0.0838826
253 1 0.487585 0.173556 0.480125
257 1 0.6623 0.148315 0.512849
509 1 0.149117 0.495806 0.182368
525 1 0.840549 0.495559 0.165036
9 1 0.306889 -0.00307916 0.00791378
95 1 0.917013 0.00897556 0.244969
597 1 0.833618 0.488416 0.339665
167 1 0.922904 -0.0107166 0.417111
579 1 0.0805616 0.495659 0.426962
230 1 0.570939 0.0962441 0.501365
6 1 0.239834 0.0944757 0.00541082
455 1 0.917368 0.494677 0.0814302
79 1 0.249592 0.00489134 0.232032
595 1 0.731451 0.483549 0.431847
665 1 0.662282 0.49029 0.512264
69 1 0.836442 0.326228 0.0022855
661 1 0.486655 0.499476 0.509011
242 1 0.0793388 0.239846 0.499249
233 1 0.672573 0.00504197 0.500062
258 1 0.730836 0.247922 0.507057
254 1 0.58552 0.245215 0.493212
433 1 0.99934 0.496638 0.00586652
277 1 0.49991 0.337693 0.50131
441 1 0.329561 0.495939 0.00401154
58 1 0.442953 0.436553 0.00587352
669 1 0.832904 0.494051 0.501443
33 1 0.328401 0.165209 0.0115466
22 1 0.926338 0.0681384 0.0263412
61 1 0.517262 0.346638 0.00701405
34 1 0.417831 0.25477 0.0146473
30 1 0.250442 0.258012 0.00409143
46 1 0.925268 0.234026 0.0112337
285 1 0.826761 0.324735 0.508031
45 1 0.834474 0.158349 0.0144584
269 1 0.180865 0.336464 0.496433
66 1 0.758128 0.415209 -0.000183028
41 1 0.662482 0.159304 0.0122762
26 1 0.0730038 0.252524 0.00365594
220 1 1.00535 0.0876606 0.585011
313 1 0.00981677 0.17431 0.6591
290 1 0.0867243 0.0848978 0.662617
299 1 0.438318 -0.00425389 0.742379
219 1 0.075656 -0.00698764 0.589423
286 1 0.903637 0.407098 0.502399
224 1 0.167547 0.0816956 0.587711
228 1 0.32583 0.0783705 0.575814
309 1 0.837844 0.00809591 0.666299
298 1 0.418293 0.0775341 0.660065
809 1 0.656763 0.503845 0.847311
232 1 0.489639 0.10633 0.580931
412 1 -0.00629284 0.420594 0.917432
255 1 0.591701 0.146378 0.599933
302 1 0.581932 0.0840435 0.688342
236 1 0.675007 0.0789562 0.586553
240 1 0.834921 0.082031 0.582155
333 1 0.833572 0.17501 0.671893
259 1 0.745941 0.162888 0.594454
801 1 0.344748 0.483154 0.837526
310 1 0.904855 0.0848064 0.677229
263 1 0.912842 0.171408 0.575536
729 1 0.335702 0.506293 0.674904
311 1 0.912135 0.00307478 0.749683
243 1 0.0886515 0.164867 0.587009
303 1 0.565812 -0.00923164 0.739527
267 1 0.0861448 0.321178 0.565878
248 1 0.179727 0.254042 0.573667
725 1 0.176403 0.493752 0.664227
247 1 0.256442 0.160537 0.578646
252 1 0.332119 0.265263 0.580368
318 1 0.262893 0.263308 0.678476
271 1 0.259859 0.345817 0.585511
345 1 0.341411 0.336004 0.656438
251 1 0.409741 0.178473 0.566939
275 1 0.423219 0.343053 0.587563
322 1 0.420468 0.255365 0.646859
321 1 0.351594 0.165505 0.677249
349 1 0.505524 0.341588 0.661555
325 1 0.485436 0.160122 0.669057
256 1 0.511674 0.229123 0.571955
326 1 0.56398 0.23839 0.672194
260 1 0.651645 0.240222 0.577706
283 1 0.748376 0.325874 0.585688
357 1 0.832193 0.339235 0.663428
743 1 0.905566 0.512665 0.749225
221 1 0.13839 0.0238223 0.495502
244 1 0.00471076 0.251568 0.568736
264 1 0.828403 0.248567 0.576981
287 1 0.918579 0.325779 0.596615
338 1 0.101041 0.413332 0.64694
235 1 0.749321 0.00321685 0.573763
721 1 0.998941 0.484792 0.676246
272 1 0.182933 0.411602 0.573571
430 1 0.91875 0.407636 0.833848
342 1 0.263706 0.41504 0.662584
731 1 0.418295 0.495968 0.750943
276 1 0.338179 0.432291 0.580565
346 1 0.414594 0.41226 0.665522
273 1 0.315777 0.336436 0.488006
280 1 0.495425 0.43185 0.58873
279 1 0.588067 0.320792 0.60374
353 1 0.662513 0.317484 0.672303
284 1 0.658004 0.422275 0.598421
288 1 0.823317 0.407773 0.580778
354 1 0.747051 0.412375 0.670664
295 1 0.249998 -0.00220655 0.736479
365 1 0.164518 0.0144067 0.82207
37 1 0.501738 0.16547 1.01559
268 1 0.000891227 0.394873 0.5758
727 1 0.25581 0.499238 0.750733
292 1 1.01163 0.102285 0.741466
296 1 0.163716 0.0941203 0.745696
315 1 0.0910778 0.169129 0.74284
70 1 0.913707 0.419953 0.99392
294 1 0.254055 0.0948564 0.670347
366 1 0.245629 0.0786866 0.823452
300 1 0.343127 0.089129 0.750052
323 1 0.426796 0.181364 0.763514
304 1 0.486324 0.0866849 0.756782
308 1 0.66437 0.0675321 0.751411
29 1 0.162296 0.172533 1.01631
374 1 0.582732 0.0636208 0.846918
306 1 0.762018 0.0764474 0.669336
312 1 0.844941 0.0962659 0.760522
331 1 0.741041 0.158739 0.75461
378 1 0.754376 0.0729072 0.836477
811 1 0.749216 0.490739 0.909119
363 1 0.0858348 -0.00318192 0.909551
335 1 0.930234 0.172504 0.754898
337 1 0.0170566 0.329342 0.66214
314 1 0.0988222 0.255319 0.650696
320 1 0.184841 0.252793 0.749769
341 1 0.174642 0.337017 0.656873
317 1 0.173593 0.172248 0.656508
319 1 0.255186 0.16547 0.741518
343 1 0.244654 0.349266 0.748899
421 1 0.501793 0.342666 0.847165
324 1 0.333325 0.25453 0.761166
328 1 0.501958 0.262465 0.768463
401 1 0.670607 0.144962 0.822195
327 1 0.565816 0.172391 0.756296
351 1 0.593993 0.333946 0.767529
398 1 0.586879 0.250731 0.847885
332 1 0.655486 0.235806 0.753473
330 1 0.731354 0.250152 0.661713
329 1 0.659577 0.149338 0.673697
402 1 0.747771 0.243365 0.824405
336 1 0.838457 0.25346 0.746121
355 1 0.74477 0.334393 0.743825
429 1 0.825907 0.326846 0.829444
316 1 0.00653019 0.253596 0.765334
334 1 0.926132 0.250497 0.67063
655 1 0.25334 0.513878 0.587458
410 1 0.0787139 0.420141 0.834829
339 1 0.0913816 0.3308 0.748818
266 1 0.0855751 0.418931 0.500484
371 1 0.410118 -0.0121232 0.910709
344 1 0.169986 0.417494 0.748719
53 1 0.183242 0.343194 0.99605
227 1 0.400998 0.00500121 0.582659
347 1 0.430326 0.343434 0.748582
348 1 0.332549 0.415429 0.746931
418 1 0.424523 0.418977 0.831306
417 1 0.344412 0.345622 0.839153
426 1 0.750578 0.418798 0.812599
422 1 0.591234 0.421439 0.835039
352 1 0.518095 0.413572 0.763298
350 1 0.580052 0.419629 0.662076
356 1 0.660884 0.423346 0.754189
360 1 0.83225 0.416087 0.740372
425 1 0.682992 0.339719 0.848221
358 1 0.917841 0.417908 0.672378
409 1 -0.00505337 0.328863 0.849032
340 1 0.000302877 0.405306 0.747308
359 1 0.912549 0.335963 0.74669
362 1 0.0920877 0.0952515 0.822499
385 1 0.995222 0.161031 0.843008
364 1 0.982414 0.0798539 0.918033
387 1 0.0849652 0.154493 0.917137
432 1 0.832671 0.410782 0.910592
389 1 0.178491 0.178657 0.831773
368 1 0.167743 0.0889527 0.908802
370 1 0.409866 0.0831645 0.834159
372 1 0.324683 0.0709001 0.905493
397 1 0.518488 0.163253 0.85114
376 1 0.475774 0.0804437 0.915475
393 1 0.32025 0.162112 0.823547
399 1 0.610988 0.15711 0.920973
239 1 0.917593 0.00926044 0.589239
428 1 0.659131 0.418388 0.914636
663 1 0.572843 0.502376 0.579046
380 1 0.671099 0.0606077 0.920836
384 1 0.830622 0.0779852 0.927133
424 1 0.511714 0.420601 0.919263
382 1 0.906248 0.0818596 0.846838
373 1 0.491663 0.00270113 0.831371
57 1 0.334716 0.331175 0.983371
386 1 0.0906176 0.23712 0.843564
390 1 0.250326 0.256238 0.837637
391 1 0.247716 0.164419 0.919435
415 1 0.239952 0.348155 0.907462
392 1 0.163498 0.242752 0.92213
383 1 0.89927 -0.0025203 0.916859
396 1 0.330976 0.235549 0.923769
394 1 0.42 0.254069 0.853427
395 1 0.418658 0.161474 0.934467
400 1 0.499775 0.259968 0.934798
404 1 0.678751 0.246884 0.909575
367 1 0.247844 0.00658772 0.914468
427 1 0.750268 0.333799 0.929042
405 1 0.827179 0.165342 0.844717
408 1 0.81316 0.252429 0.912438
403 1 0.746817 0.155902 0.916173
419 1 0.419006 0.343336 0.928564
420 1 0.350021 0.422091 0.92715
431 1 0.903484 0.330072 0.91371
414 1 0.243189 0.44541 0.835085
406 1 0.915339 0.245436 0.851423
407 1 0.899374 0.166924 0.920165
388 1 0.00118403 0.240594 0.917685
423 1 0.592061 0.325139 0.918654
416 1 0.158123 0.426114 0.921058
411 1 0.091192 0.327677 0.907465
413 1 0.17086 0.327274 0.826883
282 1 0.738841 0.394894 0.50874
231 1 0.590766 0.0107578 0.576651
795 1 0.0777802 0.502518 0.912912
361 1 0.99378 0.0154034 0.83379
270 1 0.251514 0.436763 0.505107
793 1 0.000927026 0.499785 0.816573
289 1 0.996407 0.0177943 0.674962
741 1 0.827757 0.495227 0.655602
262 1 0.910458 0.252295 0.501951
265 1 0.000886056 0.321667 0.490385
301 1 0.506483 0.023214 0.653912
223 1 0.241421 0.014839 0.575266
62 1 0.606264 0.404378 1.01484
49 1 0.99092 0.326277 1.00816
274 1 0.417121 0.41478 0.484439
38 1 0.599454 0.248745 0.992023
453 1 0.833608 0.497352 0.998584
281 1 0.65983 0.332655 0.523409
278 1 0.57816 0.423077 0.503061
10 1 0.401214 0.0524853 1.00431
245 1 0.166009 0.161652 0.498854
234 1 0.754351 0.0857769 0.492297
14 1 0.566421 0.0682351 0.985715
50 1 0.0792567 0.388711 0.99892
54 1 0.250435 0.421955 0.997666
250 1 0.415804 0.253757 0.490268
229 1 0.491701 0.0149615 0.511412
506 1 0.0885659 0.587446 0.168491
440 1 0.161311 0.574487 0.090775
436 1 1.00941 0.590248 0.0859193
459 1 0.107082 0.665656 0.0921102
698 1 0.071363 0.928339 0.492954
443 1 0.416634 0.511209 0.09266
510 1 0.25374 0.588402 0.168288
444 1 0.32792 0.574537 0.0862645
153 1 0.322186 1.00121 0.312313
163 1 0.763326 0.999157 0.405519
646 1 0.919168 0.920349 0.332377
599 1 0.91211 0.51111 0.421115
648 1 0.835141 0.916602 0.41331
467 1 0.416793 0.675942 0.0727047
3 1 0.0919855 0.988568 0.087747
448 1 0.503328 0.608313 0.0669873
87 1 0.585328 0.996247 0.242152
161 1 0.66203 1.00671 0.347452
452 1 0.67041 0.589837 0.0879983
456 1 0.827701 0.574815 0.0935287
522 1 0.750057 0.580598 0.165052
513 1 0.329262 0.510623 0.183539
147 1 0.0766292 0.998961 0.399471
446 1 0.59628 0.598008 -0.00401129
479 1 0.918489 0.663863 0.0843895
526 1 0.923091 0.58642 0.160248
157 1 0.504415 1.00131 0.326571
91 1 0.75511 0.995955 0.245627
464 1 0.173159 0.752191 0.0829222
460 1 0.0172104 0.735749 0.0762087
483 1 0.0886117 0.831001 0.0809099
463 1 0.229298 0.668187 0.0812825
487 1 0.24953 0.835241 0.074855
468 1 0.328276 0.734865 0.0872279
561 1 0.332796 0.823774 0.172018
472 1 0.50377 0.752084 0.0857949
491 1 0.418079 0.850608 0.0797722
690 1 0.746247 0.741231 0.50159
471 1 0.584516 0.666451 0.0819864
476 1 0.685357 0.735371 0.0953553
495 1 0.589374 0.834028 0.0818335
77 1 0.150651 1.01587 0.175391
475 1 0.755412 0.666167 0.076009
499 1 0.750547 0.814559 0.0910947
480 1 0.837029 0.748358 0.085982
237 1 0.839071 1.01652 0.502572
490 1 0.417878 0.91967 -0.0100332
503 1 0.925392 0.819643 0.0872564
705 1 0.342398 0.837649 0.501456
486 1 0.234193 0.922852 -0.00449011
488 1 0.16728 0.905091 0.0818358
15 1 0.57954 0.997513 0.0833413
585 1 0.327498 0.491299 0.339417
492 1 0.340505 0.923373 0.0773613
644 1 0.661408 0.923824 0.425733
666 1 0.749864 0.580858 0.497524
562 1 0.423454 0.908143 0.167021
639 1 0.572544 0.840768 0.41307
505 1 0.997784 0.505591 0.170747
496 1 0.506849 0.908717 0.0752817
566 1 0.5837 0.914958 0.168008
500 1 0.671979 0.909985 0.0840783
570 1 0.747855 0.900149 0.166286
635 1 0.417592 0.834991 0.407532
654 1 0.24969 0.588552 0.492967
484 1 1.00692 0.906118 0.0777223
504 1 0.843421 0.887176 0.101131
574 1 0.915144 0.901551 0.185928
5 1 0.166554 1.00579 -0.00504494
717 1 0.844444 0.843203 0.502813
512 1 0.160147 0.584061 0.251915
508 1 1.01062 0.588197 0.257943
533 1 0.173836 0.662092 0.171201
634 1 0.410757 0.912814 0.319832
582 1 0.247662 0.586483 0.331264
535 1 0.237031 0.669528 0.259505
516 1 0.329688 0.579542 0.259448
537 1 0.349758 0.655343 0.167243
640 1 0.487673 0.920723 0.413702
514 1 0.420553 0.578794 0.173542
19 1 0.753346 0.993986 0.0898475
520 1 0.492744 0.572874 0.259138
539 1 0.418296 0.651454 0.239811
518 1 0.57895 0.573229 0.187003
630 1 0.255009 0.920682 0.321777
590 1 0.58757 0.56693 0.327181
89 1 0.680003 0.986319 0.172117
524 1 0.683094 0.592247 0.264104
528 1 0.818212 0.566639 0.257393
549 1 0.844255 0.654241 0.177189
547 1 0.754361 0.664425 0.239071
636 1 0.330999 0.924495 0.40398
529 1 1.01745 0.671866 0.166848
551 1 0.917926 0.649842 0.250925
598 1 0.906044 0.584823 0.32838
530 1 0.0907057 0.752219 0.169576
557 1 0.163541 0.838723 0.176736
531 1 0.0860404 0.672995 0.265521
555 1 0.0922516 0.830052 0.247848
536 1 0.169578 0.745372 0.248598
534 1 0.250613 0.747464 0.160746
540 1 0.337833 0.747791 0.242531
606 1 0.261373 0.750194 0.328593
559 1 0.242991 0.823235 0.258534
538 1 0.422398 0.747779 0.165753
633 1 0.330208 0.827752 0.328636
544 1 0.504672 0.743401 0.243728
563 1 0.424457 0.824442 0.236549
610 1 0.412765 0.755056 0.323335
541 1 0.495983 0.663076 0.17166
542 1 0.590288 0.752091 0.160541
545 1 0.654357 0.65224 0.181855
543 1 0.587105 0.674363 0.262679
548 1 0.664166 0.749099 0.252032
614 1 0.578223 0.746874 0.339083
546 1 0.767049 0.742002 0.170608
618 1 0.731672 0.729712 0.3357
552 1 0.83136 0.740398 0.261217
573 1 0.846159 0.816967 0.187289
621 1 0.830612 0.668457 0.33779
532 1 0.0038127 0.748235 0.249054
550 1 0.922401 0.741204 0.165109
553 1 -0.00878793 0.828819 0.174259
622 1 0.913872 0.735036 0.332721
706 1 0.411991 0.917626 0.51571
554 1 0.0750041 0.911072 0.160538
560 1 0.168847 0.91617 0.251215
626 1 0.0886787 0.917441 0.316811
643 1 0.750508 0.826005 0.414437
624 1 0.829648 0.748861 0.421197
558 1 0.247393 0.90249 0.16048
565 1 0.507322 0.834795 0.172207
564 1 0.332291 0.913716 0.245279
568 1 0.507511 0.915672 0.257882
632 1 0.166481 0.91801 0.406437
567 1 0.58564 0.832812 0.257868
637 1 0.497799 0.829316 0.330424
638 1 0.596181 0.919107 0.344759
642 1 0.746788 0.915187 0.334064
569 1 0.673523 0.81938 0.159862
571 1 0.734215 0.82545 0.261787
572 1 0.654172 0.911322 0.254707
576 1 0.837265 0.906145 0.258976
641 1 0.659788 0.826778 0.347829
75 1 0.0737533 0.999219 0.249679
556 1 0.00241132 0.905557 0.254586
575 1 0.913363 0.828565 0.268547
625 1 1.00144 0.831703 0.340147
578 1 0.099525 0.587253 0.338415
605 1 0.169432 0.673419 0.339299
580 1 -0.0126456 0.598799 0.403691
603 1 0.0809197 0.678021 0.395617
584 1 0.160327 0.588082 0.424121
628 1 -0.00432221 0.916405 0.409107
588 1 0.343134 0.577553 0.403907
607 1 0.25424 0.674176 0.407795
494 1 0.585998 0.925402 0.00222141
17 1 0.674066 0.992933 0.00951652
586 1 0.420422 0.578185 0.33554
645 1 0.819163 0.807637 0.329511
592 1 0.49249 0.58656 0.41667
613 1 0.497229 0.667197 0.330317
619 1 0.743485 0.659639 0.417315
617 1 0.656122 0.648942 0.354067
596 1 0.664167 0.573192 0.430683
165 1 0.835415 1.01228 0.330209
594 1 0.751014 0.557394 0.358934
85 1 0.492063 0.998317 0.176834
93 1 0.832868 0.984219 0.162378
623 1 0.911712 0.666219 0.415902
600 1 0.84177 0.587924 0.427475
601 1 0.993838 0.66912 0.328731
615 1 0.564791 0.664813 0.413583
627 1 0.0843701 0.844453 0.415069
647 1 0.907908 0.816244 0.411077
604 1 -0.0012758 0.751501 0.417876
602 1 0.0835028 0.765893 0.328952
608 1 0.158648 0.761527 0.419907
629 1 0.172002 0.834379 0.33085
620 1 0.665105 0.757183 0.424918
714 1 0.755758 0.921575 0.495302
631 1 0.263417 0.827495 0.420689
609 1 0.332365 0.673594 0.338575
612 1 0.350645 0.754878 0.411548
616 1 0.48799 0.7457 0.401567
611 1 0.417369 0.665105 0.400335
151 1 0.232984 1.00129 0.408966
447 1 0.599423 0.495471 0.0847844
159 1 0.565321 1.00224 0.433132
73 1 -0.0024336 0.996687 0.17413
11 1 0.425057 0.99202 0.0841557
155 1 0.408528 1.00486 0.422157
225 1 0.320787 1.00588 0.505698
23 1 0.920323 0.974278 0.100505
7 1 0.24825 0.993468 0.0970554
517 1 0.507959 0.500059 0.155057
686 1 0.576308 0.761149 0.495117
657 1 0.338525 0.509358 0.501821
718 1 0.924775 0.921804 0.494988
457 1 1.00083 0.653332 -0.0034445
497 1 0.667278 0.824274 0.000515982
498 1 0.750088 0.897929 0.010648
501 1 0.841488 0.825161 0.00461928
493 1 0.502084 0.841125 -0.0058087
677 1 0.153359 0.664104 0.493017
502 1 0.925157 0.904286 -0.00306746
650 1 0.0755445 0.598116 0.479884
681 1 0.339671 0.682014 0.504469
678 1 0.245693 0.748313 0.487157
658 1 0.413361 0.592748 0.482574
697 1 1.0048 0.837942 0.487727
445 1 0.522145 0.51855 0.0181734
454 1 0.903174 0.579345 0.0109608
485 1 0.153738 0.83854 -0.0148972
21 1 0.835975 0.968735 0.0285551
462 1 0.248993 0.752805 -0.00807871
470 1 0.587331 0.748349 0.00100279
673 1 1.00832 0.679907 0.491692
450 1 0.747937 0.575928 0.0113973
675 1 0.096715 0.666032 0.597856
652 1 0.00656909 0.59967 0.588412
656 1 0.159838 0.585906 0.581009
749 1 0.188709 0.649125 0.665136
679 1 0.235982 0.673961 0.559569
660 1 0.324842 0.589699 0.577821
739 1 0.746913 0.49799 0.733244
293 1 0.166845 0.992598 0.66424
683 1 0.409741 0.671664 0.583028
478 1 0.927717 0.736813 0.985921
307 1 0.754189 0.997285 0.748162
305 1 0.673489 1.00743 0.660731
815 1 0.908179 0.495966 0.910431
664 1 0.494675 0.591755 0.57448
734 1 0.562361 0.579643 0.662214
757 1 0.517586 0.680857 0.678295
1 1 1.00087 0.990701 0.988684
649 1 0.997822 0.502681 0.515699
381 1 0.835991 0.995097 0.83471
668 1 0.664458 0.580346 0.581687
738 1 0.750415 0.582993 0.649942
701 1 0.171133 0.833309 0.496218
672 1 0.833427 0.579095 0.572919
765 1 0.842475 0.665742 0.652901
742 1 0.921796 0.586515 0.65459
695 1 0.932308 0.678592 0.577203
813 1 0.821235 0.492138 0.826444
746 1 0.0888297 0.758475 0.658176
676 1 0.00143301 0.772003 0.572652
680 1 0.172421 0.754441 0.594321
684 1 0.328596 0.75139 0.588913
750 1 0.274458 0.753647 0.676896
659 1 0.407383 0.533872 0.570799
653 1 0.163035 0.512217 0.508671
754 1 0.419586 0.752577 0.660679
707 1 0.406847 0.83676 0.604261
777 1 0.339302 0.835678 0.680671
807 1 0.591122 0.498162 0.930334
688 1 0.497736 0.765361 0.575479
489 1 0.32765 0.856244 1.00186
465 1 0.336695 0.675378 0.993538
687 1 0.572175 0.662627 0.583632
758 1 0.591489 0.762662 0.652065
711 1 0.593934 0.837074 0.580038
761 1 0.666107 0.647899 0.671589
691 1 0.740465 0.663245 0.567634
692 1 0.658672 0.747961 0.56057
762 1 0.736969 0.738137 0.64634
696 1 0.847743 0.760452 0.578066
766 1 0.917092 0.767431 0.662197
769 1 0.998228 0.838705 0.664916
377 1 0.668531 0.990035 0.835275
699 1 0.0792797 0.84328 0.579444
862 1 0.919863 0.91514 0.836376
733 1 0.490126 0.491666 0.67626
703 1 0.256117 0.824619 0.58025
704 1 0.166719 0.928365 0.57039
434 1 0.0987608 0.583259 1.01072
737 1 0.655006 0.498508 0.671035
708 1 0.323634 0.917275 0.579889
778 1 0.431315 0.92837 0.667249
805 1 0.495817 0.501768 0.847284
861 1 0.843582 0.837424 0.826964
781 1 0.495234 0.84145 0.66181
712 1 0.50085 0.91176 0.584018
716 1 0.676568 0.920155 0.585379
782 1 0.590215 0.917643 0.64459
689 1 0.647192 0.664837 0.497904
291 1 0.0782315 1.00916 0.750276
715 1 0.750745 0.848912 0.572193
786 1 0.757328 0.926157 0.656474
662 1 0.575556 0.573679 0.497111
719 1 0.921111 0.842778 0.577793
720 1 0.851654 0.929458 0.587613
700 1 0.997271 0.921308 0.573031
722 1 0.0783806 0.582151 0.658474
724 1 0.994431 0.582357 0.748245
745 1 0.98534 0.67673 0.666216
858 1 0.761351 0.914076 0.836143
728 1 0.178817 0.579214 0.744599
726 1 0.275165 0.590062 0.676829
751 1 0.246104 0.670189 0.75715
798 1 0.261651 0.574979 0.827278
753 1 0.340732 0.673926 0.661678
730 1 0.421815 0.59475 0.665812
732 1 0.351158 0.573917 0.756797
802 1 0.426825 0.598994 0.845409
755 1 0.420475 0.672511 0.747647
736 1 0.507649 0.589637 0.754982
759 1 0.592022 0.672864 0.750256
797 1 0.160573 0.510511 0.834788
740 1 0.671194 0.574667 0.760953
810 1 0.742439 0.574231 0.838943
375 1 0.583166 0.988637 0.918967
857 1 0.673333 0.850006 0.819456
864 1 0.834302 0.917166 0.936791
744 1 0.828088 0.585895 0.744425
814 1 0.921217 0.576884 0.839679
773 1 0.154184 0.861226 0.65733
747 1 0.0941616 0.655788 0.732808
818 1 0.0714079 0.749375 0.82487
748 1 0.00279943 0.756606 0.745659
817 1 0.996193 0.673059 0.813494
752 1 0.177823 0.759173 0.716746
822 1 0.260642 0.747866 0.827272
821 1 0.164511 0.663502 0.814358
825 1 0.337934 0.664936 0.839777
849 1 0.330329 0.838766 0.82346
756 1 0.337595 0.760035 0.75795
826 1 0.413989 0.742062 0.839112
779 1 0.41503 0.851219 0.762916
760 1 0.485501 0.770434 0.750567
853 1 0.501778 0.840616 0.828748
830 1 0.583953 0.762235 0.826908
764 1 0.674108 0.74764 0.748063
763 1 0.747179 0.659646 0.743834
834 1 0.751859 0.742115 0.828027
787 1 0.747223 0.826082 0.742766
833 1 0.659148 0.671058 0.827807
767 1 0.909521 0.664927 0.750112
768 1 0.828969 0.754441 0.736168
771 1 0.0911598 0.832431 0.754328
770 1 0.0624524 0.918149 0.663853
772 1 1.0006 0.931852 0.75878
842 1 0.0834255 0.920334 0.825236
442 1 0.417656 0.587626 1.01446
774 1 0.239994 0.917708 0.658049
671 1 0.910413 0.484292 0.583814
723 1 0.0885607 0.495119 0.745439
776 1 0.174338 0.914982 0.755485
775 1 0.245037 0.838971 0.740221
860 1 0.671856 0.900722 0.919416
780 1 0.343124 0.924748 0.735312
850 1 0.414517 0.925013 0.832721
297 1 0.325773 1.01299 0.667166
837 1 0.836761 0.658484 0.843715
651 1 0.0825578 0.493853 0.580163
854 1 0.585034 0.913877 0.83804
783 1 0.589917 0.830137 0.744187
784 1 0.503526 0.911658 0.738576
788 1 0.666044 0.916331 0.731514
838 1 0.909625 0.75183 0.83701
785 1 0.669224 0.833771 0.653437
792 1 0.836175 0.909115 0.734647
856 1 0.499567 0.912557 0.918761
790 1 0.931967 0.934127 0.666566
789 1 0.838472 0.844376 0.653898
791 1 0.911444 0.836278 0.745782
840 1 0.835061 0.743449 0.93162
794 1 0.0749313 0.582174 0.825667
800 1 0.152289 0.580923 0.911147
796 1 0.996766 0.576139 0.916883
369 1 0.331981 1.0072 0.815961
823 1 0.254574 0.670459 0.910447
844 1 0.000829584 0.906251 0.911051
841 1 0.00301058 0.835877 0.824027
804 1 0.345142 0.587963 0.918163
846 1 0.252658 0.928365 0.834445
13 1 0.495328 0.995351 0.997596
806 1 0.584465 0.592592 0.840551
808 1 0.502904 0.589367 0.932078
863 1 0.915183 0.832032 0.910603
852 1 0.32044 0.930902 0.90737
812 1 0.679846 0.566301 0.928944
835 1 0.744274 0.6585 0.908886
859 1 0.760655 0.834038 0.905434
816 1 0.820004 0.581972 0.918752
820 1 -0.00402008 0.746906 0.899803
843 1 0.0855099 0.832602 0.906116
819 1 0.0665808 0.667024 0.90649
848 1 0.167456 0.933903 0.909157
845 1 0.170118 0.835763 0.825835
839 1 0.91977 0.660268 0.906363
847 1 0.24728 0.84182 0.923651
824 1 0.162928 0.741506 0.924881
828 1 0.338383 0.764006 0.918887
438 1 0.257936 0.591581 1.00856
827 1 0.420678 0.670754 0.92407
851 1 0.41464 0.842344 0.917017
799 1 0.245276 0.515455 0.922887
803 1 0.413446 0.510368 0.925356
855 1 0.578411 0.830475 0.917061
831 1 0.585881 0.678546 0.918679
836 1 0.679191 0.764784 0.910338
829 1 0.505788 0.685441 0.832887
832 1 0.488193 0.764676 0.921601
461 1 0.171003 0.656468 0.995173
379 1 0.760326 0.986885 0.924937
482 1 0.0775424 0.916754 1.00639
477 1 0.827819 0.653047 1.00957
685 1 0.483897 0.675896 0.488108
466 1 0.429034 0.759239 1.00218
469 1 0.505413 0.683444 0.998507
709 1 0.495834 0.847563 0.495588
667 1 0.739514 0.486698 0.589136
481 1 0.000296581 0.836978 0.991723
735 1 0.589974 0.496773 0.750445
713 1 0.669919 0.848562 0.492665
474 1 0.753789 0.749388 1.0002
458 1 0.0749906 0.747697 0.997322
693 1 0.837281 0.670848 0.503109
674 1 0.0939606 0.753408 0.514775
702 1 0.25046 0.906054 0.493953
670 1 0.928866 0.590592 0.501552
682 1 0.414352 0.765837 0.511887
473 1 0.672875 0.666046 0.994576
710 1 0.580169 0.925823 0.499393
694 1 0.911887 0.75485 0.485543
