ITEM: TIMESTEP
3500
ITEM: NUMBER OF ATOMS
500
ITEM: BOX BOUNDS pp pp pp
0.0000000000000000e+00 2.6299999999999997e+01
0.0000000000000000e+00 2.6299999999999997e+01
0.0000000000000000e+00 2.6299999999999997e+01
ITEM: ATOMS id type xs ys zs
23 1 0.114721 0.19647 0.0931296
52 1 0.0997411 0.090176 0.194686
8 1 0.190677 0.0814766 0.102192
75 1 0.194943 0.171873 0.20041
63 1 0.608179 0.0125695 0.188765
127 1 0.985167 0.112634 0.494132
27 1 0.293234 0.167653 0.106064
56 1 0.29481 0.0829789 0.19799
79 1 0.40056 0.196979 0.202765
251 1 0.104423 0.493801 0.00247922
33 1 0.601127 0.212644 0.00539654
67 1 0.814642 0.0209003 0.201962
12 1 0.411648 0.113839 0.0920484
31 1 0.50997 0.201326 0.111439
60 1 0.513008 0.0895341 0.199647
83 1 0.610297 0.19154 0.209133
310 1 0.798337 0.498928 0.288654
21 1 0.0154007 0.209292 0.00839542
121 1 0.974223 0.380895 0.400122
3 1 0.0938887 0.00632136 0.103857
307 1 0.696304 0.496338 0.195055
16 1 0.603447 0.108194 0.109744
35 1 0.69794 0.192498 0.0985045
64 1 0.713782 0.0904219 0.20323
87 1 0.805261 0.186495 0.199829
20 1 0.813739 0.1038 0.0932007
100 1 0.893202 0.408484 0.300739
71 1 0.0190242 0.196189 0.200786
4 1 0.0124321 0.104236 0.0922906
39 1 0.906402 0.202353 0.0881704
68 1 0.920931 0.107406 0.212172
120 1 0.872743 0.307528 0.407337
355 1 0.890307 0.498719 0.403251
103 1 0.19791 0.00639015 0.420199
42 1 0.119707 0.402545 0.0890011
72 1 0.106625 0.301661 0.195866
34 1 0.698336 0.299859 0.00484377
256 1 0.408865 0.491545 0.0838717
93 1 0.217464 0.400477 0.198267
28 1 0.216754 0.297934 0.094458
44 1 0.30007 0.410637 0.101887
76 1 0.297013 0.283027 0.209407
32 1 0.395922 0.304287 0.0959894
95 1 0.391593 0.415501 0.197032
98 1 0.697429 0.393166 0.283933
258 1 0.599447 0.498545 0.0957435
46 1 0.501221 0.395121 0.102423
80 1 0.496147 0.293464 0.205142
36 1 0.607218 0.287444 0.120754
118 1 0.703548 0.309395 0.416908
90 1 0.809659 0.296528 0.301638
352 1 0.306448 0.494498 0.415205
48 1 0.690768 0.398657 0.0901514
84 1 0.717313 0.300076 0.194128
97 1 0.583563 0.394388 0.215074
40 1 0.807637 0.292428 0.112693
124 1 0.6136 0.398516 0.384479
116 1 0.493684 0.295777 0.403325
24 1 0.0201424 0.313781 0.103267
99 1 0.81075 0.390721 0.200144
91 1 0.0168914 0.422992 0.20242
50 1 0.895455 0.410543 0.0957964
88 1 0.920896 0.319142 0.191841
15 1 0.704146 0.00242013 0.112421
73 1 0.107572 0.184063 0.308822
102 1 0.0953666 0.10251 0.414318
113 1 0.205148 0.196921 0.407876
111 1 0.981863 0.197423 0.394045
94 1 0.301575 0.396965 0.289641
353 1 0.521159 0.494625 0.394518
133 1 0.604094 0.101258 0.495983
114 1 0.306408 0.29147 0.401422
11 1 0.504267 0.00350861 0.0918713
125 1 0.778941 0.406424 0.390638
53 1 0.0917348 0.0180279 0.31081
58 1 0.21258 0.0885586 0.322885
77 1 0.308983 0.178947 0.299217
104 1 0.319979 0.0809499 0.404849
115 1 0.41552 0.192228 0.402021
62 1 0.399263 0.0923422 0.308039
81 1 0.50422 0.199451 0.285403
106 1 0.51006 0.0974911 0.386472
117 1 0.579967 0.211923 0.401336
66 1 0.628543 0.109009 0.303651
17 1 0.806616 0.00978141 0.0021837
351 1 0.110491 0.48275 0.400793
85 1 0.691465 0.219522 0.307663
108 1 0.697347 0.0905536 0.411226
122 1 0.207862 0.384049 0.392261
82 1 0.395119 0.288276 0.309256
54 1 0.994818 0.100555 0.309199
119 1 0.783202 0.202973 0.401769
110 1 0.898759 0.0920173 0.394843
70 1 0.794217 0.110287 0.30704
89 1 0.908201 0.215006 0.277122
86 1 0.592807 0.299934 0.294692
112 1 0.0921736 0.285174 0.380322
92 1 0.125352 0.40714 0.282947
74 1 0.0121118 0.316877 0.292843
78 1 0.198266 0.286499 0.29534
123 1 0.381083 0.398047 0.386869
96 1 0.493862 0.393096 0.311507
304 1 0.22078 0.495107 0.305136
19 1 0.911379 0.00370483 0.101048
142 1 0.6847 0.213 0.4899
302 1 0.985333 0.486665 0.310838
38 1 0.902237 0.298814 0.00958981
59 1 0.402401 0.0229822 0.180641
257 1 0.706076 0.49961 0.0131273
69 1 0.91809 0.00375457 0.299889
146 1 0.0807413 0.403465 0.494631
49 1 0.805176 0.400503 0.0109745
144 1 0.885555 0.191873 0.491068
130 1 0.503986 0.00106487 0.493017
377 1 0.195665 0.491413 0.486593
148 1 0.500023 0.396084 0.499636
139 1 0.196868 0.298888 0.491503
30 1 0.494084 0.281566 0.00514452
136 1 0.0792198 0.208212 0.485965
378 1 0.415955 0.497026 0.479674
14 1 0.713204 0.101767 0.010602
255 1 0.514782 0.496394 0.00884705
22 1 0.115729 0.317329 0.00353189
376 1 0.98854 0.498359 0.497557
6 1 0.30025 0.0887187 0.00394936
41 1 0.0140491 0.401357 0.0062806
152 1 0.0930799 0.103311 0.61341
173 1 0.0857822 0.216518 0.694495
158 1 0.202991 0.0953729 0.704839
175 1 0.196808 0.210916 0.591519
171 1 0.985186 0.175321 0.606663
10 1 0.503989 0.109585 0.990848
238 1 0.898873 0.307033 0.799022
452 1 0.00234278 0.486855 0.892169
451 1 0.0975388 0.496913 0.782294
156 1 0.303598 0.108978 0.605968
177 1 0.299681 0.228975 0.697913
162 1 0.430646 0.114043 0.691447
179 1 0.40461 0.205418 0.595326
160 1 0.515284 0.106528 0.593601
181 1 0.507256 0.220564 0.712049
166 1 0.593588 0.115206 0.689637
183 1 0.615084 0.203465 0.609782
43 1 0.22118 0.391724 0.997374
250 1 0.906617 0.403123 0.888376
163 1 0.590595 0.00381329 0.597682
164 1 0.695495 0.101487 0.597918
185 1 0.69624 0.192966 0.695725
170 1 0.793163 0.0830247 0.685303
187 1 0.794717 0.204367 0.600996
460 1 0.804735 0.499987 0.91378
150 1 0.877803 0.404547 0.51308
154 1 0.97437 0.0748635 0.710901
168 1 0.88114 0.0732732 0.591873
189 1 0.899371 0.192802 0.69514
240 1 0.801491 0.295083 0.884539
403 1 0.287703 0.475125 0.609175
172 1 0.0967579 0.295138 0.580748
192 1 0.0986422 0.392915 0.705525
178 1 0.191566 0.308251 0.697409
128 1 0.296644 0.00803827 0.510668
405 1 0.488867 0.492198 0.596748
193 1 0.180526 0.401081 0.576794
176 1 0.291987 0.320893 0.603556
194 1 0.295968 0.396375 0.710441
182 1 0.3967 0.319292 0.690302
224 1 0.988011 0.303913 0.914774
135 1 0.785188 0.102984 0.505907
180 1 0.522967 0.308454 0.605162
195 1 0.396233 0.408015 0.583359
196 1 0.48826 0.412398 0.702932
197 1 0.59822 0.414652 0.597383
409 1 0.893598 0.492781 0.598714
143 1 0.610113 0.32431 0.501969
186 1 0.612364 0.310213 0.707586
184 1 0.704302 0.301418 0.601712
198 1 0.701228 0.415686 0.722084
199 1 0.788015 0.41681 0.608364
408 1 0.601235 0.497457 0.723958
404 1 0.198989 0.48064 0.694969
26 1 0.30351 0.28717 0.991809
190 1 0.791607 0.297847 0.687178
174 1 0.99731 0.302669 0.707687
191 1 0.997056 0.394442 0.599213
188 1 0.895904 0.301351 0.615592
200 1 0.890327 0.396513 0.698461
145 1 0.806751 0.305842 0.51483
137 1 0.973809 0.293337 0.505549
219 1 0.893046 0.00500531 0.891491
202 1 0.0984531 0.100989 0.796229
223 1 0.091004 0.20888 0.899571
208 1 0.213755 0.0935413 0.906098
204 1 0.996505 0.103952 0.89117
129 1 0.204445 0.112126 0.508572
245 1 0.396502 0.417756 0.7947
2 1 0.0815366 0.0983676 0.987064
246 1 0.510623 0.386805 0.895396
225 1 0.200453 0.193336 0.802963
206 1 0.302547 0.0969559 0.786972
227 1 0.295711 0.200429 0.891759
247 1 0.607376 0.402956 0.806786
230 1 0.504462 0.304292 0.798032
212 1 0.390391 0.0998908 0.892627
229 1 0.402294 0.213227 0.784436
210 1 0.499716 0.0983923 0.790397
231 1 0.49314 0.198851 0.891201
232 1 0.407488 0.318854 0.887488
5 1 0.200276 0.000295374 0.99479
216 1 0.611799 0.102117 0.914445
214 1 0.699335 0.0904358 0.807227
233 1 0.60112 0.180561 0.804422
235 1 0.714835 0.198661 0.890637
226 1 0.297453 0.305094 0.798797
236 1 0.616742 0.300205 0.895645
220 1 0.790275 0.0945186 0.902284
237 1 0.792455 0.189181 0.775413
239 1 0.898805 0.199854 0.877698
221 1 0.994577 0.201838 0.791225
218 1 0.885798 0.098419 0.800612
234 1 0.708913 0.294338 0.78322
207 1 0.294507 0.00510872 0.90994
248 1 0.696277 0.409965 0.917984
249 1 0.799778 0.396028 0.810555
241 1 0.997381 0.404114 0.795546
243 1 0.204075 0.397815 0.808053
222 1 0.0969786 0.302698 0.810869
242 1 0.0940617 0.391917 0.89956
228 1 0.211091 0.298668 0.899199
244 1 0.29978 0.408872 0.893258
456 1 0.414619 0.480727 0.912436
29 1 0.386436 0.188438 0.99389
25 1 0.212167 0.196894 0.998396
155 1 0.188463 0.00843391 0.604273
126 1 0.105378 0.0056718 0.513999
401 1 0.0955885 0.497565 0.592308
455 1 0.514929 0.499522 0.824358
211 1 0.485675 0.0144182 0.876955
458 1 0.603125 0.494329 0.907326
165 1 0.684599 0.0107086 0.705738
459 1 0.899683 0.4812 0.794198
141 1 0.410907 0.306706 0.504869
147 1 0.294674 0.397458 0.500687
140 1 0.512071 0.21964 0.513494
259 1 0.920237 0.493219 0.987997
9 1 0.418903 0.0109621 0.992162
45 1 0.387486 0.385818 0.999755
37 1 0.798952 0.219888 0.993861
131 1 0.423856 0.100268 0.502304
47 1 0.583477 0.391466 0.999808
149 1 0.699124 0.413922 0.515052
18 1 0.900595 0.106441 0.988324
138 1 0.330026 0.197886 0.501227
263 1 0.107278 0.612383 0.106714
311 1 0.0179654 0.592507 0.203679
312 1 0.110515 0.718849 0.199245
315 1 0.200814 0.628035 0.20276
264 1 0.0254622 0.711718 0.0997032
268 1 0.20457 0.69909 0.0838491
391 1 0.0834253 0.799856 0.49873
267 1 0.343458 0.597991 0.0993124
316 1 0.300946 0.710034 0.197417
386 1 0.398823 0.684644 0.489058
303 1 0.301062 0.52611 0.196222
350 1 0.78182 0.892849 0.300596
272 1 0.394802 0.706716 0.103305
319 1 0.406142 0.613115 0.208891
271 1 0.505219 0.605688 0.100409
320 1 0.486556 0.702921 0.195349
301 1 0.11788 0.51814 0.218225
55 1 0.194322 0.998608 0.204928
323 1 0.606953 0.61293 0.198567
275 1 0.715337 0.604013 0.102337
276 1 0.58296 0.710798 0.0925358
324 1 0.694786 0.709508 0.195412
327 1 0.785705 0.593394 0.200152
349 1 0.896438 0.78848 0.28136
374 1 0.804777 0.798259 0.384701
375 1 0.90765 0.884364 0.372538
261 1 0.00487643 0.593273 0.00696572
280 1 0.817153 0.684853 0.104397
279 1 0.919517 0.6044 0.119491
328 1 0.922722 0.71048 0.179762
283 1 0.122278 0.805955 0.0819086
332 1 0.102102 0.914302 0.178643
335 1 0.185886 0.819016 0.203333
284 1 0.00408713 0.893765 0.06721
331 1 0.00976806 0.811286 0.189601
288 1 0.192927 0.912168 0.0958092
254 1 0.201842 0.508574 0.103458
399 1 0.9218 0.805077 0.495936
287 1 0.28751 0.809489 0.108245
336 1 0.286839 0.902487 0.199663
306 1 0.39396 0.506371 0.301737
57 1 0.302755 0.988606 0.294623
292 1 0.388962 0.896994 0.0981893
339 1 0.402911 0.819347 0.198545
291 1 0.494075 0.806459 0.0939003
340 1 0.497285 0.904395 0.185435
296 1 0.591592 0.907795 0.103833
13 1 0.600727 0.998094 0.00861056
343 1 0.593151 0.794648 0.200194
295 1 0.682242 0.813325 0.104962
344 1 0.683895 0.909632 0.200947
345 1 0.683221 0.805929 0.29364
346 1 0.59188 0.890979 0.2871
300 1 0.799877 0.914375 0.128883
347 1 0.78896 0.793142 0.188998
299 1 0.924322 0.805462 0.0986373
348 1 0.907743 0.912416 0.211093
313 1 0.103612 0.60194 0.326399
357 1 0.0936716 0.705305 0.40333
358 1 0.199192 0.59121 0.40857
356 1 0.977543 0.601092 0.408701
314 1 0.00435368 0.717435 0.295509
61 1 0.508938 0.993913 0.288916
293 1 0.594354 0.79465 0.00998785
318 1 0.212421 0.696981 0.301899
317 1 0.293413 0.596761 0.303043
359 1 0.302298 0.694537 0.397098
105 1 0.399287 0.983211 0.391541
322 1 0.40812 0.717176 0.298529
360 1 0.391328 0.607327 0.385339
321 1 0.495875 0.59734 0.30323
361 1 0.491432 0.708885 0.395937
326 1 0.590216 0.69518 0.285987
362 1 0.596153 0.624696 0.415569
325 1 0.703143 0.611647 0.296318
330 1 0.790242 0.706994 0.282842
363 1 0.688519 0.711458 0.389484
252 1 0.0111316 0.516482 0.109223
273 1 0.598998 0.599143 0.00395874
107 1 0.591254 0.973259 0.391965
308 1 0.608274 0.511756 0.296867
364 1 0.790305 0.594328 0.403891
365 1 0.888429 0.696543 0.411766
329 1 0.892899 0.603682 0.284029
309 1 0.912366 0.501161 0.206916
333 1 0.117418 0.784293 0.307232
366 1 0.0165479 0.800629 0.391424
368 1 0.203546 0.807461 0.395042
334 1 0.0339468 0.891278 0.28578
367 1 0.113715 0.903286 0.38851
294 1 0.720624 0.914252 0.015023
372 1 0.598432 0.807999 0.407642
109 1 0.790582 0.979562 0.403232
338 1 0.201861 0.912271 0.308162
337 1 0.282031 0.805522 0.286013
369 1 0.286353 0.898074 0.401994
305 1 0.503214 0.502648 0.197739
371 1 0.483597 0.886166 0.411948
341 1 0.50742 0.806564 0.297802
342 1 0.403888 0.903878 0.282641
370 1 0.389578 0.812282 0.395342
373 1 0.691615 0.899674 0.417312
51 1 0.00431065 0.995281 0.208123
101 1 0.00592282 0.974415 0.397029
354 1 0.68485 0.513482 0.389325
65 1 0.689559 0.99084 0.298922
260 1 0.80227 0.510542 0.0939429
7 1 0.294432 0.997711 0.110827
381 1 0.0880485 0.585483 0.494145
297 1 0.79037 0.801179 0.024906
266 1 0.295544 0.679387 0.00877334
274 1 0.701844 0.689662 0.0122503
382 1 0.00479341 0.689333 0.494918
286 1 0.305849 0.920596 0.00508695
285 1 0.221847 0.806542 0.00612792
385 1 0.495588 0.595463 0.482979
396 1 0.376894 0.908752 0.494141
277 1 0.825317 0.60208 0.00613628
379 1 0.59049 0.511894 0.493879
265 1 0.183511 0.600489 0.0126277
278 1 0.914446 0.700193 0.0146657
384 1 0.190143 0.709436 0.491567
412 1 0.105931 0.692119 0.580422
413 1 0.101746 0.589744 0.69005
414 1 0.00945848 0.697806 0.695223
418 1 0.174754 0.694281 0.681608
209 1 0.393563 0.997608 0.790976
415 1 0.189469 0.598547 0.574628
416 1 0.304513 0.678042 0.588494
417 1 0.27985 0.587998 0.690748
422 1 0.395762 0.687657 0.731462
419 1 0.401598 0.594432 0.601891
383 1 0.312682 0.584734 0.507336
407 1 0.680404 0.517097 0.60709
420 1 0.487923 0.690027 0.603393
421 1 0.49768 0.587521 0.705993
484 1 0.00459141 0.892943 0.904241
497 1 0.8218 0.801574 0.798632
213 1 0.597576 0.986385 0.807436
423 1 0.577344 0.600773 0.601461
426 1 0.584863 0.689099 0.702188
424 1 0.682993 0.689082 0.617289
425 1 0.706308 0.597186 0.705497
427 1 0.798291 0.598813 0.608669
430 1 0.804259 0.714235 0.705439
402 1 0.00237429 0.504794 0.685317
411 1 0.9939 0.595961 0.597624
151 1 0.990861 0.985802 0.608105
203 1 0.111757 0.997792 0.896773
428 1 0.896561 0.713703 0.588522
429 1 0.900119 0.612464 0.683117
253 1 0.304165 0.508045 0.996238
499 1 0.906788 0.806584 0.909909
282 1 0.101812 0.899447 0.991759
161 1 0.495292 0.998234 0.705295
380 1 0.79874 0.507534 0.501951
432 1 0.0895793 0.897876 0.601993
433 1 0.0774087 0.810792 0.706745
438 1 0.182332 0.895138 0.698316
435 1 0.204693 0.796422 0.601619
431 1 0.00507819 0.800563 0.596332
434 1 0.983354 0.898857 0.71584
159 1 0.408836 0.991386 0.595147
498 1 0.905725 0.905118 0.821854
436 1 0.300067 0.899702 0.596293
437 1 0.293595 0.79761 0.692231
132 1 0.708291 0.999091 0.502136
397 1 0.705561 0.791654 0.520435
442 1 0.41059 0.892721 0.707076
439 1 0.392802 0.787963 0.608572
440 1 0.490567 0.904408 0.593677
441 1 0.500886 0.792653 0.702567
446 1 0.576267 0.903201 0.70181
1 1 0.000386945 0.998202 0.981521
201 1 0.00558842 0.999474 0.818855
500 1 0.808309 0.905104 0.89654
443 1 0.592855 0.794263 0.598721
444 1 0.688813 0.909699 0.608347
445 1 0.669403 0.813209 0.707292
269 1 0.418984 0.59901 0.999896
167 1 0.791123 0.959696 0.60093
450 1 0.783644 0.87415 0.705537
447 1 0.812451 0.805034 0.591832
448 1 0.900642 0.88458 0.606435
449 1 0.91843 0.782487 0.696373
217 1 0.793344 0.991871 0.800453
494 1 0.690846 0.907428 0.801432
457 1 0.711434 0.518949 0.817348
461 1 0.981043 0.602471 0.771108
462 1 0.0778237 0.6769 0.812646
463 1 0.102954 0.593726 0.905714
486 1 0.304284 0.896048 0.790882
153 1 0.0898256 0.995447 0.705801
468 1 0.19204 0.691879 0.911798
465 1 0.189446 0.598963 0.792312
466 1 0.288552 0.671504 0.805643
467 1 0.312868 0.601603 0.905147
469 1 0.401344 0.579845 0.806158
489 1 0.394871 0.790675 0.810072
488 1 0.209217 0.889702 0.892355
472 1 0.397358 0.699217 0.892729
470 1 0.504007 0.691421 0.806662
471 1 0.508916 0.604406 0.909157
473 1 0.616687 0.617481 0.811628
476 1 0.600617 0.707768 0.911006
389 1 0.895977 0.610185 0.51667
485 1 0.192564 0.764679 0.788469
490 1 0.496081 0.9134 0.800606
492 1 0.376007 0.903863 0.892041
474 1 0.701602 0.716302 0.790473
475 1 0.703646 0.623802 0.906733
480 1 0.816273 0.700874 0.914776
477 1 0.817295 0.594575 0.803177
487 1 0.289445 0.794583 0.879542
491 1 0.487388 0.808777 0.903587
495 1 0.711875 0.815953 0.908646
493 1 0.596698 0.814391 0.814534
464 1 0.00334883 0.692463 0.910643
478 1 0.910124 0.704461 0.817863
479 1 0.91684 0.579126 0.883009
496 1 0.608663 0.89701 0.915376
483 1 0.11171 0.805517 0.897364
482 1 0.10615 0.897212 0.815652
481 1 0.995941 0.791057 0.811693
390 1 0.789632 0.697906 0.503125
395 1 0.487873 0.797752 0.507368
298 1 0.901214 0.904923 0.9983
169 1 0.885361 0.979922 0.699297
393 1 0.307936 0.790642 0.504285
406 1 0.389388 0.50127 0.693085
215 1 0.69462 0.998751 0.908638
410 1 0.803519 0.505012 0.701173
157 1 0.301216 0.993061 0.68852
454 1 0.194504 0.501527 0.894182
262 1 0.100824 0.704543 0.994945
453 1 0.292292 0.504178 0.796724
205 1 0.198502 0.986981 0.789967
388 1 0.597964 0.69712 0.514725
281 1 0.0163852 0.795833 0.99721
387 1 0.688828 0.59816 0.515202
400 1 0.794338 0.885732 0.500978
398 1 0.598841 0.893982 0.506385
392 1 0.00134631 0.905831 0.502797
270 1 0.484272 0.704377 0.987735
290 1 0.494655 0.90946 0.997975
394 1 0.200943 0.891787 0.500369
134 1 0.887183 0.971418 0.517829
289 1 0.383673 0.787978 0.990081
