ITEM: TIMESTEP
31250
ITEM: NUMBER OF ATOMS
864
ITEM: BOX BOUNDS pp pp pp
0.0000000000000000e+00 3.1559999999999999e+01
0.0000000000000000e+00 3.1559999999999999e+01
0.0000000000000000e+00 3.1559999999999999e+01
ITEM: ATOMS id type xs ys zs
74 1 0.0758369 0.0765057 0.170955
8 1 0.169809 0.0787988 0.0818342
46 1 0.927038 0.251363 0.0238703
78 1 0.256208 0.066157 0.179184
579 1 0.102263 0.494791 0.426976
665 1 0.65605 0.498817 0.478817
12 1 0.318614 0.0708278 0.0898861
16 1 0.505038 0.0681971 0.0808217
35 1 0.436624 0.155261 0.086915
82 1 0.422029 0.0859936 0.176528
278 1 0.579014 0.416556 0.494379
2 1 0.0885581 0.0707642 0.0125199
39 1 0.576049 0.153059 0.083441
86 1 0.587748 0.0836667 0.170184
113 1 0.66898 0.174749 0.17246
20 1 0.658111 0.0821266 0.087008
42 1 0.74619 0.266841 0.00502798
34 1 0.410376 0.23855 0.000868775
577 1 0.996974 0.494776 0.330861
90 1 0.741026 0.0639849 0.158444
43 1 0.735433 0.16363 0.074655
4 1 0.00241029 0.0793613 0.0749735
24 1 0.840488 0.091388 0.0787052
117 1 0.821134 0.162441 0.17205
221 1 0.176595 0.00555872 0.492257
73 1 0.000725296 0.00170138 0.172232
265 1 0.9911 0.329394 0.495707
27 1 0.0780158 0.155187 0.0792917
28 1 0.0136977 0.246947 0.094546
455 1 0.929357 0.499943 0.0780434
69 1 0.830434 0.344838 0.00840014
31 1 0.252512 0.157753 0.104034
32 1 0.165584 0.230245 0.0951717
36 1 0.334481 0.238102 0.0923499
77 1 0.172782 0.00328143 0.177058
253 1 0.503457 0.155446 0.478398
59 1 0.404434 0.327275 0.0659665
133 1 0.497769 0.342171 0.168594
155 1 0.423844 0.00986952 0.414999
40 1 0.500967 0.259042 0.0849629
110 1 0.576528 0.249538 0.164392
218 1 0.0726971 0.0866699 0.493287
230 1 0.590598 0.0791566 0.497222
44 1 0.667974 0.249081 0.0924117
67 1 0.741677 0.346091 0.080062
114 1 0.752416 0.261022 0.164414
48 1 0.836395 0.242558 0.0860771
97 1 0.998958 0.161663 0.172343
47 1 0.925325 0.149369 0.101371
51 1 0.0901318 0.322053 0.0808033
121 1 0.0121552 0.31941 0.170312
254 1 0.580215 0.260721 0.494137
167 1 0.914017 0.00770834 0.416899
56 1 0.149636 0.410661 0.0862641
55 1 0.256848 0.329918 0.0913425
60 1 0.329274 0.419288 0.0714586
53 1 0.159701 0.315618 0.000185912
238 1 0.909704 0.0878114 0.494409
130 1 0.422688 0.419775 0.173945
64 1 0.496787 0.421033 0.077291
261 1 0.81647 0.178457 0.485187
30 1 0.244661 0.237575 0.0118572
63 1 0.579888 0.323878 0.0806895
137 1 0.664511 0.339012 0.16058
507 1 0.0889669 0.493605 0.238791
134 1 0.582105 0.419857 0.184171
285 1 0.821507 0.334797 0.489647
163 1 0.750485 0.0100493 0.435313
196 1 0.0077492 0.425047 0.417241
68 1 0.648976 0.411803 0.0826259
72 1 0.840574 0.427575 0.0750704
138 1 0.743199 0.413375 0.155785
226 1 0.416327 0.0813546 0.494319
71 1 0.937061 0.342662 0.100888
52 1 0.00859792 0.419778 0.0663446
142 1 0.926235 0.414112 0.169631
80 1 0.163854 0.0739451 0.27445
214 1 0.919515 0.422577 0.315088
76 1 0.00512052 0.0770284 0.25861
99 1 0.0829852 0.165886 0.250667
84 1 0.317331 0.0824737 0.265743
105 1 0.328958 0.14854 0.180544
215 1 0.910241 0.34575 0.41509
210 1 0.750225 0.405364 0.330784
213 1 0.841654 0.328634 0.316611
216 1 0.828151 0.422137 0.412786
107 1 0.410659 0.167689 0.261186
154 1 0.40791 0.0910985 0.328532
88 1 0.499862 0.0689634 0.263746
92 1 0.665304 0.0877516 0.237585
158 1 0.595639 0.0797981 0.336003
115 1 0.747342 0.164131 0.241088
162 1 0.738123 0.0917554 0.333556
96 1 0.821303 0.0801912 0.258725
234 1 0.739452 0.0984314 0.492234
241 1 0.00779473 0.176937 0.493838
94 1 0.909857 0.0645568 0.175944
212 1 0.661626 0.420678 0.407096
443 1 0.414536 0.489003 0.0845282
206 1 0.581818 0.424424 0.338296
98 1 0.0957207 0.235766 0.181019
101 1 0.167297 0.142068 0.16982
125 1 0.163173 0.334842 0.171479
100 1 0.00481277 0.257972 0.258266
123 1 0.0842308 0.333851 0.253953
104 1 0.178525 0.254426 0.258658
102 1 0.255593 0.250514 0.172887
103 1 0.243655 0.171926 0.255636
108 1 0.335627 0.233659 0.240111
109 1 0.498548 0.166217 0.176213
129 1 0.333297 0.341533 0.158141
106 1 0.411533 0.240098 0.160273
112 1 0.500102 0.252266 0.253025
131 1 0.403921 0.33418 0.244096
111 1 0.577489 0.180577 0.245922
182 1 0.590949 0.249103 0.324727
135 1 0.583778 0.335807 0.26809
209 1 0.67239 0.31347 0.331701
116 1 0.668044 0.256675 0.23332
185 1 0.668086 0.169612 0.326627
186 1 0.760855 0.243931 0.311055
118 1 0.903069 0.236524 0.169766
169 1 0.0131813 0.17194 0.331945
120 1 0.83013 0.248051 0.23968
119 1 0.934356 0.16441 0.250297
190 1 0.915421 0.247307 0.334907
189 1 0.839817 0.171554 0.334519
193 1 0.989105 0.346396 0.340396
122 1 0.0675516 0.399984 0.152668
194 1 0.087213 0.422013 0.337087
57 1 0.317191 0.318575 0.00703914
127 1 0.258065 0.330972 0.24102
126 1 0.240859 0.40329 0.172669
128 1 0.170675 0.403024 0.250972
54 1 0.234173 0.409453 0.0105184
188 1 0.666259 0.24977 0.422231
132 1 0.324446 0.421599 0.245341
85 1 0.498398 0.0031551 0.169723
136 1 0.502415 0.414643 0.26646
140 1 0.670599 0.407035 0.24754
139 1 0.747229 0.328421 0.254413
143 1 0.921828 0.336997 0.23803
141 1 0.831257 0.337106 0.153644
144 1 0.834719 0.420689 0.253585
124 1 0.0101084 0.404496 0.243836
205 1 0.493824 0.329822 0.318621
208 1 0.501341 0.420742 0.414837
146 1 0.0824444 0.0808954 0.337362
148 1 0.989586 0.0905608 0.413413
274 1 0.402237 0.429164 0.496695
191 1 0.918543 0.169235 0.411199
513 1 0.327275 0.492199 0.1635
192 1 0.820368 0.2536 0.407789
152 1 0.165446 0.0856435 0.41204
150 1 0.246136 0.0852381 0.34412
156 1 0.33904 0.0869302 0.411518
211 1 0.74185 0.33304 0.410152
15 1 0.585491 7.34908e-05 0.0772919
523 1 0.751991 0.491378 0.250549
187 1 0.748027 0.174656 0.411675
6 1 0.246899 0.0811677 0.0102152
160 1 0.522623 0.0764462 0.411798
164 1 0.664473 0.0889601 0.413616
181 1 0.504014 0.154489 0.326186
183 1 0.581298 0.186572 0.39881
593 1 0.665948 0.499869 0.326644
281 1 0.668971 0.340047 0.488431
168 1 0.828973 0.0982987 0.411153
258 1 0.750873 0.254146 0.496484
202 1 0.403351 0.432137 0.341001
199 1 0.263424 0.335386 0.423024
166 1 0.914473 0.0871541 0.329889
195 1 0.0855535 0.329628 0.396719
170 1 0.0976833 0.246091 0.33013
171 1 0.0914104 0.162028 0.428463
172 1 0.997825 0.254434 0.411279
176 1 0.175932 0.252877 0.407924
173 1 0.166115 0.170607 0.32996
200 1 0.174519 0.406183 0.406537
177 1 0.332089 0.167667 0.34536
174 1 0.264397 0.249981 0.326243
175 1 0.248794 0.177986 0.401765
178 1 0.415126 0.255381 0.330801
201 1 0.336522 0.334057 0.329226
179 1 0.421626 0.165844 0.408899
203 1 0.407505 0.349244 0.404787
180 1 0.337518 0.245469 0.411205
207 1 0.59951 0.328477 0.415378
198 1 0.261209 0.406643 0.332743
197 1 0.170838 0.323865 0.331953
184 1 0.500064 0.2752 0.414413
204 1 0.316427 0.424931 0.417213
165 1 0.809267 0.0057509 0.337543
581 1 0.172761 0.495856 0.325275
23 1 0.916301 0.00944614 0.0845388
447 1 0.579179 0.48846 0.0917337
509 1 0.152111 0.490385 0.14921
521 1 0.670072 0.4891 0.172851
439 1 0.231476 0.495881 0.075173
65 1 0.655548 0.328929 0.002384
282 1 0.740511 0.423933 0.486868
26 1 0.0940243 0.240497 0.00698967
222 1 0.251388 0.0847854 0.486896
249 1 0.340386 0.169082 0.491638
250 1 0.441726 0.242396 0.497972
95 1 0.910879 0.00511174 0.258657
151 1 0.260138 0.00806592 0.413689
262 1 0.913556 0.2511 0.481739
595 1 0.751429 0.499966 0.413797
245 1 0.164691 0.181875 0.496768
49 1 0.0123508 0.335581 0.000166249
41 1 0.644261 0.147758 0.0113317
286 1 0.923579 0.428502 0.495569
257 1 0.648083 0.176541 0.495705
33 1 0.342277 0.155997 0.00636831
269 1 0.16793 0.320866 0.497324
10 1 0.420994 0.0833363 0.00906976
217 1 0.987203 0.00721924 0.495549
45 1 0.836924 0.174864 0.0099146
242 1 0.0921292 0.249385 0.487122
224 1 0.177662 0.0938096 0.574437
797 1 0.159478 0.499986 0.833554
313 1 0.986173 0.16554 0.662696
377 1 0.66561 0.00633887 0.830356
228 1 0.34688 0.0749239 0.577691
317 1 0.168673 0.174583 0.670293
251 1 0.415863 0.161043 0.567685
298 1 0.427771 0.091739 0.658841
811 1 0.743969 0.49869 0.908235
232 1 0.507356 0.0945907 0.574852
302 1 0.581261 0.0879149 0.668099
236 1 0.669978 0.0720391 0.57937
363 1 0.0768118 0.0039094 0.926373
277 1 0.487932 0.33966 0.502473
259 1 0.736945 0.180918 0.57175
58 1 0.410798 0.416786 0.988274
295 1 0.260074 9.99468e-05 0.733474
220 1 0.997378 0.0929248 0.568873
240 1 0.834458 0.100844 0.572248
263 1 0.919169 0.167773 0.574798
723 1 0.0849091 0.499138 0.738881
243 1 0.0760344 0.159965 0.59317
305 1 0.658453 0.00897262 0.664641
247 1 0.274599 0.168282 0.579601
248 1 0.181409 0.248599 0.573958
252 1 0.348774 0.262746 0.580724
737 1 0.673806 0.482968 0.674867
725 1 0.168607 0.499272 0.660833
321 1 0.351243 0.172163 0.658503
275 1 0.417482 0.352042 0.593184
379 1 0.740744 0.00909508 0.909693
345 1 0.353122 0.333447 0.676351
322 1 0.42379 0.253738 0.663696
256 1 0.501532 0.260618 0.590123
255 1 0.579697 0.181044 0.577349
326 1 0.596531 0.252543 0.665359
655 1 0.24856 0.495695 0.58669
381 1 0.825274 0.00797084 0.833547
260 1 0.66183 0.24956 0.570447
311 1 0.898847 0.00350072 0.754633
244 1 0.977139 0.25451 0.573202
264 1 0.830036 0.237102 0.572714
50 1 0.0997484 0.416194 0.995306
37 1 0.501895 0.174233 0.996318
267 1 0.0745198 0.323974 0.577176
731 1 0.414677 0.494954 0.764241
237 1 0.840753 0.00155571 0.508374
271 1 0.244314 0.327698 0.593876
272 1 0.172149 0.41892 0.59436
429 1 0.814801 0.328985 0.833488
14 1 0.572383 0.075444 0.991776
276 1 0.325669 0.417304 0.582951
346 1 0.427855 0.415447 0.677001
280 1 0.507753 0.41962 0.590666
369 1 0.35794 0.00705605 0.830541
279 1 0.590025 0.340582 0.586797
349 1 0.508714 0.346937 0.673609
350 1 0.581874 0.429498 0.665826
430 1 0.892307 0.403297 0.839903
283 1 0.741768 0.342918 0.57257
284 1 0.68836 0.430349 0.58433
354 1 0.762884 0.418 0.673371
801 1 0.336128 0.496789 0.844975
268 1 0.995582 0.412879 0.576173
288 1 0.83238 0.415534 0.574605
287 1 0.901799 0.334055 0.562654
293 1 0.148448 0.00601729 0.656342
431 1 0.923689 0.330368 0.914829
290 1 0.0806948 0.0863533 0.682965
292 1 0.999356 0.0854917 0.761037
315 1 0.0912127 0.179037 0.756785
296 1 0.174769 0.0752753 0.759815
294 1 0.231144 0.0779179 0.661816
319 1 0.263436 0.159726 0.727956
815 1 0.927843 0.490328 0.906919
735 1 0.584225 0.491356 0.749316
301 1 0.503389 0.00509752 0.662705
428 1 0.669115 0.408661 0.895809
300 1 0.350708 0.0814727 0.749577
304 1 0.488066 0.0865661 0.750892
393 1 0.332482 0.156313 0.84199
323 1 0.408492 0.184256 0.747589
370 1 0.420058 0.0987497 0.82683
432 1 0.832183 0.413562 0.921624
422 1 0.57326 0.418167 0.842166
325 1 0.509566 0.171961 0.66658
374 1 0.585576 0.0759212 0.803041
743 1 0.92841 0.495503 0.754683
308 1 0.671467 0.0843624 0.744922
306 1 0.747085 0.0951115 0.653709
331 1 0.746472 0.179083 0.743363
807 1 0.600769 0.49517 0.928641
312 1 0.826238 0.0979544 0.75404
310 1 0.918312 0.0845132 0.663706
333 1 0.832447 0.178833 0.669291
335 1 0.923179 0.176915 0.74948
424 1 0.499618 0.431687 0.921927
314 1 0.0842442 0.25015 0.659191
316 1 0.997855 0.263959 0.734992
337 1 0.99521 0.340166 0.658564
386 1 0.0695949 0.257526 0.837755
318 1 0.269348 0.249371 0.655563
320 1 0.171661 0.257651 0.759974
343 1 0.254596 0.333455 0.744496
417 1 0.330253 0.323408 0.845796
324 1 0.327177 0.257025 0.753367
394 1 0.408382 0.249889 0.841679
328 1 0.495689 0.244144 0.747222
347 1 0.425172 0.32479 0.754537
327 1 0.589282 0.175385 0.763682
351 1 0.584387 0.336785 0.748737
332 1 0.671028 0.260211 0.74052
329 1 0.658917 0.17091 0.654541
330 1 0.746751 0.262643 0.656965
355 1 0.749219 0.346056 0.742407
334 1 0.907109 0.264164 0.663312
336 1 0.828075 0.260696 0.744494
339 1 0.0769041 0.32992 0.744689
338 1 0.084163 0.407671 0.656022
410 1 0.0752908 0.41968 0.832798
340 1 0.999 0.413604 0.728805
409 1 0.993036 0.350639 0.823251
341 1 0.164081 0.325518 0.662514
344 1 0.165833 0.419155 0.750407
342 1 0.258266 0.408676 0.668658
348 1 0.341659 0.410673 0.759869
413 1 0.150523 0.341296 0.835811
418 1 0.413266 0.406769 0.856235
219 1 0.069186 0.0144525 0.591012
421 1 0.50903 0.325494 0.831559
231 1 0.586276 0.00997266 0.583263
353 1 0.680039 0.345186 0.664301
809 1 0.660613 0.499174 0.830475
352 1 0.500729 0.410775 0.758783
426 1 0.762645 0.421614 0.82822
356 1 0.660338 0.406316 0.758037
239 1 0.927887 0.00498748 0.58812
414 1 0.252133 0.416311 0.838578
357 1 0.828 0.330468 0.651109
360 1 0.847741 0.424977 0.750374
359 1 0.905733 0.33631 0.752918
358 1 0.9169 0.413476 0.656861
389 1 0.170754 0.154777 0.836569
61 1 0.494503 0.335324 0.995584
362 1 0.0726836 0.0867695 0.832091
368 1 0.159376 0.0705808 0.933684
364 1 0.991886 0.0916796 0.932905
366 1 0.249799 0.0773003 0.833917
372 1 0.348044 0.0754183 0.914335
391 1 0.254749 0.150969 0.925021
383 1 0.919418 0.00285589 0.937349
395 1 0.418171 0.160392 0.920843
401 1 0.66676 0.183653 0.833176
376 1 0.49674 0.085855 0.897883
380 1 0.662255 0.0970022 0.893323
397 1 0.499167 0.18837 0.830441
378 1 0.747405 0.0906217 0.823057
403 1 0.743417 0.171529 0.936957
384 1 0.819837 0.0991233 0.920776
729 1 0.333557 0.487668 0.670614
289 1 0.994309 0.00326746 0.675774
382 1 0.915814 0.0905727 0.839209
405 1 0.834039 0.160146 0.836725
387 1 0.0781316 0.144205 0.917523
385 1 0.00111049 0.171947 0.828131
388 1 0.00267837 0.256242 0.930501
415 1 0.249168 0.324003 0.929865
392 1 0.150944 0.256334 0.917858
390 1 0.249089 0.236122 0.848564
270 1 0.247292 0.414136 0.50321
419 1 0.41567 0.33047 0.927693
396 1 0.328223 0.24399 0.926167
400 1 0.501229 0.251595 0.924711
423 1 0.579511 0.333115 0.914903
398 1 0.604351 0.263205 0.839219
399 1 0.581575 0.165052 0.912659
62 1 0.574972 0.405799 0.99838
404 1 0.667827 0.257185 0.92784
402 1 0.759357 0.227344 0.830358
425 1 0.683927 0.324846 0.833445
427 1 0.746914 0.343642 0.911946
407 1 0.91805 0.19532 0.914016
408 1 0.821304 0.253906 0.923886
406 1 0.901724 0.256815 0.823333
659 1 0.416723 0.480275 0.590691
412 1 0.996881 0.413403 0.916103
727 1 0.252659 0.495061 0.7603
411 1 0.0721731 0.336201 0.914298
651 1 0.0697009 0.492015 0.581534
416 1 0.179811 0.400279 0.919828
420 1 0.316249 0.40833 0.931036
223 1 0.270583 0.013574 0.563513
17 1 0.658874 0.00662304 0.987554
367 1 0.243547 0.00283583 0.936238
663 1 0.57613 0.49225 0.586957
733 1 0.498385 0.494461 0.675097
66 1 0.739738 0.418827 0.987419
38 1 0.581874 0.246257 0.999858
21 1 0.834227 3.02112e-05 0.999698
266 1 0.0810726 0.409189 0.5036
22 1 0.903621 0.0989288 0.990949
246 1 0.262846 0.253341 0.506412
273 1 0.348796 0.342478 0.509705
70 1 0.919778 0.419565 0.990078
29 1 0.164282 0.165605 0.986261
18 1 0.750012 0.0773081 0.9982
25 1 0.99091 0.170804 0.999651
506 1 0.0803091 0.583615 0.15748
705 1 0.328087 0.83479 0.486827
533 1 0.157871 0.66759 0.177482
440 1 0.183469 0.586081 0.081779
657 1 0.323918 0.501991 0.495488
145 1 0.00410843 0.994979 0.328974
444 1 0.340951 0.57864 0.0896921
514 1 0.418359 0.582202 0.165757
225 1 0.350171 0.99685 0.490226
628 1 0.00101138 0.922046 0.422791
474 1 0.751535 0.738782 0.00628473
448 1 0.512066 0.587044 0.0866389
452 1 0.680396 0.600303 0.0818151
518 1 0.598842 0.578264 0.166948
456 1 0.846384 0.594015 0.0866721
475 1 0.7561 0.676676 0.0904643
522 1 0.746156 0.57387 0.1758
549 1 0.824621 0.677245 0.170115
469 1 0.497369 0.666546 0.00546804
436 1 0.99843 0.593597 0.0898476
479 1 0.91803 0.669723 0.0863443
19 1 0.732616 0.986629 0.0856042
526 1 0.910887 0.582564 0.172691
646 1 0.92653 0.920554 0.337613
459 1 0.0703761 0.671714 0.0983791
483 1 0.0892738 0.837609 0.0869116
530 1 0.085063 0.752269 0.172225
463 1 0.263191 0.67349 0.0856884
464 1 0.182066 0.753398 0.0798949
487 1 0.253798 0.839837 0.0595192
468 1 0.327604 0.77167 0.0894148
467 1 0.409218 0.65722 0.0857891
491 1 0.409875 0.840646 0.0836568
471 1 0.580252 0.665186 0.0946452
472 1 0.490833 0.743229 0.0925303
541 1 0.499823 0.655695 0.175252
495 1 0.569416 0.837793 0.0789769
542 1 0.5658 0.742446 0.173112
476 1 0.654541 0.755326 0.0929171
499 1 0.740212 0.826478 0.0854383
546 1 0.753619 0.762394 0.180905
83 1 0.40518 0.995025 0.249678
91 1 0.735367 0.987686 0.240048
434 1 0.0884516 0.603492 0.00769617
480 1 0.837132 0.752567 0.0875842
460 1 0.994837 0.741919 0.0831373
519 1 0.573209 0.505574 0.254001
484 1 0.00536788 0.918468 0.0954847
515 1 0.411541 0.508246 0.244051
666 1 0.735843 0.582263 0.492438
11 1 0.416528 0.998438 0.0782113
717 1 0.842748 0.829066 0.497155
488 1 0.167422 0.91326 0.0976853
492 1 0.334294 0.927132 0.0865682
446 1 0.592162 0.591311 0.0103565
641 1 0.659218 0.821607 0.340921
496 1 0.489862 0.919239 0.0732121
587 1 0.406525 0.505929 0.414535
5 1 0.174155 0.997332 0.0122299
642 1 0.743264 0.910604 0.344882
597 1 0.84041 0.504248 0.332777
682 1 0.407668 0.746701 0.494524
500 1 0.659965 0.911271 0.0700064
583 1 0.234397 0.506672 0.408361
157 1 0.503853 0.991668 0.345432
589 1 0.490043 0.505548 0.335803
644 1 0.668947 0.901607 0.442027
599 1 0.921663 0.500728 0.409079
503 1 0.925223 0.828926 0.0846176
504 1 0.835992 0.928627 0.0852175
457 1 0.999835 0.666411 0.00361916
529 1 0.987165 0.660342 0.182442
531 1 0.0787882 0.666063 0.255436
159 1 0.603427 0.987919 0.420799
512 1 0.15504 0.575333 0.2465
510 1 0.256272 0.584454 0.160909
605 1 0.162667 0.6622 0.327284
535 1 0.248155 0.666479 0.245875
516 1 0.326626 0.59165 0.251534
537 1 0.330221 0.670652 0.170367
586 1 0.417122 0.590261 0.336892
520 1 0.498704 0.583986 0.25037
524 1 0.658001 0.589085 0.246328
545 1 0.675274 0.679966 0.16155
543 1 0.573674 0.661026 0.25233
648 1 0.841008 0.924156 0.414323
3 1 0.0870792 0.98964 0.0838218
714 1 0.763408 0.911875 0.493991
547 1 0.739977 0.661074 0.251588
594 1 0.756404 0.584849 0.323968
640 1 0.503872 0.91292 0.426697
661 1 0.499544 0.504354 0.491132
528 1 0.825926 0.593464 0.247439
508 1 0.999024 0.596889 0.26726
598 1 0.914195 0.586275 0.338063
557 1 0.171768 0.824474 0.176381
555 1 0.088791 0.8424 0.258911
602 1 0.085182 0.759289 0.341504
629 1 0.167303 0.83548 0.343478
532 1 0.00777277 0.74997 0.2536
534 1 0.258918 0.756771 0.17291
536 1 0.169463 0.737889 0.256023
606 1 0.255999 0.759252 0.324655
609 1 0.329921 0.668052 0.339494
538 1 0.412511 0.740899 0.166189
539 1 0.406927 0.669836 0.23476
540 1 0.333766 0.757091 0.254299
563 1 0.40688 0.844729 0.253694
544 1 0.493332 0.745597 0.252115
567 1 0.583948 0.825072 0.249648
617 1 0.663388 0.666915 0.322149
614 1 0.570935 0.747822 0.341751
548 1 0.654951 0.748171 0.25281
552 1 0.838514 0.76577 0.260402
571 1 0.751142 0.838332 0.256884
573 1 0.835887 0.830089 0.161232
550 1 0.920981 0.753102 0.17375
551 1 0.908528 0.667508 0.258064
625 1 0.00242649 0.848238 0.343282
622 1 0.917353 0.759333 0.340852
554 1 0.094694 0.908569 0.181877
626 1 0.0895768 0.910159 0.341436
560 1 0.168541 0.912799 0.25378
558 1 0.248519 0.906192 0.179463
561 1 0.338498 0.836692 0.176081
559 1 0.251827 0.842624 0.261968
564 1 0.326032 0.910376 0.259328
630 1 0.247279 0.920964 0.350826
562 1 0.423851 0.921884 0.167098
639 1 0.586263 0.823567 0.429788
568 1 0.506401 0.915443 0.254154
149 1 0.159812 0.988237 0.357037
637 1 0.4961 0.840174 0.344502
638 1 0.581804 0.898725 0.327019
565 1 0.48516 0.823741 0.187834
566 1 0.574249 0.911696 0.155084
572 1 0.669464 0.901281 0.262023
505 1 0.985494 0.504914 0.167862
570 1 0.764101 0.905315 0.165331
569 1 0.661805 0.84043 0.164612
576 1 0.835081 0.921927 0.248004
553 1 0.0195174 0.845838 0.178611
575 1 0.926199 0.832336 0.244784
556 1 0.000667477 0.919257 0.249775
574 1 0.905727 0.913993 0.16741
445 1 0.512025 0.509191 0.000450857
578 1 0.0828777 0.568901 0.33492
603 1 0.0825152 0.675672 0.411856
161 1 0.674552 0.999124 0.336114
582 1 0.244437 0.587097 0.331255
584 1 0.172677 0.590718 0.407816
607 1 0.234526 0.680476 0.408304
588 1 0.328833 0.588248 0.419135
633 1 0.329272 0.841955 0.347217
592 1 0.491498 0.595634 0.41711
79 1 0.24862 0.988217 0.262011
636 1 0.316183 0.921377 0.427061
590 1 0.571478 0.597843 0.33845
596 1 0.669257 0.5875 0.404752
690 1 0.745654 0.735279 0.495487
634 1 0.427173 0.91613 0.33614
600 1 0.828306 0.57998 0.411007
619 1 0.75128 0.667483 0.402388
525 1 0.832351 0.504377 0.159562
580 1 0.00710808 0.590234 0.420478
621 1 0.833782 0.664277 0.329848
632 1 0.171996 0.915119 0.421287
511 1 0.238202 0.510097 0.23282
89 1 0.657071 0.976036 0.174801
604 1 0.00567935 0.753319 0.424093
608 1 0.157139 0.756882 0.422958
7 1 0.249331 0.987375 0.0968038
612 1 0.326687 0.752699 0.418993
631 1 0.232776 0.830813 0.429524
627 1 0.0945031 0.833785 0.42486
610 1 0.410175 0.759883 0.324504
611 1 0.403738 0.682424 0.416769
635 1 0.420048 0.82582 0.416998
613 1 0.495599 0.670732 0.335928
616 1 0.493273 0.757626 0.432296
615 1 0.58443 0.653232 0.433965
620 1 0.663412 0.737603 0.408239
645 1 0.840279 0.835633 0.340366
618 1 0.742687 0.743634 0.322136
643 1 0.747653 0.823418 0.412364
624 1 0.837459 0.745127 0.426238
670 1 0.917556 0.590738 0.492034
647 1 0.91343 0.843011 0.410633
502 1 0.918006 0.913342 0.0134967
601 1 0.00248502 0.677538 0.336158
623 1 0.91892 0.67313 0.404076
1 1 0.998641 0.982609 0.00714939
585 1 0.317212 0.508981 0.331868
147 1 0.0813549 0.992999 0.418971
706 1 0.413381 0.914775 0.492983
669 1 0.836487 0.504584 0.492089
81 1 0.337156 0.99814 0.170259
87 1 0.582667 0.993304 0.251621
489 1 0.344468 0.817878 0.000652139
501 1 0.824314 0.826426 0.00517176
153 1 0.341117 0.997683 0.340406
75 1 0.0943148 0.995789 0.253299
517 1 0.507259 0.516342 0.166839
591 1 0.582058 0.506179 0.405962
527 1 0.923235 0.51714 0.258218
435 1 0.0729839 0.511408 0.0875976
451 1 0.757885 0.510886 0.0792141
93 1 0.827609 0.994237 0.177088
649 1 0.99646 0.517807 0.49776
694 1 0.926534 0.769608 0.49406
677 1 0.172866 0.667862 0.497494
497 1 0.662032 0.821926 0.00566916
650 1 0.0900644 0.591059 0.492507
485 1 0.159789 0.833119 0.00231072
494 1 0.572952 0.921238 0.00373916
658 1 0.414125 0.592146 0.489092
442 1 0.423596 0.579917 0.0142137
465 1 0.333913 0.672883 0.00238141
458 1 0.0824032 0.742264 0.00226349
449 1 0.663967 0.513081 0.0111756
478 1 0.906121 0.75465 0.00236548
652 1 0.000764808 0.581718 0.582618
678 1 0.263755 0.742351 0.510059
863 1 0.924035 0.853075 0.930735
656 1 0.175167 0.58887 0.587382
679 1 0.252193 0.656201 0.585721
861 1 0.817261 0.832476 0.839278
726 1 0.254005 0.570813 0.663189
805 1 0.508283 0.511612 0.823726
227 1 0.415533 0.993151 0.57654
660 1 0.333201 0.574506 0.582044
730 1 0.407446 0.590157 0.660356
683 1 0.412853 0.667672 0.574862
309 1 0.835857 0.999567 0.650494
664 1 0.485393 0.572638 0.584077
668 1 0.660814 0.555639 0.587285
844 1 0.0101766 0.918447 0.917047
710 1 0.580551 0.905349 0.511929
672 1 0.836987 0.581751 0.583324
738 1 0.748921 0.569232 0.668336
689 1 0.663807 0.6546 0.502617
498 1 0.748217 0.911481 0.98778
299 1 0.42487 0.994826 0.730728
307 1 0.759291 0.995276 0.745294
675 1 0.0751332 0.680682 0.584024
745 1 0.0036408 0.684508 0.677246
749 1 0.160996 0.669762 0.673703
746 1 0.0812303 0.744545 0.664765
680 1 0.169846 0.76036 0.571356
703 1 0.269045 0.843215 0.581122
750 1 0.245154 0.737971 0.656307
684 1 0.340125 0.746411 0.591939
754 1 0.41816 0.731363 0.66247
713 1 0.666426 0.818305 0.508447
688 1 0.487956 0.748883 0.574135
687 1 0.600519 0.650466 0.578959
758 1 0.585723 0.730966 0.666295
667 1 0.758296 0.510712 0.569976
757 1 0.509504 0.650552 0.654935
691 1 0.74605 0.650613 0.579907
692 1 0.682558 0.74021 0.599976
761 1 0.677003 0.643622 0.658784
461 1 0.178521 0.666816 0.998926
696 1 0.834861 0.740857 0.559365
793 1 0.0126133 0.501863 0.828871
721 1 0.996101 0.512839 0.665572
676 1 0.996656 0.755517 0.569531
695 1 0.911623 0.661904 0.583731
719 1 0.921292 0.844091 0.583872
769 1 0.987891 0.819834 0.667844
702 1 0.244661 0.921056 0.513869
699 1 0.0847209 0.838037 0.593972
704 1 0.169198 0.932408 0.579509
700 1 0.011478 0.915168 0.600303
770 1 0.087371 0.919466 0.672364
858 1 0.738218 0.90199 0.824227
774 1 0.261006 0.923872 0.645519
777 1 0.358444 0.828951 0.675618
708 1 0.347398 0.916735 0.575976
860 1 0.669331 0.922075 0.919994
701 1 0.166217 0.84821 0.513101
864 1 0.821295 0.916975 0.907059
707 1 0.406125 0.827173 0.574569
778 1 0.433339 0.910128 0.66378
365 1 0.157746 0.990887 0.826401
712 1 0.507192 0.920904 0.577266
711 1 0.5868 0.831482 0.59052
297 1 0.337248 0.985497 0.668131
715 1 0.747962 0.837509 0.584615
716 1 0.662772 0.918093 0.605301
786 1 0.753307 0.91641 0.666486
739 1 0.764061 0.507558 0.753154
13 1 0.490485 0.991241 0.997962
720 1 0.830262 0.908108 0.580226
481 1 0.0140348 0.827 0.999132
233 1 0.68068 0.988786 0.504838
493 1 0.497113 0.830162 0.985237
722 1 0.0845934 0.588089 0.64987
794 1 0.0974908 0.58609 0.815971
724 1 0.0156251 0.593791 0.73694
686 1 0.575516 0.747695 0.515038
855 1 0.590057 0.844263 0.925594
728 1 0.174509 0.568643 0.734964
798 1 0.250711 0.578705 0.82746
671 1 0.922465 0.501229 0.5804
732 1 0.336373 0.585794 0.753152
755 1 0.415018 0.659473 0.758567
736 1 0.491527 0.582926 0.736967
753 1 0.324834 0.659186 0.656902
829 1 0.504533 0.649306 0.840858
825 1 0.331245 0.671056 0.843531
734 1 0.587848 0.559365 0.669084
857 1 0.661973 0.828995 0.815854
806 1 0.582204 0.581827 0.831115
759 1 0.571957 0.652912 0.747455
740 1 0.6762 0.583016 0.751952
810 1 0.75883 0.581106 0.840126
375 1 0.576051 0.998374 0.907622
744 1 0.854841 0.581558 0.756364
742 1 0.930151 0.599475 0.664915
814 1 0.924382 0.576854 0.835822
371 1 0.424025 0.998499 0.914693
799 1 0.242809 0.504631 0.910884
747 1 0.0879856 0.675913 0.744235
752 1 0.165762 0.762188 0.748083
771 1 0.0838371 0.837298 0.747818
818 1 0.0812231 0.761276 0.829835
751 1 0.255708 0.658209 0.746002
756 1 0.345699 0.738841 0.749193
821 1 0.175827 0.656862 0.825025
781 1 0.496791 0.812549 0.660663
779 1 0.426579 0.806158 0.7562
760 1 0.501318 0.73953 0.763479
764 1 0.669696 0.719998 0.73972
765 1 0.826093 0.64007 0.670754
763 1 0.764742 0.669005 0.751871
833 1 0.668987 0.662403 0.829063
762 1 0.768989 0.741359 0.667016
834 1 0.738865 0.756431 0.831171
766 1 0.900968 0.741159 0.646665
767 1 0.913638 0.67962 0.740814
748 1 0.00428983 0.760941 0.758223
768 1 0.83365 0.756574 0.757865
838 1 0.903476 0.76738 0.844648
842 1 0.0852779 0.919886 0.834701
772 1 0.0027417 0.923859 0.756265
773 1 0.176868 0.834412 0.671022
776 1 0.185348 0.923165 0.734121
775 1 0.262994 0.829118 0.746234
780 1 0.330157 0.912598 0.742411
846 1 0.249421 0.926645 0.837445
849 1 0.322722 0.841193 0.833839
850 1 0.41142 0.905299 0.832854
784 1 0.492781 0.899142 0.752266
782 1 0.575592 0.913092 0.672382
854 1 0.583502 0.908846 0.837247
783 1 0.578972 0.815443 0.748659
788 1 0.666878 0.912084 0.743024
789 1 0.84609 0.833815 0.656694
852 1 0.338393 0.927248 0.90623
785 1 0.658925 0.831407 0.661871
787 1 0.750072 0.831215 0.733207
792 1 0.827506 0.905859 0.747377
791 1 0.922884 0.828524 0.744356
862 1 0.908955 0.927878 0.829726
790 1 0.914811 0.920063 0.673091
741 1 0.845793 0.502826 0.661782
819 1 0.100009 0.657122 0.914855
796 1 0.00824227 0.589508 0.908604
698 1 0.0874828 0.925446 0.520434
800 1 0.174003 0.589245 0.908479
823 1 0.247316 0.671165 0.910198
235 1 0.752893 0.990458 0.58512
697 1 0.0118102 0.846766 0.508362
462 1 0.258586 0.751601 0.975059
802 1 0.409308 0.57674 0.839088
827 1 0.421252 0.657375 0.927895
804 1 0.338411 0.590417 0.918203
808 1 0.50241 0.581201 0.912718
291 1 0.07731 0.99848 0.750675
856 1 0.488949 0.909798 0.910405
361 1 0.00136268 0.999369 0.842498
831 1 0.578267 0.657159 0.914954
795 1 0.0787227 0.506056 0.913084
812 1 0.666069 0.582443 0.916752
303 1 0.572984 0.980157 0.754736
486 1 0.257981 0.922129 0.995826
813 1 0.843542 0.511518 0.838445
837 1 0.837675 0.670158 0.837184
373 1 0.489649 0.983703 0.824416
816 1 0.8418 0.585622 0.919325
848 1 0.163741 0.921035 0.909325
843 1 0.0827224 0.843231 0.913619
817 1 0.986238 0.672789 0.83057
824 1 0.159577 0.7582 0.903702
653 1 0.17122 0.501959 0.512605
490 1 0.41363 0.90479 0.998007
822 1 0.253348 0.75084 0.844448
828 1 0.342706 0.753569 0.912698
803 1 0.423304 0.500582 0.913201
845 1 0.166725 0.839526 0.833713
826 1 0.416834 0.744665 0.838707
851 1 0.40927 0.837928 0.91194
433 1 0.00729609 0.50676 0.98907
847 1 0.255219 0.840927 0.91643
853 1 0.510775 0.825916 0.846792
830 1 0.588278 0.74048 0.84673
832 1 0.498845 0.736952 0.918153
836 1 0.665576 0.752446 0.919309
841 1 0.991496 0.835819 0.849078
835 1 0.748442 0.663744 0.916624
859 1 0.733372 0.827854 0.911148
840 1 0.826567 0.751919 0.918465
839 1 0.922424 0.666249 0.916263
820 1 0.994388 0.739111 0.911568
450 1 0.744818 0.576212 0.979784
718 1 0.924027 0.918883 0.500481
654 1 0.247118 0.582971 0.506002
454 1 0.923816 0.593076 0.994499
473 1 0.658656 0.668911 0.999022
9 1 0.328077 0.997284 0.996189
441 1 0.337275 0.508121 0.99104
438 1 0.254025 0.590835 0.997188
673 1 0.993761 0.659954 0.508073
662 1 0.583206 0.573394 0.510852
470 1 0.58209 0.750977 0.994157
709 1 0.490223 0.835808 0.511014
477 1 0.841951 0.675972 0.995142
437 1 0.157824 0.523485 0.995068
685 1 0.496213 0.656803 0.518588
453 1 0.83706 0.509758 0.998285
681 1 0.332971 0.660212 0.508391
693 1 0.819481 0.653066 0.502688
229 1 0.491369 0.995331 0.500573
482 1 0.0912231 0.921328 0.99294
466 1 0.412464 0.744241 0.990386
674 1 0.081585 0.760206 0.506662
