ITEM: TIMESTEP
26000
ITEM: NUMBER OF ATOMS
500
ITEM: BOX BOUNDS pp pp pp
0.0000000000000000e+00 2.6299999999999997e+01
0.0000000000000000e+00 2.6299999999999997e+01
0.0000000000000000e+00 2.6299999999999997e+01
ITEM: ATOMS id type xs ys zs
23 1 0.109315 0.203226 0.0948135
52 1 0.100669 0.0902812 0.190078
4 1 0.010729 0.0943801 0.0766454
3 1 0.100629 0.00336811 0.099515
25 1 0.198086 0.189016 0.00356114
75 1 0.21852 0.191699 0.201509
8 1 0.205634 0.0924924 0.0981701
27 1 0.293921 0.199652 0.0904567
56 1 0.312669 0.0878982 0.203079
12 1 0.392168 0.112763 0.107126
55 1 0.204756 0.0114705 0.200913
6 1 0.310849 0.105192 0.00544558
5 1 0.204511 0.00864578 0.00152296
79 1 0.404803 0.201969 0.190759
31 1 0.501875 0.211737 0.09458
60 1 0.495432 0.0938647 0.207903
83 1 0.583558 0.204315 0.200987
11 1 0.492293 0.0181861 0.0823009
29 1 0.407082 0.208319 0.0154021
33 1 0.581169 0.206549 0.00564421
16 1 0.607535 0.105012 0.104067
35 1 0.680847 0.214282 0.111649
64 1 0.707354 0.093944 0.199023
87 1 0.791932 0.190806 0.193171
20 1 0.77675 0.102612 0.0928868
14 1 0.687943 0.123544 0.00156078
15 1 0.698758 0.0118219 0.0751579
67 1 0.797791 0.00736375 0.18678
51 1 0.98647 0.00393571 0.201531
71 1 0.975808 0.182423 0.174839
39 1 0.894813 0.197276 0.0722122
68 1 0.886088 0.10441 0.189521
19 1 0.91641 0.00536656 0.0935715
42 1 0.113572 0.395722 0.103579
72 1 0.119867 0.285811 0.184434
24 1 0.0124065 0.297977 0.114552
301 1 0.114996 0.488777 0.213181
254 1 0.188705 0.496523 0.108191
22 1 0.0955403 0.302989 0.0125939
41 1 0.0163497 0.405805 0.011785
28 1 0.223358 0.304018 0.103671
93 1 0.205635 0.397803 0.224169
44 1 0.282759 0.408685 0.122431
76 1 0.306274 0.291386 0.204287
32 1 0.370705 0.30197 0.0983908
95 1 0.392112 0.393528 0.180785
45 1 0.386949 0.407221 0.0183147
43 1 0.214241 0.403008 0.008455
303 1 0.297902 0.497486 0.213255
46 1 0.498121 0.415289 0.104659
80 1 0.470653 0.30351 0.183972
36 1 0.583764 0.316626 0.110649
47 1 0.580916 0.41111 0.0113467
30 1 0.486539 0.31724 0.0131961
307 1 0.690591 0.489502 0.187219
97 1 0.605677 0.413002 0.223045
48 1 0.676243 0.391687 0.0945083
84 1 0.682209 0.297101 0.200618
40 1 0.787571 0.290991 0.102672
257 1 0.694247 0.489593 0.0248249
38 1 0.906032 0.308241 0.0209655
91 1 0.983311 0.408061 0.192354
99 1 0.800023 0.411442 0.192485
50 1 0.892124 0.419603 0.097327
88 1 0.904636 0.292621 0.17927
309 1 0.892546 0.495561 0.208619
136 1 0.103414 0.171869 0.491524
53 1 0.101668 0.00319823 0.306641
101 1 0.00809812 0.0172439 0.382827
73 1 0.100843 0.197222 0.286506
102 1 0.101946 0.105931 0.383959
111 1 0.0149828 0.18801 0.381415
113 1 0.19679 0.208034 0.415066
126 1 0.0817485 0.0143466 0.489895
58 1 0.216037 0.0950059 0.306619
138 1 0.30085 0.189702 0.498344
77 1 0.304296 0.201608 0.312203
104 1 0.326823 0.086996 0.412769
62 1 0.392625 0.104995 0.300129
103 1 0.222109 0.00738372 0.412697
107 1 0.581376 0.019099 0.393914
61 1 0.484552 0.00466142 0.305814
115 1 0.400632 0.223046 0.409626
81 1 0.486474 0.209812 0.290818
106 1 0.495305 0.110962 0.393746
66 1 0.598619 0.10635 0.294391
140 1 0.497311 0.205374 0.498626
117 1 0.603819 0.182314 0.404659
85 1 0.699574 0.199395 0.300472
108 1 0.714096 0.0976374 0.389098
65 1 0.686325 0.00840376 0.296352
133 1 0.610478 0.0970435 0.499318
142 1 0.710645 0.209977 0.49204
54 1 0.977135 0.0998505 0.280162
70 1 0.81388 0.0901491 0.308401
119 1 0.811663 0.201008 0.400994
110 1 0.918236 0.121322 0.392987
89 1 0.894493 0.205885 0.289998
134 1 0.904178 0.0318388 0.483749
351 1 0.100621 0.488854 0.385207
121 1 0.00616034 0.393176 0.384666
122 1 0.191535 0.389011 0.380706
78 1 0.195407 0.293675 0.28614
74 1 0.00251068 0.283998 0.261986
112 1 0.0895409 0.293892 0.394193
92 1 0.0862867 0.383165 0.28345
302 1 0.00956834 0.497245 0.291734
146 1 0.0976237 0.386322 0.493227
139 1 0.193989 0.294715 0.488288
352 1 0.3077 0.498896 0.411607
94 1 0.301257 0.389235 0.308955
114 1 0.294778 0.307698 0.399829
306 1 0.398651 0.481173 0.297249
82 1 0.400415 0.315132 0.300496
123 1 0.401316 0.411033 0.403932
96 1 0.505043 0.391845 0.290137
116 1 0.502877 0.313808 0.410185
124 1 0.591193 0.395062 0.406578
353 1 0.508854 0.499175 0.401359
148 1 0.495105 0.406369 0.497346
308 1 0.624752 0.497449 0.328968
86 1 0.606284 0.299097 0.309137
98 1 0.71263 0.39391 0.29216
118 1 0.710161 0.296019 0.391123
354 1 0.719463 0.489304 0.404414
150 1 0.903447 0.395781 0.492251
125 1 0.810696 0.400439 0.399168
355 1 0.925727 0.482264 0.386287
90 1 0.805258 0.304284 0.284026
100 1 0.914514 0.394112 0.288464
120 1 0.9179 0.301334 0.398513
137 1 0.997342 0.262012 0.494625
380 1 0.80355 0.493208 0.494008
152 1 0.115094 0.100228 0.602011
173 1 0.101168 0.206387 0.704938
154 1 0.0127502 0.103669 0.682702
175 1 0.195738 0.206066 0.602999
171 1 0.00675857 0.211131 0.619865
153 1 0.115149 0.00123182 0.693466
158 1 0.206872 0.100601 0.691976
156 1 0.300999 0.0986771 0.597719
177 1 0.293059 0.201651 0.703344
179 1 0.392003 0.189577 0.612369
129 1 0.212934 0.098106 0.509713
162 1 0.411806 0.0911399 0.701294
160 1 0.496379 0.0971912 0.607084
181 1 0.503255 0.202708 0.690985
166 1 0.59936 0.0919356 0.70464
183 1 0.597732 0.20895 0.586268
131 1 0.403078 0.0943808 0.517532
130 1 0.503769 0.00633734 0.506779
164 1 0.70518 0.116391 0.620558
185 1 0.698464 0.184507 0.720127
165 1 0.698294 0.00342216 0.71017
163 1 0.600785 0.0039351 0.605642
135 1 0.778109 0.100215 0.523658
187 1 0.804439 0.206447 0.624927
170 1 0.806162 0.105774 0.702016
168 1 0.889151 0.102567 0.596166
189 1 0.924042 0.186513 0.719502
151 1 0.992356 0.0151469 0.592722
169 1 0.901935 0.00287453 0.695768
127 1 0.993236 0.125633 0.520948
144 1 0.882036 0.18955 0.513521
172 1 0.098489 0.312278 0.586429
192 1 0.0984729 0.402841 0.722142
178 1 0.187528 0.306931 0.701139
193 1 0.18919 0.393697 0.608918
191 1 0.000791126 0.376317 0.611694
401 1 0.088645 0.469469 0.612103
376 1 0.00313656 0.486572 0.507196
176 1 0.290602 0.291042 0.595067
194 1 0.287377 0.402605 0.727843
195 1 0.398319 0.396843 0.595092
147 1 0.301896 0.394648 0.517506
141 1 0.386046 0.298763 0.507165
377 1 0.217266 0.494018 0.518084
182 1 0.410913 0.305363 0.685849
180 1 0.499361 0.314697 0.593443
196 1 0.505188 0.397193 0.702393
405 1 0.502994 0.489234 0.609917
410 1 0.791029 0.496562 0.730034
186 1 0.611067 0.297004 0.707578
197 1 0.603986 0.391442 0.601488
184 1 0.698361 0.275558 0.602958
198 1 0.679671 0.39931 0.711015
190 1 0.787866 0.295506 0.726744
199 1 0.788673 0.389048 0.615951
149 1 0.700975 0.396256 0.502178
407 1 0.711373 0.496692 0.609485
145 1 0.797928 0.30976 0.51708
143 1 0.604007 0.283925 0.500234
379 1 0.603356 0.490147 0.506807
409 1 0.899682 0.474123 0.597658
174 1 0.992471 0.316649 0.723008
188 1 0.899379 0.29579 0.598683
200 1 0.889411 0.399584 0.701699
402 1 0.984813 0.480404 0.693965
202 1 0.105371 0.0993096 0.794509
223 1 0.0980694 0.202074 0.89842
225 1 0.191296 0.197377 0.800585
208 1 0.199505 0.0873902 0.887136
1 1 0.0191059 0.00511626 0.998792
221 1 0.0118829 0.191882 0.810601
2 1 0.0928147 0.0964787 0.975433
207 1 0.304481 0.00310239 0.898506
205 1 0.207158 0.00687941 0.787932
206 1 0.296935 0.103043 0.790736
227 1 0.304101 0.189832 0.893556
229 1 0.396823 0.203399 0.791589
213 1 0.595709 0.000103723 0.820293
212 1 0.412103 0.102474 0.898364
210 1 0.503669 0.108312 0.789219
231 1 0.485563 0.20622 0.923057
216 1 0.59381 0.109487 0.908
10 1 0.503887 0.0950965 0.988342
215 1 0.700188 0.00199293 0.900821
37 1 0.797691 0.186482 0.989245
233 1 0.605801 0.201335 0.807105
214 1 0.692021 0.104497 0.81939
235 1 0.691794 0.200805 0.901489
237 1 0.799944 0.199885 0.825355
220 1 0.794515 0.094306 0.903086
13 1 0.603271 0.00290206 0.999729
18 1 0.903407 0.0955841 0.986453
21 1 0.99742 0.198744 0.998352
204 1 0.997464 0.0874782 0.889903
17 1 0.823468 0.00195305 0.982661
218 1 0.891105 0.0838734 0.815488
239 1 0.90639 0.206419 0.892054
224 1 0.000181598 0.306148 0.89562
242 1 0.0958935 0.401193 0.912268
222 1 0.103322 0.302862 0.799625
243 1 0.188771 0.395087 0.811794
228 1 0.192962 0.291702 0.899019
454 1 0.186717 0.485199 0.907273
232 1 0.395454 0.303858 0.897571
226 1 0.286431 0.283022 0.804921
244 1 0.300794 0.409698 0.913135
26 1 0.303874 0.289 0.984414
455 1 0.50155 0.498824 0.794028
458 1 0.590938 0.499845 0.891103
230 1 0.488972 0.289537 0.796748
236 1 0.577933 0.29991 0.906379
246 1 0.486936 0.408905 0.899483
247 1 0.57332 0.38706 0.803789
245 1 0.409009 0.408817 0.803399
249 1 0.781489 0.403154 0.816809
234 1 0.681897 0.310672 0.82256
248 1 0.69156 0.408195 0.905347
34 1 0.671127 0.297602 0.993239
49 1 0.792782 0.41018 0.995454
238 1 0.88914 0.30002 0.802502
459 1 0.894117 0.49021 0.79858
250 1 0.881491 0.408778 0.911421
241 1 0.987313 0.409344 0.812035
240 1 0.800957 0.286929 0.918202
263 1 0.0935541 0.606885 0.109988
312 1 0.0939544 0.723814 0.198599
268 1 0.184916 0.695859 0.0993477
265 1 0.1918 0.6088 0.00614088
262 1 0.0852777 0.699759 0.0119238
315 1 0.204797 0.606498 0.193025
267 1 0.309643 0.605196 0.0974485
316 1 0.305213 0.693786 0.181798
319 1 0.387977 0.599795 0.19426
256 1 0.394093 0.505659 0.0997755
253 1 0.288291 0.50856 0.00665833
305 1 0.489711 0.512682 0.207888
272 1 0.403873 0.728861 0.0981813
271 1 0.479825 0.599094 0.0817112
320 1 0.497287 0.693408 0.17762
323 1 0.598084 0.606164 0.206898
276 1 0.598108 0.681489 0.0946254
258 1 0.590046 0.514522 0.122296
275 1 0.69735 0.595412 0.105482
324 1 0.699835 0.701212 0.192655
277 1 0.764628 0.59762 0.00397488
273 1 0.614058 0.5891 0.00146365
311 1 0.998557 0.594287 0.195033
278 1 0.910686 0.711294 0.00273111
327 1 0.804705 0.594919 0.186274
280 1 0.802256 0.702903 0.0816793
264 1 0.995721 0.731467 0.0957784
279 1 0.899962 0.606007 0.0975025
328 1 0.897097 0.681102 0.208394
260 1 0.800552 0.503975 0.0999588
252 1 0.995084 0.50333 0.104782
259 1 0.890624 0.516544 0.0109332
283 1 0.113814 0.803966 0.0921617
332 1 0.0913789 0.899336 0.193626
288 1 0.198726 0.912091 0.104559
335 1 0.199081 0.802455 0.188434
284 1 0.00109276 0.897748 0.0970792
282 1 0.109521 0.904764 0.0068766
7 1 0.306329 0.979474 0.0873915
287 1 0.290767 0.793582 0.0791784
336 1 0.308477 0.893119 0.194763
289 1 0.397606 0.822581 0.00353234
59 1 0.413156 0.977153 0.196222
292 1 0.42947 0.905562 0.103018
339 1 0.421608 0.819668 0.200206
291 1 0.514461 0.808428 0.0951323
340 1 0.52713 0.914827 0.215205
63 1 0.610623 0.998951 0.185467
343 1 0.602192 0.811354 0.209696
296 1 0.608863 0.899742 0.0828232
295 1 0.72353 0.810774 0.0882165
344 1 0.694476 0.895743 0.206067
347 1 0.784763 0.811502 0.196596
300 1 0.789567 0.922147 0.0669705
331 1 0.983212 0.798372 0.212464
299 1 0.885526 0.803644 0.111772
348 1 0.884071 0.914887 0.190229
313 1 0.113315 0.605604 0.298716
357 1 0.0942065 0.696411 0.394056
356 1 0.0161136 0.588643 0.399228
304 1 0.201194 0.509771 0.315546
358 1 0.205948 0.611607 0.401748
318 1 0.209402 0.693582 0.297415
317 1 0.291958 0.603006 0.295112
359 1 0.301934 0.70275 0.386244
383 1 0.302309 0.603589 0.494393
386 1 0.398597 0.711451 0.490826
322 1 0.403885 0.701111 0.286335
360 1 0.405214 0.592901 0.405443
321 1 0.510092 0.610916 0.308363
361 1 0.497367 0.700957 0.406458
385 1 0.512855 0.601967 0.498782
362 1 0.607266 0.605998 0.39573
326 1 0.611745 0.696465 0.298447
325 1 0.704677 0.586194 0.285469
363 1 0.703965 0.705689 0.406168
330 1 0.785307 0.717478 0.300712
387 1 0.696254 0.587378 0.496559
310 1 0.808825 0.502055 0.307685
364 1 0.82121 0.590283 0.403624
314 1 0.98483 0.70822 0.30599
365 1 0.911667 0.701685 0.420232
329 1 0.912197 0.597293 0.306228
366 1 0.00191344 0.807094 0.406319
333 1 0.114984 0.788786 0.302165
367 1 0.133913 0.911861 0.39361
334 1 0.0160364 0.901569 0.296886
391 1 0.110877 0.800543 0.490609
57 1 0.321841 0.997853 0.295522
396 1 0.399274 0.882228 0.494539
368 1 0.205691 0.787259 0.401147
337 1 0.307108 0.787946 0.288344
369 1 0.296034 0.911663 0.407935
338 1 0.20709 0.883039 0.289835
370 1 0.398807 0.806406 0.385391
393 1 0.285965 0.793769 0.497409
105 1 0.414775 0.990935 0.403087
342 1 0.400873 0.895786 0.300236
371 1 0.493369 0.906577 0.407219
341 1 0.51432 0.810031 0.296221
350 1 0.789894 0.907464 0.321252
109 1 0.794591 0.995198 0.434328
345 1 0.694004 0.799222 0.301472
372 1 0.606033 0.810383 0.420646
346 1 0.60144 0.920089 0.323997
373 1 0.702865 0.900316 0.40928
392 1 0.996884 0.915965 0.488992
349 1 0.875399 0.81409 0.293598
69 1 0.895573 0.990812 0.297133
375 1 0.905085 0.911395 0.400204
374 1 0.810178 0.80841 0.429127
412 1 0.0991848 0.678188 0.612741
413 1 0.0714527 0.579322 0.706402
418 1 0.194959 0.707016 0.705876
411 1 0.00710699 0.597789 0.605959
404 1 0.187843 0.501596 0.700399
382 1 0.0159728 0.686064 0.504537
384 1 0.194723 0.690643 0.506974
381 1 0.0926158 0.572121 0.509249
415 1 0.20257 0.595267 0.599856
416 1 0.306263 0.705968 0.611248
417 1 0.30299 0.618753 0.701089
406 1 0.39426 0.505506 0.70289
403 1 0.316532 0.517018 0.600342
419 1 0.414642 0.614066 0.595018
422 1 0.404035 0.692 0.710691
420 1 0.512925 0.701833 0.589224
421 1 0.509384 0.597924 0.694856
426 1 0.595415 0.707596 0.678121
423 1 0.598227 0.608377 0.602482
408 1 0.596709 0.505403 0.704139
378 1 0.409076 0.506381 0.503327
424 1 0.698759 0.697037 0.602202
425 1 0.709777 0.613261 0.709036
427 1 0.79235 0.603037 0.588792
388 1 0.607625 0.703358 0.504005
430 1 0.829166 0.69543 0.689789
414 1 0.992929 0.694515 0.698806
428 1 0.917392 0.687523 0.600327
429 1 0.890689 0.584026 0.673792
390 1 0.805224 0.695026 0.506483
389 1 0.911442 0.586251 0.500556
432 1 0.0964305 0.920093 0.584592
433 1 0.089686 0.781383 0.701743
435 1 0.184593 0.787375 0.600808
434 1 0.00457245 0.893037 0.698181
438 1 0.195637 0.887552 0.687191
431 1 0.0235034 0.818188 0.575398
128 1 0.319099 0.989458 0.511989
155 1 0.20673 0.996799 0.592796
436 1 0.288005 0.898027 0.592619
437 1 0.299428 0.805376 0.701888
439 1 0.396511 0.788314 0.597995
157 1 0.292993 0.991823 0.6827
159 1 0.397707 0.994165 0.612521
394 1 0.200275 0.900238 0.503861
161 1 0.493253 0.982412 0.703162
442 1 0.40148 0.891007 0.695509
440 1 0.49196 0.912126 0.592416
441 1 0.508398 0.810749 0.675816
395 1 0.502563 0.809953 0.510011
397 1 0.71152 0.805811 0.519342
443 1 0.607349 0.830101 0.606428
446 1 0.600514 0.900057 0.7062
444 1 0.715985 0.913203 0.599398
445 1 0.70071 0.785483 0.695916
450 1 0.794643 0.895833 0.701857
132 1 0.694936 0.993481 0.502578
398 1 0.608933 0.905866 0.504938
167 1 0.806567 0.998468 0.606048
447 1 0.822295 0.803277 0.612728
448 1 0.905879 0.922413 0.5892
449 1 0.917759 0.800463 0.689335
400 1 0.814993 0.901051 0.518414
399 1 0.910426 0.802754 0.501442
462 1 0.0803041 0.691609 0.787142
463 1 0.0986023 0.608208 0.897514
465 1 0.189441 0.594806 0.804766
468 1 0.18749 0.701704 0.893533
451 1 0.0964046 0.514664 0.818152
251 1 0.0948878 0.523484 0.991842
453 1 0.29971 0.507026 0.79777
456 1 0.395051 0.501608 0.897435
466 1 0.299669 0.687361 0.803165
467 1 0.284129 0.583343 0.904243
266 1 0.29677 0.701423 0.991629
472 1 0.386113 0.694044 0.897858
269 1 0.390621 0.601246 0.987427
255 1 0.503942 0.513063 0.999984
469 1 0.425783 0.598091 0.798653
470 1 0.505935 0.71435 0.790767
471 1 0.517709 0.612817 0.909967
270 1 0.493475 0.710554 0.999604
457 1 0.684593 0.504498 0.793434
460 1 0.789804 0.50657 0.910289
476 1 0.620017 0.696696 0.917261
473 1 0.604908 0.613588 0.795943
474 1 0.71508 0.690585 0.804281
475 1 0.700553 0.586493 0.89499
274 1 0.706892 0.713546 0.99701
452 1 0.987394 0.503933 0.905057
461 1 0.981477 0.583104 0.784585
480 1 0.805704 0.70274 0.909518
464 1 0.99471 0.702597 0.890377
477 1 0.826492 0.603734 0.814949
478 1 0.902152 0.696336 0.788088
479 1 0.900778 0.604854 0.914554
261 1 0.993664 0.610187 0.997393
201 1 0.0123441 0.993599 0.790216
482 1 0.0910802 0.880582 0.792956
483 1 0.0935114 0.796617 0.904225
285 1 0.183324 0.789767 0.999367
203 1 0.0976527 0.986727 0.892751
281 1 0.000479739 0.806055 0.996944
492 1 0.378094 0.891697 0.904205
487 1 0.294468 0.799926 0.895439
486 1 0.29038 0.891601 0.801315
485 1 0.200509 0.792118 0.79513
489 1 0.395292 0.785563 0.794227
488 1 0.201864 0.895647 0.912075
9 1 0.388399 0.995271 0.990406
286 1 0.289431 0.88529 0.998243
209 1 0.399538 0.982989 0.792738
491 1 0.496821 0.803072 0.908914
293 1 0.598264 0.800391 0.992884
211 1 0.492301 0.998352 0.894965
490 1 0.507344 0.859715 0.790495
496 1 0.593008 0.875426 0.881052
290 1 0.491884 0.904447 0.988038
495 1 0.727598 0.800667 0.894727
493 1 0.621385 0.777899 0.810813
494 1 0.692605 0.901092 0.80111
217 1 0.784057 0.997793 0.790761
294 1 0.684258 0.884255 0.973784
500 1 0.805212 0.909161 0.876568
297 1 0.817009 0.811842 0.995472
484 1 0.99115 0.887999 0.880824
481 1 0.996164 0.790914 0.788993
499 1 0.895884 0.806732 0.888181
498 1 0.907272 0.90954 0.786232
497 1 0.800851 0.801378 0.78202
298 1 0.913887 0.888024 0.997112
219 1 0.91373 0.983913 0.893655
