ITEM: TIMESTEP
6000
ITEM: NUMBER OF ATOMS
864
ITEM: BOX BOUNDS pp pp pp
0.0000000000000000e+00 3.1559999999999999e+01
0.0000000000000000e+00 3.1559999999999999e+01
0.0000000000000000e+00 3.1559999999999999e+01
ITEM: ATOMS id type xs ys zs
8 1 0.171601 0.0811649 0.0702665
237 1 0.827241 -0.00568152 0.510593
27 1 0.0787759 0.168906 0.0745473
34 1 0.40881 0.259735 -0.00784766
509 1 0.169644 0.492634 0.167454
153 1 0.320407 -0.00805344 0.333762
78 1 0.248665 0.0928243 0.156147
215 1 0.911625 0.333718 0.428479
257 1 0.657224 0.158385 0.48664
12 1 0.327178 0.0785981 0.0783086
35 1 0.424679 0.157833 0.0812718
16 1 0.497429 0.0794447 0.107267
39 1 0.580052 0.185069 0.0930461
86 1 0.579459 0.0910858 0.178025
20 1 0.674663 0.0997433 0.0981114
43 1 0.759644 0.180324 0.0784702
214 1 0.918701 0.422176 0.336466
211 1 0.745948 0.325799 0.418658
447 1 0.593535 0.499721 0.0925802
4 1 1.00657 0.0853445 0.0747767
24 1 0.82119 0.0976388 0.0737281
94 1 0.904885 0.0733276 0.159622
101 1 0.173044 0.160672 0.162644
32 1 0.173331 0.239502 0.0662294
31 1 0.251488 0.168848 0.0645005
55 1 0.249537 0.324224 0.0756254
102 1 0.255714 0.228948 0.145399
41 1 0.660177 0.181273 0.00436733
226 1 0.410327 0.0637538 0.493898
36 1 0.331297 0.234159 0.0623023
59 1 0.405134 0.33322 0.0944019
133 1 0.491964 0.338629 0.175787
106 1 0.427078 0.248973 0.170131
14 1 0.580376 0.0926355 0.0387031
40 1 0.498671 0.256986 0.0902571
110 1 0.580714 0.239325 0.18662
63 1 0.582228 0.322314 0.0933644
11 1 0.421526 -0.0185478 0.0834909
93 1 0.823493 -0.0145247 0.170381
113 1 0.671387 0.175253 0.179913
44 1 0.671144 0.246763 0.0925835
48 1 0.843467 0.266446 0.0970072
67 1 0.744852 0.335811 0.0726109
137 1 0.658452 0.327333 0.16913
37 1 0.499144 0.182574 -0.0018776
47 1 0.912606 0.177011 0.108936
28 1 0.994402 0.252827 0.0884339
71 1 0.930276 0.336272 0.0785259
117 1 0.839978 0.167101 0.179258
525 1 0.8422 0.488625 0.183922
51 1 0.0768521 0.336695 0.0811382
56 1 0.166207 0.415337 0.0819887
122 1 0.0907153 0.415746 0.160333
10 1 0.426057 0.0952882 -0.00492934
216 1 0.829972 0.408662 0.446949
60 1 0.32429 0.409403 0.0919505
126 1 0.253532 0.401981 0.178195
207 1 0.590907 0.340671 0.412878
64 1 0.504182 0.403091 0.0847681
129 1 0.319571 0.317952 0.159058
130 1 0.40083 0.40608 0.175214
208 1 0.501513 0.434477 0.41429
134 1 0.579839 0.410584 0.169899
521 1 0.686294 0.491436 0.166556
212 1 0.674813 0.413434 0.426406
68 1 0.675583 0.425851 0.0843094
3 1 0.0905386 0.00824348 0.0613091
72 1 0.835682 0.402839 0.086145
52 1 0.0117661 0.417138 0.0864185
206 1 0.579915 0.420286 0.3368
74 1 0.0903799 0.0803957 0.153564
80 1 0.17082 0.0759661 0.236484
99 1 0.0785598 0.163485 0.231074
146 1 0.094653 0.084353 0.318094
150 1 0.237595 0.0749765 0.336951
84 1 0.319502 0.0773498 0.250507
103 1 0.246407 0.171072 0.232813
595 1 0.751031 0.492862 0.430244
202 1 0.414313 0.422 0.335553
105 1 0.334263 0.173116 0.172281
82 1 0.410025 0.0778334 0.169713
154 1 0.428386 0.072947 0.336411
177 1 0.350236 0.158107 0.344602
205 1 0.48887 0.345519 0.357984
88 1 0.500388 0.0748391 0.244303
109 1 0.4944 0.166422 0.180265
92 1 0.664302 0.0917662 0.250486
181 1 0.497581 0.178457 0.339416
515 1 0.418117 0.514555 0.262775
90 1 0.761735 0.089226 0.180319
162 1 0.754183 0.0894606 0.322059
18 1 0.740866 0.0642279 0.00490634
91 1 0.743557 0.0101825 0.250095
97 1 0.0034487 0.170775 0.158998
76 1 1.00811 0.0780446 0.233075
169 1 0.0153199 0.179147 0.324049
96 1 0.845318 0.0883615 0.251272
119 1 0.935782 0.169834 0.239154
98 1 0.0865425 0.258856 0.161145
100 1 0.01091 0.254813 0.244387
173 1 0.167689 0.170194 0.332847
170 1 0.0881288 0.248606 0.336875
104 1 0.162904 0.259599 0.263856
108 1 0.341992 0.238321 0.253014
127 1 0.258561 0.314672 0.240042
107 1 0.419957 0.156183 0.258395
178 1 0.415234 0.239259 0.338812
111 1 0.583608 0.173174 0.258884
112 1 0.494106 0.271137 0.260741
116 1 0.663302 0.269764 0.255301
115 1 0.754606 0.183762 0.256735
114 1 0.759466 0.266426 0.173316
120 1 0.840469 0.258769 0.254064
121 1 1.01871 0.333241 0.167178
118 1 0.918634 0.268412 0.174763
190 1 0.929868 0.2422 0.338937
123 1 0.100337 0.341106 0.241395
201 1 0.336036 0.324267 0.349959
194 1 0.0852911 0.410217 0.343021
128 1 0.168882 0.424219 0.261328
125 1 0.1758 0.332069 0.173595
132 1 0.326644 0.425231 0.260265
198 1 0.2413 0.410537 0.34255
131 1 0.403606 0.329946 0.249268
136 1 0.491955 0.404898 0.258361
135 1 0.579839 0.330093 0.262204
209 1 0.675001 0.337141 0.337114
140 1 0.665785 0.416309 0.252325
199 1 0.260444 0.338491 0.423378
204 1 0.324533 0.424992 0.415537
141 1 0.841578 0.344239 0.172523
210 1 0.765619 0.417519 0.354151
139 1 0.747213 0.337489 0.251926
138 1 0.748979 0.406009 0.157658
144 1 0.834402 0.412239 0.254051
200 1 0.158001 0.4314 0.422354
142 1 0.931908 0.400628 0.169435
124 1 0.011524 0.426509 0.250282
143 1 0.926853 0.340133 0.261049
234 1 0.745812 0.0727427 0.495572
152 1 0.154735 0.0798092 0.411289
254 1 0.584067 0.249568 0.492216
145 1 0.00675065 0.00870415 0.320246
58 1 0.420317 0.404584 0.0001728
175 1 0.253225 0.160194 0.422119
156 1 0.331804 0.0668001 0.417816
527 1 0.916217 0.487888 0.256953
160 1 0.509214 0.0802806 0.410579
179 1 0.417741 0.154785 0.423296
158 1 0.577194 0.0753736 0.321697
164 1 0.657307 0.0805977 0.398901
81 1 0.337536 -0.0147683 0.169762
513 1 0.328732 0.491962 0.174049
197 1 0.16787 0.324972 0.338892
187 1 0.749392 0.168252 0.410723
196 1 -0.00291543 0.418789 0.413801
439 1 0.243161 0.500119 0.0802732
191 1 0.915886 0.167554 0.4159
148 1 0.00298162 0.0932826 0.407274
168 1 0.837969 0.0823112 0.410699
166 1 0.920611 0.082336 0.317985
159 1 0.587786 -0.000713067 0.409619
193 1 1.0034 0.333258 0.345242
171 1 0.0887053 0.166132 0.402925
172 1 0.000762993 0.255018 0.429653
195 1 0.0874722 0.328136 0.4345
517 1 0.492073 0.486115 0.167675
174 1 0.25456 0.238094 0.339126
176 1 0.171385 0.248105 0.422074
180 1 0.333463 0.236846 0.422311
203 1 0.404606 0.320263 0.427557
184 1 0.497811 0.254039 0.420014
23 1 0.917716 -0.00221666 0.0825791
57 1 0.329363 0.346743 -0.00625274
185 1 0.671688 0.161368 0.328089
183 1 0.58982 0.173518 0.402407
182 1 0.584777 0.25071 0.333315
188 1 0.670078 0.246677 0.410017
189 1 0.848497 0.179732 0.325895
213 1 0.835071 0.334076 0.342391
186 1 0.750406 0.256148 0.340587
192 1 0.821329 0.241992 0.414923
89 1 0.674516 0.015568 0.166688
505 1 0.00270732 0.501527 0.163048
519 1 0.57663 0.484066 0.246052
54 1 0.254689 0.413083 0.00405969
7 1 0.255301 -0.00303068 0.0685112
451 1 0.754428 0.508651 0.0878553
593 1 0.676541 0.483587 0.347672
523 1 0.75166 0.49123 0.259947
435 1 0.0844083 0.498889 0.0831604
443 1 0.404699 0.481028 0.0820234
577 1 0.0121882 0.507841 0.338393
61 1 0.513241 0.334563 0.00315462
22 1 0.907717 0.112101 0.0176329
69 1 0.836958 0.346963 -0.00626443
277 1 0.500293 0.338005 0.489062
62 1 0.590401 0.419138 0.0111794
238 1 0.920453 0.0850359 0.486178
38 1 0.584431 0.255547 0.0117444
222 1 0.245179 0.083721 0.502197
453 1 0.826929 0.516978 -0.000339195
218 1 0.0865985 0.0944658 0.49329
269 1 0.175124 0.332377 0.493981
45 1 0.835168 0.191684 0.0138164
249 1 0.329648 0.14033 0.496538
258 1 0.731385 0.250112 0.499366
441 1 0.346801 0.501167 0.00214928
70 1 0.924263 0.423859 0.0143222
242 1 0.082526 0.248194 0.493589
274 1 0.411568 0.422149 0.493313
290 1 0.0775008 0.0835366 0.653873
243 1 0.0708822 0.170215 0.585271
224 1 0.16349 0.0800397 0.585613
220 1 -0.0135366 0.102736 0.579471
5 1 0.170045 -0.00310897 0.991564
659 1 0.417097 0.503834 0.590731
270 1 0.249735 0.427243 0.495633
228 1 0.330878 0.0718234 0.577642
298 1 0.427228 0.0756283 0.658824
232 1 0.499726 0.0779609 0.572269
46 1 0.904449 0.272024 0.992385
26 1 0.089196 0.256749 1.00379
230 1 0.588639 0.0703467 0.497394
273 1 0.337819 0.329568 0.503757
383 1 0.915247 0.00381424 0.936943
302 1 0.575791 0.0824703 0.673481
236 1 0.65577 0.0713042 0.593619
50 1 0.0693141 0.418008 0.991368
306 1 0.738464 0.0949064 0.672231
333 1 0.8224 0.169772 0.657461
365 1 0.16818 0.026166 0.814458
240 1 0.813356 0.0852994 0.579224
310 1 0.893661 0.0820495 0.673574
313 1 0.97281 0.151271 0.677987
248 1 0.172318 0.249214 0.575756
309 1 0.813414 0.0113704 0.677231
247 1 0.269273 0.162016 0.585454
318 1 0.266571 0.255387 0.662378
252 1 0.344669 0.260579 0.578312
271 1 0.241578 0.335796 0.569195
667 1 0.742367 0.503605 0.569408
251 1 0.408331 0.149838 0.570125
256 1 0.492574 0.245388 0.579257
275 1 0.412707 0.33583 0.582599
795 1 0.0758729 0.50141 0.910256
311 1 0.898668 0.0176624 0.76679
255 1 0.580107 0.154024 0.572035
260 1 0.665252 0.249001 0.589194
279 1 0.57085 0.337351 0.577732
259 1 0.730843 0.160497 0.562798
330 1 0.730052 0.243184 0.67367
283 1 0.729451 0.333902 0.597928
264 1 0.802149 0.250164 0.588125
371 1 0.430019 0.00507812 0.912725
282 1 0.742731 0.404566 0.504789
263 1 0.906321 0.165053 0.575358
671 1 0.916963 0.49907 0.593937
244 1 0.9978 0.235478 0.613023
334 1 0.905302 0.240351 0.685131
801 1 0.328222 0.498657 0.843003
267 1 0.10555 0.345585 0.566775
268 1 1.01362 0.426791 0.582661
743 1 0.904498 0.499464 0.727319
337 1 0.00552079 0.341663 0.659559
338 1 0.0841214 0.41926 0.656027
799 1 0.251795 0.499003 0.920613
272 1 0.178504 0.429185 0.599563
276 1 0.324763 0.422322 0.577695
342 1 0.255369 0.424509 0.670663
369 1 0.330711 0.00418682 0.818696
6 1 0.244054 0.0780142 0.992459
286 1 0.932603 0.423237 0.499305
253 1 0.510297 0.163755 0.477642
289 1 0.978492 -0.00191552 0.668665
280 1 0.493871 0.409887 0.568097
345 1 0.328044 0.334181 0.665521
797 1 0.174151 0.503929 0.842227
291 1 0.0625066 0.0107076 0.733939
412 1 0.985316 0.429385 0.909495
278 1 0.580081 0.41232 0.486379
416 1 0.154685 0.418596 0.908719
284 1 0.652902 0.413238 0.587001
288 1 0.837594 0.418754 0.578331
265 1 -0.00700599 0.32546 0.506165
287 1 0.908396 0.320365 0.588712
266 1 0.0915637 0.422466 0.492492
317 1 0.180902 0.179233 0.65779
296 1 0.166234 0.0958723 0.742453
292 1 0.993603 0.0826203 0.762134
315 1 0.0741791 0.162252 0.724869
294 1 0.252909 0.0872611 0.665157
363 1 0.0968489 -0.00203402 0.916366
319 1 0.264692 0.168221 0.741002
430 1 0.905283 0.416277 0.80976
409 1 0.00582785 0.34595 0.828886
300 1 0.33948 0.0807871 0.725733
323 1 0.430755 0.172378 0.754341
395 1 0.427045 0.17024 0.914841
329 1 0.644578 0.162727 0.669034
304 1 0.491198 0.0721965 0.753822
374 1 0.582801 0.0740758 0.831419
397 1 0.509997 0.158054 0.844282
245 1 0.175027 0.155769 0.493877
308 1 0.665727 0.0822282 0.757885
378 1 0.726596 0.0809297 0.852824
431 1 0.912821 0.339013 0.904888
396 1 0.333416 0.274909 0.91066
312 1 0.809561 0.0857706 0.771817
335 1 0.90637 0.160719 0.765418
382 1 0.917317 0.0964008 0.851606
314 1 0.103018 0.262477 0.662262
320 1 0.177361 0.247674 0.744804
339 1 0.0875483 0.330475 0.738798
385 1 1.00241 0.159105 0.827001
341 1 0.177646 0.338442 0.660444
324 1 0.338507 0.284886 0.760544
321 1 0.347349 0.171241 0.667748
343 1 0.249609 0.339239 0.749173
322 1 0.414241 0.24972 0.658581
349 1 0.497344 0.333057 0.652882
417 1 0.344745 0.351029 0.837955
347 1 0.429944 0.341792 0.746543
353 1 0.657502 0.323052 0.676277
325 1 0.50556 0.159839 0.661089
328 1 0.506484 0.251375 0.733358
326 1 0.585992 0.248013 0.650964
327 1 0.573227 0.159201 0.751582
351 1 0.58038 0.332462 0.743019
331 1 0.726515 0.173221 0.75286
401 1 0.65762 0.162194 0.843776
332 1 0.659539 0.248898 0.755607
336 1 0.816807 0.242004 0.754771
316 1 1.00391 0.254155 0.739321
359 1 0.907738 0.330366 0.747433
425 1 0.649838 0.334496 0.822291
340 1 1.00651 0.412887 0.74655
53 1 0.166421 0.322971 0.994412
344 1 0.161751 0.41882 0.743921
414 1 0.253288 0.413537 0.819425
428 1 0.656066 0.420232 0.908722
348 1 0.342232 0.41626 0.745441
346 1 0.427872 0.420574 0.659119
352 1 0.512247 0.42429 0.755198
422 1 0.592006 0.417419 0.831582
350 1 0.58071 0.406957 0.661878
356 1 0.645584 0.418047 0.738343
354 1 0.744731 0.426832 0.647428
355 1 0.735219 0.334599 0.749506
426 1 0.745138 0.428261 0.824102
432 1 0.839544 0.421673 0.902982
357 1 0.825395 0.319731 0.671844
360 1 0.826763 0.419246 0.714231
358 1 0.916705 0.408606 0.661541
246 1 0.252909 0.243372 0.49977
421 1 0.515888 0.330021 0.83184
362 1 0.0694478 0.0662902 0.83062
424 1 0.51665 0.423707 0.91674
408 1 0.817443 0.266804 0.910494
366 1 0.250858 0.0936355 0.814281
368 1 0.170325 0.0895225 0.91144
419 1 0.431458 0.337586 0.915333
406 1 0.904624 0.244534 0.835461
420 1 0.328661 0.423271 0.924515
370 1 0.414089 0.0753227 0.821947
372 1 0.335424 0.0869622 0.921198
293 1 0.177374 0.003239 0.653666
404 1 0.673609 0.258935 0.927961
403 1 0.747159 0.175607 0.931028
399 1 0.586532 0.182092 0.936055
376 1 0.51614 0.0912095 0.93773
423 1 0.5827 0.329574 0.915202
402 1 0.738438 0.243241 0.8283
418 1 0.433646 0.413142 0.844709
380 1 0.647425 0.0857767 0.938177
429 1 0.821207 0.334077 0.811764
410 1 0.0894734 0.425996 0.822676
405 1 0.826777 0.167636 0.847417
407 1 0.922216 0.18099 0.924215
364 1 -0.00542818 0.0858275 0.914228
384 1 0.835471 0.0883763 0.932846
398 1 0.582893 0.237674 0.83533
411 1 0.080005 0.327008 0.917292
400 1 0.506377 0.25406 0.918448
427 1 0.729728 0.347441 0.89265
392 1 0.171814 0.253505 0.893373
413 1 0.170641 0.328602 0.817602
387 1 0.0609492 0.172859 0.912361
386 1 0.0717662 0.246594 0.827092
388 1 0.98618 0.268496 0.908664
390 1 0.256109 0.252517 0.824024
389 1 0.148511 0.15425 0.836079
393 1 0.34259 0.160504 0.842555
415 1 0.243318 0.352167 0.905851
391 1 0.255372 0.157786 0.899237
394 1 0.423286 0.249519 0.84658
25 1 0.996631 0.185657 1.00385
721 1 0.0159381 0.503309 0.684033
803 1 0.427657 0.485868 0.933473
651 1 0.0832726 0.514503 0.591417
2 1 0.0903246 0.0824113 0.984773
239 1 0.915347 0.0201392 0.574929
437 1 0.15469 0.490504 1.00706
49 1 0.999336 0.337094 0.991557
262 1 0.914874 0.242582 0.501014
281 1 0.657604 0.326274 0.503742
445 1 0.520869 0.495884 0.998402
33 1 0.34194 0.173955 0.975379
42 1 0.748956 0.261646 1.00895
250 1 0.405127 0.230007 0.502423
261 1 0.82944 0.167989 0.507447
65 1 0.668224 0.337437 0.999687
241 1 0.00279221 0.174948 0.496817
285 1 0.822973 0.316083 0.509755
29 1 0.177929 0.183264 0.976635
66 1 0.747323 0.412036 1.00303
30 1 0.254622 0.254537 0.984241
217 1 1.00857 0.0132065 0.492169
459 1 0.0702383 0.669452 0.0759069
533 1 0.165346 0.666211 0.163584
19 1 0.749137 1.00233 0.0935012
713 1 0.66332 0.815837 0.502942
151 1 0.246181 0.992087 0.414937
440 1 0.152536 0.590665 0.08198
463 1 0.242423 0.661575 0.0899175
161 1 0.66521 0.999804 0.320614
75 1 0.0980825 0.998377 0.244459
444 1 0.332292 0.574861 0.0893236
448 1 0.492159 0.561683 0.089378
541 1 0.486127 0.64906 0.170728
77 1 0.16822 1.00566 0.15371
471 1 0.582824 0.6628 0.0853941
452 1 0.66434 0.571104 0.0808368
545 1 0.666276 0.659149 0.167362
579 1 0.0857522 0.510466 0.419391
470 1 0.600789 0.752647 -0.00466616
475 1 0.742624 0.664893 0.0917748
714 1 0.751562 0.915101 0.480556
522 1 0.768395 0.57232 0.1918
581 1 0.159484 0.510894 0.33963
456 1 0.827959 0.580818 0.102529
436 1 -0.00047451 0.581071 0.0862381
13 1 0.518989 1.00474 0.000260886
526 1 0.911986 0.583622 0.180308
682 1 0.417897 0.745972 0.502791
83 1 0.401098 0.997618 0.263348
157 1 0.508249 0.987378 0.317935
494 1 0.572023 0.909686 0.0355507
464 1 0.161226 0.730582 0.0680151
530 1 0.0771043 0.741722 0.149228
483 1 0.0726391 0.823772 0.0796804
79 1 0.252764 0.989644 0.23679
465 1 0.329406 0.668193 -0.00620866
534 1 0.250245 0.749373 0.155716
702 1 0.249916 0.907638 0.500482
468 1 0.336523 0.744221 0.076992
467 1 0.4242 0.655924 0.0742748
472 1 0.499882 0.737837 0.0893541
149 1 0.165044 0.980559 0.327441
73 1 0.999658 1.0116 0.152168
587 1 0.396959 0.507595 0.421261
476 1 0.664967 0.734584 0.0940395
589 1 0.506262 0.499803 0.325472
480 1 0.821891 0.721967 0.087295
549 1 0.832115 0.658842 0.193493
501 1 0.819997 0.831853 0.00506974
477 1 0.826397 0.650835 -0.000631113
165 1 0.836746 1.01363 0.316871
479 1 0.915787 0.656419 0.102812
460 1 -0.0140066 0.749576 0.0759612
550 1 0.903678 0.74105 0.17221
488 1 0.169916 0.931872 0.0732636
554 1 0.0854091 0.930205 0.152567
147 1 0.0816038 1.00672 0.404982
599 1 0.925238 0.503737 0.429164
618 1 0.73949 0.743138 0.336123
487 1 0.259559 0.831862 0.0789786
557 1 0.167476 0.835629 0.144993
558 1 0.252005 0.906997 0.152408
491 1 0.425505 0.822326 0.0800961
492 1 0.336561 0.922428 0.0682585
678 1 0.25231 0.75836 0.48497
562 1 0.410175 0.906668 0.170785
95 1 0.923234 0.996803 0.229638
495 1 0.583925 0.812927 0.101635
496 1 0.497203 0.910454 0.107969
643 1 0.759511 0.840431 0.394705
585 1 0.326765 0.508659 0.340127
614 1 0.575456 0.744608 0.333529
442 1 0.42028 0.579056 0.00223308
500 1 0.691157 0.911109 0.118452
499 1 0.748419 0.823656 0.0939092
504 1 0.838655 0.905001 0.0913557
645 1 0.852596 0.844384 0.339437
484 1 1.002 0.916189 0.0843809
503 1 0.910229 0.824967 0.0847792
574 1 0.925513 0.904118 0.15754
642 1 0.749941 0.932534 0.326073
506 1 0.0950123 0.577606 0.164005
531 1 0.0795183 0.664108 0.2373
512 1 0.168457 0.597384 0.257113
578 1 0.0852875 0.58736 0.33114
601 1 0.0021498 0.668162 0.336331
510 1 0.246932 0.572232 0.167987
516 1 0.313125 0.569061 0.253859
535 1 0.258996 0.664167 0.233893
641 1 0.658285 0.83383 0.326085
620 1 0.678974 0.746065 0.421463
514 1 0.407003 0.57474 0.170556
648 1 0.836365 0.919579 0.414633
537 1 0.342743 0.658594 0.144468
539 1 0.39786 0.664365 0.231995
520 1 0.50117 0.576547 0.261848
518 1 0.5917 0.570494 0.173981
543 1 0.595087 0.64908 0.244133
590 1 0.579616 0.584833 0.333816
524 1 0.663163 0.556477 0.263734
594 1 0.747415 0.57094 0.348337
638 1 0.582034 0.90331 0.330389
644 1 0.662753 0.897962 0.412557
617 1 0.658909 0.660232 0.339306
528 1 0.834084 0.565116 0.271833
508 1 0.000329785 0.587399 0.25004
628 1 0.000722569 0.926143 0.42949
529 1 1.00271 0.666274 0.166904
555 1 0.0934952 0.824654 0.249084
602 1 0.0761951 0.748254 0.327127
532 1 1.00777 0.744453 0.245443
561 1 0.330517 0.822889 0.152894
536 1 0.162623 0.740041 0.245208
559 1 0.243465 0.834666 0.24207
538 1 0.412684 0.744579 0.154835
637 1 0.503173 0.841487 0.322799
540 1 0.326777 0.742802 0.236799
610 1 0.404822 0.735471 0.327919
633 1 0.322401 0.816115 0.323492
542 1 0.577753 0.725391 0.16125
544 1 0.494418 0.72296 0.247924
548 1 0.675305 0.732282 0.240354
546 1 0.760722 0.73718 0.178097
547 1 0.744138 0.643146 0.260609
552 1 0.826278 0.748544 0.268573
551 1 0.925136 0.658707 0.255242
622 1 0.931679 0.754233 0.338549
625 1 0.00870137 0.840657 0.341558
553 1 0.0100501 0.828146 0.165469
626 1 0.076752 0.923993 0.335061
639 1 0.578718 0.827378 0.409218
560 1 0.169587 0.915157 0.231525
630 1 0.252156 0.901905 0.335283
619 1 0.762632 0.657835 0.411973
623 1 0.918708 0.653381 0.418664
604 1 1.00398 0.75034 0.422008
634 1 0.419463 0.911472 0.341562
563 1 0.413446 0.800614 0.249145
564 1 0.334019 0.902025 0.251902
565 1 0.508256 0.818953 0.168077
569 1 0.675359 0.818456 0.172718
567 1 0.594626 0.803745 0.232862
568 1 0.505753 0.907284 0.238606
566 1 0.59188 0.907539 0.152615
570 1 0.756204 0.910543 0.199938
571 1 0.758771 0.838729 0.273261
572 1 0.659616 0.906982 0.248773
576 1 0.859912 0.920682 0.250136
635 1 0.420711 0.818206 0.410796
573 1 0.826935 0.835275 0.179137
575 1 0.929689 0.832931 0.249318
556 1 0.00478597 0.918306 0.226848
646 1 0.928443 0.918813 0.345552
584 1 0.169113 0.591872 0.422446
580 1 1.0158 0.590041 0.408834
621 1 0.834879 0.662073 0.327895
615 1 0.570265 0.665292 0.412659
640 1 0.509892 0.914501 0.40691
582 1 0.240631 0.597028 0.342101
588 1 0.322031 0.593095 0.425959
607 1 0.244445 0.676059 0.42226
586 1 0.414714 0.587941 0.330306
609 1 0.330364 0.658064 0.322164
592 1 0.494135 0.575224 0.412936
611 1 0.4086 0.669832 0.424772
613 1 0.499451 0.662587 0.338472
636 1 0.340656 0.897857 0.405756
612 1 0.330627 0.754385 0.406049
473 1 0.659215 0.666096 0.00965461
596 1 0.665627 0.58125 0.417789
624 1 0.834552 0.749305 0.401336
632 1 0.166695 0.913367 0.422917
598 1 0.921858 0.57128 0.333858
600 1 0.837586 0.582341 0.426641
647 1 0.923098 0.83655 0.415892
631 1 0.233333 0.830051 0.422509
629 1 0.165744 0.842159 0.321264
603 1 0.0854149 0.673496 0.427394
608 1 0.156341 0.761632 0.398219
627 1 0.0837014 0.831748 0.416815
605 1 0.154438 0.675861 0.339174
606 1 0.241826 0.738155 0.320357
616 1 0.503227 0.745667 0.422253
87 1 0.593249 0.986476 0.234515
167 1 0.912821 1.00817 0.419558
583 1 0.245013 0.502328 0.419809
493 1 0.515175 0.817798 0.00456494
163 1 0.756695 1.01212 0.403893
591 1 0.596411 0.505098 0.421716
455 1 0.908646 0.499789 0.0961867
507 1 0.104703 0.518318 0.245546
233 1 0.659994 0.984742 0.483474
155 1 0.414202 0.992285 0.405724
85 1 0.490667 0.996378 0.183124
597 1 0.841068 0.497093 0.353202
466 1 0.424646 0.754376 0.000986204
17 1 0.652718 0.995452 0.0274212
511 1 0.24998 0.493897 0.253928
706 1 0.418368 0.912626 0.491183
15 1 0.583872 1.00821 0.117305
9 1 0.352491 1.00645 -0.00903569
705 1 0.339826 0.832864 0.492577
462 1 0.252469 0.754677 -0.00675553
482 1 0.0766931 0.919938 0.00273304
21 1 0.833963 1.00358 0.0187318
697 1 0.996573 0.838518 0.509691
454 1 0.918686 0.57661 0.00654857
450 1 0.748016 0.58283 0.0116491
686 1 0.585395 0.741335 0.488258
502 1 0.913483 0.918522 0.00398627
478 1 0.896521 0.748806 0.00598414
449 1 0.678962 0.491741 -0.00906648
225 1 0.327714 0.98763 0.500592
649 1 1.01569 0.500494 0.509016
497 1 0.677265 0.839982 0.0163068
498 1 0.749591 0.929039 0.0156528
717 1 0.826993 0.825901 0.499134
485 1 0.173732 0.836658 0.00865547
446 1 0.578701 0.590098 0.00785722
722 1 0.0794611 0.605742 0.668769
656 1 0.172461 0.586145 0.588566
652 1 0.00752875 0.599618 0.583558
675 1 0.0915958 0.668598 0.582796
864 1 0.82893 0.911363 0.928446
679 1 0.243924 0.667374 0.598573
749 1 0.163961 0.683806 0.669183
235 1 0.751627 0.978416 0.574276
862 1 0.908173 0.923925 0.836322
660 1 0.33149 0.586217 0.586022
683 1 0.428869 0.677061 0.583735
221 1 0.170746 1.00609 0.498172
730 1 0.415456 0.584427 0.669956
757 1 0.513941 0.674273 0.662685
662 1 0.573218 0.584466 0.498088
664 1 0.510374 0.578058 0.594049
734 1 0.583672 0.58666 0.671467
668 1 0.675186 0.584811 0.596059
654 1 0.248873 0.58522 0.506032
672 1 0.833308 0.58575 0.580926
691 1 0.745982 0.667413 0.573706
674 1 0.0806583 0.758545 0.505242
765 1 0.829752 0.673444 0.660173
307 1 0.744611 0.994161 0.760347
655 1 0.256308 0.505288 0.588248
695 1 0.91901 0.669049 0.595452
699 1 0.0781623 0.834731 0.593383
680 1 0.173007 0.756307 0.586496
773 1 0.177251 0.84068 0.658813
684 1 0.335278 0.747225 0.582079
725 1 0.162841 0.510171 0.674712
694 1 0.918872 0.754941 0.497917
688 1 0.518788 0.752159 0.570849
729 1 0.342035 0.498192 0.67148
731 1 0.426773 0.513634 0.771326
687 1 0.59559 0.660057 0.578972
758 1 0.58375 0.759606 0.663465
689 1 0.664498 0.659871 0.486983
692 1 0.670645 0.745123 0.586494
696 1 0.819492 0.74873 0.580377
715 1 0.743842 0.834575 0.577305
438 1 0.251953 0.581508 1.01159
676 1 1.00102 0.74771 0.581168
766 1 0.919936 0.747826 0.67225
719 1 0.912186 0.826084 0.590685
681 1 0.328702 0.658432 0.506397
670 1 0.927174 0.585624 0.520202
227 1 0.420718 0.999566 0.58777
770 1 0.0951182 0.923018 0.661811
704 1 0.168477 0.924249 0.566046
700 1 0.993571 0.916511 0.590109
666 1 0.747319 0.582051 0.483052
859 1 0.742383 0.83249 0.921791
858 1 0.749448 0.923224 0.831407
703 1 0.255887 0.826593 0.573423
708 1 0.327389 0.915573 0.58763
373 1 0.494808 1.00605 0.832442
707 1 0.427151 0.825962 0.578156
712 1 0.497599 0.918161 0.572645
711 1 0.586965 0.835136 0.571797
716 1 0.661528 0.91292 0.561221
782 1 0.590516 0.912393 0.657578
737 1 0.661767 0.497563 0.671322
789 1 0.811462 0.843384 0.669258
786 1 0.739492 0.924595 0.669463
720 1 0.824591 0.903528 0.577864
790 1 0.902964 0.923337 0.657914
381 1 0.832229 1.01649 0.856345
299 1 0.398394 0.986279 0.738346
853 1 0.498519 0.836045 0.82398
794 1 0.0851273 0.587537 0.842008
728 1 0.17166 0.590172 0.751614
724 1 0.00390925 0.601748 0.743668
726 1 0.248504 0.588938 0.670929
751 1 0.256628 0.665151 0.754
860 1 0.658179 0.926395 0.936104
854 1 0.577574 0.905987 0.845576
732 1 0.342154 0.588994 0.751436
815 1 0.907511 0.498582 0.922816
669 1 0.844368 0.509464 0.500125
736 1 0.49933 0.585528 0.758871
740 1 0.66994 0.581008 0.749583
759 1 0.57718 0.677692 0.762986
735 1 0.58476 0.513934 0.752074
738 1 0.753016 0.583712 0.670918
663 1 0.586682 0.489884 0.585816
742 1 0.922077 0.588661 0.657843
744 1 0.83643 0.594448 0.747525
745 1 0.00921819 0.687095 0.663234
817 1 0.00256529 0.660842 0.835212
673 1 -0.00805055 0.671393 0.499529
769 1 -0.00399651 0.835543 0.664692
747 1 0.085762 0.672755 0.749645
746 1 0.087066 0.772955 0.682273
771 1 0.0964669 0.850039 0.756691
752 1 0.170643 0.750318 0.757396
748 1 0.00304773 0.7451 0.751641
845 1 0.176045 0.842148 0.840195
750 1 0.246559 0.764408 0.666048
777 1 0.327765 0.829807 0.663291
822 1 0.253108 0.738178 0.835997
756 1 0.332267 0.748734 0.751736
775 1 0.24483 0.837594 0.754548
849 1 0.332097 0.834823 0.835432
754 1 0.431279 0.747977 0.67126
753 1 0.342958 0.668225 0.664065
755 1 0.412644 0.675584 0.750925
826 1 0.407869 0.74873 0.828302
760 1 0.501847 0.758835 0.743283
830 1 0.578813 0.763899 0.840827
761 1 0.665081 0.667943 0.664668
764 1 0.659431 0.74714 0.761437
783 1 0.593772 0.822148 0.7456
763 1 0.74628 0.682002 0.756908
762 1 0.74269 0.761063 0.676855
768 1 0.85112 0.76 0.753853
767 1 0.914004 0.664429 0.753467
791 1 0.929399 0.839026 0.748489
838 1 0.921321 0.762878 0.828285
231 1 0.576429 0.997818 0.574755
776 1 0.176663 0.921761 0.734737
772 1 0.990705 0.923513 0.745699
841 1 -0.00496519 0.851588 0.838851
295 1 0.255517 0.999048 0.736023
774 1 0.244005 0.926134 0.654824
780 1 0.317529 0.913384 0.747984
850 1 0.414578 0.907906 0.834471
779 1 0.423989 0.839887 0.744718
778 1 0.412008 0.898884 0.6546
781 1 0.508066 0.83705 0.670297
784 1 0.500208 0.930233 0.741288
788 1 0.660405 0.910487 0.74667
379 1 0.745626 0.993211 0.914535
785 1 0.664601 0.841077 0.65554
787 1 0.741515 0.839727 0.769046
809 1 0.665251 0.516339 0.842126
792 1 0.826361 0.919818 0.753573
796 1 -0.0159077 0.577948 0.920548
800 1 0.18375 0.581426 0.912131
821 1 0.163926 0.65745 0.83503
819 1 0.0692125 0.67304 0.915504
852 1 0.336102 0.928117 0.910235
798 1 0.260414 0.584613 0.828548
846 1 0.251763 0.929212 0.837257
367 1 0.248935 1.01065 0.906702
802 1 0.402744 0.585323 0.844391
804 1 0.330161 0.571543 0.921405
806 1 0.587893 0.596179 0.829787
808 1 0.494098 0.573453 0.914606
727 1 0.249708 0.507422 0.739367
810 1 0.760794 0.59915 0.818491
812 1 0.669862 0.593974 0.925509
816 1 0.833966 0.585836 0.914298
844 1 0.00175634 0.924536 0.916281
842 1 0.0981862 0.933191 0.816039
856 1 0.502287 0.913996 0.930815
839 1 0.910602 0.693983 0.915242
814 1 0.916459 0.580632 0.833212
818 1 0.0852547 0.756811 0.823999
843 1 0.0942151 0.846924 0.912835
825 1 0.333653 0.669297 0.837249
847 1 0.264386 0.842531 0.92032
823 1 0.25339 0.668643 0.923881
824 1 0.156502 0.748189 0.909002
828 1 0.348499 0.755754 0.914716
851 1 0.433019 0.841463 0.918404
829 1 0.48695 0.650712 0.845633
827 1 0.414277 0.656563 0.925441
832 1 0.484797 0.750196 0.906185
857 1 0.663824 0.855686 0.84289
848 1 0.181171 0.909073 0.932476
831 1 0.57836 0.658089 0.918642
836 1 0.664819 0.742356 0.916798
855 1 0.590667 0.833447 0.924574
840 1 0.828588 0.763962 0.917205
833 1 0.665196 0.66858 0.837053
837 1 0.834893 0.688004 0.842159
834 1 0.734547 0.754088 0.837027
835 1 0.756482 0.669027 0.914084
861 1 0.826066 0.850807 0.840732
863 1 0.91465 0.842315 0.917503
820 1 0.00301117 0.762224 0.912259
301 1 0.506343 0.991494 0.65955
361 1 0.991664 0.98929 0.828702
733 1 0.506524 0.488032 0.662875
805 1 0.515746 0.5016 0.82949
223 1 0.253726 0.995275 0.572979
461 1 0.16252 0.652113 0.996421
303 1 0.579459 1.00069 0.751017
807 1 0.586081 0.506475 0.913932
685 1 0.501151 0.665513 0.504138
219 1 0.0763859 1.00145 0.582521
739 1 0.752393 0.502486 0.748711
377 1 0.661136 0.988581 0.843048
305 1 0.667904 0.996154 0.667748
811 1 0.762875 0.496857 0.908514
433 1 -0.00729411 0.50128 1.00853
375 1 0.577909 1.00026 0.917023
793 1 1.00146 0.487563 0.817642
723 1 0.0976688 0.51304 0.753844
813 1 0.83003 0.5113 0.829468
1 1 0.00420948 1.00298 0.994365
741 1 0.826329 0.516642 0.659081
486 1 0.260459 0.915804 0.996671
458 1 0.0904477 0.757019 0.99671
665 1 0.655208 0.492704 0.500751
297 1 0.328558 0.991773 0.6539
710 1 0.591684 0.912916 0.488925
690 1 0.746803 0.734465 0.498212
677 1 0.172073 0.669236 0.510027
709 1 0.508894 0.831842 0.504893
701 1 0.16526 0.823409 0.496374
469 1 0.500484 0.65813 0.997494
657 1 0.323887 0.507779 0.50537
489 1 0.33503 0.825391 1.00208
490 1 0.419331 0.903645 1.00772
658 1 0.419023 0.588248 0.507482
650 1 0.0941447 0.575571 0.501052
718 1 0.911134 0.924331 0.500258
434 1 0.0830416 0.583223 0.976963
457 1 0.974653 0.67938 1.00279
653 1 0.173127 0.505131 0.506483
693 1 0.843152 0.67402 0.494322
481 1 0.999925 0.835016 0.994338
698 1 0.0698189 0.907132 0.504858
229 1 0.49987 1.00263 0.478374
474 1 0.738368 0.747607 1.01434
661 1 0.502694 0.500287 0.501665
