ITEM: TIMESTEP
0
ITEM: NUMBER OF ATOMS
864
ITEM: BOX BOUNDS pp pp pp
0.0000000000000000e+00 3.1559999999999999e+01
0.0000000000000000e+00 3.1559999999999999e+01
0.0000000000000000e+00 3.1559999999999999e+01
ITEM: ATOMS id type xs ys zs
1 1 0 0 0
2 1 0.0833333 0.0833333 0
3 1 0.0833333 0 0.0833333
4 1 0 0.0833333 0.0833333
5 1 0.166667 0 0
6 1 0.25 0.0833333 0
7 1 0.25 0 0.0833333
8 1 0.166667 0.0833333 0.0833333
9 1 0.333333 0 0
10 1 0.416667 0.0833333 0
11 1 0.416667 0 0.0833333
12 1 0.333333 0.0833333 0.0833333
13 1 0.5 0 0
14 1 0.583333 0.0833333 0
15 1 0.583333 0 0.0833333
16 1 0.5 0.0833333 0.0833333
17 1 0.666667 0 0
18 1 0.75 0.0833333 0
19 1 0.75 0 0.0833333
20 1 0.666667 0.0833333 0.0833333
21 1 0.833333 0 0
22 1 0.916667 0.0833333 0
23 1 0.916667 0 0.0833333
24 1 0.833333 0.0833333 0.0833333
25 1 0 0.166667 0
26 1 0.0833333 0.25 0
27 1 0.0833333 0.166667 0.0833333
28 1 0 0.25 0.0833333
29 1 0.166667 0.166667 0
30 1 0.25 0.25 0
31 1 0.25 0.166667 0.0833333
32 1 0.166667 0.25 0.0833333
33 1 0.333333 0.166667 0
34 1 0.416667 0.25 0
35 1 0.416667 0.166667 0.0833333
36 1 0.333333 0.25 0.0833333
37 1 0.5 0.166667 0
38 1 0.583333 0.25 0
39 1 0.583333 0.166667 0.0833333
40 1 0.5 0.25 0.0833333
41 1 0.666667 0.166667 0
42 1 0.75 0.25 0
43 1 0.75 0.166667 0.0833333
44 1 0.666667 0.25 0.0833333
45 1 0.833333 0.166667 0
46 1 0.916667 0.25 0
47 1 0.916667 0.166667 0.0833333
48 1 0.833333 0.25 0.0833333
49 1 0 0.333333 0
50 1 0.0833333 0.416667 0
51 1 0.0833333 0.333333 0.0833333
52 1 0 0.416667 0.0833333
53 1 0.166667 0.333333 0
54 1 0.25 0.416667 0
55 1 0.25 0.333333 0.0833333
56 1 0.166667 0.416667 0.0833333
57 1 0.333333 0.333333 0
58 1 0.416667 0.416667 0
59 1 0.416667 0.333333 0.0833333
60 1 0.333333 0.416667 0.0833333
61 1 0.5 0.333333 0
62 1 0.583333 0.416667 0
63 1 0.583333 0.333333 0.0833333
64 1 0.5 0.416667 0.0833333
65 1 0.666667 0.333333 0
66 1 0.75 0.416667 0
67 1 0.75 0.333333 0.0833333
68 1 0.666667 0.416667 0.0833333
69 1 0.833333 0.333333 0
70 1 0.916667 0.416667 0
71 1 0.916667 0.333333 0.0833333
72 1 0.833333 0.416667 0.0833333
73 1 0 0 0.166667
74 1 0.0833333 0.0833333 0.166667
75 1 0.0833333 0 0.25
76 1 0 0.0833333 0.25
77 1 0.166667 0 0.166667
78 1 0.25 0.0833333 0.166667
79 1 0.25 0 0.25
80 1 0.166667 0.0833333 0.25
81 1 0.333333 0 0.166667
82 1 0.416667 0.0833333 0.166667
83 1 0.416667 0 0.25
84 1 0.333333 0.0833333 0.25
85 1 0.5 0 0.166667
86 1 0.583333 0.0833333 0.166667
87 1 0.583333 0 0.25
88 1 0.5 0.0833333 0.25
89 1 0.666667 0 0.166667
90 1 0.75 0.0833333 0.166667
91 1 0.75 0 0.25
92 1 0.666667 0.0833333 0.25
93 1 0.833333 0 0.166667
94 1 0.916667 0.0833333 0.166667
95 1 0.916667 0 0.25
96 1 0.833333 0.0833333 0.25
97 1 0 0.166667 0.166667
98 1 0.0833333 0.25 0.166667
99 1 0.0833333 0.166667 0.25
100 1 0 0.25 0.25
101 1 0.166667 0.166667 0.166667
102 1 0.25 0.25 0.166667
103 1 0.25 0.166667 0.25
104 1 0.166667 0.25 0.25
105 1 0.333333 0.166667 0.166667
106 1 0.416667 0.25 0.166667
107 1 0.416667 0.166667 0.25
108 1 0.333333 0.25 0.25
109 1 0.5 0.166667 0.166667
110 1 0.583333 0.25 0.166667
111 1 0.583333 0.166667 0.25
112 1 0.5 0.25 0.25
113 1 0.666667 0.166667 0.166667
114 1 0.75 0.25 0.166667
115 1 0.75 0.166667 0.25
116 1 0.666667 0.25 0.25
117 1 0.833333 0.166667 0.166667
118 1 0.916667 0.25 0.166667
119 1 0.916667 0.166667 0.25
120 1 0.833333 0.25 0.25
121 1 0 0.333333 0.166667
122 1 0.0833333 0.416667 0.166667
123 1 0.0833333 0.333333 0.25
124 1 0 0.416667 0.25
125 1 0.166667 0.333333 0.166667
126 1 0.25 0.416667 0.166667
127 1 0.25 0.333333 0.25
128 1 0.166667 0.416667 0.25
129 1 0.333333 0.333333 0.166667
130 1 0.416667 0.416667 0.166667
131 1 0.416667 0.333333 0.25
132 1 0.333333 0.416667 0.25
133 1 0.5 0.333333 0.166667
134 1 0.583333 0.416667 0.166667
135 1 0.583333 0.333333 0.25
136 1 0.5 0.416667 0.25
137 1 0.666667 0.333333 0.166667
138 1 0.75 0.416667 0.166667
139 1 0.75 0.333333 0.25
140 1 0.666667 0.416667 0.25
141 1 0.833333 0.333333 0.166667
142 1 0.916667 0.416667 0.166667
143 1 0.916667 0.333333 0.25
144 1 0.833333 0.416667 0.25
145 1 0 0 0.333333
146 1 0.0833333 0.0833333 0.333333
147 1 0.0833333 0 0.416667
148 1 0 0.0833333 0.416667
149 1 0.166667 0 0.333333
150 1 0.25 0.0833333 0.333333
151 1 0.25 0 0.416667
152 1 0.166667 0.0833333 0.416667
153 1 0.333333 0 0.333333
154 1 0.416667 0.0833333 0.333333
155 1 0.416667 0 0.416667
156 1 0.333333 0.0833333 0.416667
157 1 0.5 0 0.333333
158 1 0.583333 0.0833333 0.333333
159 1 0.583333 0 0.416667
160 1 0.5 0.0833333 0.416667
161 1 0.666667 0 0.333333
162 1 0.75 0.0833333 0.333333
163 1 0.75 0 0.416667
164 1 0.666667 0.0833333 0.416667
165 1 0.833333 0 0.333333
166 1 0.916667 0.0833333 0.333333
167 1 0.916667 0 0.416667
168 1 0.833333 0.0833333 0.416667
169 1 0 0.166667 0.333333
170 1 0.0833333 0.25 0.333333
171 1 0.0833333 0.166667 0.416667
172 1 0 0.25 0.416667
173 1 0.166667 0.166667 0.333333
174 1 0.25 0.25 0.333333
175 1 0.25 0.166667 0.416667
176 1 0.166667 0.25 0.416667
177 1 0.333333 0.166667 0.333333
178 1 0.416667 0.25 0.333333
179 1 0.416667 0.166667 0.416667
180 1 0.333333 0.25 0.416667
181 1 0.5 0.166667 0.333333
182 1 0.583333 0.25 0.333333
183 1 0.583333 0.166667 0.416667
184 1 0.5 0.25 0.416667
185 1 0.666667 0.166667 0.333333
186 1 0.75 0.25 0.333333
187 1 0.75 0.166667 0.416667
188 1 0.666667 0.25 0.416667
189 1 0.833333 0.166667 0.333333
190 1 0.916667 0.25 0.333333
191 1 0.916667 0.166667 0.416667
192 1 0.833333 0.25 0.416667
193 1 0 0.333333 0.333333
194 1 0.0833333 0.416667 0.333333
195 1 0.0833333 0.333333 0.416667
196 1 0 0.416667 0.416667
197 1 0.166667 0.333333 0.333333
198 1 0.25 0.416667 0.333333
199 1 0.25 0.333333 0.416667
200 1 0.166667 0.416667 0.416667
201 1 0.333333 0.333333 0.333333
202 1 0.416667 0.416667 0.333333
203 1 0.416667 0.333333 0.416667
204 1 0.333333 0.416667 0.416667
205 1 0.5 0.333333 0.333333
206 1 0.583333 0.416667 0.333333
207 1 0.583333 0.333333 0.416667
208 1 0.5 0.416667 0.416667
209 1 0.666667 0.333333 0.333333
210 1 0.75 0.416667 0.333333
211 1 0.75 0.333333 0.416667
212 1 0.666667 0.416667 0.416667
213 1 0.833333 0.333333 0.333333
214 1 0.916667 0.416667 0.333333
215 1 0.916667 0.333333 0.416667
216 1 0.833333 0.416667 0.416667
217 1 0 0 0.5
218 1 0.0833333 0.0833333 0.5
219 1 0.0833333 0 0.583333
220 1 0 0.0833333 0.583333
221 1 0.166667 0 0.5
222 1 0.25 0.0833333 0.5
223 1 0.25 0 0.583333
224 1 0.166667 0.0833333 0.583333
225 1 0.333333 0 0.5
226 1 0.416667 0.0833333 0.5
227 1 0.416667 0 0.583333
228 1 0.333333 0.0833333 0.583333
229 1 0.5 0 0.5
230 1 0.583333 0.0833333 0.5
231 1 0.583333 0 0.583333
232 1 0.5 0.0833333 0.583333
233 1 0.666667 0 0.5
234 1 0.75 0.0833333 0.5
235 1 0.75 0 0.583333
236 1 0.666667 0.0833333 0.583333
237 1 0.833333 0 0.5
238 1 0.916667 0.0833333 0.5
239 1 0.916667 0 0.583333
240 1 0.833333 0.0833333 0.583333
241 1 0 0.166667 0.5
242 1 0.0833333 0.25 0.5
243 1 0.0833333 0.166667 0.583333
244 1 0 0.25 0.583333
245 1 0.166667 0.166667 0.5
246 1 0.25 0.25 0.5
247 1 0.25 0.166667 0.583333
248 1 0.166667 0.25 0.583333
249 1 0.333333 0.166667 0.5
250 1 0.416667 0.25 0.5
251 1 0.416667 0.166667 0.583333
252 1 0.333333 0.25 0.583333
253 1 0.5 0.166667 0.5
254 1 0.583333 0.25 0.5
255 1 0.583333 0.166667 0.583333
256 1 0.5 0.25 0.583333
257 1 0.666667 0.166667 0.5
258 1 0.75 0.25 0.5
259 1 0.75 0.166667 0.583333
260 1 0.666667 0.25 0.583333
261 1 0.833333 0.166667 0.5
262 1 0.916667 0.25 0.5
263 1 0.916667 0.166667 0.583333
264 1 0.833333 0.25 0.583333
265 1 0 0.333333 0.5
266 1 0.0833333 0.416667 0.5
267 1 0.0833333 0.333333 0.583333
268 1 0 0.416667 0.583333
269 1 0.166667 0.333333 0.5
270 1 0.25 0.416667 0.5
271 1 0.25 0.333333 0.583333
272 1 0.166667 0.416667 0.583333
273 1 0.333333 0.333333 0.5
274 1 0.416667 0.416667 0.5
275 1 0.416667 0.333333 0.583333
276 1 0.333333 0.416667 0.583333
277 1 0.5 0.333333 0.5
278 1 0.583333 0.416667 0.5
279 1 0.583333 0.333333 0.583333
280 1 0.5 0.416667 0.583333
281 1 0.666667 0.333333 0.5
282 1 0.75 0.416667 0.5
283 1 0.75 0.333333 0.583333
284 1 0.666667 0.416667 0.583333
285 1 0.833333 0.333333 0.5
286 1 0.916667 0.416667 0.5
287 1 0.916667 0.333333 0.583333
288 1 0.833333 0.416667 0.583333
289 1 0 0 0.666667
290 1 0.0833333 0.0833333 0.666667
291 1 0.0833333 0 0.75
292 1 0 0.0833333 0.75
361 1 0 0 0.833333
362 1 0.0833333 0.0833333 0.833333
293 1 0.166667 0 0.666667
294 1 0.25 0.0833333 0.666667
295 1 0.25 0 0.75
296 1 0.166667 0.0833333 0.75
365 1 0.166667 0 0.833333
366 1 0.25 0.0833333 0.833333
297 1 0.333333 0 0.666667
298 1 0.416667 0.0833333 0.666667
299 1 0.416667 0 0.75
300 1 0.333333 0.0833333 0.75
369 1 0.333333 0 0.833333
370 1 0.416667 0.0833333 0.833333
301 1 0.5 0 0.666667
302 1 0.583333 0.0833333 0.666667
303 1 0.583333 0 0.75
304 1 0.5 0.0833333 0.75
373 1 0.5 0 0.833333
374 1 0.583333 0.0833333 0.833333
305 1 0.666667 0 0.666667
306 1 0.75 0.0833333 0.666667
307 1 0.75 0 0.75
308 1 0.666667 0.0833333 0.75
377 1 0.666667 0 0.833333
378 1 0.75 0.0833333 0.833333
309 1 0.833333 0 0.666667
310 1 0.916667 0.0833333 0.666667
311 1 0.916667 0 0.75
312 1 0.833333 0.0833333 0.75
381 1 0.833333 0 0.833333
382 1 0.916667 0.0833333 0.833333
313 1 0 0.166667 0.666667
314 1 0.0833333 0.25 0.666667
315 1 0.0833333 0.166667 0.75
316 1 0 0.25 0.75
385 1 0 0.166667 0.833333
386 1 0.0833333 0.25 0.833333
317 1 0.166667 0.166667 0.666667
318 1 0.25 0.25 0.666667
319 1 0.25 0.166667 0.75
320 1 0.166667 0.25 0.75
389 1 0.166667 0.166667 0.833333
390 1 0.25 0.25 0.833333
321 1 0.333333 0.166667 0.666667
322 1 0.416667 0.25 0.666667
323 1 0.416667 0.166667 0.75
324 1 0.333333 0.25 0.75
393 1 0.333333 0.166667 0.833333
394 1 0.416667 0.25 0.833333
325 1 0.5 0.166667 0.666667
326 1 0.583333 0.25 0.666667
327 1 0.583333 0.166667 0.75
328 1 0.5 0.25 0.75
397 1 0.5 0.166667 0.833333
398 1 0.583333 0.25 0.833333
329 1 0.666667 0.166667 0.666667
330 1 0.75 0.25 0.666667
331 1 0.75 0.166667 0.75
332 1 0.666667 0.25 0.75
401 1 0.666667 0.166667 0.833333
402 1 0.75 0.25 0.833333
333 1 0.833333 0.166667 0.666667
334 1 0.916667 0.25 0.666667
335 1 0.916667 0.166667 0.75
336 1 0.833333 0.25 0.75
405 1 0.833333 0.166667 0.833333
406 1 0.916667 0.25 0.833333
337 1 0 0.333333 0.666667
338 1 0.0833333 0.416667 0.666667
339 1 0.0833333 0.333333 0.75
340 1 0 0.416667 0.75
409 1 0 0.333333 0.833333
410 1 0.0833333 0.416667 0.833333
341 1 0.166667 0.333333 0.666667
342 1 0.25 0.416667 0.666667
343 1 0.25 0.333333 0.75
344 1 0.166667 0.416667 0.75
413 1 0.166667 0.333333 0.833333
414 1 0.25 0.416667 0.833333
345 1 0.333333 0.333333 0.666667
346 1 0.416667 0.416667 0.666667
347 1 0.416667 0.333333 0.75
348 1 0.333333 0.416667 0.75
417 1 0.333333 0.333333 0.833333
418 1 0.416667 0.416667 0.833333
349 1 0.5 0.333333 0.666667
350 1 0.583333 0.416667 0.666667
351 1 0.583333 0.333333 0.75
352 1 0.5 0.416667 0.75
421 1 0.5 0.333333 0.833333
422 1 0.583333 0.416667 0.833333
353 1 0.666667 0.333333 0.666667
354 1 0.75 0.416667 0.666667
355 1 0.75 0.333333 0.75
356 1 0.666667 0.416667 0.75
425 1 0.666667 0.333333 0.833333
426 1 0.75 0.416667 0.833333
357 1 0.833333 0.333333 0.666667
358 1 0.916667 0.416667 0.666667
359 1 0.916667 0.333333 0.75
360 1 0.833333 0.416667 0.75
429 1 0.833333 0.333333 0.833333
430 1 0.916667 0.416667 0.833333
363 1 0.0833333 0 0.916667
364 1 0 0.0833333 0.916667
367 1 0.25 0 0.916667
368 1 0.166667 0.0833333 0.916667
371 1 0.416667 0 0.916667
372 1 0.333333 0.0833333 0.916667
375 1 0.583333 0 0.916667
376 1 0.5 0.0833333 0.916667
379 1 0.75 0 0.916667
380 1 0.666667 0.0833333 0.916667
383 1 0.916667 0 0.916667
384 1 0.833333 0.0833333 0.916667
387 1 0.0833333 0.166667 0.916667
388 1 0 0.25 0.916667
391 1 0.25 0.166667 0.916667
392 1 0.166667 0.25 0.916667
395 1 0.416667 0.166667 0.916667
396 1 0.333333 0.25 0.916667
399 1 0.583333 0.166667 0.916667
400 1 0.5 0.25 0.916667
403 1 0.75 0.166667 0.916667
404 1 0.666667 0.25 0.916667
407 1 0.916667 0.166667 0.916667
408 1 0.833333 0.25 0.916667
411 1 0.0833333 0.333333 0.916667
412 1 0 0.416667 0.916667
415 1 0.25 0.333333 0.916667
416 1 0.166667 0.416667 0.916667
419 1 0.416667 0.333333 0.916667
420 1 0.333333 0.416667 0.916667
423 1 0.583333 0.333333 0.916667
424 1 0.5 0.416667 0.916667
427 1 0.75 0.333333 0.916667
428 1 0.666667 0.416667 0.916667
431 1 0.916667 0.333333 0.916667
432 1 0.833333 0.416667 0.916667
433 1 0 0.5 0
434 1 0.0833333 0.583333 0
435 1 0.0833333 0.5 0.0833333
436 1 0 0.583333 0.0833333
437 1 0.166667 0.5 0
438 1 0.25 0.583333 0
439 1 0.25 0.5 0.0833333
440 1 0.166667 0.583333 0.0833333
441 1 0.333333 0.5 0
442 1 0.416667 0.583333 0
443 1 0.416667 0.5 0.0833333
444 1 0.333333 0.583333 0.0833333
445 1 0.5 0.5 0
446 1 0.583333 0.583333 0
447 1 0.583333 0.5 0.0833333
448 1 0.5 0.583333 0.0833333
449 1 0.666667 0.5 0
450 1 0.75 0.583333 0
451 1 0.75 0.5 0.0833333
452 1 0.666667 0.583333 0.0833333
453 1 0.833333 0.5 0
454 1 0.916667 0.583333 0
455 1 0.916667 0.5 0.0833333
456 1 0.833333 0.583333 0.0833333
457 1 0 0.666667 0
458 1 0.0833333 0.75 0
459 1 0.0833333 0.666667 0.0833333
460 1 0 0.75 0.0833333
481 1 0 0.833333 0
483 1 0.0833333 0.833333 0.0833333
461 1 0.166667 0.666667 0
462 1 0.25 0.75 0
463 1 0.25 0.666667 0.0833333
464 1 0.166667 0.75 0.0833333
485 1 0.166667 0.833333 0
487 1 0.25 0.833333 0.0833333
465 1 0.333333 0.666667 0
466 1 0.416667 0.75 0
467 1 0.416667 0.666667 0.0833333
468 1 0.333333 0.75 0.0833333
489 1 0.333333 0.833333 0
491 1 0.416667 0.833333 0.0833333
469 1 0.5 0.666667 0
470 1 0.583333 0.75 0
471 1 0.583333 0.666667 0.0833333
472 1 0.5 0.75 0.0833333
493 1 0.5 0.833333 0
495 1 0.583333 0.833333 0.0833333
473 1 0.666667 0.666667 0
474 1 0.75 0.75 0
475 1 0.75 0.666667 0.0833333
476 1 0.666667 0.75 0.0833333
497 1 0.666667 0.833333 0
499 1 0.75 0.833333 0.0833333
477 1 0.833333 0.666667 0
478 1 0.916667 0.75 0
479 1 0.916667 0.666667 0.0833333
480 1 0.833333 0.75 0.0833333
501 1 0.833333 0.833333 0
503 1 0.916667 0.833333 0.0833333
482 1 0.0833333 0.916667 0
484 1 0 0.916667 0.0833333
486 1 0.25 0.916667 0
488 1 0.166667 0.916667 0.0833333
490 1 0.416667 0.916667 0
492 1 0.333333 0.916667 0.0833333
494 1 0.583333 0.916667 0
496 1 0.5 0.916667 0.0833333
498 1 0.75 0.916667 0
500 1 0.666667 0.916667 0.0833333
502 1 0.916667 0.916667 0
504 1 0.833333 0.916667 0.0833333
505 1 0 0.5 0.166667
506 1 0.0833333 0.583333 0.166667
507 1 0.0833333 0.5 0.25
508 1 0 0.583333 0.25
509 1 0.166667 0.5 0.166667
510 1 0.25 0.583333 0.166667
511 1 0.25 0.5 0.25
512 1 0.166667 0.583333 0.25
513 1 0.333333 0.5 0.166667
514 1 0.416667 0.583333 0.166667
515 1 0.416667 0.5 0.25
516 1 0.333333 0.583333 0.25
517 1 0.5 0.5 0.166667
518 1 0.583333 0.583333 0.166667
519 1 0.583333 0.5 0.25
520 1 0.5 0.583333 0.25
521 1 0.666667 0.5 0.166667
522 1 0.75 0.583333 0.166667
523 1 0.75 0.5 0.25
524 1 0.666667 0.583333 0.25
525 1 0.833333 0.5 0.166667
526 1 0.916667 0.583333 0.166667
527 1 0.916667 0.5 0.25
528 1 0.833333 0.583333 0.25
529 1 0 0.666667 0.166667
530 1 0.0833333 0.75 0.166667
531 1 0.0833333 0.666667 0.25
532 1 0 0.75 0.25
553 1 0 0.833333 0.166667
555 1 0.0833333 0.833333 0.25
533 1 0.166667 0.666667 0.166667
534 1 0.25 0.75 0.166667
535 1 0.25 0.666667 0.25
536 1 0.166667 0.75 0.25
557 1 0.166667 0.833333 0.166667
559 1 0.25 0.833333 0.25
537 1 0.333333 0.666667 0.166667
538 1 0.416667 0.75 0.166667
539 1 0.416667 0.666667 0.25
540 1 0.333333 0.75 0.25
561 1 0.333333 0.833333 0.166667
563 1 0.416667 0.833333 0.25
541 1 0.5 0.666667 0.166667
542 1 0.583333 0.75 0.166667
543 1 0.583333 0.666667 0.25
544 1 0.5 0.75 0.25
565 1 0.5 0.833333 0.166667
567 1 0.583333 0.833333 0.25
545 1 0.666667 0.666667 0.166667
546 1 0.75 0.75 0.166667
547 1 0.75 0.666667 0.25
548 1 0.666667 0.75 0.25
569 1 0.666667 0.833333 0.166667
571 1 0.75 0.833333 0.25
549 1 0.833333 0.666667 0.166667
550 1 0.916667 0.75 0.166667
551 1 0.916667 0.666667 0.25
552 1 0.833333 0.75 0.25
573 1 0.833333 0.833333 0.166667
575 1 0.916667 0.833333 0.25
554 1 0.0833333 0.916667 0.166667
556 1 0 0.916667 0.25
558 1 0.25 0.916667 0.166667
560 1 0.166667 0.916667 0.25
562 1 0.416667 0.916667 0.166667
564 1 0.333333 0.916667 0.25
566 1 0.583333 0.916667 0.166667
568 1 0.5 0.916667 0.25
570 1 0.75 0.916667 0.166667
572 1 0.666667 0.916667 0.25
574 1 0.916667 0.916667 0.166667
576 1 0.833333 0.916667 0.25
577 1 0 0.5 0.333333
578 1 0.0833333 0.583333 0.333333
579 1 0.0833333 0.5 0.416667
580 1 0 0.583333 0.416667
581 1 0.166667 0.5 0.333333
582 1 0.25 0.583333 0.333333
583 1 0.25 0.5 0.416667
584 1 0.166667 0.583333 0.416667
585 1 0.333333 0.5 0.333333
586 1 0.416667 0.583333 0.333333
587 1 0.416667 0.5 0.416667
588 1 0.333333 0.583333 0.416667
589 1 0.5 0.5 0.333333
590 1 0.583333 0.583333 0.333333
591 1 0.583333 0.5 0.416667
592 1 0.5 0.583333 0.416667
593 1 0.666667 0.5 0.333333
594 1 0.75 0.583333 0.333333
595 1 0.75 0.5 0.416667
596 1 0.666667 0.583333 0.416667
597 1 0.833333 0.5 0.333333
598 1 0.916667 0.583333 0.333333
599 1 0.916667 0.5 0.416667
600 1 0.833333 0.583333 0.416667
601 1 0 0.666667 0.333333
602 1 0.0833333 0.75 0.333333
603 1 0.0833333 0.666667 0.416667
604 1 0 0.75 0.416667
625 1 0 0.833333 0.333333
627 1 0.0833333 0.833333 0.416667
605 1 0.166667 0.666667 0.333333
606 1 0.25 0.75 0.333333
607 1 0.25 0.666667 0.416667
608 1 0.166667 0.75 0.416667
629 1 0.166667 0.833333 0.333333
631 1 0.25 0.833333 0.416667
609 1 0.333333 0.666667 0.333333
610 1 0.416667 0.75 0.333333
611 1 0.416667 0.666667 0.416667
612 1 0.333333 0.75 0.416667
633 1 0.333333 0.833333 0.333333
635 1 0.416667 0.833333 0.416667
613 1 0.5 0.666667 0.333333
614 1 0.583333 0.75 0.333333
615 1 0.583333 0.666667 0.416667
616 1 0.5 0.75 0.416667
637 1 0.5 0.833333 0.333333
639 1 0.583333 0.833333 0.416667
617 1 0.666667 0.666667 0.333333
618 1 0.75 0.75 0.333333
619 1 0.75 0.666667 0.416667
620 1 0.666667 0.75 0.416667
641 1 0.666667 0.833333 0.333333
643 1 0.75 0.833333 0.416667
621 1 0.833333 0.666667 0.333333
622 1 0.916667 0.75 0.333333
623 1 0.916667 0.666667 0.416667
624 1 0.833333 0.75 0.416667
645 1 0.833333 0.833333 0.333333
647 1 0.916667 0.833333 0.416667
626 1 0.0833333 0.916667 0.333333
628 1 0 0.916667 0.416667
630 1 0.25 0.916667 0.333333
632 1 0.166667 0.916667 0.416667
634 1 0.416667 0.916667 0.333333
636 1 0.333333 0.916667 0.416667
638 1 0.583333 0.916667 0.333333
640 1 0.5 0.916667 0.416667
642 1 0.75 0.916667 0.333333
644 1 0.666667 0.916667 0.416667
646 1 0.916667 0.916667 0.333333
648 1 0.833333 0.916667 0.416667
649 1 0 0.5 0.5
650 1 0.0833333 0.583333 0.5
651 1 0.0833333 0.5 0.583333
652 1 0 0.583333 0.583333
653 1 0.166667 0.5 0.5
654 1 0.25 0.583333 0.5
655 1 0.25 0.5 0.583333
656 1 0.166667 0.583333 0.583333
657 1 0.333333 0.5 0.5
658 1 0.416667 0.583333 0.5
659 1 0.416667 0.5 0.583333
660 1 0.333333 0.583333 0.583333
661 1 0.5 0.5 0.5
662 1 0.583333 0.583333 0.5
663 1 0.583333 0.5 0.583333
664 1 0.5 0.583333 0.583333
665 1 0.666667 0.5 0.5
666 1 0.75 0.583333 0.5
667 1 0.75 0.5 0.583333
668 1 0.666667 0.583333 0.583333
669 1 0.833333 0.5 0.5
670 1 0.916667 0.583333 0.5
671 1 0.916667 0.5 0.583333
672 1 0.833333 0.583333 0.583333
673 1 0 0.666667 0.5
674 1 0.0833333 0.75 0.5
675 1 0.0833333 0.666667 0.583333
676 1 0 0.75 0.583333
697 1 0 0.833333 0.5
699 1 0.0833333 0.833333 0.583333
677 1 0.166667 0.666667 0.5
678 1 0.25 0.75 0.5
679 1 0.25 0.666667 0.583333
680 1 0.166667 0.75 0.583333
701 1 0.166667 0.833333 0.5
703 1 0.25 0.833333 0.583333
681 1 0.333333 0.666667 0.5
682 1 0.416667 0.75 0.5
683 1 0.416667 0.666667 0.583333
684 1 0.333333 0.75 0.583333
705 1 0.333333 0.833333 0.5
707 1 0.416667 0.833333 0.583333
685 1 0.5 0.666667 0.5
686 1 0.583333 0.75 0.5
687 1 0.583333 0.666667 0.583333
688 1 0.5 0.75 0.583333
709 1 0.5 0.833333 0.5
711 1 0.583333 0.833333 0.583333
689 1 0.666667 0.666667 0.5
690 1 0.75 0.75 0.5
691 1 0.75 0.666667 0.583333
692 1 0.666667 0.75 0.583333
713 1 0.666667 0.833333 0.5
715 1 0.75 0.833333 0.583333
693 1 0.833333 0.666667 0.5
694 1 0.916667 0.75 0.5
695 1 0.916667 0.666667 0.583333
696 1 0.833333 0.75 0.583333
717 1 0.833333 0.833333 0.5
719 1 0.916667 0.833333 0.583333
698 1 0.0833333 0.916667 0.5
700 1 0 0.916667 0.583333
702 1 0.25 0.916667 0.5
704 1 0.166667 0.916667 0.583333
706 1 0.416667 0.916667 0.5
708 1 0.333333 0.916667 0.583333
710 1 0.583333 0.916667 0.5
712 1 0.5 0.916667 0.583333
714 1 0.75 0.916667 0.5
716 1 0.666667 0.916667 0.583333
718 1 0.916667 0.916667 0.5
720 1 0.833333 0.916667 0.583333
721 1 0 0.5 0.666667
722 1 0.0833333 0.583333 0.666667
723 1 0.0833333 0.5 0.75
724 1 0 0.583333 0.75
793 1 0 0.5 0.833333
794 1 0.0833333 0.583333 0.833333
725 1 0.166667 0.5 0.666667
726 1 0.25 0.583333 0.666667
727 1 0.25 0.5 0.75
728 1 0.166667 0.583333 0.75
797 1 0.166667 0.5 0.833333
798 1 0.25 0.583333 0.833333
729 1 0.333333 0.5 0.666667
730 1 0.416667 0.583333 0.666667
731 1 0.416667 0.5 0.75
732 1 0.333333 0.583333 0.75
801 1 0.333333 0.5 0.833333
802 1 0.416667 0.583333 0.833333
733 1 0.5 0.5 0.666667
734 1 0.583333 0.583333 0.666667
735 1 0.583333 0.5 0.75
736 1 0.5 0.583333 0.75
805 1 0.5 0.5 0.833333
806 1 0.583333 0.583333 0.833333
737 1 0.666667 0.5 0.666667
738 1 0.75 0.583333 0.666667
739 1 0.75 0.5 0.75
740 1 0.666667 0.583333 0.75
809 1 0.666667 0.5 0.833333
810 1 0.75 0.583333 0.833333
741 1 0.833333 0.5 0.666667
742 1 0.916667 0.583333 0.666667
743 1 0.916667 0.5 0.75
744 1 0.833333 0.583333 0.75
813 1 0.833333 0.5 0.833333
814 1 0.916667 0.583333 0.833333
745 1 0 0.666667 0.666667
746 1 0.0833333 0.75 0.666667
747 1 0.0833333 0.666667 0.75
748 1 0 0.75 0.75
769 1 0 0.833333 0.666667
771 1 0.0833333 0.833333 0.75
817 1 0 0.666667 0.833333
818 1 0.0833333 0.75 0.833333
841 1 0 0.833333 0.833333
749 1 0.166667 0.666667 0.666667
750 1 0.25 0.75 0.666667
751 1 0.25 0.666667 0.75
752 1 0.166667 0.75 0.75
773 1 0.166667 0.833333 0.666667
775 1 0.25 0.833333 0.75
821 1 0.166667 0.666667 0.833333
822 1 0.25 0.75 0.833333
845 1 0.166667 0.833333 0.833333
753 1 0.333333 0.666667 0.666667
754 1 0.416667 0.75 0.666667
755 1 0.416667 0.666667 0.75
756 1 0.333333 0.75 0.75
777 1 0.333333 0.833333 0.666667
779 1 0.416667 0.833333 0.75
825 1 0.333333 0.666667 0.833333
826 1 0.416667 0.75 0.833333
849 1 0.333333 0.833333 0.833333
757 1 0.5 0.666667 0.666667
758 1 0.583333 0.75 0.666667
759 1 0.583333 0.666667 0.75
760 1 0.5 0.75 0.75
781 1 0.5 0.833333 0.666667
783 1 0.583333 0.833333 0.75
829 1 0.5 0.666667 0.833333
830 1 0.583333 0.75 0.833333
853 1 0.5 0.833333 0.833333
761 1 0.666667 0.666667 0.666667
762 1 0.75 0.75 0.666667
763 1 0.75 0.666667 0.75
764 1 0.666667 0.75 0.75
785 1 0.666667 0.833333 0.666667
787 1 0.75 0.833333 0.75
833 1 0.666667 0.666667 0.833333
834 1 0.75 0.75 0.833333
857 1 0.666667 0.833333 0.833333
765 1 0.833333 0.666667 0.666667
766 1 0.916667 0.75 0.666667
767 1 0.916667 0.666667 0.75
768 1 0.833333 0.75 0.75
789 1 0.833333 0.833333 0.666667
791 1 0.916667 0.833333 0.75
837 1 0.833333 0.666667 0.833333
838 1 0.916667 0.75 0.833333
861 1 0.833333 0.833333 0.833333
770 1 0.0833333 0.916667 0.666667
772 1 0 0.916667 0.75
842 1 0.0833333 0.916667 0.833333
774 1 0.25 0.916667 0.666667
776 1 0.166667 0.916667 0.75
846 1 0.25 0.916667 0.833333
778 1 0.416667 0.916667 0.666667
780 1 0.333333 0.916667 0.75
850 1 0.416667 0.916667 0.833333
782 1 0.583333 0.916667 0.666667
784 1 0.5 0.916667 0.75
854 1 0.583333 0.916667 0.833333
786 1 0.75 0.916667 0.666667
788 1 0.666667 0.916667 0.75
858 1 0.75 0.916667 0.833333
790 1 0.916667 0.916667 0.666667
792 1 0.833333 0.916667 0.75
862 1 0.916667 0.916667 0.833333
795 1 0.0833333 0.5 0.916667
796 1 0 0.583333 0.916667
799 1 0.25 0.5 0.916667
800 1 0.166667 0.583333 0.916667
803 1 0.416667 0.5 0.916667
804 1 0.333333 0.583333 0.916667
807 1 0.583333 0.5 0.916667
808 1 0.5 0.583333 0.916667
811 1 0.75 0.5 0.916667
812 1 0.666667 0.583333 0.916667
815 1 0.916667 0.5 0.916667
816 1 0.833333 0.583333 0.916667
819 1 0.0833333 0.666667 0.916667
820 1 0 0.75 0.916667
843 1 0.0833333 0.833333 0.916667
823 1 0.25 0.666667 0.916667
824 1 0.166667 0.75 0.916667
847 1 0.25 0.833333 0.916667
827 1 0.416667 0.666667 0.916667
828 1 0.333333 0.75 0.916667
851 1 0.416667 0.833333 0.916667
831 1 0.583333 0.666667 0.916667
832 1 0.5 0.75 0.916667
855 1 0.583333 0.833333 0.916667
835 1 0.75 0.666667 0.916667
836 1 0.666667 0.75 0.916667
859 1 0.75 0.833333 0.916667
839 1 0.916667 0.666667 0.916667
840 1 0.833333 0.75 0.916667
863 1 0.916667 0.833333 0.916667
844 1 0 0.916667 0.916667
848 1 0.166667 0.916667 0.916667
852 1 0.333333 0.916667 0.916667
856 1 0.5 0.916667 0.916667
860 1 0.666667 0.916667 0.916667
864 1 0.833333 0.916667 0.916667
ITEM: TIMESTEP
500
ITEM: NUMBER OF ATOMS
864
ITEM: BOX BOUNDS pp pp pp
-1.2256237454413661e+00 3.2785623745439558e+01
-1.2256237454413661e+00 3.2785623745439558e+01
-1.2256237454413661e+00 3.2785623745439558e+01
ITEM: ATOMS id type xs ys zs
505 1 0.99861 0.492041 0.184116
91 1 0.744829 0.00687918 0.245936
441 1 0.337072 0.478861 0.0140539
4 1 -0.00135185 0.0682175 0.0556874
46 1 0.928686 0.260543 -0.00233271
163 1 0.757567 0.013576 0.43044
216 1 0.833633 0.411603 0.404911
8 1 0.152949 0.0596964 0.0762506
589 1 0.501827 0.494871 0.353156
221 1 0.177558 0.0186857 0.478234
215 1 0.918137 0.341402 0.426884
12 1 0.320322 0.0885042 0.0614049
657 1 0.331403 0.472114 0.492401
282 1 0.740911 0.41626 0.481812
214 1 0.937336 0.408127 0.353235
16 1 0.495848 0.111154 0.0852493
161 1 0.650609 0.0300701 0.324411
437 1 0.158653 0.486484 0.00614326
213 1 0.849455 0.331428 0.340953
20 1 0.675204 0.0826321 0.105062
212 1 0.648558 0.413298 0.413683
286 1 0.921691 0.43328 0.471936
211 1 0.749805 0.330502 0.384922
24 1 0.846398 0.0841576 0.086667
591 1 0.602401 0.499705 0.3989
583 1 0.246649 0.500597 0.415694
27 1 0.0730204 0.179244 0.0813929
28 1 0.993716 0.250104 0.0841836
595 1 0.735272 0.486036 0.405279
439 1 0.263813 0.496282 0.0988646
31 1 0.230134 0.177147 0.0624423
32 1 0.158685 0.255882 0.0868801
81 1 0.341978 0.00838906 0.172879
451 1 0.72827 0.48477 0.132147
35 1 0.406285 0.170778 0.0931523
36 1 0.331469 0.25322 0.074834
70 1 0.918875 0.426894 -0.000709614
87 1 0.580636 0.00971677 0.253532
39 1 0.588734 0.160117 0.064158
40 1 0.47216 0.246678 0.0904573
449 1 0.699763 0.501162 0.012946
661 1 0.506044 0.494209 0.497394
43 1 0.759679 0.167288 0.100604
44 1 0.689297 0.248783 0.0919793
147 1 0.0936991 0.0101162 0.400743
41 1 0.677542 0.182265 0.014644
47 1 0.928954 0.174794 0.0676724
48 1 0.83585 0.243737 0.0928821
653 1 0.170842 0.472014 0.492486
445 1 0.502794 0.478008 -0.00219744
51 1 0.0759794 0.320122 0.0952523
52 1 0.987117 0.410292 0.0937087
198 1 0.262231 0.406292 0.314677
527 1 0.931925 0.489194 0.266089
55 1 0.254039 0.320506 0.076493
56 1 0.185375 0.405813 0.0764545
515 1 0.452195 0.487076 0.267783
197 1 0.174979 0.333169 0.333745
59 1 0.431385 0.354925 0.0918795
60 1 0.329075 0.395787 0.0866471
196 1 0.00908872 0.40381 0.426501
195 1 0.0820791 0.325242 0.420041
63 1 0.596556 0.328988 0.0741285
64 1 0.5185 0.417656 0.102816
241 1 0.99862 0.175124 0.491165
194 1 0.0886971 0.403228 0.330793
67 1 0.778526 0.331361 0.109719
68 1 0.664407 0.414415 0.0688176
151 1 0.265297 0.00906543 0.415909
193 1 0.996679 0.32472 0.345468
71 1 0.897048 0.343259 0.0814376
72 1 0.844777 0.436732 0.0960616
210 1 0.739209 0.420723 0.321818
74 1 0.0588548 0.0727419 0.154217
10 1 0.42511 0.0855107 0.00124672
76 1 0.00747848 0.0942257 0.246498
597 1 0.839622 0.487221 0.323522
78 1 0.249824 0.0847086 0.155847
37 1 0.50334 0.181822 0.00183845
80 1 0.175265 0.0664255 0.244141
209 1 0.649957 0.329529 0.328498
82 1 0.404005 0.0832203 0.171053
208 1 0.490751 0.405236 0.423132
84 1 0.325263 0.0764677 0.247973
579 1 0.09714 0.494329 0.420917
86 1 0.577883 0.104758 0.155842
49 1 0.995699 0.33407 0.0237424
88 1 0.495332 0.0710117 0.241984
207 1 0.587006 0.316689 0.421541
90 1 0.765189 0.0716216 0.162863
206 1 0.580088 0.410135 0.342491
92 1 0.671475 0.0809341 0.236727
281 1 0.676497 0.3364 0.485261
94 1 0.930368 0.0999609 0.17404
205 1 0.486399 0.337899 0.338561
96 1 0.844863 0.0761011 0.232015
97 1 0.0169148 0.168737 0.171033
98 1 0.0867073 0.261803 0.170825
99 1 0.0905917 0.173333 0.246762
100 1 0.0152812 0.248964 0.244911
101 1 0.158357 0.155387 0.16687
102 1 0.230528 0.229952 0.155305
103 1 0.250279 0.165805 0.258967
104 1 0.164213 0.254153 0.246704
105 1 0.324498 0.164001 0.153988
106 1 0.417046 0.239755 0.177331
107 1 0.429 0.159809 0.252728
108 1 0.336953 0.237054 0.230498
109 1 0.502074 0.165519 0.167308
110 1 0.590846 0.251173 0.152483
111 1 0.565618 0.174994 0.250843
112 1 0.499858 0.259275 0.270098
113 1 0.685634 0.163194 0.181697
114 1 0.760896 0.243749 0.180449
115 1 0.755731 0.161754 0.258254
116 1 0.684749 0.253068 0.261244
117 1 0.849842 0.165866 0.158801
118 1 0.93041 0.227734 0.167712
119 1 0.938824 0.171333 0.266804
120 1 0.850581 0.226585 0.241999
121 1 0.987117 0.316064 0.159668
122 1 0.0794108 0.418811 0.169488
123 1 0.0841809 0.336193 0.253283
124 1 0.00457608 0.408891 0.260662
125 1 0.173292 0.327871 0.160642
126 1 0.2684 0.42163 0.178732
127 1 0.25885 0.299628 0.240951
128 1 0.181194 0.388728 0.238522
129 1 0.351977 0.331646 0.165461
130 1 0.431488 0.423936 0.162701
131 1 0.410058 0.319941 0.247058
132 1 0.358095 0.414935 0.24376
133 1 0.505415 0.308718 0.169233
134 1 0.594728 0.398159 0.165327
135 1 0.595263 0.310265 0.240359
136 1 0.534791 0.421149 0.253497
137 1 0.685054 0.323987 0.175159
138 1 0.757607 0.411256 0.197
139 1 0.771567 0.321087 0.249393
140 1 0.660573 0.401863 0.251199
141 1 0.851974 0.331797 0.179289
142 1 0.915666 0.418732 0.16883
143 1 0.926421 0.326946 0.252821
144 1 0.85106 0.396569 0.262962
204 1 0.325307 0.413524 0.399842
146 1 0.0900011 0.0814795 0.30935
253 1 0.505519 0.155497 0.477247
148 1 0.00847476 0.0915081 0.409567
203 1 0.401616 0.336444 0.427119
150 1 0.252947 0.0683626 0.331745
42 1 0.760826 0.249606 0.0178324
152 1 0.173674 0.0917587 0.404487
202 1 0.412716 0.410454 0.348921
154 1 0.416668 0.0723546 0.332158
585 1 0.336464 0.496678 0.325981
156 1 0.334044 0.0831336 0.3998
201 1 0.348591 0.3112 0.327048
158 1 0.556785 0.0836868 0.326065