ITEM: TIMESTEP
7000
ITEM: NUMBER OF ATOMS
864
ITEM: BOX BOUNDS pp pp pp
0.0000000000000000e+00 3.1559999999999999e+01
0.0000000000000000e+00 3.1559999999999999e+01
0.0000000000000000e+00 3.1559999999999999e+01
ITEM: ATOMS id type xs ys zs
8 1 0.160734 0.0945806 0.0779037
74 1 0.0862014 0.0898053 0.165077
3 1 0.0844581 0.00765949 0.0915736
31 1 0.259245 0.150039 0.0847919
7 1 0.256639 0.00555964 0.0863043
12 1 0.333901 0.0758163 0.0922408
16 1 0.497439 0.0761011 0.0636813
11 1 0.415299 0.00510394 0.0883166
82 1 0.430759 0.0769454 0.165537
9 1 0.337941 0.00754009 0.00176388
10 1 0.416416 0.0843986 0.00262968
20 1 0.648602 0.077137 0.0831955
17 1 0.649863 0.00327621 0.00477464
24 1 0.815661 0.0919695 0.075953
43 1 0.72704 0.146611 0.0765399
21 1 0.821559 0.0171559 0.00960837
90 1 0.72312 0.0782306 0.160188
93 1 0.821291 0.00373635 0.160582
4 1 0.990394 0.0890779 0.0863025
47 1 0.907922 0.164304 0.0923154
73 1 0.989894 0.0116172 0.161089
23 1 0.896348 0.0134208 0.0777624
1 1 0.998767 0.00426138 0.0161229
22 1 0.910622 0.0833 0.0022015
27 1 0.0723574 0.173725 0.0937392
25 1 0.00283105 0.169801 0.00777078
49 1 0.000255266 0.308955 0.0166524
26 1 0.103679 0.240622 0.00820232
32 1 0.178352 0.240996 0.0908684
36 1 0.33137 0.235063 0.088827
55 1 0.239472 0.325509 0.0841021
53 1 0.172942 0.333121 0.00579463
35 1 0.425566 0.173473 0.0794849
59 1 0.421536 0.322274 0.0748629
106 1 0.415557 0.25679 0.156072
40 1 0.507607 0.244497 0.0864989
39 1 0.577587 0.171155 0.073892
110 1 0.588772 0.246501 0.161258
63 1 0.580421 0.332525 0.0889812
44 1 0.67204 0.248915 0.0788939
48 1 0.823149 0.248903 0.0853647
141 1 0.809678 0.331442 0.162591
113 1 0.671043 0.169826 0.165081
28 1 0.99057 0.2401 0.0962708
71 1 0.905182 0.3241 0.0877527
433 1 0.0023618 0.481186 0.00651798
51 1 0.0864312 0.335987 0.0932654
435 1 0.0869584 0.491374 0.106933
50 1 0.104589 0.419717 0.0105387
56 1 0.174721 0.42881 0.0924311
54 1 0.258203 0.417508 0.0137474
133 1 0.492293 0.335874 0.157436
60 1 0.348859 0.424192 0.0806129
64 1 0.484825 0.421398 0.0813609
129 1 0.344403 0.337815 0.160317
447 1 0.561468 0.497506 0.0797514
68 1 0.654577 0.429216 0.0842938
62 1 0.588719 0.418555 0.000733833
67 1 0.74078 0.335255 0.0816061
72 1 0.828343 0.419612 0.0805413
138 1 0.746674 0.438476 0.163206
66 1 0.751941 0.405421 0.000831639
52 1 0.992672 0.409451 0.0909894
525 1 0.842889 0.498388 0.163801
70 1 0.904119 0.418343 0.00181816
69 1 0.83637 0.333843 0.00838987
101 1 0.161999 0.16049 0.170071
80 1 0.159677 0.0777841 0.24714
145 1 0.00612169 0.0024412 0.328453
78 1 0.23535 0.0731918 0.175626
103 1 0.246234 0.158929 0.246902
177 1 0.332031 0.160884 0.330926
105 1 0.319308 0.157367 0.1669
173 1 0.173644 0.158829 0.320528
150 1 0.255671 0.078495 0.32541
84 1 0.335221 0.0815146 0.251296
154 1 0.412678 0.0810678 0.324715
107 1 0.40266 0.156452 0.23324
88 1 0.498741 0.081081 0.246072
81 1 0.336234 0.00411704 0.172457
86 1 0.587261 0.0832923 0.168542
85 1 0.508879 0.00442831 0.173803
109 1 0.523082 0.162058 0.168489
92 1 0.648919 0.0758759 0.250478
111 1 0.594659 0.165848 0.260758
158 1 0.58614 0.0739153 0.33244
96 1 0.832472 0.0771053 0.25646
115 1 0.741878 0.155098 0.247627
76 1 0.995476 0.0879573 0.240133
94 1 0.899887 0.0877078 0.168211
97 1 0.987689 0.164016 0.167792
98 1 0.0879937 0.241991 0.169862
99 1 0.0843248 0.177669 0.257376
170 1 0.0989577 0.255029 0.328891
100 1 0.00794819 0.25393 0.26396
123 1 0.0976969 0.326054 0.256733
102 1 0.242394 0.253513 0.168578
104 1 0.167747 0.249275 0.254439
174 1 0.265452 0.239519 0.332172
127 1 0.248684 0.33326 0.234148
108 1 0.338565 0.244589 0.240232
201 1 0.339052 0.332107 0.315053
178 1 0.417554 0.2467 0.319941
181 1 0.51028 0.167987 0.32119
112 1 0.504075 0.254306 0.239406
117 1 0.821987 0.167288 0.169828
116 1 0.68793 0.25232 0.254828
114 1 0.745724 0.245788 0.168814
120 1 0.833064 0.238483 0.259391
119 1 0.92664 0.166906 0.262453
118 1 0.909524 0.249667 0.180856
121 1 0.992038 0.324352 0.174821
143 1 0.907655 0.319462 0.270461
507 1 0.0777081 0.491373 0.244183
125 1 0.164619 0.337196 0.168674
122 1 0.0759315 0.395717 0.180298
509 1 0.167615 0.499515 0.187486
513 1 0.331137 0.497212 0.171941
126 1 0.24684 0.421808 0.17415
128 1 0.177591 0.41242 0.258005
198 1 0.269384 0.410722 0.33236
130 1 0.433783 0.427149 0.181437
131 1 0.440944 0.335457 0.250615
132 1 0.336689 0.414954 0.246046
202 1 0.42773 0.426986 0.326066
585 1 0.337039 0.497106 0.322444
205 1 0.518318 0.349394 0.329714
135 1 0.595801 0.339514 0.264686
136 1 0.509436 0.430974 0.257247
134 1 0.571807 0.412523 0.174049
137 1 0.663268 0.351457 0.168962
140 1 0.656481 0.422626 0.266712
523 1 0.742616 0.49988 0.267895
139 1 0.739181 0.338065 0.266774
527 1 0.915093 0.492623 0.256809
124 1 0.989707 0.400126 0.260471
144 1 0.837686 0.40807 0.244775
142 1 0.911257 0.404409 0.173192
505 1 0.998573 0.485184 0.173085
218 1 0.09673 0.0842335 0.49969
146 1 0.0954062 0.0776463 0.334039
152 1 0.16607 0.0918724 0.410426
169 1 0.0136893 0.160879 0.338136
151 1 0.24578 0.00133483 0.411707
221 1 0.173346 0.00991868 0.494655
175 1 0.258018 0.160584 0.415569
245 1 0.171198 0.164046 0.490914
222 1 0.252376 0.0819019 0.49428
156 1 0.333557 0.0757974 0.424719
179 1 0.410813 0.150515 0.404183
160 1 0.496206 0.0757469 0.413575
226 1 0.419703 0.0836651 0.49499
257 1 0.658114 0.154406 0.493655
161 1 0.661253 0.0062673 0.3377
164 1 0.663303 0.0851215 0.410301
230 1 0.593294 0.0705497 0.481466
165 1 0.819583 0.00401589 0.333731
234 1 0.761686 0.0889065 0.499905
162 1 0.744207 0.0921002 0.341863
168 1 0.829248 0.0842833 0.406488
163 1 0.730814 0.00132446 0.418606
237 1 0.841443 0.00549274 0.493943
148 1 0.99702 0.093369 0.414981
189 1 0.836872 0.162548 0.336314
166 1 0.913533 0.0775144 0.337846
167 1 0.923889 0.00105251 0.417432
242 1 0.0964317 0.262173 0.482361
265 1 0.0142253 0.331944 0.494324
172 1 0.00617202 0.256231 0.411057
171 1 0.092554 0.172173 0.417504
241 1 0.0152354 0.170312 0.49132
269 1 0.186737 0.325915 0.483621
246 1 0.264059 0.238861 0.496922
197 1 0.18251 0.330653 0.338298
176 1 0.191385 0.242533 0.410329
199 1 0.269676 0.332873 0.405768
180 1 0.341791 0.240774 0.410188
203 1 0.411644 0.325329 0.408925
184 1 0.491563 0.248563 0.414059
277 1 0.487332 0.328846 0.497009
182 1 0.578307 0.25975 0.345376
185 1 0.664859 0.179052 0.34543
183 1 0.572512 0.172569 0.416141
254 1 0.570922 0.255059 0.493359
192 1 0.82275 0.258487 0.421358
188 1 0.669738 0.253408 0.421802
187 1 0.752595 0.169012 0.41655
186 1 0.754477 0.247372 0.337671
215 1 0.923238 0.320485 0.424249
190 1 0.91163 0.251331 0.345652
193 1 0.987408 0.330257 0.338953
191 1 0.92362 0.171609 0.407879
261 1 0.842755 0.176603 0.487673
653 1 0.164328 0.492502 0.492557
194 1 0.0794751 0.419935 0.334682
195 1 0.0858918 0.346032 0.409137
577 1 0.00353577 0.49739 0.348487
266 1 0.0854518 0.414022 0.498481
583 1 0.253867 0.497303 0.417974
200 1 0.175217 0.412593 0.407444
270 1 0.25314 0.420938 0.490743
273 1 0.328252 0.335645 0.499527
208 1 0.490998 0.430413 0.42794
204 1 0.355224 0.416231 0.410011
657 1 0.350466 0.496425 0.482433
274 1 0.409837 0.402815 0.497439
206 1 0.573267 0.44144 0.348181
207 1 0.570188 0.350625 0.422321
209 1 0.662235 0.337265 0.348751
212 1 0.643491 0.426747 0.423813
211 1 0.747085 0.341906 0.419337
210 1 0.759273 0.419688 0.348237
597 1 0.831303 0.490911 0.337698
282 1 0.733121 0.419414 0.49788
216 1 0.841329 0.433943 0.427577
214 1 0.919739 0.420359 0.342976
213 1 0.841939 0.346555 0.350536
196 1 0.99588 0.411854 0.422614
243 1 0.0807306 0.159505 0.583634
219 1 0.0950136 0.00169351 0.58386
217 1 0.0174888 0.00500574 0.511494
297 1 0.321376 0.0024917 0.662244
224 1 0.168796 0.0837542 0.588808
228 1 0.332792 0.0734562 0.584034
223 1 0.246435 0.00301319 0.577395
247 1 0.240477 0.164703 0.582382
321 1 0.321333 0.163005 0.665422
294 1 0.242193 0.0867203 0.661572
251 1 0.404517 0.161759 0.58259
301 1 0.487599 0.00313333 0.638124
229 1 0.490761 0.00723424 0.50259
249 1 0.337139 0.165837 0.50432
232 1 0.509327 0.0933106 0.565401
236 1 0.66284 0.079686 0.595227
302 1 0.567604 0.09676 0.660105
305 1 0.657768 0.000464565 0.655622
231 1 0.581893 0.00428768 0.572995
259 1 0.741552 0.158122 0.579246
220 1 0.998769 0.0893432 0.58854
240 1 0.839556 0.0787597 0.573468
238 1 0.936147 0.0944808 0.502402
248 1 0.166205 0.242324 0.567533
244 1 0.00674471 0.257901 0.570334
314 1 0.0863123 0.244797 0.65457
267 1 0.0969945 0.331994 0.56877
337 1 0.0161868 0.32865 0.657637
341 1 0.162504 0.313404 0.651326
252 1 0.332584 0.245781 0.586639
271 1 0.244467 0.327247 0.58069
345 1 0.326185 0.322521 0.658868
275 1 0.418276 0.330157 0.575951
322 1 0.413823 0.247953 0.658305
256 1 0.499961 0.249194 0.576105
325 1 0.494573 0.176892 0.655937
250 1 0.408115 0.2544 0.501986
253 1 0.488079 0.168754 0.502536
255 1 0.579534 0.167634 0.580253
260 1 0.661453 0.234975 0.574244
279 1 0.5672 0.329749 0.585263
281 1 0.650215 0.32402 0.514915
330 1 0.759937 0.236355 0.651616
264 1 0.825245 0.250913 0.569686
283 1 0.741182 0.328053 0.572947
258 1 0.737711 0.233552 0.501285
313 1 0.999014 0.187497 0.662563
263 1 0.923912 0.174627 0.578327
334 1 0.903993 0.249248 0.658895
333 1 0.838404 0.167272 0.652811
262 1 0.92424 0.250267 0.501225
651 1 0.0792547 0.498187 0.572686
268 1 0.0162419 0.415752 0.585143
338 1 0.0944456 0.421982 0.664064
272 1 0.180265 0.426198 0.578706
655 1 0.261416 0.484508 0.571986
276 1 0.338455 0.407731 0.59098
346 1 0.411594 0.409115 0.664395
280 1 0.482504 0.414182 0.590539
349 1 0.495895 0.336025 0.664644
729 1 0.335594 0.497767 0.655785
737 1 0.654132 0.493162 0.663126
663 1 0.570507 0.494351 0.588041
353 1 0.662178 0.335481 0.652829
350 1 0.574119 0.410848 0.6655
284 1 0.651261 0.41525 0.594084
278 1 0.573721 0.41127 0.516003
667 1 0.746176 0.494322 0.599703
354 1 0.740839 0.412288 0.664809
285 1 0.827991 0.346216 0.505078
288 1 0.843601 0.43465 0.582403
286 1 0.930459 0.419156 0.50924
287 1 0.926904 0.339483 0.582035
358 1 0.930769 0.419678 0.657965
357 1 0.839879 0.341294 0.661288
290 1 0.0950599 0.0842001 0.675298
315 1 0.074736 0.165024 0.74477
369 1 0.326953 0.0107667 0.823275
296 1 0.172914 0.0888545 0.748729
300 1 0.330815 0.0858514 0.737583
319 1 0.249345 0.155407 0.755102
295 1 0.249617 0.00725259 0.744596
298 1 0.413935 0.0782191 0.667741
304 1 0.488311 0.0885428 0.742973
370 1 0.404807 0.10242 0.822231
299 1 0.397534 0.00136112 0.741099
329 1 0.662365 0.16155 0.687992
303 1 0.583981 0.00475864 0.74432
374 1 0.557192 0.0946461 0.825062
401 1 0.654056 0.162748 0.805586
306 1 0.755987 0.0718663 0.667913
307 1 0.761505 0.00920315 0.767227
308 1 0.675416 0.0690169 0.745133
331 1 0.756271 0.161733 0.755045
310 1 0.925186 0.0731754 0.670483
292 1 0.995327 0.0889796 0.744778
312 1 0.840875 0.0779308 0.752153
405 1 0.842975 0.157059 0.828252
335 1 0.911827 0.166474 0.738935
339 1 0.0991186 0.331453 0.747076
316 1 0.0134688 0.255477 0.745859
409 1 0.00216275 0.332424 0.828319
389 1 0.149691 0.172049 0.822601
318 1 0.243986 0.254592 0.673515
317 1 0.167419 0.176188 0.669018
320 1 0.173406 0.251983 0.750535
324 1 0.317494 0.255301 0.758707
393 1 0.331288 0.169575 0.824518
323 1 0.424397 0.180373 0.747366
328 1 0.489683 0.255051 0.741305
394 1 0.405454 0.253777 0.827456
397 1 0.496604 0.19016 0.830213
326 1 0.583067 0.260208 0.668826
327 1 0.564611 0.166987 0.74059
351 1 0.569044 0.329134 0.748998
402 1 0.74928 0.255265 0.82144
425 1 0.66975 0.326358 0.828413
332 1 0.678569 0.256181 0.736031
355 1 0.758499 0.331466 0.744811
429 1 0.842579 0.314413 0.82845
336 1 0.836064 0.240449 0.752031
359 1 0.916685 0.330283 0.749283
406 1 0.923425 0.246405 0.826789
340 1 0.00849403 0.422383 0.749564
342 1 0.262075 0.42509 0.667728
727 1 0.262423 0.499926 0.752555
343 1 0.255372 0.343201 0.750896
344 1 0.174169 0.429662 0.747784
414 1 0.246989 0.420049 0.829373
733 1 0.493033 0.489166 0.670862
347 1 0.404628 0.333409 0.749541
348 1 0.336272 0.424095 0.749239
352 1 0.495588 0.4167 0.74757
418 1 0.419046 0.413295 0.824876
809 1 0.664006 0.489041 0.821195
422 1 0.585308 0.416924 0.823143
356 1 0.656294 0.413758 0.734687
805 1 0.504379 0.494791 0.833186
426 1 0.773328 0.406792 0.832436
360 1 0.832424 0.41474 0.736862
739 1 0.755664 0.483306 0.749007
430 1 0.919982 0.419719 0.828368
5 1 0.164315 0.00388984 0.982936
362 1 0.0739629 0.0822511 0.840281
368 1 0.159762 0.0978025 0.920498
2 1 0.0750764 0.0798175 0.998832
6 1 0.254759 0.0819267 0.997559
367 1 0.250715 0.00361675 0.904481
366 1 0.227573 0.0871408 0.839476
391 1 0.269977 0.162612 0.911895
372 1 0.347046 0.0748982 0.92181
376 1 0.477062 0.0951842 0.905855
33 1 0.340278 0.154354 0.996729
380 1 0.64165 0.0985684 0.894493
14 1 0.580157 0.0863421 0.982088
378 1 0.73632 0.0885107 0.838707
18 1 0.73699 0.0799758 0.988539
377 1 0.667578 0.000200926 0.859639
382 1 0.936375 0.0695406 0.841919
407 1 0.909017 0.150178 0.923598
384 1 0.836592 0.0755817 0.920393
364 1 0.997087 0.0801293 0.929371
387 1 0.0771037 0.169373 0.919862
386 1 0.0830631 0.262405 0.84703
392 1 0.164041 0.22222 0.914159
29 1 0.191127 0.166887 0.998503
415 1 0.242181 0.333321 0.917056
390 1 0.245813 0.240051 0.851291
396 1 0.330667 0.256141 0.912529
30 1 0.255411 0.253081 0.987407
421 1 0.497802 0.325784 0.83408
395 1 0.410776 0.178233 0.912653
419 1 0.413813 0.321767 0.912624
34 1 0.403623 0.243613 0.996818
37 1 0.49213 0.168119 0.993499
61 1 0.494035 0.325499 0.997549
41 1 0.664798 0.167603 0.981892
38 1 0.596635 0.243759 0.998212
400 1 0.504726 0.253819 0.927934
398 1 0.588933 0.252194 0.840109
399 1 0.564838 0.1695 0.921332
65 1 0.665006 0.328889 0.998333
427 1 0.754408 0.321984 0.92331
403 1 0.754881 0.172424 0.90498
404 1 0.677368 0.24178 0.903934
42 1 0.748382 0.234696 0.992989
45 1 0.829018 0.173355 0.993253
408 1 0.844193 0.241602 0.910248
431 1 0.921666 0.32534 0.931517
385 1 0.993515 0.169636 0.836309
388 1 0.993837 0.251716 0.919615
46 1 0.90742 0.237228 0.99882
795 1 0.0900401 0.495832 0.932309
793 1 0.0100018 0.495999 0.836109
416 1 0.16469 0.40809 0.918619
410 1 0.0776065 0.404271 0.836163
411 1 0.0794065 0.337786 0.928751
797 1 0.163575 0.486209 0.838323
799 1 0.260253 0.488161 0.924878
417 1 0.332197 0.338092 0.843127
413 1 0.169325 0.337366 0.83444
420 1 0.340051 0.414249 0.916713
424 1 0.497389 0.414695 0.923493
801 1 0.33561 0.489854 0.844451
58 1 0.422163 0.424624 0.999071
57 1 0.335813 0.333848 0.991679
807 1 0.584885 0.485031 0.919382
423 1 0.602671 0.345668 0.906666
428 1 0.66656 0.426276 0.90537
811 1 0.763198 0.479354 0.918047
412 1 0.999023 0.414891 0.932659
815 1 0.914622 0.497311 0.930194
432 1 0.850122 0.397723 0.907674
459 1 0.0913861 0.652452 0.0822441
436 1 0.00136247 0.573735 0.0915215
434 1 0.0836889 0.575889 0.00195926
457 1 0.0117568 0.659724 0.00923917
440 1 0.171261 0.570115 0.0866343
463 1 0.250871 0.665013 0.0897254
438 1 0.255363 0.585636 0.0154592
437 1 0.171702 0.500782 0.000365706
439 1 0.251039 0.504601 0.0981441
461 1 0.170816 0.659702 0.00447574
444 1 0.336539 0.591368 0.0919691
448 1 0.497921 0.592921 0.0692598
443 1 0.417937 0.507185 0.0984489
441 1 0.337754 0.508953 0.0135119
471 1 0.587208 0.657628 0.0712612
452 1 0.660882 0.576535 0.0791308
545 1 0.660383 0.66149 0.16058
521 1 0.657494 0.509798 0.163372
456 1 0.830223 0.587857 0.0836333
451 1 0.745167 0.520432 0.0923728
450 1 0.747605 0.594789 0.00476294
449 1 0.674643 0.50166 0.00329015
453 1 0.81563 0.51052 0.0112154
479 1 0.933978 0.662182 0.102521
455 1 0.909429 0.513121 0.0862694
454 1 0.928538 0.593047 0.00477535
477 1 0.842962 0.659709 0.00365103
530 1 0.0878852 0.766081 0.157841
458 1 0.0844219 0.744049 0.0113032
464 1 0.184017 0.754632 0.0905023
561 1 0.330537 0.826003 0.156927
468 1 0.339683 0.738855 0.0926005
467 1 0.414996 0.670731 0.0785934
491 1 0.417816 0.831181 0.0849652
472 1 0.493164 0.748124 0.0866262
541 1 0.504325 0.674384 0.166045
542 1 0.589943 0.753093 0.160642
470 1 0.590465 0.749048 0.00644933
501 1 0.829369 0.815023 0.00102811
475 1 0.744633 0.669008 0.0876585
476 1 0.670896 0.757031 0.0906233
480 1 0.827404 0.74688 0.0937621
474 1 0.746071 0.750174 0.00654927
460 1 0.992238 0.753076 0.0981115
503 1 0.914999 0.830787 0.0782517
553 1 0.989024 0.83288 0.164302
77 1 0.163719 0.992647 0.159971
483 1 0.0735756 0.838021 0.0801113
557 1 0.165623 0.839648 0.155903
488 1 0.159075 0.918457 0.0757709
484 1 0.00661319 0.914559 0.09907
481 1 0.00201644 0.833379 0.00619294
487 1 0.245505 0.834507 0.0633847
558 1 0.248697 0.911969 0.141094
486 1 0.256604 0.931016 0.000787134
492 1 0.333821 0.924172 0.0776297
496 1 0.499055 0.913202 0.0876022
562 1 0.413269 0.914465 0.160311
493 1 0.496237 0.835398 0.00747654
497 1 0.66462 0.84085 0.0207383
495 1 0.59589 0.837446 0.10097
566 1 0.578808 0.919801 0.162758
15 1 0.572649 0.99367 0.0804573
19 1 0.740825 0.994397 0.0828034
499 1 0.752804 0.840259 0.0802125
500 1 0.6693 0.914756 0.0936726
498 1 0.73759 0.917775 0.00679237
504 1 0.83864 0.913676 0.0869566
502 1 0.93432 0.914546 0.0190308
506 1 0.0817672 0.590092 0.177912
531 1 0.0936471 0.663642 0.251362
508 1 0.00692344 0.577488 0.267216
510 1 0.241708 0.584398 0.167726
511 1 0.246935 0.505684 0.260519
512 1 0.171551 0.589153 0.271152
535 1 0.246213 0.66015 0.252379
609 1 0.325191 0.656075 0.325711
514 1 0.408053 0.587998 0.169494
516 1 0.334402 0.584514 0.24712
520 1 0.493973 0.592847 0.249828
515 1 0.42614 0.515072 0.253771
517 1 0.499433 0.518471 0.170482
519 1 0.587738 0.505637 0.252163
518 1 0.579504 0.586039 0.175714
590 1 0.58343 0.593197 0.328496
524 1 0.666927 0.581859 0.247441
522 1 0.747054 0.58075 0.174167
547 1 0.740658 0.659606 0.241649
621 1 0.831083 0.660027 0.327196
594 1 0.744928 0.584052 0.330805
529 1 0.997261 0.665751 0.178074
528 1 0.834857 0.577651 0.25652
549 1 0.835407 0.638951 0.169809
526 1 0.9249 0.584214 0.17842
598 1 0.904076 0.581015 0.333211
533 1 0.152581 0.669014 0.167445
555 1 0.0677883 0.83075 0.262763
602 1 0.0852369 0.750591 0.329156
532 1 0.0146512 0.738856 0.252337
534 1 0.2544 0.752281 0.173508
536 1 0.169843 0.750688 0.24037
606 1 0.24813 0.750646 0.332705
540 1 0.328285 0.752201 0.261477
537 1 0.33532 0.671591 0.171909
565 1 0.493498 0.821293 0.166732
539 1 0.41404 0.671311 0.261915
538 1 0.419846 0.747418 0.171499
543 1 0.583377 0.673926 0.235325
544 1 0.502122 0.748532 0.251433
613 1 0.5115 0.671147 0.327219
614 1 0.59096 0.747703 0.326298
569 1 0.683875 0.832483 0.169107
641 1 0.667496 0.828879 0.329369
546 1 0.74855 0.733297 0.168059
548 1 0.670301 0.743091 0.245556
552 1 0.818059 0.742611 0.254491
618 1 0.746067 0.747222 0.328465
617 1 0.669618 0.666716 0.329934
550 1 0.908563 0.739604 0.178079
551 1 0.911538 0.675723 0.258213
575 1 0.926317 0.822798 0.26054
554 1 0.0726298 0.90506 0.180446
629 1 0.163895 0.842515 0.31727
560 1 0.154676 0.916842 0.238775
75 1 0.0788542 0.999763 0.246825
559 1 0.247189 0.847486 0.234773
633 1 0.33081 0.834865 0.3291
79 1 0.250605 0.974984 0.24927
153 1 0.33306 0.979786 0.329806
563 1 0.427543 0.83839 0.259362
564 1 0.347824 0.913925 0.241545
83 1 0.421574 0.991714 0.238383
634 1 0.417935 0.916539 0.326643
568 1 0.49567 0.911536 0.238684
157 1 0.498576 0.994573 0.330714
567 1 0.578834 0.834657 0.257328
572 1 0.661259 0.917428 0.248636
89 1 0.664472 0.993722 0.166796
87 1 0.581322 0.983876 0.256637
91 1 0.742904 0.999419 0.249695
570 1 0.755852 0.918784 0.167969
642 1 0.754088 0.91195 0.328956
571 1 0.759629 0.845744 0.249841
576 1 0.833095 0.924405 0.25691
95 1 0.908331 0.999663 0.252053
573 1 0.837008 0.839062 0.173713
556 1 0.995333 0.917881 0.244917
645 1 0.834347 0.836469 0.327029
574 1 0.917397 0.922466 0.180466
581 1 0.148033 0.501923 0.344275
578 1 0.0778113 0.596587 0.33704
584 1 0.160827 0.585286 0.413198
579 1 0.0678567 0.51672 0.428947
654 1 0.261402 0.583944 0.490169
582 1 0.243888 0.571237 0.342516
586 1 0.417227 0.595551 0.334292
588 1 0.336857 0.580545 0.409716
587 1 0.418722 0.509599 0.401238
593 1 0.660968 0.513186 0.344067
592 1 0.502273 0.597911 0.418563
596 1 0.659816 0.603968 0.415423
589 1 0.504642 0.52114 0.338212
591 1 0.580763 0.515838 0.434383
595 1 0.739826 0.502216 0.426587
600 1 0.808913 0.582221 0.410633
623 1 0.902264 0.666207 0.406674
580 1 0.990896 0.599484 0.413953
599 1 0.910323 0.509261 0.416353
670 1 0.90388 0.59848 0.480142
625 1 0.00203169 0.818058 0.355453
603 1 0.0921829 0.673977 0.419086
608 1 0.163785 0.760244 0.41761
677 1 0.170389 0.671933 0.490956
605 1 0.173406 0.666818 0.337644
607 1 0.249738 0.668871 0.420146
612 1 0.329995 0.738241 0.410663
678 1 0.245506 0.750516 0.497446
682 1 0.407099 0.762085 0.478754
610 1 0.407595 0.756982 0.335738
611 1 0.412699 0.673191 0.416937
616 1 0.49011 0.747128 0.413218
637 1 0.504161 0.826726 0.337496
615 1 0.573331 0.68729 0.430506
620 1 0.664115 0.752351 0.416893
639 1 0.582249 0.826923 0.408672
643 1 0.758153 0.82824 0.412337
624 1 0.832723 0.751453 0.410638
619 1 0.73852 0.677959 0.416333
622 1 0.913125 0.752696 0.335009
647 1 0.916148 0.832762 0.416296
601 1 0.994712 0.673554 0.336468
604 1 0.998689 0.742988 0.421596
694 1 0.908243 0.751493 0.488589
149 1 0.166537 0.985183 0.333674
147 1 0.0733589 0.999611 0.415724
627 1 0.088421 0.840627 0.416285
632 1 0.160578 0.929851 0.419393
626 1 0.0729009 0.914502 0.337568
705 1 0.325789 0.834866 0.483835
630 1 0.243026 0.914753 0.33444
636 1 0.321139 0.920558 0.417183
631 1 0.238658 0.834857 0.410727
702 1 0.243592 0.901596 0.494018
706 1 0.416945 0.91172 0.494732
155 1 0.404634 0.99046 0.42959
640 1 0.492136 0.916665 0.416899
635 1 0.416684 0.836137 0.403646
638 1 0.590512 0.914828 0.33662
159 1 0.588025 0.982489 0.418749
233 1 0.662362 0.977538 0.49589
714 1 0.754013 0.916755 0.494579
644 1 0.671587 0.896493 0.408805
628 1 0.993999 0.924331 0.419709
646 1 0.91415 0.924483 0.334227
648 1 0.834992 0.910708 0.416127
718 1 0.914234 0.913532 0.486768
722 1 0.0979062 0.572661 0.654066
745 1 0.00662025 0.659511 0.664219
656 1 0.164075 0.579858 0.562165
652 1 0.00309565 0.588345 0.587322
675 1 0.0859791 0.6602 0.591637
650 1 0.080299 0.602939 0.505048
726 1 0.252167 0.588161 0.665484
660 1 0.332293 0.583434 0.582267
679 1 0.239026 0.657476 0.583158
725 1 0.179668 0.504453 0.658587
661 1 0.4922 0.510382 0.506371
664 1 0.498173 0.583346 0.589162
659 1 0.42476 0.503625 0.588292
730 1 0.420364 0.584557 0.66524
658 1 0.416713 0.582857 0.501888
662 1 0.587643 0.592092 0.509176
734 1 0.587587 0.584758 0.666136
668 1 0.660422 0.581019 0.59576
689 1 0.662125 0.664409 0.504408
672 1 0.827081 0.588723 0.593344
691 1 0.740601 0.664934 0.596956
666 1 0.747568 0.586037 0.502812
665 1 0.667358 0.509118 0.512293
742 1 0.930428 0.584182 0.660785
695 1 0.908873 0.661999 0.589224
669 1 0.838269 0.525579 0.506447
671 1 0.935987 0.514646 0.584497
741 1 0.853976 0.504175 0.660612
649 1 0.996458 0.500698 0.500108
674 1 0.0738382 0.74702 0.512079
680 1 0.150392 0.753143 0.590414
746 1 0.076124 0.742374 0.652517
701 1 0.165552 0.831553 0.504861
750 1 0.262113 0.746052 0.662282
703 1 0.242656 0.821113 0.581214
709 1 0.482026 0.827816 0.504227
683 1 0.416828 0.6698 0.587042
684 1 0.337275 0.748814 0.576508
688 1 0.492369 0.756507 0.588329
707 1 0.412574 0.830052 0.579689
754 1 0.416285 0.752573 0.657234
777 1 0.336348 0.829256 0.663351
681 1 0.336946 0.669535 0.503454
685 1 0.493024 0.682736 0.507948
687 1 0.581598 0.680051 0.571297
711 1 0.593978 0.830104 0.596079
757 1 0.500074 0.66784 0.656489
686 1 0.590019 0.769425 0.508764
692 1 0.667272 0.747367 0.595105
715 1 0.756184 0.820683 0.588818
693 1 0.826304 0.667372 0.515811
690 1 0.751666 0.747106 0.500101
717 1 0.826985 0.826131 0.503471
696 1 0.839126 0.749275 0.582262
676 1 0.983021 0.751822 0.574949
719 1 0.903161 0.832272 0.579169
769 1 0.99656 0.8279 0.649566
766 1 0.909911 0.749354 0.65746
789 1 0.837435 0.829658 0.666224
673 1 0.981674 0.670144 0.512437
699 1 0.0811039 0.840186 0.589956
698 1 0.0811487 0.915932 0.504496
704 1 0.166466 0.913067 0.581845
770 1 0.0800437 0.930586 0.660463
700 1 0.00536011 0.916469 0.577988
697 1 0.00767822 0.834535 0.500479
293 1 0.164672 0.993706 0.666167
708 1 0.328503 0.913921 0.58367
225 1 0.321906 0.986461 0.509567
778 1 0.411416 0.926478 0.662383
227 1 0.402044 0.990935 0.569646
712 1 0.508622 0.92057 0.573023
781 1 0.501994 0.851472 0.656642
782 1 0.589572 0.91707 0.657784
710 1 0.585265 0.900702 0.500681
713 1 0.678286 0.83577 0.50799
716 1 0.68363 0.904159 0.588887
720 1 0.830606 0.919911 0.572344
235 1 0.744953 0.993217 0.57847
289 1 0.990186 0.988663 0.664301
239 1 0.925825 0.997685 0.573152
309 1 0.83776 0.991158 0.661848
749 1 0.165622 0.657592 0.674818
724 1 0.0159077 0.600536 0.749567
721 1 0.0103141 0.500337 0.667631
723 1 0.0882836 0.512399 0.75718
728 1 0.172382 0.576158 0.755877
731 1 0.405125 0.509877 0.756713
732 1 0.334499 0.582876 0.73505
802 1 0.430773 0.595906 0.833179
755 1 0.410204 0.666029 0.748196
736 1 0.501701 0.586471 0.75579
740 1 0.664957 0.586149 0.744283
735 1 0.581577 0.502924 0.74554
738 1 0.742314 0.561825 0.66829
810 1 0.746179 0.579128 0.82951
744 1 0.832007 0.582424 0.755924
814 1 0.924566 0.578503 0.832876
743 1 0.935633 0.51174 0.750451
773 1 0.156576 0.823645 0.672332
747 1 0.0912986 0.671144 0.757924
771 1 0.0898642 0.826815 0.748384
752 1 0.174819 0.752358 0.7536
751 1 0.255483 0.672232 0.736991
822 1 0.260267 0.732781 0.823132
753 1 0.342427 0.669999 0.666874
756 1 0.342462 0.754632 0.752946
825 1 0.347031 0.670984 0.829974
826 1 0.428157 0.750207 0.83099
759 1 0.583204 0.66998 0.761565
760 1 0.501754 0.753311 0.733378
758 1 0.58632 0.739845 0.668694
830 1 0.588506 0.763179 0.828216
783 1 0.601387 0.831417 0.733145
829 1 0.505015 0.681731 0.822085
761 1 0.663309 0.67561 0.676161
765 1 0.828246 0.667412 0.674018
763 1 0.748688 0.677213 0.748453
762 1 0.762312 0.754353 0.668196
764 1 0.674076 0.758239 0.749284
767 1 0.930106 0.672345 0.759459
768 1 0.835048 0.743792 0.762959
748 1 0.989075 0.755712 0.733701
791 1 0.919652 0.824714 0.750151
365 1 0.158521 0.992342 0.824356
361 1 0.0109568 0.987451 0.817642
776 1 0.160515 0.910495 0.739831
772 1 0.00275216 0.90563 0.733386
291 1 0.081457 0.99177 0.74526
774 1 0.2443 0.916319 0.66729
775 1 0.258689 0.835029 0.748181
846 1 0.241929 0.927288 0.832183
373 1 0.491446 0.993999 0.819062
780 1 0.338311 0.910436 0.749229
779 1 0.41516 0.838663 0.734088
784 1 0.482916 0.921266 0.729282
850 1 0.41575 0.917647 0.828822
853 1 0.496946 0.839589 0.817578
854 1 0.585771 0.922534 0.820751
787 1 0.764358 0.847319 0.762314
785 1 0.687545 0.834286 0.671174
786 1 0.763284 0.909741 0.672238
788 1 0.67966 0.943954 0.746051
792 1 0.840706 0.926332 0.763495
790 1 0.922667 0.913781 0.667133
311 1 0.93027 0.992573 0.751623
794 1 0.0883971 0.583657 0.834611
800 1 0.166118 0.597951 0.918393
796 1 0.0046109 0.587533 0.925708
819 1 0.08464 0.665639 0.926763
798 1 0.24557 0.577508 0.84047
823 1 0.255584 0.665471 0.90928
442 1 0.414618 0.589901 0.990378
804 1 0.340982 0.5955 0.8914
445 1 0.487941 0.505153 0.995225
803 1 0.411197 0.508726 0.927252
806 1 0.586383 0.590513 0.835698
808 1 0.50026 0.585906 0.906648
473 1 0.645184 0.654894 0.992981
446 1 0.585204 0.574525 0.989245
812 1 0.669496 0.582877 0.908443
813 1 0.832086 0.500406 0.844103
816 1 0.842672 0.580288 0.927114
841 1 0.000548154 0.829386 0.833606
818 1 0.079761 0.759397 0.84836
821 1 0.164945 0.679108 0.843216
817 1 0.017456 0.668926 0.838141
820 1 0.00693657 0.749007 0.933513
824 1 0.164924 0.747665 0.931341
485 1 0.162568 0.827447 0.999459
462 1 0.263418 0.749242 0.993146
845 1 0.172168 0.829856 0.848607
849 1 0.340818 0.827006 0.837731
827 1 0.429106 0.682207 0.908899
828 1 0.337083 0.741799 0.905533
851 1 0.427143 0.830692 0.915868
466 1 0.40348 0.752558 0.996607
465 1 0.338199 0.668412 0.979233
489 1 0.336787 0.826347 0.99554
831 1 0.592199 0.676882 0.901749
832 1 0.50996 0.757811 0.920741
469 1 0.504228 0.672455 0.990598
833 1 0.683894 0.676506 0.833655
834 1 0.754296 0.764325 0.840819
836 1 0.675998 0.762404 0.917926
835 1 0.758763 0.675101 0.929876
840 1 0.829795 0.751176 0.913745
478 1 0.91424 0.737982 0.999643
837 1 0.843276 0.670318 0.84392
838 1 0.925174 0.752812 0.839461
839 1 0.933141 0.674832 0.911707
363 1 0.0857276 0.985319 0.914016
844 1 0.0050005 0.923817 0.911128
842 1 0.0767275 0.911015 0.835575
848 1 0.164387 0.90835 0.933557
843 1 0.0779553 0.833574 0.922918
482 1 0.0741887 0.904261 0.990804
847 1 0.265311 0.845491 0.906684
852 1 0.330217 0.924724 0.901275
371 1 0.414523 0.993341 0.898042
13 1 0.491726 0.981319 0.998304
490 1 0.39915 0.920116 0.993696
860 1 0.661063 0.917257 0.919133
375 1 0.57164 0.991878 0.917698
856 1 0.50391 0.906956 0.910316
855 1 0.592083 0.833865 0.930725
857 1 0.664382 0.84357 0.835242
494 1 0.581151 0.911777 0.999546
858 1 0.765217 0.917548 0.848275
859 1 0.75446 0.83683 0.924031
379 1 0.755907 0.986154 0.93255
862 1 0.929419 0.927695 0.835084
863 1 0.932276 0.839349 0.931479
381 1 0.83394 0.998842 0.845812
383 1 0.909709 0.991996 0.942507
864 1 0.833743 0.905674 0.947396
861 1 0.848739 0.838756 0.83563
