ITEM: TIMESTEP
13600
ITEM: NUMBER OF ATOMS
864
ITEM: BOX BOUNDS pp pp pp
0.0000000000000000e+00 3.1559999999999999e+01
0.0000000000000000e+00 3.1559999999999999e+01
0.0000000000000000e+00 3.1559999999999999e+01
ITEM: ATOMS id type xs ys zs
27 1 0.0698934 0.164682 0.0848951
74 1 0.0869586 0.0869535 0.165779
101 1 0.168535 0.172986 0.172397
4 1 0.999654 0.0773886 0.0914179
165 1 0.84115 0.00904448 0.330168
517 1 0.505817 0.504847 0.18041
8 1 0.159866 0.0866303 0.0813708
31 1 0.244883 0.154496 0.0963629
274 1 0.432348 0.423216 0.509756
105 1 0.329727 0.172969 0.173749
12 1 0.345163 0.0898873 0.0800061
82 1 0.408265 0.0883997 0.155903
35 1 0.448073 0.181619 0.0845423
85 1 0.493942 0.0103528 0.167087
577 1 0.993324 0.486094 0.331184
16 1 0.495023 0.0796854 0.0798602
86 1 0.580605 0.0828251 0.174193
39 1 0.571215 0.152674 0.079486
109 1 0.512349 0.17353 0.170366
449 1 0.693827 0.491622 -0.0222406
20 1 0.658244 0.0910201 0.0904947
14 1 0.586174 0.0829834 -0.00553632
24 1 0.838467 0.0667546 0.0856897
47 1 0.907381 0.16613 0.0760681
196 1 0.000469971 0.425593 0.414871
32 1 0.158065 0.245381 0.0910985
28 1 0.983357 0.24832 0.0827107
98 1 0.0732972 0.238078 0.16188
121 1 0.993798 0.337983 0.157885
583 1 0.25679 0.494379 0.418838
36 1 0.334007 0.24065 0.0737309
125 1 0.18197 0.330881 0.150334
62 1 0.587842 0.423936 -0.00714585
161 1 0.654345 -0.00612903 0.316336
59 1 0.399449 0.33798 0.0708428
106 1 0.421587 0.256771 0.151078
145 1 1.00247 0.000262476 0.332114
40 1 0.493737 0.278205 0.0866729
43 1 0.751409 0.155129 0.092281
44 1 0.650022 0.243989 0.0939063
48 1 0.834678 0.252679 0.0932865
113 1 0.651756 0.178226 0.179307
25 1 1.00034 0.168996 -0.00235725
117 1 0.829883 0.17186 0.176758
118 1 0.925224 0.242977 0.166966
41 1 0.667313 0.169717 0.00687425
51 1 0.0860436 0.345686 0.0748513
52 1 0.998801 0.419231 0.0790134
273 1 0.328005 0.332717 0.511343
241 1 1.01582 0.180599 0.500251
56 1 0.17725 0.4287 0.0841441
55 1 0.264929 0.328862 0.0792457
60 1 0.34748 0.433401 0.0848368
46 1 0.908582 0.243742 0.00123295
579 1 0.0994064 0.505385 0.412899
64 1 0.498938 0.4222 0.0779922
130 1 0.417543 0.427828 0.182828
65 1 0.670667 0.328333 -0.0082551
63 1 0.58844 0.330806 0.0996282
68 1 0.670965 0.424377 0.0874275
133 1 0.488236 0.346549 0.168975
33 1 0.339975 0.173645 -0.00571961
141 1 0.840012 0.326269 0.175242
505 1 0.992826 0.494658 0.166985
67 1 0.740925 0.318568 0.0743749
138 1 0.767518 0.417405 0.165345
599 1 0.918568 0.495503 0.425745
72 1 0.82554 0.411246 0.081808
71 1 0.898523 0.332519 0.0812396
87 1 0.567652 -0.0154229 0.257821
262 1 0.913133 0.250067 0.504167
80 1 0.176888 0.0674486 0.238
76 1 0.99746 0.0702041 0.249466
173 1 0.169924 0.186775 0.345032
226 1 0.416096 0.0758425 0.501636
78 1 0.256326 0.0794481 0.168848
23 1 0.921502 -0.0123856 0.0851954
221 1 0.17591 -0.00623084 0.496897
84 1 0.331989 0.0892998 0.243472
107 1 0.42211 0.176124 0.239196
154 1 0.42036 0.0767885 0.32391
597 1 0.835261 0.470386 0.338997
88 1 0.487958 0.0808289 0.238384
158 1 0.574 0.0764029 0.334171
92 1 0.664016 0.0785299 0.232107
2 1 0.0807355 0.0921649 -0.0125576
435 1 0.0758407 0.508839 0.0640854
90 1 0.754756 0.0787749 0.174385
210 1 0.748645 0.400146 0.336137
115 1 0.747934 0.171127 0.248084
94 1 0.909325 0.0912039 0.165194
97 1 0.994928 0.163987 0.170389
96 1 0.824567 0.0795262 0.243419
166 1 0.926179 0.0756778 0.337385
119 1 0.916282 0.156558 0.251431
81 1 0.335589 -0.00435955 0.148623
99 1 0.0937341 0.172463 0.24614
104 1 0.161207 0.265355 0.244021
100 1 0.0089051 0.250946 0.250996
123 1 0.081023 0.349101 0.238331
193 1 -0.000700924 0.334747 0.317661
170 1 0.075196 0.249143 0.334259
102 1 0.258846 0.246438 0.179808
103 1 0.244823 0.169367 0.256542
177 1 0.358877 0.171499 0.324867
127 1 0.262968 0.349682 0.250432
174 1 0.260514 0.276466 0.335785
129 1 0.332609 0.326085 0.155786
108 1 0.340556 0.258703 0.254602
112 1 0.484766 0.268947 0.235643
131 1 0.410799 0.339416 0.239716
178 1 0.419755 0.256916 0.328742
111 1 0.58525 0.164186 0.254981
181 1 0.493514 0.164215 0.317413
110 1 0.569535 0.257182 0.170876
182 1 0.592959 0.255289 0.326273
135 1 0.57269 0.333802 0.249347
114 1 0.755064 0.251668 0.169113
116 1 0.666576 0.247026 0.247288
186 1 0.751573 0.257887 0.337814
185 1 0.664185 0.160505 0.32534
189 1 0.835076 0.158454 0.333123
190 1 0.936124 0.234979 0.323145
120 1 0.833725 0.252526 0.246981
143 1 0.926627 0.321702 0.246472
211 1 0.741161 0.32549 0.422901
122 1 0.0858904 0.435404 0.141893
216 1 0.830757 0.40247 0.431647
527 1 0.901108 0.502446 0.257644
128 1 0.172345 0.415388 0.229656
126 1 0.272435 0.423451 0.164458
198 1 0.258298 0.420453 0.334974
95 1 0.909009 -0.00408194 0.237769
207 1 0.582109 0.345192 0.410111
132 1 0.337369 0.426282 0.269128
136 1 0.490704 0.427461 0.263552
202 1 0.425387 0.423486 0.347723
209 1 0.662588 0.325395 0.33761
205 1 0.505761 0.322868 0.326198
134 1 0.584434 0.429383 0.178802
206 1 0.597608 0.428698 0.328335
137 1 0.668425 0.32345 0.167745
140 1 0.669159 0.426579 0.241659
139 1 0.759726 0.334192 0.258116
144 1 0.839582 0.403482 0.257402
6 1 0.246989 0.0916143 -0.00143153
15 1 0.575585 -0.00336064 0.101208
142 1 0.902182 0.413376 0.169523
124 1 0.98965 0.413482 0.247524
214 1 0.923964 0.406797 0.335359
203 1 0.42319 0.325371 0.427319
146 1 0.0839202 0.0893147 0.327222
169 1 0.00242342 0.156026 0.323552
148 1 0.00203964 0.0897689 0.41565
171 1 0.087477 0.176092 0.419443
155 1 0.408562 -0.0084617 0.417314
152 1 0.178516 0.0793618 0.413243
150 1 0.267901 0.0919143 0.33284
187 1 0.738966 0.165969 0.410887
179 1 0.416441 0.159451 0.408714
156 1 0.350353 0.0817267 0.40395
160 1 0.492476 0.0759567 0.418565
164 1 0.662657 0.0890608 0.40962
192 1 0.833273 0.236255 0.412293
172 1 1.00199 0.248221 0.409819
162 1 0.749475 0.0811186 0.326315
204 1 0.348415 0.413673 0.423021
213 1 0.860392 0.322662 0.344277
168 1 0.842745 0.0797736 0.409078
191 1 0.916168 0.16298 0.415722
208 1 0.512238 0.438149 0.419642
195 1 0.0771802 0.34106 0.417982
229 1 0.503154 -0.0098446 0.493222
176 1 0.159057 0.269505 0.411988
197 1 0.157255 0.347141 0.33341
212 1 0.669913 0.419526 0.418231
180 1 0.338825 0.243583 0.415889
199 1 0.243336 0.34335 0.425497
175 1 0.256593 0.171632 0.413407
201 1 0.35549 0.33952 0.335404
184 1 0.496603 0.237522 0.413114
215 1 0.92418 0.332194 0.435025
200 1 0.167176 0.421981 0.42056
183 1 0.582717 0.168649 0.413417
188 1 0.66637 0.238712 0.419035
194 1 0.0821043 0.420127 0.328948
147 1 0.0742667 0.00823395 0.422394
157 1 0.486512 0.000867263 0.317434
10 1 0.411984 0.0860045 -0.0140519
595 1 0.768734 0.501606 0.426636
230 1 0.587506 0.0723148 0.491573
523 1 0.752983 0.498456 0.252229
11 1 0.423238 0.00185374 0.0827858
587 1 0.417456 0.507178 0.424379
53 1 0.16894 0.324262 -0.00202974
233 1 0.677876 0.00260799 0.50332
21 1 0.830905 0.00280831 -0.009606
26 1 0.0749216 0.246634 0.0207918
238 1 0.922316 0.0799622 0.492881
42 1 0.749801 0.239777 0.000656982
278 1 0.589738 0.43479 0.513958
49 1 0.990237 0.334826 0.0122089
253 1 0.50067 0.163416 0.497603
234 1 0.754375 0.0888401 0.480407
70 1 0.915389 0.418811 0.00250126
445 1 0.499724 0.502569 -0.000947047
222 1 0.24488 0.0894834 0.491306
258 1 0.763609 0.240934 0.492968
1 1 1.00587 0.0141229 -0.00626307
45 1 0.827957 0.174144 -0.000913887
441 1 0.323151 0.502889 -0.00752347
249 1 0.333451 0.151959 0.490832
18 1 0.751634 0.087114 0.000829841
257 1 0.67369 0.162488 0.504644
224 1 0.173529 0.10361 0.5914
220 1 0.00134317 0.0949777 0.567284
228 1 0.335153 0.0739439 0.58257
227 1 0.409892 -0.0128387 0.590977
251 1 0.408416 0.164579 0.561466
298 1 0.418982 0.0688189 0.684502
232 1 0.502954 0.0731816 0.582639
651 1 0.0785321 0.495629 0.581898
266 1 0.0916646 0.41158 0.510948
269 1 0.169819 0.330264 0.513103
236 1 0.689787 0.0807014 0.575218
255 1 0.585453 0.172224 0.576002
741 1 0.840267 0.500322 0.66215
240 1 0.81825 0.0803662 0.574528
363 1 0.0691684 0.00156353 0.913047
727 1 0.246836 0.503229 0.765261
801 1 0.329345 0.497772 0.833182
307 1 0.7709 -0.00199093 0.7538
361 1 0.000141852 -0.0156187 0.820877
379 1 0.758739 0.00668536 0.918782
282 1 0.749882 0.409583 0.501959
797 1 0.155224 0.489766 0.817971
243 1 0.0885362 0.175553 0.58953
314 1 0.0749981 0.246432 0.67702
248 1 0.180713 0.249847 0.60086
247 1 0.263138 0.168468 0.581171
271 1 0.24671 0.33975 0.61192
293 1 0.157039 -0.00590393 0.653241
252 1 0.335546 0.244372 0.568589
275 1 0.42139 0.322202 0.569536
322 1 0.404034 0.244985 0.651416
731 1 0.423375 0.498737 0.754659
256 1 0.498124 0.23746 0.569552
279 1 0.583622 0.354274 0.578253
375 1 0.589618 0.003829 0.922011
259 1 0.755793 0.163607 0.582882
260 1 0.683596 0.25428 0.585716
330 1 0.749282 0.261194 0.664865
263 1 0.920117 0.174872 0.583008
244 1 0.00106644 0.250579 0.579261
264 1 0.836706 0.244225 0.597855
334 1 0.916912 0.241807 0.667585
287 1 0.918128 0.331404 0.598515
743 1 0.917388 0.499995 0.758384
267 1 0.0944486 0.318727 0.590893
69 1 0.823701 0.319844 1.0069
29 1 0.164903 0.175553 1.00638
272 1 0.162813 0.42686 0.595242
242 1 0.0894239 0.26348 0.491157
345 1 0.344335 0.336173 0.658303
649 1 0.00455865 0.50072 0.485512
276 1 0.338471 0.42037 0.57225
349 1 0.486253 0.330636 0.66169
245 1 0.172075 0.174777 0.498533
346 1 0.418645 0.418427 0.669648
57 1 0.334055 0.341758 0.995073
280 1 0.509067 0.434568 0.595831
284 1 0.675843 0.426738 0.592423
350 1 0.58795 0.421105 0.671614
239 1 0.924629 0.0112325 0.57123
283 1 0.747845 0.343128 0.601599
430 1 0.912616 0.411466 0.838384
432 1 0.834985 0.412453 0.925424
807 1 0.579621 0.498066 0.911319
268 1 0.00846472 0.403173 0.591584
288 1 0.83351 0.406415 0.584594
429 1 0.838622 0.331444 0.839235
290 1 0.0838311 0.0893037 0.655373
296 1 0.170141 0.0719352 0.740645
362 1 0.0785804 0.0882771 0.827263
723 1 0.0585708 0.497117 0.768631
295 1 0.238129 -0.00452343 0.741828
408 1 0.825927 0.25205 0.909317
425 1 0.651534 0.311916 0.835717
294 1 0.254165 0.0817405 0.661409
427 1 0.744001 0.323376 0.916466
300 1 0.333462 0.0909183 0.760621
281 1 0.674423 0.336331 0.517133
304 1 0.497699 0.0780748 0.762864
805 1 0.503253 0.492762 0.834096
329 1 0.662995 0.176038 0.652843
390 1 0.238201 0.244825 0.822383
403 1 0.755672 0.158311 0.904987
302 1 0.582354 0.063302 0.679036
308 1 0.678902 0.0864437 0.729551
306 1 0.759337 0.0773505 0.665547
312 1 0.847535 0.0748197 0.745715
405 1 0.843272 0.175696 0.825678
310 1 0.921294 0.0830926 0.658593
416 1 0.167565 0.40718 0.916034
292 1 0.994573 0.0826206 0.752001
385 1 0.991749 0.191029 0.836073
419 1 0.393199 0.330531 0.905232
317 1 0.171842 0.166913 0.677099
315 1 0.0650114 0.16494 0.752202
386 1 0.0843801 0.23307 0.836122
341 1 0.156528 0.330774 0.678225
320 1 0.15954 0.254497 0.753824
339 1 0.0808404 0.342612 0.75187
337 1 0.000908721 0.328548 0.66182
413 1 0.17295 0.327652 0.832663
318 1 0.269749 0.238129 0.674263
321 1 0.337127 0.155093 0.669613
319 1 0.248361 0.153439 0.755168
343 1 0.252831 0.333202 0.734418
389 1 0.165844 0.158704 0.823239
323 1 0.423976 0.16089 0.749892
325 1 0.494052 0.158861 0.655253
397 1 0.495266 0.163699 0.839954
324 1 0.347455 0.227268 0.751543
328 1 0.480589 0.246245 0.743573
394 1 0.409267 0.249459 0.831354
327 1 0.558776 0.173378 0.729617
326 1 0.58101 0.257894 0.644437
351 1 0.562054 0.331734 0.733036
332 1 0.654185 0.259715 0.751929
331 1 0.759096 0.173975 0.743243
336 1 0.831824 0.24871 0.735403
401 1 0.667733 0.149788 0.813615
333 1 0.834917 0.158767 0.66739
313 1 -0.00140992 0.163152 0.662532
316 1 0.986765 0.250971 0.750074
335 1 0.921526 0.164713 0.758627
359 1 0.908742 0.338142 0.747197
338 1 0.0794608 0.419007 0.677078
410 1 0.0833717 0.412405 0.831657
340 1 0.991637 0.417352 0.756392
420 1 0.320349 0.414485 0.921723
342 1 0.274081 0.429296 0.671811
344 1 0.186029 0.40275 0.746857
421 1 0.498244 0.333112 0.820382
347 1 0.415701 0.324801 0.73948
348 1 0.341145 0.41474 0.746123
418 1 0.417915 0.414837 0.825271
399 1 0.581738 0.167455 0.924731
414 1 0.24858 0.405584 0.842081
353 1 0.659434 0.335663 0.666851
352 1 0.491839 0.423904 0.735466
422 1 0.585796 0.40332 0.839482
398 1 0.568522 0.237721 0.824215
354 1 0.757007 0.433825 0.665601
357 1 0.821766 0.336388 0.675187
356 1 0.659004 0.416016 0.750668
426 1 0.753911 0.39681 0.85397
355 1 0.734722 0.326547 0.754257
358 1 0.923554 0.408458 0.671305
400 1 0.500904 0.248974 0.907479
360 1 0.812967 0.40643 0.758564
424 1 0.497719 0.413106 0.921233
387 1 0.0827039 0.175149 0.917984
368 1 0.157339 0.0936101 0.922541
412 1 1.00503 0.412107 0.92775
395 1 0.409389 0.167942 0.909598
671 1 0.935025 0.488883 0.571528
366 1 0.23228 0.0792704 0.840454
372 1 0.321158 0.0767214 0.916919
393 1 0.332784 0.154084 0.846416
391 1 0.237607 0.175767 0.912386
30 1 0.247303 0.241914 0.999864
377 1 0.68512 0.035565 0.839933
396 1 0.319671 0.244486 0.909523
370 1 0.412773 0.0697897 0.843015
376 1 0.497918 0.0796787 0.926618
428 1 0.664836 0.409065 0.911054
406 1 0.910474 0.264501 0.828567
374 1 0.583097 0.0888478 0.844888
54 1 0.250044 0.418728 1.00742
388 1 0.992646 0.240202 0.930776
431 1 0.898358 0.335968 0.927906
378 1 0.766557 0.0897027 0.806035
380 1 0.666746 0.0943658 0.925917
384 1 0.838838 0.0831334 0.921633
417 1 0.321749 0.334238 0.82659
423 1 0.573576 0.333793 0.914158
382 1 0.921282 0.0826336 0.837493
364 1 0.990228 0.0933103 0.92004
407 1 0.91197 0.162877 0.929506
415 1 0.256627 0.327896 0.929569
411 1 0.0921737 0.331149 0.918001
409 1 0.0031004 0.329386 0.855917
392 1 0.167715 0.251667 0.913335
402 1 0.746584 0.25041 0.833652
404 1 0.663807 0.243103 0.911545
809 1 0.674258 0.508265 0.829892
793 1 -0.0104428 0.49952 0.852562
795 1 0.0897725 0.48865 0.905373
66 1 0.753193 0.39969 0.993504
289 1 -0.00819002 0.00260538 0.660251
803 1 0.420593 0.502462 0.908773
367 1 0.229217 0.00677326 0.923498
250 1 0.422357 0.246325 0.490556
50 1 0.0850707 0.412103 0.99199
309 1 0.842517 -0.00060211 0.672209
38 1 0.575739 0.251626 0.991983
261 1 0.836506 0.166484 0.495548
453 1 0.814667 0.499062 0.985168
22 1 0.918317 0.0851661 1.00891
286 1 0.937766 0.405654 0.499285
285 1 0.840823 0.335478 0.518125
265 1 0.00167098 0.321182 0.503386
58 1 0.404751 0.416441 0.971659
270 1 0.237715 0.410316 0.512794
218 1 0.0894462 0.104033 0.492485
61 1 0.502362 0.343691 0.997079
246 1 0.252111 0.263712 0.507727
669 1 0.840707 0.493655 0.516962
34 1 0.431273 0.252505 0.998
653 1 0.168461 0.513524 0.499668
254 1 0.600596 0.26144 0.504709
37 1 0.494364 0.159083 0.991019
277 1 0.508184 0.328338 0.496207
459 1 0.0791908 0.667559 0.0767941
647 1 0.914067 0.840213 0.426953
533 1 0.164067 0.670022 0.164078
589 1 0.507095 0.508271 0.335227
440 1 0.17484 0.58214 0.0711673
510 1 0.249997 0.577437 0.164005
537 1 0.324969 0.6711 0.174826
628 1 0.993513 0.922182 0.41403
444 1 0.330822 0.59223 0.0866232
490 1 0.413744 0.912171 -0.00129197
93 1 0.832158 0.99841 0.169565
448 1 0.503459 0.573437 0.0988849
471 1 0.592941 0.655285 0.0886538
151 1 0.257852 0.996679 0.405006
455 1 0.913816 0.502361 0.0707895
452 1 0.666252 0.576345 0.0688594
642 1 0.753863 0.909897 0.324085
436 1 0.98985 0.596697 0.0934562
456 1 0.83321 0.586358 0.075656
526 1 0.903393 0.57934 0.155254
511 1 0.252607 0.509794 0.25123
447 1 0.591832 0.496622 0.0735594
460 1 0.998471 0.76098 0.0781163
530 1 0.0883675 0.751011 0.167999
650 1 0.0833152 0.578226 0.510974
678 1 0.259743 0.734692 0.501384
463 1 0.256794 0.669798 0.0948413
464 1 0.171025 0.738745 0.079145
467 1 0.415177 0.670739 0.0849352
468 1 0.327578 0.753618 0.0817227
538 1 0.408757 0.74208 0.168532
149 1 0.162725 0.99559 0.33123
75 1 0.0817251 1.00621 0.250398
159 1 0.571752 0.995009 0.410411
472 1 0.50095 0.734225 0.0825419
495 1 0.59351 0.812212 0.09203
541 1 0.498407 0.684529 0.177597
475 1 0.73793 0.658921 0.0809193
476 1 0.666968 0.728967 0.0772043
480 1 0.826942 0.753237 0.0781935
493 1 0.494547 0.845977 0.0153882
569 1 0.672629 0.82491 0.168235
549 1 0.833631 0.653294 0.15549
529 1 1.00666 0.673676 0.165214
479 1 0.911162 0.670803 0.0718497
503 1 0.910578 0.832069 0.0757812
83 1 0.410305 1.00927 0.240204
483 1 0.0887055 0.834031 0.0753816
488 1 0.15974 0.920533 0.0776967
553 1 -0.00630207 0.823959 0.164518
665 1 0.67925 0.504446 0.500262
487 1 0.246165 0.834241 0.0717281
557 1 0.168427 0.843365 0.156442
558 1 0.26151 0.91547 0.164002
585 1 0.337705 0.5125 0.332357
641 1 0.664803 0.833577 0.307995
698 1 0.0848554 0.91602 0.486937
491 1 0.410053 0.82013 0.0948394
89 1 0.667409 0.992281 0.167078
492 1 0.337422 0.916974 0.0768336
562 1 0.40875 0.914676 0.160421
496 1 0.49386 0.92586 0.0919113
500 1 0.655019 0.911451 0.0851686
509 1 0.174065 0.494705 0.16503
499 1 0.752265 0.839129 0.0782205
648 1 0.827412 0.927272 0.42025
643 1 0.733127 0.843954 0.402446
484 1 1.00976 0.914465 0.0832168
504 1 0.826679 0.916361 0.0733671
640 1 0.491198 0.915263 0.40712
506 1 0.0862384 0.598539 0.162497
605 1 0.163055 0.663947 0.33413
512 1 0.163886 0.590336 0.241126
535 1 0.245998 0.65088 0.24458
582 1 0.260434 0.582566 0.347784
514 1 0.430937 0.602805 0.159844
79 1 0.251597 0.996975 0.232946
516 1 0.329927 0.587542 0.252944
520 1 0.507721 0.595486 0.255709
591 1 0.589169 0.514009 0.422309
518 1 0.586516 0.587982 0.166246
525 1 0.834864 0.503032 0.161184
543 1 0.60562 0.661666 0.255352
524 1 0.67255 0.577275 0.253827
522 1 0.744906 0.589442 0.159913
19 1 0.744897 1.00471 0.0908653
545 1 0.672693 0.665848 0.176749
547 1 0.751704 0.658523 0.251769
528 1 0.827644 0.579758 0.255593
644 1 0.658606 0.937238 0.418676
508 1 0.991978 0.57243 0.25574
598 1 0.921207 0.568532 0.352806
513 1 0.339306 0.516331 0.158225
531 1 0.0807269 0.662285 0.260113
555 1 0.0660336 0.828143 0.251814
602 1 0.0869517 0.752807 0.325897
534 1 0.240443 0.765758 0.164783
536 1 0.175737 0.746658 0.252185
559 1 0.241253 0.841256 0.251152
539 1 0.418397 0.674813 0.266443
540 1 0.31133 0.746436 0.247359
563 1 0.419173 0.831601 0.248218
561 1 0.326232 0.831837 0.170708
542 1 0.585848 0.743971 0.176439
544 1 0.506136 0.736914 0.276804
548 1 0.674222 0.741312 0.255531
546 1 0.747256 0.735982 0.153732
552 1 0.830301 0.738589 0.240599
550 1 0.900063 0.75081 0.153747
532 1 -0.0149617 0.747483 0.253685
551 1 0.921629 0.661212 0.230864
621 1 0.850572 0.659146 0.318201
625 1 0.986495 0.82676 0.327289
554 1 0.0798374 0.914219 0.16871
626 1 0.0612877 0.917404 0.332782
163 1 0.74816 0.999842 0.396793
560 1 0.154966 0.913731 0.237011
633 1 0.339194 0.821998 0.333276
635 1 0.41466 0.8307 0.416353
564 1 0.334979 0.906026 0.250412
634 1 0.422757 0.913183 0.32837
565 1 0.485904 0.839494 0.163935
566 1 0.57174 0.908045 0.162416
568 1 0.4858 0.926733 0.240598
567 1 0.561216 0.838111 0.254066
638 1 0.581958 0.913546 0.330822
645 1 0.840608 0.818265 0.334517
570 1 0.740813 0.904177 0.159853
571 1 0.751751 0.822475 0.24658
572 1 0.649528 0.909054 0.239037
521 1 0.670486 0.506459 0.160765
646 1 0.915936 0.928823 0.323207
573 1 0.827723 0.834389 0.168776
575 1 0.916324 0.827967 0.244491
556 1 0.994804 0.912555 0.252186
574 1 0.908732 0.90645 0.15853
576 1 0.8317 0.921196 0.24727
601 1 0.994182 0.647884 0.333457
578 1 0.0810996 0.567854 0.324224
584 1 0.177157 0.573259 0.415387
153 1 0.333083 0.989127 0.329012
167 1 0.91075 0.99592 0.413161
713 1 0.665742 0.828958 0.508286
609 1 0.332279 0.673123 0.337942
588 1 0.340928 0.574056 0.417652
607 1 0.246817 0.664732 0.417915
632 1 0.148324 0.916143 0.40473
91 1 0.746156 0.984153 0.243209
586 1 0.418448 0.589175 0.348134
592 1 0.502606 0.589517 0.426105
439 1 0.248453 0.500034 0.0839677
590 1 0.583373 0.589636 0.339251
630 1 0.241538 0.909841 0.339715
636 1 0.337744 0.909943 0.406624
594 1 0.762287 0.589483 0.334047
596 1 0.682917 0.588487 0.432416
580 1 0.0121748 0.577007 0.420991
481 1 0.0104985 0.832956 -0.000372473
600 1 0.834122 0.592324 0.431949
627 1 0.0752468 0.828286 0.403233
603 1 0.0770283 0.658996 0.405117
631 1 0.255344 0.812688 0.416528
608 1 0.159871 0.737379 0.423514
606 1 0.24176 0.755048 0.330404
612 1 0.329127 0.733089 0.424492
629 1 0.162153 0.832696 0.337963
73 1 0.994325 0.994824 0.173159
613 1 0.500969 0.656619 0.347209
637 1 0.495827 0.831401 0.335307
611 1 0.41229 0.666875 0.430845
610 1 0.423358 0.750817 0.337842
615 1 0.601595 0.662148 0.418881
616 1 0.501715 0.753138 0.415817
614 1 0.593731 0.732108 0.352304
639 1 0.591672 0.832942 0.410807
443 1 0.423465 0.516307 0.0808449
618 1 0.742502 0.749068 0.342811
617 1 0.669589 0.663614 0.337094
619 1 0.754692 0.671079 0.438626
620 1 0.663667 0.758255 0.426831
624 1 0.847475 0.750902 0.427343
622 1 0.923369 0.740767 0.331706
604 1 0.00845912 0.742936 0.417682
623 1 0.920461 0.660244 0.427066
666 1 0.759296 0.582612 0.507384
77 1 0.162067 0.994386 0.163407
3 1 0.0924237 1.00191 0.0928425
470 1 0.572724 0.762392 -0.0096863
466 1 0.424464 0.753558 0.00812786
515 1 0.410745 0.513659 0.256419
473 1 0.656847 0.66048 -0.00186909
519 1 0.580212 0.509135 0.250119
593 1 0.684267 0.504486 0.339012
7 1 0.239333 1.00009 0.0777922
451 1 0.750482 0.492414 0.0821106
581 1 0.159152 0.49752 0.329728
507 1 0.0748175 0.492269 0.240194
17 1 0.660066 1.01637 0.0163537
674 1 0.0824864 0.743145 0.492018
702 1 0.245451 0.906507 0.496633
706 1 0.414302 0.92388 0.508002
685 1 0.522258 0.675992 0.503026
673 1 0.0107591 0.663349 0.500453
9 1 0.319506 1.00899 0.00725835
690 1 0.752988 0.764568 0.484223
437 1 0.1644 0.511909 -0.0207954
501 1 0.849674 0.834781 -0.0027263
486 1 0.229516 0.915546 -0.0166904
457 1 1.00951 0.670906 -0.00212459
237 1 0.824781 1.00384 0.491237
701 1 0.165038 0.829366 0.487694
469 1 0.494674 0.674995 -0.00306404
494 1 0.584473 0.912193 -0.0127938
710 1 0.57863 0.908779 0.484007
656 1 0.178969 0.566787 0.591963
652 1 0.00841828 0.591572 0.581901
675 1 0.0793733 0.680025 0.586052
749 1 0.163685 0.666288 0.663745
679 1 0.24609 0.662839 0.590674
726 1 0.259977 0.579167 0.679017
660 1 0.33897 0.585716 0.595259
465 1 0.323902 0.66964 1.00435
730 1 0.420365 0.583334 0.692616
454 1 0.920159 0.590982 0.998965
223 1 0.258777 0.992353 0.577102
664 1 0.510624 0.603813 0.576075
734 1 0.597513 0.593108 0.662125
729 1 0.355755 0.501034 0.672703
434 1 0.0741492 0.588913 1.00621
235 1 0.762771 0.995072 0.594471
668 1 0.681189 0.588722 0.586988
672 1 0.832902 0.587041 0.581243
765 1 0.830318 0.67744 0.660458
686 1 0.584776 0.765602 0.494976
369 1 0.308359 0.999509 0.834653
742 1 0.917297 0.580928 0.666566
735 1 0.592413 0.491015 0.757464
371 1 0.404588 1.00186 0.923109
676 1 -0.0121293 0.747792 0.585639
680 1 0.174217 0.756579 0.580415
299 1 0.413954 0.992355 0.754822
750 1 0.2433 0.746505 0.664588
684 1 0.332439 0.771626 0.59681
733 1 0.503021 0.519949 0.670239
683 1 0.424513 0.67242 0.579549
754 1 0.42195 0.760614 0.669146
688 1 0.50192 0.760861 0.600892
811 1 0.751967 0.487672 0.899884
687 1 0.596972 0.692097 0.586663
692 1 0.667816 0.773948 0.595714
758 1 0.590807 0.747441 0.670931
761 1 0.671158 0.679368 0.665029
691 1 0.754646 0.67248 0.581589
667 1 0.75767 0.497065 0.582824
696 1 0.829003 0.752468 0.582698
695 1 0.917962 0.653374 0.589002
699 1 0.0969075 0.833186 0.569659
773 1 0.158312 0.849045 0.664779
704 1 0.161604 0.922591 0.57507
862 1 0.924171 0.913227 0.832733
721 1 -0.00488918 0.493123 0.67605
717 1 0.819919 0.840313 0.509865
725 1 0.170855 0.490204 0.68088
703 1 0.254052 0.837915 0.594366
774 1 0.238988 0.926589 0.658401
708 1 0.332294 0.905893 0.595027
777 1 0.331303 0.842973 0.685492
442 1 0.415405 0.600846 0.993966
707 1 0.424638 0.842229 0.592447
781 1 0.509176 0.832245 0.690179
498 1 0.737846 0.925274 1.00163
711 1 0.576951 0.840271 0.601017
712 1 0.491157 0.920669 0.585816
217 1 -0.000755647 1.01017 0.489015
716 1 0.675287 0.909182 0.573331
715 1 0.750779 0.837823 0.599162
720 1 0.83689 0.926869 0.56927
813 1 0.840466 0.499366 0.828821
303 1 0.588644 1.0101 0.769654
719 1 0.917822 0.829691 0.563388
700 1 1.00051 0.909658 0.574679
853 1 0.497156 0.850558 0.826468
305 1 0.685863 0.985637 0.662908
722 1 0.0777844 0.565441 0.679573
745 1 1.0109 0.661633 0.675704
794 1 0.0761116 0.584671 0.834615
724 1 -0.0162985 0.581215 0.745547
747 1 0.0918266 0.66951 0.74153
817 1 0.992181 0.672757 0.828256
728 1 0.161858 0.575647 0.756002
753 1 0.343327 0.67416 0.651964
751 1 0.251486 0.668859 0.738646
732 1 0.334979 0.581319 0.758058
802 1 0.413234 0.580197 0.835146
755 1 0.416719 0.673271 0.749066
847 1 0.241514 0.833436 0.920643
301 1 0.500929 0.997628 0.653727
736 1 0.494942 0.601916 0.75877
740 1 0.658778 0.58372 0.755192
738 1 0.75346 0.585809 0.659161
744 1 0.829608 0.58739 0.749577
833 1 0.652114 0.669635 0.841484
763 1 0.757858 0.677159 0.747216
810 1 0.747569 0.588308 0.829508
859 1 0.741512 0.834487 0.931391
767 1 0.911245 0.666551 0.748888
837 1 0.836619 0.663947 0.845483
746 1 0.092449 0.759136 0.662193
818 1 0.0778413 0.739517 0.830594
752 1 0.165867 0.741403 0.749228
756 1 0.332184 0.743597 0.732459
775 1 0.246364 0.835761 0.746094
825 1 0.335484 0.664719 0.832697
826 1 0.422372 0.758112 0.826759
757 1 0.498653 0.662636 0.664723
760 1 0.508493 0.753471 0.761384
779 1 0.40025 0.834218 0.7597
829 1 0.498728 0.677633 0.837177
759 1 0.585984 0.668455 0.755327
764 1 0.660723 0.752456 0.757133
762 1 0.748594 0.752631 0.667456
834 1 0.741918 0.742271 0.835511
787 1 0.761705 0.847887 0.750164
766 1 0.917892 0.752043 0.671163
748 1 1.01018 0.746069 0.741584
768 1 0.833677 0.741384 0.748078
770 1 0.074576 0.919809 0.657277
771 1 0.0884477 0.822819 0.741653
776 1 0.166345 0.910543 0.75863
842 1 0.0726626 0.899063 0.824788
845 1 0.163303 0.830827 0.835394
780 1 0.323367 0.92823 0.747869
846 1 0.234877 0.917785 0.841807
778 1 0.412363 0.917802 0.677843
850 1 0.390466 0.928627 0.848094
784 1 0.50311 0.928915 0.755194
782 1 0.58309 0.928236 0.67719
785 1 0.655384 0.84946 0.673169
783 1 0.585849 0.839607 0.756788
788 1 0.681607 0.92669 0.761581
789 1 0.836635 0.823115 0.666995
786 1 0.775164 0.92351 0.674443
858 1 0.753312 0.913107 0.843314
791 1 0.913947 0.814674 0.753693
769 1 0.0127369 0.829533 0.647354
790 1 0.918984 0.923093 0.6596
772 1 1.00156 0.891188 0.738307
792 1 0.855429 0.900554 0.760999
841 1 -0.0179432 0.822695 0.828027
800 1 0.168604 0.585828 0.906841
796 1 -0.00323652 0.586899 0.912289
819 1 0.0893989 0.665661 0.911747
852 1 0.317786 0.923746 0.930948
231 1 0.591148 0.990502 0.563751
857 1 0.682301 0.830619 0.838937
798 1 0.258833 0.58142 0.837082
823 1 0.248772 0.675328 0.909077
381 1 0.838558 0.987649 0.846041
804 1 0.343496 0.579984 0.922068
808 1 0.490994 0.589692 0.910598
689 1 0.666194 0.685792 0.513367
693 1 0.837776 0.665686 0.50859
843 1 0.0789765 0.817868 0.915009
864 1 0.822265 0.912575 0.928389
806 1 0.580865 0.589214 0.833338
831 1 0.576621 0.675553 0.919755
812 1 0.663521 0.564949 0.915343
848 1 0.137883 0.924953 0.909566
844 1 0.0084531 0.916994 0.916371
697 1 0.0114861 0.834361 0.497044
860 1 0.68259 0.936291 0.912522
835 1 0.731427 0.654148 0.918823
816 1 0.81249 0.585752 0.919444
814 1 0.912655 0.580469 0.824186
373 1 0.497827 0.994717 0.843979
839 1 0.916303 0.672444 0.915878
820 1 0.996308 0.744013 0.912045
824 1 0.166496 0.736396 0.918529
659 1 0.423734 0.505766 0.58557
822 1 0.235579 0.754251 0.828321
849 1 0.326733 0.841781 0.83649
821 1 0.165333 0.657713 0.82257
828 1 0.340165 0.747868 0.918069
827 1 0.417218 0.683268 0.916355
851 1 0.411144 0.837667 0.916718
832 1 0.49433 0.76809 0.912126
830 1 0.590565 0.762095 0.845668
502 1 0.930453 0.90949 1.0085
855 1 0.597424 0.839578 0.918551
840 1 0.823555 0.759741 0.923242
836 1 0.670842 0.752971 0.926429
854 1 0.593154 0.924088 0.844988
856 1 0.498187 0.911195 0.930725
838 1 0.901862 0.74639 0.848853
863 1 0.905934 0.84377 0.91019
861 1 0.826902 0.836882 0.840226
670 1 0.921341 0.574953 0.508944
663 1 0.589905 0.50608 0.601982
438 1 0.246211 0.590006 0.99661
291 1 0.0901869 0.993052 0.744906
655 1 0.250884 0.495811 0.592578
737 1 0.665672 0.49784 0.676969
718 1 0.91921 0.921879 0.499747
694 1 0.921911 0.750843 0.499214
311 1 0.924597 0.997596 0.741996
497 1 0.663067 0.828437 1.01427
365 1 0.15554 0.998863 0.837484
297 1 0.33073 1.00894 0.67
474 1 0.743914 0.751953 1.00199
709 1 0.504635 0.833854 0.483451
739 1 0.755535 0.507439 0.749248
815 1 0.908896 0.496538 0.919691
799 1 0.250868 0.48797 0.91015
219 1 0.0730244 0.984673 0.571127
383 1 0.916178 1.00079 0.925949
657 1 0.329448 0.495675 0.498141
13 1 0.497583 1.00281 0.997841
489 1 0.334575 0.838213 1.00797
654 1 0.257449 0.581745 0.499199
477 1 0.830923 0.666532 0.986401
458 1 0.0837775 0.743945 0.996236
677 1 0.162231 0.649168 0.50024
461 1 0.170373 0.662655 0.992148
681 1 0.332334 0.660992 0.517627
658 1 0.422116 0.584886 0.513475
714 1 0.751063 0.924388 0.500039
478 1 0.91472 0.755267 0.985547
485 1 0.163317 0.822317 1.00374
662 1 0.597958 0.586804 0.511753
446 1 0.571047 0.579407 1.00641
5 1 0.163462 1.00243 1.00576
450 1 0.750846 0.582384 1.01005
433 1 1.00068 0.49628 0.992354
225 1 0.333367 0.994796 0.502563
682 1 0.419689 0.753648 0.503562
705 1 0.357759 0.837837 0.503889
462 1 0.244625 0.756232 0.997017
482 1 0.0826785 0.910178 0.995207
661 1 0.511871 0.508764 0.507208
