ITEM: TIMESTEP
29500
ITEM: NUMBER OF ATOMS
500
ITEM: BOX BOUNDS pp pp pp
0.0000000000000000e+00 2.6299999999999997e+01
0.0000000000000000e+00 2.6299999999999997e+01
0.0000000000000000e+00 2.6299999999999997e+01
ITEM: ATOMS id type xs ys zs
23 1 0.0886876 0.196634 0.100656
52 1 0.0964027 0.0934061 0.200197
71 1 0.00501841 0.211659 0.209293
75 1 0.175815 0.193625 0.196596
4 1 0.0122366 0.0928914 0.113405
254 1 0.213408 0.49386 0.115466
310 1 0.796499 0.496485 0.298325
8 1 0.18984 0.0854683 0.110452
27 1 0.311049 0.188321 0.102762
56 1 0.29083 0.085859 0.204995
12 1 0.413145 0.0983214 0.10119
79 1 0.411854 0.222349 0.181052
307 1 0.712296 0.486002 0.198537
19 1 0.917418 0.00768403 0.11093
31 1 0.503441 0.183195 0.105783
60 1 0.500421 0.09383 0.214192
2 1 0.0857767 0.0977168 0.0136453
16 1 0.591913 0.0991797 0.103892
133 1 0.60307 0.0974655 0.496793
83 1 0.60246 0.2074 0.197074
35 1 0.69508 0.195806 0.108615
64 1 0.683177 0.0964199 0.197393
17 1 0.819192 0.0123625 0.020227
138 1 0.30941 0.20597 0.492071
20 1 0.792893 0.106828 0.119185
87 1 0.799339 0.201622 0.202526
39 1 0.914761 0.183492 0.103177
68 1 0.906373 0.0958563 0.203216
126 1 0.105641 0.0108398 0.491065
129 1 0.204012 0.095307 0.482103
42 1 0.0923066 0.403986 0.104356
72 1 0.105803 0.302043 0.189989
93 1 0.202757 0.382072 0.185876
28 1 0.198665 0.287746 0.0899356
100 1 0.888281 0.401035 0.289295
303 1 0.297188 0.487705 0.205509
18 1 0.910581 0.0951861 0.00577692
44 1 0.303129 0.396794 0.0855798
76 1 0.29386 0.295607 0.1861
32 1 0.418035 0.30195 0.0710056
95 1 0.403246 0.381316 0.184776
46 1 0.507009 0.401571 0.092345
80 1 0.512862 0.298018 0.172851
36 1 0.61217 0.299125 0.0774001
97 1 0.588048 0.402949 0.191003
150 1 0.903492 0.382586 0.492086
21 1 0.00295395 0.188634 0.00482085
352 1 0.306089 0.494581 0.400743
69 1 0.89545 0.0145758 0.30641
48 1 0.693215 0.399373 0.10319
84 1 0.685836 0.294408 0.208758
99 1 0.79325 0.387739 0.185682
40 1 0.782892 0.29065 0.103483
354 1 0.698966 0.47941 0.395898
120 1 0.907915 0.296022 0.38187
121 1 0.993083 0.407902 0.408568
353 1 0.508791 0.496252 0.395686
53 1 0.0951401 0.0129037 0.308421
24 1 0.994464 0.294575 0.104546
91 1 0.990126 0.402008 0.19371
26 1 0.302254 0.293565 0.00303966
50 1 0.898515 0.392163 0.0943964
88 1 0.905681 0.300952 0.19429
139 1 0.203668 0.307588 0.495685
109 1 0.808952 0.0159421 0.406338
73 1 0.0986826 0.204857 0.303771
102 1 0.112246 0.106645 0.392496
111 1 0.00415342 0.211456 0.391097
54 1 0.00750542 0.0983872 0.294962
113 1 0.205367 0.211033 0.401949
86 1 0.584465 0.306237 0.293917
58 1 0.196577 0.0795361 0.299487
77 1 0.277334 0.184624 0.283735
104 1 0.30889 0.0883476 0.396946
115 1 0.401959 0.184262 0.367184
62 1 0.386538 0.0950012 0.282417
118 1 0.69238 0.310547 0.399385
22 1 0.0836107 0.300194 0.0137084
81 1 0.509541 0.209083 0.291082
106 1 0.496549 0.100381 0.405356
117 1 0.601856 0.203871 0.387639
66 1 0.598157 0.0841977 0.29709
78 1 0.208755 0.295691 0.292011
123 1 0.410014 0.383571 0.393478
85 1 0.684712 0.194653 0.292532
108 1 0.694685 0.0959396 0.402808
70 1 0.776613 0.109316 0.307782
119 1 0.803072 0.200443 0.403851
114 1 0.324204 0.288477 0.395401
110 1 0.905962 0.10809 0.411106
89 1 0.904678 0.188563 0.291935
125 1 0.797964 0.390776 0.399142
124 1 0.595684 0.401788 0.392205
122 1 0.215045 0.387037 0.377092
82 1 0.414427 0.30416 0.285732
92 1 0.099653 0.407114 0.273566
112 1 0.109771 0.303027 0.39335
74 1 0.0120556 0.306009 0.298121
90 1 0.783407 0.286698 0.306304
94 1 0.310738 0.402118 0.295627
98 1 0.699868 0.40125 0.287889
96 1 0.499217 0.40848 0.287719
116 1 0.499592 0.290551 0.390349
256 1 0.403493 0.497478 0.0966752
253 1 0.309967 0.495096 0.00730864
306 1 0.401652 0.495289 0.293733
25 1 0.204372 0.18143 0.0260944
355 1 0.894708 0.495084 0.401265
43 1 0.191171 0.389846 0.0024797
6 1 0.308575 0.0893529 0.0205842
67 1 0.80238 0.014479 0.213346
140 1 0.513175 0.186877 0.496653
260 1 0.805211 0.490519 0.102973
131 1 0.4045 0.123536 0.492017
309 1 0.879189 0.495936 0.205627
141 1 0.420359 0.296107 0.498503
259 1 0.900828 0.495985 0.00612694
14 1 0.725635 0.101433 0.00246937
146 1 0.0985002 0.410447 0.489157
144 1 0.898687 0.224826 0.491233
37 1 0.836688 0.206168 0.00467123
29 1 0.404839 0.199309 0.0115905
142 1 0.697455 0.218996 0.491581
136 1 0.10494 0.200679 0.486136
33 1 0.613508 0.187787 0.00239779
41 1 0.00273731 0.40795 0.0132277
38 1 0.915926 0.316083 0.000767786
13 1 0.596751 0.00599444 0.0125202
45 1 0.419187 0.40761 0.00821124
152 1 0.0989114 0.11801 0.603439
173 1 0.109866 0.20879 0.720903
154 1 0.0212977 0.103503 0.69601
171 1 0.00321765 0.20826 0.606389
127 1 0.010839 0.0990277 0.511492
175 1 0.217518 0.202714 0.570247
158 1 0.206348 0.124944 0.693991
156 1 0.307684 0.10253 0.6096
177 1 0.312498 0.19787 0.688892
179 1 0.420516 0.20548 0.587462
157 1 0.277199 0.00509165 0.695388
238 1 0.900857 0.305801 0.798541
205 1 0.194209 0.0160279 0.806533
162 1 0.408355 0.100357 0.70019
160 1 0.509649 0.100438 0.621423
181 1 0.49454 0.19672 0.708723
166 1 0.611086 0.0972587 0.697171
183 1 0.600573 0.197327 0.60777
209 1 0.383945 0.0118982 0.786989
460 1 0.815391 0.488401 0.890258
213 1 0.603026 0.00109263 0.79393
159 1 0.412238 0.0137231 0.594835
151 1 0.0145662 0.00360685 0.600936
164 1 0.707004 0.122941 0.589751
185 1 0.697368 0.207343 0.706804
148 1 0.490657 0.408986 0.521637
170 1 0.810877 0.095323 0.710328
187 1 0.82309 0.210477 0.604777
168 1 0.898274 0.109868 0.606471
189 1 0.92287 0.204856 0.703619
459 1 0.907352 0.488826 0.796933
47 1 0.598013 0.407581 0.98644
172 1 0.10842 0.289173 0.607975
192 1 0.122007 0.407574 0.69063
174 1 0.00441014 0.31032 0.681293
454 1 0.206654 0.497633 0.92157
250 1 0.918019 0.39858 0.901211
241 1 0.998574 0.385495 0.782007
410 1 0.799322 0.48599 0.7079
178 1 0.22689 0.291647 0.683973
193 1 0.201899 0.400099 0.587568
176 1 0.323923 0.307395 0.593145
194 1 0.280179 0.404734 0.698629
240 1 0.814906 0.294342 0.907567
195 1 0.408996 0.387077 0.627896
182 1 0.408796 0.288893 0.703304
180 1 0.51591 0.297305 0.620637
196 1 0.528301 0.40963 0.711181
186 1 0.609167 0.297275 0.697912
224 1 0.00407584 0.300784 0.898251
149 1 0.698926 0.40466 0.510167
380 1 0.808628 0.498835 0.503571
197 1 0.598308 0.410549 0.611378
184 1 0.705053 0.301818 0.59253
198 1 0.688555 0.405913 0.709399
190 1 0.800762 0.319371 0.692139
199 1 0.812053 0.406916 0.60308
191 1 0.00693366 0.401544 0.609414
188 1 0.902451 0.309712 0.600664
200 1 0.898713 0.403334 0.707568
134 1 0.910208 0.00733421 0.510889
226 1 0.309967 0.311249 0.801849
207 1 0.300964 0.0135432 0.883994
202 1 0.102458 0.107629 0.812571
223 1 0.0906994 0.193571 0.906163
452 1 0.994246 0.492611 0.909639
153 1 0.12185 0.024745 0.709107
234 1 0.725326 0.297313 0.793669
248 1 0.711958 0.393468 0.897431
232 1 0.41265 0.305669 0.91093
225 1 0.206516 0.22988 0.809331
208 1 0.200271 0.123417 0.91005
206 1 0.292058 0.114286 0.804484
227 1 0.311686 0.20126 0.901151
249 1 0.800522 0.397304 0.795106
10 1 0.492527 0.0696693 0.994317
135 1 0.804366 0.111934 0.501886
155 1 0.18234 0.0153895 0.602555
230 1 0.522769 0.293556 0.81268
229 1 0.396609 0.212523 0.80146
212 1 0.406266 0.106589 0.892959
210 1 0.500656 0.100756 0.809624
231 1 0.504542 0.183276 0.894986
233 1 0.610047 0.19689 0.804158
246 1 0.501201 0.402104 0.899322
245 1 0.415983 0.418748 0.784898
244 1 0.285454 0.388293 0.922967
456 1 0.400765 0.497878 0.90946
216 1 0.608341 0.0957327 0.913629
214 1 0.703825 0.0785692 0.806089
235 1 0.722378 0.198047 0.889098
237 1 0.800237 0.191563 0.792631
239 1 0.913828 0.201968 0.896908
220 1 0.810914 0.0948615 0.89642
221 1 0.00470305 0.214175 0.807005
204 1 0.993268 0.090742 0.907411
218 1 0.926075 0.111096 0.796906
236 1 0.609516 0.293977 0.910939
163 1 0.608821 0.00811834 0.596278
247 1 0.610121 0.395709 0.818934
242 1 0.112236 0.424356 0.905032
222 1 0.0972514 0.314966 0.781811
228 1 0.176899 0.279416 0.919635
243 1 0.195396 0.380655 0.807517
451 1 0.0960945 0.481434 0.786969
34 1 0.709217 0.288767 0.990855
407 1 0.700172 0.494749 0.603278
457 1 0.685827 0.489216 0.806488
219 1 0.893992 0.0038174 0.910742
402 1 0.000858686 0.494333 0.694605
203 1 0.102254 0.0119901 0.901197
128 1 0.297745 0.00497137 0.518913
5 1 0.197238 0.0252815 0.998527
30 1 0.517915 0.321198 0.992869
49 1 0.790273 0.394298 0.995571
130 1 0.516995 0.0115295 0.502486
143 1 0.583637 0.313281 0.511449
147 1 0.318596 0.39882 0.503952
132 1 0.719158 0.00562213 0.515679
145 1 0.7863 0.303788 0.505045
137 1 0.0111754 0.293902 0.504918
263 1 0.0938655 0.598776 0.110411
312 1 0.0985938 0.694588 0.195026
315 1 0.20447 0.596261 0.198305
264 1 0.994588 0.704948 0.101192
51 1 0.00307932 0.992359 0.221672
268 1 0.189896 0.703512 0.103962
267 1 0.304923 0.583717 0.109214
316 1 0.280174 0.707328 0.195967
319 1 0.393867 0.594312 0.194444
386 1 0.402338 0.688463 0.488121
7 1 0.307167 0.994892 0.125048
55 1 0.184876 0.993882 0.20769
293 1 0.598342 0.790497 0.0175478
105 1 0.37929 0.97921 0.372681
272 1 0.372863 0.701201 0.0886457
271 1 0.487382 0.599315 0.0970657
320 1 0.507878 0.68907 0.197426
323 1 0.612231 0.600573 0.193567
308 1 0.610619 0.505673 0.293105
276 1 0.595282 0.682886 0.0946125
61 1 0.491131 0.991588 0.298222
275 1 0.704886 0.60581 0.0872561
324 1 0.693343 0.699422 0.203018
280 1 0.785 0.709017 0.102959
327 1 0.791062 0.600027 0.193171
281 1 0.987763 0.799796 0.0111797
384 1 0.181426 0.701675 0.491881
311 1 0.99478 0.602958 0.206907
279 1 0.892783 0.587893 0.113888
328 1 0.8799 0.694279 0.199877
298 1 0.888867 0.904341 0.00903357
283 1 0.107407 0.796634 0.102537
332 1 0.08892 0.905559 0.210869
335 1 0.177219 0.797695 0.213556
284 1 0.986234 0.890571 0.101421
331 1 0.982352 0.788305 0.203855
288 1 0.19322 0.907818 0.112221
287 1 0.272601 0.796984 0.0901119
336 1 0.290611 0.875094 0.207679
350 1 0.821923 0.9141 0.304104
292 1 0.384004 0.891648 0.118045
351 1 0.103433 0.504769 0.39078
339 1 0.392388 0.766679 0.19556
291 1 0.492552 0.803072 0.104407
340 1 0.472617 0.878579 0.223674
343 1 0.597924 0.799904 0.210573
349 1 0.882067 0.790145 0.293089
296 1 0.59511 0.899878 0.0956272
295 1 0.710794 0.812141 0.103597
344 1 0.702493 0.905245 0.197997
347 1 0.775723 0.809487 0.217268
300 1 0.80247 0.926259 0.111639
15 1 0.679717 0.992204 0.11038
11 1 0.494703 0.971074 0.0957458
299 1 0.884754 0.795189 0.108289
348 1 0.89704 0.910766 0.18923
375 1 0.90864 0.907103 0.404669
313 1 0.0983239 0.591437 0.298514
357 1 0.0858025 0.709062 0.375414
356 1 0.980879 0.586477 0.395513
358 1 0.190338 0.61964 0.388657
318 1 0.190351 0.691358 0.283629
314 1 0.982296 0.681416 0.303808
103 1 0.219908 0.994121 0.401078
379 1 0.597133 0.500274 0.499975
302 1 0.00324225 0.507624 0.287473
1 1 0.997394 0.985979 0.00275714
317 1 0.302441 0.606627 0.276305
359 1 0.303842 0.6791 0.38599
360 1 0.394183 0.585824 0.38994
322 1 0.398178 0.687328 0.293449
346 1 0.60911 0.899378 0.307739
388 1 0.578441 0.705699 0.493187
372 1 0.598144 0.818175 0.400516
345 1 0.689644 0.79564 0.312003
321 1 0.513244 0.592822 0.282683
361 1 0.492702 0.683603 0.387833
57 1 0.291711 0.983978 0.285784
392 1 0.997899 0.89694 0.499752
341 1 0.506238 0.785926 0.303107
374 1 0.798214 0.811924 0.401833
371 1 0.496693 0.897411 0.39349
362 1 0.629647 0.583286 0.393063
326 1 0.602873 0.685971 0.30635
325 1 0.704088 0.601384 0.303641
363 1 0.684525 0.70009 0.412839
330 1 0.781724 0.705045 0.317134
329 1 0.885195 0.60785 0.298498
364 1 0.804366 0.593214 0.392639
365 1 0.903817 0.697242 0.403258
373 1 0.716499 0.929641 0.415251
393 1 0.295062 0.777121 0.49741
65 1 0.699804 0.99611 0.291774
366 1 0.995892 0.795101 0.394575
333 1 0.0709769 0.793939 0.289354
334 1 0.979046 0.88584 0.300179
338 1 0.195221 0.889513 0.30649
367 1 0.0957045 0.892178 0.404883
370 1 0.389016 0.783113 0.407997
368 1 0.198491 0.788815 0.386652
337 1 0.301896 0.780353 0.306151
369 1 0.289622 0.884282 0.40395
342 1 0.376335 0.873321 0.305133
258 1 0.622749 0.511027 0.111041
305 1 0.497129 0.501543 0.19513
3 1 0.081351 0.985354 0.104741
107 1 0.580373 0.989387 0.38509
391 1 0.0937366 0.805305 0.497278
59 1 0.398524 0.986209 0.216363
390 1 0.799577 0.699949 0.488968
278 1 0.897938 0.696319 0.000974085
381 1 0.100312 0.590598 0.485059
9 1 0.395236 0.990517 0.0135457
289 1 0.397935 0.826899 0.00114271
294 1 0.712854 0.918095 0.00750281
265 1 0.198208 0.593207 0.0118168
395 1 0.480333 0.798824 0.488961
270 1 0.481036 0.710089 0.00315803
101 1 0.00258306 0.995694 0.398649
304 1 0.192689 0.509953 0.296164
252 1 0.991294 0.500526 0.110235
63 1 0.588589 0.974428 0.207929
301 1 0.09439 0.506109 0.193933
286 1 0.286666 0.919254 0.0132
251 1 0.0824103 0.506275 0.0176293
382 1 0.0117168 0.68349 0.479164
262 1 0.0930659 0.701023 0.0166302
377 1 0.201806 0.518659 0.475286
398 1 0.604431 0.916035 0.485649
399 1 0.912814 0.773557 0.498775
282 1 0.0844039 0.889085 0.00381741
261 1 0.98026 0.594867 0.00713896
385 1 0.491023 0.586313 0.494713
387 1 0.70486 0.5783 0.496836
394 1 0.188861 0.903396 0.489737
255 1 0.505656 0.511732 0.0163418
412 1 0.110685 0.69751 0.602668
413 1 0.0802006 0.59813 0.713116
411 1 0.000118403 0.598717 0.611079
415 1 0.188439 0.607163 0.598372
414 1 0.00851081 0.720783 0.705168
257 1 0.706864 0.500877 0.995322
418 1 0.182499 0.69958 0.721503
416 1 0.283383 0.701711 0.609994
417 1 0.30783 0.608171 0.709992
419 1 0.383772 0.615388 0.595447
422 1 0.397239 0.695695 0.695941
165 1 0.703535 0.990285 0.690515
420 1 0.493724 0.680755 0.591692
421 1 0.484473 0.614011 0.716935
423 1 0.613504 0.61217 0.593436
426 1 0.602735 0.701018 0.693352
499 1 0.891115 0.80872 0.907218
424 1 0.702438 0.696313 0.593227
425 1 0.705685 0.590303 0.708926
274 1 0.690905 0.711805 0.990935
427 1 0.806771 0.593314 0.594096
498 1 0.8999 0.895958 0.802913
430 1 0.799741 0.693146 0.677771
428 1 0.915213 0.702342 0.611501
429 1 0.889542 0.585959 0.69407
285 1 0.188162 0.808394 0.977071
432 1 0.117212 0.902513 0.598806
433 1 0.103211 0.810503 0.705507
453 1 0.276559 0.509683 0.814481
435 1 0.203875 0.795927 0.590575
401 1 0.110872 0.503985 0.597994
400 1 0.818344 0.914372 0.500218
169 1 0.903505 0.989266 0.693117
438 1 0.196779 0.909184 0.699443
436 1 0.282883 0.904813 0.594383
437 1 0.28793 0.813011 0.698712
439 1 0.378032 0.783485 0.604328
217 1 0.822342 0.997496 0.800976
455 1 0.515093 0.507152 0.794801
442 1 0.388903 0.903879 0.685619
440 1 0.494899 0.884112 0.603385
441 1 0.509075 0.78041 0.67789
446 1 0.596457 0.898925 0.694995
167 1 0.815241 0.995257 0.610553
409 1 0.892772 0.502624 0.605489
443 1 0.613354 0.808496 0.612343
290 1 0.502267 0.8955 0.989819
444 1 0.710571 0.892551 0.597864
445 1 0.722192 0.794025 0.695042
450 1 0.813957 0.893425 0.69269
447 1 0.803702 0.793497 0.588288
497 1 0.811997 0.805908 0.789949
431 1 0.00122201 0.791518 0.591571
378 1 0.387782 0.512904 0.505047
161 1 0.52338 0.993709 0.69112
434 1 0.00451906 0.888062 0.709731
448 1 0.911747 0.896043 0.59664
449 1 0.912927 0.801763 0.695859
406 1 0.393736 0.517148 0.704115
458 1 0.583251 0.505006 0.904103
403 1 0.286812 0.510661 0.597788
489 1 0.400398 0.818019 0.787026
486 1 0.287916 0.924112 0.801352
462 1 0.0814112 0.677725 0.823075
463 1 0.0979552 0.591153 0.915143
461 1 0.969061 0.598561 0.806657
408 1 0.59981 0.522599 0.704097
465 1 0.175836 0.591998 0.810774
468 1 0.196312 0.707904 0.882839
466 1 0.300149 0.719414 0.806805
467 1 0.28611 0.60904 0.902392
404 1 0.197256 0.517978 0.695804
472 1 0.40892 0.711984 0.894605
469 1 0.398713 0.590686 0.81139
470 1 0.50001 0.715111 0.80624
471 1 0.496131 0.601776 0.900353
494 1 0.701358 0.914957 0.795364
496 1 0.604692 0.89249 0.900842
493 1 0.619398 0.801841 0.778559
490 1 0.515117 0.90286 0.790627
476 1 0.58714 0.708077 0.905463
473 1 0.598408 0.630889 0.810406
474 1 0.722348 0.708967 0.790233
475 1 0.698692 0.610738 0.890482
480 1 0.800034 0.700204 0.911269
500 1 0.794811 0.900847 0.891732
215 1 0.701097 0.997103 0.912567
464 1 0.966368 0.691591 0.882036
477 1 0.793506 0.577051 0.794833
478 1 0.880397 0.688741 0.792619
479 1 0.89203 0.598042 0.912146
495 1 0.706258 0.808269 0.871878
211 1 0.52167 0.995939 0.899713
481 1 0.00939612 0.804187 0.801154
491 1 0.497884 0.820327 0.892801
487 1 0.302115 0.814915 0.902224
484 1 0.991073 0.911436 0.904431
488 1 0.18352 0.919768 0.903701
482 1 0.0968709 0.917347 0.817766
483 1 0.0829033 0.785784 0.91165
485 1 0.190584 0.814224 0.811475
492 1 0.396961 0.912163 0.896802
201 1 0.990139 0.99748 0.78357
266 1 0.298303 0.717534 0.981057
405 1 0.522352 0.517254 0.605653
297 1 0.785477 0.808267 0.981637
277 1 0.794217 0.593836 0.992308
397 1 0.701536 0.81057 0.502437
383 1 0.295575 0.623371 0.504286
273 1 0.61192 0.6088 0.992686
269 1 0.392554 0.592033 0.993491
396 1 0.390875 0.900627 0.512594
376 1 0.0024102 0.507726 0.520419
389 1 0.895774 0.617292 0.503121
