ITEM: TIMESTEP
7250
ITEM: NUMBER OF ATOMS
864
ITEM: BOX BOUNDS pp pp pp
0.0000000000000000e+00 3.1559999999999999e+01
0.0000000000000000e+00 3.1559999999999999e+01
0.0000000000000000e+00 3.1559999999999999e+01
ITEM: ATOMS id type xs ys zs
74 1 0.0754928 0.0709719 0.176944
27 1 0.0850496 0.158084 0.100822
62 1 0.569265 0.440333 0.00626927
8 1 0.17827 0.104632 0.0957335
78 1 0.258964 0.0913971 0.166767
31 1 0.259905 0.16793 0.0859492
216 1 0.817839 0.415437 0.401344
101 1 0.162458 0.164939 0.18425
196 1 0.00279092 0.411806 0.433761
12 1 0.344706 0.0847804 0.0972057
82 1 0.431669 0.0850341 0.171714
16 1 0.512105 0.0743691 0.0741799
282 1 0.747697 0.404793 0.488126
39 1 0.571913 0.181249 0.0737335
253 1 0.501386 0.159649 0.496827
230 1 0.58642 0.0897896 0.496038
451 1 0.758464 0.494414 0.0718909
20 1 0.667405 0.0761555 0.083262
214 1 0.90518 0.419155 0.335028
24 1 0.829379 0.0824332 0.0925398
90 1 0.74671 0.0836471 0.165171
4 1 0.990419 0.0834867 0.09059
30 1 0.265419 0.251168 0.0017398
47 1 0.92518 0.161818 0.0937143
97 1 0.997971 0.164279 0.171161
98 1 0.0796596 0.234445 0.183686
28 1 0.00398797 0.250519 0.0989814
121 1 0.994274 0.347729 0.173801
66 1 0.756445 0.419269 0.00262397
32 1 0.164177 0.21971 0.0835584
36 1 0.347827 0.235501 0.0786709
35 1 0.418399 0.156532 0.0892314
40 1 0.491394 0.267471 0.0865083
439 1 0.2388 0.483427 0.0952884
87 1 0.606354 0.000550214 0.244579
110 1 0.573447 0.262293 0.175116
44 1 0.666757 0.259134 0.0798573
109 1 0.495412 0.173465 0.167557
43 1 0.748114 0.165377 0.0940944
48 1 0.839794 0.24576 0.0949515
67 1 0.756165 0.331324 0.0899156
114 1 0.739897 0.245201 0.164257
118 1 0.919447 0.237153 0.173922
71 1 0.921968 0.337253 0.0893296
141 1 0.841769 0.318884 0.174952
53 1 0.1761 0.30671 0.0111139
51 1 0.0817785 0.334061 0.106173
435 1 0.0806496 0.491239 0.0784206
149 1 0.163249 -0.00318466 0.330775
55 1 0.259854 0.329982 0.0914091
56 1 0.172463 0.383079 0.0887717
60 1 0.33479 0.425843 0.090632
125 1 0.160567 0.321457 0.174365
126 1 0.247959 0.41237 0.183972
2 1 0.0962659 0.0889926 0.00507113
59 1 0.418339 0.360818 0.0904825
64 1 0.502829 0.430093 0.0786323
507 1 0.0746971 0.501491 0.258372
63 1 0.582643 0.343953 0.0891904
134 1 0.57782 0.422535 0.167997
523 1 0.733157 0.497513 0.22502
254 1 0.587306 0.2486 0.489059
46 1 0.93044 0.241572 0.0138117
68 1 0.675396 0.416859 0.0899729
278 1 0.600529 0.419816 0.499771
5 1 0.176775 0.008333 -0.000998121
7 1 0.258157 0.011862 0.0788032
210 1 0.745031 0.426417 0.306475
72 1 0.836657 0.408599 0.0816599
52 1 0.997828 0.410347 0.0921852
142 1 0.910711 0.419487 0.164428
212 1 0.687762 0.421452 0.388623
146 1 0.0857927 0.0770085 0.328894
99 1 0.0752994 0.169307 0.264543
76 1 0.996646 0.0843498 0.254113
169 1 0.98857 0.158834 0.332183
105 1 0.323807 0.173787 0.176997
80 1 0.163848 0.0795087 0.251501
103 1 0.239513 0.159094 0.25357
11 1 0.416239 -0.000791781 0.0824467
84 1 0.331975 0.0897812 0.254613
107 1 0.410468 0.177617 0.24857
86 1 0.56975 0.0855615 0.173829
79 1 0.240074 0.00916585 0.243686
88 1 0.494046 0.0752684 0.258408
113 1 0.666282 0.15722 0.172435
111 1 0.577075 0.164261 0.263301
185 1 0.670568 0.152965 0.352428
92 1 0.664255 0.0897963 0.256365
162 1 0.758385 0.076865 0.335873
96 1 0.833146 0.0710018 0.252938
155 1 0.410892 3.83705e-05 0.413488
94 1 0.911171 0.076759 0.183053
119 1 0.914107 0.155589 0.245647
104 1 0.164696 0.253724 0.26347
170 1 0.0765096 0.249776 0.339423
100 1 0.995417 0.240554 0.25044
123 1 0.0858238 0.330117 0.262545
173 1 0.15919 0.170768 0.329636
102 1 0.243296 0.251332 0.171747
174 1 0.248999 0.250705 0.336703
197 1 0.165539 0.331632 0.330939
106 1 0.416413 0.251003 0.164644
129 1 0.348113 0.333974 0.158705
133 1 0.494822 0.354117 0.183508
108 1 0.330374 0.260484 0.236721
178 1 0.419296 0.255516 0.33494
112 1 0.49055 0.242208 0.241009
201 1 0.325795 0.336568 0.324671
205 1 0.501997 0.334925 0.319747
116 1 0.663694 0.245352 0.252957
182 1 0.58242 0.242077 0.330546
115 1 0.757717 0.15013 0.254756
117 1 0.839789 0.167083 0.171312
189 1 0.826854 0.151362 0.334058
137 1 0.651067 0.334018 0.17297
120 1 0.830455 0.242387 0.256497
143 1 0.922474 0.331511 0.24493
190 1 0.907519 0.249494 0.325736
122 1 0.0758273 0.415349 0.168384
124 1 0.993639 0.423708 0.251935
194 1 0.0879748 0.415857 0.347542
127 1 0.246137 0.331105 0.247688
128 1 0.152639 0.426964 0.250996
198 1 0.25132 0.409302 0.318945
250 1 0.418321 0.239 0.497557
130 1 0.409921 0.435391 0.172896
131 1 0.414653 0.338138 0.25583
132 1 0.336872 0.425989 0.24353
136 1 0.484238 0.424691 0.255937
202 1 0.416727 0.416134 0.344276
591 1 0.592915 0.496316 0.413562
206 1 0.581182 0.43898 0.316279
135 1 0.572104 0.344251 0.244646
209 1 0.661045 0.319193 0.325607
23 1 0.90781 0.00348598 0.106362
226 1 0.407652 0.0984511 0.470889
38 1 0.576467 0.265335 0.00458343
25 1 0.00167041 0.159606 0.00801949
138 1 0.751914 0.412925 0.162106
140 1 0.662338 0.424366 0.234438
139 1 0.75298 0.325873 0.260214
144 1 0.832874 0.427933 0.236465
22 1 0.90107 0.0800496 0.0132354
208 1 0.511141 0.42279 0.429279
585 1 0.317215 0.489748 0.334294
171 1 0.0746936 0.153764 0.406155
81 1 0.33439 0.0075864 0.172862
150 1 0.236474 0.0747042 0.330465
177 1 0.331038 0.173195 0.325338
152 1 0.153987 0.0847758 0.421516
156 1 0.311663 0.0717717 0.40888
154 1 0.413323 0.0871591 0.333758
181 1 0.488402 0.162637 0.331601
160 1 0.505364 0.0681335 0.408737
179 1 0.410623 0.172201 0.402846
193 1 0.997851 0.343075 0.346687
42 1 0.751206 0.256877 0.00394189
158 1 0.57819 0.0718784 0.331823
587 1 0.414171 0.496274 0.425242
153 1 0.326623 0.00648065 0.326338
597 1 0.825138 0.498252 0.333947
164 1 0.678903 0.073802 0.425499
168 1 0.852271 0.0692718 0.414124
599 1 0.911156 0.49861 0.418777
166 1 0.917076 0.0634937 0.332252
148 1 0.998104 0.0664999 0.40928
151 1 0.227492 0.013486 0.421147
176 1 0.156005 0.244474 0.416373
172 1 0.980807 0.25187 0.408233
204 1 0.335643 0.424187 0.414404
45 1 0.836217 0.182591 0.00942581
199 1 0.246189 0.321243 0.41095
175 1 0.254045 0.165318 0.396261
195 1 0.0903724 0.334548 0.430981
180 1 0.338453 0.261072 0.419019
203 1 0.414983 0.346738 0.419252
184 1 0.502769 0.250528 0.421889
286 1 0.912765 0.412594 0.490944
249 1 0.323655 0.165722 0.499843
207 1 0.57078 0.331804 0.409643
183 1 0.565347 0.155512 0.407941
188 1 0.677638 0.242395 0.40615
186 1 0.74809 0.231968 0.321401
187 1 0.753914 0.154107 0.426351
211 1 0.761824 0.327398 0.396285
200 1 0.181228 0.428528 0.408267
213 1 0.836392 0.344326 0.312368
191 1 0.902363 0.161859 0.407826
192 1 0.826495 0.248333 0.392958
215 1 0.904003 0.335343 0.404618
285 1 0.825709 0.321347 0.494082
18 1 0.750585 0.0873163 0.000913673
225 1 0.326795 0.00169024 0.494613
266 1 0.0951638 0.414417 0.492503
85 1 0.502023 0.00075249 0.161939
83 1 0.413567 0.00176822 0.245154
3 1 0.0863002 0.0155502 0.086868
669 1 0.831495 0.492233 0.500297
265 1 0.985473 0.32349 0.493759
277 1 0.503513 0.341627 0.496501
65 1 0.656681 0.356913 0.00411927
246 1 0.239079 0.245151 0.494458
577 1 0.988375 0.49879 0.336605
270 1 0.260119 0.411201 0.49184
49 1 0.00248954 0.32092 0.00910831
433 1 0.996555 0.488922 0.0104138
14 1 0.588793 0.091966 0.00569898
269 1 0.176377 0.331998 0.495846
69 1 0.838634 0.324169 0.0111395
281 1 0.66914 0.331822 0.473206
26 1 0.0774489 0.24127 0.0162558
262 1 0.909596 0.242625 0.488915
453 1 0.843485 0.481485 0.00600157
243 1 0.0772205 0.168899 0.592346
290 1 0.0877981 0.0783372 0.672946
273 1 0.334279 0.326795 0.503786
33 1 0.334115 0.160342 0.996431
224 1 0.152438 0.0942519 0.586072
294 1 0.244974 0.0830614 0.657082
228 1 0.332182 0.0855909 0.577489
375 1 0.586703 0.0022731 0.92818
221 1 0.171888 0.0102743 0.511807
232 1 0.505119 0.082452 0.571961
251 1 0.428237 0.154803 0.575717
223 1 0.253412 0.00397762 0.590314
813 1 0.835394 0.494579 0.831578
255 1 0.589721 0.178677 0.581452
236 1 0.665818 0.0899335 0.578624
302 1 0.582381 0.0885894 0.674232
259 1 0.745317 0.170963 0.589513
306 1 0.748149 0.0877282 0.663148
805 1 0.501337 0.490961 0.826221
258 1 0.742486 0.253946 0.49855
220 1 0.00358201 0.0664912 0.585392
240 1 0.846155 0.0799026 0.589341
310 1 0.926036 0.0948759 0.676944
263 1 0.919512 0.172857 0.585047
58 1 0.41916 0.428696 0.994962
305 1 0.664483 0.0215558 0.657878
248 1 0.165838 0.246624 0.57576
314 1 0.0830135 0.255692 0.664304
341 1 0.162856 0.338874 0.663179
299 1 0.424313 0.00785343 0.741559
247 1 0.247582 0.165356 0.595809
252 1 0.321383 0.251199 0.586338
318 1 0.242282 0.250319 0.65487
239 1 0.919859 0.000940973 0.591743
34 1 0.421616 0.254039 0.996135
256 1 0.502295 0.248003 0.578666
739 1 0.750619 0.497613 0.746011
289 1 0.998938 0.00720662 0.668702
279 1 0.581037 0.327759 0.574867
260 1 0.676896 0.262662 0.585346
667 1 0.751806 0.489409 0.576289
37 1 0.517956 0.179072 0.983035
283 1 0.749147 0.340013 0.582241
330 1 0.74897 0.253665 0.665905
333 1 0.846259 0.161807 0.661135
244 1 0.998967 0.251174 0.585941
6 1 0.264751 0.0815515 0.991035
264 1 0.824078 0.256282 0.573405
287 1 0.912434 0.324994 0.562678
797 1 0.166128 0.491144 0.832487
267 1 0.0747289 0.334125 0.578959
268 1 0.992576 0.412274 0.585409
338 1 0.078227 0.411742 0.672445
337 1 0.00382237 0.332936 0.672577
271 1 0.243924 0.327094 0.599045
272 1 0.173943 0.410315 0.584476
432 1 0.817496 0.419827 0.918258
365 1 0.161514 0.00544373 0.843495
275 1 0.415932 0.335492 0.576662
276 1 0.317496 0.43629 0.582903
280 1 0.506908 0.423148 0.572584
346 1 0.428298 0.434501 0.646618
284 1 0.669876 0.419055 0.582516
426 1 0.727253 0.4025 0.832854
737 1 0.66355 0.493041 0.660822
70 1 0.914414 0.402645 0.997737
357 1 0.831403 0.333065 0.666897
288 1 0.830509 0.409086 0.578836
723 1 0.0681418 0.483315 0.753662
10 1 0.426605 0.0897906 0.994347
261 1 0.840293 0.155755 0.50272
292 1 0.989586 0.0906757 0.759384
296 1 0.177644 0.0761555 0.748905
315 1 0.096599 0.17094 0.762047
313 1 -0.000859204 0.167382 0.659723
385 1 0.992354 0.170569 0.84068
366 1 0.250912 0.0824848 0.829354
319 1 0.262902 0.160905 0.747347
300 1 0.342173 0.0843283 0.744925
321 1 0.348977 0.155181 0.662249
298 1 0.432484 0.0821324 0.654128
743 1 0.920524 0.494483 0.751869
304 1 0.508499 0.0754982 0.746512
381 1 0.814781 0.00532591 0.826856
329 1 0.666865 0.171404 0.678355
308 1 0.678709 0.0846312 0.756709
327 1 0.590609 0.161727 0.765241
401 1 0.669834 0.186144 0.835637
374 1 0.600388 0.0625797 0.835033
397 1 0.498975 0.167796 0.839417
331 1 0.750773 0.171311 0.758061
378 1 0.745527 0.0954448 0.843662
312 1 0.834749 0.0748223 0.739834
382 1 0.897898 0.0858846 0.832717
335 1 0.916732 0.177603 0.754563
316 1 0.0129506 0.238325 0.733367
320 1 0.161685 0.251572 0.760954
413 1 0.171827 0.320732 0.84067
317 1 0.165089 0.172425 0.659954
390 1 0.262422 0.238365 0.836355
324 1 0.337831 0.238962 0.744417
393 1 0.336154 0.148932 0.831451
323 1 0.423345 0.161372 0.746038
322 1 0.405067 0.2466 0.647791
394 1 0.416209 0.246751 0.821856
328 1 0.495163 0.251717 0.73489
325 1 0.505925 0.174319 0.659671
326 1 0.582741 0.257644 0.670418
332 1 0.664462 0.262178 0.741684
398 1 0.585386 0.243498 0.832027
355 1 0.74098 0.337011 0.745131
336 1 0.831305 0.246258 0.732788
425 1 0.644197 0.329056 0.838319
405 1 0.829662 0.17239 0.834697
334 1 0.911354 0.259039 0.650997
359 1 0.920583 0.311779 0.749838
406 1 0.901025 0.253895 0.839234
339 1 0.081589 0.338376 0.749969
344 1 0.167042 0.401141 0.751855
340 1 0.99297 0.404041 0.746895
345 1 0.343732 0.346593 0.652537
343 1 0.245264 0.320286 0.739148
342 1 0.245804 0.417463 0.657742
348 1 0.339767 0.41952 0.728258
349 1 0.491029 0.335264 0.658244
347 1 0.415043 0.337759 0.748342
352 1 0.497533 0.42728 0.741157
350 1 0.572408 0.424772 0.655281
351 1 0.576403 0.340591 0.736998
424 1 0.497995 0.421656 0.914302
422 1 0.581195 0.414221 0.821214
354 1 0.758357 0.418152 0.663981
353 1 0.658074 0.35255 0.66956
356 1 0.659232 0.418944 0.746742
429 1 0.838529 0.330285 0.854601
430 1 0.917268 0.421292 0.831416
428 1 0.651628 0.421559 0.916686
358 1 0.910132 0.420059 0.675968
360 1 0.828375 0.402895 0.760819
409 1 0.00563573 0.340809 0.834008
274 1 0.414416 0.41821 0.504864
362 1 0.0890975 0.0846821 0.82717
387 1 0.0729056 0.155681 0.914493
417 1 0.33178 0.331311 0.822778
389 1 0.171267 0.167279 0.830207
368 1 0.160979 0.0891096 0.91263
372 1 0.358543 0.0708819 0.912095
416 1 0.176322 0.402173 0.910872
370 1 0.426297 0.0888756 0.825835
376 1 0.506458 0.0927136 0.905269
653 1 0.173366 0.489522 0.505019
809 1 0.672558 0.487693 0.832445
380 1 0.666761 0.0816935 0.913892
418 1 0.416081 0.41824 0.827699
403 1 0.741909 0.166103 0.923451
384 1 0.834044 0.0790751 0.929102
297 1 0.354983 -0.000187315 0.661275
671 1 0.925854 0.495778 0.590211
407 1 0.919901 0.160143 0.921933
364 1 0.992741 0.0796922 0.942892
725 1 0.147163 0.498552 0.673691
408 1 0.832614 0.242683 0.929478
431 1 0.921204 0.326065 0.921026
386 1 0.0765865 0.259757 0.830789
411 1 0.0880103 0.323488 0.918178
388 1 0.00447004 0.248176 0.920632
419 1 0.411356 0.342299 0.901103
410 1 0.0949117 0.405113 0.842849
392 1 0.163397 0.236919 0.923889
391 1 0.247789 0.160177 0.905805
415 1 0.258514 0.332824 0.915575
795 1 0.0961334 0.483293 0.920531
421 1 0.510518 0.323797 0.823491
396 1 0.347705 0.249275 0.920057
395 1 0.417885 0.162089 0.91478
400 1 0.494397 0.260724 0.905443
420 1 0.333322 0.427177 0.916999
423 1 0.568498 0.349995 0.926292
404 1 0.661235 0.266923 0.929571
399 1 0.585111 0.168117 0.912723
427 1 0.755663 0.333336 0.927507
402 1 0.75369 0.256451 0.826294
414 1 0.248964 0.40468 0.817499
412 1 0.999505 0.409721 0.921007
721 1 0.0119071 0.489061 0.663147
361 1 0.988492 0.0168218 0.848386
227 1 0.42983 0.0172406 0.555554
234 1 0.758067 0.0721089 0.513575
449 1 0.669686 0.500545 0.985681
301 1 0.511929 0.00612127 0.668282
799 1 0.247563 0.497843 0.904438
231 1 0.580332 0.0014229 0.586102
303 1 0.586392 0.00536591 0.749535
291 1 0.0734563 -0.000565122 0.756003
222 1 0.237901 0.0884094 0.502335
257 1 0.67642 0.163976 0.500536
61 1 0.477675 0.34558 0.988856
218 1 0.0792181 0.101437 0.501789
17 1 0.677796 0.00907271 0.99496
54 1 0.245342 0.409706 1.00033
241 1 0.991257 0.162378 0.50175
245 1 0.160016 0.160671 0.510495
41 1 0.655168 0.181898 0.991805
29 1 0.185298 0.168353 0.995388
238 1 0.921003 0.0750515 0.505631
50 1 0.0860609 0.400057 0.994775
57 1 0.351497 0.339874 0.996727
9 1 0.34412 0.0146332 0.997941
242 1 0.0745689 0.238902 0.506181
506 1 0.0713202 0.58383 0.172755
513 1 0.322415 0.515901 0.156761
440 1 0.15798 0.584396 0.084243
646 1 0.919408 0.89924 0.350448
682 1 0.416556 0.749608 0.498896
490 1 0.401531 0.91144 0.00422563
463 1 0.254002 0.666371 0.0830166
15 1 0.584935 0.991162 0.0833525
444 1 0.337909 0.598583 0.0600197
448 1 0.492018 0.596107 0.086611
648 1 0.836825 0.913679 0.426464
167 1 0.930171 0.98338 0.417983
471 1 0.584514 0.663263 0.0817697
452 1 0.679463 0.574551 0.0757676
541 1 0.511935 0.661969 0.167643
456 1 0.828901 0.578115 0.0761248
475 1 0.753488 0.670219 0.0779429
579 1 0.0874823 0.500221 0.421833
436 1 0.994119 0.579441 0.0804574
479 1 0.923819 0.676453 0.0701291
459 1 0.0689584 0.657921 0.0909395
464 1 0.17325 0.74213 0.0881279
483 1 0.0867713 0.82854 0.078369
461 1 0.17204 0.668688 0.0154468
705 1 0.332566 0.823644 0.492875
534 1 0.251306 0.758991 0.159406
557 1 0.147864 0.827986 0.172289
537 1 0.328611 0.665652 0.185639
468 1 0.336941 0.741363 0.0848745
467 1 0.412044 0.662124 0.100475
713 1 0.684584 0.828991 0.49281
581 1 0.167865 0.511266 0.340047
689 1 0.660137 0.675139 0.492118
472 1 0.495982 0.745946 0.0744593
542 1 0.584154 0.754209 0.169174
21 1 0.839425 0.992651 0.00986255
495 1 0.579869 0.832929 0.0905282
517 1 0.503127 0.506599 0.153491
229 1 0.502426 0.987532 0.487229
476 1 0.672413 0.747948 0.0853026
480 1 0.831454 0.75664 0.0768307
595 1 0.766372 0.515632 0.411237
460 1 0.00159654 0.758849 0.070662
553 1 0.996797 0.829099 0.154264
519 1 0.580539 0.514591 0.246466
589 1 0.487754 0.506115 0.34202
19 1 0.758057 0.996439 0.0930022
89 1 0.677577 0.998603 0.167707
487 1 0.252539 0.82765 0.0720687
488 1 0.17501 0.898428 0.0817756
501 1 0.825188 0.836184 0.00361506
492 1 0.336207 0.920643 0.0893962
491 1 0.424608 0.820844 0.0878339
643 1 0.760945 0.829043 0.408578
521 1 0.657975 0.504435 0.159062
496 1 0.498933 0.921495 0.0969293
525 1 0.82813 0.504564 0.158666
500 1 0.673531 0.924764 0.0919467
499 1 0.752808 0.826809 0.0964008
570 1 0.755761 0.917028 0.174518
645 1 0.844086 0.824048 0.334818
484 1 0.999461 0.912045 0.0836783
642 1 0.738085 0.914496 0.331669
503 1 0.907374 0.834298 0.0826557
504 1 0.825577 0.912562 0.0858062
574 1 0.929638 0.914653 0.16481
443 1 0.419242 0.510603 0.0761526
512 1 0.154809 0.598224 0.266791
531 1 0.0682815 0.661587 0.246389
619 1 0.758519 0.66987 0.433328
159 1 0.58312 0.976739 0.424468
510 1 0.232978 0.595003 0.172049
582 1 0.254206 0.600043 0.34243
583 1 0.254687 0.515741 0.427552
514 1 0.405263 0.58234 0.178027
516 1 0.328152 0.585874 0.255678
586 1 0.40929 0.593138 0.332376
520 1 0.499485 0.583351 0.251179
609 1 0.33594 0.680522 0.318197
644 1 0.684505 0.913181 0.426143
518 1 0.574305 0.582834 0.166296
524 1 0.658107 0.588939 0.239955
543 1 0.578955 0.665537 0.255638
522 1 0.747462 0.58143 0.16272
528 1 0.840053 0.583388 0.234661
547 1 0.760668 0.654225 0.238772
509 1 0.161635 0.507191 0.169006
508 1 0.99117 0.592031 0.245149
526 1 0.918547 0.596589 0.159902
529 1 0.99276 0.675807 0.158848
601 1 0.995841 0.660906 0.328688
625 1 0.993361 0.831231 0.324727
533 1 0.153352 0.661443 0.158687
530 1 0.0795976 0.745979 0.147053
602 1 0.0779276 0.761104 0.328869
555 1 0.0861522 0.844176 0.262091
536 1 0.136636 0.7437 0.241622
535 1 0.238969 0.669267 0.250787
540 1 0.317083 0.759992 0.251152
606 1 0.245871 0.756203 0.33101
633 1 0.32592 0.831275 0.344832
538 1 0.401144 0.749627 0.167161
539 1 0.425761 0.67459 0.246579
610 1 0.432613 0.746684 0.33392
563 1 0.416857 0.827877 0.257213
637 1 0.494273 0.842683 0.333618
569 1 0.674237 0.830788 0.173263
613 1 0.50401 0.669234 0.326995
544 1 0.501733 0.75035 0.252673
548 1 0.651269 0.742082 0.251512
545 1 0.666487 0.654133 0.150017
549 1 0.839297 0.678459 0.149971
546 1 0.747076 0.749044 0.179074
552 1 0.830937 0.740436 0.256
550 1 0.918236 0.754911 0.162241
551 1 0.906234 0.66572 0.249352
532 1 0.00487999 0.74801 0.251295
575 1 0.921915 0.824301 0.244701
470 1 0.584334 0.753224 0.00822776
554 1 0.0860568 0.92047 0.151197
626 1 0.0762001 0.918844 0.334208
561 1 0.337726 0.833004 0.165037
559 1 0.242949 0.827632 0.253337
560 1 0.171365 0.909698 0.240216
558 1 0.252736 0.921224 0.160562
93 1 0.839893 0.973947 0.179869
635 1 0.412322 0.8281 0.410618
564 1 0.323538 0.918266 0.242846
562 1 0.407036 0.916526 0.17668
634 1 0.400595 0.924165 0.332934
640 1 0.491963 0.897572 0.428719
565 1 0.488195 0.841622 0.173504
567 1 0.582369 0.837222 0.256099
568 1 0.503896 0.929371 0.248882
566 1 0.587989 0.919456 0.1618
572 1 0.675354 0.911067 0.239638
638 1 0.602145 0.934761 0.316763
447 1 0.585048 0.522824 0.0728088
641 1 0.671961 0.819231 0.320017
573 1 0.838642 0.842423 0.172663
527 1 0.91532 0.508616 0.259966
571 1 0.762688 0.833695 0.244077
482 1 0.0917407 0.910724 0.00550674
556 1 0.00324636 0.918646 0.244956
576 1 0.837315 0.907985 0.265263
662 1 0.589505 0.587485 0.494242
618 1 0.753076 0.740057 0.334648
578 1 0.0714569 0.584881 0.346802
584 1 0.175179 0.591799 0.428961
75 1 0.0849342 0.993184 0.249221
622 1 0.919382 0.745861 0.326964
605 1 0.157008 0.663385 0.358236
607 1 0.251782 0.674669 0.423857
636 1 0.327344 0.915299 0.419802
647 1 0.917627 0.827413 0.430401
632 1 0.169356 0.908542 0.419223
588 1 0.334351 0.592085 0.42195
592 1 0.504509 0.585081 0.411918
611 1 0.408749 0.680562 0.410229
502 1 0.916644 0.917045 0.0127573
590 1 0.574976 0.579275 0.338549
505 1 0.00138096 0.507062 0.177851
624 1 0.836899 0.746646 0.423354
630 1 0.244039 0.903314 0.320049
617 1 0.674946 0.669254 0.334733
594 1 0.750128 0.57928 0.323409
628 1 0.008352 0.89316 0.420391
596 1 0.670161 0.586944 0.404113
600 1 0.840623 0.585494 0.417365
165 1 0.829594 0.978552 0.342742
623 1 0.914545 0.674924 0.417373
580 1 0.988362 0.586154 0.426631
604 1 0.996718 0.748594 0.407273
515 1 0.409215 0.511425 0.268306
598 1 0.917247 0.5852 0.342047
627 1 0.0881883 0.828968 0.417083
629 1 0.163113 0.837332 0.332502
603 1 0.0700785 0.668841 0.408486
621 1 0.831995 0.647534 0.327568
608 1 0.17024 0.758399 0.413692
631 1 0.250257 0.831898 0.418183
612 1 0.33027 0.747514 0.418692
593 1 0.667459 0.515518 0.331758
91 1 0.752729 0.991401 0.24544
616 1 0.506937 0.749716 0.419807
614 1 0.578383 0.751856 0.336466
620 1 0.6691 0.758485 0.416595
615 1 0.576701 0.662721 0.419083
639 1 0.59122 0.85247 0.423123
95 1 0.914967 0.987672 0.24923
73 1 0.00256625 0.998985 0.159185
445 1 0.501649 0.512697 0.000645454
486 1 0.245248 0.912463 0.00967895
145 1 0.994655 0.993496 0.326718
163 1 0.758955 0.998226 0.424885
690 1 0.753157 0.758152 0.50166
511 1 0.242755 0.50556 0.244872
147 1 0.0810719 0.988286 0.423399
1 1 0.998159 0.997786 0.0142313
161 1 0.680258 0.997714 0.331829
658 1 0.422926 0.588528 0.480455
666 1 0.740894 0.588198 0.495768
77 1 0.170632 0.997873 0.150302
455 1 0.92294 0.501277 0.0890793
157 1 0.501728 0.987917 0.348553
498 1 0.744064 0.925656 0.00460634
706 1 0.411473 0.915314 0.488332
441 1 0.329811 0.499463 0.00214732
674 1 0.0858719 0.738841 0.486832
497 1 0.662581 0.834879 0.0159834
702 1 0.247751 0.919204 0.498693
494 1 0.572494 0.912609 0.0100178
677 1 0.173407 0.672782 0.497766
686 1 0.585325 0.747584 0.497252
673 1 0.000681487 0.668878 0.493575
13 1 0.499167 0.996061 0.0070886
457 1 0.0167528 0.663203 0.00179247
698 1 0.0848291 0.909755 0.498956
434 1 0.0777147 0.573469 0.0160407
701 1 0.184101 0.826748 0.498022
437 1 0.164598 0.500779 0.0106791
493 1 0.493651 0.831364 0.00988608
473 1 0.671138 0.674359 0.0053856
652 1 0.0082837 0.59825 0.585978
235 1 0.75692 1.0005 0.598255
656 1 0.16634 0.595613 0.581081
726 1 0.229179 0.591974 0.67319
729 1 0.33001 0.515291 0.671548
660 1 0.333532 0.585147 0.588549
733 1 0.493829 0.515462 0.64207
683 1 0.428001 0.666045 0.575684
664 1 0.517596 0.593433 0.571729
734 1 0.592312 0.592609 0.665554
668 1 0.669388 0.590985 0.583724
694 1 0.911884 0.760578 0.509079
672 1 0.826531 0.5907 0.583912
649 1 0.994073 0.505975 0.501724
841 1 0.993114 0.842527 0.822127
801 1 0.324356 0.504181 0.814898
369 1 0.359937 0.992 0.835723
695 1 0.933579 0.677084 0.580936
293 1 0.169241 0.99502 0.658373
450 1 0.750964 0.572248 0.991802
811 1 0.749853 0.503911 0.911219
675 1 0.0976785 0.673994 0.574364
676 1 0.00799651 0.757012 0.578849
699 1 0.0874255 0.848832 0.593035
679 1 0.26284 0.667807 0.583466
680 1 0.167081 0.76023 0.589453
684 1 0.343838 0.738145 0.588342
703 1 0.263347 0.842456 0.588345
750 1 0.256074 0.732226 0.670764
793 1 0.0033463 0.498812 0.849299
754 1 0.41015 0.755042 0.668655
688 1 0.507469 0.746717 0.588261
757 1 0.514145 0.659753 0.664074
307 1 0.739998 1.00103 0.750261
687 1 0.595069 0.669221 0.574294
711 1 0.591018 0.826289 0.569846
758 1 0.569335 0.756914 0.673967
363 1 0.0885414 0.995508 0.93285
691 1 0.7497 0.671825 0.575956
692 1 0.670669 0.751552 0.575634
696 1 0.83732 0.751239 0.583644
761 1 0.666633 0.689708 0.658151
762 1 0.757915 0.75223 0.659227
766 1 0.931355 0.745811 0.668961
379 1 0.753143 0.990478 0.918132
462 1 0.249185 0.760288 0.988353
700 1 -0.000183756 0.908459 0.599338
770 1 0.0819592 0.919018 0.673948
731 1 0.419667 0.505391 0.739049
864 1 0.833082 0.908015 0.925562
773 1 0.173305 0.835337 0.662608
704 1 0.176741 0.912432 0.596476
708 1 0.33265 0.927898 0.581019
803 1 0.418346 0.502191 0.917791
741 1 0.835056 0.506376 0.656814
707 1 0.416241 0.836059 0.570588
712 1 0.496045 0.918008 0.567245
655 1 0.233593 0.510101 0.601816
716 1 0.667474 0.901559 0.579042
782 1 0.585124 0.920101 0.673901
785 1 0.658181 0.826889 0.657445
715 1 0.759074 0.832098 0.589103
786 1 0.74005 0.907038 0.661981
789 1 0.840657 0.83131 0.665015
659 1 0.421092 0.518739 0.561069
693 1 0.843471 0.669858 0.503377
720 1 0.8438 0.917073 0.595853
719 1 0.922386 0.839156 0.593673
718 1 0.92522 0.912338 0.500674
807 1 0.568107 0.501117 0.915239
722 1 0.0704244 0.582929 0.672354
724 1 0.997196 0.575981 0.757666
466 1 0.410151 0.746907 0.996109
728 1 0.162976 0.570589 0.754469
751 1 0.241534 0.669425 0.759574
730 1 0.418768 0.590272 0.669546
373 1 0.511737 0.993981 0.843648
732 1 0.336185 0.589528 0.753456
736 1 0.506212 0.574415 0.744641
863 1 0.92242 0.849011 0.909953
806 1 0.594753 0.569264 0.825701
657 1 0.331115 0.503272 0.504708
442 1 0.415219 0.585395 0.979791
670 1 0.91387 0.57252 0.51154
738 1 0.746779 0.56891 0.658001
740 1 0.672796 0.590814 0.740471
742 1 0.928189 0.592759 0.678776
744 1 0.827483 0.576688 0.735292
814 1 0.918233 0.580217 0.825398
747 1 0.0773376 0.645549 0.76643
746 1 0.0850287 0.756547 0.677504
748 1 0.00478537 0.746682 0.751844
745 1 0.00722237 0.667468 0.677051
818 1 0.0841414 0.750799 0.83461
749 1 0.148027 0.666167 0.685843
752 1 0.159133 0.748296 0.74963
753 1 0.339522 0.664203 0.672532
775 1 0.24972 0.8478 0.750803
822 1 0.237236 0.751703 0.834226
756 1 0.343274 0.740229 0.760308
755 1 0.412594 0.663276 0.756875
760 1 0.49865 0.745527 0.744168
779 1 0.407185 0.824613 0.756054
849 1 0.331069 0.835894 0.832101
759 1 0.596918 0.668782 0.748481
833 1 0.678264 0.658942 0.833289
830 1 0.583616 0.748084 0.829531
853 1 0.507428 0.835493 0.823645
763 1 0.749322 0.668583 0.737171
764 1 0.674536 0.751269 0.746961
837 1 0.825892 0.661258 0.821957
834 1 0.741956 0.734245 0.843241
765 1 0.845393 0.674823 0.681935
767 1 0.916726 0.67538 0.765475
768 1 0.820599 0.762504 0.764432
838 1 0.918621 0.750652 0.843781
769 1 0.994444 0.837943 0.687386
771 1 0.078797 0.842685 0.753152
842 1 0.0820263 0.926192 0.839919
383 1 0.920044 0.993113 0.931179
777 1 0.350169 0.852766 0.662969
774 1 0.258099 0.922402 0.667679
846 1 0.25945 0.920416 0.828489
776 1 0.176947 0.939343 0.748212
309 1 0.823591 0.98501 0.675277
778 1 0.426431 0.915665 0.651413
780 1 0.343419 0.909597 0.759352
784 1 0.509084 0.923022 0.748163
663 1 0.581495 0.503384 0.576888
851 1 0.404095 0.829437 0.912684
781 1 0.503682 0.839203 0.658171
783 1 0.59194 0.830922 0.749371
858 1 0.750164 0.916826 0.84502
650 1 0.0822056 0.591991 0.502004
860 1 0.659653 0.923783 0.916764
788 1 0.669622 0.917163 0.750603
861 1 0.833225 0.839769 0.838998
787 1 0.735844 0.83709 0.743267
792 1 0.819009 0.907129 0.736201
862 1 0.901573 0.93406 0.841184
790 1 0.926271 0.915833 0.673323
772 1 0.995142 0.933316 0.77082
791 1 0.908781 0.83859 0.748743
857 1 0.674344 0.814205 0.83491
856 1 0.500091 0.893913 0.922326
794 1 0.074547 0.577394 0.847872
796 1 0.991948 0.590319 0.914038
800 1 0.170585 0.575693 0.91116
237 1 0.834114 0.996555 0.511645
859 1 0.744201 0.838432 0.933228
798 1 0.2465 0.570747 0.8256
850 1 0.432389 0.910696 0.831186
651 1 0.0861082 0.503872 0.576089
371 1 0.432661 0.983828 0.917996
804 1 0.32806 0.593655 0.915407
802 1 0.425839 0.576376 0.828235
808 1 0.505023 0.589638 0.912614
812 1 0.658538 0.581982 0.915189
367 1 0.242735 0.997467 0.918447
810 1 0.738499 0.567765 0.817039
817 1 0.999255 0.668123 0.835675
477 1 0.825352 0.668265 0.990821
816 1 0.82859 0.585179 0.902759
854 1 0.584467 0.908217 0.828551
819 1 0.0978957 0.664525 0.918757
681 1 0.341413 0.660894 0.507568
824 1 0.158024 0.755139 0.90538
821 1 0.159634 0.664064 0.835899
823 1 0.236842 0.674568 0.913561
847 1 0.257498 0.844186 0.918124
825 1 0.326933 0.663775 0.833337
828 1 0.334064 0.751882 0.891081
826 1 0.432148 0.738351 0.826583
827 1 0.426813 0.665973 0.909695
831 1 0.587917 0.666564 0.912505
832 1 0.508324 0.746856 0.927504
829 1 0.504408 0.657992 0.822511
855 1 0.585635 0.826497 0.918772
848 1 0.160195 0.91968 0.914396
835 1 0.747131 0.64296 0.923261
840 1 0.826144 0.758156 0.922422
836 1 0.662795 0.747487 0.922218
852 1 0.326508 0.923336 0.922016
654 1 0.246724 0.588961 0.510759
839 1 0.918129 0.668786 0.920405
820 1 0.00201024 0.74782 0.919434
845 1 0.174427 0.837786 0.841322
844 1 0.003489 0.930833 0.92218
219 1 0.0845309 0.982157 0.580849
843 1 0.074807 0.831409 0.907238
727 1 0.242337 0.501183 0.733404
469 1 0.484556 0.660575 0.996655
311 1 0.905344 0.992398 0.746776
735 1 0.579909 0.501343 0.733827
454 1 0.903968 0.596183 0.992918
446 1 0.582842 0.592264 0.998346
295 1 0.27416 0.994177 0.745385
465 1 0.322093 0.689466 0.987156
714 1 0.764457 0.915451 0.514846
377 1 0.670301 0.994136 0.829771
815 1 0.908921 0.515736 0.927404
217 1 0.0091171 0.987779 0.507025
709 1 0.508354 0.825543 0.506225
489 1 0.338217 0.817419 0.996204
478 1 0.914736 0.762482 0.982058
233 1 0.680791 0.99928 0.508536
717 1 0.843022 0.84711 0.514449
474 1 0.749649 0.750045 0.989514
458 1 0.0897871 0.747014 0.997491
485 1 0.171551 0.830769 0.984522
438 1 0.249936 0.59674 0.983881
481 1 0.00335623 0.843738 0.988179
678 1 0.259033 0.742958 0.507669
661 1 0.508393 0.510512 0.500245
665 1 0.668838 0.505675 0.50829
710 1 0.590313 0.911827 0.506465
685 1 0.505474 0.6657 0.49958
697 1 0.00667469 0.831041 0.510556
