ITEM: TIMESTEP
13650
ITEM: NUMBER OF ATOMS
864
ITEM: BOX BOUNDS pp pp pp
0.0000000000000000e+00 3.1559999999999999e+01
0.0000000000000000e+00 3.1559999999999999e+01
0.0000000000000000e+00 3.1559999999999999e+01
ITEM: ATOMS id type xs ys zs
8 1 0.159606 0.0863018 0.0804329
4 1 0.0113773 0.0840004 0.0699934
14 1 0.588753 0.0799435 0.00319863
73 1 0.00532405 -0.00455337 0.154848
273 1 0.334255 0.335121 0.499552
31 1 0.252499 0.159876 0.0767017
78 1 0.242805 0.0750785 0.173263
285 1 0.833983 0.348638 0.496289
165 1 0.835559 0.00809907 0.332687
12 1 0.339349 0.0727271 0.0817068
82 1 0.404944 0.0742044 0.178324
35 1 0.407201 0.16462 0.0955898
109 1 0.484546 0.160783 0.167489
215 1 0.918513 0.343593 0.415239
16 1 0.504028 0.0686751 0.0891893
39 1 0.576448 0.149517 0.087136
86 1 0.569373 0.0852029 0.177964
20 1 0.666799 0.0844653 0.0904604
90 1 0.750913 0.0871348 0.160638
24 1 0.835584 0.0782148 0.0841874
77 1 0.157591 -0.0015919 0.17456
94 1 0.923699 0.0774469 0.166796
214 1 0.91123 0.410308 0.330232
27 1 0.0877783 0.164495 0.0678945
101 1 0.169648 0.158204 0.15758
147 1 0.0914999 0.0195748 0.421209
85 1 0.48018 -0.0184186 0.17601
32 1 0.15736 0.255474 0.0849108
55 1 0.239087 0.346563 0.0905826
669 1 0.837042 0.506327 0.482634
36 1 0.317848 0.244713 0.0908584
40 1 0.509486 0.243109 0.0941191
59 1 0.412994 0.32003 0.102495
106 1 0.392422 0.241574 0.177758
133 1 0.501204 0.33051 0.156204
110 1 0.591724 0.241688 0.148919
44 1 0.674009 0.246121 0.0759964
63 1 0.591916 0.33266 0.080825
151 1 0.242681 0.00697717 0.434477
43 1 0.752997 0.170978 0.0831839
48 1 0.827005 0.247897 0.0911389
137 1 0.658596 0.326949 0.158947
254 1 0.591582 0.230524 0.492233
47 1 0.919008 0.158461 0.0791991
28 1 -0.00299462 0.246711 0.0716722
118 1 0.923077 0.235371 0.148143
577 1 0.992587 0.497485 0.32882
286 1 0.923854 0.428968 0.488311
211 1 0.752 0.343452 0.427568
51 1 0.08751 0.34424 0.0734201
52 1 0.992123 0.412622 0.0824979
56 1 0.145631 0.435306 0.0747214
210 1 0.738371 0.423644 0.337551
126 1 0.237181 0.423662 0.161695
216 1 0.822094 0.423776 0.406489
60 1 0.338694 0.413079 0.0884723
64 1 0.479777 0.415974 0.0924139
130 1 0.408997 0.41317 0.182032
134 1 0.576914 0.416967 0.167055
68 1 0.666778 0.427768 0.0871329
67 1 0.753684 0.325999 0.0796553
274 1 0.418109 0.420833 0.495482
213 1 0.820984 0.332176 0.339734
10 1 0.413256 0.0905197 0.00118562
71 1 0.9164 0.32302 0.0774439
72 1 0.822332 0.415961 0.080704
587 1 0.425459 0.500323 0.417219
527 1 0.908095 0.501982 0.245998
597 1 0.836088 0.506447 0.340327
74 1 0.0819278 0.084826 0.160018
250 1 0.407959 0.2661 0.50534
455 1 0.897391 0.497538 0.0845768
80 1 0.168164 0.0928924 0.250063
150 1 0.233244 0.0835007 0.327003
105 1 0.327411 0.157584 0.167622
177 1 0.338772 0.159189 0.333742
84 1 0.325074 0.0845061 0.254916
154 1 0.411512 0.0714939 0.32461
581 1 0.170011 0.513805 0.335632
88 1 0.504491 0.0735917 0.265054
207 1 0.592309 0.312441 0.418331
212 1 0.66637 0.40622 0.419154
113 1 0.670026 0.163812 0.162073
92 1 0.661708 0.0944601 0.245556
96 1 0.85412 0.0806275 0.235063
443 1 0.412617 0.502147 0.0952631
76 1 0.00887423 0.082061 0.251633
98 1 0.0856781 0.245923 0.163274
99 1 0.077338 0.173773 0.24493
100 1 0.992522 0.249316 0.266086
104 1 0.165194 0.254794 0.245139
123 1 0.085518 0.345724 0.251058
102 1 0.232506 0.252046 0.163737
173 1 0.172225 0.172575 0.336644
103 1 0.244632 0.163124 0.254126
127 1 0.232108 0.336263 0.24879
174 1 0.2486 0.253041 0.330207
107 1 0.416401 0.160216 0.261826
108 1 0.314614 0.244338 0.2553
129 1 0.321478 0.335772 0.162429
205 1 0.509185 0.32517 0.344578
112 1 0.496326 0.250628 0.238684
111 1 0.58066 0.169073 0.242707
116 1 0.66047 0.24286 0.246668
185 1 0.679526 0.159589 0.31511
182 1 0.588337 0.246541 0.324009
115 1 0.764982 0.164547 0.24653
114 1 0.743649 0.253406 0.165156
186 1 0.745133 0.2419 0.336901
117 1 0.832575 0.168669 0.162902
120 1 0.838826 0.249981 0.231024
97 1 0.00394993 0.167586 0.150929
119 1 0.921968 0.172647 0.233491
189 1 0.844019 0.163009 0.316421
122 1 0.0710074 0.415578 0.159815
124 1 1.00719 0.42396 0.246766
197 1 0.166591 0.337316 0.335692
451 1 0.736133 0.504965 0.0834149
208 1 0.497861 0.414138 0.403428
204 1 0.327408 0.4113 0.417935
125 1 0.161238 0.337276 0.163647
128 1 0.153007 0.440824 0.247106
198 1 0.235435 0.419129 0.320672
509 1 0.14112 0.50728 0.156816
132 1 0.323943 0.404973 0.249058
200 1 0.172391 0.42181 0.412603
131 1 0.407848 0.325116 0.253911
201 1 0.324359 0.334978 0.339265
202 1 0.403391 0.407649 0.334734
135 1 0.58759 0.332435 0.246938
206 1 0.577829 0.407998 0.338465
136 1 0.495485 0.392714 0.254399
33 1 0.319448 0.167271 -0.000787876
209 1 0.671871 0.321281 0.319378
140 1 0.657695 0.415744 0.259065
138 1 0.746307 0.408128 0.164008
139 1 0.757061 0.330029 0.253702
589 1 0.486791 0.487937 0.314966
41 1 0.670951 0.165409 -0.00304479
141 1 0.835088 0.340973 0.157396
142 1 0.913164 0.423055 0.173036
121 1 -0.00572606 0.314091 0.168458
143 1 0.914376 0.33272 0.251296
144 1 0.820299 0.416304 0.27061
187 1 0.760453 0.151757 0.413716
159 1 0.608464 0.00465886 0.42536
146 1 0.0979747 0.0892788 0.334136
152 1 0.16509 0.0956307 0.419859
148 1 0.00596834 0.0885395 0.419193
93 1 0.837436 -0.00939424 0.182255
192 1 0.831442 0.232869 0.410684
175 1 0.237269 0.165526 0.412786
523 1 0.746499 0.489236 0.248786
585 1 0.327304 0.485633 0.344312
156 1 0.315317 0.0940703 0.425946
160 1 0.519365 0.080153 0.415735
161 1 0.674295 0.00749076 0.329526
158 1 0.587097 0.0749322 0.332322
190 1 0.913089 0.259053 0.337894
181 1 0.501816 0.175965 0.335649
184 1 0.491333 0.243388 0.418203
194 1 0.0823428 0.427393 0.330367
162 1 0.770629 0.0921235 0.322953
164 1 0.678875 0.0854874 0.40653
168 1 0.834314 0.0750912 0.41566
193 1 0.0112226 0.337176 0.332516
196 1 1.00658 0.424572 0.407606
166 1 0.933303 0.0832399 0.330674
191 1 0.908552 0.161801 0.410051
172 1 1.01854 0.259745 0.412995
195 1 0.0948404 0.33683 0.409995
171 1 0.0936383 0.179015 0.425335
170 1 0.0958346 0.255858 0.33405
188 1 0.670466 0.252645 0.418925
183 1 0.592295 0.172615 0.403381
176 1 0.166133 0.246757 0.419831
199 1 0.246103 0.329486 0.412286
595 1 0.744802 0.497585 0.418555
169 1 0.0261413 0.165387 0.337534
178 1 0.404845 0.24574 0.339009
179 1 0.412448 0.174625 0.413214
180 1 0.328139 0.261559 0.4241
203 1 0.417595 0.327704 0.417894
435 1 0.0582394 0.513861 0.0891721
17 1 0.665217 0.00155855 0.0113979
46 1 0.905247 0.235291 -0.0187579
661 1 0.498282 0.496434 0.496471
13 1 0.49006 0.00374133 0.00422726
163 1 0.755946 -0.00627334 0.399398
145 1 0.00364139 0.00913121 0.353219
519 1 0.580618 0.489181 0.254766
91 1 0.752476 0.0109208 0.251741
282 1 0.750407 0.420826 0.498001
53 1 0.171547 0.335555 -0.00331549
149 1 0.151 -0.00457499 0.323434
591 1 0.571534 0.490977 0.412925
599 1 0.927176 0.507719 0.408292
153 1 0.317715 0.0131873 0.340974
155 1 0.410949 0.0129171 0.415102
246 1 0.259708 0.254192 0.498183
225 1 0.342555 0.0104136 0.490494
58 1 0.404796 0.410197 0.00881875
66 1 0.743609 0.426531 -0.00151465
433 1 0.978426 0.493178 0.00138368
218 1 0.0865952 0.104263 0.503484
270 1 0.256497 0.415471 0.507434
278 1 0.569006 0.404457 0.484698
217 1 0.996105 0.0114914 0.501474
54 1 0.247603 0.420213 0.0081297
57 1 0.32323 0.335438 0.0142974
258 1 0.768564 0.258524 0.497871
249 1 0.326217 0.175314 0.507441
49 1 0.995875 0.339727 0.00428511
18 1 0.753389 0.0701228 0.0125616
441 1 0.314472 0.497445 0.0156916
70 1 0.903538 0.409581 0.00112162
30 1 0.226371 0.256781 0.0119566
241 1 -0.00601541 0.183825 0.488955
37 1 0.510129 0.159964 0.00401954
266 1 0.0881759 0.419439 0.493699
6 1 0.25412 0.0717017 0.00697296
61 1 0.484495 0.331157 0.0123873
62 1 0.580142 0.416744 0.00649831
262 1 0.921094 0.260962 0.48673
224 1 0.163293 0.0870063 0.594314
317 1 0.166221 0.168577 0.664909
293 1 0.165747 -0.00701527 0.653763
247 1 0.253459 0.158018 0.600719
228 1 0.33321 0.0981629 0.588266
294 1 0.25745 0.0748568 0.673995
227 1 0.413216 0.00469319 0.586474
801 1 0.344621 0.493701 0.832396
667 1 0.734757 0.509214 0.580784
251 1 0.414683 0.164721 0.595826
412 1 0.990098 0.425474 0.91775
298 1 0.428676 0.0723601 0.67562
232 1 0.517467 0.0611014 0.572922
236 1 0.681434 0.0812378 0.589013
809 1 0.674245 0.503511 0.80862
302 1 0.590296 0.072612 0.657316
257 1 0.686184 0.166419 0.494057
306 1 0.760889 0.0867268 0.67224
329 1 0.68498 0.171178 0.662986
259 1 0.772365 0.174717 0.581107
242 1 0.0896935 0.256216 0.499872
220 1 0.00460547 0.0778137 0.583549
240 1 0.825528 0.0789523 0.584688
263 1 0.934743 0.165428 0.597091
333 1 0.839553 0.158333 0.666537
426 1 0.735182 0.420185 0.83006
2 1 0.091678 0.0757076 0.994392
243 1 0.0728052 0.165033 0.590285
267 1 0.0847218 0.3288 0.583159
248 1 0.176092 0.261657 0.582621
341 1 0.175762 0.346733 0.656465
244 1 1.01328 0.247706 0.589053
271 1 0.256286 0.343375 0.595783
252 1 0.332247 0.245174 0.595379
256 1 0.496164 0.26007 0.597421
275 1 0.424157 0.353821 0.582449
322 1 0.420042 0.253234 0.668186
727 1 0.268711 0.491086 0.75737
255 1 0.581461 0.155361 0.572469
279 1 0.588659 0.327773 0.579121
307 1 0.75194 -0.0120807 0.758805
260 1 0.684259 0.250038 0.577785
283 1 0.754403 0.341764 0.581444
311 1 0.904274 0.00212996 0.755542
725 1 0.1582 0.496198 0.662882
264 1 0.850031 0.250969 0.581366
313 1 1.00317 0.161623 0.68389
303 1 0.586484 0.00364658 0.753872
432 1 0.808226 0.420909 0.909719
272 1 0.151473 0.415385 0.585512
733 1 0.502952 0.494346 0.676964
268 1 0.998963 0.429856 0.571342
342 1 0.265083 0.429002 0.664636
276 1 0.330326 0.436865 0.574144
25 1 -0.00500554 0.172366 0.997811
219 1 0.0864614 0.00438716 0.584434
346 1 0.427598 0.407919 0.671733
297 1 0.34341 -0.000178929 0.670117
803 1 0.403935 0.489719 0.940411
280 1 0.508366 0.409643 0.580099
284 1 0.652839 0.417794 0.569366
651 1 0.082462 0.505444 0.568571
721 1 -0.00298705 0.504226 0.676626
354 1 0.758646 0.415439 0.66137
26 1 0.0861418 0.246119 1.00565
65 1 0.678732 0.332628 1.00712
287 1 0.919932 0.337395 0.575894
365 1 0.165186 0.00581928 0.833452
239 1 0.922407 0.00650989 0.584642
288 1 0.836406 0.421563 0.566955
367 1 0.263614 0.00541933 0.908098
428 1 0.663 0.409995 0.920096
290 1 0.0880197 0.0737916 0.673448
296 1 0.167869 0.0627399 0.748154
292 1 0.983728 0.0825204 0.758329
389 1 0.172146 0.151196 0.818906
319 1 0.255064 0.163565 0.740165
300 1 0.349722 0.0821476 0.743413
393 1 0.349817 0.154021 0.835797
321 1 0.333945 0.171955 0.670703
323 1 0.427464 0.168136 0.753993
370 1 0.428588 0.0825867 0.849012
304 1 0.502643 0.0804873 0.754553
374 1 0.586117 0.0782021 0.838929
308 1 0.669477 0.08872 0.744037
397 1 0.508272 0.165796 0.833614
735 1 0.583748 0.50364 0.746705
655 1 0.233892 0.50019 0.583968
378 1 0.757933 0.0676508 0.832359
312 1 0.82917 0.0861313 0.75229
331 1 0.768213 0.171631 0.745275
230 1 0.612614 0.082481 0.503133
310 1 0.918925 0.0769664 0.680386
388 1 0.996769 0.265755 0.916064
408 1 0.823013 0.247235 0.910565
314 1 0.0972605 0.260435 0.677642
315 1 0.0958831 0.166831 0.750929
339 1 0.0946899 0.336005 0.74625
320 1 0.177807 0.258194 0.7532
409 1 -0.00281838 0.342576 0.846155
318 1 0.244255 0.245689 0.672371
343 1 0.245971 0.351959 0.739815
413 1 0.160139 0.338136 0.842028
417 1 0.338109 0.332859 0.834376
390 1 0.25889 0.238493 0.82688
324 1 0.334086 0.268416 0.752101
328 1 0.509959 0.246836 0.741236
349 1 0.502634 0.333021 0.669114
347 1 0.421427 0.31855 0.763682
326 1 0.58623 0.245127 0.648986
325 1 0.505901 0.153697 0.663616
327 1 0.593987 0.166406 0.741623
332 1 0.676615 0.244808 0.751351
351 1 0.578059 0.344246 0.741084
398 1 0.597145 0.237156 0.823059
330 1 0.762769 0.258954 0.655169
405 1 0.824048 0.168191 0.83498
402 1 0.74343 0.250234 0.828856
334 1 0.92064 0.26423 0.679086
335 1 0.910094 0.15638 0.771225
336 1 0.837139 0.258391 0.746959
316 1 0.00902668 0.255201 0.747056
406 1 0.918376 0.255129 0.828733
359 1 0.927202 0.334193 0.753528
337 1 0.998846 0.333662 0.66916
338 1 0.0735727 0.411597 0.666539
410 1 0.069624 0.414935 0.824542
424 1 0.498471 0.417555 0.929816
431 1 0.90889 0.342683 0.923007
344 1 0.163867 0.420527 0.745225
348 1 0.341862 0.403584 0.752734
345 1 0.33837 0.335188 0.664044
352 1 0.508279 0.417653 0.766997
350 1 0.576085 0.419032 0.660451
418 1 0.420406 0.417978 0.856123
422 1 0.593642 0.432128 0.821554
429 1 0.839016 0.338912 0.829895
425 1 0.649355 0.333264 0.822458
353 1 0.651624 0.335721 0.66813
356 1 0.677114 0.419602 0.741766
355 1 0.752788 0.335741 0.746468
360 1 0.851468 0.41843 0.748324
430 1 0.908726 0.427985 0.83272
357 1 0.84407 0.341732 0.662123
358 1 0.915337 0.426695 0.656666
340 1 0.991226 0.418693 0.745623
362 1 0.0829975 0.0832948 0.828499
663 1 0.580478 0.509007 0.573554
368 1 0.18426 0.0699722 0.920014
420 1 0.329245 0.412782 0.917143
366 1 0.267235 0.0748626 0.81414
391 1 0.247785 0.161324 0.911217
415 1 0.262247 0.303291 0.919301
29 1 0.174332 0.161357 0.995909
377 1 0.670478 0.0069117 0.833155
372 1 0.342586 0.0798844 0.925184
395 1 0.435089 0.17209 0.921161
414 1 0.248463 0.415929 0.837419
69 1 0.82657 0.330475 0.99973
376 1 0.511646 0.0727979 0.926986
380 1 0.66367 0.0781658 0.913079
419 1 0.412883 0.322366 0.929596
401 1 0.673866 0.171721 0.822527
403 1 0.752101 0.156617 0.921751
384 1 0.817288 0.0799724 0.92535
371 1 0.430338 -0.00502673 0.909443
404 1 0.667332 0.23539 0.917575
399 1 0.577985 0.173957 0.919252
385 1 -0.000924572 0.165162 0.835192
364 1 -5.13119e-05 0.0804236 0.912084
382 1 0.895863 0.0745499 0.845278
407 1 0.921957 0.163458 0.914545
416 1 0.167239 0.426918 0.922802
386 1 0.0708932 0.249374 0.842329
427 1 0.745541 0.324267 0.91407
411 1 0.0851626 0.340273 0.933526
387 1 0.0974575 0.144164 0.91253
729 1 0.359152 0.489904 0.67352
396 1 0.341164 0.235847 0.917625
392 1 0.153583 0.249589 0.916182
423 1 0.593877 0.332669 0.915939
394 1 0.426769 0.237592 0.8321
421 1 0.515137 0.330635 0.832333
400 1 0.505327 0.258823 0.92869
34 1 0.420709 0.240025 1.00514
234 1 0.759934 0.0677757 0.491108
253 1 0.496561 0.179898 0.499135
261 1 0.839801 0.166603 0.491797
42 1 0.752275 0.247406 0.994353
269 1 0.168505 0.353778 0.493519
50 1 0.0761309 0.438636 0.987322
245 1 0.170785 0.173125 0.504498
238 1 0.921331 0.0859901 0.511112
265 1 0.0124367 0.334948 0.487641
226 1 0.425574 0.0853432 0.512969
281 1 0.678954 0.326126 0.498461
38 1 0.592944 0.259635 1.01077
22 1 0.926757 0.079363 1.00291
222 1 0.247718 0.0991697 0.512573
277 1 0.492849 0.3292 0.506694
45 1 0.829483 0.164021 0.999841
436 1 0.979604 0.588557 0.08762
440 1 0.146451 0.57852 0.0848875
459 1 0.0747665 0.668078 0.063712
507 1 0.0711825 0.501841 0.256163
501 1 0.822631 0.836988 -0.00918869
11 1 0.414879 0.996259 0.0893895
444 1 0.328301 0.582532 0.084164
517 1 0.493868 0.494394 0.184196
510 1 0.231101 0.572144 0.168917
448 1 0.497689 0.583726 0.084708
537 1 0.321069 0.663777 0.181352
648 1 0.84117 0.919065 0.407633
518 1 0.569892 0.578565 0.184627
87 1 0.594043 1.00179 0.246919
7 1 0.25145 0.989656 0.101354
452 1 0.666416 0.599798 0.0852711
475 1 0.759062 0.667659 0.07336
549 1 0.822614 0.677713 0.168052
9 1 0.329307 0.992315 0.014469
657 1 0.333561 0.495645 0.489516
456 1 0.820916 0.583826 0.0835129
646 1 0.929175 0.922022 0.345169
647 1 0.925109 0.825979 0.416494
460 1 0.985404 0.742835 0.0853612
483 1 0.0885845 0.8324 0.0817661
464 1 0.162676 0.746085 0.0849827
463 1 0.254811 0.654999 0.0744663
534 1 0.24834 0.741767 0.154767
468 1 0.323568 0.734873 0.0782787
487 1 0.26026 0.829021 0.0894734
525 1 0.823784 0.497688 0.164908
467 1 0.417852 0.657509 0.0910098
491 1 0.418386 0.824382 0.0950274
541 1 0.504081 0.680078 0.16213
545 1 0.662438 0.668136 0.175513
472 1 0.497792 0.7529 0.0823558
471 1 0.586962 0.68621 0.0967266
542 1 0.583744 0.765435 0.173941
476 1 0.66278 0.761627 0.0946848
15 1 0.58792 1.01174 0.0987986
499 1 0.74801 0.842543 0.0922867
546 1 0.73784 0.755425 0.170932
19 1 0.746644 0.994229 0.0875735
494 1 0.572654 0.92021 0.00236216
479 1 0.903036 0.664492 0.0909426
229 1 0.491466 0.993822 0.487114
480 1 0.829793 0.759487 0.0979933
503 1 0.91557 0.837252 0.0939103
670 1 0.91593 0.592336 0.4943
23 1 0.912594 0.987024 0.0768587
642 1 0.745587 0.918353 0.31546
167 1 0.917077 0.991841 0.428955
83 1 0.396833 0.970926 0.260563
498 1 0.743404 0.924612 0.00923149
593 1 0.65299 0.488284 0.331574
488 1 0.160059 0.914459 0.0949577
644 1 0.666017 0.915809 0.406569
511 1 0.236649 0.49395 0.247429
640 1 0.515398 0.899879 0.418233
561 1 0.325242 0.807588 0.171638
489 1 0.338274 0.836415 -0.00226757
492 1 0.346118 0.908643 0.0855585
685 1 0.501098 0.656847 0.502043
649 1 0.994283 0.499037 0.496964
495 1 0.586137 0.834864 0.0854241
565 1 0.499393 0.834702 0.181654
496 1 0.501878 0.909858 0.0969028
566 1 0.57626 0.920757 0.172528
500 1 0.660812 0.919346 0.0851629
638 1 0.578355 0.913824 0.33279
673 1 0.99104 0.674813 0.491931
484 1 0.995924 0.918319 0.0766078
504 1 0.834227 0.90368 0.0873451
506 1 0.0696012 0.583944 0.175597
508 1 0.99811 0.601885 0.254926
531 1 0.0912156 0.659714 0.24595
512 1 0.158645 0.575568 0.253492
516 1 0.317778 0.574469 0.254675
605 1 0.151701 0.667497 0.332769
514 1 0.403203 0.586083 0.165754
586 1 0.396268 0.590219 0.329905
505 1 0.988564 0.511919 0.181809
520 1 0.483675 0.578417 0.252417
543 1 0.583588 0.671526 0.249694
613 1 0.512358 0.657928 0.33553
590 1 0.578181 0.572029 0.342123
522 1 0.752426 0.589897 0.179557
524 1 0.661223 0.589546 0.262125
528 1 0.821487 0.572268 0.249009
526 1 0.8897 0.584569 0.159855
529 1 0.979996 0.660865 0.172848
551 1 0.898953 0.649121 0.244621
466 1 0.4169 0.742914 -0.0014329
530 1 0.0711138 0.732533 0.15552
536 1 0.162932 0.748247 0.257348
555 1 0.0806099 0.828039 0.238222
532 1 0.0139572 0.741637 0.241331
557 1 0.171281 0.817446 0.16109
533 1 0.177396 0.663808 0.155987
535 1 0.240834 0.670534 0.261001
606 1 0.237866 0.759731 0.343544
538 1 0.414408 0.748129 0.184787
539 1 0.406933 0.662169 0.257872
540 1 0.33046 0.747458 0.267921
563 1 0.414489 0.826266 0.253975
544 1 0.501509 0.748189 0.249996
567 1 0.579825 0.839958 0.252886
547 1 0.753564 0.682501 0.250181
548 1 0.667019 0.745756 0.269268
550 1 0.916161 0.746537 0.169466
553 1 1.00246 0.836719 0.150492
552 1 0.83787 0.759505 0.244472
575 1 0.921696 0.831949 0.25535
601 1 0.00453852 0.67781 0.324754
434 1 0.044634 0.578757 0.00693434
554 1 0.0770736 0.922661 0.165662
629 1 0.173463 0.846983 0.324847
713 1 0.678503 0.854741 0.48812
559 1 0.249206 0.823465 0.255186
558 1 0.255105 0.906404 0.169168
560 1 0.170103 0.920117 0.238678
564 1 0.330552 0.898742 0.260601
562 1 0.408891 0.902106 0.173957
633 1 0.342696 0.829869 0.347361
634 1 0.423758 0.91202 0.358187
569 1 0.659397 0.844745 0.171244
632 1 0.171269 0.919433 0.410192
568 1 0.499094 0.913595 0.256172
95 1 0.936164 0.994311 0.270469
570 1 0.748808 0.92209 0.174974
521 1 0.66893 0.521291 0.161231
572 1 0.657247 0.907516 0.254552
571 1 0.741483 0.830846 0.24912
573 1 0.823556 0.846525 0.174328
574 1 0.929936 0.923625 0.160969
556 1 -0.000326153 0.901441 0.232395
576 1 0.851185 0.920224 0.272807
439 1 0.22896 0.505147 0.0829623
578 1 0.0816214 0.583418 0.335915
690 1 0.749406 0.758781 0.506209
442 1 0.408517 0.575652 0.00415008
497 1 0.663507 0.836724 0.0039553
609 1 0.31952 0.673216 0.332854
584 1 0.148543 0.581567 0.412458
582 1 0.254431 0.591875 0.336919
611 1 0.422962 0.661167 0.402914
588 1 0.333553 0.590552 0.42572
626 1 0.0783551 0.914629 0.311897
615 1 0.575357 0.675377 0.412357
592 1 0.491325 0.580648 0.408383
579 1 0.07749 0.49789 0.410789
596 1 0.669539 0.578758 0.409344
594 1 0.747813 0.579308 0.330767
600 1 0.814913 0.581826 0.42184
580 1 1.00072 0.58895 0.410471
598 1 0.913949 0.578334 0.330578
623 1 0.901974 0.67199 0.422987
603 1 0.085981 0.673699 0.420842
604 1 0.00534786 0.74764 0.417595
602 1 0.0887054 0.756833 0.34338
627 1 0.0838248 0.842421 0.414916
608 1 0.159494 0.754562 0.423267
625 1 0.00917299 0.824812 0.328537
631 1 0.249624 0.841466 0.409492
612 1 0.316744 0.742394 0.411562
607 1 0.247523 0.668333 0.416707
630 1 0.246864 0.924365 0.321807
81 1 0.3313 0.990033 0.168629
610 1 0.407287 0.752601 0.340165
637 1 0.497715 0.815808 0.330094
635 1 0.427345 0.8339 0.428056
616 1 0.493261 0.746264 0.421319
515 1 0.389264 0.506367 0.240228
641 1 0.672765 0.837219 0.331376
614 1 0.580235 0.753396 0.337105
620 1 0.662221 0.74139 0.435016
639 1 0.598508 0.831229 0.415757
636 1 0.329166 0.927098 0.421208
617 1 0.663166 0.67145 0.347503
643 1 0.756756 0.833864 0.405487
619 1 0.763359 0.668958 0.407488
618 1 0.7493 0.748689 0.344075
645 1 0.845032 0.829533 0.338875
622 1 0.917601 0.738977 0.330257
624 1 0.829632 0.748858 0.416794
621 1 0.823898 0.653966 0.327263
628 1 0.0190795 0.922274 0.408319
3 1 0.0822981 0.997815 0.0722882
493 1 0.488213 0.827824 0.0133117
583 1 0.254722 0.509308 0.416114
75 1 0.0620419 0.9983 0.243731
89 1 0.672294 0.99738 0.1746
513 1 0.31863 0.499946 0.158583
447 1 0.583912 0.49711 0.0901424
79 1 0.241695 1.00518 0.24751
157 1 0.504748 0.993498 0.333817
714 1 0.760287 0.929921 0.476167
449 1 0.668398 0.50579 0.00371054
662 1 0.577218 0.588194 0.472561
693 1 0.823674 0.666351 0.500469
469 1 0.499978 0.663547 0.00884567
462 1 0.235964 0.741844 0.00734877
653 1 0.166779 0.50397 0.481303
717 1 0.83714 0.838228 0.485465
694 1 0.908386 0.762148 0.500581
221 1 0.166564 1.00624 0.511604
702 1 0.255544 0.910231 0.494335
5 1 0.170511 0.992364 0.000492845
650 1 0.0636636 0.584471 0.497635
665 1 0.649302 0.497726 0.496439
718 1 0.923772 0.910239 0.503467
710 1 0.588584 0.918427 0.491151
481 1 0.999241 0.827832 -0.00174143
674 1 0.096189 0.758888 0.500471
697 1 -0.00640349 0.830656 0.497742
478 1 0.899445 0.747422 0.00765368
658 1 0.407405 0.577542 0.510909
490 1 0.423414 0.917393 0.00733623
474 1 0.737 0.759253 0.00680059
682 1 0.410298 0.732182 0.50233
675 1 0.0658573 0.658583 0.568828
722 1 0.0807539 0.580174 0.669706
652 1 1.00486 0.579831 0.599734
815 1 0.895068 0.480699 0.917162
656 1 0.152239 0.570897 0.56945
726 1 0.253393 0.576125 0.675934
679 1 0.257513 0.683691 0.568224
753 1 0.339533 0.670771 0.656503
660 1 0.329435 0.558568 0.594746
664 1 0.509009 0.586896 0.599937
1 1 0.00322382 1.00727 0.983238
383 1 0.917155 0.99952 0.912555
739 1 0.741594 0.515508 0.734673
301 1 0.510552 0.993344 0.675502
486 1 0.253082 0.897611 1.00461
668 1 0.65517 0.585097 0.565929
734 1 0.579606 0.586694 0.679179
799 1 0.255108 0.492552 0.917211
705 1 0.338745 0.829928 0.495525
672 1 0.827944 0.575295 0.572862
691 1 0.748713 0.674457 0.578566
738 1 0.734881 0.597744 0.662041
765 1 0.828883 0.655213 0.647341
844 1 -0.00055915 0.923383 0.92363
813 1 0.826234 0.497159 0.826541
723 1 0.0783226 0.501906 0.750711
742 1 0.904687 0.587947 0.658394
361 1 -0.00638004 1.00429 0.828176
695 1 0.939151 0.657488 0.588072
379 1 0.74042 1.00758 0.919769
458 1 0.0873793 0.75192 0.98875
795 1 0.0786534 0.50442 0.897276
746 1 0.0869923 0.748027 0.645729
676 1 0.991447 0.756845 0.573419
769 1 -0.00412352 0.833073 0.670093
749 1 0.17448 0.650465 0.646311
680 1 0.179296 0.765431 0.581085
684 1 0.340703 0.755401 0.588921
683 1 0.423518 0.668164 0.584057
757 1 0.499782 0.678725 0.663848
688 1 0.505511 0.746482 0.585261
741 1 0.828934 0.503785 0.661395
687 1 0.594086 0.670087 0.578832
711 1 0.599071 0.859154 0.587649
678 1 0.24283 0.775626 0.4906
758 1 0.590947 0.759171 0.660872
785 1 0.680855 0.844736 0.665369
692 1 0.677525 0.768717 0.585852
696 1 0.848918 0.73506 0.581251
659 1 0.440804 0.510911 0.592023
295 1 0.255842 0.992074 0.740774
454 1 0.913354 0.575265 1.01394
719 1 0.921753 0.836011 0.582871
766 1 0.90692 0.730569 0.67868
699 1 0.0843861 0.843508 0.581664
704 1 0.193588 0.929384 0.579417
700 1 0.997483 0.917027 0.579361
770 1 0.0892061 0.926676 0.656147
373 1 0.513036 0.998175 0.837701
703 1 0.258967 0.831421 0.58097
708 1 0.336697 0.914164 0.564932
863 1 0.905328 0.815084 0.922562
737 1 0.654036 0.509021 0.657723
445 1 0.51411 0.519295 0.993202
707 1 0.42782 0.83584 0.571956
781 1 0.51313 0.841576 0.652324
461 1 0.165352 0.661884 1.00884
811 1 0.720908 0.491244 0.908173
712 1 0.503634 0.947934 0.587554
716 1 0.694389 0.912097 0.579137
305 1 0.673382 0.998374 0.67873
437 1 0.157002 0.517532 0.983297
715 1 0.775729 0.830767 0.594489
363 1 0.0960555 0.993524 0.920241
231 1 0.606433 0.989919 0.580639
720 1 0.852993 0.921912 0.58986
790 1 0.913379 0.924641 0.675716
789 1 0.842549 0.831777 0.67705
794 1 0.0878681 0.589065 0.823245
747 1 0.11073 0.658434 0.734304
728 1 0.183355 0.576508 0.754573
828 1 0.332531 0.76569 0.910566
864 1 0.820136 0.918644 0.915872
732 1 0.355462 0.582473 0.739175
798 1 0.279992 0.57577 0.832441
706 1 0.418504 0.916802 0.492889
730 1 0.428389 0.589405 0.663282
736 1 0.492772 0.578445 0.745175
755 1 0.408056 0.68112 0.752498
731 1 0.427301 0.491987 0.757773
860 1 0.672224 0.919387 0.915745
761 1 0.658037 0.666113 0.6705
740 1 0.659846 0.594782 0.756226
806 1 0.56942 0.574525 0.82159
759 1 0.579807 0.677127 0.744379
851 1 0.428463 0.840382 0.905752
841 1 1.00835 0.837145 0.828363
842 1 0.0866611 0.916374 0.835813
857 1 0.668641 0.837953 0.837636
744 1 0.829503 0.578868 0.740881
724 1 0.00744068 0.588307 0.752791
859 1 0.739369 0.831209 0.91282
745 1 0.00743228 0.669751 0.675492
818 1 0.0811352 0.737161 0.827508
752 1 0.176819 0.748484 0.75645
821 1 0.176325 0.668217 0.834121
750 1 0.252873 0.74646 0.662642
751 1 0.259632 0.663407 0.743247
756 1 0.343917 0.760357 0.743386
777 1 0.348053 0.840286 0.667553
822 1 0.249058 0.758612 0.836833
849 1 0.355382 0.835139 0.819964
754 1 0.423213 0.765703 0.658502
826 1 0.426804 0.746389 0.836253
760 1 0.503708 0.763304 0.735174
764 1 0.664195 0.745181 0.738883
783 1 0.597631 0.830243 0.748535
830 1 0.570025 0.744075 0.831134
763 1 0.74752 0.676002 0.744374
762 1 0.757671 0.745144 0.663393
834 1 0.761902 0.753427 0.833468
787 1 0.748817 0.828846 0.757999
817 1 0.994802 0.668124 0.849709
767 1 0.918108 0.654942 0.749844
768 1 0.836468 0.734828 0.75983
748 1 -0.0190363 0.745268 0.76565
838 1 0.909691 0.738854 0.84058
771 1 0.0913725 0.829706 0.756736
855 1 0.557767 0.834846 0.923227
773 1 0.16623 0.839183 0.650674
776 1 0.164568 0.91197 0.760598
774 1 0.273903 0.92528 0.6544
775 1 0.254068 0.846423 0.747432
780 1 0.342211 0.915292 0.743029
827 1 0.408239 0.677025 0.911612
778 1 0.43092 0.911817 0.669249
779 1 0.420113 0.837773 0.746515
784 1 0.5068 0.925432 0.751963
836 1 0.648364 0.764017 0.922191
856 1 0.501075 0.923331 0.930874
854 1 0.580734 0.91542 0.842298
782 1 0.592348 0.920758 0.67302
853 1 0.498597 0.844428 0.822618
820 1 1.0072 0.755423 0.911783
858 1 0.743941 0.914525 0.830928
786 1 0.768544 0.908923 0.668085
788 1 0.663741 0.919844 0.761149
862 1 0.910432 0.899753 0.843126
861 1 0.838186 0.826356 0.844027
792 1 0.838995 0.896782 0.764085
791 1 0.919885 0.823642 0.748006
772 1 0.991965 0.914934 0.751968
796 1 0.988305 0.573728 0.914596
800 1 0.178927 0.583472 0.908126
832 1 0.504509 0.75287 0.909545
831 1 0.568522 0.655612 0.902723
804 1 0.331786 0.578763 0.924766
823 1 0.268282 0.66154 0.903193
843 1 0.0886724 0.829037 0.908482
848 1 0.185537 0.923115 0.917401
802 1 0.401952 0.584187 0.835194
850 1 0.421878 0.913945 0.842455
808 1 0.479537 0.594629 0.921688
833 1 0.669967 0.686448 0.832481
846 1 0.259544 0.924923 0.83917
840 1 0.829532 0.729742 0.933401
810 1 0.744265 0.578983 0.827274
812 1 0.655081 0.591834 0.908414
835 1 0.736239 0.685588 0.91236
852 1 0.332601 0.91599 0.915042
369 1 0.349793 1.00867 0.824016
837 1 0.836933 0.657839 0.833127
814 1 0.915052 0.573666 0.827837
816 1 0.82874 0.567825 0.913784
829 1 0.492381 0.662141 0.823277
845 1 0.166792 0.843254 0.839206
819 1 0.0949103 0.6555 0.923876
824 1 0.168131 0.749825 0.917111
839 1 0.907034 0.660694 0.919847
847 1 0.259789 0.842953 0.910423
825 1 0.335918 0.675467 0.825337
233 1 0.681823 0.998319 0.513053
701 1 0.162139 0.847058 0.490748
485 1 0.170972 0.833584 0.993812
805 1 0.486324 0.503491 0.848372
299 1 0.4268 0.999108 0.749397
482 1 0.085233 0.911723 1.00641
698 1 0.0738765 0.925328 0.498341
375 1 0.590099 0.997758 0.922234
743 1 0.912019 0.507145 0.7375
291 1 0.0744783 0.984528 0.754604
289 1 -0.000163246 0.997911 0.675952
309 1 0.836968 1.00522 0.664329
793 1 0.992228 0.489469 0.823746
807 1 0.592351 0.497137 0.916993
477 1 0.829836 0.64133 0.992077
797 1 0.174405 0.492699 0.82609
671 1 0.913062 0.512444 0.585432
235 1 0.750811 0.997832 0.590183
677 1 0.165543 0.673605 0.499186
381 1 0.831629 0.99037 0.834596
438 1 0.255376 0.593043 0.992
223 1 0.267236 1.01122 0.569782
689 1 0.664268 0.66115 0.490529
453 1 0.825358 0.500966 1.00511
666 1 0.750647 0.574005 0.501214
21 1 0.831106 0.997331 0.993594
473 1 0.664675 0.682644 1.00858
237 1 0.840738 0.997548 0.498869
470 1 0.571695 0.764543 1.01007
450 1 0.731387 0.582561 0.97981
502 1 0.911567 0.917051 0.987051
686 1 0.603179 0.75586 0.518146
681 1 0.333084 0.661257 0.497164
465 1 0.349933 0.668008 1.00219
457 1 0.991733 0.679718 0.989117
709 1 0.511402 0.834487 0.508702
654 1 0.246241 0.585402 0.496874
446 1 0.594183 0.590017 1.00707
