ITEM: TIMESTEP
26250
ITEM: NUMBER OF ATOMS
864
ITEM: BOX BOUNDS pp pp pp
0.0000000000000000e+00 3.1559999999999999e+01
0.0000000000000000e+00 3.1559999999999999e+01
0.0000000000000000e+00 3.1559999999999999e+01
ITEM: ATOMS id type xs ys zs
74 1 0.0768694 0.0775053 0.154818
27 1 0.0859422 0.170561 0.0727461
4 1 0.993502 0.0911623 0.0718578
97 1 0.00406055 0.162842 0.153021
282 1 0.743882 0.423131 0.498778
8 1 0.166783 0.0940793 0.0826711
78 1 0.259387 0.0930404 0.166583
7 1 0.267243 0.0115984 0.0864136
12 1 0.338761 0.103555 0.0892431
82 1 0.424739 0.0852637 0.18377
25 1 1.00573 0.173633 0.0012867
16 1 0.505152 0.0910422 0.0718195
86 1 0.58941 0.0628539 0.156498
109 1 0.514483 0.177112 0.175623
527 1 0.923707 0.498586 0.260916
579 1 0.080253 0.507439 0.421672
20 1 0.667023 0.0761908 0.0879855
113 1 0.655283 0.158912 0.167866
90 1 0.737583 0.0797307 0.173165
46 1 0.890415 0.239516 0.00681959
24 1 0.844025 0.0817467 0.0836242
94 1 0.919984 0.0804436 0.158728
28 1 0.996141 0.247018 0.0757362
51 1 0.0764647 0.330902 0.0892807
217 1 0.988882 0.00869607 0.505643
81 1 0.339353 0.0134144 0.166332
443 1 0.414783 0.486584 0.083963
31 1 0.241221 0.170567 0.0778233
32 1 0.161688 0.248501 0.0949129
55 1 0.23634 0.335821 0.0965953
521 1 0.683688 0.500753 0.178663
105 1 0.338319 0.164708 0.179078
35 1 0.431354 0.191728 0.0949819
36 1 0.338323 0.257965 0.092218
129 1 0.320769 0.321506 0.184775
39 1 0.591239 0.162576 0.0737082
40 1 0.510825 0.257203 0.0953625
44 1 0.668265 0.244148 0.0910873
43 1 0.740242 0.170756 0.0971386
117 1 0.829953 0.150574 0.17261
67 1 0.737852 0.329886 0.0840516
48 1 0.833081 0.244984 0.095234
47 1 0.90604 0.158875 0.086868
71 1 0.914376 0.330007 0.0926719
118 1 0.929901 0.233986 0.17577
585 1 0.327074 0.499847 0.327477
147 1 0.0853629 -0.00345685 0.414134
95 1 0.904145 0.00939174 0.235006
19 1 0.751224 -0.00142301 0.0945919
56 1 0.170749 0.415455 0.0950367
60 1 0.319435 0.42297 0.105522
265 1 -0.00234605 0.328787 0.495623
583 1 0.239355 0.507179 0.416022
59 1 0.415358 0.341568 0.0890295
130 1 0.403126 0.409638 0.174606
73 1 0.996733 0.00149907 0.147877
63 1 0.594596 0.340085 0.0804767
11 1 0.409786 0.0093984 0.0861338
64 1 0.500865 0.421625 0.0737289
215 1 0.920858 0.309956 0.418876
137 1 0.65957 0.330985 0.169676
134 1 0.571578 0.428183 0.168951
218 1 0.0958527 0.0944446 0.490746
68 1 0.672467 0.414183 0.0690495
72 1 0.829463 0.425474 0.0976234
505 1 1.00642 0.49106 0.167899
18 1 0.743633 0.0728801 -0.00188237
145 1 0.995687 0.00724134 0.337558
196 1 1.00355 0.424345 0.419797
52 1 -0.00766918 0.402987 0.0711117
587 1 0.416144 0.503606 0.420695
191 1 0.918498 0.167833 0.416039
193 1 0.00815169 0.324338 0.333526
80 1 0.160261 0.083371 0.238008
101 1 0.173319 0.165883 0.169276
103 1 0.24972 0.156475 0.25108
150 1 0.251108 0.0831593 0.335947
84 1 0.337152 0.0900659 0.258664
154 1 0.416918 0.0876935 0.336501
181 1 0.494553 0.17289 0.329474
88 1 0.515652 0.0832332 0.263092
111 1 0.590188 0.17131 0.255614
185 1 0.672165 0.175385 0.343049
92 1 0.659445 0.0718532 0.267344
115 1 0.738714 0.176853 0.252699
96 1 0.825259 0.0957756 0.264483
192 1 0.816372 0.241379 0.417475
9 1 0.325003 0.00393777 -0.00648467
242 1 0.078883 0.233891 0.499286
76 1 0.0144082 0.0776002 0.252189
98 1 0.0691897 0.246673 0.15655
121 1 0.993412 0.340098 0.175794
99 1 0.0942507 0.173192 0.236306
123 1 0.0910919 0.333605 0.254397
104 1 0.189774 0.240034 0.254347
100 1 1.01769 0.237832 0.245367
102 1 0.255153 0.24898 0.168979
108 1 0.338923 0.256784 0.264589
106 1 0.428909 0.263408 0.173286
177 1 0.344393 0.173707 0.346989
107 1 0.411802 0.165686 0.245867
178 1 0.414835 0.254609 0.343169
112 1 0.509442 0.251725 0.252233
110 1 0.585172 0.252763 0.171475
114 1 0.763986 0.241508 0.168655
116 1 0.651512 0.260624 0.255819
120 1 0.829726 0.240161 0.266696
141 1 0.837081 0.322793 0.18457
119 1 0.942463 0.147987 0.236209
143 1 0.908017 0.330405 0.25983
190 1 0.919405 0.236171 0.334679
122 1 0.0828109 0.40868 0.182547
194 1 0.0817601 0.425528 0.337562
439 1 0.252506 0.496235 0.0955877
517 1 0.492285 0.49313 0.166076
126 1 0.246482 0.422626 0.179523
125 1 0.171187 0.328819 0.175999
128 1 0.177012 0.407465 0.267498
127 1 0.253818 0.331989 0.270385
198 1 0.240662 0.414453 0.344864
210 1 0.754495 0.415107 0.337237
133 1 0.511217 0.342048 0.162268
131 1 0.41332 0.333138 0.256424
132 1 0.320449 0.416013 0.255205
202 1 0.416023 0.414406 0.33889
205 1 0.500168 0.326532 0.332864
213 1 0.830672 0.33591 0.354741
206 1 0.583081 0.4227 0.341223
135 1 0.5828 0.347404 0.250239
136 1 0.492481 0.408685 0.256867
140 1 0.667724 0.414614 0.25405
139 1 0.74356 0.332954 0.252025
138 1 0.748386 0.405328 0.162568
144 1 0.835925 0.406739 0.24956
209 1 0.668067 0.332159 0.33408
172 1 0.00545518 0.238784 0.412896
214 1 0.9123 0.40452 0.355377
142 1 0.910944 0.413836 0.181016
124 1 1.00548 0.418288 0.252034
211 1 0.73219 0.338513 0.41812
186 1 0.740184 0.253278 0.338538
216 1 0.82426 0.426438 0.413565
146 1 0.0783766 0.0755618 0.342348
171 1 0.101023 0.168909 0.414691
182 1 0.577185 0.254717 0.337703
33 1 0.338598 0.18718 0.0108289
152 1 0.178017 0.0807361 0.406009
156 1 0.334046 0.0727376 0.413543
175 1 0.254693 0.172279 0.410542
160 1 0.513131 0.0841833 0.418804
83 1 0.428037 -0.00194296 0.259084
204 1 0.325883 0.4224 0.41178
435 1 0.0765804 0.48634 0.0813425
212 1 0.661654 0.416154 0.406233
183 1 0.579151 0.173108 0.412817
158 1 0.594566 0.0917959 0.342744
164 1 0.657235 0.0786509 0.426756
200 1 0.17174 0.412421 0.439756
169 1 0.00581062 0.158996 0.326638
189 1 0.819336 0.15799 0.340809
187 1 0.742573 0.156772 0.426664
162 1 0.732613 0.0878968 0.351326
168 1 0.833893 0.0810028 0.413242
207 1 0.587573 0.341584 0.428949
166 1 0.918238 0.0896852 0.339618
148 1 1.00354 0.0857303 0.42028
208 1 0.494991 0.414725 0.424781
184 1 0.500681 0.258248 0.429332
170 1 0.0868099 0.245835 0.322986
195 1 0.0911593 0.346266 0.421582
173 1 0.164067 0.149648 0.323455
197 1 0.153164 0.327552 0.332165
174 1 0.252359 0.249159 0.3384
176 1 0.163917 0.249932 0.417835
180 1 0.326991 0.25151 0.435358
199 1 0.250747 0.333994 0.437618
201 1 0.333194 0.330077 0.341298
179 1 0.425819 0.163116 0.417557
203 1 0.411148 0.339223 0.420451
188 1 0.65632 0.254307 0.41809
507 1 0.0913427 0.496222 0.251643
249 1 0.341812 0.162453 0.489188
591 1 0.571457 0.494716 0.428273
447 1 0.58235 0.498246 0.0734935
85 1 0.497924 -0.00561326 0.162309
13 1 0.502718 0.00133149 0.00264447
451 1 0.749562 0.50396 0.0875494
581 1 0.16496 0.487434 0.333116
597 1 0.835755 0.497734 0.338088
54 1 0.246149 0.42859 0.00392587
286 1 0.906696 0.395127 0.480924
79 1 0.262887 0.00609032 0.260209
509 1 0.153955 0.500382 0.161193
441 1 0.33536 0.485357 0.00353431
58 1 0.421549 0.411969 -0.000328015
273 1 0.329958 0.342398 0.517731
77 1 0.175475 0.000692143 0.167001
221 1 0.158306 0.00585507 0.503286
93 1 0.830195 0.00124187 0.161954
222 1 0.255178 0.0789138 0.496422
34 1 0.429006 0.266778 0.00683366
241 1 -0.00531463 0.166007 0.503786
437 1 0.158478 0.4946 0.01069
41 1 0.669815 0.159211 0.010156
254 1 0.587469 0.262691 0.510585
6 1 0.259414 0.0936015 0.00042275
42 1 0.768807 0.24288 0.00276612
10 1 0.427014 0.0934971 0.00352978
278 1 0.58498 0.418856 0.507467
26 1 0.079426 0.271604 -0.0104271
5 1 0.182411 -0.00888523 0.0213343
250 1 0.418441 0.25522 0.487309
57 1 0.326449 0.343415 0.0193025
69 1 0.835712 0.350698 0.0128542
66 1 0.756347 0.423087 0.00215951
29 1 0.161716 0.184894 0.00166728
226 1 0.417045 0.0871923 0.500325
285 1 0.820629 0.339908 0.488841
1 1 0.00494941 0.00327358 -0.018703
243 1 0.0860436 0.158943 0.583783
224 1 0.158301 0.0742117 0.58807
228 1 0.334416 0.0921019 0.583923
803 1 0.414368 0.503528 0.924852
17 1 0.649033 -0.00327765 1.00286
232 1 0.501868 0.0722698 0.58446
412 1 1.00039 0.408784 0.902938
219 1 0.0690092 0.00509365 0.571536
236 1 0.660871 0.0838995 0.577793
255 1 0.58547 0.152208 0.587242
731 1 0.421366 0.507521 0.737865
655 1 0.25525 0.506196 0.582023
240 1 0.831057 0.0844819 0.575001
306 1 0.755188 0.0965743 0.678896
329 1 0.667463 0.171004 0.67502
220 1 0.987752 0.0872409 0.582337
263 1 0.911942 0.175797 0.587716
432 1 0.825357 0.41629 0.899826
310 1 0.907634 0.0952477 0.675234
735 1 0.590623 0.509156 0.7674
267 1 0.0680708 0.334902 0.576444
248 1 0.15629 0.251776 0.579515
313 1 0.0159082 0.157737 0.667454
247 1 0.242619 0.157009 0.584714
318 1 0.239679 0.246532 0.6516
321 1 0.316419 0.1614 0.664987
651 1 0.0826237 0.50825 0.586978
373 1 0.489669 0.00995494 0.838073
252 1 0.334944 0.242718 0.5822
251 1 0.42506 0.165965 0.567755
223 1 0.246686 -0.0024744 0.56802
671 1 0.910831 0.498304 0.564219
37 1 0.501405 0.175325 1.00425
234 1 0.745196 0.067121 0.501455
256 1 0.492082 0.258996 0.576074
260 1 0.65589 0.253543 0.589371
259 1 0.762563 0.174823 0.582302
264 1 0.833956 0.261953 0.576934
333 1 0.833703 0.178489 0.66727
371 1 0.415124 0.0178633 0.93332
244 1 -0.0036488 0.249132 0.588696
334 1 0.904711 0.251073 0.665888
337 1 0.992281 0.328307 0.665185
287 1 0.921133 0.332651 0.582734
341 1 0.155806 0.333947 0.644754
272 1 0.155054 0.4266 0.587512
427 1 0.758845 0.338465 0.935011
377 1 0.656422 -0.00279158 0.842426
737 1 0.665712 0.513334 0.664951
721 1 0.996813 0.493128 0.653434
271 1 0.245509 0.315472 0.57766
257 1 0.668972 0.176898 0.512921
342 1 0.243124 0.414439 0.652247
275 1 0.413631 0.329537 0.589241
276 1 0.341883 0.428264 0.586408
346 1 0.410249 0.415752 0.665899
426 1 0.749126 0.421214 0.823239
379 1 0.734994 0.000145323 0.912805
279 1 0.589969 0.350748 0.591984
280 1 0.487014 0.436588 0.601344
284 1 0.664985 0.434653 0.584275
230 1 0.571919 0.0957695 0.504868
283 1 0.745689 0.335279 0.597155
354 1 0.745345 0.41303 0.671746
288 1 0.826848 0.429602 0.583242
268 1 0.993308 0.41823 0.566836
793 1 0.999863 0.490991 0.815208
358 1 0.917503 0.419591 0.651318
239 1 0.909039 -0.00209608 0.569581
290 1 0.0876355 0.0815782 0.666949
362 1 0.0820188 0.0949492 0.831764
663 1 0.581159 0.511089 0.577239
38 1 0.585146 0.244325 0.995526
299 1 0.405922 -0.0100131 0.760157
294 1 0.248575 0.0649538 0.65731
428 1 0.671466 0.422129 0.902046
309 1 0.842069 0.00359868 0.660557
296 1 0.181597 0.0740565 0.751828
366 1 0.258061 0.0850617 0.841637
300 1 0.324891 0.0819174 0.748092
298 1 0.415766 0.0881195 0.653155
304 1 0.493111 0.0833593 0.759178
370 1 0.412592 0.0834609 0.831576
393 1 0.332626 0.17593 0.815479
50 1 0.085845 0.413177 1.00429
424 1 0.489913 0.419767 0.913406
420 1 0.330702 0.406597 0.930913
302 1 0.579417 0.0602976 0.666738
374 1 0.581705 0.0790312 0.829134
308 1 0.655257 0.072874 0.74683
327 1 0.576304 0.169227 0.749526
30 1 0.25566 0.263164 1.01503
418 1 0.412633 0.410827 0.822692
312 1 0.836479 0.0747712 0.748856
331 1 0.74395 0.167641 0.756821
311 1 0.921243 -0.00726097 0.759471
53 1 0.162348 0.339359 1.00136
292 1 0.98276 0.0863564 0.761439
382 1 0.903099 0.0865187 0.835231
335 1 0.91255 0.181895 0.75338
14 1 0.578535 0.0749593 0.99359
314 1 0.10822 0.247299 0.670297
315 1 0.102114 0.171446 0.747855
339 1 0.0757721 0.316866 0.752881
317 1 0.165883 0.156898 0.664877
389 1 0.177711 0.162403 0.829265
320 1 0.178635 0.258865 0.746274
319 1 0.244114 0.150644 0.739651
324 1 0.323392 0.244363 0.730881
390 1 0.251402 0.258699 0.834274
322 1 0.40607 0.228028 0.654274
397 1 0.473444 0.175914 0.828136
325 1 0.51566 0.146665 0.664557
323 1 0.404712 0.167636 0.744156
328 1 0.490803 0.26198 0.742242
347 1 0.41092 0.330967 0.739527
326 1 0.567933 0.256865 0.654824
398 1 0.574425 0.250033 0.837791
332 1 0.649414 0.258935 0.737473
330 1 0.75997 0.255885 0.666894
336 1 0.829256 0.25612 0.753853
355 1 0.739582 0.328424 0.749796
357 1 0.835773 0.344116 0.660717
316 1 0.99695 0.25312 0.738424
359 1 0.912703 0.31935 0.753068
289 1 0.984214 0.0118422 0.677268
338 1 0.070293 0.416135 0.653077
344 1 0.151469 0.404989 0.735844
340 1 0.00701979 0.4076 0.740277
65 1 0.666021 0.329745 0.98811
305 1 0.665715 0.00423678 0.661232
343 1 0.252242 0.350048 0.739991
345 1 0.322959 0.329685 0.651363
349 1 0.501286 0.345413 0.644914
417 1 0.331141 0.337551 0.829257
348 1 0.32907 0.421385 0.752413
274 1 0.40609 0.418902 0.500627
351 1 0.573147 0.329426 0.726891
421 1 0.491002 0.333418 0.836045
350 1 0.583603 0.429145 0.655097
352 1 0.499475 0.410463 0.743241
422 1 0.561941 0.410455 0.830518
21 1 0.83358 0.00434138 0.997552
425 1 0.661517 0.320616 0.832387
353 1 0.664294 0.345753 0.672896
356 1 0.642653 0.407286 0.759956
360 1 0.835905 0.417825 0.742665
375 1 0.577259 -0.00825932 0.915108
430 1 0.909879 0.416922 0.832899
270 1 0.257007 0.426773 0.504928
368 1 0.166935 0.103001 0.917887
364 1 1.01454 0.101894 0.919739
408 1 0.829665 0.252317 0.915268
404 1 0.665489 0.244456 0.91633
429 1 0.83029 0.333665 0.832729
799 1 0.253324 0.501684 0.921607
399 1 0.572333 0.165115 0.913281
402 1 0.736426 0.259326 0.834143
795 1 0.0804357 0.50487 0.912277
423 1 0.583821 0.350149 0.916347
372 1 0.339934 0.0927895 0.933794
376 1 0.490517 0.094268 0.91013
406 1 0.910687 0.256775 0.842115
414 1 0.239081 0.422535 0.83119
415 1 0.243623 0.345541 0.907636
401 1 0.65012 0.16179 0.827422
380 1 0.658043 0.0854382 0.911337
378 1 0.745707 0.0798366 0.83117
403 1 0.745448 0.16771 0.916994
416 1 0.169614 0.414618 0.926804
405 1 0.82814 0.158011 0.829612
384 1 0.812906 0.0683591 0.910476
407 1 0.905851 0.175876 0.907742
411 1 0.0849291 0.335875 0.90312
413 1 0.163774 0.341794 0.830087
409 1 1.00193 0.31809 0.836608
385 1 -0.00130729 0.187077 0.820934
388 1 -0.00750621 0.243312 0.915513
386 1 0.0962979 0.240333 0.8249
387 1 0.0949127 0.174509 0.900526
392 1 0.16937 0.260117 0.907133
391 1 0.23913 0.182466 0.927493
431 1 0.905008 0.34467 0.911232
410 1 0.0823855 0.415744 0.83667
394 1 0.408812 0.265406 0.829868
419 1 0.416424 0.326729 0.906908
395 1 0.425327 0.177778 0.931916
396 1 0.329306 0.263954 0.927377
400 1 0.505125 0.258383 0.918712
303 1 0.574507 -0.00716682 0.760443
307 1 0.750013 -0.0138164 0.731743
723 1 0.0829314 0.491152 0.738485
743 1 0.93104 0.488478 0.737759
253 1 0.508363 0.177884 0.494297
61 1 0.51094 0.34085 1.00453
727 1 0.248515 0.492938 0.746664
367 1 0.233769 0.00758143 0.934286
363 1 0.0943955 -0.008757 0.927832
297 1 0.341936 0.00147656 0.674374
227 1 0.421748 0.00198527 0.579691
22 1 0.921204 0.0988321 0.987397
49 1 0.98059 0.328098 0.993745
277 1 0.499056 0.339031 0.503853
266 1 0.0823026 0.426443 0.499938
2 1 0.0953317 0.0850277 1.00824
449 1 0.668627 0.500708 0.99027
245 1 0.176801 0.15905 0.496065
262 1 0.916388 0.243382 0.500205
261 1 0.832796 0.174853 0.497693
45 1 0.82089 0.149918 0.994931
281 1 0.67398 0.346013 0.505301
62 1 0.587841 0.422921 0.998868
246 1 0.239692 0.241894 0.505664
238 1 0.906397 0.0913461 0.498269
445 1 0.503653 0.498978 0.995736
70 1 0.909144 0.431072 0.995428
433 1 1.00715 0.49231 0.998981
258 1 0.741601 0.259961 0.514817
269 1 0.170834 0.324422 0.503098
440 1 0.151684 0.583309 0.0782743
529 1 1.01125 0.670927 0.171114
506 1 0.0796101 0.582853 0.164669
533 1 0.167619 0.681047 0.172982
75 1 0.105761 0.990402 0.247097
493 1 0.482443 0.825842 -0.000509193
444 1 0.342936 0.567875 0.090322
159 1 0.581358 0.995767 0.408852
448 1 0.504233 0.57697 0.0904939
452 1 0.662522 0.578693 0.0834538
545 1 0.680293 0.664128 0.164658
518 1 0.591728 0.578476 0.178945
165 1 0.826273 0.997007 0.320422
577 1 0.985099 0.503339 0.344444
456 1 0.838026 0.574269 0.0999097
436 1 0.00315674 0.586661 0.087265
3 1 0.0767691 0.997765 0.0750891
479 1 0.92511 0.654868 0.109315
690 1 0.752836 0.740266 0.500267
459 1 0.0878183 0.666747 0.0947921
483 1 0.0765662 0.840783 0.0755547
464 1 0.169769 0.755608 0.0936759
530 1 0.0857256 0.76284 0.158726
463 1 0.225474 0.66132 0.079781
593 1 0.661064 0.503729 0.332291
487 1 0.243677 0.841313 0.0904568
467 1 0.423322 0.658994 0.089077
468 1 0.325269 0.742743 0.0867965
472 1 0.497942 0.73763 0.0861873
537 1 0.326116 0.669538 0.178175
471 1 0.592162 0.657153 0.0995626
476 1 0.658607 0.754574 0.070478
569 1 0.671579 0.832161 0.15007
495 1 0.571258 0.829615 0.0792246
442 1 0.417569 0.560907 0.00394613
475 1 0.748719 0.662506 0.0829334
549 1 0.831577 0.67557 0.168421
480 1 0.840559 0.741046 0.0758835
678 1 0.256629 0.760613 0.511418
460 1 -0.00596481 0.747652 0.0840345
503 1 0.917874 0.839254 0.0675571
461 1 0.150363 0.667882 -0.00471769
484 1 1.00788 0.91285 0.0690665
557 1 0.151853 0.851284 0.164425
554 1 0.0807603 0.923401 0.162104
488 1 0.160998 0.91538 0.0821536
646 1 0.917639 0.92395 0.32659
558 1 0.257501 0.939156 0.164629
491 1 0.414993 0.809685 0.0784316
492 1 0.323155 0.920762 0.0783748
562 1 0.4191 0.918287 0.16227
694 1 0.921963 0.744998 0.504352
628 1 0.0011702 0.909751 0.40229
644 1 0.663448 0.900222 0.413509
465 1 0.33178 0.642073 0.00211461
496 1 0.497753 0.914435 0.0884991
500 1 0.660706 0.90505 0.0750079
499 1 0.766976 0.833056 0.0901914
648 1 0.833926 0.924876 0.400058
647 1 0.904799 0.852049 0.409964
504 1 0.834525 0.917481 0.0539952
623 1 0.926386 0.668062 0.407681
620 1 0.664435 0.754136 0.425331
624 1 0.840356 0.743796 0.418897
512 1 0.156028 0.587256 0.243853
510 1 0.236145 0.576478 0.160756
535 1 0.244325 0.659073 0.259122
516 1 0.315493 0.579177 0.261334
619 1 0.751499 0.663403 0.422733
541 1 0.504891 0.65496 0.171142
514 1 0.426625 0.573866 0.173857
520 1 0.523289 0.584058 0.263193
643 1 0.762041 0.838085 0.415724
87 1 0.596031 0.974128 0.236726
524 1 0.681571 0.586302 0.259638
543 1 0.59349 0.668036 0.251408
639 1 0.585285 0.825926 0.429769
522 1 0.758832 0.589258 0.174865
547 1 0.755049 0.672958 0.258804
594 1 0.770965 0.57993 0.334582
526 1 0.91115 0.56573 0.166737
528 1 0.840035 0.600308 0.246764
508 1 -0.00722164 0.579159 0.242656
551 1 0.936145 0.67793 0.251403
621 1 0.839701 0.682281 0.330984
531 1 0.0720558 0.673783 0.257911
536 1 0.181154 0.76633 0.231033
555 1 0.0802058 0.834644 0.243319
532 1 5.38014e-05 0.764633 0.243107
534 1 0.265398 0.761094 0.171057
559 1 0.271939 0.846031 0.242112
606 1 0.243679 0.739714 0.337452
633 1 0.337583 0.828151 0.32473
538 1 0.402969 0.741565 0.177751
539 1 0.416281 0.64972 0.251937
540 1 0.31949 0.739064 0.263629
563 1 0.414486 0.829701 0.251684
610 1 0.421146 0.742988 0.310003
542 1 0.589484 0.749506 0.168522
617 1 0.672023 0.681246 0.333322
565 1 0.490765 0.828519 0.162416
544 1 0.495899 0.75105 0.238849
548 1 0.674085 0.755958 0.253902
567 1 0.593135 0.833172 0.237914
546 1 0.749135 0.746071 0.164014
641 1 0.665207 0.825756 0.329402
618 1 0.750831 0.756378 0.340359
571 1 0.756982 0.835436 0.235093
553 1 0.991128 0.832577 0.15444
552 1 0.830569 0.753248 0.251031
550 1 0.914165 0.746189 0.168401
622 1 0.921329 0.748832 0.337583
645 1 0.83199 0.839186 0.327454
575 1 0.920527 0.823975 0.258812
638 1 0.585311 0.907514 0.313979
625 1 0.0166694 0.828583 0.317389
560 1 0.178524 0.906249 0.250363
629 1 0.190608 0.835239 0.334259
23 1 0.919536 1.00508 0.0722954
630 1 0.255802 0.924121 0.33389
561 1 0.345026 0.840747 0.156909
564 1 0.351254 0.926814 0.249427
616 1 0.498319 0.751733 0.407763
613 1 0.503883 0.673414 0.331722
566 1 0.578069 0.895573 0.161275
568 1 0.499535 0.916538 0.250787
457 1 1.00542 0.646098 0.00227548
570 1 0.776945 0.914525 0.163328
155 1 0.438068 1.00175 0.393121
642 1 0.747266 0.909787 0.323139
572 1 0.672777 0.902409 0.241192
511 1 0.231508 0.497799 0.246139
573 1 0.856127 0.827519 0.178752
574 1 0.900927 0.923172 0.150645
556 1 0.984169 0.919404 0.214984
576 1 0.840761 0.916206 0.250724
525 1 0.828261 0.501559 0.189864
578 1 0.0680441 0.571191 0.324721
515 1 0.407452 0.497802 0.257499
636 1 0.338448 0.893497 0.41537
584 1 0.16267 0.579693 0.434107
582 1 0.230577 0.571932 0.326581
588 1 0.309644 0.586286 0.40427
586 1 0.409953 0.568921 0.343277
592 1 0.491673 0.586001 0.4212
626 1 0.104406 0.908581 0.325678
519 1 0.577538 0.493853 0.25572
15 1 0.579224 0.996826 0.0794033
589 1 0.499962 0.4908 0.341886
590 1 0.580622 0.598799 0.339329
615 1 0.581224 0.678668 0.428402
614 1 0.589717 0.755222 0.325496
458 1 0.0785083 0.7452 0.0220644
632 1 0.173084 0.908368 0.423802
596 1 0.666795 0.590134 0.413399
640 1 0.504799 0.907973 0.40428
237 1 0.836017 0.99718 0.498413
601 1 0.008995 0.672543 0.341607
600 1 0.836374 0.581482 0.42522
580 1 0.00910723 0.589639 0.417029
598 1 0.902024 0.593446 0.328961
634 1 0.414075 0.913918 0.331619
611 1 0.418352 0.669105 0.409346
627 1 0.0856825 0.846589 0.415336
603 1 0.0905196 0.665561 0.414526
604 1 0.0139589 0.753486 0.408597
602 1 0.106524 0.755595 0.339109
608 1 0.173724 0.760192 0.425429
469 1 0.496569 0.649265 0.00278054
89 1 0.666208 0.994072 0.163031
605 1 0.153391 0.651377 0.328843
607 1 0.246586 0.676697 0.415392
631 1 0.26541 0.818413 0.416661
612 1 0.337689 0.73483 0.404337
599 1 0.912293 0.491624 0.428838
637 1 0.495276 0.831805 0.32775
635 1 0.423716 0.825607 0.41986
609 1 0.328238 0.659116 0.333483
693 1 0.841181 0.659665 0.495646
595 1 0.742074 0.497749 0.406833
706 1 0.419005 0.903769 0.502729
523 1 0.755445 0.493784 0.268701
149 1 0.16954 0.999379 0.336486
455 1 0.938006 0.501729 0.0756665
153 1 0.341232 1.00472 0.33785
446 1 0.584561 0.585558 0.00888581
473 1 0.658815 0.671144 0.000374869
151 1 0.24666 1.00416 0.421208
163 1 0.751439 0.990949 0.401204
662 1 0.580609 0.580101 0.502736
686 1 0.598749 0.750693 0.513485
513 1 0.329732 0.503971 0.173121
91 1 0.746008 1.00297 0.242989
167 1 0.912516 1.00395 0.425934
157 1 0.520836 0.998955 0.321862
161 1 0.673205 0.991025 0.33709
485 1 0.179562 0.824248 0.00478201
494 1 0.580388 0.91402 -0.00150094
665 1 0.660901 0.499897 0.491497
714 1 0.755065 0.920728 0.486189
701 1 0.158552 0.828947 0.498469
454 1 0.907579 0.605025 0.00591998
710 1 0.590507 0.924349 0.496885
669 1 0.824189 0.496324 0.496822
674 1 0.0884949 0.743937 0.494213
681 1 0.319104 0.65975 0.492269
717 1 0.830302 0.82979 0.492492
489 1 0.329987 0.827233 0.00377502
486 1 0.254919 0.916188 -0.00482683
702 1 0.256665 0.893895 0.500954
498 1 0.746983 0.930432 0.000890639
682 1 0.417516 0.737274 0.520163
666 1 0.755137 0.590674 0.492565
438 1 0.237586 0.571339 0.00338124
697 1 0.00995598 0.82465 0.502709
654 1 0.247111 0.572836 0.50269
474 1 0.746682 0.748669 0.00442604
466 1 0.417445 0.735386 0.000128412
478 1 0.92225 0.752322 0.0032573
229 1 0.506528 1.00546 0.503297
652 1 0.00668224 0.60184 0.581012
675 1 0.0834266 0.667662 0.581082
745 1 0.0073122 0.682443 0.666619
656 1 0.164579 0.584144 0.566016
660 1 0.327175 0.582052 0.58102
679 1 0.246251 0.662082 0.576116
726 1 0.24848 0.581994 0.660394
649 1 -0.000838552 0.511865 0.497682
730 1 0.410681 0.589998 0.67153
664 1 0.492774 0.582422 0.596536
713 1 0.662782 0.837343 0.503178
668 1 0.671556 0.575481 0.569354
687 1 0.589645 0.660609 0.583456
497 1 0.675626 0.829755 0.994208
672 1 0.827328 0.580071 0.569507
738 1 0.735195 0.600861 0.663241
739 1 0.757548 0.500796 0.729827
725 1 0.166156 0.488954 0.66111
695 1 0.923555 0.66349 0.582564
742 1 0.923323 0.571974 0.680257
746 1 0.0832868 0.758331 0.662715
769 1 0.00214993 0.855197 0.657415
729 1 0.324643 0.512586 0.662391
680 1 0.167381 0.748729 0.578462
684 1 0.337709 0.737024 0.589853
673 1 -0.0068149 0.666922 0.491186
683 1 0.428617 0.667898 0.595536
707 1 0.41724 0.836949 0.587418
650 1 0.0849412 0.591402 0.495465
383 1 0.916387 1.00102 0.908531
754 1 0.432195 0.761834 0.665835
369 1 0.332144 1.00459 0.86088
688 1 0.523088 0.739158 0.590798
711 1 0.583953 0.834898 0.582444
653 1 0.17592 0.497133 0.505797
667 1 0.747337 0.503876 0.568959
691 1 0.763581 0.677631 0.593022
692 1 0.676658 0.750519 0.592285
785 1 0.657596 0.83955 0.679232
696 1 0.847347 0.747564 0.582948
676 1 0.00964991 0.754133 0.586097
719 1 0.917754 0.8317 0.573026
657 1 0.33831 0.512334 0.487932
797 1 0.15769 0.49876 0.831823
699 1 0.0872764 0.835019 0.582323
700 1 1.00235 0.929069 0.583647
773 1 0.175634 0.840708 0.668203
770 1 0.0749066 0.933734 0.66556
864 1 0.830685 0.920745 0.932087
704 1 0.169517 0.923412 0.580015
703 1 0.247164 0.838354 0.583567
708 1 0.340628 0.91935 0.578499
741 1 0.83779 0.512335 0.658093
778 1 0.418081 0.926476 0.660578
781 1 0.510983 0.832595 0.665435
235 1 0.748804 1.00034 0.594565
712 1 0.510098 0.919102 0.575249
782 1 0.571776 0.916016 0.672931
293 1 0.16729 0.996668 0.66352
715 1 0.768699 0.837757 0.580059
716 1 0.667585 0.91157 0.587579
733 1 0.508116 0.505844 0.675234
482 1 0.0968821 0.90505 0.98965
670 1 0.918542 0.586479 0.493088
720 1 0.84486 0.910397 0.573341
790 1 0.918174 0.926826 0.654104
233 1 0.671235 0.989884 0.508236
295 1 0.261504 0.992824 0.751707
749 1 0.167045 0.678897 0.660138
722 1 0.0986521 0.579205 0.664576
724 1 0.0106154 0.581136 0.741953
747 1 0.0939535 0.661344 0.744584
753 1 0.310817 0.668757 0.673058
728 1 0.183247 0.579671 0.744949
751 1 0.242133 0.660632 0.772131
732 1 0.328098 0.591866 0.749326
798 1 0.249001 0.572957 0.840756
453 1 0.831881 0.509429 1.00001
755 1 0.418878 0.661742 0.752475
757 1 0.511917 0.65794 0.668846
813 1 0.82732 0.499172 0.820884
734 1 0.589776 0.58826 0.658075
736 1 0.506018 0.582792 0.760661
740 1 0.67236 0.591721 0.745974
807 1 0.577736 0.487908 0.908746
291 1 0.079517 1.01497 0.744949
381 1 0.826851 0.980432 0.846687
765 1 0.840509 0.652464 0.672391
361 1 0.0113002 1.01441 0.845991
744 1 0.832559 0.582458 0.742877
767 1 0.926771 0.656509 0.741656
859 1 0.750094 0.837082 0.88499
748 1 0.00380211 0.754214 0.750569
752 1 0.182874 0.750318 0.748145
750 1 0.232177 0.757101 0.650023
775 1 0.26203 0.844276 0.72789
822 1 0.238478 0.731284 0.848286
756 1 0.343571 0.759639 0.741196
760 1 0.501206 0.742275 0.758133
759 1 0.590101 0.658654 0.76194
758 1 0.589056 0.749203 0.678689
830 1 0.577497 0.756152 0.844545
763 1 0.759568 0.668944 0.744577
761 1 0.66094 0.676427 0.669292
762 1 0.759835 0.76194 0.661498
764 1 0.678986 0.752003 0.741552
766 1 0.925333 0.766875 0.668103
768 1 0.844685 0.758765 0.742739
791 1 0.931176 0.848224 0.758101
837 1 0.83987 0.665571 0.827427
771 1 0.0888695 0.829951 0.749963
772 1 -0.00441998 0.925823 0.754123
776 1 0.161935 0.930633 0.751181
841 1 0.00914911 0.829507 0.840851
815 1 0.915866 0.497162 0.900363
842 1 0.0938972 0.928623 0.83227
774 1 0.263386 0.935737 0.659869
777 1 0.337936 0.827136 0.65344
780 1 0.341176 0.916547 0.743989
779 1 0.4241 0.839666 0.742191
784 1 0.494854 0.921722 0.771894
850 1 0.413249 0.923281 0.850714
783 1 0.570219 0.841066 0.757886
857 1 0.654423 0.830993 0.824393
853 1 0.476293 0.831616 0.828118
854 1 0.568506 0.918168 0.838674
788 1 0.659209 0.926299 0.74119
786 1 0.762022 0.91947 0.659676
787 1 0.750174 0.824381 0.751654
858 1 0.728083 0.926138 0.818953
861 1 0.838721 0.825814 0.830701
789 1 0.838664 0.836537 0.662574
792 1 0.837473 0.922335 0.734585
862 1 0.921634 0.911066 0.838296
301 1 0.4898 0.999677 0.682044
794 1 0.0890262 0.573473 0.819619
819 1 0.0721352 0.641481 0.906182
817 1 0.982564 0.65697 0.833191
800 1 0.157478 0.574924 0.927852
821 1 0.163491 0.658874 0.833776
856 1 0.506717 0.8942 0.912671
804 1 0.327507 0.575943 0.910427
823 1 0.247301 0.651247 0.937909
231 1 0.584508 1.00293 0.581481
661 1 0.490941 0.514729 0.506217
825 1 0.345301 0.667632 0.840547
802 1 0.422525 0.577103 0.846714
659 1 0.408694 0.513598 0.590648
709 1 0.490781 0.813699 0.504876
806 1 0.576861 0.58261 0.840876
833 1 0.659161 0.666038 0.838857
808 1 0.510264 0.572843 0.924292
860 1 0.662104 0.907024 0.922978
810 1 0.759234 0.592651 0.823388
812 1 0.663624 0.582748 0.92231
835 1 0.750471 0.66767 0.912023
844 1 0.00906595 0.925215 0.908198
796 1 0.984284 0.579349 0.903506
816 1 0.850534 0.58772 0.915338
814 1 0.909908 0.574063 0.815555
839 1 0.923188 0.672785 0.928239
801 1 0.34188 0.506859 0.809714
818 1 0.0873861 0.737788 0.814849
824 1 0.15892 0.741849 0.912703
828 1 0.34175 0.74226 0.92468
848 1 0.175522 0.911297 0.918488
846 1 0.264226 0.911302 0.833819
826 1 0.406235 0.754807 0.831293
845 1 0.179368 0.83075 0.832282
827 1 0.414643 0.647876 0.930496
851 1 0.399613 0.831727 0.908644
462 1 0.251303 0.742541 1.0041
829 1 0.492742 0.6589 0.84573
855 1 0.589746 0.81521 0.92859
832 1 0.485092 0.754327 0.919088
831 1 0.583494 0.668196 0.923498
836 1 0.670168 0.740561 0.919767
849 1 0.314194 0.807065 0.831869
834 1 0.748936 0.744072 0.834797
847 1 0.255774 0.82985 0.922711
840 1 0.826151 0.74839 0.917924
852 1 0.331654 0.914772 0.924084
863 1 0.908729 0.83423 0.920372
838 1 0.933573 0.75412 0.837355
820 1 0.0181447 0.739478 0.910802
843 1 0.0973917 0.836777 0.904509
470 1 0.5742 0.738787 1.00821
805 1 0.481898 0.490323 0.822662
501 1 0.831193 0.830365 1.00361
809 1 0.682542 0.505678 0.822537
811 1 0.761763 0.518862 0.901941
477 1 0.825268 0.667625 0.999233
365 1 0.180141 1.00293 0.834656
450 1 0.745118 0.579101 0.99765
481 1 0.00950755 0.829271 0.987504
434 1 0.0760767 0.572107 0.999158
685 1 0.497987 0.663104 0.50487
698 1 0.0657104 0.915911 0.489221
658 1 0.412055 0.591314 0.504489
490 1 0.425695 0.933065 0.999743
677 1 0.169955 0.662316 0.499477
705 1 0.346132 0.815596 0.509247
689 1 0.675356 0.667117 0.5103
718 1 0.925736 0.916361 0.495552
502 1 0.931334 0.918829 0.98989
225 1 0.340147 0.988187 0.486669
