ITEM: TIMESTEP
400
ITEM: NUMBER OF ATOMS
864
ITEM: BOX BOUNDS pp pp pp
0.0000000000000000e+00 3.1559999999999999e+01
0.0000000000000000e+00 3.1559999999999999e+01
0.0000000000000000e+00 3.1559999999999999e+01
ITEM: ATOMS id type xs ys zs
15 1 0.591176 -0.00260271 0.0771611
3 1 0.0839606 0.0001144 0.0835646
587 1 0.41485 0.5027 0.422784
4 1 -0.00288365 0.079469 0.0780627
216 1 0.823995 0.421031 0.416074
282 1 0.738948 0.420539 0.50435
215 1 0.91723 0.331929 0.423866
8 1 0.17484 0.0827285 0.0824157
54 1 0.264156 0.416312 0.00650432
249 1 0.328766 0.173985 0.503524
145 1 0.999708 -0.00265462 0.339823
12 1 0.333785 0.093706 0.0814502
214 1 0.905461 0.42506 0.338796
79 1 0.25869 -0.000401712 0.248008
34 1 0.423262 0.243853 -0.00428788
16 1 0.510584 0.0897818 0.0801978
273 1 0.321748 0.326189 0.499562
151 1 0.244523 -0.00266095 0.41719
11 1 0.4197 0.00733697 0.0864549
20 1 0.673701 0.0753267 0.0882542
595 1 0.746681 0.504007 0.427503
23 1 0.910189 -0.00234605 0.0962608
213 1 0.828979 0.33417 0.335936
24 1 0.844174 0.0790973 0.0847484
278 1 0.582788 0.413996 0.509251
159 1 0.581989 0.00778371 0.414672
27 1 0.076251 0.166397 0.0938024
28 1 -0.000595776 0.249282 0.0811716
254 1 0.586535 0.24747 0.499001
62 1 0.583254 0.410715 -0.000724279
31 1 0.259123 0.159047 0.0846931
32 1 0.166332 0.257851 0.080845
435 1 0.0867752 0.504594 0.0881352
95 1 0.915445 -0.00173957 0.244248
35 1 0.426189 0.165486 0.0887463
36 1 0.343465 0.246755 0.101808
65 1 0.662333 0.323039 0.00661806
85 1 0.501325 0.0105333 0.165592
39 1 0.583355 0.179855 0.0895458
40 1 0.494787 0.254781 0.0857188
161 1 0.667567 0.00229341 0.336972
77 1 0.166589 0.00737813 0.163778
43 1 0.753224 0.156914 0.0897573
44 1 0.673453 0.248135 0.0838033
583 1 0.26011 0.506332 0.424192
81 1 0.34354 0.00987994 0.162883
47 1 0.922057 0.162329 0.0865127
48 1 0.830642 0.254325 0.0817053
451 1 0.744385 0.508729 0.0839038
197 1 0.155861 0.329008 0.328014
51 1 0.0930941 0.354797 0.0654905
52 1 0.99499 0.422877 0.0822517
87 1 0.576604 -0.00635406 0.243357
149 1 0.165842 -0.00308097 0.327022
55 1 0.254225 0.333237 0.0883497
56 1 0.180791 0.415595 0.0861001
196 1 0.00377704 0.41917 0.423985
195 1 0.0870184 0.334345 0.427807
59 1 0.419208 0.315739 0.0839949
60 1 0.342186 0.410907 0.0948389
269 1 0.168093 0.330804 0.514743
194 1 0.0798912 0.41494 0.343845
63 1 0.587222 0.326391 0.0871927
64 1 0.499981 0.411055 0.084399
165 1 0.838336 0.00373431 0.319837
188 1 0.659501 0.250249 0.422018
67 1 0.754289 0.33078 0.0930815
68 1 0.668211 0.40916 0.085234
265 1 0.00439124 0.336855 0.509086
193 1 0.988556 0.339806 0.334286
71 1 0.908972 0.342842 0.0901164
72 1 0.828862 0.416438 0.0902851
238 1 0.908366 0.0827605 0.503976
74 1 0.0806876 0.0897466 0.166743
212 1 0.669674 0.422123 0.42126
76 1 0.994115 0.0929843 0.253042
211 1 0.736078 0.339176 0.40205
78 1 0.239404 0.0796897 0.167553
210 1 0.74044 0.424618 0.334631
80 1 0.164917 0.0804168 0.251995
209 1 0.654202 0.344332 0.327013
82 1 0.421422 0.0904871 0.173794
208 1 0.485557 0.406796 0.424624
84 1 0.337502 0.0785793 0.250421
207 1 0.582502 0.345263 0.420594
86 1 0.584984 0.0940591 0.157058
192 1 0.829597 0.265907 0.41578
88 1 0.516159 0.0892098 0.247283
206 1 0.586001 0.423283 0.332183
90 1 0.75599 0.0730194 0.168468
205 1 0.503835 0.345399 0.333085
92 1 0.669173 0.0935747 0.259082
83 1 0.415919 -0.00203841 0.256141
94 1 0.918986 0.0831485 0.16218
222 1 0.255689 0.0851593 0.489366
96 1 0.827838 0.0845771 0.249508
97 1 -0.000106854 0.162572 0.172359
98 1 0.0703182 0.256719 0.169544
99 1 0.0795683 0.177662 0.257432
100 1 0.993092 0.261307 0.253662
101 1 0.160505 0.170322 0.170118
102 1 0.245376 0.242549 0.165594
103 1 0.233579 0.159716 0.252563
104 1 0.16655 0.247159 0.253432
105 1 0.328936 0.168671 0.176185
106 1 0.414083 0.24456 0.187211
107 1 0.421291 0.159342 0.250581
108 1 0.330045 0.243751 0.258917
109 1 0.50702 0.179536 0.169086
110 1 0.586985 0.262606 0.170172
111 1 0.590079 0.174092 0.25149
112 1 0.505777 0.256511 0.259382
113 1 0.66156 0.172293 0.170002
114 1 0.754888 0.248409 0.168038
115 1 0.750623 0.167203 0.249024
116 1 0.670575 0.251933 0.248385
117 1 0.837776 0.167599 0.157473
118 1 0.919581 0.251535 0.167018
119 1 0.906054 0.16006 0.239536
120 1 0.840258 0.246504 0.252862
121 1 1.00182 0.351005 0.158086
122 1 0.0800284 0.425449 0.164556
123 1 0.0733542 0.336448 0.244709
124 1 0.983445 0.424956 0.252697
125 1 0.154722 0.33351 0.171476
126 1 0.266514 0.40947 0.175701
127 1 0.240824 0.331927 0.251484
128 1 0.168308 0.415695 0.250156
129 1 0.334481 0.318062 0.187925
130 1 0.418881 0.414456 0.170373
131 1 0.419224 0.327761 0.259708
132 1 0.344656 0.407354 0.252513
133 1 0.48911 0.323646 0.169245
134 1 0.58491 0.413624 0.166212
135 1 0.575677 0.341385 0.246264
136 1 0.503906 0.420648 0.239609
137 1 0.675197 0.330064 0.1677
138 1 0.747354 0.422517 0.171801
139 1 0.752464 0.340205 0.242019
140 1 0.656544 0.422948 0.24552
141 1 0.840082 0.321732 0.176618
142 1 0.907912 0.426067 0.169516
143 1 0.910951 0.343722 0.256492
144 1 0.829468 0.418278 0.254471
204 1 0.340507 0.412754 0.418735
146 1 0.0707909 0.0895507 0.334299
203 1 0.417269 0.312041 0.412502
148 1 -0.011059 0.0856282 0.41345
202 1 0.416714 0.413701 0.334287
150 1 0.247514 0.0772775 0.335014
191 1 0.907334 0.179017 0.418545
152 1 0.165669 0.0840079 0.422018
201 1 0.339085 0.343035 0.338086
154 1 0.419291 0.0842838 0.333575
190 1 0.911401 0.262476 0.342351
156 1 0.334662 0.0866554 0.413006
187 1 0.742564 0.169446 0.415424
158 1 0.583918 0.101718 0.323047
200 1 0.17538 0.425018 0.413887
160 1 0.489118 0.0951718 0.417817
199 1 0.246773 0.336798 0.416373
162 1 0.752115 0.0802991 0.331482
246 1 0.238987 0.241173 0.506628
164 1 0.666563 0.0832494 0.424442
189 1 0.826786 0.159621 0.339963
166 1 0.912434 0.0812645 0.321647
198 1 0.250605 0.427165 0.335489
168 1 0.828299 0.0859491 0.415765
169 1 0.992566 0.172687 0.325516
170 1 0.0782251 0.258396 0.341043
171 1 0.0756979 0.16493 0.415352
172 1 1.00526 0.257087 0.42341
173 1 0.160587 0.161069 0.342103
174 1 0.241306 0.237551 0.329823
175 1 0.247446 0.172766 0.421004
176 1 0.164855 0.253934 0.411958
177 1 0.327966 0.158409 0.330187
178 1 0.413993 0.232388 0.325753
179 1 0.407465 0.173897 0.417579
180 1 0.323505 0.244528 0.413924
181 1 0.499014 0.165552 0.333348
182 1 0.576092 0.255719 0.343626
183 1 0.584308 0.164988 0.414518
184 1 0.499262 0.237283 0.429109
185 1 0.672445 0.170965 0.33495
186 1 0.753886 0.251792 0.325058
270 1 0.251992 0.415671 0.500884
449 1 0.661261 0.506246 0.0101157
14 1 0.589645 0.0934167 0.00334608
41 1 0.663368 0.167441 -0.00680503
70 1 0.909384 0.427265 0.00448109
46 1 0.908445 0.251616 0.00266972
225 1 0.340123 -0.00271126 0.497873
241 1 0.999241 0.176415 0.514893
257 1 0.668323 0.170245 0.500493
29 1 0.170177 0.166549 -0.0111
262 1 0.925145 0.251384 0.497386
45 1 0.835508 0.161589 0.000691849
61 1 0.495788 0.342617 -0.00553829
53 1 0.177382 0.334983 0.0017161
445 1 0.495967 0.493335 -0.00301978
441 1 0.32682 0.509033 0.0026512
649 1 0.00844788 0.51322 0.498981
17 1 0.672391 -0.00444461 -0.011355
233 1 0.661856 0.0059124 0.505465
432 1 0.830218 0.415653 0.91555
739 1 0.764101 0.499972 0.756806
793 1 -0.00814058 0.49372 0.841903
220 1 0.992189 0.0840632 0.592233
431 1 0.925834 0.335069 0.925793
743 1 0.910736 0.501917 0.754849
811 1 0.759512 0.50376 0.91364
224 1 0.16012 0.0755967 0.576022
428 1 0.672916 0.435815 0.925657
231 1 0.577513 0.000885704 0.581407
427 1 0.740634 0.358273 0.931186
228 1 0.328747 0.0899936 0.575807
424 1 0.496671 0.419452 0.916329
371 1 0.418746 -0.0073901 0.90921
423 1 0.599121 0.334545 0.913489
232 1 0.488693 0.085752 0.588297
725 1 0.171401 0.495329 0.656457
223 1 0.25696 -0.00191 0.579264
801 1 0.330197 0.502305 0.829918
236 1 0.675386 0.0920829 0.585049
420 1 0.33193 0.40241 0.931518
245 1 0.152779 0.170013 0.494249
419 1 0.422299 0.329086 0.924612
240 1 0.83365 0.08335 0.589749
721 1 0.00250259 0.486211 0.676603
297 1 0.315764 -0.0100148 0.666927
243 1 0.0767434 0.161174 0.586188
244 1 1.00603 0.251086 0.58916
377 1 0.672904 0.00220582 0.836815
729 1 0.32841 0.492196 0.673761
247 1 0.248138 0.159904 0.578473
248 1 0.154459 0.244243 0.579411
731 1 0.418488 0.506144 0.744971
10 1 0.42147 0.0845892 1.00299
251 1 0.426532 0.17068 0.588038
252 1 0.329677 0.253932 0.578898
22 1 0.915305 0.0725669 0.99804
651 1 0.0925874 0.494186 0.582071
255 1 0.590386 0.16764 0.580119
256 1 0.504622 0.24858 0.591792
799 1 0.25371 0.496015 0.922042
723 1 0.0839766 0.492713 0.750286
259 1 0.753855 0.17531 0.576132
260 1 0.672501 0.246683 0.576297
797 1 0.165365 0.49592 0.834051
285 1 0.823747 0.34323 0.492625
263 1 0.914085 0.166839 0.589241
264 1 0.83642 0.254358 0.576609
737 1 0.670829 0.506085 0.654584
6 1 0.253085 0.0811444 0.995055
267 1 0.0865766 0.3291 0.582147
268 1 -0.00523352 0.419384 0.574384
13 1 0.495655 0.00491636 1.00652
372 1 0.337529 0.0880264 0.916216
271 1 0.25066 0.33021 0.582506
272 1 0.165024 0.412608 0.583145
400 1 0.509015 0.247655 0.90883
368 1 0.167058 0.0824878 0.912428
275 1 0.417083 0.327927 0.591577
276 1 0.326643 0.412635 0.589321
33 1 0.328961 0.160172 0.999291
395 1 0.41806 0.174451 0.904037
279 1 0.587661 0.322944 0.572717
280 1 0.506046 0.410916 0.58281
392 1 0.161602 0.245115 0.920487
391 1 0.258774 0.169426 0.910925
283 1 0.753739 0.332468 0.58652
284 1 0.659207 0.41583 0.581044
309 1 0.824426 -0.00364156 0.67715
369 1 0.342089 -0.00896834 0.82172
287 1 0.92664 0.325211 0.584504
288 1 0.841101 0.408456 0.57997
416 1 0.176772 0.409063 0.912059
290 1 0.079056 0.0838904 0.663473
388 1 1.00707 0.254568 0.911183
292 1 -0.0053873 0.0865692 0.753042
415 1 0.256347 0.317137 0.914079
362 1 0.0808062 0.0925428 0.832895
42 1 0.754389 0.248922 1.00238
294 1 0.24823 0.0767655 0.673072
387 1 0.0825648 0.172202 0.92457
296 1 0.174796 0.0816741 0.750963
735 1 0.59217 0.495771 0.755749
366 1 0.254474 0.0908028 0.827293
412 1 0.995511 0.417697 0.935725
298 1 0.40682 0.0850673 0.655181
384 1 0.828109 0.0912887 0.917543
300 1 0.333999 0.0754404 0.747832
396 1 0.337789 0.248962 0.913263
370 1 0.413281 0.0796522 0.83173
411 1 0.090695 0.333439 0.926472
302 1 0.589662 0.0880689 0.657729
408 1 0.836131 0.247281 0.928147
304 1 0.494655 0.0848303 0.747374
407 1 0.92013 0.179455 0.918642
374 1 0.574567 0.0704309 0.831256
307 1 0.747647 0.00425219 0.754305
306 1 0.742939 0.0815096 0.672051
234 1 0.756597 0.0841757 0.508783
308 1 0.670682 0.0827943 0.751467
289 1 1.00023 -0.0062715 0.675855
378 1 0.748546 0.0884251 0.840087
380 1 0.66066 0.0837343 0.907285
310 1 0.913629 0.0832441 0.670923
404 1 0.674268 0.246694 0.921072
312 1 0.833142 0.0871278 0.749553
376 1 0.490068 0.0842855 0.918536
382 1 0.912119 0.0774368 0.836744
313 1 0.999287 0.163743 0.673584
314 1 0.0807147 0.235097 0.66799
315 1 0.0813299 0.169776 0.755949
316 1 1.00229 0.255793 0.750376
385 1 -0.0101173 0.175507 0.832813
386 1 0.084863 0.248922 0.831822
317 1 0.167908 0.152898 0.665851
318 1 0.252479 0.237693 0.660449
319 1 0.261972 0.159141 0.744482
320 1 0.178063 0.238329 0.740418
389 1 0.170045 0.168151 0.825881
390 1 0.245131 0.253146 0.827035
321 1 0.345211 0.170424 0.659988
322 1 0.417753 0.248142 0.682391
323 1 0.416155 0.161025 0.748082
324 1 0.321001 0.251832 0.752736
393 1 0.331041 0.167947 0.830282
394 1 0.424411 0.239508 0.817493
325 1 0.5047 0.163346 0.667849
326 1 0.590497 0.239696 0.665782
327 1 0.584591 0.157085 0.746911
328 1 0.503661 0.247569 0.750857
397 1 0.504845 0.158999 0.826728
398 1 0.588306 0.253143 0.829411
329 1 0.670868 0.170544 0.661271
330 1 0.755633 0.250945 0.660659
331 1 0.753024 0.159487 0.757813
332 1 0.67689 0.246189 0.750753
401 1 0.653944 0.157564 0.83018
402 1 0.751272 0.242637 0.83587
333 1 0.829979 0.176251 0.661285
334 1 0.913767 0.253364 0.667422
335 1 0.920017 0.165471 0.741064
336 1 0.827662 0.247452 0.743902
405 1 0.838714 0.164531 0.839055
406 1 0.915925 0.249766 0.833397
337 1 1.00772 0.33234 0.670168
338 1 0.0894356 0.412177 0.665851
339 1 0.0979123 0.322332 0.737157
340 1 0.0101287 0.404793 0.746441
409 1 -0.00696615 0.328517 0.833806
410 1 0.0750261 0.417908 0.83447
341 1 0.165654 0.325321 0.659795
342 1 0.241218 0.406394 0.669406
343 1 0.237764 0.333105 0.752688
344 1 0.162812 0.416531 0.75152
413 1 0.156722 0.32552 0.844513
414 1 0.256712 0.409366 0.843718
345 1 0.327213 0.32846 0.66274
346 1 0.418214 0.408397 0.676197
347 1 0.410116 0.3341 0.759823
348 1 0.315633 0.409644 0.750718
417 1 0.33894 0.338115 0.84075
418 1 0.418877 0.417194 0.829019
349 1 0.507152 0.335039 0.687401
350 1 0.589803 0.420998 0.676191
351 1 0.59556 0.330854 0.749896
352 1 0.499261 0.420164 0.753565
421 1 0.503671 0.333464 0.827209
422 1 0.593962 0.412708 0.828978
353 1 0.666386 0.320876 0.665727
354 1 0.759679 0.424285 0.659139
355 1 0.761218 0.339686 0.748011
356 1 0.677501 0.414248 0.75224
425 1 0.67981 0.328427 0.82989
426 1 0.748167 0.416607 0.837276
357 1 0.836858 0.336095 0.666142
358 1 0.924343 0.412588 0.664222
359 1 0.916996 0.330397 0.746386
360 1 0.83747 0.41647 0.752918
429 1 0.823566 0.330305 0.832431
430 1 0.915753 0.416005 0.833405
399 1 0.571311 0.162963 0.915574
364 1 -0.00134706 0.0782724 0.911072
403 1 0.745594 0.168985 0.916824
226 1 0.408063 0.0920061 0.498239
295 1 0.244087 -0.00624338 0.75147
669 1 0.830307 0.499041 0.503241
383 1 0.915062 -0.00812514 0.906289
379 1 0.756556 -0.00695401 0.908368
301 1 0.496027 0.00196634 0.663387
663 1 0.576208 0.499928 0.585392
30 1 0.256924 0.241123 1.00517
727 1 0.238987 0.493421 0.752726
25 1 1.00234 0.162586 0.993204
9 1 0.331389 0.00312942 0.990743
258 1 0.74801 0.268176 0.492165
659 1 0.418038 0.489691 0.588858
221 1 0.163086 -0.00766767 0.500614
305 1 0.671057 0.00200296 0.663437
733 1 0.500498 0.494455 0.663166
227 1 0.41263 -0.00131472 0.583343
655 1 0.258439 0.497274 0.579882
363 1 0.073169 0.00249561 0.920105
671 1 0.92466 0.498442 0.582676
239 1 0.905129 -0.007276 0.599886
365 1 0.172945 0.00576928 0.838962
253 1 0.499522 0.160915 0.506658
26 1 0.0814409 0.254575 1.00409
57 1 0.340184 0.323181 1.00678
5 1 0.172955 -0.000424537 1.00657
274 1 0.408734 0.415728 0.502935
49 1 0.0018727 0.33493 1.00443
281 1 0.669399 0.340534 0.492106
2 1 0.0872475 0.0850402 1.00884
665 1 0.664002 0.500564 0.503286
250 1 0.424899 0.246631 0.511494
66 1 0.746941 0.426089 1.01434
661 1 0.50249 0.502919 0.500935
38 1 0.583195 0.248844 0.997823
37 1 0.497175 0.167603 0.999824
230 1 0.580554 0.0894 0.493329
58 1 0.413672 0.420858 1.00274
242 1 0.0847963 0.253255 0.498078
286 1 0.916403 0.419134 0.503133
261 1 0.824648 0.173405 0.495762
266 1 0.0966577 0.415953 0.494097
18 1 0.752929 0.0812152 1.00239
50 1 0.0884803 0.43235 0.993375
277 1 0.501101 0.327854 0.502635
69 1 0.833088 0.352564 0.999839
218 1 0.0710135 0.0759699 0.493398
648 1 0.83111 0.929271 0.419749
163 1 0.74993 1.01298 0.41489
646 1 0.912995 0.919212 0.323448
436 1 0.00286644 0.586381 0.0872697
523 1 0.744461 0.505295 0.249623
73 1 0.00516553 1.01032 0.167263
157 1 0.51066 1.00908 0.331892
440 1 0.171009 0.578322 0.0856467
515 1 0.42466 0.495445 0.254759
442 1 0.409614 0.590189 -0.00995696
644 1 0.667592 0.919212 0.419565
444 1 0.338349 0.5819 0.0894959
521 1 0.66613 0.499337 0.156821
93 1 0.838129 0.99966 0.169626
642 1 0.745645 0.92581 0.34218
448 1 0.496974 0.582259 0.0907245
640 1 0.507276 0.918064 0.410052
217 1 0.993646 0.990466 0.506409
167 1 0.91697 0.999003 0.420574
452 1 0.654531 0.589519 0.0938103
638 1 0.589103 0.918295 0.325833
147 1 0.0707241 0.998659 0.417501
636 1 0.343121 0.908404 0.411013
456 1 0.833403 0.586734 0.0825811
89 1 0.659472 0.998394 0.169464
527 1 0.909863 0.509539 0.25428
459 1 0.103336 0.673371 0.093198
460 1 0.00210131 0.743364 0.0857051
433 1 0.000655449 0.506003 7.22297e-05
483 1 0.0864309 0.827914 0.0739884
585 1 0.341094 0.494793 0.334135
75 1 0.0730791 1.00672 0.256229
463 1 0.258985 0.665712 0.0844139
464 1 0.165892 0.759517 0.0755917
581 1 0.168872 0.511049 0.338787
487 1 0.258998 0.836972 0.0829892
709 1 0.497304 0.838905 0.505306
454 1 0.912749 0.592775 -0.00113871
467 1 0.426105 0.667443 0.0882404
468 1 0.332809 0.742828 0.0870515
465 1 0.337742 0.671388 -0.00357097
491 1 0.416164 0.838018 0.089297
686 1 0.582451 0.744301 0.498909
439 1 0.25603 0.497936 0.0959761
471 1 0.5827 0.665149 0.0738704
472 1 0.502424 0.754312 0.0718471
443 1 0.417254 0.499695 0.0799277
495 1 0.583587 0.835676 0.0790716
591 1 0.579874 0.49879 0.425468
437 1 0.172721 0.501322 -0.000685686
475 1 0.758087 0.669258 0.08452
476 1 0.672601 0.746251 0.0806138
635 1 0.419182 0.828352 0.414878
499 1 0.766645 0.83435 0.0778984
447 1 0.574381 0.501552 0.0929004
639 1 0.586613 0.841019 0.430225
479 1 0.925796 0.665807 0.0856854
480 1 0.840781 0.750083 0.0961161
637 1 0.503262 0.842572 0.331545
503 1 0.911092 0.833795 0.0766201
633 1 0.326524 0.833774 0.315253
484 1 0.00132019 0.922761 0.0711449
612 1 0.33936 0.750253 0.411823
488 1 0.173689 0.917421 0.0710058
525 1 0.828659 0.508781 0.171526
492 1 0.337789 0.926208 0.076227
577 1 1.00644 0.50251 0.332778
496 1 0.496801 0.911669 0.0778718
509 1 0.175931 0.490241 0.176844
500 1 0.671222 0.917359 0.0798963
593 1 0.672426 0.507786 0.332544
504 1 0.834318 0.917623 0.0737047
634 1 0.416075 0.906217 0.329436
506 1 0.0788302 0.582204 0.164636
632 1 0.163259 0.918104 0.408899
508 1 -0.00543345 0.579254 0.248384
91 1 0.742744 1.00345 0.249116
510 1 0.249383 0.587455 0.17586
616 1 0.511409 0.747116 0.413533
512 1 0.174772 0.580698 0.247664
630 1 0.246221 0.917624 0.318523
514 1 0.417105 0.587165 0.176035
628 1 0.988473 0.909696 0.415715
516 1 0.331024 0.595477 0.25141
626 1 0.0778905 0.91097 0.329137
518 1 0.576466 0.59668 0.180347
615 1 0.578846 0.661083 0.414878
520 1 0.493814 0.587637 0.24954
641 1 0.664178 0.834073 0.330847
522 1 0.742163 0.587569 0.161704
647 1 0.904519 0.824002 0.420528
524 1 0.66658 0.58276 0.24524
614 1 0.592589 0.755077 0.341912
526 1 0.912203 0.583152 0.159373
620 1 0.674104 0.765149 0.434109
528 1 0.831099 0.595795 0.263907
529 1 0.0022967 0.667642 0.167945
530 1 0.0833724 0.76303 0.161666
531 1 0.0884401 0.661033 0.244676
532 1 0.00699921 0.753318 0.245856
553 1 0.0081577 0.842425 0.163919
555 1 0.0826556 0.837893 0.248162
533 1 0.176211 0.678187 0.169037
534 1 0.25116 0.747521 0.159965
535 1 0.25502 0.66716 0.255873
536 1 0.168173 0.742399 0.248426
557 1 0.175603 0.840353 0.158199
559 1 0.237053 0.834447 0.248743
537 1 0.325594 0.672126 0.170906
538 1 0.416211 0.749747 0.153754
539 1 0.421431 0.676806 0.249527
540 1 0.337994 0.753484 0.24577
561 1 0.31812 0.841641 0.169338
563 1 0.414827 0.832201 0.232787
541 1 0.496565 0.679995 0.175712
542 1 0.595143 0.744369 0.159551
543 1 0.584946 0.67885 0.250326
544 1 0.496142 0.760726 0.244792
565 1 0.503671 0.830655 0.163067
567 1 0.585079 0.829297 0.258526
545 1 0.673194 0.668048 0.175429
546 1 0.750243 0.756754 0.161498
547 1 0.7413 0.668994 0.260507
548 1 0.665278 0.757439 0.24904
569 1 0.673792 0.831799 0.1653
571 1 0.751901 0.835636 0.245779
549 1 0.821396 0.661661 0.169777
550 1 0.927145 0.755116 0.163945
551 1 0.915288 0.659386 0.242254
552 1 0.833181 0.740745 0.238589
573 1 0.8348 0.846775 0.170531
575 1 0.911181 0.82573 0.244513
554 1 0.0843735 0.925151 0.16742
556 1 0.003171 0.920203 0.248839
558 1 0.246838 0.925339 0.164459
560 1 0.166755 0.918829 0.238719
562 1 0.429111 0.91961 0.164133
564 1 0.333706 0.921893 0.24954
566 1 0.581059 0.909384 0.166094
568 1 0.497694 0.914775 0.247634
570 1 0.75145 0.930443 0.165545
572 1 0.666593 0.919497 0.247309
574 1 0.925832 0.914189 0.157408
576 1 0.827093 0.916556 0.245387
619 1 0.738057 0.679307 0.421243
578 1 0.0890597 0.581765 0.333922
645 1 0.828242 0.8398 0.330426
580 1 1.00611 0.580595 0.403814
624 1 0.83227 0.742529 0.4255
582 1 0.253759 0.581329 0.331942
623 1 0.920134 0.659318 0.423346
584 1 0.182392 0.587441 0.425872
622 1 0.918366 0.743843 0.326005
586 1 0.408053 0.585214 0.336123
621 1 0.824854 0.66438 0.347852
588 1 0.34612 0.59458 0.416533
643 1 0.757646 0.842902 0.428526
590 1 0.584509 0.587934 0.330291
617 1 0.660882 0.665421 0.334488
592 1 0.491508 0.582219 0.427603
618 1 0.749843 0.758127 0.328678
594 1 0.751233 0.588586 0.340831
613 1 0.508441 0.665983 0.326286
596 1 0.655785 0.583877 0.41808
155 1 0.423659 0.994221 0.402497
598 1 0.90865 0.581297 0.344685
597 1 0.829676 0.502827 0.331809
600 1 0.834504 0.575313 0.417723
601 1 0.990703 0.658652 0.329169
602 1 0.0779921 0.738076 0.33862
603 1 0.100013 0.658722 0.416911
604 1 0.992098 0.749222 0.404711
625 1 -0.00788409 0.837292 0.331331
627 1 0.0752752 0.824089 0.414317
605 1 0.182187 0.659722 0.332436
606 1 0.245584 0.745055 0.330918
607 1 0.265002 0.668069 0.406686
608 1 0.160723 0.74362 0.406578
629 1 0.156042 0.82154 0.325158
631 1 0.254627 0.836196 0.401266
609 1 0.34255 0.675342 0.32748
610 1 0.418273 0.763906 0.326695
611 1 0.427342 0.676297 0.408983
453 1 0.823384 0.509461 -0.00325144
505 1 0.999921 0.50136 0.159282
599 1 0.924506 0.496248 0.42559
153 1 0.322113 0.997412 0.333355
579 1 0.0837226 0.50778 0.414181
589 1 0.500192 0.488899 0.324855
7 1 0.260888 1.00161 0.0750631
455 1 0.904257 0.499619 0.0846642
513 1 0.344245 0.502042 0.166349
517 1 0.495701 0.508138 0.172611
507 1 0.0777413 0.504654 0.25242
19 1 0.74523 0.998088 0.0765265
511 1 0.253858 0.499804 0.25456
519 1 0.580839 0.49927 0.251023
674 1 0.0924556 0.75024 0.496807
666 1 0.74602 0.589145 0.497891
670 1 0.915656 0.582769 0.498252
490 1 0.418386 0.914706 -0.00337825
473 1 0.656718 0.668422 -0.00477062
685 1 0.484257 0.659274 0.497051
438 1 0.254289 0.594268 0.00275803
458 1 0.0858921 0.748941 -0.0154707
681 1 0.346836 0.673333 0.497024
497 1 0.660346 0.827991 -0.00371523
446 1 0.572742 0.575444 0.0029797
710 1 0.588827 0.929269 0.500229
682 1 0.416624 0.749604 0.498065
229 1 0.491108 1.00433 0.492629
434 1 0.0848523 0.591239 0.00910875
494 1 0.580919 0.918628 -0.00414654
450 1 0.737533 0.590974 0.00520367
461 1 0.171758 0.654493 -0.00127686
864 1 0.830564 0.915878 0.910176
714 1 0.75105 0.922127 0.504737
1 1 -6.5945e-05 1.00489 1.00571
652 1 0.00821548 0.586418 0.577673
860 1 0.660073 0.91585 0.914004
21 1 0.820292 1.00134 0.99771
856 1 0.502931 0.917209 0.906045
656 1 0.176683 0.591034 0.582467
852 1 0.340882 0.920051 0.91263
477 1 0.827044 0.672994 0.999147
361 1 -0.00105708 0.999483 0.828272
660 1 0.342047 0.572839 0.588184
848 1 0.162965 0.921298 0.920116
658 1 0.415134 0.570722 0.506309
844 1 1.00532 0.921078 0.910689
664 1 0.489388 0.582534 0.586193
698 1 0.0722247 0.909264 0.485873
489 1 0.33462 0.836637 1.0119
863 1 0.932282 0.837107 0.920102
668 1 0.661512 0.591595 0.58417
717 1 0.832868 0.831169 0.508717
482 1 0.0767766 0.91839 0.998354
678 1 0.260739 0.748296 0.486663
672 1 0.833188 0.577837 0.58674
375 1 0.573576 1.00755 0.926567
702 1 0.258734 0.912446 0.487383
675 1 0.0909216 0.659869 0.580518
676 1 0.00943378 0.746816 0.585473
807 1 0.580227 0.488083 0.921661
699 1 0.0891136 0.832546 0.575842
815 1 0.913646 0.511436 0.919117
657 1 0.329838 0.496766 0.502128
679 1 0.257708 0.676436 0.595973
680 1 0.173116 0.753018 0.58701
299 1 0.413364 0.998053 0.744479
703 1 0.240647 0.841466 0.571958
701 1 0.165393 0.835981 0.485733
462 1 0.241456 0.738789 0.999127
683 1 0.411274 0.661898 0.596403
684 1 0.328723 0.758839 0.597092
795 1 0.0928063 0.502583 0.91413
707 1 0.414324 0.826316 0.572944
381 1 0.839156 0.99814 0.822689
311 1 0.914965 1.00307 0.753397
687 1 0.568156 0.669923 0.579562
688 1 0.492508 0.750147 0.57899
235 1 0.744553 0.998898 0.577651
711 1 0.579082 0.843417 0.586175
667 1 0.748224 0.51074 0.577115
219 1 0.0726487 1.00809 0.588817
691 1 0.742109 0.666754 0.580157
692 1 0.661683 0.754252 0.583631
293 1 0.164715 1.00123 0.667972
715 1 0.741514 0.829233 0.584646
502 1 0.916904 0.923605 1.00116
693 1 0.83399 0.665465 0.497055
695 1 0.925539 0.664085 0.578585
696 1 0.827697 0.745657 0.580377
805 1 0.498902 0.495479 0.828312
719 1 0.912714 0.825785 0.586826
820 1 0.00128663 0.741285 0.912556
700 1 1.00533 0.915238 0.594283
457 1 1.00348 0.660891 0.999748
704 1 0.151562 0.917827 0.58168
823 1 0.251634 0.654357 0.91357
708 1 0.336661 0.912223 0.588537
713 1 0.670988 0.839299 0.504276
712 1 0.493668 0.923562 0.574377
813 1 0.828674 0.494009 0.837467
716 1 0.673431 0.918218 0.583671
843 1 0.0792044 0.836276 0.917032
720 1 0.830421 0.910257 0.590822
819 1 0.0883074 0.660741 0.914565
722 1 0.0787724 0.585517 0.674947
840 1 0.820767 0.745846 0.913585
724 1 0.00499019 0.580612 0.76404
839 1 0.908427 0.669101 0.920216
794 1 0.0852569 0.574456 0.829667
816 1 0.830078 0.582891 0.922933
726 1 0.251132 0.585111 0.662569
824 1 0.172884 0.742726 0.911849
728 1 0.171362 0.580726 0.745459
847 1 0.253881 0.822328 0.911631
798 1 0.240645 0.570985 0.83808
859 1 0.745755 0.837717 0.899853
730 1 0.417083 0.581041 0.670085
836 1 0.668903 0.749168 0.90719
732 1 0.332443 0.577627 0.744013
808 1 0.49536 0.576347 0.912884
802 1 0.412744 0.578137 0.829215
835 1 0.742673 0.667329 0.91771
734 1 0.574194 0.577661 0.662367
481 1 0.000336183 0.829246 1.01094
736 1 0.498393 0.586229 0.756537
694 1 0.91423 0.749354 0.502504
806 1 0.581017 0.564734 0.829141
855 1 0.581595 0.831767 0.917734
738 1 0.755135 0.576372 0.665939
827 1 0.411662 0.672978 0.92472
740 1 0.66892 0.578113 0.747892
832 1 0.501578 0.75243 0.912894
810 1 0.762417 0.58249 0.831612
831 1 0.580905 0.663545 0.921206
742 1 0.930519 0.580601 0.657627
804 1 0.334597 0.587733 0.912787
744 1 0.844365 0.579837 0.741377
851 1 0.42687 0.829638 0.923404
814 1 0.912733 0.57229 0.830845
745 1 0.00694935 0.664013 0.665617
746 1 0.0951398 0.747466 0.665142
747 1 0.09323 0.657198 0.746101
748 1 1.00302 0.736797 0.743787
769 1 -0.00622707 0.833034 0.663612
771 1 0.0866127 0.823909 0.752029
817 1 1.00561 0.656233 0.845817
818 1 0.0830006 0.747969 0.825884
841 1 0.00519622 0.831295 0.837783
749 1 0.170455 0.664076 0.666906
750 1 0.244039 0.753957 0.684577
751 1 0.251569 0.657239 0.746427
752 1 0.161884 0.748033 0.750477
773 1 0.166726 0.839072 0.669387
775 1 0.240702 0.84675 0.75825
821 1 0.16992 0.658551 0.825896
822 1 0.245433 0.743904 0.827352
845 1 0.161156 0.833399 0.843269
753 1 0.335251 0.664348 0.671964
754 1 0.422526 0.754808 0.672283
755 1 0.422264 0.665313 0.752474
756 1 0.345892 0.757079 0.744632
777 1 0.337123 0.831392 0.669526
779 1 0.42773 0.831885 0.749097
825 1 0.337936 0.667696 0.824445
826 1 0.418088 0.750605 0.833127
849 1 0.338735 0.835654 0.841019
757 1 0.494588 0.667402 0.671432
758 1 0.574005 0.75477 0.659307
759 1 0.578152 0.661013 0.748288
760 1 0.500691 0.74155 0.754031
781 1 0.501777 0.839254 0.664307
783 1 0.581304 0.83695 0.7496
829 1 0.509332 0.651448 0.834672
830 1 0.58152 0.74543 0.834936
853 1 0.50169 0.834556 0.840829
761 1 0.661037 0.66631 0.671023
762 1 0.743147 0.738266 0.670794
763 1 0.755697 0.650944 0.7419
764 1 0.653426 0.745018 0.746169
785 1 0.65611 0.834605 0.665904
787 1 0.742687 0.826244 0.744462
833 1 0.661405 0.655431 0.825663
834 1 0.732065 0.740053 0.814906
857 1 0.658023 0.832408 0.824564
765 1 0.833722 0.655301 0.662772
766 1 0.923142 0.747511 0.659683
767 1 0.924491 0.657611 0.749894
768 1 0.833693 0.738563 0.731748
789 1 0.828399 0.827458 0.664546
791 1 0.918551 0.816429 0.754886
837 1 0.834812 0.667719 0.828006
838 1 0.92053 0.744527 0.830328
861 1 0.836636 0.817918 0.827675
770 1 0.0870432 0.914476 0.671868
772 1 1.01326 0.917443 0.75136
842 1 0.0804672 0.922271 0.827467
774 1 0.233203 0.916712 0.655746
776 1 0.158938 0.916896 0.746521
846 1 0.25755 0.916359 0.841936
778 1 0.423273 0.918655 0.659898
780 1 0.325176 0.917298 0.754213
850 1 0.414872 0.916091 0.82342
782 1 0.581826 0.920607 0.668586
784 1 0.503857 0.91768 0.745567
854 1 0.58655 0.914363 0.823798
786 1 0.75409 0.920347 0.665091
788 1 0.661846 0.916195 0.747585
858 1 0.749218 0.915724 0.824949
790 1 0.91522 0.900941 0.680462
792 1 0.823102 0.906277 0.744102
862 1 0.913882 0.908064 0.830279
828 1 0.327642 0.743827 0.905355
796 1 1.01386 0.577809 0.924688
812 1 0.65556 0.574422 0.919203
800 1 0.164638 0.58603 0.920208
741 1 0.843914 0.494635 0.664713
697 1 0.997829 0.823322 0.496996
291 1 0.088623 1.00998 0.755869
809 1 0.672242 0.499157 0.830852
803 1 0.407359 0.494535 0.914615
367 1 0.257617 1.01032 0.902013
303 1 0.581041 1.0017 0.747583
373 1 0.49242 0.991677 0.822791
486 1 0.248884 0.905018 0.987716
650 1 0.0978478 0.584648 0.504851
677 1 0.181043 0.672532 0.506478
706 1 0.415556 0.912813 0.507734
493 1 0.5023 0.827341 1.00224
673 1 0.00436733 0.672474 0.493192
470 1 0.583001 0.753881 0.996959
501 1 0.835649 0.8359 0.984848
498 1 0.736764 0.907543 0.998903
654 1 0.258646 0.593401 0.501106
662 1 0.578869 0.578497 0.502958
466 1 0.408849 0.758053 1.00247
718 1 0.91547 0.908097 0.511995
485 1 0.170201 0.832105 0.987622
690 1 0.755985 0.753626 0.50163
653 1 0.177901 0.497096 0.498324
474 1 0.741817 0.75145 1.00012
237 1 0.837462 0.996562 0.507651
469 1 0.490289 0.6715 0.999718
478 1 0.913623 0.756935 1.00321
705 1 0.337124 0.833603 0.497846
689 1 0.655857 0.667744 0.501805
