ITEM: TIMESTEP
21250
ITEM: NUMBER OF ATOMS
864
ITEM: BOX BOUNDS pp pp pp
0.0000000000000000e+00 3.1559999999999999e+01
0.0000000000000000e+00 3.1559999999999999e+01
0.0000000000000000e+00 3.1559999999999999e+01
ITEM: ATOMS id type xs ys zs
8 1 0.177683 0.0791216 0.0872898
226 1 0.432379 0.0778923 0.498046
507 1 0.0775869 0.492691 0.248442
27 1 0.093237 0.165736 0.0664898
435 1 0.0762025 0.493763 0.0848456
595 1 0.748323 0.497811 0.395632
78 1 0.260033 0.0767933 0.177223
221 1 0.165595 0.0133708 0.499503
511 1 0.253315 0.513544 0.254562
145 1 -0.0136017 -0.00455976 0.327608
6 1 0.254943 0.0847658 0.00547182
12 1 0.333454 0.0811908 0.0820089
35 1 0.419984 0.160405 0.0931873
16 1 0.496871 0.0714763 0.0849304
215 1 0.919195 0.340448 0.419013
451 1 0.755971 0.506997 0.0670534
213 1 0.833341 0.338732 0.344881
449 1 0.660813 0.501835 -0.00107715
234 1 0.759287 0.0898421 0.499035
85 1 0.501519 -0.013331 0.164426
20 1 0.6595 0.0910569 0.0953784
147 1 0.0792247 0.0127491 0.411659
43 1 0.742135 0.1583 0.0836377
3 1 0.100523 0.00359813 0.0883421
523 1 0.752706 0.497962 0.235822
4 1 0.0182432 0.0858498 0.0663488
151 1 0.252848 -0.0023929 0.422156
24 1 0.833345 0.100172 0.0811941
439 1 0.24694 0.507107 0.0762251
91 1 0.747617 -0.0106366 0.242585
32 1 0.167116 0.236501 0.0743652
51 1 0.0986777 0.317679 0.0833742
577 1 0.00593232 0.507496 0.330687
217 1 -0.00649302 0.00538478 0.496932
31 1 0.253765 0.167899 0.0785401
23 1 0.918801 0.0155973 0.08525
36 1 0.330036 0.247425 0.0872948
40 1 0.500116 0.250447 0.0797249
19 1 0.734585 0.00900876 0.0949814
113 1 0.657174 0.156729 0.173331
39 1 0.577924 0.16853 0.0794613
44 1 0.661534 0.245605 0.0815669
73 1 0.999425 0.00419318 0.172666
62 1 0.582525 0.414004 -0.0011069
117 1 0.842311 0.171273 0.17042
114 1 0.749493 0.248892 0.158104
67 1 0.738011 0.327147 0.0663656
184 1 0.492672 0.266029 0.41474
597 1 0.827163 0.492343 0.325891
285 1 0.824998 0.335428 0.505175
28 1 1.00222 0.237125 0.0754996
47 1 0.920617 0.169401 0.0631918
48 1 0.835334 0.234699 0.0758379
455 1 0.918249 0.493424 0.0766754
122 1 0.0911447 0.411256 0.143886
52 1 0.994794 0.407465 0.0809064
216 1 0.828364 0.415261 0.428026
56 1 0.184347 0.415635 0.0870706
55 1 0.248884 0.330471 0.0774553
126 1 0.2508 0.424269 0.174594
125 1 0.16835 0.32304 0.16336
60 1 0.312412 0.417905 0.0702277
194 1 0.0784705 0.419991 0.338012
212 1 0.655059 0.414166 0.421701
196 1 -0.00129265 0.413165 0.413671
176 1 0.193249 0.264432 0.402842
59 1 0.409762 0.33735 0.0871294
133 1 0.500699 0.329255 0.164839
64 1 0.500639 0.406588 0.085311
173 1 0.180278 0.16563 0.333286
130 1 0.409189 0.433794 0.17544
63 1 0.586954 0.318621 0.0841683
134 1 0.582973 0.420027 0.167857
208 1 0.500445 0.412927 0.405865
25 1 -0.0107908 0.157666 -0.0210129
68 1 0.667058 0.408292 0.0936174
207 1 0.580439 0.346193 0.428218
222 1 0.25626 0.0869711 0.481452
71 1 0.915775 0.319659 0.0774458
72 1 0.834257 0.415837 0.0825313
142 1 0.917744 0.409137 0.160411
167 1 0.920793 0.00655841 0.41133
74 1 0.102109 0.0909542 0.154696
80 1 0.173015 0.0888602 0.246613
76 1 1.00009 0.0863855 0.251365
99 1 0.0882545 0.168376 0.26258
101 1 0.169577 0.175545 0.163135
146 1 0.0656602 0.0876407 0.338356
150 1 0.259278 0.0849686 0.320316
177 1 0.342813 0.166605 0.336684
199 1 0.262772 0.353966 0.428746
191 1 0.917587 0.172125 0.41891
84 1 0.345991 0.0842936 0.249277
82 1 0.421333 0.082246 0.163443
107 1 0.425257 0.153743 0.25616
88 1 0.503982 0.0670364 0.246143
105 1 0.340334 0.157602 0.17204
109 1 0.494916 0.172183 0.180432
86 1 0.571447 0.0771184 0.162155
158 1 0.604698 0.0659251 0.333433
92 1 0.66699 0.0834903 0.248676
111 1 0.588838 0.15691 0.251662
90 1 0.756186 0.101667 0.180157
96 1 0.856102 0.0870067 0.254643
94 1 0.937676 0.100722 0.156056
119 1 0.933856 0.178619 0.239802
97 1 0.0216292 0.16889 0.164406
192 1 0.815147 0.252449 0.421113
98 1 0.0868434 0.260907 0.185533
104 1 0.174027 0.2465 0.257243
100 1 1.01261 0.251722 0.258247
121 1 0.00804306 0.331899 0.173466
193 1 0.00677354 0.333806 0.34764
103 1 0.256186 0.159817 0.250047
102 1 0.259128 0.250305 0.165961
108 1 0.338137 0.245846 0.236496
201 1 0.328311 0.347094 0.329822
174 1 0.254063 0.254245 0.313795
106 1 0.410548 0.249822 0.156026
112 1 0.492889 0.258561 0.253483
205 1 0.497173 0.345688 0.324333
178 1 0.417179 0.241129 0.326569
110 1 0.591257 0.238151 0.16419
137 1 0.653765 0.325803 0.176059
182 1 0.583111 0.262422 0.332218
116 1 0.658909 0.238953 0.260202
115 1 0.738249 0.168399 0.252725
120 1 0.821079 0.248799 0.253309
139 1 0.750935 0.333835 0.2563
118 1 0.911364 0.25501 0.16996
143 1 0.933517 0.336507 0.245157
141 1 0.825791 0.321707 0.164763
190 1 0.909304 0.251409 0.331957
123 1 0.0844142 0.339461 0.260527
128 1 0.174735 0.408962 0.252304
66 1 0.731869 0.414355 0.0117047
129 1 0.325822 0.340396 0.159071
127 1 0.259784 0.33793 0.247535
197 1 0.1804 0.333429 0.323966
203 1 0.408008 0.336476 0.419482
131 1 0.420039 0.333308 0.238582
132 1 0.340184 0.435706 0.264087
202 1 0.401864 0.426606 0.35312
136 1 0.49968 0.431071 0.257359
135 1 0.581155 0.325458 0.251456
206 1 0.575745 0.415051 0.319343
521 1 0.669739 0.484366 0.161069
138 1 0.76047 0.406912 0.169565
210 1 0.742287 0.412867 0.321314
140 1 0.672055 0.407741 0.242633
187 1 0.738942 0.166751 0.413801
186 1 0.732188 0.25216 0.34216
124 1 1.00152 0.413836 0.261175
214 1 0.930323 0.415819 0.337162
144 1 0.840548 0.413253 0.245987
204 1 0.32394 0.439468 0.420568
148 1 0.996784 0.0867662 0.422028
169 1 0.998027 0.175868 0.337977
152 1 0.175668 0.0751349 0.406151
156 1 0.335607 0.0807398 0.398634
175 1 0.253735 0.160866 0.411635
188 1 0.651445 0.261921 0.430806
198 1 0.249264 0.433419 0.32805
179 1 0.436672 0.167875 0.402696
447 1 0.583931 0.493793 0.0865017
154 1 0.412641 0.0767629 0.328765
160 1 0.51849 0.0752331 0.409643
180 1 0.324556 0.247534 0.404112
200 1 0.169698 0.421858 0.404453
211 1 0.735183 0.336238 0.420598
181 1 0.518029 0.166322 0.326054
164 1 0.671185 0.0799296 0.415302
581 1 0.169619 0.501406 0.330028
209 1 0.658468 0.339282 0.337558
33 1 0.3367 0.166041 0.00551282
189 1 0.8297 0.177321 0.331759
162 1 0.745519 0.0854365 0.327444
185 1 0.659073 0.164577 0.334592
163 1 0.759049 0.00556207 0.413209
168 1 0.834246 0.0939452 0.412667
166 1 0.921382 0.092587 0.345034
183 1 0.581722 0.177081 0.417718
170 1 0.098049 0.244568 0.347776
195 1 0.105426 0.334715 0.403249
171 1 0.0890459 0.160708 0.414966
172 1 1.01253 0.247531 0.416919
505 1 -0.00343889 0.493451 0.168733
593 1 0.667988 0.49067 0.315386
53 1 0.170122 0.336717 -0.00743908
93 1 0.831428 0.00556447 0.169651
258 1 0.740017 0.259716 0.49197
265 1 0.992572 0.34522 0.512083
75 1 0.069366 0.0110612 0.252376
579 1 0.0828578 0.50486 0.411464
589 1 0.502464 0.518262 0.328295
653 1 0.163092 0.500296 0.500306
89 1 0.656127 -0.00991398 0.175502
443 1 0.426166 0.492415 0.0915966
237 1 0.820349 -0.004741 0.507161
69 1 0.837391 0.315232 0.00977662
249 1 0.346904 0.158313 0.480059
649 1 0.98372 0.488923 0.497388
50 1 0.0786908 0.406371 0.00889557
230 1 0.589959 0.0832001 0.494777
270 1 0.241258 0.428499 0.50272
278 1 0.581518 0.42817 0.51465
225 1 0.340945 -0.00576837 0.481829
274 1 0.410491 0.426973 0.495926
18 1 0.734324 0.0871989 -0.004125
246 1 0.258324 0.251912 0.494867
34 1 0.41955 0.247128 0.000966305
253 1 0.505435 0.179653 0.498832
257 1 0.661982 0.175434 0.505896
669 1 0.82728 0.504395 0.48622
245 1 0.176644 0.163484 0.48372
437 1 0.160037 0.490245 -0.015785
58 1 0.41656 0.414938 -0.00889993
57 1 0.33063 0.327247 0.00601987
433 1 0.00361295 0.496212 -0.00969047
282 1 0.749568 0.422498 0.505376
29 1 0.174042 0.154959 -0.00972185
242 1 0.0905964 0.25808 0.509984
313 1 0.0106144 0.154797 0.667575
797 1 0.183443 0.498169 0.821521
14 1 0.568351 0.08123 0.99954
224 1 0.164993 0.0851699 0.575608
294 1 0.265643 0.0805712 0.668116
815 1 0.93189 0.498304 0.918568
721 1 0.00950645 0.490274 0.673884
228 1 0.329717 0.0859612 0.557734
251 1 0.408999 0.174587 0.563798
277 1 0.495156 0.356315 0.507148
232 1 0.516095 0.0832657 0.583754
236 1 0.674167 0.0811422 0.576812
38 1 0.580462 0.244493 0.999957
333 1 0.834907 0.161789 0.682741
813 1 0.821452 0.49468 0.839117
220 1 1.00397 0.0785736 0.579253
240 1 0.834558 0.0946283 0.598454
381 1 0.818251 0.0191315 0.828573
295 1 0.256154 -0.00359151 0.744299
243 1 0.0926251 0.176291 0.585561
267 1 0.091628 0.333447 0.590364
244 1 1.00838 0.253125 0.583321
248 1 0.178671 0.249433 0.561721
337 1 -0.00799343 0.321025 0.667665
727 1 0.248958 0.493863 0.739543
365 1 0.171985 -0.000738708 0.832322
247 1 0.248698 0.155608 0.568927
271 1 0.252015 0.325834 0.587751
317 1 0.173786 0.164697 0.665404
291 1 0.0958415 -0.000488951 0.739611
321 1 0.335281 0.157474 0.655247
252 1 0.322415 0.245282 0.581954
322 1 0.409661 0.243046 0.649472
345 1 0.335797 0.320584 0.671402
256 1 0.500722 0.248364 0.590436
255 1 0.592138 0.184577 0.582453
259 1 0.753532 0.161642 0.590827
260 1 0.65878 0.262109 0.58122
283 1 0.74825 0.327088 0.594101
655 1 0.267552 0.503294 0.596256
264 1 0.822814 0.236582 0.586399
263 1 0.924568 0.156668 0.59526
287 1 0.903285 0.325531 0.60509
334 1 0.917764 0.243282 0.67145
651 1 0.0795835 0.489293 0.589412
731 1 0.417428 0.514567 0.75796
739 1 0.742915 0.484851 0.752731
741 1 0.831532 0.495475 0.661151
268 1 1.001 0.410234 0.596009
272 1 0.162892 0.419179 0.566834
276 1 0.344695 0.420063 0.590189
303 1 0.592381 0.000458018 0.760323
430 1 0.924303 0.410407 0.845026
275 1 0.411506 0.323424 0.567666
305 1 0.663965 -0.000568403 0.672561
280 1 0.493929 0.437477 0.591043
279 1 0.58038 0.341722 0.59451
803 1 0.423128 0.493853 0.918513
427 1 0.759968 0.328804 0.924391
297 1 0.341339 0.00536593 0.654455
379 1 0.749961 -0.0107056 0.930551
426 1 0.743582 0.414361 0.829995
311 1 0.914395 -0.000262608 0.749516
284 1 0.659515 0.430274 0.585707
353 1 0.664571 0.346979 0.662778
288 1 0.844803 0.407655 0.583957
290 1 0.0940196 0.0768631 0.658483
315 1 0.0873277 0.164185 0.750876
385 1 -0.00120945 0.162803 0.831972
296 1 0.179574 0.0846564 0.752951
300 1 0.346975 0.0839991 0.733363
298 1 0.417926 0.0819094 0.650279
37 1 0.498073 0.176234 0.990112
432 1 0.834291 0.412959 0.924954
304 1 0.484487 0.0776639 0.749207
743 1 0.923745 0.499882 0.741219
286 1 0.907543 0.425074 0.493601
302 1 0.57473 0.0671758 0.678367
327 1 0.558934 0.164789 0.762051
374 1 0.589337 0.0883724 0.834798
306 1 0.743253 0.0796244 0.666167
308 1 0.655485 0.0881719 0.745558
312 1 0.83192 0.0745951 0.744589
378 1 0.740431 0.0929605 0.825109
26 1 0.0909498 0.245243 0.998166
310 1 0.92196 0.0808733 0.673044
292 1 0.0142722 0.0774963 0.74601
335 1 0.91995 0.161987 0.766399
382 1 0.907655 0.0791551 0.845456
671 1 0.909136 0.507034 0.582419
314 1 0.0781491 0.243238 0.657926
316 1 1.01564 0.242242 0.758642
339 1 0.0870542 0.320143 0.734655
318 1 0.234337 0.254369 0.666777
341 1 0.168177 0.334434 0.65194
320 1 0.161394 0.236031 0.748895
319 1 0.247076 0.168735 0.757722
343 1 0.249358 0.324224 0.749933
349 1 0.471083 0.338633 0.657835
323 1 0.412168 0.170574 0.735988
324 1 0.318687 0.250982 0.745187
347 1 0.407419 0.345082 0.761341
394 1 0.426307 0.249766 0.831869
325 1 0.501502 0.149172 0.670515
326 1 0.580136 0.240937 0.671483
328 1 0.479363 0.260353 0.733418
351 1 0.572403 0.331808 0.736654
329 1 0.667318 0.160345 0.662961
330 1 0.750175 0.243118 0.67222
331 1 0.741743 0.165451 0.746228
332 1 0.653376 0.244535 0.759719
355 1 0.738578 0.332953 0.749494
357 1 0.82203 0.329687 0.667547
336 1 0.833839 0.2443 0.745924
359 1 0.909972 0.323437 0.742309
406 1 0.921332 0.253985 0.832051
375 1 0.588419 -0.00824624 0.913793
49 1 -0.00237084 0.313043 0.999983
301 1 0.493885 -0.00449841 0.670903
338 1 0.087844 0.407617 0.673177
340 1 0.998304 0.400045 0.747529
409 1 0.0149674 0.332808 0.828631
342 1 0.248448 0.411619 0.675289
725 1 0.164757 0.493936 0.656103
344 1 0.170223 0.410581 0.742918
413 1 0.158252 0.327688 0.829819
423 1 0.582526 0.332009 0.911725
346 1 0.413701 0.426007 0.674165
348 1 0.326098 0.416767 0.752468
352 1 0.497357 0.417407 0.753179
350 1 0.5843 0.426471 0.66661
356 1 0.668194 0.408056 0.745554
420 1 0.344204 0.409414 0.899775
354 1 0.757844 0.409248 0.663735
422 1 0.581302 0.401399 0.825022
219 1 0.0836289 0.00296166 0.583055
431 1 0.929639 0.327835 0.916424
360 1 0.833032 0.409805 0.74311
358 1 0.921724 0.410288 0.672212
363 1 0.0904774 0.0101722 0.904157
389 1 0.166079 0.165455 0.841833
362 1 0.105764 0.0875641 0.832116
364 1 0.00646443 0.0765913 0.916415
368 1 0.176051 0.0670386 0.922717
366 1 0.267456 0.0816023 0.820789
372 1 0.324414 0.0856876 0.922413
408 1 0.833382 0.251622 0.918229
45 1 0.825029 0.165703 0.996421
428 1 0.661506 0.418921 0.921284
370 1 0.404033 0.0807468 0.834715
376 1 0.496171 0.0781325 0.920767
227 1 0.415524 -0.0104185 0.570569
399 1 0.593565 0.167317 0.924895
380 1 0.669046 0.0731558 0.908568
424 1 0.504593 0.41384 0.933534
416 1 0.153213 0.403929 0.905699
412 1 0.0120309 0.422499 0.905253
403 1 0.740721 0.154717 0.913949
414 1 0.242621 0.40689 0.826146
61 1 0.503186 0.3328 1.00809
384 1 0.81676 0.0749241 0.912984
407 1 0.91205 0.173824 0.907985
418 1 0.419935 0.42647 0.826027
386 1 0.0988264 0.25305 0.839905
387 1 0.0908236 0.170537 0.918241
388 1 -0.000875665 0.246814 0.905741
411 1 0.0770152 0.332677 0.922206
417 1 0.328981 0.324287 0.835351
393 1 0.333722 0.171325 0.829442
392 1 0.164673 0.247891 0.922391
390 1 0.233973 0.250088 0.832159
391 1 0.249632 0.175554 0.91491
396 1 0.344824 0.262691 0.920864
415 1 0.258577 0.328323 0.92642
397 1 0.487455 0.162393 0.82977
421 1 0.507193 0.321826 0.819463
395 1 0.414305 0.163431 0.906832
419 1 0.434377 0.34625 0.908383
401 1 0.664934 0.168002 0.830834
398 1 0.579758 0.245842 0.833136
400 1 0.504327 0.247977 0.915009
404 1 0.671087 0.245897 0.923734
425 1 0.660786 0.326922 0.83575
402 1 0.749411 0.253255 0.844173
410 1 0.0908351 0.422449 0.822814
429 1 0.829474 0.331283 0.820896
405 1 0.820165 0.163161 0.834696
10 1 0.430769 0.0765649 1.00367
441 1 0.33365 0.488594 0.989213
445 1 0.493721 0.50116 1.01914
266 1 0.072078 0.41411 0.488053
2 1 0.0895335 0.0747236 1.00442
361 1 0.00398762 0.00396088 0.821084
41 1 0.661613 0.168624 1.00459
735 1 0.599736 0.49588 0.76047
231 1 0.598589 0.00639763 0.586255
250 1 0.411473 0.248721 0.480637
54 1 0.246965 0.429123 0.982874
46 1 0.921226 0.242454 0.989898
22 1 0.906184 0.0805458 0.988789
254 1 0.569193 0.267687 0.495034
218 1 0.0871148 0.0994417 0.503913
30 1 0.2535 0.249773 1.00485
65 1 0.656143 0.345835 0.998029
1 1 -0.00256784 0.00773643 1.00213
241 1 0.999833 0.173212 0.502304
70 1 0.926864 0.408911 0.987989
273 1 0.315176 0.355187 0.513307
17 1 0.657252 0.00447387 1.01311
42 1 0.750459 0.238861 0.998152
261 1 0.840463 0.169246 0.492309
269 1 0.160026 0.33839 0.490935
238 1 0.902016 0.0669736 0.500692
281 1 0.669036 0.3423 0.508675
262 1 0.904176 0.271242 0.501857
440 1 0.149304 0.576254 0.0810982
506 1 0.082528 0.577135 0.165972
157 1 0.503856 0.997879 0.324791
517 1 0.500303 0.513541 0.182666
444 1 0.34445 0.568144 0.077554
648 1 0.833326 0.922438 0.416814
501 1 0.84256 0.838062 0.0220941
81 1 0.342486 0.991191 0.170992
165 1 0.830224 0.997243 0.329294
537 1 0.325004 0.665647 0.165138
514 1 0.41195 0.583256 0.160243
448 1 0.497779 0.581665 0.0921046
541 1 0.500657 0.674734 0.165947
515 1 0.413056 0.523199 0.264617
79 1 0.250706 0.988578 0.248718
518 1 0.588815 0.570491 0.164038
527 1 0.918521 0.499501 0.270245
628 1 0.987707 0.917078 0.423674
452 1 0.670206 0.578058 0.0861977
522 1 0.752551 0.573052 0.158976
456 1 0.840239 0.577174 0.0590296
436 1 0.00685311 0.570867 0.0750357
479 1 0.907636 0.655964 0.0839324
95 1 0.905101 0.987954 0.25101
526 1 0.925084 0.564025 0.156537
459 1 0.0767226 0.669514 0.0905547
530 1 0.0768127 0.75262 0.179927
464 1 0.160781 0.750271 0.0911196
533 1 0.172553 0.665958 0.169739
87 1 0.576232 0.99336 0.245977
513 1 0.325771 0.507422 0.163706
463 1 0.24774 0.675012 0.0960234
487 1 0.245786 0.828998 0.100675
468 1 0.332349 0.74666 0.0918637
467 1 0.40866 0.669962 0.0827983
472 1 0.506352 0.749177 0.0887065
538 1 0.416498 0.740699 0.179441
159 1 0.584849 0.992635 0.406081
471 1 0.593135 0.665066 0.0971458
542 1 0.587385 0.748575 0.163169
545 1 0.662273 0.652629 0.176839
15 1 0.577592 0.993405 0.0812056
475 1 0.745558 0.657353 0.0695781
476 1 0.666219 0.750154 0.0900499
546 1 0.763755 0.736356 0.167449
549 1 0.836428 0.64998 0.166816
460 1 0.976868 0.742668 0.0708286
480 1 0.833925 0.75367 0.0864553
529 1 0.986907 0.662114 0.157643
573 1 0.832938 0.83629 0.150541
77 1 0.169013 1.0061 0.186021
483 1 0.0742757 0.829549 0.0914208
488 1 0.168249 0.925059 0.096447
557 1 0.162666 0.834904 0.172613
553 1 0.997988 0.835901 0.164531
554 1 0.0844979 0.93078 0.170743
466 1 0.415264 0.749764 0.00107693
492 1 0.340025 0.919621 0.0799114
678 1 0.246097 0.749802 0.498073
491 1 0.417773 0.821857 0.0938326
496 1 0.504996 0.92458 0.073533
561 1 0.330605 0.832481 0.184649
565 1 0.512841 0.84488 0.160843
495 1 0.585186 0.826455 0.0787948
500 1 0.655163 0.913833 0.0809391
585 1 0.336994 0.512595 0.338605
509 1 0.158408 0.485528 0.175373
499 1 0.732489 0.827719 0.0770704
570 1 0.744223 0.919286 0.153796
485 1 0.165026 0.843266 0.0219342
503 1 0.923851 0.843569 0.0849555
484 1 0.00370144 0.943126 0.0779383
504 1 0.834117 0.928936 0.0951645
574 1 0.925439 0.920793 0.161127
599 1 0.905096 0.49682 0.403382
578 1 0.0970728 0.586167 0.337463
512 1 0.173046 0.586628 0.253985
161 1 0.670974 0.977372 0.329138
510 1 0.247611 0.579434 0.162555
535 1 0.248462 0.66935 0.256042
582 1 0.248518 0.591632 0.334268
7 1 0.261048 0.986464 0.0829961
516 1 0.321795 0.591718 0.247423
586 1 0.412325 0.588931 0.353815
519 1 0.582824 0.506107 0.248361
520 1 0.501927 0.593182 0.252006
524 1 0.679779 0.576242 0.25147
644 1 0.65593 0.9052 0.43026
613 1 0.513842 0.660615 0.335543
617 1 0.680285 0.669931 0.332088
643 1 0.753538 0.829428 0.416962
528 1 0.829541 0.579049 0.245537
508 1 -0.00771015 0.580013 0.24733
598 1 0.91518 0.589052 0.349059
551 1 0.91489 0.652088 0.260962
601 1 0.995532 0.661624 0.333865
605 1 0.167345 0.671399 0.332285
531 1 0.0839458 0.662375 0.249489
536 1 0.167457 0.751903 0.261681
629 1 0.14962 0.826039 0.345863
602 1 0.0759385 0.742349 0.319273
534 1 0.256424 0.761417 0.179875
606 1 0.250594 0.744346 0.338972
559 1 0.245809 0.832638 0.270002
633 1 0.325847 0.828659 0.346183
539 1 0.415431 0.658693 0.25377
540 1 0.347347 0.745044 0.256636
544 1 0.50797 0.76582 0.239076
563 1 0.410122 0.837442 0.270019
543 1 0.582837 0.667988 0.248588
614 1 0.574895 0.755636 0.336269
567 1 0.596793 0.824533 0.239018
547 1 0.759264 0.667643 0.264874
548 1 0.676256 0.739468 0.241833
552 1 0.841622 0.747908 0.249745
569 1 0.67617 0.83592 0.169283
550 1 0.914412 0.747419 0.158032
532 1 0.985178 0.745548 0.237458
645 1 0.838269 0.83848 0.335743
555 1 0.072552 0.83794 0.243906
11 1 0.414723 1.00359 0.0818443
458 1 0.0867926 0.742269 0.00800378
641 1 0.670681 0.826424 0.332982
560 1 0.148318 0.904862 0.272249
630 1 0.236093 0.91547 0.334384
558 1 0.247577 0.914119 0.172363
564 1 0.333088 0.915113 0.246002
155 1 0.432562 0.996452 0.411428
498 1 0.74002 0.927756 0.00472779
562 1 0.418003 0.911273 0.157088
634 1 0.414597 0.930789 0.329714
525 1 0.838762 0.511175 0.155905
568 1 0.504074 0.90505 0.258581
566 1 0.593637 0.911844 0.162866
572 1 0.662604 0.903548 0.252231
5 1 0.184081 0.994535 0.0050576
149 1 0.164613 1.00934 0.321997
642 1 0.758846 0.916259 0.349935
571 1 0.745441 0.816243 0.243223
576 1 0.832313 0.913947 0.236983
646 1 0.923137 0.905804 0.325172
575 1 0.910046 0.830959 0.237435
556 1 -0.00628011 0.912543 0.246794
603 1 0.0851049 0.675571 0.41132
462 1 0.249302 0.760267 0.0053041
584 1 0.158913 0.57917 0.423704
607 1 0.247044 0.650108 0.429446
636 1 0.322467 0.919784 0.392811
583 1 0.24924 0.51239 0.407951
705 1 0.323265 0.852233 0.487736
640 1 0.504412 0.907982 0.431398
609 1 0.344744 0.659349 0.330915
588 1 0.329123 0.578263 0.423562
611 1 0.42717 0.672359 0.422693
697 1 0.974351 0.839143 0.499722
590 1 0.606188 0.571769 0.335826
592 1 0.505785 0.583946 0.421389
638 1 0.593102 0.904711 0.325159
594 1 0.762771 0.584917 0.328915
621 1 0.833096 0.659258 0.334649
619 1 0.751837 0.665814 0.415344
596 1 0.688437 0.583148 0.418935
623 1 0.919204 0.666588 0.425335
580 1 -0.00141311 0.58356 0.413751
600 1 0.836256 0.600356 0.423169
587 1 0.424904 0.502304 0.412155
625 1 0.00445226 0.830437 0.344718
604 1 0.993002 0.748774 0.439851
608 1 0.156285 0.755599 0.427861
153 1 0.332959 1.0041 0.319166
631 1 0.243503 0.831174 0.424659
83 1 0.424084 0.988192 0.247501
632 1 0.151522 0.910629 0.411951
610 1 0.429915 0.741283 0.335445
637 1 0.482305 0.838585 0.349204
693 1 0.82156 0.67534 0.511977
635 1 0.407368 0.831405 0.427415
612 1 0.333265 0.742042 0.425711
639 1 0.581807 0.828058 0.432894
616 1 0.490583 0.755609 0.425965
615 1 0.599734 0.668333 0.403648
627 1 0.0732561 0.826918 0.427665
618 1 0.755931 0.761949 0.335051
461 1 0.180826 0.673697 0.00861212
620 1 0.671892 0.752727 0.410585
626 1 0.0705592 0.928977 0.332984
647 1 0.915819 0.828894 0.409495
622 1 0.904405 0.746925 0.340328
624 1 0.833547 0.744861 0.426806
486 1 0.251399 0.905858 0.0142355
591 1 0.573861 0.495384 0.412909
490 1 0.41225 0.912999 0.000636933
229 1 0.511783 0.99971 0.489726
469 1 0.497316 0.662241 -0.00182614
717 1 0.846546 0.838636 0.489675
702 1 0.233661 0.934942 0.507237
481 1 1.00606 0.840745 0.00758558
446 1 0.581492 0.585184 0.0188389
685 1 0.510219 0.676213 0.498788
502 1 0.914245 0.93347 0.00835723
677 1 0.167699 0.660698 0.50318
21 1 0.827611 1.00764 0.0157222
674 1 0.0802675 0.736246 0.518649
714 1 0.742581 0.916678 0.482322
662 1 0.585724 0.600906 0.491118
465 1 0.33162 0.659206 0.00106185
470 1 0.57601 0.734737 -2.74373e-05
690 1 0.751496 0.767578 0.499115
706 1 0.414021 0.905844 0.506901
698 1 0.0678384 0.92793 0.50086
652 1 -0.0075712 0.581109 0.583705
656 1 0.170392 0.574673 0.579855
675 1 0.0848966 0.654453 0.578546
665 1 0.657967 0.505532 0.482275
239 1 0.919212 1.00298 0.590584
679 1 0.247763 0.65823 0.583356
726 1 0.258473 0.577351 0.68172
650 1 0.0791551 0.565328 0.500689
660 1 0.331315 0.593729 0.612575
664 1 0.489524 0.596641 0.580266
683 1 0.406855 0.681628 0.592246
757 1 0.487854 0.684046 0.661754
383 1 0.898354 0.996168 0.914165
668 1 0.662465 0.585944 0.572442
687 1 0.58374 0.660605 0.588505
371 1 0.416104 0.991668 0.916727
691 1 0.749089 0.660748 0.602398
289 1 0.0126037 1.00588 0.660022
795 1 0.0797942 0.514683 0.915759
672 1 0.83564 0.583079 0.579616
863 1 0.935929 0.855059 0.913425
807 1 0.562832 0.513255 0.94655
676 1 0.99667 0.752986 0.583833
801 1 0.324286 0.493102 0.818203
746 1 0.0901385 0.758423 0.653184
680 1 0.177283 0.755782 0.57145
684 1 0.322055 0.764406 0.563902
750 1 0.24929 0.744854 0.660794
753 1 0.337809 0.684692 0.67135
754 1 0.417119 0.756221 0.672984
707 1 0.415574 0.837719 0.604935
688 1 0.500806 0.743917 0.576848
473 1 0.658072 0.663521 0.999996
761 1 0.673053 0.652787 0.673893
711 1 0.589466 0.836166 0.598642
758 1 0.587406 0.746513 0.652014
235 1 0.739278 1.00025 0.575602
692 1 0.695129 0.765873 0.59116
762 1 0.765104 0.739241 0.676098
696 1 0.810763 0.76062 0.587402
789 1 0.823885 0.837816 0.665906
695 1 0.918528 0.669948 0.580885
694 1 0.915035 0.744597 0.500689
670 1 0.913614 0.57457 0.484822
699 1 0.0822642 0.836914 0.561124
700 1 0.996636 0.895385 0.587309
770 1 0.087387 0.912839 0.657223
703 1 0.24716 0.852933 0.574222
704 1 0.153944 0.923275 0.578219
841 1 0.0118502 0.822691 0.836624
799 1 0.243839 0.508909 0.917602
862 1 0.91329 0.935117 0.832637
777 1 0.318898 0.82998 0.663618
708 1 0.315863 0.93407 0.57046
712 1 0.500553 0.910723 0.595394
793 1 -0.00443914 0.503471 0.826398
782 1 0.57805 0.924302 0.667435
666 1 0.753722 0.581817 0.517148
715 1 0.741922 0.856247 0.576006
716 1 0.662905 0.916753 0.59462
811 1 0.74969 0.48944 0.914475
719 1 0.904749 0.827792 0.579773
720 1 0.834677 0.916105 0.573913
790 1 0.919341 0.927685 0.66663
844 1 1.00993 0.941384 0.904959
722 1 0.0835589 0.576473 0.660957
747 1 0.0933888 0.670143 0.743208
724 1 -0.00633133 0.591736 0.735397
859 1 0.740424 0.82336 0.925642
728 1 0.153836 0.589158 0.75108
798 1 0.249766 0.588682 0.826069
732 1 0.336148 0.589704 0.751015
749 1 0.170372 0.659963 0.664842
730 1 0.421063 0.595234 0.671927
736 1 0.494643 0.593923 0.756514
755 1 0.42029 0.669972 0.754266
802 1 0.410362 0.577136 0.838467
734 1 0.57132 0.583771 0.658354
740 1 0.676473 0.574377 0.755942
858 1 0.751299 0.92562 0.830069
738 1 0.76422 0.575079 0.666897
765 1 0.838389 0.661087 0.664642
810 1 0.762994 0.579288 0.84494
744 1 0.844002 0.575767 0.736795
742 1 0.923621 0.577859 0.668274
767 1 0.908031 0.675051 0.739944
745 1 -0.0100815 0.683872 0.663933
817 1 0.00387175 0.667304 0.827511
752 1 0.16394 0.760444 0.738598
825 1 0.336036 0.658469 0.838069
751 1 0.236025 0.66981 0.753909
822 1 0.234295 0.760432 0.842979
775 1 0.254102 0.839003 0.748228
756 1 0.321296 0.750386 0.760028
826 1 0.409663 0.747749 0.841678
760 1 0.4991 0.747037 0.757816
759 1 0.580411 0.673675 0.722523
830 1 0.6035 0.737103 0.8318
833 1 0.689242 0.668176 0.842122
764 1 0.67742 0.744902 0.746851
763 1 0.75808 0.66191 0.748047
787 1 0.755008 0.850114 0.762266
785 1 0.683007 0.834892 0.66737
766 1 0.890474 0.749984 0.658315
768 1 0.848623 0.782397 0.751897
769 1 0.978416 0.817091 0.661277
748 1 0.999307 0.752428 0.741644
860 1 0.664567 0.908397 0.903064
773 1 0.166248 0.840223 0.656663
771 1 0.0728074 0.846121 0.747412
861 1 0.84233 0.853257 0.840104
845 1 0.167662 0.843532 0.840199
776 1 0.176828 0.92857 0.745782
774 1 0.255047 0.925349 0.668075
780 1 0.332575 0.910848 0.751318
846 1 0.247444 0.91421 0.823948
864 1 0.831713 0.901998 0.937701
367 1 0.257412 0.9965 0.909936
779 1 0.409096 0.829735 0.757812
781 1 0.505536 0.843588 0.679691
850 1 0.426969 0.920749 0.83356
778 1 0.409998 0.915077 0.667166
853 1 0.492925 0.83012 0.833803
299 1 0.408179 0.986001 0.749095
854 1 0.58274 0.901405 0.83168
784 1 0.501612 0.926049 0.76151
783 1 0.591736 0.81632 0.745816
788 1 0.657158 0.90759 0.745505
857 1 0.671257 0.825234 0.834253
786 1 0.749764 0.927319 0.673965
792 1 0.840433 0.929541 0.744559
482 1 0.0739041 0.92677 0.996613
667 1 0.747378 0.491316 0.586885
791 1 0.926261 0.858977 0.747364
772 1 -0.00149551 0.932641 0.744085
821 1 0.157004 0.663307 0.835501
794 1 0.077042 0.592057 0.829807
729 1 0.337156 0.495871 0.677406
855 1 0.56903 0.816943 0.91895
457 1 -0.00187753 0.66516 1.0022
851 1 0.403136 0.825349 0.925251
800 1 0.160006 0.581264 0.897739
823 1 0.245128 0.65214 0.915936
723 1 0.0891271 0.499629 0.753873
804 1 0.33084 0.583094 0.920818
827 1 0.410557 0.658226 0.91718
831 1 0.587961 0.669007 0.917416
806 1 0.595565 0.588367 0.82787
808 1 0.505329 0.594134 0.92003
829 1 0.511805 0.662311 0.845201
659 1 0.412651 0.515755 0.594399
377 1 0.665083 1.00855 0.82923
812 1 0.661477 0.58001 0.92289
856 1 0.492886 0.912862 0.921525
809 1 0.655945 0.497381 0.845925
713 1 0.664134 0.833583 0.513488
837 1 0.826552 0.678094 0.829587
814 1 0.92684 0.58588 0.823687
796 1 0.998124 0.589846 0.922502
816 1 0.858114 0.574204 0.90451
223 1 0.250334 1.01954 0.571123
309 1 0.830623 1.0031 0.668745
818 1 0.0814012 0.747485 0.825948
843 1 0.0792802 0.839594 0.933063
819 1 0.0869397 0.660457 0.919238
847 1 0.24007 0.840283 0.939792
849 1 0.335112 0.832477 0.834658
824 1 0.15048 0.745245 0.92082
828 1 0.329479 0.742388 0.925135
307 1 0.747798 1.0098 0.7503
373 1 0.494762 1.00539 0.842578
832 1 0.491379 0.738176 0.925836
836 1 0.667242 0.752954 0.91721
805 1 0.510284 0.482727 0.850192
689 1 0.69165 0.671103 0.508357
840 1 0.839106 0.757599 0.906683
834 1 0.761352 0.751245 0.822753
835 1 0.752762 0.681156 0.921261
737 1 0.657901 0.507673 0.672461
838 1 0.932031 0.757364 0.829385
848 1 0.169932 0.929323 0.922028
839 1 0.914902 0.677084 0.910522
820 1 0.0193195 0.750566 0.920575
842 1 0.0846449 0.925208 0.828907
477 1 0.833199 0.67408 1.00476
852 1 0.335231 0.902171 0.915994
658 1 0.413192 0.591915 0.50368
293 1 0.176421 1.00688 0.667898
663 1 0.57665 0.515735 0.571865
686 1 0.610281 0.744134 0.515013
701 1 0.159595 0.839236 0.500915
442 1 0.420974 0.581445 1.0008
369 1 0.333005 0.983615 0.831442
733 1 0.510163 0.505877 0.680014
454 1 0.9125 0.579219 0.990703
489 1 0.332442 0.832627 1.00291
9 1 0.323117 1.00216 1.00042
654 1 0.266873 0.573873 0.515151
13 1 0.509626 0.998046 0.992434
718 1 0.925835 0.930993 0.505259
661 1 0.491024 0.512228 0.497447
434 1 0.0836519 0.581709 0.996932
493 1 0.487408 0.829717 1.01802
657 1 0.340503 0.508017 0.507543
233 1 0.66667 1.00812 0.48704
681 1 0.327459 0.663466 0.508266
710 1 0.567914 0.912147 0.510917
709 1 0.503766 0.822193 0.509451
453 1 0.840062 0.496216 0.986245
682 1 0.406105 0.751288 0.500472
497 1 0.653902 0.832179 1.00222
673 1 1.00076 0.661546 0.496279
478 1 0.927031 0.762147 0.972408
494 1 0.585344 0.912093 0.986013
450 1 0.758142 0.582636 0.981961
474 1 0.730464 0.751383 1.00379
438 1 0.230461 0.575077 1.00675
