ITEM: TIMESTEP
20600
ITEM: NUMBER OF ATOMS
864
ITEM: BOX BOUNDS pp pp pp
0.0000000000000000e+00 3.1559999999999999e+01
0.0000000000000000e+00 3.1559999999999999e+01
0.0000000000000000e+00 3.1559999999999999e+01
ITEM: ATOMS id type xs ys zs
8 1 0.183011 0.0878569 0.0895882
75 1 0.093729 -0.0068618 0.248775
4 1 0.0229265 0.0905865 0.0753354
230 1 0.595695 0.0834249 0.524101
12 1 0.332725 0.081406 0.0721421
31 1 0.260701 0.162317 0.0915992
78 1 0.250884 0.0693174 0.160616
149 1 0.175964 -0.00578979 0.327962
87 1 0.57413 0.0100335 0.252377
16 1 0.495714 0.0863405 0.0850356
451 1 0.749564 0.48672 0.0911379
193 1 0.991291 0.34711 0.327913
20 1 0.66441 0.064121 0.0901849
43 1 0.764848 0.159212 0.0977379
519 1 0.580651 0.505416 0.251459
24 1 0.843671 0.0746131 0.0739434
47 1 0.907976 0.16473 0.0767892
246 1 0.237431 0.25966 0.508489
27 1 0.0981505 0.173561 0.0730405
28 1 1.00175 0.238648 0.078827
269 1 0.155039 0.346233 0.497361
101 1 0.183612 0.17094 0.16399
32 1 0.169096 0.252317 0.0929129
55 1 0.260874 0.352109 0.096509
273 1 0.329395 0.316412 0.52194
36 1 0.342117 0.24185 0.0834074
35 1 0.412113 0.154609 0.0919006
59 1 0.421024 0.33031 0.0835717
40 1 0.499588 0.240063 0.10451
106 1 0.412508 0.258476 0.170074
133 1 0.497218 0.334846 0.17016
39 1 0.587997 0.155287 0.0800458
110 1 0.579612 0.245898 0.177558
44 1 0.652402 0.237535 0.098692
67 1 0.74739 0.330158 0.0877999
114 1 0.755792 0.239491 0.172641
95 1 0.930681 0.00430508 0.268221
58 1 0.422443 0.426655 -0.00372038
48 1 0.835208 0.245155 0.0889178
117 1 0.850273 0.155579 0.161698
118 1 0.913859 0.248632 0.165879
583 1 0.247665 0.493588 0.396399
453 1 0.82771 0.499281 0.000416454
51 1 0.0839142 0.322972 0.0837568
215 1 0.908839 0.357399 0.424693
42 1 0.748523 0.248167 0.00559798
15 1 0.58433 -0.000623712 0.105567
81 1 0.322698 -0.00558651 0.148386
589 1 0.517786 0.501092 0.335494
56 1 0.166862 0.418451 0.0928282
60 1 0.346586 0.427328 0.0853104
93 1 0.85578 -0.000323776 0.164098
13 1 0.503622 -0.00301985 0.0131492
64 1 0.494948 0.415401 0.0971453
130 1 0.420068 0.421292 0.17629
521 1 0.657565 0.49332 0.165567
63 1 0.566163 0.331537 0.078687
137 1 0.67245 0.326183 0.169972
68 1 0.666405 0.419249 0.0771829
587 1 0.431668 0.480494 0.409351
71 1 0.918592 0.316364 0.0801155
196 1 -0.00439233 0.436133 0.423984
509 1 0.149431 0.509974 0.187658
52 1 0.990453 0.432575 0.0954394
72 1 0.83719 0.405355 0.0868548
7 1 0.242841 0.00454198 0.063824
74 1 0.0895502 0.105293 0.164799
76 1 0.00446007 0.0718685 0.254183
97 1 0.999453 0.16356 0.166136
211 1 0.767852 0.333328 0.413914
80 1 0.176195 0.0756873 0.244434
103 1 0.253427 0.16721 0.243035
84 1 0.341431 0.0891186 0.252244
150 1 0.246812 0.0816284 0.343782
82 1 0.411863 0.0741767 0.163798
107 1 0.417202 0.163029 0.261885
154 1 0.431278 0.0965673 0.346139
216 1 0.826141 0.425181 0.424122
86 1 0.575241 0.0861311 0.172177
88 1 0.494455 0.0836289 0.253547
90 1 0.756689 0.065671 0.172091
208 1 0.509757 0.411416 0.403778
92 1 0.657738 0.0728862 0.265884
94 1 0.92322 0.0838759 0.168114
96 1 0.846758 0.0643594 0.259602
119 1 0.919778 0.178644 0.247005
99 1 0.0912992 0.163287 0.253651
98 1 0.08749 0.230582 0.154854
100 1 0.000215691 0.241953 0.251669
123 1 0.0724898 0.329947 0.258236
170 1 0.0782333 0.268461 0.344779
102 1 0.263218 0.247352 0.164842
105 1 0.342535 0.171604 0.173708
104 1 0.153612 0.250173 0.242077
109 1 0.500457 0.166149 0.179024
108 1 0.343922 0.246459 0.253367
112 1 0.493174 0.24031 0.246306
111 1 0.59543 0.162491 0.260095
181 1 0.499466 0.176659 0.33515
135 1 0.569817 0.324589 0.252429
115 1 0.759877 0.14635 0.248041
113 1 0.676089 0.153514 0.175037
116 1 0.676782 0.259856 0.25437
139 1 0.760667 0.342707 0.25957
186 1 0.751219 0.261301 0.331231
120 1 0.830906 0.241555 0.258211
143 1 0.914076 0.318316 0.255682
189 1 0.836182 0.162976 0.337182
169 1 1.01882 0.161437 0.332494
122 1 0.0687744 0.397858 0.169853
125 1 0.162836 0.337494 0.165485
126 1 0.246372 0.417245 0.174626
254 1 0.592134 0.256105 0.510976
129 1 0.333498 0.325522 0.173662
127 1 0.242872 0.323411 0.243563
128 1 0.157872 0.419543 0.244607
131 1 0.414441 0.328562 0.251201
132 1 0.324709 0.418801 0.243652
136 1 0.499294 0.417076 0.2612
212 1 0.684962 0.427688 0.410821
134 1 0.58821 0.415028 0.159557
206 1 0.587337 0.413703 0.315438
18 1 0.751535 0.0864799 0.0117398
141 1 0.842394 0.338762 0.175551
140 1 0.675038 0.404288 0.245726
210 1 0.781829 0.417937 0.335799
138 1 0.746543 0.422099 0.168973
144 1 0.84969 0.431886 0.234535
214 1 0.90743 0.416307 0.332039
121 1 1.00691 0.305393 0.167831
124 1 0.985384 0.405709 0.24306
142 1 0.915881 0.403724 0.163231
146 1 0.0949735 0.0812891 0.331188
152 1 0.154181 0.0848826 0.421815
148 1 -0.00153496 0.0789919 0.419016
171 1 0.0797656 0.162944 0.425384
77 1 0.158025 0.0143538 0.152554
173 1 0.16774 0.165695 0.329554
156 1 0.32504 0.0972885 0.412007
445 1 0.504841 0.509403 -0.0136942
202 1 0.420954 0.41267 0.330444
177 1 0.319549 0.170341 0.330606
179 1 0.41281 0.16986 0.420006
204 1 0.328092 0.410512 0.423098
160 1 0.514928 0.0793526 0.420948
158 1 0.580653 0.0885107 0.328143
183 1 0.579619 0.163317 0.425454
198 1 0.245242 0.405694 0.315866
46 1 0.918729 0.229677 -0.011702
164 1 0.669421 0.0761789 0.415005
162 1 0.755246 0.0873619 0.34115
187 1 0.756515 0.16757 0.412101
168 1 0.83643 0.0933422 0.420102
166 1 0.929271 0.0951109 0.332612
66 1 0.756284 0.417888 0.000300557
277 1 0.499336 0.346296 0.499958
19 1 0.750926 -0.0107527 0.0900464
172 1 0.00659749 0.25425 0.43069
176 1 0.155814 0.25308 0.408276
199 1 0.243293 0.342014 0.419267
175 1 0.242548 0.184213 0.40776
197 1 0.162897 0.34142 0.338834
174 1 0.238797 0.259295 0.33071
203 1 0.414298 0.331531 0.428756
201 1 0.334238 0.332463 0.327449
180 1 0.313974 0.265638 0.423022
178 1 0.413823 0.256566 0.349717
195 1 0.0786641 0.356132 0.406602
205 1 0.495275 0.322429 0.343976
207 1 0.583531 0.334754 0.427352
184 1 0.503314 0.243445 0.420869
182 1 0.578633 0.255032 0.330511
209 1 0.676056 0.340075 0.335793
213 1 0.842625 0.324356 0.333174
188 1 0.665767 0.257814 0.411815
185 1 0.659553 0.173748 0.351032
200 1 0.16197 0.426229 0.406412
194 1 0.0688987 0.424734 0.32453
192 1 0.836037 0.247929 0.405148
190 1 0.945982 0.259128 0.349852
191 1 0.928184 0.172511 0.403143
165 1 0.831627 -0.0150761 0.335995
257 1 0.65666 0.169283 0.504062
159 1 0.58237 -0.0117729 0.408709
45 1 0.828323 0.175308 -0.000194213
270 1 0.242994 0.421095 0.497871
79 1 0.248751 -0.00573571 0.241005
591 1 0.606316 0.498781 0.42338
89 1 0.681139 -0.0191868 0.16967
593 1 0.664274 0.49357 0.330028
447 1 0.575541 0.489296 0.0778659
85 1 0.493675 0.00639863 0.17496
597 1 0.843038 0.515026 0.321109
439 1 0.24222 0.488151 0.0987945
505 1 -0.0183409 0.50941 0.168574
53 1 0.164709 0.334524 0.0118502
38 1 0.579499 0.244222 0.011935
34 1 0.422968 0.238795 0.009898
57 1 0.340701 0.335693 0.0138227
286 1 0.89145 0.425288 0.52574
653 1 0.151773 0.492905 0.488563
54 1 0.236707 0.418959 0.0125039
441 1 0.321861 0.496785 0.00768595
41 1 0.652528 0.162232 0.0046132
226 1 0.422689 0.0793673 0.493718
14 1 0.583165 0.0749071 0.016032
22 1 0.934188 0.0841972 -0.00364457
49 1 -0.0113337 0.320125 0.000439913
37 1 0.504904 0.161432 0.0134936
65 1 0.65203 0.335057 0.0110456
218 1 0.0841982 0.0741355 0.508275
10 1 0.420671 0.0805779 -0.001056
285 1 0.840311 0.317662 0.494896
50 1 0.0794692 0.414031 0.0175611
433 1 1.00014 0.500305 0.00850246
30 1 0.25719 0.250245 0.0229558
234 1 0.753787 0.102139 0.500975
281 1 0.686569 0.354547 0.491577
220 1 -0.00400495 0.102649 0.595451
317 1 0.177573 0.170805 0.674969
238 1 0.924991 0.0892725 0.509231
265 1 1.00726 0.324307 0.507476
224 1 0.177881 0.0751114 0.598904
247 1 0.254579 0.143419 0.588502
228 1 0.325977 0.0748337 0.591354
321 1 0.320251 0.163403 0.672556
311 1 0.897748 -0.0020253 0.765242
325 1 0.488832 0.168977 0.662572
303 1 0.585451 -0.0094642 0.734269
251 1 0.411844 0.147931 0.586194
232 1 0.499576 0.0604992 0.579107
255 1 0.58852 0.174393 0.589613
302 1 0.58355 0.0834522 0.653208
735 1 0.587688 0.50124 0.741728
430 1 0.908871 0.420445 0.840967
236 1 0.678665 0.0613841 0.585316
259 1 0.737736 0.164179 0.585491
329 1 0.671765 0.162056 0.667763
5 1 0.181568 -0.00900349 0.980906
361 1 0.989493 0.00881972 0.82929
240 1 0.835629 0.088959 0.583495
263 1 0.908647 0.169246 0.589305
431 1 0.912225 0.333219 0.912206
243 1 0.0960897 0.159878 0.57214
248 1 0.180019 0.22793 0.586771
244 1 0.0182275 0.238157 0.600028
375 1 0.579977 -0.0109609 0.928141
252 1 0.326611 0.234405 0.587253
318 1 0.247339 0.260948 0.664741
345 1 0.337704 0.325495 0.656986
258 1 0.749973 0.244646 0.489423
743 1 0.895146 0.489708 0.740089
322 1 0.414732 0.25322 0.661504
799 1 0.254299 0.504935 0.925666
256 1 0.502171 0.25648 0.59239
326 1 0.59072 0.256865 0.653225
29 1 0.179483 0.165597 0.996846
260 1 0.670046 0.252465 0.588352
330 1 0.756003 0.248338 0.681649
283 1 0.752706 0.343637 0.5786
655 1 0.251693 0.493795 0.566916
264 1 0.814654 0.249712 0.582207
334 1 0.914501 0.252396 0.671509
289 1 -0.00456885 0.00850628 0.656188
267 1 0.0942775 0.334638 0.594241
338 1 0.0709218 0.412726 0.66896
272 1 0.161884 0.42498 0.574895
271 1 0.229585 0.336772 0.577079
276 1 0.324986 0.408983 0.575352
342 1 0.253726 0.425191 0.6502
307 1 0.755659 -0.0122481 0.745614
371 1 0.425295 0.0134356 0.908765
275 1 0.411534 0.330867 0.584985
346 1 0.40042 0.409009 0.660397
349 1 0.50721 0.332066 0.673309
793 1 -0.00883942 0.507265 0.827826
280 1 0.490707 0.422605 0.595114
279 1 0.574676 0.347888 0.575642
284 1 0.666405 0.427276 0.581566
350 1 0.584674 0.411574 0.659748
815 1 0.919849 0.504395 0.912198
261 1 0.845186 0.181006 0.49307
737 1 0.67439 0.503833 0.668066
353 1 0.664366 0.329991 0.650193
288 1 0.80727 0.433573 0.595352
357 1 0.832939 0.332466 0.664256
381 1 0.815351 0.00538706 0.83303
337 1 0.993022 0.330706 0.661439
287 1 0.900358 0.336787 0.5833
268 1 0.98861 0.414023 0.588628
358 1 0.911447 0.407653 0.657715
219 1 0.0877086 0.00612949 0.579869
290 1 0.0775264 0.0838146 0.670616
296 1 0.168696 0.0887877 0.764625
292 1 -0.00733339 0.0776402 0.743313
733 1 0.509264 0.501054 0.662386
813 1 0.830522 0.49643 0.838128
294 1 0.254035 0.0794294 0.678332
300 1 0.344024 0.085456 0.743598
389 1 0.165155 0.177878 0.825613
298 1 0.418899 0.0717939 0.663379
323 1 0.411679 0.160742 0.739677
370 1 0.418283 0.0948354 0.820324
727 1 0.253051 0.511298 0.764037
304 1 0.511329 0.0800537 0.740139
374 1 0.577833 0.0657617 0.828209
308 1 0.66723 0.0731605 0.753329
306 1 0.756768 0.0860863 0.669806
333 1 0.826772 0.169684 0.660568
312 1 0.824874 0.0934073 0.754719
310 1 0.902147 0.0956793 0.673367
382 1 0.914581 0.09505 0.822962
432 1 0.832602 0.401121 0.911705
365 1 0.17657 -0.00548793 0.829809
315 1 0.0830177 0.171538 0.757681
385 1 -0.00303122 0.173476 0.828961
314 1 0.0895736 0.254228 0.672599
386 1 0.0789714 0.25552 0.833616
313 1 -0.0134328 0.176682 0.678796
316 1 0.00254436 0.272044 0.75231
319 1 0.252603 0.190013 0.762596
320 1 0.169197 0.260633 0.751897
324 1 0.334172 0.268132 0.756731
343 1 0.264639 0.347143 0.762948
328 1 0.498286 0.251374 0.753553
347 1 0.409526 0.340073 0.75046
394 1 0.406832 0.241713 0.834515
397 1 0.493713 0.164697 0.835115
421 1 0.508146 0.337112 0.83226
327 1 0.570635 0.181512 0.74851
425 1 0.647631 0.34028 0.835758
332 1 0.659728 0.246282 0.740123
331 1 0.745149 0.174834 0.761583
402 1 0.723036 0.258713 0.837707
335 1 0.915003 0.173454 0.754907
336 1 0.833134 0.249676 0.751379
406 1 0.902279 0.2522 0.841814
409 1 0.99778 0.341072 0.841441
339 1 0.0834174 0.345777 0.759325
344 1 0.165607 0.424284 0.740926
428 1 0.667959 0.419713 0.919492
377 1 0.654861 -0.018955 0.843895
341 1 0.170499 0.336689 0.672946
417 1 0.342188 0.337895 0.855249
348 1 0.337988 0.429205 0.752108
414 1 0.247753 0.432779 0.834915
222 1 0.25566 0.0790054 0.504236
725 1 0.169649 0.504921 0.66445
418 1 0.424757 0.420541 0.81979
249 1 0.305972 0.174183 0.495603
422 1 0.582739 0.423727 0.827652
352 1 0.49951 0.421728 0.731721
351 1 0.585373 0.337851 0.748378
426 1 0.749588 0.409798 0.828928
739 1 0.750729 0.511838 0.75469
356 1 0.660033 0.413538 0.738127
355 1 0.731096 0.328964 0.74459
354 1 0.753601 0.42717 0.684638
360 1 0.829015 0.414321 0.75945
340 1 0.999208 0.404516 0.756504
359 1 0.904521 0.329364 0.758518
404 1 0.663143 0.255617 0.936826
362 1 0.0750613 0.0840153 0.827757
364 1 -0.00349094 0.0997638 0.915427
368 1 0.174416 0.0850149 0.909493
427 1 0.75304 0.326112 0.920038
366 1 0.25421 0.0931686 0.837746
411 1 0.0705997 0.325332 0.928414
393 1 0.331463 0.173551 0.824718
424 1 0.509637 0.425156 0.89987
217 1 1.00454 0.00267111 0.494572
372 1 0.332979 0.104343 0.913024
376 1 0.506482 0.0803389 0.938028
408 1 0.826225 0.23997 0.910642
429 1 0.820251 0.329313 0.824607
405 1 0.821843 0.167625 0.834745
380 1 0.641979 0.0789778 0.918875
378 1 0.731999 0.0867715 0.841774
70 1 0.915092 0.409181 1.00923
410 1 0.0739408 0.422003 0.83759
412 1 0.00425363 0.412611 0.926898
416 1 0.142341 0.410313 0.931392
384 1 0.831819 0.0765162 0.927192
420 1 0.338945 0.429411 0.927159
387 1 0.0938913 0.174775 0.927719
388 1 0.00325901 0.245833 0.920547
390 1 0.256248 0.261276 0.844937
392 1 0.170951 0.268807 0.930401
391 1 0.24909 0.172889 0.919396
396 1 0.33202 0.250364 0.932779
401 1 0.650646 0.166963 0.847342
400 1 0.504655 0.255372 0.913685
395 1 0.422495 0.157912 0.921901
419 1 0.415134 0.320597 0.928141
407 1 0.904773 0.152029 0.910935
413 1 0.170684 0.343668 0.841192
415 1 0.245017 0.343086 0.918297
398 1 0.591511 0.252021 0.825437
423 1 0.579444 0.331097 0.919258
399 1 0.57835 0.174982 0.924995
403 1 0.746703 0.16642 0.915356
731 1 0.418572 0.503015 0.73462
6 1 0.252732 0.0853351 0.990749
242 1 0.0943572 0.253097 0.511303
291 1 0.0831909 0.0162273 0.752045
241 1 0.0121139 0.172884 0.508412
807 1 0.583812 0.505247 0.917578
26 1 0.0763257 0.249737 1.00632
262 1 0.933827 0.248228 0.52188
25 1 1.02017 0.157427 1.00145
729 1 0.331313 0.507032 0.665537
250 1 0.412026 0.24649 0.496963
1 1 1.01694 0.0155301 0.984944
449 1 0.673689 0.492164 0.999525
229 1 0.497175 -0.010934 0.488707
282 1 0.750169 0.423798 0.495307
253 1 0.489711 0.162369 0.49743
62 1 0.589936 0.414775 0.998436
245 1 0.1852 0.156578 0.500618
33 1 0.339892 0.168675 1.00289
9 1 0.335199 -0.000103921 0.990961
2 1 0.108255 0.0835751 0.997086
278 1 0.580103 0.411958 0.491768
61 1 0.49612 0.322799 1.00223
274 1 0.412118 0.419602 0.495071
266 1 0.0838042 0.425198 0.501524
69 1 0.82394 0.315694 1.00719
661 1 0.499084 0.490296 0.492707
717 1 0.852093 0.823323 0.5138
157 1 0.499029 1.0109 0.339094
440 1 0.159467 0.585147 0.0922274
648 1 0.833368 0.914872 0.426519
444 1 0.338414 0.577633 0.0879681
514 1 0.416895 0.577456 0.167753
448 1 0.504817 0.584722 0.0838609
452 1 0.655011 0.565962 0.0763372
646 1 0.913477 0.915777 0.348668
83 1 0.422124 1.00432 0.254235
647 1 0.928132 0.829372 0.41679
456 1 0.819387 0.57617 0.0861708
475 1 0.752049 0.662498 0.087761
522 1 0.740352 0.580927 0.160435
678 1 0.242083 0.757605 0.491304
436 1 1.00972 0.578638 0.0863474
526 1 0.908909 0.587717 0.148863
443 1 0.431435 0.496634 0.082523
459 1 0.0834948 0.667478 0.0872123
464 1 0.153738 0.749462 0.0765718
685 1 0.497599 0.667482 0.500638
529 1 -0.00911823 0.666941 0.161639
530 1 0.0732356 0.757099 0.168155
463 1 0.264465 0.676017 0.109321
534 1 0.250457 0.763766 0.165153
468 1 0.345335 0.753465 0.0792465
557 1 0.161775 0.826728 0.161664
467 1 0.42519 0.660028 0.0944359
538 1 0.418089 0.754467 0.177679
491 1 0.427149 0.849291 0.0883005
561 1 0.33643 0.846474 0.139202
471 1 0.586823 0.658577 0.0831745
541 1 0.507205 0.678704 0.174403
472 1 0.494052 0.762679 0.0855897
476 1 0.673173 0.738884 0.0749949
542 1 0.588316 0.747879 0.155795
545 1 0.669133 0.665806 0.16168
549 1 0.832779 0.664938 0.159763
546 1 0.754377 0.7452 0.167333
480 1 0.830547 0.744639 0.0694052
666 1 0.75935 0.59991 0.482133
460 1 -0.00299525 0.757527 0.0715405
479 1 0.91166 0.66534 0.0714367
503 1 0.915694 0.83226 0.0780855
550 1 0.912145 0.73994 0.161328
3 1 0.0835815 0.995379 0.0784112
527 1 0.906112 0.521548 0.239368
483 1 0.0850726 0.834172 0.0645187
554 1 0.086288 0.903583 0.152199
553 1 0.993013 0.82718 0.164862
487 1 0.24695 0.840273 0.0725123
488 1 0.168578 0.921404 0.0650079
492 1 0.336558 0.922268 0.0750738
497 1 0.654501 0.82121 -0.00148993
17 1 0.676974 1.00329 0.00561203
163 1 0.736912 0.984396 0.420381
496 1 0.513794 0.914428 0.0973757
565 1 0.492317 0.841954 0.181412
682 1 0.41266 0.734307 0.506819
495 1 0.589548 0.832057 0.0908178
500 1 0.670446 0.905151 0.0849953
569 1 0.682633 0.836263 0.156973
644 1 0.656401 0.90457 0.4118
566 1 0.584232 0.92369 0.182091
469 1 0.506353 0.662337 -0.0124904
499 1 0.754404 0.815988 0.0697748
570 1 0.762302 0.91097 0.165419
709 1 0.501263 0.823413 0.493543
515 1 0.427468 0.497137 0.252745
690 1 0.757674 0.745497 0.498783
484 1 1.00054 0.922021 0.0713978
504 1 0.841148 0.914682 0.0784383
574 1 0.925687 0.922101 0.161492
642 1 0.752865 0.916196 0.32873
506 1 0.068033 0.588541 0.170952
578 1 0.0865237 0.584402 0.315242
577 1 0.987677 0.508178 0.3244
510 1 0.247103 0.583527 0.174276
465 1 0.33486 0.66857 0.0161369
512 1 0.175933 0.6042 0.25607
533 1 0.169361 0.673682 0.160808
585 1 0.342903 0.476606 0.338178
481 1 0.98974 0.836165 -0.00627705
516 1 0.346124 0.586205 0.257544
586 1 0.437674 0.576899 0.328337
507 1 0.063845 0.507026 0.240131
539 1 0.437225 0.667743 0.254292
689 1 0.676592 0.667579 0.490719
599 1 0.908296 0.502615 0.424864
518 1 0.584049 0.579647 0.165118
520 1 0.50529 0.589511 0.245483
590 1 0.577196 0.586547 0.327261
517 1 0.502703 0.495602 0.166189
524 1 0.676673 0.581745 0.245628
528 1 0.834202 0.591562 0.240251
594 1 0.764948 0.603696 0.331614
525 1 0.819589 0.506393 0.168134
713 1 0.663276 0.828401 0.490472
494 1 0.592902 0.907273 0.0102432
637 1 0.483388 0.827053 0.330045
508 1 0.989876 0.589391 0.245866
598 1 0.922782 0.59905 0.341354
531 1 0.0831042 0.676154 0.2304
605 1 0.153587 0.674877 0.330455
555 1 0.0853956 0.834819 0.25099
536 1 0.17163 0.744482 0.238294
625 1 0.0120844 0.852491 0.330775
535 1 0.256938 0.678225 0.233219
559 1 0.236732 0.836115 0.252842
540 1 0.329892 0.770966 0.239529
537 1 0.349138 0.672291 0.165474
544 1 0.49696 0.755386 0.258149
543 1 0.600543 0.66707 0.233293
614 1 0.586081 0.744535 0.326455
567 1 0.573079 0.823529 0.244132
613 1 0.507267 0.680011 0.33098
547 1 0.74379 0.657754 0.249147
548 1 0.672444 0.753586 0.234775
552 1 0.836451 0.748256 0.234962
571 1 0.756489 0.843305 0.241325
617 1 0.669231 0.662557 0.327179
641 1 0.664024 0.831634 0.334412
601 1 1.00826 0.66956 0.342208
551 1 0.916109 0.66029 0.253619
532 1 1.00119 0.743485 0.245724
621 1 0.844541 0.686822 0.33221
662 1 0.58498 0.581594 0.490713
626 1 0.105176 0.917676 0.322101
639 1 0.574324 0.814592 0.405526
558 1 0.24323 0.912852 0.164187
640 1 0.500565 0.90702 0.408987
560 1 0.172439 0.916807 0.235923
562 1 0.422689 0.924016 0.166292
145 1 0.0102065 1.00457 0.342109
563 1 0.403464 0.842607 0.243907
564 1 0.338522 0.921398 0.234644
147 1 0.0872032 1.00454 0.425092
568 1 0.495716 0.910103 0.259331
638 1 0.584219 0.900537 0.330971
153 1 0.336232 1.00745 0.325179
572 1 0.669612 0.904619 0.252587
576 1 0.846281 0.919859 0.251948
573 1 0.83513 0.825612 0.15372
513 1 0.328355 0.506098 0.167137
556 1 -0.0045419 0.912892 0.240892
575 1 0.911732 0.829702 0.241544
511 1 0.253662 0.504973 0.255405
624 1 0.842138 0.761032 0.406331
643 1 0.760498 0.831245 0.427022
634 1 0.407035 0.923648 0.325346
584 1 0.16467 0.585901 0.406499
580 1 -0.0161413 0.572032 0.420027
603 1 0.0796359 0.652851 0.422539
635 1 0.414231 0.828974 0.410089
630 1 0.260809 0.918736 0.324424
582 1 0.261895 0.574054 0.33582
607 1 0.240464 0.676182 0.408345
579 1 0.061529 0.51659 0.395536
615 1 0.589818 0.668251 0.413218
627 1 0.0845884 0.846933 0.406371
588 1 0.355924 0.567174 0.397683
592 1 0.506388 0.581458 0.422082
611 1 0.426203 0.655933 0.418696
628 1 0.00387319 0.916471 0.43072
636 1 0.332364 0.928585 0.400891
596 1 0.672163 0.58263 0.399926
618 1 0.744538 0.762383 0.313675
622 1 0.93897 0.753299 0.33446
619 1 0.747051 0.678096 0.40894
620 1 0.672278 0.757829 0.415646
600 1 0.839752 0.593392 0.414406
623 1 0.909394 0.675059 0.423187
686 1 0.583807 0.748872 0.491427
632 1 0.166538 0.921854 0.416771
604 1 1.0153 0.751216 0.417688
602 1 0.0725562 0.751597 0.324413
608 1 0.153622 0.76066 0.40667
677 1 0.160615 0.672157 0.488886
629 1 0.166302 0.829359 0.331024
609 1 0.338578 0.662922 0.332328
631 1 0.255334 0.825824 0.394014
606 1 0.240621 0.744709 0.324918
633 1 0.336757 0.827569 0.33001
645 1 0.831511 0.845799 0.327637
612 1 0.331456 0.737818 0.412592
610 1 0.407009 0.751931 0.330669
616 1 0.497405 0.741509 0.411232
161 1 0.667129 0.991038 0.335368
658 1 0.412944 0.594023 0.50404
435 1 0.0845314 0.492939 0.0956238
155 1 0.409601 1.00435 0.414134
225 1 0.316505 0.997442 0.494415
73 1 1.01139 1.00774 0.164629
167 1 0.924656 0.994183 0.417412
23 1 0.927646 1.00607 0.0775982
11 1 0.421274 1.0067 0.081936
581 1 0.164447 0.497127 0.319386
523 1 0.754086 0.492724 0.264674
665 1 0.68081 0.507481 0.502179
455 1 0.905112 0.490627 0.0868577
151 1 0.245478 0.996424 0.41503
595 1 0.764002 0.518118 0.413659
91 1 0.757344 0.999947 0.255035
493 1 0.498257 0.840046 0.00575049
501 1 0.835507 0.837632 -0.0169247
693 1 0.84672 0.675014 0.502833
462 1 0.254107 0.742256 0.00578501
681 1 0.326302 0.660093 0.474178
654 1 0.251131 0.580165 0.47884
649 1 -0.00309242 0.507725 0.511035
710 1 0.578337 0.915316 0.498292
490 1 0.421338 0.924793 0.00487136
237 1 0.847489 1.00983 0.497271
437 1 0.164879 0.499907 0.00779263
233 1 0.662831 0.999335 0.494315
714 1 0.752251 0.93079 0.512372
718 1 0.906895 0.90458 0.50111
650 1 0.0841373 0.572253 0.500984
461 1 0.171385 0.66329 -0.00522627
454 1 0.923799 0.589972 -0.0120829
470 1 0.577355 0.755409 0.0136968
450 1 0.745568 0.58077 0.00317813
706 1 0.408509 0.91725 0.483716
673 1 -0.0163754 0.658867 0.504538
466 1 0.42553 0.733524 0.0134103
489 1 0.332777 0.835689 -0.000688185
675 1 0.0980303 0.665801 0.57159
656 1 0.154705 0.55771 0.580267
862 1 0.912417 0.908179 0.840185
864 1 0.826457 0.919462 0.905421
235 1 0.763858 1.00544 0.584985
660 1 0.324665 0.574696 0.559338
679 1 0.233253 0.644682 0.576665
726 1 0.240563 0.579477 0.650227
753 1 0.326054 0.658572 0.640005
434 1 0.0912793 0.578819 1.0095
683 1 0.438789 0.660557 0.582173
664 1 0.506484 0.572722 0.585078
730 1 0.416589 0.596726 0.668832
741 1 0.820795 0.521512 0.658288
844 1 0.997483 0.932438 0.906682
809 1 0.660951 0.503303 0.824933
668 1 0.658644 0.589221 0.583058
691 1 0.73878 0.678663 0.589755
671 1 0.911376 0.508387 0.579662
738 1 0.735791 0.599936 0.654327
861 1 0.822205 0.822601 0.834349
672 1 0.828211 0.588033 0.559613
652 1 0.0101096 0.59276 0.588316
745 1 -0.0101028 0.672304 0.664522
765 1 0.838996 0.666715 0.674319
797 1 0.171361 0.498263 0.840012
746 1 0.085176 0.748135 0.663002
651 1 0.0710062 0.495628 0.601351
676 1 -0.00691038 0.753742 0.586751
699 1 0.0733963 0.837759 0.582969
769 1 0.00796425 0.829629 0.682405
680 1 0.178741 0.750292 0.592823
684 1 0.326406 0.734589 0.564247
703 1 0.231122 0.841972 0.583863
227 1 0.413648 0.990039 0.569421
221 1 0.17552 0.997489 0.490963
688 1 0.506149 0.745981 0.578175
754 1 0.42166 0.738616 0.654193
707 1 0.40621 0.814849 0.568895
781 1 0.494364 0.83858 0.654186
805 1 0.508658 0.509376 0.823594
687 1 0.584087 0.665365 0.585738
711 1 0.58135 0.823839 0.585739
758 1 0.579477 0.748969 0.658811
692 1 0.65643 0.745388 0.569371
801 1 0.337535 0.498381 0.831075
21 1 0.817001 0.997339 1.00582
498 1 0.750477 0.910054 1.00815
696 1 0.827822 0.738084 0.589902
695 1 0.907118 0.673487 0.586934
719 1 0.913944 0.844398 0.592891
704 1 0.148347 0.911385 0.599653
458 1 0.0861367 0.747997 0.984349
860 1 0.662699 0.913118 0.926704
299 1 0.419292 0.994236 0.748806
659 1 0.414257 0.494138 0.589096
293 1 0.168821 1.00117 0.691237
239 1 0.908597 0.993675 0.588303
708 1 0.331343 0.917487 0.574995
712 1 0.491703 0.91175 0.567027
295 1 0.263958 0.996574 0.760222
778 1 0.411464 0.923127 0.662006
782 1 0.573305 0.905718 0.659602
716 1 0.655821 0.923273 0.576885
859 1 0.743662 0.835067 0.927371
663 1 0.587104 0.500032 0.569585
697 1 0.990272 0.840635 0.510545
373 1 0.499448 1.00902 0.829066
721 1 0.986213 0.492466 0.665599
715 1 0.739117 0.836043 0.573121
785 1 0.663898 0.83844 0.662491
720 1 0.829353 0.915694 0.581004
700 1 -0.00638039 0.92917 0.591569
795 1 0.0787638 0.490393 0.942023
722 1 0.0878827 0.606907 0.667673
749 1 0.182006 0.671055 0.670807
698 1 0.0920948 0.923968 0.50379
728 1 0.164757 0.573998 0.757559
732 1 0.339246 0.586423 0.746972
751 1 0.254563 0.649245 0.762799
802 1 0.418231 0.565764 0.819167
736 1 0.50829 0.579376 0.747185
755 1 0.423877 0.658329 0.760231
825 1 0.347236 0.655566 0.831361
829 1 0.514834 0.673464 0.836333
858 1 0.74133 0.917728 0.842979
485 1 0.17246 0.841938 0.993877
734 1 0.597559 0.580874 0.666141
806 1 0.594574 0.590646 0.831058
757 1 0.499428 0.660195 0.666173
740 1 0.662091 0.586415 0.748038
744 1 0.834876 0.588773 0.749598
763 1 0.740019 0.650411 0.743058
810 1 0.753154 0.584297 0.832825
367 1 0.255521 1.00893 0.903948
742 1 0.912666 0.583509 0.674483
724 1 1.00581 0.57908 0.732496
767 1 0.92847 0.673261 0.757495
803 1 0.41957 0.504906 0.914495
747 1 0.0804189 0.642197 0.764336
845 1 0.181143 0.812423 0.839516
752 1 0.160292 0.738924 0.749866
771 1 0.0808833 0.827079 0.768792
750 1 0.249589 0.760761 0.673292
777 1 0.338064 0.827348 0.648486
822 1 0.278345 0.738129 0.828401
756 1 0.343176 0.737448 0.736644
826 1 0.426082 0.732122 0.834922
853 1 0.499226 0.832365 0.835657
761 1 0.65794 0.669978 0.681502
759 1 0.577342 0.670423 0.741277
760 1 0.495189 0.740592 0.749223
783 1 0.588078 0.842227 0.747597
764 1 0.661804 0.757491 0.756024
762 1 0.732097 0.756238 0.66843
833 1 0.663594 0.673481 0.829988
834 1 0.742763 0.750192 0.832046
766 1 0.913 0.753737 0.665641
768 1 0.816392 0.739745 0.746649
748 1 0.0158966 0.742932 0.765752
791 1 0.914536 0.831734 0.742514
770 1 0.0710888 0.931875 0.67859
857 1 0.661495 0.832026 0.838999
772 1 0.984865 0.924717 0.744526
773 1 0.151635 0.846015 0.68517
776 1 0.172416 0.902816 0.763964
855 1 0.582379 0.829258 0.907344
379 1 0.744248 1.00321 0.915226
849 1 0.338607 0.830872 0.832588
775 1 0.255166 0.844353 0.759189
774 1 0.236879 0.909689 0.664102
780 1 0.329953 0.915425 0.754232
779 1 0.416993 0.822251 0.733289
850 1 0.416893 0.923588 0.828374
784 1 0.504091 0.922611 0.757875
223 1 0.237148 0.980882 0.585834
854 1 0.569838 0.919416 0.837321
863 1 0.910361 0.838144 0.914691
786 1 0.768211 0.919696 0.662532
788 1 0.674635 0.912617 0.748763
787 1 0.752404 0.831569 0.750748
856 1 0.480529 0.912881 0.919589
789 1 0.822769 0.822403 0.670401
790 1 0.906942 0.919728 0.675723
792 1 0.823334 0.903412 0.759803
794 1 0.0904298 0.564171 0.837453
819 1 0.0817233 0.658112 0.918153
821 1 0.169899 0.674629 0.851708
800 1 0.171889 0.576571 0.923313
796 1 1.00265 0.578339 0.916975
836 1 0.644775 0.753578 0.921702
840 1 0.835967 0.746943 0.903764
798 1 0.25842 0.5892 0.846415
823 1 0.250552 0.669208 0.918143
804 1 0.342961 0.588211 0.929885
369 1 0.339212 1.00693 0.832413
309 1 0.831076 1.02034 0.671396
841 1 0.998765 0.829068 0.844591
808 1 0.486642 0.589061 0.90916
812 1 0.666507 0.586826 0.915005
838 1 0.912081 0.761232 0.840626
835 1 0.750842 0.658546 0.91383
830 1 0.576438 0.751668 0.820924
846 1 0.266935 0.920492 0.853586
814 1 0.91587 0.582068 0.82073
839 1 0.904865 0.668847 0.915412
837 1 0.83775 0.667142 0.827862
816 1 0.839187 0.585415 0.91804
852 1 0.349311 0.919401 0.917583
818 1 0.0888731 0.752094 0.84826
843 1 0.0862743 0.841282 0.906196
824 1 0.181677 0.744714 0.937199
828 1 0.329978 0.749689 0.920856
847 1 0.257296 0.827462 0.921546
817 1 0.995571 0.65328 0.842633
848 1 0.171036 0.91257 0.89956
842 1 0.0812299 0.924721 0.829881
827 1 0.411626 0.672889 0.921904
851 1 0.418342 0.816791 0.9055
820 1 1.00195 0.743962 0.920628
832 1 0.488897 0.741399 0.915749
831 1 0.586112 0.66453 0.920963
383 1 0.921772 1.01932 0.915701
669 1 0.825698 0.505205 0.502357
702 1 0.249813 0.913896 0.49563
305 1 0.684388 0.993693 0.662035
297 1 0.337225 0.999939 0.673872
811 1 0.748098 0.494496 0.913748
363 1 0.0807576 1.01105 0.906493
301 1 0.492821 0.978388 0.656953
674 1 0.0697621 0.748292 0.505629
670 1 0.910324 0.582768 0.496094
478 1 0.910161 0.751783 0.997135
723 1 0.0791288 0.491624 0.749337
442 1 0.425647 0.583217 0.998631
667 1 0.746786 0.519966 0.586842
231 1 0.567357 0.983186 0.580615
482 1 0.0845034 0.921622 0.989791
502 1 0.919744 0.931442 0.99744
446 1 0.586017 0.580877 1.0073
457 1 1.00973 0.654788 0.998817
438 1 0.246197 0.575933 1.02509
701 1 0.156606 0.829313 0.487582
473 1 0.675264 0.653924 1.01329
486 1 0.26717 0.925432 0.985667
694 1 0.926297 0.755675 0.502116
474 1 0.747605 0.741206 0.98714
657 1 0.332637 0.491541 0.482904
477 1 0.819039 0.657326 0.994862
705 1 0.323967 0.831159 0.483692
