ITEM: TIMESTEP
36000
ITEM: NUMBER OF ATOMS
864
ITEM: BOX BOUNDS pp pp pp
0.0000000000000000e+00 3.1559999999999999e+01
0.0000000000000000e+00 3.1559999999999999e+01
0.0000000000000000e+00 3.1559999999999999e+01
ITEM: ATOMS id type xs ys zs
27 1 0.0910613 0.173322 0.0918597
8 1 0.160111 0.0869012 0.070486
101 1 0.173945 0.145551 0.154844
587 1 0.402045 0.497871 0.428102
17 1 0.670619 0.0204314 0.0205442
513 1 0.327802 0.49324 0.172076
269 1 0.157158 0.335336 0.479789
78 1 0.260238 0.0954901 0.161196
12 1 0.341755 0.0839514 0.0894251
16 1 0.502541 0.0826748 0.0609624
35 1 0.422003 0.16603 0.0791185
93 1 0.830216 0.00596506 0.174542
37 1 0.509476 0.181205 0.00255024
20 1 0.679088 0.0917586 0.0915425
86 1 0.578816 0.0908612 0.155269
39 1 0.585305 0.179547 0.082315
225 1 0.331971 0.00725549 0.501822
24 1 0.845422 0.0726331 0.09235
43 1 0.752269 0.174549 0.0667116
49 1 0.00452191 0.333217 0.00566264
14 1 0.598755 0.0977804 -0.000189478
4 1 0.0074112 0.0853189 0.0735307
451 1 0.756766 0.490336 0.0910664
94 1 0.905762 0.0961476 0.182228
196 1 0.998226 0.415943 0.404206
28 1 1.00101 0.254976 0.0989662
98 1 0.0952273 0.254145 0.165404
449 1 0.661866 0.48018 0.00545406
51 1 0.078079 0.341731 0.0867744
83 1 0.42075 0.00634992 0.244649
31 1 0.246708 0.169727 0.0808692
32 1 0.178669 0.254436 0.0927924
36 1 0.32647 0.248393 0.078986
11 1 0.419427 0.00262329 0.0740002
59 1 0.413165 0.342063 0.0928241
106 1 0.40805 0.254935 0.16116
282 1 0.744898 0.420219 0.491684
517 1 0.473229 0.491484 0.158334
40 1 0.489243 0.250706 0.0809549
63 1 0.56885 0.330399 0.0748672
110 1 0.572813 0.240937 0.169101
257 1 0.652771 0.162482 0.485077
44 1 0.668217 0.243143 0.0850643
48 1 0.833065 0.24902 0.085446
67 1 0.75358 0.333015 0.0817841
114 1 0.740306 0.258079 0.166639
141 1 0.84351 0.314504 0.160902
242 1 0.0745627 0.25952 0.499582
47 1 0.913473 0.162092 0.0789636
121 1 0.984845 0.333622 0.161807
117 1 0.829877 0.169584 0.153843
118 1 0.920661 0.243175 0.16633
198 1 0.239673 0.422268 0.335985
7 1 0.246545 0.0181971 0.0790572
163 1 0.751971 0.00692256 0.416289
56 1 0.167428 0.418783 0.0740235
204 1 0.31943 0.416261 0.413938
230 1 0.573229 0.0904532 0.494839
258 1 0.745718 0.268174 0.483193
55 1 0.257544 0.331922 0.0794528
593 1 0.667692 0.489096 0.321397
194 1 0.069268 0.419053 0.331155
453 1 0.832739 0.500037 0.00187861
60 1 0.338128 0.413548 0.0870084
523 1 0.750295 0.483741 0.25291
64 1 0.498467 0.409007 0.0814985
134 1 0.582435 0.418039 0.165803
200 1 0.161027 0.419557 0.411293
68 1 0.658601 0.395495 0.0887322
202 1 0.405338 0.419659 0.34433
214 1 0.93309 0.422467 0.327333
87 1 0.569045 0.00353634 0.225688
71 1 0.922943 0.33393 0.0725932
72 1 0.832534 0.413607 0.0764664
52 1 0.984107 0.419673 0.0806578
73 1 0.991417 0.00818728 0.149394
74 1 0.0939055 0.0682864 0.165484
80 1 0.16512 0.0619191 0.24243
99 1 0.0903203 0.156634 0.253649
146 1 0.0778221 0.0752471 0.335788
150 1 0.25016 0.0865344 0.327302
585 1 0.322385 0.499709 0.339134
519 1 0.576254 0.502319 0.265135
82 1 0.422611 0.07555 0.159882
84 1 0.337145 0.0689261 0.249186
88 1 0.493406 0.0778248 0.25151
435 1 0.0843912 0.49459 0.0707221
158 1 0.578402 0.063681 0.330522
181 1 0.499778 0.165222 0.324544
197 1 0.167487 0.327293 0.332732
113 1 0.668731 0.162537 0.173679
90 1 0.749944 0.0925888 0.165141
92 1 0.678346 0.0778641 0.245977
162 1 0.740748 0.0891171 0.337816
211 1 0.749157 0.349283 0.406922
76 1 0.998981 0.0814831 0.24017
96 1 0.821746 0.075376 0.26299
97 1 0.00425443 0.160798 0.164479
119 1 0.903243 0.176468 0.259037
189 1 0.827794 0.168258 0.334434
173 1 0.168293 0.155627 0.339386
123 1 0.0767429 0.321094 0.248255
104 1 0.17357 0.251318 0.262308
170 1 0.0886632 0.243174 0.328088
105 1 0.338523 0.172449 0.178537
103 1 0.246347 0.154234 0.245533
102 1 0.256723 0.238636 0.172334
108 1 0.336407 0.247218 0.241299
127 1 0.263327 0.320935 0.25781
129 1 0.329533 0.324649 0.173889
201 1 0.34409 0.337645 0.333088
109 1 0.498321 0.167963 0.150998
107 1 0.422765 0.157087 0.247411
131 1 0.417065 0.335513 0.239056
178 1 0.409437 0.24129 0.324382
111 1 0.579921 0.155044 0.241723
112 1 0.487643 0.252191 0.232942
133 1 0.494357 0.339075 0.155337
116 1 0.666193 0.238474 0.252584
182 1 0.578413 0.25585 0.318721
137 1 0.648789 0.326204 0.16674
115 1 0.751742 0.165341 0.253246
139 1 0.759493 0.337367 0.230014
213 1 0.833563 0.339183 0.334085
186 1 0.74669 0.257982 0.33644
100 1 0.00188551 0.247846 0.242871
120 1 0.823154 0.245188 0.250573
143 1 0.908814 0.320846 0.259634
190 1 0.918179 0.243228 0.340452
193 1 1.00111 0.327049 0.318983
122 1 0.0839112 0.413898 0.157909
128 1 0.151264 0.41706 0.255614
212 1 0.668208 0.423259 0.411347
125 1 0.166929 0.337448 0.168437
126 1 0.258266 0.4161 0.165671
210 1 0.756055 0.426138 0.334352
581 1 0.156109 0.497748 0.337856
130 1 0.400597 0.418238 0.174026
199 1 0.256818 0.32858 0.412607
132 1 0.318473 0.421383 0.256048
216 1 0.842965 0.417969 0.405276
277 1 0.508689 0.339326 0.499485
274 1 0.398408 0.409835 0.504141
135 1 0.565942 0.340919 0.241085
136 1 0.495439 0.425619 0.244603
209 1 0.656316 0.325928 0.321272
138 1 0.735135 0.40552 0.155092
149 1 0.172848 0.0152135 0.338089
207 1 0.576868 0.345764 0.418554
140 1 0.674196 0.408161 0.241474
144 1 0.839082 0.424808 0.258377
208 1 0.489679 0.416375 0.430389
124 1 0.99927 0.419756 0.235967
142 1 0.907936 0.419603 0.165962
148 1 0.991735 0.0655679 0.413641
169 1 0.993546 0.14645 0.348074
206 1 0.568381 0.418583 0.333077
89 1 0.661876 0.00691683 0.164955
192 1 0.837445 0.242863 0.418708
188 1 0.65544 0.244436 0.409683
152 1 0.169705 0.0942595 0.422132
175 1 0.250142 0.158696 0.419533
177 1 0.334089 0.168662 0.313114
156 1 0.334831 0.0923526 0.423563
154 1 0.411224 0.0777764 0.333708
172 1 0.996708 0.242783 0.40659
509 1 0.163526 0.498726 0.161238
160 1 0.49181 0.0853883 0.399742
185 1 0.645923 0.157117 0.324271
183 1 0.566455 0.164389 0.418786
164 1 0.664056 0.0894343 0.408931
184 1 0.498847 0.252222 0.413413
166 1 0.915934 0.0728216 0.328217
168 1 0.84505 0.0828506 0.42114
205 1 0.48433 0.34228 0.32844
195 1 0.0655703 0.333128 0.414423
171 1 0.0729825 0.157565 0.420486
176 1 0.166536 0.240808 0.412166
187 1 0.755676 0.155588 0.417262
174 1 0.25795 0.243642 0.34501
180 1 0.342302 0.255105 0.405522
191 1 0.909384 0.164627 0.414856
215 1 0.920152 0.341968 0.394153
511 1 0.224176 0.490515 0.253242
179 1 0.423273 0.166665 0.405548
203 1 0.408309 0.340934 0.422719
161 1 0.681878 0.00311548 0.333924
233 1 0.669163 0.00561397 0.481301
234 1 0.750507 0.0908815 0.493498
439 1 0.258165 0.4974 0.0898596
25 1 0.00551579 0.165508 0.00171665
254 1 0.575659 0.250439 0.491135
527 1 0.922668 0.501486 0.256322
147 1 0.100002 0.0183879 0.426888
155 1 0.416804 0.00767843 0.423524
253 1 0.483595 0.159602 0.496252
15 1 0.585855 0.00132338 0.0821564
85 1 0.502835 0.006421 0.147504
579 1 0.0897893 0.492779 0.425863
515 1 0.418643 0.493663 0.268392
151 1 0.259424 0.0042577 0.415052
226 1 0.406635 0.0991304 0.496658
262 1 0.920595 0.25495 0.493933
58 1 0.41592 0.411354 0.00364725
10 1 0.410438 0.0893637 0.00650006
34 1 0.404809 0.251905 0.00497997
250 1 0.420873 0.260235 0.493496
246 1 0.235857 0.250205 0.485374
26 1 0.081075 0.253516 0.00745304
65 1 0.666503 0.324356 0.0114355
57 1 0.329369 0.345758 0.00273343
66 1 0.755598 0.425026 0.00791278
286 1 0.923533 0.421326 0.479495
285 1 0.833375 0.359643 0.493079
281 1 0.660415 0.345281 0.487877
46 1 0.911286 0.244308 0.00468291
241 1 0.991635 0.163979 0.491261
224 1 0.161512 0.081494 0.58467
375 1 0.60341 0.0131817 0.94018
222 1 0.252906 0.0848447 0.501933
228 1 0.337269 0.0917718 0.579903
293 1 0.180721 0.0231364 0.672647
298 1 0.421977 0.088334 0.663478
232 1 0.498167 0.0779295 0.580808
811 1 0.739319 0.501196 0.920062
301 1 0.510385 0.00996989 0.669368
255 1 0.582776 0.168945 0.578561
302 1 0.585507 0.0995327 0.666638
663 1 0.581759 0.48761 0.583318
236 1 0.651332 0.0702209 0.568237
259 1 0.751853 0.175062 0.575548
240 1 0.838405 0.0761551 0.578583
729 1 0.32808 0.48989 0.664078
220 1 0.985633 0.0715291 0.590508
310 1 0.906822 0.0915149 0.660169
263 1 0.915371 0.165647 0.584754
243 1 0.0662169 0.178391 0.590555
248 1 0.157923 0.2516 0.588973
267 1 0.0779496 0.327241 0.573902
223 1 0.236186 0.00686307 0.584788
247 1 0.258696 0.173794 0.586494
252 1 0.323307 0.261872 0.591318
318 1 0.229465 0.246486 0.680291
271 1 0.234758 0.326909 0.574179
317 1 0.145834 0.159772 0.662204
341 1 0.148813 0.338221 0.667054
251 1 0.4144 0.180468 0.586357
321 1 0.338969 0.158365 0.665089
275 1 0.413358 0.327005 0.588166
325 1 0.506588 0.164241 0.659687
256 1 0.49976 0.25233 0.569463
326 1 0.595642 0.251173 0.671048
279 1 0.595328 0.32142 0.59485
260 1 0.661937 0.255088 0.561738
305 1 0.656249 -0.00061794 0.667791
264 1 0.826453 0.263126 0.570444
333 1 0.824744 0.164317 0.654369
330 1 0.752848 0.258956 0.658404
273 1 0.325598 0.330034 0.502045
244 1 0.991384 0.248203 0.57321
815 1 0.912331 0.492101 0.917575
337 1 -0.00157498 0.327077 0.662483
272 1 0.16597 0.431271 0.595639
42 1 0.755449 0.260036 0.997995
338 1 0.0651962 0.409529 0.67357
245 1 0.162097 0.179541 0.510563
737 1 0.654993 0.494951 0.676002
342 1 0.23536 0.396909 0.654873
295 1 0.258041 0.00571109 0.755004
276 1 0.327525 0.406718 0.590172
346 1 0.441862 0.428391 0.663049
345 1 0.332622 0.336526 0.6812
280 1 0.50705 0.405132 0.582607
349 1 0.517229 0.32953 0.67168
350 1 0.576835 0.413661 0.665319
371 1 0.416702 0.00553504 0.92544
283 1 0.749244 0.339607 0.577422
430 1 0.91729 0.428761 0.8256
284 1 0.663574 0.409202 0.588345
268 1 0.997384 0.424063 0.582238
288 1 0.839234 0.418337 0.582813
287 1 0.914868 0.335488 0.586866
431 1 0.912586 0.34507 0.919791
290 1 0.0785435 0.0862236 0.663119
296 1 0.15952 0.0915683 0.749345
292 1 0.00158991 0.0804516 0.74042
362 1 0.0657969 0.0897065 0.831521
797 1 0.182814 0.495652 0.83838
385 1 0.996784 0.171869 0.827535
61 1 0.488597 0.334422 0.999905
294 1 0.245377 0.10305 0.676757
366 1 0.253469 0.0834609 0.852178
445 1 0.519135 0.498536 0.995287
300 1 0.34766 0.0771707 0.748922
323 1 0.409253 0.168863 0.736767
304 1 0.495035 0.0955569 0.746799
33 1 0.325871 0.163262 0.996353
671 1 0.913088 0.495478 0.572145
329 1 0.676217 0.17148 0.659549
308 1 0.673665 0.0961528 0.74029
429 1 0.847789 0.335079 0.836856
306 1 0.75438 0.0855882 0.663541
331 1 0.752341 0.182001 0.748802
378 1 0.753508 0.0953371 0.829417
312 1 0.835041 0.0836258 0.741095
313 1 0.99731 0.157033 0.668282
426 1 0.746489 0.419447 0.836788
382 1 0.922602 0.0880332 0.811138
335 1 0.919307 0.175404 0.743053
314 1 0.0637778 0.237845 0.680642
315 1 0.0740769 0.157788 0.748199
339 1 0.0886186 0.337959 0.763556
320 1 0.14992 0.245805 0.745224
389 1 0.159172 0.160392 0.828323
319 1 0.242301 0.171126 0.75668
390 1 0.255685 0.260614 0.836461
393 1 0.356694 0.153703 0.840613
343 1 0.242816 0.338922 0.752522
413 1 0.169958 0.338312 0.841046
397 1 0.493982 0.160757 0.833749
322 1 0.409176 0.264702 0.676142
324 1 0.314813 0.252788 0.748878
394 1 0.413562 0.247878 0.824535
353 1 0.670417 0.327756 0.657617
327 1 0.58306 0.170518 0.76563
328 1 0.510223 0.248093 0.746975
351 1 0.586164 0.334778 0.767659
421 1 0.493514 0.339121 0.835191
332 1 0.67119 0.25293 0.751152
336 1 0.839175 0.260109 0.732368
402 1 0.757222 0.274555 0.829601
334 1 0.918077 0.250291 0.657054
316 1 0.978314 0.25361 0.745101
270 1 0.258693 0.422849 0.506954
410 1 0.0823953 0.425343 0.849786
344 1 0.175545 0.425321 0.75062
50 1 0.0926637 0.420749 0.98509
414 1 0.263106 0.41581 0.839886
348 1 0.34244 0.427208 0.752732
69 1 0.830133 0.333426 0.996416
432 1 0.828945 0.420491 0.913602
21 1 0.832721 0.0067649 0.978497
347 1 0.41686 0.341269 0.754062
418 1 0.420633 0.430357 0.836118
424 1 0.50159 0.410398 0.92189
238 1 0.921213 0.0743241 0.502012
422 1 0.577405 0.428676 0.836397
352 1 0.511574 0.417375 0.756604
356 1 0.668059 0.408789 0.747552
355 1 0.738968 0.33382 0.747932
357 1 0.832211 0.340531 0.663541
354 1 0.752704 0.410069 0.667775
360 1 0.825114 0.416426 0.756049
359 1 0.904042 0.339746 0.7449
340 1 0.00010748 0.401847 0.756285
358 1 0.924461 0.434751 0.678451
373 1 0.497004 0.000443668 0.851352
41 1 0.68555 0.174863 0.987302
368 1 0.168858 0.101622 0.917748
235 1 0.747654 0.0029913 0.571571
372 1 0.330895 0.07849 0.930024
419 1 0.405977 0.338115 0.914891
739 1 0.743154 0.499468 0.743042
727 1 0.25603 0.488172 0.752329
370 1 0.417978 0.0727904 0.844385
376 1 0.491427 0.101118 0.94496
667 1 0.74466 0.486989 0.597703
412 1 0.994081 0.416702 0.917864
411 1 0.0750429 0.3304 0.913376
307 1 0.752705 0.00219504 0.743968
374 1 0.57286 0.079577 0.84643
380 1 0.673986 0.0991969 0.90633
379 1 0.74994 0.0100102 0.901868
409 1 0.978477 0.328005 0.835968
384 1 0.857648 0.0811061 0.894931
428 1 0.661578 0.412178 0.924996
420 1 0.341722 0.426356 0.914584
405 1 0.832297 0.152121 0.813003
364 1 0.00150229 0.0689028 0.910328
416 1 0.187579 0.420887 0.913601
387 1 0.0713425 0.161743 0.908363
386 1 0.0653744 0.258188 0.828801
388 1 0.984498 0.255469 0.918551
392 1 0.155037 0.235141 0.905043
391 1 0.250591 0.174457 0.921703
415 1 0.253921 0.334811 0.923364
417 1 0.340813 0.337561 0.835552
396 1 0.325773 0.256722 0.92601
395 1 0.416173 0.171906 0.944796
400 1 0.492231 0.247395 0.913443
398 1 0.579027 0.245612 0.840717
425 1 0.665502 0.339111 0.843784
423 1 0.581391 0.327799 0.908935
404 1 0.660375 0.244761 0.907391
399 1 0.582404 0.164177 0.916411
408 1 0.84522 0.264656 0.91683
427 1 0.737635 0.347003 0.917492
401 1 0.676141 0.175946 0.828893
403 1 0.757023 0.181913 0.897323
407 1 0.925107 0.166608 0.92252
406 1 0.907421 0.233222 0.831515
741 1 0.834232 0.487952 0.668704
669 1 0.827995 0.488273 0.498632
53 1 0.156558 0.332248 0.977972
665 1 0.669491 0.481778 0.514834
809 1 0.663678 0.493894 0.842873
218 1 0.0781374 0.0821838 0.516762
299 1 0.431011 0.00117413 0.750722
363 1 0.0829277 0.00389796 0.901297
278 1 0.574726 0.428603 0.49915
725 1 0.1649 0.494988 0.675154
723 1 0.0763073 0.496889 0.758336
249 1 0.33997 0.184367 0.502261
377 1 0.666033 0.0220773 0.828563
303 1 0.579696 0.00597267 0.75692
30 1 0.254479 0.253006 1.00098
297 1 0.336777 0.0152762 0.660467
45 1 0.834692 0.151952 0.987583
221 1 0.16303 0.00170062 0.499085
231 1 0.58064 0.00410009 0.583314
38 1 0.585993 0.251574 0.995154
70 1 0.920274 0.417126 0.99774
18 1 0.75651 0.0823757 0.980096
6 1 0.244208 0.0947609 0.997315
2 1 0.091581 0.0775625 0.985793
54 1 0.261565 0.423857 0.990636
266 1 0.087999 0.41833 0.512909
62 1 0.580775 0.404749 0.997996
261 1 0.842771 0.165763 0.507438
22 1 0.920732 0.0759639 0.989263
265 1 0.99897 0.338211 0.504812
29 1 0.166345 0.170948 0.992286
459 1 0.0859408 0.663737 0.0748427
436 1 0.010366 0.571015 0.0731926
237 1 0.822337 0.985165 0.496622
153 1 0.332249 0.994057 0.336272
628 1 0.990832 0.901346 0.410012
440 1 0.161628 0.590181 0.085186
463 1 0.259853 0.66724 0.095402
470 1 0.597445 0.745172 0.0148074
537 1 0.340401 0.655905 0.180797
444 1 0.334735 0.587981 0.0901037
467 1 0.408541 0.672492 0.0965551
514 1 0.410997 0.579857 0.168601
448 1 0.507193 0.579536 0.0988621
706 1 0.425981 0.924941 0.493185
518 1 0.587508 0.59015 0.182724
452 1 0.67632 0.564375 0.0890538
545 1 0.675958 0.661408 0.159409
5 1 0.161219 0.984181 0.00142832
674 1 0.0758647 0.759785 0.501615
456 1 0.832231 0.578203 0.0806119
479 1 0.915921 0.664916 0.0762618
526 1 0.926362 0.575585 0.165265
648 1 0.820767 0.913413 0.408708
461 1 0.167072 0.67025 0.000279358
473 1 0.680435 0.659438 0.0127823
460 1 0.00672439 0.753477 0.0654873
3 1 0.0868527 0.990984 0.0844129
446 1 0.59703 0.580907 0.0189583
464 1 0.175186 0.753852 0.0880366
534 1 0.256461 0.751113 0.176403
450 1 0.744912 0.584078 0.0119538
468 1 0.334344 0.761374 0.0961375
472 1 0.498125 0.733024 0.0914451
525 1 0.83445 0.511045 0.172844
471 1 0.586736 0.655141 0.0901085
542 1 0.57771 0.743011 0.166211
710 1 0.591567 0.920302 0.477074
682 1 0.415839 0.745414 0.488352
476 1 0.681459 0.745995 0.0933994
475 1 0.768957 0.66807 0.0825431
480 1 0.840886 0.752662 0.0799721
499 1 0.752346 0.847137 0.0870253
441 1 0.331181 0.50479 0.0111638
503 1 0.918828 0.823835 0.084475
497 1 0.66841 0.836052 0.0115477
591 1 0.591246 0.496523 0.401719
9 1 0.324275 0.997542 0.00035283
483 1 0.0837962 0.835334 0.0606052
484 1 -0.00233378 0.915776 0.0797076
554 1 0.077374 0.92047 0.165317
557 1 0.168436 0.84354 0.176391
487 1 0.246557 0.833888 0.0863528
488 1 0.164278 0.911797 0.0833814
558 1 0.263569 0.910764 0.158881
492 1 0.345316 0.907265 0.0796983
455 1 0.915055 0.503197 0.084493
491 1 0.425219 0.814811 0.0748832
496 1 0.514015 0.909176 0.0755706
562 1 0.411178 0.920885 0.169589
623 1 0.923251 0.670898 0.421197
647 1 0.900679 0.828232 0.416142
495 1 0.581347 0.825548 0.0950203
566 1 0.573553 0.916289 0.167221
500 1 0.660721 0.920272 0.0907882
95 1 0.920278 1.00109 0.248217
670 1 0.911167 0.581699 0.498601
504 1 0.840761 0.934874 0.093152
589 1 0.494191 0.513971 0.342221
597 1 0.84034 0.513029 0.326257
438 1 0.251898 0.59414 0.0178127
145 1 0.992976 0.983312 0.323695
574 1 0.916635 0.911538 0.157534
553 1 0.00696701 0.834874 0.168347
447 1 0.577738 0.510577 0.0986814
506 1 0.0844073 0.597032 0.166255
512 1 0.15655 0.579363 0.245838
578 1 0.0902005 0.584345 0.330672
531 1 0.098141 0.665516 0.24604
510 1 0.249173 0.576572 0.17097
635 1 0.402718 0.834916 0.400192
516 1 0.323036 0.576568 0.249627
539 1 0.406518 0.662483 0.261953
520 1 0.497804 0.592329 0.253764
543 1 0.591748 0.668493 0.263729
524 1 0.677993 0.592921 0.242432
644 1 0.680506 0.920599 0.410255
549 1 0.854985 0.660042 0.16878
522 1 0.767352 0.593571 0.160655
547 1 0.755199 0.662734 0.255178
594 1 0.748768 0.571186 0.333674
645 1 0.82204 0.822522 0.325619
621 1 0.83434 0.658948 0.34544
508 1 0.00591488 0.578842 0.247166
528 1 0.834716 0.588388 0.250509
551 1 0.922213 0.671442 0.252836
640 1 0.494432 0.918432 0.410728
530 1 0.0820168 0.752119 0.164905
533 1 0.172049 0.660767 0.172573
532 1 0.00459893 0.743593 0.239444
625 1 0.985319 0.823662 0.33074
535 1 0.252467 0.6576 0.251946
536 1 0.164907 0.749943 0.238802
559 1 0.251263 0.837156 0.247867
540 1 0.330841 0.750313 0.244487
541 1 0.492921 0.671604 0.18058
538 1 0.424383 0.743833 0.188755
563 1 0.420454 0.818522 0.261693
544 1 0.50642 0.745158 0.267008
548 1 0.669832 0.739446 0.241271
641 1 0.655891 0.831774 0.308548
546 1 0.762421 0.744686 0.161417
573 1 0.832881 0.832053 0.156209
618 1 0.731139 0.758534 0.340657
571 1 0.745253 0.823161 0.246002
550 1 0.930754 0.743465 0.159497
529 1 0.00390269 0.672543 0.148569
552 1 0.830724 0.74072 0.244466
622 1 0.910114 0.742354 0.340678
575 1 0.919552 0.826997 0.237868
709 1 0.489956 0.827027 0.481828
555 1 0.0875794 0.831189 0.251878
507 1 0.0836801 0.504447 0.239401
556 1 0.0061214 0.904692 0.249496
561 1 0.352181 0.834007 0.179705
629 1 0.170121 0.828514 0.335473
560 1 0.159058 0.924959 0.267775
564 1 0.335306 0.913109 0.247868
636 1 0.314417 0.922861 0.40244
565 1 0.469727 0.832435 0.169076
633 1 0.326574 0.821711 0.334894
634 1 0.408594 0.917165 0.335474
637 1 0.50379 0.830561 0.341464
568 1 0.497175 0.923031 0.250694
643 1 0.732992 0.832817 0.407895
569 1 0.663045 0.826589 0.164417
567 1 0.557418 0.836118 0.230299
630 1 0.240799 0.904591 0.337858
612 1 0.327048 0.746373 0.419301
570 1 0.75282 0.906029 0.176392
572 1 0.659691 0.93023 0.251232
576 1 0.838641 0.910428 0.248501
642 1 0.754314 0.9016 0.322355
646 1 0.923208 0.903375 0.312225
81 1 0.32162 1.00055 0.164979
580 1 0.00338723 0.592016 0.429294
584 1 0.166355 0.577832 0.410273
638 1 0.581202 0.919311 0.327918
521 1 0.662152 0.502473 0.175091
19 1 0.73997 0.98793 0.0909888
582 1 0.236842 0.575538 0.328031
607 1 0.250139 0.670072 0.413493
608 1 0.174983 0.752071 0.433582
586 1 0.405921 0.575614 0.331459
624 1 0.825321 0.737011 0.424488
588 1 0.322468 0.587094 0.410613
611 1 0.419537 0.659147 0.416638
165 1 0.830561 0.991971 0.343695
639 1 0.586982 0.82468 0.420955
613 1 0.506106 0.659092 0.34498
615 1 0.582882 0.660644 0.440427
590 1 0.586843 0.587491 0.340335
592 1 0.503348 0.581974 0.430515
604 1 1.00301 0.751368 0.405649
616 1 0.516631 0.734784 0.41825
626 1 0.0780228 0.919419 0.34997
617 1 0.661375 0.661365 0.34465
610 1 0.414976 0.749475 0.336149
619 1 0.742663 0.666375 0.435036
596 1 0.659388 0.583412 0.433751
632 1 0.180795 0.931932 0.416956
598 1 0.934929 0.59271 0.348557
601 1 0.0107776 0.663853 0.327051
600 1 0.823206 0.583668 0.427888
631 1 0.257009 0.832357 0.416031
620 1 0.666343 0.73662 0.446115
605 1 0.173232 0.664883 0.347106
602 1 0.0933779 0.755659 0.330618
627 1 0.0862024 0.822666 0.4176
603 1 0.0870028 0.665329 0.415853
614 1 0.583839 0.750656 0.338363
609 1 0.316822 0.670835 0.334003
606 1 0.234206 0.751342 0.331583
157 1 0.487012 0.99516 0.335431
649 1 0.998401 0.50758 0.50228
77 1 0.181567 0.98611 0.15715
443 1 0.433624 0.51397 0.0560009
577 1 0.00576068 0.507014 0.336034
599 1 0.921699 0.510473 0.408307
79 1 0.251927 0.986983 0.257536
23 1 0.915755 0.995808 0.0679977
486 1 0.249139 0.904428 0.00506538
505 1 0.996511 0.503168 0.163689
469 1 0.517293 0.660347 0.0113819
698 1 0.0965498 0.910879 0.498375
595 1 0.734662 0.500647 0.416186
442 1 0.410824 0.601137 0.0043152
91 1 0.749191 0.992237 0.253115
167 1 0.91796 0.972956 0.417487
159 1 0.575609 0.993542 0.419652
583 1 0.252033 0.515502 0.422301
75 1 0.0752157 0.99258 0.248993
713 1 0.666424 0.834537 0.498341
694 1 0.913391 0.750875 0.496371
697 1 0.00125406 0.837872 0.490859
489 1 0.340348 0.82367 0.00962189
705 1 0.342217 0.851017 0.49099
217 1 0.0113083 0.985968 0.495965
493 1 0.50996 0.823953 0.00422995
466 1 0.433931 0.739713 -0.000221378
681 1 0.338067 0.661697 0.487068
474 1 0.766332 0.746799 0.0130265
490 1 0.423235 0.916937 -4.36649e-05
502 1 0.915551 0.908268 0.0107093
462 1 0.256895 0.740895 0.00351464
657 1 0.33515 0.505195 0.515848
652 1 0.990505 0.576638 0.573891
465 1 0.330946 0.665106 1.00202
731 1 0.424167 0.510299 0.749705
656 1 0.177126 0.589955 0.5969
679 1 0.259221 0.674226 0.591417
726 1 0.25914 0.583119 0.671266
660 1 0.334873 0.591306 0.588596
861 1 0.81609 0.826278 0.81307
864 1 0.816525 0.916451 0.902036
664 1 0.499174 0.588111 0.581989
668 1 0.659333 0.566806 0.590438
858 1 0.735568 0.940392 0.819696
734 1 0.598437 0.58426 0.673008
677 1 0.159047 0.667252 0.511044
860 1 0.682403 0.924183 0.924317
691 1 0.765213 0.657814 0.595799
738 1 0.731063 0.588592 0.662242
672 1 0.83164 0.565356 0.594666
311 1 0.907132 0.995082 0.748426
675 1 0.0843972 0.673249 0.587755
676 1 0.00359448 0.756938 0.584864
680 1 0.171103 0.740461 0.590484
746 1 0.100335 0.748176 0.664038
289 1 0.991483 0.997534 0.670533
684 1 0.333479 0.751942 0.582795
365 1 0.171228 1.00269 0.834614
683 1 0.412711 0.663304 0.577957
707 1 0.416901 0.844557 0.569359
650 1 0.0886961 0.586028 0.502416
689 1 0.669398 0.651244 0.511621
688 1 0.489851 0.760015 0.575964
687 1 0.590343 0.659797 0.587856
711 1 0.568085 0.832955 0.568724
757 1 0.50206 0.665778 0.657451
799 1 0.260681 0.511512 0.920639
692 1 0.666791 0.750857 0.578924
762 1 0.754543 0.738906 0.658401
765 1 0.854031 0.665853 0.671706
696 1 0.854263 0.736436 0.593661
695 1 0.926057 0.66041 0.586268
227 1 0.410324 0.994223 0.576368
699 1 0.0844444 0.833833 0.591077
704 1 0.173647 0.906251 0.610162
700 1 0.0144749 0.913271 0.575675
743 1 0.906523 0.513551 0.757137
703 1 0.247448 0.832924 0.588342
708 1 0.319564 0.92801 0.571687
369 1 0.327289 0.995863 0.858262
805 1 0.499566 0.503813 0.840405
662 1 0.581775 0.563982 0.507393
777 1 0.335956 0.836273 0.668047
778 1 0.414013 0.920626 0.669561
477 1 0.84022 0.649411 0.999165
712 1 0.489067 0.924289 0.583828
716 1 0.659877 0.937367 0.571984
813 1 0.811005 0.515982 0.831042
715 1 0.754138 0.832732 0.590557
786 1 0.741607 0.928911 0.655141
853 1 0.498417 0.858509 0.825216
381 1 0.831106 0.999801 0.825905
309 1 0.823798 0.990275 0.669336
719 1 0.920885 0.837143 0.575619
720 1 0.833667 0.908431 0.582559
790 1 0.918668 0.899088 0.677674
722 1 0.0971751 0.583506 0.689946
724 1 0.00693501 0.581938 0.755065
794 1 0.0964292 0.579814 0.838611
749 1 0.169573 0.671481 0.689973
728 1 0.183318 0.585115 0.764329
798 1 0.264542 0.587943 0.831713
730 1 0.419697 0.576811 0.662896
732 1 0.334624 0.596632 0.744472
802 1 0.426556 0.592241 0.834331
755 1 0.419112 0.666025 0.744591
361 1 0.991852 0.99838 0.819592
482 1 0.0766693 0.91416 0.984068
736 1 0.51113 0.604867 0.748905
759 1 0.597775 0.680532 0.740066
761 1 0.658429 0.678491 0.663046
857 1 0.677407 0.856814 0.836311
740 1 0.662014 0.586347 0.75674
744 1 0.810897 0.580914 0.735466
653 1 0.164148 0.507734 0.50282
1 1 0.00126667 0.990968 0.993268
735 1 0.583201 0.503757 0.760263
742 1 0.920157 0.574483 0.663833
745 1 0.00513961 0.657777 0.670937
767 1 0.91303 0.660063 0.762155
837 1 0.815362 0.650292 0.829644
773 1 0.174919 0.835613 0.683315
747 1 0.0940858 0.668604 0.760149
752 1 0.16764 0.750139 0.758664
817 1 0.00715201 0.667511 0.828281
771 1 0.0901331 0.828487 0.740077
750 1 0.256268 0.750679 0.662995
751 1 0.255645 0.67068 0.75536
753 1 0.340027 0.680217 0.671276
756 1 0.341724 0.756734 0.74595
754 1 0.419212 0.768754 0.656335
760 1 0.49757 0.757916 0.755101
781 1 0.500459 0.844498 0.661205
758 1 0.572241 0.753394 0.648127
783 1 0.581017 0.836325 0.743504
785 1 0.661391 0.854398 0.637599
763 1 0.756068 0.669623 0.739024
764 1 0.688514 0.750973 0.748073
834 1 0.737537 0.748605 0.847196
787 1 0.754779 0.846356 0.731932
766 1 0.932541 0.7442 0.672317
768 1 0.831496 0.749644 0.740462
748 1 0.00122867 0.745262 0.750219
791 1 0.918784 0.827594 0.752898
770 1 0.0793506 0.917113 0.674955
801 1 0.344739 0.507569 0.832685
769 1 0.00958745 0.842785 0.65671
772 1 0.995209 0.907884 0.756775
776 1 0.166313 0.916112 0.762982
775 1 0.259169 0.811688 0.746937
774 1 0.272693 0.927237 0.670905
846 1 0.261129 0.910556 0.805941
849 1 0.334454 0.827013 0.833532
779 1 0.422299 0.841988 0.747
780 1 0.347395 0.921779 0.756846
850 1 0.409283 0.927257 0.843291
782 1 0.573373 0.921697 0.649787
784 1 0.510702 0.92491 0.738137
854 1 0.596687 0.945299 0.852394
788 1 0.660926 0.909389 0.734679
498 1 0.755853 0.912753 0.99824
659 1 0.410209 0.502219 0.590618
862 1 0.904788 0.901415 0.823836
789 1 0.844166 0.824732 0.665958
792 1 0.820922 0.925082 0.759449
819 1 0.0879955 0.66525 0.914977
856 1 0.500131 0.907782 0.918223
796 1 0.0032087 0.584362 0.904365
825 1 0.345886 0.674684 0.834773
821 1 0.176029 0.664868 0.841105
800 1 0.173755 0.59438 0.920404
804 1 0.338002 0.593566 0.914551
823 1 0.255913 0.665238 0.919897
367 1 0.238822 0.995367 0.935841
478 1 0.911179 0.74115 0.995692
827 1 0.425473 0.662593 0.921928
848 1 0.179068 0.91923 0.911364
795 1 0.0793732 0.509816 0.911722
806 1 0.579766 0.580747 0.837623
808 1 0.505302 0.579636 0.92532
812 1 0.665628 0.587515 0.93229
803 1 0.410208 0.508843 0.92743
685 1 0.506913 0.667302 0.503386
810 1 0.727346 0.587451 0.838516
816 1 0.823912 0.579044 0.919709
219 1 0.0890353 1.00267 0.592254
845 1 0.188146 0.836063 0.845656
814 1 0.906896 0.586431 0.838344
852 1 0.328576 0.914422 0.929133
843 1 0.0867339 0.819726 0.92
841 1 0.00107603 0.829913 0.844298
818 1 0.0853009 0.759441 0.832226
820 1 0.00884481 0.738317 0.913172
824 1 0.162937 0.746048 0.912075
822 1 0.265577 0.747597 0.831418
847 1 0.258129 0.832031 0.927594
828 1 0.347856 0.74088 0.913126
733 1 0.514768 0.518245 0.678756
851 1 0.415504 0.82888 0.931413
826 1 0.45056 0.763109 0.845528
832 1 0.523799 0.747661 0.931246
661 1 0.480712 0.502234 0.509033
855 1 0.605158 0.835079 0.919279
829 1 0.511631 0.672913 0.83822
831 1 0.593029 0.662323 0.927903
830 1 0.589128 0.762866 0.83141
836 1 0.679613 0.730348 0.929207
833 1 0.656322 0.67128 0.833467
859 1 0.734725 0.823299 0.926465
835 1 0.749923 0.665918 0.911908
838 1 0.920139 0.747566 0.838296
839 1 0.907203 0.671846 0.913416
840 1 0.819068 0.742103 0.908695
863 1 0.902834 0.827807 0.913147
651 1 0.07517 0.510853 0.573956
844 1 0.998956 0.910643 0.911132
842 1 0.0821267 0.90648 0.828703
239 1 0.913092 0.991955 0.593336
721 1 0.00892438 0.501733 0.668958
383 1 0.919663 0.989983 0.906631
654 1 0.248754 0.594045 0.504601
501 1 0.838271 0.834466 0.994896
686 1 0.580234 0.742043 0.517845
454 1 0.925664 0.591187 0.987767
291 1 0.0917152 0.988818 0.748768
793 1 0.997742 0.500856 0.825805
666 1 0.75056 0.572841 0.51172
655 1 0.246772 0.50823 0.587873
481 1 0.995509 0.832128 0.993807
437 1 0.174215 0.507891 0.99899
807 1 0.593985 0.497619 0.926589
690 1 0.757346 0.73816 0.533779
658 1 0.41096 0.583782 0.502286
494 1 0.587495 0.909002 0.993343
678 1 0.259165 0.750868 0.510347
13 1 0.508429 0.985401 0.99421
693 1 0.846686 0.657684 0.522432
717 1 0.833766 0.825619 0.50541
701 1 0.162545 0.822245 0.509095
718 1 0.917014 0.9043 0.501092
458 1 0.089498 0.742325 0.995285
702 1 0.238605 0.907102 0.501316
485 1 0.171915 0.82641 0.994915
433 1 0.00192864 0.501663 0.977244
714 1 0.747541 0.904651 0.501912
434 1 0.0859858 0.586484 0.990235
673 1 0.00491879 0.674049 0.504615
457 1 0.00920874 0.661014 0.990274
229 1 0.503203 0.994995 0.500961
