ITEM: TIMESTEP
20500
ITEM: NUMBER OF ATOMS
864
ITEM: BOX BOUNDS pp pp pp
0.0000000000000000e+00 3.1559999999999999e+01
0.0000000000000000e+00 3.1559999999999999e+01
0.0000000000000000e+00 3.1559999999999999e+01
ITEM: ATOMS id type xs ys zs
8 1 0.157968 0.0834427 0.0785022
4 1 0.987893 0.0784882 0.0872435
277 1 0.507599 0.31715 0.497242
246 1 0.243851 0.241956 0.488508
31 1 0.24366 0.1733 0.0864348
595 1 0.7526 0.490066 0.422481
147 1 0.0970466 0.00337072 0.42193
12 1 0.336599 0.0838147 0.0672155
16 1 0.51109 0.0833798 0.084191
585 1 0.344617 0.483942 0.317419
82 1 0.425306 0.0867256 0.143781
445 1 0.485278 0.487228 0.0058751
86 1 0.592804 0.0852584 0.170356
39 1 0.587622 0.175573 0.0847061
161 1 0.6656 0.000766665 0.337155
41 1 0.668204 0.15103 0.0108243
649 1 0.996659 0.496635 0.482293
214 1 0.912128 0.419753 0.333551
20 1 0.662521 0.0614897 0.0881542
90 1 0.733511 0.0793315 0.168142
583 1 0.252809 0.497494 0.399119
24 1 0.833017 0.0837315 0.072974
117 1 0.825042 0.160392 0.161522
211 1 0.749678 0.326909 0.415788
151 1 0.239817 0.000944118 0.411202
27 1 0.0843336 0.169714 0.0826795
28 1 0.990353 0.251988 0.0780375
32 1 0.162111 0.262486 0.0642777
51 1 0.0759398 0.3231 0.0849404
270 1 0.243945 0.414525 0.488141
83 1 0.406878 0.0172174 0.241602
102 1 0.25423 0.249171 0.1624
36 1 0.329045 0.250043 0.0683252
523 1 0.753581 0.487888 0.255004
35 1 0.403778 0.169229 0.0602049
40 1 0.506868 0.257866 0.0892881
59 1 0.435251 0.333497 0.0929791
129 1 0.315258 0.323229 0.154055
109 1 0.492666 0.170436 0.15376
521 1 0.666529 0.494997 0.161373
63 1 0.578517 0.350195 0.0823554
44 1 0.660637 0.252675 0.0715463
29 1 0.168396 0.159933 0.000945874
455 1 0.914252 0.490139 0.0910255
43 1 0.752606 0.154895 0.0768958
114 1 0.748121 0.25279 0.150253
47 1 0.919074 0.168907 0.0932385
48 1 0.823748 0.242222 0.0845019
71 1 0.906741 0.326783 0.080229
122 1 0.081911 0.408332 0.152954
38 1 0.57843 0.25925 0.00292948
209 1 0.666656 0.339793 0.353034
55 1 0.244488 0.336476 0.0790609
56 1 0.161933 0.404574 0.0759492
60 1 0.344435 0.406109 0.0774445
125 1 0.161983 0.330352 0.16642
126 1 0.251316 0.401201 0.163195
62 1 0.582972 0.429704 0.0136513
87 1 0.576623 0.00761621 0.250453
79 1 0.247618 0.0172931 0.251881
593 1 0.65937 0.495523 0.342713
130 1 0.423864 0.419476 0.175432
64 1 0.497592 0.41811 0.0901257
68 1 0.677509 0.427493 0.0765068
67 1 0.749985 0.331832 0.0732055
72 1 0.830243 0.413278 0.0757018
509 1 0.165492 0.476022 0.160775
141 1 0.83748 0.343575 0.167187
513 1 0.332776 0.484131 0.165169
216 1 0.838723 0.416843 0.406145
52 1 0.0004895 0.420716 0.0680761
142 1 0.931099 0.405921 0.159826
210 1 0.742215 0.420814 0.344964
97 1 0.992995 0.170701 0.167375
451 1 0.754908 0.495451 0.083406
187 1 0.754583 0.143396 0.410832
74 1 0.070183 0.0817725 0.167937
80 1 0.16093 0.0885002 0.245854
78 1 0.229517 0.0892399 0.150851
84 1 0.322996 0.107237 0.250481
177 1 0.343064 0.16065 0.339668
212 1 0.66649 0.41328 0.425294
150 1 0.248453 0.0913223 0.337704
206 1 0.58255 0.421017 0.327423
107 1 0.416954 0.167599 0.236595
154 1 0.427889 0.0825501 0.323761
203 1 0.417693 0.328866 0.424958
88 1 0.493634 0.0775556 0.232038
111 1 0.576826 0.162619 0.252086
92 1 0.66313 0.0793293 0.251942
181 1 0.495163 0.163645 0.327902
158 1 0.581744 0.0837048 0.328777
115 1 0.748434 0.160023 0.244427
202 1 0.432083 0.415705 0.330941
669 1 0.83265 0.497442 0.484879
76 1 0.988336 0.0904047 0.248424
96 1 0.812946 0.0711974 0.242543
94 1 0.912607 0.0741889 0.166905
119 1 0.904896 0.168833 0.24404
579 1 0.090759 0.498622 0.420437
101 1 0.161165 0.174784 0.167926
98 1 0.0870713 0.24962 0.161126
99 1 0.0742509 0.17174 0.238429
104 1 0.151371 0.260347 0.261881
105 1 0.332608 0.154844 0.152514
103 1 0.243304 0.171043 0.238605
108 1 0.32949 0.243759 0.249012
106 1 0.405808 0.244901 0.152564
201 1 0.34233 0.339051 0.339179
178 1 0.408897 0.246923 0.327382
133 1 0.511208 0.325717 0.174879
110 1 0.590978 0.250561 0.176917
112 1 0.504284 0.244097 0.246925
182 1 0.582943 0.25024 0.323348
185 1 0.678933 0.151686 0.332974
116 1 0.679459 0.246481 0.255713
113 1 0.670984 0.167628 0.155757
120 1 0.823543 0.257534 0.22781
189 1 0.840126 0.157197 0.332119
118 1 0.912452 0.259256 0.164077
100 1 0.997392 0.249795 0.258779
143 1 0.91741 0.324361 0.242646
193 1 0.987016 0.347876 0.331893
190 1 0.903007 0.246525 0.329648
286 1 0.908792 0.415692 0.490882
66 1 0.748677 0.421229 0.000147268
123 1 0.0786985 0.344335 0.24754
121 1 0.000420509 0.334901 0.167572
128 1 0.166298 0.405579 0.268276
194 1 0.0758081 0.416414 0.33738
188 1 0.674049 0.234146 0.414002
198 1 0.245714 0.40717 0.339884
127 1 0.248326 0.336761 0.255877
132 1 0.335722 0.402043 0.238164
439 1 0.263143 0.481325 0.0780921
207 1 0.579314 0.312011 0.417635
131 1 0.410898 0.330845 0.245454
215 1 0.920053 0.330534 0.412911
208 1 0.495212 0.40722 0.418375
137 1 0.669666 0.338944 0.164082
135 1 0.595371 0.337463 0.263241
134 1 0.585394 0.40343 0.175945
136 1 0.494854 0.416658 0.249728
139 1 0.744993 0.338669 0.258515
138 1 0.741434 0.420422 0.176969
140 1 0.672019 0.412098 0.25946
149 1 0.165551 0.00756355 0.328118
447 1 0.589127 0.498509 0.0987056
517 1 0.502967 0.496863 0.163886
124 1 0.00212344 0.421949 0.242127
144 1 0.834549 0.416525 0.250883
146 1 0.0854385 0.0933819 0.320893
191 1 0.907107 0.149272 0.420615
171 1 0.0686099 0.170049 0.433028
173 1 0.154359 0.171661 0.320144
589 1 0.505526 0.497399 0.343856
152 1 0.182441 0.0970865 0.42211
184 1 0.499609 0.246992 0.410683
213 1 0.834765 0.323634 0.323341
156 1 0.33009 0.0849434 0.419442
160 1 0.500225 0.0919031 0.41005
179 1 0.412943 0.166243 0.414294
195 1 0.0717937 0.322493 0.415143
164 1 0.659552 0.0761784 0.418124
183 1 0.582791 0.161736 0.416613
205 1 0.490085 0.330946 0.328174
162 1 0.738685 0.0738977 0.326068
157 1 0.493954 0.00229987 0.331033
197 1 0.158247 0.313432 0.354628
204 1 0.335398 0.416057 0.408564
166 1 0.917647 0.0549305 0.324617
192 1 0.829297 0.239612 0.410109
148 1 0.00201208 0.0869329 0.407763
168 1 0.837039 0.0697676 0.399758
169 1 0.988947 0.157671 0.331664
200 1 0.173304 0.427477 0.416475
196 1 0.00537076 0.419911 0.414826
170 1 0.0705384 0.234273 0.343859
172 1 0.988851 0.24378 0.417816
176 1 0.159672 0.215716 0.419455
199 1 0.255619 0.322318 0.412793
174 1 0.239328 0.250446 0.327285
186 1 0.752386 0.236017 0.330431
175 1 0.262587 0.179732 0.410489
180 1 0.327597 0.251714 0.418847
269 1 0.15913 0.328389 0.475267
7 1 0.241199 0.0165549 0.0666275
155 1 0.420169 0.0131292 0.407108
167 1 0.91893 0.00740602 0.421693
273 1 0.3337 0.34011 0.498751
250 1 0.43598 0.242772 0.490686
587 1 0.417001 0.495958 0.429656
266 1 0.0862912 0.410969 0.482194
85 1 0.507063 0.000540192 0.151839
42 1 0.756926 0.251418 0.00615655
13 1 0.492297 0.000897521 0.0139278
65 1 0.666473 0.334379 0.0089248
5 1 0.157321 0.00153415 0.0069932
153 1 0.325617 0.0260273 0.320834
2 1 0.0752253 0.0791958 0.0111354
443 1 0.412954 0.487617 0.0866794
159 1 0.570848 0.000840086 0.409768
527 1 0.924567 0.496195 0.240142
265 1 0.996938 0.326263 0.49693
511 1 0.244576 0.489252 0.241563
525 1 0.831918 0.493316 0.165527
6 1 0.248731 0.0887945 0.000941739
285 1 0.830097 0.330191 0.493059
34 1 0.432432 0.257078 0.0147865
282 1 0.76398 0.418071 0.493648
54 1 0.242663 0.397074 0.000429152
237 1 0.840073 0.00490903 0.499241
262 1 0.907509 0.244221 0.494729
61 1 0.514007 0.35038 0.000525827
49 1 0.99229 0.326299 0.00510734
22 1 0.912361 0.0710033 0.00674883
657 1 0.322829 0.489381 0.48581
37 1 0.503566 0.169248 0.00536605
220 1 0.00372453 0.0864057 0.58281
290 1 0.0918048 0.0821524 0.673125
224 1 0.166862 0.0766245 0.592543
247 1 0.252366 0.178796 0.592245
317 1 0.173122 0.163456 0.668135
321 1 0.339774 0.183688 0.67266
228 1 0.338056 0.101366 0.586683
251 1 0.418516 0.17257 0.579632
325 1 0.493366 0.162738 0.67163
232 1 0.503856 0.0833071 0.589703
255 1 0.587318 0.170306 0.595807
236 1 0.666321 0.0895192 0.598827
302 1 0.584763 0.0853836 0.674597
53 1 0.158467 0.333451 0.982995
809 1 0.68167 0.477442 0.831898
665 1 0.670654 0.495837 0.511588
259 1 0.754 0.163692 0.58429
333 1 0.839937 0.171116 0.671593
305 1 0.672099 0.00381452 0.674991
240 1 0.849759 0.0810159 0.591878
310 1 0.929254 0.0919948 0.665531
803 1 0.408084 0.491419 0.910523
30 1 0.249192 0.260998 0.995407
243 1 0.0748113 0.160568 0.583322
244 1 0.998906 0.245735 0.573253
314 1 0.0824207 0.243432 0.642233
301 1 0.498196 0.000586188 0.664716
807 1 0.599942 0.493693 0.908757
248 1 0.175517 0.258044 0.577898
318 1 0.247651 0.259935 0.660828
252 1 0.322619 0.264846 0.580683
271 1 0.251407 0.342498 0.574021
345 1 0.32188 0.345316 0.655244
239 1 0.920917 0.00491726 0.589887
275 1 0.408243 0.317758 0.572401
256 1 0.504693 0.247511 0.591428
309 1 0.844383 0.00810697 0.673172
322 1 0.420983 0.258931 0.657228
326 1 0.584881 0.240317 0.673015
260 1 0.680831 0.261849 0.590353
353 1 0.666245 0.337965 0.659308
369 1 0.327631 0.00769382 0.845968
357 1 0.836779 0.329121 0.650896
330 1 0.752556 0.245998 0.676011
263 1 0.916578 0.176256 0.587342
264 1 0.823676 0.245163 0.57304
287 1 0.914421 0.316297 0.571909
367 1 0.24956 0.00471364 0.924358
361 1 0.0130615 0.0155675 0.834607
222 1 0.258554 0.0893967 0.505148
311 1 0.930681 0.00883915 0.756667
267 1 0.101038 0.331009 0.573937
337 1 0.00137169 0.329606 0.64462
268 1 0.990258 0.416569 0.570287
725 1 0.164496 0.491318 0.66533
272 1 0.166317 0.423476 0.589953
342 1 0.242708 0.412932 0.66693
276 1 0.328583 0.428417 0.573116
45 1 0.825039 0.169483 0.997192
349 1 0.497921 0.33719 0.664668
46 1 0.900811 0.249847 0.994782
280 1 0.508638 0.415988 0.574977
346 1 0.407334 0.415849 0.642384
279 1 0.588054 0.321873 0.588439
350 1 0.57815 0.432237 0.667091
284 1 0.678862 0.409391 0.576247
299 1 0.411231 0.0183983 0.753205
283 1 0.761011 0.335221 0.574368
50 1 0.073296 0.406149 0.992292
354 1 0.747551 0.420583 0.664418
288 1 0.83188 0.42559 0.575729
358 1 0.914395 0.401683 0.647984
33 1 0.323013 0.189436 0.981349
430 1 0.907961 0.421736 0.827717
292 1 0.0147981 0.0773784 0.755047
315 1 0.0804042 0.181154 0.752258
733 1 0.495914 0.497486 0.656921
431 1 0.909339 0.330744 0.919177
373 1 0.510114 0.000383424 0.84039
294 1 0.252658 0.0868359 0.673444
432 1 0.833012 0.419702 0.917566
735 1 0.6014 0.497225 0.749902
296 1 0.188478 0.07346 0.758302
300 1 0.328927 0.0892973 0.758403
298 1 0.41693 0.0852778 0.665345
370 1 0.412494 0.0996022 0.838356
225 1 0.325198 0.0117656 0.50293
329 1 0.671418 0.182498 0.661669
304 1 0.503666 0.0749526 0.758274
327 1 0.581112 0.156589 0.749355
308 1 0.658725 0.0788442 0.756517
401 1 0.663621 0.172956 0.838873
397 1 0.508527 0.161171 0.835835
428 1 0.685757 0.411678 0.917201
414 1 0.23752 0.428334 0.820487
306 1 0.755767 0.0917906 0.663791
378 1 0.747441 0.0852727 0.828319
371 1 0.42182 0.0171902 0.902604
278 1 0.598586 0.419725 0.50621
312 1 0.842128 0.0797133 0.757584
335 1 0.919623 0.171311 0.745513
231 1 0.585851 3.10907e-05 0.593239
313 1 0.00954699 0.166853 0.672498
386 1 0.0648827 0.25279 0.832234
316 1 0.00184315 0.264106 0.735144
385 1 0.991701 0.165509 0.831556
319 1 0.253018 0.173776 0.73154
413 1 0.152747 0.32819 0.825518
320 1 0.17044 0.246056 0.736563
324 1 0.346298 0.265404 0.747094
323 1 0.417764 0.163196 0.746975
394 1 0.429134 0.237807 0.828421
347 1 0.418617 0.346997 0.740622
328 1 0.5188 0.247526 0.757072
351 1 0.581408 0.340108 0.735372
398 1 0.589376 0.245491 0.839818
331 1 0.738456 0.171594 0.758408
332 1 0.663727 0.269766 0.748823
425 1 0.669399 0.344064 0.835521
355 1 0.769746 0.335842 0.735508
402 1 0.736168 0.259067 0.823346
336 1 0.839177 0.240569 0.743001
334 1 0.912638 0.260473 0.670077
405 1 0.828339 0.167854 0.838326
406 1 0.920107 0.268061 0.822418
359 1 0.909865 0.339199 0.74332
429 1 0.828922 0.325551 0.820665
341 1 0.166626 0.330636 0.663938
338 1 0.0857583 0.40484 0.663798
339 1 0.075468 0.333689 0.742755
410 1 0.069499 0.422889 0.828814
344 1 0.164415 0.406442 0.742709
365 1 0.148105 0.0165516 0.845807
343 1 0.23921 0.333068 0.752266
417 1 0.324238 0.34876 0.821108
805 1 0.493443 0.497289 0.822421
651 1 0.0757967 0.489689 0.573146
348 1 0.327733 0.425742 0.74236
352 1 0.4998 0.422611 0.747748
356 1 0.677012 0.412647 0.742763
422 1 0.58605 0.417473 0.823078
426 1 0.767511 0.418265 0.823823
360 1 0.838278 0.418746 0.723402
297 1 0.338177 0.00348181 0.655244
340 1 0.986138 0.428535 0.751472
238 1 0.922251 0.0796134 0.502115
235 1 0.757977 0.00590595 0.595143
437 1 0.162145 0.47625 0.998338
362 1 0.0841291 0.104351 0.838408
368 1 0.156562 0.0825642 0.931688
416 1 0.171898 0.415532 0.896566
423 1 0.59351 0.346479 0.919998
366 1 0.248838 0.0830793 0.844966
389 1 0.175861 0.164122 0.810431
404 1 0.68083 0.261796 0.930414
229 1 0.499909 0.00723458 0.500044
420 1 0.316691 0.416605 0.913562
372 1 0.339925 0.0997795 0.91997
376 1 0.500269 0.0964371 0.922534
424 1 0.500467 0.421192 0.898098
374 1 0.579784 0.0822736 0.84543
399 1 0.599663 0.159704 0.927264
427 1 0.763563 0.331254 0.910278
380 1 0.671963 0.0703522 0.909805
57 1 0.34812 0.32476 0.991017
403 1 0.747719 0.168885 0.921954
412 1 0.99582 0.429199 0.917457
388 1 0.9909 0.24918 0.913765
418 1 0.416241 0.411843 0.823747
382 1 0.92615 0.0791134 0.831943
364 1 0.988772 0.0861944 0.920888
384 1 0.831354 0.0810493 0.919811
407 1 0.91163 0.175958 0.910004
409 1 0.991266 0.3526 0.831072
387 1 0.0712009 0.162183 0.922176
411 1 0.0836671 0.333611 0.905448
391 1 0.231361 0.161667 0.917693
392 1 0.152996 0.236977 0.918804
390 1 0.237459 0.250548 0.820342
396 1 0.344425 0.260052 0.894817
415 1 0.247937 0.333343 0.895718
408 1 0.821637 0.246355 0.911541
393 1 0.321202 0.180983 0.831044
395 1 0.422346 0.176098 0.942632
419 1 0.426069 0.332708 0.90737
421 1 0.496432 0.340092 0.818353
400 1 0.502586 0.25004 0.914656
295 1 0.258002 0.00128443 0.736725
227 1 0.413215 0.0032634 0.575659
254 1 0.579261 0.239821 0.50194
289 1 0.00731939 0.0102254 0.66713
218 1 0.0773165 0.0717669 0.502532
363 1 0.0772752 0.00854752 0.925824
381 1 0.836589 0.00704068 0.839563
721 1 0.999897 0.498187 0.658975
258 1 0.752983 0.241826 0.501308
274 1 0.42323 0.405884 0.504535
261 1 0.832956 0.146575 0.508057
653 1 0.164262 0.493465 0.504882
221 1 0.176414 0.011208 0.507367
10 1 0.415674 0.0675298 0.988501
453 1 0.832488 0.487578 0.996715
230 1 0.580513 0.0858608 0.514508
26 1 0.0651187 0.248494 0.996997
25 1 0.980937 0.162379 0.995398
257 1 0.661706 0.160085 0.508655
226 1 0.415718 0.0886036 0.504758
69 1 0.829606 0.333874 0.992408
249 1 0.32907 0.177232 0.518889
241 1 0.989329 0.167266 0.506191
245 1 0.170068 0.15302 0.523381
253 1 0.50205 0.16349 0.509311
70 1 0.904346 0.419594 0.996518
58 1 0.414511 0.403311 0.988567
281 1 0.65405 0.322919 0.505546
14 1 0.586444 0.0865427 0.996055
441 1 0.33838 0.479354 0.991827
18 1 0.747866 0.0707556 0.996876
242 1 0.0839817 0.240533 0.505222
234 1 0.757781 0.071231 0.512384
440 1 0.162017 0.56995 0.0777969
481 1 0.00780793 0.832716 0.00421978
646 1 0.920202 0.903891 0.326625
506 1 0.0882819 0.583683 0.177499
533 1 0.169963 0.675564 0.177831
510 1 0.245548 0.56975 0.16173
444 1 0.320564 0.566246 0.0915836
467 1 0.420952 0.665505 0.0884487
448 1 0.492297 0.571286 0.0772654
507 1 0.0908675 0.504459 0.244386
518 1 0.58807 0.590641 0.16557
577 1 0.0101346 0.50648 0.331303
644 1 0.66023 0.900997 0.415379
163 1 0.751796 0.988569 0.415133
648 1 0.838635 0.92668 0.419422
452 1 0.670159 0.577083 0.0880878
470 1 0.584374 0.747654 0.0021897
522 1 0.744658 0.57003 0.168857
436 1 0.00436328 0.582338 0.0874992
456 1 0.837795 0.584585 0.0891906
479 1 0.917603 0.665376 0.0883656
458 1 0.0900237 0.748303 0.0178622
459 1 0.0852021 0.655142 0.0833308
460 1 0.00408368 0.738135 0.10205
529 1 0.0130616 0.656409 0.171038
519 1 0.580628 0.505411 0.246905
464 1 0.175475 0.75929 0.102149
463 1 0.252367 0.664885 0.0857815
487 1 0.24839 0.844858 0.0839416
534 1 0.254247 0.745112 0.173872
468 1 0.345515 0.750195 0.0760606
472 1 0.502858 0.750444 0.0767213
505 1 0.999836 0.507128 0.166453
471 1 0.597279 0.661004 0.0823789
495 1 0.590839 0.816406 0.0753057
542 1 0.590125 0.732678 0.157361
476 1 0.667081 0.740159 0.0680273
475 1 0.755984 0.666138 0.0850734
91 1 0.747871 0.992545 0.234279
480 1 0.829585 0.73777 0.0858975
550 1 0.910129 0.737534 0.171125
549 1 0.838716 0.663138 0.178098
75 1 0.0890238 0.997362 0.247493
483 1 0.0905327 0.836165 0.0930963
488 1 0.170042 0.926912 0.0891111
557 1 0.164724 0.836587 0.184431
434 1 0.0696628 0.569688 0.00249079
558 1 0.245127 0.906651 0.163516
17 1 0.669422 0.992354 0.00443663
565 1 0.510015 0.831702 0.166758
492 1 0.339399 0.91006 0.0877913
491 1 0.423733 0.833963 0.0986302
561 1 0.330912 0.82548 0.16249
562 1 0.39677 0.919506 0.17491
496 1 0.504832 0.914245 0.0941504
566 1 0.57762 0.920369 0.170396
499 1 0.739525 0.82722 0.0933337
501 1 0.834292 0.819915 0.0134247
500 1 0.66969 0.9063 0.084948
504 1 0.837019 0.897347 0.0868156
438 1 0.253327 0.569145 0.0160625
484 1 0.00254688 0.928411 0.094427
503 1 0.92604 0.826674 0.0934004
553 1 0.00240179 0.835347 0.173701
574 1 0.910647 0.89844 0.171222
531 1 0.0858325 0.66614 0.259231
578 1 0.0969764 0.58942 0.339528
605 1 0.165097 0.675956 0.33504
512 1 0.181007 0.582809 0.253207
582 1 0.260663 0.587343 0.322558
516 1 0.324412 0.58088 0.231578
641 1 0.651673 0.838479 0.327589
514 1 0.4099 0.595862 0.166764
586 1 0.438324 0.587884 0.335145
638 1 0.581767 0.924249 0.338546
520 1 0.505289 0.590988 0.234323
541 1 0.510311 0.662052 0.152757
524 1 0.673907 0.572845 0.247998
81 1 0.319333 0.99472 0.15649
594 1 0.737177 0.582646 0.334363
547 1 0.75776 0.677728 0.254013
1 1 0.00197207 0.992767 0.0133471
526 1 0.925153 0.595052 0.171853
508 1 0.995681 0.590134 0.265489
528 1 0.842344 0.568971 0.252283
598 1 0.904263 0.575831 0.338911
601 1 0.00740578 0.660602 0.345618
530 1 0.0891275 0.761909 0.173098
536 1 0.177421 0.748911 0.248492
532 1 0.0104643 0.746845 0.240313
602 1 0.092764 0.758191 0.33728
629 1 0.179263 0.827202 0.32671
537 1 0.322523 0.662472 0.166524
535 1 0.253937 0.665501 0.255231
540 1 0.340076 0.748349 0.245954
559 1 0.253905 0.840572 0.249073
633 1 0.331249 0.841591 0.328517
538 1 0.423155 0.743601 0.165983
539 1 0.417011 0.671244 0.249568
613 1 0.495267 0.682542 0.32899
610 1 0.415707 0.760862 0.338037
544 1 0.498643 0.751776 0.242585
543 1 0.594851 0.655689 0.252363
545 1 0.676765 0.6687 0.18006
567 1 0.578971 0.8368 0.244632
645 1 0.830232 0.838518 0.343281
548 1 0.661479 0.741232 0.246893
546 1 0.766959 0.744321 0.170238
552 1 0.832812 0.747567 0.256347
573 1 0.840006 0.81619 0.163477
625 1 0.994251 0.830255 0.358994
621 1 0.830493 0.665868 0.337973
551 1 0.919548 0.670318 0.261743
622 1 0.914824 0.749181 0.339776
575 1 0.916445 0.820081 0.260851
554 1 0.0881042 0.922142 0.17038
555 1 0.0837861 0.838448 0.257352
626 1 0.0896965 0.913362 0.336117
560 1 0.172403 0.920444 0.253577
564 1 0.323369 0.935537 0.247483
630 1 0.237638 0.918319 0.329622
635 1 0.412663 0.853989 0.407273
563 1 0.411692 0.842205 0.256291
634 1 0.400941 0.935249 0.319834
640 1 0.493358 0.924043 0.423232
568 1 0.493305 0.927754 0.242217
572 1 0.656222 0.918497 0.244485
569 1 0.663213 0.826388 0.170443
11 1 0.419005 0.996884 0.0889686
570 1 0.753003 0.900496 0.173189
571 1 0.748703 0.827286 0.2529
642 1 0.738722 0.915475 0.329899
556 1 0.00200148 0.91452 0.257964
576 1 0.833693 0.901889 0.247553
706 1 0.406283 0.939771 0.484957
599 1 0.914087 0.50253 0.413159
3 1 0.0883645 0.998708 0.0973132
23 1 0.915674 0.998017 0.0893211
584 1 0.177746 0.58179 0.416015
603 1 0.0803798 0.652935 0.426201
580 1 0.990482 0.580627 0.408427
497 1 0.674454 0.830347 0.00946517
609 1 0.342819 0.658646 0.325476
607 1 0.244735 0.674647 0.405977
588 1 0.325972 0.583458 0.423037
433 1 0.979188 0.508745 0.00655201
632 1 0.164712 0.916273 0.424981
611 1 0.423243 0.673265 0.414404
592 1 0.494241 0.576509 0.413557
658 1 0.407967 0.582432 0.494408
709 1 0.491163 0.829959 0.495745
493 1 0.505336 0.838202 0.00322602
485 1 0.163726 0.833373 0.0100481
590 1 0.574059 0.593265 0.321103
615 1 0.58318 0.67002 0.407654
165 1 0.804445 0.994289 0.324153
596 1 0.663585 0.577442 0.420967
600 1 0.815346 0.590917 0.418707
623 1 0.911709 0.670198 0.417187
498 1 0.748842 0.904196 0.00630045
627 1 0.0879665 0.836103 0.421262
673 1 0.00393177 0.646613 0.49864
631 1 0.241596 0.842033 0.421961
608 1 0.168357 0.745461 0.42643
606 1 0.249074 0.758339 0.349168
612 1 0.334844 0.738589 0.404104
689 1 0.668247 0.683225 0.499291
678 1 0.264166 0.746854 0.497354
637 1 0.502512 0.847754 0.339344
614 1 0.582862 0.768056 0.327925
639 1 0.575059 0.831476 0.425404
616 1 0.491743 0.762042 0.409859
581 1 0.180793 0.504404 0.327053
628 1 0.987113 0.915615 0.421532
620 1 0.657503 0.759915 0.420386
643 1 0.755618 0.857679 0.419245
617 1 0.652294 0.668763 0.335118
618 1 0.723941 0.762855 0.342776
619 1 0.727552 0.675242 0.406302
647 1 0.909597 0.827591 0.442758
624 1 0.821358 0.748425 0.408698
604 1 0.000978111 0.743769 0.41075
636 1 0.324952 0.932247 0.408994
705 1 0.329936 0.849076 0.491519
681 1 0.333558 0.673018 0.493971
482 1 0.0796341 0.916013 0.00894253
502 1 0.9145 0.919968 0.00760515
465 1 0.331872 0.659415 0.00237378
685 1 0.498457 0.666156 0.491564
77 1 0.174804 0.995621 0.168087
461 1 0.174629 0.673095 0.0152848
15 1 0.591402 0.986084 0.0768876
93 1 0.830959 0.985797 0.154821
145 1 0.0199012 0.994864 0.341189
682 1 0.404562 0.764076 0.483126
95 1 0.894937 0.988059 0.247732
435 1 0.082124 0.5023 0.0823894
597 1 0.819675 0.509035 0.345998
19 1 0.742112 0.984986 0.0890332
515 1 0.420163 0.51205 0.252914
89 1 0.663694 0.977569 0.161717
591 1 0.581357 0.500362 0.421662
73 1 0.988746 0.993893 0.180777
446 1 0.578512 0.57737 0.00914866
486 1 0.24379 0.91682 0.00540124
469 1 0.503834 0.667432 0.0160581
490 1 0.426803 0.901126 0.0105428
686 1 0.585753 0.752191 0.491538
690 1 0.750227 0.755844 0.48984
462 1 0.262446 0.756365 0.0106505
477 1 0.83576 0.669561 0.0119513
662 1 0.586589 0.586111 0.496955
478 1 0.934962 0.74548 0.00901143
450 1 0.759389 0.578205 0.0113831
693 1 0.818851 0.66833 0.490857
710 1 0.583647 0.92426 0.499318
9 1 0.330585 0.987666 0.00999757
21 1 0.824797 0.992745 0.00784303
656 1 0.180402 0.582766 0.58659
722 1 0.0852234 0.589794 0.670484
723 1 0.064107 0.503998 0.745155
801 1 0.328498 0.509288 0.837486
799 1 0.256586 0.519857 0.922143
698 1 0.0902662 0.936411 0.506876
679 1 0.257092 0.680319 0.590716
661 1 0.499639 0.50485 0.502535
844 1 0.993878 0.921813 0.912175
660 1 0.331913 0.588148 0.581031
664 1 0.497474 0.593023 0.571123
795 1 0.0747719 0.514862 0.908999
694 1 0.894468 0.735486 0.514467
655 1 0.246807 0.504988 0.581191
863 1 0.920768 0.832933 0.902502
797 1 0.152855 0.51438 0.829263
815 1 0.894405 0.509895 0.903445
668 1 0.655978 0.590354 0.571765
691 1 0.747166 0.668115 0.575244
738 1 0.742779 0.599587 0.645401
667 1 0.748315 0.50205 0.585838
489 1 0.349287 0.835191 0.998541
672 1 0.828705 0.574781 0.573126
652 1 0.0108643 0.566404 0.576769
713 1 0.669765 0.841087 0.510592
675 1 0.0833719 0.676039 0.591126
676 1 0.989228 0.74092 0.572772
699 1 0.0882354 0.840497 0.59655
793 1 0.986491 0.50607 0.840081
680 1 0.175793 0.756385 0.57739
703 1 0.264285 0.826173 0.570943
750 1 0.257289 0.760445 0.674686
773 1 0.176523 0.846489 0.682934
743 1 0.913032 0.505452 0.754949
684 1 0.346593 0.749043 0.586047
683 1 0.426157 0.665856 0.566973
688 1 0.496105 0.746019 0.573515
654 1 0.256944 0.586255 0.506135
687 1 0.583823 0.672044 0.582754
692 1 0.670703 0.753256 0.578866
758 1 0.580541 0.743096 0.657857
715 1 0.741192 0.838753 0.588511
697 1 0.998571 0.840168 0.506276
695 1 0.880245 0.664027 0.590424
696 1 0.81332 0.753767 0.591516
765 1 0.816654 0.687668 0.678553
766 1 0.911777 0.75475 0.660833
663 1 0.58277 0.503953 0.578884
375 1 0.552837 0.98314 0.931738
770 1 0.0755777 0.926974 0.673014
700 1 0.99962 0.920023 0.588308
769 1 0.989887 0.837874 0.661294
704 1 0.164553 0.914247 0.588359
708 1 0.339517 0.927337 0.579758
718 1 0.915241 0.91394 0.501445
379 1 0.763075 0.99871 0.912214
650 1 0.0944613 0.583349 0.502716
707 1 0.41973 0.850333 0.583985
293 1 0.163815 0.989186 0.679161
303 1 0.589812 0.993992 0.762098
860 1 0.687387 0.911981 0.920094
711 1 0.586082 0.825924 0.585094
712 1 0.511859 0.920452 0.58186
864 1 0.841588 0.909007 0.910753
716 1 0.655925 0.914978 0.599211
223 1 0.24963 0.99856 0.591802
834 1 0.757177 0.741895 0.836587
719 1 0.909669 0.822539 0.582091
720 1 0.835221 0.939745 0.584187
790 1 0.915529 0.91296 0.669885
789 1 0.823573 0.826319 0.680646
674 1 0.085036 0.764961 0.509769
813 1 0.830142 0.507177 0.82671
737 1 0.663882 0.504857 0.660249
820 1 0.0194133 0.752132 0.915667
728 1 0.167999 0.587663 0.746413
726 1 0.259791 0.584322 0.664172
732 1 0.341709 0.58576 0.743479
855 1 0.581179 0.829398 0.925389
730 1 0.428474 0.600285 0.665786
755 1 0.419816 0.661711 0.758262
802 1 0.42549 0.578118 0.836825
837 1 0.828195 0.668786 0.838803
734 1 0.583895 0.587334 0.660698
736 1 0.501933 0.573773 0.739341
759 1 0.59266 0.665515 0.754588
829 1 0.515161 0.655268 0.835069
729 1 0.328291 0.510257 0.656594
853 1 0.514414 0.828137 0.836286
854 1 0.575398 0.920003 0.846681
740 1 0.680994 0.584262 0.750264
742 1 0.930457 0.576278 0.658616
744 1 0.823531 0.590506 0.746181
724 1 0.998503 0.591019 0.749319
745 1 0.00187137 0.662761 0.654557
746 1 0.0877065 0.757668 0.662546
747 1 0.093739 0.671959 0.750682
748 1 0.999686 0.741316 0.741452
752 1 0.180514 0.750811 0.750818
749 1 0.158759 0.676224 0.674429
751 1 0.252925 0.661602 0.739428
775 1 0.259241 0.860628 0.763637
756 1 0.340062 0.745463 0.764973
753 1 0.338406 0.668695 0.666803
754 1 0.423796 0.740055 0.668231
826 1 0.430627 0.741496 0.833873
777 1 0.35538 0.831238 0.682422
779 1 0.41106 0.830924 0.775487
825 1 0.328003 0.665808 0.825973
761 1 0.665087 0.66534 0.66708
757 1 0.517417 0.66489 0.663164
760 1 0.516775 0.743767 0.755005
764 1 0.667354 0.743302 0.755573
785 1 0.665509 0.831591 0.673285
830 1 0.592978 0.747627 0.847965
762 1 0.739364 0.754107 0.667798
763 1 0.743991 0.674414 0.757438
787 1 0.74256 0.825512 0.76183
767 1 0.913826 0.65692 0.744176
768 1 0.837764 0.755591 0.758953
838 1 0.920514 0.745777 0.83757
791 1 0.91757 0.830234 0.756057
861 1 0.830054 0.840649 0.835186
771 1 0.090221 0.852813 0.752932
772 1 0.997805 0.910761 0.758025
839 1 0.925663 0.67419 0.924517
776 1 0.179632 0.922548 0.789263
774 1 0.252785 0.912404 0.656559
846 1 0.254901 0.912873 0.855894
780 1 0.352861 0.921521 0.762964
778 1 0.408752 0.919516 0.671381
784 1 0.502958 0.933886 0.755879
731 1 0.40702 0.501381 0.723098
781 1 0.50729 0.837638 0.664202
783 1 0.587886 0.832951 0.759301
782 1 0.589425 0.925646 0.682401
857 1 0.674483 0.82658 0.845872
786 1 0.748684 0.908196 0.6679
788 1 0.681355 0.913896 0.759325
858 1 0.765482 0.921785 0.841767
739 1 0.744279 0.507936 0.726967
862 1 0.920773 0.919887 0.83296
841 1 0.0151525 0.811367 0.82214
792 1 0.844852 0.920789 0.751938
835 1 0.743764 0.664181 0.906614
850 1 0.42301 0.92459 0.84157
741 1 0.834962 0.508079 0.662711
794 1 0.0918106 0.598613 0.832993
800 1 0.171251 0.579571 0.949001
798 1 0.246807 0.585907 0.824922
804 1 0.332561 0.601879 0.907345
821 1 0.183238 0.669298 0.838971
823 1 0.251978 0.677603 0.931618
847 1 0.24798 0.825329 0.934272
827 1 0.429858 0.662881 0.924231
856 1 0.484857 0.904846 0.920564
848 1 0.158669 0.91931 0.92431
806 1 0.578129 0.567724 0.836023
808 1 0.504655 0.576682 0.92812
812 1 0.65901 0.581093 0.914788
833 1 0.663965 0.660883 0.836159
810 1 0.742228 0.590097 0.834316
816 1 0.831659 0.594972 0.914048
727 1 0.24497 0.505377 0.742238
814 1 0.919993 0.604671 0.83955
796 1 0.988201 0.584226 0.913665
852 1 0.349067 0.922092 0.926782
817 1 0.0146082 0.667812 0.831187
818 1 0.0895933 0.737673 0.832901
819 1 0.0821535 0.658159 0.916194
824 1 0.173211 0.747662 0.922629
849 1 0.327602 0.832431 0.847324
822 1 0.253661 0.748445 0.832441
845 1 0.168041 0.83029 0.840183
843 1 0.0953092 0.838186 0.916104
851 1 0.417862 0.832271 0.909007
828 1 0.347266 0.744352 0.910294
832 1 0.508414 0.748828 0.91747
842 1 0.0874769 0.926767 0.846887
836 1 0.672553 0.745099 0.928334
831 1 0.573573 0.658049 0.926398
701 1 0.160498 0.838636 0.505193
840 1 0.839736 0.751499 0.91003
859 1 0.770723 0.828275 0.930758
383 1 0.92011 0.99978 0.928369
671 1 0.912634 0.50011 0.590823
219 1 0.0912256 0.993408 0.602362
291 1 0.0866169 0.997441 0.752767
377 1 0.671383 0.99913 0.830229
659 1 0.409119 0.505597 0.559722
233 1 0.662266 0.999984 0.501684
307 1 0.766214 0.999536 0.743726
811 1 0.760207 0.510117 0.910684
714 1 0.744768 0.934268 0.509632
449 1 0.66407 0.505886 0.99594
670 1 0.91147 0.58416 0.501365
473 1 0.681309 0.656275 0.994399
466 1 0.420677 0.745995 0.994639
454 1 0.907753 0.590368 0.998468
457 1 0.00397519 0.656835 0.992217
666 1 0.747967 0.565503 0.506985
217 1 0.987856 0.999901 0.500059
494 1 0.591589 0.908707 0.996854
677 1 0.164999 0.663488 0.504516
474 1 0.762377 0.742563 0.998385
442 1 0.40298 0.585157 0.999158
702 1 0.246712 0.916749 0.510506
717 1 0.821171 0.849768 0.507895
