ITEM: TIMESTEP
34800
ITEM: NUMBER OF ATOMS
864
ITEM: BOX BOUNDS pp pp pp
0.0000000000000000e+00 3.1559999999999999e+01
0.0000000000000000e+00 3.1559999999999999e+01
0.0000000000000000e+00 3.1559999999999999e+01
ITEM: ATOMS id type xs ys zs
27 1 0.0624303 0.172493 0.0758568
8 1 0.150118 0.0948739 0.0775301
74 1 0.0828579 0.0823131 0.155986
101 1 0.1821 0.156351 0.164368
145 1 -0.00206559 0.0021737 0.33744
155 1 0.425125 -0.00847943 0.41666
215 1 0.899489 0.318086 0.415289
12 1 0.327626 0.0787186 0.0967145
216 1 0.829867 0.425063 0.417004
78 1 0.253354 0.0764142 0.172736
214 1 0.908583 0.41015 0.353577
277 1 0.516165 0.320296 0.492616
35 1 0.411707 0.171461 0.0841263
82 1 0.418879 0.0883457 0.171379
513 1 0.33533 0.495251 0.166565
517 1 0.486231 0.496999 0.171281
16 1 0.497596 0.0907148 0.105001
20 1 0.663403 0.0982164 0.0755613
39 1 0.58764 0.176266 0.0904867
113 1 0.670855 0.187183 0.175237
218 1 0.0936973 0.0839196 0.493636
439 1 0.24225 0.496063 0.0989336
24 1 0.818822 0.0843962 0.090094
43 1 0.735203 0.17608 0.0853846
45 1 0.832807 0.164178 -0.0025403
254 1 0.599923 0.247031 0.501011
4 1 0.988239 0.0924912 0.0821709
47 1 0.905397 0.165563 0.0847137
94 1 0.904491 0.0748782 0.152437
97 1 0.994254 0.181279 0.178375
117 1 0.830928 0.167118 0.169439
587 1 0.414161 0.492144 0.418375
98 1 0.0915326 0.222882 0.167753
32 1 0.165232 0.233715 0.0878552
51 1 0.0790716 0.318921 0.0853959
125 1 0.159932 0.335396 0.150686
451 1 0.743824 0.497645 0.0638479
281 1 0.679137 0.330383 0.489647
31 1 0.23791 0.165583 0.0725145
129 1 0.324994 0.329904 0.159804
55 1 0.260247 0.340052 0.0659578
36 1 0.31442 0.241442 0.086553
106 1 0.412563 0.229617 0.169836
59 1 0.404037 0.320298 0.0877491
40 1 0.494655 0.237882 0.0952435
44 1 0.671636 0.257909 0.0666664
661 1 0.524887 0.495964 0.490601
63 1 0.580029 0.340194 0.0773777
10 1 0.417505 0.0852755 0.00722563
67 1 0.745763 0.340453 0.089101
114 1 0.750819 0.265938 0.172272
17 1 0.676222 0.000905878 0.00230881
28 1 0.982711 0.258706 0.0891716
48 1 0.820781 0.259459 0.0823178
118 1 0.910832 0.253451 0.173532
37 1 0.510133 0.157299 0.00883901
52 1 0.00241367 0.419591 0.0793613
56 1 0.160397 0.413581 0.0622589
210 1 0.742297 0.427687 0.340855
203 1 0.423124 0.335377 0.425089
525 1 0.826074 0.494177 0.167006
60 1 0.333026 0.417257 0.0830719
89 1 0.67695 0.00068629 0.171024
161 1 0.676241 -0.00184666 0.341805
77 1 0.155275 0.0166729 0.187204
278 1 0.587111 0.406788 0.489418
133 1 0.484304 0.344867 0.151986
447 1 0.590926 0.492536 0.0805568
209 1 0.660075 0.337945 0.321327
64 1 0.498585 0.431097 0.0830198
585 1 0.331029 0.487763 0.336674
196 1 0.998517 0.40255 0.41695
212 1 0.676064 0.429277 0.416213
95 1 0.915569 0.00487366 0.236753
68 1 0.66884 0.416744 0.0839629
138 1 0.755681 0.421258 0.16281
141 1 0.822701 0.3413 0.170274
71 1 0.912444 0.341086 0.080309
72 1 0.829115 0.418673 0.0821451
142 1 0.910936 0.421234 0.171452
455 1 0.914517 0.491173 0.0943522
76 1 1.00206 0.0854153 0.236558
99 1 0.0794781 0.163844 0.246959
80 1 0.174698 0.0966923 0.251281
173 1 0.160346 0.161754 0.340836
103 1 0.254501 0.175457 0.257272
211 1 0.758119 0.340504 0.405042
105 1 0.330259 0.165702 0.172016
84 1 0.327905 0.0790119 0.24956
107 1 0.416304 0.1638 0.250008
109 1 0.505178 0.165522 0.181334
88 1 0.50449 0.0700526 0.246863
86 1 0.58913 0.078624 0.174057
181 1 0.508539 0.167759 0.338413
61 1 0.496252 0.334884 0.0102198
90 1 0.747066 0.0911338 0.174471
185 1 0.664201 0.161129 0.336864
92 1 0.676029 0.0887265 0.25391
115 1 0.747033 0.16769 0.255228
162 1 0.754807 0.078251 0.339319
96 1 0.825609 0.0782642 0.265314
119 1 0.901154 0.158701 0.252574
169 1 0.982652 0.167185 0.330565
104 1 0.167504 0.257071 0.245085
170 1 0.0831699 0.237968 0.321819
102 1 0.243593 0.241158 0.164727
127 1 0.252737 0.33427 0.264666
197 1 0.167368 0.329786 0.340701
201 1 0.323632 0.324035 0.335619
174 1 0.246158 0.248576 0.346966
108 1 0.343766 0.238063 0.248062
131 1 0.413203 0.321986 0.239889
111 1 0.587746 0.15967 0.253954
112 1 0.503746 0.251147 0.248836
110 1 0.569699 0.247795 0.163901
116 1 0.66553 0.257758 0.256158
205 1 0.502894 0.336717 0.336698
186 1 0.747053 0.248518 0.3297
139 1 0.737708 0.343397 0.256807
121 1 0.995383 0.340676 0.167166
100 1 0.989115 0.261229 0.252526
120 1 0.824471 0.253122 0.253707
143 1 0.91074 0.352907 0.253884
62 1 0.579768 0.4133 -0.00317105
123 1 0.0758507 0.326028 0.241432
122 1 0.0843183 0.41237 0.169438
128 1 0.157293 0.398052 0.261981
194 1 0.090001 0.404711 0.337131
126 1 0.232068 0.417051 0.174148
132 1 0.321697 0.423182 0.247838
130 1 0.409285 0.42176 0.179501
202 1 0.403328 0.409937 0.320345
134 1 0.593643 0.422728 0.155432
7 1 0.211923 0.00496503 0.093875
135 1 0.581933 0.337564 0.238661
136 1 0.501688 0.420383 0.245555
213 1 0.825862 0.333057 0.32439
207 1 0.589806 0.332056 0.40538
137 1 0.656767 0.323991 0.166413
140 1 0.657363 0.442496 0.250377
144 1 0.82416 0.427664 0.259264
124 1 0.0106965 0.42576 0.254288
208 1 0.503129 0.419053 0.417232
167 1 0.928118 0.00695042 0.42758
146 1 0.0875254 0.0873517 0.342723
152 1 0.17376 0.0945134 0.415652
148 1 1.00056 0.102375 0.414255
171 1 0.0778831 0.169555 0.42091
204 1 0.343431 0.405093 0.425514
192 1 0.825373 0.246493 0.415452
150 1 0.259471 0.089685 0.33941
190 1 0.919078 0.254787 0.334872
156 1 0.336199 0.0835477 0.418788
175 1 0.263891 0.162948 0.426422
206 1 0.581971 0.416999 0.332107
19 1 0.75339 0.000717021 0.0924648
154 1 0.412765 0.0774948 0.339227
177 1 0.341056 0.165136 0.335219
179 1 0.423949 0.165088 0.418435
188 1 0.675434 0.252952 0.410897
158 1 0.582655 0.080185 0.323877
160 1 0.506943 0.0856504 0.406384
164 1 0.667646 0.0801724 0.418351
168 1 0.837093 0.0859681 0.420196
599 1 0.913614 0.490873 0.42561
191 1 0.902707 0.175396 0.409012
189 1 0.823871 0.163775 0.336464
166 1 0.907941 0.072218 0.340004
241 1 0.998875 0.175914 0.490795
25 1 0.983643 0.173878 0.00392633
200 1 0.154095 0.423434 0.426191
193 1 0.984908 0.344188 0.3275
172 1 0.994779 0.250143 0.416578
198 1 0.226883 0.422077 0.331841
195 1 0.0811082 0.311909 0.397651
176 1 0.167207 0.235077 0.417612
199 1 0.247934 0.350948 0.413776
151 1 0.259623 0.0015491 0.425941
577 1 0.0173889 0.48884 0.345788
178 1 0.412614 0.255839 0.344598
180 1 0.335878 0.242812 0.425825
187 1 0.74543 0.155847 0.41169
183 1 0.595528 0.173882 0.421326
182 1 0.578035 0.257309 0.323915
184 1 0.504929 0.25301 0.404222
22 1 0.909679 0.0844265 0.0199285
505 1 0.990184 0.498746 0.170285
265 1 0.983589 0.337551 0.496919
2 1 0.0692802 0.0727132 0.0101039
583 1 0.258711 0.483043 0.419655
13 1 0.492386 0.0162697 -0.00332394
9 1 0.325356 0.0167752 0.00557953
81 1 0.330576 0.00704016 0.16812
73 1 0.997324 -0.00386064 0.156451
69 1 0.823341 0.342548 0.00691243
79 1 0.236171 0.00237532 0.26983
258 1 0.756193 0.240934 0.49995
15 1 0.586685 -0.00257862 0.0860199
269 1 0.175868 0.324512 0.478255
153 1 0.333768 0.00372079 0.33368
285 1 0.823213 0.329914 0.506334
238 1 0.913471 0.103784 0.49274
653 1 0.180828 0.502598 0.494894
262 1 0.902426 0.247989 0.496157
34 1 0.415596 0.251529 0.00568596
257 1 0.668273 0.167682 0.499304
282 1 0.749539 0.427651 0.492335
38 1 0.561545 0.252705 0.00447611
286 1 0.913781 0.410613 0.500618
250 1 0.422305 0.251746 0.488588
70 1 0.921007 0.424481 0.00411352
229 1 0.508472 0.0105572 0.496057
273 1 0.324629 0.33375 0.494322
33 1 0.331613 0.170059 0.00826316
226 1 0.425582 0.079928 0.494467
50 1 0.0685261 0.399047 -0.00725914
224 1 0.156652 0.0930839 0.588955
243 1 0.0669069 0.174897 0.572454
367 1 0.254182 0.00548689 0.924882
274 1 0.422119 0.404166 0.500842
797 1 0.168975 0.491722 0.835056
294 1 0.248824 0.0853583 0.666822
449 1 0.661059 0.501224 0.993776
365 1 0.18987 0.0228531 0.831223
228 1 0.330853 0.0819969 0.570906
232 1 0.497829 0.0829386 0.592351
251 1 0.427055 0.16648 0.589586
430 1 0.91482 0.412942 0.836439
293 1 0.163876 0.00863334 0.658694
302 1 0.590934 0.0865228 0.677604
234 1 0.751528 0.0661594 0.506906
219 1 0.075431 0.0147339 0.579072
236 1 0.668862 0.0814956 0.586562
432 1 0.828617 0.42422 0.9296
306 1 0.752424 0.0794332 0.680981
246 1 0.253463 0.241281 0.501345
220 1 0.992852 0.098324 0.574939
240 1 0.823406 0.0806973 0.588982
222 1 0.234701 0.0807113 0.503032
248 1 0.152429 0.240547 0.585891
267 1 0.0753868 0.343611 0.581994
244 1 0.986873 0.249899 0.581169
671 1 0.912746 0.495025 0.577383
321 1 0.328111 0.167416 0.651138
247 1 0.233055 0.16396 0.580451
271 1 0.253198 0.321403 0.581051
252 1 0.347813 0.255274 0.583241
322 1 0.427386 0.255849 0.666554
651 1 0.0975309 0.50047 0.57207
325 1 0.508844 0.164873 0.667729
255 1 0.592755 0.166632 0.582262
256 1 0.494732 0.256996 0.573898
326 1 0.591401 0.23635 0.662321
259 1 0.748561 0.170611 0.579006
333 1 0.829644 0.173193 0.663373
260 1 0.677015 0.262608 0.572845
264 1 0.827876 0.254612 0.586948
329 1 0.675143 0.164945 0.661407
441 1 0.331881 0.493914 0.995665
263 1 0.912952 0.179093 0.579902
363 1 0.0662611 0.00244529 0.923985
338 1 0.0762003 0.41378 0.673475
268 1 0.984591 0.409511 0.581009
272 1 0.165442 0.406066 0.581858
412 1 0.991001 0.420792 0.927217
743 1 0.922215 0.4972 0.736412
26 1 0.0837815 0.239054 0.990592
425 1 0.670149 0.324504 0.830668
275 1 0.416829 0.33221 0.58096
276 1 0.344447 0.416043 0.574192
345 1 0.335782 0.333471 0.6635
346 1 0.419615 0.417022 0.655466
427 1 0.750381 0.328729 0.913152
280 1 0.496244 0.40805 0.570843
279 1 0.5904 0.331574 0.574012
284 1 0.661377 0.421326 0.57691
349 1 0.512976 0.325113 0.660868
799 1 0.25358 0.479832 0.900334
283 1 0.748617 0.33653 0.580328
288 1 0.816228 0.42654 0.583104
354 1 0.736271 0.42534 0.66775
801 1 0.345479 0.475174 0.834744
287 1 0.913276 0.333853 0.578274
358 1 0.903438 0.421253 0.655258
30 1 0.245673 0.246961 1.00078
21 1 0.839466 0.00602485 1.00903
290 1 0.0753213 0.0883196 0.659384
317 1 0.145515 0.169411 0.661521
362 1 0.0922603 0.0741749 0.835876
315 1 0.0791709 0.156348 0.749778
227 1 0.425994 -0.00112079 0.577297
296 1 0.168725 0.0855061 0.741529
300 1 0.347411 0.113195 0.747034
319 1 0.24758 0.168125 0.742652
46 1 0.907457 0.249103 0.999041
298 1 0.425298 0.0913937 0.667732
370 1 0.427813 0.0815731 0.831981
304 1 0.498184 0.0749692 0.748575
369 1 0.341817 0.0131982 0.834548
735 1 0.580946 0.503971 0.757892
327 1 0.59177 0.158342 0.744877
397 1 0.503142 0.157957 0.830682
374 1 0.580234 0.0789048 0.834308
407 1 0.907498 0.163301 0.918535
371 1 0.40948 0.0143707 0.923275
308 1 0.676509 0.090896 0.748976
378 1 0.763976 0.084678 0.830947
312 1 0.83677 0.0874085 0.740146
410 1 0.0853175 0.410162 0.843742
431 1 0.8986 0.350791 0.925879
310 1 0.902508 0.0979594 0.648336
292 1 0.991942 0.0799318 0.734063
405 1 0.833695 0.164846 0.827973
409 1 0.00061219 0.338654 0.844084
382 1 0.906449 0.0797224 0.827046
424 1 0.50711 0.407649 0.908271
337 1 0.986637 0.334167 0.677596
313 1 0.994829 0.175908 0.676697
314 1 0.074631 0.242497 0.666804
320 1 0.156944 0.237675 0.763863
318 1 0.235003 0.232862 0.659527
341 1 0.149352 0.334746 0.660795
390 1 0.250691 0.246722 0.81543
324 1 0.342573 0.252243 0.740164
323 1 0.434846 0.180118 0.746721
347 1 0.431913 0.330672 0.742912
328 1 0.519145 0.23894 0.740957
332 1 0.657996 0.248791 0.763228
351 1 0.589919 0.341254 0.745623
330 1 0.74335 0.25156 0.67203
331 1 0.743976 0.169999 0.757344
355 1 0.73552 0.329634 0.746277
429 1 0.842028 0.325539 0.835502
316 1 0.982638 0.259057 0.763694
335 1 0.902639 0.172774 0.754298
334 1 0.913357 0.256538 0.66313
336 1 0.825669 0.258272 0.751245
406 1 0.911674 0.243749 0.843556
423 1 0.580912 0.324024 0.917306
339 1 0.0783666 0.328833 0.749618
428 1 0.676954 0.426086 0.903423
342 1 0.251792 0.41601 0.659934
803 1 0.40984 0.494051 0.913256
343 1 0.236807 0.322819 0.731002
344 1 0.174113 0.408131 0.753473
414 1 0.24568 0.396927 0.826724
348 1 0.332699 0.414088 0.735912
793 1 0.00667039 0.492741 0.840677
353 1 0.668068 0.342808 0.651833
422 1 0.600943 0.414461 0.840957
352 1 0.512656 0.425853 0.728311
350 1 0.5832 0.417354 0.651942
356 1 0.669329 0.422568 0.765311
426 1 0.775992 0.402872 0.83066
360 1 0.837495 0.435291 0.748394
357 1 0.81726 0.342772 0.678651
340 1 0.995243 0.410037 0.759094
359 1 0.901446 0.341201 0.743859
418 1 0.425273 0.399828 0.847558
368 1 0.158125 0.0781574 0.929546
387 1 0.0757334 0.154119 0.90354
420 1 0.330043 0.400205 0.908115
373 1 0.508047 0.0054153 0.844329
388 1 0.993351 0.246463 0.915394
366 1 0.264201 0.105784 0.826362
291 1 0.0867702 0.0140848 0.735105
415 1 0.250166 0.318332 0.906546
372 1 0.327498 0.0946502 0.914361
376 1 0.506308 0.0931553 0.916371
393 1 0.351787 0.178907 0.832277
416 1 0.178074 0.416361 0.919855
399 1 0.589984 0.157816 0.916127
401 1 0.672954 0.163152 0.834161
380 1 0.675473 0.0847494 0.914538
384 1 0.845345 0.0841644 0.923122
403 1 0.753092 0.168717 0.907025
297 1 0.345096 0.00415377 0.663559
364 1 0.98224 0.0910793 0.911225
385 1 0.991318 0.149333 0.823568
402 1 0.754442 0.252351 0.833299
386 1 0.0679827 0.253682 0.832519
392 1 0.172644 0.24078 0.884869
411 1 0.0815093 0.318941 0.920556
391 1 0.255887 0.169434 0.916949
389 1 0.169838 0.14661 0.839777
413 1 0.154458 0.32728 0.832689
408 1 0.834578 0.241384 0.913919
394 1 0.430698 0.263515 0.826477
417 1 0.336877 0.33303 0.818511
419 1 0.42651 0.324923 0.928114
395 1 0.412065 0.155569 0.917814
396 1 0.349011 0.238849 0.926783
29 1 0.163207 0.164248 0.99064
663 1 0.576543 0.490098 0.58076
727 1 0.254589 0.493803 0.776139
421 1 0.518755 0.338622 0.830975
400 1 0.495691 0.234031 0.92462
398 1 0.583208 0.240586 0.84357
404 1 0.674661 0.245967 0.908628
361 1 0.999054 0.01961 0.819619
270 1 0.238741 0.410857 0.512161
725 1 0.164653 0.471667 0.663676
230 1 0.578516 0.0938668 0.500414
379 1 0.751638 0.0138969 0.924889
233 1 0.651875 0.00884729 0.510666
657 1 0.336247 0.498942 0.507404
805 1 0.505742 0.490042 0.839267
377 1 0.66516 -0.00353755 0.83546
307 1 0.759411 4.93814e-05 0.756977
217 1 0.988594 0.00965002 0.510796
65 1 0.6673 0.337423 0.99187
42 1 0.752516 0.248272 0.996899
54 1 0.260685 0.413454 1.0004
57 1 0.333479 0.328742 0.99175
253 1 0.50386 0.169069 0.500148
721 1 0.0101051 0.503139 0.652057
723 1 0.0832487 0.475067 0.763649
795 1 0.082602 0.500976 0.927566
245 1 0.157887 0.16614 0.501081
58 1 0.415032 0.419921 0.990588
649 1 -0.0104792 0.493892 0.508214
14 1 0.582303 0.0866933 0.996525
18 1 0.754251 0.0939965 1.00992
266 1 0.0669736 0.418612 0.507829
6 1 0.239119 0.0888672 0.993353
665 1 0.66167 0.500262 0.492362
66 1 0.74394 0.421485 0.990613
41 1 0.677943 0.17683 0.986277
261 1 0.821426 0.155572 0.50416
242 1 0.0735327 0.268214 0.501819
249 1 0.354221 0.161625 0.50928
49 1 0.984671 0.334533 0.983555
53 1 0.173504 0.3265 0.986811
436 1 0.985796 0.590369 0.0779886
440 1 0.177828 0.589297 0.0711622
506 1 0.0720929 0.569553 0.152248
443 1 0.409632 0.502803 0.0871318
463 1 0.253104 0.682565 0.0716188
444 1 0.328617 0.583185 0.0909549
157 1 0.508682 0.993897 0.322465
510 1 0.257625 0.615054 0.161489
537 1 0.335486 0.690389 0.160919
521 1 0.660771 0.508991 0.165795
448 1 0.492395 0.570197 0.0748861
467 1 0.412499 0.665432 0.0887187
514 1 0.417384 0.593411 0.165027
589 1 0.500271 0.501112 0.341437
518 1 0.58189 0.574845 0.146454
83 1 0.414781 0.999695 0.249873
593 1 0.672658 0.510763 0.330708
452 1 0.670562 0.588661 0.0688648
522 1 0.745915 0.582845 0.155652
702 1 0.251186 0.912873 0.495333
147 1 0.0623247 0.993567 0.428577
456 1 0.830022 0.587219 0.0854116
526 1 0.917445 0.574891 0.166753
479 1 0.9132 0.669943 0.0760575
507 1 0.0812638 0.506345 0.24932
709 1 0.505955 0.824875 0.504513
459 1 0.0791726 0.673634 0.0826554
460 1 0.994778 0.744862 0.0744989
464 1 0.168194 0.743983 0.0869362
530 1 0.0827774 0.751898 0.176709
557 1 0.16556 0.822974 0.149912
75 1 0.070262 0.988377 0.24344
533 1 0.154562 0.651928 0.162059
487 1 0.246878 0.838957 0.0791929
3 1 0.0809856 0.992739 0.0855344
468 1 0.321581 0.757908 0.0772436
491 1 0.414522 0.85271 0.0868412
472 1 0.494244 0.757709 0.0937745
538 1 0.420961 0.769885 0.167158
498 1 0.751985 0.930337 0.010059
471 1 0.582818 0.668351 0.0807387
542 1 0.56988 0.759003 0.166006
475 1 0.738941 0.664747 0.0815287
476 1 0.660464 0.739978 0.0890958
546 1 0.757702 0.743107 0.168921
480 1 0.836936 0.759534 0.0879473
499 1 0.748772 0.823401 0.0909828
509 1 0.15775 0.496129 0.16393
483 1 0.0814296 0.82352 0.0891197
553 1 0.99689 0.81019 0.161385
681 1 0.334133 0.664534 0.489378
11 1 0.41543 0.996525 0.0805263
488 1 0.151951 0.910013 0.0760417
558 1 0.238951 0.918988 0.170861
492 1 0.334988 0.92299 0.0850372
685 1 0.501182 0.665918 0.495861
561 1 0.318941 0.841844 0.170141
562 1 0.408722 0.914378 0.166459
496 1 0.498166 0.923367 0.0697698
658 1 0.423334 0.586612 0.49363
85 1 0.489392 0.992186 0.157304
23 1 0.909081 0.983208 0.0869744
646 1 0.922829 0.929484 0.314474
495 1 0.597937 0.816964 0.0849103
500 1 0.679492 0.911637 0.0873508
569 1 0.667106 0.830684 0.16569
87 1 0.586281 0.996672 0.244729
579 1 0.0839093 0.50236 0.42709
504 1 0.843129 0.90292 0.0764027
595 1 0.752123 0.517176 0.4068
503 1 0.916618 0.833742 0.0821627
484 1 0.0132638 0.902237 0.0794328
527 1 0.937015 0.515821 0.269441
508 1 0.00412882 0.587787 0.252121
512 1 0.163973 0.583168 0.253147
165 1 0.828053 0.99215 0.328285
682 1 0.408802 0.750241 0.486819
582 1 0.249298 0.566107 0.352702
605 1 0.174318 0.670407 0.349806
149 1 0.145088 1.00125 0.334734
516 1 0.325536 0.584362 0.259884
539 1 0.409838 0.673302 0.240145
586 1 0.415844 0.579022 0.345378
613 1 0.510611 0.660136 0.318085
520 1 0.493833 0.583348 0.244531
590 1 0.589513 0.574276 0.320814
524 1 0.666508 0.592217 0.246802
547 1 0.759775 0.658336 0.242022
594 1 0.753609 0.588748 0.32597
597 1 0.831234 0.509793 0.337113
528 1 0.840282 0.574655 0.242138
551 1 0.919837 0.663765 0.254367
531 1 0.0904834 0.666673 0.248114
536 1 0.157283 0.741895 0.256928
532 1 1.00069 0.737922 0.253055
625 1 1.00303 0.8377 0.343833
535 1 0.254068 0.668176 0.259157
534 1 0.23001 0.732054 0.178497
559 1 0.230836 0.831202 0.247859
540 1 0.33304 0.748862 0.250447
609 1 0.361279 0.677528 0.336948
606 1 0.26123 0.754677 0.327699
565 1 0.504556 0.850643 0.156364
544 1 0.501656 0.751414 0.256608
541 1 0.494934 0.665267 0.162341
543 1 0.578628 0.662526 0.237497
567 1 0.595876 0.836532 0.255153
614 1 0.598903 0.754087 0.355617
617 1 0.671059 0.675896 0.346015
545 1 0.671304 0.664835 0.167851
548 1 0.668067 0.743476 0.252506
618 1 0.757721 0.734494 0.331754
571 1 0.754001 0.83524 0.253564
549 1 0.837589 0.662854 0.163368
529 1 0.00545736 0.661449 0.161798
550 1 0.922927 0.7263 0.161075
552 1 0.846228 0.742329 0.238107
575 1 0.917933 0.828898 0.246146
573 1 0.845928 0.830619 0.16481
622 1 0.918087 0.756949 0.333874
554 1 0.0877132 0.902852 0.168136
555 1 0.0900458 0.818514 0.25648
556 1 1.00054 0.904876 0.241985
560 1 0.157985 0.91685 0.263379
163 1 0.758282 0.997966 0.414126
519 1 0.574821 0.507385 0.239488
629 1 0.153885 0.834176 0.336386
633 1 0.341554 0.834709 0.336923
564 1 0.340993 0.915531 0.25421
563 1 0.427781 0.84089 0.263207
568 1 0.514951 0.915368 0.246078
639 1 0.586594 0.849835 0.4158
641 1 0.679446 0.816334 0.323657
638 1 0.608864 0.920794 0.332136
566 1 0.593586 0.914966 0.159684
572 1 0.676185 0.915754 0.247714
637 1 0.509755 0.835183 0.335414
221 1 0.161545 1.00839 0.502436
490 1 0.412179 0.92594 -0.00317034
591 1 0.590158 0.505318 0.409605
570 1 0.764041 0.898165 0.167036
642 1 0.75247 0.903731 0.335139
644 1 0.673564 0.918217 0.43104
627 1 0.0873493 0.827876 0.420238
574 1 0.928536 0.908759 0.165877
636 1 0.333199 0.916456 0.412077
576 1 0.843617 0.921496 0.240374
648 1 0.838093 0.925983 0.422454
578 1 0.0946934 0.590572 0.331382
581 1 0.157262 0.49744 0.339251
580 1 1.00117 0.567861 0.418043
626 1 0.0804572 0.915525 0.338332
584 1 0.174816 0.587702 0.42626
607 1 0.248582 0.68933 0.429747
588 1 0.336407 0.581354 0.419418
631 1 0.240243 0.826747 0.415125
486 1 0.248648 0.932872 0.0140015
640 1 0.512262 0.920533 0.428256
592 1 0.517062 0.591577 0.408924
615 1 0.590048 0.675793 0.422716
596 1 0.672139 0.587938 0.416979
630 1 0.256534 0.925333 0.336786
621 1 0.834947 0.659059 0.334302
465 1 0.35445 0.661824 -0.00692734
91 1 0.750914 1.00608 0.258176
662 1 0.594446 0.583918 0.486133
619 1 0.755999 0.678516 0.420414
635 1 0.425121 0.841458 0.42433
634 1 0.416112 0.919006 0.329554
598 1 0.923404 0.588976 0.35019
623 1 0.92412 0.685822 0.405275
600 1 0.824805 0.589652 0.409857
601 1 0.00827921 0.648701 0.334695
602 1 0.0692922 0.745088 0.344273
603 1 0.0803855 0.665204 0.422766
604 1 0.990022 0.756739 0.434895
511 1 0.247926 0.50969 0.245474
608 1 0.149403 0.740958 0.431692
611 1 0.44185 0.662868 0.400512
612 1 0.329758 0.751282 0.423387
610 1 0.425269 0.761917 0.339216
628 1 0.993139 0.913547 0.418711
523 1 0.736124 0.510253 0.229778
632 1 0.17031 0.913689 0.417615
93 1 0.817239 0.994852 0.173582
616 1 0.506056 0.746283 0.422038
620 1 0.67527 0.773701 0.423614
643 1 0.75662 0.842406 0.422178
647 1 0.904628 0.842647 0.420272
624 1 0.842219 0.757767 0.41072
645 1 0.829156 0.82151 0.327648
159 1 0.590443 1.00202 0.416248
701 1 0.168352 0.834325 0.500644
435 1 0.0847829 0.493758 0.0701654
515 1 0.428692 0.505237 0.261479
1 1 1.00199 0.987657 0.000904849
446 1 0.579454 0.577631 0.0119725
666 1 0.749866 0.578733 0.496093
493 1 0.504859 0.83399 0.0160169
461 1 0.173342 0.666406 0.00102671
698 1 0.0818418 0.915248 0.497011
670 1 0.913481 0.583783 0.487624
497 1 0.671999 0.831357 -0.00333162
466 1 0.417937 0.767283 0.00936986
489 1 0.334607 0.853791 0.010151
478 1 0.913892 0.757725 0.00286818
469 1 0.488676 0.661149 -0.000550541
689 1 0.676697 0.674648 0.498234
5 1 0.14981 0.993319 -0.00113952
433 1 0.995437 0.505537 0.00755241
438 1 0.273262 0.579161 0.00537162
434 1 0.0715578 0.600255 0.00642235
652 1 0.997288 0.570451 0.574189
675 1 0.0696312 0.666044 0.579797
722 1 0.0809368 0.581459 0.646514
299 1 0.41619 1.00133 0.75177
656 1 0.169771 0.580126 0.562964
726 1 0.239009 0.585645 0.674757
713 1 0.671172 0.838852 0.514799
660 1 0.334422 0.567405 0.582165
664 1 0.499309 0.576315 0.56107
683 1 0.416587 0.65906 0.579023
687 1 0.590175 0.665567 0.576539
458 1 0.0802168 0.760804 0.989358
697 1 0.995495 0.842273 0.508448
844 1 0.00602254 0.91648 0.918533
863 1 0.91783 0.82227 0.905311
668 1 0.670825 0.584812 0.571103
691 1 0.755871 0.680231 0.580083
672 1 0.836484 0.58489 0.584212
738 1 0.757471 0.603144 0.656874
705 1 0.339952 0.844933 0.505009
742 1 0.91126 0.575613 0.662616
710 1 0.584347 0.923418 0.496092
482 1 0.0796322 0.913879 0.996302
235 1 0.746281 1.00149 0.586057
655 1 0.24332 0.505435 0.588873
699 1 0.0785308 0.840938 0.593347
676 1 0.00127257 0.764048 0.586237
749 1 0.173991 0.666087 0.652426
746 1 0.0941004 0.743162 0.674022
813 1 0.823682 0.501677 0.826441
680 1 0.151523 0.746641 0.57878
679 1 0.254957 0.642523 0.584704
703 1 0.247175 0.833895 0.578589
753 1 0.343773 0.646546 0.681083
773 1 0.165722 0.825625 0.65121
311 1 0.89923 0.998131 0.739453
684 1 0.329544 0.736717 0.587404
707 1 0.421315 0.826969 0.579974
754 1 0.42415 0.735851 0.669488
688 1 0.491929 0.737804 0.579972
692 1 0.671672 0.755107 0.590863
711 1 0.578006 0.833749 0.582442
765 1 0.834606 0.66526 0.664766
762 1 0.737746 0.754758 0.676728
696 1 0.839703 0.756257 0.593835
654 1 0.261047 0.56644 0.492069
231 1 0.584799 0.990748 0.591088
695 1 0.929747 0.655169 0.594527
766 1 0.9347 0.748586 0.675099
856 1 0.513841 0.904923 0.928375
770 1 0.0910263 0.914707 0.678188
700 1 1.0048 0.927285 0.588459
690 1 0.752963 0.770836 0.511319
704 1 0.16342 0.920992 0.583239
383 1 0.913409 0.999388 0.907755
774 1 0.256954 0.912168 0.659092
807 1 0.582341 0.506423 0.91821
669 1 0.837682 0.512672 0.495241
708 1 0.333724 0.910482 0.585061
777 1 0.329377 0.814711 0.659008
809 1 0.657963 0.514147 0.838685
717 1 0.841304 0.837404 0.50045
712 1 0.504429 0.917231 0.590394
716 1 0.663877 0.912965 0.587401
785 1 0.650084 0.831594 0.671879
462 1 0.262913 0.757425 0.993077
667 1 0.749868 0.508621 0.574214
301 1 0.498071 1.00187 0.665028
715 1 0.754764 0.839666 0.586492
786 1 0.739932 0.921177 0.676841
720 1 0.845073 0.917971 0.581661
719 1 0.920313 0.827708 0.595302
789 1 0.836975 0.834106 0.67335
790 1 0.91268 0.911908 0.672897
769 1 0.0038377 0.831291 0.670103
794 1 0.0839309 0.572371 0.839307
747 1 0.111514 0.671685 0.751905
817 1 0.0150827 0.65788 0.843536
728 1 0.158083 0.566428 0.736261
798 1 0.253858 0.585539 0.83628
732 1 0.333914 0.578366 0.757255
825 1 0.314027 0.677664 0.834406
730 1 0.419025 0.57512 0.669316
734 1 0.581231 0.569761 0.65795
470 1 0.581501 0.748031 1.00738
757 1 0.511601 0.651998 0.644087
736 1 0.495966 0.595227 0.760987
759 1 0.579745 0.672513 0.736951
740 1 0.648662 0.582917 0.753389
837 1 0.846429 0.658055 0.814717
849 1 0.344005 0.838383 0.817706
848 1 0.176899 0.929754 0.92176
744 1 0.830975 0.5779 0.752148
724 1 0.0124027 0.558068 0.740206
752 1 0.170814 0.765967 0.746325
748 1 0.0151538 0.734781 0.763909
818 1 0.107755 0.750178 0.830625
751 1 0.234083 0.656615 0.752528
750 1 0.243941 0.748482 0.660454
822 1 0.24475 0.76678 0.82595
775 1 0.266063 0.853095 0.764802
755 1 0.415061 0.67454 0.759465
756 1 0.322783 0.75002 0.74733
781 1 0.502065 0.82142 0.661286
760 1 0.50198 0.743267 0.76555
853 1 0.507966 0.826584 0.854459
826 1 0.413339 0.748375 0.833396
758 1 0.584112 0.748527 0.662893
783 1 0.570423 0.834604 0.75908
830 1 0.575895 0.738936 0.847898
761 1 0.673229 0.67242 0.668523
857 1 0.668183 0.831472 0.833709
764 1 0.666257 0.75259 0.756977
763 1 0.754794 0.677578 0.752992
768 1 0.861833 0.744143 0.752526
833 1 0.670677 0.666133 0.833549
834 1 0.752029 0.742389 0.835394
745 1 0.0146017 0.658628 0.678389
767 1 0.938912 0.648304 0.755683
841 1 0.00877776 0.822908 0.82856
838 1 0.928108 0.745532 0.827786
811 1 0.753754 0.502465 0.911795
771 1 0.0839613 0.832273 0.748671
776 1 0.183473 0.927913 0.760706
860 1 0.678437 0.92057 0.927067
846 1 0.262292 0.929601 0.838783
780 1 0.333238 0.93269 0.737004
731 1 0.433832 0.498009 0.757118
779 1 0.414146 0.8271 0.731468
778 1 0.423451 0.914098 0.665916
850 1 0.406647 0.929112 0.830842
854 1 0.58471 0.922955 0.837861
784 1 0.487192 0.917433 0.75628
782 1 0.574071 0.911784 0.680844
858 1 0.761511 0.907886 0.839607
843 1 0.0795041 0.841777 0.911975
494 1 0.599667 0.916804 1.01195
787 1 0.743228 0.836796 0.756316
788 1 0.657959 0.907079 0.749149
792 1 0.827159 0.902886 0.747896
861 1 0.839201 0.819595 0.817379
864 1 0.82784 0.932443 0.915747
862 1 0.907625 0.916309 0.83213
791 1 0.925431 0.835463 0.748334
772 1 0.00810035 0.917424 0.755757
733 1 0.493581 0.507913 0.659656
821 1 0.169243 0.66505 0.850074
796 1 0.00235573 0.581344 0.920903
800 1 0.179713 0.575855 0.926243
819 1 0.0930717 0.67803 0.930782
718 1 0.926057 0.922118 0.507262
305 1 0.664328 0.994692 0.673507
823 1 0.253817 0.658836 0.928035
804 1 0.323765 0.564778 0.917017
842 1 0.0926283 0.937173 0.832215
381 1 0.826802 0.998691 0.828956
802 1 0.396602 0.589715 0.833649
808 1 0.506787 0.574809 0.914055
827 1 0.4154 0.663783 0.915303
829 1 0.495432 0.66588 0.852747
673 1 0.989237 0.669458 0.498326
806 1 0.587586 0.600858 0.842742
831 1 0.572728 0.673905 0.921901
812 1 0.655694 0.601795 0.928369
237 1 0.842513 1.00024 0.506017
659 1 0.422543 0.499456 0.577995
810 1 0.735458 0.577977 0.850259
816 1 0.834727 0.579022 0.910954
852 1 0.332353 0.919619 0.918595
851 1 0.414345 0.84293 0.922242
814 1 0.925804 0.579753 0.832461
686 1 0.585185 0.752746 0.507622
303 1 0.566321 0.996886 0.750562
741 1 0.823467 0.501768 0.673264
824 1 0.187696 0.739057 0.919179
845 1 0.160151 0.83902 0.834822
820 1 0.998471 0.738894 0.90866
737 1 0.673432 0.511136 0.64715
847 1 0.265881 0.837882 0.917289
828 1 0.333784 0.746841 0.906356
839 1 0.915249 0.662529 0.900119
239 1 0.912087 1.00879 0.600034
832 1 0.487309 0.748129 0.925238
855 1 0.601301 0.843557 0.917116
840 1 0.842093 0.747524 0.909298
859 1 0.759948 0.828957 0.919263
836 1 0.672484 0.7483 0.900296
835 1 0.75773 0.670527 0.922246
289 1 0.989837 0.99148 0.682079
477 1 0.837166 0.670542 0.995653
650 1 0.070069 0.589154 0.495066
694 1 0.921789 0.75534 0.512273
474 1 0.758111 0.754732 0.996051
815 1 0.919076 0.49705 0.913227
729 1 0.325477 0.499692 0.668228
375 1 0.5855 0.998639 0.91631
437 1 0.184213 0.493912 1.00467
714 1 0.752167 0.925515 0.506265
706 1 0.423332 0.912918 0.504458
295 1 0.251483 1.00473 0.731814
445 1 0.503858 0.486495 0.997648
223 1 0.254255 0.988839 0.584247
309 1 0.815506 0.996833 0.658348
739 1 0.741107 0.497122 0.756307
678 1 0.244475 0.742951 0.525224
225 1 0.334077 0.993465 0.499569
481 1 1.00168 0.829933 0.995421
693 1 0.832005 0.677931 0.501707
502 1 0.91891 0.905513 0.98893
454 1 0.916151 0.583566 0.982246
674 1 0.0794743 0.757968 0.504081
450 1 0.748574 0.580609 0.991408
677 1 0.167632 0.668019 0.515107
442 1 0.419478 0.566622 0.991915
473 1 0.673681 0.682074 0.988055
457 1 0.980746 0.666641 0.987231
485 1 0.161871 0.83965 0.994257
453 1 0.842655 0.510508 0.994182
501 1 0.838081 0.84142 0.988189
