ITEM: TIMESTEP
28950
ITEM: NUMBER OF ATOMS
864
ITEM: BOX BOUNDS pp pp pp
0.0000000000000000e+00 3.1559999999999999e+01
0.0000000000000000e+00 3.1559999999999999e+01
0.0000000000000000e+00 3.1559999999999999e+01
ITEM: ATOMS id type xs ys zs
74 1 0.0906786 0.0834801 0.161994
97 1 -0.00101453 0.148759 0.163485
445 1 0.515225 0.492243 -0.00188846
8 1 0.184956 0.087583 0.0744138
12 1 0.32893 0.0774835 0.0776099
455 1 0.904039 0.501619 0.077417
16 1 0.496235 0.0814605 0.0783102
196 1 0.000644314 0.41544 0.426013
20 1 0.682725 0.0769233 0.0828933
86 1 0.585266 0.067407 0.139337
73 1 -0.00180327 0.00240433 0.164398
161 1 0.658634 0.00525941 0.340708
90 1 0.748623 0.0753422 0.175134
216 1 0.829161 0.413542 0.420853
4 1 -0.0060245 0.0713762 0.0832706
24 1 0.82018 0.0727731 0.0928174
94 1 0.914149 0.076806 0.16343
214 1 0.920974 0.419127 0.344208
523 1 0.758862 0.504992 0.265091
511 1 0.259045 0.500332 0.250343
27 1 0.0854835 0.151223 0.070951
525 1 0.835952 0.495869 0.172989
101 1 0.177928 0.157314 0.154358
31 1 0.261806 0.17708 0.0818247
32 1 0.159704 0.245461 0.083618
14 1 0.585934 0.0795231 0.00286352
230 1 0.578979 0.0871394 0.507355
35 1 0.413027 0.162601 0.0829163
36 1 0.352027 0.24407 0.09198
40 1 0.491113 0.246075 0.0799699
109 1 0.502329 0.156677 0.163442
217 1 1.00287 -0.00110543 0.494229
163 1 0.742949 -0.00607961 0.415087
39 1 0.581323 0.162458 0.0758233
95 1 0.914449 -0.00158345 0.259959
43 1 0.749905 0.164634 0.102645
44 1 0.686271 0.244297 0.073554
117 1 0.846193 0.163181 0.189553
113 1 0.648866 0.148311 0.163021
451 1 0.761715 0.485302 0.0773776
28 1 0.999893 0.241748 0.0793069
48 1 0.83556 0.231215 0.083361
47 1 0.921866 0.155711 0.0765755
91 1 0.747001 -0.00101705 0.256478
51 1 0.0871237 0.325553 0.0790829
56 1 0.155484 0.410678 0.0841901
122 1 0.0798431 0.413628 0.176781
3 1 0.0811942 -0.00143261 0.0807963
55 1 0.257394 0.332531 0.0762399
60 1 0.349359 0.41481 0.0989916
126 1 0.257208 0.412805 0.157756
129 1 0.337175 0.348189 0.172332
75 1 0.07582 0.0156785 0.265805
59 1 0.409193 0.32975 0.0898211
13 1 0.50461 0.000922323 -0.000921661
507 1 0.0822996 0.484573 0.250769
210 1 0.746021 0.425774 0.341212
64 1 0.489959 0.413096 0.0774481
63 1 0.58757 0.342187 0.0749877
68 1 0.687007 0.397552 0.0939967
595 1 0.757307 0.497906 0.420255
505 1 0.996475 0.488116 0.174276
67 1 0.76517 0.31527 0.0837779
72 1 0.827947 0.405619 0.0857766
138 1 0.752436 0.423241 0.180882
22 1 0.912612 0.072674 0.0115977
71 1 0.913212 0.340178 0.0770362
52 1 1.00533 0.400545 0.0935611
142 1 0.921867 0.407674 0.170113
211 1 0.736006 0.327783 0.405869
85 1 0.501778 -0.00644927 0.153777
146 1 0.0819784 0.098654 0.34438
167 1 0.913928 0.0122372 0.432657
207 1 0.577 0.340702 0.426293
80 1 0.168195 0.078772 0.243785
78 1 0.255807 0.0796952 0.171603
103 1 0.239638 0.175248 0.244495
150 1 0.254388 0.0874215 0.336936
173 1 0.164987 0.167314 0.324276
82 1 0.414472 0.0741091 0.152279
206 1 0.586006 0.415867 0.342416
84 1 0.326854 0.091748 0.251717
212 1 0.658332 0.424396 0.419581
88 1 0.510651 0.0644439 0.232094
92 1 0.652159 0.0696531 0.256383
181 1 0.502604 0.17171 0.344858
111 1 0.560967 0.169312 0.245834
162 1 0.758649 0.0802062 0.322197
115 1 0.749525 0.156992 0.248171
189 1 0.829535 0.16585 0.336638
201 1 0.331582 0.344514 0.330265
435 1 0.0722355 0.484722 0.0945765
96 1 0.836953 0.0842595 0.259141
76 1 0.991966 0.0777146 0.2516
98 1 0.0819014 0.237376 0.158651
121 1 1.01987 0.325299 0.17913
99 1 0.0858161 0.157254 0.244002
169 1 0.00287318 0.16805 0.327744
197 1 0.1699 0.354716 0.341175
102 1 0.254202 0.255315 0.169809
104 1 0.163402 0.258433 0.236995
108 1 0.327415 0.261708 0.258539
177 1 0.329992 0.161948 0.327624
107 1 0.42562 0.153237 0.247037
105 1 0.326675 0.158309 0.171619
106 1 0.420843 0.248586 0.175873
112 1 0.497142 0.258171 0.251975
110 1 0.586926 0.241784 0.156797
137 1 0.663307 0.303782 0.159707
116 1 0.664673 0.253865 0.253517
182 1 0.586605 0.244034 0.336964
133 1 0.501174 0.341005 0.166495
114 1 0.754945 0.237951 0.180894
186 1 0.749311 0.23489 0.323739
120 1 0.839115 0.242187 0.24998
139 1 0.747705 0.340188 0.251933
118 1 0.937291 0.24256 0.166377
119 1 0.925233 0.160539 0.25068
100 1 0.0121769 0.23827 0.251453
143 1 0.917728 0.331239 0.257578
202 1 0.426055 0.424583 0.323597
193 1 0.990475 0.326415 0.334524
123 1 0.0847248 0.340779 0.266175
649 1 0.985286 0.497461 0.516507
125 1 0.161834 0.351924 0.171147
127 1 0.249696 0.341784 0.238379
128 1 0.177285 0.420251 0.256118
132 1 0.34598 0.438254 0.26066
579 1 0.0923514 0.500536 0.434715
131 1 0.411928 0.331198 0.251098
130 1 0.421148 0.421508 0.175576
136 1 0.509182 0.418082 0.251992
61 1 0.490933 0.339272 0.00730547
172 1 -0.00183513 0.243767 0.408253
134 1 0.582596 0.414817 0.159657
209 1 0.647442 0.32658 0.33106
135 1 0.58402 0.327432 0.235488
140 1 0.663266 0.414603 0.239209
165 1 0.835275 0.00749932 0.351629
213 1 0.819927 0.321679 0.329728
141 1 0.833308 0.330641 0.166112
144 1 0.850943 0.413482 0.253103
124 1 0.994769 0.416888 0.262206
204 1 0.326849 0.416387 0.417383
203 1 0.408197 0.36049 0.404997
79 1 0.258882 -0.0065732 0.25673
171 1 0.0907512 0.17162 0.421783
148 1 0.997427 0.088595 0.422579
38 1 0.567981 0.253844 0.00648942
152 1 0.154914 0.0854815 0.415914
156 1 0.336296 0.0845414 0.414247
154 1 0.416638 0.0929975 0.345245
179 1 0.420027 0.16011 0.422727
160 1 0.505227 0.0766976 0.422521
158 1 0.574116 0.0803787 0.33816
183 1 0.573236 0.167541 0.420594
208 1 0.495264 0.418457 0.404574
192 1 0.826608 0.241525 0.419736
185 1 0.653323 0.158199 0.3262
190 1 0.910172 0.242089 0.334978
164 1 0.662077 0.0776054 0.421055
168 1 0.832572 0.0946963 0.413951
191 1 0.917901 0.1766 0.409551
199 1 0.2543 0.329588 0.411469
166 1 0.913734 0.085752 0.3453
65 1 0.677157 0.339056 0.00617
170 1 0.0898077 0.248527 0.334701
195 1 0.0858476 0.33266 0.41298
176 1 0.176346 0.24121 0.416587
215 1 0.937612 0.32811 0.424616
509 1 0.164394 0.481302 0.163278
175 1 0.243302 0.162245 0.400517
174 1 0.232653 0.263091 0.336861
194 1 0.0790083 0.418758 0.355025
178 1 0.413719 0.253489 0.324191
205 1 0.506434 0.336344 0.324981
180 1 0.331919 0.264115 0.410078
200 1 0.178017 0.419539 0.418749
188 1 0.661403 0.234245 0.424165
184 1 0.48069 0.261161 0.40111
187 1 0.74493 0.162958 0.413145
198 1 0.255301 0.415578 0.330363
218 1 0.0857475 0.0825337 0.510194
37 1 0.49426 0.156307 -0.00147156
46 1 0.914407 0.243406 0.00974768
147 1 0.0771485 0.0106804 0.410882
581 1 0.158453 0.493028 0.334479
149 1 0.164695 0.00241419 0.335313
439 1 0.244238 0.498462 0.0905405
597 1 0.840126 0.490136 0.340046
527 1 0.918494 0.504205 0.251709
513 1 0.341757 0.494083 0.165009
26 1 0.085197 0.258787 -0.00927282
30 1 0.258491 0.262203 -0.00835191
246 1 0.258137 0.23813 0.488192
265 1 0.00881041 0.326122 0.500383
222 1 0.245251 0.0831488 0.476255
257 1 0.656378 0.161653 0.501576
234 1 0.738754 0.0793596 0.496238
274 1 0.415057 0.42469 0.495399
433 1 -0.00324643 0.494957 0.00208784
241 1 0.0143518 0.16262 0.513661
269 1 0.155889 0.338416 0.494873
261 1 0.824943 0.163674 0.490465
58 1 0.418611 0.42096 0.00393636
285 1 0.822611 0.330884 0.497751
42 1 0.759313 0.241351 0.00407993
437 1 0.161296 0.492909 0.0108605
281 1 0.662926 0.347168 0.493553
278 1 0.579135 0.428308 0.497641
250 1 0.40485 0.246072 0.484612
224 1 0.174239 0.079128 0.586022
290 1 0.0856936 0.0752409 0.658248
449 1 0.66814 0.487011 1.00049
731 1 0.413886 0.504111 0.751233
247 1 0.255573 0.166911 0.587674
228 1 0.328897 0.0743105 0.595873
227 1 0.417199 -0.00491928 0.597262
294 1 0.24228 0.0773151 0.679324
232 1 0.478272 0.0808197 0.589853
321 1 0.325642 0.15698 0.666779
298 1 0.401096 0.0826352 0.67322
379 1 0.758589 0.00587292 0.904525
363 1 0.0752453 0.00232126 0.909688
277 1 0.48691 0.327023 0.496496
373 1 0.500404 -0.000758022 0.839608
236 1 0.654272 0.0800035 0.58758
306 1 0.735496 0.0728018 0.657438
69 1 0.828581 0.332201 0.989838
430 1 0.921448 0.421033 0.833723
220 1 1.0023 0.0789183 0.573271
240 1 0.828404 0.0863623 0.57902
653 1 0.175071 0.503366 0.499352
797 1 0.165165 0.500826 0.832867
317 1 0.170921 0.170687 0.663087
243 1 0.0928656 0.167839 0.585779
248 1 0.180971 0.254063 0.591046
733 1 0.495017 0.509631 0.65051
314 1 0.0836087 0.241009 0.666412
252 1 0.333863 0.261261 0.585946
341 1 0.160387 0.338278 0.672596
318 1 0.258636 0.246931 0.670268
251 1 0.411802 0.164577 0.587313
275 1 0.406875 0.342388 0.572916
345 1 0.324928 0.34071 0.671131
651 1 0.07258 0.505406 0.587283
256 1 0.485497 0.255763 0.580923
255 1 0.567587 0.173082 0.573948
260 1 0.671915 0.245967 0.581906
279 1 0.578066 0.340535 0.582142
375 1 0.573791 -0.00279225 0.920479
349 1 0.488989 0.333886 0.659823
259 1 0.741591 0.15257 0.577668
815 1 0.922825 0.499248 0.912153
237 1 0.828515 0.00605441 0.496977
244 1 0.998738 0.26631 0.590404
264 1 0.821365 0.257841 0.582575
263 1 0.907564 0.16692 0.570088
334 1 0.909199 0.252881 0.672919
33 1 0.329146 0.170729 1.00373
805 1 0.504357 0.489312 0.826119
267 1 0.0834486 0.331877 0.587652
427 1 0.752947 0.338546 0.910394
268 1 0.993575 0.399258 0.580002
735 1 0.575257 0.496603 0.742247
271 1 0.25473 0.327817 0.577657
272 1 0.173847 0.407203 0.588175
276 1 0.326844 0.437199 0.58581
25 1 -0.00850575 0.148447 0.993415
346 1 0.408518 0.414136 0.662976
2 1 0.0895342 0.0849854 0.990605
429 1 0.837429 0.329719 0.830272
280 1 0.489455 0.41577 0.576811
284 1 0.654053 0.422094 0.576756
383 1 0.915984 -0.00275201 0.916007
282 1 0.745724 0.425215 0.514569
353 1 0.666786 0.322619 0.66943
283 1 0.748092 0.339163 0.591132
258 1 0.735583 0.249238 0.491783
287 1 0.914706 0.32296 0.599925
288 1 0.828376 0.413887 0.59031
10 1 0.404215 0.078922 1.00345
362 1 0.0651812 0.0865946 0.831622
453 1 0.828612 0.505805 0.990409
292 1 0.00710043 0.081578 0.745038
296 1 0.163295 0.0793134 0.746865
389 1 0.153363 0.164094 0.816688
366 1 0.238148 0.0840508 0.828912
300 1 0.320285 0.0839509 0.750481
323 1 0.403393 0.171219 0.75424
304 1 0.492845 0.0869906 0.747032
325 1 0.498136 0.167895 0.674793
370 1 0.414501 0.103651 0.829609
302 1 0.584349 0.0835471 0.670492
327 1 0.590518 0.169744 0.749851
329 1 0.662275 0.161206 0.664704
401 1 0.674688 0.183134 0.834151
308 1 0.673445 0.0851266 0.752639
331 1 0.747655 0.168263 0.742793
49 1 0.976609 0.321713 0.996453
721 1 -0.0081665 0.502904 0.681127
310 1 0.916335 0.0769729 0.671338
813 1 0.826739 0.513966 0.81635
312 1 0.819152 0.0837734 0.735756
313 1 0.992867 0.169694 0.658446
315 1 0.0867199 0.157175 0.731862
316 1 0.00619018 0.233272 0.751014
339 1 0.0944575 0.324603 0.743993
386 1 0.0926235 0.249271 0.825679
319 1 0.243863 0.162817 0.746213
320 1 0.162884 0.246303 0.737821
390 1 0.241112 0.249468 0.823576
343 1 0.242411 0.3527 0.749084
413 1 0.163779 0.334849 0.824847
393 1 0.327999 0.167847 0.837984
322 1 0.422128 0.246248 0.66898
324 1 0.328493 0.25797 0.748097
347 1 0.421248 0.324691 0.74657
328 1 0.494869 0.236747 0.764074
421 1 0.501374 0.327567 0.844884
417 1 0.326782 0.342861 0.830317
394 1 0.407681 0.241802 0.842808
326 1 0.581034 0.251881 0.656263
332 1 0.680995 0.255029 0.749895
351 1 0.575249 0.330086 0.750559
425 1 0.660668 0.317 0.83553
398 1 0.577927 0.23886 0.836436
330 1 0.754436 0.23494 0.659771
355 1 0.759258 0.316806 0.75371
335 1 0.925418 0.156368 0.748949
337 1 0.996992 0.336883 0.67951
336 1 0.822817 0.239465 0.747895
333 1 0.848087 0.164315 0.655492
359 1 0.910899 0.348212 0.747201
385 1 1.00299 0.178382 0.834428
338 1 0.0741266 0.418452 0.654401
340 1 -0.00603738 0.421554 0.751373
301 1 0.494941 0.00100932 0.684858
342 1 0.241963 0.440419 0.661825
344 1 0.163154 0.423616 0.750621
414 1 0.260434 0.439061 0.838812
432 1 0.84804 0.42342 0.905806
424 1 0.499617 0.415986 0.916444
348 1 0.337417 0.415053 0.738391
352 1 0.498468 0.419506 0.74246
428 1 0.673345 0.411694 0.917983
350 1 0.55752 0.419539 0.655864
356 1 0.664617 0.39948 0.74293
422 1 0.576977 0.397473 0.832487
239 1 0.91073 -0.00486161 0.579816
354 1 0.741954 0.411713 0.672864
426 1 0.731402 0.420116 0.815035
357 1 0.827007 0.333195 0.684854
360 1 0.823947 0.426804 0.760216
358 1 0.919949 0.418101 0.676612
70 1 0.905388 0.409556 1.00078
254 1 0.569811 0.261673 0.501489
406 1 0.906236 0.249233 0.820821
364 1 1.00016 0.0771064 0.912962
408 1 0.844124 0.248895 0.923345
54 1 0.252682 0.425359 1.00857
807 1 0.598163 0.487349 0.902302
368 1 0.159515 0.0768511 0.903251
372 1 0.326557 0.0891183 0.917121
412 1 0.00984202 0.417197 0.917279
395 1 0.40818 0.160861 0.927987
397 1 0.512241 0.165007 0.844933
420 1 0.325778 0.438101 0.920926
262 1 0.914442 0.24716 0.502207
431 1 0.921664 0.324929 0.906189
376 1 0.4791 0.077923 0.918438
374 1 0.580767 0.0844081 0.833185
399 1 0.566093 0.172678 0.931636
407 1 0.916882 0.174703 0.918354
410 1 0.0846746 0.416395 0.830937
380 1 0.663642 0.0950752 0.917252
378 1 0.74702 0.0921717 0.825883
384 1 0.855245 0.089503 0.906015
418 1 0.420568 0.410775 0.831944
382 1 0.923041 0.0798025 0.829547
405 1 0.82668 0.153143 0.824075
416 1 0.167485 0.40843 0.900959
415 1 0.25025 0.344799 0.912576
409 1 1.00382 0.327029 0.825898
388 1 0.00337327 0.250169 0.920232
387 1 0.104059 0.171717 0.912125
391 1 0.231101 0.168122 0.888613
392 1 0.163519 0.260552 0.914673
396 1 0.335512 0.262207 0.915892
419 1 0.418691 0.343697 0.911893
400 1 0.493417 0.24334 0.911217
381 1 0.837484 0.00545334 0.81939
423 1 0.583184 0.328561 0.933493
404 1 0.673544 0.257581 0.931431
411 1 0.0842405 0.331945 0.906942
402 1 0.773324 0.244461 0.8368
403 1 0.759296 0.165662 0.917532
66 1 0.757779 0.41953 0.985934
801 1 0.333366 0.527021 0.84403
45 1 0.844187 0.153248 0.999392
307 1 0.743882 0.000978158 0.746519
266 1 0.0776148 0.412366 0.51312
253 1 0.497903 0.180675 0.493171
50 1 0.080235 0.410078 1.00925
242 1 0.0921457 0.248908 0.489861
17 1 0.673303 0.00706092 0.991376
286 1 0.899329 0.416743 0.509689
238 1 0.910782 0.0842484 0.504882
245 1 0.175724 0.165753 0.514293
57 1 0.34011 0.352372 0.991325
62 1 0.589803 0.41757 1.00467
6 1 0.24336 0.0933367 0.978262
29 1 0.17606 0.183534 0.996353
53 1 0.162909 0.333261 0.996949
270 1 0.255565 0.412734 0.507779
226 1 0.410474 0.063204 0.511529
249 1 0.336622 0.164913 0.502635
18 1 0.753243 0.0862218 1.00835
41 1 0.661022 0.168112 0.994367
273 1 0.32676 0.337784 0.484366
34 1 0.411969 0.252167 0.990989
436 1 0.98427 0.587063 0.0765138
440 1 0.15443 0.565854 0.0990071
155 1 0.403043 0.996146 0.413753
506 1 0.0645551 0.577833 0.164595
593 1 0.665966 0.508413 0.341069
469 1 0.51029 0.657675 0.00331896
510 1 0.259121 0.575237 0.166596
463 1 0.260494 0.668739 0.0805587
533 1 0.149646 0.66913 0.146894
444 1 0.33521 0.575449 0.0918042
448 1 0.50723 0.575599 0.0877649
77 1 0.171365 0.990262 0.151256
587 1 0.416446 0.506108 0.407235
518 1 0.591903 0.572989 0.165235
452 1 0.675098 0.582475 0.0835372
471 1 0.587535 0.657265 0.0807417
153 1 0.340499 0.998076 0.332463
456 1 0.826124 0.571967 0.0869522
545 1 0.677012 0.660627 0.147569
522 1 0.754159 0.576869 0.166054
526 1 0.906266 0.585519 0.15012
529 1 0.997258 0.661949 0.180138
7 1 0.261038 0.990392 0.0699771
583 1 0.242913 0.50992 0.423173
713 1 0.678339 0.846077 0.502408
459 1 0.0620199 0.664801 0.0945584
460 1 0.98993 0.74072 0.0879461
442 1 0.42774 0.576157 0.00434434
464 1 0.164848 0.753198 0.0834233
557 1 0.158633 0.844468 0.162981
534 1 0.246024 0.748794 0.151458
561 1 0.330892 0.834606 0.17555
537 1 0.341256 0.661011 0.153411
468 1 0.342967 0.740352 0.0774666
467 1 0.428257 0.664534 0.0876684
538 1 0.420603 0.756826 0.157294
565 1 0.504668 0.842476 0.167839
541 1 0.508107 0.666107 0.170561
89 1 0.674295 0.999384 0.169632
472 1 0.50139 0.752755 0.0869824
585 1 0.331617 0.50353 0.342882
476 1 0.677399 0.742313 0.0688146
19 1 0.750642 0.99468 0.0875125
475 1 0.755075 0.666941 0.0663113
499 1 0.761702 0.826087 0.0676544
577 1 0.999969 0.496283 0.352623
157 1 0.496622 1.00812 0.333378
480 1 0.849928 0.766182 0.0805207
479 1 0.902445 0.667417 0.0747863
550 1 0.928063 0.74809 0.173769
23 1 0.918628 0.986423 0.0850396
87 1 0.587771 0.987911 0.252092
483 1 0.0807913 0.827467 0.0981953
488 1 0.16701 0.919177 0.0814031
83 1 0.413766 1.01585 0.247867
11 1 0.407255 0.997924 0.0726986
487 1 0.246489 0.827991 0.0649455
714 1 0.763332 0.916258 0.501938
591 1 0.5983 0.513225 0.429925
521 1 0.668902 0.488113 0.164114
491 1 0.420092 0.839488 0.0783402
492 1 0.325125 0.914029 0.0674883
93 1 0.844995 1.00475 0.173781
495 1 0.574335 0.829787 0.0895847
496 1 0.50279 0.916492 0.079902
566 1 0.582918 0.919909 0.158411
443 1 0.420701 0.503181 0.0948782
628 1 0.0077343 0.913249 0.419351
718 1 0.926811 0.92462 0.496762
500 1 0.658132 0.904192 0.085951
570 1 0.751505 0.918801 0.16586
569 1 0.677784 0.815532 0.142314
697 1 0.987066 0.826512 0.488779
484 1 0.00984403 0.911541 0.084578
504 1 0.840578 0.911911 0.083085
503 1 0.934841 0.837962 0.0912699
573 1 0.835578 0.838257 0.165342
574 1 0.913429 0.917965 0.175307
512 1 0.160781 0.594391 0.226049
221 1 0.178461 1.00328 0.508416
535 1 0.239878 0.664874 0.223824
582 1 0.246315 0.580279 0.331203
599 1 0.90799 0.503616 0.427279
609 1 0.338785 0.667861 0.335757
516 1 0.334261 0.58142 0.251995
514 1 0.434643 0.58509 0.178543
539 1 0.409435 0.673445 0.250933
586 1 0.425083 0.589055 0.319673
520 1 0.512372 0.584094 0.250279
543 1 0.596658 0.670524 0.251356
613 1 0.494344 0.669823 0.330876
524 1 0.676867 0.586501 0.238579
617 1 0.68524 0.656363 0.329782
645 1 0.81631 0.835911 0.314022
547 1 0.753008 0.652801 0.241089
549 1 0.830398 0.666485 0.155979
508 1 0.0118839 0.582235 0.257855
528 1 0.830887 0.571641 0.238983
601 1 0.988655 0.673795 0.336564
621 1 0.825991 0.667281 0.333068
530 1 0.0876497 0.754478 0.175278
531 1 0.0770799 0.673264 0.252479
606 1 0.261903 0.741251 0.319626
536 1 0.167472 0.763242 0.246154
540 1 0.326177 0.737832 0.23507
559 1 0.248242 0.836525 0.246377
563 1 0.403021 0.834628 0.257533
610 1 0.408654 0.74 0.333857
637 1 0.481901 0.828133 0.337489
633 1 0.333291 0.828947 0.341921
542 1 0.591283 0.743176 0.159951
544 1 0.494231 0.747918 0.253266
614 1 0.595594 0.76202 0.32462
548 1 0.674493 0.743962 0.246037
546 1 0.761294 0.745991 0.168194
552 1 0.834809 0.755017 0.250625
618 1 0.754847 0.743909 0.324554
553 1 1.00356 0.842128 0.184185
532 1 1.0018 0.758067 0.263114
551 1 0.907244 0.664733 0.252976
575 1 0.919534 0.833393 0.247707
622 1 0.914878 0.761507 0.348349
554 1 0.090565 0.926271 0.176975
555 1 0.0774865 0.843913 0.253279
629 1 0.159757 0.833121 0.346569
648 1 0.823091 0.922403 0.402455
558 1 0.254029 0.897507 0.153354
560 1 0.168782 0.920815 0.248891
630 1 0.243107 0.897289 0.331879
640 1 0.500464 0.915185 0.427429
564 1 0.342561 0.915686 0.235337
562 1 0.420105 0.939591 0.171668
568 1 0.498915 0.921049 0.25366
501 1 0.834409 0.835916 -0.00714632
515 1 0.431791 0.50123 0.247404
638 1 0.573512 0.913341 0.327056
567 1 0.594683 0.824162 0.240416
572 1 0.666554 0.914575 0.247239
642 1 0.739496 0.926451 0.327898
571 1 0.734808 0.831261 0.235558
641 1 0.670895 0.832442 0.328446
576 1 0.828887 0.930719 0.252783
632 1 0.162816 0.925888 0.415564
556 1 0.00185715 0.93142 0.253144
646 1 0.918714 0.908191 0.33133
625 1 1.00891 0.84711 0.338505
578 1 0.104003 0.578688 0.325407
639 1 0.584889 0.838852 0.407083
584 1 0.168059 0.589064 0.412289
643 1 0.758292 0.83938 0.420964
644 1 0.67993 0.91083 0.42032
588 1 0.318749 0.592747 0.41659
627 1 0.0818153 0.82757 0.408222
607 1 0.236577 0.673962 0.417392
620 1 0.67641 0.748419 0.41296
634 1 0.412086 0.907805 0.33597
611 1 0.422569 0.660608 0.405848
447 1 0.591855 0.494564 0.0855677
438 1 0.240781 0.580433 0.00642324
590 1 0.588834 0.586118 0.336564
592 1 0.518936 0.593104 0.415456
596 1 0.677335 0.590564 0.420702
615 1 0.59452 0.680057 0.389364
619 1 0.76427 0.673205 0.431182
594 1 0.761971 0.588043 0.349614
600 1 0.822574 0.587989 0.432273
626 1 0.0775873 0.924233 0.331706
580 1 0.984399 0.596719 0.418172
598 1 0.899073 0.579075 0.336569
623 1 0.910918 0.66836 0.412602
604 1 1.00557 0.738758 0.421637
151 1 0.25244 0.981009 0.413808
602 1 0.0846678 0.750907 0.33316
603 1 0.0861284 0.647872 0.407405
605 1 0.166648 0.660075 0.319629
608 1 0.158308 0.742353 0.407943
647 1 0.909047 0.849269 0.416286
631 1 0.247169 0.817895 0.429946
636 1 0.337894 0.917902 0.416131
635 1 0.420167 0.829687 0.423966
612 1 0.330842 0.747704 0.413439
616 1 0.504326 0.74914 0.408071
624 1 0.831969 0.755133 0.420018
517 1 0.506101 0.499001 0.169657
159 1 0.582548 0.999683 0.425842
519 1 0.581796 0.502353 0.26381
502 1 0.92696 0.910836 0.00154414
589 1 0.509873 0.510967 0.347578
145 1 0.984151 1.00129 0.345824
15 1 0.591708 0.988561 0.0724039
477 1 0.828477 0.644128 -0.011462
678 1 0.242833 0.751952 0.506537
81 1 0.330827 0.992859 0.154016
457 1 0.993515 0.66549 0.00229427
474 1 0.752435 0.740365 -0.0059562
478 1 0.911877 0.754961 -0.0153126
709 1 0.509469 0.829849 0.49645
654 1 0.24262 0.588786 0.495239
441 1 0.337126 0.506993 0.0069444
661 1 0.493533 0.514156 0.488539
434 1 0.0799615 0.591448 0.0192933
482 1 0.0797287 0.901055 0.00293919
701 1 0.146742 0.841687 0.502225
686 1 0.588346 0.768151 0.488786
461 1 0.163551 0.657379 0.0341476
657 1 0.331283 0.507441 0.49011
681 1 0.324574 0.667057 0.493023
694 1 0.912448 0.741626 0.503448
458 1 0.0819657 0.738556 0.0177002
21 1 0.822261 1.00165 -0.00138803
674 1 0.088059 0.732917 0.496406
5 1 0.178722 1.00433 0.00750665
675 1 0.0930448 0.674151 0.587728
652 1 0.995504 0.577696 0.577891
656 1 0.165648 0.580615 0.585635
219 1 0.0832337 0.99442 0.587545
660 1 0.324591 0.600351 0.571066
289 1 0.0101787 1.00416 0.678139
729 1 0.326042 0.510343 0.688394
450 1 0.744446 0.578882 0.989565
737 1 0.65211 0.497489 0.655548
730 1 0.414459 0.581292 0.657467
664 1 0.501906 0.587385 0.568138
683 1 0.422246 0.662366 0.574005
757 1 0.511012 0.663548 0.659145
662 1 0.593059 0.588439 0.506393
862 1 0.914574 0.922226 0.840895
668 1 0.664037 0.617607 0.589371
658 1 0.411877 0.596617 0.488831
497 1 0.673168 0.824634 0.991478
371 1 0.409032 0.992111 0.927038
672 1 0.838307 0.594186 0.594527
361 1 0.991181 0.993867 0.829831
485 1 0.161906 0.827223 0.996115
291 1 0.077615 0.993088 0.763173
669 1 0.822428 0.497628 0.497045
746 1 0.0791227 0.76377 0.670011
699 1 0.0579981 0.849133 0.576893
663 1 0.575156 0.502175 0.571279
309 1 0.8144 1.01115 0.659075
680 1 0.162645 0.760085 0.577251
679 1 0.252475 0.680289 0.575416
750 1 0.277515 0.747457 0.67122
809 1 0.648742 0.522415 0.816875
684 1 0.339445 0.750565 0.570686
688 1 0.488297 0.762157 0.579741
687 1 0.567924 0.695486 0.572041
758 1 0.573538 0.761942 0.663269
785 1 0.652067 0.839784 0.674383
494 1 0.579369 0.918874 0.993102
743 1 0.91291 0.51637 0.75583
691 1 0.748776 0.690101 0.600892
761 1 0.667034 0.690105 0.660028
692 1 0.669081 0.770735 0.587655
715 1 0.763864 0.838829 0.579948
723 1 0.088511 0.504774 0.754867
695 1 0.919322 0.672558 0.589515
696 1 0.842157 0.763719 0.591119
676 1 0.000215612 0.75004 0.576996
719 1 0.926252 0.848985 0.591798
377 1 0.671725 1.00406 0.836638
311 1 0.92544 1.00196 0.748347
704 1 0.155026 0.910616 0.587156
858 1 0.757511 0.925508 0.833134
727 1 0.239875 0.512962 0.747753
703 1 0.264431 0.83424 0.590161
708 1 0.339945 0.924809 0.587661
295 1 0.249069 0.996267 0.772717
777 1 0.342276 0.834143 0.67976
774 1 0.245031 0.911103 0.667077
707 1 0.41018 0.829188 0.580983
778 1 0.416865 0.923036 0.68072
659 1 0.407938 0.505887 0.564581
712 1 0.501878 0.924649 0.596854
711 1 0.583661 0.837476 0.58604
782 1 0.571624 0.912793 0.670929
365 1 0.161014 0.984413 0.842979
490 1 0.419532 0.910265 0.994403
369 1 0.336031 0.998906 0.850275
716 1 0.673547 0.915384 0.599778
786 1 0.761837 0.912986 0.667639
720 1 0.829209 0.923196 0.578551
689 1 0.67345 0.681541 0.505036
700 1 0.996068 0.933781 0.592578
790 1 0.913265 0.914008 0.678005
789 1 0.844787 0.831763 0.671661
655 1 0.253968 0.50934 0.569935
722 1 0.0865384 0.594284 0.665883
724 1 0.0234587 0.593495 0.759583
817 1 0.0171299 0.664927 0.843658
794 1 0.0998795 0.581633 0.840918
859 1 0.741989 0.845077 0.910817
726 1 0.251765 0.587192 0.666788
860 1 0.664555 0.927618 0.919324
728 1 0.166554 0.602205 0.747873
798 1 0.243429 0.585325 0.843081
825 1 0.343614 0.640128 0.854666
732 1 0.349799 0.589598 0.755713
736 1 0.491464 0.58291 0.740486
734 1 0.583053 0.582861 0.665893
827 1 0.419339 0.659903 0.918841
740 1 0.66541 0.603805 0.726606
806 1 0.563702 0.578681 0.826709
833 1 0.663948 0.66877 0.833243
685 1 0.503455 0.668423 0.48755
738 1 0.751263 0.602656 0.660085
744 1 0.824013 0.592139 0.749778
810 1 0.763098 0.597273 0.828618
742 1 0.935563 0.587405 0.671254
767 1 0.924202 0.665402 0.751179
814 1 0.92441 0.58791 0.832866
749 1 0.184841 0.687353 0.666152
745 1 0.00681002 0.672855 0.661438
747 1 0.077374 0.680838 0.750358
748 1 0.990206 0.749114 0.748233
821 1 0.17395 0.671243 0.845119
752 1 0.17272 0.739718 0.750192
751 1 0.260068 0.661778 0.76608
775 1 0.254308 0.833419 0.759283
822 1 0.25717 0.740066 0.841847
753 1 0.331489 0.655305 0.673217
754 1 0.403464 0.737852 0.653382
781 1 0.486029 0.833804 0.659768
756 1 0.336952 0.734607 0.764032
755 1 0.418822 0.669992 0.72982
849 1 0.340723 0.818301 0.843034
759 1 0.584242 0.692948 0.736114
760 1 0.489455 0.755685 0.748353
853 1 0.505795 0.831063 0.837896
783 1 0.568758 0.837192 0.757228
857 1 0.660909 0.852752 0.83408
762 1 0.750337 0.777159 0.678216
763 1 0.747952 0.67861 0.738625
764 1 0.676686 0.759569 0.759011
834 1 0.747775 0.762328 0.841972
769 1 0.99985 0.83346 0.680055
765 1 0.847026 0.678455 0.665578
768 1 0.848979 0.747103 0.746886
766 1 0.928584 0.75172 0.659152
838 1 0.924645 0.741984 0.837728
864 1 0.831089 0.919911 0.920817
770 1 0.0875059 0.901925 0.671773
771 1 0.0918829 0.83034 0.764161
842 1 0.0853409 0.923599 0.842887
832 1 0.512929 0.745601 0.915399
826 1 0.428308 0.750268 0.837585
773 1 0.16146 0.822261 0.662527
776 1 0.173075 0.919167 0.743854
846 1 0.244465 0.908542 0.845797
367 1 0.244787 0.998372 0.915259
856 1 0.494641 0.922427 0.91215
780 1 0.322363 0.911229 0.773759
779 1 0.431407 0.843339 0.746888
855 1 0.584207 0.842618 0.919502
844 1 -0.000410243 0.913713 0.905952
863 1 0.931463 0.822518 0.904337
784 1 0.508861 0.919979 0.755923
854 1 0.583358 0.917077 0.829151
850 1 0.417233 0.922263 0.831558
788 1 0.661278 0.910316 0.751215
787 1 0.762031 0.844447 0.76011
852 1 0.340841 0.903571 0.914828
772 1 0.999308 0.917287 0.750726
861 1 0.835536 0.846106 0.841519
791 1 0.913317 0.828372 0.763428
792 1 0.831438 0.928264 0.744061
840 1 0.824156 0.75607 0.923905
829 1 0.510845 0.675842 0.817676
819 1 0.0981181 0.662464 0.927522
820 1 1.0027 0.735564 0.927255
847 1 0.259535 0.821149 0.912962
800 1 0.172335 0.589456 0.931949
811 1 0.749549 0.499885 0.904525
828 1 0.347881 0.737337 0.912646
802 1 0.440298 0.581912 0.841468
804 1 0.335178 0.575654 0.933721
808 1 0.51243 0.5809 0.919047
812 1 0.676668 0.579265 0.89714
831 1 0.584595 0.667637 0.911371
836 1 0.659555 0.755698 0.915381
830 1 0.589133 0.762217 0.821892
837 1 0.831649 0.674425 0.844469
835 1 0.745171 0.683021 0.908685
816 1 0.836064 0.584102 0.910921
848 1 0.154684 0.92065 0.933341
796 1 0.00688607 0.581937 0.932246
839 1 0.922812 0.661555 0.917284
818 1 0.090989 0.746263 0.83987
841 1 -0.00540447 0.840018 0.828145
851 1 0.433906 0.830818 0.908117
845 1 0.175806 0.828615 0.835864
824 1 0.165117 0.74716 0.925784
823 1 0.246552 0.658529 0.917773
843 1 0.0792233 0.832347 0.914478
682 1 0.417098 0.745141 0.490294
231 1 0.577932 1.00013 0.585151
454 1 0.918626 0.574141 0.991823
665 1 0.668124 0.497965 0.506116
705 1 0.343789 0.831035 0.498725
293 1 0.158439 0.997308 0.668168
235 1 0.747465 1.00224 0.569901
305 1 0.658382 0.979874 0.674233
486 1 0.253832 0.914795 0.977301
803 1 0.422589 0.486392 0.91557
498 1 0.745062 0.912936 0.996163
677 1 0.165444 0.667539 0.495087
223 1 0.243463 0.98607 0.5914
795 1 0.0953786 0.501707 0.933492
671 1 0.896421 0.500881 0.594944
725 1 0.149448 0.50349 0.676241
799 1 0.245716 0.506353 0.925004
793 1 0.998394 0.50114 0.829008
1 1 0.0131407 0.993646 0.995874
299 1 0.40354 1.01585 0.76107
741 1 0.833542 0.502258 0.676044
693 1 0.831921 0.670765 0.508874
670 1 0.904913 0.58105 0.510982
297 1 0.335529 0.986247 0.674634
303 1 0.596384 0.998158 0.765835
466 1 0.441653 0.74552 1.00998
698 1 0.0798645 0.919832 0.496075
470 1 0.585882 0.739083 0.999558
465 1 0.34173 0.667415 1.00378
739 1 0.732788 0.513455 0.734077
667 1 0.755145 0.498907 0.605439
229 1 0.504811 0.989289 0.504892
233 1 0.669784 0.976909 0.500001
666 1 0.747524 0.590531 0.512681
710 1 0.577274 0.9032 0.507112
650 1 0.0946095 0.582162 0.514514
446 1 0.595282 0.574512 0.997922
489 1 0.338347 0.820656 0.995678
9 1 0.318797 1.00387 0.986588
493 1 0.50734 0.846228 1.00024
702 1 0.240742 0.905973 0.505503
473 1 0.66278 0.663887 0.985028
690 1 0.755113 0.761231 0.496225
717 1 0.837356 0.838274 0.493848
225 1 0.328273 0.987238 0.501793
481 1 1.01068 0.821162 0.993708
673 1 0.0210704 0.648995 0.507613
462 1 0.26213 0.745111 0.994632
706 1 0.410639 0.911798 0.502766
