ITEM: TIMESTEP
250
ITEM: NUMBER OF ATOMS
864
ITEM: BOX BOUNDS pp pp pp
0.0000000000000000e+00 3.1559999999999999e+01
0.0000000000000000e+00 3.1559999999999999e+01
0.0000000000000000e+00 3.1559999999999999e+01
ITEM: ATOMS id type xs ys zs
216 1 0.82657 0.411864 0.441859
511 1 0.236198 0.496367 0.239944
597 1 0.828348 0.497881 0.349823
4 1 0.00781996 0.0828843 0.085511
215 1 0.91513 0.341494 0.410121
525 1 0.832135 0.498017 0.167575
214 1 0.914097 0.425266 0.344513
8 1 0.167902 0.0774945 0.091
443 1 0.428295 0.497824 0.102655
246 1 0.242967 0.253613 0.494312
515 1 0.416751 0.490781 0.226068
12 1 0.348575 0.0836691 0.0990994
230 1 0.582706 0.0852869 0.498049
73 1 0.989343 0.00555557 0.167392
213 1 0.819102 0.336028 0.338243
16 1 0.519218 0.076805 0.0848355
269 1 0.167334 0.330563 0.494359
18 1 0.754641 0.0816092 0.0167279
212 1 0.667518 0.408795 0.423044
20 1 0.671635 0.0858494 0.0856674
521 1 0.669043 0.497838 0.173783
149 1 0.168497 0.00272469 0.329196
257 1 0.668315 0.168178 0.49654
24 1 0.833865 0.0939853 0.102384
151 1 0.243821 0.00135301 0.417014
517 1 0.520117 0.493588 0.16941
27 1 0.0878707 0.163987 0.0911936
28 1 0.0106452 0.246294 0.0626253
155 1 0.42196 0.011211 0.42347
451 1 0.743401 0.490794 0.104188
31 1 0.235677 0.163714 0.0834356
32 1 0.167054 0.250837 0.0873994
29 1 0.149457 0.165199 0.0090294
21 1 0.812459 0.0051586 0.00936754
35 1 0.432363 0.147678 0.0848256
36 1 0.330871 0.258623 0.0808004
163 1 0.749576 0.00542496 0.424368
591 1 0.592484 0.497535 0.417551
39 1 0.583815 0.164673 0.0923467
40 1 0.506573 0.245233 0.0895111
455 1 0.924726 0.497979 0.0793912
10 1 0.41982 0.0738601 0.0165816
43 1 0.749193 0.175568 0.0787668
44 1 0.682795 0.254204 0.0826125
45 1 0.818896 0.17088 0.00164142
587 1 0.423313 0.497697 0.40575
47 1 0.9223 0.171544 0.0786697
48 1 0.842849 0.250898 0.0791931
93 1 0.826241 0.00966324 0.180996
190 1 0.905243 0.248798 0.332664
51 1 0.0803834 0.328378 0.0670549
52 1 0.01522 0.430584 0.0756319
189 1 0.83586 0.168493 0.330658
77 1 0.153871 0.00322153 0.185108
55 1 0.240551 0.319141 0.0907562
56 1 0.152946 0.407906 0.0918928
6 1 0.229743 0.0943891 0.00133601
22 1 0.920732 0.0906546 0.00730763
59 1 0.420563 0.322903 0.0757441
60 1 0.32583 0.411193 0.0933661
507 1 0.0881834 0.486737 0.251876
188 1 0.664108 0.253618 0.412087
63 1 0.594954 0.319439 0.0807401
64 1 0.511027 0.418777 0.0798606
91 1 0.745751 0.0123599 0.26829
266 1 0.101541 0.419732 0.495435
67 1 0.7556 0.347953 0.0814464
68 1 0.669536 0.415157 0.0804548
153 1 0.331212 0.0247409 0.32679
194 1 0.0784898 0.421436 0.3352
71 1 0.917155 0.332456 0.0815172
72 1 0.852342 0.416139 0.0741497
211 1 0.746383 0.326348 0.429346
74 1 0.0766357 0.0821315 0.163471
210 1 0.748061 0.416524 0.334938
76 1 0.99649 0.0953647 0.236668
209 1 0.668517 0.335997 0.346671
78 1 0.25666 0.06777 0.155592
208 1 0.504373 0.431502 0.412195
80 1 0.140372 0.0805276 0.260213
207 1 0.578409 0.329151 0.395558
82 1 0.442122 0.070917 0.18436
206 1 0.57455 0.412703 0.316963
84 1 0.33849 0.0910783 0.236897
205 1 0.503126 0.328969 0.322735
86 1 0.577942 0.0746323 0.187537
595 1 0.758321 0.48901 0.418106
88 1 0.511624 0.0766479 0.270372
204 1 0.330358 0.405699 0.414381
90 1 0.74952 0.0927471 0.175807
193 1 0.984867 0.34162 0.324546
92 1 0.665982 0.08865 0.2587
192 1 0.828991 0.251732 0.416569
94 1 0.916622 0.0830922 0.16736
191 1 0.911186 0.175926 0.409643
96 1 0.819733 0.0840494 0.258163
97 1 0.996929 0.173064 0.154796
98 1 0.0713518 0.248761 0.163748
99 1 0.0758599 0.166434 0.250424
100 1 0.995636 0.260521 0.254872
101 1 0.174509 0.15211 0.173469
102 1 0.234607 0.239699 0.174156
103 1 0.241678 0.155209 0.263611
104 1 0.146717 0.238994 0.250417
105 1 0.324453 0.173073 0.163344
106 1 0.424571 0.236446 0.157719
107 1 0.424674 0.15905 0.247653
108 1 0.320469 0.243462 0.243821
109 1 0.505895 0.157118 0.16957
110 1 0.572872 0.254276 0.184147
111 1 0.583306 0.165779 0.259309
112 1 0.48836 0.248781 0.247861
113 1 0.671033 0.178861 0.159932
114 1 0.759344 0.2624 0.153324
115 1 0.745979 0.165934 0.26254
116 1 0.675662 0.239545 0.249991
117 1 0.826035 0.171292 0.171982
118 1 0.916037 0.241631 0.162328
119 1 0.902714 0.16509 0.246702
120 1 0.82152 0.244607 0.257018
121 1 0.993576 0.328021 0.173462
122 1 0.0717915 0.416515 0.164736
123 1 0.0783706 0.332817 0.262707
124 1 0.986842 0.41161 0.248679
125 1 0.148098 0.333243 0.165387
126 1 0.243755 0.40576 0.1646
127 1 0.236909 0.320065 0.251947
128 1 0.152021 0.40719 0.250015
129 1 0.329138 0.329346 0.160233
130 1 0.425883 0.398748 0.157998
131 1 0.396611 0.328273 0.246351
132 1 0.336766 0.413803 0.242644
133 1 0.491877 0.319161 0.16495
134 1 0.585129 0.394453 0.155236
135 1 0.594576 0.338581 0.252856
136 1 0.501214 0.395305 0.242574
137 1 0.667153 0.317421 0.172393
138 1 0.749325 0.409747 0.181244
139 1 0.758077 0.330644 0.253824
140 1 0.66964 0.417132 0.260631
141 1 0.840624 0.341548 0.166521
142 1 0.924713 0.405754 0.159145
143 1 0.905158 0.322438 0.246425
144 1 0.839289 0.411979 0.259068
147 1 0.0943024 0.017335 0.413533
146 1 0.0644598 0.090638 0.330882
203 1 0.434817 0.351417 0.407806
148 1 0.996868 0.107035 0.419534
202 1 0.412343 0.418296 0.322284
150 1 0.244966 0.0909929 0.338151
201 1 0.327404 0.338313 0.330668
152 1 0.176724 0.102217 0.421772
200 1 0.16408 0.409921 0.417593
154 1 0.423367 0.0906879 0.340217
199 1 0.24063 0.328545 0.410617
156 1 0.315433 0.0843095 0.42038
198 1 0.246697 0.417194 0.335196
158 1 0.586177 0.0877676 0.345723
187 1 0.760531 0.160282 0.436082
160 1 0.508165 0.0841223 0.421694
242 1 0.0778193 0.251016 0.498984
162 1 0.746632 0.083142 0.347821
197 1 0.160652 0.327279 0.340872
164 1 0.666909 0.0872285 0.425823
196 1 0.997395 0.419919 0.406049
166 1 0.911208 0.0883351 0.333249
195 1 0.0687751 0.332143 0.417803
168 1 0.829114 0.079745 0.423671
169 1 0.982147 0.183507 0.324062
170 1 0.08128 0.23745 0.334406
171 1 0.0887128 0.168543 0.423372
172 1 0.00665478 0.246358 0.424338
173 1 0.163037 0.165826 0.326687
174 1 0.239948 0.248607 0.329503
175 1 0.250723 0.177612 0.415853
176 1 0.154655 0.254811 0.419547
177 1 0.330319 0.171524 0.330227
178 1 0.408636 0.250287 0.322383
179 1 0.415645 0.171017 0.416249
180 1 0.336576 0.262671 0.419279
181 1 0.502366 0.171013 0.330172
182 1 0.589066 0.253083 0.313728
183 1 0.585554 0.166271 0.42258
184 1 0.49695 0.245202 0.409302
185 1 0.667717 0.175336 0.342043
186 1 0.74303 0.262355 0.33908
583 1 0.263506 0.498061 0.417084
14 1 0.599659 0.0883988 0.00831184
69 1 0.846868 0.328508 0.00261805
589 1 0.496125 0.492298 0.300755
581 1 0.165569 0.491008 0.341469
577 1 0.999134 0.497808 0.342767
218 1 0.0812944 0.0770661 0.496926
79 1 0.266832 0.0129156 0.250515
270 1 0.255252 0.412289 0.495839
42 1 0.750792 0.25612 0.00473892
95 1 0.900664 0.0134258 0.254257
165 1 0.8317 0.000326366 0.348329
19 1 0.728417 0.00592878 0.0962327
58 1 0.424646 0.415609 0.0102522
274 1 0.399877 0.422388 0.490228
249 1 0.344238 0.175138 0.492717
5 1 0.152303 0.0103215 0.0122451
265 1 0.998113 0.324796 0.497068
57 1 0.339712 0.334767 0.00336989
33 1 0.327785 0.149451 0.0172147
262 1 0.918138 0.261528 0.482732
277 1 0.505312 0.338362 0.483477
661 1 0.513169 0.499857 0.498998
34 1 0.434654 0.242498 0.0104167
441 1 0.343925 0.479954 0.0118033
37 1 0.516057 0.167429 0.00114373
432 1 0.829607 0.425276 0.923887
250 1 0.429676 0.238795 0.507647
431 1 0.928481 0.339362 0.913988
220 1 0.994491 0.083584 0.558116
428 1 0.686258 0.412815 0.902544
229 1 0.506203 0.0117572 0.504129
427 1 0.763875 0.339691 0.923565
224 1 0.162989 0.0879371 0.58358
743 1 0.922213 0.493364 0.745793
258 1 0.736677 0.24472 0.514377
424 1 0.487182 0.421522 0.917952
228 1 0.313774 0.0876223 0.592289
803 1 0.421531 0.499673 0.909323
49 1 0.998618 0.344159 0.995511
299 1 0.413114 0.00439655 0.745228
232 1 0.496911 0.0934516 0.592879
66 1 0.740458 0.429594 0.994648
26 1 0.0860714 0.247491 0.987706
423 1 0.596227 0.33002 0.918006
236 1 0.660376 0.0883898 0.581374
420 1 0.339278 0.41032 0.910743
239 1 0.926752 0.0013147 0.585378
419 1 0.422767 0.33525 0.922233
240 1 0.842513 0.0607569 0.593884
375 1 0.593032 0.0113439 0.915142
231 1 0.576013 0.0110501 0.581283
243 1 0.0866697 0.171275 0.588276
244 1 0.00697941 0.252472 0.595298
725 1 0.163583 0.493064 0.680355
61 1 0.507454 0.344025 0.99793
247 1 0.244531 0.164909 0.579312
248 1 0.163414 0.250268 0.575386
50 1 0.0978016 0.422136 0.993471
669 1 0.815942 0.49073 0.526544
251 1 0.4151 0.160471 0.582146
252 1 0.326889 0.242399 0.578861
361 1 0.995735 0.0049616 0.848487
9 1 0.327596 0.0113487 0.994534
255 1 0.584179 0.170806 0.597978
256 1 0.506501 0.25955 0.577493
731 1 0.406568 0.499242 0.742706
254 1 0.591034 0.240584 0.501487
259 1 0.722236 0.173456 0.591829
260 1 0.655355 0.263144 0.595273
282 1 0.731408 0.410519 0.500169
46 1 0.925444 0.253569 0.998611
263 1 0.917466 0.167505 0.585414
264 1 0.834111 0.255699 0.601076
307 1 0.752322 0.00376256 0.727342
291 1 0.0835409 0.00731234 0.744157
267 1 0.0843811 0.339133 0.571584
268 1 0.00101131 0.410538 0.569759
53 1 0.162771 0.324373 0.999593
369 1 0.339246 0.0158177 0.828421
271 1 0.242805 0.329229 0.591488
272 1 0.170123 0.410006 0.582901
809 1 0.673522 0.494959 0.828103
241 1 0.986914 0.181016 0.508225
275 1 0.43462 0.341901 0.573638
276 1 0.345685 0.41589 0.588628
301 1 0.500211 0.0118931 0.662249
377 1 0.672541 0.00360252 0.836974
279 1 0.571873 0.336552 0.583374
280 1 0.508622 0.4311 0.578222
721 1 0.00466804 0.489027 0.670642
396 1 0.340816 0.242145 0.930535
283 1 0.745844 0.332925 0.582611
284 1 0.64709 0.409743 0.583213
665 1 0.663541 0.488354 0.508466
395 1 0.423469 0.161516 0.951306
287 1 0.915726 0.318828 0.587812
288 1 0.832681 0.398473 0.57386
801 1 0.336504 0.499605 0.819908
290 1 0.0666332 0.07417 0.66082
741 1 0.848262 0.494567 0.672697
292 1 0.982985 0.0936865 0.756774
387 1 0.0756082 0.16857 0.903604
362 1 0.07894 0.0904114 0.8269
383 1 0.913155 0.0168148 0.937344
294 1 0.244047 0.0729069 0.657351
416 1 0.175479 0.411891 0.903488
296 1 0.160845 0.0833596 0.73651
238 1 0.90418 0.0899253 0.506163
366 1 0.248158 0.0833088 0.819403
415 1 0.265754 0.317639 0.906584
298 1 0.409247 0.0902618 0.672684
285 1 0.834178 0.32159 0.505399
300 1 0.325256 0.0865554 0.740843
412 1 0.0161534 0.431369 0.921285
370 1 0.443506 0.0941823 0.821196
384 1 0.815304 0.0921656 0.930792
302 1 0.585676 0.0949151 0.666841
651 1 0.0912851 0.498841 0.582226
304 1 0.496731 0.0899625 0.734684
392 1 0.158161 0.25336 0.910249
374 1 0.596056 0.0949283 0.846725
391 1 0.243003 0.167453 0.91697
306 1 0.747704 0.0758737 0.652656
411 1 0.0700792 0.329811 0.922817
308 1 0.680233 0.0816762 0.763125
371 1 0.421694 0.00187069 0.91716
378 1 0.744527 0.0808975 0.847973
408 1 0.840775 0.251354 0.926439
310 1 0.917312 0.0809127 0.676286
407 1 0.906276 0.163946 0.926733
312 1 0.829218 0.075617 0.728203
404 1 0.685947 0.255942 0.907501
382 1 0.909362 0.0799682 0.83905
313 1 0.0128924 0.166161 0.672986
314 1 0.0751423 0.254495 0.681907
315 1 0.0862873 0.162828 0.740581
316 1 0.99703 0.231993 0.761003
385 1 0.976359 0.17042 0.834238
386 1 0.0977438 0.245126 0.830031
317 1 0.165735 0.161557 0.66138
318 1 0.242557 0.250171 0.666481
319 1 0.245197 0.159252 0.739625
320 1 0.164657 0.238908 0.75319
389 1 0.16858 0.152222 0.82533
390 1 0.23905 0.237147 0.834416
321 1 0.320995 0.161675 0.663421
322 1 0.412921 0.258911 0.649458
323 1 0.407827 0.170196 0.751332
324 1 0.32512 0.249841 0.744669
393 1 0.32825 0.172325 0.829916
394 1 0.408126 0.234886 0.845088
325 1 0.484739 0.176181 0.667053
326 1 0.572035 0.238847 0.678173
327 1 0.572193 0.162266 0.75942
328 1 0.489148 0.251024 0.757349
397 1 0.494141 0.171394 0.844931
398 1 0.582611 0.243685 0.8374
329 1 0.660323 0.174027 0.6832
330 1 0.732401 0.25616 0.659528
331 1 0.752842 0.173316 0.75166
332 1 0.665326 0.259286 0.75062
401 1 0.673528 0.176977 0.829374
402 1 0.749619 0.264855 0.824231
333 1 0.827271 0.163697 0.663962
334 1 0.921102 0.250176 0.67416
335 1 0.902807 0.172334 0.748345
336 1 0.830055 0.248922 0.744838
405 1 0.828163 0.159502 0.821307
406 1 0.901949 0.259774 0.83999
337 1 0.00392253 0.335833 0.659359
338 1 0.0864679 0.412484 0.678393
339 1 0.102552 0.330817 0.756866
340 1 0.00892385 0.402578 0.758987
409 1 0.00837524 0.312069 0.8309
410 1 0.0887553 0.416581 0.83574
341 1 0.16138 0.329302 0.663852
342 1 0.241271 0.41367 0.668278
343 1 0.249887 0.330502 0.732391
344 1 0.165305 0.416377 0.74757
413 1 0.184404 0.329772 0.827582
414 1 0.267428 0.406617 0.825485
345 1 0.325303 0.324568 0.664857
346 1 0.418689 0.406489 0.673062
347 1 0.410466 0.316375 0.744818
348 1 0.327563 0.414566 0.745423
417 1 0.346004 0.32979 0.825023
418 1 0.415921 0.412926 0.826784
349 1 0.491984 0.332087 0.66652
350 1 0.570924 0.423717 0.661914
351 1 0.58089 0.319942 0.7607
352 1 0.502075 0.427943 0.753012
421 1 0.504119 0.347438 0.833887
422 1 0.585602 0.420192 0.841438
353 1 0.655687 0.342413 0.672228
354 1 0.757349 0.435981 0.664572
355 1 0.743799 0.34459 0.73357
356 1 0.662394 0.416634 0.753019
425 1 0.680396 0.341938 0.817287
426 1 0.770369 0.408913 0.817678
357 1 0.840866 0.331076 0.678836
358 1 0.935142 0.409236 0.669559
359 1 0.916901 0.322078 0.753689
360 1 0.852716 0.41644 0.75266
429 1 0.847294 0.354512 0.848383
430 1 0.933483 0.42333 0.845723
403 1 0.761368 0.177994 0.903778
364 1 0.98875 0.0985339 0.913082
400 1 0.507905 0.26259 0.921613
368 1 0.164796 0.0823206 0.915609
399 1 0.578821 0.166065 0.91512
372 1 0.33224 0.0901829 0.911009
388 1 0.00224644 0.247981 0.911743
376 1 0.500124 0.0868206 0.923792
380 1 0.685115 0.0836791 0.930031
729 1 0.34666 0.497668 0.66256
227 1 0.409998 0.0162684 0.588966
735 1 0.58072 0.498363 0.74692
303 1 0.591719 0.00509557 0.736884
373 1 0.51058 0.00247892 0.825849
649 1 0.99112 0.495361 0.500257
365 1 0.160725 0.0201024 0.821003
367 1 0.245316 0.0127446 0.916359
655 1 0.2497 0.481536 0.583565
286 1 0.922395 0.405696 0.510011
281 1 0.651079 0.324052 0.506704
253 1 0.512442 0.168073 0.503258
25 1 0.00744226 0.168214 0.986465
70 1 0.923465 0.420692 0.990711
65 1 0.67771 0.33896 0.990582
245 1 0.162884 0.168626 0.50061
54 1 0.243628 0.421998 0.99829
222 1 0.240493 0.0826128 0.507537
225 1 0.332678 0.00719854 0.50617
278 1 0.585396 0.406899 0.505617
234 1 0.74382 0.0775854 0.50346
41 1 0.668548 0.17087 0.992308
2 1 0.0797412 0.089685 0.98967
38 1 0.595267 0.254797 0.996377
273 1 0.330993 0.342823 0.504782
226 1 0.426272 0.0890883 0.502024
62 1 0.6048 0.421818 0.985094
261 1 0.837717 0.187707 0.514645
30 1 0.243229 0.249031 0.998109
648 1 0.856773 0.919674 0.425773
513 1 0.317812 0.50504 0.169818
646 1 0.89438 0.920324 0.324727
436 1 0.990479 0.588878 0.0764675
644 1 0.674772 0.911134 0.428019
15 1 0.593542 0.99765 0.0916098
642 1 0.751961 0.913931 0.359449
440 1 0.186297 0.590854 0.0850191
640 1 0.493746 0.91029 0.416394
585 1 0.334605 0.502287 0.313075
638 1 0.575068 0.915328 0.340392
444 1 0.338347 0.570392 0.0809137
653 1 0.173457 0.501276 0.499594
87 1 0.576551 0.985309 0.25563
23 1 0.90463 0.996929 0.0879512
448 1 0.480851 0.586415 0.0786314
636 1 0.341434 0.907261 0.41515
161 1 0.651648 0.991944 0.335986
634 1 0.401808 0.94147 0.336924
452 1 0.656081 0.58127 0.0738256
632 1 0.164119 0.916644 0.41015
75 1 0.0653052 0.981482 0.253949
157 1 0.504725 0.996474 0.34312
456 1 0.836094 0.596148 0.0887158
450 1 0.75904 0.58154 0.00219529
89 1 0.655145 0.97805 0.182205
459 1 0.0771459 0.665635 0.073108
460 1 0.00365634 0.748574 0.0761077
435 1 0.0968321 0.507766 0.0698697
483 1 0.0779555 0.830153 0.0992821
599 1 0.918004 0.503758 0.420645
167 1 0.922828 0.996998 0.430709
463 1 0.271389 0.664409 0.0744859
464 1 0.178899 0.748873 0.0803075
698 1 0.0909348 0.903369 0.497106
487 1 0.25389 0.841797 0.0734508
485 1 0.163428 0.831679 0.00299424
83 1 0.422355 0.994062 0.253682
467 1 0.413359 0.670778 0.0828549
468 1 0.332515 0.759889 0.0737034
673 1 0.99737 0.65228 0.492551
491 1 0.413384 0.842762 0.072372
221 1 0.171688 0.994001 0.490909
439 1 0.246545 0.50081 0.0882127
471 1 0.579854 0.679396 0.0827991
472 1 0.480992 0.757226 0.0723293
13 1 0.512843 0.996898 0.00609494
495 1 0.586725 0.824742 0.0725078
619 1 0.743703 0.671095 0.414184
618 1 0.749625 0.749918 0.333114
475 1 0.746553 0.656093 0.0767476
476 1 0.682434 0.741781 0.0941953
523 1 0.747736 0.516551 0.25128
499 1 0.735589 0.836047 0.0845458
686 1 0.595735 0.739879 0.498506
505 1 0.990838 0.504585 0.163714
479 1 0.907762 0.664124 0.087991
480 1 0.83409 0.740712 0.0829166
617 1 0.66867 0.660463 0.348352
503 1 0.908381 0.831646 0.0708742
681 1 0.33081 0.655769 0.497261
484 1 0.998883 0.920553 0.0860702
635 1 0.420938 0.834139 0.419962
488 1 0.178243 0.91913 0.0821677
633 1 0.354099 0.82453 0.327984
492 1 0.33905 0.924275 0.0879697
527 1 0.921041 0.501591 0.255259
496 1 0.50659 0.911309 0.0755544
612 1 0.344583 0.734026 0.420823
500 1 0.655802 0.914027 0.0943214
611 1 0.417314 0.660441 0.424524
504 1 0.82703 0.925548 0.074496
85 1 0.512971 0.98578 0.16679
506 1 0.0933327 0.580801 0.159289
610 1 0.420996 0.747556 0.321478
508 1 0.994873 0.575669 0.250175
630 1 0.254894 0.916358 0.344947
510 1 0.250653 0.605405 0.161499
628 1 0.000930118 0.91194 0.403518
512 1 0.160906 0.585999 0.246612
626 1 0.0766311 0.895304 0.328917
514 1 0.418166 0.589005 0.169538
647 1 0.909248 0.827604 0.433612
516 1 0.326748 0.589958 0.241704
645 1 0.833397 0.827867 0.342855
518 1 0.586777 0.590861 0.165801
624 1 0.830678 0.750222 0.421274
520 1 0.499757 0.585095 0.235857
623 1 0.90319 0.659115 0.423027
522 1 0.747153 0.582448 0.159811
639 1 0.590521 0.839765 0.425748
524 1 0.671646 0.600764 0.254246
622 1 0.902049 0.747292 0.334678
526 1 0.90788 0.578697 0.167028
621 1 0.820879 0.665683 0.338326
528 1 0.832212 0.577623 0.257785
529 1 0.995621 0.656314 0.155079
530 1 0.0780358 0.741096 0.161867
531 1 0.0770072 0.658612 0.241223
532 1 0.989154 0.745826 0.232426
553 1 0.988484 0.840772 0.158385
555 1 0.0796178 0.831236 0.2488
533 1 0.159513 0.66632 0.155295
534 1 0.272593 0.760007 0.163947
535 1 0.249931 0.672694 0.255483
536 1 0.162008 0.753319 0.25093
557 1 0.155212 0.830143 0.163241
559 1 0.24779 0.82794 0.252352
537 1 0.335513 0.675399 0.177074
538 1 0.409549 0.74256 0.158031
539 1 0.416645 0.67365 0.246302
540 1 0.324702 0.756156 0.255153
561 1 0.34044 0.841595 0.164133
563 1 0.418746 0.846839 0.243864
541 1 0.497949 0.673282 0.154961
542 1 0.596917 0.756781 0.163492
543 1 0.590581 0.672712 0.244373
544 1 0.511037 0.759519 0.249348
565 1 0.497071 0.826099 0.158515
567 1 0.592464 0.854222 0.260273
545 1 0.680609 0.670061 0.168764
546 1 0.751261 0.746365 0.175306
547 1 0.760281 0.655455 0.248317
548 1 0.667676 0.752146 0.263866
569 1 0.680891 0.83697 0.177371
571 1 0.748164 0.825217 0.260611
549 1 0.841132 0.671566 0.169261
550 1 0.904858 0.772531 0.156165
551 1 0.91112 0.667778 0.250407
552 1 0.837342 0.749893 0.244876
573 1 0.812525 0.8443 0.168092
575 1 0.901807 0.839027 0.247786
554 1 0.0913644 0.91203 0.169208
556 1 0.979239 0.914003 0.23618
558 1 0.248609 0.925718 0.173066
560 1 0.168569 0.911013 0.255702
562 1 0.428261 0.915498 0.165152
564 1 0.329374 0.913198 0.256943
566 1 0.570182 0.898318 0.159205
568 1 0.498138 0.911253 0.240141
570 1 0.745208 0.925047 0.159008
572 1 0.684365 0.918777 0.276752
574 1 0.904924 0.918796 0.162806
576 1 0.798987 0.916442 0.253263
579 1 0.0872224 0.510686 0.414242
578 1 0.0817572 0.576231 0.321713
637 1 0.494226 0.843259 0.325315
580 1 0.00394591 0.586336 0.409729
609 1 0.344239 0.669365 0.328822
582 1 0.237943 0.573764 0.324939
616 1 0.50882 0.743453 0.426619
584 1 0.172288 0.583954 0.419701
643 1 0.748597 0.833232 0.432871
586 1 0.429859 0.568523 0.314465
482 1 0.0864171 0.918944 0.00997706
588 1 0.338866 0.585384 0.399164
641 1 0.669492 0.837809 0.339929
590 1 0.588658 0.574629 0.340286
447 1 0.578938 0.501229 0.0839447
592 1 0.498763 0.577414 0.406769
615 1 0.580928 0.6644 0.406511
594 1 0.742231 0.578009 0.344073
614 1 0.577003 0.756544 0.345453
596 1 0.673938 0.566138 0.42825
620 1 0.66351 0.752315 0.417054
598 1 0.915128 0.580013 0.341072
613 1 0.499996 0.65482 0.319257
600 1 0.81997 0.578601 0.427124
601 1 0.993367 0.670084 0.328412
602 1 0.0771406 0.745983 0.323203
603 1 0.0875563 0.650743 0.420035
604 1 0.994897 0.739016 0.434929
625 1 0.996311 0.822031 0.333647
627 1 0.073696 0.807778 0.427519
605 1 0.161494 0.671472 0.334
606 1 0.242046 0.754149 0.340675
607 1 0.260583 0.662262 0.405073
608 1 0.162858 0.747596 0.420972
629 1 0.169546 0.833022 0.332714
631 1 0.261085 0.834645 0.414493
454 1 0.904399 0.59347 0.00510306
509 1 0.165218 0.500124 0.16538
81 1 0.348716 0.999471 0.170564
654 1 0.245594 0.591824 0.49443
145 1 0.991821 0.995573 0.329602
159 1 0.584305 0.995917 0.425491
3 1 0.0891652 0.992956 0.103993
662 1 0.5826 0.575822 0.481988
7 1 0.25715 0.997294 0.0760467
519 1 0.596036 0.50074 0.250533
593 1 0.669692 0.500708 0.330516
11 1 0.425844 0.99767 0.080647
689 1 0.663119 0.648067 0.492086
474 1 0.753609 0.744754 0.0090654
446 1 0.574266 0.581846 0.00337625
710 1 0.584909 0.911827 0.499643
462 1 0.258866 0.755292 7.63291e-05
682 1 0.4197 0.746789 0.497267
678 1 0.260303 0.745082 0.491635
497 1 0.667055 0.811164 0.00289581
461 1 0.181445 0.66283 0.0084899
658 1 0.415526 0.582035 0.488694
701 1 0.178729 0.829227 0.48408
17 1 0.663758 0.98946 0.00357338
478 1 0.906284 0.747069 0.00600301
217 1 0.00973386 0.992638 0.482297
490 1 0.410867 0.93616 0.00448286
1 1 0.00354821 0.996937 0.0171284
481 1 0.00519257 0.838926 0.00647968
657 1 0.342862 0.501824 0.493864
289 1 0.00855863 0.988945 0.670891
493 1 0.498399 0.842083 0.990552
502 1 0.912905 0.927264 0.997582
652 1 0.996458 0.56815 0.587583
723 1 0.0811178 0.501211 0.745937
233 1 0.663044 0.997142 0.507061
864 1 0.836747 0.919417 0.913462
656 1 0.180768 0.582168 0.587151
860 1 0.654638 0.918889 0.908051
813 1 0.83872 0.50547 0.837656
856 1 0.515243 0.926812 0.914933
660 1 0.31824 0.567449 0.579949
852 1 0.342427 0.934356 0.916859
685 1 0.519763 0.658629 0.501502
848 1 0.162607 0.913547 0.915431
664 1 0.503377 0.595104 0.580952
489 1 0.329974 0.849946 0.995311
293 1 0.158926 0.997798 0.664695
844 1 0.0199695 0.910816 0.925455
668 1 0.650578 0.590656 0.582979
363 1 0.0883816 0.993025 0.927361
666 1 0.74351 0.575187 0.513936
863 1 0.913397 0.818469 0.914761
672 1 0.816911 0.589242 0.586402
677 1 0.174581 0.674961 0.508481
717 1 0.84197 0.820667 0.517642
675 1 0.0858543 0.658276 0.584909
676 1 0.00376693 0.736063 0.581852
381 1 0.830431 0.99888 0.818213
699 1 0.0926842 0.82723 0.569392
697 1 0.00473108 0.830094 0.507456
663 1 0.577078 0.513249 0.584046
679 1 0.257064 0.657517 0.594148
680 1 0.1597 0.735432 0.606008
674 1 0.0863887 0.739444 0.512016
703 1 0.253051 0.828477 0.59513
693 1 0.839355 0.661019 0.511536
465 1 0.34896 0.668972 0.994271
683 1 0.412359 0.660058 0.58529
684 1 0.341899 0.741464 0.570354
667 1 0.729519 0.51511 0.592895
707 1 0.418367 0.823999 0.587788
437 1 0.180625 0.516871 0.995859
807 1 0.584968 0.501343 0.910448
687 1 0.591516 0.676936 0.583005
688 1 0.494597 0.742219 0.580889
819 1 0.0788338 0.664406 0.906902
711 1 0.586719 0.82413 0.587163
438 1 0.271708 0.571577 0.995078
473 1 0.658759 0.654065 0.99433
691 1 0.738094 0.651529 0.580444
692 1 0.668493 0.751442 0.592901
816 1 0.833417 0.589319 0.928559
715 1 0.753641 0.831506 0.577357
799 1 0.269134 0.509988 0.908497
470 1 0.584336 0.74131 0.990758
695 1 0.905751 0.671927 0.599726
696 1 0.824395 0.737033 0.594318
793 1 0.995672 0.51606 0.836656
719 1 0.931615 0.841334 0.582409
671 1 0.917838 0.500859 0.600935
700 1 0.0215278 0.905593 0.58061
694 1 0.913526 0.742407 0.515316
704 1 0.168199 0.912609 0.578989
219 1 0.081562 0.999663 0.579404
708 1 0.336637 0.927902 0.587482
297 1 0.330475 0.998197 0.662356
712 1 0.499787 0.918826 0.576089
827 1 0.414899 0.676099 0.902407
716 1 0.665875 0.904076 0.575067
442 1 0.411146 0.568433 0.994947
720 1 0.848435 0.912118 0.584547
714 1 0.761685 0.909565 0.510649
722 1 0.0869875 0.575145 0.667169
434 1 0.0911227 0.600643 0.99695
724 1 0.00386245 0.580927 0.745837
739 1 0.764772 0.512183 0.761375
794 1 0.0883518 0.581171 0.840613
840 1 0.824417 0.756749 0.906522
726 1 0.248112 0.580754 0.671636
812 1 0.667062 0.573602 0.905035
728 1 0.169443 0.578433 0.751321
847 1 0.269882 0.8335 0.914021
798 1 0.25149 0.583582 0.831202
824 1 0.177672 0.773245 0.911267
730 1 0.420052 0.580203 0.669074
839 1 0.915806 0.666868 0.916998
732 1 0.333266 0.591978 0.74721
828 1 0.342708 0.756948 0.90336
802 1 0.413926 0.577342 0.829332
859 1 0.743141 0.82455 0.918562
734 1 0.590382 0.58492 0.672114
808 1 0.490271 0.576071 0.909797
736 1 0.504231 0.577035 0.751664
836 1 0.657699 0.743402 0.920054
806 1 0.567464 0.581344 0.838145
835 1 0.741712 0.670016 0.912365
738 1 0.743352 0.585772 0.670604
855 1 0.57915 0.837227 0.903476
740 1 0.667552 0.57621 0.755145
309 1 0.840084 0.980882 0.657111
810 1 0.760861 0.592975 0.83894
832 1 0.504274 0.758717 0.904617
742 1 0.91522 0.578104 0.677487
823 1 0.244754 0.675331 0.915879
744 1 0.853029 0.576704 0.7565
831 1 0.585775 0.654132 0.920035
814 1 0.906972 0.594684 0.845422
745 1 0.990374 0.656445 0.664164
746 1 0.0747252 0.746406 0.667204
747 1 0.0896818 0.659605 0.747092
748 1 0.00843242 0.740731 0.753206
769 1 0.00594393 0.836265 0.663395
771 1 0.0820922 0.830226 0.738458
817 1 0.00151665 0.664754 0.820718
818 1 0.0840912 0.747076 0.833184
841 1 0.990508 0.82704 0.839239
749 1 0.159057 0.660311 0.674269
750 1 0.25012 0.753134 0.686177
751 1 0.242595 0.670841 0.761383
752 1 0.157492 0.740516 0.749379
773 1 0.173489 0.833307 0.665835
775 1 0.246821 0.852056 0.74328
821 1 0.166625 0.674515 0.839176
822 1 0.256857 0.775997 0.813694
845 1 0.163994 0.833551 0.823517
753 1 0.34355 0.676454 0.676499
754 1 0.425745 0.755657 0.682923
755 1 0.423193 0.666072 0.757107
756 1 0.339508 0.747419 0.752632
777 1 0.335002 0.827992 0.672652
779 1 0.418265 0.83945 0.738314
825 1 0.333418 0.678294 0.829495
826 1 0.411696 0.752305 0.828235
849 1 0.334974 0.850467 0.82371
757 1 0.506105 0.665582 0.657792
758 1 0.584878 0.748211 0.661121
759 1 0.57648 0.669441 0.755745
760 1 0.498475 0.751969 0.757378
781 1 0.506696 0.857096 0.666215
783 1 0.589727 0.834564 0.737367
829 1 0.506301 0.670727 0.83461
830 1 0.593252 0.75936 0.829389
853 1 0.496597 0.836024 0.826187
761 1 0.665526 0.666479 0.662034
762 1 0.744802 0.741353 0.667459
763 1 0.744814 0.65752 0.747994
764 1 0.664696 0.749433 0.735549
785 1 0.660924 0.832622 0.659928
787 1 0.730577 0.841171 0.745954
833 1 0.666735 0.659633 0.826029
834 1 0.742411 0.746019 0.827329
857 1 0.661569 0.844165 0.82733
765 1 0.827188 0.66981 0.687113
766 1 0.914892 0.763861 0.669924
767 1 0.911055 0.660594 0.755972
768 1 0.832933 0.76311 0.750308
789 1 0.820495 0.826458 0.661659
791 1 0.929953 0.831758 0.751017
837 1 0.835158 0.677472 0.835203
838 1 0.910565 0.750568 0.828353
861 1 0.828709 0.834863 0.824262
770 1 0.0900796 0.922221 0.662662
772 1 0.00459946 0.915489 0.74415
842 1 0.0694527 0.92083 0.830855
774 1 0.248187 0.919801 0.660353
776 1 0.152617 0.914686 0.752851
846 1 0.244269 0.917197 0.827265
778 1 0.422303 0.918073 0.660248
780 1 0.34189 0.922112 0.738949
850 1 0.435754 0.929012 0.825745
782 1 0.588247 0.91844 0.649956
784 1 0.504723 0.929063 0.733387
854 1 0.588453 0.9179 0.817179
786 1 0.75255 0.911422 0.660207
788 1 0.664506 0.932245 0.740982
858 1 0.754896 0.916213 0.841654
790 1 0.922194 0.909422 0.674104
792 1 0.827237 0.917214 0.742992
862 1 0.915027 0.910415 0.827714
820 1 0.000949131 0.745955 0.918417
796 1 0.996585 0.588954 0.909955
851 1 0.418058 0.858922 0.912817
800 1 0.179494 0.588606 0.914157
843 1 0.0751712 0.823254 0.918262
804 1 0.338427 0.59928 0.903383
815 1 0.926357 0.50574 0.91591
670 1 0.911237 0.573291 0.513423
494 1 0.592016 0.9011 0.997093
235 1 0.756151 0.990375 0.574017
311 1 0.918414 0.996758 0.744856
709 1 0.493253 0.831379 0.513755
379 1 0.754898 0.996992 0.916078
458 1 0.0833009 0.744722 0.993754
305 1 0.66809 0.998015 0.652253
727 1 0.254029 0.502853 0.733675
797 1 0.177344 0.501142 0.836776
737 1 0.651586 0.500679 0.667112
795 1 0.0890618 0.510877 0.912516
733 1 0.498105 0.503296 0.666344
706 1 0.424314 0.932429 0.50829
433 1 0.0103159 0.514853 0.990708
805 1 0.498673 0.506979 0.830278
811 1 0.756631 0.502157 0.911535
295 1 0.237341 0.998411 0.748583
223 1 0.249466 0.993646 0.581131
659 1 0.425611 0.503204 0.571298
486 1 0.235507 0.921668 0.987781
498 1 0.738683 0.917147 0.984568
718 1 0.928373 0.903222 0.504604
449 1 0.671425 0.51138 0.988008
650 1 0.0963005 0.582493 0.507534
466 1 0.41972 0.778122 0.975317
713 1 0.669343 0.823867 0.504039
445 1 0.497293 0.501541 0.99433
453 1 0.830413 0.503148 0.99148
477 1 0.833976 0.675558 0.991688
469 1 0.496978 0.662074 0.984998
690 1 0.753252 0.745839 0.516645
705 1 0.337608 0.844437 0.515646
702 1 0.246514 0.914296 0.501856
457 1 0.9892 0.66233 0.994569
501 1 0.819972 0.837463 0.994841
237 1 0.848804 0.993966 0.501624
