ITEM: TIMESTEP
30000
ITEM: NUMBER OF ATOMS
500
ITEM: BOX BOUNDS pp pp pp
0.0000000000000000e+00 2.6299999999999997e+01
0.0000000000000000e+00 2.6299999999999997e+01
0.0000000000000000e+00 2.6299999999999997e+01
ITEM: ATOMS id type xs ys zs
23 1 0.0966632 0.19319 0.0858028
52 1 0.104174 0.10314 0.180631
51 1 0.00531315 0.00873984 0.204498
2 1 0.111317 0.0977474 0.0031321
55 1 0.183418 0.00559376 0.207957
75 1 0.221685 0.209815 0.18542
8 1 0.207038 0.103657 0.0988038
27 1 0.310085 0.203983 0.0916379
56 1 0.290932 0.0900763 0.202702
79 1 0.396873 0.21145 0.188943
6 1 0.308319 0.103567 0.00490303
9 1 0.397968 0.0122882 0.000285822
7 1 0.28544 0.00793086 0.102075
25 1 0.202361 0.200935 0.00435561
12 1 0.402031 0.0960504 0.108131
59 1 0.400107 0.00241673 0.206401
31 1 0.502869 0.208801 0.119663
60 1 0.500419 0.0900991 0.211116
16 1 0.596701 0.107474 0.12297
29 1 0.419071 0.204538 0.0224165
33 1 0.583904 0.195176 0.0187137
10 1 0.503299 0.0853262 0.0206785
83 1 0.61678 0.208318 0.19322
35 1 0.699699 0.200706 0.0980478
64 1 0.714347 0.113465 0.200448
20 1 0.798567 0.0990247 0.100017
87 1 0.794381 0.214619 0.194756
17 1 0.784933 0.0101818 0.0102542
14 1 0.668203 0.0856019 0.00210261
37 1 0.798664 0.208466 0.0090308
71 1 0.99573 0.196036 0.178972
4 1 0.998 0.102096 0.0919295
39 1 0.88347 0.186722 0.112356
68 1 0.902303 0.101393 0.202618
18 1 0.89196 0.0910673 0.00254268
19 1 0.881851 0.0190249 0.103421
42 1 0.100269 0.411353 0.101229
72 1 0.0903948 0.306568 0.206219
28 1 0.196648 0.308899 0.106926
24 1 0.00922092 0.304548 0.0953691
301 1 0.105478 0.496777 0.200394
22 1 0.0983107 0.299469 0.0100101
43 1 0.194151 0.407573 0.0172708
41 1 0.00146898 0.405388 0.0132742
93 1 0.206363 0.423329 0.206407
44 1 0.300102 0.39994 0.103355
76 1 0.296684 0.307477 0.180834
26 1 0.289196 0.289923 0.00516962
45 1 0.397499 0.397499 0.00554421
256 1 0.40012 0.487223 0.103821
32 1 0.405045 0.308373 0.104561
95 1 0.408052 0.417754 0.20612
46 1 0.503949 0.389508 0.0798451
80 1 0.507646 0.315477 0.199874
36 1 0.608617 0.291925 0.0904366
97 1 0.607185 0.401819 0.192709
48 1 0.690941 0.412989 0.0699977
84 1 0.699572 0.315895 0.172418
307 1 0.705581 0.497255 0.187496
309 1 0.888897 0.496106 0.204897
99 1 0.809386 0.40102 0.183389
40 1 0.810389 0.298071 0.0920815
91 1 0.996546 0.395211 0.184327
50 1 0.900335 0.394379 0.0865784
88 1 0.90899 0.304479 0.190832
38 1 0.897614 0.294106 0.00594529
103 1 0.185571 0.0186719 0.387272
53 1 0.0910586 0.0166675 0.308004
73 1 0.0891457 0.205186 0.285343
102 1 0.0856301 0.123607 0.394198
113 1 0.185695 0.202058 0.384706
58 1 0.184968 0.119813 0.284869
126 1 0.0945554 0.016114 0.490025
57 1 0.285699 0.0101209 0.301577
105 1 0.399567 0.00665676 0.412807
77 1 0.296343 0.192702 0.292592
104 1 0.297018 0.100941 0.408587
115 1 0.391307 0.207271 0.392171
129 1 0.20782 0.107275 0.497351
61 1 0.495329 0.00146498 0.312502
140 1 0.495326 0.208778 0.482092
62 1 0.402249 0.116683 0.279312
81 1 0.503078 0.205712 0.274718
106 1 0.506497 0.108384 0.374139
117 1 0.589924 0.205088 0.388145
133 1 0.596277 0.0973344 0.480294
66 1 0.614658 0.110183 0.285251
85 1 0.707699 0.202392 0.294694
108 1 0.700262 0.106898 0.392106
119 1 0.792352 0.193449 0.39817
65 1 0.717108 0.0042731 0.32367
142 1 0.701816 0.214454 0.498223
107 1 0.600674 0.00332923 0.394511
101 1 0.98621 0.0040774 0.402606
69 1 0.894808 0.00293593 0.30588
109 1 0.806858 0.0247192 0.407593
111 1 0.99451 0.206279 0.396869
54 1 0.995437 0.110948 0.298577
70 1 0.807681 0.0945489 0.297605
110 1 0.906301 0.110785 0.384869
89 1 0.886337 0.199389 0.302666
127 1 0.985851 0.113942 0.492827
122 1 0.188821 0.38792 0.388094
92 1 0.100447 0.410763 0.299284
112 1 0.0927144 0.297217 0.403284
146 1 0.106593 0.378931 0.499932
351 1 0.089879 0.475494 0.399751
139 1 0.207177 0.294216 0.493183
78 1 0.204093 0.298869 0.277224
123 1 0.39248 0.395088 0.386692
114 1 0.291527 0.29509 0.387886
82 1 0.384791 0.308725 0.287522
94 1 0.295641 0.401288 0.291517
147 1 0.307402 0.406065 0.468877
148 1 0.48992 0.412056 0.497905
116 1 0.491082 0.305253 0.372587
141 1 0.403969 0.304915 0.497958
143 1 0.581655 0.300207 0.491645
86 1 0.597475 0.296854 0.29678
96 1 0.512353 0.404464 0.297686
353 1 0.500856 0.499888 0.377572
308 1 0.612564 0.488669 0.288959
118 1 0.697585 0.295417 0.38512
124 1 0.605403 0.406576 0.401267
90 1 0.78718 0.29321 0.292764
98 1 0.689971 0.397364 0.287572
355 1 0.898564 0.496184 0.393147
100 1 0.884459 0.39407 0.291022
120 1 0.898352 0.2982 0.393486
121 1 0.989126 0.395446 0.372277
125 1 0.808317 0.390457 0.407692
74 1 0.982683 0.291829 0.296166
302 1 0.997569 0.498617 0.292121
376 1 0.986604 0.478785 0.493232
145 1 0.809896 0.297525 0.49859
150 1 0.900924 0.386649 0.49879
152 1 0.0839337 0.102769 0.58941
173 1 0.0988648 0.197687 0.692758
175 1 0.196991 0.193398 0.601621
136 1 0.0961212 0.195271 0.508967
158 1 0.213067 0.119377 0.721921
156 1 0.303253 0.107075 0.597426
177 1 0.323607 0.195879 0.697253
155 1 0.203891 0.00878046 0.60741
157 1 0.312604 0.00100296 0.685846
138 1 0.312916 0.2049 0.501966
179 1 0.40026 0.219628 0.595909
162 1 0.402811 0.106408 0.676132
160 1 0.503951 0.0956155 0.582386
181 1 0.504121 0.208136 0.713182
183 1 0.597807 0.202962 0.591835
161 1 0.508001 0.00985758 0.690966
131 1 0.405899 0.105357 0.516119
166 1 0.601532 0.0982384 0.698952
163 1 0.602863 0.00721352 0.600289
164 1 0.701769 0.104786 0.597636
185 1 0.710206 0.188373 0.693812
165 1 0.714434 0.00401987 0.700929
132 1 0.6931 0.0195711 0.508103
135 1 0.792162 0.103852 0.518401
154 1 0.993941 0.0932671 0.694165
171 1 0.986044 0.199544 0.597887
170 1 0.806989 0.100635 0.712521
187 1 0.809547 0.20213 0.603823
168 1 0.901781 0.104443 0.607766
189 1 0.901432 0.206366 0.712335
134 1 0.909766 0.000825723 0.503024
169 1 0.89975 0.00738205 0.695603
144 1 0.882718 0.200016 0.503801
172 1 0.100616 0.298442 0.600907
192 1 0.111327 0.403405 0.692142
174 1 0.00702315 0.297982 0.711246
402 1 0.0076987 0.488519 0.705776
178 1 0.198973 0.293681 0.704026
401 1 0.0890338 0.485004 0.592633
404 1 0.204594 0.494118 0.703093
406 1 0.398159 0.491928 0.695893
193 1 0.201554 0.392174 0.597818
176 1 0.288588 0.282654 0.611375
194 1 0.297255 0.394875 0.703486
195 1 0.39225 0.388965 0.604506
182 1 0.395557 0.295966 0.703877
403 1 0.294368 0.487665 0.592247
378 1 0.387409 0.499387 0.510883
180 1 0.501878 0.311196 0.589373
196 1 0.494645 0.383252 0.702517
186 1 0.595743 0.295506 0.703543
197 1 0.592805 0.407545 0.62097
405 1 0.502116 0.499467 0.595384
149 1 0.700096 0.388969 0.523031
184 1 0.704453 0.285679 0.604776
198 1 0.699135 0.389392 0.702032
199 1 0.787675 0.415259 0.627036
408 1 0.602983 0.496324 0.713161
380 1 0.796715 0.493425 0.505845
379 1 0.612907 0.487801 0.502019
190 1 0.801872 0.299912 0.707776
191 1 0.998063 0.400968 0.604834
188 1 0.905035 0.309738 0.621827
200 1 0.918365 0.39544 0.722518
137 1 0.997743 0.29918 0.500203
410 1 0.815431 0.497942 0.717005
409 1 0.893635 0.487698 0.602914
201 1 0.0272435 0.00280591 0.772853
202 1 0.115028 0.089781 0.801369
223 1 0.089964 0.19873 0.904816
225 1 0.180621 0.205363 0.810117
221 1 0.00611221 0.180665 0.789119
204 1 0.00818034 0.0908304 0.913176
208 1 0.200933 0.117386 0.907527
206 1 0.300098 0.113686 0.810389
227 1 0.303599 0.196176 0.898884
229 1 0.396667 0.198261 0.805409
212 1 0.395564 0.0906165 0.906114
207 1 0.286517 0.0041494 0.900461
209 1 0.383549 0.0141002 0.793297
211 1 0.510598 0.004517 0.896107
210 1 0.483606 0.0902866 0.804377
231 1 0.492766 0.181382 0.908667
216 1 0.586031 0.0957666 0.885855
233 1 0.601264 0.194464 0.806979
214 1 0.70227 0.105641 0.808046
235 1 0.698468 0.20044 0.924446
220 1 0.790642 0.0869082 0.911893
237 1 0.808731 0.184782 0.820741
239 1 0.919325 0.186996 0.897196
218 1 0.912281 0.0692142 0.812898
21 1 0.996287 0.216149 0.998359
241 1 0.0147179 0.3953 0.805196
224 1 0.0109226 0.309665 0.892968
228 1 0.188348 0.296167 0.905772
222 1 0.113419 0.308364 0.800078
242 1 0.0983936 0.413701 0.911136
451 1 0.105091 0.494431 0.804519
453 1 0.296167 0.486203 0.803787
253 1 0.309331 0.498577 0.998396
454 1 0.212472 0.493728 0.898852
226 1 0.302565 0.280419 0.801303
243 1 0.209217 0.396575 0.811751
232 1 0.39521 0.291417 0.911296
245 1 0.386575 0.380891 0.8166
244 1 0.286672 0.383134 0.91194
456 1 0.40268 0.497625 0.90174
230 1 0.500364 0.310874 0.808868
246 1 0.500361 0.406099 0.911425
247 1 0.597628 0.401593 0.802272
455 1 0.489226 0.482391 0.787896
30 1 0.509922 0.291348 0.990009
47 1 0.605175 0.397955 0.980344
240 1 0.797886 0.295345 0.910219
234 1 0.678369 0.295981 0.798435
248 1 0.710337 0.397432 0.889032
458 1 0.600845 0.49525 0.887369
236 1 0.601567 0.289871 0.904756
457 1 0.70779 0.486306 0.786479
34 1 0.700148 0.303626 0.999677
257 1 0.707467 0.495722 0.970603
238 1 0.905335 0.301754 0.815914
459 1 0.913141 0.494095 0.805621
250 1 0.923335 0.413235 0.910882
249 1 0.801535 0.398246 0.80772
49 1 0.810055 0.40779 0.982227
460 1 0.822726 0.495884 0.900301
263 1 0.11167 0.624593 0.112153
312 1 0.0916765 0.717488 0.205523
311 1 0.00278075 0.605208 0.199183
252 1 0.015149 0.533027 0.0853982
254 1 0.196131 0.510084 0.103094
315 1 0.200609 0.60274 0.208993
268 1 0.207192 0.718233 0.114073
267 1 0.306675 0.602254 0.105315
316 1 0.306051 0.694009 0.202154
319 1 0.389022 0.602441 0.206018
303 1 0.298283 0.509293 0.194147
266 1 0.303202 0.696873 0.00700769
272 1 0.403845 0.692406 0.111488
271 1 0.495162 0.601894 0.111457
320 1 0.505605 0.697892 0.193632
305 1 0.507491 0.50762 0.196862
270 1 0.506436 0.708621 0.00337318
258 1 0.594442 0.510874 0.0980348
273 1 0.579799 0.596067 0.00535229
255 1 0.501162 0.504365 0.0113541
323 1 0.612333 0.595249 0.195938
276 1 0.603395 0.678819 0.107943
275 1 0.70382 0.591947 0.0693448
324 1 0.70586 0.686433 0.198283
280 1 0.786651 0.682891 0.0915989
327 1 0.799655 0.586967 0.193615
274 1 0.682742 0.702239 0.000322909
264 1 0.994499 0.697806 0.111109
279 1 0.898492 0.609259 0.0967412
328 1 0.887843 0.708151 0.193237
260 1 0.810876 0.500858 0.0877749
285 1 0.19759 0.807857 0.00951569
283 1 0.101093 0.801369 0.107653
332 1 0.0752532 0.900213 0.192007
281 1 0.00770416 0.774076 0.00326112
3 1 0.0932101 0.998719 0.0996358
282 1 0.0941563 0.899715 0.020914
289 1 0.399041 0.795458 0.0260958
335 1 0.202753 0.817795 0.21306
288 1 0.204152 0.892018 0.114591
287 1 0.29934 0.808568 0.124473
336 1 0.290201 0.921938 0.208144
339 1 0.394155 0.804489 0.205049
286 1 0.312837 0.902622 0.0299489
5 1 0.204726 0.990712 0.00901812
11 1 0.505144 0.999836 0.122954
13 1 0.58689 0.983982 0.0188363
292 1 0.41603 0.896117 0.106792
291 1 0.4982 0.806428 0.12341
340 1 0.494408 0.909302 0.215685
293 1 0.598428 0.803552 0.0228856
15 1 0.69267 0.997116 0.0964854
63 1 0.627947 0.992812 0.224199
343 1 0.604622 0.779409 0.179599
296 1 0.600353 0.90802 0.132394
295 1 0.699285 0.791771 0.099032
344 1 0.719044 0.910284 0.192287
347 1 0.796378 0.808769 0.21322
67 1 0.795927 0.997169 0.213229
294 1 0.699333 0.900708 0.0187735
298 1 0.89233 0.895905 0.00802327
284 1 0.985926 0.886928 0.0891786
331 1 0.982054 0.787478 0.201578
300 1 0.805368 0.909737 0.103765
299 1 0.870162 0.796484 0.0956235
348 1 0.896972 0.914532 0.194606
1 1 0.997801 0.982397 0.0126622
313 1 0.0830658 0.607635 0.297803
357 1 0.0898692 0.708446 0.402352
358 1 0.154388 0.592014 0.399532
318 1 0.191095 0.706969 0.293745
304 1 0.197448 0.500689 0.310045
317 1 0.279383 0.601676 0.310136
359 1 0.287916 0.700712 0.38539
352 1 0.296611 0.514545 0.406657
306 1 0.388261 0.501494 0.291703
360 1 0.406887 0.605857 0.411021
322 1 0.415055 0.706437 0.283282
321 1 0.505702 0.598048 0.296688
361 1 0.504225 0.702927 0.400695
326 1 0.597248 0.688655 0.280148
385 1 0.511051 0.590253 0.499406
354 1 0.719055 0.504243 0.412935
310 1 0.799408 0.500969 0.306447
362 1 0.607277 0.580623 0.404949
325 1 0.709249 0.593233 0.302232
363 1 0.696811 0.696062 0.377815
388 1 0.606187 0.692146 0.488264
390 1 0.77717 0.683463 0.495917
356 1 0.986618 0.59695 0.39202
314 1 0.97849 0.707224 0.30702
330 1 0.819136 0.693017 0.30051
329 1 0.912474 0.596151 0.292411
364 1 0.809191 0.603077 0.397423
365 1 0.88396 0.693709 0.410696
391 1 0.0915687 0.810146 0.48544
394 1 0.182348 0.912536 0.479841
333 1 0.0969668 0.80246 0.291094
338 1 0.190658 0.905093 0.307578
367 1 0.0767217 0.914504 0.400893
396 1 0.379715 0.911672 0.493645
128 1 0.28423 0.998002 0.49998
368 1 0.206859 0.801206 0.404775
337 1 0.300125 0.806132 0.308771
369 1 0.293899 0.918036 0.397365
342 1 0.379738 0.902542 0.302498
130 1 0.516183 0.984713 0.482896
372 1 0.59393 0.786587 0.377434
341 1 0.507183 0.798939 0.284798
371 1 0.499069 0.888293 0.386318
370 1 0.401889 0.790369 0.409421
400 1 0.784952 0.925203 0.493217
346 1 0.605011 0.887997 0.306216
345 1 0.711885 0.805031 0.302931
374 1 0.798672 0.799818 0.410499
373 1 0.691688 0.894946 0.401361
397 1 0.695779 0.794368 0.49231
398 1 0.622677 0.899745 0.497914
350 1 0.811075 0.90637 0.306327
349 1 0.890716 0.806501 0.300336
375 1 0.901994 0.899686 0.399676
366 1 0.97851 0.794405 0.409702
334 1 0.989289 0.902551 0.298924
412 1 0.112022 0.702842 0.592917
413 1 0.116673 0.579744 0.691239
411 1 0.00659954 0.590655 0.603944
415 1 0.19682 0.593821 0.601285
414 1 0.0125507 0.696534 0.693221
381 1 0.0910104 0.599443 0.503894
377 1 0.191071 0.500467 0.512379
418 1 0.214862 0.698233 0.687001
416 1 0.318664 0.697966 0.592365
417 1 0.317466 0.599103 0.68547
383 1 0.287787 0.587751 0.508267
384 1 0.218567 0.685431 0.502779
419 1 0.404383 0.596851 0.596719
422 1 0.401506 0.708322 0.695307
420 1 0.505741 0.686355 0.603397
421 1 0.496374 0.580954 0.704578
386 1 0.410141 0.698673 0.506523
423 1 0.612316 0.593933 0.610162
426 1 0.609513 0.689156 0.696283
424 1 0.691317 0.695828 0.582492
425 1 0.70732 0.596854 0.706628
430 1 0.791474 0.696018 0.710036
387 1 0.691822 0.585372 0.512021
407 1 0.697718 0.500276 0.607014
389 1 0.907268 0.600543 0.515086
427 1 0.801253 0.582167 0.595167
428 1 0.906144 0.70387 0.603305
429 1 0.910607 0.593 0.702036
382 1 0.995144 0.716107 0.522412
432 1 0.0975258 0.916006 0.588001
433 1 0.12257 0.795873 0.683331
435 1 0.19875 0.811908 0.58806
431 1 0.0136163 0.814024 0.611546
153 1 0.113094 0.994339 0.688613
438 1 0.20057 0.893202 0.705195
436 1 0.288576 0.909156 0.60169
437 1 0.315675 0.80553 0.678103
393 1 0.309663 0.816199 0.502071
439 1 0.412075 0.810161 0.591755
442 1 0.410552 0.907099 0.718498
440 1 0.522096 0.896135 0.597717
441 1 0.500262 0.797882 0.689631
446 1 0.593951 0.919496 0.706822
159 1 0.419152 0.997808 0.586821
395 1 0.508352 0.805838 0.504319
443 1 0.602024 0.787916 0.607248
444 1 0.687922 0.893247 0.618842
445 1 0.700188 0.794415 0.706594
447 1 0.776465 0.794077 0.604429
167 1 0.804131 0.994925 0.598117
392 1 0.991309 0.891591 0.50588
151 1 0.994596 0.99252 0.594703
450 1 0.817557 0.895665 0.694036
399 1 0.8827 0.79922 0.507808
434 1 0.996042 0.908028 0.695899
448 1 0.90693 0.895186 0.598211
449 1 0.904242 0.796393 0.699364
261 1 0.00328381 0.630069 0.993198
262 1 0.110761 0.703226 0.987947
452 1 0.00869254 0.512326 0.895729
462 1 0.118475 0.693192 0.793059
463 1 0.104436 0.604565 0.89935
461 1 0.00747719 0.60911 0.786691
464 1 0.0244843 0.697723 0.88823
251 1 0.107171 0.51364 0.987097
465 1 0.20595 0.598552 0.787496
468 1 0.214681 0.704971 0.894331
466 1 0.299068 0.694288 0.793371
467 1 0.294894 0.606485 0.888202
472 1 0.39083 0.685071 0.902088
469 1 0.396341 0.579015 0.799238
265 1 0.207749 0.592922 0.987643
470 1 0.500472 0.699893 0.801953
471 1 0.492024 0.602419 0.901284
476 1 0.583042 0.719939 0.895065
473 1 0.586334 0.58771 0.796671
269 1 0.411802 0.597548 0.999153
277 1 0.79552 0.609876 0.980601
474 1 0.692347 0.698286 0.795372
475 1 0.690108 0.61644 0.900398
480 1 0.790533 0.709635 0.88213
477 1 0.788864 0.599525 0.811106
259 1 0.918758 0.506029 0.987262
478 1 0.889113 0.695149 0.791173
479 1 0.911146 0.610154 0.89421
278 1 0.87677 0.708297 0.994416
203 1 0.111146 0.989597 0.886275
484 1 0.00988775 0.902994 0.907649
482 1 0.0971406 0.859794 0.7992
483 1 0.112181 0.810414 0.906221
205 1 0.209258 0.995593 0.782468
486 1 0.306094 0.912148 0.804656
492 1 0.391467 0.90475 0.921278
485 1 0.219403 0.796798 0.809963
487 1 0.32333 0.795746 0.897966
488 1 0.220178 0.887138 0.897979
489 1 0.406568 0.798747 0.801335
496 1 0.598845 0.897841 0.914347
493 1 0.594388 0.80863 0.801662
490 1 0.507325 0.90548 0.814125
491 1 0.474597 0.782882 0.906116
290 1 0.493842 0.879816 0.995461
213 1 0.60988 0.996198 0.810552
497 1 0.79607 0.806539 0.796894
215 1 0.708355 0.988818 0.90188
494 1 0.701437 0.905072 0.79367
495 1 0.688292 0.801154 0.897099
297 1 0.784511 0.800954 0.999007
219 1 0.902959 0.99127 0.91818
499 1 0.899772 0.79911 0.890165
498 1 0.904704 0.900944 0.814348
500 1 0.802811 0.889782 0.910037
481 1 0.993605 0.791743 0.796892
217 1 0.803121 0.983132 0.790383
