ITEM: TIMESTEP
21000
ITEM: NUMBER OF ATOMS
2048
ITEM: BOX BOUNDS pp pp pp
0.0000000000000000e+00 4.2079999999999998e+01
0.0000000000000000e+00 4.2079999999999998e+01
0.0000000000000000e+00 4.2079999999999998e+01
ITEM: ATOMS id type xs ys zs
8 1 0.115533 0.0697592 0.0803182
3 1 0.0630888 0.00617009 0.0663621
1 1 0.00552756 0.0135573 0.00168232
5 1 0.122295 0.0109247 0.00677629
12 1 0.249465 0.0680089 0.0594079
39 1 0.180933 0.116681 0.0661752
7 1 0.187491 0.0172212 0.0601064
37 1 0.131062 0.120002 0.00865295
9 1 0.247727 0.00675564 0.00674552
141 1 0.369962 0.0106681 0.119298
11 1 0.310621 0.012816 0.063481
138 1 0.318767 0.0739545 0.123393
10 1 0.302888 0.0830567 0.00570554
16 1 0.376026 0.0684565 0.0649019
15 1 0.437267 0.00474635 0.0573306
173 1 0.381386 0.124225 0.122719
45 1 0.382384 0.12216 0.00698841
14 1 0.434593 0.0643369 0.00265027
20 1 0.508473 0.0635771 0.0609859
146 1 0.574747 0.0612043 0.122489
51 1 0.566129 0.121278 0.0653634
19 1 0.564424 0.0084497 0.0428874
145 1 0.50971 0.0077931 0.116007
24 1 0.636069 0.067891 0.0626762
23 1 0.686503 0.00829869 0.0706513
22 1 0.692756 0.0637339 0.00218893
28 1 0.755833 0.0624627 0.0588432
154 1 0.811367 0.0679264 0.121586
185 1 0.75 0.120507 0.113601
27 1 0.818232 0.0012867 0.0505553
153 1 0.757518 0.00337535 0.113495
32 1 0.879315 0.0619055 0.0614636
4 1 0.99536 0.0675511 0.0566746
158 1 0.941818 0.0643679 0.117665
31 1 0.93482 0.00575067 0.0529175
157 1 0.880456 0.00232291 0.120123
30 1 0.938292 0.0717006 0.00345432
35 1 0.0618777 0.127333 0.0619149
36 1 0.00782522 0.188169 0.0642401
40 1 0.107521 0.195966 0.06764
71 1 0.184568 0.245388 0.0679683
169 1 0.238506 0.131421 0.124322
38 1 0.180054 0.193285 0.00163125
41 1 0.243961 0.13576 0.0180798
44 1 0.255689 0.190119 0.0700737
43 1 0.314999 0.134931 0.0665373
75 1 0.316703 0.247127 0.057623
42 1 0.30906 0.18415 0.00524133
48 1 0.378463 0.180135 0.0625531
47 1 0.445701 0.132072 0.0588187
79 1 0.445698 0.238799 0.0592127
174 1 0.43925 0.183767 0.123164
52 1 0.510445 0.179753 0.0612772
56 1 0.622748 0.1879 0.0640151
209 1 0.500516 0.237738 0.11687
213 1 0.62367 0.242601 0.120884
55 1 0.686286 0.132297 0.0617569
182 1 0.686638 0.191069 0.117551
60 1 0.75522 0.18527 0.0634034
59 1 0.815375 0.128844 0.0549874
186 1 0.818496 0.185626 0.114022
58 1 0.809335 0.191435 0.00151195
64 1 0.881081 0.190358 0.0618501
63 1 0.944187 0.133465 0.0578226
95 1 0.941817 0.246657 0.0599422
67 1 0.0542203 0.250742 0.0503256
194 1 0.0557399 0.312683 0.120165
68 1 0.000530749 0.315376 0.0542355
99 1 0.0620465 0.371467 0.0518686
225 1 0.00414978 0.367437 0.121043
197 1 0.125818 0.255352 0.120096
72 1 0.126575 0.314745 0.0578056
76 1 0.246461 0.305735 0.0655841
73 1 0.248971 0.258472 0.00277578
69 1 0.12639 0.2539 0.00249546
70 1 0.193234 0.311491 0.000181775
233 1 0.259199 0.367961 0.119548
205 1 0.383814 0.253463 0.113548
80 1 0.379384 0.316609 0.0562332
206 1 0.447829 0.309617 0.115331
111 1 0.448447 0.368493 0.0554738
78 1 0.452729 0.307061 0.0028638
84 1 0.504375 0.307739 0.058333
83 1 0.563499 0.250296 0.0688105
88 1 0.61746 0.310612 0.058397
210 1 0.560541 0.310666 0.124218
113 1 0.510712 0.366663 0.00267058
82 1 0.555686 0.303227 0.00226343
87 1 0.683063 0.254072 0.0585974
92 1 0.747441 0.313091 0.0680709
119 1 0.679406 0.366163 0.0670494
121 1 0.74792 0.372882 0.00214567
91 1 0.80625 0.252747 0.0525935
123 1 0.814545 0.363956 0.0561075
218 1 0.815019 0.314383 0.121646
221 1 0.8612 0.251392 0.119108
89 1 0.750587 0.252919 0.0010303
96 1 0.883428 0.310684 0.0652582
127 1 0.935573 0.374715 0.0538007
1027 1 0.0641237 0.491022 0.060345
100 1 0.00400501 0.429057 0.0491172
1029 1 0.124045 0.489087 0.0046138
1031 1 0.190877 0.497501 0.0574154
104 1 0.130414 0.427405 0.0716683
103 1 0.196355 0.380197 0.058782
230 1 0.193196 0.443886 0.121227
1161 1 0.251879 0.493741 0.11969
1035 1 0.311955 0.494797 0.0687621
107 1 0.320053 0.379089 0.0524793
108 1 0.254032 0.432275 0.0605793
234 1 0.319023 0.429776 0.119122
112 1 0.384044 0.436291 0.0589955
238 1 0.440811 0.418776 0.122867
116 1 0.498263 0.431604 0.0672968
1165 1 0.381589 0.4932 0.123046
1169 1 0.498542 0.491621 0.121363
1039 1 0.441711 0.491299 0.0657918
115 1 0.560715 0.378712 0.0633025
1043 1 0.558843 0.499194 0.0591645
117 1 0.607448 0.375868 0.00282096
114 1 0.55482 0.435344 0.00357952
1047 1 0.696321 0.49432 0.063246
120 1 0.627736 0.432082 0.059796
1051 1 0.814396 0.499206 0.0527943
124 1 0.756618 0.437395 0.0550844
250 1 0.806652 0.42855 0.116534
1153 1 0.99879 0.494815 0.12004
253 1 0.879451 0.389447 0.116455
128 1 0.876196 0.4449 0.0591613
254 1 0.941655 0.4388 0.107682
130 1 0.0474125 0.0688093 0.125833
129 1 0.00478183 0.00483085 0.132981
136 1 0.11166 0.0686255 0.183091
258 1 0.0535719 0.0622378 0.249919
293 1 0.12086 0.120538 0.249687
133 1 0.119391 0.00518048 0.12659
135 1 0.18322 0.00347517 0.198517
134 1 0.186158 0.0736865 0.126756
140 1 0.237085 0.0680382 0.189351
167 1 0.180333 0.123309 0.184107
266 1 0.315455 0.0654124 0.240715
137 1 0.253939 0.0121113 0.129136
139 1 0.30209 0.00391635 0.194805
142 1 0.441732 0.0642355 0.125382
144 1 0.376326 0.0645684 0.183472
175 1 0.444095 0.122032 0.187031
143 1 0.432013 0.00991549 0.189619
148 1 0.505017 0.0598406 0.191314
179 1 0.56659 0.12023 0.187538
151 1 0.696949 0.00831087 0.188704
152 1 0.635617 0.0659469 0.190217
150 1 0.685408 0.0717428 0.128164
183 1 0.693086 0.12338 0.187745
309 1 0.635423 0.123773 0.243605
156 1 0.758312 0.0551362 0.190085
281 1 0.755685 0.00066067 0.243759
189 1 0.880726 0.110787 0.127809
160 1 0.887684 0.0576934 0.191973
132 1 0.98989 0.060798 0.195159
191 1 0.931003 0.123943 0.201155
162 1 0.0502278 0.203303 0.132035
163 1 0.0576787 0.133348 0.188146
165 1 0.12697 0.139245 0.127266
166 1 0.182033 0.194382 0.133797
168 1 0.126138 0.197339 0.202433
172 1 0.247438 0.183702 0.184771
294 1 0.196206 0.192193 0.243751
171 1 0.316587 0.134879 0.176318
201 1 0.250616 0.245039 0.127914
297 1 0.256892 0.126922 0.241881
170 1 0.324835 0.193563 0.125652
298 1 0.303411 0.188928 0.244338
203 1 0.301173 0.246327 0.18569
176 1 0.386835 0.195968 0.182605
301 1 0.375213 0.129704 0.238838
177 1 0.509729 0.127857 0.128671
180 1 0.505823 0.164316 0.193703
178 1 0.562803 0.187633 0.138771
211 1 0.547038 0.24742 0.196612
306 1 0.574767 0.18715 0.246229
181 1 0.627211 0.135275 0.130084
217 1 0.741095 0.244514 0.127333
184 1 0.646328 0.189529 0.20236
215 1 0.694812 0.246205 0.193715
188 1 0.764255 0.172064 0.183411
187 1 0.829529 0.126802 0.182614
219 1 0.810893 0.246569 0.171434
192 1 0.870716 0.19615 0.189697
190 1 0.932731 0.191911 0.132888
161 1 0.995501 0.131623 0.13291
164 1 0.988199 0.191577 0.194657
229 1 0.120967 0.36678 0.125454
195 1 0.0653629 0.26463 0.187368
227 1 0.0616287 0.364295 0.185512
196 1 0.000445443 0.31537 0.193504
353 1 0.00209616 0.374319 0.246824
198 1 0.187113 0.315878 0.125645
199 1 0.196165 0.250442 0.193355
200 1 0.131733 0.314177 0.190803
204 1 0.249453 0.324227 0.188841
326 1 0.183048 0.319517 0.248164
329 1 0.246848 0.256268 0.248299
202 1 0.311363 0.311427 0.126624
330 1 0.311241 0.30668 0.239722
235 1 0.322312 0.370146 0.186846
237 1 0.381568 0.357296 0.129574
208 1 0.386413 0.293529 0.190471
207 1 0.451402 0.255303 0.181823
239 1 0.436145 0.367807 0.202413
212 1 0.503761 0.315679 0.188443
216 1 0.617363 0.309788 0.189309
241 1 0.502817 0.366903 0.126348
214 1 0.682252 0.303632 0.130375
247 1 0.684697 0.36425 0.185919
249 1 0.746039 0.369088 0.129795
220 1 0.766069 0.310355 0.193218
224 1 0.866889 0.307259 0.200421
193 1 0.986621 0.258523 0.128404
222 1 0.924015 0.315108 0.138768
223 1 0.928243 0.253991 0.186978
350 1 0.932944 0.30923 0.247253
1157 1 0.113053 0.499678 0.126537
226 1 0.0622699 0.433875 0.125927
354 1 0.0570459 0.434023 0.249315
1159 1 0.19856 0.494595 0.184513
231 1 0.185402 0.376958 0.182697
232 1 0.13033 0.438692 0.18487
1163 1 0.312563 0.494137 0.202029
236 1 0.256905 0.420027 0.182211
1167 1 0.437109 0.490661 0.195502
240 1 0.380709 0.425899 0.182591
244 1 0.495335 0.429677 0.187464
245 1 0.617281 0.382961 0.129551
369 1 0.50142 0.375535 0.249888
242 1 0.553908 0.436569 0.129691
243 1 0.565794 0.385522 0.188957
1171 1 0.560159 0.497549 0.188245
1173 1 0.623444 0.496141 0.132106
1297 1 0.512289 0.486266 0.249891
248 1 0.627477 0.441186 0.197474
246 1 0.698822 0.443011 0.128191
252 1 0.746285 0.441162 0.193669
1177 1 0.757127 0.498794 0.133027
251 1 0.81138 0.376102 0.186574
256 1 0.866771 0.434607 0.189414
1179 1 0.813606 0.495832 0.197661
1181 1 0.877871 0.489251 0.132872
228 1 0.997459 0.435953 0.177778
255 1 0.937261 0.377811 0.179172
381 1 0.883492 0.37835 0.247175
382 1 0.949495 0.43247 0.248424
1183 1 0.937721 0.493086 0.19104
261 1 0.118902 0.000274971 0.252159
291 1 0.0613566 0.118836 0.309956
264 1 0.122445 0.05457 0.310415
260 1 0.0017111 0.0648326 0.310406
259 1 0.055941 0.00205363 0.313267
263 1 0.184131 0.00651576 0.313134
262 1 0.178815 0.0727534 0.251696
393 1 0.238723 0.011692 0.374149
390 1 0.183019 0.0742523 0.367263
265 1 0.25729 0.000971654 0.258074
268 1 0.258146 0.0656291 0.304026
272 1 0.367814 0.0606356 0.308791
425 1 0.253688 0.123307 0.369105
270 1 0.429196 0.0566168 0.252919
303 1 0.432481 0.117531 0.30863
271 1 0.445407 0.0061728 0.314163
433 1 0.499635 0.116143 0.371599
429 1 0.384528 0.118459 0.37199
274 1 0.57777 0.0573479 0.253934
305 1 0.505406 0.113446 0.252387
276 1 0.508829 0.0573894 0.315781
402 1 0.569188 0.0481052 0.371738
278 1 0.696335 0.0666185 0.25768
280 1 0.63366 0.0521935 0.308652
282 1 0.831859 0.0641273 0.254943
313 1 0.762917 0.116594 0.252666
284 1 0.751694 0.0594105 0.318726
315 1 0.810411 0.120462 0.316396
410 1 0.816406 0.060514 0.374884
287 1 0.9415 0.00194851 0.318695
289 1 0.997654 0.121418 0.254007
288 1 0.882577 0.0551367 0.312184
286 1 0.94269 0.0519339 0.253875
317 1 0.875223 0.124505 0.265271
319 1 0.93747 0.122399 0.318599
445 1 0.883724 0.120992 0.371792
413 1 0.876254 0.00475088 0.374403
290 1 0.0590645 0.174842 0.257159
421 1 0.118338 0.144887 0.371959
292 1 0.00230583 0.186938 0.317649
323 1 0.0753386 0.23932 0.318274
417 1 0.00215986 0.127096 0.372865
295 1 0.17777 0.12782 0.304883
296 1 0.12834 0.189682 0.305463
300 1 0.248282 0.173678 0.307215
327 1 0.184564 0.248519 0.315563
299 1 0.319553 0.125819 0.314155
426 1 0.305718 0.192171 0.370559
331 1 0.309975 0.246542 0.31096
333 1 0.387059 0.242442 0.252558
302 1 0.44278 0.175974 0.254819
304 1 0.376858 0.188709 0.306387
308 1 0.487122 0.175032 0.322179
335 1 0.440325 0.235417 0.311928
337 1 0.501054 0.241289 0.26726
341 1 0.621657 0.248348 0.25991
307 1 0.562393 0.131259 0.312976
312 1 0.611927 0.186151 0.321855
339 1 0.561839 0.241499 0.322048
310 1 0.698791 0.183909 0.261613
311 1 0.667969 0.126639 0.31812
343 1 0.69736 0.245113 0.314881
345 1 0.764304 0.234698 0.251774
314 1 0.819749 0.174284 0.261508
316 1 0.753097 0.178009 0.324969
347 1 0.822073 0.237948 0.321927
318 1 0.940479 0.178696 0.262421
349 1 0.878962 0.241411 0.256153
320 1 0.8828 0.187716 0.325069
351 1 0.945937 0.243591 0.308543
321 1 0.00614461 0.257949 0.254616
322 1 0.0674023 0.316798 0.251149
324 1 0.00361923 0.315064 0.310433
328 1 0.119083 0.313998 0.3169
355 1 0.0668062 0.371666 0.317136
325 1 0.128048 0.255612 0.254773
359 1 0.180787 0.373618 0.313826
332 1 0.247609 0.314103 0.313564
361 1 0.253577 0.363743 0.253358
457 1 0.255769 0.256671 0.372766
363 1 0.314991 0.368063 0.311875
334 1 0.446436 0.300866 0.251684
336 1 0.382297 0.29631 0.313054
367 1 0.44223 0.356235 0.30877
340 1 0.494993 0.302184 0.327861
365 1 0.377218 0.359139 0.258576
493 1 0.383686 0.366693 0.370782
338 1 0.545915 0.306798 0.265717
344 1 0.612087 0.304293 0.317204
373 1 0.616695 0.369459 0.270692
342 1 0.672998 0.309797 0.266489
473 1 0.749076 0.250567 0.368731
470 1 0.690956 0.319972 0.371896
346 1 0.814096 0.301097 0.259788
348 1 0.758293 0.314047 0.318755
379 1 0.825431 0.372116 0.307394
478 1 0.929881 0.31067 0.369563
352 1 0.879065 0.305976 0.315362
1283 1 0.0541874 0.498991 0.303555
357 1 0.120878 0.379191 0.251134
360 1 0.118329 0.44249 0.314057
356 1 0.0072643 0.429238 0.318521
1289 1 0.244715 0.496365 0.261453
1287 1 0.184388 0.499093 0.309895
358 1 0.188484 0.42937 0.259005
364 1 0.248501 0.424797 0.313647
1291 1 0.316904 0.490261 0.30653
362 1 0.307188 0.428569 0.251327
490 1 0.305618 0.439979 0.373421
368 1 0.374642 0.424728 0.314061
1417 1 0.252097 0.499025 0.368587
1293 1 0.382801 0.487185 0.251878
1421 1 0.37825 0.498632 0.371285
1295 1 0.438521 0.490878 0.310628
366 1 0.440972 0.428798 0.258326
372 1 0.500844 0.43851 0.314939
498 1 0.566926 0.438693 0.373757
371 1 0.555652 0.376826 0.324783
370 1 0.562686 0.431629 0.256927
375 1 0.681002 0.385759 0.320143
376 1 0.62825 0.442309 0.325652
374 1 0.690364 0.440481 0.254801
380 1 0.74821 0.443814 0.315727
1305 1 0.744138 0.497579 0.250959
506 1 0.825325 0.435491 0.356401
1309 1 0.874631 0.494217 0.255649
378 1 0.809797 0.429799 0.251876
377 1 0.752752 0.376719 0.262005
509 1 0.87941 0.380435 0.371364
383 1 0.938511 0.381369 0.312071
384 1 0.88301 0.429515 0.304841
1311 1 0.950133 0.498179 0.313671
1437 1 0.887237 0.499786 0.365447
386 1 0.0663995 0.0613782 0.377063
392 1 0.119925 0.068453 0.440014
387 1 0.0631665 0.00206135 0.448549
388 1 0.00517395 0.0609487 0.436016
391 1 0.17708 0.00535332 0.440242
423 1 0.18298 0.117421 0.438763
396 1 0.249339 0.0674744 0.43686
522 1 0.310665 0.0590281 0.49885
395 1 0.315859 0.00190282 0.430389
394 1 0.312929 0.0691579 0.3773
400 1 0.368596 0.0684097 0.436344
427 1 0.316637 0.124183 0.441071
397 1 0.386089 0.0107546 0.378213
398 1 0.444847 0.0610668 0.383815
431 1 0.432516 0.117415 0.446589
525 1 0.382079 0.00343818 0.497907
565 1 0.621503 0.120087 0.496168
404 1 0.50008 0.0473112 0.438009
408 1 0.615126 0.052773 0.442337
534 1 0.690264 0.0552401 0.496604
406 1 0.673309 0.0618705 0.376491
439 1 0.678106 0.116934 0.436248
412 1 0.747977 0.0623838 0.436021
411 1 0.813994 0.00375683 0.438713
441 1 0.751844 0.119361 0.382763
443 1 0.80948 0.11644 0.44585
414 1 0.94287 0.0560056 0.382336
416 1 0.877735 0.0620721 0.444151
447 1 0.949686 0.116597 0.434595
573 1 0.875744 0.119296 0.498682
542 1 0.938414 0.0553454 0.493375
418 1 0.0574617 0.196231 0.380617
419 1 0.0662911 0.128925 0.434904
451 1 0.0674911 0.246924 0.436498
546 1 0.0599733 0.187915 0.489218
549 1 0.117443 0.127632 0.495206
553 1 0.24415 0.127328 0.498832
453 1 0.130397 0.249656 0.380946
422 1 0.192497 0.187765 0.375015
424 1 0.128745 0.17996 0.440365
428 1 0.249798 0.185778 0.432631
455 1 0.184757 0.243541 0.443956
461 1 0.372468 0.241096 0.39302
459 1 0.305923 0.249562 0.444348
430 1 0.431238 0.180579 0.376195
465 1 0.489169 0.238562 0.38296
432 1 0.380947 0.169301 0.433411
463 1 0.420998 0.249138 0.455383
436 1 0.488925 0.187627 0.450108
434 1 0.552785 0.189229 0.376771
437 1 0.607948 0.130143 0.379232
467 1 0.561642 0.245794 0.44265
435 1 0.553058 0.12577 0.434251
440 1 0.623713 0.193304 0.442726
562 1 0.562831 0.179129 0.49474
469 1 0.639469 0.249006 0.377836
438 1 0.695295 0.181868 0.378532
444 1 0.744628 0.188487 0.445778
566 1 0.684885 0.18102 0.49618
475 1 0.822283 0.244778 0.441172
442 1 0.809282 0.180042 0.388437
448 1 0.872412 0.169844 0.431243
446 1 0.944192 0.181236 0.381562
420 1 0.991427 0.194731 0.444389
479 1 0.927774 0.238819 0.445639
449 1 0.99786 0.24803 0.382876
574 1 0.939761 0.181421 0.498258
450 1 0.0611726 0.306347 0.376869
481 1 0.00549095 0.365817 0.376706
483 1 0.0519997 0.365554 0.445599
577 1 0.000842432 0.256852 0.497936
578 1 0.0583235 0.303026 0.496475
454 1 0.185602 0.315276 0.377806
460 1 0.246825 0.305346 0.449919
487 1 0.190296 0.369833 0.442094
456 1 0.129666 0.299372 0.450694
458 1 0.319922 0.320829 0.382643
489 1 0.250621 0.369407 0.381073
464 1 0.36894 0.307892 0.446379
468 1 0.498898 0.305919 0.440784
462 1 0.43108 0.302011 0.386345
499 1 0.570267 0.37282 0.444014
466 1 0.563309 0.312125 0.387807
472 1 0.620479 0.304137 0.439638
497 1 0.502698 0.372664 0.381209
625 1 0.500601 0.364224 0.490413
471 1 0.692638 0.260963 0.447886
476 1 0.762359 0.313077 0.435568
474 1 0.818239 0.320574 0.376727
477 1 0.872854 0.258012 0.382894
602 1 0.810594 0.311473 0.497865
601 1 0.760885 0.257497 0.493489
480 1 0.882615 0.317696 0.445296
452 1 0.989325 0.304805 0.436507
606 1 0.947831 0.320949 0.499596
485 1 0.12397 0.376001 0.377248
488 1 0.122658 0.437282 0.437599
482 1 0.0560807 0.451002 0.378076
610 1 0.0603851 0.429742 0.497851
486 1 0.17754 0.443906 0.375456
492 1 0.242534 0.442326 0.437303
1545 1 0.24342 0.497156 0.49917
614 1 0.185902 0.430237 0.497498
1541 1 0.126875 0.496524 0.495714
618 1 0.302494 0.44955 0.499735
1419 1 0.315588 0.497621 0.434794
491 1 0.317499 0.387588 0.436289
617 1 0.252111 0.383852 0.489731
1423 1 0.436821 0.49796 0.43809
496 1 0.378988 0.442994 0.436431
494 1 0.43552 0.435019 0.376815
495 1 0.436545 0.376608 0.435152
626 1 0.565779 0.441758 0.496681
500 1 0.501349 0.438529 0.432543
629 1 0.628545 0.389576 0.495735
508 1 0.746608 0.440481 0.434991
502 1 0.69094 0.44317 0.377018
503 1 0.689576 0.380966 0.436942
501 1 0.627399 0.382245 0.38048
504 1 0.629277 0.450641 0.438532
505 1 0.74856 0.389519 0.37712
630 1 0.685099 0.442304 0.494116
512 1 0.866849 0.439772 0.437759
507 1 0.810052 0.381805 0.435748
634 1 0.806334 0.436861 0.494014
511 1 0.930943 0.380009 0.437997
510 1 0.946643 0.430622 0.37815
484 1 0.993134 0.438552 0.446208
1409 1 0.996653 0.49906 0.385493
638 1 0.921852 0.432525 0.499457
520 1 0.119213 0.0629441 0.571592
673 1 0.00671929 0.115519 0.622419
514 1 0.0573114 0.0592027 0.507971
545 1 0.00192259 0.119079 0.500952
524 1 0.237916 0.0696384 0.564712
518 1 0.178136 0.0682031 0.506879
521 1 0.238382 0.0132813 0.511584
519 1 0.184988 0.00162442 0.574734
555 1 0.311718 0.119934 0.559178
528 1 0.374342 0.0523223 0.568082
649 1 0.258784 0.0101435 0.617052
532 1 0.499343 0.0543856 0.571836
685 1 0.376867 0.123031 0.617039
559 1 0.433807 0.11103 0.565133
557 1 0.37743 0.105299 0.505621
526 1 0.446574 0.0535867 0.503859
531 1 0.564105 0.00097174 0.565589
563 1 0.563983 0.123293 0.557335
658 1 0.56402 0.0607286 0.623033
536 1 0.622411 0.0612713 0.555196
530 1 0.549557 0.0593286 0.501822
693 1 0.633409 0.11727 0.62192
567 1 0.684213 0.116672 0.561437
662 1 0.697537 0.0553589 0.615775
540 1 0.744629 0.0584141 0.55986
661 1 0.634594 0.00632571 0.614543
544 1 0.868499 0.0589289 0.568302
539 1 0.809502 0.00895718 0.571089
537 1 0.761378 0.000111205 0.503661
569 1 0.75252 0.1197 0.50404
538 1 0.815256 0.0647886 0.503514
516 1 0.98872 0.060241 0.564038
543 1 0.925351 0.00506179 0.568111
575 1 0.937455 0.113223 0.549482
641 1 0.998999 0.00539816 0.624005
547 1 0.0617061 0.130118 0.56135
548 1 0.00164274 0.185582 0.561675
579 1 0.0552907 0.247948 0.561041
552 1 0.11307 0.189609 0.558338
581 1 0.120372 0.248375 0.508444
551 1 0.174369 0.125705 0.558951
583 1 0.198045 0.247163 0.567831
556 1 0.246473 0.175537 0.561622
550 1 0.183875 0.183856 0.503671
560 1 0.370249 0.184583 0.559359
587 1 0.306733 0.247195 0.5679
682 1 0.296397 0.182329 0.622296
585 1 0.252063 0.240261 0.503523
589 1 0.361566 0.249143 0.505244
554 1 0.309225 0.179037 0.500279
558 1 0.425297 0.184353 0.505275
591 1 0.441782 0.248898 0.560762
689 1 0.498918 0.130056 0.61608
717 1 0.382396 0.240584 0.61711
686 1 0.439521 0.191101 0.623652
561 1 0.493385 0.128116 0.512522
564 1 0.515062 0.191376 0.560416
593 1 0.501668 0.243395 0.504062
690 1 0.565748 0.179046 0.616374
725 1 0.621234 0.249488 0.619945
568 1 0.632627 0.17925 0.554289
572 1 0.741375 0.17521 0.557468
729 1 0.739898 0.239989 0.621168
571 1 0.812564 0.126714 0.567069
576 1 0.872273 0.181025 0.562321
603 1 0.809777 0.24154 0.557622
733 1 0.874821 0.24635 0.619857
605 1 0.871012 0.245386 0.501536
570 1 0.818192 0.17694 0.503297
702 1 0.933454 0.166576 0.618472
611 1 0.0578017 0.372364 0.559637
580 1 0.00393431 0.313696 0.560584
706 1 0.0617072 0.30615 0.618079
584 1 0.128728 0.310545 0.563902
615 1 0.196116 0.364845 0.562535
710 1 0.187122 0.311621 0.623165
709 1 0.128477 0.251286 0.618622
582 1 0.19173 0.307344 0.505632
613 1 0.128861 0.364868 0.504451
588 1 0.25227 0.311451 0.57135
592 1 0.361455 0.304526 0.567704
621 1 0.365811 0.368052 0.504065
586 1 0.310618 0.316258 0.501949
721 1 0.494083 0.254468 0.62087
596 1 0.49826 0.32407 0.568976
590 1 0.428636 0.318564 0.509817
595 1 0.562333 0.252281 0.568371
722 1 0.548987 0.319553 0.623383
757 1 0.615627 0.374658 0.611625
594 1 0.55886 0.303782 0.500694
599 1 0.683983 0.251213 0.556086
600 1 0.630468 0.310337 0.565161
604 1 0.746846 0.307758 0.559238
597 1 0.62658 0.250227 0.501668
598 1 0.691637 0.325809 0.507061
635 1 0.810547 0.373478 0.565168
730 1 0.80569 0.290745 0.616816
765 1 0.874786 0.374725 0.618624
608 1 0.872967 0.312452 0.562618
637 1 0.866413 0.367149 0.508656
633 1 0.753743 0.373101 0.503296
607 1 0.939998 0.259432 0.55665
734 1 0.932583 0.310971 0.618294
639 1 0.932423 0.374239 0.564173
738 1 0.0651977 0.424626 0.621162
737 1 0.000385677 0.376089 0.617354
616 1 0.121361 0.432501 0.54804
1539 1 0.0723678 0.498036 0.569455
1673 1 0.243018 0.499809 0.619769
741 1 0.132862 0.381662 0.610698
620 1 0.244294 0.435937 0.557547
742 1 0.196797 0.436744 0.619152
1543 1 0.182131 0.4856 0.553333
619 1 0.304158 0.383242 0.554771
624 1 0.366947 0.438454 0.563815
746 1 0.308262 0.454374 0.622474
1549 1 0.372214 0.495377 0.500454
623 1 0.440125 0.377506 0.581014
628 1 0.492972 0.433674 0.544508
750 1 0.429974 0.447935 0.62235
622 1 0.423886 0.422332 0.510576
627 1 0.566066 0.384112 0.551542
632 1 0.621787 0.444021 0.56156
631 1 0.685448 0.385755 0.560823
758 1 0.679477 0.439732 0.624534
1559 1 0.686583 0.492693 0.561382
636 1 0.752913 0.449067 0.557221
640 1 0.869748 0.449444 0.564266
612 1 0.995106 0.446722 0.551286
1567 1 0.935699 0.497396 0.568602
766 1 0.927418 0.442689 0.624401
609 1 0.997233 0.381774 0.504918
1665 1 0.999427 0.497797 0.611422
642 1 0.0647209 0.0597224 0.633369
645 1 0.121364 0.00107987 0.630856
644 1 0.00530854 0.0659442 0.690675
677 1 0.12952 0.120235 0.631221
681 1 0.246874 0.116026 0.632225
646 1 0.18392 0.0651748 0.635936
648 1 0.125088 0.0629739 0.694845
647 1 0.190097 0.00685007 0.695798
650 1 0.323145 0.06321 0.627761
652 1 0.250954 0.062006 0.686943
778 1 0.310944 0.0662048 0.74386
651 1 0.323909 0.0124777 0.688999
654 1 0.427076 0.0503884 0.625961
781 1 0.378163 0.00251493 0.747638
656 1 0.384975 0.0732095 0.693649
687 1 0.453426 0.121043 0.682455
660 1 0.504116 0.0485893 0.694858
664 1 0.622283 0.0625415 0.68642
817 1 0.504745 0.118643 0.741265
691 1 0.564426 0.119327 0.67921
668 1 0.739142 0.0684058 0.691622
663 1 0.679675 0.0117189 0.683032
701 1 0.869702 0.12061 0.631802
667 1 0.808624 0.00589613 0.692958
666 1 0.80233 0.0610711 0.636227
672 1 0.87441 0.0591717 0.676255
699 1 0.814397 0.11944 0.692108
665 1 0.752509 0.00220334 0.635098
670 1 0.934639 0.0623056 0.630631
703 1 0.93524 0.112701 0.691721
801 1 0.994161 0.112933 0.746867
671 1 0.944168 0.00204103 0.688843
675 1 0.057858 0.126156 0.694663
674 1 0.0604426 0.176798 0.625031
707 1 0.0615622 0.244785 0.672171
805 1 0.11631 0.129668 0.748632
802 1 0.0610428 0.191895 0.74913
679 1 0.186272 0.127733 0.702339
680 1 0.133495 0.18538 0.678357
678 1 0.193264 0.177471 0.628903
806 1 0.186179 0.190169 0.745537
711 1 0.189225 0.241897 0.685964
713 1 0.244223 0.245898 0.629985
684 1 0.250443 0.177616 0.689348
841 1 0.254572 0.247457 0.738235
683 1 0.323172 0.134379 0.679405
810 1 0.322713 0.195045 0.74299
715 1 0.320311 0.246647 0.677031
688 1 0.387741 0.179335 0.687098
814 1 0.442698 0.169038 0.747526
719 1 0.443662 0.245858 0.684453
849 1 0.489915 0.24441 0.740921
692 1 0.510604 0.18469 0.681765
696 1 0.611355 0.17831 0.683912
818 1 0.557407 0.182452 0.74927
853 1 0.613215 0.243938 0.747102
694 1 0.676054 0.18977 0.628355
695 1 0.677027 0.125973 0.692567
727 1 0.677401 0.246908 0.679329
697 1 0.739513 0.125897 0.633211
700 1 0.740537 0.191938 0.691541
822 1 0.682759 0.194157 0.748994
698 1 0.810029 0.176724 0.625933
731 1 0.815378 0.247123 0.690654
705 1 0.987358 0.243398 0.625835
676 1 0.992593 0.181518 0.686679
704 1 0.884422 0.189075 0.687544
735 1 0.944015 0.249799 0.695589
837 1 0.123525 0.25471 0.745517
708 1 0.00136363 0.306885 0.672442
865 1 0.00164589 0.359689 0.738517
739 1 0.0657789 0.362141 0.683165
833 1 0.00883504 0.252782 0.745423
745 1 0.246892 0.37419 0.632877
712 1 0.132733 0.312876 0.689026
716 1 0.246587 0.306744 0.68528
838 1 0.188313 0.317499 0.748354
714 1 0.312257 0.315008 0.627726
747 1 0.309259 0.370743 0.703701
842 1 0.317218 0.310793 0.747276
720 1 0.371281 0.312604 0.685417
718 1 0.428342 0.305336 0.626954
724 1 0.496436 0.312842 0.684836
845 1 0.381652 0.250109 0.745235
846 1 0.442693 0.308008 0.744336
877 1 0.390917 0.372987 0.749748
723 1 0.560423 0.253516 0.671685
755 1 0.574103 0.369221 0.693177
850 1 0.563916 0.300386 0.74676
728 1 0.627547 0.315454 0.692963
726 1 0.690498 0.312549 0.626017
732 1 0.755001 0.304261 0.691465
761 1 0.752355 0.362457 0.627
736 1 0.866336 0.314489 0.684372
858 1 0.816047 0.317018 0.746057
889 1 0.761487 0.373985 0.747912
767 1 0.929579 0.371202 0.692733
862 1 0.925201 0.310498 0.741019
866 1 0.0596915 0.432001 0.74687
744 1 0.122239 0.439125 0.688167
1667 1 0.0624889 0.499145 0.694059
1797 1 0.123979 0.497061 0.745905
1669 1 0.136595 0.492396 0.625399
743 1 0.179516 0.380728 0.694975
1671 1 0.188774 0.494493 0.690992
1801 1 0.248093 0.487643 0.748426
1675 1 0.327631 0.499549 0.687724
749 1 0.355225 0.383971 0.62924
748 1 0.255751 0.431414 0.687474
752 1 0.373841 0.431585 0.691228
1805 1 0.374321 0.493197 0.7483
751 1 0.43095 0.384484 0.678693
1679 1 0.438368 0.498202 0.697117
881 1 0.493666 0.377989 0.747657
753 1 0.51081 0.386205 0.630114
756 1 0.506615 0.44737 0.692986
754 1 0.569369 0.441589 0.642247
1683 1 0.570296 0.499902 0.692072
759 1 0.684146 0.377261 0.67687
760 1 0.638777 0.447817 0.701983
764 1 0.73238 0.448484 0.68655
1691 1 0.816296 0.499462 0.691327
763 1 0.811763 0.375294 0.687035
762 1 0.801856 0.440588 0.62854
890 1 0.796388 0.445828 0.74601
768 1 0.87348 0.43997 0.69
1695 1 0.935055 0.498951 0.688639
740 1 0.999151 0.437231 0.693669
894 1 0.929874 0.438137 0.746084
771 1 0.0685627 0.00852236 0.813508
770 1 0.0637261 0.058728 0.753807
803 1 0.0575803 0.119621 0.807214
772 1 0.00512663 0.0592621 0.819298
929 1 0.00650968 0.121424 0.865781
773 1 0.125048 0.000528039 0.752831
774 1 0.193046 0.0557531 0.75328
776 1 0.128704 0.0679171 0.80782
807 1 0.196239 0.123215 0.808744
780 1 0.245885 0.0642985 0.813182
777 1 0.255224 0.010357 0.750395
909 1 0.372509 0.00331476 0.87041
811 1 0.309388 0.121956 0.815839
906 1 0.319312 0.0658089 0.873826
905 1 0.257745 0.00338118 0.872491
779 1 0.312569 0.0114625 0.802021
782 1 0.445055 0.065997 0.754181
784 1 0.38385 0.0616483 0.809201
815 1 0.450185 0.114695 0.825252
783 1 0.444333 0.00415419 0.812925
786 1 0.565102 0.0590092 0.751056
788 1 0.509145 0.0646721 0.823824
819 1 0.564365 0.124592 0.81187
792 1 0.615416 0.051611 0.822293
790 1 0.687661 0.0592891 0.754041
791 1 0.688898 0.00304877 0.817704
821 1 0.6268 0.110718 0.763816
789 1 0.63158 0.00275537 0.753839
918 1 0.692219 0.0647678 0.87325
794 1 0.817679 0.0683044 0.753289
796 1 0.753435 0.0696916 0.81834
800 1 0.870048 0.0537342 0.828468
827 1 0.817484 0.116165 0.817354
797 1 0.878849 0.00753231 0.750153
798 1 0.937264 0.0585085 0.757141
829 1 0.882388 0.120046 0.758193
831 1 0.943958 0.123074 0.813943
926 1 0.937706 0.0551225 0.864378
804 1 0.012383 0.18588 0.811192
930 1 0.0676657 0.183835 0.871248
808 1 0.122601 0.176407 0.80803
839 1 0.181743 0.242313 0.802125
934 1 0.187509 0.181876 0.873574
809 1 0.260505 0.126681 0.760525
813 1 0.36826 0.125802 0.763241
937 1 0.250284 0.128004 0.874249
812 1 0.257468 0.189303 0.806361
969 1 0.255856 0.24504 0.863379
816 1 0.375484 0.188964 0.812837
847 1 0.432748 0.244458 0.814743
942 1 0.442661 0.17875 0.872803
820 1 0.491763 0.184319 0.81192
977 1 0.497493 0.249052 0.874746
851 1 0.561524 0.229929 0.818978
946 1 0.566207 0.178818 0.873907
824 1 0.631961 0.185683 0.818744
823 1 0.695443 0.129439 0.812016
857 1 0.748847 0.243988 0.760029
855 1 0.694368 0.243875 0.813831
949 1 0.631103 0.130744 0.867525
985 1 0.748433 0.241367 0.87332
825 1 0.752966 0.133269 0.750615
828 1 0.758786 0.180007 0.809253
826 1 0.821691 0.173023 0.750876
859 1 0.817469 0.241553 0.807571
954 1 0.81649 0.18584 0.871121
832 1 0.880532 0.177529 0.809713
830 1 0.94499 0.186485 0.750337
863 1 0.948618 0.2466 0.814847
861 1 0.885311 0.240844 0.753251
989 1 0.885535 0.239739 0.870013
834 1 0.0656166 0.319161 0.754488
835 1 0.0650266 0.254558 0.804528
867 1 0.0586101 0.372109 0.811186
993 1 0.000874993 0.36818 0.868835
962 1 0.0669398 0.303943 0.869888
961 1 0.00505736 0.250331 0.873483
873 1 0.247482 0.374062 0.760997
840 1 0.128642 0.305365 0.819885
869 1 0.12859 0.372227 0.759419
871 1 0.188983 0.374245 0.814522
844 1 0.249962 0.299233 0.801032
997 1 0.133578 0.37071 0.869571
1001 1 0.244433 0.358602 0.874732
966 1 0.192083 0.301923 0.866349
843 1 0.318906 0.258058 0.812775
970 1 0.314892 0.306889 0.870278
848 1 0.379602 0.311427 0.819013
1009 1 0.499016 0.365413 0.865619
978 1 0.559471 0.308109 0.864457
852 1 0.501544 0.295342 0.803886
856 1 0.62397 0.313702 0.806736
883 1 0.554677 0.363124 0.798685
854 1 0.683315 0.299309 0.752246
860 1 0.746791 0.298111 0.815278
887 1 0.687566 0.36663 0.81623
1021 1 0.874697 0.374172 0.869488
864 1 0.870959 0.30874 0.808121
1017 1 0.752533 0.364997 0.871398
986 1 0.82139 0.302283 0.86668
836 1 0.992635 0.310108 0.80536
990 1 0.938495 0.32137 0.858983
895 1 0.944053 0.370694 0.798631
868 1 0.0103153 0.431323 0.809142
872 1 0.121013 0.434583 0.81544
1795 1 0.0562875 0.498984 0.811432
1921 1 0.00695264 0.496601 0.870695
870 1 0.185084 0.44216 0.762671
998 1 0.187519 0.43088 0.866986
1929 1 0.240462 0.497128 0.873107
874 1 0.316147 0.431732 0.754944
1002 1 0.312185 0.436763 0.874324
875 1 0.330803 0.376783 0.819601
876 1 0.260364 0.437969 0.822088
1006 1 0.440746 0.442737 0.869993
880 1 0.375623 0.448226 0.816472
879 1 0.434631 0.376559 0.817111
878 1 0.435945 0.436201 0.761345
882 1 0.568388 0.43951 0.752388