ITEM: TIMESTEP
3250
ITEM: NUMBER OF ATOMS
864
ITEM: BOX BOUNDS pp pp pp
0.0000000000000000e+00 3.1559999999999999e+01
0.0000000000000000e+00 3.1559999999999999e+01
0.0000000000000000e+00 3.1559999999999999e+01
ITEM: ATOMS id type xs ys zs
8 1 0.162239 0.0797535 0.0763588
4 1 0.984153 0.093654 0.0787055
3 1 0.0896525 0.011576 0.10399
12 1 0.329717 0.0775707 0.085898
31 1 0.248909 0.145344 0.0735168
78 1 0.241671 0.0769908 0.170973
105 1 0.339193 0.156893 0.158715
15 1 0.574853 0.00218255 0.0758845
447 1 0.593636 0.495617 0.0976441
16 1 0.500595 0.0838586 0.0597429
34 1 0.408092 0.253763 0.0100652
523 1 0.74693 0.495043 0.251354
39 1 0.591502 0.163626 0.0642758
109 1 0.506066 0.154016 0.145109
505 1 0.973446 0.495477 0.15957
20 1 0.673283 0.0664839 0.0694973
165 1 0.842333 0.0022813 0.329384
43 1 0.764162 0.168415 0.0815735
24 1 0.836051 0.0797577 0.0768375
87 1 0.585268 0.00756828 0.251417
525 1 0.840614 0.494589 0.169976
245 1 0.173986 0.144219 0.490233
27 1 0.0915642 0.169607 0.0863471
32 1 0.173651 0.248506 0.0880308
101 1 0.172638 0.175356 0.170381
83 1 0.427212 0.0177358 0.24526
2 1 0.0860651 0.0739389 0.00416068
70 1 0.917467 0.416359 0.00278898
36 1 0.334777 0.233105 0.0920986
507 1 0.072353 0.474235 0.243612
102 1 0.259591 0.237965 0.168497
521 1 0.670405 0.499076 0.179944
35 1 0.432733 0.171888 0.069775
45 1 0.829188 0.166116 0.000657211
59 1 0.413193 0.333506 0.0765855
222 1 0.26492 0.0867605 0.481764
40 1 0.500894 0.248485 0.0671212
110 1 0.57451 0.242354 0.164415
133 1 0.497676 0.332915 0.147807
44 1 0.673348 0.253296 0.0731045
48 1 0.829476 0.253768 0.0857588
114 1 0.766876 0.252504 0.166247
451 1 0.749382 0.494775 0.0904076
47 1 0.914741 0.173722 0.097562
97 1 0.00651021 0.169264 0.167638
28 1 -0.00143339 0.246651 0.0810515
71 1 0.923596 0.330069 0.0808537
95 1 0.902757 0.00364763 0.242973
51 1 0.0922893 0.312027 0.0822859
50 1 0.096095 0.410733 0.0170268
215 1 0.924883 0.341404 0.416211
55 1 0.262585 0.32045 0.0819977
125 1 0.184707 0.322817 0.164861
56 1 0.172122 0.412127 0.0861747
93 1 0.822411 0.00503773 0.153123
126 1 0.263041 0.413322 0.168828
23 1 0.904681 0.00254263 0.0898573
60 1 0.341209 0.424525 0.0753573
130 1 0.419068 0.422856 0.159646
81 1 0.337098 0.0133832 0.165705
75 1 0.0769467 0.00891706 0.243352
455 1 0.906005 0.490278 0.0740933
63 1 0.590689 0.321795 0.0792437
64 1 0.498245 0.427704 0.0863324
214 1 0.907637 0.415249 0.347961
266 1 0.0922054 0.412789 0.502008
46 1 0.903168 0.243527 0.0093525
238 1 0.913135 0.088739 0.486466
67 1 0.745898 0.331783 0.0869217
68 1 0.679055 0.411915 0.0972682
72 1 0.832002 0.4079 0.0754005
52 1 0.0028518 0.416349 0.0901709
583 1 0.254503 0.496927 0.418667
74 1 0.0859759 0.100417 0.176313
208 1 0.503679 0.429966 0.419777
212 1 0.66433 0.416905 0.437616
80 1 0.169354 0.0926317 0.254806
84 1 0.33725 0.077542 0.254308
103 1 0.248034 0.161549 0.250417
150 1 0.264293 0.0793377 0.331147
177 1 0.34203 0.154371 0.33379
82 1 0.42142 0.0871129 0.155247
107 1 0.419711 0.181651 0.237441
88 1 0.515552 0.0910593 0.226125
62 1 0.583428 0.418993 0.00849324
86 1 0.596058 0.092796 0.150344
158 1 0.595055 0.0828092 0.337808
92 1 0.666543 0.0853961 0.258471
113 1 0.675534 0.170809 0.151477
213 1 0.819857 0.331355 0.342279
202 1 0.413188 0.429146 0.331977
90 1 0.752036 0.0874202 0.149902
115 1 0.754039 0.175832 0.26053
96 1 0.833171 0.0827046 0.245145
117 1 0.829269 0.170468 0.18378
76 1 0.995955 0.0825831 0.255856
94 1 0.910474 0.0875957 0.168361
166 1 0.917578 0.0922837 0.335576
98 1 0.0883232 0.255445 0.1673
99 1 0.084666 0.175946 0.254516
104 1 0.15778 0.264631 0.247453
170 1 0.0766841 0.272271 0.327528
129 1 0.333693 0.327668 0.169074
173 1 0.164781 0.174797 0.330317
108 1 0.337398 0.255279 0.250101
174 1 0.235529 0.247926 0.334234
106 1 0.415282 0.259891 0.159676
205 1 0.487174 0.334327 0.330682
112 1 0.496859 0.258605 0.248779
131 1 0.417767 0.341303 0.239713
201 1 0.338291 0.33572 0.326201
111 1 0.584813 0.16909 0.244705
116 1 0.673957 0.241867 0.248798
135 1 0.587276 0.329893 0.248863
137 1 0.664031 0.320697 0.181044
141 1 0.835177 0.334335 0.157696
120 1 0.834133 0.260649 0.253795
139 1 0.740575 0.334655 0.267171
118 1 0.914166 0.254012 0.159068
100 1 0.0121525 0.265359 0.250127
119 1 0.927586 0.16621 0.240276
143 1 0.9188 0.333176 0.252841
122 1 0.0932132 0.406737 0.150839
123 1 0.076054 0.347586 0.229474
194 1 0.0883134 0.418072 0.339014
128 1 0.179129 0.401484 0.25259
127 1 0.258701 0.335387 0.244607
197 1 0.171729 0.330831 0.325471
216 1 0.824266 0.402435 0.417032
198 1 0.256203 0.404437 0.332098
132 1 0.338906 0.431483 0.255717
136 1 0.499409 0.408718 0.229604
192 1 0.839687 0.255206 0.415687
200 1 0.176221 0.413059 0.41042
134 1 0.595316 0.409168 0.163042
140 1 0.658097 0.421742 0.268229
138 1 0.760577 0.41169 0.170593
210 1 0.74867 0.424714 0.334689
121 1 0.00542705 0.337962 0.158537
142 1 0.915308 0.405942 0.166798
193 1 0.995695 0.350087 0.324177
124 1 0.988249 0.41807 0.237857
144 1 0.83283 0.409018 0.244841
204 1 0.33533 0.412417 0.411922
146 1 0.0671613 0.0757542 0.332872
152 1 0.161239 0.0959879 0.401421
156 1 0.341315 0.0648158 0.409536
175 1 0.23965 0.170978 0.405256
218 1 0.0817355 0.0727936 0.491818
154 1 0.427929 0.0854619 0.320119
160 1 0.48615 0.0809138 0.420469
179 1 0.411362 0.168223 0.420155
159 1 0.586303 -0.000122974 0.427545
206 1 0.566919 0.419355 0.325498
209 1 0.653906 0.320812 0.328506
195 1 0.0905087 0.345961 0.414044
261 1 0.842214 0.18241 0.498696
162 1 0.746859 0.0707906 0.319461
164 1 0.683924 0.0873437 0.41939
187 1 0.766009 0.16618 0.408069
73 1 1.00047 0.0160649 0.164353
163 1 0.750209 0.00953695 0.40632
148 1 1.00123 0.0875632 0.414426
168 1 0.832013 0.0754862 0.414685
191 1 0.918246 0.174779 0.413307
207 1 0.584787 0.352607 0.4144
77 1 0.165241 0.00738541 0.174768
171 1 0.085249 0.159899 0.407636
172 1 0.00353577 0.268014 0.404491
257 1 0.680754 0.170684 0.482272
190 1 0.925499 0.265402 0.341689
176 1 0.16773 0.246219 0.431479
180 1 0.327429 0.257265 0.405782
199 1 0.255589 0.326098 0.410664
597 1 0.836549 0.494055 0.330502
178 1 0.416654 0.246789 0.330364
203 1 0.414397 0.329907 0.419017
181 1 0.508385 0.162889 0.333936
184 1 0.503452 0.254175 0.415093
196 1 0.0189355 0.419518 0.424703
185 1 0.658328 0.168427 0.343197
182 1 0.565216 0.247751 0.330246
183 1 0.581133 0.163897 0.427653
188 1 0.656287 0.263152 0.416069
186 1 0.731284 0.255254 0.344064
211 1 0.744023 0.332394 0.425459
189 1 0.854683 0.182244 0.327851
169 1 0.000498894 0.170053 0.332672
49 1 0.00539993 0.338345 0.0168899
599 1 0.936181 0.493346 0.423662
449 1 0.676715 0.489073 0.00663038
269 1 0.192906 0.34086 0.497623
593 1 0.668023 0.499107 0.335224
1 1 0.998876 -0.000401081 0.00787461
581 1 0.155434 0.499287 0.321564
527 1 0.916141 0.476453 0.251824
587 1 0.419574 0.497768 0.417629
595 1 0.750448 0.487355 0.436188
149 1 0.161178 0.00365057 0.318162
439 1 0.251082 0.485877 0.0964757
7 1 0.241558 -0.00106645 0.0912672
435 1 0.0784284 0.492121 0.0855048
509 1 0.163385 0.487182 0.191783
262 1 0.917822 0.254883 0.482405
25 1 0.00833985 0.168793 0.00364573
29 1 0.169376 0.1761 0.00730002
21 1 0.842421 -0.000748157 0.00316672
653 1 0.164771 0.492279 0.49186
250 1 0.424247 0.26209 0.499259
33 1 0.323805 0.164685 0.00300336
433 1 0.99142 0.484982 0.00303112
265 1 0.00535062 0.337032 0.495973
61 1 0.506256 0.349159 0.0180561
234 1 0.757155 0.0948239 0.490218
253 1 0.494806 0.171479 0.490571
241 1 0.00644381 0.164662 0.489288
277 1 0.506869 0.328045 0.4881
54 1 0.257633 0.432331 0.0115174
65 1 0.67149 0.341335 0.012333
30 1 0.246042 0.241528 0.0176533
57 1 0.343436 0.341457 0.00554354
432 1 0.841528 0.400281 0.922674
224 1 0.168176 0.0920596 0.587678
294 1 0.244101 0.0881913 0.663767
228 1 0.328075 0.0807541 0.574934
242 1 0.0875327 0.246248 0.511024
232 1 0.501537 0.0778884 0.570429
453 1 0.825092 0.496663 0.99883
727 1 0.249797 0.499507 0.764099
273 1 0.341227 0.321158 0.511112
236 1 0.676549 0.0808676 0.595051
255 1 0.576873 0.167851 0.582983
58 1 0.430097 0.415227 0.994154
302 1 0.583257 0.0824865 0.664813
259 1 0.761638 0.167597 0.59497
306 1 0.758252 0.0935451 0.660891
811 1 0.736329 0.490438 0.898465
220 1 0.994216 0.0778029 0.563827
240 1 0.846263 0.0920472 0.577946
223 1 0.242212 0.00710641 0.574589
412 1 0.987292 0.420174 0.922349
317 1 0.172237 0.174119 0.671475
243 1 0.0778094 0.151526 0.581757
244 1 0.0096711 0.257681 0.583994
313 1 0.00666713 0.169807 0.669136
247 1 0.251405 0.171566 0.578528
248 1 0.170657 0.249764 0.585323
318 1 0.25374 0.247089 0.666438
252 1 0.342776 0.253084 0.604222
299 1 0.401798 0.0013663 0.750088
251 1 0.429633 0.158749 0.587299
322 1 0.431155 0.254104 0.665964
256 1 0.506894 0.246226 0.590815
275 1 0.432161 0.328267 0.59025
325 1 0.503806 0.172112 0.669117
363 1 0.0714097 0.0124426 0.917384
329 1 0.668813 0.155997 0.663951
260 1 0.671699 0.250512 0.588386
813 1 0.820284 0.495271 0.84521
333 1 0.836865 0.168646 0.676321
330 1 0.751023 0.246564 0.672589
263 1 0.925317 0.178094 0.577873
264 1 0.846237 0.258708 0.578701
357 1 0.838 0.327365 0.664616
334 1 0.911163 0.245296 0.666761
267 1 0.10033 0.32908 0.574511
341 1 0.144584 0.337092 0.664411
268 1 0.00856263 0.431223 0.581528
431 1 0.911299 0.32466 0.927408
270 1 0.277247 0.414141 0.50819
803 1 0.425436 0.490565 0.91542
271 1 0.243726 0.337737 0.592946
272 1 0.167514 0.422201 0.586611
342 1 0.248024 0.401642 0.679681
741 1 0.8235 0.478041 0.667234
297 1 0.326036 0.0143812 0.661678
276 1 0.340431 0.396036 0.595904
280 1 0.492065 0.420129 0.586438
346 1 0.422586 0.414381 0.672221
279 1 0.572207 0.32833 0.584822
350 1 0.594469 0.422795 0.658688
353 1 0.661923 0.334223 0.646455
226 1 0.408271 0.0928106 0.502499
231 1 0.592126 0.0136707 0.584243
365 1 0.169343 0.00357382 0.836341
283 1 0.753319 0.322648 0.595129
284 1 0.66919 0.422331 0.575606
354 1 0.733615 0.416007 0.668109
42 1 0.747574 0.244737 0.991947
799 1 0.254168 0.495122 0.913494
295 1 0.256071 0.00634665 0.743936
287 1 0.932538 0.339218 0.588611
288 1 0.854803 0.421989 0.585529
729 1 0.333748 0.499014 0.666999
290 1 0.0851914 0.0934216 0.678438
389 1 0.166879 0.171424 0.834803
362 1 0.0951776 0.0828916 0.833078
230 1 0.603489 0.0860976 0.514607
281 1 0.656142 0.337237 0.512731
296 1 0.173454 0.0892032 0.748573
300 1 0.332258 0.0862484 0.75418
805 1 0.50925 0.493022 0.83988
298 1 0.418129 0.0737841 0.667808
370 1 0.399898 0.0974109 0.848169
304 1 0.503444 0.0827526 0.734708
667 1 0.757742 0.487452 0.585013
327 1 0.57754 0.177004 0.755749
374 1 0.584322 0.076591 0.833266
421 1 0.508017 0.344427 0.837924
308 1 0.661753 0.0818456 0.744588
312 1 0.835628 0.0822032 0.728685
401 1 0.655824 0.162636 0.831792
378 1 0.760745 0.0802826 0.811138
217 1 0.996708 0.00280768 0.500438
310 1 0.919171 0.0741104 0.660628
292 1 0.0165147 0.0925313 0.755764
335 1 0.924521 0.159814 0.745006
219 1 0.0843463 0.0159958 0.590316
315 1 0.0786622 0.176857 0.775548
314 1 0.0929295 0.244716 0.669402
320 1 0.164971 0.245417 0.753698
319 1 0.252538 0.174618 0.759051
321 1 0.330551 0.154863 0.665353
324 1 0.33788 0.235989 0.749065
323 1 0.419728 0.162704 0.737972
326 1 0.591403 0.234986 0.663247
328 1 0.498996 0.251806 0.746058
332 1 0.653359 0.254801 0.754496
331 1 0.744948 0.162016 0.743017
425 1 0.666583 0.32863 0.835267
336 1 0.830818 0.254385 0.751556
337 1 0.000118368 0.321444 0.67181
316 1 -0.000184481 0.241426 0.753676
359 1 0.916869 0.33714 0.760389
406 1 0.917565 0.252644 0.839746
405 1 0.860905 0.151194 0.827359
338 1 0.0887079 0.431903 0.668261
339 1 0.0757517 0.325003 0.765753
410 1 0.0821101 0.409375 0.828638
413 1 0.172113 0.328386 0.827935
69 1 0.827359 0.323307 0.999853
340 1 0.0150681 0.398793 0.739738
345 1 0.33975 0.329462 0.691093
343 1 0.240285 0.324957 0.752455
344 1 0.164157 0.416588 0.755894
254 1 0.567763 0.249942 0.503804
428 1 0.663633 0.406259 0.925366
795 1 0.0778589 0.487593 0.916925
348 1 0.330174 0.407922 0.767549
347 1 0.435774 0.339638 0.757661
352 1 0.513355 0.420891 0.740474
349 1 0.509099 0.332555 0.671802
351 1 0.593016 0.346173 0.745789
422 1 0.594936 0.418471 0.831712
355 1 0.746838 0.332876 0.744985
356 1 0.662549 0.429399 0.751419
426 1 0.737578 0.40585 0.828106
360 1 0.832882 0.420329 0.764175
424 1 0.508501 0.424868 0.931633
409 1 0.995294 0.335728 0.856165
429 1 0.827902 0.333107 0.832901
358 1 0.927708 0.428676 0.670707
430 1 0.92685 0.413451 0.834244
418 1 0.424786 0.418638 0.834385
364 1 0.997481 0.0978682 0.924735
368 1 0.163889 0.0775497 0.918992
417 1 0.346324 0.317688 0.836975
22 1 0.92185 0.0807936 0.997326
391 1 0.238517 0.160178 0.923284
366 1 0.246106 0.0859284 0.83851
372 1 0.323091 0.0722017 0.920558
393 1 0.328991 0.172527 0.840391
420 1 0.354968 0.423423 0.907977
18 1 0.754459 0.0717403 0.997485
376 1 0.489341 0.0781977 0.920995
395 1 0.399742 0.180769 0.927461
301 1 0.500732 0.00286113 0.654773
415 1 0.271888 0.357252 0.914366
375 1 0.569569 0.00716354 0.911148
399 1 0.57937 0.150752 0.911049
14 1 0.591482 0.0776955 0.988551
380 1 0.665641 0.0858629 0.902206
408 1 0.82349 0.246991 0.89917
403 1 0.754629 0.158711 0.907927
416 1 0.168381 0.40136 0.911702
414 1 0.235621 0.41316 0.823382
407 1 0.90653 0.16312 0.931308
382 1 0.940945 0.0792835 0.839153
384 1 0.834802 0.063783 0.897328
387 1 0.0868723 0.171572 0.926307
388 1 0.994879 0.247323 0.938273
385 1 0.996272 0.170882 0.848218
386 1 0.0804308 0.249919 0.856232
392 1 0.170186 0.25286 0.921416
390 1 0.250988 0.250026 0.84224
396 1 0.322713 0.269593 0.926872
731 1 0.41777 0.484015 0.754853
394 1 0.426656 0.246502 0.838156
419 1 0.417225 0.322035 0.919994
309 1 0.822384 0.00109785 0.655795
423 1 0.586122 0.335025 0.930646
398 1 0.573073 0.257804 0.832454
397 1 0.498369 0.170724 0.847754
400 1 0.493902 0.248792 0.934503
411 1 0.0797229 0.33964 0.912368
402 1 0.742174 0.253431 0.820541
404 1 0.662415 0.245759 0.909757
427 1 0.74188 0.330085 0.913036
801 1 0.332549 0.494923 0.835349
441 1 0.346736 0.496992 0.995507
53 1 0.187178 0.331435 1.00198
797 1 0.167874 0.502047 0.840363
733 1 0.503973 0.500469 0.65434
285 1 0.835323 0.324344 0.503101
286 1 0.936039 0.414006 0.499225
793 1 0.00919947 0.484549 0.831676
669 1 0.830156 0.486813 0.505518
282 1 0.759761 0.399171 0.518748
289 1 0.00375137 0.00612608 0.650422
659 1 0.416725 0.495409 0.584252
373 1 0.490305 0.0145555 0.818218
66 1 0.755098 0.413334 0.988309
369 1 0.329249 0.00259906 0.832564
41 1 0.675272 0.156619 0.979736
367 1 0.239532 0.00587114 0.91272
249 1 0.332365 0.183299 0.506937
38 1 0.587242 0.24682 0.99396
278 1 0.578288 0.411605 0.505198
10 1 0.403259 0.0807296 0.994706
37 1 0.510575 0.16136 0.992037
26 1 0.0787341 0.252352 0.990268
258 1 0.751762 0.255309 0.507652
274 1 0.412339 0.420803 0.504919
246 1 0.262884 0.261663 0.510139
6 1 0.248698 0.0724644 0.994306
661 1 0.49547 0.497971 0.507914
506 1 0.0746037 0.577806 0.163543
151 1 0.234924 0.998707 0.42307
157 1 0.507683 0.999093 0.334644
440 1 0.160267 0.584517 0.0975554
463 1 0.260322 0.666765 0.0845523
515 1 0.425232 0.498563 0.248434
493 1 0.506013 0.828227 0.00975162
444 1 0.327888 0.576427 0.0720769
448 1 0.515478 0.577674 0.0859972
514 1 0.41597 0.575937 0.165434
541 1 0.491002 0.653839 0.165709
545 1 0.68621 0.679429 0.165176
519 1 0.580324 0.502242 0.243658
628 1 0.995878 0.919603 0.425227
452 1 0.679787 0.574174 0.0735584
522 1 0.756351 0.591073 0.17167
670 1 0.920672 0.591731 0.489324
591 1 0.569823 0.508012 0.424187
485 1 0.154031 0.834248 0.00341134
643 1 0.752777 0.829586 0.416608
436 1 0.997037 0.578888 0.0834544
456 1 0.826394 0.567743 0.0931897
225 1 0.345515 0.993302 0.493415
694 1 0.898093 0.747369 0.494412
459 1 0.0839663 0.682802 0.0914598
530 1 0.0742895 0.763453 0.184122
483 1 0.109192 0.817465 0.0987428
464 1 0.181617 0.744525 0.0988556
534 1 0.267259 0.74772 0.165949
467 1 0.402703 0.656188 0.0848096
468 1 0.34191 0.75873 0.0773192
538 1 0.395379 0.751876 0.170289
233 1 0.685623 0.995731 0.489955
471 1 0.608247 0.661884 0.0918102
472 1 0.500278 0.741997 0.0785399
495 1 0.580942 0.823921 0.0802499
565 1 0.497042 0.827537 0.16184
542 1 0.593652 0.749963 0.153959
475 1 0.761471 0.67597 0.0881957
476 1 0.671724 0.743887 0.0774441
569 1 0.665065 0.849519 0.153639
546 1 0.758771 0.756919 0.174037
479 1 0.902996 0.663435 0.0795022
460 1 0.98435 0.744723 0.0898297
480 1 0.839555 0.751572 0.0776588
550 1 0.902847 0.753702 0.172083
503 1 0.915326 0.836378 0.0926577
167 1 0.913156 0.995016 0.431935
554 1 0.0626573 0.922877 0.18013
585 1 0.332215 0.503509 0.338506
489 1 0.312905 0.839963 0.0034968
487 1 0.244421 0.831469 0.0849861
488 1 0.159988 0.924421 0.0948152
558 1 0.249775 0.914973 0.169912
469 1 0.502004 0.664923 0.00198767
491 1 0.420941 0.830296 0.079524
492 1 0.329576 0.915697 0.0765778
496 1 0.503075 0.916524 0.0887444
145 1 0.988334 0.993695 0.333052
579 1 0.0820351 0.503066 0.404772
706 1 0.420351 0.912521 0.496231
458 1 0.0849541 0.741129 0.00198199
499 1 0.753992 0.82743 0.0747376
642 1 0.744485 0.910903 0.343049
500 1 0.666293 0.919606 0.0720847
570 1 0.760409 0.905487 0.159747
484 1 0.976259 0.921988 0.0937354
504 1 0.843237 0.927256 0.0720531
573 1 0.842414 0.836776 0.169951
517 1 0.499584 0.503284 0.171508
648 1 0.830944 0.90629 0.420561
702 1 0.249168 0.926778 0.494934
513 1 0.336789 0.501053 0.157039
512 1 0.153229 0.579359 0.234135
508 1 0.990805 0.58588 0.241389
531 1 0.0767049 0.673649 0.253545
510 1 0.248731 0.567253 0.152051
582 1 0.242853 0.577473 0.331509
605 1 0.160082 0.662401 0.323731
89 1 0.680387 0.998101 0.156073
516 1 0.330243 0.573584 0.255675
85 1 0.4916 0.999384 0.15684
539 1 0.4176 0.661146 0.255622
586 1 0.416091 0.579255 0.329713
609 1 0.322735 0.652158 0.331318
518 1 0.589471 0.584454 0.170438
520 1 0.502578 0.583433 0.247553
543 1 0.586612 0.684723 0.240781
590 1 0.583653 0.595367 0.335643
638 1 0.575976 0.918956 0.341271
640 1 0.498294 0.907574 0.419903
524 1 0.661853 0.585411 0.258543
528 1 0.832046 0.569294 0.252505
594 1 0.747648 0.57163 0.332422
674 1 0.0783475 0.754913 0.49735
526 1 0.919082 0.588245 0.165376
551 1 0.903462 0.657569 0.257827
237 1 0.808501 0.98873 0.498469
601 1 0.990943 0.653407 0.328999
532 1 0.989126 0.743057 0.252036
625 1 0.998563 0.852434 0.338109
533 1 0.162398 0.668666 0.176272
557 1 0.18569 0.829 0.181341
536 1 0.16587 0.765826 0.258403
535 1 0.254466 0.666947 0.252881
537 1 0.339982 0.654186 0.179802
540 1 0.334299 0.744562 0.261039
614 1 0.57769 0.763919 0.333102
544 1 0.502832 0.745755 0.229542
567 1 0.574602 0.843035 0.244857
617 1 0.67261 0.681241 0.32239
549 1 0.836181 0.652726 0.171856
547 1 0.753101 0.657144 0.251943
548 1 0.656919 0.782278 0.23772
645 1 0.841038 0.825262 0.341979
529 1 0.99662 0.672685 0.167087
552 1 0.834483 0.734491 0.267451
575 1 0.913858 0.821505 0.252999
555 1 0.0927094 0.846222 0.254918
556 1 0.988801 0.915904 0.25914
626 1 0.0744909 0.927203 0.33477
561 1 0.335759 0.839302 0.163979
559 1 0.24347 0.836627 0.26498
560 1 0.163955 0.916225 0.25185
644 1 0.674808 0.912292 0.424981
564 1 0.324247 0.913847 0.248037
563 1 0.411403 0.842443 0.250392
562 1 0.418255 0.926887 0.172117
161 1 0.656977 0.993754 0.33806
641 1 0.66316 0.836094 0.33777
568 1 0.496729 0.918991 0.238035
566 1 0.582466 0.927836 0.154586
572 1 0.658739 0.922478 0.247538
571 1 0.762928 0.846123 0.255746
576 1 0.840029 0.902761 0.263807
646 1 0.911446 0.910567 0.336287
635 1 0.420729 0.824763 0.406804
574 1 0.911861 0.90808 0.181591
634 1 0.418171 0.935937 0.318078
553 1 0.000847287 0.829959 0.150363
147 1 0.0705343 0.991763 0.415405
578 1 0.0790287 0.583095 0.329179
584 1 0.15449 0.577659 0.409104
636 1 0.332565 0.904783 0.404603
461 1 0.177456 0.656036 0.0204482
153 1 0.325693 0.994499 0.33491
607 1 0.234479 0.659228 0.414205
482 1 0.0703763 0.910106 0.0173144
588 1 0.318182 0.585475 0.416532
611 1 0.412787 0.665092 0.417748
613 1 0.507821 0.674024 0.325401
615 1 0.606662 0.661198 0.411577
592 1 0.497796 0.602769 0.401032
596 1 0.667269 0.569423 0.414693
442 1 0.425137 0.584001 0.00307595
619 1 0.739628 0.655651 0.418558
631 1 0.242474 0.852962 0.418441
621 1 0.827612 0.651649 0.340117
600 1 0.823933 0.561213 0.420543
623 1 0.900987 0.66207 0.419787
580 1 0.000757924 0.584891 0.415028
598 1 0.91621 0.579748 0.334935
629 1 0.163277 0.838753 0.340722
604 1 0.997856 0.746302 0.421317
602 1 0.0705239 0.7496 0.33317
603 1 0.0753682 0.674131 0.413141
627 1 0.0796574 0.842002 0.411323
9 1 0.334986 0.986743 0.00243903
606 1 0.234137 0.751904 0.334242
608 1 0.161845 0.75804 0.416674
633 1 0.33157 0.825989 0.333892
610 1 0.421168 0.752066 0.322241
612 1 0.336204 0.738724 0.401795
637 1 0.49276 0.846082 0.313551
620 1 0.668194 0.752471 0.419726
616 1 0.503091 0.73513 0.407662
639 1 0.583426 0.831032 0.432013
681 1 0.323923 0.666346 0.493069
618 1 0.740878 0.764609 0.316014
624 1 0.822208 0.74238 0.406719
630 1 0.243629 0.923061 0.332749
632 1 0.157282 0.921468 0.418308
622 1 0.915567 0.731676 0.344157
647 1 0.901445 0.828065 0.422156
443 1 0.424522 0.505591 0.0834467
19 1 0.747806 0.982229 0.0832311
79 1 0.246919 0.991943 0.249125
11 1 0.409898 1.00198 0.0753753
486 1 0.24533 0.926734 0.00507686
589 1 0.49856 0.514276 0.329221
155 1 0.41631 0.99064 0.410917
481 1 0.00643177 0.822557 0.00164481
682 1 0.412516 0.751175 0.486606
658 1 0.416149 0.594389 0.497039
693 1 0.817918 0.657542 0.497586
511 1 0.2482 0.507779 0.250553
91 1 0.771336 0.987877 0.235825
577 1 0.00177849 0.508213 0.325704
662 1 0.562877 0.597766 0.497642
494 1 0.578879 0.914236 0.00740092
434 1 0.08003 0.579357 0.00381692
497 1 0.660705 0.829817 0.00483014
705 1 0.331446 0.835377 0.500909
701 1 0.155319 0.833617 0.493121
650 1 0.0821689 0.590894 0.489007
714 1 0.754588 0.903105 0.498177
501 1 0.840127 0.843781 0.0088626
697 1 0.994825 0.82541 0.48404
446 1 0.590691 0.574179 0.000396617
445 1 0.507889 0.509474 0.0100575
675 1 0.0820841 0.673713 0.591142
652 1 0.00475138 0.596443 0.592995
743 1 0.928406 0.504374 0.758237
656 1 0.173428 0.584942 0.595702
660 1 0.319549 0.598362 0.576978
679 1 0.240745 0.672998 0.568073
749 1 0.16569 0.676137 0.661655
709 1 0.494286 0.819239 0.502857
683 1 0.40938 0.683311 0.579197
239 1 0.918591 0.986639 0.582266
371 1 0.408127 0.995247 0.908854
730 1 0.420846 0.572324 0.674494
235 1 0.74206 0.987531 0.59029
13 1 0.491023 0.981122 0.996485
671 1 0.926173 0.522831 0.577505
664 1 0.485107 0.581931 0.575085
668 1 0.654455 0.592862 0.590012
687 1 0.563323 0.671115 0.606763
303 1 0.578092 1.0017 0.739613
685 1 0.48737 0.668481 0.500334
666 1 0.742801 0.580613 0.525537
863 1 0.928962 0.83815 0.900281
718 1 0.922092 0.908868 0.508177
672 1 0.838562 0.575613 0.61239
695 1 0.907944 0.656854 0.593045
742 1 0.93381 0.587124 0.673148
765 1 0.82806 0.663516 0.686866
739 1 0.748151 0.49912 0.739173
676 1 1.00151 0.754019 0.572564
699 1 0.0981552 0.835278 0.578511
746 1 0.108667 0.762437 0.65959
383 1 0.920531 0.987052 0.919175
454 1 0.903485 0.5782 0.988097
680 1 0.158888 0.750067 0.573531
703 1 0.23428 0.840267 0.579078
750 1 0.266077 0.729566 0.668051
307 1 0.757818 0.993773 0.745919
807 1 0.599857 0.50242 0.916094
684 1 0.328511 0.759879 0.586049
777 1 0.30953 0.836276 0.67632
438 1 0.256566 0.559883 0.989288
757 1 0.480343 0.671614 0.668523
688 1 0.493865 0.750329 0.591949
692 1 0.656794 0.750407 0.587982
689 1 0.672234 0.667154 0.509405
711 1 0.579907 0.833675 0.573014
758 1 0.567732 0.753089 0.668848
691 1 0.73142 0.672702 0.601306
715 1 0.739395 0.826788 0.582262
381 1 0.831743 0.994196 0.822594
696 1 0.842054 0.743264 0.600011
766 1 0.926375 0.747103 0.673257
502 1 0.920568 0.920765 0.999778
704 1 0.158808 0.928397 0.58221
770 1 0.0871996 0.916348 0.655586
769 1 0.0154016 0.826105 0.659727
700 1 0.00303435 0.908024 0.585254
725 1 0.183646 0.507671 0.670436
859 1 0.752329 0.855944 0.903771
860 1 0.653949 0.924112 0.907508
717 1 0.830171 0.826608 0.512074
707 1 0.414042 0.845873 0.576215
708 1 0.336201 0.925267 0.579091
712 1 0.512266 0.906288 0.566035
663 1 0.57647 0.515237 0.586198
857 1 0.652833 0.841911 0.83286
665 1 0.649516 0.512893 0.507834
716 1 0.667579 0.905789 0.582984
785 1 0.647275 0.836601 0.670798
864 1 0.824235 0.925604 0.914428
789 1 0.84823 0.823709 0.66143
720 1 0.835259 0.910957 0.580291
719 1 0.921215 0.82683 0.575443
790 1 0.906288 0.917489 0.656923
473 1 0.676925 0.67007 0.994875
722 1 0.0898103 0.591557 0.664767
745 1 0.00779459 0.673061 0.667023
856 1 0.503385 0.926738 0.909108
724 1 0.0151977 0.587065 0.745383
747 1 0.101131 0.667914 0.748051
726 1 0.254446 0.582542 0.669436
728 1 0.175409 0.581029 0.745921
751 1 0.259318 0.665949 0.752297
855 1 0.594268 0.833164 0.912377
753 1 0.33883 0.654008 0.661147
732 1 0.337586 0.567364 0.753103
736 1 0.492472 0.582866 0.756571
734 1 0.567208 0.59069 0.677154
849 1 0.340418 0.828694 0.837242
361 1 3.13518e-05 0.995693 0.828978
740 1 0.67136 0.59603 0.749286
761 1 0.653792 0.68166 0.684298
806 1 0.571463 0.587985 0.831551
738 1 0.743535 0.583638 0.665892
744 1 0.821667 0.566206 0.758161
810 1 0.745198 0.596517 0.835475
763 1 0.739157 0.67874 0.742046
852 1 0.334219 0.909661 0.924052
818 1 0.0962956 0.749074 0.824097
748 1 0.0208694 0.75161 0.739562
752 1 0.172145 0.745656 0.743536
822 1 0.245372 0.76024 0.829399
756 1 0.342537 0.747048 0.757676
775 1 0.245039 0.832455 0.758516
754 1 0.408218 0.766601 0.664682
755 1 0.409584 0.650791 0.757714
779 1 0.414567 0.8444 0.746528
781 1 0.490422 0.836659 0.671251
760 1 0.501848 0.747839 0.74717
759 1 0.56834 0.66948 0.748765
764 1 0.655932 0.766423 0.758061
783 1 0.571605 0.835667 0.755733
762 1 0.738323 0.757067 0.674805
834 1 0.744827 0.756794 0.838559
767 1 0.944266 0.666046 0.75541
768 1 0.822461 0.75214 0.756117
838 1 0.912388 0.749628 0.831896
837 1 0.840157 0.663367 0.821081
723 1 0.0917448 0.49778 0.750655
773 1 0.181803 0.844816 0.670579
771 1 0.0893017 0.843776 0.74445
841 1 0.00586851 0.832011 0.822288
776 1 0.168769 0.920246 0.758562
845 1 0.163477 0.841915 0.834352
498 1 0.749121 0.910301 0.999313
774 1 0.254765 0.924683 0.659028
851 1 0.411317 0.839881 0.917177
780 1 0.318423 0.912242 0.7548
853 1 0.509151 0.838526 0.838649
850 1 0.429713 0.900619 0.836885
778 1 0.403573 0.923487 0.669719
784 1 0.483494 0.922489 0.740031
854 1 0.570571 0.936283 0.832139
782 1 0.576517 0.924186 0.65832
788 1 0.651755 0.91238 0.752343
847 1 0.243896 0.835917 0.91737
457 1 0.986233 0.673316 0.998743
858 1 0.753637 0.919255 0.816726
786 1 0.74982 0.9006 0.664564
787 1 0.749832 0.834545 0.753536
792 1 0.835934 0.916555 0.733907
791 1 0.92405 0.833073 0.745406
861 1 0.83683 0.836334 0.83438
772 1 0.991994 0.915471 0.731511
862 1 0.935806 0.914848 0.834134
794 1 0.0883679 0.581532 0.822168
721 1 0.00344274 0.503697 0.674434
798 1 0.256032 0.580584 0.839584
800 1 0.17249 0.580201 0.915923
804 1 0.343751 0.579522 0.914722
651 1 0.0778333 0.512978 0.59162
825 1 0.329749 0.678078 0.847497
802 1 0.416363 0.571349 0.828575
827 1 0.417372 0.658513 0.906066
808 1 0.499306 0.583643 0.922741
820 1 -0.000357965 0.753094 0.909638
293 1 0.168952 0.997522 0.664047
465 1 0.342704 0.650368 0.998164
831 1 0.5839 0.66089 0.915002
833 1 0.651039 0.670317 0.823324
835 1 0.747518 0.678431 0.910929
812 1 0.663101 0.601278 0.906529
846 1 0.25491 0.916433 0.838769
836 1 0.663623 0.755504 0.909859
814 1 0.914915 0.585453 0.84417
817 1 0.0158532 0.670569 0.838281
816 1 0.828086 0.59615 0.913765
796 1 0.0179846 0.578231 0.910716
291 1 0.0777461 0.995161 0.752488
839 1 0.92446 0.669618 0.913736
840 1 0.822878 0.751172 0.910064
478 1 0.918699 0.763703 0.994837
819 1 0.0873807 0.668676 0.926194
843 1 0.0773859 0.83692 0.912648
227 1 0.410998 0.995851 0.584714
830 1 0.560554 0.74492 0.835574
821 1 0.173222 0.675711 0.838983
824 1 0.171224 0.745671 0.919711
823 1 0.249164 0.663983 0.922476
844 1 0.00773399 0.915897 0.932837
477 1 0.822042 0.667936 0.994596
826 1 0.417144 0.739296 0.825241
832 1 0.490834 0.754604 0.923758
829 1 0.494072 0.66393 0.830773
828 1 0.321301 0.761604 0.920945
848 1 0.144346 0.91291 0.927657
842 1 0.0919993 0.930133 0.837027
311 1 0.92695 1.00049 0.747116
379 1 0.743496 0.994323 0.906001
655 1 0.267165 0.503024 0.590659
17 1 0.679005 0.996431 0.988694
377 1 0.67061 0.993453 0.823605
815 1 0.912419 0.498698 0.916311
735 1 0.575944 0.508868 0.748425
809 1 0.657596 0.51811 0.831028
437 1 0.163785 0.506914 0.992007
737 1 0.655969 0.512932 0.67301
305 1 0.663541 0.99102 0.66568
229 1 0.495801 0.999366 0.504917
673 1 0.00364779 0.668566 0.501198
710 1 0.599387 0.925304 0.502342
654 1 0.23168 0.578041 0.502774
470 1 0.586757 0.750651 0.998611
5 1 0.152578 0.999942 0.999851
450 1 0.741819 0.579643 0.975374
474 1 0.738812 0.753903 0.992031
221 1 0.163863 0.99964 0.504503
462 1 0.252389 0.742685 0.999367
713 1 0.667188 0.831193 0.502207
678 1 0.248436 0.761426 0.499913
698 1 0.0631692 0.903111 0.502918
490 1 0.423874 0.904124 0.996755
657 1 0.334008 0.511702 0.50432
466 1 0.403149 0.749955 0.996674
686 1 0.572183 0.731173 0.508476
690 1 0.742741 0.742677 0.509193
677 1 0.148411 0.675838 0.49938
649 1 0.998018 0.502309 0.504146
