ITEM: TIMESTEP
35500
ITEM: NUMBER OF ATOMS
864
ITEM: BOX BOUNDS pp pp pp
0.0000000000000000e+00 3.1559999999999999e+01
0.0000000000000000e+00 3.1559999999999999e+01
0.0000000000000000e+00 3.1559999999999999e+01
ITEM: ATOMS id type xs ys zs
27 1 0.0749244 0.160378 0.0880693
4 1 0.991398 0.0944 0.081279
589 1 0.493156 0.498006 0.331345
270 1 0.243879 0.417277 0.50708
8 1 0.170801 0.0872265 0.0764945
12 1 0.330384 0.0795975 0.0991327
85 1 0.496402 0.00640309 0.172008
82 1 0.413694 0.090167 0.170186
16 1 0.489966 0.0830347 0.0782627
591 1 0.572799 0.478471 0.424655
196 1 1.00494 0.402042 0.41229
86 1 0.587172 0.0939328 0.158252
20 1 0.675754 0.0937138 0.0846696
261 1 0.816024 0.154507 0.492335
24 1 0.83366 0.0894289 0.074028
511 1 0.255415 0.489605 0.231156
439 1 0.251113 0.491982 0.09463
193 1 0.000347438 0.316491 0.319951
216 1 0.84621 0.43751 0.41802
94 1 0.902706 0.0870921 0.169288
159 1 0.587288 -0.00102051 0.424236
51 1 0.0766588 0.311704 0.078529
28 1 0.996492 0.236788 0.0881524
61 1 0.483767 0.331686 -0.0132718
97 1 0.994294 0.16246 0.170516
31 1 0.246155 0.164322 0.0801581
32 1 0.162076 0.246182 0.0793825
36 1 0.333475 0.23217 0.075315
285 1 0.82546 0.345315 0.495552
221 1 0.177762 -0.000819808 0.501137
447 1 0.591427 0.492838 0.0844711
35 1 0.401581 0.155757 0.0811396
105 1 0.325351 0.165437 0.168108
89 1 0.681203 0.0149796 0.166401
39 1 0.575135 0.162121 0.0810453
40 1 0.492281 0.229116 0.0777269
42 1 0.757569 0.259103 0.0140457
43 1 0.755826 0.178276 0.0910006
44 1 0.659688 0.257838 0.0899647
48 1 0.844838 0.247084 0.071558
241 1 0.997296 0.168757 0.48896
577 1 0.987868 0.506171 0.342363
14 1 0.595542 0.0928419 -0.000400956
47 1 0.921332 0.166582 0.0886685
118 1 0.903465 0.252105 0.172215
52 1 0.992945 0.400696 0.101996
122 1 0.0858678 0.407946 0.156385
56 1 0.162014 0.40176 0.0726322
435 1 0.0851602 0.505558 0.0850339
55 1 0.254873 0.310244 0.0767616
79 1 0.254003 0.00356375 0.261702
10 1 0.407242 0.0860202 -0.0084071
129 1 0.331267 0.319717 0.168579
661 1 0.496312 0.499602 0.511067
59 1 0.410877 0.329277 0.0699755
60 1 0.333554 0.404076 0.0819225
203 1 0.412963 0.33197 0.408098
63 1 0.582175 0.322829 0.0698526
64 1 0.492773 0.405182 0.0773842
13 1 0.506439 0.00139388 -0.00887715
70 1 0.922199 0.430329 -0.00614757
68 1 0.663133 0.417945 0.0874875
67 1 0.752004 0.348028 0.0781418
72 1 0.840644 0.426965 0.0878775
53 1 0.174198 0.327448 -0.00649789
71 1 0.909521 0.328865 0.0956947
141 1 0.83614 0.337987 0.178039
210 1 0.762025 0.426791 0.341668
513 1 0.340976 0.494393 0.1614
74 1 0.0740547 0.085728 0.161354
99 1 0.083757 0.164003 0.256734
146 1 0.0747529 0.0774428 0.335288
173 1 0.161273 0.148037 0.336802
78 1 0.239014 0.0862031 0.15921
80 1 0.173116 0.0840102 0.250648
101 1 0.161306 0.161693 0.163532
103 1 0.248021 0.165728 0.262729
84 1 0.331525 0.088641 0.278192
213 1 0.823905 0.338022 0.34015
208 1 0.483033 0.420927 0.40763
154 1 0.428065 0.0996973 0.33576
88 1 0.514331 0.0950934 0.260817
107 1 0.417215 0.178755 0.263872
177 1 0.331554 0.182264 0.331522
113 1 0.677266 0.16867 0.162764
151 1 0.249845 -0.00150201 0.420873
92 1 0.65953 0.0787663 0.24983
111 1 0.596086 0.171982 0.245687
87 1 0.585654 -0.0015042 0.263255
90 1 0.756281 0.0888413 0.174508
115 1 0.739374 0.165686 0.261745
96 1 0.836509 0.0643022 0.251237
162 1 0.735879 0.0788914 0.34783
206 1 0.590771 0.420887 0.335518
189 1 0.832251 0.150712 0.333712
76 1 -0.00750496 0.0667581 0.241729
98 1 0.086681 0.237573 0.161551
121 1 0.00116206 0.315286 0.167192
170 1 0.0858685 0.23829 0.341468
104 1 0.170317 0.240465 0.23752
102 1 0.247225 0.242816 0.165226
174 1 0.241991 0.255056 0.336025
109 1 0.501389 0.160545 0.162604
106 1 0.405898 0.244768 0.165722
108 1 0.330284 0.256167 0.253333
112 1 0.506674 0.254352 0.244339
178 1 0.415673 0.270449 0.318621
133 1 0.498138 0.320166 0.151023
110 1 0.58152 0.25245 0.167904
116 1 0.687579 0.258194 0.235639
182 1 0.576054 0.257988 0.320471
117 1 0.834783 0.164891 0.166629
114 1 0.768028 0.26541 0.147249
186 1 0.747063 0.249529 0.33881
120 1 0.814379 0.244793 0.246133
119 1 0.921352 0.162959 0.255263
100 1 0.00176866 0.240251 0.240578
143 1 0.914162 0.338328 0.249341
190 1 0.901972 0.261595 0.332026
123 1 0.0876554 0.308563 0.246378
194 1 0.0819269 0.420964 0.331834
128 1 0.162729 0.405261 0.258209
124 1 0.00280472 0.411048 0.238099
125 1 0.154227 0.327266 0.152551
126 1 0.25131 0.405095 0.15864
127 1 0.240611 0.322657 0.253402
132 1 0.333172 0.410684 0.25484
130 1 0.414744 0.411076 0.152406
202 1 0.407009 0.412333 0.340895
131 1 0.435299 0.344131 0.244236
136 1 0.513208 0.4225 0.239777
437 1 0.157162 0.491092 0.00955316
137 1 0.668821 0.355807 0.173107
134 1 0.571702 0.414523 0.148832
135 1 0.574606 0.330304 0.241126
140 1 0.668262 0.42814 0.261929
29 1 0.170275 0.165557 -0.00174299
509 1 0.153396 0.489186 0.171998
19 1 0.7505 -0.0118474 0.0732579
515 1 0.413919 0.476456 0.253075
139 1 0.744331 0.356639 0.242717
138 1 0.752649 0.418771 0.165551
209 1 0.664029 0.33271 0.324285
214 1 0.930888 0.411299 0.335277
144 1 0.837844 0.421933 0.263972
142 1 0.912754 0.410316 0.171241
198 1 0.241298 0.413785 0.335894
148 1 0.0117063 0.0832324 0.420077
205 1 0.505929 0.348836 0.32656
212 1 0.671045 0.41061 0.407624
150 1 0.24303 0.0812748 0.353009
152 1 0.1609 0.0776134 0.425952
175 1 0.255444 0.175791 0.421858
523 1 0.744203 0.499038 0.242683
156 1 0.338762 0.0847377 0.418603
160 1 0.494118 0.0873966 0.419725
179 1 0.41326 0.173842 0.42637
519 1 0.57844 0.501779 0.234815
215 1 0.912032 0.333494 0.41089
81 1 0.333374 0.0170815 0.204923
158 1 0.592517 0.0833722 0.338183
181 1 0.515491 0.179241 0.335387
183 1 0.572542 0.17383 0.417631
15 1 0.580809 0.0101523 0.0849335
164 1 0.667188 0.0753151 0.426554
187 1 0.747533 0.177956 0.425359
149 1 0.168901 0.00859367 0.337328
191 1 0.908422 0.172553 0.41715
211 1 0.748998 0.333358 0.41447
169 1 1.00508 0.167183 0.34581
166 1 0.927996 0.0714069 0.329837
168 1 0.82115 0.0750273 0.410127
204 1 0.314586 0.411134 0.412581
195 1 0.0930879 0.334589 0.41099
171 1 0.0885728 0.1593 0.41778
192 1 0.826579 0.265947 0.417775
197 1 0.165365 0.326942 0.336947
199 1 0.237927 0.329691 0.41677
176 1 0.178462 0.246094 0.429509
200 1 0.163991 0.423823 0.415983
172 1 0.00798494 0.253169 0.423094
201 1 0.33287 0.340263 0.33543
180 1 0.336996 0.256606 0.413209
188 1 0.664746 0.263908 0.413839
207 1 0.586526 0.343079 0.418874
184 1 0.493322 0.261678 0.408148
185 1 0.655339 0.181534 0.342812
269 1 0.161562 0.325811 0.513545
587 1 0.392166 0.491245 0.42125
95 1 0.913557 -0.00672403 0.233811
286 1 0.918499 0.418826 0.496231
238 1 0.911056 0.088774 0.493274
455 1 0.926506 0.499033 0.0942259
165 1 0.828458 -0.00501916 0.33893
249 1 0.340591 0.173409 0.519117
58 1 0.412487 0.410888 -0.00457439
6 1 0.251942 0.0741669 0.000255435
585 1 0.316265 0.501531 0.32916
3 1 0.0849074 0.00628332 0.0787723
245 1 0.165288 0.170022 0.498225
278 1 0.587999 0.407703 0.503528
250 1 0.420509 0.25964 0.497022
583 1 0.25065 0.501175 0.428515
91 1 0.754015 0.00351183 0.262937
517 1 0.506038 0.499877 0.155479
73 1 0.990677 0.0124139 0.142517
505 1 1.00415 0.502119 0.172997
41 1 0.659677 0.179627 0.0103249
21 1 0.833062 0.00105841 -0.000281158
2 1 0.0845335 0.0894176 0.00191572
257 1 0.657996 0.166534 0.499796
57 1 0.324438 0.324492 -0.0131071
274 1 0.407461 0.406748 0.493167
277 1 0.502266 0.336316 0.492642
445 1 0.504844 0.490667 0.00258395
262 1 0.914159 0.264383 0.488018
50 1 0.0698968 0.409914 0.0169953
266 1 0.0843955 0.430492 0.490193
49 1 0.977238 0.333167 0.00617466
18 1 0.744476 0.112622 -0.00122622
26 1 0.0744961 0.239126 -0.00777629
282 1 0.758919 0.430502 0.495267
273 1 0.335828 0.333819 0.499687
441 1 0.328794 0.492375 0.00806199
665 1 0.664505 0.508787 0.481998
69 1 0.852628 0.343064 1.01259
313 1 -0.00248059 0.172351 0.663646
290 1 0.0755842 0.0949877 0.663062
369 1 0.338083 -0.0130078 0.841296
317 1 0.161262 0.169008 0.671315
224 1 0.16849 0.0899419 0.585039
247 1 0.244534 0.176087 0.580877
653 1 0.176852 0.493079 0.500792
228 1 0.328466 0.0929875 0.586237
232 1 0.49855 0.0778357 0.586597
298 1 0.419098 0.0959629 0.657037
255 1 0.581026 0.176079 0.564928
735 1 0.58883 0.508189 0.748314
365 1 0.168658 -0.00297708 0.826285
219 1 0.0832052 -0.00124173 0.589471
236 1 0.651902 0.0687121 0.580765
329 1 0.657707 0.175411 0.675141
307 1 0.738705 0.00833816 0.754906
259 1 0.747932 0.162028 0.58555
723 1 0.0907096 0.487224 0.747132
361 1 0.0163175 -0.00731557 0.829813
220 1 0.983989 0.0787645 0.576536
240 1 0.82195 0.0852694 0.564704
263 1 0.916876 0.175066 0.570344
310 1 0.921829 0.0889818 0.661388
333 1 0.836001 0.172158 0.656039
383 1 0.915661 0.00869649 0.918375
243 1 0.0809742 0.157335 0.581904
267 1 0.078895 0.323639 0.589106
244 1 0.000266476 0.24175 0.562558
314 1 0.0798377 0.243854 0.672688
341 1 0.163313 0.330063 0.675167
248 1 0.16177 0.252731 0.58656
271 1 0.241698 0.322909 0.596674
318 1 0.243395 0.247022 0.680715
291 1 0.0785163 -0.00307846 0.727356
252 1 0.331278 0.256877 0.589265
251 1 0.427612 0.177338 0.567732
256 1 0.503778 0.258127 0.585513
321 1 0.323873 0.159665 0.668632
322 1 0.416038 0.253342 0.671001
279 1 0.57824 0.348013 0.587784
743 1 0.932967 0.496811 0.742164
260 1 0.657951 0.269257 0.589987
357 1 0.840294 0.330373 0.665246
309 1 0.826851 0.0135825 0.672311
264 1 0.839965 0.254637 0.560861
287 1 0.919651 0.336235 0.581315
334 1 0.91899 0.244618 0.677076
303 1 0.578648 -0.00316298 0.758916
803 1 0.425748 0.487147 0.910844
793 1 0.0102865 0.488691 0.838304
338 1 0.0518515 0.420789 0.662045
272 1 0.163132 0.406652 0.588474
432 1 0.839683 0.418482 0.916198
276 1 0.319005 0.406864 0.590093
345 1 0.333718 0.334989 0.681683
275 1 0.418127 0.339851 0.583937
280 1 0.500348 0.417824 0.581645
222 1 0.248699 0.0893241 0.49556
349 1 0.500228 0.323194 0.683467
284 1 0.663808 0.407684 0.590498
54 1 0.254764 0.411291 1.00309
651 1 0.0895202 0.494235 0.584716
663 1 0.585467 0.487185 0.57496
295 1 0.267502 0.00870619 0.7441
289 1 0.991775 0.00491044 0.658519
283 1 0.753296 0.336598 0.592848
659 1 0.422574 0.494219 0.585633
337 1 -0.000657445 0.322006 0.673624
268 1 0.988018 0.416807 0.574002
288 1 0.843304 0.422781 0.585188
358 1 0.926745 0.424934 0.669062
296 1 0.154251 0.0834907 0.74719
315 1 0.0893966 0.159671 0.751586
367 1 0.250853 -0.000742153 0.920757
294 1 0.237419 0.0940267 0.658571
300 1 0.346105 0.0811857 0.753966
366 1 0.247815 0.0667361 0.826178
304 1 0.507345 0.0846271 0.762279
370 1 0.414974 0.0759912 0.836023
302 1 0.580975 0.0806984 0.663818
327 1 0.575091 0.159925 0.754667
374 1 0.586334 0.0946206 0.843184
30 1 0.24179 0.244786 0.986085
807 1 0.572844 0.507452 0.910091
306 1 0.731715 0.0903864 0.652198
305 1 0.665505 0.00322137 0.678426
308 1 0.662697 0.0879311 0.747153
312 1 0.856644 0.0962683 0.744589
292 1 0.00244612 0.0779809 0.749042
38 1 0.585859 0.255693 0.991958
382 1 0.917048 0.0870035 0.833206
320 1 0.162329 0.254153 0.756435
339 1 0.0840705 0.321995 0.756954
389 1 0.164459 0.168198 0.829179
413 1 0.159933 0.334242 0.841327
386 1 0.0839492 0.246244 0.832781
319 1 0.254357 0.164722 0.75294
390 1 0.239796 0.263257 0.844469
343 1 0.255013 0.332585 0.764389
393 1 0.324022 0.178385 0.83388
325 1 0.501694 0.173795 0.655992
323 1 0.426047 0.159678 0.7448
324 1 0.329281 0.244137 0.74094
328 1 0.499705 0.246771 0.771914
394 1 0.414041 0.243676 0.835631
421 1 0.494505 0.335632 0.848256
326 1 0.576296 0.248648 0.675635
351 1 0.581847 0.329185 0.763356
330 1 0.744497 0.248711 0.67049
331 1 0.75622 0.143668 0.735168
332 1 0.656498 0.252928 0.760228
355 1 0.744729 0.338354 0.745035
429 1 0.843343 0.340079 0.821433
316 1 0.00913283 0.24827 0.744631
336 1 0.836058 0.256742 0.736385
335 1 0.942539 0.1649 0.748372
359 1 0.919511 0.338644 0.747609
235 1 0.745095 0.00172392 0.592856
409 1 -0.00109755 0.320709 0.82821
344 1 0.162486 0.403258 0.750276
410 1 0.0880037 0.413688 0.843858
797 1 0.150357 0.510219 0.828219
805 1 0.505844 0.498862 0.830992
342 1 0.249674 0.41858 0.661124
348 1 0.319691 0.421043 0.758293
223 1 0.248043 0.0112167 0.582528
346 1 0.417152 0.408699 0.662339
347 1 0.420384 0.332203 0.748738
352 1 0.493527 0.423137 0.745098
418 1 0.411496 0.409939 0.828993
415 1 0.261709 0.34899 0.907515
350 1 0.577666 0.409012 0.67842
353 1 0.658082 0.334081 0.673375
354 1 0.752997 0.424358 0.667112
356 1 0.665281 0.438556 0.744953
426 1 0.755206 0.417079 0.825358
414 1 0.234494 0.426157 0.843628
417 1 0.340718 0.314468 0.817283
65 1 0.685814 0.350734 0.99778
253 1 0.498502 0.175995 0.489861
340 1 0.00763663 0.410654 0.758755
360 1 0.839556 0.42928 0.737222
430 1 0.91582 0.431986 0.849071
431 1 0.915244 0.322582 0.901921
362 1 0.0937124 0.0709653 0.835122
368 1 0.172699 0.0754162 0.926669
385 1 0.0120099 0.160139 0.835834
729 1 0.340514 0.490413 0.675257
416 1 0.154435 0.407119 0.925193
407 1 0.9161 0.166736 0.910264
281 1 0.682014 0.336314 0.488007
372 1 0.328783 0.0804031 0.907917
376 1 0.500923 0.0667623 0.906674
425 1 0.666791 0.34845 0.829253
234 1 0.734252 0.0810315 0.49654
399 1 0.578438 0.174947 0.91947
299 1 0.425955 0.000476865 0.750368
424 1 0.501884 0.416045 0.928149
405 1 0.82979 0.17426 0.814688
380 1 0.670225 0.0934009 0.917528
378 1 0.753363 0.0922505 0.826749
811 1 0.758245 0.484187 0.915387
412 1 0.998859 0.409564 0.911401
364 1 0.0181571 0.0674059 0.916832
384 1 0.81101 0.0781857 0.917846
423 1 0.59853 0.341337 0.911279
428 1 0.676016 0.421698 0.903817
411 1 0.0802037 0.327323 0.917945
388 1 1.00095 0.252874 0.914442
387 1 0.0831617 0.148154 0.911264
422 1 0.589128 0.422531 0.840857
406 1 0.919032 0.248584 0.815721
391 1 0.239702 0.163542 0.903655
392 1 0.154558 0.23685 0.922636
396 1 0.319597 0.256669 0.911653
420 1 0.332611 0.418198 0.914341
397 1 0.497713 0.163431 0.838686
395 1 0.416549 0.156365 0.904306
400 1 0.496252 0.250777 0.924312
419 1 0.401661 0.330783 0.908094
398 1 0.576094 0.254086 0.848107
401 1 0.664499 0.171741 0.844831
404 1 0.683741 0.261766 0.925362
402 1 0.759823 0.256305 0.817238
427 1 0.765591 0.330826 0.913769
408 1 0.825497 0.257591 0.926659
403 1 0.754339 0.172845 0.91705
265 1 0.00182252 0.334662 0.507446
66 1 0.764811 0.420546 0.995533
375 1 0.598624 -0.00296094 0.917867
727 1 0.247919 0.499222 0.756794
799 1 0.243262 0.499934 0.922715
226 1 0.409938 0.0781925 0.504318
667 1 0.731652 0.504825 0.565647
293 1 0.173139 0.00223155 0.663263
242 1 0.0892047 0.259611 0.490408
46 1 0.915352 0.233529 0.99346
34 1 0.415837 0.242522 0.998106
25 1 -0.0025658 0.158658 0.977965
33 1 0.321511 0.165452 0.982192
230 1 0.581376 0.0927471 0.501212
657 1 0.33282 0.487821 0.518212
433 1 0.00363476 0.503837 0.996457
62 1 0.594587 0.421219 1.00267
258 1 0.736942 0.252203 0.506578
246 1 0.257033 0.25925 0.494374
22 1 0.9165 0.0901935 0.990177
218 1 0.0923959 0.0773055 0.507524
45 1 0.822881 0.168093 1.00111
37 1 0.502484 0.150079 0.991045
254 1 0.599553 0.261866 0.499713
225 1 0.33749 -0.0043986 0.511939
436 1 -0.000701068 0.584116 0.0861605
649 1 1.00301 0.510292 0.5026
443 1 0.417173 0.497555 0.0865631
440 1 0.170755 0.576861 0.0979421
510 1 0.258117 0.579966 0.152541
697 1 1.00506 0.842072 0.49948
444 1 0.334682 0.59468 0.08123
448 1 0.502155 0.57623 0.0780296
454 1 0.921364 0.579093 0.00513584
471 1 0.577902 0.658712 0.0822033
518 1 0.569301 0.584087 0.161952
581 1 0.158598 0.500414 0.338888
452 1 0.655633 0.574112 0.0839157
456 1 0.83538 0.584722 0.0832293
475 1 0.747581 0.657903 0.0754673
522 1 0.75476 0.576445 0.161367
461 1 0.180358 0.65276 0.0188082
479 1 0.908247 0.671141 0.0839968
529 1 0.996032 0.67686 0.158933
549 1 0.83269 0.666273 0.163026
459 1 0.0944998 0.671284 0.0864961
530 1 0.0831605 0.748481 0.163599
464 1 0.175983 0.758768 0.0774744
483 1 0.0765932 0.832252 0.096606
533 1 0.187378 0.668041 0.158249
463 1 0.267364 0.681891 0.0857036
534 1 0.274182 0.747728 0.172433
467 1 0.427309 0.660206 0.0875318
468 1 0.342225 0.758038 0.0822189
491 1 0.431539 0.839846 0.0879465
538 1 0.412408 0.737665 0.170739
472 1 0.494253 0.745695 0.079697
476 1 0.655119 0.737414 0.0870357
565 1 0.498144 0.835288 0.179131
542 1 0.571755 0.750087 0.165826
499 1 0.735296 0.824047 0.0829145
480 1 0.839578 0.758721 0.0616091
573 1 0.817274 0.833729 0.157229
579 1 0.0785446 0.512505 0.413663
493 1 0.51376 0.828696 0.000853792
460 1 0.981183 0.738209 0.0714329
503 1 0.919973 0.838362 0.0857422
550 1 0.905286 0.757026 0.152605
488 1 0.150735 0.921572 0.0897115
646 1 0.909271 0.920026 0.324838
507 1 0.0835901 0.505414 0.249439
557 1 0.159435 0.827836 0.162704
487 1 0.237858 0.848318 0.0712957
558 1 0.257626 0.929662 0.175379
561 1 0.327502 0.840051 0.153261
492 1 0.340017 0.92023 0.0801064
496 1 0.513551 0.907632 0.0909428
648 1 0.830828 0.918851 0.415631
562 1 0.401114 0.9296 0.183261
495 1 0.588499 0.825293 0.0915297
566 1 0.59596 0.930757 0.165128
500 1 0.66639 0.923066 0.0866419
494 1 0.576151 0.916631 0.00553204
83 1 0.422842 0.997296 0.26113
570 1 0.743266 0.915038 0.157786
504 1 0.82195 0.904543 0.0792862
673 1 1.01166 0.665541 0.507258
484 1 -0.00263983 0.918344 0.078371
574 1 0.896083 0.915335 0.161484
593 1 0.684248 0.503565 0.337355
157 1 0.501049 0.990237 0.342204
506 1 0.0775814 0.586181 0.160202
647 1 0.915242 0.840581 0.408011
153 1 0.332366 1.00666 0.344326
508 1 -0.00255935 0.581839 0.258445
531 1 0.0781666 0.668365 0.234913
512 1 0.173359 0.588951 0.238546
578 1 0.0778715 0.587086 0.326381
595 1 0.756722 0.506576 0.414957
535 1 0.252491 0.659723 0.265285
597 1 0.838921 0.504177 0.340311
516 1 0.343728 0.570864 0.236038
670 1 0.918438 0.590742 0.509489
514 1 0.42088 0.581253 0.161543
586 1 0.410193 0.568546 0.323715
613 1 0.486739 0.659585 0.332212
520 1 0.506637 0.585956 0.253046
543 1 0.579652 0.669102 0.25163
541 1 0.494367 0.665753 0.169674
590 1 0.576659 0.58265 0.333745
545 1 0.642536 0.65909 0.169323
644 1 0.666588 0.908441 0.413142
11 1 0.416356 0.995993 0.0809887
524 1 0.653368 0.578873 0.244173
526 1 0.92107 0.584488 0.170185
528 1 0.815037 0.581102 0.256164
551 1 0.909477 0.674449 0.235073
553 1 0.989562 0.837974 0.163246
532 1 -0.00920676 0.763288 0.250005
536 1 0.173686 0.740885 0.237385
540 1 0.342133 0.746459 0.260844
559 1 0.251174 0.833694 0.24331
606 1 0.238686 0.746099 0.33664
537 1 0.345401 0.65952 0.169558
539 1 0.419157 0.652696 0.245896
633 1 0.321497 0.819342 0.335629
609 1 0.338787 0.654366 0.314604
610 1 0.416681 0.766462 0.336784
544 1 0.489039 0.749418 0.251297
567 1 0.587949 0.842557 0.24716
614 1 0.566969 0.768694 0.315818
548 1 0.663326 0.747462 0.250548
547 1 0.742852 0.673779 0.237275
546 1 0.738428 0.737571 0.159125
571 1 0.735217 0.821031 0.239983
621 1 0.831385 0.67478 0.326307
552 1 0.820761 0.751121 0.23844
555 1 0.0793496 0.834762 0.250702
625 1 0.995132 0.845985 0.328448
554 1 0.0764153 0.912946 0.171883
560 1 0.170389 0.913475 0.252992
556 1 0.998168 0.91498 0.24113
626 1 0.0830172 0.907657 0.331413
147 1 0.086011 0.993187 0.414019
564 1 0.338338 0.908036 0.26598
689 1 0.6696 0.65891 0.49391
145 1 1.00325 0.990172 0.330131
163 1 0.740336 0.992208 0.420983
563 1 0.407824 0.833466 0.241893
637 1 0.496487 0.843227 0.334645
634 1 0.415185 0.910677 0.353349
568 1 0.496429 0.922856 0.24651
572 1 0.681073 0.926683 0.243798
599 1 0.915824 0.515666 0.418968
569 1 0.655318 0.84329 0.175533
641 1 0.663951 0.835141 0.324574
642 1 0.761576 0.911882 0.340013
576 1 0.831045 0.912435 0.24434
710 1 0.595128 0.914856 0.504114
575 1 0.912032 0.833784 0.241939
75 1 0.0799947 0.999643 0.25394
93 1 0.825112 0.990812 0.14842
527 1 0.916365 0.513502 0.24607
584 1 0.191944 0.590047 0.417082
582 1 0.242649 0.574179 0.332163
465 1 0.348067 0.674315 -0.00191254
588 1 0.3246 0.579176 0.410977
592 1 0.485632 0.560458 0.420021
229 1 0.497413 1.00212 0.512862
77 1 0.16581 1.0047 0.172056
615 1 0.575098 0.668084 0.39911
596 1 0.664593 0.585732 0.416095
594 1 0.749084 0.59931 0.344446
462 1 0.266161 0.741165 0.00601436
600 1 0.844548 0.600608 0.419004
155 1 0.412306 1.0104 0.417987
685 1 0.495202 0.65838 0.500847
580 1 -0.0104285 0.58739 0.412319
598 1 0.918609 0.585888 0.330149
167 1 0.908579 0.998391 0.422596
603 1 0.0926328 0.675438 0.42173
605 1 0.164763 0.662514 0.34275
629 1 0.170461 0.830059 0.328008
602 1 0.0917703 0.749464 0.334132
604 1 0.0130922 0.757006 0.427496
709 1 0.507065 0.847352 0.50341
607 1 0.261883 0.673814 0.414869
608 1 0.185056 0.752325 0.427122
631 1 0.248669 0.841424 0.418776
23 1 0.909015 1.00051 0.0798396
635 1 0.427268 0.837947 0.427141
611 1 0.406674 0.654014 0.412105
612 1 0.338103 0.754286 0.42766
616 1 0.489129 0.745208 0.415705
620 1 0.661304 0.763474 0.414131
617 1 0.661465 0.667414 0.323736
618 1 0.743306 0.741622 0.318145
643 1 0.753118 0.825466 0.413085
619 1 0.749974 0.675024 0.415104
525 1 0.844335 0.483694 0.172527
645 1 0.82328 0.821633 0.326112
622 1 0.907938 0.756216 0.331646
623 1 0.92876 0.680053 0.41823
601 1 0.999634 0.665723 0.332924
624 1 0.835051 0.74934 0.420435
628 1 -0.0155768 0.918522 0.410627
521 1 0.663726 0.493862 0.154393
632 1 0.169997 0.904645 0.418865
627 1 0.0901882 0.832287 0.416146
630 1 0.246421 0.913064 0.334479
438 1 0.24819 0.572382 0.0129479
639 1 0.576063 0.83901 0.407433
636 1 0.329367 0.920199 0.416606
640 1 0.4972 0.929544 0.431794
451 1 0.734807 0.495464 0.0804169
638 1 0.58092 0.912637 0.329736
161 1 0.665946 0.994699 0.346943
1 1 0.993637 1.00691 0.000218371
7 1 0.238421 0.991082 0.0833297
490 1 0.431447 0.921852 0.00318553
466 1 0.422835 0.754453 0.00261877
489 1 0.340731 0.847387 0.00875853
457 1 1.00016 0.655516 0.0139487
714 1 0.750244 0.914801 0.497956
482 1 0.075136 0.927219 0.00544786
237 1 0.82973 1.00648 0.492102
502 1 0.919317 0.925579 0.00385324
450 1 0.757691 0.58087 -0.0112601
718 1 0.912164 0.916365 0.493707
662 1 0.577768 0.578539 0.474257
702 1 0.254034 0.924235 0.492055
9 1 0.33281 1.00559 0.00399213
658 1 0.41186 0.579449 0.501722
698 1 0.0682811 0.934027 0.497181
656 1 0.177537 0.587029 0.598003
722 1 0.0857377 0.581414 0.665602
745 1 0.00624539 0.665524 0.667775
453 1 0.844228 0.508731 1.01436
679 1 0.255381 0.668523 0.598232
726 1 0.254347 0.584313 0.68272
239 1 0.904572 1.00275 0.573521
442 1 0.421301 0.576176 1.00664
660 1 0.33483 0.574264 0.594234
863 1 0.920054 0.834558 0.90554
730 1 0.411781 0.577132 0.678755
731 1 0.407813 0.491234 0.762401
664 1 0.502585 0.580141 0.586626
668 1 0.653714 0.582689 0.586717
678 1 0.260835 0.752064 0.501287
761 1 0.666769 0.667177 0.66797
301 1 0.497331 0.995955 0.675961
672 1 0.825761 0.589164 0.578388
738 1 0.752659 0.568071 0.646894
231 1 0.586159 0.989277 0.577301
693 1 0.832046 0.671361 0.498876
652 1 0.0233019 0.581105 0.579641
695 1 0.922155 0.672091 0.584053
733 1 0.489789 0.512935 0.680539
675 1 0.0904851 0.670407 0.587508
746 1 0.095714 0.757389 0.656658
749 1 0.162411 0.662077 0.684381
481 1 1.00653 0.827139 1.00186
227 1 0.411234 1.0078 0.59927
680 1 0.176831 0.7463 0.591945
703 1 0.254928 0.827622 0.598196
750 1 0.249096 0.749182 0.668577
773 1 0.18376 0.847205 0.673655
449 1 0.672849 0.489614 0.991303
684 1 0.341877 0.746209 0.585227
683 1 0.420938 0.668764 0.576276
381 1 0.839239 1.02171 0.814932
836 1 0.66056 0.755498 0.935306
688 1 0.500285 0.742068 0.59377
687 1 0.580755 0.658921 0.574095
692 1 0.651596 0.739376 0.585057
725 1 0.171597 0.494984 0.675552
691 1 0.74279 0.665395 0.581504
696 1 0.839182 0.760471 0.57016
789 1 0.840324 0.815513 0.663363
671 1 0.92064 0.513997 0.58048
371 1 0.40305 0.999515 0.920815
676 1 0.00581244 0.757905 0.580034
766 1 0.932875 0.750609 0.663332
719 1 0.904918 0.839372 0.5863
650 1 0.108049 0.570631 0.515115
654 1 0.241866 0.584305 0.508212
699 1 0.0800837 0.84348 0.568768
770 1 0.0963727 0.916619 0.658117
864 1 0.850821 0.920256 0.900291
704 1 0.184004 0.922526 0.579863
774 1 0.259006 0.932635 0.675448
486 1 0.254546 0.922622 1.00431
485 1 0.136637 0.826853 0.996859
737 1 0.668733 0.500108 0.656714
809 1 0.676458 0.516476 0.846206
830 1 0.577749 0.748415 0.845708
707 1 0.414297 0.838564 0.572925
708 1 0.327672 0.924398 0.588083
669 1 0.831778 0.503941 0.50434
850 1 0.413886 0.905719 0.837662
712 1 0.496593 0.921169 0.586864
711 1 0.578142 0.817236 0.573117
498 1 0.759827 0.911431 0.981021
478 1 0.924607 0.747328 0.987039
716 1 0.668974 0.906918 0.580365
715 1 0.753687 0.822397 0.593701
474 1 0.752491 0.744261 1.01118
832 1 0.495971 0.751322 0.920485
700 1 0.989079 0.907056 0.578089
720 1 0.830172 0.922537 0.597975
790 1 0.907277 0.931559 0.677184
848 1 0.172083 0.911713 0.922292
852 1 0.349823 0.901627 0.922488
843 1 0.0764438 0.852957 0.916667
794 1 0.0801677 0.596392 0.835827
724 1 0.00634975 0.584992 0.753421
821 1 0.173735 0.675239 0.844005
501 1 0.841394 0.840385 0.989926
855 1 0.576307 0.830838 0.916064
728 1 0.158345 0.581123 0.755287
732 1 0.344582 0.584359 0.75579
825 1 0.343213 0.688769 0.846637
844 1 0.991893 0.912635 0.913201
736 1 0.490669 0.587518 0.7631
802 1 0.41554 0.577408 0.835439
753 1 0.34116 0.666859 0.67131
755 1 0.420902 0.672674 0.770541
734 1 0.588484 0.578828 0.668387
757 1 0.512182 0.656252 0.672779
759 1 0.574729 0.654281 0.764138
806 1 0.586093 0.582631 0.83943
829 1 0.503309 0.676227 0.837212
858 1 0.749494 0.890058 0.820081
740 1 0.65931 0.584657 0.752944
810 1 0.762102 0.58583 0.843626
744 1 0.854565 0.586995 0.746896
763 1 0.767707 0.635698 0.757957
837 1 0.83858 0.675459 0.836756
742 1 0.929346 0.586483 0.667915
814 1 0.925301 0.568353 0.829085
859 1 0.753637 0.821618 0.91298
747 1 0.0849411 0.670421 0.746802
752 1 0.170001 0.74154 0.746466
818 1 0.0965453 0.751962 0.854886
751 1 0.259732 0.666069 0.765079
775 1 0.254916 0.828113 0.755916
754 1 0.427299 0.720537 0.67489
756 1 0.329289 0.744307 0.743029
777 1 0.346756 0.833987 0.664458
779 1 0.424728 0.827157 0.742812
758 1 0.580817 0.751311 0.664939
760 1 0.501247 0.749711 0.756633
764 1 0.652994 0.758299 0.758385
762 1 0.741521 0.740691 0.661935
765 1 0.826858 0.66858 0.66919
834 1 0.747983 0.753452 0.825705
817 1 1.00833 0.673494 0.819213
748 1 0.0105051 0.753508 0.738426
767 1 0.920114 0.670699 0.748857
768 1 0.823744 0.739917 0.751517
771 1 0.0959964 0.831855 0.753846
772 1 0.00865727 0.923217 0.747258
842 1 0.0939001 0.921339 0.825932
776 1 0.165108 0.926553 0.741242
853 1 0.506336 0.835093 0.824462
849 1 0.321219 0.823562 0.841048
778 1 0.412645 0.919948 0.676737
780 1 0.325867 0.912732 0.760611
784 1 0.492741 0.914832 0.747192
379 1 0.748148 0.994297 0.895996
781 1 0.484038 0.830816 0.657538
785 1 0.660696 0.829613 0.671546
782 1 0.591985 0.922624 0.657395
783 1 0.575614 0.844453 0.733848
788 1 0.658281 0.907943 0.763057
786 1 0.731624 0.919696 0.668304
787 1 0.757792 0.820311 0.737161
792 1 0.825266 0.916617 0.75893
839 1 0.92801 0.657451 0.920472
862 1 0.923696 0.899644 0.822733
861 1 0.848612 0.818742 0.827753
769 1 0.0105425 0.838244 0.651699
841 1 0.010693 0.824641 0.815628
791 1 0.916021 0.824277 0.743315
856 1 0.499699 0.921117 0.925256
854 1 0.582553 0.913115 0.847466
297 1 0.330834 1.01257 0.662511
796 1 0.00294027 0.575495 0.920496
800 1 0.177311 0.584919 0.910077
682 1 0.420276 0.754718 0.50427
363 1 0.0976597 0.992688 0.919637
798 1 0.257332 0.570981 0.833173
373 1 0.496421 0.991137 0.837177
804 1 0.344688 0.584247 0.918726
681 1 0.33296 0.657569 0.498339
820 1 0.00588859 0.759296 0.908688
827 1 0.428241 0.668971 0.920057
721 1 1.00558 0.514156 0.65626
217 1 0.98405 0.999265 0.503195
860 1 0.681213 0.89941 0.901369
808 1 0.496095 0.579068 0.918896
831 1 0.594357 0.670788 0.916786
857 1 0.657944 0.820101 0.842689
473 1 0.663056 0.672461 0.998829
847 1 0.25695 0.833846 0.928256
833 1 0.670484 0.670645 0.832097
812 1 0.662383 0.5913 0.921521
835 1 0.744349 0.671753 0.912942
846 1 0.255564 0.926807 0.835138
840 1 0.839408 0.749423 0.922697
816 1 0.831871 0.575536 0.918577
801 1 0.331064 0.495738 0.846533
838 1 0.928596 0.74487 0.834252
851 1 0.42958 0.841149 0.919471
819 1 0.0880786 0.653722 0.920009
824 1 0.177301 0.736582 0.93591
826 1 0.416803 0.779272 0.83461
822 1 0.242749 0.759308 0.836811
845 1 0.162651 0.838353 0.831508
823 1 0.260635 0.663232 0.92066
828 1 0.344806 0.766307 0.928214
311 1 0.930657 1.00419 0.755322
470 1 0.574965 0.737693 1.00306
813 1 0.833334 0.492973 0.818132
815 1 0.910114 0.499562 0.921422
377 1 0.662859 1.00326 0.829718
713 1 0.66738 0.838293 0.496675
690 1 0.744334 0.754432 0.502603
739 1 0.751993 0.517717 0.752701
706 1 0.411423 0.920727 0.490652
17 1 0.67659 0.992417 0.992167
497 1 0.681713 0.839511 0.995166
655 1 0.247271 0.503415 0.589399
741 1 0.835807 0.506606 0.661896
795 1 0.0861864 0.51056 0.916244
477 1 0.825073 0.663733 0.982865
446 1 0.594585 0.582214 0.994345
701 1 0.178274 0.834198 0.516744
677 1 0.184936 0.666632 0.505322
233 1 0.678178 0.992915 0.504859
458 1 0.0755371 0.736323 1.00137
717 1 0.829321 0.852389 0.503781
694 1 0.92291 0.758327 0.499013
434 1 0.0865674 0.576236 1.00708
705 1 0.329559 0.84524 0.505738
5 1 0.166727 0.994105 1.00769
666 1 0.738978 0.586065 0.504237
674 1 0.106777 0.742993 0.507353
469 1 0.502346 0.659855 1.0032
686 1 0.59082 0.747216 0.486117
