ITEM: TIMESTEP
9500
ITEM: NUMBER OF ATOMS
2048
ITEM: BOX BOUNDS pp pp pp
0.0000000000000000e+00 4.2079999999999998e+01
0.0000000000000000e+00 4.2079999999999998e+01
0.0000000000000000e+00 4.2079999999999998e+01
ITEM: ATOMS id type xs ys zs
4 1 0.998264 0.0509628 0.057024
8 1 0.119015 0.0633693 0.0628917
1161 1 0.253465 0.497002 0.126896
1167 1 0.454066 0.491729 0.189463
538 1 0.816445 0.0594439 0.496685
39 1 0.202265 0.135414 0.0563894
12 1 0.248187 0.0583537 0.0690225
1281 1 0.00696632 0.498679 0.259378
169 1 0.250467 0.1257 0.116595
281 1 0.757091 0.00220385 0.249767
43 1 0.306298 0.120712 0.0619503
89 1 0.752722 0.255818 0.0063132
138 1 0.3191 0.0687612 0.123648
85 1 0.627873 0.247284 0.00238033
582 1 0.184107 0.306816 0.493254
287 1 0.941661 0.00103603 0.317716
16 1 0.378783 0.0478648 0.0585225
20 1 0.507362 0.0710126 0.0653642
177 1 0.497655 0.12623 0.127603
1411 1 0.0661362 0.495125 0.42834
6 1 0.194136 0.0718324 0.00990964
24 1 0.623826 0.0658067 0.0672344
146 1 0.557925 0.0561081 0.130925
150 1 0.692278 0.064701 0.115394
28 1 0.755356 0.0566341 0.0528497
55 1 0.691489 0.127385 0.0750152
602 1 0.811252 0.308702 0.498535
159 1 0.927774 0.00735863 0.178089
59 1 0.812529 0.126404 0.0528718
573 1 0.881878 0.113203 0.492599
154 1 0.807478 0.0679915 0.117884
481 1 0.00274674 0.370459 0.365304
23 1 0.68051 0.0021246 0.0602957
511 1 0.939397 0.370826 0.430892
32 1 0.870852 0.0680759 0.0587772
1415 1 0.189427 0.48707 0.422753
35 1 0.0688845 0.138803 0.0633695
36 1 0.00207601 0.200899 0.0614218
37 1 0.136607 0.129253 0.0145454
526 1 0.436695 0.0600549 0.496247
40 1 0.135571 0.202041 0.0576988
44 1 0.267016 0.193192 0.0582739
71 1 0.195556 0.257258 0.0654589
1285 1 0.128298 0.492928 0.259749
170 1 0.305676 0.179801 0.126
48 1 0.370892 0.177653 0.0580978
626 1 0.551867 0.437352 0.497223
47 1 0.435081 0.115726 0.0683743
79 1 0.432249 0.249096 0.0536964
52 1 0.493467 0.184369 0.0586231
51 1 0.563357 0.127301 0.0560268
83 1 0.573383 0.253488 0.0644408
178 1 0.559374 0.182048 0.113473
181 1 0.620018 0.135694 0.126236
213 1 0.627856 0.239655 0.123996
407 1 0.682967 0.00758949 0.448377
56 1 0.624003 0.175743 0.0573003
60 1 0.756251 0.189783 0.0567051
182 1 0.687953 0.184342 0.138226
1537 1 0.996937 0.497414 0.492222
122 1 0.809911 0.440963 0.00337812
64 1 0.868637 0.18751 0.0522422
1565 1 0.882124 0.487201 0.493345
186 1 0.813693 0.182435 0.116827
63 1 0.925933 0.124515 0.0646348
189 1 0.87444 0.139842 0.122818
1173 1 0.62658 0.489265 0.123737
67 1 0.0701852 0.254593 0.0628312
68 1 0.0114275 0.321948 0.0540352
99 1 0.0675136 0.383001 0.0648548
137 1 0.264882 0.00409495 0.13198
1541 1 0.126063 0.490367 0.491872
1177 1 0.746074 0.488079 0.13262
201 1 0.252686 0.253034 0.125045
72 1 0.113121 0.31461 0.0570438
76 1 0.242997 0.319046 0.0706721
277 1 0.625371 0.00114028 0.253003
75 1 0.304215 0.264976 0.0498719
80 1 0.384655 0.313834 0.054277
202 1 0.310185 0.315368 0.123148
205 1 0.369611 0.247227 0.102978
107 1 0.320356 0.369575 0.0385107
541 1 0.879056 0.00802845 0.497821
209 1 0.511546 0.244583 0.128784
111 1 0.447708 0.371348 0.0661738
84 1 0.49955 0.298815 0.0520585
88 1 0.632199 0.308567 0.066597
87 1 0.688379 0.249245 0.0589172
92 1 0.750366 0.31777 0.0648831
91 1 0.809979 0.251917 0.0649922
218 1 0.816447 0.307368 0.125384
123 1 0.809609 0.379188 0.0701639
1051 1 0.807269 0.495377 0.0702386
96 1 0.874359 0.311088 0.0570316
95 1 0.937832 0.260606 0.0557128
127 1 0.939264 0.366259 0.0644931
221 1 0.866831 0.250808 0.124153
31 1 0.923061 0.0131079 0.0546906
100 1 0.00150485 0.432644 0.0629113
257 1 0.00687478 0.0123938 0.255189
46 1 0.430434 0.183557 0.0044009
104 1 0.128932 0.455256 0.0618655
103 1 0.183224 0.386236 0.0514829
230 1 0.184268 0.44698 0.127419
155 1 0.811805 0.0139548 0.181339
121 1 0.751309 0.376245 0.00103696
1035 1 0.312987 0.497095 0.0574692
233 1 0.249854 0.379389 0.13006
108 1 0.256247 0.433092 0.0616593
234 1 0.311338 0.434293 0.121753
525 1 0.366187 0.00465242 0.496953
237 1 0.376635 0.371568 0.123932
507 1 0.814792 0.364861 0.439398
112 1 0.389944 0.434233 0.061891
241 1 0.499704 0.367447 0.126986
238 1 0.446392 0.434302 0.128014
512 1 0.868506 0.441001 0.427868
115 1 0.561751 0.382992 0.0639912
116 1 0.501881 0.436834 0.0654664
129 1 0.0018883 0.00227204 0.124821
119 1 0.67983 0.381649 0.0731638
249 1 0.755207 0.380078 0.133962
120 1 0.620336 0.44223 0.0633329
246 1 0.690005 0.431362 0.137633
1055 1 0.928382 0.499233 0.0611905
1311 1 0.939695 0.495039 0.318103
1409 1 0.00830012 0.495733 0.367333
124 1 0.736792 0.437261 0.061964
128 1 0.877833 0.431654 0.0661488
250 1 0.815765 0.440612 0.127282
254 1 0.939062 0.430071 0.130913
395 1 0.310166 0.00669365 0.434485
143 1 0.42436 0.00531499 0.195715
1293 1 0.390693 0.491469 0.241589
165 1 0.12682 0.128206 0.130339
130 1 0.0596115 0.0660802 0.11926
136 1 0.124247 0.0591596 0.18467
163 1 0.0571107 0.132103 0.175833
125 1 0.866366 0.378783 0.00540017
134 1 0.186651 0.075319 0.123579
140 1 0.249657 0.0710212 0.182801
167 1 0.182877 0.119426 0.187135
171 1 0.311336 0.126854 0.192831
144 1 0.371068 0.0693558 0.188866
34 1 0.0646814 0.200372 0.00543005
142 1 0.444248 0.0604455 0.121346
270 1 0.431769 0.0562394 0.255904
148 1 0.498154 0.0488734 0.201786
301 1 0.3718 0.117403 0.251519
179 1 0.553256 0.118457 0.198735
152 1 0.623802 0.0630131 0.177639
274 1 0.563259 0.0532803 0.269716
278 1 0.688878 0.0578647 0.243571
156 1 0.749434 0.0663311 0.185343
309 1 0.617635 0.105504 0.251401
502 1 0.682299 0.433183 0.377574
504 1 0.621166 0.432298 0.438457
508 1 0.747983 0.437071 0.440209
160 1 0.874493 0.0715395 0.164061
317 1 0.896013 0.13531 0.245424
187 1 0.816028 0.121333 0.181822
282 1 0.829686 0.0660756 0.254991
132 1 0.00155824 0.0689867 0.171089
158 1 0.92931 0.060601 0.118261
286 1 0.935368 0.0572088 0.240752
162 1 0.0592561 0.196532 0.126878
168 1 0.126338 0.187933 0.191074
195 1 0.0607768 0.254096 0.17722
293 1 0.126295 0.125507 0.251409
166 1 0.185339 0.188562 0.122758
325 1 0.11478 0.253396 0.247133
172 1 0.244283 0.180079 0.199465
173 1 0.374044 0.124644 0.125786
176 1 0.372678 0.187274 0.187517
329 1 0.244764 0.256891 0.251147
174 1 0.438298 0.178406 0.115943
175 1 0.433334 0.121065 0.181193
207 1 0.437251 0.236393 0.188244
337 1 0.501502 0.24417 0.252637
180 1 0.501312 0.178284 0.195298
211 1 0.56773 0.253021 0.195399
306 1 0.569951 0.184018 0.248453
185 1 0.75627 0.130485 0.124605
184 1 0.61978 0.183057 0.187869
183 1 0.683446 0.123533 0.189692
313 1 0.75856 0.119844 0.244617
188 1 0.748954 0.186179 0.188972
219 1 0.803893 0.243549 0.194644
345 1 0.74283 0.250133 0.251059
314 1 0.813559 0.184666 0.25627
161 1 0.995578 0.133141 0.111896
191 1 0.938419 0.113326 0.178912
164 1 8.33723e-05 0.187956 0.186748
190 1 0.93533 0.191787 0.116045
192 1 0.86486 0.182966 0.191708
193 1 0.997563 0.268297 0.122374
194 1 0.0614769 0.324771 0.122753
196 1 0.996888 0.313176 0.189891
225 1 0.991754 0.365541 0.123278
227 1 0.0601442 0.377947 0.187435
197 1 0.128214 0.25175 0.117433
198 1 0.180905 0.319586 0.12327
229 1 0.127004 0.390723 0.121718
199 1 0.18594 0.250023 0.188834
200 1 0.12104 0.317115 0.192761
326 1 0.178116 0.321563 0.251289
203 1 0.311452 0.252199 0.189307
204 1 0.236731 0.307937 0.18316
206 1 0.4362 0.301509 0.122907
208 1 0.374255 0.309557 0.189873
334 1 0.428552 0.299281 0.251998
210 1 0.556781 0.307234 0.131668
212 1 0.489306 0.307088 0.193117
243 1 0.560339 0.368328 0.193447
338 1 0.56001 0.302874 0.25765
341 1 0.624845 0.256495 0.251529
217 1 0.747174 0.240629 0.120091
214 1 0.698124 0.313676 0.133431
245 1 0.619189 0.378571 0.124456
216 1 0.624121 0.306306 0.173965
215 1 0.690419 0.256419 0.191609
342 1 0.676951 0.314348 0.252622
247 1 0.676092 0.371779 0.19864
220 1 0.749575 0.315226 0.198372
346 1 0.80569 0.317095 0.249546
381 1 0.878864 0.368804 0.259879
224 1 0.878622 0.314991 0.190257
222 1 0.924515 0.311694 0.12371
223 1 0.943005 0.24281 0.176767
255 1 0.93261 0.376876 0.188294
226 1 0.0660637 0.450591 0.119095
354 1 0.0621771 0.437564 0.244024
500 1 0.491569 0.425138 0.439034
231 1 0.188564 0.373897 0.184991
232 1 0.11564 0.443656 0.191061
358 1 0.184923 0.427028 0.248299
283 1 0.82077 0.00232451 0.310292
1423 1 0.431044 0.494 0.437456
235 1 0.324261 0.374204 0.185891
361 1 0.246812 0.373537 0.270982
236 1 0.253069 0.418708 0.197864
362 1 0.320082 0.424244 0.250658
365 1 0.377848 0.363271 0.248033
239 1 0.440956 0.37384 0.181868
240 1 0.381271 0.436496 0.189177
244 1 0.507714 0.430414 0.189694
369 1 0.500969 0.366697 0.25614
1437 1 0.857875 0.496204 0.36454
522 1 0.311756 0.0646502 0.493928
242 1 0.563107 0.438311 0.128372
370 1 0.560542 0.436829 0.254734
377 1 0.745297 0.37888 0.254115
248 1 0.620964 0.436863 0.183718
374 1 0.676116 0.436466 0.259624
252 1 0.764072 0.436908 0.193374
251 1 0.818864 0.377976 0.201423
256 1 0.869089 0.445569 0.185318
562 1 0.559904 0.187264 0.487719
253 1 0.86933 0.379357 0.127838
228 1 0.0032154 0.432835 0.182441
353 1 0.995257 0.373944 0.245341
382 1 0.93 0.437205 0.250785
33 1 0.989174 0.116198 0.0126193
1291 1 0.31957 0.496167 0.31305
258 1 0.0557637 0.074499 0.239506
260 1 0.00132676 0.0638129 0.310943
264 1 0.12465 0.0658657 0.309943
291 1 0.0541908 0.129786 0.315086
409 1 0.758293 0.00187807 0.369653
262 1 0.17743 0.0614219 0.25079
268 1 0.249012 0.0522621 0.311548
266 1 0.309508 0.0583981 0.258048
487 1 0.182897 0.377708 0.418255
299 1 0.314088 0.118299 0.305074
118 1 0.677545 0.443415 0.000690316
1289 1 0.261893 0.49602 0.244968
272 1 0.365664 0.0509643 0.315236
303 1 0.439408 0.121934 0.30835
387 1 0.0726509 0.00288035 0.429016
305 1 0.502587 0.130412 0.259395
276 1 0.4931 0.0426457 0.321152
280 1 0.625613 0.0518063 0.322497
1305 1 0.74839 0.489295 0.256591
284 1 0.749977 0.0704498 0.311184
437 1 0.629837 0.120313 0.374886
406 1 0.688896 0.0607247 0.3748
311 1 0.682311 0.120049 0.296931
410 1 0.811414 0.0624652 0.364988
288 1 0.889652 0.0640698 0.316249
289 1 0.977818 0.129609 0.242231
319 1 0.934631 0.125766 0.309857
414 1 0.94377 0.0563371 0.375102
290 1 0.0582214 0.181149 0.248611
296 1 0.117003 0.195947 0.310379
418 1 0.0590011 0.182852 0.368892
297 1 0.251165 0.114541 0.257166
294 1 0.183212 0.180189 0.261546
295 1 0.187252 0.11239 0.313768
327 1 0.173105 0.254923 0.313053
300 1 0.259873 0.189322 0.32353
298 1 0.30948 0.187348 0.258628
304 1 0.370192 0.186414 0.318491
331 1 0.312618 0.248472 0.314696
302 1 0.433889 0.181321 0.251711
333 1 0.366525 0.248579 0.246946
335 1 0.432286 0.245489 0.322137
433 1 0.493857 0.122417 0.378435
308 1 0.495823 0.190782 0.317793
465 1 0.499436 0.248538 0.372775
307 1 0.565775 0.130668 0.318744
434 1 0.563542 0.182653 0.38458
339 1 0.554877 0.247662 0.317643
310 1 0.689072 0.195475 0.253734
312 1 0.624529 0.183499 0.32024
343 1 0.681162 0.254397 0.308631
316 1 0.74844 0.174108 0.306679
349 1 0.869467 0.262043 0.244567
315 1 0.824041 0.121626 0.313212
442 1 0.814332 0.187467 0.363491
347 1 0.80066 0.250164 0.310163
477 1 0.866409 0.242405 0.380737
320 1 0.872557 0.193034 0.310267
473 1 0.742649 0.251678 0.375834
441 1 0.755402 0.125781 0.377073
292 1 0.99082 0.185877 0.310456
318 1 0.939013 0.201008 0.252511
446 1 0.931385 0.197554 0.377747
351 1 0.942656 0.258922 0.322703
449 1 0.00677207 0.245993 0.384852
323 1 0.0499707 0.255066 0.319471
322 1 0.058975 0.307672 0.246878
321 1 0.9975 0.247842 0.254088
355 1 0.0578271 0.371208 0.303846
328 1 0.115832 0.310461 0.314444
359 1 0.172805 0.36949 0.317302
454 1 0.175293 0.302976 0.379733
357 1 0.119321 0.374336 0.249042
330 1 0.30661 0.318441 0.248493
332 1 0.24034 0.304622 0.314336
336 1 0.370752 0.302383 0.310557
340 1 0.492251 0.306682 0.31433
367 1 0.418376 0.373318 0.317644
462 1 0.434377 0.30769 0.372946
466 1 0.555681 0.309317 0.37171
371 1 0.560798 0.374962 0.317643
344 1 0.619176 0.310428 0.3168
501 1 0.627495 0.365182 0.379964
348 1 0.74379 0.316553 0.310594
470 1 0.692222 0.311403 0.385993
505 1 0.756133 0.371671 0.370029
474 1 0.812126 0.308371 0.379639
379 1 0.816475 0.35671 0.314635
352 1 0.875182 0.310455 0.309554
350 1 0.94228 0.307081 0.243912
324 1 0.992626 0.313197 0.311154
478 1 0.947454 0.311877 0.377447
356 1 9.38146e-05 0.43664 0.309806
485 1 0.114548 0.37595 0.371073
482 1 0.0617739 0.433041 0.362994
492 1 0.252022 0.444976 0.441711
486 1 0.194044 0.433667 0.354156
360 1 0.120047 0.433109 0.305138
364 1 0.255431 0.440933 0.311079
561 1 0.498385 0.122875 0.496144
490 1 0.309747 0.43725 0.383603
363 1 0.318616 0.380273 0.318092
496 1 0.373687 0.437602 0.441423
476 1 0.753325 0.313686 0.439684
366 1 0.449248 0.427651 0.242443
368 1 0.379189 0.443124 0.30715
494 1 0.422458 0.430052 0.374646
498 1 0.558426 0.434742 0.380069
372 1 0.487913 0.425291 0.323346
497 1 0.497644 0.367659 0.370138
376 1 0.618744 0.434464 0.313783
373 1 0.616621 0.374956 0.255921
1159 1 0.193674 0.485128 0.194144
375 1 0.683927 0.373495 0.32488
380 1 0.73256 0.441284 0.314788
614 1 0.181866 0.425629 0.495166
506 1 0.802962 0.434672 0.375319
378 1 0.809293 0.430092 0.280467
509 1 0.868048 0.36487 0.380006
1175 1 0.683574 0.486723 0.196336
383 1 0.930924 0.36846 0.322115
384 1 0.871646 0.428251 0.326479
510 1 0.932912 0.429031 0.382939
386 1 0.0606488 0.0628076 0.368768
390 1 0.18654 0.0594992 0.383088
392 1 0.118982 0.0701234 0.428464
423 1 0.188957 0.134347 0.43189
396 1 0.246424 0.0593122 0.432733
491 1 0.311621 0.364369 0.440148
394 1 0.305914 0.0645124 0.367593
427 1 0.309469 0.125105 0.433568
480 1 0.872424 0.313093 0.442705
429 1 0.367805 0.1206 0.368189
400 1 0.375701 0.0634356 0.428552
398 1 0.428737 0.0555924 0.36357
431 1 0.439241 0.119408 0.431212
483 1 0.0573925 0.384723 0.441452
402 1 0.559522 0.0589051 0.382811
489 1 0.250787 0.359456 0.369825
404 1 0.489588 0.0589137 0.430831
435 1 0.556297 0.121757 0.429455
574 1 0.941461 0.191657 0.49934
488 1 0.135072 0.436089 0.428322
408 1 0.61615 0.0636095 0.432667
412 1 0.760668 0.0668743 0.431788
445 1 0.891833 0.131162 0.378373
416 1 0.877776 0.0595688 0.423124
399 1 0.430653 0.000315382 0.429105
417 1 0.00383937 0.115711 0.383786
388 1 0.0101284 0.0558487 0.439566
419 1 0.0623856 0.132008 0.450761
451 1 0.0646464 0.235782 0.43673
424 1 0.127166 0.184761 0.430565
453 1 0.118292 0.247619 0.372549
610 1 0.0582216 0.435997 0.498425
425 1 0.249325 0.118068 0.371482
421 1 0.137828 0.123472 0.370369
422 1 0.189843 0.204037 0.366592
428 1 0.248693 0.184827 0.430211
426 1 0.308126 0.196522 0.383266
475 1 0.808701 0.2364 0.440563
452 1 0.00622572 0.308086 0.434826
461 1 0.372422 0.252727 0.379883
432 1 0.373367 0.192247 0.439556
430 1 0.439276 0.187248 0.379242
471 1 0.682423 0.244596 0.437281
436 1 0.495049 0.189069 0.448224
438 1 0.690986 0.186267 0.371634
444 1 0.746488 0.190714 0.432149
440 1 0.62624 0.177894 0.437616
439 1 0.687071 0.122438 0.432397
448 1 0.875321 0.194875 0.450024
443 1 0.810568 0.129378 0.43399
469 1 0.625204 0.241294 0.376184
447 1 0.949338 0.119803 0.440406
420 1 0.000575357 0.182816 0.439439
139 1 0.318844 0.00766775 0.188912
503 1 0.690723 0.381555 0.436541
467 1 0.550608 0.254981 0.447242
450 1 0.065391 0.312171 0.379441
468 1 0.492804 0.315763 0.437526
456 1 0.115054 0.319374 0.439384
455 1 0.181141 0.236548 0.448179
460 1 0.237662 0.313596 0.433798
479 1 0.925137 0.254424 0.445239
457 1 0.241944 0.258412 0.379443
458 1 0.31418 0.306163 0.369309
459 1 0.302493 0.265844 0.43614
464 1 0.382624 0.312161 0.449072
484 1 0.995153 0.4371 0.435359
1425 1 0.494494 0.499365 0.363742
493 1 0.371827 0.369161 0.385432
495 1 0.435768 0.369891 0.438659
463 1 0.450349 0.249345 0.439815
499 1 0.560912 0.372767 0.430337
472 1 0.632202 0.303804 0.438957
65 1 0.00817724 0.258548 0.00665121
1163 1 0.311211 0.481274 0.190171
537 1 0.748665 0.00904938 0.499927
261 1 0.106458 0.00166373 0.248388
411 1 0.814801 0.00622127 0.435274
1047 1 0.68527 0.499046 0.0671085
1431 1 0.685122 0.486897 0.439488
1153 1 0.984298 0.496064 0.119771
1309 1 0.872425 0.496779 0.257325
151 1 0.693356 0.00942742 0.179944
1287 1 0.20642 0.496359 0.305979
135 1 0.191568 0.00169582 0.193759
1165 1 0.365791 0.493476 0.126368
1183 1 0.935154 0.494153 0.189867
131 1 0.0573621 0.00604459 0.188594
578 1 0.0656686 0.298726 0.495734
117 1 0.620665 0.375683 0.0110178
542 1 0.946995 0.0496316 0.495582
554 1 0.296447 0.191361 0.492033
113 1 0.504861 0.370233 0.0121239
557 1 0.367208 0.123853 0.487723
617 1 0.245498 0.367913 0.49757
569 1 0.749832 0.121459 0.494732
637 1 0.87489 0.384378 0.492676
613 1 0.1238 0.378394 0.495268
589 1 0.362535 0.243391 0.49968
90 1 0.815377 0.317857 0.00361353
622 1 0.430339 0.424493 0.497398
601 1 0.748722 0.257037 0.496349
518 1 0.19201 0.0643943 0.49788
17 1 0.501882 0.00351357 0.0092741
102 1 0.186624 0.451645 0.00369926
577 1 0.99659 0.255185 0.4915
82 1 0.565957 0.314417 0.00570989
597 1 0.619369 0.244052 0.488226
521 1 0.251522 0.000949415 0.492855
54 1 0.695486 0.190674 0.00303583
553 1 0.253733 0.121297 0.492276
1557 1 0.617078 0.489351 0.495998
98 1 0.0580955 0.448148 0.00182667
62 1 0.941872 0.183833 0.0072388
93 1 0.868227 0.256495 0.00436764
10 1 0.305291 0.0624389 0.00348123
126 1 0.943307 0.429317 0.0120152
49 1 0.494171 0.129367 0.00556665
520 1 0.128147 0.0649118 0.559631
78 1 0.441808 0.31479 0.99342
531 1 0.566749 0.00210766 0.565396
524 1 0.257285 0.0590196 0.560921
551 1 0.196296 0.118789 0.567286
1669 1 0.122963 0.48878 0.622651
528 1 0.389761 0.0661279 0.570558
650 1 0.316204 0.0675099 0.635419
1022 1 0.945288 0.454668 0.885543
685 1 0.376784 0.126893 0.630247
654 1 0.438302 0.069762 0.633285
996 1 0.00433108 0.447333 0.938858
1819 1 0.799467 0.499285 0.809465
1687 1 0.686536 0.479693 0.686763
532 1 0.485937 0.0572525 0.567581
563 1 0.541525 0.111317 0.557524
658 1 0.546776 0.0593298 0.63049
1023 1 0.943581 0.389488 0.935249
657 1 0.493063 0.00548853 0.626791
536 1 0.608872 0.0696864 0.56367
567 1 0.682286 0.136912 0.566605
1673 1 0.244123 0.487642 0.624278
1679 1 0.435729 0.496163 0.696122
540 1 0.745763 0.0638726 0.563023
571 1 0.814823 0.11663 0.554542
666 1 0.815889 0.067695 0.623332
544 1 0.881904 0.0644821 0.560228
1693 1 0.889195 0.49355 0.622214
1795 1 0.066358 0.494919 0.818524
516 1 0.996722 0.0610081 0.560806
670 1 0.937316 0.072424 0.615516
609 1 0.00370826 0.364395 0.504173
921 1 0.754515 0.00708743 0.875363
547 1 0.054494 0.131212 0.567321
552 1 0.123864 0.192447 0.56677
556 1 0.255392 0.187655 0.579865
678 1 0.181334 0.188426 0.627404
791 1 0.697645 0.00547928 0.809828
903 1 0.171875 0.00476272 0.935231
555 1 0.318571 0.120659 0.554146
682 1 0.317025 0.182708 0.635111
560 1 0.37887 0.177172 0.558435
559 1 0.436615 0.12751 0.565823
591 1 0.429229 0.249613 0.553527
717 1 0.368337 0.247313 0.624432
686 1 0.43294 0.194465 0.617789
564 1 0.498433 0.185274 0.561508
690 1 0.560746 0.194174 0.623039
73 1 0.242879 0.254532 0.992522
897 1 0.996465 0.0143441 0.876387
81 1 0.500329 0.236246 0.999319
568 1 0.629923 0.193935 0.556504
599 1 0.685843 0.255017 0.572088
795 1 0.817269 0.0146217 0.807058
572 1 0.751268 0.186961 0.560114
576 1 0.882787 0.182546 0.556851
729 1 0.752479 0.266543 0.617019
42 1 0.314823 0.179724 0.993503
548 1 0.999893 0.187344 0.562304
575 1 0.939871 0.121491 0.556837
607 1 0.949028 0.251784 0.564639
579 1 0.0625183 0.251886 0.565066
580 1 0.00100515 0.309492 0.560945
583 1 0.189369 0.255167 0.563193
584 1 0.123512 0.311164 0.571481
588 1 0.239894 0.322998 0.562182
710 1 0.187024 0.309768 0.624349
587 1 0.301904 0.248327 0.559691
714 1 0.312137 0.311999 0.629444
713 1 0.240128 0.251663 0.640443
745 1 0.245553 0.37157 0.624092
592 1 0.373319 0.307355 0.572336
596 1 0.505447 0.310663 0.565788
721 1 0.495203 0.24807 0.636971
1563 1 0.825004 0.497006 0.564725
661 1 0.616341 0.00598374 0.626197
1815 1 0.69667 0.498741 0.802335
595 1 0.576576 0.247775 0.561235
600 1 0.623505 0.311909 0.572949
627 1 0.563479 0.371317 0.562307
58 1 0.809657 0.184289 0.991593
1677 1 0.376754 0.48876 0.630533
761 1 0.762899 0.378619 0.622152
604 1 0.752218 0.323403 0.562554
1949 1 0.873446 0.495129 0.88659
631 1 0.683965 0.375668 0.557388
726 1 0.699362 0.332546 0.621778
603 1 0.812546 0.248744 0.570118
608 1 0.881535 0.313472 0.562936
635 1 0.824413 0.371394 0.549597
730 1 0.821401 0.314703 0.624683
539 1 0.810314 0.00453764 0.560586
775 1 0.189869 0.000100257 0.817521
611 1 0.0651047 0.371331 0.557166
741 1 0.121484 0.374996 0.627363
738 1 0.0599414 0.435211 0.62059
615 1 0.18078 0.373164 0.558784
616 1 0.116445 0.432353 0.561856
742 1 0.181043 0.432622 0.62641
641 1 5.98226e-05 0.00894512 0.623293
619 1 0.309251 0.381537 0.572768
620 1 0.241047 0.427862 0.554305
624 1 0.374711 0.438117 0.570887
109 1 0.387231 0.384092 0.996004
623 1 0.431499 0.367789 0.572586
753 1 0.506786 0.38659 0.633855
628 1 0.499187 0.437229 0.563533
632 1 0.619053 0.433188 0.569422
754 1 0.569333 0.435764 0.629783
655 1 0.435573 0.00265796 0.687799
919 1 0.690067 0.00438303 0.939337
636 1 0.747298 0.432133 0.560139
634 1 0.813921 0.446431 0.500538
640 1 0.880045 0.435012 0.564504
639 1 0.93784 0.372336 0.565861
612 1 0.00364755 0.431811 0.55282
766 1 0.938959 0.430198 0.631039
514 1 0.072459 0.0673812 0.502248
909 1 0.375917 0.00734103 0.854221
642 1 0.0692635 0.070374 0.618396
550 1 0.202314 0.182994 0.510221
770 1 0.0579785 0.0592862 0.746958
644 1 0.00625755 0.0572515 0.69055
1559 1 0.679152 0.490925 0.567486
110 1 0.45361 0.435871 0.994573
105 1 0.247734 0.382986 0.991563
646 1 0.178282 0.0582309 0.629812
648 1 0.116701 0.0562435 0.684619
774 1 0.194972 0.0572831 0.741795
809 1 0.240349 0.138736 0.748339
652 1 0.254224 0.0639946 0.690863
656 1 0.381292 0.0746854 0.694471
659 1 0.561989 0.00531717 0.686067
687 1 0.448659 0.126628 0.685404
817 1 0.512401 0.128969 0.750156
625 1 0.509623 0.36733 0.506317
660 1 0.502289 0.0673451 0.695485
691 1 0.563265 0.128813 0.678859
821 1 0.627198 0.126445 0.744517
662 1 0.683499 0.0545367 0.627619
697 1 0.747831 0.126592 0.617239
693 1 0.619729 0.128918 0.617264
664 1 0.618505 0.0633789 0.689293
1024 1 0.882249 0.443179 0.961017
701 1 0.882804 0.129973 0.61885
668 1 0.742278 0.0815876 0.68118
673 1 0.00229653 0.124682 0.628318
672 1 0.883729 0.0662744 0.67492
703 1 0.937313 0.125342 0.693305
798 1 0.935976 0.0688647 0.752798
674 1 0.0597 0.183881 0.62687
675 1 0.0663589 0.125655 0.691771
805 1 0.123841 0.122324 0.743915
677 1 0.129401 0.127727 0.619128
680 1 0.119875 0.181656 0.685598
679 1 0.182208 0.120719 0.676335
684 1 0.25596 0.194482 0.68671
681 1 0.246558 0.123088 0.628504
683 1 0.306226 0.126358 0.692354
715 1 0.315342 0.247211 0.687901
810 1 0.311637 0.193902 0.746302
688 1 0.387517 0.192616 0.698795
692 1 0.506798 0.197016 0.689524
849 1 0.512136 0.261061 0.742523
814 1 0.451925 0.188892 0.750934
845 1 0.376773 0.25251 0.758195
689 1 0.504605 0.135201 0.626155
723 1 0.570816 0.2534 0.684434
818 1 0.572486 0.183724 0.758409
694 1 0.694193 0.186387 0.624039
695 1 0.674785 0.117468 0.675809
696 1 0.625382 0.184091 0.687585
698 1 0.809928 0.186213 0.62791
699 1 0.819582 0.122322 0.682696
700 1 0.753471 0.181031 0.6854
731 1 0.818902 0.25805 0.680763
733 1 0.877917 0.251176 0.627684
676 1 0.998474 0.188411 0.69342
704 1 0.87421 0.198191 0.683862
702 1 0.940099 0.189573 0.616699
706 1 0.0571041 0.310587 0.627814
709 1 0.117864 0.249433 0.626495
707 1 0.0633012 0.247277 0.688982
712 1 0.124338 0.310021 0.682012
834 1 0.0679073 0.306848 0.756238
708 1 0.00838923 0.312878 0.700204
833 1 0.0121524 0.256994 0.749574
837 1 0.119006 0.240085 0.74525
711 1 0.180292 0.245856 0.685842
838 1 0.18319 0.316511 0.762721
716 1 0.244056 0.318228 0.682081
747 1 0.310495 0.373268 0.691685
749 1 0.374969 0.378348 0.632712
841 1 0.248494 0.256328 0.745844
842 1 0.31383 0.312544 0.751771
873 1 0.2519 0.362362 0.746399
719 1 0.444082 0.258637 0.697236
720 1 0.379021 0.316487 0.691021
718 1 0.438366 0.301067 0.619227
846 1 0.439683 0.316968 0.753854
877 1 0.375072 0.369742 0.759239
724 1 0.497468 0.317494 0.687411
722 1 0.559036 0.308778 0.623597
853 1 0.635275 0.24452 0.752342
757 1 0.617392 0.366664 0.62653
885 1 0.631357 0.373879 0.743326
725 1 0.623979 0.246338 0.622166
727 1 0.704261 0.250848 0.683185
728 1 0.638326 0.309195 0.679059
854 1 0.693648 0.308827 0.750643
765 1 0.878914 0.372472 0.626919
732 1 0.754857 0.319317 0.687497
763 1 0.825041 0.376485 0.687509
736 1 0.887741 0.318438 0.69217
705 1 0.00596753 0.244888 0.6283
734 1 0.956777 0.318118 0.637087
735 1 0.951767 0.258422 0.691704
862 1 0.94493 0.31825 0.753787
767 1 0.948935 0.374133 0.688365
739 1 0.0580171 0.376557 0.69708
869 1 0.120085 0.377072 0.750906
866 1 0.0546314 0.432638 0.75528
743 1 0.176504 0.378127 0.686638
744 1 0.118907 0.440471 0.697149
748 1 0.239844 0.434308 0.691245
106 1 0.310025 0.443535 0.996001
870 1 0.17787 0.441997 0.745946
1793 1 0.995894 0.494861 0.751503
746 1 0.30818 0.434138 0.627131
752 1 0.363665 0.438703 0.694245
874 1 0.310685 0.445835 0.754856
594 1 0.575309 0.309658 0.508181
751 1 0.437408 0.371332 0.68133
750 1 0.441478 0.441526 0.629793
756 1 0.497421 0.43374 0.699194
755 1 0.562767 0.377322 0.691413
535 1 0.668313 0.00305473 0.553656
1020 1 0.748168 0.44302 0.941063
1011 1 0.566076 0.372364 0.956305
1016 1 0.617269 0.437198 0.939486
758 1 0.692421 0.423503 0.633496
759 1 0.691852 0.367657 0.695492
1539 1 0.060618 0.49996 0.554399
760 1 0.629068 0.43415 0.688184
886 1 0.689548 0.429078 0.752488
762 1 0.816281 0.436412 0.615966
764 1 0.75872 0.433908 0.694909
1665 1 0.995913 0.487384 0.616219
890 1 0.81531 0.442334 0.754171
737 1 0.00230802 0.382051 0.61587
865 1 0.999261 0.380045 0.758597
768 1 0.873978 0.437548 0.679272
740 1 0.997482 0.43484 0.685815
894 1 0.938503 0.452739 0.751119
933 1 0.122221 0.117514 0.876547
898 1 0.0633625 0.0628392 0.872472
1549 1 0.380915 0.497966 0.512321
26 1 0.814449 0.0607582 0.994762
2 1 0.0707511 0.0516027 0.998959
776 1 0.12318 0.0620575 0.807282
780 1 0.245816 0.0528025 0.813571
902 1 0.189652 0.0593071 0.877585
667 1 0.804335 0.00811101 0.683538
1933 1 0.382949 0.497498 0.870196
980 1 0.50703 0.313263 0.941504
778 1 0.307966 0.0592757 0.745098
906 1 0.306138 0.0661246 0.860639
813 1 0.368467 0.13082 0.748333
784 1 0.380658 0.070835 0.801606
782 1 0.439253 0.073358 0.755179
788 1 0.49719 0.064726 0.812779
815 1 0.437427 0.127708 0.813047
1012 1 0.513528 0.447073 0.929588
786 1 0.569913 0.0637392 0.759384
792 1 0.627093 0.0643568 0.806587
914 1 0.562585 0.0636893 0.873845
790 1 0.687913 0.0718443 0.743852
1007 1 0.448186 0.377559 0.934858
823 1 0.696846 0.130368 0.805968
825 1 0.749868 0.127279 0.742099
918 1 0.683836 0.0674856 0.87333
794 1 0.820704 0.0705324 0.741464
796 1 0.754303 0.0666475 0.804319
800 1 0.875847 0.0777009 0.809351
1005 1 0.378935 0.381713 0.873162
1008 1 0.371645 0.438808 0.928543
772 1 0.0061133 0.0653053 0.808728
926 1 0.940605 0.0700835 0.873743
802 1 0.0633126 0.186767 0.74968
803 1 0.0719833 0.12141 0.810171
808 1 0.133264 0.184217 0.82747
807 1 0.179361 0.123523 0.817129
806 1 0.177312 0.191941 0.742458
812 1 0.250366 0.182896 0.813079
811 1 0.309251 0.126142 0.810832
941 1 0.380317 0.113035 0.874716
816 1 0.37218 0.188437 0.811242
942 1 0.434925 0.186005 0.8694
819 1 0.565847 0.126954 0.819925
820 1 0.503228 0.186379 0.822871
824 1 0.624724 0.189094 0.809934
977 1 0.498922 0.256614 0.884068
851 1 0.56195 0.246331 0.81177
822 1 0.689836 0.189524 0.742342
855 1 0.684826 0.257809 0.815294
857 1 0.751217 0.252472 0.74744
861 1 0.879548 0.25687 0.753582
827 1 0.808071 0.131344 0.8086
826 1 0.818895 0.200091 0.743665
828 1 0.754629 0.200557 0.810831
859 1 0.811066 0.253992 0.813794
801 1 0.00470223 0.120191 0.744757
830 1 0.939769 0.190748 0.747358
804 1 0.00193023 0.186115 0.802065
829 1 0.870444 0.13639 0.753236
831 1 0.945329 0.13587 0.805978
832 1 0.869412 0.195413 0.814342
835 1 0.0640556 0.247448 0.819385
840 1 0.12602 0.310776 0.824445
962 1 0.0576577 0.311684 0.881387
997 1 0.113766 0.378393 0.875376
836 1 5.19653e-05 0.312546 0.816749
839 1 0.191207 0.243975 0.82245
871 1 0.186733 0.377233 0.809315
1001 1 0.244327 0.377272 0.879428
969 1 0.254837 0.249619 0.88182
843 1 0.309915 0.258475 0.814866
844 1 0.247947 0.312267 0.819326
875 1 0.307887 0.372962 0.807349
970 1 0.308763 0.320402 0.88151
847 1 0.439542 0.253413 0.805342
848 1 0.375119 0.320052 0.821685
852 1 0.516159 0.316171 0.810651
879 1 0.443992 0.37302 0.81477
974 1 0.440846 0.321871 0.877654
1009 1 0.505677 0.37922 0.879438
850 1 0.58008 0.310011 0.741012
1013 1 0.629615 0.381922 0.874252
978 1 0.560641 0.31514 0.885238
856 1 0.630809 0.316163 0.815166
887 1 0.680546 0.379053 0.815141
981 1 0.630628 0.246273 0.870735
858 1 0.80905 0.311903 0.750594
860 1 0.757426 0.331853 0.810779
891 1 0.815247 0.390985 0.813707
864 1 0.880094 0.305728 0.823014
863 1 0.942542 0.247754 0.81719
895 1 0.920106 0.390628 0.828328
990 1 0.935409 0.317646 0.877047
976 1 0.3781 0.31196 0.922462
1931 1 0.315168 0.489535 0.928269
867 1 0.0556932 0.370862 0.818972
872 1 0.129157 0.438729 0.818069
998 1 0.182551 0.438086 0.876369
899 1 0.0617595 0.00461339 0.931092
70 1 0.192079 0.324479 0.998391
876 1 0.252639 0.436841 0.809974
1002 1 0.304335 0.436628 0.87499
971 1 0.319351 0.248399 0.935646
878 1 0.43685 0.427378 0.760565
880 1 0.362721 0.44392 0.813276
1006 1 0.44546 0.443152 0.870138
881 1 0.513775 0.374586 0.752329
915 1 0.560791 0.00616223 0.930944
1003 1 0.312512 0.385832 0.936121
883 1 0.573203 0.375994 0.806407
884 1 0.504221 0.442899 0.814009
882 1 0.562956 0.437893 0.751608
1010 1 0.570257 0.438074 0.868002
74 1 0.310273 0.310247 0.980748
888 1 0.633104 0.444247 0.813163
1014 1 0.687084 0.442176 0.883173
892 1 0.744526 0.437344 0.815196
927 1 0.936841 0.00741119 0.945104
1018 1 0.803686 0.441283 0.887369
999 1 0.176712 0.378017 0.93865
889 1 0.757201 0.384412 0.751409
651 1 0.308266 0.00611826 0.678617
893 1 0.88587 0.386682 0.755728
896 1 0.872087 0.454583 0.814831
1019 1 0.814995 0.382937 0.947787
993 1 0.996476 0.381332 0.875023
868 1 0.00135397 0.443317 0.818116
1004 1 0.244251 0.444806 0.933088
1935 1 0.439373 0.492813 0.930826
991 1 0.937524 0.256336 0.94769
931 1 0.0550678 0.117575 0.94446
41 1 0.257333 0.123803 0.99356
1813 1 0.635238 0.494157 0.745678
904 1 0.133471 0.0723972 0.945754
908 1 0.248305 0.0594684 0.93999