ITEM: TIMESTEP
12000
ITEM: NUMBER OF ATOMS
864
ITEM: BOX BOUNDS pp pp pp
0.0000000000000000e+00 3.1559999999999999e+01
0.0000000000000000e+00 3.1559999999999999e+01
0.0000000000000000e+00 3.1559999999999999e+01
ITEM: ATOMS id type xs ys zs
4 1 -0.00907054 0.0923896 0.0935582
8 1 0.156698 0.0948173 0.0945164
38 1 0.560209 0.245901 0.0039181
29 1 0.156821 0.17034 0.00267997
78 1 0.242636 0.105946 0.171373
12 1 0.338325 0.0728545 0.089467
31 1 0.232309 0.194556 0.0961036
161 1 0.659571 0.00953129 0.343198
35 1 0.42574 0.154656 0.0856948
82 1 0.427317 0.0875394 0.16544
109 1 0.493934 0.166069 0.172881
266 1 0.0897136 0.404184 0.507839
37 1 0.500565 0.156517 0.00676548
16 1 0.512332 0.0786196 0.0886135
86 1 0.585856 0.0768278 0.175583
591 1 0.579229 0.510771 0.418296
6 1 0.246454 0.0983558 0.00596042
41 1 0.674383 0.157291 -0.0055668
20 1 0.650702 0.0957091 0.0713967
43 1 0.744124 0.160239 0.0799825
24 1 0.834292 0.0844261 0.107283
523 1 0.757834 0.51084 0.236429
265 1 0.00558208 0.339195 0.497698
47 1 0.90947 0.170935 0.10288
2 1 0.0772924 0.0866727 0.00100901
27 1 0.0858991 0.174131 0.0849766
32 1 0.154155 0.262414 0.0680912
129 1 0.329088 0.328739 0.185591
75 1 0.0977742 -0.00352376 0.240406
102 1 0.241174 0.237621 0.195499
153 1 0.313714 0.00738759 0.328187
87 1 0.583431 -0.0123609 0.259714
36 1 0.338254 0.225872 0.0869795
40 1 0.501206 0.241409 0.0953172
149 1 0.171356 -0.00331478 0.337797
519 1 0.595565 0.508998 0.253797
113 1 0.665574 0.160291 0.166037
39 1 0.566801 0.160294 0.094369
110 1 0.580836 0.248304 0.175037
515 1 0.409728 0.500106 0.256433
137 1 0.658084 0.336154 0.165304
155 1 0.396522 0.0124281 0.422034
44 1 0.65247 0.249996 0.0689979
511 1 0.243211 0.527177 0.243455
97 1 0.998229 0.157549 0.196709
28 1 0.989437 0.242448 0.0934951
48 1 0.836386 0.253238 0.0876485
71 1 0.920865 0.322219 0.0785766
118 1 0.911944 0.260349 0.17445
278 1 0.585668 0.42003 0.478417
51 1 0.0677466 0.331761 0.0705166
56 1 0.1518 0.393345 0.0904298
147 1 0.0906125 -0.000381884 0.428259
214 1 0.913809 0.418302 0.336775
55 1 0.257736 0.319307 0.0926763
60 1 0.332922 0.417644 0.0831344
525 1 0.841953 0.511425 0.156692
59 1 0.425005 0.345461 0.089394
64 1 0.503967 0.431225 0.0751324
133 1 0.51807 0.332535 0.166846
130 1 0.41486 0.425482 0.17556
182 1 0.578517 0.254694 0.327711
63 1 0.576126 0.333581 0.0735924
134 1 0.575978 0.415325 0.154
68 1 0.659459 0.407267 0.0786318
187 1 0.746899 0.183734 0.414982
67 1 0.745266 0.327944 0.0955969
138 1 0.751544 0.425983 0.148602
216 1 0.823615 0.402858 0.406344
270 1 0.254267 0.429011 0.508584
121 1 -0.0041378 0.330925 0.159639
72 1 0.836745 0.426676 0.0737839
141 1 0.827588 0.339781 0.166017
52 1 -0.000680715 0.411459 0.0845808
142 1 0.919133 0.427524 0.16825
196 1 1.00765 0.416217 0.406832
74 1 0.0768931 0.09492 0.181877
76 1 0.997781 0.0697809 0.253869
193 1 -0.00230805 0.332886 0.336787
80 1 0.155918 0.0809204 0.262986
84 1 0.354828 0.0899767 0.254781
103 1 0.258852 0.157443 0.256278
107 1 0.421335 0.164495 0.26511
83 1 0.41463 -0.00448632 0.250975
192 1 0.815531 0.260861 0.388483
88 1 0.496465 0.0737071 0.257514
579 1 0.0830132 0.495534 0.420169
90 1 0.747169 0.0859874 0.16684
92 1 0.669024 0.088948 0.261729
184 1 0.483458 0.265818 0.418284
94 1 0.917396 0.0920164 0.171985
665 1 0.650763 0.50496 0.506762
96 1 0.821915 0.0890938 0.256791
119 1 0.91136 0.168319 0.246069
189 1 0.828219 0.177011 0.309763
166 1 0.896817 0.0912213 0.344854
98 1 0.0812714 0.253894 0.172462
99 1 0.0893989 0.166566 0.262578
101 1 0.156437 0.17581 0.183012
170 1 0.068386 0.249432 0.326608
105 1 0.341402 0.164933 0.180913
104 1 0.159431 0.248897 0.265686
173 1 0.168196 0.166365 0.332045
108 1 0.342809 0.249067 0.255515
177 1 0.339919 0.16943 0.343896
106 1 0.410731 0.255603 0.168703
178 1 0.416098 0.237235 0.339265
111 1 0.58597 0.159964 0.25852
112 1 0.505174 0.256084 0.249362
116 1 0.661568 0.245772 0.245739
117 1 0.826555 0.181714 0.170423
114 1 0.736328 0.238707 0.157009
115 1 0.746542 0.179407 0.248336
213 1 0.839054 0.333633 0.324749
186 1 0.730167 0.26241 0.332163
139 1 0.748514 0.326592 0.245353
100 1 -0.000421003 0.262694 0.253341
120 1 0.828376 0.257096 0.244461
125 1 0.181137 0.320772 0.170829
123 1 0.0808429 0.328606 0.24003
122 1 0.0744408 0.421268 0.158804
194 1 0.0788656 0.42765 0.325854
128 1 0.175642 0.414885 0.236522
183 1 0.585493 0.178971 0.41428
126 1 0.259957 0.406971 0.159883
127 1 0.255798 0.325484 0.252831
198 1 0.245149 0.416434 0.323176
131 1 0.428805 0.338908 0.237195
132 1 0.343623 0.402818 0.256844
202 1 0.414083 0.421085 0.33199
136 1 0.514091 0.427161 0.250912
205 1 0.507604 0.339107 0.326136
215 1 0.907316 0.326156 0.417361
135 1 0.591745 0.336252 0.251367
206 1 0.573753 0.413029 0.348193
197 1 0.15901 0.353255 0.330581
7 1 0.250942 0.0201245 0.094673
140 1 0.66256 0.430671 0.235297
210 1 0.75618 0.437891 0.32844
144 1 0.833841 0.421538 0.237127
211 1 0.728366 0.339154 0.416422
143 1 0.914463 0.332685 0.249648
124 1 0.00470262 0.416923 0.240216
212 1 0.667954 0.434455 0.402713
208 1 0.491603 0.397122 0.41354
146 1 0.0892772 0.0773961 0.349921
152 1 0.168761 0.0870943 0.423535
179 1 0.403333 0.174837 0.426978
587 1 0.434022 0.500107 0.425965
209 1 0.672572 0.350707 0.320408
150 1 0.23659 0.0865963 0.336715
188 1 0.658845 0.254647 0.411206
156 1 0.330615 0.0939345 0.431595
169 1 0.990299 0.170902 0.317728
154 1 0.417775 0.0816434 0.348896
160 1 0.507558 0.0907766 0.411316
181 1 0.50778 0.164557 0.336221
191 1 0.920383 0.171697 0.409324
158 1 0.579529 0.0796558 0.332876
204 1 0.323554 0.418396 0.41234
164 1 0.663271 0.0930938 0.421632
200 1 0.163023 0.422175 0.42871
201 1 0.3352 0.32981 0.339329
162 1 0.742095 0.0928223 0.345887
168 1 0.819363 0.0964787 0.422279
195 1 0.0875343 0.330992 0.416307
148 1 -0.00850205 0.0847693 0.401301
207 1 0.589789 0.334066 0.406318
185 1 0.661368 0.173004 0.337665
190 1 0.919406 0.250888 0.340011
172 1 1.00569 0.254351 0.417578
171 1 0.0924715 0.175267 0.409948
203 1 0.394072 0.339247 0.429283
176 1 0.174637 0.261057 0.40775
175 1 0.24697 0.168747 0.417396
174 1 0.254644 0.238861 0.334464
180 1 0.333532 0.253872 0.414038
199 1 0.253931 0.34648 0.415231
277 1 0.517898 0.328295 0.507017
593 1 0.672411 0.509412 0.334797
81 1 0.321961 0.00845648 0.171319
18 1 0.753621 0.0823231 0.0140899
91 1 0.739904 0.0125223 0.274221
589 1 0.503824 0.512976 0.338829
649 1 0.0107286 0.486227 0.500888
145 1 0.00949551 -0.0035572 0.336303
151 1 0.254266 0.0114577 0.422659
577 1 1.00128 0.509403 0.334065
65 1 0.677948 0.333349 -0.00162726
79 1 0.246709 0.0138213 0.246116
157 1 0.495658 -0.00367355 0.32781
66 1 0.752848 0.42657 0.000300857
257 1 0.676429 0.161305 0.501588
273 1 0.316702 0.334077 0.508003
449 1 0.653063 0.503386 -0.00371806
61 1 0.487786 0.332527 -0.00347755
57 1 0.346565 0.311504 0.00752049
49 1 -0.00785419 0.338514 -0.0104643
53 1 0.154743 0.328062 -0.0162544
54 1 0.250776 0.394585 0.0146396
250 1 0.427208 0.25127 0.502757
669 1 0.834633 0.489012 0.493791
262 1 0.917793 0.254999 0.497523
62 1 0.57409 0.43629 0.000860923
22 1 0.912573 0.0791256 0.0223759
46 1 0.9113 0.240867 0.00291748
58 1 0.41322 0.428745 0.000352262
10 1 0.433994 0.0704871 -0.00680993
281 1 0.652834 0.32517 0.503105
258 1 0.768563 0.241509 0.506282
234 1 0.763277 0.0828278 0.510638
230 1 0.567253 0.0980223 0.500043
253 1 0.503173 0.176443 0.484058
220 1 1.00832 0.0725324 0.586449
290 1 0.088286 0.0816546 0.666477
313 1 -0.00431967 0.159172 0.669528
432 1 0.831738 0.42507 0.924827
224 1 0.17326 0.0887953 0.597231
228 1 0.337477 0.0970114 0.602016
317 1 0.172511 0.167777 0.674065
251 1 0.421127 0.173561 0.592275
232 1 0.496708 0.0882988 0.585212
298 1 0.435416 0.0710295 0.682851
302 1 0.594976 0.0867552 0.673331
236 1 0.662421 0.0817364 0.570413
431 1 0.907647 0.341462 0.919388
309 1 0.826565 0.00275838 0.675732
311 1 0.919523 -0.00186555 0.757976
259 1 0.758207 0.156746 0.58136
306 1 0.760414 0.082621 0.680149
240 1 0.830895 0.0658469 0.588458
333 1 0.843885 0.1544 0.658401
426 1 0.754812 0.411249 0.83701
223 1 0.243215 -0.00485565 0.586203
310 1 0.914247 0.069577 0.65009
303 1 0.599827 -0.00473226 0.753689
243 1 0.0837182 0.187652 0.599705
361 1 0.991557 0.00614078 0.835824
314 1 0.0923577 0.2435 0.678771
731 1 0.427829 0.497034 0.756439
247 1 0.254884 0.176715 0.591938
248 1 0.166549 0.250771 0.581893
271 1 0.258401 0.336854 0.59383
21 1 0.834081 -0.0154376 1.01101
252 1 0.358087 0.25334 0.595754
256 1 0.512049 0.229916 0.576286
275 1 0.444138 0.327805 0.586845
255 1 0.59211 0.167138 0.59653
260 1 0.666126 0.255207 0.59363
274 1 0.417452 0.410982 0.494544
330 1 0.765197 0.24381 0.646319
353 1 0.664041 0.332571 0.664095
229 1 0.493161 0.00845201 0.488847
244 1 -0.000301657 0.248779 0.57657
264 1 0.850435 0.245535 0.575385
263 1 0.921865 0.166533 0.580986
809 1 0.652035 0.488521 0.820897
218 1 0.0795083 0.0859109 0.502228
26 1 0.0762116 0.255309 1.00092
267 1 0.0807426 0.317909 0.582114
272 1 0.172028 0.414771 0.598832
289 1 0.998376 -0.00454675 0.677652
225 1 0.340573 0.011077 0.517767
30 1 0.245851 0.24104 0.99802
428 1 0.66604 0.428653 0.927329
276 1 0.334645 0.423073 0.582919
346 1 0.412658 0.409498 0.660476
285 1 0.819659 0.334963 0.496103
279 1 0.585149 0.324303 0.587949
280 1 0.496275 0.415256 0.588368
284 1 0.645482 0.411157 0.579925
425 1 0.671423 0.341748 0.830651
437 1 0.162394 0.502996 0.994278
659 1 0.414766 0.495025 0.587226
422 1 0.572174 0.410792 0.835202
283 1 0.733443 0.338084 0.578093
246 1 0.235699 0.235044 0.507943
288 1 0.843295 0.430474 0.580541
226 1 0.417698 0.10023 0.505165
268 1 1.00813 0.409934 0.582385
287 1 0.914017 0.337377 0.583777
803 1 0.412466 0.504249 0.920631
291 1 0.0813884 -0.00163347 0.754299
292 1 0.975901 0.089353 0.754111
296 1 0.172842 0.0813457 0.735506
315 1 0.0738965 0.172194 0.748486
389 1 0.168489 0.16317 0.834935
385 1 0.990021 0.164488 0.848228
294 1 0.258717 0.085091 0.668426
235 1 0.727273 -0.00333072 0.565033
366 1 0.245578 0.0850905 0.835385
424 1 0.493517 0.420247 0.917709
300 1 0.334733 0.0834034 0.750167
325 1 0.508908 0.148875 0.672296
397 1 0.508356 0.158683 0.823755
304 1 0.51996 0.0722403 0.759226
308 1 0.668489 0.0886565 0.767168
374 1 0.596137 0.0846023 0.830818
329 1 0.675646 0.16404 0.67085
327 1 0.594408 0.162041 0.756339
423 1 0.576148 0.347866 0.934891
797 1 0.176614 0.481006 0.825879
301 1 0.510518 -0.00486051 0.667372
331 1 0.743668 0.178177 0.751231
420 1 0.328263 0.417068 0.92266
417 1 0.337594 0.328148 0.846264
312 1 0.849568 0.0747642 0.752945
335 1 0.89932 0.174392 0.747921
33 1 0.338137 0.148923 1.01198
337 1 -0.0064674 0.329757 0.670784
386 1 0.0649628 0.249093 0.828915
316 1 0.986693 0.238322 0.746416
339 1 0.0814221 0.323773 0.753185
341 1 0.162471 0.333412 0.674037
413 1 0.178999 0.333814 0.842662
319 1 0.249134 0.158434 0.751323
320 1 0.168882 0.254233 0.763382
318 1 0.245042 0.25453 0.661005
343 1 0.242866 0.316625 0.746192
321 1 0.324077 0.170728 0.671329
323 1 0.412062 0.157901 0.751904
322 1 0.436976 0.239941 0.677463
324 1 0.34178 0.240499 0.761836
345 1 0.339396 0.331597 0.67379
347 1 0.409446 0.327674 0.763501
326 1 0.579902 0.256947 0.663861
328 1 0.506088 0.244878 0.75671
332 1 0.670237 0.254334 0.741197
336 1 0.820247 0.249889 0.74651
429 1 0.808964 0.325203 0.832964
334 1 0.904786 0.255271 0.66491
359 1 0.89854 0.328322 0.751793
793 1 -0.0113871 0.491791 0.819442
338 1 0.0845354 0.399408 0.672191
410 1 0.0789098 0.403626 0.823451
340 1 -0.00378247 0.411852 0.745711
416 1 0.169451 0.416746 0.915714
342 1 0.248825 0.395536 0.67882
344 1 0.165603 0.413498 0.745431
414 1 0.262212 0.415727 0.836069
741 1 0.832915 0.495135 0.662285
411 1 0.0766343 0.323191 0.912549
735 1 0.578626 0.492201 0.737337
349 1 0.492645 0.328492 0.678685
348 1 0.347227 0.419348 0.756865
418 1 0.408839 0.413722 0.842762
352 1 0.487212 0.398769 0.760439
351 1 0.577747 0.327989 0.768321
350 1 0.568729 0.398644 0.669803
412 1 1.00567 0.417505 0.904711
295 1 0.263481 -0.000605681 0.747508
357 1 0.822557 0.330313 0.625282
356 1 0.665973 0.411291 0.741334
355 1 0.75163 0.323057 0.708674
354 1 0.744216 0.411952 0.653335
430 1 0.905267 0.419662 0.829678
743 1 0.922401 0.486239 0.72859
358 1 0.918169 0.406104 0.655754
360 1 0.832123 0.412831 0.742378
362 1 0.0799548 0.0905504 0.814663
368 1 0.159824 0.0823308 0.914358
387 1 0.089267 0.163772 0.909975
364 1 0.992723 0.0860999 0.924583
391 1 0.252711 0.176456 0.91413
393 1 0.333098 0.149404 0.84446
388 1 0.984845 0.254093 0.9102
381 1 0.829588 -0.0174109 0.836312
372 1 0.345073 0.064055 0.924735
370 1 0.427135 0.0795119 0.822581
395 1 0.412336 0.151073 0.926223
231 1 0.57218 0.0144563 0.565024
400 1 0.504315 0.23127 0.920049
404 1 0.656035 0.261371 0.924358
376 1 0.505778 0.0812542 0.917578
402 1 0.745609 0.245667 0.843644
378 1 0.758203 0.0678958 0.835009
405 1 0.822846 0.153704 0.836671
380 1 0.677674 0.0886712 0.913025
403 1 0.751695 0.169299 0.924015
384 1 0.834561 0.077838 0.93627
382 1 0.911869 0.0725196 0.842746
407 1 0.90408 0.165109 0.928516
371 1 0.423215 -0.000518672 0.905326
406 1 0.909569 0.234798 0.835846
409 1 0.996083 0.326288 0.820043
392 1 0.1745 0.244924 0.903254
427 1 0.752206 0.328069 0.918669
390 1 0.260999 0.244708 0.836851
415 1 0.247255 0.335816 0.925024
396 1 0.333608 0.245327 0.925496
419 1 0.41959 0.333777 0.920238
394 1 0.42258 0.237605 0.836117
408 1 0.836791 0.244147 0.922397
398 1 0.594654 0.251181 0.834127
421 1 0.5086 0.319758 0.856856
401 1 0.683143 0.165415 0.847902
399 1 0.589638 0.168544 0.908973
799 1 0.256875 0.502138 0.907492
801 1 0.330278 0.504298 0.832563
723 1 0.0854967 0.494235 0.751101
245 1 0.155075 0.158701 0.496022
721 1 1.01298 0.485083 0.655462
363 1 0.0727025 0.00747158 0.919296
739 1 0.746932 0.479843 0.75334
663 1 0.582829 0.491209 0.59167
671 1 0.937105 0.498316 0.568528
811 1 0.740329 0.509409 0.908435
733 1 0.493886 0.508975 0.668773
45 1 0.835738 0.156351 1.02736
367 1 0.257811 -0.0024597 0.90817
661 1 0.499784 0.484591 0.508018
725 1 0.175542 0.495775 0.674479
14 1 0.588247 0.0800837 0.989939
237 1 0.836444 -0.00236919 0.487707
222 1 0.260553 0.0861597 0.521991
433 1 1.01223 0.493492 0.992661
261 1 0.85199 0.172962 0.502098
50 1 0.0811015 0.418058 0.994021
221 1 0.166259 0.00763387 0.505642
282 1 0.732569 0.414313 0.492948
34 1 0.425438 0.243589 1.01774
269 1 0.178344 0.329122 0.496734
238 1 0.91425 0.0812288 0.492263
70 1 0.915028 0.409662 1.00296
69 1 0.82218 0.339101 1.00739
445 1 0.494059 0.516972 0.996799
25 1 0.983902 0.171126 1.00295
254 1 0.592626 0.243658 0.506148
242 1 0.0791165 0.246521 0.501926
42 1 0.754209 0.237876 1.0031
241 1 1.00003 0.164041 0.491724
286 1 0.917494 0.40887 0.494599
249 1 0.332052 0.180736 0.517034
440 1 0.165836 0.573667 0.0816779
506 1 0.0918168 0.595453 0.16115
436 1 -0.00362821 0.576873 0.0633268
15 1 0.594922 1.00553 0.0765143
444 1 0.333067 0.599915 0.0761572
463 1 0.234944 0.657812 0.0781148
455 1 0.915703 0.492393 0.071385
670 1 0.906716 0.570398 0.501395
510 1 0.267561 0.59522 0.162705
448 1 0.506428 0.585571 0.0778939
9 1 0.327383 0.999316 0.0164515
599 1 0.925218 0.49945 0.411427
518 1 0.584562 0.591102 0.172801
443 1 0.409197 0.496677 0.0707083
73 1 0.0196801 0.999327 0.154863
717 1 0.828001 0.827479 0.503767
693 1 0.838388 0.673001 0.498321
452 1 0.667272 0.599482 0.0817671
456 1 0.840221 0.575565 0.0772354
682 1 0.398324 0.753485 0.510087
522 1 0.754466 0.579205 0.15853
165 1 0.828029 1.01071 0.340534
526 1 0.919829 0.607878 0.166977
163 1 0.741938 1.01675 0.420841
505 1 1.00048 0.508415 0.149869
459 1 0.0916589 0.666656 0.0768788
460 1 0.00532715 0.760204 0.0779321
451 1 0.740269 0.507252 0.0772625
521 1 0.671489 0.510523 0.149737
464 1 0.175524 0.764694 0.0896133
653 1 0.169059 0.489907 0.517993
537 1 0.348149 0.662484 0.167949
468 1 0.318186 0.725665 0.0847598
467 1 0.431573 0.658812 0.0737643
538 1 0.437295 0.736912 0.145082
690 1 0.745632 0.742888 0.496521
439 1 0.238221 0.491494 0.0818423
471 1 0.580737 0.671261 0.070062
472 1 0.513779 0.753026 0.0666265
545 1 0.685245 0.676031 0.163171
475 1 0.758906 0.656698 0.0827177
476 1 0.651465 0.750697 0.0849194
546 1 0.758987 0.754476 0.155638
167 1 0.912738 1.00363 0.414451
479 1 0.927103 0.675526 0.0729658
480 1 0.840716 0.751785 0.0772515
647 1 0.913935 0.838373 0.422301
483 1 0.093156 0.843837 0.0816271
488 1 0.174472 0.91881 0.077426
484 1 0.0123466 0.912129 0.079187
554 1 0.0894404 0.921292 0.171049
509 1 0.166775 0.498883 0.164672
487 1 0.262737 0.831407 0.0671967
492 1 0.332426 0.925682 0.0872198
628 1 0.993389 0.923396 0.420359
625 1 0.994583 0.840134 0.321181
491 1 0.419388 0.840268 0.0884402
562 1 0.415524 0.918401 0.165386
646 1 0.916559 0.9085 0.330653
23 1 0.914391 0.995843 0.0973771
495 1 0.582357 0.832239 0.096054
496 1 0.512002 0.926578 0.0754783
565 1 0.501331 0.82237 0.174983
566 1 0.581875 0.926781 0.17068
435 1 0.0774476 0.492011 0.0687903
500 1 0.658899 0.917407 0.0892905
499 1 0.757906 0.834014 0.0821046
570 1 0.746823 0.914864 0.167131
93 1 0.80551 1.00333 0.186241
503 1 0.907232 0.832776 0.0895944
504 1 0.83381 0.908922 0.0844041
574 1 0.908796 0.901698 0.172474
89 1 0.670439 0.99806 0.186318
597 1 0.839532 0.504568 0.333862
642 1 0.760907 0.923474 0.339315
531 1 0.0850845 0.666951 0.249071
508 1 -0.00312498 0.597131 0.23003
529 1 0.0120245 0.68034 0.167995
714 1 0.756632 0.906053 0.500042
447 1 0.581254 0.508761 0.0884109
533 1 0.161669 0.675067 0.159396
512 1 0.168645 0.603036 0.258422
516 1 0.335649 0.577536 0.247879
514 1 0.416146 0.56093 0.154927
641 1 0.658732 0.817256 0.338008
539 1 0.41344 0.681364 0.244055
520 1 0.505745 0.586342 0.25953
586 1 0.410002 0.583668 0.356818
604 1 -0.00510149 0.766689 0.411469
613 1 0.502928 0.658881 0.341629
541 1 0.509074 0.65965 0.173774
524 1 0.663175 0.580193 0.243232
543 1 0.584187 0.663355 0.254756
528 1 0.842046 0.586071 0.251685
594 1 0.751825 0.576825 0.336804
648 1 0.832472 0.906119 0.423422
551 1 0.914932 0.666447 0.248067
621 1 0.839905 0.658013 0.345965
530 1 0.0887128 0.755722 0.15403
532 1 0.992738 0.748507 0.247634
602 1 0.0813285 0.745825 0.341157
534 1 0.252353 0.729872 0.17123
535 1 0.263348 0.666272 0.264201
536 1 0.1762 0.751943 0.242182
559 1 0.256856 0.827408 0.244321
540 1 0.350473 0.762735 0.249855
610 1 0.420082 0.745242 0.336694
561 1 0.332822 0.835861 0.158262
544 1 0.516659 0.738132 0.242682
542 1 0.587428 0.751515 0.171582
549 1 0.836747 0.6721 0.155922
547 1 0.751229 0.677 0.247928
569 1 0.67129 0.828684 0.174248
548 1 0.655975 0.747099 0.246855
552 1 0.839766 0.738505 0.245271
550 1 0.919007 0.743579 0.1725
575 1 0.914407 0.827048 0.247929
685 1 0.502589 0.667355 0.505055
555 1 0.0809566 0.810802 0.243119
556 1 -0.00845772 0.938128 0.244143
557 1 0.181001 0.841632 0.167241
560 1 0.183129 0.916219 0.250025
3 1 0.0834739 1.00148 0.0677932
558 1 0.255289 0.93147 0.154846
563 1 0.418902 0.850237 0.25109
633 1 0.336531 0.843595 0.334764
564 1 0.316575 0.924575 0.254423
634 1 0.39598 0.937753 0.336508
638 1 0.579708 0.914113 0.332713
637 1 0.49946 0.840572 0.331268
568 1 0.500278 0.915042 0.241604
567 1 0.578442 0.832558 0.257513
640 1 0.487396 0.920924 0.421062
571 1 0.752189 0.837754 0.252968
572 1 0.674131 0.920079 0.267435
553 1 0.00561779 0.836045 0.161854
644 1 0.66823 0.917397 0.404723
573 1 0.830853 0.837732 0.175568
576 1 0.826001 0.925866 0.265576
578 1 0.075472 0.582099 0.325725
584 1 0.173835 0.576303 0.415722
159 1 0.578499 1.00853 0.411309
85 1 0.500278 0.995198 0.180176
19 1 0.753789 0.992289 0.0972129
582 1 0.247328 0.57922 0.337983
607 1 0.248442 0.676649 0.431876
5 1 0.171034 1.005 -0.00198208
588 1 0.325063 0.591632 0.417033
592 1 0.499362 0.584864 0.429974
611 1 0.415362 0.668497 0.42036
645 1 0.832756 0.833478 0.332155
590 1 0.595422 0.592367 0.332783
615 1 0.583054 0.672227 0.406456
622 1 0.91912 0.756389 0.324754
13 1 0.50795 1.00185 -0.00479348
596 1 0.66133 0.593932 0.425584
619 1 0.746094 0.682265 0.415113
635 1 0.423824 0.831367 0.420669
639 1 0.579377 0.849977 0.419633
624 1 0.829966 0.751604 0.412545
598 1 0.922636 0.578832 0.325397
601 1 -0.0017567 0.665645 0.331007
580 1 0.993723 0.581605 0.414404
600 1 0.823238 0.584509 0.428
623 1 0.927622 0.666976 0.427991
603 1 0.0872296 0.649146 0.41011
627 1 0.0956854 0.830744 0.400565
608 1 0.179776 0.757311 0.42336
629 1 0.180451 0.825209 0.320808
605 1 0.168048 0.671627 0.349913
606 1 0.255813 0.747062 0.336841
631 1 0.246989 0.84113 0.418247
612 1 0.340019 0.754069 0.428576
609 1 0.331348 0.667055 0.342251
616 1 0.492162 0.747736 0.43692
626 1 0.0866097 0.916148 0.314761
632 1 0.174108 0.915694 0.43238
617 1 0.678815 0.666414 0.335503
614 1 0.570217 0.758479 0.339898
636 1 0.328121 0.921118 0.413336
618 1 0.748879 0.760444 0.332396
620 1 0.661059 0.748587 0.412192
643 1 0.75072 0.833259 0.409767
630 1 0.252823 0.916273 0.342548
95 1 0.914366 1.00405 0.261764
595 1 0.756575 0.504994 0.424783
689 1 0.651604 0.670371 0.496679
713 1 0.668926 0.830967 0.492476
527 1 0.931892 0.496972 0.247712
581 1 0.164659 0.49321 0.330204
585 1 0.3265 0.485919 0.327963
657 1 0.330276 0.508244 0.505393
517 1 0.501225 0.503429 0.179837
507 1 0.0818858 0.513051 0.228236
583 1 0.243721 0.49955 0.413081
513 1 0.319819 0.497639 0.160398
1 1 0.993889 0.999653 0.00809818
77 1 0.16211 0.997201 0.148604
481 1 0.000222511 0.818201 -0.00262897
11 1 0.418451 1.00109 0.0912211
674 1 0.0892712 0.761999 0.493368
701 1 0.168829 0.83573 0.512809
658 1 0.405674 0.590255 0.495778
494 1 0.591093 0.918316 0.0023977
217 1 0.00472359 0.996637 0.507293
694 1 0.926418 0.753541 0.502237
686 1 0.584891 0.758691 0.493861
709 1 0.489854 0.841105 0.505542
650 1 0.106517 0.572467 0.509765
17 1 0.683017 0.997445 0.00388082
485 1 0.172736 0.835331 -0.00146401
478 1 0.912292 0.760206 -0.00769841
493 1 0.497358 0.842848 -0.0144511
502 1 0.916117 0.912949 0.00865606
458 1 0.087392 0.752908 -0.00481095
675 1 0.0848137 0.665338 0.583124
656 1 0.173607 0.575754 0.591293
749 1 0.16292 0.658293 0.669
679 1 0.241999 0.668774 0.579289
726 1 0.247851 0.583048 0.688657
660 1 0.330381 0.582788 0.589907
683 1 0.422737 0.651137 0.576831
805 1 0.506528 0.482013 0.831156
730 1 0.411346 0.596081 0.664732
729 1 0.352594 0.503943 0.674486
450 1 0.751427 0.597503 1.00516
664 1 0.492405 0.571994 0.577209
687 1 0.586397 0.675991 0.578538
438 1 0.249814 0.580931 0.98917
668 1 0.658841 0.578916 0.599672
672 1 0.829901 0.570455 0.576241
369 1 0.336606 1.00674 0.830075
691 1 0.760591 0.672837 0.57614
864 1 0.837577 0.904659 0.921878
652 1 0.00666735 0.579658 0.571607
695 1 0.926995 0.664195 0.575745
477 1 0.83309 0.670602 0.999595
219 1 0.0908041 1.00343 0.582984
474 1 0.753245 0.756349 0.989382
305 1 0.676474 1.00539 0.660152
676 1 0.0105184 0.744089 0.563652
699 1 0.0711706 0.839483 0.58498
746 1 0.0816217 0.750127 0.654325
773 1 0.150253 0.839507 0.682128
680 1 0.161258 0.756257 0.582638
703 1 0.254566 0.848309 0.56726
702 1 0.259232 0.935203 0.501148
684 1 0.331395 0.742658 0.590368
688 1 0.492347 0.751952 0.572342
754 1 0.405261 0.763885 0.665334
297 1 0.339699 1.00904 0.674809
692 1 0.664647 0.757004 0.573311
758 1 0.583389 0.758641 0.653309
711 1 0.570381 0.843358 0.568034
781 1 0.501136 0.829641 0.67903
785 1 0.660007 0.832538 0.645518
696 1 0.849775 0.746452 0.581533
715 1 0.749943 0.830798 0.575592
762 1 0.746265 0.742921 0.659954
766 1 0.923458 0.739522 0.672489
719 1 0.940514 0.823957 0.593727
815 1 0.910329 0.504058 0.904044
673 1 0.0135324 0.653706 0.493194
704 1 0.159423 0.913332 0.584423
700 1 -0.00660811 0.91453 0.586276
770 1 0.0773837 0.925186 0.66602
453 1 0.826309 0.503316 0.996689
708 1 0.334113 0.922148 0.596634
774 1 0.235995 0.912054 0.665506
441 1 0.328698 0.497929 0.997116
489 1 0.343617 0.838186 0.99387
707 1 0.412407 0.842197 0.58768
379 1 0.74895 0.99361 0.927221
712 1 0.507501 0.919645 0.575278
782 1 0.587492 0.924666 0.68568
465 1 0.324899 0.66076 0.991513
462 1 0.252341 0.748997 1.00895
716 1 0.668521 0.911382 0.571664
720 1 0.828737 0.924589 0.584789
789 1 0.82707 0.819919 0.656886
454 1 0.915879 0.599129 0.978704
373 1 0.505305 0.989439 0.825363
859 1 0.756026 0.831429 0.899646
722 1 0.0892281 0.574753 0.667477
747 1 0.0769618 0.661728 0.738933
724 1 0.00385217 0.570926 0.752273
728 1 0.165842 0.572118 0.77516
798 1 0.254972 0.581522 0.829193
825 1 0.346728 0.664601 0.821395
732 1 0.346747 0.583081 0.743731
751 1 0.259327 0.654992 0.756777
736 1 0.491953 0.594739 0.737015
753 1 0.330958 0.675318 0.669274
829 1 0.500968 0.670592 0.826315
761 1 0.66504 0.661342 0.664285
734 1 0.571429 0.579152 0.666386
759 1 0.580272 0.663142 0.738122
806 1 0.578004 0.572828 0.824092
740 1 0.651374 0.57462 0.747037
710 1 0.573953 0.934916 0.484976
738 1 0.74013 0.562218 0.658683
706 1 0.413153 0.936308 0.511942
744 1 0.843343 0.57921 0.754131
763 1 0.748539 0.660229 0.737568
810 1 0.743781 0.578391 0.818406
765 1 0.836319 0.666182 0.663143
737 1 0.667969 0.485273 0.663661
742 1 0.904048 0.58532 0.650704
858 1 0.754343 0.906455 0.823891
771 1 0.0754485 0.846744 0.767449
745 1 -0.00898058 0.645778 0.653588
817 1 -0.00679495 0.670079 0.834478
818 1 0.0813088 0.749176 0.833359
822 1 0.244473 0.746021 0.843749
752 1 0.165881 0.747125 0.764008
750 1 0.241757 0.748073 0.673282
775 1 0.244 0.836831 0.745891
826 1 0.423358 0.742604 0.826872
756 1 0.323859 0.745455 0.763034
755 1 0.420932 0.677779 0.752623
757 1 0.489964 0.688576 0.657242
760 1 0.509566 0.744675 0.743154
830 1 0.587844 0.753387 0.828534
764 1 0.6629 0.758095 0.739674
857 1 0.66806 0.846689 0.817734
787 1 0.768315 0.817137 0.746157
769 1 0.0093093 0.827267 0.67292
767 1 0.919712 0.655591 0.738797
861 1 0.840845 0.829985 0.826929
748 1 0.0104043 0.747039 0.751529
768 1 0.840823 0.728816 0.744465
791 1 0.925695 0.825104 0.747204
837 1 0.835126 0.666553 0.826921
776 1 0.172761 0.926103 0.761277
772 1 0.996583 0.915395 0.746321
466 1 0.41253 0.753497 1.02368
860 1 0.672971 0.921042 0.929649
846 1 0.240505 0.922535 0.842413
778 1 0.415284 0.929119 0.662911
779 1 0.400786 0.836598 0.754334
777 1 0.319069 0.82715 0.662
780 1 0.322475 0.911635 0.738765
849 1 0.316896 0.837467 0.838376
375 1 0.589794 0.992968 0.909874
856 1 0.4946 0.910941 0.904536
783 1 0.590142 0.828262 0.74242
784 1 0.504364 0.911753 0.752725
854 1 0.579023 0.908795 0.822364
788 1 0.675474 0.913048 0.734696
853 1 0.503488 0.824613 0.827042
786 1 0.752971 0.913772 0.6627
807 1 0.579421 0.497795 0.908162
790 1 0.910873 0.910386 0.661582
862 1 0.914271 0.906934 0.832627
841 1 -0.0146923 0.833446 0.830007
792 1 0.831772 0.91095 0.729013
655 1 0.25518 0.492958 0.587954
844 1 0.995251 0.914251 0.913474
794 1 0.0759357 0.583675 0.828752
796 1 -0.00584149 0.572293 0.910791
851 1 0.401885 0.826668 0.905717
820 1 1.00137 0.749631 0.911711
365 1 0.158675 1.00704 0.832433
838 1 0.925541 0.746246 0.823283
850 1 0.403378 0.916164 0.826113
800 1 0.163954 0.579012 0.911348
804 1 0.332463 0.577822 0.91893
840 1 0.832298 0.752309 0.906961
802 1 0.41366 0.574099 0.833407
808 1 0.502467 0.589399 0.910925
863 1 0.922034 0.839314 0.922687
852 1 0.328253 0.920025 0.918131
831 1 0.591736 0.676533 0.918252
812 1 0.673519 0.60249 0.913928
227 1 0.425907 1.00952 0.58912
835 1 0.757188 0.662476 0.923052
833 1 0.661865 0.67333 0.817044
816 1 0.827312 0.586395 0.912017
834 1 0.748249 0.730963 0.839453
847 1 0.257827 0.839541 0.924509
814 1 0.918146 0.58129 0.829234
839 1 0.909686 0.669829 0.905839
819 1 0.0730486 0.649648 0.916809
843 1 0.0842557 0.836568 0.910825
823 1 0.247149 0.661418 0.902525
821 1 0.150831 0.664342 0.832485
845 1 0.162516 0.837203 0.834337
824 1 0.161935 0.760545 0.912357
848 1 0.154339 0.930395 0.908658
842 1 0.0793795 0.926865 0.840607
828 1 0.335096 0.740295 0.916139
832 1 0.50222 0.745949 0.902243
827 1 0.418842 0.663003 0.905911
836 1 0.663184 0.758214 0.900176
855 1 0.591271 0.845358 0.917778
239 1 0.924205 0.997156 0.57949
383 1 0.916457 0.994321 0.918227
498 1 0.75501 0.904708 1.00516
795 1 0.0919972 0.484828 0.895714
293 1 0.162237 0.995767 0.664275
307 1 0.752098 0.99479 0.750524
461 1 0.175348 0.671025 0.993009
501 1 0.839494 0.827202 0.999742
651 1 0.0915269 0.483339 0.595818
473 1 0.675588 0.683077 0.998375
442 1 0.414024 0.577223 0.999881
813 1 0.826016 0.500918 0.830216
667 1 0.742284 0.499779 0.559946
299 1 0.414966 0.995735 0.745872
377 1 0.678699 0.982752 0.842708
727 1 0.252671 0.486294 0.748333
233 1 0.659344 0.995786 0.483462
654 1 0.245109 0.568708 0.499239
469 1 0.502892 0.673976 0.985977
457 1 1.00557 0.675753 1.00941
490 1 0.417749 0.931296 0.993483
677 1 0.156226 0.667664 0.505107
697 1 1.00851 0.844619 0.499117
470 1 0.587202 0.759991 0.995478
718 1 0.923141 0.916131 0.505549
662 1 0.58047 0.585253 0.511164
705 1 0.343141 0.850845 0.494633
666 1 0.736762 0.595061 0.489191
434 1 0.090153 0.581797 1.00267
698 1 0.0928183 0.919909 0.509481
497 1 0.674204 0.837937 1.00991
681 1 0.340051 0.666669 0.500532
486 1 0.245136 0.920402 0.998732
482 1 0.0792447 0.915766 0.993052
446 1 0.601044 0.592469 1.00111
678 1 0.257283 0.76353 0.503002
