ITEM: TIMESTEP
1000
ITEM: NUMBER OF ATOMS
6912
ITEM: BOX BOUNDS pp pp pp
0.0000000000000000e+00 6.3119999999999997e+01
0.0000000000000000e+00 6.3119999999999997e+01
0.0000000000000000e+00 6.3119999999999997e+01
ITEM: ATOMS id type xs ys zs
51 1 0.0446799 0.0773735 0.045138
2 1 0.041633 0.0370246 0.00484031
53 1 0.0797814 0.0829326 0.000523538
8 1 0.0898982 0.0393626 0.0402558
12 1 0.167859 0.0365169 0.0433035
59 1 0.196056 0.0797608 0.0384739
298 1 0.212767 0.0389026 0.0751691
11 1 0.20352 0.00142256 0.0297979
16 1 0.252206 0.0350194 0.038974
20 1 0.329229 0.0432957 0.0322553
63 1 0.289342 0.0823419 0.038459
349 1 0.251751 0.0794494 0.0786262
67 1 0.377873 0.0778038 0.0407735
306 1 0.374193 0.0377466 0.0779214
353 1 0.334546 0.0760328 0.0754962
19 1 0.374971 0.00144575 0.0408187
24 1 0.416965 0.0348419 0.040108
28 1 0.49909 0.0377207 0.0418626
71 1 0.459391 0.0731126 0.0419145
32 1 0.581443 0.0307136 0.042885
75 1 0.547224 0.07654 0.0382403
314 1 0.542208 0.03347 0.0827679
361 1 0.500093 0.0794283 0.0794182
36 1 0.664116 0.0315884 0.0296951
79 1 0.622403 0.0825675 0.0446937
318 1 0.624733 0.0339756 0.0811073
40 1 0.749936 0.0517041 0.0407139
34 1 0.708447 0.0407323 0.00581579
322 1 0.69726 0.0412814 0.0644845
38 1 0.797396 0.0496634 0.00689147
39 1 0.787674 0.00699684 0.0467835
37 1 0.750228 0.00763117 0.00266951
326 1 0.784959 0.0504751 0.0790373
44 1 0.83638 0.0484099 0.05456
48 1 0.897927 0.0373996 0.0529153
41 1 0.833839 0.000838813 0.00493608
93 1 0.915833 0.077952 0.0110777
4 1 0.999331 0.0399333 0.0425102
95 1 0.95838 0.0793656 0.0436272
47 1 0.951404 0.00474076 0.0451883
46 1 0.954109 0.0385395 0.00232915
49 1 0.994363 0.0786013 6.92858e-05
1 1 0.991357 0.00305597 0.00252991
52 1 0.00344207 0.116452 0.0471698
56 1 0.080864 0.120931 0.0433621
99 1 0.0373544 0.162892 0.0435709
50 1 0.0403717 0.119695 0.00281413
55 1 0.124743 0.0881805 0.0367239
60 1 0.165159 0.128692 0.0465111
103 1 0.125368 0.1638 0.0424592
346 1 0.207198 0.124147 0.0753021
397 1 0.247092 0.159707 0.0828152
58 1 0.206167 0.126751 0.00138553
64 1 0.253507 0.125271 0.0373392
68 1 0.331279 0.12405 0.0367202
111 1 0.296025 0.16386 0.050234
61 1 0.251181 0.0840991 0.00288784
72 1 0.414998 0.126966 0.0424308
354 1 0.372065 0.119853 0.0758491
401 1 0.339977 0.163531 0.0815823
66 1 0.376614 0.12541 0.00425777
119 1 0.459749 0.159597 0.0406487
117 1 0.419596 0.164875 0.00484963
358 1 0.463476 0.123137 0.0767168
69 1 0.421596 0.0870692 0.0056123
70 1 0.456966 0.124022 0.00216103
76 1 0.503701 0.112305 0.0388086
80 1 0.580962 0.123077 0.0445
123 1 0.537787 0.161174 0.0410775
362 1 0.542355 0.118773 0.0794817
84 1 0.661906 0.130125 0.0430029
127 1 0.618896 0.166112 0.0393476
413 1 0.583596 0.162001 0.0771269
83 1 0.708293 0.0890291 0.0388279
88 1 0.743687 0.138983 0.0439573
82 1 0.701069 0.134369 0.0081264
369 1 0.670567 0.0890344 0.0774299
370 1 0.709449 0.132864 0.0829362
373 1 0.749742 0.0946971 0.0762381
87 1 0.794314 0.0922514 0.0358824
85 1 0.750872 0.0901911 0.00957368
91 1 0.874973 0.0865878 0.0444359
92 1 0.83545 0.127522 0.0453886
139 1 0.878858 0.16662 0.046594
378 1 0.879131 0.126033 0.0818236
90 1 0.880906 0.127576 0.00215003
141 1 0.915514 0.165014 0.00454488
94 1 0.956441 0.121937 0.00382328
96 1 0.918407 0.124712 0.0438398
147 1 0.0395636 0.246009 0.0366104
437 1 0.0795295 0.245747 0.0801632
98 1 0.0374321 0.208689 0.00175633
104 1 0.0869055 0.205929 0.0345587
108 1 0.16617 0.211706 0.0336363
151 1 0.118835 0.248635 0.0347715
390 1 0.122411 0.204102 0.0803843
441 1 0.164427 0.240178 0.0798535
107 1 0.212561 0.166793 0.0373783
394 1 0.207171 0.206268 0.0829024
112 1 0.251155 0.20424 0.0521454
110 1 0.293127 0.210879 0.00509567
109 1 0.255735 0.17046 0.00365304
113 1 0.335054 0.169441 0.00132385
115 1 0.375844 0.167823 0.0423724
116 1 0.33602 0.208246 0.0392879
163 1 0.376329 0.2431 0.0444135
449 1 0.335962 0.244348 0.0830817
165 1 0.41642 0.245767 0.00214835
120 1 0.426855 0.208889 0.0445884
405 1 0.422861 0.168868 0.0818444
118 1 0.460206 0.212401 0.000852713
124 1 0.503772 0.207973 0.0491796
410 1 0.546385 0.207963 0.0773842
122 1 0.536373 0.208394 0.00453531
125 1 0.577639 0.172755 0.00597079
128 1 0.588487 0.212076 0.0478675
414 1 0.625638 0.211558 0.0821001
129 1 0.668898 0.173644 0.00354429
131 1 0.709354 0.176885 0.0444349
132 1 0.666851 0.211671 0.0356296
136 1 0.748482 0.211742 0.039086
469 1 0.749099 0.246534 0.0823291
135 1 0.786441 0.169818 0.0387525
183 1 0.78866 0.24339 0.0440091
181 1 0.752867 0.249725 0.00353136
134 1 0.795264 0.207813 0.00255448
138 1 0.874328 0.19851 0.000813514
140 1 0.83665 0.206488 0.0404791
187 1 0.873624 0.246642 0.0460811
189 1 0.912365 0.242037 0.00178806
100 1 0.999508 0.202915 0.0496548
143 1 0.959848 0.166815 0.0444465
144 1 0.919232 0.211387 0.0441777
191 1 0.961459 0.243508 0.0477722
152 1 0.0782557 0.280507 0.0393354
195 1 0.0374329 0.329679 0.0374537
481 1 0.00383041 0.328315 0.0832088
485 1 0.0760623 0.324464 0.0769726
156 1 0.165238 0.282289 0.0434441
199 1 0.116857 0.318007 0.0368066
438 1 0.117702 0.287513 0.082446
489 1 0.158423 0.321834 0.077728
201 1 0.167643 0.32952 0.00191357
155 1 0.216135 0.258193 0.0480469
203 1 0.204234 0.328875 0.041341
159 1 0.291931 0.252569 0.0476994
160 1 0.250934 0.295326 0.0390615
207 1 0.295101 0.331876 0.0347851
493 1 0.256429 0.329896 0.0808554
157 1 0.253429 0.251297 0.000981322
162 1 0.3847 0.293975 0.00770612
161 1 0.344305 0.253697 0.000270757
164 1 0.337836 0.29405 0.041827
168 1 0.414787 0.283778 0.0511846
167 1 0.4633 0.250841 0.0436535
172 1 0.498622 0.298312 0.0394487
215 1 0.454792 0.333323 0.0407981
454 1 0.464209 0.294872 0.0807446
166 1 0.459507 0.28589 0.00120797
171 1 0.536395 0.250037 0.0399571
170 1 0.546996 0.295171 0.00132794
458 1 0.539533 0.297641 0.079581
461 1 0.578098 0.256843 0.077612
175 1 0.628032 0.258972 0.0402433
176 1 0.590513 0.296723 0.0389125
180 1 0.664265 0.302392 0.0392579
462 1 0.629943 0.300966 0.0812353
173 1 0.587663 0.253178 0.00800768
179 1 0.700775 0.250869 0.0313109
227 1 0.707785 0.333242 0.0471969
465 1 0.668618 0.254664 0.0780232
466 1 0.709652 0.293138 0.0811786
178 1 0.710843 0.298932 0.00352842
233 1 0.832193 0.332742 0.00283196
182 1 0.794274 0.28381 0.00770688
184 1 0.753311 0.293841 0.0511532
231 1 0.791438 0.327382 0.041304
188 1 0.836564 0.284733 0.0484013
192 1 0.914771 0.284573 0.0438878
235 1 0.875009 0.332529 0.0441228
186 1 0.871412 0.295436 0.00584137
148 1 0.992313 0.293326 0.0405241
190 1 0.954471 0.282895 0.00258858
239 1 0.952752 0.328257 0.0418958
245 1 0.0826327 0.415718 0.00129013
243 1 0.0388975 0.415853 0.0435146
482 1 0.0394914 0.372259 0.0825482
194 1 0.0384018 0.374352 0.00173056
198 1 0.129296 0.373022 0.00690472
200 1 0.0849543 0.371562 0.0361288
247 1 0.12361 0.411285 0.0485624
486 1 0.114775 0.358389 0.0773718
204 1 0.174111 0.36898 0.0470368
251 1 0.206374 0.41512 0.0352166
537 1 0.169579 0.414595 0.0800609
202 1 0.20816 0.367838 0.00359727
208 1 0.25319 0.376106 0.0393202
212 1 0.332083 0.38131 0.0346035
494 1 0.290454 0.37355 0.0784529
497 1 0.332163 0.342064 0.0778316
211 1 0.377137 0.333383 0.044187
259 1 0.383187 0.416535 0.0541818
545 1 0.335123 0.412758 0.0768924
213 1 0.412117 0.336977 0.00319687
216 1 0.416849 0.369823 0.0424966
220 1 0.498599 0.371625 0.0444273
214 1 0.46074 0.375613 0.00416293
265 1 0.498152 0.416179 0.00453049
219 1 0.539813 0.334011 0.0418321
506 1 0.543998 0.378635 0.0828025
509 1 0.582795 0.337945 0.0768795
553 1 0.500911 0.411435 0.0824726
217 1 0.502257 0.340022 0.000525837
223 1 0.630104 0.344886 0.0365559
224 1 0.585772 0.380913 0.0383199
226 1 0.711818 0.386159 0.00128101
228 1 0.668593 0.379148 0.0457073
230 1 0.794716 0.374993 0.00175747
232 1 0.756553 0.379326 0.0475602
518 1 0.805059 0.371385 0.0720536
236 1 0.845302 0.376163 0.0377523
237 1 0.916403 0.336676 0.00482956
196 1 0.998542 0.371282 0.0404322
240 1 0.919303 0.372524 0.0513538
529 1 0.99391 0.414166 0.0812927
238 1 0.952823 0.381399 0.00147829
242 1 0.0411648 0.461635 0.00184292
248 1 0.0828488 0.453446 0.0420629
530 1 0.0366455 0.459263 0.0788084
3461 1 0.079734 0.496938 0.00733484
241 1 0.00230094 0.421423 0.0011721
3463 1 0.119578 0.492373 0.0425472
3749 1 0.0847514 0.494959 0.0811064
252 1 0.159139 0.455712 0.0353261
534 1 0.124161 0.451404 0.0795513
3753 1 0.169758 0.49714 0.0807023
250 1 0.200181 0.458787 0.0010617
3467 1 0.205611 0.499807 0.0329651
256 1 0.244455 0.459106 0.031953
538 1 0.202775 0.457568 0.0786745
3757 1 0.24579 0.497179 0.0740707
255 1 0.290902 0.420387 0.0352338
541 1 0.255312 0.422876 0.0752621
542 1 0.293636 0.463009 0.0771324
3475 1 0.374945 0.497453 0.0436559
260 1 0.333733 0.462642 0.0367335
546 1 0.376884 0.460229 0.0809454
261 1 0.409609 0.417961 0.00316392
258 1 0.37329 0.464133 0.000307425
3479 1 0.464876 0.499885 0.0407245
3765 1 0.421077 0.499613 0.0813664
263 1 0.449503 0.419108 0.0388079
264 1 0.417336 0.46004 0.0428979
268 1 0.499711 0.46109 0.0310423
550 1 0.472516 0.461512 0.0755779
3477 1 0.42176 0.498854 0.00335181
267 1 0.540431 0.419752 0.0423587
272 1 0.579926 0.459942 0.048379
554 1 0.532679 0.462858 0.0809371
270 1 0.624728 0.464774 0.00555987
271 1 0.626073 0.423669 0.0505656
558 1 0.6229 0.463839 0.082921
274 1 0.708308 0.467779 0.00476596
275 1 0.713399 0.429377 0.0381239
276 1 0.66884 0.461866 0.0530259
561 1 0.673979 0.419166 0.0796818
273 1 0.666874 0.42336 0.0102793
279 1 0.794725 0.419753 0.0488999
280 1 0.753858 0.467773 0.0423468
284 1 0.831086 0.468367 0.0477151
566 1 0.79105 0.457606 0.0831098
277 1 0.755172 0.41759 0.00126531
278 1 0.793314 0.455651 0.00946346
283 1 0.875653 0.418821 0.0402681
288 1 0.910193 0.462913 0.0367618
570 1 0.874586 0.465091 0.0826424
573 1 0.916451 0.421138 0.0802798
281 1 0.839395 0.421902 0.00311773
244 1 0.997151 0.463495 0.0367727
287 1 0.960876 0.424334 0.0373489
574 1 0.955491 0.463829 0.0817738
290 1 0.0411918 0.0445649 0.0862005
292 1 0.000526698 0.0370202 0.125645
339 1 0.0413596 0.0818473 0.127009
578 1 0.0399581 0.0351168 0.162447
294 1 0.126467 0.0439897 0.0835297
296 1 0.0886993 0.0430369 0.119116
343 1 0.125012 0.0761282 0.12829
345 1 0.163118 0.0790899 0.0902705
300 1 0.172417 0.0391515 0.126428
304 1 0.244613 0.0440978 0.12386
589 1 0.248951 0.00753383 0.166582
299 1 0.209426 0.0035229 0.130546
302 1 0.292223 0.0378271 0.0836623
351 1 0.293459 0.0825134 0.12329
637 1 0.253204 0.0824448 0.16507
308 1 0.338328 0.0345809 0.123622
312 1 0.40966 0.0346104 0.124833
355 1 0.376984 0.0810031 0.122102
594 1 0.381037 0.0449642 0.163519
597 1 0.420552 0.000447374 0.163772
310 1 0.4557 0.0367985 0.0847427
316 1 0.499404 0.0406927 0.119263
357 1 0.419875 0.079395 0.0863726
359 1 0.457675 0.0741021 0.124473
598 1 0.467493 0.0357874 0.156713
320 1 0.577851 0.0295895 0.124263
363 1 0.539981 0.0773004 0.12645
365 1 0.581599 0.0739239 0.0835885
653 1 0.576918 0.0770939 0.163257
367 1 0.623207 0.0817549 0.123519
606 1 0.624471 0.0414001 0.162815
319 1 0.622869 9.00326e-05 0.121268
323 1 0.709528 0.00591404 0.121034
321 1 0.670059 0.00176855 0.0875058
613 1 0.749203 0.000732475 0.161558
324 1 0.668557 0.0451052 0.121949
610 1 0.713023 0.0422355 0.162762
617 1 0.831653 0.00134291 0.166583
327 1 0.787984 0.00331765 0.121461
328 1 0.751213 0.0441957 0.121446
332 1 0.82491 0.0416827 0.126295
375 1 0.792179 0.0812488 0.125589
330 1 0.874215 0.040512 0.0978334
336 1 0.910749 0.0480693 0.140217
335 1 0.942959 0.00259207 0.126941
334 1 0.951045 0.040905 0.0908872
337 1 0.998425 0.080616 0.0851978
383 1 0.957905 0.0798629 0.127997
338 1 0.0423815 0.118391 0.0862885
340 1 0.000714597 0.12296 0.130031
344 1 0.0823813 0.116275 0.13156
385 1 0.00474341 0.158635 0.0890448
387 1 0.0474727 0.160158 0.135587
341 1 0.0948271 0.0972753 0.085971
342 1 0.13567 0.123841 0.0871538
348 1 0.165502 0.130695 0.130039
389 1 0.086018 0.158752 0.0848033
391 1 0.115124 0.165467 0.133137
633 1 0.166533 0.0836148 0.160109
347 1 0.211446 0.0864995 0.12017
395 1 0.210592 0.164133 0.12755
634 1 0.206526 0.126324 0.163364
350 1 0.288127 0.11985 0.0844084
352 1 0.256863 0.129621 0.12621
399 1 0.299611 0.161747 0.115796
356 1 0.337542 0.119416 0.117467
360 1 0.414189 0.124557 0.120991
403 1 0.373697 0.159592 0.121651
642 1 0.372752 0.124982 0.16483
364 1 0.497205 0.109994 0.124412
407 1 0.459217 0.159638 0.123372
645 1 0.41854 0.0884393 0.161619
368 1 0.579659 0.116307 0.118332
409 1 0.507868 0.160278 0.087423
411 1 0.549362 0.166532 0.120732
650 1 0.540248 0.122574 0.157239
697 1 0.507133 0.163389 0.163458
701 1 0.577456 0.164712 0.164187
366 1 0.624765 0.122758 0.083897
372 1 0.662935 0.122136 0.120243
415 1 0.616287 0.160387 0.124899
417 1 0.660468 0.166089 0.0858899
371 1 0.708635 0.0903927 0.118369
657 1 0.668102 0.0851738 0.160705
658 1 0.704713 0.133853 0.162934
374 1 0.793504 0.131029 0.085244
376 1 0.753842 0.130581 0.12535
423 1 0.792865 0.166227 0.130359
377 1 0.840011 0.0896816 0.0858951
379 1 0.878098 0.089265 0.134381
380 1 0.836259 0.125162 0.129232
381 1 0.911606 0.0836266 0.0896473
425 1 0.841479 0.166262 0.0926932
427 1 0.879344 0.164281 0.130109
382 1 0.960003 0.120293 0.0841396
384 1 0.920963 0.128917 0.127234
431 1 0.960448 0.166273 0.129597
386 1 0.0481352 0.195042 0.0859425
388 1 0.00657854 0.201544 0.12625
435 1 0.0444435 0.243234 0.131444
392 1 0.0854385 0.207209 0.12283
393 1 0.1643 0.17276 0.0837003
396 1 0.172371 0.211371 0.132022
400 1 0.246739 0.207756 0.117963
681 1 0.166787 0.167555 0.166388
398 1 0.292325 0.206918 0.0838714
686 1 0.285014 0.204693 0.157505
733 1 0.25254 0.249321 0.163562
402 1 0.377948 0.207721 0.0924463
404 1 0.333343 0.209442 0.126572
408 1 0.415464 0.206832 0.127265
689 1 0.342933 0.170669 0.16511
690 1 0.378455 0.209932 0.162759
406 1 0.463242 0.209536 0.0843647
453 1 0.421668 0.246811 0.091956
455 1 0.460281 0.244001 0.125577
412 1 0.503199 0.202157 0.12437
459 1 0.541802 0.244898 0.123618
698 1 0.549371 0.210978 0.16317
745 1 0.505175 0.247869 0.166491
416 1 0.58596 0.20397 0.122121
420 1 0.662144 0.205485 0.120563
702 1 0.619085 0.20834 0.165804
705 1 0.657992 0.171318 0.161603
753 1 0.665313 0.237576 0.165417
418 1 0.70672 0.214111 0.0929066
419 1 0.712716 0.170387 0.126878
706 1 0.711223 0.207121 0.165697
421 1 0.752064 0.177292 0.0841278
422 1 0.79862 0.203411 0.0901599
424 1 0.755911 0.214649 0.127953
761 1 0.831407 0.248083 0.163819
426 1 0.878835 0.205504 0.0834976
428 1 0.837137 0.204096 0.129691
473 1 0.833682 0.241503 0.0880746
429 1 0.918809 0.168869 0.0870751
430 1 0.953148 0.209708 0.0895505
432 1 0.917032 0.205618 0.132499
477 1 0.919486 0.247703 0.0894975
479 1 0.966999 0.247021 0.132221
434 1 0.0367973 0.290303 0.083599
440 1 0.0798789 0.287593 0.129767
483 1 0.0415858 0.323921 0.12275
439 1 0.124276 0.255169 0.119193
487 1 0.120393 0.328647 0.118741
726 1 0.127188 0.29061 0.16017
442 1 0.216235 0.297498 0.0870417
443 1 0.207671 0.252781 0.118145
444 1 0.169427 0.295101 0.12103
730 1 0.214974 0.287835 0.160967
777 1 0.173523 0.33332 0.164694
445 1 0.260466 0.258816 0.0861536
446 1 0.301943 0.299303 0.0851752
447 1 0.294956 0.252614 0.124707
448 1 0.26046 0.294209 0.126688
781 1 0.263265 0.328954 0.164338
450 1 0.374847 0.290085 0.0876855
451 1 0.372957 0.250465 0.12455
452 1 0.339124 0.291867 0.1303
738 1 0.378276 0.287495 0.161433
456 1 0.418505 0.289555 0.12224
457 1 0.49806 0.250426 0.0867009
501 1 0.418389 0.332312 0.0883971
742 1 0.46396 0.291294 0.161581
460 1 0.508163 0.293498 0.121665
463 1 0.635282 0.251211 0.125286
464 1 0.585221 0.297803 0.111285
468 1 0.662709 0.293503 0.121526
467 1 0.706042 0.25576 0.123777
472 1 0.749374 0.285935 0.128213
515 1 0.709355 0.330545 0.12237
470 1 0.789523 0.292619 0.0876673
471 1 0.788842 0.253027 0.126996
519 1 0.786323 0.323515 0.136046
521 1 0.827231 0.327445 0.0839371
474 1 0.875505 0.287561 0.0864984
475 1 0.875969 0.251092 0.123239
476 1 0.835462 0.291204 0.128118
525 1 0.916487 0.325375 0.0839631
762 1 0.872505 0.292314 0.162826
765 1 0.914965 0.25074 0.165862
813 1 0.914015 0.333236 0.165963
433 1 0.998634 0.252611 0.0902094
436 1 0.999112 0.290655 0.130879
478 1 0.953686 0.291457 0.0937452
480 1 0.917465 0.291096 0.128648
527 1 0.960818 0.332477 0.128281
484 1 0.00237449 0.364485 0.123048
488 1 0.0796718 0.381776 0.131032
531 1 0.0339611 0.412575 0.119022
817 1 0.00317844 0.412764 0.15808
492 1 0.166233 0.372607 0.115467
535 1 0.131189 0.415049 0.122617
773 1 0.0853027 0.336154 0.160428
774 1 0.128771 0.375224 0.161718
490 1 0.212637 0.385612 0.0847942
491 1 0.217945 0.335172 0.126514
495 1 0.301991 0.333441 0.126504
496 1 0.251585 0.374547 0.121564
829 1 0.267405 0.415497 0.156431
498 1 0.377201 0.378228 0.0876092
499 1 0.383158 0.337119 0.121843
500 1 0.343549 0.372019 0.127487
786 1 0.385263 0.378014 0.165706
833 1 0.33648 0.41514 0.164409
502 1 0.457089 0.37291 0.0850664
503 1 0.460488 0.334818 0.122394
504 1 0.421638 0.38003 0.126818
549 1 0.426857 0.414602 0.0860102
789 1 0.424726 0.337187 0.158958
790 1 0.467075 0.375468 0.159493
505 1 0.500221 0.338378 0.0839521
507 1 0.53612 0.334608 0.126273
508 1 0.500038 0.376959 0.121657
512 1 0.583172 0.375921 0.124277
794 1 0.536987 0.375056 0.165875
510 1 0.626155 0.369392 0.08455
511 1 0.626436 0.335728 0.12136
557 1 0.586784 0.409006 0.0843807
798 1 0.624798 0.375468 0.159479
513 1 0.668427 0.33599 0.0839822
514 1 0.713848 0.376202 0.0856039
516 1 0.668401 0.378205 0.117673
801 1 0.670383 0.339839 0.156784
517 1 0.757249 0.337749 0.0901796
520 1 0.754754 0.379854 0.122368
806 1 0.795559 0.377538 0.163868
522 1 0.875848 0.36951 0.0867249
523 1 0.874806 0.335062 0.12547
524 1 0.836618 0.37047 0.121503
528 1 0.914639 0.372746 0.119248
810 1 0.869767 0.375787 0.164728
857 1 0.833948 0.414867 0.16445
526 1 0.962893 0.362065 0.0842389
575 1 0.955257 0.40981 0.119404
3747 1 0.0491273 0.499939 0.125561
533 1 0.0745647 0.419602 0.0844075
536 1 0.0808753 0.458383 0.123556
818 1 0.0384714 0.449443 0.164564
3751 1 0.12603 0.492883 0.119049
821 1 0.091106 0.419252 0.165895
4037 1 0.0925423 0.497222 0.163012
539 1 0.220446 0.419318 0.124071
540 1 0.170965 0.456075 0.118705
544 1 0.245205 0.466581 0.128111
825 1 0.171763 0.424256 0.162382
3759 1 0.290681 0.492643 0.122584
543 1 0.296418 0.4182 0.116588
4049 1 0.336405 0.498912 0.160574
547 1 0.377401 0.417529 0.121431
548 1 0.336043 0.460696 0.117327
834 1 0.379177 0.460904 0.15888
3763 1 0.37927 0.495333 0.118488
551 1 0.462903 0.421764 0.121826
552 1 0.423609 0.461169 0.12012
556 1 0.496154 0.461942 0.126454
837 1 0.424596 0.422082 0.16195
555 1 0.540845 0.417988 0.118733
845 1 0.579864 0.41897 0.16223
559 1 0.623492 0.418692 0.120596
560 1 0.583638 0.461033 0.12192
846 1 0.629343 0.455521 0.163818
4061 1 0.586815 0.497023 0.162665
562 1 0.714719 0.4659 0.0879186
563 1 0.70599 0.420526 0.126295
564 1 0.669537 0.457557 0.123549
849 1 0.670352 0.416876 0.162806
850 1 0.717127 0.459184 0.163755
4069 1 0.756246 0.499381 0.159924
565 1 0.754316 0.420123 0.0854403
567 1 0.795646 0.41771 0.128189
568 1 0.751656 0.460313 0.12245
569 1 0.833245 0.42374 0.0861866
854 1 0.800849 0.462909 0.164046
4077 1 0.914439 0.499938 0.165298
571 1 0.868836 0.41929 0.124458
572 1 0.833779 0.463307 0.123179
576 1 0.914247 0.448553 0.124463
3789 1 0.916651 0.499491 0.0865867
858 1 0.878128 0.455706 0.166326
4033 1 0.994725 0.495426 0.16299
532 1 0.997334 0.455774 0.118976
862 1 0.960284 0.453747 0.155603
580 1 0.00536744 0.0383418 0.213964
584 1 0.0785529 0.0401858 0.216212
625 1 0.00257643 0.0792109 0.169315
627 1 0.0386652 0.0823197 0.210541
629 1 0.0790955 0.0769886 0.167787
582 1 0.132421 0.036371 0.172291
581 1 0.0862506 0.00799183 0.167925
631 1 0.12073 0.0767734 0.207267
870 1 0.122706 0.0323055 0.244154
917 1 0.0861931 0.0802814 0.249212
586 1 0.211965 0.0471904 0.178024
588 1 0.171688 0.0357906 0.211002
874 1 0.216537 0.0402432 0.247109
921 1 0.173288 0.0815582 0.247739
587 1 0.217608 0.00114797 0.210562
590 1 0.293143 0.0370572 0.170923
592 1 0.255283 0.0465105 0.209995
596 1 0.331026 0.0399068 0.209069
639 1 0.292004 0.0818498 0.205365
593 1 0.340613 0.00269578 0.170837
641 1 0.336012 0.0812897 0.167748
882 1 0.380757 0.044002 0.241178
600 1 0.425085 0.0411583 0.199414
604 1 0.495473 0.0349628 0.202554
886 1 0.454983 0.0440047 0.238607
602 1 0.535075 0.0322917 0.169251
651 1 0.538201 0.0766942 0.205955
890 1 0.545918 0.0385019 0.240987
937 1 0.50482 0.0730025 0.242688
608 1 0.591806 0.0360289 0.202562
612 1 0.666471 0.0474767 0.1984
655 1 0.620676 0.0832765 0.198631
894 1 0.626635 0.0366589 0.24872
941 1 0.586517 0.0785781 0.247517
945 1 0.655282 0.0796375 0.242445
616 1 0.747731 0.0430331 0.205664
898 1 0.700459 0.0421668 0.242698
949 1 0.74165 0.0745781 0.248194
615 1 0.789289 0.00535172 0.206737
614 1 0.790605 0.0431844 0.16855
620 1 0.829574 0.0351814 0.210908
663 1 0.791418 0.077581 0.214259
665 1 0.833117 0.0787183 0.170577
621 1 0.915213 0.00455844 0.173044
618 1 0.869305 0.0427438 0.176093
624 1 0.910097 0.0455139 0.215494
669 1 0.914073 0.0833029 0.175186
577 1 0.99735 0.00438015 0.169519
623 1 0.956475 0.00466015 0.211536
622 1 0.954998 0.0508841 0.173381
626 1 0.0375994 0.126564 0.171151
632 1 0.0822616 0.118611 0.203159
914 1 0.0373999 0.126131 0.243785
630 1 0.125667 0.119597 0.16869
918 1 0.122039 0.123083 0.247008
635 1 0.210866 0.0876341 0.211595
636 1 0.171639 0.119749 0.20714
683 1 0.216019 0.162188 0.212542
685 1 0.248334 0.161914 0.169085
638 1 0.295574 0.129125 0.170786
640 1 0.255651 0.124247 0.206381
925 1 0.260151 0.0882588 0.246261
926 1 0.295648 0.126392 0.246014
643 1 0.381028 0.0902244 0.202897
644 1 0.338416 0.128825 0.205255
646 1 0.4625 0.128501 0.169177
647 1 0.459795 0.087705 0.207042
648 1 0.423717 0.123532 0.209098
649 1 0.499234 0.0837649 0.173511
652 1 0.498492 0.124809 0.20675
656 1 0.573423 0.12077 0.196764
699 1 0.541751 0.16276 0.203066
938 1 0.539262 0.116053 0.242817
985 1 0.51274 0.164122 0.248753
654 1 0.621693 0.128618 0.169122
660 1 0.663957 0.128788 0.202248
942 1 0.625042 0.124958 0.248018
659 1 0.706566 0.0871718 0.20899
661 1 0.747508 0.0904063 0.168578
664 1 0.748087 0.125146 0.212546
993 1 0.668091 0.165078 0.248153
662 1 0.799508 0.118118 0.169097
668 1 0.828993 0.128508 0.21539
709 1 0.755815 0.163764 0.168333
666 1 0.864762 0.122361 0.175894
667 1 0.869757 0.0844934 0.214001
672 1 0.910189 0.122574 0.219288
717 1 0.915938 0.155674 0.174354
628 1 0.994371 0.119206 0.21218
670 1 0.955344 0.118708 0.169753
671 1 0.950056 0.0852255 0.217369
673 1 0.996534 0.160962 0.168771
719 1 0.958708 0.161414 0.212907
674 1 0.037664 0.200499 0.17067
675 1 0.0370526 0.167517 0.210205
677 1 0.0806855 0.16683 0.174236
680 1 0.0823322 0.209357 0.214288
721 1 0.000220166 0.242337 0.172743
962 1 0.0407522 0.215962 0.244967
678 1 0.126367 0.209761 0.170756
679 1 0.125337 0.168342 0.212466
725 1 0.0866616 0.245604 0.167794
727 1 0.127256 0.247913 0.209379
965 1 0.0851393 0.169939 0.249658
1017 1 0.16663 0.248014 0.249579
682 1 0.209505 0.211557 0.171704
684 1 0.170456 0.212359 0.210116
687 1 0.299584 0.169085 0.203482
688 1 0.256348 0.206798 0.206385
977 1 0.333052 0.167555 0.242833
1025 1 0.333249 0.243108 0.246236
691 1 0.382535 0.167509 0.209588
692 1 0.339144 0.206247 0.203896
978 1 0.378021 0.203407 0.248879
693 1 0.418548 0.166843 0.169889
694 1 0.463963 0.209367 0.169556
695 1 0.455971 0.170863 0.215087
696 1 0.41768 0.210533 0.209884
743 1 0.461112 0.245281 0.20836
1029 1 0.421452 0.247017 0.247704
700 1 0.503613 0.201129 0.208204
704 1 0.5816 0.217133 0.20995
989 1 0.575885 0.174136 0.249976
703 1 0.614475 0.169309 0.205056
708 1 0.664815 0.204688 0.206591
751 1 0.62498 0.248243 0.209909
990 1 0.621437 0.211397 0.249263
707 1 0.710365 0.168658 0.204189
712 1 0.748956 0.207624 0.209345
755 1 0.714379 0.248724 0.204037
994 1 0.699807 0.205144 0.249217
1045 1 0.749664 0.248832 0.247421
710 1 0.796417 0.211918 0.168788
711 1 0.792157 0.169086 0.21215
713 1 0.833296 0.16914 0.172462
716 1 0.82969 0.21034 0.213459
759 1 0.79307 0.246241 0.210076
714 1 0.875471 0.210779 0.169455
715 1 0.87188 0.167648 0.20792
720 1 0.91008 0.207475 0.212052
1002 1 0.871168 0.209343 0.249432
676 1 0.994602 0.20934 0.213612
718 1 0.951186 0.204027 0.169191
767 1 0.955032 0.245179 0.214206
722 1 0.039262 0.284653 0.168663
723 1 0.0472842 0.253448 0.209384
771 1 0.0545184 0.332158 0.206551
1010 1 0.037342 0.303417 0.244269
728 1 0.0851548 0.286266 0.21173
775 1 0.132761 0.331244 0.203971
1013 1 0.0918274 0.251822 0.248181
1014 1 0.13437 0.294705 0.242333
729 1 0.169639 0.251075 0.168506
731 1 0.214152 0.251782 0.206313
732 1 0.170606 0.289576 0.205579
779 1 0.212919 0.324985 0.200968
1018 1 0.210344 0.287622 0.249029
734 1 0.305012 0.293708 0.169505
735 1 0.291781 0.250313 0.201469
736 1 0.260225 0.295836 0.204395
737 1 0.331943 0.251058 0.168603
783 1 0.299976 0.332515 0.21109
1021 1 0.257256 0.252253 0.246754
1022 1 0.296441 0.281455 0.242403
739 1 0.377442 0.250508 0.206658
740 1 0.341248 0.287651 0.212366
741 1 0.417052 0.255374 0.167744
744 1 0.420378 0.290418 0.204816
748 1 0.493494 0.290302 0.212462
791 1 0.458151 0.331145 0.205704
1077 1 0.418147 0.331178 0.247489
746 1 0.539349 0.287896 0.175429
747 1 0.538736 0.255804 0.2162
752 1 0.578594 0.297064 0.208531
797 1 0.573009 0.332621 0.172124
1037 1 0.578446 0.251444 0.249738
749 1 0.585274 0.257825 0.168327
750 1 0.624207 0.299747 0.16728
756 1 0.659712 0.305625 0.20782
1038 1 0.616873 0.299686 0.247405
1041 1 0.663747 0.251876 0.245784
754 1 0.701945 0.291822 0.174595
805 1 0.746109 0.322377 0.166814
1042 1 0.700739 0.296827 0.239784
757 1 0.750217 0.250633 0.167574
758 1 0.789644 0.284916 0.177201
760 1 0.75044 0.288464 0.210956
807 1 0.795615 0.328133 0.209331
1046 1 0.792986 0.288627 0.245864
1093 1 0.751658 0.328442 0.246048
763 1 0.872528 0.253691 0.21003
764 1 0.840106 0.293549 0.210625
768 1 0.914144 0.293914 0.201661
1053 1 0.913572 0.259448 0.245667
724 1 0.995999 0.282402 0.206167
766 1 0.956324 0.289121 0.168559
769 1 0.997181 0.324322 0.171296
815 1 0.95951 0.332327 0.210684
770 1 0.0410816 0.372101 0.169475
819 1 0.043778 0.410839 0.20203
1058 1 0.0374856 0.36905 0.247891
776 1 0.0929049 0.37243 0.201551
823 1 0.12926 0.415561 0.203896
1061 1 0.0896772 0.335198 0.248524
1062 1 0.129241 0.376203 0.247673
1109 1 0.0861878 0.414981 0.243989
778 1 0.218733 0.375622 0.168572
780 1 0.170042 0.377434 0.199427
827 1 0.212088 0.413919 0.204261
1065 1 0.173815 0.339772 0.239095
1066 1 0.202162 0.383859 0.24428
1069 1 0.239636 0.33519 0.245728
782 1 0.301977 0.371794 0.167457
784 1 0.258901 0.369519 0.207256
831 1 0.293102 0.415099 0.210349
1117 1 0.25334 0.415967 0.246718
785 1 0.343437 0.335982 0.168117
787 1 0.387865 0.333866 0.210492
788 1 0.338096 0.372411 0.207193
1074 1 0.380222 0.37387 0.247473
1121 1 0.341109 0.414648 0.244035
792 1 0.4227 0.375804 0.202871
796 1 0.498153 0.375616 0.207983
793 1 0.504811 0.335197 0.168533
795 1 0.53885 0.336306 0.22322
800 1 0.572237 0.371142 0.207812
1082 1 0.533758 0.385565 0.248742
1133 1 0.577728 0.412818 0.244465
799 1 0.621826 0.345288 0.212615
847 1 0.624227 0.413587 0.202244
1089 1 0.664905 0.337932 0.246489
802 1 0.710361 0.368658 0.172326
803 1 0.715571 0.333476 0.209869
804 1 0.667243 0.367967 0.203504
853 1 0.746584 0.408661 0.175616
1090 1 0.709816 0.378145 0.249052
808 1 0.760741 0.366154 0.204385
855 1 0.790803 0.41226 0.204998
1094 1 0.792669 0.375982 0.24473
809 1 0.834835 0.334665 0.171526
811 1 0.876585 0.338127 0.208981
812 1 0.83501 0.378655 0.209914
859 1 0.877034 0.413646 0.209315
861 1 0.912939 0.409675 0.168117
772 1 0.99841 0.371818 0.207515
814 1 0.954495 0.370956 0.167946
816 1 0.920771 0.37215 0.211057
820 1 0.00338275 0.45748 0.210956
1105 1 0.00387978 0.416715 0.249266
1106 1 0.0484924 0.466961 0.248446
4035 1 0.0432256 0.492821 0.200462
4039 1 0.126181 0.495737 0.205933
822 1 0.128995 0.456868 0.166677
824 1 0.0885148 0.462508 0.207825
1110 1 0.122026 0.458277 0.247892
826 1 0.212129 0.46627 0.169852
828 1 0.173433 0.456448 0.209407
4047 1 0.295447 0.492353 0.2113
830 1 0.299246 0.455349 0.169708
832 1 0.254435 0.453183 0.204732
4333 1 0.257138 0.491566 0.246735
835 1 0.380109 0.417909 0.199613
836 1 0.341716 0.458274 0.203444
1125 1 0.414312 0.425331 0.248628
838 1 0.459618 0.463456 0.167079
839 1 0.453872 0.416823 0.213399
840 1 0.42049 0.459299 0.202436
841 1 0.491034 0.421107 0.176222
844 1 0.492047 0.457124 0.215339
842 1 0.532387 0.460753 0.16747
843 1 0.533381 0.41687 0.204827
848 1 0.578451 0.457484 0.208635
4063 1 0.62481 0.493663 0.199287
4353 1 0.663438 0.496833 0.243255
1134 1 0.620253 0.459149 0.244951
851 1 0.709219 0.42054 0.210381
852 1 0.672794 0.456461 0.203243
1137 1 0.666858 0.420853 0.247597
1138 1 0.714928 0.461715 0.24041
4071 1 0.798298 0.497358 0.207571
856 1 0.753373 0.464796 0.203139
1141 1 0.752165 0.417139 0.249948
1142 1 0.784203 0.461601 0.247398
4073 1 0.841982 0.496464 0.168615
860 1 0.837517 0.451751 0.208356
1146 1 0.877018 0.4571 0.247721
863 1 0.963136 0.421761 0.204882
864 1 0.91989 0.462809 0.205084
1149 1 0.923587 0.421985 0.248433
4365 1 0.921819 0.495181 0.248683
866 1 0.0393838 0.0448452 0.253693
872 1 0.0783028 0.0271004 0.283941
1154 1 0.0368568 0.0417271 0.328912
1157 1 0.0816697 0.00374677 0.331281
919 1 0.125109 0.0748451 0.279319
1158 1 0.123913 0.0399499 0.327525
1205 1 0.0833551 0.0798955 0.327661
1209 1 0.165728 0.0757007 0.318438
871 1 0.122658 0.00159427 0.289833
876 1 0.17519 0.0368931 0.288089
877 1 0.256633 0.00190865 0.25684
878 1 0.297018 0.0400865 0.251487
880 1 0.252174 0.0383154 0.294648
1213 1 0.250958 0.0824754 0.328657
884 1 0.334236 0.0396005 0.291056
888 1 0.413689 0.0381885 0.289454
929 1 0.336461 0.0797407 0.251553
931 1 0.38192 0.0826968 0.288326
1170 1 0.37303 0.0417275 0.328799
883 1 0.377943 0.00523099 0.285925
887 1 0.460531 0.00792706 0.281061
1174 1 0.457379 0.0332295 0.332868
1221 1 0.419548 0.0794599 0.332777
889 1 0.507266 0.00443771 0.252693
892 1 0.502481 0.0406458 0.29846
939 1 0.542779 0.0763727 0.283206
1178 1 0.549517 0.0380077 0.32822
1181 1 0.585075 0.00254642 0.331512
896 1 0.58573 0.04019 0.285641
900 1 0.665954 0.0352857 0.291458
943 1 0.628525 0.0817194 0.294975
1182 1 0.628703 0.0379529 0.332203