ITEM: TIMESTEP
36000
ITEM: NUMBER OF ATOMS
864
ITEM: BOX BOUNDS pp pp pp
0.0000000000000000e+00 3.1559999999999999e+01
0.0000000000000000e+00 3.1559999999999999e+01
0.0000000000000000e+00 3.1559999999999999e+01
ITEM: ATOMS id type xs ys zs
27 1 0.0920204 0.157038 0.0734217
8 1 0.165744 0.0845881 0.094021
101 1 0.174548 0.170639 0.156366
282 1 0.73127 0.413816 0.500358
4 1 -0.00573349 0.0877238 0.0833661
97 1 1.00069 0.172076 0.162812
5 1 0.169867 -0.0025218 0.00603677
49 1 -0.0121802 0.343432 -0.00243088
12 1 0.337804 0.0908601 0.083476
78 1 0.25646 0.0824139 0.168641
26 1 0.0891075 0.254185 -0.000823549
16 1 0.501918 0.0751322 0.0636046
29 1 0.172998 0.167553 0.00998067
79 1 0.260329 0.0105875 0.25549
193 1 1.00031 0.329106 0.345419
579 1 0.079659 0.498507 0.415689
257 1 0.657334 0.177916 0.502298
20 1 0.650714 0.0745354 0.0798441
439 1 0.256832 0.493873 0.0885674
274 1 0.426004 0.412249 0.503226
43 1 0.740255 0.154613 0.0735317
90 1 0.734382 0.0764383 0.172104
216 1 0.822546 0.411146 0.409094
581 1 0.155446 0.497722 0.341577
24 1 0.825448 0.0839108 0.0849438
47 1 0.917838 0.164374 0.0754065
117 1 0.828029 0.168577 0.174563
7 1 0.251278 0.00719273 0.0900334
443 1 0.414096 0.495553 0.0848538
98 1 0.0845143 0.237732 0.150844
32 1 0.174113 0.252958 0.0850202
28 1 0.986988 0.259124 0.0971204
669 1 0.822371 0.488265 0.486632
31 1 0.262231 0.169653 0.0703545
55 1 0.262173 0.333813 0.0715949
105 1 0.336356 0.165454 0.166015
102 1 0.261895 0.242141 0.158746
35 1 0.421337 0.167512 0.0796211
167 1 0.918853 0.00309164 0.421542
36 1 0.343215 0.241659 0.0693476
59 1 0.411429 0.33433 0.0808482
40 1 0.4953 0.264108 0.0748983
234 1 0.730866 0.0962705 0.507813
39 1 0.567135 0.161997 0.0845988
113 1 0.651869 0.17349 0.150606
63 1 0.580644 0.341019 0.0746284
597 1 0.835023 0.499592 0.323272
44 1 0.671175 0.254022 0.0775681
67 1 0.750335 0.331386 0.0850868
114 1 0.747311 0.235025 0.15624
48 1 0.839953 0.247507 0.0812756
23 1 0.91478 0.00690426 0.0787072
118 1 0.912477 0.244699 0.171802
141 1 0.852224 0.336122 0.172134
71 1 0.91698 0.334661 0.0814428
51 1 0.0771516 0.337703 0.0916362
70 1 0.897289 0.413131 0.017209
56 1 0.175555 0.411095 0.0770746
95 1 0.935969 0.0148255 0.250264
215 1 0.908104 0.331023 0.40519
145 1 1.01547 0.0319071 0.332719
60 1 0.332767 0.42134 0.0881351
126 1 0.246492 0.407231 0.150281
286 1 0.911338 0.421159 0.487836
130 1 0.411935 0.415306 0.172868
513 1 0.326006 0.490999 0.177827
212 1 0.649757 0.435699 0.410635
213 1 0.83428 0.331196 0.327965
64 1 0.50374 0.418339 0.0791741
147 1 0.0902131 0.00238246 0.417486
68 1 0.661263 0.41277 0.0881026
138 1 0.741183 0.410449 0.159775
163 1 0.73941 0.000770531 0.421169
242 1 0.0905144 0.246246 0.49013
206 1 0.586662 0.4198 0.326736
52 1 1.00052 0.417926 0.0790162
192 1 0.81798 0.240131 0.413528
72 1 0.820499 0.433674 0.0957942
142 1 0.91104 0.430433 0.18427
208 1 0.498763 0.404405 0.41972
74 1 0.0881869 0.0886117 0.169694
77 1 0.175033 0.000560957 0.169826
76 1 0.00997542 0.0921692 0.245902
73 1 0.00411596 0.00532616 0.167192
80 1 0.180638 0.0898353 0.245897
84 1 0.338681 0.0866028 0.248536
207 1 0.584096 0.334398 0.401606
50 1 0.083513 0.422124 0.0100424
82 1 0.429704 0.0642533 0.162633
88 1 0.504196 0.07832 0.242261
154 1 0.425675 0.0789431 0.346883
265 1 0.984243 0.337254 0.476528
109 1 0.482636 0.166681 0.163642
86 1 0.578096 0.0835877 0.156019
92 1 0.654965 0.0711394 0.254741
25 1 1.00386 0.160995 0.00754392
96 1 0.837962 0.0771057 0.248932
203 1 0.398205 0.336527 0.413983
94 1 0.915786 0.0781663 0.162353
119 1 0.91789 0.170835 0.252132
166 1 0.915378 0.0940577 0.321409
99 1 0.0987688 0.172409 0.252337
104 1 0.172443 0.25243 0.247431
123 1 0.090268 0.311538 0.251176
125 1 0.168004 0.332195 0.16211
173 1 0.181827 0.164204 0.338748
103 1 0.262361 0.17126 0.250419
127 1 0.25651 0.339815 0.2405
177 1 0.357483 0.149839 0.337178
106 1 0.409135 0.250894 0.156861
133 1 0.488504 0.338455 0.167632
107 1 0.419412 0.156934 0.247252
108 1 0.341088 0.253015 0.24608
112 1 0.490913 0.246549 0.24459
178 1 0.41941 0.245393 0.337221
181 1 0.505696 0.152811 0.323062
185 1 0.68243 0.166053 0.329554
111 1 0.592855 0.165403 0.243551
110 1 0.559699 0.246092 0.172635
209 1 0.671056 0.337587 0.317933
115 1 0.750425 0.17056 0.255192
116 1 0.658764 0.252544 0.233513
186 1 0.745677 0.249842 0.33815
139 1 0.741335 0.315831 0.219039
137 1 0.653368 0.326337 0.151653
100 1 -0.000564778 0.247192 0.260124
120 1 0.828021 0.255774 0.244847
190 1 0.915629 0.24614 0.335224
189 1 0.827815 0.169226 0.319327
122 1 0.092534 0.419829 0.161008
128 1 0.165748 0.406863 0.241018
194 1 0.0900819 0.415339 0.353304
197 1 0.147607 0.327178 0.334239
132 1 0.346807 0.41187 0.249381
199 1 0.243791 0.323516 0.401656
198 1 0.236213 0.414611 0.337252
129 1 0.333191 0.331827 0.156189
187 1 0.739345 0.165834 0.421261
180 1 0.328683 0.241266 0.412836
201 1 0.323201 0.350415 0.332884
131 1 0.413909 0.328574 0.267669
204 1 0.331594 0.422362 0.426557
202 1 0.418499 0.443533 0.336574
281 1 0.646391 0.329784 0.487316
188 1 0.660357 0.254038 0.411479
134 1 0.564945 0.404073 0.163114
135 1 0.579 0.324801 0.240022
136 1 0.498305 0.427217 0.248059
210 1 0.746247 0.426098 0.339226
140 1 0.65237 0.410215 0.231471
83 1 0.420013 0.0155103 0.262395
179 1 0.411387 0.166232 0.427849
214 1 0.9123 0.40334 0.333398
121 1 0.0030859 0.32601 0.181063
143 1 0.914123 0.332057 0.257132
144 1 0.798932 0.405685 0.250215
124 1 0.0158999 0.397508 0.258077
205 1 0.493988 0.324324 0.338412
146 1 0.107005 0.0853833 0.323262
148 1 0.995849 0.0910362 0.427829
211 1 0.743796 0.337554 0.401097
152 1 0.179558 0.0844185 0.420063
150 1 0.262769 0.0722752 0.335958
505 1 1.00979 0.489348 0.194341
176 1 0.168749 0.244466 0.415555
184 1 0.518879 0.241196 0.40585
156 1 0.323392 0.0857086 0.433384
160 1 0.500544 0.0772398 0.421076
195 1 0.0807588 0.336387 0.424625
165 1 0.845684 0.00330554 0.327656
175 1 0.248162 0.170858 0.429347
200 1 0.18013 0.406245 0.431951
158 1 0.589081 0.0818312 0.328723
183 1 0.587834 0.154607 0.408628
174 1 0.254504 0.251618 0.316281
182 1 0.58435 0.237683 0.325225
162 1 0.74766 0.0678957 0.323199
164 1 0.6713 0.0830809 0.419837
196 1 0.99236 0.41973 0.407543
168 1 0.821562 0.0836182 0.392844
191 1 0.899355 0.159201 0.405867
172 1 0.98297 0.246485 0.415916
169 1 0.0104165 0.154972 0.346864
170 1 0.0871631 0.235875 0.338025
171 1 0.0982417 0.162184 0.428204
517 1 0.491681 0.500446 0.165412
151 1 0.252508 0.00112942 0.412225
153 1 0.340623 0.000119371 0.327373
258 1 0.734545 0.249353 0.489064
11 1 0.413095 -0.00339713 0.0675923
269 1 0.18207 0.325017 0.497583
509 1 0.165661 0.50076 0.15128
81 1 0.342495 0.00679503 0.169642
21 1 0.830294 0.00527331 0.00718282
54 1 0.262595 0.423134 -0.000465537
61 1 0.502587 0.333613 -0.0066294
266 1 0.0861304 0.420401 0.494104
69 1 0.818818 0.341698 0.00550722
38 1 0.588284 0.243652 0.0149682
507 1 0.0892959 0.494083 0.261869
2 1 0.0800804 0.0763883 0.00974755
22 1 0.918458 0.0901241 -0.00470654
511 1 0.245198 0.48291 0.254524
447 1 0.580565 0.503089 0.083107
91 1 0.769869 0.00858373 0.241976
89 1 0.671967 -0.0107576 0.173387
523 1 0.736781 0.500168 0.238935
19 1 0.739304 0.0206532 0.0876386
238 1 0.914714 0.0838653 0.502675
285 1 0.811162 0.325568 0.48559
261 1 0.828453 0.160761 0.49475
230 1 0.595225 0.0843834 0.491317
262 1 0.901509 0.247208 0.480115
58 1 0.423294 0.414019 0.00214996
237 1 0.822314 0.0190109 0.49882
42 1 0.750487 0.251597 0.00697287
66 1 0.736642 0.430449 0.0116885
273 1 0.325621 0.335204 0.494152
253 1 0.499998 0.159413 0.498003
6 1 0.249914 0.0918476 -0.00043288
649 1 1.01179 0.496055 0.488848
224 1 0.164764 0.0876496 0.588539
220 1 0.00446567 0.098028 0.571355
290 1 0.0718717 0.0967141 0.67129
294 1 0.235759 0.0864214 0.662008
247 1 0.241485 0.166083 0.583459
317 1 0.150713 0.164264 0.6579
228 1 0.321505 0.0818539 0.596315
325 1 0.493051 0.161394 0.665198
18 1 0.747377 0.0714275 0.986968
232 1 0.506354 0.0786585 0.584482
302 1 0.588262 0.0785003 0.66869
255 1 0.585542 0.163153 0.592971
329 1 0.682416 0.168155 0.669848
743 1 0.930503 0.508188 0.746144
733 1 0.494579 0.492694 0.658488
236 1 0.670179 0.081387 0.599313
306 1 0.755855 0.0732547 0.672619
226 1 0.413776 0.0778849 0.502177
259 1 0.760963 0.163218 0.574661
729 1 0.328545 0.501587 0.665571
240 1 0.829657 0.0793985 0.587961
801 1 0.330706 0.484675 0.823573
57 1 0.336723 0.338199 1.00768
243 1 0.0771722 0.172311 0.568385
248 1 0.159342 0.248639 0.581319
267 1 0.0774385 0.31348 0.567326
244 1 0.990145 0.235747 0.582661
313 1 0.984757 0.172899 0.666145
252 1 0.336896 0.259465 0.58448
34 1 0.430735 0.24864 0.991973
803 1 0.413007 0.494623 0.916519
651 1 0.0777681 0.49852 0.5758
251 1 0.408713 0.156658 0.589684
322 1 0.412912 0.25497 0.666435
275 1 0.417424 0.331981 0.588458
795 1 0.0882447 0.487792 0.932665
33 1 0.337938 0.151831 0.990128
256 1 0.498364 0.247524 0.580792
326 1 0.592306 0.254874 0.670289
279 1 0.586882 0.332158 0.586034
239 1 0.927068 0.00993302 0.60209
260 1 0.664112 0.239527 0.582051
283 1 0.723703 0.334776 0.570329
330 1 0.757755 0.253558 0.674214
721 1 0.994755 0.493 0.662453
264 1 0.817037 0.252433 0.566708
263 1 0.91318 0.153226 0.576532
334 1 0.895579 0.27896 0.665424
45 1 0.841172 0.183598 0.993445
731 1 0.402938 0.495161 0.746865
268 1 -0.00663509 0.416032 0.567983
272 1 0.147973 0.397642 0.587818
62 1 0.585175 0.427083 0.99974
671 1 0.907691 0.502576 0.591433
295 1 0.243254 -0.00108283 0.748131
271 1 0.233167 0.332984 0.593689
276 1 0.321143 0.406037 0.586788
429 1 0.8275 0.353523 0.828099
375 1 0.579814 0.00216922 0.909315
280 1 0.508404 0.417168 0.592457
741 1 0.82532 0.490338 0.663477
739 1 0.752871 0.500785 0.74695
349 1 0.508426 0.327687 0.673147
727 1 0.250704 0.497355 0.741377
379 1 0.744001 0.00642735 0.899255
245 1 0.16741 0.168108 0.50799
431 1 0.905848 0.346866 0.923826
813 1 0.828051 0.493674 0.836935
284 1 0.646564 0.426006 0.575732
424 1 0.502559 0.429999 0.910362
288 1 0.822816 0.412917 0.565891
287 1 0.915951 0.327079 0.561376
358 1 0.916642 0.411162 0.665248
357 1 0.825073 0.353155 0.654771
404 1 0.663262 0.251622 0.930951
315 1 0.0808957 0.172023 0.761294
296 1 0.156143 0.0958634 0.753767
292 1 1.00005 0.0932505 0.759152
321 1 0.324899 0.174111 0.665982
300 1 0.31501 0.0924253 0.737117
319 1 0.253445 0.185121 0.75697
432 1 0.826858 0.425371 0.929854
389 1 0.166212 0.168363 0.839639
298 1 0.414297 0.0662442 0.654977
304 1 0.48333 0.0803369 0.745142
327 1 0.583877 0.168151 0.735167
397 1 0.497736 0.165178 0.819705
374 1 0.577314 0.0744357 0.819719
401 1 0.676084 0.168242 0.830479
308 1 0.660211 0.0972937 0.750842
378 1 0.750249 0.104349 0.827091
37 1 0.497904 0.149252 0.991445
430 1 0.914228 0.422568 0.842376
312 1 0.842083 0.0905878 0.754301
310 1 0.921832 0.0871542 0.678865
314 1 0.0881531 0.255436 0.676334
320 1 0.157981 0.251733 0.767304
316 1 0.992417 0.2531 0.751752
339 1 0.0709317 0.343073 0.75686
385 1 0.996117 0.165565 0.844722
318 1 0.246139 0.251327 0.65884
343 1 0.248581 0.326548 0.742312
393 1 0.325721 0.168077 0.839099
324 1 0.330222 0.257732 0.740728
323 1 0.408747 0.186486 0.750213
328 1 0.503395 0.236042 0.743953
394 1 0.417826 0.246749 0.83883
332 1 0.669363 0.248175 0.757255
351 1 0.57556 0.319926 0.75582
353 1 0.671556 0.335286 0.662177
398 1 0.59144 0.245696 0.8399
331 1 0.753981 0.161761 0.742566
355 1 0.746054 0.330017 0.754028
402 1 0.748522 0.257192 0.845482
333 1 0.830268 0.173288 0.665966
405 1 0.841063 0.160335 0.836763
335 1 0.911922 0.186511 0.755994
336 1 0.834954 0.272828 0.766576
338 1 0.0718908 0.405458 0.665987
341 1 0.164584 0.337626 0.677659
344 1 0.161662 0.424555 0.736134
413 1 0.169706 0.348118 0.823351
426 1 0.744154 0.421301 0.828242
345 1 0.32629 0.338131 0.665356
428 1 0.669904 0.418289 0.902158
342 1 0.241678 0.41587 0.658136
346 1 0.413633 0.415916 0.642702
347 1 0.415219 0.345765 0.749967
348 1 0.330875 0.412363 0.742986
418 1 0.431713 0.417368 0.840183
352 1 0.488789 0.420662 0.734055
350 1 0.583435 0.410312 0.675458
356 1 0.655928 0.411849 0.754308
425 1 0.658868 0.326418 0.82625
354 1 0.748178 0.416627 0.681987
655 1 0.246294 0.496105 0.586554
337 1 0.993998 0.319128 0.649069
360 1 0.840534 0.418082 0.746559
340 1 0.0016456 0.422946 0.762164
359 1 0.927402 0.33993 0.759413
293 1 0.160967 0.00261189 0.661984
362 1 0.0762969 0.0812627 0.826701
387 1 0.107532 0.164125 0.924009
422 1 0.579612 0.429555 0.835078
420 1 0.34736 0.413193 0.913181
368 1 0.175302 0.0733765 0.922512
366 1 0.247189 0.0889966 0.823849
372 1 0.331608 0.0719002 0.917906
391 1 0.239597 0.17447 0.918583
811 1 0.755732 0.506592 0.916874
410 1 0.0883779 0.426637 0.833227
370 1 0.400009 0.0679424 0.816336
376 1 0.502181 0.0705615 0.894975
395 1 0.427716 0.15317 0.904739
10 1 0.409439 0.0759182 1.00057
380 1 0.666716 0.0866153 0.916668
411 1 0.0805088 0.342159 0.913655
416 1 0.171306 0.42119 0.904973
653 1 0.161755 0.504328 0.505424
384 1 0.837454 0.0758905 0.918683
415 1 0.2468 0.34918 0.914469
414 1 0.259583 0.404989 0.827611
407 1 0.9189 0.162022 0.92802
382 1 0.930512 0.0740567 0.849987
364 1 0.0191732 0.0789986 0.922318
406 1 0.92392 0.251565 0.842852
409 1 0.991827 0.353193 0.838248
388 1 0.0032385 0.241397 0.932056
386 1 0.0585213 0.260284 0.84048
390 1 0.254746 0.260535 0.831248
392 1 0.164225 0.265247 0.905875
417 1 0.340495 0.337151 0.832991
289 1 0.00520087 0.00889093 0.683906
419 1 0.420521 0.325951 0.916466
396 1 0.327559 0.265308 0.914871
400 1 0.508981 0.24551 0.914493
412 1 0.994205 0.416909 0.931282
423 1 0.569857 0.350783 0.895938
399 1 0.577999 0.162737 0.919025
421 1 0.493168 0.335937 0.821462
46 1 0.912075 0.258798 1.00564
427 1 0.743845 0.330777 0.924412
403 1 0.753757 0.172779 0.925429
408 1 0.827042 0.260455 0.916546
799 1 0.260967 0.496635 0.905734
41 1 0.667286 0.166773 0.993388
301 1 0.50176 -0.00123388 0.670349
363 1 0.0922473 -0.00539466 0.930972
219 1 0.0721265 -0.00741779 0.585194
246 1 0.257809 0.249225 0.496913
270 1 0.249244 0.41854 0.511975
311 1 0.917345 0.0120911 0.765073
723 1 0.0805309 0.498304 0.749652
725 1 0.147498 0.493604 0.663456
815 1 0.911472 0.498815 0.9145
291 1 0.0955225 6.43149e-05 0.744649
305 1 0.668568 -0.00193008 0.675501
221 1 0.161824 0.00651878 0.499047
254 1 0.584055 0.25173 0.511322
661 1 0.499048 0.482698 0.50203
225 1 0.330511 -0.0051523 0.510432
250 1 0.413785 0.240993 0.507619
241 1 0.995294 0.171629 0.488704
222 1 0.244937 0.0815799 0.514022
249 1 0.327881 0.151354 0.513598
30 1 0.248857 0.258874 0.995581
277 1 0.500317 0.31366 0.498169
65 1 0.651846 0.347822 0.984046
53 1 0.166699 0.33726 1.0005
278 1 0.570149 0.405924 0.495524
14 1 0.585079 0.0764438 0.983722
218 1 0.0837899 0.083434 0.505325
441 1 0.345217 0.494348 1.00113
440 1 0.155092 0.598143 0.0818422
583 1 0.258963 0.498824 0.426073
463 1 0.252029 0.660469 0.0754183
444 1 0.334449 0.578265 0.067502
510 1 0.259028 0.5848 0.158888
435 1 0.0666169 0.5105 0.0822103
713 1 0.671065 0.831303 0.503837
593 1 0.660662 0.506301 0.321519
467 1 0.422187 0.660934 0.0781306
15 1 0.580772 0.988954 0.0623644
448 1 0.504053 0.587022 0.0837209
452 1 0.66258 0.580235 0.0886547
471 1 0.580344 0.659785 0.095112
451 1 0.737843 0.508494 0.0953932
522 1 0.748686 0.586342 0.171693
456 1 0.847609 0.58533 0.0871475
475 1 0.754752 0.65401 0.0815347
449 1 0.660827 0.505584 -0.000763994
589 1 0.49922 0.506109 0.331876
489 1 0.331595 0.822788 0.00271797
436 1 0.983604 0.591916 0.072841
521 1 0.664416 0.499558 0.165042
459 1 0.0779239 0.676494 0.0774521
464 1 0.16868 0.755916 0.0806497
3 1 0.0840565 0.986993 0.0859206
534 1 0.24532 0.742466 0.160939
587 1 0.423751 0.505954 0.428962
468 1 0.339815 0.73745 0.0797342
491 1 0.408177 0.828022 0.0831847
485 1 0.160709 0.828943 0.000450686
472 1 0.514036 0.742124 0.0728947
476 1 0.664333 0.758625 0.0832071
462 1 0.243637 0.75971 0.00118804
565 1 0.502388 0.830346 0.163422
714 1 0.751469 0.919939 0.498519
546 1 0.743915 0.757913 0.161271
480 1 0.838228 0.75158 0.0789256
479 1 0.923044 0.680448 0.0991232
460 1 0.00189688 0.756842 0.0705322
75 1 0.0935092 0.992034 0.247117
503 1 0.91925 0.824388 0.0828689
549 1 0.835672 0.674563 0.153268
229 1 0.507857 0.984116 0.49315
557 1 0.168076 0.829723 0.168021
483 1 0.0855474 0.834407 0.087344
488 1 0.170421 0.914852 0.0770027
554 1 0.098704 0.912526 0.163593
577 1 0.00663161 0.506112 0.343193
487 1 0.247634 0.833308 0.0868988
159 1 0.584529 0.989018 0.419602
599 1 0.915303 0.501359 0.402671
698 1 0.0762946 0.918137 0.497636
492 1 0.327176 0.92917 0.0835884
562 1 0.436742 0.917732 0.155851
455 1 0.920722 0.503668 0.0945152
161 1 0.671312 0.991358 0.333355
718 1 0.913653 0.920397 0.50749
149 1 0.170798 0.998913 0.31737
496 1 0.507877 0.902008 0.0788863
495 1 0.595149 0.835121 0.0708721
500 1 0.657863 0.925606 0.0810028
499 1 0.746503 0.848747 0.0897936
504 1 0.827869 0.919085 0.0745147
553 1 1.00696 0.843134 0.169546
484 1 -1.2877e-05 0.915199 0.0742546
574 1 0.933275 0.924811 0.162098
501 1 0.839113 0.827787 0.00759841
474 1 0.739477 0.752809 -0.00121636
506 1 0.0802441 0.590756 0.15762
670 1 0.926493 0.573076 0.504042
578 1 0.0828093 0.584593 0.346889
537 1 0.329646 0.664093 0.166302
710 1 0.60245 0.912713 0.494662
512 1 0.156183 0.577949 0.257806
582 1 0.244292 0.596612 0.345448
605 1 0.163914 0.676329 0.341514
433 1 0.983855 0.49553 0.00812672
514 1 0.415557 0.589123 0.164717
516 1 0.327262 0.575128 0.24679
539 1 0.413808 0.665362 0.248922
586 1 0.412336 0.569726 0.33308
613 1 0.497041 0.669859 0.336009
518 1 0.579588 0.571294 0.161638
520 1 0.505407 0.590902 0.254868
524 1 0.659496 0.600481 0.249648
527 1 0.93314 0.497143 0.268092
547 1 0.752989 0.686258 0.237646
594 1 0.743173 0.587926 0.336776
545 1 0.655653 0.679641 0.165365
526 1 0.9196 0.611985 0.183754
508 1 -0.000620334 0.578037 0.245522
647 1 0.915302 0.836523 0.408796
490 1 0.418435 0.918682 -0.00334234
528 1 0.837092 0.584396 0.263992
530 1 0.0851124 0.760414 0.165853
531 1 0.0791424 0.662837 0.257516
529 1 0.0129162 0.675568 0.169182
602 1 0.0855793 0.755179 0.344233
533 1 0.160661 0.669693 0.171474
536 1 0.152294 0.743642 0.261008
535 1 0.245411 0.658136 0.25326
540 1 0.318108 0.747262 0.252911
538 1 0.413902 0.728697 0.166624
561 1 0.331704 0.817974 0.160197
609 1 0.325307 0.668978 0.331886
544 1 0.502834 0.735947 0.244889
563 1 0.420435 0.828069 0.246864
542 1 0.583877 0.759443 0.16523
541 1 0.502609 0.655672 0.163207
543 1 0.585619 0.670538 0.261726
567 1 0.577093 0.8282 0.248707
548 1 0.668668 0.754237 0.250282
618 1 0.760785 0.755843 0.329929
552 1 0.83944 0.754806 0.254384
621 1 0.81481 0.66559 0.327201
551 1 0.918594 0.68543 0.252448
532 1 0.0181991 0.751284 0.262145
550 1 0.917536 0.769448 0.168131
622 1 0.924024 0.74293 0.336344
601 1 0.00673245 0.665571 0.34937
555 1 0.0830142 0.836134 0.246047
560 1 0.173144 0.912562 0.249115
519 1 0.586071 0.502099 0.236057
558 1 0.246843 0.916931 0.168772
559 1 0.241188 0.824973 0.255947
564 1 0.337955 0.915136 0.238741
630 1 0.24545 0.922606 0.329459
634 1 0.423647 0.914248 0.33477
624 1 0.844408 0.760145 0.411453
628 1 0.997573 0.926633 0.420831
568 1 0.494384 0.912705 0.243364
641 1 0.651081 0.826082 0.330728
638 1 0.575445 0.914587 0.34271
566 1 0.592904 0.909959 0.174808
569 1 0.670311 0.840902 0.169086
571 1 0.750911 0.846818 0.263681
573 1 0.84266 0.845121 0.183581
572 1 0.660128 0.906616 0.264705
570 1 0.753128 0.917132 0.180515
576 1 0.85597 0.942057 0.241484
453 1 0.833492 0.50388 0.0129868
625 1 0.00712885 0.840535 0.3292
575 1 0.929721 0.822382 0.263428
556 1 0.998731 0.920092 0.254396
646 1 0.928079 0.925822 0.340826
155 1 0.429638 0.992546 0.417134
580 1 -0.000759467 0.59171 0.41809
93 1 0.831387 1.0002 0.151138
645 1 0.840103 0.832245 0.326318
642 1 0.766366 0.937678 0.333416
626 1 0.0950256 0.927761 0.328799
584 1 0.168129 0.574958 0.422966
588 1 0.324475 0.590474 0.421772
469 1 0.500515 0.658994 -0.00458054
640 1 0.496332 0.900853 0.423081
592 1 0.489592 0.579461 0.421687
591 1 0.568107 0.504615 0.429209
611 1 0.407032 0.670234 0.416256
636 1 0.343871 0.92534 0.425923
590 1 0.585867 0.587218 0.330891
617 1 0.673709 0.681422 0.337342
615 1 0.578167 0.66903 0.412037
648 1 0.836766 0.923287 0.427582
643 1 0.76448 0.835234 0.421341
596 1 0.662024 0.590376 0.40946
633 1 0.330905 0.83328 0.335529
639 1 0.588143 0.83601 0.422185
598 1 0.919738 0.590436 0.331831
600 1 0.83017 0.583981 0.413592
632 1 0.162436 0.914032 0.41237
585 1 0.32637 0.511028 0.325048
603 1 0.0906572 0.65753 0.429982
604 1 -0.00287595 0.756323 0.417386
608 1 0.164719 0.747222 0.440616
623 1 0.905784 0.658034 0.401655
606 1 0.241436 0.761456 0.354566
607 1 0.25363 0.67572 0.429455
631 1 0.258864 0.839176 0.434106
612 1 0.3312 0.756946 0.411961
610 1 0.404966 0.752398 0.324981
616 1 0.510425 0.75912 0.409536
629 1 0.1617 0.835988 0.330966
627 1 0.0815905 0.837735 0.410925
614 1 0.580745 0.741616 0.337724
637 1 0.506293 0.830554 0.334334
644 1 0.669191 0.907125 0.403917
635 1 0.418924 0.827156 0.406151
619 1 0.76842 0.666724 0.424631
620 1 0.673545 0.758472 0.415286
497 1 0.667031 0.83981 -0.00221384
473 1 0.664775 0.671932 0.00990295
678 1 0.264161 0.756905 0.502826
85 1 0.514727 0.99295 0.147227
525 1 0.840326 0.509855 0.186032
157 1 0.512426 0.997705 0.334715
595 1 0.739478 0.507175 0.417336
515 1 0.424376 0.509693 0.246135
87 1 0.581148 1.00158 0.238928
709 1 0.498757 0.825716 0.502208
682 1 0.405729 0.74546 0.495375
693 1 0.841546 0.66184 0.502563
665 1 0.650024 0.524991 0.50107
458 1 0.0857601 0.750808 0.00380338
502 1 0.916022 0.921512 -0.000713116
477 1 0.840785 0.679609 0.0125983
486 1 0.251596 0.929487 5.51478e-05
466 1 0.423286 0.74987 0.00316616
217 1 0.999221 0.996545 0.499757
689 1 0.68101 0.666731 0.492275
1 1 0.010545 0.995514 -0.000736893
702 1 0.251608 0.931852 0.500791
446 1 0.580118 0.580546 0.0133043
656 1 0.152334 0.582027 0.586572
660 1 0.323159 0.578779 0.592675
735 1 0.578989 0.510134 0.748273
697 1 0.0058817 0.834297 0.504804
307 1 0.750966 0.986686 0.755611
664 1 0.495694 0.58507 0.557921
687 1 0.58839 0.672909 0.596847
757 1 0.513387 0.674869 0.669318
761 1 0.679442 0.661772 0.683212
668 1 0.67447 0.597312 0.589858
691 1 0.76232 0.675743 0.589717
738 1 0.756395 0.579323 0.662589
297 1 0.32902 1.00057 0.674461
737 1 0.655657 0.50375 0.662821
652 1 0.993126 0.56725 0.59286
672 1 0.834813 0.58506 0.586259
797 1 0.186767 0.498838 0.832722
675 1 0.0849527 0.666013 0.592896
699 1 0.0859373 0.822864 0.596565
676 1 0.00137629 0.750354 0.581386
749 1 0.169104 0.663179 0.678891
746 1 0.0900119 0.73975 0.673775
680 1 0.167748 0.746615 0.594624
773 1 0.162144 0.842166 0.667565
679 1 0.247818 0.660702 0.59924
703 1 0.243461 0.8345 0.583909
807 1 0.582718 0.503428 0.910744
227 1 0.404065 0.988793 0.582376
683 1 0.412909 0.668728 0.575577
684 1 0.323316 0.750203 0.589155
667 1 0.729798 0.49847 0.582603
654 1 0.250401 0.57182 0.508996
688 1 0.51037 0.741515 0.584346
711 1 0.584162 0.842775 0.574771
785 1 0.67027 0.830931 0.653199
692 1 0.67124 0.754684 0.577289
762 1 0.7436 0.757724 0.683514
715 1 0.762194 0.838246 0.580509
361 1 0.012266 0.990093 0.82863
809 1 0.669331 0.499052 0.819665
696 1 0.857712 0.764406 0.591397
695 1 0.921797 0.673711 0.595275
235 1 0.744265 0.996475 0.594043
700 1 1.0023 0.914967 0.572944
704 1 0.147352 0.92095 0.576039
381 1 0.829895 0.990362 0.839151
774 1 0.236487 0.922394 0.661266
685 1 0.492943 0.672238 0.494924
805 1 0.500025 0.497882 0.832001
438 1 0.259343 0.579025 0.993369
707 1 0.422658 0.816881 0.588337
708 1 0.324797 0.917567 0.583195
778 1 0.427043 0.917535 0.6592
712 1 0.50324 0.933155 0.582754
690 1 0.765008 0.753242 0.500653
782 1 0.593197 0.913263 0.662446
686 1 0.595871 0.738515 0.502022
716 1 0.675367 0.916606 0.581906
786 1 0.762784 0.90874 0.664262
720 1 0.833025 0.934176 0.583357
789 1 0.839462 0.833754 0.682557
719 1 0.928915 0.844971 0.585064
790 1 0.923494 0.919592 0.667199
769 1 0.00250273 0.840899 0.671172
465 1 0.323785 0.670242 0.988881
13 1 0.504891 1.00323 0.986396
793 1 0.986399 0.498397 0.836031
722 1 0.0858624 0.589508 0.665691
794 1 0.0866211 0.558872 0.826977
747 1 0.0795234 0.656293 0.74698
817 1 1.00059 0.671751 0.82503
821 1 0.171466 0.645873 0.846683
851 1 0.416276 0.840339 0.911233
726 1 0.258809 0.598361 0.685543
728 1 0.171535 0.574589 0.750909
732 1 0.341778 0.584992 0.746632
659 1 0.413561 0.498351 0.582464
730 1 0.417437 0.577238 0.656338
736 1 0.494331 0.573583 0.739041
802 1 0.419052 0.575781 0.834176
663 1 0.575641 0.529298 0.567005
734 1 0.592319 0.587522 0.667426
759 1 0.586527 0.656957 0.754906
740 1 0.671665 0.5742 0.745832
765 1 0.8426 0.677997 0.670069
744 1 0.845077 0.568945 0.761975
763 1 0.760131 0.648015 0.748869
742 1 0.913128 0.592605 0.673155
681 1 0.31999 0.667105 0.522444
650 1 0.0778325 0.581253 0.50233
724 1 0.000683497 0.589292 0.758018
745 1 0.00222459 0.666369 0.675982
767 1 0.929682 0.674574 0.746208
662 1 0.582875 0.608932 0.505925
752 1 0.186059 0.754274 0.747616
748 1 0.0110404 0.752697 0.753162
818 1 0.0945333 0.741068 0.834381
753 1 0.349185 0.663468 0.665887
751 1 0.264108 0.672891 0.764398
750 1 0.249682 0.7496 0.666446
756 1 0.344526 0.752817 0.731385
754 1 0.4316 0.739384 0.653221
777 1 0.320574 0.834862 0.66139
755 1 0.430437 0.656764 0.735058
779 1 0.423065 0.832693 0.743742
781 1 0.503849 0.844391 0.653311
760 1 0.502425 0.740915 0.759268
758 1 0.599728 0.750105 0.676582
783 1 0.583497 0.826221 0.745995
764 1 0.651514 0.741842 0.762204
837 1 0.836818 0.671729 0.837065
768 1 0.843949 0.7588 0.7545
766 1 0.927446 0.761926 0.682632
841 1 -1.05548e-05 0.827346 0.84973
838 1 0.918567 0.742535 0.839392
791 1 0.918662 0.832568 0.768413
770 1 0.0796654 0.919897 0.664471
856 1 0.502674 0.917658 0.906169
771 1 0.0766858 0.847065 0.758967
776 1 0.164338 0.917171 0.753035
705 1 0.337651 0.841193 0.518918
674 1 0.0743163 0.746233 0.505147
775 1 0.251047 0.841737 0.750507
846 1 0.240993 0.915636 0.832546
845 1 0.176536 0.823724 0.826625
852 1 0.330523 0.907272 0.917739
780 1 0.328239 0.91051 0.751221
784 1 0.51041 0.903153 0.748544
850 1 0.405557 0.905339 0.828587
844 1 1.0111 0.919312 0.911337
694 1 0.929016 0.73887 0.499739
854 1 0.581488 0.896495 0.836352
365 1 0.160193 0.994635 0.841836
787 1 0.761827 0.829799 0.757189
788 1 0.670748 0.898455 0.75847
792 1 0.845667 0.92492 0.760275
862 1 0.927088 0.922583 0.834802
772 1 0.983219 0.923701 0.747282
860 1 0.664477 0.923027 0.912713
658 1 0.410806 0.586175 0.505183
855 1 0.587696 0.824324 0.915605
798 1 0.258673 0.573045 0.818982
800 1 0.153712 0.576984 0.920546
847 1 0.246823 0.829636 0.932092
804 1 0.334995 0.575724 0.915003
808 1 0.49772 0.578468 0.910583
829 1 0.500262 0.656265 0.825202
859 1 0.757363 0.833382 0.914689
498 1 0.744347 0.918133 0.999337
853 1 0.495769 0.826609 0.828463
806 1 0.582331 0.585089 0.842552
812 1 0.670587 0.57618 0.90598
833 1 0.674784 0.657242 0.82505
810 1 0.764339 0.588649 0.850058
816 1 0.840373 0.582735 0.921035
677 1 0.181509 0.664963 0.52285
796 1 0.998222 0.580629 0.913893
814 1 0.91717 0.599072 0.838911
839 1 0.921016 0.661813 0.916735
223 1 0.242289 1.00124 0.591935
843 1 0.0850304 0.843463 0.921989
819 1 0.0807256 0.670404 0.91897
824 1 0.168076 0.747247 0.92108
820 1 0.998256 0.736239 0.907729
825 1 0.341428 0.646947 0.844463
822 1 0.253283 0.74932 0.839255
823 1 0.242327 0.661837 0.920816
849 1 0.320862 0.832804 0.839839
826 1 0.41024 0.745602 0.831742
827 1 0.409117 0.681728 0.91881
828 1 0.33912 0.75762 0.915644
832 1 0.484965 0.751189 0.909811
830 1 0.574801 0.745123 0.8409
857 1 0.663044 0.825531 0.837389
831 1 0.593884 0.668117 0.913073
864 1 0.834812 0.911676 0.933074
834 1 0.746276 0.738203 0.803965
861 1 0.837356 0.823062 0.839898
840 1 0.830451 0.741506 0.924448
836 1 0.669421 0.74837 0.911602
835 1 0.754308 0.676313 0.914376
858 1 0.738938 0.917929 0.83693
863 1 0.921742 0.82941 0.92495
373 1 0.480764 0.997383 0.830221
371 1 0.409229 0.990056 0.905529
848 1 0.176664 0.905128 0.919508
842 1 0.0882492 0.917092 0.845498
299 1 0.420647 0.979205 0.742509
367 1 0.251732 0.999164 0.90362
231 1 0.591505 0.984161 0.573412
673 1 -0.00467334 0.660596 0.508288
309 1 0.837689 1.00177 0.674517
666 1 0.760379 0.582165 0.511878
377 1 0.659523 0.996635 0.827837
701 1 0.163422 0.828933 0.503298
493 1 0.505703 0.82588 0.998343
369 1 0.328085 0.987465 0.833502
494 1 0.586906 0.913689 0.991274
383 1 0.921833 0.993247 0.930994
303 1 0.581954 0.986962 0.750634
657 1 0.331946 0.497659 0.509001
17 1 0.671795 0.994913 0.994265
706 1 0.419661 0.909706 0.509389
717 1 0.850178 0.824753 0.503718
442 1 0.420635 0.575628 1.00237
482 1 0.0884035 0.916924 0.997121
437 1 0.185327 0.499602 0.993704
457 1 0.999124 0.662902 1.00374
445 1 0.502185 0.511282 0.989959
470 1 0.589459 0.75091 0.990581
478 1 0.925591 0.748664 0.994972
450 1 0.762153 0.57569 0.995378
233 1 0.673614 1.0018 0.50882
461 1 0.163033 0.670153 0.992466
434 1 0.06146 0.577068 0.998972
481 1 0.00777578 0.84215 0.989728
454 1 0.913567 0.592206 0.996935
9 1 0.329006 0.999635 0.987635
