ITEM: TIMESTEP
13500
ITEM: NUMBER OF ATOMS
4000
ITEM: BOX BOUNDS pp pp pp
0.0000000000000000e+00 5.2599999999999994e+01
0.0000000000000000e+00 5.2599999999999994e+01
0.0000000000000000e+00 5.2599999999999994e+01
ITEM: ATOMS id type xs ys zs
8 1 0.101682 0.0486686 0.0470443
3001 1 0.0063762 0.486996 0.485045
1134 1 0.348303 0.350485 0.496019
241 1 0.992951 0.114215 0.107249
19 1 0.454552 0.00342135 0.0530365
206 1 0.150952 0.0491681 0.0957649
999 1 0.947323 0.404035 0.45008
2639 1 0.943628 0.493125 0.353754
2837 1 0.893878 0.497058 0.395825
411 1 0.249594 0.00825892 0.251355
12 1 0.197665 0.0460614 0.0528876
210 1 0.254748 0.047285 0.097072
249 1 0.196107 0.100097 0.0957277
2407 1 0.141768 0.498706 0.246025
16 1 0.302757 0.0509775 0.0427676
55 1 0.352784 0.095052 0.047248
2409 1 0.194467 0.49485 0.200831
214 1 0.353071 0.0508749 0.0991266
20 1 0.401898 0.0476246 0.0460499
218 1 0.450854 0.0493997 0.0986003
261 1 0.505524 0.0870409 0.101257
1121 1 0.00215671 0.300723 0.4936
961 1 0.999066 0.397471 0.38841
24 1 0.508691 0.0429592 0.04166
63 1 0.550432 0.0973338 0.049951
2629 1 0.704284 0.493062 0.304348
28 1 0.602741 0.0528949 0.055211
639 1 0.941024 0.00118537 0.344777
32 1 0.69519 0.0528788 0.049764
98 1 0.449403 0.248983 0.00510508
2239 1 0.941401 0.494414 0.149056
36 1 0.806181 0.0461976 0.0452241
273 1 0.806035 0.105645 0.0994031
89 1 0.205493 0.202279 0.00943503
2831 1 0.753785 0.495249 0.456141
4 1 0.998018 0.0625987 0.0555957
40 1 0.899954 0.0503993 0.0482589
238 1 0.948968 0.0569303 0.102987
2635 1 0.849316 0.492417 0.347008
43 1 0.0551967 0.095967 0.0499638
242 1 0.0549417 0.153327 0.105907
44 1 0.00205485 0.154294 0.0558851
2007 1 0.145878 0.489093 0.0530466
190 1 0.753887 0.44399 0.00183292
245 1 0.0910887 0.10264 0.0995798
47 1 0.151825 0.102385 0.0485506
48 1 0.103018 0.153808 0.0451487
52 1 0.199869 0.153804 0.0538035
51 1 0.249636 0.0937936 0.049153
56 1 0.297597 0.145895 0.0468414
95 1 0.349288 0.200876 0.0505101
293 1 0.301701 0.196092 0.101763
633 1 0.800475 0.00596204 0.301481
59 1 0.455187 0.0903562 0.0451731
60 1 0.398653 0.14167 0.0488438
257 1 0.395105 0.100473 0.0940121
64 1 0.494685 0.149449 0.0467104
99 1 0.44836 0.196085 0.0448347
2209 1 0.195801 0.498125 0.103459
239 1 0.943719 0.00356167 0.146369
2801 1 0.991017 0.498303 0.40269
103 1 0.548674 0.196957 0.0552404
305 1 0.608249 0.197355 0.102499
262 1 0.547537 0.138729 0.0991926
154 1 0.847915 0.353424 0.000692466
67 1 0.643561 0.0992839 0.0484068
68 1 0.602162 0.147712 0.0518406
107 1 0.645604 0.201571 0.0509636
266 1 0.649692 0.139101 0.10338
71 1 0.747762 0.0941996 0.0518796
72 1 0.694194 0.158191 0.0563314
270 1 0.743271 0.141379 0.0923149
111 1 0.751425 0.203421 0.0511743
75 1 0.855044 0.091363 0.0468786
76 1 0.812177 0.149406 0.0514306
274 1 0.85752 0.157115 0.103965
23 1 0.562884 0.000413324 0.0502613
80 1 0.889679 0.144353 0.0488326
79 1 0.94584 0.103662 0.0603319
278 1 0.944976 0.159215 0.100034
2839 1 0.949606 0.488981 0.44959
78 1 0.949695 0.144411 0.000330222
83 1 0.0514281 0.199244 0.0521317
88 1 0.108627 0.251016 0.0413385
84 1 0.000598782 0.237273 0.0493426
603 1 0.0411101 0.00137846 0.353303
145 1 0.594991 0.302263 0.00528191
87 1 0.148307 0.198484 0.052888
289 1 0.199456 0.205971 0.103718
325 1 0.099169 0.299916 0.104783
286 1 0.143173 0.250738 0.10787
106 1 0.643399 0.253213 0.00884201
92 1 0.202879 0.249985 0.0561472
91 1 0.254112 0.194509 0.0555959
96 1 0.304327 0.256023 0.0578722
131 1 0.248465 0.302854 0.0521562
437 1 0.903995 0.00345027 0.20272
433 1 0.802939 0.000511948 0.195966
135 1 0.352821 0.303231 0.0538193
333 1 0.299298 0.300986 0.103241
100 1 0.397026 0.254603 0.0492544
104 1 0.508126 0.248825 0.0495498
139 1 0.454155 0.297779 0.0527239
143 1 0.549313 0.299884 0.0524495
821 1 0.496323 0.0090391 0.400178
108 1 0.597322 0.250595 0.0610171
147 1 0.650768 0.306973 0.0499663
2011 1 0.251592 0.494889 0.0560969
112 1 0.705489 0.247665 0.0499858
151 1 0.750638 0.301422 0.0483414
2205 1 0.10122 0.49905 0.0990555
115 1 0.846963 0.208422 0.0456975
116 1 0.801631 0.256899 0.0493332
11 1 0.257297 0.00842052 0.0471911
119 1 0.943173 0.192158 0.0423946
120 1 0.8999 0.248072 0.05126
318 1 0.938741 0.253216 0.101695
123 1 0.0563112 0.289118 0.055918
321 1 0.00321273 0.290401 0.101953
361 1 0.994438 0.404553 0.0896739
128 1 0.098327 0.345271 0.0519351
127 1 0.15043 0.311554 0.0372908
326 1 0.141141 0.355198 0.102353
132 1 0.204728 0.35468 0.0461401
369 1 0.192709 0.39159 0.104378
167 1 0.150809 0.396611 0.0496112
329 1 0.187826 0.30423 0.0920252
171 1 0.249897 0.399835 0.045543
373 1 0.304145 0.401491 0.0978042
136 1 0.304782 0.351091 0.0533098
334 1 0.346463 0.349174 0.110902
175 1 0.348748 0.404519 0.0595015
337 1 0.404548 0.296296 0.100267
140 1 0.404512 0.343378 0.058712
338 1 0.455616 0.33891 0.102195
2815 1 0.35706 0.496807 0.438853
144 1 0.500611 0.340409 0.0479311
183 1 0.557822 0.399232 0.0538585
385 1 0.601056 0.388217 0.109751
1106 1 0.643774 0.23902 0.499171
148 1 0.602491 0.351962 0.0567181
152 1 0.708024 0.358485 0.0526078
187 1 0.658179 0.401049 0.0466703
2627 1 0.651522 0.495864 0.34405
1182 1 0.550129 0.450535 0.487624
191 1 0.758116 0.398455 0.053909
349 1 0.69499 0.297821 0.0986865
156 1 0.80108 0.345924 0.0474857
155 1 0.852142 0.302287 0.0457399
195 1 0.844151 0.403759 0.0449804
393 1 0.799986 0.415478 0.107837
354 1 0.840878 0.351269 0.0980158
177 1 0.39822 0.402204 0.00212504
160 1 0.889838 0.35415 0.0511264
159 1 0.956252 0.293652 0.0471907
124 1 0.982933 0.357557 0.0414418
199 1 0.937733 0.4051 0.0505466
357 1 0.904669 0.313739 0.102364
163 1 0.0454446 0.391737 0.0512824
362 1 0.0589312 0.447365 0.0986664
168 1 0.0951066 0.45188 0.0401761
365 1 0.0928147 0.393339 0.108348
629 1 0.700935 0.00212047 0.306875
997 1 0.88687 0.396611 0.404354
366 1 0.14407 0.449214 0.105693
172 1 0.192877 0.448148 0.0576644
176 1 0.302163 0.45321 0.0460232
370 1 0.252283 0.441084 0.0966533
105 1 0.597902 0.205462 0.00434427
423 1 0.545897 0.00598266 0.24458
138 1 0.452246 0.35587 0.00319334
374 1 0.344191 0.45217 0.099023
179 1 0.443362 0.393843 0.0520409
180 1 0.402497 0.45191 0.0506209
2617 1 0.409455 0.495589 0.295849
378 1 0.451849 0.448825 0.0935108
2207 1 0.144183 0.498178 0.151286
189 1 0.707295 0.406939 0.000820131
184 1 0.505178 0.462284 0.058489
188 1 0.597818 0.448909 0.0419839
382 1 0.553377 0.448255 0.0983236
192 1 0.707612 0.459312 0.0520555
996 1 0.797708 0.445237 0.454661
2817 1 0.399714 0.493894 0.384654
386 1 0.654219 0.446772 0.0895485
1002 1 0.050824 0.0439141 0.499972
390 1 0.749211 0.454797 0.112211
627 1 0.645437 0.00253458 0.343054
1000 1 0.898027 0.447337 0.453143
2417 1 0.399768 0.499606 0.201044
196 1 0.792444 0.456953 0.0527577
601 1 0.994585 0.0169275 0.299665
200 1 0.8962 0.455315 0.0437318
164 1 0.0010252 0.445962 0.0409796
990 1 0.744927 0.449241 0.404551
398 1 0.951526 0.454311 0.0937598
421 1 0.500432 0.00238892 0.199952
202 1 0.0380722 0.0594618 0.100661
991 1 0.741725 0.400509 0.451934
208 1 0.0971037 0.0501178 0.139452
247 1 0.147769 0.0965261 0.143671
406 1 0.139787 0.0496866 0.198763
212 1 0.205348 0.0496641 0.144345
449 1 0.199284 0.0897047 0.203934
251 1 0.246627 0.097128 0.154964
2219 1 0.454679 0.491668 0.147911
216 1 0.309678 0.0473457 0.150697
220 1 0.397469 0.0608314 0.144822
259 1 0.447969 0.102718 0.147457
461 1 0.507066 0.101267 0.202603
418 1 0.443352 0.0564224 0.194299
265 1 0.602002 0.101844 0.100122
224 1 0.507208 0.0479596 0.152897
222 1 0.554878 0.0468815 0.0966182
422 1 0.556044 0.0501394 0.198244
228 1 0.601614 0.0521075 0.148591
226 1 0.653217 0.0516272 0.104483
426 1 0.652113 0.0487074 0.204924
465 1 0.602559 0.0919633 0.198276
230 1 0.75445 0.0431671 0.108974
232 1 0.705408 0.05554 0.153171
430 1 0.753492 0.0524629 0.201478
2609 1 0.193328 0.496286 0.299958
234 1 0.851186 0.0432194 0.0969579
819 1 0.436125 0.00987373 0.449783
236 1 0.807152 0.0454236 0.147262
240 1 0.895084 0.0484582 0.148176
477 1 0.905707 0.100982 0.208182
1162 1 0.0571368 0.444454 0.478024
204 1 0.99706 0.0595124 0.145618
279 1 0.94578 0.102895 0.151525
243 1 0.0576738 0.0944127 0.158252
283 1 0.0505382 0.195836 0.156075
248 1 0.0982931 0.155148 0.149891
281 1 0.999191 0.19819 0.106857
442 1 0.0538448 0.143414 0.205919
246 1 0.140594 0.148381 0.102295
252 1 0.199428 0.15196 0.154372
287 1 0.144775 0.20116 0.14452
250 1 0.253057 0.145989 0.0983818
493 1 0.291763 0.195205 0.198937
489 1 0.197367 0.197159 0.196227
253 1 0.301721 0.085844 0.101175
256 1 0.294331 0.152537 0.144589
254 1 0.343608 0.144077 0.098792
255 1 0.341095 0.103366 0.151041
454 1 0.346107 0.148798 0.199548
297 1 0.393365 0.189663 0.0993128
258 1 0.449957 0.137755 0.0915589
260 1 0.396248 0.142309 0.146245
458 1 0.448352 0.144263 0.200442
264 1 0.503342 0.14451 0.150062
497 1 0.400802 0.183304 0.19328
263 1 0.552894 0.0959619 0.150571
462 1 0.549516 0.153195 0.192085
268 1 0.593538 0.152001 0.148112
267 1 0.658703 0.0949085 0.153614
307 1 0.659041 0.186193 0.144234
505 1 0.594881 0.206165 0.191803
466 1 0.652412 0.153621 0.197213
309 1 0.711388 0.201028 0.10256
269 1 0.698296 0.0993253 0.0937902
271 1 0.762474 0.0977733 0.154764
272 1 0.709773 0.144631 0.144091
311 1 0.750756 0.203806 0.152732
275 1 0.858421 0.104656 0.155473
276 1 0.800195 0.156991 0.142829
315 1 0.857532 0.203759 0.150902
277 1 0.896787 0.100485 0.101048
244 1 0.00159502 0.151428 0.159108
280 1 0.900153 0.154335 0.152803
319 1 0.955208 0.194489 0.151747
517 1 0.900378 0.200523 0.2085
285 1 0.0973361 0.201454 0.0993303
282 1 0.0499628 0.249115 0.109549
288 1 0.106776 0.254132 0.166988
323 1 0.0386077 0.302854 0.1514
292 1 0.2064 0.245369 0.148414
327 1 0.162457 0.298422 0.153192
291 1 0.245976 0.195973 0.147016
290 1 0.253853 0.24553 0.102075
331 1 0.251214 0.300835 0.14552
490 1 0.254677 0.246064 0.191921
533 1 0.296159 0.293121 0.201107
294 1 0.355809 0.251076 0.0999074
295 1 0.34224 0.19708 0.150998
296 1 0.298897 0.24303 0.145585
300 1 0.398167 0.236204 0.148514
335 1 0.352256 0.288238 0.156907
298 1 0.443609 0.238097 0.0985322
301 1 0.498479 0.189979 0.101245
299 1 0.447748 0.187267 0.14475
304 1 0.488474 0.237271 0.151378
341 1 0.498336 0.287165 0.106681
339 1 0.441703 0.291604 0.14466
303 1 0.54714 0.201967 0.145333
302 1 0.54912 0.247679 0.101617
502 1 0.541943 0.24783 0.192903
308 1 0.602324 0.246554 0.144994
501 1 0.49004 0.191929 0.19876
306 1 0.652336 0.244213 0.101685
347 1 0.643478 0.29924 0.15138
545 1 0.59919 0.28456 0.19581
310 1 0.750518 0.251825 0.099561
312 1 0.697021 0.249324 0.156051
313 1 0.804285 0.208564 0.0907419
316 1 0.808734 0.245281 0.153328
314 1 0.858544 0.255425 0.0996961
514 1 0.849816 0.251941 0.200229
353 1 0.802658 0.293224 0.108109
355 1 0.85835 0.298946 0.151308
317 1 0.899685 0.20376 0.103147
284 1 0.998634 0.247404 0.154985
320 1 0.903542 0.247455 0.154648
359 1 0.952712 0.294041 0.147497
518 1 0.949965 0.243633 0.195589
322 1 0.0382614 0.343255 0.0974406
363 1 0.0540371 0.388391 0.16096
324 1 0.997316 0.350756 0.152836
521 1 0.997419 0.297962 0.202958
328 1 0.0973899 0.342894 0.154406
565 1 0.0963458 0.398084 0.203316
332 1 0.204972 0.342799 0.149104
529 1 0.203353 0.296783 0.200527
569 1 0.197368 0.401008 0.195975
330 1 0.252213 0.35242 0.105151
336 1 0.296914 0.345771 0.162065
340 1 0.398868 0.346856 0.145476
534 1 0.35189 0.347021 0.202099
375 1 0.340406 0.395625 0.156256
381 1 0.492659 0.391137 0.0913196
377 1 0.393546 0.402174 0.103299
379 1 0.447113 0.394269 0.143257
538 1 0.442097 0.343053 0.197649
342 1 0.552184 0.348768 0.102436
345 1 0.596305 0.296749 0.105533
344 1 0.499341 0.354161 0.14518
343 1 0.543852 0.298186 0.144077
346 1 0.657138 0.356038 0.0980337
348 1 0.591492 0.341919 0.153425
387 1 0.651396 0.40182 0.155645
546 1 0.639971 0.34361 0.198363
352 1 0.70849 0.353051 0.140035
350 1 0.756902 0.346701 0.0977079
351 1 0.745875 0.307962 0.149855
391 1 0.754288 0.396924 0.158405
356 1 0.805452 0.35015 0.150767
557 1 0.908479 0.292275 0.198642
360 1 0.905021 0.352824 0.157904
358 1 0.956763 0.349603 0.0982823
558 1 0.954794 0.349051 0.200479
989 1 0.695589 0.395165 0.407677
562 1 0.0485728 0.452383 0.195433
364 1 0.0048879 0.451103 0.145429
368 1 0.0953775 0.453449 0.150805
367 1 0.137542 0.398422 0.156126
372 1 0.200413 0.442998 0.145478
566 1 0.145193 0.450259 0.190925
992 1 0.698686 0.444837 0.448006
1045 1 0.107648 0.0973995 0.494234
371 1 0.252022 0.399364 0.148899
570 1 0.253749 0.449065 0.200325
376 1 0.305755 0.450388 0.151713
62 1 0.551637 0.147243 0.00343558
2615 1 0.357705 0.499847 0.336125
380 1 0.387257 0.447485 0.155798
2637 1 0.901099 0.490598 0.301079
384 1 0.503695 0.44939 0.155141
577 1 0.404616 0.398 0.199958
31 1 0.753945 0.00140624 0.0568856
383 1 0.549412 0.396953 0.147236
388 1 0.598934 0.450021 0.149875
582 1 0.559412 0.447233 0.201324
93 1 0.302602 0.19627 0.0083918
586 1 0.648054 0.454905 0.208137
2805 1 0.108699 0.498723 0.399027
615 1 0.342826 9.9059e-05 0.343142
389 1 0.708203 0.401437 0.09892
392 1 0.697663 0.451039 0.152193
396 1 0.79439 0.464681 0.162504
988 1 0.602881 0.458425 0.45422
181 1 0.49743 0.408057 0.017588
417 1 0.399785 0.00106926 0.203028
394 1 0.856755 0.44539 0.0993133
397 1 0.900486 0.396065 0.102247
395 1 0.853984 0.389656 0.155346
400 1 0.896407 0.447561 0.147892
807 1 0.154154 6.28546e-05 0.451961
594 1 0.848967 0.451264 0.19584
984 1 0.495598 0.45208 0.455515
399 1 0.947931 0.397808 0.145177
439 1 0.950297 0.0016191 0.246548
1178 1 0.4351 0.455646 0.493634
402 1 0.0648891 0.0504014 0.204477
445 1 0.10504 0.107504 0.201412
431 1 0.750715 0.00354542 0.248701
443 1 0.0443352 0.0916398 0.249446
602 1 0.051767 0.0422056 0.295237
203 1 0.0606361 0.00152389 0.157743
2809 1 0.191894 0.49508 0.404184
408 1 0.103289 0.0349922 0.260269
447 1 0.146447 0.0972862 0.256076
412 1 0.193105 0.0486156 0.251724
15 1 0.348458 0.00341797 0.0523738
410 1 0.252782 0.0475563 0.195267
610 1 0.241889 0.0510475 0.299517
451 1 0.246736 0.0967952 0.248187
416 1 0.302077 0.0493714 0.243257
453 1 0.296042 0.0941846 0.197339
414 1 0.355627 0.0432621 0.193241
455 1 0.348623 0.0899697 0.242111
457 1 0.395181 0.103777 0.19496
420 1 0.40258 0.0582064 0.246841
618 1 0.44301 0.0475032 0.29153
424 1 0.498815 0.0478312 0.245724
657 1 0.398841 0.0943345 0.304552
976 1 0.301603 0.442031 0.446281
428 1 0.593854 0.0504592 0.252194
463 1 0.55871 0.108309 0.248011
980 1 0.398684 0.451116 0.434595
469 1 0.705664 0.105983 0.194466
467 1 0.648778 0.104083 0.249463
6 1 0.149145 0.0514989 0.00397218
109 1 0.695051 0.198013 0.00310353
473 1 0.805805 0.105472 0.203847
432 1 0.707296 0.0521429 0.245613
436 1 0.797113 0.0511259 0.255722
434 1 0.850256 0.0519766 0.201558
440 1 0.898327 0.0548584 0.24899
475 1 0.84569 0.0975399 0.256386
413 1 0.307634 0.000389686 0.199461
438 1 0.942433 0.0472425 0.197223
404 1 0.997658 0.0470906 0.236993
441 1 0.999284 0.100719 0.202825
448 1 0.0999378 0.15601 0.25659
485 1 0.0962679 0.189955 0.202971
642 1 0.0564026 0.151902 0.303571
446 1 0.152134 0.155011 0.199883
646 1 0.150628 0.148734 0.30315
487 1 0.150798 0.192079 0.257042
450 1 0.246719 0.149622 0.203121
452 1 0.20156 0.141451 0.258625
491 1 0.246204 0.19652 0.258172
650 1 0.250164 0.153364 0.304124
693 1 0.302254 0.201133 0.307805
653 1 0.300987 0.100626 0.292217
456 1 0.292531 0.146991 0.253627
495 1 0.348585 0.192997 0.252274
654 1 0.350937 0.146999 0.298384
460 1 0.397599 0.142262 0.251731
459 1 0.453216 0.103724 0.254212
499 1 0.449661 0.20119 0.252828
658 1 0.450312 0.147132 0.296228
464 1 0.509842 0.146699 0.24842
662 1 0.542997 0.139174 0.30449
701 1 0.501705 0.201964 0.297972
503 1 0.545079 0.202214 0.241052
705 1 0.596172 0.200588 0.304136
509 1 0.702388 0.199783 0.202349
468 1 0.602192 0.159126 0.243496
472 1 0.698407 0.15512 0.252236
666 1 0.648437 0.156716 0.29625
470 1 0.756405 0.156692 0.195107
471 1 0.754156 0.107782 0.247336
511 1 0.753084 0.197582 0.260784
474 1 0.858813 0.155051 0.197515
677 1 0.895484 0.0974854 0.301321
476 1 0.804975 0.154255 0.257638
480 1 0.898132 0.147538 0.248888
674 1 0.855264 0.147829 0.299002
478 1 0.949238 0.150006 0.196552
479 1 0.950625 0.10924 0.257138
444 1 0.998128 0.156191 0.25906
519 1 0.95278 0.206181 0.253002
483 1 0.0536231 0.202484 0.254977
482 1 0.0498394 0.250163 0.20881
484 1 0.00593825 0.252868 0.255257
488 1 0.106673 0.246235 0.249054
523 1 0.0490715 0.297484 0.251866
486 1 0.154787 0.247343 0.21118
492 1 0.202986 0.252056 0.256113
527 1 0.14872 0.300914 0.254915
729 1 0.204683 0.300507 0.297601
496 1 0.297903 0.244099 0.245288
531 1 0.247288 0.298751 0.253051
690 1 0.25277 0.246965 0.295011
494 1 0.351464 0.23607 0.200813
500 1 0.39696 0.24055 0.250384
535 1 0.350863 0.28828 0.242429
694 1 0.353198 0.243097 0.299986
498 1 0.444426 0.235697 0.198473
504 1 0.494705 0.248906 0.242319
741 1 0.496664 0.301937 0.303195
698 1 0.44929 0.249178 0.296214
541 1 0.487215 0.294217 0.189867
543 1 0.546697 0.288865 0.246481
508 1 0.595407 0.242834 0.244505
702 1 0.549334 0.243508 0.293877
506 1 0.649797 0.241684 0.196342
507 1 0.651732 0.205404 0.254286
547 1 0.646224 0.294367 0.247151
512 1 0.698734 0.250153 0.24711
549 1 0.69538 0.296384 0.194978
706 1 0.642899 0.248062 0.300225
513 1 0.804952 0.20207 0.204038
510 1 0.747822 0.246423 0.204191
516 1 0.803912 0.250349 0.257562
551 1 0.746157 0.289258 0.248097
515 1 0.851848 0.196413 0.254805
555 1 0.848914 0.297551 0.24839
714 1 0.850002 0.243738 0.31322
713 1 0.805507 0.193046 0.308817
481 1 0.00346907 0.196151 0.207871
520 1 0.894127 0.2515 0.251495
718 1 0.94608 0.249598 0.302316
522 1 0.0503362 0.338608 0.202912
563 1 0.0540107 0.39586 0.25025
524 1 0.0063965 0.353351 0.243255
722 1 0.045686 0.345511 0.305237
526 1 0.150194 0.347009 0.203186
525 1 0.0994443 0.30517 0.207065
725 1 0.0970051 0.303374 0.306145
528 1 0.0984886 0.35002 0.250567
532 1 0.201531 0.352486 0.253554
530 1 0.243837 0.349748 0.20276
536 1 0.297754 0.34815 0.247638
571 1 0.254601 0.403463 0.255366
730 1 0.2591 0.355288 0.297052
734 1 0.344635 0.352874 0.298982
537 1 0.398568 0.296647 0.201116
539 1 0.450846 0.299531 0.248481
737 1 0.393699 0.300556 0.291863
540 1 0.394175 0.344146 0.245495
738 1 0.449227 0.354428 0.31092
781 1 0.498504 0.400252 0.295278
581 1 0.493199 0.400189 0.193351
544 1 0.498316 0.345213 0.251886
542 1 0.544886 0.337659 0.196487
583 1 0.550007 0.395946 0.247563
742 1 0.555228 0.352419 0.28944
785 1 0.601597 0.40346 0.294864
548 1 0.590719 0.339021 0.240293
552 1 0.695783 0.345192 0.24606
587 1 0.649664 0.395698 0.243461
553 1 0.793936 0.288858 0.196416
550 1 0.751355 0.348295 0.201387
591 1 0.745642 0.399106 0.247808
589 1 0.697487 0.394572 0.191834
789 1 0.689657 0.392069 0.291755
554 1 0.853363 0.350365 0.20318
556 1 0.800412 0.340156 0.240132
753 1 0.795822 0.306206 0.301105
754 1 0.853018 0.348524 0.294526
757 1 0.896246 0.301677 0.297468
595 1 0.85387 0.396615 0.250583
593 1 0.806619 0.40023 0.201875
597 1 0.906066 0.398124 0.20221
559 1 0.948203 0.287264 0.246026
560 1 0.902542 0.34841 0.245815
599 1 0.945098 0.395756 0.26009
758 1 0.950467 0.343154 0.297401
815 1 0.349493 0.0052273 0.444832
561 1 0.00499412 0.405545 0.197318
564 1 0.995202 0.442448 0.253436
568 1 0.0973469 0.45267 0.243988
567 1 0.151163 0.400673 0.256031
572 1 0.200172 0.449263 0.249508
769 1 0.200636 0.403111 0.300246
227 1 0.645884 0.000908451 0.155782
617 1 0.393931 0.00475914 0.298865
573 1 0.295841 0.399905 0.205606
576 1 0.303359 0.449885 0.250705
621 1 0.498705 0.00707073 0.306536
971 1 0.248986 0.396388 0.454469
574 1 0.34987 0.451035 0.203988
575 1 0.349531 0.396876 0.23768
580 1 0.405932 0.447677 0.242419
1101 1 0.501479 0.205431 0.495328
578 1 0.449731 0.445678 0.196126
579 1 0.448769 0.396279 0.243033
777 1 0.391722 0.392097 0.287434
778 1 0.454438 0.446517 0.299814
137 1 0.399373 0.300234 0.00588165
584 1 0.505403 0.457713 0.24978
585 1 0.601952 0.401414 0.199531
782 1 0.544761 0.447904 0.293298
588 1 0.601074 0.452169 0.254179
972 1 0.192716 0.441711 0.445854
97 1 0.395533 0.199146 0.00653106
592 1 0.701078 0.444567 0.247913
786 1 0.652389 0.452561 0.299247
590 1 0.749232 0.457795 0.204598
790 1 0.737483 0.436382 0.301146
969 1 0.199706 0.397779 0.401431
596 1 0.800906 0.435165 0.258557
600 1 0.902011 0.446119 0.250448
797 1 0.896133 0.393477 0.30206
967 1 0.146816 0.394748 0.449898
811 1 0.258668 0.00390821 0.446031
598 1 0.956893 0.448847 0.193565
798 1 0.950252 0.446628 0.306472
643 1 0.0455191 0.104079 0.356605
645 1 0.093512 0.0921857 0.300875
968 1 0.109381 0.454125 0.443652
1165 1 0.0922496 0.399009 0.49979
966 1 0.1438 0.444809 0.397831
606 1 0.147153 0.049522 0.309557
608 1 0.102772 0.0411937 0.35623
50 1 0.248154 0.152373 0.00439127
612 1 0.19431 0.0635946 0.352806
649 1 0.195089 0.0997851 0.302753
616 1 0.296973 0.0494186 0.343955
221 1 0.504838 0.00809425 0.0969081
614 1 0.351856 0.0560775 0.29819
637 1 0.902416 0.00124727 0.293021
853 1 0.298849 0.103071 0.400758
814 1 0.354901 0.0503863 0.396262
964 1 0.0022027 0.446179 0.433924
661 1 0.497365 0.0993546 0.301137
620 1 0.400445 0.0471678 0.34587
861 1 0.498121 0.109502 0.4039
962 1 0.059115 0.451461 0.391732
622 1 0.545709 0.0580702 0.295619
624 1 0.499081 0.0555295 0.356348
628 1 0.59241 0.0546243 0.35012
663 1 0.546916 0.101815 0.358159
626 1 0.648052 0.0527491 0.306773
665 1 0.60019 0.102794 0.299806
632 1 0.700757 0.0555614 0.356078
667 1 0.64502 0.0952736 0.355267
1038 1 0.944378 0.0436783 0.499263
630 1 0.749953 0.0544463 0.304435
671 1 0.752728 0.0954985 0.351961
825 1 0.592439 0.00555344 0.397998
634 1 0.845717 0.0502188 0.303642
636 1 0.80352 0.0474678 0.351407
834 1 0.855016 0.0468202 0.393747
640 1 0.89559 0.0452849 0.341855
1082 1 0.0481876 0.246048 0.497808
641 1 0.00865711 0.0999082 0.303086
201 1 0.00496627 3.67737e-05 0.118709
604 1 0.00218296 0.0496108 0.353828
638 1 0.948612 0.0538186 0.293171
683 1 0.0529383 0.198665 0.355583
647 1 0.139649 0.0994664 0.345862
685 1 0.103009 0.20214 0.311328
648 1 0.0993578 0.14727 0.353718
689 1 0.201315 0.19697 0.303026
687 1 0.151927 0.2044 0.346546
846 1 0.153893 0.143289 0.396017
651 1 0.25229 0.0911912 0.344881
652 1 0.212062 0.153155 0.350904
656 1 0.300915 0.146205 0.353828
849 1 0.215521 0.108155 0.40182
850 1 0.2622 0.157322 0.400895
655 1 0.341434 0.101337 0.343828
660 1 0.397265 0.143733 0.344175
857 1 0.404782 0.100491 0.395156
854 1 0.365884 0.148205 0.398096
659 1 0.448818 0.0983369 0.351512
858 1 0.446337 0.152131 0.395474
664 1 0.496971 0.144064 0.34934
703 1 0.544861 0.200365 0.344262
669 1 0.701964 0.0968442 0.299368
668 1 0.599967 0.147461 0.351144
672 1 0.696619 0.147049 0.344937
709 1 0.696596 0.204528 0.298999
707 1 0.648513 0.194535 0.351138
670 1 0.748665 0.150542 0.306619
676 1 0.794133 0.150386 0.358605
870 1 0.740371 0.148012 0.40262
673 1 0.802045 0.105951 0.309439
675 1 0.848391 0.102051 0.347856
680 1 0.900874 0.154222 0.352279
678 1 0.939821 0.153506 0.30157
644 1 0.998533 0.153324 0.355625
679 1 0.957631 0.102779 0.346638
878 1 0.945937 0.14184 0.396635
719 1 0.95194 0.201071 0.351605
682 1 0.0571484 0.248529 0.308807
881 1 0.00555797 0.202822 0.397563
723 1 0.0531914 0.298041 0.352853
688 1 0.109479 0.254479 0.359637
686 1 0.15164 0.261737 0.300997
692 1 0.204357 0.255803 0.34422
727 1 0.150508 0.303315 0.351813
925 1 0.104591 0.305142 0.402609
889 1 0.196205 0.199846 0.402345
691 1 0.255258 0.199652 0.35527
731 1 0.255251 0.295126 0.347039
696 1 0.298675 0.248913 0.349953
733 1 0.30545 0.284496 0.293524
697 1 0.406126 0.195802 0.303408
695 1 0.350389 0.196533 0.351934
894 1 0.349473 0.253993 0.394452
700 1 0.402291 0.247396 0.342656
699 1 0.452865 0.20579 0.347988
704 1 0.50266 0.252019 0.345067
937 1 0.404973 0.305018 0.403518
897 1 0.402067 0.201755 0.390634
898 1 0.448064 0.249345 0.402046
745 1 0.597137 0.30038 0.295862
708 1 0.600828 0.247813 0.353756
743 1 0.548925 0.292295 0.341111
945 1 0.595961 0.296928 0.400351
712 1 0.696445 0.249916 0.347356
747 1 0.648584 0.299616 0.350697
710 1 0.756694 0.253513 0.302806
711 1 0.745858 0.20761 0.348798
910 1 0.737472 0.257271 0.39754
716 1 0.800106 0.252909 0.351812
715 1 0.84217 0.199973 0.365534
913 1 0.789367 0.19843 0.401858
957 1 0.894871 0.298503 0.403094
681 1 0.0062837 0.199392 0.305036
684 1 0.00655468 0.24808 0.357861
717 1 0.897728 0.204608 0.307199
720 1 0.909283 0.247197 0.355084
721 1 0.00339487 0.292906 0.30349
765 1 0.0980914 0.397559 0.295365
728 1 0.0979546 0.35146 0.345389
726 1 0.151711 0.351802 0.295054
926 1 0.157427 0.346423 0.400227
732 1 0.208319 0.346721 0.342801
736 1 0.294922 0.345766 0.353637
773 1 0.307902 0.401855 0.291867
930 1 0.249521 0.34762 0.404813
735 1 0.356548 0.302708 0.347519
740 1 0.393069 0.355331 0.349161
775 1 0.338131 0.399378 0.346361
739 1 0.445964 0.292801 0.349848
779 1 0.455164 0.409539 0.348238
938 1 0.458215 0.355734 0.403907
941 1 0.504671 0.298798 0.391948
744 1 0.507023 0.350457 0.347283
748 1 0.598325 0.346811 0.342776
942 1 0.558051 0.3564 0.39431
746 1 0.641554 0.343481 0.295764
749 1 0.688781 0.300378 0.294543
752 1 0.690051 0.347272 0.34315
985 1 0.60077 0.41231 0.392003
750 1 0.734916 0.350537 0.294583
751 1 0.741922 0.303827 0.345214
756 1 0.795687 0.348209 0.352797
755 1 0.847992 0.299133 0.352683
795 1 0.844104 0.394631 0.34449
759 1 0.954349 0.291016 0.352417
724 1 0.992702 0.343238 0.350164
760 1 0.898355 0.347405 0.351785
799 1 0.946579 0.396276 0.346546
425 1 0.598743 0.00247582 0.20431
763 1 0.0524124 0.400055 0.347059
762 1 0.0519414 0.448555 0.297995
768 1 0.105753 0.447131 0.349695
764 1 0.998612 0.448649 0.351275
958 1 0.946047 0.348357 0.396767
766 1 0.141491 0.452853 0.29667
767 1 0.147209 0.390954 0.353167
772 1 0.198581 0.448414 0.351723
970 1 0.242849 0.453247 0.396433
771 1 0.261193 0.396498 0.343165
770 1 0.245408 0.449954 0.298458
776 1 0.305247 0.452905 0.337433
973 1 0.295021 0.393162 0.401029
974 1 0.351414 0.444425 0.387923
774 1 0.350813 0.455855 0.295699
780 1 0.396609 0.44081 0.336856
977 1 0.401339 0.395289 0.392065
921 1 0.00227388 0.292198 0.40448
978 1 0.454235 0.449034 0.400835
924 1 0.00393916 0.343333 0.443603
784 1 0.507933 0.450313 0.350535
783 1 0.555303 0.395632 0.33988
982 1 0.55095 0.457766 0.403034
94 1 0.346427 0.246048 0.00415644
960 1 0.901353 0.349961 0.448879
788 1 0.596633 0.45036 0.341619
787 1 0.650875 0.400941 0.351141
986 1 0.648591 0.462318 0.406835
792 1 0.694846 0.445537 0.364007
2833 1 0.789099 0.493625 0.40389
791 1 0.737728 0.386206 0.348747
796 1 0.805515 0.44076 0.345076
954 1 0.8454 0.350322 0.401565
793 1 0.790972 0.385469 0.299372
794 1 0.849654 0.439801 0.301214
993 1 0.804703 0.397048 0.406674
994 1 0.846607 0.448571 0.404973
2607 1 0.151474 0.499377 0.352088
761 1 0.00335164 0.39293 0.298194
998 1 0.945217 0.441372 0.394619
800 1 0.891358 0.444721 0.351831
802 1 0.0558444 0.0368612 0.413322
995 1 0.842758 0.392396 0.460091
808 1 0.103075 0.0395498 0.459103
806 1 0.155866 0.0453854 0.403589
812 1 0.207439 0.0561151 0.453839
39 1 0.953569 0.0152987 0.0525899
810 1 0.253546 0.0515805 0.396063
816 1 0.302191 0.056711 0.445922
623 1 0.547041 0.00125096 0.355616
1102 1 0.548901 0.253229 0.495325
950 1 0.749811 0.344746 0.406753
820 1 0.395034 0.0695446 0.449687
951 1 0.734258 0.299806 0.452996
818 1 0.444515 0.0478465 0.3902
824 1 0.495246 0.0563699 0.453905
956 1 0.801681 0.341599 0.459707
865 1 0.594336 0.100858 0.401899
822 1 0.544261 0.0592465 0.403404
828 1 0.594917 0.049023 0.454822
225 1 0.603669 0.00336778 0.0954074
826 1 0.642334 0.0483941 0.400263
867 1 0.642701 0.0906839 0.453795
953 1 0.802175 0.303812 0.400317
830 1 0.748182 0.0455553 0.401041
873 1 0.812176 0.101892 0.403078
832 1 0.6892 0.0393466 0.453632
869 1 0.696019 0.0940542 0.413266
66 1 0.65563 0.148379 0.00573823
836 1 0.807264 0.0440124 0.439956
840 1 0.899831 0.0526906 0.448944
27 1 0.652574 0.00142184 0.0585078
804 1 0.00228424 0.0506486 0.452302
838 1 0.949436 0.0413324 0.39499
1117 1 0.900205 0.201539 0.496219
625 1 0.592306 0.006568 0.305888
842 1 0.0487286 0.150732 0.402569
845 1 0.0979193 0.0887684 0.410271
843 1 0.0490659 0.0943801 0.448228
883 1 0.0423177 0.205245 0.451677
885 1 0.109776 0.198138 0.399731
847 1 0.165123 0.101017 0.443289
848 1 0.099922 0.14933 0.442781
887 1 0.147878 0.192308 0.451193
851 1 0.259609 0.109524 0.451764
852 1 0.209407 0.151555 0.442667
856 1 0.306304 0.157532 0.454753
1098 1 0.452325 0.250321 0.494642
2601 1 0.999597 0.497345 0.300206
855 1 0.347017 0.106486 0.457833
860 1 0.401115 0.156939 0.452702
237 1 0.900434 0.00462733 0.0890533
2633 1 0.800623 0.491415 0.297051
859 1 0.450382 0.106766 0.444325
864 1 0.501335 0.153044 0.454296
899 1 0.450308 0.195904 0.44459
862 1 0.545909 0.157094 0.394809
863 1 0.546278 0.105037 0.45573
903 1 0.548246 0.204914 0.446007
868 1 0.593209 0.158404 0.446933
866 1 0.647342 0.137827 0.405652
2003 1 0.0400553 0.491074 0.0468226
35 1 0.854041 0.00411703 0.03799
401 1 0.00206725 0.00460336 0.18528
611 1 0.237324 0.00521647 0.350185
871 1 0.754881 0.0866325 0.451454
872 1 0.696999 0.142704 0.455203
876 1 0.798066 0.154946 0.456047
911 1 0.740329 0.199431 0.445321
875 1 0.858359 0.102746 0.446729
874 1 0.852482 0.151993 0.40428
915 1 0.850074 0.209735 0.445888
877 1 0.902301 0.0965902 0.385546
880 1 0.910553 0.151078 0.452104
879 1 0.952329 0.0949854 0.446674
844 1 0.00482244 0.145724 0.45062
841 1 0.00118915 0.092758 0.396725
882 1 0.0548444 0.244855 0.401414
888 1 0.104818 0.243034 0.447045
1194 1 0.846309 0.45368 0.498963
886 1 0.155492 0.257792 0.398503
927 1 0.146273 0.298975 0.451809
409 1 0.201097 0.00453066 0.196533
890 1 0.24517 0.25146 0.40158
891 1 0.255857 0.203378 0.45064
892 1 0.196245 0.252107 0.454641
835 1 0.857013 0.00437909 0.449741
2235 1 0.851404 0.497751 0.149036
895 1 0.352536 0.204578 0.448285
893 1 0.303971 0.204501 0.404208
935 1 0.354556 0.296718 0.455992
896 1 0.31036 0.249119 0.455429
817 1 0.405132 0.0028334 0.393155
1181 1 0.508282 0.397766 0.489004
900 1 0.401684 0.247111 0.449798
901 1 0.498286 0.20103 0.402316
904 1 0.500485 0.257876 0.443999
987 1 0.641261 0.402704 0.450494
905 1 0.597487 0.195293 0.394656
902 1 0.546435 0.245496 0.396821
1174 1 0.357186 0.456671 0.492374
908 1 0.601355 0.24666 0.447984
952 1 0.689705 0.354836 0.45404