ITEM: TIMESTEP
5000
ITEM: NUMBER OF ATOMS
864
ITEM: BOX BOUNDS pp pp pp
0.0000000000000000e+00 3.1559999999999999e+01
0.0000000000000000e+00 3.1559999999999999e+01
0.0000000000000000e+00 3.1559999999999999e+01
ITEM: ATOMS id type xs ys zs
8 1 0.161438 0.0862255 0.0882956
27 1 0.0838105 0.176888 0.0849816
4 1 0.993336 0.0898617 0.0838861
7 1 0.245311 0.00156639 0.0798796
97 1 0.0134446 0.149384 0.173549
447 1 0.573781 0.50099 0.0879772
439 1 0.259203 0.508567 0.0879785
75 1 0.0868675 0.0117335 0.266649
78 1 0.262759 0.0701099 0.168662
274 1 0.420291 0.432708 0.487853
31 1 0.258389 0.155723 0.0900869
12 1 0.3452 0.0631145 0.0997155
105 1 0.34135 0.142531 0.180595
35 1 0.41234 0.157866 0.080557
593 1 0.6762 0.51487 0.33878
16 1 0.491625 0.0812549 0.0763012
20 1 0.671149 0.080089 0.0773576
93 1 0.840132 0.0047708 0.16948
26 1 0.0850412 0.245347 0.00362367
215 1 0.926336 0.331678 0.412034
37 1 0.492185 0.147319 -0.00842579
196 1 0.0175279 0.403944 0.402469
577 1 0.00196891 0.510033 0.307505
24 1 0.82565 0.0883391 0.0884419
281 1 0.661303 0.328594 0.485531
216 1 0.84431 0.425513 0.415774
3 1 0.0828043 0.00440375 0.0736796
28 1 0.991277 0.242436 0.0968309
73 1 0.990667 0.007485 0.171621
32 1 0.173405 0.255502 0.0794841
36 1 0.344208 0.247787 0.0782231
102 1 0.24769 0.246186 0.154805
106 1 0.41574 0.246967 0.171717
40 1 0.489709 0.244219 0.0787713
113 1 0.6614 0.176734 0.15938
39 1 0.575206 0.160666 0.0859878
44 1 0.661235 0.270297 0.0775386
110 1 0.58002 0.258297 0.158122
649 1 0.012639 0.494966 0.492354
43 1 0.746116 0.1756 0.0789791
48 1 0.830136 0.260218 0.0765943
114 1 0.737091 0.262543 0.159361
273 1 0.342063 0.341971 0.493962
47 1 0.90366 0.168534 0.0785522
71 1 0.902643 0.340041 0.0709811
51 1 0.0700556 0.332922 0.0815057
56 1 0.158331 0.388996 0.079895
52 1 0.982304 0.420627 0.057137
509 1 0.156896 0.489502 0.136082
18 1 0.74281 0.0706942 -0.00629906
125 1 0.164744 0.328062 0.167344
55 1 0.261541 0.333637 0.0920781
60 1 0.342034 0.429413 0.0877702
211 1 0.746648 0.347265 0.398026
81 1 0.325073 -0.0268482 0.193506
59 1 0.424477 0.326642 0.0885326
130 1 0.421111 0.427702 0.172571
63 1 0.568363 0.348667 0.0926986
79 1 0.248096 -0.0224905 0.259091
64 1 0.487211 0.421368 0.0865101
68 1 0.65613 0.414628 0.0816384
137 1 0.654303 0.341166 0.158014
67 1 0.745659 0.351237 0.0806296
138 1 0.744349 0.414502 0.176605
192 1 0.8266 0.265017 0.410554
167 1 0.90811 0.00101999 0.415033
661 1 0.512203 0.505945 0.503296
212 1 0.668053 0.418008 0.413033
72 1 0.822004 0.426746 0.0979295
91 1 0.766508 0.00835569 0.235464
269 1 0.16246 0.342967 0.526239
209 1 0.665336 0.327048 0.32651
207 1 0.588122 0.348437 0.415613
74 1 0.0952242 0.065201 0.162313
146 1 0.0801013 0.100944 0.364185
80 1 0.169996 0.0819899 0.24736
76 1 -0.00627101 0.0880464 0.265661
99 1 0.0930689 0.149846 0.247469
182 1 0.580261 0.260361 0.340947
238 1 0.901066 0.0798728 0.518477
150 1 0.255204 0.0795041 0.336664
84 1 0.342555 0.0658432 0.259744
82 1 0.421671 0.0658988 0.17338
154 1 0.429154 0.0675978 0.33242
181 1 0.488539 0.154635 0.33049
208 1 0.495237 0.43688 0.412595
86 1 0.590257 0.0807058 0.149908
88 1 0.51259 0.0789256 0.245925
92 1 0.660332 0.0823295 0.241436
158 1 0.584064 0.090417 0.34345
203 1 0.411879 0.332945 0.396312
188 1 0.655852 0.243037 0.412978
187 1 0.734518 0.165552 0.414368
90 1 0.743176 0.0945045 0.170461
96 1 0.822295 0.0945315 0.264631
162 1 0.733521 0.0830499 0.332792
507 1 0.0822025 0.485675 0.22595
94 1 0.902695 0.101553 0.173683
169 1 -0.00771547 0.170113 0.341082
166 1 0.909077 0.0724461 0.34258
189 1 0.824181 0.189518 0.33603
98 1 0.0755828 0.246185 0.162203
100 1 -0.00614583 0.245962 0.239169
101 1 0.169767 0.158689 0.163693
103 1 0.254579 0.171878 0.245605
104 1 0.160401 0.243355 0.249287
197 1 0.168953 0.320389 0.338988
109 1 0.508538 0.146212 0.167992
108 1 0.340499 0.240961 0.258205
107 1 0.416763 0.158248 0.251142
178 1 0.40992 0.227737 0.335083
205 1 0.504887 0.337459 0.342716
131 1 0.425298 0.354023 0.256127
111 1 0.571956 0.171563 0.259909
112 1 0.499451 0.250202 0.261093
116 1 0.666047 0.248896 0.239607
185 1 0.666786 0.157094 0.322775
117 1 0.825937 0.182739 0.170653
186 1 0.742562 0.253822 0.342261
115 1 0.75016 0.169852 0.24641
139 1 0.745418 0.33017 0.248625
213 1 0.825889 0.336031 0.331325
118 1 0.902618 0.258051 0.163629
141 1 0.829599 0.33071 0.171298
119 1 0.925201 0.163329 0.254899
120 1 0.825107 0.258613 0.256152
143 1 0.912288 0.328582 0.244263
65 1 0.667445 0.348549 -0.00939564
123 1 0.076116 0.328802 0.24979
122 1 0.0865304 0.405842 0.163212
124 1 0.993807 0.415546 0.244533
183 1 0.572025 0.160992 0.425354
126 1 0.235884 0.416539 0.163674
202 1 0.418052 0.426824 0.341439
128 1 0.170479 0.394709 0.250472
127 1 0.257216 0.32646 0.248179
198 1 0.23546 0.423556 0.328363
129 1 0.337046 0.331382 0.175975
132 1 0.332025 0.416132 0.25554
136 1 0.511009 0.420373 0.262645
199 1 0.247009 0.320075 0.438014
133 1 0.500125 0.341324 0.172082
134 1 0.592803 0.425897 0.18278
135 1 0.587041 0.332221 0.255455
206 1 0.587834 0.418481 0.344624
210 1 0.756794 0.437752 0.337816
140 1 0.674086 0.422542 0.263302
201 1 0.331046 0.328549 0.329717
121 1 0.991086 0.339724 0.168643
142 1 0.909251 0.425305 0.168169
214 1 0.925405 0.420774 0.334964
144 1 0.825025 0.414037 0.249447
277 1 0.486381 0.342071 0.468481
152 1 0.17141 0.0717786 0.437321
173 1 0.183312 0.158355 0.33858
171 1 0.0623592 0.177528 0.438784
23 1 0.916123 0.0100458 0.0875589
175 1 0.247202 0.150793 0.42919
177 1 0.340037 0.150272 0.334795
200 1 0.168082 0.407627 0.408993
179 1 0.415995 0.15147 0.421597
184 1 0.495603 0.236505 0.405348
156 1 0.326492 0.0753814 0.41412
204 1 0.317408 0.409393 0.399456
160 1 0.50029 0.0740544 0.423985
579 1 0.0812674 0.502355 0.399116
193 1 0.00340028 0.317908 0.331285
164 1 0.660379 0.0967248 0.435224
190 1 0.928455 0.246296 0.322292
194 1 0.0899839 0.405512 0.32326
172 1 0.981661 0.240426 0.426171
148 1 0.987957 0.0945665 0.441021
168 1 0.821119 0.101288 0.411973
195 1 0.0749263 0.309168 0.405708
170 1 0.0934586 0.225196 0.342333
176 1 0.172544 0.241387 0.422641
174 1 0.261874 0.243097 0.327719
180 1 0.32536 0.239468 0.422513
191 1 0.899903 0.169129 0.413
29 1 0.174737 0.167096 0.000711106
19 1 0.755556 0.00593066 0.0916625
41 1 0.668529 0.161479 0.00515991
435 1 0.0724876 0.478155 0.0802024
151 1 0.258242 -0.0093355 0.422527
25 1 -0.00569829 0.167287 0.00325893
286 1 0.929209 0.418505 0.503722
254 1 0.574196 0.254549 0.486313
599 1 0.9254 0.499355 0.410407
165 1 0.815596 0.0066873 0.337285
62 1 0.577483 0.411545 0.00184136
2 1 0.0889204 0.0919923 -4.71042e-05
443 1 0.424613 0.511087 0.0924406
581 1 0.159468 0.498713 0.299037
145 1 0.994093 0.00955865 0.33955
13 1 0.499478 -0.00648279 -0.00382073
451 1 0.744276 0.501257 0.0968568
278 1 0.575458 0.422923 0.497339
246 1 0.255474 0.23626 0.496351
38 1 0.575638 0.258191 0.0194139
42 1 0.752337 0.248789 -0.00285881
95 1 0.907684 0.0147957 0.243316
665 1 0.657806 0.48839 0.501577
22 1 0.901162 0.0835973 -0.0117936
229 1 0.494862 -0.00506764 0.500355
258 1 0.751469 0.259739 0.481952
61 1 0.491421 0.342539 0.00601961
6 1 0.254706 0.075049 0.000902727
441 1 0.324555 0.502894 0.00603839
265 1 -0.0050014 0.327976 0.503617
33 1 0.340118 0.152605 -0.00263779
10 1 0.414414 0.0724396 0.00220862
282 1 0.755398 0.403644 0.496063
234 1 0.743593 0.0894626 0.498051
250 1 0.41101 0.258054 0.48095
45 1 0.818636 0.151903 -0.00925631
285 1 0.849596 0.34297 0.505277
445 1 0.502475 0.497378 0.000438769
253 1 0.49715 0.164858 0.498744
14 1 0.593708 0.0674889 0.00508038
49 1 0.99358 0.330803 -0.00529985
453 1 0.81853 0.512527 0.0090983
433 1 1.00272 0.491726 -0.0124844
224 1 0.175651 0.0743189 0.600977
220 1 -0.000985503 0.0807226 0.591143
371 1 0.424204 0.0023859 0.917568
5 1 0.165604 -0.00119156 1.00477
228 1 0.341701 0.069992 0.574705
294 1 0.256752 0.0823269 0.664367
412 1 0.0024726 0.406413 0.917797
430 1 0.921285 0.422017 0.846588
232 1 0.499941 0.076541 0.576622
255 1 0.582566 0.163546 0.582789
302 1 0.581081 0.0864224 0.656746
221 1 0.173523 -0.0159765 0.508746
369 1 0.345525 -0.00451795 0.838884
236 1 0.668909 0.0865249 0.585032
240 1 0.822959 0.0834417 0.58468
431 1 0.920188 0.32605 0.904966
426 1 0.750186 0.412188 0.828568
365 1 0.168438 -0.00346441 0.840887
801 1 0.335226 0.501816 0.814738
729 1 0.351818 0.501833 0.653544
725 1 0.17453 0.512524 0.654948
432 1 0.839599 0.422184 0.907712
243 1 0.0850075 0.165912 0.597307
383 1 0.909034 0.00810561 0.916987
314 1 0.10052 0.239735 0.671301
267 1 0.0851117 0.337741 0.595076
341 1 0.172141 0.34098 0.675966
671 1 0.926522 0.501499 0.587708
247 1 0.258229 0.178718 0.596138
248 1 0.162598 0.24533 0.590585
271 1 0.268059 0.319121 0.582253
251 1 0.412484 0.189644 0.560463
252 1 0.336826 0.255343 0.575163
275 1 0.419437 0.337642 0.572606
381 1 0.819212 -0.00916421 0.827356
329 1 0.659516 0.168592 0.663493
256 1 0.502756 0.268957 0.569899
260 1 0.6593 0.250853 0.586446
30 1 0.265093 0.249546 1.00568
739 1 0.76195 0.502983 0.741972
293 1 0.160647 -0.0255667 0.672048
259 1 0.760871 0.170533 0.589103
264 1 0.828122 0.252239 0.583887
283 1 0.754237 0.326604 0.569843
223 1 0.255988 -0.0146046 0.59724
807 1 0.59304 0.507567 0.928149
244 1 1.01475 0.251797 0.591675
263 1 0.899628 0.171434 0.584151
437 1 0.162588 0.495653 1.0056
268 1 0.0158371 0.409997 0.587064
338 1 0.0830935 0.408634 0.683367
21 1 0.83563 0.00103418 1.00694
815 1 0.925508 0.503267 0.914164
272 1 0.176385 0.42605 0.589013
276 1 0.346263 0.428286 0.579619
289 1 -0.0124303 0.00536951 0.675371
379 1 0.750508 -0.00261276 0.91632
659 1 0.434688 0.500272 0.593251
239 1 0.916425 -0.00162935 0.592088
424 1 0.507879 0.426269 0.918693
346 1 0.415523 0.402426 0.680926
280 1 0.492036 0.405902 0.570664
311 1 0.902365 0.00962331 0.754966
349 1 0.50386 0.349694 0.659583
279 1 0.583658 0.342495 0.56913
284 1 0.65543 0.409674 0.588794
350 1 0.591223 0.423848 0.673231
428 1 0.662403 0.421882 0.912783
667 1 0.742143 0.487174 0.58041
663 1 0.588119 0.505314 0.583778
288 1 0.839587 0.411534 0.578788
354 1 0.758261 0.414569 0.65341
287 1 0.932093 0.321602 0.596335
337 1 0.0075109 0.333721 0.67333
358 1 0.952869 0.432685 0.669619
425 1 0.661434 0.329571 0.844926
261 1 0.829385 0.168278 0.488854
46 1 0.920843 0.240626 1.00392
290 1 0.0828096 0.06288 0.673319
296 1 0.173764 0.0852443 0.761531
292 1 1.00187 0.0944469 0.751236
388 1 0.0109663 0.258651 0.92117
795 1 0.0940852 0.4933 0.914706
319 1 0.264169 0.159269 0.750103
325 1 0.498895 0.185841 0.637728
300 1 0.35637 0.0760479 0.740661
298 1 0.42196 0.0728009 0.660222
370 1 0.436322 0.0910237 0.834113
304 1 0.518033 0.0825557 0.74627
327 1 0.561964 0.185975 0.735455
308 1 0.639847 0.0900975 0.741414
306 1 0.725569 0.0833135 0.672576
378 1 0.732996 0.0831793 0.838208
405 1 0.823498 0.175657 0.827919
408 1 0.835276 0.245499 0.916161
312 1 0.82178 0.0942992 0.745279
310 1 0.911913 0.095858 0.653885
399 1 0.580855 0.168898 0.930916
315 1 0.0968826 0.17339 0.752903
320 1 0.175755 0.249425 0.760646
316 1 1.00467 0.249899 0.755766
317 1 0.172393 0.150631 0.674929
318 1 0.250965 0.254235 0.67919
324 1 0.328388 0.253204 0.761279
390 1 0.248252 0.236232 0.838103
343 1 0.249147 0.329325 0.756177
322 1 0.424265 0.255866 0.666597
321 1 0.342765 0.169297 0.663388
323 1 0.438955 0.172107 0.732011
328 1 0.501682 0.270726 0.74279
326 1 0.574958 0.269018 0.65196
353 1 0.662836 0.333148 0.670725
398 1 0.574031 0.259375 0.840862
333 1 0.83089 0.168244 0.666474
332 1 0.655814 0.2671 0.755833
331 1 0.74824 0.165506 0.742411
330 1 0.750319 0.260263 0.656714
334 1 0.9281 0.237149 0.660883
313 1 0.0145658 0.168047 0.676317
335 1 0.914171 0.17421 0.747165
336 1 0.820928 0.250906 0.738056
406 1 0.904672 0.256656 0.819414
339 1 0.0798289 0.318734 0.759301
340 1 -0.00354494 0.422605 0.754827
410 1 0.082795 0.414698 0.823086
429 1 0.829948 0.330664 0.841435
342 1 0.261728 0.418946 0.640805
344 1 0.182489 0.4134 0.746541
348 1 0.319717 0.418326 0.750468
416 1 0.179214 0.426211 0.921215
345 1 0.341657 0.333879 0.669627
347 1 0.410091 0.331347 0.757079
352 1 0.503994 0.423315 0.735286
407 1 0.917069 0.179411 0.912206
351 1 0.58093 0.347237 0.749483
422 1 0.593449 0.41894 0.82791
356 1 0.666576 0.417367 0.746618
419 1 0.423739 0.340337 0.913037
418 1 0.417385 0.415114 0.833478
355 1 0.73797 0.331637 0.740052
360 1 0.847641 0.422447 0.739945
420 1 0.330152 0.423257 0.91679
357 1 0.83244 0.333831 0.654878
811 1 0.754667 0.519214 0.909407
359 1 0.907316 0.322789 0.746382
411 1 0.0790227 0.335084 0.895832
362 1 0.0853524 0.0919827 0.82253
389 1 0.163856 0.164233 0.835998
387 1 0.0754147 0.162168 0.918781
368 1 0.176163 0.090948 0.918136
364 1 -0.00934086 0.0960576 0.927492
366 1 0.253152 0.0953684 0.841788
372 1 0.343054 0.078918 0.909832
409 1 -0.0138233 0.341163 0.820151
402 1 0.741898 0.256519 0.823757
423 1 0.589217 0.332772 0.923536
393 1 0.339999 0.152773 0.828629
395 1 0.415648 0.179572 0.924337
655 1 0.247035 0.506721 0.578784
397 1 0.513308 0.162673 0.842204
376 1 0.505414 0.0823394 0.917979
374 1 0.583505 0.080737 0.843365
380 1 0.661713 0.0790911 0.925756
384 1 0.821325 0.083245 0.902326
401 1 0.659029 0.172436 0.82894
403 1 0.746192 0.160779 0.902925
414 1 0.259375 0.431857 0.836854
235 1 0.754856 0.0030327 0.589266
413 1 0.175297 0.333492 0.842505
385 1 0.995287 0.162082 0.836492
382 1 0.903577 0.101156 0.833084
427 1 0.737375 0.323357 0.915267
386 1 0.0820597 0.237425 0.838217
392 1 0.185192 0.242449 0.917232
391 1 0.257434 0.180646 0.93297
415 1 0.264986 0.329339 0.912972
404 1 0.672493 0.240232 0.920755
421 1 0.499535 0.347936 0.830112
417 1 0.336478 0.339491 0.835475
396 1 0.338546 0.25117 0.903257
394 1 0.417487 0.245212 0.834066
400 1 0.505209 0.252964 0.932649
803 1 0.41089 0.496616 0.908165
69 1 0.824663 0.322739 0.988861
813 1 0.839397 0.49961 0.821755
50 1 0.0805993 0.406841 0.994572
218 1 0.0992153 0.0760878 0.526009
242 1 0.0951183 0.251761 0.507301
257 1 0.662619 0.174212 0.506795
245 1 0.162759 0.158071 0.521364
226 1 0.422351 0.094218 0.502112
66 1 0.745013 0.432227 0.983943
9 1 0.329976 -0.00223538 1.01446
58 1 0.414513 0.43021 0.99448
34 1 0.414277 0.264927 0.998528
57 1 0.328252 0.339758 0.994197
54 1 0.245942 0.412929 1.02047
222 1 0.24869 0.082338 0.512786
233 1 0.665803 -0.00376117 0.511969
241 1 -0.00966189 0.170492 0.511503
262 1 0.905144 0.244524 0.496576
53 1 0.166705 0.337204 0.987021
266 1 0.0884584 0.411749 0.48984
249 1 0.332112 0.160347 0.494389
270 1 0.254152 0.40736 0.501141
230 1 0.58441 0.0863729 0.504007
70 1 0.899879 0.418044 0.996468
506 1 0.0754712 0.588742 0.148394
161 1 0.662147 0.991252 0.318509
436 1 0.991859 0.599681 0.0869565
657 1 0.332524 0.498989 0.489068
705 1 0.330058 0.823291 0.50825
157 1 0.517677 0.989913 0.335236
440 1 0.148382 0.580293 0.0709429
681 1 0.340234 0.662741 0.504388
444 1 0.345836 0.585545 0.0710092
463 1 0.227731 0.664247 0.0794994
519 1 0.586058 0.502965 0.252176
448 1 0.497003 0.583764 0.0826611
628 1 0.992205 0.921241 0.420952
648 1 0.828651 0.919907 0.421398
163 1 0.744092 1.01767 0.423351
452 1 0.66397 0.584151 0.0854776
685 1 0.490131 0.666138 0.49372
518 1 0.597297 0.588691 0.166541
466 1 0.416753 0.741358 -0.00732778
545 1 0.658345 0.671593 0.154494
475 1 0.746259 0.673783 0.0844764
522 1 0.746007 0.592713 0.160866
549 1 0.836981 0.685925 0.160466
643 1 0.754575 0.832372 0.414678
456 1 0.826396 0.600959 0.0841635
479 1 0.920636 0.68452 0.0751087
526 1 0.919346 0.599994 0.160964
644 1 0.678087 0.909178 0.418936
459 1 0.0805742 0.675554 0.0685871
460 1 0.00294171 0.762931 0.096985
483 1 0.0761511 0.83127 0.0796381
523 1 0.745923 0.518456 0.256129
557 1 0.141399 0.853733 0.162249
464 1 0.160556 0.750136 0.0853454
468 1 0.33898 0.748647 0.0773119
589 1 0.504376 0.513674 0.335663
77 1 0.170315 0.991642 0.174952
467 1 0.415144 0.667305 0.0746518
491 1 0.414684 0.828099 0.0791655
471 1 0.578022 0.673361 0.0853175
472 1 0.488762 0.751873 0.0891779
495 1 0.574709 0.836569 0.082832
542 1 0.592226 0.766294 0.169517
515 1 0.417063 0.50386 0.24827
476 1 0.663283 0.752548 0.0843595
480 1 0.826459 0.75738 0.0786897
573 1 0.818588 0.826829 0.167742
499 1 0.747851 0.820492 0.080963
503 1 0.929011 0.83641 0.0850677
87 1 0.593701 0.999629 0.227438
485 1 0.16268 0.828464 -0.00820376
155 1 0.414162 0.998833 0.419519
484 1 0.00348151 0.929005 0.0730909
554 1 0.0756922 0.937309 0.184573
677 1 0.164341 0.686146 0.497435
561 1 0.340097 0.818858 0.160351
488 1 0.167568 0.924542 0.0818599
487 1 0.256801 0.816275 0.106202
558 1 0.233012 0.908866 0.176011
15 1 0.591006 0.998958 0.076727
650 1 0.0823513 0.579719 0.495432
565 1 0.498602 0.829787 0.154036
492 1 0.317648 0.909817 0.0864261
496 1 0.500601 0.90199 0.0732694
562 1 0.412712 0.910043 0.158701
566 1 0.588112 0.909299 0.157681
458 1 0.0832635 0.76245 -0.00536724
638 1 0.600969 0.903544 0.354565
500 1 0.670625 0.921381 0.0755752
569 1 0.67511 0.838292 0.163202
570 1 0.750086 0.912363 0.150149
591 1 0.587788 0.4991 0.414533
153 1 0.329259 0.988274 0.332366
504 1 0.840859 0.919152 0.0825375
159 1 0.581739 0.990962 0.445671
678 1 0.244041 0.755552 0.492381
529 1 1.00497 0.677313 0.166598
531 1 0.07309 0.669523 0.24557
217 1 -0.014662 1.01081 0.507962
510 1 0.252301 0.587882 0.155133
537 1 0.336221 0.655056 0.161413
635 1 0.421389 0.827189 0.435774
512 1 0.15179 0.575083 0.225054
582 1 0.256325 0.596716 0.339458
147 1 0.0828214 0.995686 0.416715
514 1 0.421643 0.577997 0.17573
516 1 0.335858 0.589028 0.262514
520 1 0.493647 0.581161 0.258473
640 1 0.498833 0.914324 0.419963
541 1 0.499589 0.671494 0.162831
524 1 0.665777 0.58531 0.253006
543 1 0.578093 0.667836 0.243909
617 1 0.668092 0.66625 0.335464
590 1 0.586034 0.585959 0.330166
528 1 0.85166 0.582573 0.241116
594 1 0.763105 0.590536 0.331946
621 1 0.851383 0.660979 0.317887
547 1 0.752721 0.67615 0.254529
634 1 0.414726 0.893327 0.346087
505 1 0.992652 0.501698 0.153913
601 1 0.00531612 0.671299 0.327293
508 1 0.00146523 0.584775 0.231754
616 1 0.494902 0.742484 0.41121
636 1 0.337302 0.911287 0.425532
533 1 0.158801 0.665232 0.157837
530 1 0.0849331 0.743304 0.161844
555 1 0.0810787 0.833017 0.266956
534 1 0.252396 0.73478 0.163916
535 1 0.247342 0.657316 0.24258
536 1 0.153066 0.748198 0.235323
540 1 0.344996 0.771647 0.251424
539 1 0.412501 0.667503 0.244799
538 1 0.418285 0.745581 0.178105
544 1 0.509851 0.764078 0.249549
614 1 0.590128 0.746759 0.337269
548 1 0.671571 0.757402 0.254722
567 1 0.596491 0.835414 0.248246
546 1 0.744338 0.737796 0.169719
552 1 0.836976 0.758268 0.243423
571 1 0.757024 0.832089 0.252948
550 1 0.92053 0.763633 0.167195
551 1 0.931517 0.663495 0.242031
532 1 0.999279 0.754912 0.241758
622 1 0.917738 0.748216 0.323073
625 1 0.994708 0.82005 0.331455
575 1 0.917396 0.847186 0.259177
553 1 0.0101672 0.841929 0.174316
556 1 0.984401 0.928738 0.260982
626 1 0.0708511 0.929527 0.333947
560 1 0.164984 0.91756 0.260416
630 1 0.260844 0.904033 0.326993
631 1 0.249785 0.818949 0.41353
559 1 0.24399 0.82798 0.247469
564 1 0.3493 0.887298 0.252787
629 1 0.15878 0.829939 0.328109
563 1 0.435653 0.837617 0.242795
568 1 0.529818 0.917723 0.255987
85 1 0.512396 0.993538 0.165561
606 1 0.247686 0.758987 0.314569
612 1 0.341363 0.743177 0.426654
637 1 0.510227 0.83198 0.334838
572 1 0.665597 0.911727 0.242928
642 1 0.753677 0.92385 0.336797
641 1 0.674082 0.825033 0.326528
646 1 0.90359 0.925269 0.338858
576 1 0.831333 0.922414 0.249263
574 1 0.915227 0.926981 0.168998
624 1 0.826401 0.751707 0.397414
578 1 0.0862946 0.582882 0.315702
627 1 0.0819569 0.845668 0.41458
603 1 0.0936841 0.654402 0.421918
584 1 0.164912 0.576183 0.401727
610 1 0.416054 0.751933 0.331251
607 1 0.253569 0.671521 0.423554
588 1 0.34343 0.591129 0.405301
609 1 0.331385 0.681866 0.332028
632 1 0.180677 0.912703 0.418785
618 1 0.747528 0.738555 0.33256
613 1 0.503042 0.669278 0.323856
586 1 0.42332 0.595398 0.332156
611 1 0.413794 0.676404 0.407969
633 1 0.337846 0.816963 0.355898
83 1 0.423754 0.979814 0.253545
592 1 0.47623 0.584465 0.425827
596 1 0.677767 0.58733 0.416497
497 1 0.65809 0.829925 0.00873286
647 1 0.903986 0.839839 0.421821
639 1 0.57015 0.817359 0.425551
645 1 0.826274 0.841857 0.339496
604 1 0.994982 0.73131 0.410631
619 1 0.75665 0.669487 0.426104
623 1 0.917231 0.658045 0.408061
600 1 0.840705 0.581706 0.425402
598 1 0.93061 0.584848 0.328531
580 1 0.00829666 0.578013 0.410014
620 1 0.666671 0.7605 0.419188
602 1 0.0862409 0.748851 0.326441
608 1 0.159593 0.757875 0.408032
615 1 0.589027 0.665875 0.425922
605 1 0.169569 0.665216 0.31617
585 1 0.330101 0.491018 0.336383
465 1 0.303666 0.668486 -0.00240861
461 1 0.171747 0.681962 -0.00193819
587 1 0.413864 0.504364 0.411745
658 1 0.406444 0.586248 0.5015
517 1 0.509599 0.495071 0.169527
455 1 0.903266 0.503181 0.0787316
527 1 0.920845 0.505298 0.239196
521 1 0.670779 0.505862 0.178327
89 1 0.672336 0.99838 0.162636
710 1 0.581452 0.900873 0.504227
511 1 0.253146 0.505444 0.241787
595 1 0.745753 0.497523 0.431816
597 1 0.84824 0.497352 0.334459
583 1 0.252236 0.504678 0.404732
493 1 0.497166 0.819134 -0.00510951
513 1 0.337865 0.504645 0.167089
690 1 0.766613 0.755488 0.501318
11 1 0.428482 0.996899 0.0818681
525 1 0.827145 0.507916 0.166171
149 1 0.173619 1.00125 0.340381
654 1 0.241247 0.574597 0.494267
498 1 0.757527 0.914189 0.00253841
473 1 0.668447 0.67002 0.00439439
689 1 0.657595 0.667326 0.503846
666 1 0.748249 0.580184 0.498453
477 1 0.837087 0.672288 0.000204588
489 1 0.326295 0.848187 -6.21674e-05
486 1 0.232299 0.905246 0.00251648
225 1 0.336269 0.980923 0.508226
474 1 0.742045 0.748774 0.000520146
478 1 0.939631 0.768079 0.0058235
706 1 0.41884 0.904961 0.504655
717 1 0.832865 0.839422 0.507892
709 1 0.496406 0.82318 0.510353
450 1 0.738751 0.586737 0.0169708
446 1 0.574398 0.596889 -0.00241217
673 1 0.992894 0.66397 0.498077
457 1 0.992734 0.675651 -0.010935
653 1 0.160942 0.492642 0.502761
652 1 0.00192062 0.569108 0.579951
656 1 0.166208 0.582374 0.570708
307 1 0.736975 1.00316 0.756242
749 1 0.175792 0.665305 0.649367
726 1 0.255246 0.586013 0.653045
660 1 0.344047 0.588237 0.590206
297 1 0.33121 0.993299 0.670519
664 1 0.50462 0.586783 0.586156
683 1 0.428053 0.670476 0.582423
730 1 0.429837 0.595383 0.663675
864 1 0.817504 0.911938 0.909126
687 1 0.574387 0.666117 0.577209
734 1 0.579964 0.581684 0.667459
757 1 0.49436 0.677318 0.676844
861 1 0.834358 0.829254 0.823202
668 1 0.658861 0.572286 0.577218
738 1 0.740857 0.579952 0.664636
672 1 0.808909 0.576021 0.586743
691 1 0.756753 0.669257 0.569812
862 1 0.906193 0.919685 0.827659
695 1 0.924608 0.659069 0.583735
454 1 0.918528 0.586559 1.01163
742 1 0.9167 0.587567 0.664481
675 1 0.0811871 0.648129 0.576952
699 1 0.0844922 0.835589 0.577869
746 1 0.0773546 0.73814 0.671467
679 1 0.255384 0.664626 0.579363
680 1 0.163356 0.756846 0.583198
684 1 0.324007 0.750131 0.588403
303 1 0.586953 0.997178 0.766797
797 1 0.167158 0.499253 0.841653
718 1 0.908129 0.924625 0.496225
754 1 0.396072 0.756393 0.667872
373 1 0.490701 1.00647 0.8278
777 1 0.333238 0.843663 0.66885
761 1 0.667222 0.667331 0.642151
688 1 0.493864 0.741144 0.570794
711 1 0.594104 0.832633 0.585186
781 1 0.493766 0.803546 0.672116
701 1 0.165567 0.827312 0.494663
697 1 0.997905 0.826304 0.502165
692 1 0.660597 0.745795 0.577324
696 1 0.843283 0.753102 0.582544
227 1 0.43547 0.979675 0.581319
502 1 0.908183 0.922271 0.999584
676 1 0.000107688 0.747876 0.588904
731 1 0.424385 0.497945 0.750238
741 1 0.833395 0.5016 0.660831
704 1 0.17185 0.893267 0.57468
700 1 -0.00996608 0.916112 0.588976
770 1 0.0724496 0.915573 0.671997
773 1 0.153204 0.838253 0.66203
703 1 0.256089 0.832071 0.586621
774 1 0.238904 0.910395 0.684583
733 1 0.506523 0.507515 0.663128
708 1 0.339529 0.906204 0.584151
707 1 0.399191 0.82098 0.582811
501 1 0.831926 0.841242 1.0096
723 1 0.0933265 0.50216 0.755678
712 1 0.494604 0.890684 0.588076
782 1 0.578273 0.889985 0.681502
716 1 0.665751 0.927487 0.595482
715 1 0.754237 0.840789 0.583581
785 1 0.668782 0.834454 0.668325
719 1 0.922981 0.829427 0.57729
720 1 0.838984 0.918768 0.586893
722 1 0.0960899 0.583661 0.675186
728 1 0.184016 0.588284 0.751979
724 1 1.00833 0.58684 0.74665
747 1 0.0979848 0.667178 0.758132
745 1 0.0119974 0.644047 0.663897
794 1 0.0709391 0.582287 0.839842
817 1 0.0141503 0.679454 0.842662
751 1 0.241914 0.67108 0.746649
863 1 0.907199 0.850402 0.918649
753 1 0.318249 0.670628 0.665312
732 1 0.324982 0.584822 0.73152
755 1 0.420945 0.670432 0.764068
802 1 0.416727 0.580475 0.837323
291 1 0.0975734 0.995366 0.763593
736 1 0.496306 0.591954 0.762924
361 1 -0.00201701 1.02469 0.842722
740 1 0.67436 0.589269 0.754816
810 1 0.762456 0.583447 0.833554
744 1 0.836438 0.592439 0.742259
814 1 0.914483 0.573762 0.83466
748 1 1.00129 0.736391 0.74631
750 1 0.255252 0.754072 0.677876
752 1 0.162152 0.761552 0.744697
822 1 0.254626 0.755978 0.836936
756 1 0.330034 0.74687 0.752218
775 1 0.248383 0.823161 0.743604
849 1 0.32714 0.840321 0.826569
779 1 0.417238 0.842429 0.751711
826 1 0.414011 0.75835 0.846062
825 1 0.315711 0.666342 0.858908
758 1 0.592714 0.742625 0.654051
759 1 0.582436 0.662375 0.739942
760 1 0.493534 0.744983 0.765543
830 1 0.592923 0.741716 0.82485
783 1 0.577075 0.821045 0.756387
833 1 0.671831 0.672261 0.835031
829 1 0.495253 0.665969 0.845867
765 1 0.83173 0.66432 0.652049
762 1 0.748053 0.7522 0.636986
763 1 0.760846 0.680504 0.750392
764 1 0.659887 0.747417 0.733045
837 1 0.8286 0.670251 0.836038
767 1 0.918194 0.655369 0.763529
768 1 0.845335 0.74736 0.744368
766 1 0.920358 0.73653 0.671052
860 1 0.688037 0.886294 0.915399
859 1 0.76597 0.817238 0.920514
771 1 0.0646205 0.830908 0.745547
776 1 0.160604 0.908317 0.761403
769 1 0.998919 0.825484 0.667872
231 1 0.575811 0.985921 0.582158
780 1 0.33282 0.919069 0.757454
674 1 0.0759495 0.743355 0.497119
778 1 0.422782 0.903997 0.665355
850 1 0.41852 0.913186 0.843639
853 1 0.507291 0.821833 0.835258
855 1 0.596084 0.822965 0.914971
784 1 0.498518 0.91069 0.757596
786 1 0.750594 0.922165 0.675803
858 1 0.745758 0.899923 0.818036
787 1 0.75152 0.826529 0.731339
788 1 0.657401 0.919169 0.752144
857 1 0.663105 0.828209 0.814141
789 1 0.83487 0.83168 0.665768
790 1 0.923134 0.921409 0.679912
854 1 0.579487 0.910524 0.829426
792 1 0.836199 0.908801 0.738694
772 1 1.00444 0.928961 0.760354
791 1 0.925345 0.833548 0.749994
819 1 0.0896021 0.659998 0.927737
796 1 1.00069 0.58758 0.918165
800 1 0.162345 0.588075 0.910831
798 1 0.258508 0.574418 0.838455
821 1 0.159433 0.666792 0.835351
823 1 0.231701 0.664593 0.915495
804 1 0.336038 0.572121 0.927067
799 1 0.252415 0.502552 0.922723
806 1 0.599115 0.592234 0.83138
808 1 0.51488 0.573781 0.905999
301 1 0.509542 0.980289 0.669398
219 1 0.090868 0.984565 0.59396
727 1 0.237532 0.503111 0.73528
812 1 0.680118 0.59335 0.92631
237 1 0.826915 1.00224 0.508483
299 1 0.41464 0.986909 0.739009
702 1 0.250372 0.907868 0.501792
839 1 0.912228 0.658416 0.915866
816 1 0.840104 0.589635 0.92514
805 1 0.50583 0.49195 0.828222
841 1 -0.000345043 0.83973 0.835937
843 1 0.0761156 0.84662 0.913416
818 1 0.0829695 0.760889 0.827487
824 1 0.155016 0.766364 0.909131
820 1 0.00520419 0.756489 0.911524
847 1 0.254386 0.837716 0.911024
828 1 0.331063 0.755307 0.932118
714 1 0.747206 0.921181 0.504664
851 1 0.403862 0.839958 0.923591
827 1 0.403216 0.65709 0.919495
367 1 0.245411 1.01237 0.917402
836 1 0.674924 0.747185 0.913205
832 1 0.513522 0.753928 0.920514
831 1 0.592027 0.663304 0.916806
363 1 0.0934826 1.00071 0.92829
309 1 0.835752 1.01099 0.671752
698 1 0.0844588 0.912069 0.503503
835 1 0.761646 0.676531 0.914536
834 1 0.750704 0.750988 0.833555
838 1 0.917683 0.745087 0.843774
840 1 0.84801 0.755991 0.938616
844 1 1.00059 0.925376 0.920799
845 1 0.170185 0.83374 0.829295
651 1 0.0787717 0.497741 0.59736
842 1 0.082084 0.924615 0.829304
856 1 0.493985 0.900644 0.918405
848 1 0.172114 0.910048 0.922029
17 1 0.661802 0.994366 0.981425
852 1 0.333991 0.936865 0.933126
846 1 0.250273 0.932136 0.834838
743 1 0.914218 0.503021 0.747685
375 1 0.566156 0.988628 0.914249
737 1 0.669221 0.505928 0.665441
793 1 0.00219839 0.491731 0.830799
809 1 0.670767 0.501505 0.836585
735 1 0.579409 0.500456 0.746565
721 1 0.0085896 0.513411 0.676861
305 1 0.658597 1.00326 0.667589
295 1 0.252897 1.00863 0.759789
377 1 0.662489 0.979734 0.853821
682 1 0.41388 0.742856 0.501893
670 1 0.928504 0.574558 0.491102
434 1 0.0701255 0.580899 0.996519
490 1 0.411533 0.916053 1.00204
693 1 0.848836 0.665378 0.502184
449 1 0.664601 0.499375 1.00882
686 1 0.572649 0.743971 0.500575
470 1 0.580012 0.741283 1.00007
662 1 0.588777 0.586828 0.484521
438 1 0.240351 0.591258 1.00801
469 1 0.490313 0.67177 0.992856
482 1 0.103311 0.91569 1.00421
494 1 0.573579 0.908911 0.99986
462 1 0.246305 0.759484 1.0032
713 1 0.670971 0.834115 0.494022
694 1 0.916383 0.748092 0.506766
669 1 0.833478 0.494372 0.5066
481 1 1.00931 0.847577 0.994134
442 1 0.431205 0.585578 0.991856
1 1 0.995564 1.01919 0.994551
