ITEM: TIMESTEP
6000
ITEM: NUMBER OF ATOMS
864
ITEM: BOX BOUNDS pp pp pp
0.0000000000000000e+00 3.1559999999999999e+01
0.0000000000000000e+00 3.1559999999999999e+01
0.0000000000000000e+00 3.1559999999999999e+01
ITEM: ATOMS id type xs ys zs
4 1 -0.00626291 0.088473 0.0931327
163 1 0.740828 -0.00266367 0.410199
449 1 0.674453 0.510628 0.017745
8 1 0.156933 0.086908 0.086272
78 1 0.242065 0.078658 0.162298
12 1 0.322648 0.0951485 0.075101
26 1 0.0900558 0.25193 0.00267121
455 1 0.908259 0.493091 0.0894194
82 1 0.409222 0.090708 0.14938
105 1 0.320177 0.170746 0.175596
45 1 0.821593 0.150314 0.00249135
16 1 0.496833 0.0826121 0.0738585
20 1 0.660524 0.0758566 0.067819
591 1 0.576797 0.503825 0.419048
77 1 0.178038 -0.00907605 0.178942
519 1 0.574056 0.486998 0.264381
273 1 0.330993 0.329087 0.521738
24 1 0.839287 0.0695646 0.0816356
69 1 0.819642 0.332135 -0.00433425
523 1 0.7425 0.496428 0.256809
94 1 0.925398 0.0948582 0.191821
11 1 0.409374 0.00100883 0.085893
167 1 0.91636 0.0153659 0.41749
147 1 0.0951898 -0.00950309 0.42181
27 1 0.0909385 0.171039 0.0728385
28 1 0.994655 0.254806 0.0791175
51 1 0.0838717 0.341176 0.0841015
31 1 0.247228 0.163749 0.0744673
32 1 0.173225 0.250961 0.0802027
597 1 0.825564 0.493496 0.335333
505 1 0.988252 0.519744 0.162173
36 1 0.322961 0.256302 0.0833232
35 1 0.412711 0.18126 0.0850824
106 1 0.446068 0.250576 0.170172
129 1 0.339005 0.334079 0.156632
595 1 0.750609 0.505054 0.422231
109 1 0.502399 0.162361 0.153551
40 1 0.494321 0.264561 0.0783816
39 1 0.57507 0.165915 0.0613774
110 1 0.584098 0.259493 0.176328
113 1 0.657966 0.168006 0.160559
44 1 0.679674 0.248854 0.0903173
43 1 0.736147 0.159565 0.0949395
41 1 0.672892 0.157898 -0.0046311
54 1 0.257301 0.406573 0.00537177
70 1 0.92504 0.418619 0.00283372
451 1 0.75454 0.498697 0.106485
97 1 0.00585931 0.187044 0.162106
47 1 0.905435 0.159765 0.0852861
48 1 0.820509 0.234241 0.0865285
585 1 0.347504 0.491479 0.33528
441 1 0.339931 0.496406 -0.00376999
122 1 0.084571 0.424043 0.165374
56 1 0.16411 0.4262 0.0888715
52 1 0.981435 0.415013 0.101723
125 1 0.176059 0.350516 0.168772
121 1 1.00173 0.326686 0.163714
55 1 0.257427 0.342173 0.08687
60 1 0.34343 0.423695 0.0691882
3 1 0.0942132 -0.00141088 0.0850058
59 1 0.420876 0.345332 0.0876704
130 1 0.403011 0.416825 0.166721
63 1 0.59029 0.341429 0.0805659
64 1 0.509639 0.418303 0.0779418
133 1 0.512906 0.334407 0.177657
137 1 0.670429 0.334572 0.179989
68 1 0.678925 0.422941 0.0967946
513 1 0.336803 0.504667 0.160128
67 1 0.747942 0.337052 0.0925506
72 1 0.831562 0.412899 0.0844753
216 1 0.831838 0.407555 0.408789
165 1 0.82818 0.000656259 0.338087
250 1 0.421703 0.249118 0.503545
443 1 0.420678 0.503973 0.0933469
71 1 0.912842 0.334145 0.0741515
53 1 0.175305 0.341502 0.00917185
142 1 0.912845 0.400796 0.185
226 1 0.422486 0.0815463 0.49772
190 1 0.920747 0.244997 0.350129
74 1 0.0832602 0.0967715 0.180108
210 1 0.730225 0.412285 0.349416
76 1 0.00876378 0.101894 0.261125
99 1 0.0910515 0.184129 0.245938
212 1 0.658531 0.409835 0.426498
80 1 0.170437 0.0780186 0.256314
150 1 0.264448 0.0703857 0.323148
173 1 0.167811 0.163017 0.342925
84 1 0.334229 0.0993376 0.236778
88 1 0.49615 0.0737092 0.233883
86 1 0.583407 0.090696 0.152755
158 1 0.574054 0.0808442 0.32615
92 1 0.66041 0.0810425 0.250001
213 1 0.835847 0.319173 0.345525
525 1 0.83977 0.478456 0.17288
90 1 0.745378 0.0844648 0.168733
96 1 0.823919 0.0726996 0.249337
162 1 0.738683 0.0772446 0.338349
166 1 0.904614 0.0855432 0.341692
119 1 0.923876 0.171647 0.256882
98 1 0.0860549 0.25799 0.161091
170 1 0.0820082 0.255262 0.332282
101 1 0.171313 0.173278 0.14839
103 1 0.233058 0.172076 0.255563
104 1 0.164353 0.269265 0.239343
102 1 0.24151 0.255503 0.159737
174 1 0.232091 0.245135 0.33178
197 1 0.162468 0.339533 0.343389
108 1 0.320297 0.257453 0.240075
107 1 0.425332 0.169711 0.224657
112 1 0.503396 0.251682 0.256857
205 1 0.493749 0.339058 0.349649
111 1 0.578484 0.169285 0.254664
116 1 0.674512 0.242967 0.259556
114 1 0.755914 0.259071 0.181023
117 1 0.827509 0.165637 0.167289
141 1 0.840155 0.329586 0.162579
115 1 0.745644 0.165517 0.251868
120 1 0.833229 0.2365 0.282471
118 1 0.909699 0.237838 0.159148
100 1 0.00448425 0.248139 0.251252
123 1 0.0804762 0.334847 0.236133
124 1 1.0009 0.410766 0.255589
194 1 0.0757826 0.417829 0.320847
126 1 0.261064 0.42144 0.165827
128 1 0.16994 0.422057 0.252996
127 1 0.233611 0.340552 0.265119
200 1 0.181987 0.429496 0.413199
131 1 0.413376 0.331063 0.249417
132 1 0.323358 0.411077 0.2577
201 1 0.312177 0.322453 0.335609
136 1 0.498926 0.402696 0.258104
202 1 0.406796 0.404518 0.335505
134 1 0.597022 0.411996 0.163419
521 1 0.669448 0.506675 0.172109
198 1 0.254548 0.435357 0.331681
206 1 0.591751 0.418989 0.339844
135 1 0.595551 0.33337 0.259259
140 1 0.667479 0.41686 0.251839
138 1 0.755765 0.401274 0.191221
139 1 0.763833 0.324397 0.269257
143 1 0.913068 0.308279 0.241505
214 1 0.91675 0.42403 0.337899
144 1 0.837716 0.4089 0.256317
215 1 0.927882 0.34699 0.426964
146 1 0.081955 0.092162 0.335017
171 1 0.0871583 0.165018 0.414297
148 1 0.00873749 0.0932628 0.418888
211 1 0.756152 0.332543 0.41234
152 1 0.171141 0.0767559 0.400337
161 1 0.667064 0.00234677 0.332815
182 1 0.586036 0.254741 0.341874
208 1 0.50669 0.420491 0.417816
154 1 0.412857 0.0888589 0.314871
156 1 0.331351 0.0748546 0.411851
204 1 0.325368 0.406487 0.417801
196 1 1.00257 0.428701 0.42401
186 1 0.743354 0.243297 0.337363
160 1 0.492137 0.0646275 0.396025
164 1 0.643284 0.0760975 0.405079
183 1 0.572735 0.156197 0.413615
199 1 0.254956 0.324489 0.42086
192 1 0.829423 0.233037 0.408564
191 1 0.921634 0.164259 0.433807
189 1 0.81681 0.148256 0.344959
168 1 0.826779 0.0848842 0.419264
187 1 0.746952 0.15469 0.417407
169 1 -0.00203225 0.170104 0.335255
593 1 0.653224 0.509631 0.32579
172 1 -0.00270805 0.249346 0.43576
193 1 1.00133 0.325128 0.342662
195 1 0.0820257 0.358454 0.412437
188 1 0.672112 0.233528 0.426166
175 1 0.266252 0.160172 0.398942
176 1 0.180697 0.250377 0.436536
180 1 0.324188 0.247679 0.430761
207 1 0.569205 0.331664 0.419815
177 1 0.347147 0.170443 0.327198
203 1 0.412674 0.318553 0.418513
179 1 0.427389 0.153726 0.418503
178 1 0.421449 0.245364 0.337832
184 1 0.504659 0.241845 0.415486
181 1 0.502119 0.162977 0.318577
209 1 0.668336 0.322362 0.347421
185 1 0.673571 0.164144 0.33611
221 1 0.152776 -0.0157156 0.504847
587 1 0.408603 0.486099 0.423871
1 1 0.0127648 -0.00644238 -0.00893697
91 1 0.748418 -0.00761585 0.246517
73 1 0.00990805 0.00699957 0.170827
270 1 0.256292 0.42519 0.505242
23 1 0.918936 0.00323845 0.0860038
25 1 1.00491 0.160601 -0.00587926
515 1 0.419864 0.480153 0.253444
15 1 0.570844 -0.00337144 0.0929857
245 1 0.165122 0.145286 0.494129
517 1 0.508729 0.482487 0.172901
285 1 0.83984 0.333875 0.495795
22 1 0.908568 0.0828065 -0.00214041
42 1 0.74785 0.250916 0.00425598
85 1 0.485536 -0.000938227 0.156778
75 1 0.095032 -0.0106811 0.249515
217 1 0.00355396 0.0153652 0.495719
453 1 0.828379 0.49905 0.010224
281 1 0.6799 0.32758 0.492373
62 1 0.588562 0.417884 0.00149424
249 1 0.340165 0.153447 0.49371
10 1 0.414833 0.0926224 0.000402982
50 1 0.0731486 0.410712 0.00890049
57 1 0.339699 0.327887 0.000299005
58 1 0.432942 0.420081 -0.00239272
65 1 0.660396 0.326863 -0.000780714
230 1 0.570261 0.0842152 0.489094
286 1 0.906428 0.428567 0.489802
277 1 0.489324 0.335751 0.506758
269 1 0.167844 0.345739 0.503317
262 1 0.920322 0.239755 0.501868
218 1 0.0877285 0.0822057 0.493258
9 1 0.32451 -0.00128983 0.00480615
243 1 0.0822828 0.161768 0.588936
290 1 0.0886977 0.0806354 0.675325
220 1 -0.00608337 0.0749056 0.587674
224 1 0.152049 0.0836935 0.583889
247 1 0.243225 0.151575 0.584368
661 1 0.492664 0.501561 0.5068
294 1 0.242991 0.0882504 0.678709
228 1 0.337104 0.0907497 0.582196
232 1 0.491131 0.0842403 0.593756
251 1 0.414555 0.158321 0.591429
29 1 0.172321 0.172497 1.00114
255 1 0.5898 0.150274 0.592527
743 1 0.929591 0.4908 0.762168
431 1 0.896826 0.329001 0.925441
238 1 0.914331 0.0750736 0.500704
363 1 0.0863457 0.00832669 0.903787
236 1 0.666595 0.0559614 0.591351
306 1 0.75236 0.0834509 0.664643
259 1 0.742305 0.154182 0.583164
240 1 0.834565 0.077155 0.586427
426 1 0.757833 0.419734 0.831152
61 1 0.500578 0.338182 0.995488
313 1 -0.00104008 0.155151 0.668077
263 1 0.914786 0.149333 0.596873
66 1 0.746908 0.423514 1.00617
244 1 -0.000203408 0.262647 0.579883
248 1 0.168249 0.238508 0.583587
278 1 0.582162 0.399302 0.504975
252 1 0.349878 0.241634 0.587659
797 1 0.164918 0.496185 0.84784
291 1 0.0889557 0.00536426 0.761838
321 1 0.33053 0.161629 0.67431
256 1 0.502076 0.24887 0.59257
322 1 0.434817 0.24748 0.671875
2 1 0.0891014 0.0754823 1.00147
279 1 0.594118 0.332697 0.599381
260 1 0.676659 0.242522 0.603535
295 1 0.23827 -0.00355091 0.747367
264 1 0.843255 0.234063 0.577018
330 1 0.774731 0.255352 0.664003
37 1 0.498395 0.155213 0.99116
287 1 0.918231 0.338989 0.567575
357 1 0.847055 0.326955 0.658278
653 1 0.165382 0.51358 0.492979
725 1 0.167916 0.495839 0.666293
289 1 0.00210685 0.00928468 0.68178
267 1 0.092649 0.336114 0.583774
272 1 0.164094 0.420238 0.586401
268 1 -0.0183563 0.420938 0.583478
338 1 0.0813342 0.394847 0.667049
428 1 0.664565 0.421649 0.911275
271 1 0.23911 0.331953 0.596941
261 1 0.823719 0.155555 0.494232
276 1 0.334399 0.436088 0.590008
345 1 0.340497 0.346383 0.652361
275 1 0.426706 0.340266 0.584073
346 1 0.408449 0.422228 0.658742
280 1 0.495514 0.417925 0.580265
237 1 0.827774 0.00622436 0.499644
432 1 0.838493 0.417348 0.931317
353 1 0.677187 0.339489 0.676107
350 1 0.587737 0.41563 0.664291
377 1 0.65204 -0.000434688 0.825022
282 1 0.761257 0.415195 0.49453
283 1 0.775995 0.321313 0.576728
284 1 0.688711 0.401197 0.576293
354 1 0.755856 0.412276 0.666387
288 1 0.837236 0.415844 0.57844
234 1 0.736673 0.0706677 0.499588
412 1 1.00654 0.432438 0.919701
411 1 0.0993932 0.326177 0.920294
315 1 0.0832166 0.164208 0.744708
317 1 0.176297 0.172897 0.673848
296 1 0.162946 0.0992967 0.754011
418 1 0.420601 0.418961 0.832229
319 1 0.255804 0.172842 0.75532
300 1 0.32891 0.0724059 0.748937
393 1 0.34705 0.169091 0.829556
298 1 0.412265 0.0643771 0.675457
799 1 0.264749 0.478662 0.918031
370 1 0.408697 0.0779705 0.82732
304 1 0.508425 0.0855167 0.746109
302 1 0.586834 0.0755332 0.666221
327 1 0.581327 0.167656 0.753958
374 1 0.590631 0.0936359 0.82667
737 1 0.659231 0.501707 0.660253
308 1 0.667037 0.0825554 0.756671
329 1 0.663253 0.156284 0.672033
331 1 0.749519 0.163037 0.74612
312 1 0.831933 0.0823244 0.73624
333 1 0.832001 0.167134 0.664956
803 1 0.424118 0.503322 0.915418
424 1 0.512051 0.427516 0.917184
292 1 1.00191 0.0891124 0.75414
310 1 0.915364 0.0779399 0.666537
382 1 0.917344 0.0783865 0.829962
335 1 0.922678 0.16267 0.740446
337 1 0.995402 0.336034 0.666879
314 1 0.09541 0.253107 0.67103
341 1 0.167586 0.32822 0.677456
386 1 0.0661026 0.237839 0.830869
339 1 0.0716392 0.325626 0.760271
320 1 0.172001 0.245568 0.753221
318 1 0.256916 0.242009 0.657163
324 1 0.339961 0.250799 0.751924
343 1 0.255256 0.341872 0.741386
413 1 0.169985 0.345068 0.825174
323 1 0.417843 0.155934 0.745706
421 1 0.520041 0.326372 0.816631
325 1 0.499382 0.158449 0.680271
326 1 0.57205 0.259585 0.675688
328 1 0.49511 0.240141 0.754144
398 1 0.598521 0.258565 0.826539
429 1 0.843663 0.343072 0.826052
332 1 0.671661 0.243522 0.740288
336 1 0.840553 0.260445 0.751661
334 1 0.92817 0.249559 0.658982
316 1 -0.00850271 0.246671 0.754985
359 1 0.921963 0.339451 0.75099
340 1 0.00624343 0.405218 0.758327
344 1 0.160148 0.419095 0.746328
410 1 0.0899883 0.420902 0.850376
227 1 0.407216 0.00148914 0.582186
342 1 0.248322 0.414172 0.656654
414 1 0.252301 0.421777 0.815645
349 1 0.492389 0.338736 0.663807
348 1 0.334971 0.426345 0.738711
347 1 0.423873 0.340309 0.741431
352 1 0.501571 0.41506 0.752503
741 1 0.839284 0.491079 0.668274
409 1 1.00727 0.327852 0.869263
425 1 0.671838 0.349953 0.828309
351 1 0.602738 0.344491 0.749442
422 1 0.591554 0.428202 0.83039
356 1 0.679325 0.421156 0.744222
355 1 0.746788 0.325424 0.752155
360 1 0.848397 0.417097 0.752792
430 1 0.924856 0.415005 0.846182
358 1 0.932996 0.425456 0.675394
408 1 0.829516 0.242226 0.911617
407 1 0.91114 0.153551 0.903649
388 1 0.986308 0.23702 0.919596
30 1 0.249075 0.262866 1.00041
389 1 0.158148 0.172333 0.831844
385 1 0.990793 0.1599 0.82638
362 1 0.0749253 0.0973342 0.829092
368 1 0.169932 0.0855269 0.916448
366 1 0.255633 0.101234 0.827904
391 1 0.248024 0.165583 0.923322
406 1 0.920398 0.245849 0.833553
242 1 0.0915024 0.244008 0.499297
372 1 0.325182 0.0863959 0.913819
395 1 0.414335 0.175057 0.909811
416 1 0.169413 0.406211 0.918568
739 1 0.759815 0.491225 0.748519
38 1 0.585906 0.253718 1.00529
376 1 0.50774 0.089815 0.907169
380 1 0.663066 0.0727372 0.914636
401 1 0.675472 0.167147 0.828062
378 1 0.745207 0.084571 0.845141
384 1 0.836095 0.0822811 0.917078
14 1 0.581324 0.0749206 0.999911
420 1 0.348985 0.403007 0.930721
404 1 0.675968 0.248929 0.907833
364 1 1.00233 0.0780222 0.925061
427 1 0.734047 0.349553 0.928256
387 1 0.0972158 0.166009 0.928125
392 1 0.191516 0.253251 0.914344
390 1 0.254855 0.266183 0.824125
417 1 0.345614 0.341403 0.811702
415 1 0.258743 0.336904 0.923103
396 1 0.333682 0.256271 0.919464
403 1 0.74583 0.169881 0.908645
721 1 0.0215492 0.47884 0.668017
419 1 0.439216 0.333583 0.895416
397 1 0.502709 0.166475 0.836805
394 1 0.41681 0.251047 0.829797
400 1 0.510112 0.256478 0.914605
266 1 0.0932329 0.431343 0.488394
402 1 0.74778 0.250632 0.817666
6 1 0.242475 0.0731444 1.00004
399 1 0.593809 0.170447 0.919594
423 1 0.584043 0.340337 0.915803
405 1 0.837734 0.153075 0.814016
731 1 0.423779 0.494634 0.759668
219 1 0.0787781 0.00700814 0.577389
381 1 0.838218 0.00138572 0.81802
369 1 0.322312 0.000295942 0.834273
371 1 0.40155 0.00576125 0.919293
293 1 0.157133 -0.00448402 0.663785
274 1 0.402431 0.40972 0.499366
367 1 0.247704 -0.0109313 0.918855
223 1 0.233553 -0.00033746 0.583692
437 1 0.159973 0.495566 0.998449
265 1 0.0208106 0.346425 0.503103
33 1 0.33061 0.17402 0.993544
18 1 0.738508 0.0693278 0.99453
34 1 0.422828 0.258056 0.988813
222 1 0.252261 0.0787912 0.482271
257 1 0.665746 0.15124 0.491536
46 1 0.897041 0.238973 0.9991
253 1 0.507175 0.163934 0.519517
49 1 0.985989 0.33231 0.988137
246 1 0.266608 0.243816 0.516072
254 1 0.602604 0.247721 0.514727
241 1 0.0117235 0.153398 0.504808
258 1 0.752189 0.242059 0.503589
459 1 0.0807375 0.66695 0.0784824
436 1 0.97828 0.585969 0.0866411
157 1 0.486973 1.00185 0.312961
440 1 0.171182 0.587489 0.0750677
533 1 0.178036 0.65883 0.166939
589 1 0.492857 0.486684 0.331207
498 1 0.746775 0.918542 -0.00379267
461 1 0.17531 0.671114 -0.00793554
444 1 0.345412 0.574752 0.0846809
448 1 0.503834 0.573417 0.0934036
514 1 0.416371 0.574108 0.174422
452 1 0.67303 0.589827 0.0893351
471 1 0.577864 0.67293 0.0699092
647 1 0.914434 0.834252 0.4044
456 1 0.828845 0.57937 0.0889807
475 1 0.754955 0.672004 0.0736882
522 1 0.749199 0.600049 0.171232
625 1 1.01091 0.838547 0.323438
450 1 0.757193 0.581821 0.0114677
509 1 0.171624 0.509628 0.164136
526 1 0.899825 0.579674 0.169068
529 1 1.00436 0.666278 0.159077
460 1 1.00603 0.759081 0.092956
464 1 0.1722 0.740696 0.0978069
530 1 0.0885561 0.747661 0.158535
19 1 0.75159 0.997699 0.0945103
463 1 0.247507 0.661028 0.0824238
534 1 0.256997 0.749255 0.16507
83 1 0.41304 1.01455 0.238074
673 1 0.990901 0.664452 0.495111
467 1 0.425003 0.659511 0.0846294
468 1 0.336175 0.742803 0.0808863
472 1 0.483938 0.750475 0.0708618
537 1 0.341323 0.666146 0.146996
87 1 0.572235 0.996678 0.241987
545 1 0.655112 0.674058 0.187895
476 1 0.671992 0.764789 0.090155
495 1 0.571336 0.821892 0.0799347
480 1 0.831692 0.758811 0.091013
569 1 0.648865 0.831083 0.170998
549 1 0.82385 0.66966 0.163432
499 1 0.747202 0.837843 0.0821919
155 1 0.410301 0.994696 0.431483
479 1 0.922873 0.679102 0.0865595
503 1 0.920625 0.843109 0.0723
550 1 0.916221 0.745091 0.166719
573 1 0.830001 0.854867 0.177671
579 1 0.0849687 0.499457 0.40271
95 1 0.921197 1.00976 0.251049
511 1 0.246575 0.499099 0.234829
483 1 0.101721 0.82658 0.0854023
484 1 0.00298849 0.925256 0.0797637
554 1 0.0901128 0.921424 0.156104
487 1 0.238985 0.820297 0.0686879
488 1 0.171807 0.919428 0.0730822
558 1 0.246128 0.904623 0.164847
458 1 0.0868824 0.743062 0.000115161
491 1 0.409822 0.829732 0.0759712
492 1 0.329428 0.914695 0.0812083
562 1 0.421512 0.917439 0.153843
577 1 0.00063448 0.491574 0.342281
496 1 0.49125 0.900187 0.0795497
151 1 0.245345 0.989134 0.411867
566 1 0.566559 0.91624 0.170494
500 1 0.644744 0.903486 0.0875887
504 1 0.842163 0.91902 0.0862221
570 1 0.732614 0.91367 0.161724
447 1 0.58735 0.491126 0.0967859
507 1 0.0982487 0.504112 0.244345
93 1 0.82236 1.00347 0.166787
435 1 0.0705453 0.502745 0.0993817
506 1 0.0933713 0.591142 0.164345
643 1 0.748653 0.838069 0.420308
508 1 0.00828419 0.591841 0.251255
531 1 0.0790948 0.673473 0.244068
512 1 0.177348 0.602728 0.252173
510 1 0.257353 0.580069 0.172281
535 1 0.264113 0.667405 0.237446
159 1 0.577573 0.986392 0.414111
516 1 0.338942 0.562201 0.24831
520 1 0.507618 0.569612 0.236673
604 1 0.00235033 0.738739 0.417736
619 1 0.744053 0.658425 0.404052
518 1 0.586296 0.588512 0.165827
543 1 0.561266 0.66883 0.248072
524 1 0.664204 0.592446 0.247028
624 1 0.833845 0.764363 0.404819
528 1 0.833614 0.557027 0.245237
547 1 0.750068 0.677229 0.245409
617 1 0.660837 0.673399 0.336393
620 1 0.658917 0.757007 0.417751
145 1 0.00948086 0.996153 0.327387
551 1 0.92164 0.671152 0.249029
645 1 0.814576 0.831388 0.315124
553 1 0.0105371 0.842913 0.160242
601 1 1.01162 0.673206 0.334534
602 1 0.0925327 0.752394 0.33314
557 1 0.17091 0.829292 0.168778
536 1 0.169527 0.754686 0.246793
540 1 0.346574 0.744395 0.244429
559 1 0.258763 0.838476 0.251262
633 1 0.339244 0.831883 0.339296
541 1 0.50923 0.657504 0.155384
539 1 0.431864 0.65865 0.242306
613 1 0.486442 0.650355 0.340899
538 1 0.415587 0.751412 0.153716
610 1 0.432328 0.749697 0.334927
544 1 0.502667 0.756163 0.247684
542 1 0.573875 0.744013 0.154275
614 1 0.581292 0.758717 0.335054
546 1 0.754974 0.773654 0.165396
548 1 0.661768 0.756512 0.255278
618 1 0.744914 0.748818 0.337782
571 1 0.728463 0.841718 0.23903
532 1 1.00075 0.760055 0.239465
552 1 0.829279 0.754672 0.245093
622 1 0.917273 0.753891 0.319428
575 1 0.913224 0.82739 0.251672
648 1 0.831071 0.917813 0.425365
555 1 0.084903 0.836771 0.244815
626 1 0.0924927 0.919975 0.340041
79 1 0.263022 0.993999 0.25067
560 1 0.169691 0.909041 0.257081
564 1 0.346255 0.916065 0.227105
561 1 0.347098 0.833875 0.170259
563 1 0.414559 0.828439 0.254725
565 1 0.494812 0.828096 0.161219
634 1 0.411297 0.90892 0.34376
637 1 0.502459 0.83044 0.334509
630 1 0.256565 0.905956 0.329511
568 1 0.474377 0.922781 0.240632
567 1 0.56669 0.835525 0.239258
641 1 0.680302 0.843641 0.333109
639 1 0.578294 0.835959 0.425309
642 1 0.757479 0.931389 0.334047
572 1 0.655259 0.924721 0.239111
631 1 0.26131 0.814523 0.416222
623 1 0.906196 0.666421 0.397925
616 1 0.503564 0.750118 0.426826
574 1 0.923481 0.914237 0.162193
556 1 0.00658254 0.91621 0.246833
646 1 0.9176 0.928928 0.347379
576 1 0.850539 0.923252 0.253115
578 1 0.0865103 0.593328 0.319489
580 1 -0.00167468 0.588546 0.405469
603 1 0.0964041 0.669392 0.41075
632 1 0.175257 0.911369 0.416644
629 1 0.184273 0.812079 0.334499
638 1 0.587631 0.901004 0.330001
582 1 0.259217 0.578643 0.330579
584 1 0.181328 0.59643 0.409841
588 1 0.327692 0.60524 0.419354
609 1 0.362915 0.660548 0.329273
640 1 0.496084 0.915811 0.406536
636 1 0.323208 0.904913 0.433842
586 1 0.418227 0.570136 0.353898
611 1 0.417898 0.671848 0.426776
627 1 0.0908809 0.833356 0.409263
81 1 0.323706 1.00908 0.160544
615 1 0.600894 0.660406 0.415265
635 1 0.407004 0.831193 0.429436
590 1 0.573187 0.575729 0.324648
592 1 0.4951 0.565731 0.422422
596 1 0.655553 0.577057 0.424374
644 1 0.661524 0.911605 0.417009
594 1 0.73481 0.582133 0.333718
607 1 0.244837 0.680938 0.420431
606 1 0.273429 0.739563 0.332653
621 1 0.840186 0.665674 0.324704
598 1 0.924612 0.576455 0.328189
600 1 0.830547 0.584456 0.407753
628 1 -0.000672029 0.933025 0.426641
608 1 0.162599 0.754578 0.420523
605 1 0.168529 0.685844 0.331676
612 1 0.348033 0.744275 0.410574
153 1 0.339741 0.993443 0.346196
439 1 0.249 0.49499 0.0719185
718 1 0.915083 0.927779 0.50894
13 1 0.491317 1.00462 0.00501989
473 1 0.661716 0.677263 -0.00750566
581 1 0.171333 0.499355 0.33182
669 1 0.819257 0.509817 0.501801
7 1 0.24171 1.0036 0.078514
583 1 0.258554 0.511861 0.418635
599 1 0.905638 0.504226 0.420607
697 1 0.99131 0.833986 0.48362
149 1 0.175953 0.996755 0.333719
442 1 0.429722 0.578645 -0.00632751
474 1 0.75399 0.751593 0.00427044
89 1 0.653229 1.01126 0.158675
710 1 0.569347 0.91383 0.506034
527 1 0.929546 0.495022 0.251312
502 1 0.92327 0.919427 -0.00710469
650 1 0.0889356 0.591542 0.483574
462 1 0.258973 0.740897 0.00175411
233 1 0.659046 0.986052 0.494472
662 1 0.581526 0.58378 0.506532
21 1 0.822765 0.995023 0.00609822
693 1 0.81004 0.668606 0.488787
649 1 -0.00417372 0.513011 0.500227
694 1 0.899913 0.743703 0.483723
433 1 0.996034 0.505676 0.023383
465 1 0.33581 0.656577 0.0102176
477 1 0.835438 0.660799 0.00622875
701 1 0.157308 0.844715 0.501515
698 1 0.0737603 0.915763 0.501151
225 1 0.330663 0.994339 0.515194
446 1 0.585033 0.589359 -0.00647509
501 1 0.836028 0.833926 0.0047073
485 1 0.16356 0.838673 -0.00740353
482 1 0.0748116 0.911574 0.00228452
478 1 0.905828 0.752489 -0.00192835
656 1 0.154142 0.586773 0.574826
749 1 0.159299 0.666718 0.655892
722 1 0.075516 0.584907 0.657101
685 1 0.499866 0.672622 0.496348
660 1 0.332282 0.593358 0.583205
651 1 0.0872193 0.496548 0.576448
813 1 0.845367 0.485974 0.83356
864 1 0.828875 0.914651 0.925176
730 1 0.423232 0.589601 0.681932
795 1 0.0926741 0.513282 0.926149
299 1 0.419686 0.993095 0.758226
811 1 0.738334 0.505266 0.923232
664 1 0.501982 0.573333 0.593275
687 1 0.588236 0.665231 0.579851
734 1 0.59478 0.574099 0.662121
757 1 0.505791 0.670517 0.663055
668 1 0.666876 0.574018 0.583348
672 1 0.835143 0.580933 0.583329
738 1 0.760803 0.576741 0.671118
652 1 -0.00823305 0.577258 0.582399
860 1 0.664564 0.910695 0.918374
490 1 0.418683 0.918615 0.992128
675 1 0.0841245 0.660423 0.583149
699 1 0.0584525 0.84544 0.579044
769 1 0.00232092 0.829985 0.673648
654 1 0.244103 0.591043 0.502977
680 1 0.158036 0.755679 0.583065
679 1 0.251443 0.662859 0.592601
684 1 0.339301 0.741962 0.594705
703 1 0.232651 0.837829 0.580359
773 1 0.147809 0.833304 0.664304
373 1 0.487279 1.0017 0.828044
683 1 0.429073 0.648401 0.591271
688 1 0.507739 0.750046 0.580525
707 1 0.413227 0.833959 0.584125
754 1 0.425441 0.743453 0.653898
815 1 0.917932 0.503347 0.919514
361 1 1.00068 0.995632 0.833495
692 1 0.67432 0.74483 0.597368
711 1 0.571975 0.828908 0.594911
686 1 0.595909 0.761618 0.51402
691 1 0.757163 0.670496 0.594979
696 1 0.822122 0.760064 0.580147
765 1 0.848346 0.657878 0.660817
695 1 0.896145 0.675115 0.568578
676 1 0.989813 0.747791 0.56633
719 1 0.926538 0.850746 0.567574
745 1 0.987457 0.680036 0.651257
700 1 -0.0020279 0.932772 0.58331
727 1 0.25299 0.505122 0.748172
231 1 0.575571 0.984914 0.595001
365 1 0.176185 1.01189 0.842298
704 1 0.154464 0.907582 0.58654
708 1 0.327906 0.907602 0.591175
712 1 0.475236 0.912224 0.574557
657 1 0.328198 0.514055 0.498213
778 1 0.398136 0.916894 0.670399
309 1 0.82382 1.0007 0.663157
486 1 0.243763 0.921676 0.998538
848 1 0.146962 0.911914 0.916735
716 1 0.672334 0.922535 0.589027
715 1 0.746392 0.838951 0.58909
720 1 0.830146 0.914463 0.57582
859 1 0.751509 0.833443 0.91503
790 1 0.921341 0.906057 0.679392
847 1 0.242236 0.850423 0.917996
659 1 0.413071 0.511253 0.579689
794 1 0.0770376 0.583301 0.824939
747 1 0.0853349 0.65764 0.740256
858 1 0.746529 0.925298 0.831809
726 1 0.23869 0.587032 0.675518
728 1 0.162262 0.569818 0.749282
825 1 0.343092 0.662811 0.840175
732 1 0.321761 0.595975 0.750525
751 1 0.238277 0.676217 0.7325
678 1 0.238697 0.756351 0.51203
736 1 0.509396 0.595482 0.749131
753 1 0.33499 0.662332 0.671773
802 1 0.421622 0.592615 0.829929
740 1 0.667727 0.578315 0.752094
759 1 0.583774 0.677325 0.739382
806 1 0.592183 0.612049 0.824848
833 1 0.669096 0.678222 0.833553
663 1 0.588081 0.495483 0.576232
744 1 0.828578 0.59029 0.760477
810 1 0.745515 0.584102 0.831889
742 1 0.911775 0.565947 0.668227
724 1 0.989341 0.580189 0.742881
767 1 0.92137 0.660163 0.738347
817 1 0.98791 0.663208 0.830097
814 1 0.920899 0.581529 0.845067
746 1 0.0753822 0.738688 0.664835
771 1 0.0845785 0.836524 0.743527
752 1 0.161977 0.755123 0.740761
818 1 0.0975241 0.750375 0.840249
845 1 0.156253 0.841425 0.818617
750 1 0.235513 0.752476 0.663411
756 1 0.32419 0.746858 0.753241
775 1 0.250469 0.831033 0.743971
822 1 0.236966 0.755357 0.839041
755 1 0.425034 0.675031 0.760044
760 1 0.502671 0.760279 0.743546
777 1 0.331605 0.828193 0.662517
779 1 0.420858 0.829307 0.752021
781 1 0.492616 0.839688 0.671834
758 1 0.586542 0.75617 0.657975
761 1 0.661576 0.658244 0.674313
764 1 0.666215 0.75127 0.737126
763 1 0.746571 0.662171 0.750301
762 1 0.753243 0.740855 0.671113
787 1 0.745845 0.833428 0.737295
768 1 0.850796 0.748525 0.747634
766 1 0.910801 0.75985 0.642982
748 1 0.00671196 0.746547 0.755498
770 1 0.0789226 0.92887 0.673562
776 1 0.163866 0.928109 0.741891
842 1 0.0887444 0.917782 0.827778
772 1 1.0108 0.918756 0.754131
844 1 1.00306 0.915888 0.908713
470 1 0.569884 0.753017 0.988526
774 1 0.234758 0.918732 0.653034
849 1 0.320952 0.83135 0.826708
846 1 0.242588 0.92314 0.829302
855 1 0.585603 0.83109 0.906819
780 1 0.333291 0.920719 0.757727
784 1 0.502773 0.913985 0.762677
856 1 0.496768 0.92319 0.910458
854 1 0.579897 0.926931 0.835957
783 1 0.587795 0.83043 0.762973
785 1 0.668869 0.836454 0.654202
782 1 0.581208 0.903162 0.680899
671 1 0.92389 0.502813 0.577239
788 1 0.662044 0.912406 0.757347
786 1 0.733747 0.927223 0.67418
862 1 0.921577 0.914564 0.826519
840 1 0.833115 0.753028 0.90056
789 1 0.838802 0.83393 0.663039
792 1 0.822306 0.918744 0.750733
791 1 0.922416 0.834093 0.751911
733 1 0.498393 0.501497 0.663245
819 1 0.0872657 0.674808 0.920954
305 1 0.647543 0.991341 0.683421
800 1 0.168685 0.597086 0.901228
798 1 0.265668 0.571711 0.848776
823 1 0.26047 0.663959 0.91713
804 1 0.344596 0.587709 0.926702
820 1 1.00324 0.757382 0.904419
850 1 0.412001 0.924168 0.830965
829 1 0.499466 0.683152 0.841445
808 1 0.493064 0.593984 0.901924
851 1 0.410946 0.833183 0.904064
853 1 0.503421 0.817275 0.841995
838 1 0.906328 0.767013 0.837656
831 1 0.575944 0.66915 0.92328
812 1 0.667731 0.601066 0.912586
793 1 1.00508 0.510134 0.840714
852 1 0.328133 0.909063 0.913911
834 1 0.749453 0.751595 0.811237
835 1 0.751569 0.668914 0.932089
816 1 0.830936 0.591576 0.913052
796 1 1.00249 0.589864 0.918626
839 1 0.918838 0.671365 0.917325
821 1 0.169562 0.653991 0.821223
841 1 0.021484 0.832684 0.825105
843 1 0.0798458 0.832323 0.920735
828 1 0.320747 0.765066 0.920438
824 1 0.171737 0.746909 0.9245
827 1 0.413802 0.672499 0.916611
826 1 0.409443 0.754472 0.844093
832 1 0.48882 0.747009 0.920781
861 1 0.82946 0.8405 0.82906
837 1 0.849802 0.664709 0.837547
857 1 0.678733 0.829683 0.838782
830 1 0.584736 0.750115 0.835734
836 1 0.664711 0.760294 0.921072
863 1 0.918383 0.833434 0.925871
379 1 0.759074 0.996451 0.914351
297 1 0.318205 1.0029 0.673103
805 1 0.494683 0.503497 0.830159
723 1 0.0814863 0.500107 0.762791
655 1 0.239188 0.506944 0.580966
658 1 0.41351 0.587958 0.49297
375 1 0.575987 1.00782 0.919842
383 1 0.906314 0.998516 0.920688
493 1 0.501588 0.842683 0.980702
801 1 0.34183 0.494828 0.84632
809 1 0.66911 0.510553 0.825282
667 1 0.752328 0.489006 0.579804
307 1 0.744104 1.01621 0.757495
17 1 0.668186 0.989255 0.990476
717 1 0.839926 0.833787 0.491588
303 1 0.573067 1.00882 0.754133
706 1 0.397021 0.910236 0.503042
729 1 0.325633 0.50566 0.672395
494 1 0.580315 0.916935 0.997519
311 1 0.928349 0.996185 0.754907
689 1 0.671638 0.677604 0.48775
301 1 0.498973 0.988698 0.667623
709 1 0.496601 0.834009 0.500079
239 1 0.907109 0.986361 0.613743
735 1 0.563275 0.505565 0.747329
235 1 0.746222 0.997094 0.588179
807 1 0.581608 0.523265 0.888889
457 1 1.00557 0.656203 1.01021
714 1 0.740916 0.915577 0.499635
229 1 0.508428 1.00439 0.497398
466 1 0.403321 0.748559 0.992241
677 1 0.167421 0.670061 0.496165
666 1 0.739582 0.593527 0.502856
5 1 0.156174 0.987489 0.992496
690 1 0.741828 0.752292 0.495973
454 1 0.915717 0.588177 0.994538
670 1 0.90946 0.579185 0.492845
445 1 0.522667 0.491412 1.00673
489 1 0.342066 0.83934 0.997369
497 1 0.667677 0.843375 0.998109
665 1 0.667682 0.486533 0.499956
705 1 0.334691 0.822988 0.521836
674 1 0.0863316 0.768175 0.501377
702 1 0.239444 0.922818 0.506694
682 1 0.418687 0.748552 0.514864
713 1 0.661777 0.840378 0.50508
469 1 0.492863 0.665524 1.00563
438 1 0.25468 0.583103 1.00271
681 1 0.335369 0.678337 0.498981
481 1 1.00779 0.827909 1.00639
434 1 0.0929832 0.587824 0.995918
