ITEM: TIMESTEP
33600
ITEM: NUMBER OF ATOMS
864
ITEM: BOX BOUNDS pp pp pp
0.0000000000000000e+00 3.1559999999999999e+01
0.0000000000000000e+00 3.1559999999999999e+01
0.0000000000000000e+00 3.1559999999999999e+01
ITEM: ATOMS id type xs ys zs
8 1 0.152802 0.0797756 0.0843474
95 1 0.911045 0.0093097 0.239809
79 1 0.254872 0.00448188 0.259837
27 1 0.082869 0.184267 0.0873318
97 1 0.00698067 0.175417 0.171664
31 1 0.232274 0.153003 0.0905077
78 1 0.242925 0.0677861 0.168614
281 1 0.679946 0.346115 0.494502
12 1 0.355315 0.0859059 0.0729926
82 1 0.410563 0.0733941 0.160139
16 1 0.493992 0.08243 0.0840019
245 1 0.169103 0.175426 0.497764
437 1 0.175478 0.49041 0.00625664
523 1 0.742738 0.497391 0.248183
20 1 0.675481 0.0854211 0.0844164
109 1 0.497538 0.156038 0.163473
30 1 0.250004 0.238775 0.0133524
24 1 0.82608 0.0678713 0.0774372
13 1 0.503244 0.00217071 0.0108407
261 1 0.825738 0.149306 0.489491
4 1 0.00419831 0.0912482 0.0700398
94 1 0.926857 0.0817573 0.152082
47 1 0.937802 0.171013 0.0863849
147 1 0.0701793 0.0152117 0.415069
277 1 0.485076 0.336571 0.489303
7 1 0.25568 0.00306277 0.0853828
98 1 0.0919778 0.260548 0.173044
125 1 0.175853 0.331766 0.164686
250 1 0.409509 0.254156 0.498521
32 1 0.171758 0.261609 0.0898425
105 1 0.317419 0.158201 0.153267
129 1 0.334302 0.329776 0.164387
53 1 0.172162 0.330467 0.00196092
161 1 0.661901 0.00688578 0.324066
35 1 0.426275 0.167952 0.086902
36 1 0.333179 0.243973 0.0868825
40 1 0.501954 0.251376 0.0794214
106 1 0.408298 0.258611 0.164316
505 1 0.999561 0.494634 0.170284
39 1 0.600604 0.159416 0.0866714
110 1 0.58756 0.250644 0.174229
149 1 0.156767 0.00885349 0.335552
62 1 0.598214 0.424644 0.00115434
43 1 0.748621 0.16615 0.0795358
44 1 0.672724 0.242803 0.0775149
242 1 0.0863231 0.256067 0.492533
48 1 0.82989 0.254994 0.07767
28 1 0.00797426 0.267417 0.0988166
51 1 0.0992045 0.340199 0.0813713
56 1 0.179612 0.419141 0.0999636
122 1 0.0920317 0.418429 0.173448
55 1 0.261738 0.333407 0.0891177
60 1 0.351691 0.42734 0.0969681
599 1 0.917538 0.488422 0.412376
126 1 0.263731 0.419093 0.157716
59 1 0.42024 0.338054 0.0826561
130 1 0.423701 0.417603 0.181621
262 1 0.895892 0.251073 0.4913
64 1 0.511858 0.43758 0.0867649
63 1 0.59205 0.337713 0.093062
133 1 0.49275 0.350192 0.153987
265 1 0.998713 0.314209 0.479926
29 1 0.152421 0.15455 0.00419524
68 1 0.671563 0.427014 0.0781695
67 1 0.747045 0.345616 0.0779874
137 1 0.668021 0.340437 0.174106
218 1 0.0808662 0.0861936 0.499027
72 1 0.827158 0.420986 0.0811321
71 1 0.921497 0.337557 0.096987
52 1 0.00387438 0.408563 0.0828219
74 1 0.0904997 0.0899921 0.168602
165 1 0.832952 0.00172834 0.324117
99 1 0.0857721 0.177004 0.24894
101 1 0.175908 0.158339 0.177189
270 1 0.25202 0.417947 0.499315
80 1 0.170492 0.0844171 0.250195
84 1 0.345394 0.0704628 0.255875
513 1 0.327794 0.499834 0.167141
154 1 0.409326 0.0796939 0.347507
88 1 0.488346 0.0769248 0.234469
33 1 0.32127 0.158873 0.00148754
86 1 0.582636 0.0845981 0.165519
92 1 0.655736 0.0880668 0.252301
181 1 0.499394 0.159649 0.31339
435 1 0.0786285 0.483689 0.0957737
90 1 0.762481 0.0874599 0.159812
76 1 0.0105431 0.0971293 0.239475
96 1 0.841018 0.0964048 0.232291
169 1 0.985577 0.172948 0.31955
119 1 0.920516 0.170724 0.233927
104 1 0.173935 0.255563 0.241184
100 1 0.00630209 0.253433 0.244143
102 1 0.257353 0.241912 0.157411
103 1 0.261252 0.158667 0.249502
108 1 0.33704 0.252558 0.244469
107 1 0.413466 0.159012 0.248553
131 1 0.431408 0.321662 0.246792
205 1 0.503959 0.326182 0.324895
178 1 0.42838 0.254549 0.333358
112 1 0.502848 0.23732 0.246485
111 1 0.584442 0.160686 0.240734
182 1 0.583377 0.240117 0.324722
116 1 0.67371 0.235921 0.245262
117 1 0.835612 0.167053 0.13781
113 1 0.676558 0.157703 0.173774
114 1 0.752649 0.254234 0.153749
115 1 0.763493 0.172991 0.241506
120 1 0.849899 0.252611 0.246084
118 1 0.921196 0.250582 0.161876
193 1 0.995686 0.322837 0.356314
190 1 0.904624 0.259122 0.348694
123 1 0.0907443 0.340808 0.252814
128 1 0.188423 0.412179 0.254999
121 1 0.0147067 0.337559 0.174003
124 1 0.00114895 0.412318 0.269619
75 1 0.0778273 0.00814327 0.239849
197 1 0.159262 0.326295 0.326893
127 1 0.260119 0.329423 0.236517
132 1 0.336103 0.418409 0.251746
198 1 0.265868 0.402526 0.324801
439 1 0.262719 0.493112 0.0795323
201 1 0.336134 0.319221 0.334816
202 1 0.419452 0.403395 0.327911
38 1 0.586901 0.242385 0.0126201
135 1 0.586216 0.34557 0.238124
136 1 0.500033 0.421126 0.258758
196 1 0.998354 0.417051 0.410619
134 1 0.593644 0.429994 0.15387
141 1 0.831432 0.33256 0.1746
138 1 0.752791 0.410706 0.170854
140 1 0.658335 0.425651 0.244134
139 1 0.730508 0.313816 0.24898
144 1 0.818385 0.409536 0.248055
3 1 0.0765962 0.00233148 0.075992
143 1 0.910657 0.33874 0.262786
142 1 0.916222 0.428322 0.177959
46 1 0.920426 0.261172 0.0110406
146 1 0.0820031 0.0874364 0.320815
148 1 0.981775 0.0946736 0.404236
152 1 0.167621 0.0806158 0.410664
286 1 0.900425 0.411398 0.493588
150 1 0.252851 0.0857402 0.327502
204 1 0.354301 0.419922 0.421047
208 1 0.513367 0.435639 0.417558
156 1 0.327244 0.0887184 0.432829
179 1 0.416205 0.177002 0.423177
200 1 0.166238 0.427091 0.420365
158 1 0.584324 0.0903571 0.332132
160 1 0.497363 0.0888697 0.415223
164 1 0.670275 0.0785968 0.408134
183 1 0.585971 0.164273 0.418626
210 1 0.734349 0.404578 0.315504
162 1 0.756161 0.0861388 0.32619
185 1 0.672951 0.163316 0.328287
89 1 0.680182 0.013075 0.15609
189 1 0.826842 0.161131 0.337667
191 1 0.907345 0.169932 0.414118
168 1 0.827055 0.0760846 0.410493
166 1 0.910795 0.0858129 0.31621
194 1 0.0864449 0.424573 0.331996
170 1 0.0742955 0.256414 0.336154
173 1 0.167151 0.165037 0.330624
195 1 0.0908879 0.343868 0.417383
171 1 0.0946715 0.167982 0.406628
176 1 0.16491 0.253279 0.40373
216 1 0.814311 0.411126 0.402245
214 1 0.900662 0.415846 0.32855
177 1 0.327825 0.152467 0.342112
174 1 0.254912 0.246677 0.314684
175 1 0.237733 0.161565 0.414795
180 1 0.32737 0.245662 0.414749
203 1 0.410594 0.320446 0.419051
207 1 0.595212 0.334956 0.420492
212 1 0.666672 0.42189 0.415079
209 1 0.657593 0.324576 0.326631
188 1 0.668298 0.246899 0.408103
184 1 0.514827 0.24726 0.406844
199 1 0.240689 0.33317 0.40503
186 1 0.74907 0.242423 0.343577
213 1 0.823538 0.326621 0.329953
187 1 0.742894 0.153926 0.409667
211 1 0.744378 0.326587 0.400109
192 1 0.82166 0.240909 0.424181
215 1 0.88932 0.335913 0.422939
172 1 0.995637 0.221389 0.412892
206 1 0.58749 0.412174 0.327446
225 1 0.315883 0.00065037 0.484971
222 1 0.240917 0.0795422 0.497475
37 1 0.516655 0.153943 0.00729883
69 1 0.839352 0.340972 0.00557129
49 1 0.0147603 0.324762 0.000589648
273 1 0.330488 0.327193 0.487529
45 1 0.839389 0.156651 0.00854811
157 1 0.507487 0.00429758 0.327013
163 1 0.756121 9.58088e-06 0.42083
22 1 0.909092 0.0770941 0.00206296
23 1 0.91801 0.000854457 0.0798255
515 1 0.426208 0.496674 0.254358
73 1 0.00316613 0.000587825 0.164568
254 1 0.595737 0.261975 0.497791
57 1 0.338324 0.344937 0.00421394
597 1 0.813867 0.498247 0.329
91 1 0.746589 0.00175361 0.249054
282 1 0.752134 0.419309 0.487375
17 1 0.669569 0.00256722 0.00673163
233 1 0.667939 0.00263908 0.497654
237 1 0.849107 0.0110702 0.497473
249 1 0.334236 0.174197 0.497954
6 1 0.236711 0.0847485 0.00407656
10 1 0.427666 0.0902251 7.24591e-05
58 1 0.4214 0.430587 0.0155285
253 1 0.515566 0.182436 0.49384
234 1 0.746071 0.0782103 0.494732
54 1 0.259245 0.414829 0.00154302
25 1 0.00527529 0.185487 0.00161342
257 1 0.656578 0.147321 0.490527
285 1 0.802684 0.327748 0.493397
246 1 0.252786 0.247128 0.482047
224 1 0.179191 0.0868944 0.579074
243 1 0.085051 0.165101 0.584101
230 1 0.575664 0.0824301 0.502146
409 1 0.0060013 0.345004 0.828945
239 1 0.921063 0.0026463 0.59139
228 1 0.33268 0.0754505 0.56106
294 1 0.256946 0.0857151 0.668166
432 1 0.826285 0.419073 0.909996
321 1 0.32545 0.176524 0.670269
251 1 0.408951 0.167771 0.5873
795 1 0.099098 0.48685 0.921256
428 1 0.669493 0.424511 0.923814
269 1 0.167453 0.340761 0.501435
232 1 0.495797 0.0914037 0.611622
236 1 0.657219 0.089398 0.586594
255 1 0.571959 0.175001 0.593508
329 1 0.658069 0.157935 0.674222
259 1 0.737677 0.155157 0.583655
305 1 0.668522 0.00968837 0.652048
66 1 0.748821 0.41781 0.992687
333 1 0.834557 0.174222 0.675893
2 1 0.0785446 0.0686646 0.992135
240 1 0.82823 0.101801 0.588536
220 1 0.995295 0.0953243 0.590995
263 1 0.912083 0.17309 0.590283
217 1 0.00604508 0.00694574 0.507768
248 1 0.164259 0.242767 0.591944
244 1 0.992983 0.251459 0.582705
665 1 0.683802 0.494305 0.503569
247 1 0.260451 0.158086 0.576371
252 1 0.327118 0.241536 0.591955
271 1 0.242208 0.312526 0.579612
322 1 0.428693 0.253843 0.672033
345 1 0.349169 0.322874 0.67035
26 1 0.091553 0.247389 0.997665
256 1 0.494104 0.253782 0.56895
326 1 0.585922 0.243434 0.67227
349 1 0.504231 0.332739 0.677947
260 1 0.661167 0.245455 0.584194
353 1 0.666053 0.343759 0.675311
793 1 0.992452 0.496231 0.822068
373 1 0.485877 0.00175445 0.83909
283 1 0.746099 0.337328 0.580491
330 1 0.726833 0.242375 0.659666
264 1 0.821679 0.237174 0.58782
357 1 0.812919 0.32683 0.671403
663 1 0.598099 0.496093 0.592293
287 1 0.903723 0.318365 0.58126
334 1 0.90878 0.254496 0.67948
671 1 0.913587 0.498982 0.585175
267 1 0.0653668 0.330064 0.583568
272 1 0.169963 0.4068 0.586399
337 1 0.00152511 0.329789 0.667488
338 1 0.0877561 0.412778 0.66013
341 1 0.173095 0.330801 0.66996
342 1 0.258152 0.395043 0.656629
381 1 0.832386 0.00428059 0.830316
219 1 0.0975659 0.0204389 0.5932
733 1 0.508385 0.492301 0.653984
276 1 0.346949 0.413537 0.580804
275 1 0.425981 0.338345 0.573831
346 1 0.41159 0.413103 0.680494
279 1 0.59471 0.339588 0.584961
280 1 0.49951 0.423536 0.579802
350 1 0.587777 0.415673 0.6681
50 1 0.0939142 0.417607 0.998636
284 1 0.675066 0.413776 0.589101
739 1 0.751251 0.497932 0.748354
266 1 0.0836379 0.404069 0.511527
268 1 0.995429 0.418284 0.579585
288 1 0.830946 0.417097 0.587312
290 1 0.0850358 0.0916494 0.662378
371 1 0.410571 0.00261191 0.921962
296 1 0.16999 0.0749288 0.758886
661 1 0.519187 0.499234 0.51168
441 1 0.330288 0.496395 0.997486
300 1 0.340859 0.0810996 0.762061
319 1 0.2475 0.16405 0.750904
298 1 0.402791 0.0955096 0.680861
323 1 0.43219 0.159816 0.762246
397 1 0.504915 0.14295 0.835603
302 1 0.584923 0.0828042 0.680861
304 1 0.487315 0.0722546 0.754692
374 1 0.584715 0.0729144 0.852183
303 1 0.576158 0.00555255 0.760993
308 1 0.673082 0.0722542 0.760746
306 1 0.747016 0.0994541 0.66816
331 1 0.736549 0.173146 0.752383
310 1 0.910563 0.0956156 0.671116
292 1 0.000814999 0.0867227 0.740936
312 1 0.817331 0.0842856 0.753922
382 1 0.918094 0.0806312 0.839136
314 1 0.08936 0.250081 0.664996
315 1 0.0820495 0.171552 0.761056
317 1 0.166552 0.14804 0.674946
316 1 0.993274 0.251083 0.759177
386 1 0.0847543 0.253996 0.818246
318 1 0.240757 0.234232 0.67431
320 1 0.171624 0.254695 0.738286
343 1 0.255356 0.319071 0.747252
324 1 0.339243 0.238765 0.750646
325 1 0.503176 0.175861 0.679602
328 1 0.501174 0.250644 0.759546
347 1 0.434248 0.340131 0.757997
327 1 0.594246 0.159793 0.770981
332 1 0.663866 0.246044 0.758536
351 1 0.591965 0.323155 0.757782
425 1 0.664048 0.334654 0.838312
336 1 0.828453 0.248896 0.74807
355 1 0.74712 0.324037 0.74974
402 1 0.74128 0.250809 0.84162
313 1 0.987527 0.160209 0.681523
335 1 0.905707 0.156293 0.750929
406 1 0.904197 0.242674 0.837783
339 1 0.0960918 0.337405 0.743103
340 1 0.00853413 0.411468 0.743027
344 1 0.192185 0.425495 0.736899
414 1 0.249726 0.412618 0.841483
417 1 0.337511 0.332972 0.83749
427 1 0.745705 0.328925 0.912531
424 1 0.497763 0.41615 0.922079
348 1 0.32371 0.411853 0.738863
352 1 0.516246 0.413056 0.754985
418 1 0.400507 0.42014 0.810048
421 1 0.494146 0.322632 0.852403
721 1 0.97745 0.499794 0.669656
803 1 0.411257 0.493428 0.909753
422 1 0.574054 0.416261 0.840933
354 1 0.747125 0.420448 0.666776
426 1 0.746868 0.414134 0.830002
356 1 0.662102 0.43165 0.751234
358 1 0.89554 0.413413 0.669508
359 1 0.9049 0.351808 0.754985
430 1 0.915635 0.415576 0.834224
360 1 0.819977 0.406235 0.74753
741 1 0.828256 0.49004 0.670735
362 1 0.0693313 0.0743655 0.824148
368 1 0.151976 0.0893932 0.906744
274 1 0.419013 0.430277 0.506473
366 1 0.241048 0.0951393 0.831742
291 1 0.0824506 0.00201279 0.736324
372 1 0.327098 0.0884837 0.910684
391 1 0.246344 0.16291 0.926581
412 1 0.00819679 0.410477 0.915519
370 1 0.416067 0.0872377 0.845648
433 1 0.999541 0.478 0.999073
420 1 0.334802 0.429462 0.913648
376 1 0.513452 0.07634 0.927927
380 1 0.689394 0.0775427 0.917225
743 1 0.90849 0.497893 0.746033
410 1 0.090498 0.430732 0.831947
413 1 0.171721 0.325433 0.828158
70 1 0.91006 0.418163 0.992107
378 1 0.748017 0.0814208 0.835257
405 1 0.818084 0.16334 0.834711
401 1 0.668856 0.158606 0.845125
384 1 0.833864 0.092187 0.913153
416 1 0.175896 0.413902 0.922716
364 1 0.996186 0.0829294 0.931223
407 1 0.916391 0.165371 0.920464
419 1 0.401827 0.346291 0.918389
415 1 0.25493 0.327385 0.919725
411 1 0.0983639 0.335892 0.91492
387 1 0.0767048 0.170439 0.904564
389 1 0.161371 0.168483 0.83215
392 1 0.179036 0.254089 0.927549
813 1 0.837761 0.494862 0.836987
390 1 0.248078 0.236858 0.832544
396 1 0.325677 0.252865 0.922088
393 1 0.341363 0.165522 0.831255
394 1 0.406604 0.254852 0.836978
395 1 0.421062 0.172592 0.91138
729 1 0.33058 0.491122 0.66967
423 1 0.581434 0.339925 0.928757
400 1 0.501679 0.244157 0.937458
398 1 0.573234 0.246815 0.852059
399 1 0.579343 0.170689 0.924863
429 1 0.829674 0.329586 0.838658
403 1 0.757088 0.17304 0.922489
408 1 0.845829 0.243123 0.923277
404 1 0.651202 0.245545 0.922511
431 1 0.916 0.328957 0.91589
388 1 0.0078521 0.263941 0.910836
385 1 0.991895 0.161828 0.82877
235 1 0.765924 0.00861094 0.579245
293 1 0.168003 0.000769461 0.678455
369 1 0.330228 0.00849373 0.838412
226 1 0.44152 0.0808708 0.511232
238 1 0.928381 0.0964994 0.504437
309 1 0.833316 0.00802028 0.669403
18 1 0.761216 0.0765009 0.997267
653 1 0.151664 0.492312 0.506282
9 1 0.335636 0.00658784 0.996859
241 1 0.0165234 0.169744 0.502803
42 1 0.760693 0.259214 0.989419
34 1 0.412461 0.255451 0.998291
258 1 0.74824 0.234369 0.50127
14 1 0.602096 0.0870228 0.990828
61 1 0.485131 0.331984 0.995139
278 1 0.59451 0.420686 0.503488
65 1 0.673827 0.338558 0.998247
41 1 0.677865 0.160141 0.995896
221 1 0.154793 0.00230847 0.509782
436 1 0.000415439 0.575508 0.086259
459 1 0.0880118 0.669113 0.0871826
506 1 0.0856325 0.591923 0.159977
477 1 0.832025 0.660815 0.000407948
529 1 0.996506 0.66872 0.152851
583 1 0.2409 0.500811 0.412362
678 1 0.253239 0.756439 0.495485
440 1 0.164943 0.585075 0.0787266
463 1 0.253218 0.66614 0.0894892
87 1 0.587783 0.995562 0.232523
698 1 0.0823284 0.921327 0.49756
444 1 0.334582 0.58376 0.0813249
448 1 0.505303 0.577781 0.0884005
452 1 0.681969 0.61177 0.0875187
83 1 0.421474 0.994066 0.243093
451 1 0.75088 0.522038 0.0839588
155 1 0.42662 0.982007 0.403937
456 1 0.832919 0.588172 0.080309
577 1 0.993088 0.508309 0.330177
650 1 0.0762067 0.594728 0.496962
702 1 0.25438 0.913213 0.491308
81 1 0.333494 0.993919 0.170873
530 1 0.0779071 0.738047 0.165075
153 1 0.340969 0.994669 0.339849
557 1 0.156311 0.823545 0.156033
443 1 0.424226 0.517264 0.088161
591 1 0.589599 0.51453 0.435386
464 1 0.168467 0.742014 0.0716938
487 1 0.240498 0.836858 0.0865414
561 1 0.345059 0.835365 0.1687
589 1 0.495014 0.521857 0.344341
467 1 0.402376 0.662955 0.0857813
468 1 0.324986 0.756783 0.0883865
472 1 0.485186 0.74715 0.0877026
565 1 0.494163 0.839109 0.157812
538 1 0.419163 0.749991 0.168087
701 1 0.173808 0.83547 0.491826
471 1 0.572884 0.673157 0.0955831
542 1 0.596142 0.758435 0.169327
476 1 0.666143 0.735379 0.073454
694 1 0.914473 0.752816 0.492499
521 1 0.66031 0.51104 0.17494
475 1 0.75518 0.683482 0.0939198
499 1 0.75334 0.826761 0.0849239
581 1 0.160946 0.50125 0.344145
480 1 0.838932 0.754669 0.0861201
479 1 0.904901 0.672476 0.0792577
460 1 0.982352 0.74673 0.0760766
503 1 0.917601 0.834496 0.0991255
550 1 0.914206 0.74579 0.171397
483 1 0.0756123 0.825138 0.0859414
681 1 0.334128 0.658788 0.495772
554 1 0.0867804 0.914545 0.169684
517 1 0.504117 0.509948 0.169121
151 1 0.244784 0.991779 0.410403
488 1 0.16005 0.909898 0.076812
558 1 0.249607 0.902694 0.177264
492 1 0.326682 0.921805 0.0896101
705 1 0.33481 0.834857 0.492349
527 1 0.901313 0.503033 0.258067
615 1 0.582668 0.666814 0.42257
491 1 0.409624 0.832648 0.077574
496 1 0.50759 0.918604 0.0754429
562 1 0.426084 0.91259 0.148356
495 1 0.584536 0.828572 0.0721075
500 1 0.676354 0.906079 0.0744259
566 1 0.589592 0.905651 0.156081
595 1 0.743559 0.502892 0.410421
77 1 0.172169 0.989764 0.156973
504 1 0.829962 0.912899 0.085493
569 1 0.67405 0.828621 0.163486
167 1 0.941206 0.99659 0.409506
484 1 0.00164396 0.915885 0.0783325
622 1 0.920162 0.737326 0.345611
612 1 0.350128 0.738532 0.423232
593 1 0.65638 0.515093 0.338522
533 1 0.173093 0.671136 0.157716
601 1 0.00613559 0.67138 0.321764
531 1 0.0794454 0.657174 0.242009
578 1 0.0832044 0.578513 0.327875
512 1 0.170976 0.5829 0.255588
510 1 0.259974 0.597542 0.17204
535 1 0.24936 0.689847 0.247465
582 1 0.240958 0.597293 0.327883
11 1 0.412775 0.998873 0.0743758
645 1 0.839574 0.856855 0.329075
618 1 0.752484 0.753997 0.343448
514 1 0.398179 0.576329 0.176137
516 1 0.3242 0.583029 0.250701
520 1 0.493185 0.586238 0.256753
518 1 0.58686 0.591356 0.171843
545 1 0.684334 0.681701 0.172332
541 1 0.493977 0.654006 0.170662
524 1 0.660477 0.601581 0.27058
543 1 0.579451 0.671729 0.248161
590 1 0.574724 0.607315 0.333159
522 1 0.748362 0.577602 0.176688
620 1 0.653756 0.762041 0.405475
547 1 0.751266 0.678316 0.255243
635 1 0.416579 0.825345 0.433378
508 1 0.989271 0.579137 0.240798
528 1 0.817925 0.584304 0.248268
526 1 0.917238 0.585205 0.157831
598 1 0.909487 0.585857 0.327355
625 1 0.00162654 0.834059 0.321173
629 1 0.163593 0.830916 0.322363
532 1 0.999755 0.750211 0.251833
602 1 0.079932 0.75182 0.337836
609 1 0.331903 0.681863 0.322578
536 1 0.158305 0.757885 0.253042
534 1 0.243544 0.757213 0.165923
606 1 0.251391 0.751798 0.341814
559 1 0.254715 0.821028 0.25495
605 1 0.155354 0.670071 0.324915
537 1 0.326821 0.678304 0.16357
539 1 0.407995 0.659267 0.23844
540 1 0.347948 0.763345 0.248658
610 1 0.413724 0.756801 0.335599
544 1 0.498076 0.744704 0.251236
563 1 0.425719 0.825262 0.245639
633 1 0.337266 0.831844 0.339854
567 1 0.568295 0.837062 0.242279
614 1 0.578129 0.753234 0.334688
549 1 0.836621 0.66516 0.17255
548 1 0.6803 0.756791 0.26782
546 1 0.76348 0.752728 0.178825
552 1 0.83293 0.764524 0.266833
551 1 0.92344 0.676517 0.259115
575 1 0.921048 0.83355 0.258043
573 1 0.82962 0.840233 0.173612
555 1 0.0866365 0.832245 0.236815
626 1 0.0807691 0.915183 0.3383
560 1 0.161053 0.93234 0.261456
564 1 0.341268 0.916711 0.250873
630 1 0.25115 0.906773 0.323291
639 1 0.583455 0.845862 0.421173
636 1 0.333546 0.92292 0.412811
637 1 0.505353 0.821383 0.336394
568 1 0.498417 0.913666 0.239567
646 1 0.930409 0.907367 0.339505
638 1 0.586511 0.915212 0.337059
572 1 0.666931 0.916546 0.245397
616 1 0.511519 0.747906 0.419625
571 1 0.754078 0.838842 0.24926
570 1 0.753531 0.923319 0.159932
576 1 0.824559 0.92208 0.252387
647 1 0.925789 0.823715 0.413138
553 1 0.993796 0.825598 0.165672
641 1 0.656209 0.83732 0.333213
556 1 0.00236272 0.907337 0.235034
574 1 0.924329 0.916235 0.164807
643 1 0.735901 0.834659 0.408975
580 1 0.99587 0.598696 0.408802
642 1 0.744612 0.912204 0.3359
627 1 0.096019 0.840704 0.417294
640 1 0.505599 0.917831 0.416343
644 1 0.671706 0.906099 0.435865
634 1 0.429251 0.906075 0.332819
584 1 0.161534 0.591435 0.417488
588 1 0.33222 0.583671 0.41089
587 1 0.418812 0.500787 0.425415
586 1 0.405986 0.585506 0.325043
628 1 0.00371251 0.919254 0.415886
611 1 0.426102 0.650762 0.403145
648 1 0.850259 0.942392 0.417249
617 1 0.670364 0.668903 0.350352
613 1 0.492025 0.676483 0.32505
592 1 0.500951 0.589641 0.435983
596 1 0.661123 0.59176 0.426238
447 1 0.60067 0.515906 0.0761707
594 1 0.748566 0.598513 0.338795
624 1 0.833508 0.756557 0.423106
619 1 0.75346 0.666414 0.430062
600 1 0.826171 0.589592 0.427117
623 1 0.909695 0.660601 0.420441
621 1 0.835181 0.663913 0.343707
718 1 0.922965 0.924705 0.492785
632 1 0.163782 0.917785 0.421862
604 1 0.00835159 0.749019 0.41284
603 1 0.0877211 0.673915 0.416642
501 1 0.835781 0.828991 0.00374455
608 1 0.166385 0.753172 0.414566
607 1 0.245015 0.67939 0.408788
631 1 0.25332 0.834875 0.405413
525 1 0.842547 0.503422 0.165143
159 1 0.585687 0.994019 0.415283
85 1 0.509058 0.989859 0.153133
21 1 0.834761 0.993502 0.00607783
489 1 0.332178 0.840146 0.00277128
494 1 0.5922 0.912758 0.00440252
229 1 0.503814 0.983306 0.497231
654 1 0.241342 0.585331 0.492319
579 1 0.0669234 0.500608 0.416954
697 1 0.0163278 0.826227 0.487476
507 1 0.0889942 0.513196 0.240955
511 1 0.249449 0.503572 0.263652
93 1 0.838454 0.998533 0.163732
509 1 0.169098 0.502943 0.163678
455 1 0.916285 0.505485 0.0881975
15 1 0.596633 0.983614 0.0841998
449 1 0.672036 0.516746 0.00270553
519 1 0.58132 0.513526 0.264035
19 1 0.74467 0.984888 0.0763678
585 1 0.335775 0.503558 0.32401
145 1 0.996054 0.999022 0.322768
717 1 0.835669 0.840969 0.498687
474 1 0.760726 0.741552 0.00986039
466 1 0.402135 0.756965 0.0035612
461 1 0.1585 0.667083 0.00112498
446 1 0.591111 0.596806 0.01546
470 1 0.587065 0.754641 0.0036201
498 1 0.761046 0.910287 0.00388552
5 1 0.162108 0.994623 0.00766561
714 1 0.772643 0.927188 0.49732
497 1 0.680303 0.820025 0.00500437
457 1 0.00428964 0.654451 0.00321527
438 1 0.244063 0.577434 0.000258438
469 1 0.490996 0.687558 0.00928068
502 1 0.91884 0.899997 0.00803089
454 1 0.936131 0.575353 0.00150141
453 1 0.833063 0.500727 0.00778057
434 1 0.0808218 0.580608 0.00340585
481 1 0.996833 0.812715 0.00206284
677 1 0.169202 0.674098 0.494071
442 1 0.429724 0.592712 0.00193634
445 1 0.501539 0.505767 0.000807186
673 1 0.000279213 0.666601 0.495416
652 1 0.987901 0.575026 0.598411
722 1 0.0773385 0.575285 0.667149
807 1 0.565415 0.507975 0.910496
485 1 0.160815 0.832553 0.995114
656 1 0.16606 0.578657 0.576984
726 1 0.255674 0.594454 0.654505
679 1 0.25359 0.672319 0.567147
458 1 0.0691235 0.739628 0.994348
731 1 0.419913 0.507157 0.728416
660 1 0.338602 0.594041 0.580237
730 1 0.423137 0.587144 0.665999
805 1 0.482377 0.502054 0.81511
664 1 0.512243 0.578007 0.589962
757 1 0.493095 0.673693 0.674865
844 1 0.00940179 0.888336 0.914892
668 1 0.668432 0.575494 0.575251
738 1 0.759143 0.584782 0.67104
1 1 0.988574 0.988496 0.994339
297 1 0.329848 0.982225 0.663183
672 1 0.826767 0.597842 0.574171
658 1 0.414822 0.569632 0.516875
363 1 0.0807981 0.997711 0.919307
295 1 0.261573 0.985265 0.756711
675 1 0.090114 0.673042 0.568295
745 1 0.997858 0.669655 0.65883
680 1 0.174161 0.749623 0.580391
676 1 0.991835 0.744874 0.570106
725 1 0.173266 0.507015 0.656853
750 1 0.249388 0.740062 0.655135
684 1 0.321284 0.758324 0.570377
703 1 0.251283 0.841722 0.584048
683 1 0.416677 0.683513 0.581909
707 1 0.416296 0.839272 0.575782
753 1 0.334913 0.666474 0.674367
754 1 0.40338 0.753973 0.667171
777 1 0.325005 0.828975 0.668901
687 1 0.581135 0.671951 0.590327
688 1 0.496314 0.7496 0.590651
692 1 0.656713 0.75377 0.593878
711 1 0.590242 0.837026 0.584026
811 1 0.758338 0.50304 0.9221
691 1 0.759941 0.676306 0.585967
696 1 0.839037 0.763546 0.590207
710 1 0.596798 0.910557 0.506638
715 1 0.753969 0.842369 0.58637
789 1 0.817289 0.837786 0.673861
365 1 0.165621 0.996125 0.84127
765 1 0.842245 0.664632 0.677743
695 1 0.916082 0.67169 0.587923
719 1 0.931634 0.835544 0.57845
769 1 0.99803 0.839132 0.671508
766 1 0.921201 0.763162 0.665606
667 1 0.75443 0.502788 0.595814
699 1 0.0789001 0.837437 0.568688
700 1 0.0114904 0.920763 0.581791
770 1 0.0980687 0.934371 0.644534
861 1 0.81899 0.810802 0.834193
704 1 0.16918 0.914476 0.571663
708 1 0.335912 0.902888 0.573682
686 1 0.589707 0.762619 0.506442
797 1 0.182252 0.509144 0.819072
231 1 0.574151 0.999554 0.573581
778 1 0.422334 0.905063 0.677694
377 1 0.666978 0.993123 0.840131
712 1 0.501073 0.925977 0.576157
716 1 0.683355 0.921717 0.579609
782 1 0.588773 0.920812 0.658967
863 1 0.91131 0.820326 0.911865
720 1 0.845417 0.918953 0.58283
727 1 0.250082 0.511472 0.741302
299 1 0.410578 0.985241 0.751799
862 1 0.908111 0.904625 0.849009
790 1 0.901071 0.901343 0.673235
709 1 0.50485 0.846226 0.511162
223 1 0.239488 0.994972 0.576712
749 1 0.161678 0.670635 0.643161
724 1 0.99012 0.583972 0.741608
728 1 0.177235 0.585264 0.744367
864 1 0.843405 0.90575 0.929912
751 1 0.245572 0.665896 0.74669
798 1 0.250801 0.582323 0.837904
651 1 0.0842459 0.503288 0.586869
854 1 0.584912 0.914212 0.844805
732 1 0.331819 0.579327 0.749501
736 1 0.508265 0.585802 0.747215
802 1 0.402361 0.583821 0.837134
307 1 0.74468 0.999066 0.756322
734 1 0.588225 0.58512 0.672382
806 1 0.574871 0.586207 0.832731
740 1 0.663006 0.58008 0.756106
810 1 0.758152 0.566491 0.842313
763 1 0.745769 0.656961 0.754592
837 1 0.829788 0.662137 0.830267
742 1 0.911865 0.583038 0.664117
375 1 0.584537 0.994449 0.927825
852 1 0.330586 0.924755 0.912054
744 1 0.832913 0.569233 0.756044
662 1 0.586759 0.595698 0.507365
746 1 0.0811883 0.74932 0.658126
747 1 0.0872958 0.657201 0.748498
771 1 0.0839591 0.850199 0.73782
752 1 0.147877 0.743207 0.748612
756 1 0.317193 0.737153 0.756713
821 1 0.155325 0.663909 0.835026
822 1 0.234684 0.750804 0.828982
781 1 0.505542 0.841708 0.66019
755 1 0.412587 0.66089 0.743861
825 1 0.317837 0.662701 0.832624
779 1 0.405311 0.835009 0.754293
853 1 0.488145 0.818964 0.825513
759 1 0.576288 0.668294 0.746943
760 1 0.485529 0.752726 0.741789
758 1 0.577382 0.746004 0.664805
783 1 0.575285 0.824273 0.751912
761 1 0.674975 0.673469 0.670437
762 1 0.745541 0.755066 0.660961
785 1 0.669232 0.839738 0.661774
764 1 0.662598 0.756486 0.752643
748 1 0.996366 0.747362 0.742843
767 1 0.9202 0.659838 0.749079
768 1 0.834488 0.74326 0.750928
776 1 0.162696 0.925745 0.74366
772 1 0.99453 0.919666 0.75455
773 1 0.168697 0.840668 0.67077
774 1 0.239033 0.91953 0.661162
775 1 0.260221 0.819816 0.760492
780 1 0.31882 0.902838 0.743092
799 1 0.242514 0.50288 0.917085
850 1 0.418322 0.91602 0.837577
723 1 0.0795166 0.503647 0.746744
784 1 0.505058 0.922783 0.755856
682 1 0.437756 0.752618 0.500361
815 1 0.913561 0.501838 0.910463
786 1 0.751536 0.926978 0.662547
787 1 0.747435 0.834863 0.748512
858 1 0.768463 0.910463 0.853217
788 1 0.654405 0.908557 0.742645
860 1 0.664641 0.913074 0.92412
791 1 0.920893 0.822368 0.761174
792 1 0.828752 0.918972 0.746427
849 1 0.325728 0.837499 0.850961
794 1 0.0929738 0.563676 0.840187
819 1 0.0788766 0.656825 0.915608
796 1 0.0106984 0.554153 0.916189
836 1 0.650777 0.757598 0.914339
800 1 0.160215 0.584528 0.918478
361 1 0.983144 0.987392 0.848751
846 1 0.233018 0.907133 0.825423
804 1 0.331986 0.585655 0.923237
842 1 0.0844608 0.907816 0.822702
801 1 0.325991 0.500612 0.829792
840 1 0.841723 0.731254 0.91025
808 1 0.493159 0.59036 0.903344
831 1 0.572018 0.665406 0.903428
856 1 0.494865 0.924232 0.932925
812 1 0.663925 0.584952 0.902179
816 1 0.839641 0.580821 0.920502
838 1 0.927297 0.740828 0.832578
841 1 0.0108851 0.830166 0.827013
383 1 0.899446 0.989941 0.924251
834 1 0.728516 0.74079 0.835862
814 1 0.931905 0.580044 0.839563
839 1 0.921197 0.663552 0.91144
848 1 0.158672 0.922276 0.924938
845 1 0.162003 0.831248 0.821417
818 1 0.0706519 0.74031 0.820508
843 1 0.0879952 0.834897 0.905773
824 1 0.14956 0.741472 0.918592
820 1 0.00648372 0.764115 0.904194
817 1 0.00379029 0.65415 0.823144
823 1 0.241131 0.661826 0.923775
847 1 0.244662 0.816251 0.926186
828 1 0.314962 0.736547 0.906026
835 1 0.75234 0.652655 0.918922
827 1 0.418942 0.665859 0.917954
826 1 0.40473 0.736775 0.830325
851 1 0.412786 0.817288 0.91259
857 1 0.659699 0.83767 0.847083
829 1 0.493264 0.675898 0.822904
855 1 0.582767 0.842341 0.92502
832 1 0.496625 0.749463 0.91299
830 1 0.581451 0.746761 0.829916
859 1 0.771762 0.824577 0.92678
833 1 0.655532 0.661661 0.835942
367 1 0.251393 0.999243 0.920957
301 1 0.505721 0.996908 0.666787
289 1 0.99487 0.996185 0.668714
735 1 0.582507 0.505805 0.743237
490 1 0.408427 0.916256 0.998313
713 1 0.678561 0.828029 0.509798
227 1 0.409798 0.997941 0.578435
311 1 0.907623 0.995413 0.746483
693 1 0.837876 0.685579 0.500443
690 1 0.749349 0.758731 0.50223
379 1 0.76216 0.985787 0.915284
655 1 0.252468 0.502933 0.582954
737 1 0.67435 0.513235 0.670244
809 1 0.658369 0.506453 0.835458
478 1 0.916987 0.741198 0.991012
659 1 0.411551 0.500401 0.60197
685 1 0.510807 0.673725 0.512668
669 1 0.829799 0.501675 0.500138
657 1 0.328853 0.503948 0.501631
493 1 0.503519 0.828054 0.990199
666 1 0.752593 0.57426 0.507903
450 1 0.748697 0.584267 0.997179
462 1 0.24451 0.747039 0.995541
465 1 0.338988 0.660497 0.999632
706 1 0.420979 0.918399 0.502113
649 1 0.987412 0.506847 0.500123
670 1 0.916169 0.594024 0.504362
674 1 0.0880052 0.756387 0.505775
482 1 0.0833433 0.916724 0.999685
486 1 0.246636 0.908468 0.999975
473 1 0.677643 0.671535 0.990453
689 1 0.668517 0.687002 0.504515
