ITEM: TIMESTEP
4500
ITEM: NUMBER OF ATOMS
2048
ITEM: BOX BOUNDS pp pp pp
0.0000000000000000e+00 4.2079999999999998e+01
0.0000000000000000e+00 4.2079999999999998e+01
0.0000000000000000e+00 4.2079999999999998e+01
ITEM: ATOMS id type xs ys zs
130 1 0.064357 0.0668965 0.127876
165 1 0.111758 0.129907 0.120574
399 1 0.449955 0.00212018 0.435838
8 1 0.118367 0.0716719 0.0532517
12 1 0.253757 0.0496666 0.0624422
39 1 0.19368 0.122608 0.0534502
1311 1 0.941312 0.497256 0.310324
43 1 0.300689 0.124691 0.0616808
267 1 0.315664 0.0044675 0.312591
1031 1 0.18918 0.497686 0.0643416
16 1 0.368113 0.0639576 0.0556378
1163 1 0.3097 0.498759 0.186225
20 1 0.485523 0.0650845 0.0503388
146 1 0.554461 0.0625064 0.123139
51 1 0.568725 0.122992 0.0590014
24 1 0.63133 0.0708485 0.0528131
141 1 0.379329 0.000841623 0.125394
610 1 0.0643258 0.42551 0.487661
28 1 0.746354 0.0525622 0.0687068
181 1 0.622716 0.133238 0.120373
32 1 0.874947 0.0665653 0.0686609
149 1 0.62091 0.00205966 0.123899
4 1 0.00254776 0.0702088 0.0568835
158 1 0.954707 0.0603188 0.127496
554 1 0.297191 0.189754 0.496226
586 1 0.314808 0.311712 0.49898
35 1 0.0606502 0.130331 0.0552832
162 1 0.0616551 0.188279 0.115874
36 1 0.0051915 0.202707 0.0609418
40 1 0.129893 0.18863 0.0663945
44 1 0.241285 0.194422 0.0709923
166 1 0.187068 0.182198 0.133729
1173 1 0.623324 0.490924 0.122219
133 1 0.124372 0.00634691 0.125379
170 1 0.308807 0.189365 0.125616
75 1 0.317068 0.254583 0.0595097
48 1 0.374204 0.188958 0.055447
403 1 0.561506 0.00591569 0.432663
549 1 0.123397 0.12884 0.49418
47 1 0.432137 0.126105 0.05174
79 1 0.436085 0.239479 0.0489639
173 1 0.378862 0.110397 0.1209
174 1 0.434654 0.184313 0.122854
1409 1 0.00793393 0.496654 0.372879
52 1 0.49784 0.188536 0.0547014
56 1 0.625517 0.184325 0.0510104
1027 1 0.0695402 0.494452 0.0650562
55 1 0.693181 0.119281 0.063382
87 1 0.682255 0.251118 0.0613667
263 1 0.191039 0.00109568 0.31014
59 1 0.799144 0.119029 0.06098
60 1 0.747604 0.198952 0.055799
64 1 0.868551 0.19534 0.0679068
189 1 0.886786 0.131565 0.125159
63 1 0.936748 0.129812 0.0707992
190 1 0.942198 0.199293 0.132027
95 1 0.932869 0.244617 0.0667389
221 1 0.870753 0.254422 0.122727
67 1 0.0599084 0.265348 0.069205
194 1 0.0520138 0.318371 0.123839
68 1 0.995479 0.319068 0.0645886
1429 1 0.625612 0.492652 0.376345
197 1 0.115926 0.261579 0.125919
71 1 0.183204 0.252436 0.07312
72 1 0.128095 0.306078 0.0670461
76 1 0.244844 0.309618 0.057889
34 1 0.0640765 0.192035 0.00701434
107 1 0.312019 0.370092 0.0584285
27 1 0.815687 0.00494215 0.0619329
80 1 0.38482 0.308602 0.0526536
206 1 0.429778 0.311076 0.115195
205 1 0.372319 0.257227 0.124303
589 1 0.389792 0.25218 0.494106
83 1 0.575172 0.249505 0.0638605
279 1 0.676343 0.00713037 0.318469
409 1 0.73406 0.00806344 0.37098
84 1 0.492501 0.311642 0.0537998
88 1 0.629562 0.315431 0.0663653
119 1 0.69139 0.380683 0.055985
214 1 0.683342 0.325634 0.119197
126 1 0.92409 0.447881 0.00351834
92 1 0.752898 0.318977 0.062611
91 1 0.81309 0.25722 0.0582134
96 1 0.875639 0.311174 0.0720151
3 1 0.0705734 0.0054755 0.0654515
127 1 0.931057 0.378302 0.0632434
222 1 0.938405 0.313115 0.128147
1171 1 0.56438 0.491738 0.178765
225 1 0.997517 0.379303 0.119271
99 1 0.0642699 0.374185 0.0621822
226 1 0.065147 0.430899 0.12087
104 1 0.129867 0.42981 0.054573
100 1 8.98018e-05 0.438706 0.0631548
1169 1 0.489216 0.49636 0.125488
103 1 0.194728 0.372593 0.052989
230 1 0.177186 0.440266 0.121448
122 1 0.819302 0.433958 0.00485485
108 1 0.246232 0.437255 0.068549
112 1 0.365149 0.436288 0.0640237
397 1 0.380079 0.00236994 0.364755
111 1 0.433468 0.38161 0.0651139
238 1 0.423861 0.438207 0.128803
241 1 0.494129 0.374966 0.120846
115 1 0.564816 0.367445 0.0655267
116 1 0.501603 0.433681 0.0618574
511 1 0.945159 0.375793 0.423125
120 1 0.630112 0.430725 0.0548737
509 1 0.874948 0.372462 0.376845
1425 1 0.506247 0.495171 0.377827
123 1 0.821285 0.372307 0.063494
124 1 0.754153 0.434794 0.0629635
128 1 0.872453 0.445152 0.0664935
253 1 0.877875 0.378756 0.138043
250 1 0.816925 0.440101 0.133461
510 1 0.951945 0.442832 0.36737
157 1 0.870491 0.00209224 0.121719
525 1 0.35734 0.00247446 0.498324
254 1 0.943353 0.442999 0.122353
161 1 0.00480779 0.129877 0.120981
258 1 0.0557431 0.0584265 0.246642
136 1 0.13707 0.0623169 0.177662
163 1 0.0561453 0.116481 0.192103
134 1 0.194416 0.0684438 0.125714
169 1 0.247863 0.13042 0.125779
140 1 0.243517 0.0577656 0.187182
262 1 0.1902 0.057969 0.249323
138 1 0.316386 0.0601968 0.122
275 1 0.571086 0.00537197 0.313136
484 1 0.00531638 0.442615 0.437667
142 1 0.43747 0.0558067 0.122222
144 1 0.375709 0.0571506 0.183675
148 1 0.495495 0.0623713 0.186296
175 1 0.439872 0.120692 0.180525
177 1 0.493799 0.11728 0.113188
305 1 0.512879 0.119668 0.245733
274 1 0.564835 0.0654177 0.242432
179 1 0.559208 0.128996 0.169238
152 1 0.628363 0.0693507 0.186784
150 1 0.682796 0.06351 0.127236
278 1 0.687206 0.0629609 0.243843
154 1 0.808891 0.0547507 0.13433
156 1 0.74584 0.0628622 0.180904
1421 1 0.378257 0.484981 0.374763
132 1 0.998199 0.0518766 0.197232
160 1 0.874442 0.0606727 0.185015
286 1 0.931451 0.061761 0.254689
164 1 0.012342 0.180612 0.188318
290 1 0.0695324 0.189161 0.254468
293 1 0.110175 0.127388 0.247269
168 1 0.121177 0.195582 0.177275
167 1 0.192681 0.121861 0.206674
201 1 0.242595 0.245176 0.135867
199 1 0.17255 0.25343 0.176729
171 1 0.315327 0.122588 0.182412
172 1 0.261264 0.187037 0.187154
329 1 0.260181 0.257106 0.248903
176 1 0.370765 0.177181 0.173301
180 1 0.497251 0.188037 0.184176
178 1 0.551291 0.186704 0.117305
211 1 0.560981 0.258646 0.174455
337 1 0.49577 0.248301 0.246398
306 1 0.564297 0.193822 0.241901
341 1 0.632523 0.257515 0.231917
182 1 0.687184 0.19199 0.112594
184 1 0.616517 0.190193 0.17867
183 1 0.678915 0.124771 0.176681
188 1 0.743187 0.180974 0.186743
185 1 0.738265 0.123566 0.12064
186 1 0.809826 0.192386 0.12169
187 1 0.810906 0.120535 0.180459
314 1 0.818929 0.182863 0.25279
313 1 0.741967 0.122167 0.241135
345 1 0.759567 0.263055 0.247427
289 1 0.992506 0.115819 0.265818
191 1 0.939255 0.118841 0.195141
192 1 0.885765 0.182354 0.19507
317 1 0.87941 0.128303 0.250416
195 1 0.0570334 0.243907 0.188433
322 1 0.0633168 0.321423 0.259232
200 1 0.105264 0.314114 0.191906
325 1 0.118311 0.252381 0.24668
198 1 0.191875 0.319421 0.133048
204 1 0.261027 0.312598 0.191769
231 1 0.17901 0.384649 0.187577
202 1 0.313209 0.311328 0.115528
203 1 0.308405 0.25284 0.182313
208 1 0.373722 0.318489 0.182995
330 1 0.320349 0.308401 0.250376
237 1 0.373348 0.378893 0.120057
207 1 0.431452 0.241688 0.187913
239 1 0.436942 0.379733 0.183243
210 1 0.557973 0.317793 0.125093
209 1 0.478977 0.248808 0.122468
212 1 0.496087 0.320027 0.179637
369 1 0.494189 0.378634 0.249372
373 1 0.621142 0.382577 0.244334
217 1 0.757992 0.258854 0.124534
213 1 0.629303 0.262741 0.125939
216 1 0.6184 0.320571 0.184413
215 1 0.69408 0.237954 0.175358
249 1 0.757861 0.380688 0.12228
218 1 0.815296 0.320884 0.1265
220 1 0.748043 0.314884 0.187983
219 1 0.820008 0.242176 0.19321
251 1 0.8111 0.372057 0.190477
193 1 0.00156033 0.253622 0.12508
223 1 0.937293 0.254767 0.187447
196 1 0.998518 0.303437 0.192361
224 1 0.870562 0.310021 0.188112
229 1 0.128551 0.370992 0.118631
227 1 0.0506233 0.370675 0.184016
228 1 0.00447611 0.444909 0.184237
353 1 0.990595 0.372938 0.254726
522 1 0.308244 0.0654797 0.48798
233 1 0.259327 0.373818 0.118142
232 1 0.120719 0.43759 0.18774
361 1 0.252603 0.376726 0.258268
358 1 0.177643 0.437439 0.249236
236 1 0.244565 0.419965 0.189698
234 1 0.308932 0.434286 0.138047
235 1 0.309429 0.370814 0.19557
240 1 0.366332 0.438682 0.193953
244 1 0.49055 0.440979 0.183976
245 1 0.631263 0.381851 0.117551
243 1 0.560139 0.390055 0.178358
242 1 0.559702 0.436202 0.115342
248 1 0.630794 0.439159 0.178706
370 1 0.558939 0.443609 0.241511
247 1 0.699608 0.387566 0.178587
246 1 0.696036 0.438242 0.1225
374 1 0.685221 0.433533 0.250531
508 1 0.75424 0.440387 0.443087
593 1 0.492399 0.249435 0.491009
1161 1 0.242917 0.485927 0.135525
252 1 0.757217 0.445552 0.194192
381 1 0.877481 0.375976 0.258478
377 1 0.753902 0.38424 0.254041
256 1 0.876181 0.433669 0.194871
255 1 0.935912 0.369812 0.190665
382 1 0.947851 0.438892 0.25278
512 1 0.87618 0.433728 0.43708
264 1 0.11413 0.0720399 0.305677
291 1 0.0595166 0.130309 0.306279
261 1 0.128802 0.00491089 0.254228
106 1 0.309208 0.457968 0.00885529
266 1 0.304281 0.0656442 0.234996
268 1 0.250222 0.0660107 0.312452
270 1 0.45301 0.0664368 0.252368
301 1 0.375383 0.130146 0.244948
272 1 0.381932 0.0736023 0.30697
303 1 0.452432 0.132644 0.311023
429 1 0.377224 0.126592 0.377057
276 1 0.510625 0.0663974 0.304984
307 1 0.570275 0.132201 0.306869
402 1 0.563679 0.0696748 0.36971
502 1 0.698685 0.444563 0.376153
280 1 0.622504 0.0713395 0.304487
284 1 0.746285 0.069377 0.313481
282 1 0.816108 0.0781792 0.251451
288 1 0.86804 0.0643918 0.319965
315 1 0.807643 0.130524 0.313933
582 1 0.198483 0.318077 0.492534
260 1 0.00977668 0.0559847 0.322669
319 1 0.924331 0.129921 0.321997
518 1 0.196459 0.0627369 0.497623
292 1 0.000546573 0.18629 0.321311
449 1 0.0104366 0.255655 0.369324
296 1 0.123712 0.193364 0.310204
297 1 0.257462 0.128287 0.255951
294 1 0.181017 0.197874 0.245739
295 1 0.181269 0.122058 0.297368
300 1 0.246631 0.193395 0.302177
298 1 0.314228 0.189128 0.24812
299 1 0.317628 0.117765 0.300311
304 1 0.378244 0.175011 0.313905
461 1 0.36545 0.243935 0.371406
302 1 0.436896 0.174161 0.249955
335 1 0.446456 0.247356 0.309853
430 1 0.442623 0.178469 0.374106
309 1 0.621179 0.129709 0.232488
308 1 0.506294 0.191889 0.304308
312 1 0.626661 0.192849 0.307067
310 1 0.674226 0.191055 0.246994
437 1 0.621076 0.129879 0.372503
311 1 0.688881 0.12385 0.309385
343 1 0.691576 0.259231 0.296471
438 1 0.682803 0.185371 0.379972
316 1 0.743358 0.197196 0.29704
347 1 0.81498 0.244793 0.307687
473 1 0.759203 0.252225 0.365818
318 1 0.936868 0.186804 0.259111
320 1 0.874014 0.190211 0.317496
351 1 0.942519 0.245059 0.3279
323 1 0.0637623 0.252808 0.314744
355 1 0.0731482 0.37779 0.31355
450 1 0.0677208 0.312865 0.371541
326 1 0.187897 0.30789 0.242129
328 1 0.122009 0.30558 0.313518
327 1 0.187885 0.253802 0.305435
454 1 0.184539 0.306114 0.376089
332 1 0.256052 0.308951 0.306556
331 1 0.312862 0.234998 0.308567
336 1 0.375713 0.305494 0.308881
363 1 0.317716 0.367512 0.308626
333 1 0.372157 0.242541 0.241949
334 1 0.424866 0.305077 0.248777
340 1 0.500398 0.311607 0.305822
367 1 0.436712 0.369365 0.307443
462 1 0.438338 0.307752 0.364118
339 1 0.570405 0.254506 0.296583
338 1 0.551991 0.300624 0.233807
342 1 0.689229 0.329879 0.241992
344 1 0.629134 0.322213 0.29901
470 1 0.680528 0.316932 0.363901
375 1 0.683845 0.385965 0.316471
346 1 0.823568 0.312518 0.257096
348 1 0.742755 0.32586 0.299126
379 1 0.816145 0.379962 0.316282
321 1 0.00296856 0.242983 0.258972
349 1 0.880614 0.248989 0.246286
324 1 0.00464151 0.320034 0.313965
350 1 0.937646 0.303308 0.254315
352 1 0.877799 0.30894 0.318231
498 1 0.560974 0.432123 0.373949
354 1 0.0649898 0.436418 0.250391
356 1 0.0102314 0.447654 0.307294
387 1 0.0574811 0.00133925 0.441093
357 1 0.117543 0.375589 0.243541
360 1 0.123339 0.441666 0.3105
359 1 0.179687 0.369837 0.298687
504 1 0.626952 0.432159 0.427977
1431 1 0.690651 0.49914 0.434079
364 1 0.239161 0.437164 0.314142
362 1 0.308999 0.432982 0.256378
368 1 0.369059 0.433201 0.311806
365 1 0.374685 0.373143 0.243891
1159 1 0.184979 0.489833 0.181686
497 1 0.499966 0.379783 0.368114
366 1 0.434239 0.428299 0.247072
494 1 0.440494 0.43343 0.377898
145 1 0.505111 0.00165401 0.120963
371 1 0.56185 0.382613 0.303107
372 1 0.504391 0.440503 0.310647
376 1 0.624692 0.443784 0.306589
380 1 0.764546 0.441693 0.319144
486 1 0.184197 0.439575 0.376904
506 1 0.816685 0.425784 0.3786
378 1 0.81694 0.437401 0.254649
384 1 0.873189 0.439775 0.31657
1293 1 0.376286 0.497618 0.245206
383 1 0.940681 0.380545 0.320889
386 1 0.0705248 0.0665424 0.371723
419 1 0.0656426 0.12098 0.438318
500 1 0.511545 0.442207 0.440153
390 1 0.183158 0.068002 0.361263
421 1 0.126222 0.130756 0.364755
287 1 0.9265 0.00252627 0.315812
392 1 0.133547 0.0567362 0.436031
423 1 0.189404 0.120458 0.440256
1411 1 0.0639638 0.499145 0.435918
394 1 0.320264 0.0640402 0.362285
425 1 0.255064 0.12586 0.363058
396 1 0.249885 0.0543475 0.429578
400 1 0.382606 0.05731 0.433207
427 1 0.313185 0.128764 0.433587
398 1 0.434984 0.0585428 0.366874
433 1 0.504755 0.120553 0.372803
31 1 0.939293 0.00490661 0.0636489
490 1 0.31693 0.434258 0.36947
131 1 0.0686938 0.00994525 0.186242
404 1 0.506153 0.0568413 0.434504
435 1 0.569378 0.131779 0.444841
408 1 0.629876 0.06523 0.443762
441 1 0.749308 0.134329 0.381295
406 1 0.679517 0.0647303 0.378039
439 1 0.678028 0.124842 0.436166
412 1 0.74285 0.057489 0.428968
613 1 0.126949 0.372239 0.488658
269 1 0.363218 0.00468467 0.252213
492 1 0.246229 0.447995 0.431714
410 1 0.80134 0.0620199 0.37993
1041 1 0.501075 0.499004 0.00586113
496 1 0.374036 0.44382 0.443332
488 1 0.122963 0.429984 0.433609
414 1 0.946689 0.0659722 0.376129
416 1 0.871299 0.059883 0.439162
388 1 0.995356 0.0709829 0.435426
1541 1 0.124898 0.496413 0.489456
417 1 0.000978152 0.124236 0.375175
418 1 0.0668812 0.187469 0.375637
420 1 0.00184821 0.174742 0.444127
1291 1 0.31382 0.499523 0.311704
422 1 0.189504 0.17973 0.372873
424 1 0.138025 0.179479 0.432089
629 1 0.637712 0.373219 0.489151
457 1 0.247766 0.253055 0.365585
426 1 0.317603 0.182567 0.3733
428 1 0.253274 0.178726 0.420577
431 1 0.430228 0.124627 0.438543
432 1 0.374355 0.183787 0.445087
463 1 0.434044 0.254177 0.423538
11 1 0.319071 0.00151618 0.0671533
73 1 0.252803 0.245391 0.0045216
436 1 0.501224 0.184178 0.437372
434 1 0.562341 0.189372 0.374244
465 1 0.495934 0.253899 0.3735
1035 1 0.310312 0.488881 0.0772953
440 1 0.6225 0.196812 0.433729
444 1 0.757299 0.187532 0.439431
445 1 0.866853 0.120941 0.381856
477 1 0.869881 0.243246 0.386634
443 1 0.812448 0.110732 0.447697
442 1 0.814866 0.189795 0.37202
415 1 0.933843 0.00453959 0.435633
446 1 0.931998 0.189731 0.387831
479 1 0.937514 0.248354 0.44223
447 1 0.931333 0.118425 0.45115
448 1 0.869411 0.176045 0.436485
451 1 0.0654423 0.240664 0.439999
483 1 0.0690844 0.374682 0.430681
453 1 0.128495 0.240077 0.376613
485 1 0.12196 0.376617 0.374022
455 1 0.192479 0.253707 0.446275
456 1 0.121348 0.305152 0.431969
487 1 0.183191 0.373621 0.427799
460 1 0.24952 0.317349 0.436298
129 1 0.0103228 0.00570555 0.136782
489 1 0.254318 0.3781 0.362841
458 1 0.311756 0.313093 0.37425
493 1 0.375261 0.372522 0.37079
459 1 0.31321 0.250227 0.440461
491 1 0.315845 0.380565 0.428476
481 1 0.0155718 0.383437 0.377515
482 1 0.0648656 0.443506 0.373823
478 1 0.943578 0.314986 0.376796
1039 1 0.436866 0.499634 0.0682193
495 1 0.435349 0.373357 0.440343
1295 1 0.441286 0.49273 0.314072
464 1 0.37553 0.314973 0.435272
1179 1 0.821944 0.499067 0.189095
499 1 0.569929 0.371011 0.441487
469 1 0.617126 0.246507 0.365958
501 1 0.621658 0.378876 0.366088
467 1 0.555518 0.251085 0.42957
466 1 0.559679 0.317276 0.366752
468 1 0.501013 0.316924 0.423744
1157 1 0.12132 0.494229 0.130413
472 1 0.620884 0.299556 0.428636
471 1 0.692111 0.254151 0.425664
503 1 0.68618 0.372727 0.42705
590 1 0.444595 0.311596 0.490824
505 1 0.745371 0.373372 0.376199
474 1 0.813526 0.316545 0.369287
476 1 0.749794 0.31644 0.430359
507 1 0.808692 0.370636 0.444362
475 1 0.808513 0.25975 0.440789
633 1 0.744205 0.377401 0.498582
480 1 0.884384 0.315273 0.427218
452 1 0.998484 0.297096 0.43492
598 1 0.685065 0.31001 0.491086
407 1 0.683273 0.00153584 0.44293
118 1 0.688009 0.445952 3.80363e-05
281 1 0.746985 0.00742289 0.261577
614 1 0.193381 0.443233 0.488437
413 1 0.874682 0.00640834 0.377477
125 1 0.879906 0.373802 0.0074112
1165 1 0.366524 0.498875 0.13534
22 1 0.693092 0.0513813 0.00356651
1181 1 0.881569 0.498691 0.127739
1153 1 0.00642139 0.490568 0.120161
7 1 0.181999 0.00441315 0.0682399
38 1 0.188038 0.190322 0.00254253
1155 1 0.0658487 0.492821 0.189227
1303 1 0.699714 0.494983 0.304732
159 1 0.935203 0.00233073 0.184698
385 1 0.000715493 0.00383406 0.388792
601 1 0.749227 0.256431 0.499877
561 1 0.509397 0.13007 0.49533
526 1 0.440123 0.0575792 0.488505
594 1 0.570988 0.30687 0.490804
1025 1 0.995614 0.495972 0.000373325
569 1 0.74964 0.125535 0.498722
621 1 0.376421 0.383308 0.49796
42 1 0.320723 0.193047 0.000425417
566 1 0.679622 0.182986 0.493351
617 1 0.252218 0.384268 0.488483
18 1 0.570923 0.0608023 0.00338525
90 1 0.813963 0.320222 0.00414811
558 1 0.441599 0.183385 0.495825
609 1 0.993003 0.370567 0.486352
121 1 0.761048 0.37565 0.00424113
98 1 0.0606124 0.433074 0.0041182
110 1 0.433563 0.442144 0.00573991
94 1 0.934929 0.306846 0.00364058
630 1 0.686871 0.443285 0.494844
45 1 0.359401 0.121173 0.000270356
546 1 0.0620254 0.175282 0.49924
65 1 0.99076 0.259526 0.00576601
33 1 0.987761 0.13459 0.0110104
58 1 0.822341 0.187165 0.00618476
61 1 0.868488 0.123532 0.015149
606 1 0.936194 0.312171 0.490269
114 1 0.565381 0.435649 0.014309
1029 1 0.125371 0.497403 0.00595444
1049 1 0.747026 0.499887 0.00977598
82 1 0.568066 0.304637 0.00184296
574 1 0.938289 0.187709 0.492628
93 1 0.880224 0.254259 0.00847543
66 1 0.0631738 0.313507 0.00943747
113 1 0.51106 0.376832 0.00174324
625 1 0.503564 0.373994 0.499641
578 1 0.0759777 0.318662 0.499298
622 1 0.439341 0.440681 0.487206
520 1 0.135364 0.0575813 0.55734
547 1 0.0739076 0.126617 0.569215
516 1 0.98874 0.0554644 0.579396
585 1 0.243289 0.255363 0.505145
1022 1 0.935883 0.444322 0.870502
647 1 0.186177 0.00410344 0.680732
551 1 0.193457 0.129286 0.561931
1037 1 0.37904 0.493733 0.999598
1951 1 0.938871 0.493451 0.942575
1935 1 0.443427 0.495949 0.942609
524 1 0.241691 0.0584888 0.558001
781 1 0.383095 0.00489357 0.761681
1945 1 0.749407 0.492442 0.867753
528 1 0.3812 0.0565739 0.563404
559 1 0.43917 0.113485 0.550871
654 1 0.436149 0.058998 0.619616
1793 1 0.008006 0.49574 0.749997
1023 1 0.932205 0.365328 0.946737
532 1 0.501808 0.0579201 0.556757
536 1 0.622455 0.0654229 0.559595
659 1 0.56259 0.00294599 0.690255
567 1 0.694156 0.122196 0.56181
662 1 0.69212 0.0566814 0.631188
540 1 0.749952 0.0508326 0.570368
571 1 0.810444 0.12049 0.573841
544 1 0.874466 0.0523481 0.571751
697 1 0.744583 0.124344 0.630869
1671 1 0.19705 0.493932 0.685124
1681 1 0.507859 0.499244 0.614628
575 1 0.933842 0.12993 0.572466
548 1 0.00186575 0.176818 0.566994
674 1 0.0798839 0.194135 0.627958
705 1 0.994772 0.244512 0.616285
29 1 0.870139 0.00540668 0.995599
1797 1 0.136703 0.499692 0.753816
552 1 0.125453 0.184567 0.559573
583 1 0.198221 0.253088 0.567172
556 1 0.25996 0.197414 0.566043
555 1 0.302605 0.121653 0.564278
1931 1 0.313446 0.493157 0.937472
560 1 0.363542 0.180834 0.543351
686 1 0.43118 0.17364 0.624313
689 1 0.491695 0.116337 0.617672
573 1 0.876918 0.108733 0.514208
564 1 0.491953 0.182836 0.56659
563 1 0.552479 0.120751 0.573577
568 1 0.624969 0.184109 0.565998
595 1 0.566627 0.253863 0.56892
14 1 0.425979 0.0675032 0.996557
725 1 0.634664 0.254283 0.623831
599 1 0.699932 0.234993 0.561882
694 1 0.679153 0.182458 0.63068
37 1 0.124285 0.133017 0.996048
572 1 0.752529 0.177231 0.558024
698 1 0.809591 0.191749 0.6355
603 1 0.799283 0.26023 0.566815
1805 1 0.364759 0.496789 0.744802
733 1 0.876401 0.260587 0.637877
576 1 0.856537 0.197553 0.567917
607 1 0.933134 0.252936 0.561638
702 1 0.92336 0.189821 0.628866
1547 1 0.321158 0.499531 0.555165
538 1 0.812486 0.0592646 0.513622
579 1 0.0743523 0.247821 0.554681
921 1 0.743194 0.0077844 0.875931
706 1 0.0650543 0.321969 0.631349
580 1 0.997041 0.318907 0.570883
584 1 0.134377 0.318668 0.549322
588 1 0.25398 0.329182 0.562373
745 1 0.247238 0.389163 0.617789
545 1 0.997463 0.111219 0.515821
587 1 0.32232 0.250549 0.548641
592 1 0.376274 0.322178 0.562088
714 1 0.320919 0.323534 0.618812
591 1 0.444632 0.253368 0.563266
623 1 0.445126 0.37018 0.548695
721 1 0.50834 0.24496 0.617341
753 1 0.495561 0.3843 0.625323
596 1 0.513008 0.32196 0.560058
600 1 0.635239 0.313585 0.565997
627 1 0.581946 0.369571 0.549783
722 1 0.569813 0.319898 0.623621
78 1 0.431545 0.324747 0.989194
771 1 0.0549139 0.0132257 0.812101
2 1 0.04779 0.0564083 0.993958
785 1 0.504743 0.00796149 0.748148
631 1 0.683749 0.387512 0.56463
726 1 0.695011 0.31878 0.62426
634 1 0.815069 0.423331 0.508218
604 1 0.744453 0.316385 0.564193
635 1 0.812164 0.37413 0.568047
730 1 0.807217 0.321064 0.631714
761 1 0.749558 0.386871 0.616905
1045 1 0.622024 0.494639 0.99794
608 1 0.877859 0.320225 0.562737
925 1 0.865623 0.0140231 0.887751
611 1 0.0620159 0.37547 0.557093
616 1 0.116998 0.434774 0.548675
612 1 0.00138924 0.429515 0.553632
1019 1 0.820646 0.3706 0.941992
615 1 0.189113 0.386296 0.559084
523 1 0.305182 0.0084856 0.557995
1795 1 0.0682489 0.485358 0.811221
619 1 0.318006 0.383271 0.559231
620 1 0.257035 0.443557 0.557597
624 1 0.383723 0.441074 0.557266
1927 1 0.178962 0.489599 0.945887
641 1 0.0212631 0.00278532 0.63258
750 1 0.448942 0.445093 0.626219
1024 1 0.875686 0.431849 0.942036
657 1 0.501257 0.00968284 0.629872
637 1 0.873158 0.369455 0.500474
899 1 0.0617373 0.00671779 0.931852
628 1 0.504472 0.428893 0.556666
757 1 0.634863 0.374227 0.623285
632 1 0.625253 0.441832 0.569837
758 1 0.687974 0.442523 0.624909
1555 1 0.564082 0.496898 0.554001
57 1 0.737103 0.134013 0.996156
636 1 0.751845 0.445537 0.558779
762 1 0.824978 0.446345 0.626025
639 1 0.936622 0.382606 0.557508
765 1 0.883609 0.375499 0.620736
640 1 0.881856 0.447017 0.564732
102 1 0.189665 0.431492 0.997852
653 1 0.370413 0.00179015 0.626285
1016 1 0.622281 0.43423 0.935642
1559 1 0.690377 0.499924 0.568222
677 1 0.133146 0.132322 0.624182
642 1 0.0723505 0.0584618 0.620466
770 1 0.0692199 0.0813351 0.741972
644 1 0.999042 0.0644918 0.680665
675 1 0.0592565 0.124247 0.676939
648 1 0.12791 0.0794619 0.684363
646 1 0.194438 0.0727932 0.617202
679 1 0.190167 0.132869 0.684989
650 1 0.313523 0.0620768 0.623249
1020 1 0.74909 0.439738 0.937509
652 1 0.24841 0.0731083 0.692178
683 1 0.318973 0.126271 0.695089
1943 1 0.684328 0.497629 0.927733
656 1 0.378438 0.0560941 0.688726
687 1 0.441079 0.121025 0.689882
660 1 0.506648 0.0673266 0.690011
685 1 0.369047 0.116651 0.622127
1799 1 0.190771 0.488402 0.808837
658 1 0.561823 0.0531947 0.623625
664 1 0.628369 0.0581273 0.692263
691 1 0.570416 0.127405 0.679851
81 1 0.499969 0.247846 0.985188
77 1 0.384179 0.254661 0.990405
1011 1 0.564236 0.37392 0.927418
693 1 0.634577 0.117098 0.619997
695 1 0.689628 0.11877 0.683039
901 1 0.121744 0.0142227 0.865365
905 1 0.251345 0.011696 0.881652
666 1 0.808806 0.0605593 0.632728
668 1 0.752652 0.0618097 0.687115
699 1 0.80693 0.123302 0.68561
672 1 0.87671 0.0678838 0.686825
673 1 0.986931 0.128011 0.635607
670 1 0.932422 0.052209 0.63042
676 1 0.996888 0.19918 0.682753
707 1 0.0525703 0.259089 0.669932
802 1 0.0579707 0.180578 0.744345
709 1 0.135931 0.262222 0.618131
678 1 0.200341 0.187237 0.624055
680 1 0.129063 0.201697 0.698222
684 1 0.257721 0.187052 0.683044
711 1 0.195073 0.251006 0.678661
681 1 0.248189 0.121643 0.629125
809 1 0.251761 0.13499 0.745039
682 1 0.322157 0.18205 0.630782
810 1 0.309611 0.189346 0.747751
715 1 0.321869 0.251787 0.689053
688 1 0.374785 0.185612 0.693764
719 1 0.431811 0.251148 0.668453
692 1 0.500823 0.180305 0.679104
690 1 0.563183 0.187137 0.624582
723 1 0.572201 0.245912 0.678436
818 1 0.564006 0.188111 0.750891
696 1 0.627496 0.190132 0.693831
700 1 0.757975 0.194863 0.697911
822 1 0.69862 0.17396 0.752676
729 1 0.74854 0.251553 0.640123
731 1 0.815682 0.255495 0.692618
826 1 0.815696 0.18273 0.759594
701 1 0.871516 0.126932 0.63393
704 1 0.870534 0.198765 0.682383
703 1 0.924919 0.124127 0.687418
735 1 0.93339 0.267548 0.684929
830 1 0.940653 0.192142 0.742352
737 1 0.990649 0.386452 0.618126
708 1 0.00593927 0.320082 0.681071
834 1 0.056291 0.325594 0.747317
741 1 0.128277 0.368926 0.610334
869 1 0.118356 0.379056 0.756483
710 1 0.19903 0.319657 0.625756
713 1 0.274909 0.259566 0.618672
712 1 0.126622 0.303432 0.686114
743 1 0.179274 0.370527 0.685597
716 1 0.243975 0.319171 0.683677
717 1 0.377581 0.259915 0.616223
747 1 0.319615 0.375893 0.679071
842 1 0.305676 0.320384 0.753481
718 1 0.446255 0.320457 0.615274
720 1 0.372468 0.315054 0.688438
751 1 0.429264 0.372278 0.690585
845 1 0.375201 0.259238 0.751288
846 1 0.446208 0.302417 0.74921
724 1 0.50569 0.318414 0.681868
755 1 0.573164 0.373293 0.68244
885 1 0.628478 0.376968 0.74111
727 1 0.68619 0.247642 0.696195
728 1 0.629495 0.311152 0.687091
854 1 0.699076 0.308616 0.744384
732 1 0.757557 0.333125 0.684155
858 1 0.815556 0.331006 0.745375
763 1 0.81341 0.384837 0.683424
736 1 0.876878 0.324215 0.688882
734 1 0.93825 0.31952 0.626515
862 1 0.934093 0.322477 0.757076
833 1 0.989951 0.261208 0.742486
861 1 0.883097 0.252979 0.759535
1012 1 0.508859 0.441351 0.948495
738 1 0.0608026 0.43917 0.614328
739 1 0.0688545 0.378602 0.685197
744 1 0.126912 0.450976 0.676511
740 1 0.00298314 0.440691 0.682138
533 1 0.625752 0.0018171 0.500562
1673 1 0.244297 0.493953 0.617055
742 1 0.183456 0.432905 0.630411
748 1 0.252382 0.435312 0.686923
746 1 0.319117 0.437672 0.620031
874 1 0.306832 0.437461 0.752131
1007 1 0.440798 0.393559 0.944324
749 1 0.386456 0.393175 0.616846
752 1 0.378863 0.433745 0.68472
877 1 0.364216 0.38188 0.744092
754 1 0.563852 0.43977 0.619536
756 1 0.508194 0.429823 0.704584
882 1 0.566792 0.459808 0.744728
13 1 0.370154 0.00472319 0.999081
602 1 0.799743 0.314294 0.503521
984 1 0.624824 0.309564 0.932087
759 1 0.691149 0.380717 0.675558
760 1 0.623216 0.43952 0.681927
886 1 0.680525 0.450291 0.746883
979 1 0.56372 0.256861 0.937524
889 1 0.748271 0.381892 0.760109
764 1 0.754972 0.45066 0.688105
890 1 0.813535 0.44332 0.74447
1675 1 0.293578 0.493175 0.685006
1002 1 0.308914 0.440353 0.875706
766 1 0.938362 0.443965 0.630374
767 1 0.948073 0.380538 0.687229
768 1 0.883401 0.441847 0.681457
776 1 0.125299 0.0713068 0.810455
85 1 0.625461 0.253331 0.99832
803 1 0.0608996 0.123136 0.811171
898 1 0.0564973 0.0601004 0.875966
773 1 0.129303 0.000579934 0.760054
774 1 0.182454 0.0627391 0.751053
649 1 0.249425 0.00318578 0.625685
807 1 0.190515 0.135971 0.8094
902 1 0.183299 0.0814171 0.862094
780 1 0.248095 0.0677236 0.817863
778 1 0.311087 0.0540628 0.752932
811 1 0.315072 0.116527 0.799992
1553 1 0.498597 0.498881 0.505486
784 1 0.372078 0.0518111 0.82356
782 1 0.438167 0.0618915 0.748634
788 1 0.4997 0.057785 0.818674
815 1 0.444219 0.116818 0.802976
910 1 0.435011 0.0600018 0.88106
786 1 0.555879 0.0633913 0.756781
792 1 0.617888 0.0540667 0.822729
819 1 0.562994 0.122879 0.810428
790 1 0.692907 0.0411049 0.734763
796 1 0.744228 0.0621022 0.80862
823 1 0.686728 0.121737 0.812354
1004 1 0.251975 0.433066 0.942632
794 1 0.82286 0.0591415 0.752555
800 1 0.880043 0.0645412 0.816059
827 1 0.810354 0.115219 0.818539
1008 1 0.377537 0.435989 0.924809
798 1 0.941902 0.062747 0.753492
772 1 0.998545 0.0657393 0.815369
926 1 0.934233 0.0664405 0.877268
929 1 0.00617099 0.125758 0.882509
651 1 0.324084 0.000112536 0.695585
805 1 0.132698 0.132098 0.756033
837 1 0.106963 0.258221 0.754825
808 1 0.119967 0.199293 0.80986
930 1 0.0664866 0.19249 0.887898
806 1 0.189424 0.191666 0.749406
839 1 0.197358 0.257282 0.797219
934 1 0.191079 0.192764 0.86898
812 1 0.247168 0.189037 0.80242
938 1 0.302904 0.191337 0.862901
816 1 0.381243 0.188859 0.816001
843 1 0.317459 0.254327 0.816334
937 1 0.249563 0.128052 0.870926
813 1 0.381809 0.127923 0.754014
814 1 0.443086 0.188685 0.745394
847 1 0.437815 0.245594 0.811611
817 1 0.502259 0.126661 0.746495
820 1 0.509167 0.185449 0.811109
949 1 0.619825 0.117626 0.873809
824 1 0.623061 0.184588 0.809085
849 1 0.510883 0.244598 0.726812
825 1 0.757704 0.119674 0.749499
821 1 0.620382 0.1122 0.754952
855 1 0.680272 0.263945 0.810722
828 1 0.749247 0.197259 0.81533
857 1 0.754974 0.254641 0.749058
829 1 0.873342 0.118599 0.744869
832 1 0.893046 0.186931 0.808502
801 1 0.987031 0.122175 0.74055
831 1 0.944808 0.120109 0.817498
804 1 0.998376 0.178342 0.810695
863 1 0.945664 0.257419 0.810934
958 1 0.953584 0.197323 0.876284
835 1 0.0420113 0.243486 0.81058
836 1 0.999952 0.308947 0.806909
840 1 0.114449 0.317006 0.806928
867 1 0.0547865 0.370765 0.811542
962 1 0.0630139 0.306901 0.871844
965 1 0.12607 0.253881 0.863731
838 1 0.173898 0.323074 0.747961
966 1 0.185963 0.313313 0.870626
844 1 0.249502 0.316037 0.815211
997 1 0.116954 0.372799 0.875481
871 1 0.190467 0.381079 0.808741
873 1 0.249086 0.377874 0.740572
841 1 0.250742 0.247056 0.739415
969 1 0.243724 0.251904 0.868238
973 1 0.373397 0.254717 0.874952
848 1 0.386201 0.316234 0.809546
879 1 0.44049 0.373222 0.804559
974 1 0.434787 0.313709 0.876548
851 1 0.562993 0.257569 0.813679
850 1 0.562167 0.318242 0.748208
852 1 0.50588 0.300734 0.808057
856 1 0.628034 0.32098 0.822734
1009 1 0.494747 0.373708 0.872705
978 1 0.556135 0.3252 0.865927
1017 1 0.745832 0.391095 0.859361
853 1 0.631722 0.257914 0.748552
860 1 0.753105 0.320267 0.814587
859 1 0.818657 0.240794 0.81386
864 1 0.875258 0.31556 0.828321
986 1 0.81059 0.326141 0.876423
990 1 0.93656 0.304336 0.882657
895 1 0.94607 0.382059 0.811402
866 1 0.0725405 0.442935 0.741454
1015 1 0.695982 0.383506 0.943379
994 1 0.0588423 0.429847 0.875972
872 1 0.126408 0.437202 0.816557
865 1 0.998463 0.391888 0.750411
988 1 0.754402 0.312178 0.941362
1941 1 0.619194 0.496913 0.868571
1001 1 0.243934 0.382985 0.87957
998 1 0.193685 0.439978 0.875025
870 1 0.183141 0.434796 0.742551
876 1 0.25957 0.426825 0.811702
875 1 0.317935 0.37899 0.813072
880 1 0.37132 0.44251 0.819494
878 1 0.435066 0.442028 0.748236
1006 1 0.438579 0.443342 0.866787
1949 1 0.870281 0.494676 0.893057
881 1 0.506331 0.369494 0.761422
883 1 0.569813 0.380451 0.807128
1010 1 0.553266 0.440079 0.869227
884 1 0.500975 0.440208 0.810091
888 1 0.620177 0.439919 0.806
1000 1 0.131077 0.424449 0.933354
1014 1 0.684378 0.446912 0.858178
1013 1 0.626587 0.385907 0.870009
887 1 0.681494 0.387203 0.80407
892 1 0.748036 0.445317 0.80276
1021 1 0.87527 0.374758 0.884156
1018 1 0.814848 0.432158 0.88142
891 1 0.813103 0.385675 0.810535
1923 1 0.0621713 0.490116 0.940869