ITEM: TIMESTEP
12150
ITEM: NUMBER OF ATOMS
864
ITEM: BOX BOUNDS pp pp pp
0.0000000000000000e+00 3.1559999999999999e+01
0.0000000000000000e+00 3.1559999999999999e+01
0.0000000000000000e+00 3.1559999999999999e+01
ITEM: ATOMS id type xs ys zs
74 1 0.0781304 0.0989261 0.187928
4 1 0.00272478 0.0927093 0.0891642
10 1 0.411772 0.091621 -0.00448127
163 1 0.756808 0.00435682 0.426978
8 1 0.160728 0.0992211 0.0924985
78 1 0.246014 0.080087 0.174852
105 1 0.328876 0.164736 0.163919
14 1 0.59016 0.0802026 0.00830065
167 1 0.920419 0.00444556 0.427878
12 1 0.336084 0.0826629 0.0869868
35 1 0.419112 0.169328 0.0911253
109 1 0.508103 0.166671 0.172906
82 1 0.416898 0.0861911 0.174805
505 1 0.986011 0.478493 0.171652
16 1 0.508732 0.0881951 0.0976497
86 1 0.590559 0.0809794 0.172853
39 1 0.591261 0.170377 0.0888097
20 1 0.663563 0.0767856 0.0870852
113 1 0.658239 0.166106 0.172669
90 1 0.732118 0.0751624 0.18507
24 1 0.843169 0.0932931 0.0776764
75 1 0.0841152 0.000261405 0.24236
657 1 0.329238 0.498009 0.486383
47 1 0.926826 0.155633 0.0683699
216 1 0.826961 0.407509 0.420666
97 1 0.998594 0.174942 0.175433
25 1 0.0229703 0.164845 0.00087191
27 1 0.0730039 0.174233 0.0975346
32 1 0.160781 0.253965 0.103115
98 1 0.0833808 0.262762 0.17034
51 1 0.0764383 0.331213 0.0860866
121 1 0.992801 0.31699 0.16581
589 1 0.502896 0.496415 0.344951
101 1 0.163994 0.173095 0.176366
31 1 0.242152 0.182161 0.089701
36 1 0.335122 0.244901 0.0772673
106 1 0.43637 0.251938 0.178074
83 1 0.425478 0.00250242 0.265917
40 1 0.508042 0.253487 0.0915776
63 1 0.604111 0.333272 0.0834421
110 1 0.599915 0.261477 0.175074
44 1 0.664994 0.242212 0.0807566
43 1 0.749294 0.160136 0.0865516
37 1 0.497338 0.172343 0.0207165
114 1 0.743564 0.246066 0.164516
117 1 0.81952 0.137232 0.171163
48 1 0.8403 0.245977 0.0750158
28 1 -0.00988368 0.244598 0.0801496
513 1 0.354415 0.501404 0.164947
56 1 0.162669 0.417979 0.0762739
212 1 0.658982 0.397023 0.412201
437 1 0.16877 0.503163 0.00466121
55 1 0.238229 0.332137 0.0845067
172 1 1.00616 0.244818 0.432959
7 1 0.241045 -0.00614151 0.0983909
129 1 0.33356 0.322748 0.158652
59 1 0.411691 0.326207 0.0822534
60 1 0.331901 0.41782 0.0623334
170 1 0.0808485 0.248959 0.357192
245 1 0.185117 0.147607 0.496504
64 1 0.521148 0.410085 0.0847738
68 1 0.669814 0.420939 0.0791197
593 1 0.667591 0.48229 0.332495
19 1 0.742214 0.0136344 0.0740322
67 1 0.750775 0.322755 0.060523
72 1 0.835419 0.422923 0.0732904
169 1 0.994579 0.169874 0.333809
52 1 0.98558 0.425812 0.0813549
71 1 0.917127 0.328837 0.0881805
210 1 0.747704 0.403623 0.328944
211 1 0.752649 0.323583 0.412928
80 1 0.161753 0.078688 0.255037
76 1 -0.00245525 0.0867736 0.249349
146 1 0.0769314 0.0881688 0.340041
173 1 0.164052 0.159843 0.33618
184 1 0.510105 0.25514 0.425977
579 1 0.0907098 0.492359 0.416581
84 1 0.340679 0.0798642 0.250885
177 1 0.340382 0.162728 0.344613
150 1 0.256298 0.0807063 0.341631
95 1 0.930334 0.00149729 0.241191
34 1 0.419625 0.23982 0.014837
517 1 0.5143 0.498128 0.160022
88 1 0.501204 0.0831513 0.245771
107 1 0.432112 0.187409 0.247646
154 1 0.422367 0.0916905 0.336316
208 1 0.502752 0.40918 0.412989
158 1 0.57281 0.0684472 0.327496
77 1 0.166461 0.00874822 0.166791
92 1 0.656235 0.0629085 0.264838
115 1 0.746604 0.15348 0.262566
203 1 0.429818 0.32862 0.409773
162 1 0.737611 0.0772196 0.349483
185 1 0.661548 0.158222 0.332721
199 1 0.241016 0.332117 0.427251
96 1 0.849185 0.0585949 0.245599
94 1 0.910903 0.100785 0.156496
209 1 0.6554 0.333219 0.333846
99 1 0.0871348 0.182926 0.263299
100 1 0.996197 0.245281 0.256029
197 1 0.159555 0.322215 0.347877
104 1 0.181798 0.249158 0.269431
193 1 0.987861 0.328109 0.337422
102 1 0.252504 0.251538 0.172878
103 1 0.246663 0.161169 0.254743
108 1 0.34557 0.237413 0.241786
174 1 0.257765 0.264436 0.349799
205 1 0.50518 0.326142 0.325226
133 1 0.509646 0.33584 0.172533
201 1 0.335484 0.337574 0.334412
131 1 0.413249 0.339344 0.254013
178 1 0.417916 0.242616 0.332587
111 1 0.593708 0.16626 0.257925
112 1 0.512502 0.258779 0.24099
135 1 0.577491 0.339612 0.260228
137 1 0.676516 0.351719 0.171867
182 1 0.574081 0.248452 0.335983
116 1 0.678922 0.253369 0.258025
120 1 0.819728 0.242025 0.246734
186 1 0.761559 0.229952 0.339974
119 1 0.909603 0.159873 0.256425
118 1 0.895571 0.213613 0.157199
143 1 0.901244 0.324265 0.236688
204 1 0.332625 0.414118 0.403661
125 1 0.170004 0.333891 0.185323
123 1 0.0931396 0.310893 0.26225
122 1 0.0767008 0.416005 0.159887
124 1 0.988769 0.400764 0.243942
128 1 0.15658 0.414369 0.258446
127 1 0.257698 0.320391 0.256461
126 1 0.25177 0.403558 0.155352
132 1 0.33109 0.407821 0.250528
198 1 0.252435 0.409815 0.328111
200 1 0.178543 0.422113 0.413375
130 1 0.412816 0.409447 0.146902
136 1 0.496656 0.42595 0.243448
202 1 0.418431 0.418006 0.327104
147 1 0.0775322 -0.00265717 0.405868
189 1 0.834393 0.135397 0.331431
134 1 0.593304 0.422202 0.159923
206 1 0.572414 0.417744 0.326703
140 1 0.656847 0.415892 0.253723
138 1 0.753147 0.413135 0.144333
139 1 0.753981 0.332072 0.24343
141 1 0.832966 0.321898 0.162215
195 1 0.081756 0.329495 0.429413
214 1 0.902571 0.414985 0.339781
144 1 0.837856 0.414637 0.24248
142 1 0.909357 0.40356 0.161778
165 1 0.827474 0.00806762 0.337668
194 1 0.0809532 0.413067 0.328805
215 1 0.912862 0.317969 0.412154
171 1 0.0822 0.17335 0.416522
187 1 0.750483 0.158624 0.411144
188 1 0.669802 0.233112 0.42281
152 1 0.1633 0.0736151 0.411905
156 1 0.359093 0.0824512 0.421453
180 1 0.333334 0.264045 0.428087
175 1 0.25395 0.152152 0.41294
595 1 0.752448 0.495358 0.416912
207 1 0.590037 0.322176 0.417942
160 1 0.494362 0.0864068 0.42882
181 1 0.500667 0.169873 0.329227
179 1 0.423525 0.180554 0.42674
164 1 0.662887 0.0702046 0.433299
183 1 0.583638 0.152208 0.403411
176 1 0.178777 0.238323 0.422612
190 1 0.897646 0.240232 0.329035
196 1 0.00598126 0.422763 0.418288
192 1 0.829396 0.226888 0.418005
213 1 0.832338 0.331422 0.335423
93 1 0.828236 0.00991111 0.138083
191 1 0.908636 0.157422 0.43394
148 1 0.997491 0.089216 0.429431
168 1 0.826682 0.0887772 0.437552
166 1 0.925868 0.0747295 0.340897
509 1 0.158822 0.493901 0.168936
159 1 0.572288 0.00814843 0.418881
9 1 0.314613 0.000338326 -0.00244788
597 1 0.829659 0.500718 0.322002
523 1 0.755969 0.477997 0.243915
222 1 0.271306 0.0851466 0.491565
277 1 0.508479 0.325168 0.50916
435 1 0.0790229 0.496099 0.0852924
3 1 0.100525 0.0204505 0.0823417
11 1 0.412596 0.00371339 0.076624
145 1 0.00801213 -0.00433719 0.329766
665 1 0.668614 0.497551 0.497653
38 1 0.57632 0.257422 0.00119617
439 1 0.255341 0.493349 0.101224
527 1 0.912509 0.484202 0.248891
581 1 0.168368 0.49057 0.340709
507 1 0.0694847 0.476032 0.243435
585 1 0.331134 0.504087 0.30921
23 1 0.927697 0.00946799 0.0898311
41 1 0.687594 0.155665 0.00180474
73 1 0.00671506 0.0172136 0.164931
577 1 -0.00907286 0.487866 0.319456
511 1 0.249279 0.489381 0.223442
653 1 0.176981 0.491651 0.49608
270 1 0.258627 0.416583 0.497244
441 1 0.351433 0.504549 -0.00874426
1 1 0.0236279 -0.00223108 0.000137209
49 1 -0.0113254 0.330455 0.00289788
278 1 0.582724 0.409456 0.490297
33 1 0.33008 0.158472 0.0133574
285 1 0.82238 0.324352 0.492396
249 1 0.34217 0.169089 0.493735
258 1 0.756152 0.233913 0.501129
274 1 0.4141 0.426574 0.482902
286 1 0.918148 0.421729 0.47174
2 1 0.095927 0.0863519 0.00156592
6 1 0.247483 0.0836041 0.010882
46 1 0.914101 0.247022 -0.00484212
218 1 0.0746187 0.0631411 0.497245
265 1 0.993816 0.33314 0.487938
225 1 0.341865 -0.00626671 0.501873
224 1 0.173031 0.0890249 0.583752
262 1 0.906782 0.24881 0.491614
290 1 0.103325 0.0845693 0.672154
228 1 0.332547 0.0750094 0.571932
247 1 0.265863 0.158369 0.575134
430 1 0.90168 0.429138 0.816819
298 1 0.412251 0.0851919 0.656261
232 1 0.500624 0.0608501 0.587704
255 1 0.581168 0.161788 0.592269
242 1 0.10775 0.2305 0.514108
236 1 0.659037 0.0796161 0.601931
431 1 0.914676 0.33962 0.895617
259 1 0.745843 0.157685 0.584403
240 1 0.827295 0.0807835 0.597644
254 1 0.585609 0.246955 0.513984
22 1 0.935221 0.0730273 0.992485
220 1 0.0101357 0.0922536 0.573364
655 1 0.248995 0.497936 0.57842
226 1 0.42377 0.075966 0.510378
243 1 0.0767376 0.169376 0.596398
314 1 0.104096 0.251242 0.658319
244 1 -0.00139086 0.245587 0.573286
267 1 0.0793031 0.323659 0.580441
248 1 0.187509 0.256583 0.579659
252 1 0.329196 0.249481 0.584395
341 1 0.170612 0.338112 0.66608
318 1 0.248478 0.268216 0.676073
321 1 0.336251 0.159677 0.671198
251 1 0.410417 0.165459 0.590764
322 1 0.417182 0.262394 0.662511
275 1 0.427218 0.356813 0.576804
257 1 0.66063 0.153307 0.495935
256 1 0.504388 0.251956 0.599214
279 1 0.603482 0.331384 0.58973
326 1 0.576269 0.251106 0.686883
260 1 0.671048 0.233738 0.57715
325 1 0.50689 0.166537 0.65937
299 1 0.420028 -0.0046338 0.75509
330 1 0.743608 0.245679 0.670588
283 1 0.738341 0.340844 0.580334
263 1 0.917195 0.16525 0.592964
264 1 0.824682 0.258882 0.592693
334 1 0.922074 0.254797 0.665786
357 1 0.824565 0.335411 0.668143
246 1 0.253802 0.240324 0.498807
272 1 0.169415 0.423069 0.583873
268 1 0.986395 0.40766 0.565308
297 1 0.341658 0.00470905 0.668403
271 1 0.252791 0.34982 0.578879
412 1 1.00045 0.408448 0.915702
741 1 0.831622 0.500865 0.656287
427 1 0.747235 0.323713 0.907276
281 1 0.67789 0.305715 0.497874
276 1 0.333322 0.433569 0.582523
280 1 0.520864 0.408796 0.592053
349 1 0.496835 0.340184 0.663673
241 1 0.998305 0.163472 0.502737
377 1 0.666494 -0.00139135 0.835479
284 1 0.661624 0.423835 0.574001
289 1 0.00773044 0.00542643 0.659542
426 1 0.740558 0.415858 0.830817
238 1 0.908003 0.0773939 0.517819
288 1 0.83799 0.413768 0.577246
793 1 0.997849 0.499206 0.846657
432 1 0.826765 0.424895 0.900085
309 1 0.828908 0.0104742 0.673796
287 1 0.912402 0.331349 0.558402
296 1 0.174677 0.0827385 0.762028
292 1 -0.00399093 0.0710022 0.754208
317 1 0.186434 0.165285 0.65547
315 1 0.0950917 0.173874 0.749977
362 1 0.0945977 0.0921401 0.838935
294 1 0.254835 0.0804628 0.675499
300 1 0.329512 0.087662 0.758733
366 1 0.261607 0.0900568 0.836387
230 1 0.577294 0.0870768 0.511158
370 1 0.418685 0.0810315 0.833635
304 1 0.487294 0.100199 0.743455
302 1 0.572542 0.0765892 0.673679
327 1 0.577193 0.171377 0.771557
58 1 0.432528 0.404439 0.997621
428 1 0.666375 0.431391 0.905916
306 1 0.73444 0.0875343 0.690088
308 1 0.652206 0.0932167 0.760398
378 1 0.74738 0.0727672 0.826138
312 1 0.839292 0.0823158 0.767305
331 1 0.726139 0.164213 0.758718
310 1 0.918405 0.0817254 0.674737
335 1 0.924017 0.166263 0.753137
405 1 0.833082 0.187601 0.826083
313 1 0.0120364 0.166496 0.681446
320 1 0.165078 0.25815 0.752357
386 1 0.0911611 0.253031 0.82088
319 1 0.252587 0.177859 0.751348
343 1 0.260931 0.343676 0.772275
390 1 0.250288 0.249276 0.840668
417 1 0.325839 0.332792 0.844645
323 1 0.407603 0.178104 0.752966
324 1 0.336558 0.268346 0.751457
394 1 0.412445 0.263684 0.849219
347 1 0.403708 0.343658 0.754917
329 1 0.643871 0.172707 0.680986
353 1 0.66139 0.317488 0.669776
328 1 0.496997 0.244658 0.765629
351 1 0.576902 0.333491 0.756255
332 1 0.651113 0.253349 0.762596
402 1 0.746085 0.247494 0.82815
333 1 0.82499 0.157819 0.677338
355 1 0.731212 0.340504 0.750196
336 1 0.822779 0.250595 0.744737
316 1 1.0137 0.255675 0.74966
359 1 0.918471 0.336593 0.742519
406 1 0.925463 0.244718 0.830681
337 1 1.00654 0.340105 0.659742
409 1 1.01007 0.347314 0.818365
723 1 0.101517 0.491853 0.732145
338 1 0.089212 0.417253 0.657222
339 1 0.0823148 0.336143 0.748559
344 1 0.171102 0.408967 0.746898
410 1 0.0856884 0.426664 0.822603
413 1 0.156395 0.348859 0.835946
342 1 0.251517 0.416327 0.668009
348 1 0.320428 0.43671 0.764826
345 1 0.331979 0.337079 0.663855
346 1 0.413662 0.417956 0.661093
352 1 0.487189 0.422721 0.744779
423 1 0.583092 0.345425 0.900586
350 1 0.594435 0.420811 0.667349
422 1 0.585898 0.436216 0.820535
421 1 0.498281 0.341821 0.833064
354 1 0.748447 0.409192 0.660253
356 1 0.68174 0.426461 0.738908
360 1 0.817664 0.41146 0.749568
233 1 0.684613 0.00670249 0.514348
358 1 0.920745 0.419873 0.675045
340 1 0.992525 0.427792 0.751916
389 1 0.169234 0.173448 0.822747
385 1 -0.000588406 0.163651 0.838023
364 1 2.76254e-05 0.0790605 0.904858
420 1 0.332396 0.415763 0.916718
30 1 0.238694 0.252028 0.99346
393 1 0.330647 0.174872 0.825007
303 1 0.579163 0.00268341 0.772029
368 1 0.176231 0.0873143 0.924512
391 1 0.247824 0.167562 0.932626
424 1 0.509324 0.425805 0.906106
729 1 0.331187 0.498547 0.666885
66 1 0.756657 0.39886 0.983206
418 1 0.417585 0.423119 0.824302
372 1 0.325365 0.0893164 0.922722
376 1 0.480771 0.0908177 0.921751
374 1 0.566889 0.093274 0.839795
234 1 0.752561 0.0918365 0.507344
380 1 0.646381 0.0873866 0.905076
384 1 0.838202 0.0663633 0.913027
269 1 0.164114 0.319519 0.501643
415 1 0.249371 0.331758 0.902375
382 1 0.916101 0.0868981 0.83031
407 1 0.906808 0.151525 0.926143
659 1 0.419654 0.50388 0.581317
411 1 0.0710458 0.331588 0.913476
387 1 0.100442 0.16771 0.922824
392 1 0.155431 0.252566 0.896656
29 1 0.160995 0.175056 1.01326
26 1 0.0959556 0.258438 1.00935
53 1 0.172471 0.342481 0.984295
261 1 0.83928 0.168413 0.519178
419 1 0.417096 0.341721 0.919591
395 1 0.395767 0.169861 0.917552
396 1 0.330592 0.244211 0.916482
397 1 0.488036 0.173999 0.848346
399 1 0.575796 0.166573 0.94394
400 1 0.4898 0.235789 0.927618
398 1 0.586619 0.253287 0.85997
425 1 0.660568 0.333103 0.829293
307 1 0.740233 0.000680912 0.749155
733 1 0.502945 0.503527 0.667546
429 1 0.830121 0.3326 0.830222
401 1 0.657672 0.170317 0.836598
404 1 0.679275 0.23521 0.931859
408 1 0.849442 0.245876 0.916391
403 1 0.746907 0.145359 0.901982
371 1 0.400072 0.00672901 0.926686
388 1 0.00275628 0.248815 0.925984
416 1 0.169633 0.423696 0.914638
414 1 0.250481 0.42841 0.839292
239 1 0.911486 0.00363292 0.589437
305 1 0.655036 0.000984147 0.688175
375 1 0.583007 -0.00402647 0.912864
667 1 0.760031 0.497012 0.575435
671 1 0.916887 0.504933 0.582174
801 1 0.331705 0.509838 0.830663
803 1 0.425088 0.500825 0.915457
363 1 0.0973127 0.00324919 0.908905
282 1 0.742958 0.410853 0.495941
45 1 0.832176 0.162966 1.00602
227 1 0.409828 -0.0151381 0.584252
365 1 0.175225 -0.00413766 0.828249
57 1 0.331788 0.332377 0.99222
42 1 0.761462 0.241404 1.00326
13 1 0.501859 0.0078138 0.991179
65 1 0.669606 0.337661 0.99286
50 1 0.0844907 0.420298 0.995255
273 1 0.349584 0.346549 0.504797
62 1 0.593098 0.413673 0.982956
17 1 0.659236 0.00276281 0.990541
18 1 0.763855 0.0774722 0.993371
250 1 0.419438 0.25655 0.514453
54 1 0.25346 0.434722 0.984999
61 1 0.512854 0.332533 0.986622
266 1 0.091783 0.409945 0.496014
70 1 0.925079 0.420273 0.997728
69 1 0.852505 0.333489 0.997361
253 1 0.502865 0.175288 0.508963
440 1 0.169533 0.577343 0.0879428
436 1 0.981566 0.583896 0.100472
681 1 0.343407 0.663582 0.487588
15 1 0.581493 0.996403 0.0799157
444 1 0.343618 0.583597 0.0786933
489 1 0.329903 0.827932 0.00278736
591 1 0.591171 0.497625 0.408876
599 1 0.927501 0.49917 0.399777
514 1 0.415661 0.589166 0.165558
467 1 0.414691 0.671509 0.0987608
448 1 0.494502 0.595319 0.0944079
646 1 0.919132 0.932881 0.332915
452 1 0.664979 0.592372 0.0824273
648 1 0.827768 0.923351 0.423491
456 1 0.816564 0.581688 0.0753568
475 1 0.742228 0.66473 0.0971342
522 1 0.739456 0.5802 0.170941
545 1 0.664732 0.668365 0.185007
151 1 0.254458 0.99552 0.421042
479 1 0.896667 0.658925 0.0925729
526 1 0.908973 0.575226 0.192385
450 1 0.736329 0.583967 -0.00826993
438 1 0.257973 0.571521 0.000166374
459 1 0.0688502 0.654495 0.0760634
483 1 0.0677688 0.820567 0.0900692
460 1 0.991986 0.740079 0.071525
434 1 0.0925031 0.573672 -0.00191645
718 1 0.918692 0.906982 0.503998
463 1 0.262504 0.662794 0.0849767
464 1 0.174525 0.748229 0.07532
682 1 0.427117 0.750536 0.510415
561 1 0.339476 0.829137 0.155518
468 1 0.333928 0.744244 0.0691522
491 1 0.419152 0.835941 0.0811869
472 1 0.501649 0.757605 0.0861866
471 1 0.576836 0.680906 0.0821825
495 1 0.573342 0.845249 0.0896882
476 1 0.666497 0.768109 0.0767132
89 1 0.658133 0.994744 0.154558
478 1 0.901471 0.749049 -0.00677873
449 1 0.662975 0.498993 -0.00396826
499 1 0.752059 0.826533 0.0941993
79 1 0.258392 1.00703 0.262541
529 1 -0.00930013 0.686793 0.163427
480 1 0.823361 0.747198 0.08919
503 1 0.917798 0.828115 0.0781181
91 1 0.746796 1.00137 0.248174
477 1 0.823092 0.664676 0.00882791
650 1 0.0959667 0.579591 0.497542
484 1 0.0109956 0.906318 0.0745077
554 1 0.0847341 0.928532 0.165618
487 1 0.258061 0.818748 0.0792347
488 1 0.149178 0.916828 0.0914197
558 1 0.245133 0.907606 0.162682
492 1 0.338318 0.916749 0.0842606
562 1 0.415279 0.913016 0.16606
647 1 0.915713 0.849537 0.407013
443 1 0.43613 0.494122 0.076121
451 1 0.738506 0.510301 0.0835923
698 1 0.0725939 0.923338 0.495723
496 1 0.486968 0.921778 0.0873077
500 1 0.664991 0.917905 0.0825346
566 1 0.589379 0.908848 0.175498
701 1 0.167048 0.823449 0.498375
161 1 0.666068 0.984461 0.332024
570 1 0.757181 0.919716 0.14597
497 1 0.66475 0.839445 -0.00416247
5 1 0.179942 0.995455 0.0047058
504 1 0.84282 0.911686 0.0810165
574 1 0.925394 0.924212 0.166864
454 1 0.909552 0.583444 0.00861308
506 1 0.0709554 0.581058 0.156541
482 1 0.0986504 0.910659 -0.0106449
533 1 0.180331 0.672723 0.15367
455 1 0.904871 0.501344 0.0834561
512 1 0.160965 0.590445 0.22718
510 1 0.258588 0.579723 0.171333
535 1 0.229407 0.672379 0.249298
537 1 0.325101 0.66502 0.182474
643 1 0.743472 0.837094 0.416444
516 1 0.349817 0.584476 0.251869
539 1 0.410685 0.667281 0.257994
609 1 0.330925 0.665411 0.332092
541 1 0.501064 0.675486 0.173502
518 1 0.582877 0.588993 0.155875
520 1 0.512952 0.584859 0.241113
543 1 0.584719 0.668516 0.263088
642 1 0.747904 0.912866 0.329983
524 1 0.660054 0.586081 0.25294
594 1 0.742029 0.581435 0.333861
528 1 0.818303 0.587542 0.261466
85 1 0.503008 1.00141 0.16797
508 1 -0.000121784 0.580329 0.244624
598 1 0.90732 0.58652 0.32027
530 1 0.083674 0.735769 0.168137
531 1 0.0808293 0.66199 0.254512
534 1 0.257121 0.756504 0.16516
536 1 0.166892 0.758718 0.259165
540 1 0.331318 0.74959 0.257185
565 1 0.488764 0.844077 0.160993
538 1 0.4088 0.736024 0.173233
563 1 0.411892 0.831865 0.247106
610 1 0.413697 0.754864 0.331837
542 1 0.587448 0.748553 0.177767
544 1 0.500052 0.753989 0.256755
548 1 0.662897 0.771436 0.247482
567 1 0.570459 0.831717 0.253133
549 1 0.826145 0.650817 0.172945
547 1 0.743062 0.671988 0.252722
546 1 0.747261 0.749174 0.167735
618 1 0.741703 0.758637 0.32041
550 1 0.90684 0.753253 0.165719
551 1 0.921922 0.68695 0.253702
532 1 0.0105939 0.753472 0.260222
552 1 0.82853 0.74116 0.251922
557 1 0.146267 0.834018 0.166491
673 1 0.988325 0.663134 0.492565
555 1 0.0814877 0.823604 0.246122
553 1 0.980107 0.831228 0.160665
153 1 0.334364 0.99772 0.350356
559 1 0.25448 0.83328 0.252518
560 1 0.17184 0.935433 0.247299
564 1 0.335628 0.92341 0.250409
568 1 0.49838 0.91319 0.245714
81 1 0.330889 0.998939 0.163852
638 1 0.575805 0.898922 0.334156
572 1 0.683066 0.920595 0.237731
637 1 0.499987 0.833561 0.33585
569 1 0.674892 0.840276 0.170329
644 1 0.693754 0.923757 0.421165
573 1 0.842613 0.844147 0.167279
571 1 0.772145 0.854505 0.237464
645 1 0.826544 0.84039 0.332607
640 1 0.504704 0.931877 0.420125
575 1 0.922573 0.823057 0.255072
556 1 0.99769 0.914695 0.245105
576 1 0.843807 0.937615 0.255247
578 1 0.0713411 0.575008 0.347099
631 1 0.261245 0.823223 0.419958
582 1 0.245675 0.567816 0.309328
584 1 0.165555 0.579267 0.412209
588 1 0.340111 0.5791 0.399591
689 1 0.649672 0.680803 0.493055
634 1 0.419337 0.908337 0.340015
586 1 0.442395 0.583236 0.324045
611 1 0.420909 0.668954 0.412984
632 1 0.152876 0.907089 0.418295
87 1 0.579479 0.97776 0.255816
590 1 0.569171 0.583175 0.331924
613 1 0.499866 0.670385 0.347457
592 1 0.50405 0.588697 0.427177
615 1 0.583829 0.661497 0.41897
617 1 0.679512 0.664224 0.353439
596 1 0.666891 0.573503 0.42042
600 1 0.828799 0.595985 0.392621
693 1 0.839385 0.664034 0.488697
623 1 0.915696 0.681481 0.414883
621 1 0.836492 0.683281 0.342008
580 1 0.981971 0.586092 0.400471
630 1 0.256666 0.921237 0.337525
633 1 0.333507 0.829943 0.34493
635 1 0.415564 0.83502 0.421598
605 1 0.153247 0.662085 0.327728
602 1 0.0911158 0.756097 0.333496
603 1 0.0764182 0.659882 0.415882
629 1 0.176837 0.847662 0.322002
608 1 0.166072 0.755852 0.410625
607 1 0.253189 0.680974 0.409981
606 1 0.259061 0.755988 0.324918
636 1 0.331991 0.909289 0.416793
612 1 0.340331 0.745977 0.414946
614 1 0.58507 0.74143 0.343922
639 1 0.597226 0.833331 0.419008
641 1 0.660488 0.831721 0.330454
616 1 0.502602 0.767111 0.422848
620 1 0.672828 0.755431 0.41847
619 1 0.751781 0.679101 0.431175
624 1 0.829862 0.772637 0.415156
601 1 1.00157 0.661988 0.326546
622 1 0.916111 0.755348 0.336796
604 1 0.996107 0.748478 0.418097
626 1 0.0875168 0.905171 0.323717
628 1 0.993273 0.934345 0.418896
625 1 0.999683 0.825768 0.338753
627 1 0.0688568 0.842349 0.418918
677 1 0.157153 0.674317 0.485279
702 1 0.232529 0.899661 0.503293
445 1 0.496676 0.48705 -0.0107771
525 1 0.818105 0.500494 0.160072
155 1 0.424454 0.989674 0.421764
447 1 0.580131 0.505563 0.0707849
649 1 0.984693 0.507598 0.488268
669 1 0.835747 0.494508 0.488913
519 1 0.587876 0.503278 0.255969
433 1 1.00878 0.49588 0.00465369
149 1 0.162548 0.979987 0.335238
221 1 0.165202 0.983077 0.496312
587 1 0.405083 0.504392 0.403613
521 1 0.661318 0.498041 0.167479
157 1 0.48885 1.00277 0.342606
515 1 0.428531 0.500596 0.257554
583 1 0.261398 0.505759 0.397463
674 1 0.0643685 0.748337 0.506301
446 1 0.574587 0.589728 0.0115854
710 1 0.596051 0.920617 0.50333
493 1 0.516974 0.850426 -0.00108239
469 1 0.497008 0.670846 0.00709013
498 1 0.745115 0.923612 -0.00267339
697 1 0.992879 0.828611 0.497884
21 1 0.858378 1.00373 0.00781334
658 1 0.41576 0.568954 0.496696
466 1 0.41399 0.741517 0.00164691
705 1 0.328133 0.827417 0.494635
686 1 0.577803 0.760477 0.507938
442 1 0.42318 0.58759 0.000546196
666 1 0.753902 0.587829 0.494331
662 1 0.59426 0.578801 0.493553
654 1 0.272658 0.588144 0.48095
486 1 0.24983 0.91673 0.0204018
670 1 0.903483 0.586618 0.479639
485 1 0.17196 0.829628 -0.00147132
694 1 0.911068 0.751691 0.508201
473 1 0.655864 0.674997 -0.00345141
717 1 0.833841 0.840245 0.500983
461 1 0.164 0.662826 0.0159198
709 1 0.500791 0.843142 0.49952
656 1 0.169482 0.592172 0.579987
815 1 0.906658 0.494408 0.923836
726 1 0.254763 0.586327 0.644049
862 1 0.913584 0.906974 0.832425
383 1 0.916966 0.988182 0.921014
381 1 0.83268 0.981424 0.830352
660 1 0.33173 0.586258 0.56937
683 1 0.411754 0.66527 0.571703
730 1 0.409724 0.585059 0.658325
757 1 0.506696 0.673235 0.659469
737 1 0.680074 0.500954 0.655531
664 1 0.497524 0.574336 0.58223
668 1 0.683246 0.578358 0.579018
799 1 0.255974 0.515245 0.912587
502 1 0.91655 0.902552 1.00834
858 1 0.741986 0.916249 0.820548
672 1 0.818131 0.585641 0.572395
691 1 0.750047 0.671357 0.573851
219 1 0.0925766 0.995107 0.580037
745 1 -3.53754e-06 0.666189 0.660666
652 1 -0.00382201 0.576603 0.565291
695 1 0.910554 0.657866 0.567536
864 1 0.836564 0.918266 0.920217
860 1 0.663917 0.913756 0.90506
675 1 0.089287 0.664068 0.570802
680 1 0.163523 0.745004 0.572036
749 1 0.168484 0.665854 0.656624
773 1 0.170801 0.827761 0.661603
379 1 0.756824 0.986978 0.911724
679 1 0.243369 0.675747 0.572156
684 1 0.327084 0.741549 0.577548
753 1 0.329986 0.668719 0.651451
750 1 0.246389 0.748186 0.660621
295 1 0.247413 0.994266 0.733719
754 1 0.410136 0.752935 0.654832
795 1 0.0873769 0.499333 0.904838
687 1 0.590171 0.665053 0.572515
688 1 0.493268 0.75356 0.585003
711 1 0.579662 0.844848 0.576902
237 1 0.832295 1.01091 0.513856
291 1 0.0885996 0.998697 0.730572
692 1 0.655105 0.76351 0.585652
696 1 0.839194 0.75961 0.582211
762 1 0.766291 0.74308 0.670022
725 1 0.16214 0.514184 0.652259
223 1 0.259115 0.994735 0.575438
676 1 0.991341 0.759455 0.585922
678 1 0.254672 0.746334 0.495616
766 1 0.928388 0.743289 0.669128
367 1 0.241026 0.998972 0.92039
301 1 0.496205 0.992037 0.677939
293 1 0.178747 1.00443 0.652509
699 1 0.0873514 0.827623 0.585318
704 1 0.16938 0.917191 0.593583
770 1 0.0847103 0.908539 0.66371
739 1 0.75267 0.507338 0.737793
703 1 0.260998 0.820786 0.582557
774 1 0.260266 0.903305 0.668371
708 1 0.326458 0.911099 0.587272
462 1 0.248673 0.730153 1.0029
813 1 0.830384 0.509988 0.831042
707 1 0.408934 0.836353 0.576434
778 1 0.421943 0.91161 0.677889
854 1 0.579431 0.916572 0.841585
735 1 0.590215 0.518121 0.733947
369 1 0.335996 1.00254 0.827358
721 1 0.00188576 0.496481 0.660473
712 1 0.507723 0.919534 0.589
781 1 0.500522 0.829988 0.65904
782 1 0.574724 0.90319 0.675783
743 1 0.909204 0.504293 0.743676
715 1 0.74452 0.819453 0.599812
453 1 0.808613 0.493777 0.991779
716 1 0.671369 0.918517 0.586353
720 1 0.83286 0.922639 0.594399
786 1 0.739472 0.91862 0.686723
700 1 0.0125646 0.916802 0.586678
719 1 0.922275 0.842684 0.583875
836 1 0.6864 0.764759 0.91044
494 1 0.579997 0.932118 0.987898
722 1 0.0691536 0.586704 0.671968
724 1 0.984885 0.600331 0.758228
747 1 0.0865473 0.672403 0.747305
821 1 0.152745 0.667485 0.832055
651 1 0.0752412 0.492908 0.573344
811 1 0.745594 0.522155 0.897181
728 1 0.152269 0.582181 0.748581
732 1 0.329411 0.579104 0.746011
798 1 0.252612 0.588118 0.831334
825 1 0.34369 0.677952 0.815138
829 1 0.486654 0.679278 0.833563
852 1 0.324425 0.920133 0.917753
736 1 0.510134 0.595996 0.750637
755 1 0.414013 0.67392 0.728895
856 1 0.497309 0.918302 0.914383
853 1 0.49791 0.825277 0.838352
734 1 0.586457 0.595837 0.658009
740 1 0.671902 0.608727 0.753837
759 1 0.585446 0.679394 0.743398
761 1 0.669013 0.676389 0.651795
855 1 0.589072 0.836257 0.910342
827 1 0.410551 0.668996 0.923035
738 1 0.749296 0.592199 0.657692
744 1 0.843759 0.580785 0.731541
763 1 0.763589 0.66288 0.748461
837 1 0.851962 0.654661 0.833533
849 1 0.323374 0.843758 0.833498
742 1 0.928896 0.581027 0.668942
848 1 0.177564 0.909668 0.926637
746 1 0.0848711 0.750597 0.666665
752 1 0.175816 0.740156 0.747269
818 1 0.0850158 0.756373 0.832821
751 1 0.248502 0.657638 0.726645
775 1 0.242224 0.841895 0.752139
822 1 0.251371 0.747032 0.82116
756 1 0.331916 0.771045 0.747709
777 1 0.346581 0.844653 0.667899
826 1 0.415738 0.7546 0.836671
760 1 0.501599 0.750277 0.743452
758 1 0.587624 0.751532 0.657762
830 1 0.575764 0.746582 0.845589
765 1 0.840561 0.655307 0.651564
834 1 0.74692 0.73765 0.834688
764 1 0.676315 0.742842 0.74258
787 1 0.752719 0.829299 0.739084
768 1 0.833429 0.753697 0.75459
769 1 -0.00385034 0.851466 0.672975
861 1 0.826337 0.840319 0.823646
767 1 0.920115 0.680991 0.751147
748 1 1.00999 0.754532 0.75554
841 1 0.00711031 0.846254 0.841789
771 1 0.0884427 0.824048 0.75447
842 1 0.101885 0.902535 0.849102
845 1 0.183483 0.837103 0.834179
832 1 0.501032 0.754689 0.936418
776 1 0.163702 0.911578 0.735921
846 1 0.253102 0.923596 0.822028
851 1 0.416821 0.82686 0.929307
850 1 0.405723 0.901758 0.846606
780 1 0.338825 0.914703 0.754818
779 1 0.418532 0.825894 0.749113
231 1 0.584996 0.997367 0.58646
783 1 0.578362 0.822013 0.749647
784 1 0.508819 0.904017 0.765283
361 1 0.986085 0.995889 0.83497
789 1 0.821955 0.836847 0.658709
788 1 0.640853 0.916904 0.752833
785 1 0.652122 0.841563 0.670805
792 1 0.840804 0.912821 0.739637
790 1 0.926739 0.927055 0.660305
791 1 0.919222 0.828059 0.763043
772 1 -0.00605947 0.913851 0.758985
859 1 0.757372 0.844311 0.901871
807 1 0.584122 0.520845 0.915069
794 1 0.0716923 0.571458 0.835106
796 1 0.0097076 0.577659 0.930621
844 1 1.00304 0.914967 0.925502
800 1 0.16411 0.581207 0.909601
804 1 0.352654 0.574681 0.913017
823 1 0.23354 0.673034 0.917875
839 1 0.908187 0.660217 0.924479
797 1 0.162169 0.503624 0.822023
802 1 0.418161 0.584589 0.820335
808 1 0.485674 0.590038 0.910392
817 1 -0.0133795 0.671712 0.843539
481 1 1.00645 0.817913 1.0042
838 1 0.910746 0.760075 0.849321
863 1 0.904137 0.831112 0.926631
806 1 0.589864 0.596625 0.822849
831 1 0.576825 0.662313 0.918141
501 1 0.821428 0.835984 1.00775
731 1 0.416229 0.50507 0.741974
840 1 0.817892 0.749595 0.916867
663 1 0.597091 0.512044 0.593456
833 1 0.657123 0.681284 0.840106
810 1 0.756567 0.607901 0.834051
812 1 0.669353 0.593121 0.903078
373 1 0.498902 1.00848 0.844198
835 1 0.744189 0.663205 0.926466
824 1 0.169442 0.752265 0.916752
814 1 0.924612 0.580293 0.85474
816 1 0.824507 0.586451 0.915689
714 1 0.759315 0.920395 0.509551
819 1 0.0792604 0.661064 0.919151
843 1 0.0844794 0.829336 0.928056
820 1 0.00553584 0.749904 0.92071
857 1 0.668397 0.818981 0.816277
828 1 0.328235 0.737419 0.928389
847 1 0.251755 0.822978 0.916229
311 1 0.920221 0.999047 0.750364
805 1 0.499459 0.515855 0.824542
661 1 0.498296 0.474482 0.496589
727 1 0.245183 0.513374 0.729232
235 1 0.736693 1.00243 0.60958
458 1 0.0860764 0.743825 1.00236
809 1 0.676507 0.514238 0.819614
474 1 0.743001 0.747239 1.00307
490 1 0.410274 0.932945 1.00037
706 1 0.419414 0.907087 0.503249
690 1 0.748002 0.758752 0.512753
217 1 0.983483 0.997934 0.517109
465 1 0.329786 0.659118 0.995279
457 1 0.990151 0.661816 1.00038
470 1 0.58348 0.755003 1.00388
685 1 0.510699 0.665222 0.501842
713 1 0.672442 0.845831 0.497583
229 1 0.509599 0.998501 0.504652
