ITEM: TIMESTEP
25500
ITEM: NUMBER OF ATOMS
500
ITEM: BOX BOUNDS pp pp pp
0.0000000000000000e+00 2.6299999999999997e+01
0.0000000000000000e+00 2.6299999999999997e+01
0.0000000000000000e+00 2.6299999999999997e+01
ITEM: ATOMS id type xs ys zs
23 1 0.104538 0.197125 0.100018
52 1 0.0770952 0.107712 0.172117
75 1 0.198006 0.199209 0.197321
47 1 0.590601 0.40816 0.0023541
125 1 0.79545 0.401132 0.395426
8 1 0.195777 0.10024 0.115139
27 1 0.293294 0.184914 0.102704
56 1 0.301382 0.0953511 0.217278
12 1 0.400553 0.101327 0.109178
79 1 0.399759 0.194371 0.199719
351 1 0.0975109 0.484297 0.39551
53 1 0.0900676 0.00863461 0.295657
31 1 0.501376 0.191436 0.110721
60 1 0.519498 0.0970701 0.195765
3 1 0.0916899 0.00111543 0.0989558
16 1 0.603623 0.0877057 0.0995571
83 1 0.609859 0.196822 0.18903
35 1 0.704703 0.186283 0.105302
64 1 0.70108 0.0830528 0.197257
87 1 0.798078 0.190146 0.205777
38 1 0.911634 0.3228 0.00270664
90 1 0.798535 0.309412 0.300533
20 1 0.793665 0.0852678 0.0773109
71 1 0.982788 0.213314 0.197623
4 1 0.976532 0.0962374 0.0797216
39 1 0.901574 0.205979 0.103956
68 1 0.905283 0.101603 0.207861
146 1 0.104819 0.405802 0.497983
379 1 0.608945 0.49623 0.485629
354 1 0.692035 0.49546 0.404521
42 1 0.100987 0.408889 0.102468
72 1 0.0955116 0.291697 0.190213
28 1 0.202166 0.300626 0.115967
91 1 0.999368 0.393876 0.212075
93 1 0.202947 0.4027 0.18633
24 1 0.00491421 0.299372 0.100839
49 1 0.80908 0.410552 0.00318154
44 1 0.289397 0.40371 0.07945
76 1 0.313538 0.318202 0.170017
32 1 0.41067 0.286639 0.0863737
95 1 0.402116 0.407375 0.221753
252 1 0.995178 0.494257 0.111682
147 1 0.306171 0.403476 0.499667
46 1 0.490309 0.3984 0.0928158
80 1 0.479909 0.290323 0.195062
97 1 0.596172 0.402851 0.184653
36 1 0.618997 0.292757 0.0969035
134 1 0.90911 0.00251042 0.494654
48 1 0.694714 0.401162 0.0944283
84 1 0.695493 0.295032 0.21311
121 1 0.982645 0.404678 0.403125
148 1 0.514613 0.405577 0.486519
99 1 0.773173 0.39816 0.195114
40 1 0.798762 0.306721 0.0891272
50 1 0.8962 0.400386 0.106264
88 1 0.889716 0.309632 0.189664
100 1 0.89319 0.401843 0.289491
103 1 0.204612 0.00785988 0.394826
11 1 0.493875 0.000850757 0.104066
73 1 0.0966462 0.181833 0.285153
102 1 0.0966805 0.104081 0.396905
54 1 0.995629 0.0926117 0.303481
58 1 0.195753 0.109425 0.293417
111 1 1.94519e-05 0.202151 0.394838
59 1 0.411316 0.00356324 0.200674
377 1 0.202761 0.499725 0.493172
120 1 0.88544 0.301791 0.408298
113 1 0.22522 0.198856 0.401647
77 1 0.303555 0.216247 0.293769
104 1 0.328907 0.0941028 0.406778
115 1 0.394005 0.2171 0.375765
15 1 0.702209 0.00263224 0.0921874
352 1 0.296944 0.47813 0.384349
62 1 0.40787 0.086358 0.300543
81 1 0.507219 0.200354 0.294398
106 1 0.500312 0.111149 0.395321
66 1 0.606939 0.0965235 0.28268
55 1 0.190588 0.00562842 0.205414
33 1 0.609404 0.200899 0.00815104
51 1 0.991913 0.0104966 0.186359
117 1 0.613598 0.186304 0.392308
85 1 0.709122 0.205387 0.306847
108 1 0.705704 0.0705718 0.391619
70 1 0.783278 0.0911731 0.288048
122 1 0.192095 0.405743 0.40334
96 1 0.521206 0.40209 0.288767
107 1 0.59482 0.00976722 0.40215
116 1 0.503968 0.300844 0.398191
119 1 0.797313 0.176534 0.420577
110 1 0.899363 0.0941038 0.397376
89 1 0.875394 0.20543 0.311921
86 1 0.604795 0.290436 0.290883
124 1 0.593782 0.391608 0.393641
98 1 0.702853 0.410171 0.303208
118 1 0.706702 0.300381 0.415405
78 1 0.187357 0.299594 0.285465
74 1 0.9796 0.310275 0.302159
112 1 0.0847595 0.292514 0.392663
92 1 0.106105 0.389032 0.286566
123 1 0.417957 0.398699 0.404824
114 1 0.299418 0.312612 0.402592
94 1 0.285159 0.389777 0.287826
82 1 0.405063 0.315815 0.299614
137 1 0.993437 0.292468 0.489991
258 1 0.59599 0.493898 0.0887587
309 1 0.889837 0.494336 0.217342
307 1 0.686289 0.498309 0.18222
57 1 0.289694 0.0132137 0.305164
310 1 0.795305 0.492046 0.299721
304 1 0.204872 0.482677 0.296623
126 1 0.0996579 0.00285375 0.493372
142 1 0.697583 0.177404 0.498746
140 1 0.503011 0.213375 0.497001
131 1 0.420662 0.103021 0.491617
139 1 0.20896 0.290349 0.49986
21 1 0.000255821 0.207219 0.00219482
141 1 0.414152 0.302461 0.494061
22 1 0.12253 0.286136 0.0097422
37 1 0.810787 0.202125 0.00981494
138 1 0.326245 0.207183 0.497825
10 1 0.516154 0.0962696 0.0148242
41 1 0.0152559 0.385432 0.00111
5 1 0.201871 0.00837754 0.00693873
150 1 0.881394 0.404251 0.49315
149 1 0.702306 0.397637 0.497631
152 1 0.106568 0.0883883 0.599647
173 1 0.0851938 0.197196 0.724657
154 1 0.0051614 0.102075 0.689226
158 1 0.209632 0.109949 0.712162
175 1 0.189499 0.197396 0.607257
156 1 0.317845 0.118542 0.588458
177 1 0.312608 0.206695 0.694423
162 1 0.399273 0.0959632 0.707685
215 1 0.700612 0.00834287 0.89058
161 1 0.482781 0.0026653 0.691215
179 1 0.409572 0.219609 0.602463
160 1 0.497505 0.110135 0.608425
181 1 0.4997 0.206362 0.705702
166 1 0.615399 0.0953439 0.70369
183 1 0.613875 0.206496 0.611199
164 1 0.705419 0.105078 0.608801
185 1 0.699696 0.190956 0.715225
452 1 0.00261668 0.49543 0.905729
6 1 0.303098 0.0940419 0.985972
249 1 0.801404 0.403366 0.801449
451 1 0.108124 0.488477 0.806002
187 1 0.791275 0.189276 0.606724
171 1 0.00222258 0.207875 0.604267
170 1 0.809389 0.0972238 0.708574
168 1 0.906031 0.0954916 0.601282
189 1 0.90696 0.18439 0.703934
238 1 0.893382 0.292828 0.801673
172 1 0.104083 0.301602 0.595526
192 1 0.0945814 0.398333 0.706996
153 1 0.0938299 0.0131033 0.706212
178 1 0.213737 0.298847 0.693115
193 1 0.206206 0.388851 0.589009
174 1 0.99223 0.304403 0.717391
129 1 0.211697 0.0952048 0.500061
128 1 0.293258 0.000102939 0.503015
250 1 0.895291 0.408664 0.906264
176 1 0.292752 0.300772 0.595318
194 1 0.296379 0.408077 0.694986
182 1 0.402073 0.317661 0.699578
195 1 0.401149 0.390234 0.592544
163 1 0.594412 0.010079 0.618556
241 1 0.999029 0.394516 0.805858
180 1 0.505787 0.309625 0.601733
196 1 0.496135 0.403717 0.731966
186 1 0.596319 0.318666 0.705638
157 1 0.30742 0.000781529 0.708971
18 1 0.885981 0.0840033 0.995539
211 1 0.509263 0.0152177 0.88365
197 1 0.594959 0.39578 0.610056
240 1 0.791565 0.309531 0.899675
184 1 0.699848 0.314526 0.601196
198 1 0.700924 0.402907 0.709316
406 1 0.402453 0.483476 0.703169
190 1 0.786427 0.298885 0.706738
199 1 0.782042 0.415082 0.60739
191 1 0.995238 0.420105 0.610326
188 1 0.897366 0.307441 0.5807
200 1 0.882836 0.406713 0.694314
230 1 0.519472 0.30977 0.815063
13 1 0.593488 0.0112247 0.986452
236 1 0.611404 0.303075 0.912995
202 1 0.0474855 0.0945888 0.801781
223 1 0.0835319 0.180883 0.896715
204 1 0.983237 0.074183 0.90495
225 1 0.215279 0.217673 0.811472
234 1 0.691707 0.290943 0.810615
208 1 0.185836 0.0976748 0.867175
206 1 0.309539 0.107714 0.804129
227 1 0.311792 0.185893 0.905016
212 1 0.414579 0.111849 0.88181
143 1 0.604655 0.304936 0.50283
229 1 0.407407 0.207286 0.793321
210 1 0.508547 0.112566 0.791277
231 1 0.497728 0.212811 0.89313
233 1 0.599727 0.200157 0.799027
409 1 0.894951 0.494305 0.601542
246 1 0.504784 0.416457 0.893973
145 1 0.799332 0.279242 0.506014
248 1 0.70537 0.409803 0.9132
216 1 0.603818 0.108046 0.908049
214 1 0.690017 0.100126 0.808788
235 1 0.718779 0.193209 0.889596
221 1 0.985781 0.207633 0.802931
237 1 0.810394 0.19926 0.78868
220 1 0.802711 0.0978975 0.892955
218 1 0.912359 0.10114 0.802928
239 1 0.900034 0.195761 0.900152
224 1 0.0058037 0.305062 0.906793
247 1 0.6083 0.399687 0.830952
242 1 0.103329 0.392518 0.902477
222 1 0.0925147 0.292466 0.812678
232 1 0.401718 0.310265 0.912363
245 1 0.407666 0.408233 0.818384
226 1 0.318637 0.313833 0.80246
244 1 0.293075 0.403915 0.904711
243 1 0.200705 0.382616 0.787636
228 1 0.199766 0.318563 0.900899
2 1 0.0758603 0.0899379 0.998707
165 1 0.714484 0.00653621 0.719461
380 1 0.791735 0.494635 0.501874
205 1 0.19741 0.00176661 0.78479
404 1 0.203343 0.488695 0.700626
408 1 0.591887 0.496759 0.717868
453 1 0.288768 0.495772 0.80444
454 1 0.200268 0.495069 0.904994
25 1 0.199948 0.169352 0.998666
402 1 0.00259284 0.497888 0.706203
459 1 0.921715 0.495776 0.806602
203 1 0.0977516 0.00287876 0.88811
155 1 0.208138 0.00120583 0.608251
207 1 0.302385 0.0127732 0.892785
135 1 0.809798 0.0841258 0.510691
14 1 0.704666 0.100456 0.986304
26 1 0.305933 0.282077 0.99598
9 1 0.402206 0.0185673 0.980422
136 1 0.0995331 0.207933 0.513092
45 1 0.38701 0.397696 0.991421
29 1 0.396406 0.181851 0.999327
133 1 0.579431 0.0990413 0.500338
43 1 0.197205 0.403687 0.997461
132 1 0.689693 0.00340105 0.509502
144 1 0.892775 0.185212 0.51401
127 1 0.99778 0.105743 0.507922
30 1 0.511492 0.302833 0.994392
34 1 0.713952 0.289982 0.995145
263 1 0.0891664 0.589123 0.0951032
312 1 0.0932432 0.68416 0.195533
311 1 0.990599 0.609695 0.224169
268 1 0.199668 0.688072 0.0969425
315 1 0.192738 0.602651 0.200924
260 1 0.801729 0.518967 0.10457
267 1 0.3017 0.591925 0.113069
316 1 0.298338 0.712025 0.210529
319 1 0.410261 0.601058 0.194257
7 1 0.306878 0.999761 0.0800343
265 1 0.220415 0.606513 0.00756077
101 1 0.992859 0.990853 0.398482
285 1 0.187418 0.788963 0.012256
61 1 0.50268 0.986507 0.30379
266 1 0.303433 0.712461 0.00885625
272 1 0.394274 0.696395 0.101026
271 1 0.498512 0.591812 0.0970726
320 1 0.521647 0.707451 0.206374
323 1 0.608821 0.610194 0.19414
276 1 0.587269 0.683954 0.086213
350 1 0.805928 0.906517 0.315922
302 1 0.990056 0.502763 0.290703
65 1 0.686027 0.980327 0.296198
275 1 0.690281 0.60109 0.0845992
324 1 0.715671 0.700715 0.196401
327 1 0.80206 0.600959 0.212562
280 1 0.807311 0.679489 0.100619
105 1 0.405217 0.985598 0.426151
349 1 0.894682 0.791329 0.312426
264 1 0.993586 0.698128 0.103096
279 1 0.902344 0.59642 0.126226
328 1 0.89957 0.703307 0.203856
63 1 0.596955 0.980185 0.197375
393 1 0.297746 0.804301 0.48833
303 1 0.310433 0.515545 0.208629
67 1 0.809527 0.996731 0.19739
375 1 0.896997 0.898528 0.410416
283 1 0.090387 0.782652 0.0901149
332 1 0.113922 0.911296 0.182547
331 1 0.992309 0.791028 0.20032
254 1 0.200289 0.511773 0.105649
366 1 0.997547 0.804679 0.391486
288 1 0.209579 0.897867 0.113472
335 1 0.182962 0.781678 0.19189
287 1 0.286886 0.801527 0.109054
336 1 0.307014 0.920834 0.197914
391 1 0.0947758 0.805931 0.485289
306 1 0.41223 0.516134 0.288591
292 1 0.387625 0.907306 0.0861069
339 1 0.411367 0.815221 0.201595
291 1 0.493269 0.810469 0.0863908
340 1 0.503899 0.89182 0.193881
343 1 0.599173 0.79838 0.17619
296 1 0.604845 0.918508 0.0806527
301 1 0.0886383 0.503274 0.207236
256 1 0.408029 0.501967 0.0965706
355 1 0.890603 0.503017 0.398936
295 1 0.724588 0.805571 0.108267
344 1 0.720032 0.894709 0.192076
384 1 0.214484 0.700266 0.479005
270 1 0.483941 0.691965 0.00583984
368 1 0.191468 0.804364 0.39827
284 1 0.0157625 0.89376 0.10698
347 1 0.813396 0.805689 0.207936
300 1 0.809733 0.89892 0.0955393
299 1 0.901398 0.80376 0.10812
348 1 0.905453 0.901064 0.196108
337 1 0.266303 0.819219 0.297007
369 1 0.288755 0.893714 0.409696
313 1 0.0907825 0.580971 0.311573
357 1 0.109225 0.684317 0.393035
356 1 0.989147 0.596225 0.401806
358 1 0.19477 0.578605 0.390609
318 1 0.203724 0.710928 0.296307
317 1 0.289521 0.595657 0.306107
359 1 0.299146 0.704616 0.364867
338 1 0.180651 0.909928 0.29318
342 1 0.390295 0.915807 0.309463
322 1 0.405931 0.701503 0.273701
360 1 0.40292 0.596589 0.397254
321 1 0.515379 0.608012 0.299293
361 1 0.489587 0.711134 0.390145
362 1 0.61714 0.601674 0.418272
326 1 0.608772 0.706491 0.311856
372 1 0.602084 0.793945 0.403818
325 1 0.690963 0.594026 0.290879
363 1 0.717774 0.69718 0.407268
364 1 0.783539 0.582722 0.407263
330 1 0.788015 0.702167 0.30015
371 1 0.518326 0.891864 0.40245
346 1 0.591014 0.886789 0.297913
394 1 0.195631 0.916316 0.497549
374 1 0.807068 0.804145 0.40413
314 1 0.0102142 0.701339 0.310448
365 1 0.877927 0.690743 0.396914
329 1 0.885572 0.603696 0.304422
373 1 0.690864 0.908021 0.405508
341 1 0.510018 0.798984 0.301148
370 1 0.384431 0.80031 0.39029
334 1 0.996098 0.888468 0.298926
367 1 0.106773 0.902484 0.397805
333 1 0.105333 0.791084 0.286419
345 1 0.696953 0.796255 0.297496
109 1 0.805064 0.989685 0.418408
353 1 0.511441 0.50769 0.398385
269 1 0.39825 0.597873 0.00789446
69 1 0.89155 0.996928 0.30959
399 1 0.902775 0.792643 0.496572
19 1 0.887619 0.986724 0.0830857
253 1 0.306507 0.506435 0.00091163
297 1 0.80464 0.809212 0.00568512
383 1 0.299193 0.601418 0.476964
385 1 0.50211 0.606059 0.488848
305 1 0.506846 0.511094 0.193938
308 1 0.597828 0.508607 0.300338
282 1 0.10181 0.903611 0.00636527
382 1 0.00961694 0.702547 0.475275
290 1 0.503499 0.918355 0.00222066
386 1 0.398626 0.696521 0.470995
381 1 0.111951 0.597308 0.489853
1 1 0.989775 0.986952 0.00213978
392 1 0.0106799 0.894602 0.494648
274 1 0.716139 0.710188 0.00910881
293 1 0.611117 0.795965 0.0312687
259 1 0.893023 0.505006 0.00209635
281 1 0.992356 0.791361 0.00790436
412 1 0.0901527 0.668722 0.60149
413 1 0.100883 0.602462 0.715902
418 1 0.199341 0.679663 0.69968
411 1 0.987311 0.589439 0.605069
410 1 0.810175 0.503279 0.711652
251 1 0.103457 0.501628 0.992636
500 1 0.794021 0.888162 0.903735
151 1 0.0033581 0.992603 0.589929
217 1 0.808277 0.990012 0.794867
390 1 0.807971 0.690025 0.50261
415 1 0.218169 0.600442 0.587304
416 1 0.300861 0.696933 0.57318
417 1 0.313629 0.608135 0.686118
419 1 0.409084 0.598916 0.601302
405 1 0.508875 0.521226 0.605171
422 1 0.393572 0.717543 0.690806
420 1 0.499641 0.695929 0.604051
421 1 0.499338 0.608024 0.71549
460 1 0.801201 0.503274 0.891255
426 1 0.608426 0.704601 0.715377
423 1 0.603325 0.613098 0.624238
424 1 0.703487 0.674777 0.601557
425 1 0.706381 0.615424 0.716592
378 1 0.409363 0.501427 0.504575
286 1 0.29085 0.916299 0.984742
491 1 0.483864 0.821139 0.913701
430 1 0.806596 0.686227 0.704082
427 1 0.823571 0.596181 0.619686
414 1 0.00864418 0.701226 0.701093
428 1 0.922268 0.701132 0.595014
429 1 0.911991 0.595663 0.707628
407 1 0.686477 0.50813 0.626951
219 1 0.887237 0.978599 0.895119
398 1 0.594959 0.891313 0.522632
432 1 0.107281 0.892729 0.605559
433 1 0.121784 0.799501 0.707342
435 1 0.182116 0.780177 0.596848
434 1 0.00476484 0.893074 0.687908
438 1 0.192136 0.912092 0.703642
169 1 0.918904 0.991363 0.687143
455 1 0.498974 0.521041 0.805445
401 1 0.103728 0.509985 0.609738
492 1 0.390937 0.909624 0.88603
436 1 0.28838 0.890354 0.58508
437 1 0.285 0.799925 0.686008
442 1 0.382641 0.883029 0.688668
209 1 0.41193 0.996929 0.801104
490 1 0.496827 0.896662 0.795338
495 1 0.684989 0.806457 0.899665
484 1 0.00168099 0.902209 0.895228
439 1 0.390676 0.799345 0.586519
440 1 0.485253 0.905681 0.598259
441 1 0.500806 0.789463 0.686979
261 1 0.00202434 0.581291 0.996365
443 1 0.597994 0.79213 0.614013
446 1 0.600284 0.896752 0.698082
444 1 0.696125 0.917556 0.607056
445 1 0.712041 0.795794 0.696478
450 1 0.804538 0.895855 0.70601
481 1 0.0054799 0.79536 0.798696
499 1 0.908599 0.809845 0.893649
447 1 0.800549 0.781754 0.601592
431 1 0.0245727 0.797639 0.603665
448 1 0.913362 0.877276 0.584369
449 1 0.902087 0.797008 0.688057
487 1 0.284464 0.8046 0.919408
462 1 0.098123 0.700883 0.807592
463 1 0.113654 0.593699 0.905296
461 1 0.99918 0.602281 0.805295
465 1 0.206259 0.602277 0.806174
159 1 0.393011 0.993163 0.587544
482 1 0.0945524 0.895752 0.788965
498 1 0.900982 0.887098 0.790976
468 1 0.190274 0.713208 0.894415
466 1 0.284275 0.700309 0.796444
467 1 0.292763 0.623662 0.899255
167 1 0.79618 0.987878 0.610105
497 1 0.797616 0.801173 0.789316
486 1 0.300954 0.922874 0.787359
469 1 0.394247 0.621577 0.801904
472 1 0.391804 0.712238 0.907113
470 1 0.492281 0.712589 0.792175
471 1 0.495142 0.627239 0.905671
255 1 0.483949 0.50339 0.985921
493 1 0.590752 0.797175 0.807495
476 1 0.594487 0.705047 0.90968
473 1 0.609599 0.616737 0.800969
474 1 0.701079 0.700473 0.818678
475 1 0.705128 0.611282 0.922538
480 1 0.802703 0.724137 0.902499
494 1 0.704628 0.90569 0.801286
387 1 0.694175 0.584143 0.516441
485 1 0.218397 0.801444 0.800761
464 1 0.984571 0.713108 0.902107
400 1 0.785989 0.893738 0.505405
477 1 0.800198 0.607218 0.811683
478 1 0.901232 0.707104 0.799495
479 1 0.907668 0.604394 0.895015
496 1 0.582919 0.904533 0.895904
489 1 0.368741 0.810732 0.815681
488 1 0.195449 0.89526 0.894815
483 1 0.102402 0.790179 0.916213
403 1 0.293922 0.502451 0.608804
376 1 0.0161284 0.515725 0.504889
395 1 0.509514 0.790202 0.522681
277 1 0.805251 0.594751 0.995763
456 1 0.376396 0.517961 0.88558
273 1 0.593279 0.593855 0.993287
201 1 0.993662 0.990742 0.78907
213 1 0.610218 0.98921 0.796389
457 1 0.692667 0.52187 0.806386
458 1 0.61145 0.508844 0.905163
396 1 0.404888 0.889145 0.501278
388 1 0.603593 0.700646 0.500083
298 1 0.901571 0.891811 0.998413
289 1 0.384446 0.825098 0.998247
397 1 0.702173 0.773773 0.517334
278 1 0.893293 0.689325 0.995566
294 1 0.691723 0.913369 0.990948
17 1 0.780225 0.990153 0.992987
389 1 0.905371 0.599197 0.501775
130 1 0.51262 0.996536 0.500417
262 1 0.0933064 0.676706 0.990118
257 1 0.698741 0.504889 0.994162
