ITEM: TIMESTEP
25750
ITEM: NUMBER OF ATOMS
864
ITEM: BOX BOUNDS pp pp pp
0.0000000000000000e+00 3.1559999999999999e+01
0.0000000000000000e+00 3.1559999999999999e+01
0.0000000000000000e+00 3.1559999999999999e+01
ITEM: ATOMS id type xs ys zs
74 1 0.0870042 0.0738866 0.161056
4 1 0.0145262 0.0733553 0.0696632
27 1 0.0897851 0.171821 0.0768306
8 1 0.15922 0.0752745 0.0758597
31 1 0.240314 0.156476 0.0783038
12 1 0.333049 0.0780976 0.0551999
61 1 0.50754 0.323218 0.0145932
147 1 0.0830835 0.00771002 0.422369
65 1 0.681147 0.329367 0.0120114
16 1 0.49125 0.0783327 0.0879428
35 1 0.404271 0.169162 0.0945201
214 1 0.925686 0.427287 0.334029
82 1 0.404759 0.0833051 0.17197
649 1 0.0126078 0.498343 0.488718
39 1 0.579023 0.155623 0.0782327
20 1 0.657092 0.0683287 0.0740603
585 1 0.336456 0.498672 0.326147
42 1 0.766267 0.247575 0.00711568
24 1 0.836442 0.0746843 0.0903901
62 1 0.605682 0.404336 0.0261911
94 1 0.917501 0.0910408 0.179883
97 1 0.00197333 0.153631 0.149586
51 1 0.0782829 0.327935 0.0882928
32 1 0.163659 0.244536 0.0845042
98 1 0.0906818 0.249166 0.164467
102 1 0.24281 0.246822 0.167719
36 1 0.329582 0.257752 0.0934804
40 1 0.506791 0.242708 0.0976784
133 1 0.508768 0.331826 0.171155
226 1 0.408084 0.0690665 0.49405
44 1 0.663589 0.261275 0.104657
63 1 0.582309 0.326802 0.092283
266 1 0.0957932 0.42237 0.495514
43 1 0.741793 0.143491 0.0911028
114 1 0.746562 0.236876 0.178004
277 1 0.500611 0.344363 0.496997
47 1 0.913236 0.166405 0.0746307
48 1 0.851964 0.256417 0.0889749
28 1 0.000478983 0.253974 0.0819924
71 1 0.921006 0.344034 0.0917535
52 1 0.0129419 0.424528 0.083138
149 1 0.166147 0.00306337 0.350352
281 1 0.662154 0.31928 0.497177
155 1 0.408729 0.00167833 0.406586
55 1 0.265837 0.336962 0.0661087
165 1 0.831146 0.00126297 0.331139
56 1 0.162419 0.42961 0.0856148
60 1 0.333178 0.431161 0.0825862
59 1 0.416076 0.347824 0.0752102
64 1 0.51182 0.419684 0.0877969
238 1 0.935171 0.0771556 0.486379
212 1 0.660992 0.405294 0.424735
137 1 0.662217 0.321828 0.185982
68 1 0.67716 0.395467 0.107756
134 1 0.586782 0.432254 0.167831
67 1 0.753673 0.326545 0.0959539
72 1 0.838919 0.418151 0.0871981
254 1 0.577439 0.226945 0.498167
583 1 0.240389 0.475577 0.39905
141 1 0.837767 0.336445 0.162182
216 1 0.835122 0.426232 0.437755
211 1 0.752566 0.332051 0.417247
173 1 0.164519 0.17622 0.349719
99 1 0.0820705 0.179446 0.243203
101 1 0.173774 0.162618 0.163039
78 1 0.241047 0.0833826 0.166914
80 1 0.153369 0.0814255 0.250573
103 1 0.246302 0.173951 0.257442
523 1 0.75409 0.495619 0.270421
105 1 0.320954 0.14988 0.170383
84 1 0.314197 0.0805096 0.258713
88 1 0.493361 0.0646285 0.263756
109 1 0.505841 0.149298 0.171579
66 1 0.745881 0.407866 0.00447579
113 1 0.657934 0.170233 0.15704
86 1 0.592694 0.0702475 0.188214
111 1 0.575636 0.169436 0.25231
158 1 0.585889 0.0803169 0.329783
206 1 0.597416 0.4227 0.33602
92 1 0.671665 0.0780802 0.258352
90 1 0.726937 0.0661223 0.168039
162 1 0.741984 0.0653972 0.336097
96 1 0.828345 0.0848282 0.264839
76 1 0.9936 0.095148 0.271316
119 1 0.905178 0.170611 0.261971
591 1 0.572003 0.495247 0.417639
166 1 0.911977 0.0730523 0.337896
189 1 0.83027 0.160493 0.337973
121 1 0.00106062 0.329322 0.168418
104 1 0.171364 0.254282 0.251385
100 1 0.995506 0.254469 0.250238
123 1 0.076741 0.329329 0.245802
169 1 0.999363 0.180577 0.338128
193 1 0.991419 0.328899 0.334001
125 1 0.170208 0.328229 0.151991
174 1 0.238281 0.253936 0.327719
108 1 0.343485 0.236023 0.246278
106 1 0.420038 0.250861 0.15637
201 1 0.316985 0.324693 0.328522
107 1 0.431117 0.155367 0.247948
178 1 0.415017 0.250012 0.322396
205 1 0.501294 0.336836 0.32284
110 1 0.576588 0.244185 0.165272
112 1 0.497542 0.248288 0.248188
182 1 0.581788 0.247642 0.328798
117 1 0.841416 0.175229 0.157769
115 1 0.743527 0.160047 0.253307
116 1 0.666547 0.249505 0.252978
120 1 0.837665 0.260952 0.250017
186 1 0.754236 0.266601 0.330022
139 1 0.756556 0.321501 0.234435
118 1 0.925315 0.249587 0.166543
143 1 0.918731 0.338486 0.24819
213 1 0.83987 0.333968 0.347008
122 1 0.0841255 0.407063 0.165282
126 1 0.251051 0.41478 0.156033
127 1 0.252287 0.324173 0.244731
128 1 0.176726 0.407977 0.228992
198 1 0.26383 0.414959 0.31986
70 1 0.914891 0.416687 0.00607043
129 1 0.335115 0.336299 0.176722
18 1 0.741059 0.0731458 0.000671136
130 1 0.416097 0.414804 0.163111
208 1 0.490406 0.413787 0.413299
131 1 0.418118 0.332698 0.244464
132 1 0.347473 0.415458 0.253157
202 1 0.4144 0.421242 0.336403
135 1 0.5834 0.323047 0.243512
136 1 0.514938 0.42335 0.245416
140 1 0.664669 0.417779 0.24617
38 1 0.581021 0.23845 0.00987807
163 1 0.74228 0.00359765 0.423546
210 1 0.743607 0.410765 0.332852
209 1 0.672027 0.336423 0.315848
138 1 0.760051 0.413995 0.186525
144 1 0.835921 0.408351 0.254459
142 1 0.922539 0.422963 0.166586
124 1 0.995157 0.412446 0.243727
146 1 0.0786479 0.0881113 0.335454
171 1 0.0841014 0.174588 0.427671
150 1 0.231341 0.0892506 0.343699
177 1 0.329562 0.169976 0.335526
152 1 0.160247 0.0780206 0.421052
156 1 0.326171 0.0757231 0.419952
519 1 0.596962 0.499224 0.259508
46 1 0.91408 0.253079 0.00261922
154 1 0.408559 0.0889206 0.339051
181 1 0.507973 0.177589 0.331958
261 1 0.837373 0.166073 0.492535
160 1 0.492805 0.0874602 0.414725
164 1 0.65491 0.0768952 0.422474
54 1 0.252935 0.434919 0.0148201
73 1 0.997766 0.0155348 0.150788
15 1 0.571312 0.00604399 0.0995289
194 1 0.0623979 0.414499 0.329987
187 1 0.749343 0.164776 0.405776
441 1 0.348604 0.498755 0.00247826
148 1 0.997514 0.0847612 0.399723
168 1 0.832854 0.0833503 0.428622
191 1 0.911897 0.170279 0.402086
197 1 0.150361 0.327008 0.323717
195 1 0.0842432 0.338603 0.42408
170 1 0.0775446 0.260492 0.340504
172 1 0.00888846 0.263779 0.429611
41 1 0.66218 0.157228 8.71291e-05
175 1 0.25232 0.160542 0.429676
176 1 0.157061 0.255718 0.432853
180 1 0.326936 0.258496 0.411523
196 1 3.3979e-05 0.416661 0.418492
184 1 0.497166 0.247483 0.414871
203 1 0.416512 0.332702 0.411951
179 1 0.409883 0.166177 0.412615
200 1 0.155344 0.410364 0.396672
185 1 0.658393 0.162811 0.332741
207 1 0.598887 0.311428 0.409681
188 1 0.669688 0.236983 0.424366
183 1 0.576677 0.16175 0.406919
215 1 0.923398 0.335042 0.424523
199 1 0.247459 0.349664 0.423258
204 1 0.327971 0.418842 0.412371
192 1 0.838402 0.259226 0.419228
190 1 0.919848 0.25346 0.321565
451 1 0.74526 0.487683 0.0990992
525 1 0.831029 0.494577 0.166201
507 1 0.0709523 0.495063 0.251267
95 1 0.904464 0.00685287 0.248417
151 1 0.247869 0.00446331 0.416214
30 1 0.245337 0.249963 0.00922942
511 1 0.256549 0.495992 0.253582
159 1 0.58058 0.00456007 0.42928
447 1 0.599989 0.499801 0.0868458
595 1 0.738241 0.489823 0.430966
597 1 0.847699 0.490237 0.327593
449 1 0.66718 0.493636 0.00247497
53 1 0.170141 0.350147 0.002777
246 1 0.252865 0.258049 0.491871
453 1 0.832064 0.486658 0.0087326
286 1 0.928152 0.409826 0.499892
653 1 0.179486 0.498234 0.487198
229 1 0.487424 0.00395513 0.482465
45 1 0.820915 0.143238 0.0143585
34 1 0.414937 0.250411 0.024259
262 1 0.925386 0.250596 0.499167
241 1 0.997158 0.17053 0.494451
58 1 0.430865 0.41801 0.000423776
22 1 0.924622 0.0907812 0.0100703
25 1 0.00857287 0.161238 0.00760284
250 1 0.426375 0.252438 0.49349
278 1 0.57501 0.425537 0.490541
33 1 0.331818 0.174643 0.0143676
273 1 0.34499 0.330449 0.494315
657 1 0.325122 0.497845 0.477029
26 1 0.0936378 0.256777 0.00373275
243 1 0.0748092 0.164686 0.587152
295 1 0.256649 0.00330306 0.764043
221 1 0.15759 0.000509227 0.502293
220 1 0.997368 0.0808218 0.572904
290 1 0.0859138 0.0673554 0.66639
431 1 0.912874 0.330853 0.917676
224 1 0.147413 0.0814506 0.587378
247 1 0.287653 0.165648 0.5901
228 1 0.337699 0.072589 0.588131
430 1 0.925478 0.415043 0.82831
725 1 0.176622 0.487532 0.677218
251 1 0.4169 0.174957 0.600195
793 1 0.989768 0.499078 0.842961
298 1 0.42176 0.0739295 0.668195
325 1 0.488873 0.176385 0.675336
412 1 0.999372 0.420894 0.921761
232 1 0.481366 0.0779179 0.574942
255 1 0.586948 0.158945 0.595336
365 1 0.164616 0.00651864 0.833557
302 1 0.577829 0.0734511 0.66618
428 1 0.667853 0.415771 0.911861
743 1 0.926703 0.48644 0.746479
236 1 0.667659 0.0916116 0.570411
240 1 0.838013 0.0752433 0.589652
329 1 0.675815 0.174704 0.673454
259 1 0.758931 0.161142 0.586639
667 1 0.733857 0.487089 0.584607
263 1 0.919947 0.160612 0.581611
29 1 0.163059 0.162271 0.996924
811 1 0.757097 0.487958 0.913837
267 1 0.0887023 0.335229 0.588116
248 1 0.1798 0.243656 0.599212
314 1 0.0847544 0.24954 0.663989
317 1 0.173652 0.164163 0.667949
271 1 0.256305 0.338334 0.580632
318 1 0.266862 0.272878 0.667695
257 1 0.672452 0.168687 0.501859
252 1 0.346656 0.259835 0.582981
275 1 0.412338 0.338901 0.587876
322 1 0.41344 0.262867 0.678776
305 1 0.662458 0.00673748 0.672592
256 1 0.494883 0.257368 0.578327
279 1 0.578167 0.325107 0.56968
377 1 0.666407 0.00924327 0.822176
260 1 0.661747 0.243253 0.578015
264 1 0.843522 0.248135 0.565633
357 1 0.836707 0.344357 0.664641
333 1 0.833431 0.1495 0.668558
244 1 0.999302 0.245968 0.588253
287 1 0.926517 0.336943 0.585852
334 1 0.89591 0.256229 0.670908
291 1 0.0784324 0.0123738 0.757628
813 1 0.840524 0.494936 0.830925
272 1 0.186494 0.422294 0.588879
737 1 0.647832 0.492471 0.65466
432 1 0.837334 0.414505 0.915837
427 1 0.73608 0.324258 0.911791
373 1 0.504904 0.00741322 0.835893
739 1 0.742781 0.487043 0.744479
276 1 0.338642 0.42112 0.593993
280 1 0.500336 0.429199 0.583416
346 1 0.427593 0.42735 0.672296
249 1 0.357374 0.169458 0.504315
284 1 0.655107 0.396499 0.568546
350 1 0.580845 0.413413 0.651479
349 1 0.497928 0.338791 0.670126
309 1 0.83649 0.00608999 0.67699
805 1 0.510824 0.499218 0.839331
283 1 0.745363 0.318019 0.586524
268 1 0.00681458 0.424113 0.569247
288 1 0.833591 0.424595 0.580287
358 1 0.932477 0.416337 0.662369
293 1 0.17186 0.00187082 0.670648
388 1 0.00242924 0.244832 0.920499
424 1 0.513265 0.403612 0.934578
292 1 0.00152513 0.0905221 0.755565
294 1 0.255641 0.0932939 0.665191
296 1 0.184058 0.0932692 0.761779
300 1 0.329228 0.0861739 0.745919
321 1 0.341067 0.170298 0.685879
242 1 0.0850573 0.242129 0.508273
304 1 0.478252 0.0891414 0.759764
323 1 0.42032 0.180679 0.755626
370 1 0.424903 0.0928575 0.855187
418 1 0.436442 0.416068 0.838037
308 1 0.672274 0.0925801 0.76049
374 1 0.574221 0.0869035 0.822921
419 1 0.418912 0.336546 0.923156
306 1 0.75318 0.07965 0.665963
378 1 0.753309 0.0987933 0.839167
310 1 0.924562 0.0851737 0.670701
408 1 0.824392 0.23849 0.906996
312 1 0.83326 0.0855408 0.76803
335 1 0.910248 0.172368 0.747876
315 1 0.0957392 0.161214 0.76424
341 1 0.170941 0.330741 0.672378
320 1 0.165885 0.247922 0.756748
319 1 0.257138 0.182811 0.748363
343 1 0.254478 0.332298 0.752707
324 1 0.329062 0.246123 0.755227
345 1 0.335146 0.342153 0.667445
390 1 0.255906 0.249049 0.855129
393 1 0.341555 0.174052 0.837716
328 1 0.522086 0.245004 0.755901
397 1 0.49601 0.16311 0.837686
394 1 0.412513 0.263372 0.832946
326 1 0.585751 0.243992 0.667828
327 1 0.577701 0.157334 0.741701
332 1 0.662783 0.235043 0.758781
398 1 0.583271 0.266875 0.837843
421 1 0.501308 0.338434 0.838884
330 1 0.771885 0.251851 0.673913
401 1 0.658167 0.166882 0.835141
331 1 0.761909 0.178406 0.749933
313 1 0.999893 0.16104 0.669745
316 1 0.997681 0.230994 0.75328
336 1 0.826358 0.2616 0.759599
406 1 0.927823 0.25461 0.839993
338 1 0.078912 0.429137 0.664568
337 1 0.997059 0.326754 0.671818
339 1 0.0780107 0.319941 0.75282
344 1 0.161878 0.417057 0.75359
340 1 0.000194625 0.403433 0.749432
413 1 0.174421 0.338813 0.829012
342 1 0.26588 0.423871 0.680491
414 1 0.251665 0.413825 0.832078
405 1 0.855502 0.16269 0.833898
348 1 0.340442 0.421551 0.759568
347 1 0.413267 0.343753 0.763573
311 1 0.916715 0.00950312 0.753434
265 1 0.00999578 0.342879 0.507458
353 1 0.664306 0.320797 0.662002
352 1 0.508436 0.402812 0.747999
422 1 0.584962 0.410308 0.840906
351 1 0.592056 0.324609 0.733605
354 1 0.746058 0.413814 0.670514
425 1 0.67095 0.322007 0.829697
355 1 0.741122 0.327149 0.735009
426 1 0.742096 0.408506 0.832251
356 1 0.657973 0.417824 0.746556
360 1 0.819949 0.405575 0.746091
385 1 0.988579 0.161353 0.828899
429 1 0.831243 0.336468 0.843917
723 1 0.0738782 0.494836 0.762669
420 1 0.332622 0.439501 0.913824
409 1 0.998608 0.348857 0.837223
359 1 0.917011 0.325953 0.745897
362 1 0.0773395 0.0917602 0.83443
364 1 0.994791 0.0916389 0.91468
387 1 0.0806973 0.160421 0.911631
368 1 0.17122 0.0841507 0.913567
415 1 0.26503 0.355986 0.925971
404 1 0.653178 0.254341 0.923028
417 1 0.337594 0.339621 0.840736
366 1 0.259918 0.0856925 0.840768
391 1 0.268615 0.176444 0.935767
289 1 0.998373 0.00115803 0.661599
372 1 0.33699 0.0889287 0.924718
376 1 0.510188 0.0965025 0.920316
285 1 0.846031 0.333334 0.500672
218 1 0.0725178 0.0776761 0.501507
399 1 0.585425 0.177484 0.919207
380 1 0.667149 0.0762059 0.910597
403 1 0.732086 0.177658 0.917362
402 1 0.735018 0.246304 0.834475
651 1 0.0983765 0.497487 0.579778
239 1 0.918497 0.000286496 0.597978
223 1 0.231801 0.00123142 0.587358
416 1 0.166143 0.426941 0.914825
384 1 0.825697 0.0732773 0.917904
382 1 0.914063 0.0700067 0.840637
407 1 0.915368 0.159839 0.92455
222 1 0.226961 0.0856986 0.517757
410 1 0.0884646 0.424241 0.844452
389 1 0.162253 0.174837 0.847916
386 1 0.0786575 0.256206 0.83808
2 1 0.0843851 0.0772052 0.989278
392 1 0.162523 0.264771 0.917274
411 1 0.081947 0.32992 0.921288
400 1 0.491654 0.258288 0.932607
396 1 0.331492 0.272125 0.932487
395 1 0.413958 0.178137 0.914214
423 1 0.589581 0.329417 0.941719
270 1 0.257515 0.415835 0.504218
803 1 0.43738 0.49594 0.920664
234 1 0.756332 0.0862568 0.507722
282 1 0.747743 0.411383 0.515489
799 1 0.245177 0.496027 0.90278
274 1 0.427072 0.423538 0.501682
258 1 0.760015 0.245657 0.501148
253 1 0.485363 0.162923 0.501134
445 1 0.52074 0.499162 0.992814
37 1 0.502791 0.174402 0.999766
69 1 0.831645 0.332863 0.98666
57 1 0.341796 0.356096 0.99748
10 1 0.434657 0.0998307 0.999554
230 1 0.577884 0.100166 0.506733
245 1 0.160414 0.167737 0.510168
269 1 0.166872 0.333853 0.514306
21 1 0.829425 0.00327063 0.994555
50 1 0.0877673 0.422374 0.996798
49 1 0.98742 0.336187 0.999664
14 1 0.57678 0.0715021 0.999078
6 1 0.252418 0.0649977 0.982678
440 1 0.157863 0.590075 0.0711791
677 1 0.178259 0.666922 0.498712
681 1 0.329732 0.651833 0.485359
510 1 0.261685 0.584013 0.178193
17 1 0.656184 0.988978 0.00595587
443 1 0.425645 0.514338 0.0797105
167 1 0.925109 0.989905 0.414091
444 1 0.333483 0.588344 0.093142
467 1 0.426464 0.663588 0.0868628
589 1 0.495307 0.506069 0.325559
448 1 0.513548 0.581531 0.0798916
518 1 0.592081 0.584214 0.176979
628 1 0.000172169 0.92101 0.427839
85 1 0.480702 0.98565 0.169128
661 1 0.490606 0.51208 0.489212
452 1 0.683108 0.573334 0.0800535
515 1 0.428901 0.504288 0.243475
475 1 0.750517 0.669384 0.0956348
648 1 0.834878 0.926497 0.424719
456 1 0.832803 0.575143 0.0695529
436 1 0.997043 0.580084 0.0757976
682 1 0.40993 0.754978 0.488904
442 1 0.433472 0.580731 0.00020802
7 1 0.238141 0.997276 0.0747842
459 1 0.0783927 0.659579 0.083817
483 1 0.0813948 0.828115 0.0814756
464 1 0.148592 0.740253 0.092398
439 1 0.245247 0.512633 0.100451
690 1 0.751577 0.760536 0.497
463 1 0.249313 0.673595 0.0792293
487 1 0.240545 0.862385 0.0761141
11 1 0.408172 0.997997 0.0835219
91 1 0.73881 0.992296 0.250454
693 1 0.844359 0.67817 0.487047
468 1 0.334993 0.742278 0.0807987
472 1 0.483538 0.750157 0.0864635
491 1 0.40765 0.829413 0.0668415
471 1 0.572671 0.677505 0.113028
569 1 0.668516 0.83371 0.176499
476 1 0.673082 0.74709 0.0970411
499 1 0.749687 0.831935 0.0709483
480 1 0.830738 0.750487 0.0861504
153 1 0.316745 0.997263 0.332619
587 1 0.413922 0.513983 0.403879
473 1 0.669039 0.652535 0.00744693
479 1 0.914613 0.670395 0.0723229
460 1 0.00231381 0.755105 0.0728254
550 1 0.91977 0.757912 0.17124
484 1 0.995817 0.907097 0.0773728
709 1 0.491062 0.827438 0.491689
557 1 0.147566 0.827559 0.17047
650 1 0.0933231 0.581885 0.498574
488 1 0.153089 0.919346 0.073297
492 1 0.325806 0.921991 0.0789253
558 1 0.239298 0.908829 0.172627
87 1 0.578197 0.988541 0.249801
565 1 0.471941 0.827187 0.161453
562 1 0.406604 0.907055 0.152567
79 1 0.222262 0.997911 0.252465
494 1 0.578162 0.906812 0.00980147
495 1 0.569189 0.814652 0.0894295
496 1 0.494752 0.905201 0.0820008
500 1 0.653106 0.896607 0.0848096
504 1 0.829495 0.914174 0.0728717
573 1 0.821611 0.838015 0.160953
513 1 0.349576 0.501621 0.159323
644 1 0.661783 0.924142 0.419172
503 1 0.917064 0.826021 0.0771329
574 1 0.924655 0.923618 0.160418
553 1 0.991055 0.84159 0.16439
673 1 0.0154485 0.670877 0.490259
506 1 0.0898214 0.586435 0.15987
619 1 0.755295 0.671827 0.41604
533 1 0.178894 0.658109 0.161779
643 1 0.748208 0.835279 0.424317
642 1 0.747153 0.924122 0.327734
512 1 0.166675 0.59939 0.244876
582 1 0.247022 0.589974 0.322766
535 1 0.240504 0.680688 0.244298
641 1 0.67482 0.844774 0.334436
514 1 0.434384 0.582136 0.169111
593 1 0.659844 0.505551 0.342139
516 1 0.334267 0.590912 0.255966
537 1 0.313672 0.672551 0.172183
586 1 0.417811 0.590243 0.327599
613 1 0.517313 0.683144 0.325069
609 1 0.327724 0.678552 0.323641
539 1 0.417271 0.664544 0.256874
640 1 0.491417 0.921348 0.416436
520 1 0.505305 0.586774 0.252295
524 1 0.673004 0.578077 0.259327
545 1 0.683972 0.655245 0.180856
639 1 0.577961 0.829594 0.418451
549 1 0.829171 0.673161 0.18478
522 1 0.760867 0.580103 0.175095
594 1 0.750861 0.587349 0.35297
19 1 0.736891 0.992779 0.0757995
685 1 0.48856 0.680141 0.482814
508 1 0.993011 0.586592 0.258807
528 1 0.836685 0.57573 0.261532
526 1 0.906877 0.59263 0.16799
530 1 0.0685263 0.758514 0.163811
531 1 0.0639256 0.665131 0.24366
555 1 0.080669 0.836688 0.252929
601 1 0.00405679 0.673504 0.333694
534 1 0.241677 0.759905 0.155954
536 1 0.156119 0.750695 0.248443
540 1 0.337068 0.770646 0.249783
538 1 0.407243 0.726014 0.168597
561 1 0.334133 0.826211 0.15889
544 1 0.505276 0.765752 0.254705
541 1 0.50351 0.682177 0.187171
542 1 0.579754 0.762149 0.184839
543 1 0.59158 0.659854 0.24559
548 1 0.669203 0.755194 0.255351
567 1 0.589787 0.843047 0.251244
547 1 0.761219 0.669094 0.276869
546 1 0.753922 0.743296 0.185212
618 1 0.748619 0.763367 0.338171
551 1 0.917928 0.678174 0.250907
532 1 0.00835254 0.759814 0.257188
552 1 0.832392 0.762804 0.256839
529 1 0.997557 0.675539 0.149859
622 1 0.913062 0.767265 0.335298
89 1 0.656816 0.972045 0.159196
554 1 0.0692177 0.909038 0.163277
626 1 0.0814182 0.924453 0.33827
662 1 0.570844 0.584463 0.480653
633 1 0.316811 0.835067 0.339041
560 1 0.153546 0.920382 0.255319
559 1 0.236214 0.838405 0.245794
630 1 0.241412 0.917787 0.337349
563 1 0.403953 0.849971 0.251709
564 1 0.318223 0.917738 0.25377
568 1 0.498455 0.89972 0.255274
635 1 0.402727 0.838785 0.40832
617 1 0.668163 0.663888 0.334881
638 1 0.583805 0.905348 0.332626
566 1 0.566215 0.903942 0.163965
634 1 0.394643 0.922909 0.335193
570 1 0.746171 0.919855 0.160522
572 1 0.662691 0.913726 0.243078
571 1 0.751133 0.843697 0.261903
576 1 0.840224 0.915444 0.238312
646 1 0.910681 0.922208 0.328191
623 1 0.930503 0.669503 0.413813
556 1 0.994015 0.926335 0.244677
645 1 0.828339 0.847401 0.337403
575 1 0.915923 0.841777 0.238966
632 1 0.169139 0.921746 0.425455
636 1 0.325744 0.919792 0.423135
578 1 0.0809677 0.592436 0.324833
603 1 0.0909286 0.660055 0.40987
605 1 0.1623 0.679726 0.329947
624 1 0.834569 0.774808 0.425982
584 1 0.192685 0.577044 0.418703
607 1 0.245084 0.664294 0.40558
637 1 0.49151 0.836291 0.34647
588 1 0.325033 0.585564 0.401839
611 1 0.417213 0.679765 0.402604
621 1 0.8429 0.68995 0.339562
592 1 0.498814 0.593265 0.391544
590 1 0.584535 0.593404 0.332573
647 1 0.916491 0.852556 0.423273
13 1 0.49665 0.990921 0.00943156
625 1 0.997436 0.847816 0.324548
596 1 0.669791 0.576873 0.420393
614 1 0.582242 0.765344 0.327994
75 1 0.0776036 0.998328 0.245179
580 1 0.00994654 0.586127 0.411467
600 1 0.84495 0.584956 0.421421
598 1 0.927406 0.59798 0.340966
602 1 0.0826506 0.76372 0.33906
627 1 0.0789606 0.845774 0.415508
604 1 0.00263104 0.757703 0.421577
629 1 0.164053 0.838424 0.331583
606 1 0.239667 0.761265 0.335944
612 1 0.338269 0.749867 0.403808
608 1 0.168973 0.752119 0.410189
631 1 0.251733 0.831886 0.422727
3 1 0.0750233 0.993152 0.0700467
620 1 0.65769 0.747797 0.417617
610 1 0.418209 0.759859 0.314995
616 1 0.500313 0.755148 0.408984
615 1 0.578092 0.67885 0.422594
145 1 0.000801265 0.999594 0.329273
157 1 0.489848 0.975612 0.32843
435 1 0.0827184 0.505876 0.0906095
599 1 0.917246 0.502095 0.424857
674 1 0.10189 0.751391 0.494765
717 1 0.83645 0.844356 0.494587
509 1 0.169285 0.507605 0.174714
490 1 0.408543 0.906777 0.000606816
678 1 0.261266 0.74109 0.492452
83 1 0.398451 0.985645 0.250471
93 1 0.83256 0.992787 0.166447
706 1 0.414582 0.909166 0.498314
577 1 0.998943 0.501537 0.332419
521 1 0.671604 0.503868 0.18199
579 1 0.105193 0.507176 0.418051
658 1 0.414578 0.595271 0.487119
433 1 0.0137451 0.500629 0.00700796
581 1 0.157214 0.504919 0.320735
455 1 0.924483 0.500135 0.088659
161 1 0.657869 0.984123 0.331505
23 1 0.919717 0.995124 0.0635164
81 1 0.314927 0.987389 0.168716
77 1 0.159291 0.987767 0.165064
527 1 0.923166 0.500653 0.2404
505 1 0.99861 0.502438 0.164447
517 1 0.520643 0.512994 0.160692
469 1 0.498257 0.669674 0.00249267
465 1 0.328511 0.66532 0.00136409
233 1 0.665974 0.999472 0.494076
689 1 0.671168 0.671292 0.495154
497 1 0.669119 0.822453 0.00647256
446 1 0.59081 0.581637 0.00147208
458 1 0.087827 0.750467 0.00236075
694 1 0.920609 0.749369 0.487652
470 1 0.586555 0.735551 0.0040372
698 1 0.0717131 0.917801 0.498542
701 1 0.17381 0.827314 0.48888
713 1 0.658379 0.824727 0.487644
462 1 0.237309 0.7579 0.00455683
675 1 0.0908237 0.660805 0.583597
381 1 0.817147 0.992619 0.822684
807 1 0.59407 0.505484 0.909954
656 1 0.165811 0.575428 0.581579
660 1 0.337016 0.602941 0.579387
809 1 0.661934 0.504246 0.825188
235 1 0.739001 0.995663 0.581702
841 1 0.00884816 0.813922 0.824668
486 1 0.251856 0.914174 0.987407
664 1 0.488665 0.58955 0.567215
687 1 0.584097 0.665253 0.578452
734 1 0.576728 0.59457 0.655571
450 1 0.741931 0.578333 0.998584
668 1 0.670701 0.589287 0.569668
738 1 0.751136 0.589862 0.642821
672 1 0.841541 0.606346 0.573045
863 1 0.910772 0.825043 0.898407
379 1 0.742579 0.979347 0.911034
652 1 0.0163119 0.569079 0.565028
695 1 0.93055 0.666725 0.581455
742 1 0.91741 0.577818 0.666348
745 1 0.0111196 0.6439 0.65797
219 1 0.072749 0.990786 0.574461
367 1 0.253878 0.991687 0.902461
746 1 0.0662722 0.737716 0.686275
680 1 0.177873 0.752067 0.573411
699 1 0.0764045 0.818042 0.600924
383 1 0.915855 0.987836 0.92006
679 1 0.248825 0.676519 0.584325
684 1 0.326212 0.755016 0.586371
750 1 0.242323 0.771357 0.662284
749 1 0.160951 0.67078 0.671068
777 1 0.329917 0.836641 0.654021
718 1 0.935699 0.913751 0.511394
669 1 0.828522 0.507102 0.505572
683 1 0.416619 0.674143 0.577406
754 1 0.409117 0.733909 0.669194
757 1 0.502488 0.682093 0.656757
761 1 0.67223 0.661799 0.650526
688 1 0.500313 0.746895 0.584552
758 1 0.584516 0.757216 0.658655
781 1 0.49096 0.833397 0.678324
691 1 0.757433 0.67517 0.568328
692 1 0.67959 0.757068 0.577968
715 1 0.764073 0.827767 0.578571
762 1 0.767642 0.7483 0.649351
676 1 0.00207163 0.747305 0.580291
696 1 0.846719 0.740646 0.564934
733 1 0.492045 0.517078 0.656912
375 1 0.588438 0.990478 0.911313
704 1 0.148755 0.89508 0.578138
700 1 0.00632953 0.902623 0.590736
371 1 0.414689 0.990435 0.925908
714 1 0.757003 0.91316 0.508996
703 1 0.243631 0.849107 0.591255
478 1 0.902616 0.745057 0.997037
859 1 0.744724 0.833157 0.922221
707 1 0.422554 0.811945 0.588727
708 1 0.307817 0.926934 0.589328
778 1 0.410935 0.90044 0.661263
9 1 0.330081 0.990155 0.990086
711 1 0.576081 0.841035 0.584348
712 1 0.476138 0.911849 0.589561
782 1 0.586854 0.920367 0.674091
801 1 0.31488 0.50822 0.829052
716 1 0.653001 0.922364 0.580025
864 1 0.831418 0.919514 0.907322
735 1 0.571631 0.503773 0.752529
502 1 0.915616 0.903043 0.990664
663 1 0.569704 0.512248 0.565797
720 1 0.844981 0.916076 0.590793
719 1 0.924068 0.823196 0.583944
741 1 0.823015 0.513023 0.668818
665 1 0.667745 0.505405 0.504747
722 1 0.103169 0.576312 0.667698
794 1 0.0870092 0.582856 0.835743
659 1 0.407299 0.507253 0.5715
726 1 0.24344 0.584287 0.658359
860 1 0.657852 0.899115 0.926606
727 1 0.262368 0.521862 0.738525
728 1 0.170306 0.57905 0.760266
730 1 0.423898 0.590289 0.648025
489 1 0.32559 0.836676 0.995637
732 1 0.344822 0.592154 0.752569
736 1 0.519832 0.588574 0.746251
755 1 0.438441 0.664691 0.758293
802 1 0.413327 0.579925 0.834535
806 1 0.578353 0.585952 0.832208
797 1 0.164807 0.504777 0.840297
833 1 0.672721 0.647019 0.822875
765 1 0.839187 0.66102 0.666583
740 1 0.648245 0.580335 0.735723
810 1 0.763233 0.574367 0.838847
297 1 0.321908 0.998393 0.668257
702 1 0.238344 0.914536 0.505208
724 1 0.00176871 0.578667 0.749613
744 1 0.811848 0.581194 0.742956
767 1 0.935829 0.655619 0.735476
837 1 0.842689 0.653223 0.832693
747 1 0.0993298 0.66429 0.754077
748 1 0.966548 0.748439 0.75172
752 1 0.175195 0.756766 0.754104
753 1 0.333922 0.671203 0.668513
751 1 0.244671 0.664924 0.746502
775 1 0.258306 0.826455 0.750231
849 1 0.342564 0.821879 0.834794
756 1 0.328581 0.739071 0.749409
826 1 0.40733 0.731148 0.841116
760 1 0.507754 0.749725 0.756625
779 1 0.413928 0.822473 0.75966
829 1 0.508441 0.676944 0.845522
785 1 0.658801 0.829487 0.658446
759 1 0.606455 0.683416 0.745281
764 1 0.683518 0.750345 0.732277
830 1 0.601088 0.757274 0.827164
834 1 0.766945 0.746298 0.809478
763 1 0.747895 0.652314 0.733745
787 1 0.761716 0.832826 0.716139
861 1 0.830467 0.832299 0.822678
789 1 0.844595 0.823263 0.651764
766 1 0.917258 0.743316 0.6646
768 1 0.851763 0.754275 0.741646
769 1 0.00395666 0.837165 0.684844
773 1 0.17258 0.84859 0.674074
771 1 0.0924703 0.835501 0.744174
770 1 0.0781051 0.921559 0.669112
772 1 0.00109331 0.926428 0.751134
842 1 0.0854031 0.914409 0.823852
843 1 0.0877093 0.831966 0.896628
774 1 0.253642 0.919928 0.677274
776 1 0.157153 0.935981 0.753725
780 1 0.335627 0.909232 0.743428
846 1 0.258911 0.912419 0.823667
361 1 0.99888 0.990783 0.837969
850 1 0.417988 0.912969 0.838099
784 1 0.49091 0.915499 0.753714
783 1 0.588356 0.834043 0.741347
854 1 0.585015 0.917987 0.827105
788 1 0.67191 0.921094 0.751591
731 1 0.441911 0.503277 0.747258
857 1 0.693109 0.826749 0.809221
858 1 0.756835 0.908427 0.832519
786 1 0.755349 0.926258 0.65894
862 1 0.904389 0.921442 0.829234
790 1 0.922424 0.916717 0.664034
792 1 0.834552 0.923863 0.743717
791 1 0.913934 0.846584 0.754411
856 1 0.510363 0.914682 0.907197
821 1 0.163228 0.673706 0.84098
820 1 0.989698 0.746108 0.904986
817 1 0.996645 0.663207 0.819591
655 1 0.259907 0.500147 0.590628
832 1 0.502057 0.752783 0.922678
798 1 0.249677 0.593681 0.849777
800 1 0.165366 0.586732 0.912478
823 1 0.250064 0.674903 0.931309
847 1 0.246555 0.829237 0.919445
804 1 0.334243 0.579868 0.929212
808 1 0.506694 0.58571 0.928605
844 1 0.997549 0.906811 0.900074
848 1 0.177474 0.911702 0.911443
840 1 0.821956 0.744298 0.903992
812 1 0.668621 0.571181 0.915586
816 1 0.828376 0.573085 0.920169
835 1 0.755402 0.649673 0.912451
838 1 0.902515 0.745237 0.833169
852 1 0.331011 0.904247 0.908264
814 1 0.927876 0.580813 0.840602
796 1 0.00286987 0.590717 0.909692
839 1 0.919647 0.664473 0.912776
818 1 0.0889575 0.746242 0.824094
845 1 0.180021 0.8357 0.824066
819 1 0.0733424 0.668342 0.900242
824 1 0.16921 0.748193 0.913236
825 1 0.327442 0.661682 0.844545
822 1 0.25178 0.747464 0.83843
828 1 0.323974 0.751437 0.915153
853 1 0.506592 0.825771 0.826254
827 1 0.410798 0.664282 0.925105
851 1 0.430875 0.829263 0.914548
836 1 0.685225 0.738042 0.908223
831 1 0.605956 0.667828 0.908957
855 1 0.588777 0.820865 0.914136
307 1 0.743945 0.999167 0.741901
227 1 0.398656 0.992632 0.586243
457 1 0.991238 0.674233 0.995607
729 1 0.34999 0.508746 0.666821
1 1 0.996826 0.996811 0.989075
705 1 0.331882 0.843585 0.517495
671 1 0.929879 0.508883 0.582411
481 1 0.00984988 0.836195 0.978403
697 1 0.00460114 0.834106 0.501323
721 1 0.0130932 0.514074 0.671855
482 1 0.0698195 0.911925 0.984599
485 1 0.158406 0.842063 0.988388
301 1 0.491623 0.978086 0.663343
815 1 0.907701 0.504873 0.938054
231 1 0.560951 0.984881 0.588605
363 1 0.0823991 0.995083 0.911415
303 1 0.583723 0.999856 0.746917
369 1 0.341842 0.992866 0.830846
795 1 0.0835887 0.510936 0.919183
299 1 0.424287 0.99397 0.75339
5 1 0.163373 0.995413 0.997058
474 1 0.742714 0.740141 0.995568
498 1 0.741757 0.899499 0.999044
686 1 0.581738 0.739896 0.502988
225 1 0.340861 0.988191 0.500323
466 1 0.411213 0.752531 0.988899
710 1 0.570468 0.917871 0.501931
454 1 0.911652 0.588796 0.998744
477 1 0.822747 0.657792 0.99584
461 1 0.165307 0.673695 0.998508
493 1 0.50133 0.825026 0.997624
670 1 0.921664 0.596568 0.504863
666 1 0.76111 0.579408 0.503842
501 1 0.827492 0.819969 0.992981
437 1 0.158499 0.507762 0.998527
654 1 0.252435 0.577859 0.509845
438 1 0.239003 0.581157 0.987381
217 1 0.00244945 0.997351 0.510572
434 1 0.0761446 0.595765 0.984912
237 1 0.843418 0.989677 0.508381
