ITEM: TIMESTEP
12500
ITEM: NUMBER OF ATOMS
6912
ITEM: BOX BOUNDS pp pp pp
0.0000000000000000e+00 6.3119999999999997e+01
0.0000000000000000e+00 6.3119999999999997e+01
0.0000000000000000e+00 6.3119999999999997e+01
ITEM: ATOMS id type xs ys zs
8 1 0.0806514 0.040215 0.0399087
337 1 0.000754889 0.0809693 0.0772716
1725 1 0.92513 0.418553 0.419978
607 1 0.623973 0.00296203 0.205745
55 1 0.127886 0.0862733 0.0372927
1157 1 0.0925279 0.00128861 0.336438
1727 1 0.959688 0.417627 0.46616
1728 1 0.925281 0.463339 0.45935
12 1 0.16067 0.041084 0.0439931
345 1 0.163576 0.082917 0.0923136
16 1 0.242587 0.0457307 0.0488032
298 1 0.200947 0.039888 0.0846063
5197 1 0.249766 0.498295 0.4936
63 1 0.285897 0.0770555 0.046459
20 1 0.329977 0.0421569 0.0440519
302 1 0.290915 0.040929 0.087786
609 1 0.667766 0.00659516 0.168801
67 1 0.372985 0.081396 0.0400967
306 1 0.370133 0.0416974 0.0813132
24 1 0.410578 0.041193 0.0472906
28 1 0.502672 0.0335606 0.044168
310 1 0.459391 0.0354435 0.0804353
75 1 0.541378 0.0827527 0.040491
314 1 0.542063 0.0380966 0.0772665
1722 1 0.881267 0.455679 0.415846
86 1 0.791669 0.128012 0.00458744
32 1 0.579342 0.0460707 0.0363277
36 1 0.666499 0.0336587 0.0439362
318 1 0.61967 0.0350692 0.0921996
83 1 0.706006 0.0818407 0.0421981
1721 1 0.835549 0.417269 0.417005
40 1 0.751841 0.0439088 0.040373
1485 1 0.907978 0.00654356 0.419265
1989 1 0.419144 0.419998 0.487724
44 1 0.837917 0.0475746 0.0474828
48 1 0.919256 0.0412024 0.0455419
91 1 0.877652 0.0932264 0.0499392
381 1 0.922123 0.0806391 0.0845586
1724 1 0.842989 0.452248 0.455671
1723 1 0.880243 0.416397 0.457331
185 1 0.835105 0.254435 0.00295947
1865 1 0.831198 0.166459 0.496792
4 1 0.00252872 0.0430748 0.035887
95 1 0.956537 0.094163 0.0452818
1720 1 0.750372 0.443184 0.457353
51 1 0.0505349 0.0854665 0.0390917
52 1 0.00444993 0.131218 0.040924
99 1 0.0544078 0.165836 0.0363875
1183 1 0.633641 0.00094173 0.376723
56 1 0.0861783 0.124417 0.0518544
60 1 0.16731 0.127233 0.0433571
103 1 0.125269 0.15976 0.0405238
1197 1 0.911511 0.00178232 0.330757
177 1 0.661392 0.24363 0.00470208
59 1 0.201205 0.0858182 0.0449532
346 1 0.20662 0.128001 0.0852681
349 1 0.244644 0.0886105 0.0879788
64 1 0.251197 0.122566 0.0443642
111 1 0.292072 0.164456 0.0348533
401 1 0.330277 0.163319 0.0777506
1881 1 0.16512 0.247088 0.499581
68 1 0.326119 0.111468 0.0343348
353 1 0.327816 0.082654 0.0806738
266 1 0.54123 0.455959 0.00142978
4905 1 0.163699 0.497485 0.413293
71 1 0.461487 0.0759447 0.0407858
72 1 0.418521 0.121484 0.0398501
178 1 0.708715 0.28669 0.000444709
357 1 0.42516 0.0825483 0.0810489
193 1 0.00275686 0.330261 0.000389791
3783 1 0.791175 0.496342 0.124398
867 1 0.0400552 0.000721197 0.294616
76 1 0.500199 0.124605 0.0345008
80 1 0.580381 0.122145 0.0381746
79 1 0.622082 0.0797602 0.0408417
127 1 0.615098 0.158609 0.031873
84 1 0.665803 0.129178 0.0362672
225 1 0.662656 0.3283 0.00138069
365 1 0.581741 0.0830457 0.0802389
88 1 0.745241 0.124337 0.0375422
1837 1 0.248602 0.172556 0.494975
206 1 0.289018 0.376878 0.0013938
87 1 0.793386 0.0851964 0.0461824
135 1 0.792553 0.172023 0.0410449
911 1 0.957332 0.00699004 0.298915
92 1 0.837245 0.130547 0.0360887
96 1 0.922788 0.132116 0.0405844
378 1 0.885039 0.136838 0.0762682
209 1 0.325552 0.334883 0.00140257
382 1 0.979275 0.131368 0.0813027
429 1 0.931257 0.170344 0.0780351
143 1 0.968851 0.172685 0.041971
386 1 0.0524413 0.220221 0.0776215
1449 1 0.164092 0.00212008 0.410387
104 1 0.100226 0.213018 0.033641
151 1 0.123001 0.25452 0.0459045
108 1 0.16596 0.203484 0.0418795
437 1 0.0860851 0.260455 0.0888921
4035 1 0.0395207 0.499835 0.211702
393 1 0.166811 0.164168 0.0818283
107 1 0.207469 0.16644 0.0468734
155 1 0.204049 0.248108 0.0426299
394 1 0.201969 0.207781 0.0862051
397 1 0.251202 0.170666 0.080372
112 1 0.253598 0.209494 0.0438431
159 1 0.291439 0.251185 0.0438698
4639 1 0.630187 0.498518 0.384659
4937 1 0.833978 0.492987 0.411986
194 1 0.0449097 0.371875 0.00946622
115 1 0.37472 0.163475 0.037298
116 1 0.333102 0.208474 0.0352184
120 1 0.421895 0.214995 0.0374684
1199 1 0.956949 0.00370938 0.381817
119 1 0.456148 0.168899 0.04438
124 1 0.502775 0.2016 0.0366184
167 1 0.464114 0.251598 0.0494046
4351 1 0.632242 0.498245 0.294408
323 1 0.705285 0.00292882 0.124494
123 1 0.540774 0.160127 0.029045
1945 1 0.500501 0.325273 0.490703
1893 1 0.417865 0.250309 0.492908
128 1 0.581177 0.199381 0.0358986
175 1 0.614495 0.245356 0.0382554
413 1 0.579914 0.162146 0.0728239
414 1 0.622181 0.206366 0.08247
132 1 0.659318 0.20788 0.0424225
131 1 0.708991 0.175246 0.0407143
136 1 0.754823 0.211631 0.0405721
1793 1 0.332813 0.0860303 0.497975
903 1 0.797188 0.00418031 0.290669
183 1 0.79223 0.257488 0.0424449
140 1 0.838253 0.20896 0.0437878
4033 1 0.000234977 0.494276 0.167228
3781 1 0.750802 0.489596 0.0869896
139 1 0.873696 0.170352 0.0359366
187 1 0.876421 0.256733 0.0401727
4071 1 0.788624 0.496391 0.210841
100 1 0.0157148 0.203021 0.0359321
144 1 0.911691 0.215008 0.0411476
191 1 0.958626 0.251723 0.0403344
147 1 0.0601891 0.25141 0.0318608
434 1 0.0491171 0.292917 0.0918123
152 1 0.0954769 0.303403 0.0463842
195 1 0.043325 0.325582 0.0399869
438 1 0.12445 0.296729 0.0855679
1897 1 0.499031 0.250829 0.495671
13 1 0.248067 0.00475989 0.00358933
43 1 0.880618 0.00710463 0.0385814
445 1 0.247611 0.243482 0.0789931
156 1 0.171831 0.296166 0.0384507
442 1 0.206836 0.297393 0.0831543
186 1 0.880824 0.292865 0.00133946
160 1 0.239957 0.292603 0.0410541
164 1 0.337785 0.29823 0.0328514
1985 1 0.331529 0.420688 0.492416
163 1 0.3797 0.255973 0.0288408
168 1 0.42459 0.292256 0.0350196
3751 1 0.124813 0.497153 0.128576
1878 1 0.12522 0.294927 0.495732
215 1 0.464475 0.330589 0.0402155
4907 1 0.209486 0.498954 0.460965
22 1 0.452667 0.0374671 0.000160245
4347 1 0.544906 0.498162 0.289073
171 1 0.544548 0.248386 0.0392916
172 1 0.503552 0.292632 0.0461253
176 1 0.582572 0.292262 0.0390924
219 1 0.541873 0.332719 0.0449103
509 1 0.57843 0.332081 0.0878495
180 1 0.662453 0.288604 0.0404718
223 1 0.622473 0.330018 0.0337104
595 1 0.376375 0.00218679 0.207084
179 1 0.701783 0.247448 0.0412261
227 1 0.707564 0.34388 0.0352652
184 1 0.747098 0.293929 0.0368971
466 1 0.705935 0.287345 0.077101
1998 1 0.628113 0.457054 0.498402
188 1 0.839124 0.29603 0.0492488
470 1 0.787612 0.291456 0.0855377
521 1 0.834016 0.337044 0.0843092
517 1 0.748488 0.330944 0.0810402
192 1 0.916752 0.291001 0.0414113
525 1 0.917385 0.334195 0.0808862
619 1 0.873191 0.00375363 0.210737
148 1 0.00236326 0.291331 0.0398085
481 1 0.000444676 0.333594 0.0840074
482 1 0.0444046 0.382347 0.0823345
200 1 0.0883503 0.374243 0.0413782
243 1 0.0426387 0.41961 0.0418635
533 1 0.0869702 0.414216 0.0857525
199 1 0.130543 0.341297 0.041486
1934 1 0.296941 0.380386 0.493734
1809 1 0.666339 0.0808385 0.498812
489 1 0.166995 0.330241 0.0847712
204 1 0.172332 0.381097 0.0419936
203 1 0.208493 0.336868 0.0406519
208 1 0.252536 0.37637 0.0477489
4051 1 0.38065 0.495045 0.205862
207 1 0.291131 0.333139 0.044836
212 1 0.341915 0.373316 0.0343126
1849 1 0.502443 0.173437 0.484611
1455 1 0.290068 0.00726541 0.453958
211 1 0.381907 0.331907 0.0410205
259 1 0.384049 0.417557 0.0396197
1914 1 0.872681 0.290539 0.496505
4341 1 0.418117 0.495015 0.253791
216 1 0.414778 0.37427 0.0472122
220 1 0.502007 0.382452 0.0448439
263 1 0.458622 0.423275 0.045173
1990 1 0.45268 0.459707 0.496125
224 1 0.591989 0.378477 0.0459722
506 1 0.538786 0.374432 0.0856222
1730 1 0.0396786 0.0401624 0.497922
4651 1 0.871688 0.490426 0.366717
233 1 0.836034 0.329887 0.00457251
228 1 0.659864 0.374875 0.0393057
10 1 0.206388 0.0429765 0.0013268
232 1 0.756086 0.374759 0.0375015
275 1 0.711514 0.413123 0.038287
3487 1 0.629609 0.495775 0.0412331
1997 1 0.575753 0.418945 0.496523
261 1 0.427558 0.417209 0.00170469
231 1 0.795158 0.326321 0.0446472
236 1 0.837475 0.369892 0.0412849
279 1 0.794347 0.41571 0.0420685
1850 1 0.548899 0.203485 0.493889
235 1 0.88388 0.334778 0.0399896
573 1 0.914992 0.412426 0.0808618
4623 1 0.288231 0.497788 0.379081
239 1 0.952387 0.337821 0.0442381
196 1 0.995323 0.378132 0.0396385
240 1 0.915718 0.375338 0.0270404
526 1 0.959514 0.381827 0.085204
1806 1 0.631792 0.11776 0.48394
248 1 0.089641 0.464251 0.0409936
1715 1 0.706621 0.406977 0.460929
247 1 0.130431 0.425199 0.041892
1714 1 0.710806 0.449055 0.420946
252 1 0.166299 0.468583 0.0405668
4077 1 0.909547 0.497553 0.165643
4929 1 0.674428 0.497171 0.422623
1710 1 0.631724 0.458657 0.417914
537 1 0.170352 0.417295 0.0951052
251 1 0.209068 0.421423 0.0414027
256 1 0.254604 0.46556 0.0321804
1711 1 0.625609 0.415977 0.457735
1716 1 0.670988 0.451753 0.462896
255 1 0.284652 0.420603 0.0339735
260 1 0.335058 0.470424 0.0413532
909 1 0.920414 0.00248891 0.247803
4931 1 0.717985 0.499708 0.461324
1762 1 0.708841 0.0391062 0.495943
907 1 0.869685 0.00505281 0.285893
546 1 0.374873 0.453263 0.0933286
4365 1 0.906519 0.499588 0.247547
1443 1 0.0326528 0.0041511 0.452361
895 1 0.626678 0.000632632 0.292093
264 1 0.418889 0.456334 0.0419523
1949 1 0.585342 0.324847 0.49989
4933 1 0.750934 0.496204 0.413762
267 1 0.546516 0.416829 0.0470277
268 1 0.499261 0.454251 0.0426228
554 1 0.543337 0.460447 0.0858637
258 1 0.375225 0.465209 0.00932503
272 1 0.583293 0.465723 0.0390142
271 1 0.623544 0.419605 0.0399558
276 1 0.66806 0.455742 0.042393
1709 1 0.588688 0.424059 0.413723
1708 1 0.50181 0.457342 0.454869
280 1 0.747723 0.451369 0.0472748
134 1 0.798398 0.214998 0.000663693
1961 1 0.829736 0.331108 0.493431
284 1 0.830397 0.458396 0.0383961
283 1 0.875095 0.408086 0.039788
288 1 0.914735 0.45469 0.0476576
570 1 0.873577 0.453007 0.077791
4363 1 0.86918 0.499257 0.295689
1481 1 0.832534 0.00494312 0.414696
244 1 0.993929 0.460771 0.040529
287 1 0.954259 0.421165 0.0420426
529 1 0.00390995 0.414865 0.0845715
574 1 0.960584 0.462227 0.0855799
3757 1 0.252467 0.490651 0.0812754
1181 1 0.588457 0.000738219 0.332011
290 1 0.0448029 0.0331416 0.0816692
339 1 0.0369535 0.077126 0.120164
296 1 0.0845816 0.0407828 0.121911
578 1 0.039267 0.0391545 0.165158
294 1 0.120384 0.0413531 0.0801235
582 1 0.119553 0.0385229 0.168885
300 1 0.159319 0.0407493 0.129825
347 1 0.202155 0.0790005 0.12835
586 1 0.205151 0.0410822 0.169287
304 1 0.241146 0.0436361 0.122808
351 1 0.28812 0.0865271 0.125398
590 1 0.29399 0.0452717 0.159089
637 1 0.248349 0.0874985 0.161008
308 1 0.33373 0.0401522 0.121439
355 1 0.375923 0.0839804 0.115741
641 1 0.332886 0.0824639 0.162447
594 1 0.372323 0.0409174 0.164371
1933 1 0.250645 0.336813 0.497707
312 1 0.413448 0.0409881 0.118039
598 1 0.455996 0.03338 0.169147
645 1 0.419064 0.0696498 0.163469
316 1 0.506915 0.0349873 0.123946
1706 1 0.545486 0.457105 0.417725
1712 1 0.585232 0.460305 0.460509
1704 1 0.409431 0.463329 0.459655
320 1 0.571228 0.0369127 0.122166
324 1 0.666673 0.0446101 0.130456
373 1 0.747669 0.0815545 0.080509
1463 1 0.463872 0.00902808 0.455345
322 1 0.707963 0.0408652 0.0780519
371 1 0.710204 0.093741 0.126233
328 1 0.74514 0.0448341 0.12354
326 1 0.794537 0.0413267 0.0836968
375 1 0.792666 0.0893809 0.113831
1193 1 0.835212 0.0021558 0.32829
330 1 0.878651 0.0397984 0.0852295
332 1 0.837641 0.0448434 0.117929
336 1 0.924299 0.0332745 0.130862
377 1 0.836991 0.0890565 0.0826111
334 1 0.962604 0.0394207 0.0794139
292 1 0.00285085 0.033545 0.118098
383 1 0.970254 0.0780723 0.119674
3779 1 0.709814 0.498688 0.126027
34 1 0.710528 0.0368213 0.000198126
341 1 0.0864243 0.0826724 0.0851031
338 1 0.0427718 0.127405 0.0889077
626 1 0.0387893 0.126414 0.174548
342 1 0.129919 0.126987 0.0875422
389 1 0.0799377 0.164203 0.090295
344 1 0.0823303 0.127651 0.137613
343 1 0.120761 0.086657 0.126378
630 1 0.123062 0.122404 0.172694
629 1 0.0766779 0.0789828 0.162726
348 1 0.166051 0.121833 0.124882
634 1 0.20428 0.127861 0.161811
395 1 0.207631 0.172053 0.120277
352 1 0.248983 0.129554 0.122366
350 1 0.285723 0.125105 0.0813568
638 1 0.294025 0.12725 0.161687
356 1 0.333687 0.125398 0.120658
399 1 0.291712 0.166599 0.118611
354 1 0.375004 0.12471 0.074866
405 1 0.413362 0.16516 0.0795336
403 1 0.378191 0.160704 0.122896
642 1 0.376053 0.111694 0.163896
359 1 0.464551 0.0696862 0.127633
360 1 0.422809 0.120513 0.130301
358 1 0.462754 0.123804 0.0771126
364 1 0.4935 0.117301 0.118961
407 1 0.456122 0.16141 0.11625
362 1 0.528073 0.125235 0.0809621
361 1 0.497126 0.0793376 0.080813
363 1 0.544317 0.0818598 0.122622
697 1 0.504 0.166558 0.158379
411 1 0.54435 0.169508 0.11825
367 1 0.621092 0.0822303 0.118537
368 1 0.57576 0.127132 0.119363
366 1 0.626073 0.12179 0.0780361
372 1 0.659854 0.124798 0.117499
369 1 0.660001 0.0762543 0.080664
370 1 0.70672 0.128852 0.0810564
376 1 0.751911 0.126677 0.117187
421 1 0.743998 0.164252 0.0795032
374 1 0.796521 0.131252 0.0765272
423 1 0.786005 0.168138 0.114569
380 1 0.828717 0.127672 0.122402
379 1 0.876028 0.083742 0.116977
425 1 0.835475 0.169184 0.0845975
669 1 0.920453 0.0798657 0.156569
384 1 0.919623 0.120835 0.117686
717 1 0.920867 0.165081 0.174644
340 1 0.00278421 0.124305 0.133723
673 1 0.999569 0.173283 0.162
385 1 0.0142736 0.177194 0.0840354
387 1 0.0444556 0.163433 0.131258
435 1 0.0439515 0.252313 0.132232
390 1 0.124765 0.208396 0.0815997
391 1 0.127057 0.16726 0.130045
392 1 0.0844108 0.20848 0.123944
677 1 0.0842993 0.166025 0.174172
678 1 0.116301 0.209499 0.170603
396 1 0.160939 0.212615 0.121656
681 1 0.162399 0.174021 0.164451
443 1 0.20465 0.25493 0.116968
682 1 0.204882 0.209515 0.161935
400 1 0.257276 0.206251 0.117682
398 1 0.303633 0.208025 0.0776997
686 1 0.292463 0.207321 0.166909
402 1 0.376431 0.211706 0.0783255
449 1 0.33741 0.260639 0.0738903
404 1 0.340364 0.201396 0.120159
689 1 0.340287 0.162762 0.161782
690 1 0.378688 0.21541 0.162825
406 1 0.454742 0.210279 0.0886945
453 1 0.418504 0.25728 0.0766712
408 1 0.418235 0.196737 0.127398
455 1 0.455472 0.25235 0.125847
409 1 0.502572 0.171872 0.08694
410 1 0.544111 0.206992 0.0819807
412 1 0.495267 0.206301 0.126908
416 1 0.58375 0.214804 0.127356
459 1 0.534958 0.248535 0.127651
415 1 0.617834 0.16258 0.123793
463 1 0.623035 0.249342 0.128055
702 1 0.622444 0.210117 0.168407
417 1 0.660789 0.165851 0.0817462
419 1 0.709355 0.158996 0.125797
420 1 0.666316 0.20768 0.122905
418 1 0.707659 0.207106 0.0814179
424 1 0.745333 0.201092 0.123613
709 1 0.751626 0.162921 0.165608
422 1 0.801912 0.213866 0.0823104
471 1 0.799194 0.249098 0.125088
428 1 0.833447 0.200068 0.126515
710 1 0.785816 0.203919 0.169391
473 1 0.839738 0.243381 0.0872808
427 1 0.87392 0.162306 0.129524
426 1 0.886171 0.200807 0.088576
432 1 0.920057 0.204228 0.128733
388 1 0.0129509 0.210064 0.125217
430 1 0.969205 0.214171 0.0799675
431 1 0.959792 0.164705 0.119569
718 1 0.960382 0.204435 0.176505
479 1 0.969068 0.244007 0.12753
433 1 0.0109751 0.251249 0.0860307
721 1 0.00224788 0.243888 0.169253
440 1 0.0854583 0.297737 0.134268
725 1 0.0844671 0.254764 0.165282
439 1 0.128227 0.25615 0.124289
444 1 0.169084 0.295552 0.132595
441 1 0.164114 0.253669 0.079432
493 1 0.247387 0.336823 0.0834261
777 1 0.166055 0.340268 0.178368
729 1 0.166899 0.252422 0.163696
730 1 0.219243 0.291463 0.165208
446 1 0.287633 0.287663 0.0802585
737 1 0.333333 0.24392 0.166436
733 1 0.253229 0.242323 0.1603
447 1 0.300071 0.239376 0.119603
448 1 0.249605 0.290248 0.118397
450 1 0.381697 0.295114 0.0844229
452 1 0.33344 0.286454 0.121671
451 1 0.369631 0.251545 0.119879
499 1 0.370542 0.324282 0.124755
454 1 0.460285 0.292149 0.0831897
457 1 0.500287 0.250813 0.0853881
456 1 0.419063 0.295524 0.133294
503 1 0.465084 0.338867 0.135251
505 1 0.502129 0.335666 0.0837558
458 1 0.540123 0.285076 0.0841182
460 1 0.494771 0.292224 0.129256
464 1 0.585447 0.287872 0.1211
461 1 0.583996 0.246659 0.0796146
749 1 0.576263 0.248035 0.170063
462 1 0.623501 0.288021 0.0772545
465 1 0.666855 0.249802 0.0806423
511 1 0.629563 0.327878 0.117883
467 1 0.705385 0.247222 0.122012
468 1 0.669309 0.290545 0.128079
469 1 0.755532 0.244342 0.0875543
472 1 0.746532 0.286866 0.11934
476 1 0.833946 0.296103 0.121537
519 1 0.789276 0.330223 0.124003
477 1 0.919096 0.243755 0.0863073
474 1 0.880733 0.281913 0.0869363
475 1 0.874397 0.242203 0.133901
523 1 0.884754 0.329331 0.12395
480 1 0.928216 0.284903 0.119588
436 1 0.00332837 0.29556 0.123892
478 1 0.967879 0.290088 0.0789285
766 1 0.959083 0.284424 0.169384
527 1 0.960051 0.336546 0.126256
483 1 0.0459098 0.332879 0.128035
770 1 0.0423662 0.378124 0.165348
531 1 0.0473412 0.424658 0.128029
486 1 0.127618 0.382324 0.0850946
485 1 0.0857699 0.343529 0.0848937
488 1 0.0871402 0.378751 0.124198
487 1 0.127171 0.334341 0.123357
492 1 0.167152 0.376449 0.128532
491 1 0.206821 0.329313 0.126985
490 1 0.205905 0.376089 0.0845337
778 1 0.208144 0.373119 0.17491
496 1 0.262012 0.378762 0.124609
494 1 0.297543 0.379588 0.0775552
495 1 0.298888 0.334109 0.11738
785 1 0.330355 0.335554 0.166606
497 1 0.335045 0.334393 0.075039
498 1 0.373713 0.366339 0.0849005
500 1 0.340004 0.373952 0.124365
786 1 0.377746 0.371697 0.164044
547 1 0.376717 0.417349 0.128277
837 1 0.416557 0.41254 0.167242
502 1 0.457708 0.375926 0.0809438
501 1 0.416351 0.332654 0.0866367
504 1 0.413988 0.376533 0.12202
549 1 0.42049 0.415099 0.0834659
551 1 0.458224 0.413693 0.119229
508 1 0.503731 0.371309 0.131145
507 1 0.541236 0.326117 0.1233
553 1 0.499379 0.415797 0.0909038
510 1 0.629461 0.371798 0.0885958
512 1 0.582443 0.380778 0.120683
516 1 0.66415 0.373662 0.126401
798 1 0.615552 0.37774 0.163674
513 1 0.66703 0.32887 0.0776953
514 1 0.703035 0.369856 0.0802666
515 1 0.700652 0.333123 0.126209
563 1 0.710952 0.409456 0.122008
802 1 0.703809 0.366085 0.169552
520 1 0.752002 0.369498 0.121035
518 1 0.795855 0.372281 0.0847745
524 1 0.837249 0.370596 0.122644
805 1 0.746202 0.328853 0.162111
853 1 0.745687 0.411058 0.167517
522 1 0.872774 0.371784 0.0826723
810 1 0.877262 0.370655 0.161513
528 1 0.917711 0.370199 0.129539
571 1 0.876786 0.410515 0.122519
861 1 0.912142 0.412792 0.16403
484 1 0.000493925 0.368489 0.126693
575 1 0.95287 0.415706 0.128708
530 1 0.0494496 0.460511 0.0791956
536 1 0.0866893 0.457992 0.125972
818 1 0.0474759 0.464992 0.167885
331 1 0.87938 0.0032524 0.122505
534 1 0.135216 0.46354 0.0858138
4923 1 0.539245 0.49627 0.454798
535 1 0.124489 0.417068 0.134642
822 1 0.125176 0.463268 0.168387
538 1 0.211883 0.460184 0.0784757
541 1 0.248976 0.421885 0.0798065
540 1 0.172728 0.45645 0.133294
539 1 0.213441 0.410857 0.130749
826 1 0.210135 0.457712 0.177192
544 1 0.245376 0.456547 0.135903
825 1 0.170777 0.422135 0.175546
542 1 0.298111 0.45664 0.0772479
543 1 0.306798 0.423339 0.122563
830 1 0.296161 0.466795 0.171095
548 1 0.340896 0.459512 0.134633
297 1 0.164274 0.00131897 0.0828946
545 1 0.342728 0.411944 0.0775107
603 1 0.534585 0.00416297 0.204208
4653 1 0.912487 0.495124 0.330097
552 1 0.422433 0.465492 0.120515
550 1 0.461258 0.461204 0.0825864
556 1 0.505972 0.463549 0.127436
838 1 0.456259 0.452637 0.160786
1700 1 0.331849 0.459709 0.455499
557 1 0.588476 0.423914 0.0819005
555 1 0.542787 0.419078 0.127205
560 1 0.588361 0.464896 0.125793
1451 1 0.206927 0.00903455 0.460041
561 1 0.66714 0.413159 0.0782335
558 1 0.627218 0.462628 0.0842682
559 1 0.626213 0.417311 0.123234
564 1 0.667251 0.456584 0.122609
4343 1 0.460766 0.496446 0.287076
1690 1 0.200851 0.456957 0.420778
562 1 0.70482 0.453094 0.0818743
565 1 0.755017 0.409358 0.0793145
566 1 0.796068 0.458928 0.0830026
569 1 0.833308 0.414079 0.0753268
568 1 0.752044 0.449848 0.132715
567 1 0.796238 0.416431 0.123068
857 1 0.838722 0.415719 0.165538
572 1 0.835728 0.453283 0.119046
576 1 0.91518 0.452407 0.122541
858 1 0.870837 0.460249 0.162427
532 1 0.999514 0.460066 0.122684
1691 1 0.208035 0.411304 0.459275
580 1 0.998388 0.0436244 0.214582
866 1 0.038803 0.033452 0.252179
584 1 0.0814351 0.0446679 0.209493
870 1 0.11712 0.0383339 0.24662
921 1 0.162544 0.084324 0.247341
588 1 0.163905 0.0401201 0.209819
635 1 0.204073 0.0850563 0.204619
592 1 0.249722 0.0439788 0.211051
633 1 0.160144 0.0823718 0.168445
874 1 0.199266 0.035137 0.246085
1696 1 0.250084 0.458461 0.448912
1689 1 0.157281 0.41123 0.417059
878 1 0.295285 0.0373447 0.249044
925 1 0.249747 0.0784613 0.247853
596 1 0.33297 0.0447603 0.206568
639 1 0.282796 0.0881142 0.203093
1692 1 0.161884 0.460534 0.45842
1877 1 0.0880415 0.250962 0.497664
929 1 0.33871 0.0854114 0.244522
882 1 0.371732 0.0375014 0.246473
600 1 0.413221 0.0417574 0.20724
886 1 0.451634 0.0398903 0.258354
604 1 0.496877 0.0423944 0.208528
602 1 0.537345 0.0416383 0.165497
608 1 0.580738 0.0363947 0.207116
877 1 0.249214 7.93842e-05 0.246202
606 1 0.623958 0.0424083 0.158631
612 1 0.666974 0.0411094 0.205531
655 1 0.621706 0.0747431 0.209934
591 1 0.287702 0.0052587 0.200734
610 1 0.713067 0.0438524 0.163397
616 1 0.74831 0.039896 0.20997
4941 1 0.916086 0.499111 0.416741
898 1 0.706398 0.0346988 0.249651
1773 1 0.913976 0.000580822 0.493804
4325 1 0.0776268 0.498516 0.25194
614 1 0.787507 0.0436975 0.16367
661 1 0.753961 0.0854048 0.17116
663 1 0.790236 0.09063 0.214483
902 1 0.790867 0.0442121 0.24723
620 1 0.830087 0.0490605 0.207383
953 1 0.837494 0.0911166 0.243685
618 1 0.879243 0.0448819 0.165033
624 1 0.92314 0.0412662 0.210761
667 1 0.875112 0.0781972 0.207609
906 1 0.870157 0.0404854 0.247552
622 1 0.958864 0.0424808 0.172505
671 1 0.959986 0.0821482 0.213177
910 1 0.963425 0.0435979 0.254625
1688 1 0.0795574 0.457861 0.457675
627 1 0.0366249 0.0805951 0.209688
625 1 0.999633 0.076136 0.166548
914 1 0.0421799 0.121986 0.246427
632 1 0.0797969 0.11648 0.21192
631 1 0.124389 0.0834836 0.209862
918 1 0.123389 0.131624 0.252255
969 1 0.171583 0.163873 0.251128
636 1 0.169032 0.129108 0.204691
973 1 0.250019 0.165416 0.244711
922 1 0.209464 0.127474 0.245736
640 1 0.244231 0.126449 0.202221
926 1 0.293497 0.124316 0.246414
687 1 0.291659 0.160955 0.201968
693 1 0.418198 0.160835 0.168051
643 1 0.374004 0.0812234 0.20508
644 1 0.331784 0.12064 0.204548
648 1 0.414307 0.11793 0.204552
930 1 0.37319 0.130383 0.244476
981 1 0.420523 0.169003 0.24599
646 1 0.459453 0.121049 0.166282
647 1 0.460624 0.0827058 0.207656
695 1 0.457153 0.164822 0.20243
649 1 0.506509 0.0822323 0.159812
651 1 0.547562 0.0903696 0.210823
652 1 0.504669 0.119787 0.206337
650 1 0.540778 0.121808 0.162432
654 1 0.621299 0.120543 0.159769
656 1 0.585127 0.125091 0.197194
653 1 0.579319 0.083245 0.16417
660 1 0.65568 0.120547 0.206704
942 1 0.614979 0.115788 0.245921
657 1 0.66607 0.0868976 0.162041
658 1 0.698512 0.128796 0.167376
659 1 0.702316 0.0886718 0.204917
664 1 0.745237 0.129044 0.214456
662 1 0.792717 0.127133 0.16546
950 1 0.791261 0.125534 0.253846
665 1 0.826628 0.0859004 0.162593
668 1 0.83911 0.126167 0.203741
666 1 0.876218 0.117833 0.165473
1001 1 0.831865 0.161142 0.244844
954 1 0.877475 0.126089 0.252215
670 1 0.955893 0.123276 0.159775
913 1 0.999966 0.0800753 0.256289
628 1 0.999685 0.120353 0.20717
672 1 0.920897 0.122839 0.215433
719 1 0.96073 0.158548 0.205037
674 1 0.0487855 0.207115 0.170194
675 1 0.0394461 0.163208 0.212376
962 1 0.0431029 0.206986 0.25473
680 1 0.0808411 0.215284 0.210728
965 1 0.0815121 0.169977 0.247609
679 1 0.121055 0.159904 0.210752
966 1 0.12799 0.201109 0.247317
684 1 0.164117 0.210134 0.204032
683 1 0.205735 0.170638 0.200049
970 1 0.204677 0.210103 0.243799
731 1 0.213225 0.245009 0.201265
685 1 0.249607 0.170066 0.164463
688 1 0.256692 0.20982 0.203992
735 1 0.295741 0.245219 0.209139
977 1 0.329054 0.169129 0.245757
692 1 0.336383 0.208246 0.207475
691 1 0.372217 0.166189 0.204837
696 1 0.418108 0.204536 0.197353
978 1 0.373865 0.20788 0.241935
694 1 0.463162 0.207142 0.16864
743 1 0.458806 0.246944 0.210631
982 1 0.461766 0.204724 0.245459
701 1 0.579409 0.164159 0.161813
698 1 0.539241 0.207057 0.163517
745 1 0.494673 0.251328 0.166857
699 1 0.540676 0.160663 0.205612
700 1 0.501849 0.199209 0.204418
985 1 0.498961 0.160613 0.241297
986 1 0.535706 0.207912 0.247745
704 1 0.572773 0.209793 0.211901
703 1 0.623645 0.16357 0.196065
751 1 0.616544 0.248676 0.209811
705 1 0.660907 0.167232 0.154195
706 1 0.705971 0.200181 0.159693
707 1 0.711118 0.167635 0.207458
708 1 0.665162 0.207629 0.208822
993 1 0.661076 0.170773 0.247241
994 1 0.711976 0.207699 0.249077
711 1 0.786258 0.164752 0.209845
713 1 0.833931 0.160936 0.161477
712 1 0.74927 0.208426 0.207584
997 1 0.750335 0.169158 0.255376
714 1 0.872691 0.205023 0.170831
715 1 0.883319 0.160839 0.210108
716 1 0.828496 0.197721 0.205024
1053 1 0.915158 0.246914 0.246573
720 1 0.916941 0.207383 0.211524
676 1 0.00555174 0.20305 0.208736
1006 1 0.965112 0.209881 0.251871
722 1 0.0392744 0.291066 0.166641
723 1 0.041659 0.24709 0.212219
773 1 0.0815948 0.332582 0.169676
726 1 0.128598 0.288613 0.164292
727 1 0.121527 0.251663 0.208279
728 1 0.0809297 0.288161 0.209428
1017 1 0.169485 0.25309 0.245049
775 1 0.121958 0.329207 0.207564
1014 1 0.126331 0.289318 0.252643
781 1 0.26309 0.338709 0.163791
732 1 0.170808 0.291591 0.20385
1018 1 0.216184 0.28694 0.236796
736 1 0.256086 0.28303 0.202027
1021 1 0.249029 0.250059 0.245692
734 1 0.29033 0.282778 0.15964
1025 1 0.336575 0.254363 0.247075
740 1 0.338268 0.29539 0.206232
739 1 0.373464 0.247947 0.20594
738 1 0.377704 0.29062 0.165953
744 1 0.419722 0.293232 0.203821
741 1 0.425132 0.252678 0.169266
1029 1 0.415569 0.242335 0.246258
742 1 0.464841 0.292689 0.174456
748 1 0.504244 0.290529 0.212916
791 1 0.457235 0.336817 0.209354
746 1 0.535604 0.288016 0.162927
747 1 0.531552 0.244733 0.205583
1034 1 0.54271 0.29076 0.252313
1033 1 0.498678 0.246368 0.250979
750 1 0.614463 0.293146 0.168005
752 1 0.575666 0.292102 0.203085
1038 1 0.623918 0.290143 0.24158
753 1 0.66216 0.239861 0.166081
756 1 0.665071 0.281326 0.200429
755 1 0.706121 0.241768 0.199639
754 1 0.70784 0.288288 0.166659
1041 1 0.665918 0.246915 0.242557
1045 1 0.754391 0.253612 0.246311
757 1 0.751123 0.253488 0.168114
758 1 0.789936 0.288547 0.160342
761 1 0.835408 0.254427 0.169152
760 1 0.749794 0.293855 0.206128
759 1 0.791105 0.251918 0.20856
764 1 0.832639 0.297849 0.207323
763 1 0.875181 0.252854 0.20401
765 1 0.916299 0.249823 0.164251
762 1 0.877436 0.289548 0.161738
811 1 0.878247 0.32614 0.202414
813 1 0.917407 0.325388 0.167685
724 1 0.999573 0.290061 0.211879
768 1 0.920564 0.289464 0.210498
767 1 0.961504 0.249635 0.211643
769 1 0.0043092 0.331558 0.173822
821 1 0.0822278 0.423003 0.174601
771 1 0.0389716 0.336065 0.217443
1057 1 0.994108 0.330437 0.251835
1058 1 0.038176 0.374045 0.25442
1061 1 0.0809267 0.334902 0.249839
774 1 0.121836 0.373695 0.162418
776 1 0.0825625 0.373278 0.209571
1062 1 0.125036 0.37594 0.252505
779 1 0.211964 0.331167 0.207981
780 1 0.166366 0.382903 0.211283
784 1 0.25019 0.372042 0.210667
782 1 0.291062 0.379003 0.169333
783 1 0.292728 0.333171 0.208675
831 1 0.2905 0.418058 0.212766
788 1 0.333471 0.38197 0.209815
787 1 0.371999 0.33763 0.206935
835 1 0.376653 0.416458 0.207622
792 1 0.417692 0.382882 0.208969
789 1 0.418376 0.341563 0.168796
790 1 0.462189 0.376532 0.169115
839 1 0.459176 0.420248 0.202442
793 1 0.50707 0.332384 0.173207
794 1 0.543862 0.375298 0.164902
795 1 0.55327 0.339126 0.203411
796 1 0.50664 0.379297 0.205503
843 1 0.547888 0.420075 0.203651
1129 1 0.507159 0.417507 0.250341
797 1 0.587336 0.329748 0.154627
799 1 0.622176 0.333586 0.207925
800 1 0.585282 0.378153 0.209577
801 1 0.660259 0.329174 0.163099
803 1 0.703394 0.328498 0.204999
804 1 0.666503 0.376541 0.20807
1089 1 0.659048 0.330191 0.245122
807 1 0.785356 0.333503 0.196908
808 1 0.744408 0.372862 0.20492
806 1 0.787254 0.376412 0.162157
809 1 0.831717 0.33046 0.163177
812 1 0.831626 0.369066 0.20276
816 1 0.91456 0.370363 0.203916
1149 1 0.91478 0.411453 0.244324
815 1 0.957139 0.329492 0.203163
772 1 0.00153808 0.384176 0.207803
814 1 0.960626 0.373566 0.168201
1102 1 0.955881 0.372385 0.245564
863 1 0.955735 0.4175 0.20244
817 1 0.00539196 0.421858 0.172306
1684 1 0.000894498 0.457268 0.45999
819 1 0.0446189 0.415518 0.206767
1109 1 0.0865558 0.417227 0.252926
1106 1 0.0310773 0.453253 0.253123
1105 1 0.995791 0.414477 0.249316
1113 1 0.168555 0.415701 0.256834
824 1 0.0817328 0.458264 0.216362
823 1 0.128123 0.420653 0.20601
828 1 0.166732 0.461682 0.213944
1822 1 0.954323 0.120074 0.499843
827 1 0.208343 0.41601 0.214028
829 1 0.252103 0.414716 0.167084
1114 1 0.215178 0.458491 0.250256
833 1 0.337109 0.418866 0.174015
832 1 0.252789 0.459819 0.205405
836 1 0.333196 0.461808 0.207495
4321 1 0.991837 0.496719 0.246824
1636 1 0.994613 0.378736 0.466056
4361 1 0.830606 0.495825 0.247773
327 1 0.802232 0.00116586 0.122872
834 1 0.38501 0.459536 0.165309
840 1 0.41947 0.455927 0.206942
1846 1 0.452525 0.213144 0.493926
844 1 0.499005 0.460526 0.207849
4065 1 0.667258 0.499683 0.163157
841 1 0.50152 0.418707 0.162733
842 1 0.541211 0.45939 0.168366
1130 1 0.543944 0.459695 0.248182
845 1 0.58378 0.420472 0.161011
846 1 0.623184 0.463565 0.167216
848 1 0.586323 0.456039 0.204883
847 1 0.629096 0.417267 0.197679
850 1 0.707155 0.460321 0.162387
849 1 0.670644 0.41448 0.16549
852 1 0.660672 0.463267 0.203923
851 1 0.698736 0.418326 0.208469
1137 1 0.659508 0.414697 0.244218
1138 1 0.711244 0.462908 0.246088
1145 1 0.82986 0.410816 0.251269
855 1 0.788877 0.406246 0.2072
854 1 0.797134 0.451373 0.168494
856 1 0.743509 0.456748 0.199907
1142 1 0.784787 0.451334 0.242646
1141 1 0.741044 0.41258 0.253593
4047 1 0.291778 0.498356 0.212236
859 1 0.877472 0.411507 0.20582
860 1 0.8321 0.45508 0.207368
864 1 0.913424 0.450844 0.209545
3777 1 0.667634 0.495773 0.0846569
862 1 0.956004 0.455294 0.164117
820 1 0.997605 0.456387 0.212521
1150 1 0.953668 0.456173 0.247023
915 1 0.037215 0.0844688 0.298057
868 1 0.00164452 0.0392015 0.298018
599 1 0.454093 0.00148273 0.212725
1678 1 0.960184 0.376945 0.426843
1680 1 0.919783 0.372054 0.463077
917 1 0.0795349 0.0799269 0.250576
872 1 0.0834252 0.0429594 0.296478
876 1 0.159934 0.0392516 0.286642
1209 1 0.166793 0.081797 0.329308
1158 1 0.123636 0.0476208 0.331017
4355 1 0.708333 0.498016 0.28862
1162 1 0.206472 0.0368523 0.325658
1801 1 0.501443 0.0742969 0.499862
880 1 0.246171 0.0419002 0.288827