ITEM: TIMESTEP
7250
ITEM: NUMBER OF ATOMS
864
ITEM: BOX BOUNDS pp pp pp
0.0000000000000000e+00 3.1559999999999999e+01
0.0000000000000000e+00 3.1559999999999999e+01
0.0000000000000000e+00 3.1559999999999999e+01
ITEM: ATOMS id type xs ys zs
8 1 0.153002 0.0926697 0.0889065
4 1 1.004 0.077934 0.0797789
74 1 0.0720107 0.0992891 0.166469
31 1 0.256558 0.153118 0.0690869
12 1 0.336163 0.067787 0.0580693
439 1 0.255616 0.500178 0.0703076
78 1 0.249894 0.0914312 0.171031
165 1 0.840505 -0.00139325 0.327593
109 1 0.506506 0.179476 0.149943
35 1 0.422569 0.156801 0.0714794
82 1 0.429121 0.0908484 0.162203
17 1 0.67802 -0.00127086 5.43815e-05
16 1 0.50407 0.0798476 0.0823346
20 1 0.664962 0.0861406 0.0947034
86 1 0.570532 0.093854 0.16683
113 1 0.655304 0.16168 0.170916
435 1 0.0848193 0.497536 0.0601934
43 1 0.7581 0.153542 0.0907941
77 1 0.163787 0.0103618 0.177968
245 1 0.165633 0.183635 0.498968
579 1 0.080168 0.498169 0.423471
24 1 0.843585 0.07655 0.0967643
47 1 0.926342 0.174482 0.081847
117 1 0.833232 0.178355 0.188302
89 1 0.666167 0.00278237 0.171447
27 1 0.071026 0.176486 0.0797023
81 1 0.336507 0.0174144 0.16346
28 1 0.990341 0.253637 0.0785188
98 1 0.0672069 0.26343 0.162826
32 1 0.159616 0.252857 0.0887799
97 1 0.995867 0.182066 0.174778
125 1 0.169215 0.338255 0.154997
102 1 0.247002 0.246795 0.158064
87 1 0.580638 0.0105068 0.248269
36 1 0.330781 0.260941 0.0745055
40 1 0.503841 0.258518 0.0727976
106 1 0.414113 0.244301 0.14829
79 1 0.241686 0.0153362 0.245481
39 1 0.597201 0.174327 0.0786035
110 1 0.582204 0.272081 0.155601
133 1 0.495472 0.342311 0.149618
75 1 0.0786356 0.00909197 0.250945
44 1 0.670388 0.248872 0.0853245
114 1 0.742447 0.250596 0.162905
241 1 1.00011 0.180949 0.474594
48 1 0.83029 0.265185 0.0747368
274 1 0.409803 0.414013 0.491296
51 1 0.0872764 0.340268 0.0651948
56 1 0.169196 0.418317 0.0737244
121 1 0.980935 0.333435 0.160841
122 1 0.0815957 0.413641 0.14597
55 1 0.256651 0.329588 0.0724383
159 1 0.587849 0.00201343 0.41056
73 1 -0.00101628 0.00706569 0.167437
59 1 0.424654 0.339421 0.0647458
60 1 0.348124 0.413655 0.0669367
63 1 0.586765 0.338283 0.0767437
64 1 0.511237 0.417022 0.065226
137 1 0.666677 0.339935 0.174922
67 1 0.748093 0.332257 0.0942583
68 1 0.673766 0.418194 0.0808295
138 1 0.738468 0.426731 0.173504
72 1 0.842248 0.42509 0.0772953
18 1 0.746301 0.0782241 0.0202943
141 1 0.832328 0.340155 0.175396
52 1 0.987983 0.409001 0.0686702
71 1 0.908425 0.335377 0.0884777
142 1 0.914524 0.417081 0.174495
581 1 0.176921 0.490981 0.328022
193 1 0.00963525 0.343716 0.346143
80 1 0.162604 0.0896582 0.25273
99 1 0.079805 0.169805 0.252555
146 1 0.0873786 0.0665856 0.33388
509 1 0.15897 0.489628 0.154758
150 1 0.241101 0.0972563 0.324527
105 1 0.338316 0.163175 0.161821
103 1 0.250622 0.183325 0.246621
83 1 0.42651 0.0221001 0.240527
84 1 0.332101 0.0810472 0.2565
154 1 0.410164 0.0885824 0.340746
107 1 0.426034 0.158364 0.242534
88 1 0.49769 0.0851612 0.258638
158 1 0.577996 0.0792838 0.331707
185 1 0.666165 0.16772 0.329112
155 1 0.402495 0.00230844 0.4162
29 1 0.156364 0.17423 0.00443864
92 1 0.66902 0.0768935 0.256404
90 1 0.743708 0.0762198 0.169761
525 1 0.839371 0.494299 0.166736
76 1 0.010229 0.0865126 0.255427
94 1 0.930751 0.0893749 0.171126
96 1 0.841719 0.0739719 0.249705
166 1 0.925648 0.0849642 0.326957
169 1 -0.000620379 0.174383 0.328382
104 1 0.160286 0.251615 0.232314
101 1 0.159191 0.161833 0.170097
170 1 0.0743962 0.253365 0.320737
173 1 0.167435 0.189314 0.324911
127 1 0.249285 0.324719 0.235079
108 1 0.342818 0.256327 0.245415
201 1 0.333763 0.34204 0.321682
174 1 0.253185 0.255157 0.338356
129 1 0.356618 0.342097 0.155234
178 1 0.412202 0.258048 0.337374
131 1 0.433983 0.328511 0.259678
111 1 0.567506 0.175155 0.239204
112 1 0.505216 0.249074 0.242158
182 1 0.591281 0.247686 0.329559
115 1 0.747093 0.162871 0.252897
116 1 0.650856 0.250351 0.232607
186 1 0.744814 0.239751 0.350802
119 1 0.908807 0.162636 0.252325
100 1 0.994259 0.259962 0.238974
118 1 0.90755 0.256272 0.170476
120 1 0.818406 0.253918 0.251962
190 1 0.909673 0.251227 0.325091
214 1 0.901334 0.410327 0.33372
123 1 0.0663743 0.343557 0.230947
124 1 0.987394 0.407614 0.25415
196 1 0.00571492 0.419524 0.422887
126 1 0.254842 0.398745 0.159566
128 1 0.157244 0.418541 0.241879
132 1 0.345956 0.413796 0.244357
198 1 0.245775 0.410866 0.324055
257 1 0.669482 0.157063 0.496189
216 1 0.827732 0.407411 0.42528
130 1 0.421901 0.421913 0.15493
205 1 0.500213 0.332834 0.337873
136 1 0.497317 0.420048 0.243147
447 1 0.583553 0.496207 0.0893807
134 1 0.579439 0.426773 0.167925
135 1 0.583789 0.339255 0.247582
140 1 0.667893 0.423684 0.263012
139 1 0.746654 0.34682 0.261628
213 1 0.828931 0.325514 0.332588
211 1 0.741402 0.33716 0.412119
143 1 0.912163 0.335272 0.255001
144 1 0.8295 0.421634 0.251987
511 1 0.251743 0.483145 0.237346
505 1 0.00469769 0.478125 0.157262
171 1 0.0986268 0.159369 0.397538
148 1 0.00684091 0.0604643 0.41571
246 1 0.243618 0.247977 0.501939
153 1 0.327803 0.0120042 0.334615
282 1 0.737003 0.42284 0.490991
152 1 0.180359 0.0955952 0.4378
177 1 0.334448 0.176665 0.336325
69 1 0.838367 0.342246 0.000781817
277 1 0.496448 0.327731 0.48737
209 1 0.655336 0.333133 0.33364
156 1 0.331667 0.093517 0.415625
181 1 0.501657 0.165052 0.32676
577 1 0.985477 0.481261 0.336957
65 1 0.663179 0.324378 0.00920837
160 1 0.486688 0.078589 0.411917
164 1 0.663391 0.0849778 0.410351
210 1 0.740766 0.431361 0.33683
583 1 0.252119 0.494363 0.410912
206 1 0.583123 0.421268 0.340325
189 1 0.829582 0.155867 0.335822
162 1 0.748674 0.0786037 0.330324
168 1 0.83236 0.073597 0.413833
212 1 0.65746 0.408858 0.417465
191 1 0.919334 0.154957 0.40402
207 1 0.583888 0.337034 0.418254
46 1 0.912541 0.25729 0.00215374
176 1 0.154998 0.248796 0.411809
195 1 0.0878039 0.332666 0.417887
175 1 0.259048 0.169643 0.411978
184 1 0.498132 0.243847 0.412542
180 1 0.334365 0.260219 0.418709
179 1 0.421216 0.176047 0.414165
183 1 0.571152 0.160386 0.408793
188 1 0.655631 0.24892 0.4248
192 1 0.836507 0.248628 0.433139
187 1 0.760315 0.160986 0.423623
42 1 0.746384 0.247999 0.00800011
599 1 0.908289 0.483635 0.425972
215 1 0.920902 0.327925 0.405183
172 1 0.988835 0.253638 0.406099
194 1 0.0873984 0.425151 0.3361
200 1 0.171518 0.416394 0.409948
238 1 0.924732 0.0884873 0.484539
199 1 0.247206 0.338957 0.42407
204 1 0.330278 0.416654 0.406632
197 1 0.149636 0.332153 0.332677
7 1 0.235093 0.00734667 0.0931568
145 1 0.991818 0.00351795 0.325792
202 1 0.417953 0.429856 0.343277
208 1 0.508362 0.411789 0.423297
203 1 0.412873 0.33657 0.411404
21 1 0.822003 0.00767523 -0.000340169
513 1 0.328451 0.478926 0.148274
455 1 0.931176 0.497024 0.0777812
242 1 0.0840339 0.251115 0.492613
149 1 0.164144 0.002226 0.333746
258 1 0.741597 0.255882 0.499501
585 1 0.324949 0.497826 0.330859
507 1 0.086855 0.500382 0.243517
85 1 0.510224 0.0135084 0.154912
2 1 0.0810062 0.0806311 0.0122739
265 1 0.0195225 0.344291 0.499336
14 1 0.578754 0.0798141 0.00569639
66 1 0.743565 0.413912 0.00441888
234 1 0.76492 0.077979 0.490441
10 1 0.428629 0.0753996 6.43636e-05
22 1 0.916369 0.0917191 0.0107008
285 1 0.819152 0.333487 0.49466
34 1 0.406334 0.246979 0.00508497
230 1 0.576537 0.0836322 0.483397
657 1 0.33695 0.48987 0.495223
41 1 0.670344 0.151246 0.00919197
661 1 0.501193 0.486499 0.496694
49 1 0.996928 0.333358 -0.00485076
38 1 0.591811 0.246102 0.00420986
262 1 0.919247 0.264696 0.494215
237 1 0.845027 0.00543544 0.487622
224 1 0.166444 0.0848381 0.570845
220 1 0.0131342 0.0785588 0.589685
801 1 0.33327 0.498741 0.851086
228 1 0.33932 0.0610825 0.59893
294 1 0.250227 0.0788169 0.669158
309 1 0.834691 0.00728449 0.634025
431 1 0.913053 0.339704 0.914846
251 1 0.412036 0.158306 0.583774
298 1 0.417364 0.0792696 0.679764
232 1 0.492755 0.0925427 0.588109
731 1 0.424695 0.493371 0.760648
236 1 0.669819 0.0664415 0.58394
311 1 0.932714 0.0150117 0.740739
250 1 0.421195 0.244749 0.49747
325 1 0.502396 0.163251 0.679714
240 1 0.837385 0.0978197 0.577033
299 1 0.421081 0.0108439 0.776863
310 1 0.910127 0.0833757 0.654997
377 1 0.669217 0.00495784 0.824848
667 1 0.751595 0.50282 0.57332
432 1 0.825309 0.427921 0.920803
231 1 0.572602 0.00267565 0.609163
243 1 0.066526 0.170918 0.583534
813 1 0.828974 0.491447 0.831812
248 1 0.157005 0.251085 0.582441
247 1 0.245201 0.158719 0.588683
252 1 0.328293 0.233174 0.593224
321 1 0.328474 0.153746 0.66575
271 1 0.257054 0.329665 0.575307
61 1 0.50458 0.327267 0.987148
663 1 0.55926 0.489964 0.590121
256 1 0.497002 0.25001 0.577227
275 1 0.430164 0.328775 0.578279
441 1 0.320313 0.497703 0.985145
301 1 0.493321 0.00584724 0.692209
255 1 0.581889 0.159677 0.598985
326 1 0.575032 0.252025 0.661198
260 1 0.676748 0.24069 0.589537
353 1 0.670637 0.324413 0.663517
307 1 0.758202 0.00127706 0.737996
723 1 0.0631071 0.496052 0.740429
259 1 0.755431 0.155164 0.577958
283 1 0.741224 0.336933 0.57895
357 1 0.832641 0.338074 0.659612
229 1 0.51326 0.00626702 0.51717
269 1 0.169741 0.326057 0.506133
263 1 0.929809 0.159408 0.565226
264 1 0.839917 0.247487 0.57574
70 1 0.906076 0.422811 0.988573
244 1 0.987677 0.247546 0.598883
287 1 0.916157 0.330028 0.591289
226 1 0.421806 0.0804708 0.513327
267 1 0.0750675 0.333971 0.591261
338 1 0.0742629 0.413302 0.664826
268 1 0.000959038 0.41444 0.586096
272 1 0.163532 0.413419 0.575228
276 1 0.353707 0.393869 0.578885
428 1 0.669748 0.420093 0.916839
727 1 0.227912 0.495369 0.747173
280 1 0.50206 0.403485 0.575906
349 1 0.49967 0.330213 0.666689
281 1 0.667181 0.338386 0.507268
225 1 0.342228 0.00140509 0.504748
416 1 0.160177 0.417459 0.908726
279 1 0.57815 0.320878 0.576862
284 1 0.665235 0.421718 0.590378
412 1 0.99566 0.419531 0.921316
350 1 0.584036 0.403686 0.659806
291 1 0.0813121 0.0103727 0.76105
354 1 0.745496 0.408737 0.659227
406 1 0.908647 0.251599 0.83242
53 1 0.165134 0.327629 0.996405
288 1 0.827861 0.411428 0.577791
337 1 0.986984 0.346687 0.671574
290 1 0.0850475 0.0826246 0.669273
315 1 0.0862606 0.184624 0.747361
296 1 0.155964 0.0947335 0.761398
292 1 0.00198286 0.0890881 0.750668
313 1 0.997071 0.149041 0.663751
385 1 0.995686 0.177147 0.832195
319 1 0.251908 0.142717 0.752325
422 1 0.583056 0.419896 0.832724
388 1 0.976287 0.251678 0.914473
300 1 0.332726 0.083314 0.765247
323 1 0.40199 0.169622 0.741536
370 1 0.415955 0.0939874 0.842511
302 1 0.582546 0.0850267 0.681658
329 1 0.675289 0.160291 0.6767
304 1 0.503787 0.0793191 0.769971
374 1 0.594114 0.0805549 0.84214
397 1 0.491138 0.165573 0.823473
401 1 0.692105 0.171329 0.829046
62 1 0.596239 0.415713 0.990754
308 1 0.67182 0.0919225 0.758821
306 1 0.753852 0.076893 0.654277
331 1 0.76161 0.155527 0.741544
333 1 0.830776 0.176355 0.663712
410 1 0.070271 0.410247 0.843112
312 1 0.845213 0.0853542 0.742653
335 1 0.919279 0.168055 0.743082
314 1 0.0877276 0.266515 0.669772
386 1 0.0899853 0.246857 0.824605
317 1 0.160679 0.161322 0.662369
320 1 0.183373 0.236412 0.750896
318 1 0.233138 0.238703 0.659882
324 1 0.305938 0.251144 0.747325
393 1 0.314304 0.175391 0.834584
322 1 0.417872 0.248021 0.668214
347 1 0.400134 0.325568 0.758816
327 1 0.597707 0.174923 0.74679
328 1 0.492598 0.251047 0.747314
332 1 0.683293 0.245438 0.75302
330 1 0.754049 0.256179 0.65926
355 1 0.74602 0.339952 0.744819
336 1 0.811133 0.2478 0.745824
334 1 0.908306 0.244407 0.66933
409 1 0.988371 0.330934 0.837795
316 1 0.992821 0.250835 0.736601
359 1 0.906513 0.335106 0.744098
341 1 0.173567 0.332965 0.652737
339 1 0.0690892 0.335756 0.757801
344 1 0.160931 0.415929 0.744086
340 1 0.986423 0.411257 0.756642
345 1 0.328165 0.34118 0.668214
343 1 0.250794 0.341349 0.744576
342 1 0.244111 0.426284 0.64638
421 1 0.50745 0.327896 0.834761
346 1 0.412786 0.399638 0.668629
348 1 0.320005 0.422278 0.737781
418 1 0.419966 0.400991 0.839326
352 1 0.510529 0.40922 0.752674
351 1 0.587115 0.337874 0.760566
266 1 0.0901085 0.423807 0.496737
426 1 0.74724 0.423016 0.832427
356 1 0.65852 0.420768 0.743046
360 1 0.819517 0.412596 0.741749
286 1 0.927501 0.404242 0.501713
430 1 0.912865 0.410835 0.83409
361 1 0.996795 0.00587764 0.848068
358 1 0.908072 0.430248 0.664467
219 1 0.0945212 0.00144053 0.587235
362 1 0.0799126 0.0681399 0.846305
364 1 0.993733 0.0850131 0.916594
58 1 0.42363 0.424015 0.989187
366 1 0.264448 0.082318 0.853858
368 1 0.160519 0.0741962 0.915269
391 1 0.22581 0.176684 0.926357
405 1 0.830896 0.178995 0.835647
420 1 0.323328 0.405603 0.900725
372 1 0.332846 0.0828284 0.931115
395 1 0.411943 0.161202 0.927318
376 1 0.507351 0.0825599 0.919454
424 1 0.503497 0.405582 0.903964
399 1 0.581777 0.16126 0.91281
235 1 0.741889 0.00102705 0.583286
417 1 0.328155 0.325558 0.829636
378 1 0.770943 0.0838206 0.823963
380 1 0.67066 0.078626 0.922873
384 1 0.849278 0.0790562 0.908492
671 1 0.908108 0.500948 0.571382
382 1 0.917177 0.08135 0.828661
407 1 0.924321 0.164482 0.9273
389 1 0.161798 0.171708 0.83735
411 1 0.0747392 0.322621 0.909684
387 1 0.0855406 0.157215 0.911334
392 1 0.15523 0.257297 0.909467
408 1 0.832478 0.246035 0.929898
390 1 0.24725 0.263249 0.836529
254 1 0.587273 0.243091 0.512109
394 1 0.419711 0.251437 0.845017
419 1 0.431055 0.326561 0.920621
396 1 0.324452 0.252445 0.920962
400 1 0.499371 0.233654 0.907257
414 1 0.232131 0.407096 0.828131
413 1 0.168037 0.331271 0.810996
659 1 0.41278 0.479712 0.594388
425 1 0.676208 0.347989 0.850921
725 1 0.146161 0.486594 0.665709
423 1 0.590888 0.3182 0.91831
398 1 0.581663 0.243214 0.821416
415 1 0.246785 0.33667 0.925627
427 1 0.747865 0.330663 0.925345
404 1 0.665046 0.2397 0.917127
402 1 0.744458 0.26014 0.841466
403 1 0.751839 0.156311 0.917596
429 1 0.83659 0.334584 0.831787
239 1 0.918814 0.00846322 0.573145
721 1 0.989958 0.500033 0.660279
795 1 0.078265 0.497581 0.899975
57 1 0.342337 0.341442 0.989555
222 1 0.264091 0.0867405 0.516488
805 1 0.499343 0.49378 0.844257
289 1 0.0173072 0.00742863 0.677051
293 1 0.172546 0.0126254 0.664641
741 1 0.814301 0.492498 0.681371
303 1 0.582674 0.00955105 0.754594
33 1 0.322455 0.175258 0.999318
54 1 0.237372 0.42652 0.978961
217 1 0.0143164 0.00157662 0.505128
50 1 0.0838872 0.418239 0.988216
30 1 0.23446 0.243116 0.990681
37 1 0.504507 0.169724 0.993956
261 1 0.850094 0.170068 0.49881
249 1 0.335566 0.170244 0.498659
218 1 0.0714865 0.10827 0.503347
45 1 0.823869 0.151574 0.9889
270 1 0.254606 0.416075 0.50685
253 1 0.508927 0.170812 0.512191
25 1 0.00664027 0.157948 0.994449
278 1 0.580672 0.40597 0.510854
6 1 0.23808 0.0734748 0.986658
26 1 0.0712561 0.238803 0.982911
273 1 0.339919 0.31055 0.502502
506 1 0.0601672 0.57848 0.164188
459 1 0.0763448 0.661246 0.0953594
15 1 0.574972 0.976588 0.0775499
646 1 0.918854 0.906201 0.329678
669 1 0.822276 0.503452 0.492142
440 1 0.167013 0.582565 0.0858998
23 1 0.915773 0.996564 0.0950045
510 1 0.26288 0.580771 0.155522
444 1 0.347388 0.563062 0.0759139
527 1 0.911637 0.496876 0.256476
11 1 0.434114 0.994226 0.0716387
448 1 0.502653 0.591703 0.0780939
452 1 0.672266 0.565946 0.0873086
445 1 0.513026 0.507108 0.000533332
167 1 0.915902 0.990471 0.411198
515 1 0.423649 0.501765 0.244906
147 1 0.105995 0.997085 0.432057
522 1 0.753197 0.583838 0.169885
456 1 0.844261 0.585149 0.0843166
436 1 0.997294 0.573857 0.07265
517 1 0.501696 0.518547 0.164146
91 1 0.742808 0.992051 0.246612
526 1 0.919076 0.587241 0.171673
460 1 0.989243 0.740415 0.0893365
483 1 0.0752731 0.834619 0.0840691
530 1 0.0861587 0.74356 0.177113
464 1 0.167381 0.7457 0.082174
713 1 0.662673 0.820471 0.5019
463 1 0.244028 0.664084 0.0879227
19 1 0.759269 0.998041 0.0968483
487 1 0.240693 0.845121 0.0711006
468 1 0.327364 0.74041 0.0820106
467 1 0.408583 0.652396 0.0886213
491 1 0.407672 0.821854 0.0930842
472 1 0.504288 0.764129 0.0840783
163 1 0.739368 0.991687 0.426958
591 1 0.575887 0.513899 0.41487
471 1 0.579176 0.685307 0.0956762
476 1 0.663314 0.757061 0.0921655
549 1 0.82392 0.660388 0.157798
475 1 0.743373 0.666488 0.0907844
499 1 0.763641 0.833967 0.105304
545 1 0.674455 0.670048 0.167523
546 1 0.751841 0.747959 0.165563
479 1 0.910612 0.664857 0.0855206
480 1 0.832146 0.741757 0.0834838
458 1 0.0636478 0.745286 0.00598006
488 1 0.163155 0.92299 0.0859936
484 1 0.993657 0.920384 0.0951165
477 1 0.83066 0.663113 0.00762939
443 1 0.431104 0.501443 0.0681288
492 1 0.325894 0.940154 0.085265
693 1 0.856613 0.671806 0.487521
461 1 0.16452 0.663241 0.00485268
481 1 0.988149 0.829438 0.00335735
496 1 0.497771 0.907682 0.0977714
681 1 0.334168 0.675886 0.500441
523 1 0.751137 0.504562 0.246227
495 1 0.591101 0.828983 0.0727332
566 1 0.583984 0.906321 0.165352
451 1 0.758793 0.50704 0.0757826
573 1 0.839638 0.827726 0.179247
500 1 0.668447 0.915418 0.0943821
504 1 0.834523 0.9134 0.106102
3 1 0.0858008 1.00176 0.0963202
521 1 0.666122 0.49682 0.172854
503 1 0.927264 0.828534 0.100157
574 1 0.931127 0.905347 0.169332
157 1 0.506034 0.998389 0.342926
529 1 0.989684 0.666962 0.166027
578 1 0.0857993 0.569346 0.344234
512 1 0.184847 0.576197 0.256729
531 1 0.0878117 0.643278 0.252247
1 1 0.0132771 0.998996 0.00830538
535 1 0.246116 0.660681 0.252855
516 1 0.328645 0.594265 0.239525
533 1 0.158755 0.668866 0.167172
582 1 0.260054 0.583864 0.330761
648 1 0.829962 0.912046 0.424765
514 1 0.417072 0.579389 0.164791
609 1 0.33634 0.666547 0.343196
595 1 0.743013 0.502766 0.413724
518 1 0.575839 0.597309 0.159411
520 1 0.500682 0.590286 0.244264
590 1 0.587765 0.587126 0.332599
686 1 0.569007 0.754236 0.485813
465 1 0.329769 0.670083 0.00632148
524 1 0.667495 0.586561 0.247174
621 1 0.816221 0.662013 0.349718
547 1 0.747788 0.669781 0.249635
502 1 0.91499 0.915005 0.0163517
670 1 0.917962 0.589114 0.499139
508 1 0.988348 0.587175 0.268411
528 1 0.831802 0.585936 0.241903
587 1 0.425279 0.501842 0.415764
536 1 0.177962 0.748143 0.26381
532 1 0.00591351 0.730569 0.25466
555 1 0.0950639 0.83527 0.24553
557 1 0.166941 0.824996 0.166575
601 1 0.00506618 0.659623 0.342629
605 1 0.157006 0.645031 0.342321
534 1 0.238554 0.745189 0.166723
559 1 0.240651 0.826695 0.24887
537 1 0.31976 0.675755 0.166489
538 1 0.407718 0.735297 0.176752
539 1 0.420725 0.658872 0.251172
540 1 0.317959 0.741359 0.260526
542 1 0.580967 0.778603 0.168119
541 1 0.498732 0.678487 0.163859
543 1 0.597706 0.680601 0.238146
544 1 0.504112 0.746215 0.243945
567 1 0.582202 0.842125 0.252263
565 1 0.485438 0.830892 0.178343
548 1 0.677018 0.760401 0.251905
617 1 0.668694 0.664405 0.328452
569 1 0.672291 0.837306 0.184741
571 1 0.753979 0.849786 0.265553
552 1 0.834039 0.744429 0.265711
550 1 0.901773 0.73181 0.169512
551 1 0.901715 0.662378 0.279536
647 1 0.928004 0.836695 0.419066
554 1 0.0867714 0.915967 0.160275
560 1 0.162786 0.921996 0.250217
558 1 0.245859 0.927675 0.171665
564 1 0.324884 0.942428 0.243611
589 1 0.506626 0.497007 0.333451
562 1 0.407832 0.917118 0.158019
561 1 0.316396 0.837404 0.175722
563 1 0.404278 0.834522 0.245814
593 1 0.662986 0.508 0.340481
568 1 0.492637 0.925921 0.237857
644 1 0.647613 0.9029 0.422725
638 1 0.572816 0.917476 0.336129
572 1 0.659919 0.922074 0.246086
622 1 0.9388 0.758551 0.332659
570 1 0.755361 0.921846 0.170473
641 1 0.664991 0.841019 0.333238
553 1 -0.000478798 0.818517 0.176047
575 1 0.92322 0.823544 0.252611
576 1 0.841511 0.917765 0.24363
556 1 0.0116656 0.926449 0.250635
642 1 0.759265 0.920981 0.34534
630 1 0.244241 0.92542 0.326585
643 1 0.756151 0.837592 0.410196
584 1 0.170215 0.574191 0.421875
603 1 0.0879036 0.660037 0.407421
490 1 0.419515 0.910559 0.00522615
93 1 0.843794 0.996885 0.177013
607 1 0.268493 0.652331 0.427415
626 1 0.0962133 0.919382 0.339337
640 1 0.509543 0.921655 0.429796
645 1 0.836208 0.838849 0.332379
613 1 0.512143 0.672945 0.326001
588 1 0.337047 0.573685 0.409815
586 1 0.414088 0.587231 0.319743
611 1 0.428029 0.65892 0.409381
624 1 0.839728 0.757585 0.398387
592 1 0.500266 0.58472 0.415086
615 1 0.581309 0.679944 0.409008
634 1 0.407064 0.923278 0.32123
594 1 0.735954 0.579118 0.33196
596 1 0.662043 0.596421 0.41845
636 1 0.334163 0.917291 0.423432
600 1 0.82155 0.581293 0.419257
623 1 0.92277 0.678928 0.408059
580 1 1.00358 0.574707 0.427475
598 1 0.917132 0.573525 0.36375
632 1 0.16683 0.904946 0.417026
5 1 0.165688 0.999356 0.004017
619 1 0.758625 0.683298 0.425407
625 1 0.0266394 0.848207 0.33934
604 1 0.008357 0.750276 0.419301
602 1 0.082308 0.744704 0.322711
627 1 0.0957622 0.81822 0.444217
608 1 0.151932 0.7447 0.414204
629 1 0.181066 0.827112 0.336653
631 1 0.256225 0.848087 0.406649
606 1 0.241821 0.729642 0.35738
628 1 0.0137785 0.926222 0.42677
633 1 0.32145 0.830268 0.328158
610 1 0.403077 0.754973 0.323377
635 1 0.432434 0.853248 0.420926
612 1 0.328618 0.750717 0.418262
637 1 0.492445 0.849144 0.320962
616 1 0.499104 0.75724 0.403335
639 1 0.57276 0.83421 0.410244
614 1 0.600332 0.756233 0.32091
666 1 0.740946 0.591246 0.48817
658 1 0.417054 0.579163 0.495619
620 1 0.671776 0.753973 0.41882
618 1 0.742735 0.754597 0.334325
673 1 0.0015814 0.657762 0.499779
438 1 0.255087 0.588375 0.0102223
717 1 0.82444 0.826351 0.488645
151 1 0.248001 0.999473 0.409369
95 1 0.926143 1.00326 0.246795
497 1 0.687384 0.824943 0.00106979
677 1 0.184738 0.669093 0.493767
485 1 0.146343 0.831724 0.00200375
650 1 0.100161 0.581245 0.49979
489 1 0.332295 0.834737 0.0145784
482 1 0.0810246 0.921635 0.016559
597 1 0.826822 0.51084 0.341114
161 1 0.660372 0.99541 0.328971
519 1 0.582034 0.50211 0.260675
473 1 0.66208 0.663307 0.0173376
674 1 0.0762702 0.73036 0.49535
434 1 0.07787 0.593601 -0.000471433
678 1 0.252339 0.751337 0.489028
718 1 0.920199 0.915337 0.490292
689 1 0.658741 0.669753 0.493827
714 1 0.738605 0.907323 0.492899
474 1 0.754745 0.741672 0.00770326
450 1 0.749727 0.5954 0.0136308
702 1 0.2549 0.918768 0.496893
478 1 0.920535 0.743824 0.012023
652 1 0.992379 0.58094 0.596215
383 1 0.924499 1.00113 0.933312
457 1 0.994139 0.662921 0.999063
369 1 0.330153 0.990362 0.848309
656 1 0.18007 0.586885 0.59778
660 1 0.347907 0.590743 0.574701
726 1 0.256448 0.591276 0.667003
653 1 0.18285 0.500882 0.508725
730 1 0.418634 0.589458 0.672454
683 1 0.408674 0.678193 0.594199
664 1 0.498918 0.582885 0.587949
668 1 0.663634 0.588521 0.568681
687 1 0.58739 0.661363 0.586025
734 1 0.579012 0.591732 0.670509
442 1 0.408315 0.596273 0.994907
698 1 0.0947865 0.919009 0.504837
863 1 0.920742 0.835447 0.911225
691 1 0.752275 0.675507 0.576472
13 1 0.507373 0.983984 0.991123
651 1 0.0832157 0.500194 0.577645
223 1 0.259785 0.996912 0.58498
672 1 0.832536 0.573769 0.568337
742 1 0.904145 0.576588 0.66014
733 1 0.506133 0.504282 0.681235
649 1 -0.00227677 0.51093 0.509547
295 1 0.258217 1.00371 0.76469
675 1 0.0901382 0.659988 0.580057
680 1 0.168728 0.755581 0.569451
676 1 1.0005 0.755184 0.582288
749 1 0.175536 0.676085 0.661371
679 1 0.266301 0.656528 0.585493
750 1 0.255753 0.74065 0.66399
684 1 0.333787 0.749261 0.583244
781 1 0.505444 0.822502 0.684147
777 1 0.330332 0.831777 0.673991
707 1 0.419465 0.818965 0.587526
753 1 0.337915 0.666805 0.665013
688 1 0.516846 0.756596 0.595476
711 1 0.587184 0.837942 0.613324
692 1 0.677678 0.760144 0.593025
762 1 0.769982 0.759689 0.660038
696 1 0.833238 0.766541 0.578818
799 1 0.232786 0.510524 0.901294
695 1 0.925598 0.662607 0.582458
815 1 0.906731 0.506409 0.896893
766 1 0.915783 0.762427 0.670202
699 1 0.0928971 0.836123 0.567936
700 1 0.0143366 0.923773 0.580987
770 1 0.094266 0.926691 0.653993
797 1 0.151424 0.507427 0.822649
703 1 0.262117 0.830816 0.58449
704 1 0.178455 0.914107 0.584869
774 1 0.259343 0.912183 0.666265
841 1 0.9986 0.830843 0.834305
708 1 0.342481 0.904369 0.590409
712 1 0.507368 0.903221 0.592985
778 1 0.41074 0.899362 0.676844
433 1 0.991204 0.508126 0.98352
782 1 0.571812 0.927501 0.689526
716 1 0.672065 0.918225 0.58929
662 1 0.573045 0.567663 0.503858
793 1 0.995153 0.499692 0.826805
715 1 0.764344 0.843282 0.581515
720 1 0.84007 0.919546 0.557695
844 1 0.991065 0.906768 0.923542
862 1 0.93092 0.915861 0.83411
706 1 0.421166 0.910319 0.516452
719 1 0.910053 0.854899 0.58774
371 1 0.415257 0.983556 0.910656
811 1 0.748223 0.50865 0.90853
722 1 0.0823225 0.578247 0.656444
747 1 0.0916415 0.66505 0.735034
724 1 0.9886 0.57977 0.736728
454 1 0.91927 0.582507 0.998808
743 1 0.908706 0.513022 0.756963
737 1 0.657574 0.508624 0.651693
728 1 0.169154 0.578591 0.745459
732 1 0.326825 0.56482 0.759969
821 1 0.160564 0.663322 0.822579
751 1 0.249567 0.657256 0.74601
864 1 0.842258 0.925013 0.918078
709 1 0.50618 0.83505 0.50536
757 1 0.494673 0.667788 0.675522
755 1 0.394672 0.652808 0.759174
736 1 0.495372 0.581081 0.766201
297 1 0.341802 0.991092 0.680659
809 1 0.661694 0.497995 0.829222
367 1 0.251672 0.992227 0.920401
759 1 0.586621 0.661947 0.760015
858 1 0.772812 0.925296 0.817546
453 1 0.839564 0.508923 0.998023
738 1 0.75758 0.594567 0.649403
740 1 0.670917 0.600139 0.742802
810 1 0.74813 0.579998 0.824746
761 1 0.667956 0.671176 0.655323
820 1 0.990768 0.747401 0.914278
744 1 0.823161 0.584634 0.74963
767 1 0.919232 0.673387 0.749701
837 1 0.828838 0.671028 0.82534
814 1 0.906199 0.59339 0.818217
494 1 0.589836 0.901136 0.996645
745 1 -0.00276531 0.671745 0.666423
746 1 0.0880063 0.744199 0.651572
748 1 0.990146 0.760059 0.747586
771 1 0.0836687 0.84293 0.760709
752 1 0.162695 0.752145 0.755087
756 1 0.319475 0.747171 0.755601
822 1 0.25416 0.749758 0.837352
775 1 0.232264 0.837681 0.754714
754 1 0.398089 0.744252 0.688414
779 1 0.407303 0.819477 0.76729
760 1 0.493349 0.74189 0.769283
853 1 0.495033 0.830556 0.8343
758 1 0.583491 0.728068 0.676193
785 1 0.679807 0.846588 0.660628
783 1 0.592093 0.836938 0.749992
830 1 0.602157 0.745484 0.828313
833 1 0.674013 0.658894 0.832424
764 1 0.68106 0.753169 0.741908
861 1 0.848488 0.83896 0.825722
763 1 0.75986 0.678381 0.742821
789 1 0.838083 0.846833 0.678993
834 1 0.753505 0.760773 0.833679
765 1 0.842816 0.669047 0.660828
768 1 0.847997 0.753111 0.745665
838 1 0.922862 0.749134 0.828164
791 1 0.924723 0.840095 0.746555
845 1 0.165966 0.834182 0.846234
773 1 0.175835 0.827317 0.657122
772 1 0.0099066 0.923578 0.760348
710 1 0.579542 0.911622 0.50722
857 1 0.665281 0.832757 0.83731
776 1 0.150506 0.925116 0.750851
849 1 0.328444 0.831693 0.831353
780 1 0.322846 0.903886 0.758205
784 1 0.484719 0.908068 0.758865
850 1 0.405866 0.898849 0.83477
379 1 0.751825 0.992574 0.906945
655 1 0.260294 0.511022 0.588077
788 1 0.662353 0.914977 0.753558
221 1 0.177969 0.993538 0.51005
787 1 0.754539 0.839731 0.755798
786 1 0.766037 0.919675 0.656712
860 1 0.672215 0.919588 0.906554
852 1 0.341402 0.898311 0.928305
790 1 0.928343 0.939085 0.653988
769 1 0.0103895 0.843907 0.664745
792 1 0.858761 0.932213 0.739054
375 1 0.589612 0.99385 0.921338
817 1 0.990535 0.664963 0.824175
794 1 0.0719187 0.587318 0.816752
800 1 0.14458 0.586949 0.908577
854 1 0.589239 0.91157 0.829019
739 1 0.729681 0.501016 0.746655
227 1 0.437811 0.987064 0.598221
825 1 0.324212 0.66083 0.840339
798 1 0.243782 0.587256 0.825968
804 1 0.315123 0.59021 0.921959
823 1 0.234614 0.660682 0.912333
381 1 0.859976 0.991716 0.833111
848 1 0.169605 0.915008 0.922872
802 1 0.413425 0.579682 0.849919
856 1 0.485852 0.899227 0.912748
363 1 0.0816439 0.990485 0.922345
808 1 0.500357 0.592231 0.913707
486 1 0.25878 0.914145 1.00108
806 1 0.584932 0.585278 0.843658
855 1 0.585373 0.832892 0.908755
729 1 0.340006 0.504556 0.666684
812 1 0.667757 0.590317 0.914451
816 1 0.818255 0.588835 0.914545
305 1 0.670206 0.995748 0.673595
851 1 0.410047 0.818747 0.920818
796 1 0.998643 0.572762 0.896372
839 1 0.92137 0.654617 0.920627
847 1 0.237275 0.828725 0.927109
818 1 0.0861705 0.760129 0.838666
819 1 0.0722213 0.665994 0.90999
824 1 0.149522 0.748933 0.932456
828 1 0.337509 0.744364 0.926205
843 1 0.0859181 0.831178 0.922445
829 1 0.501431 0.668321 0.838695
826 1 0.408661 0.728327 0.83533
827 1 0.422993 0.672722 0.921216
842 1 0.0762019 0.920197 0.84406
835 1 0.750398 0.672957 0.914984
831 1 0.604477 0.675284 0.91426
832 1 0.507549 0.746596 0.910142
859 1 0.770798 0.842347 0.918149
846 1 0.256792 0.916046 0.835438
836 1 0.675165 0.759117 0.914629
840 1 0.839978 0.746678 0.916027
735 1 0.585549 0.508606 0.756255
365 1 0.16859 0.994287 0.839579
807 1 0.584419 0.499263 0.910708
803 1 0.425074 0.509836 0.924005
373 1 0.51405 0.985625 0.852371
233 1 0.654778 0.994907 0.505388
665 1 0.658893 0.501006 0.512528
462 1 0.238042 0.744725 1.00165
705 1 0.333067 0.835268 0.503282
694 1 0.922695 0.758612 0.502761
437 1 0.171995 0.511857 0.987448
469 1 0.514988 0.669858 0.993895
449 1 0.667647 0.500499 0.984679
498 1 0.757249 0.910159 0.99448
470 1 0.598421 0.74766 0.992766
9 1 0.331271 0.987586 0.986335
685 1 0.505098 0.674018 0.500966
446 1 0.582556 0.583423 0.995763
654 1 0.26329 0.581043 0.503277
493 1 0.513195 0.82575 0.990779
697 1 0.00399145 0.831082 0.512329
466 1 0.435592 0.756465 0.995333
690 1 0.7601 0.75111 0.506561
682 1 0.412795 0.753513 0.503964
701 1 0.18752 0.840177 0.504838
501 1 0.844063 0.832835 0.996917
