ITEM: TIMESTEP
20500
ITEM: NUMBER OF ATOMS
5324
ITEM: BOX BOUNDS pp pp pp
0.0000000000000000e+00 5.7859999999999999e+01
0.0000000000000000e+00 5.7859999999999999e+01
0.0000000000000000e+00 5.7859999999999999e+01
ITEM: ATOMS id type xs ys zs
47 1 0.0470489 0.0798207 0.0503397
8 1 0.102534 0.0407297 0.0488809
291 1 0.090247 0.0843983 0.0895278
244 1 0.0464333 0.0330012 0.0877057
287 1 0.996251 0.0851052 0.0810161
4 1 0.998662 0.0417414 0.0434287
3165 1 0.868236 0.490987 0.176136
51 1 0.134634 0.0924502 0.053858
248 1 0.138582 0.0433224 0.0885263
295 1 0.187073 0.0998829 0.0902477
12 1 0.178071 0.0488388 0.0442921
979 1 0.228119 0.000629725 0.410726
991 1 0.499173 0.00100037 0.4125
3636 1 0.183597 0.4998 0.405353
55 1 0.221541 0.0943379 0.0449471
252 1 0.223608 0.0430769 0.0936047
16 1 0.266791 0.0461277 0.0450702
299 1 0.265082 0.0927812 0.0839771
2912 1 0.278542 0.498773 0.133548
59 1 0.317831 0.0925089 0.0443502
256 1 0.31545 0.0413851 0.0976735
20 1 0.351771 0.046282 0.0503625
303 1 0.364814 0.0943008 0.0860094
201 1 0.543204 0.364238 0.00403444
277 1 0.769059 0.00605926 0.137648
3876 1 0.319087 0.495588 0.450813
1338 1 0.320119 0.0043261 0.498634
515 1 0.679085 0.00774527 0.228523
63 1 0.405772 0.0914827 0.0385498
260 1 0.411411 0.0547979 0.089291
24 1 0.455132 0.0326727 0.0514181
2913 1 0.409079 0.489231 0.0908218
307 1 0.45866 0.0921166 0.0851563
67 1 0.50337 0.0910136 0.0484561
264 1 0.498172 0.0399474 0.095037
28 1 0.543189 0.0455119 0.0445122
311 1 0.543886 0.0869082 0.0912652
3410 1 0.903323 0.496431 0.318069
1320 1 0.951788 0.41649 0.449671
74 1 0.682702 0.147521 0.0029041
3650 1 0.81833 0.495176 0.414504
1210 1 0.953018 0.460275 0.40773
71 1 0.587945 0.0915858 0.0443188
268 1 0.587327 0.0461223 0.0864494
189 1 0.273997 0.357656 0.0135462
1331 1 0.906491 0.460864 0.45874
3644 1 0.533555 0.496229 0.407776
2672 1 0.360585 0.494319 0.0493007
1414 1 0.765272 0.283169 0.498093
32 1 0.638147 0.0475735 0.037824
272 1 0.682241 0.0459641 0.0897235
75 1 0.687414 0.0891985 0.0412453
315 1 0.632489 0.0888881 0.0906501
983 1 0.308821 0.00507554 0.405491
517 1 0.725035 0.00897688 0.186168
271 1 0.633848 0.00618187 0.0934159
227 1 0.261809 0.451298 0.00187827
319 1 0.730602 0.0865328 0.0882181
36 1 0.738868 0.0436718 0.0461017
79 1 0.772169 0.10237 0.0430993
276 1 0.773041 0.0420192 0.0935538
40 1 0.811732 0.0478409 0.0453639
65 1 0.461831 0.0843532 0.00858957
505 1 0.452703 0.00304651 0.179558
323 1 0.80771 0.100471 0.0852597
280 1 0.850524 0.05481 0.0904504
83 1 0.855233 0.0997629 0.041048
3147 1 0.0389975 0.498772 0.18218
2677 1 0.686581 0.496997 0.00059121
44 1 0.906815 0.0490459 0.0438892
327 1 0.907559 0.0887864 0.0855214
284 1 0.952813 0.0461928 0.0891362
87 1 0.954033 0.0859028 0.0466896
1439 1 0.815808 0.40976 0.488051
1363 1 0.373263 0.14524 0.496707
491 1 0.135469 0.00404593 0.222431
91 1 0.0527311 0.179195 0.0354473
288 1 0.0507085 0.133893 0.0827394
52 1 0.0933054 0.128116 0.0464775
335 1 0.0900696 0.18347 0.0852191
48 1 0.00673108 0.129055 0.0332453
3873 1 0.0527434 0.499494 0.456815
3393 1 0.225828 0.493311 0.270383
95 1 0.138412 0.178967 0.0414621
292 1 0.141241 0.145669 0.0981093
56 1 0.177076 0.136501 0.0432165
339 1 0.18862 0.184159 0.0804934
99 1 0.231369 0.176406 0.0416903
296 1 0.227589 0.13915 0.083119
343 1 0.27012 0.176467 0.0879654
2674 1 0.451859 0.494372 0.0479028
60 1 0.271954 0.13022 0.0371062
103 1 0.313281 0.179546 0.0424757
300 1 0.311703 0.135801 0.0884635
22 1 0.490526 0.033235 0.00197854
347 1 0.361656 0.177063 0.0918746
64 1 0.366465 0.140628 0.0432597
107 1 0.416865 0.17969 0.0535281
304 1 0.411667 0.131704 0.0887818
68 1 0.453336 0.136164 0.0401204
351 1 0.460244 0.180213 0.0923409
111 1 0.496205 0.180828 0.0432123
308 1 0.502041 0.136139 0.085967
72 1 0.545081 0.140092 0.0462656
769 1 0.94464 0.0025762 0.31898
355 1 0.543512 0.184422 0.0866669
115 1 0.586517 0.184138 0.0427322
312 1 0.588168 0.137232 0.0870849
359 1 0.632455 0.18074 0.091742
76 1 0.639068 0.137368 0.0394499
119 1 0.67235 0.184375 0.0494215
316 1 0.681667 0.133608 0.081154
745 1 0.395434 0.00300234 0.324293
363 1 0.729802 0.183453 0.0922577
80 1 0.727997 0.144732 0.0462328
123 1 0.780056 0.186467 0.0362527
320 1 0.773685 0.146359 0.0882947
2665 1 0.131458 0.498668 0.00213306
84 1 0.818865 0.14165 0.0396708
367 1 0.826304 0.175131 0.0845914
127 1 0.866664 0.187022 0.039258
324 1 0.865595 0.133027 0.0849551
1005 1 0.81644 0.00928189 0.363
3879 1 0.585633 0.49272 0.448828
371 1 0.907849 0.173286 0.0912458
88 1 0.90923 0.132843 0.0425408
331 1 0.992815 0.172636 0.0867565
131 1 0.954844 0.176278 0.0430776
328 1 0.952302 0.127711 0.0890323
135 1 0.0567473 0.27351 0.0478741
332 1 0.0482427 0.227426 0.0855037
379 1 0.0929853 0.266038 0.0950409
96 1 0.0942078 0.224861 0.0395261
202 1 0.591974 0.412369 0.00363103
139 1 0.138464 0.267096 0.0495969
336 1 0.133838 0.221099 0.0850741
383 1 0.179463 0.260271 0.0949525
1408 1 0.494971 0.265587 0.495688
100 1 0.186055 0.221122 0.0379778
143 1 0.228425 0.271206 0.0515036
340 1 0.23052 0.22492 0.0944726
387 1 0.276969 0.267614 0.0986788
104 1 0.270749 0.225927 0.0390063
147 1 0.311073 0.266073 0.0485506
344 1 0.311241 0.22515 0.0859907
205 1 0.639674 0.364923 0.00134699
142 1 0.224707 0.312724 0.00141802
108 1 0.360921 0.215586 0.0439753
391 1 0.357476 0.271335 0.0839772
151 1 0.414452 0.275506 0.0444209
348 1 0.406391 0.225358 0.0859491
112 1 0.449649 0.226155 0.045315
395 1 0.456102 0.281061 0.0910352
155 1 0.490611 0.276546 0.0386494
352 1 0.497179 0.226896 0.0844926
995 1 0.600976 0.000183424 0.408172
116 1 0.538069 0.228615 0.043263
159 1 0.589947 0.264544 0.0434146
356 1 0.591155 0.225697 0.0910493
255 1 0.277092 0.00275534 0.090909
3631 1 0.0459675 0.498531 0.362715
3390 1 0.00941461 0.495688 0.308313
120 1 0.637771 0.230707 0.0345318
403 1 0.632972 0.272516 0.0999208
163 1 0.682198 0.272189 0.0429435
360 1 0.673346 0.233591 0.0886322
124 1 0.725431 0.217248 0.0482142
407 1 0.723707 0.279469 0.0942449
167 1 0.774975 0.258787 0.0401595
364 1 0.771197 0.225809 0.0933897
411 1 0.809302 0.267556 0.091416
1001 1 0.722281 0.00418111 0.35896
2678 1 0.639615 0.499344 0.0470955
128 1 0.827004 0.232072 0.0517758
171 1 0.862516 0.279699 0.0538432
368 1 0.87473 0.225047 0.0875023
415 1 0.917149 0.278368 0.0895198
3166 1 0.821383 0.499887 0.221919
132 1 0.91624 0.222451 0.0462799
92 1 0.0068932 0.222262 0.0414284
175 1 0.958913 0.270103 0.0371219
372 1 0.958076 0.223518 0.0877181
1213 1 0.0919833 0.000591576 0.453586
14 1 0.31399 0.0456275 0.000929483
179 1 0.0543704 0.357605 0.0545536
376 1 0.0501003 0.313825 0.0979228
140 1 0.0978372 0.320157 0.05171
423 1 0.0975309 0.358843 0.0963568
136 1 0.00890856 0.318671 0.0422407
971 1 0.0458462 0.00124989 0.40574
183 1 0.146096 0.364717 0.0540835
380 1 0.137363 0.311197 0.0967101
184 1 0.0945388 0.404842 0.0491909
969 1 0.997176 0.00689188 0.361445
729 1 0.0438042 0.000489412 0.318149
3400 1 0.451625 0.498757 0.316049
144 1 0.178313 0.311095 0.0529188
427 1 0.182299 0.362827 0.104571
187 1 0.219169 0.36151 0.0539453
384 1 0.228736 0.318156 0.0930022
431 1 0.274325 0.364015 0.0851896
148 1 0.271355 0.314659 0.0534691
191 1 0.322611 0.362313 0.0498357
388 1 0.318914 0.313534 0.0844737
152 1 0.364276 0.320572 0.0464284
435 1 0.364179 0.35823 0.0971768
195 1 0.401595 0.369367 0.049786
156 1 0.451807 0.324804 0.0457188
392 1 0.407801 0.315754 0.0968679
439 1 0.453821 0.354224 0.0930195
281 1 0.857003 0.00219294 0.132788
233 1 0.54202 0.453552 0.00310123
199 1 0.497549 0.355501 0.0448781
396 1 0.505048 0.325226 0.0954534
160 1 0.54438 0.312159 0.0409292
443 1 0.545194 0.366261 0.0885235
285 1 0.952653 0.00810482 0.128804
203 1 0.585077 0.362306 0.0484459
400 1 0.573452 0.316979 0.0947669
164 1 0.63033 0.320932 0.04577
447 1 0.638253 0.366882 0.084373
759 1 0.725577 0.000325793 0.266027
2667 1 0.225426 0.498133 0.00330729
207 1 0.683404 0.356317 0.0427494
404 1 0.668767 0.317565 0.0882023
448 1 0.685508 0.410218 0.0849821
3633 1 0.137286 0.498017 0.367469
168 1 0.732175 0.319857 0.0503576
211 1 0.776034 0.365225 0.0486958
408 1 0.769853 0.316786 0.0899499
451 1 0.726662 0.364105 0.0995641
172 1 0.811114 0.320388 0.0481061
455 1 0.822163 0.364921 0.0883018
215 1 0.862279 0.358415 0.0416854
412 1 0.880954 0.326012 0.0917977
459 1 0.925775 0.360109 0.0904446
176 1 0.915665 0.325735 0.0406486
283 1 0.901438 0.000718894 0.0829378
219 1 0.959908 0.36309 0.04071
180 1 0.00479557 0.401239 0.0437167
2668 1 0.180109 0.496627 0.0387424
261 1 0.410068 0.00398229 0.136099
31 1 0.675542 0.000661466 0.0436958
3395 1 0.320156 0.488837 0.265735
222 1 0.0400251 0.44531 0.0478525
420 1 0.0444457 0.404034 0.093749
1365 1 0.459166 0.138784 0.499608
2670 1 0.274946 0.499957 0.0350468
188 1 0.180902 0.411413 0.0501381
465 1 0.0879882 0.455632 0.0909641
224 1 0.133786 0.45198 0.0476077
424 1 0.13807 0.406762 0.0976566
467 1 0.184025 0.459704 0.0952378
3155 1 0.409975 0.495301 0.185278
761 1 0.776823 0.0102427 0.323168
226 1 0.228629 0.458781 0.0530464
428 1 0.225714 0.412017 0.0908621
469 1 0.27365 0.453036 0.0905804
739 1 0.26345 0.000774881 0.271855
3158 1 0.45822 0.496574 0.225787
192 1 0.281161 0.407922 0.0454002
432 1 0.323203 0.408284 0.0859498
228 1 0.3136 0.45686 0.0470988
1318 1 0.86709 0.415047 0.447702
727 1 0.991153 0.00142869 0.269651
1208 1 0.866438 0.458068 0.4079
196 1 0.358851 0.416209 0.0452984
471 1 0.363486 0.453021 0.0925449
436 1 0.414286 0.40799 0.0936923
230 1 0.410976 0.454376 0.0486516
3389 1 0.0571567 0.493448 0.273343
204 1 0.546491 0.408089 0.0453597
473 1 0.457085 0.441402 0.0901253
200 1 0.452032 0.397715 0.0479731
232 1 0.500918 0.455253 0.0446699
440 1 0.495483 0.388687 0.103192
1330 1 0.813494 0.452575 0.452454
747 1 0.454087 0.00090418 0.276054
475 1 0.546831 0.452525 0.0833491
234 1 0.594412 0.453728 0.0397094
208 1 0.637875 0.416659 0.0481003
235 1 0.642229 0.456703 0.00235784
2905 1 0.0507587 0.499047 0.0939995
236 1 0.683983 0.456617 0.0458043
212 1 0.730607 0.41045 0.0421415
479 1 0.73386 0.461079 0.0851824
3875 1 0.227295 0.492621 0.460406
185 1 0.181809 0.360759 0.00904441
269 1 0.596425 0.00520976 0.136199
3167 1 0.955323 0.498395 0.18125
39 1 0.860277 0.00461089 0.0452994
452 1 0.774018 0.40759 0.0915828
238 1 0.778063 0.455644 0.0403533
481 1 0.82295 0.446077 0.0931917
216 1 0.825179 0.407716 0.0395846
251 1 0.184901 0.00163768 0.08866
2921 1 0.785415 0.492081 0.0981436
1188 1 0.910024 0.404672 0.411909
240 1 0.867204 0.454371 0.0482313
456 1 0.880125 0.40502 0.0936956
483 1 0.917706 0.454874 0.0884475
220 1 0.918141 0.40076 0.0477488
3642 1 0.449967 0.49731 0.416178
463 1 0.000672499 0.455738 0.0883411
242 1 0.953124 0.447651 0.0480343
460 1 0.962615 0.408677 0.0982207
3637 1 0.3265 0.498118 0.36486
499 1 0.319929 0.00618101 0.224567
289 1 0.0435783 0.0946388 0.132567
486 1 0.0351309 0.0492596 0.172652
250 1 0.0910922 0.0504371 0.135992
533 1 0.0902031 0.091901 0.178191
1231 1 0.91362 0.00141424 0.459084
490 1 0.134428 0.0452294 0.176624
293 1 0.134177 0.0896446 0.135262
254 1 0.182544 0.0363757 0.138993
537 1 0.168983 0.0965752 0.184859
494 1 0.226057 0.0428803 0.182617
297 1 0.216592 0.0890219 0.141802
541 1 0.276011 0.0895678 0.180163
258 1 0.265003 0.0562308 0.133859
525 1 0.904775 0.000246056 0.174648
498 1 0.310575 0.042176 0.171928
301 1 0.318712 0.0975878 0.132879
262 1 0.361275 0.0490459 0.131575
18 1 0.406974 0.0461611 0.00499754
545 1 0.359113 0.0848296 0.179304
305 1 0.409836 0.0914872 0.137212
502 1 0.408336 0.0495892 0.179134
3157 1 0.500797 0.498379 0.183254
1009 1 0.910731 0.00909584 0.371762
1180 1 0.72502 0.419152 0.408926
549 1 0.455021 0.0953212 0.179836
266 1 0.452839 0.0430173 0.135375
506 1 0.495392 0.0457974 0.180398
309 1 0.495086 0.0857789 0.135223
553 1 0.548534 0.0948946 0.178824
169 1 0.824876 0.272747 0.00548674
487 1 0.0367313 0.000216168 0.223288
270 1 0.537683 0.044047 0.135517
313 1 0.583667 0.0954205 0.131774
510 1 0.579757 0.0471266 0.185138
274 1 0.62509 0.0547722 0.139378
557 1 0.631347 0.0999108 0.176701
317 1 0.681021 0.089556 0.131127
514 1 0.680241 0.0507591 0.181138
561 1 0.728411 0.0887648 0.179753
278 1 0.725172 0.048006 0.133335
518 1 0.770781 0.0492183 0.190596
321 1 0.77174 0.0952448 0.137454
1316 1 0.768828 0.408283 0.453271
565 1 0.813111 0.0954549 0.180174
282 1 0.810517 0.0549106 0.132894
325 1 0.86216 0.0945463 0.134175
522 1 0.85565 0.0495457 0.184149
286 1 0.901947 0.0455101 0.124201
569 1 0.899494 0.0879683 0.179579
246 1 0.999887 0.0415542 0.122764
529 1 0.99279 0.0859546 0.184035
526 1 0.942081 0.0443458 0.174652
329 1 0.955556 0.0831804 0.133225
1206 1 0.769088 0.463486 0.406371
333 1 0.0402369 0.181046 0.127017
530 1 0.037315 0.13555 0.173268
573 1 0.999294 0.180424 0.174801
577 1 0.0885889 0.185058 0.177772
294 1 0.0948128 0.141078 0.134619
290 1 0.000749608 0.134525 0.125006
337 1 0.138067 0.183831 0.14456
534 1 0.131248 0.137554 0.192882
581 1 0.186215 0.191145 0.188555
298 1 0.174963 0.142495 0.146109
341 1 0.230693 0.177036 0.137666
538 1 0.224638 0.133856 0.184512
585 1 0.274297 0.178254 0.181087
302 1 0.266487 0.128487 0.131944
345 1 0.314116 0.17665 0.128942
542 1 0.32249 0.138322 0.175418
589 1 0.370373 0.185915 0.171063
306 1 0.368662 0.132983 0.131476
349 1 0.416864 0.175574 0.13144
546 1 0.405513 0.133218 0.184168
310 1 0.458794 0.134497 0.133061
593 1 0.452968 0.179173 0.172604
353 1 0.503043 0.181466 0.136603
550 1 0.496347 0.140225 0.184989
597 1 0.541892 0.179417 0.176944
314 1 0.542553 0.141164 0.126389
357 1 0.584442 0.183672 0.127518
554 1 0.590484 0.136826 0.174083
318 1 0.640318 0.139051 0.133164
601 1 0.634004 0.18077 0.181135
361 1 0.674376 0.19284 0.13031
558 1 0.689466 0.134603 0.173167
322 1 0.723749 0.130173 0.124731
605 1 0.723831 0.181639 0.181437
365 1 0.769797 0.183607 0.135184
562 1 0.768756 0.139849 0.179194
326 1 0.816378 0.141656 0.129897
609 1 0.825021 0.183688 0.179924
369 1 0.86044 0.17712 0.134999
566 1 0.859465 0.134746 0.182182
330 1 0.909855 0.127751 0.133006
613 1 0.905587 0.182079 0.174882
373 1 0.956187 0.178679 0.13535
570 1 0.960859 0.137147 0.175374
375 1 0.00545801 0.267964 0.0825702
377 1 0.0412242 0.261515 0.129823
574 1 0.0402622 0.223787 0.171985
338 1 0.0873579 0.219983 0.131192
621 1 0.0872876 0.270317 0.181368
381 1 0.140368 0.265424 0.137073
578 1 0.127871 0.230729 0.183722
625 1 0.180684 0.264531 0.184595
342 1 0.187256 0.214701 0.13631
385 1 0.224342 0.272713 0.138837
582 1 0.232856 0.224449 0.17782
629 1 0.269605 0.27576 0.181011
346 1 0.282192 0.223448 0.140357
389 1 0.318838 0.279896 0.133987
586 1 0.322047 0.22558 0.188616
633 1 0.375459 0.27151 0.194639
350 1 0.358119 0.229037 0.1301
393 1 0.41777 0.263787 0.129719
590 1 0.41015 0.22431 0.174331
637 1 0.448142 0.263964 0.18674
354 1 0.458013 0.223614 0.133048
399 1 0.53894 0.271994 0.0879664
397 1 0.489329 0.268257 0.141367
594 1 0.497231 0.222721 0.179159
358 1 0.537416 0.229012 0.135377
641 1 0.540406 0.26841 0.18716
401 1 0.585502 0.274089 0.143376
598 1 0.585336 0.223418 0.175556
362 1 0.625411 0.225562 0.137793
645 1 0.637347 0.26997 0.180002
405 1 0.677155 0.278527 0.136048
602 1 0.681269 0.225386 0.176747
649 1 0.722523 0.275427 0.182487
366 1 0.722953 0.232304 0.134218
409 1 0.768258 0.271977 0.144124
606 1 0.769576 0.226165 0.178228
653 1 0.818042 0.261611 0.178566
370 1 0.825546 0.229531 0.127357
413 1 0.865029 0.273111 0.120724
610 1 0.867946 0.229885 0.176177
374 1 0.90933 0.23872 0.136143
617 1 0.99712 0.27331 0.18337
657 1 0.918363 0.271997 0.183956
334 1 0.999637 0.227657 0.125642
417 1 0.957488 0.277579 0.139588
614 1 0.95838 0.223457 0.180309
421 1 0.0505826 0.364834 0.137933
618 1 0.0466371 0.321405 0.180229
382 1 0.0918849 0.315785 0.13863
665 1 0.0888849 0.364407 0.186213
425 1 0.136082 0.360029 0.138965
622 1 0.137116 0.308186 0.184279
386 1 0.180082 0.316935 0.138529
666 1 0.130532 0.413694 0.18616
669 1 0.180019 0.36144 0.18228
429 1 0.227006 0.364577 0.144075
626 1 0.221037 0.314348 0.17859
673 1 0.270228 0.356768 0.185127
390 1 0.270464 0.319038 0.13569
433 1 0.313683 0.358939 0.136716
630 1 0.321676 0.31461 0.180674
394 1 0.373828 0.310715 0.148038
677 1 0.363816 0.361763 0.17857
437 1 0.412809 0.360862 0.140967
634 1 0.416856 0.321155 0.201769
398 1 0.449431 0.315738 0.147362
681 1 0.452434 0.36735 0.19002
441 1 0.496242 0.355614 0.148185
638 1 0.493304 0.314677 0.186653
402 1 0.540751 0.317281 0.145774
685 1 0.542569 0.366959 0.178625
445 1 0.586838 0.36844 0.137132
642 1 0.582651 0.319725 0.183704
689 1 0.629341 0.363669 0.187477
406 1 0.629667 0.315128 0.137455
449 1 0.677871 0.363544 0.138796
646 1 0.677665 0.314315 0.182545
410 1 0.725026 0.317388 0.139322
693 1 0.733084 0.36323 0.182274
453 1 0.771971 0.362164 0.137682
650 1 0.785819 0.314005 0.181809
697 1 0.819906 0.361241 0.189663
414 1 0.826258 0.31517 0.132528
457 1 0.869459 0.357532 0.144472
654 1 0.859561 0.318141 0.18624
701 1 0.918104 0.362716 0.185568
416 1 0.96329 0.312146 0.0801262
661 1 0.998916 0.365934 0.177993
419 1 0.99616 0.357532 0.0952434
378 1 0.00469546 0.312737 0.131055
418 1 0.913158 0.316436 0.143516
461 1 0.959349 0.353591 0.139243
658 1 0.955659 0.315542 0.185367
3632 1 0.996764 0.498737 0.401272
162 1 0.684565 0.314573 0.000445452
464 1 0.0426231 0.451803 0.134985
662 1 0.0437804 0.417305 0.190002
1184 1 0.811688 0.414751 0.404716
426 1 0.0958814 0.409169 0.140629
707 1 0.0839008 0.46484 0.189206
466 1 0.130803 0.461108 0.14153
430 1 0.177677 0.409337 0.147747
709 1 0.17995 0.458899 0.177039
468 1 0.229459 0.462577 0.136693
670 1 0.226653 0.41582 0.179444
434 1 0.27423 0.408501 0.130077
3168 1 0.903853 0.499184 0.226932
711 1 0.271757 0.459454 0.178746
674 1 0.316385 0.405421 0.179702
470 1 0.318962 0.450563 0.131222
438 1 0.352907 0.405175 0.135112
713 1 0.362797 0.450504 0.178501
2916 1 0.450416 0.484041 0.138544
678 1 0.411947 0.407939 0.18731
472 1 0.409188 0.451131 0.1435
442 1 0.454409 0.407904 0.143893
1176 1 0.634936 0.415623 0.406756
715 1 0.45311 0.452338 0.186107
682 1 0.497547 0.413383 0.184193
474 1 0.504019 0.445613 0.125658
446 1 0.548969 0.408406 0.133289
717 1 0.539655 0.457716 0.176123
444 1 0.593305 0.410539 0.0846842
477 1 0.644091 0.455599 0.0898281
686 1 0.590315 0.411574 0.180094
476 1 0.600368 0.460444 0.133061
719 1 0.643953 0.464148 0.17908
1314 1 0.6818 0.416525 0.453752
450 1 0.63609 0.410952 0.13888
478 1 0.68856 0.447435 0.132721
690 1 0.682459 0.410342 0.179175
1204 1 0.678558 0.458255 0.405891
721 1 0.732681 0.457859 0.174863
454 1 0.728595 0.408107 0.138594
480 1 0.770227 0.446508 0.133885
694 1 0.765476 0.406589 0.182686
723 1 0.812608 0.447144 0.176859
458 1 0.82175 0.39944 0.140174
482 1 0.871243 0.446915 0.128988
698 1 0.866035 0.415633 0.176075
462 1 0.917129 0.398198 0.138682
422 1 0.00600992 0.407282 0.14001
705 1 0.999297 0.458393 0.183509
702 1 0.961008 0.409038 0.191658
725 1 0.912169 0.453812 0.196093
484 1 0.95235 0.454585 0.135865
1436 1 0.769519 0.363862 0.494846
531 1 0.0400697 0.0870254 0.219016
728 1 0.0384175 0.0447238 0.264552
775 1 0.0795948 0.0929173 0.269238
488 1 0.99275 0.0470473 0.226691
492 1 0.0874989 0.0444525 0.218426
535 1 0.122817 0.0949753 0.227392
732 1 0.132601 0.0463011 0.260696
496 1 0.17421 0.0496435 0.218876
779 1 0.174757 0.0916116 0.270262
736 1 0.219818 0.0426264 0.26493
539 1 0.220976 0.0900256 0.222818
500 1 0.26905 0.0367465 0.225223
2925 1 0.958459 0.496022 0.0910071
1329 1 0.729831 0.455566 0.456888
783 1 0.265943 0.0820569 0.270116
740 1 0.314873 0.0468437 0.284231
543 1 0.319662 0.0868579 0.226962
504 1 0.364095 0.0485857 0.223128
253 1 0.232362 0.00307442 0.144737
744 1 0.413288 0.0555573 0.276481
791 1 0.459392 0.089455 0.280593
508 1 0.452189 0.0433103 0.234328
547 1 0.406463 0.0854116 0.223446
1219 1 0.358223 0.00297523 0.455325
1328 1 0.639229 0.456828 0.457203
551 1 0.495482 0.0965669 0.230928
748 1 0.500976 0.0445876 0.2765
512 1 0.532826 0.0541596 0.22585
149 1 0.360351 0.271166 0.00761924
1327 1 0.5376 0.452278 0.452467
795 1 0.547043 0.0874469 0.27509
752 1 0.583604 0.0436528 0.268435
555 1 0.590554 0.098493 0.231581
516 1 0.63941 0.0514937 0.237143
799 1 0.63458 0.0968927 0.274794
559 1 0.672475 0.0959509 0.223179
756 1 0.681916 0.0501505 0.276799
803 1 0.719966 0.108402 0.276265
520 1 0.721242 0.0550154 0.231953
1312 1 0.592925 0.409327 0.452488
760 1 0.7671 0.0461449 0.272145
563 1 0.766886 0.0960061 0.241169
524 1 0.81171 0.0496078 0.227129
807 1 0.817266 0.0901944 0.269683
764 1 0.857714 0.0424686 0.267754
567 1 0.858621 0.0914835 0.227421
528 1 0.9046 0.0486204 0.228498
811 1 0.90629 0.0932545 0.274507
771 1 0.991235 0.0883579 0.269381
768 1 0.94785 0.0471031 0.264742
571 1 0.950848 0.0889591 0.22169
575 1 0.0441364 0.186408 0.225987
772 1 0.0337929 0.132931 0.274653
819 1 0.0875179 0.178944 0.266841
536 1 0.0826567 0.138105 0.221749
532 1 0.98942 0.134941 0.223183
815 1 0.998383 0.180102 0.274873
579 1 0.142511 0.195483 0.229055
776 1 0.123614 0.134003 0.275381
823 1 0.177587 0.179816 0.276691
540 1 0.185906 0.142448 0.229073
583 1 0.23086 0.182108 0.225953
780 1 0.231192 0.132234 0.270047
544 1 0.26786 0.126933 0.226612
827 1 0.271334 0.174439 0.271336
787 1 0.363259 0.084291 0.275454
587 1 0.319365 0.177339 0.220251
784 1 0.312968 0.130509 0.266082
548 1 0.360182 0.133727 0.222171
831 1 0.363914 0.175525 0.268301
591 1 0.408718 0.181073 0.218988
788 1 0.411388 0.12172 0.276893
552 1 0.449451 0.135481 0.228788
835 1 0.454015 0.175297 0.272711
595 1 0.498012 0.178827 0.232418
792 1 0.494759 0.141312 0.27732
839 1 0.548696 0.177689 0.274026
556 1 0.540822 0.141976 0.225151
599 1 0.585022 0.178743 0.217131
796 1 0.583062 0.128917 0.277487
560 1 0.635862 0.139949 0.224203
843 1 0.62588 0.176548 0.270858
603 1 0.679891 0.183071 0.218385
800 1 0.671806 0.146351 0.270291
847 1 0.721998 0.180374 0.26864
564 1 0.727732 0.136219 0.226378
607 1 0.770867 0.189526 0.229456
804 1 0.768642 0.143232 0.272766
851 1 0.810315 0.185726 0.276237
568 1 0.814424 0.143873 0.227231
611 1 0.864001 0.1844 0.222419
808 1 0.861497 0.135943 0.267092
855 1 0.903028 0.179534 0.271768
572 1 0.905401 0.133924 0.219878
615 1 0.950612 0.188687 0.229918
812 1 0.954593 0.139135 0.270826
619 1 0.0417926 0.270474 0.2327
816 1 0.0440394 0.226868 0.280555
576 1 0.999004 0.222136 0.219272
863 1 0.0806293 0.274467 0.27708
580 1 0.0889884 0.229558 0.230032
623 1 0.140933 0.27546 0.232288
820 1 0.132399 0.234442 0.27515
867 1 0.182224 0.268248 0.274752
584 1 0.194129 0.233399 0.229001
627 1 0.227791 0.285729 0.242189
824 1 0.225465 0.222181 0.275666
871 1 0.280309 0.279346 0.280874
588 1 0.264915 0.23317 0.224023
631 1 0.310805 0.274623 0.22983
828 1 0.311516 0.227591 0.262201
592 1 0.364153 0.220648 0.235786
875 1 0.36333 0.276846 0.278217
635 1 0.419795 0.26698 0.244369
832 1 0.406992 0.213019 0.278541
879 1 0.465937 0.267172 0.280795
596 1 0.45651 0.217414 0.225543
639 1 0.502006 0.263878 0.228252
836 1 0.507541 0.219914 0.281603
883 1 0.546756 0.273872 0.266582
600 1 0.5437 0.215279 0.225651
643 1 0.585583 0.266363 0.225628
840 1 0.592017 0.22488 0.273857
887 1 0.62947 0.27016 0.276421
604 1 0.631653 0.227129 0.22757
647 1 0.681054 0.266533 0.234044
844 1 0.676491 0.221492 0.268422
608 1 0.725602 0.225525 0.227849
891 1 0.728334 0.272205 0.267671
651 1 0.774936 0.265479 0.228619
848 1 0.767046 0.225314 0.275821
612 1 0.821919 0.22346 0.230964
895 1 0.822969 0.270455 0.272452
655 1 0.86825 0.269455 0.224098
852 1 0.865615 0.225891 0.276031
616 1 0.905035 0.225045 0.232699
859 1 1.84838e-05 0.266677 0.270298
899 1 0.911762 0.270428 0.271516
659 1 0.957555 0.270234 0.223941
856 1 0.95029 0.225611 0.276547
663 1 0.0476227 0.366553 0.231877
860 1 0.0416386 0.324135 0.27972
907 1 0.0935364 0.370417 0.277172
624 1 0.0846011 0.316304 0.236696
667 1 0.129265 0.366066 0.231278
864 1 0.131571 0.316117 0.277672
628 1 0.17707 0.322148 0.229888
668 1 0.0902567 0.412589 0.227646
911 1 0.18132 0.366725 0.271382
671 1 0.227005 0.365365 0.230104
868 1 0.23028 0.324682 0.286278
632 1 0.276863 0.317758 0.230562
915 1 0.274048 0.365547 0.278742
675 1 0.316065 0.363297 0.228737
872 1 0.318007 0.325004 0.277504
636 1 0.35864 0.323919 0.226398
919 1 0.361199 0.364999 0.272448
679 1 0.403609 0.368485 0.236996
876 1 0.408307 0.322974 0.275544
640 1 0.461112 0.31172 0.241166
923 1 0.460286 0.367378 0.275851
683 1 0.497298 0.362097 0.229472
880 1 0.508111 0.319561 0.275164
927 1 0.549426 0.365469 0.269031
688 1 0.543876 0.410918 0.225703
644 1 0.537863 0.320522 0.223837
687 1 0.584854 0.356167 0.227984
884 1 0.585752 0.31495 0.268872
648 1 0.64683 0.308581 0.234997
692 1 0.63922 0.410116 0.216999
931 1 0.639128 0.366222 0.269342
691 1 0.693504 0.354021 0.223463
888 1 0.684541 0.315352 0.273442
652 1 0.741797 0.315219 0.224407
935 1 0.727616 0.370206 0.266789
695 1 0.775336 0.365626 0.228932
892 1 0.773008 0.31899 0.270764
939 1 0.815539 0.363967 0.272746
656 1 0.821773 0.309289 0.227221
696 1 0.72754 0.419253 0.22576
699 1 0.865431 0.354014 0.230988
896 1 0.865735 0.311653 0.27084
943 1 0.91422 0.354708 0.277182
903 1 0.00381505 0.366593 0.276945
620 1 0.00468506 0.318394 0.235075
660 1 0.907124 0.312075 0.228574
703 1 0.964798 0.360504 0.228671
900 1 0.956951 0.312378 0.26859
904 1 0.0467316 0.407532 0.279973
706 1 0.0506507 0.45051 0.236676
275 1 0.725325 0.00389547 0.0833216
908 1 0.141816 0.412015 0.268062
949 1 0.100635 0.454723 0.275574
708 1 0.150595 0.458278 0.224172
951 1 0.177448 0.45962 0.278912
1202 1 0.5984 0.454413 0.405817
973 1 0.0909831 0.00320172 0.365869
3877 1 0.400075 0.491846 0.456431
1354 1 0.0519748 0.0886038 0.499742
672 1 0.183529 0.408272 0.232368
710 1 0.223663 0.452815 0.223397
912 1 0.22887 0.407213 0.278269
953 1 0.268003 0.450347 0.276966
676 1 0.277277 0.404012 0.234132
916 1 0.314584 0.409758 0.275378
712 1 0.311596 0.447894 0.221062
955 1 0.365327 0.451226 0.276195
1217 1 0.265323 0.00575435 0.452349
1007 1 0.861545 0.00277452 0.406386
1396 1 0.952892 0.172091 0.497233
3161 1 0.689165 0.497432 0.174744
680 1 0.367074 0.409092 0.219984
920 1 0.405586 0.406176 0.278284
714 1 0.415072 0.453187 0.232903
957 1 0.452516 0.454211 0.276018
684 1 0.46153 0.414991 0.228212
924 1 0.499235 0.413677 0.274692
716 1 0.502744 0.45411 0.234253
959 1 0.544519 0.456504 0.273333
718 1 0.593233 0.4601 0.216412
928 1 0.594534 0.405623 0.271519
961 1 0.649929 0.454641 0.266402
932 1 0.681486 0.405172 0.265838
720 1 0.682402 0.459291 0.21898
963 1 0.728608 0.461833 0.270928
936 1 0.773047 0.41539 0.26337
722 1 0.777309 0.458423 0.22738
700 1 0.81981 0.406161 0.233289
1326 1 0.446788 0.452919 0.457183
965 1 0.820501 0.460575 0.276258
940 1 0.858583 0.409048 0.275562
724 1 0.857523 0.450656 0.232316
704 1 0.91004 0.406489 0.22504
967 1 0.911812 0.45087 0.282009
527 1 0.943009 0.000151233 0.219924
664 1 0.00475023 0.412566 0.232921
947 1 0.00177308 0.44803 0.274878
726 1 0.952564 0.456795 0.234456
944 1 0.952178 0.400482 0.271433
2918 1 0.547844 0.499109 0.131496
1172 1 0.548242 0.409333 0.410412
773 1 0.037035 0.0894212 0.310754
970 1 0.0468648 0.0456481 0.36417
734 1 0.0834305 0.0476098 0.317854
730 1 0.00108813 0.041321 0.31304
1017 1 0.0937661 0.0884035 0.360228
3639 1 0.413999 0.495958 0.370987
974 1 0.137442 0.0393135 0.368021
1021 1 0.175216 0.0980615 0.370405
777 1 0.127483 0.0858845 0.31352
738 1 0.166298 0.0442726 0.319409
781 1 0.221295 0.0834388 0.311202
978 1 0.226031 0.0447787 0.356314
742 1 0.27073 0.0430933 0.319421
1376 1 0.0403096 0.179036 0.495918
1310 1 0.492965 0.404424 0.45334
982 1 0.322966 0.0431834 0.363515
984 1 0.2658 0.0483612 0.406005
503 1 0.404305 0.010193 0.228988
1200 1 0.498795 0.454496 0.410595
746 1 0.357938 0.0488307 0.320755
986 1 0.40834 0.0445718 0.365738
789 1 0.401793 0.089597 0.327219
1033 1 0.456052 0.0903112 0.366457
1400 1 0.141353 0.273028 0.498489
750 1 0.455907 0.0455303 0.327548
793 1 0.500572 0.0830946 0.323951
990 1 0.499021 0.0445681 0.367135
102 1 0.321022 0.224686 0.00144281
1367 1 0.539875 0.134955 0.499599
754 1 0.54626 0.0419995 0.319758
1037 1 0.545382 0.0885451 0.367949
994 1 0.597058 0.0409947 0.362458
797 1 0.599282 0.0808177 0.319442
1041 1 0.636084 0.0956454 0.368843
2666 1 0.0861629 0.494814 0.0489489
758 1 0.640827 0.0412485 0.318197
801 1 0.675562 0.096877 0.318198
998 1 0.682981 0.0457149 0.365717
1045 1 0.72735 0.0933381 0.36953
1198 1 0.40478 0.452464 0.407406
762 1 0.727311 0.0501036 0.323233
1002 1 0.77494 0.0558202 0.362308
805 1 0.773407 0.0973599 0.314627
766 1 0.824407 0.0416628 0.314162
1308 1 0.410511 0.4098 0.45627
809 1 0.862207 0.0915399 0.310928
1006 1 0.866038 0.0520305 0.366765
770 1 0.905692 0.0479971 0.315734
1049 1 0.827188 0.09534 0.36215
1013 1 0.99992 0.089462 0.361852
1053 1 0.907294 0.0936391 0.360972
1010 1 0.953946 0.0447739 0.365638
813 1 0.951595 0.0902831 0.317941
817 1 0.0392321 0.177686 0.315088
1014 1 0.0458292 0.13457 0.364173
1061 1 0.0921762 0.186267 0.359884
778 1 0.0860168 0.133148 0.318721
821 1 0.130195 0.179612 0.317584
1018 1 0.131595 0.143179 0.363907
1065 1 0.17472 0.185458 0.360571
782 1 0.170063 0.130019 0.321363
1025 1 0.261251 0.0919694 0.361047
825 1 0.220077 0.179713 0.319695
1022 1 0.223083 0.139338 0.368123
786 1 0.270871 0.132848 0.315176
1069 1 0.272936 0.171413 0.362387
785 1 0.315021 0.0901686 0.324591
1029 1 0.364865 0.0991742 0.369585
829 1 0.308994 0.180468 0.31655
1026 1 0.311675 0.130652 0.369516
790 1 0.356574 0.129872 0.31774
1073 1 0.353052 0.177775 0.360607
833 1 0.408168 0.168997 0.317907
1030 1 0.412143 0.137554 0.371023
794 1 0.459909 0.134605 0.322732
1077 1 0.458141 0.177751 0.360047
837 1 0.504368 0.182716 0.323403
1034 1 0.499682 0.131807 0.363748
798 1 0.544539 0.141772 0.3256
1081 1 0.545483 0.184807 0.368463
841 1 0.587074 0.181358 0.317709
1038 1 0.589459 0.129744 0.358244
802 1 0.629643 0.135486 0.320438
1085 1 0.632293 0.177309 0.364586
1044 1 0.637298 0.140733 0.415136
845 1 0.679748 0.170586 0.324565
1042 1 0.682704 0.13035 0.363442
806 1 0.725379 0.140416 0.320517
1089 1 0.721222 0.184107 0.362284
849 1 0.767271 0.186932 0.320138
1046 1 0.771976 0.14022 0.366712
1093 1 0.81688 0.183947 0.363961
810 1 0.816376 0.136673 0.313305
853 1 0.862544 0.18027 0.317418