ITEM: TIMESTEP
3500
ITEM: NUMBER OF ATOMS
864
ITEM: BOX BOUNDS pp pp pp
-4.1395025633850704e+00 3.5699502563371041e+01
-4.1395025633850704e+00 3.5699502563371041e+01
-4.1395025633850704e+00 3.5699502563371041e+01
ITEM: ATOMS id type xs ys zs
376 1 0.115067 0.0877658 0.446762
587 1 0.850066 0.289022 0.241558
218 1 0.166131 0.348988 0.0646551
11 1 0.957112 0.121342 0.11236
726 1 0.86241 0.438376 0.384533
330 1 0.499213 0.047506 0.252507
745 1 0.421573 0.345495 0.262078
670 1 0.35674 0.293184 0.405596
767 1 0.886282 0.489246 0.0946882
582 1 0.566589 0.222429 0.225041
457 1 0.793583 0.219656 0.320834
700 1 0.79619 0.381499 0.464829
831 1 0.936272 0.456374 0.163853
427 1 0.89352 0.341893 0.445607
71 1 0.0583491 0.443765 0.207442
131 1 0.957477 0.444038 0.0469664
761 1 0.789383 0.355273 0.244083
751 1 0.42723 0.391856 0.478926
784 1 0.179174 0.250938 0.0733514
465 1 0.633091 0.0363397 0.135917
676 1 0.75795 0.478904 0.425189
336 1 0.160587 0.425825 0.199806
486 1 0.301271 0.0702982 0.215727
509 1 0.198807 0.427026 0.295717
817 1 0.324641 0.496268 0.32639
540 1 0.109863 0.0822087 0.238935
377 1 0.377205 0.115754 0.301994
233 1 0.95183 0.211427 0.0753089
108 1 0.687667 0.429645 0.245638
472 1 0.870949 0.190556 0.409179
765 1 0.104476 0.411731 0.27773
468 1 0.236913 0.152285 0.398285
845 1 0.057763 0.0140158 0.163432
245 1 0.770384 0.12886 0.441045
744 1 0.6924 0.329519 0.246219
821 1 0.177974 0.241279 0.400097
418 1 0.510118 0.379545 0.344933
429 1 0.826176 0.152589 0.0562189
505 1 0.81263 0.0207552 0.11398
212 1 0.495744 0.452471 0.470944
491 1 0.561871 0.242691 0.477023
282 1 0.978062 0.0340661 0.0192188
227 1 0.29315 0.232442 0.411541
773 1 0.270225 0.465166 0.410951
110 1 0.60318 0.488804 0.386014
493 1 0.582778 0.428921 0.152149
426 1 0.866101 0.194466 0.157439
297 1 0.0130546 0.269042 0.268018
93 1 0.0345924 0.32484 0.204366
187 1 0.75667 0.0992449 0.0349665
246 1 0.75341 0.309033 0.446276
98 1 0.0999309 0.409158 0.362694
157 1 0.584879 0.0694064 0.0449082
321 1 0.64918 0.136407 0.00377402
600 1 0.343469 0.136449 0.372103
560 1 0.610863 0.0340833 0.364166
834 1 0.222895 0.268636 0.267605
789 1 0.311112 0.168437 0.472618
716 1 0.686031 0.481462 0.349679
195 1 0.42703 0.338376 0.160203
189 1 0.471794 0.291135 0.098873
601 1 0.448325 0.153017 0.31074
347 1 0.436404 0.135547 0.398352
373 1 0.254418 0.400062 0.134595
790 1 0.529279 0.00594108 0.398161
787 1 0.628224 0.204674 0.110636
809 1 0.763136 0.29889 0.30516
192 1 0.0345916 0.247205 0.435514
416 1 0.774557 0.475264 0.0218402
148 1 0.10023 0.310304 0.302408
823 1 0.955299 0.273035 0.404846
73 1 0.892054 0.413643 0.279458
750 1 0.160625 0.157579 0.359404
450 1 0.293347 0.205337 0.313298
526 1 0.0781024 0.135696 0.145627
733 1 0.336997 0.318614 0.283103
487 1 0.852218 0.307679 0.12981
525 1 0.785293 0.219207 0.474931
277 1 0.623541 0.397183 0.4119
398 1 0.512279 0.0325544 0.114383
252 1 0.312491 0.287927 0.498515
158 1 0.909729 0.0738791 0.410776
113 1 0.690918 0.0677857 0.329171
100 1 0.836819 0.0950384 0.490628
114 1 0.525222 0.208803 0.084678
87 1 0.518898 0.403284 0.208578
424 1 0.994826 0.341747 0.346887
499 1 0.205255 0.140658 0.220295
447 1 0.286665 0.504585 0.102208
656 1 0.987442 0.495595 0.275039
392 1 0.325448 0.359862 0.349464
214 1 0.0263614 0.183489 0.221162
124 1 0.115127 0.061174 0.329395
544 1 0.283775 0.254678 0.0786327
63 1 0.336195 0.14747 0.0869465
85 1 0.366212 0.113942 0.44456
569 1 0.500648 0.289963 0.272072
522 1 0.290696 0.320185 0.171484
394 1 0.678459 0.0594033 0.0503355
621 1 0.418351 0.131956 0.106322
116 1 0.327077 0.191605 0.170483
800 1 0.51594 0.460849 0.0905793
173 1 0.87043 0.197547 0.491579
707 1 0.605834 0.329415 0.225058
639 1 0.414967 0.370963 0.0664159
856 1 0.459298 0.130144 0.217663
66 1 0.575628 0.401715 0.280969
67 1 0.666172 0.459794 0.151661
200 1 0.906721 0.0688655 0.288268
459 1 0.748766 0.366017 0.049288
18 1 0.816671 0.163738 0.224678
529 1 0.769247 0.400096 0.355639
770 1 0.9954 0.0633538 0.393709
4 1 0.112468 0.174224 0.270546
557 1 0.468808 0.255923 0.439451
792 1 0.925092 0.348494 0.218924
224 1 0.297406 0.073233 0.413793
225 1 0.0583602 0.21582 0.0123597
614 1 0.236591 0.339362 0.32246
440 1 0.957645 0.188189 0.447706
664 1 0.0261378 0.456399 0.430484
840 1 0.213084 0.336531 0.190929
380 1 0.20665 0.491843 0.198269
335 1 0.383135 0.223541 0.341987
204 1 0.114298 0.24004 0.133737
50 1 0.220293 0.0344348 0.158361
364 1 0.729522 0.0829658 0.125272
324 1 0.437762 0.0373261 0.182617
393 1 0.00821703 0.466363 0.117615
247 1 0.3943 0.261494 0.251003
857 1 0.693689 0.153424 0.354452
610 1 0.409095 0.224138 0.114228
27 1 0.0375089 0.373288 0.429079
31 1 0.823766 0.453383 0.212805
368 1 0.428388 0.298315 0.334608
372 1 0.962569 0.216106 0.318595
799 1 0.685557 0.353055 0.344321
461 1 0.111013 0.298978 0.446707
215 1 0.686997 0.380785 0.112228
863 1 0.956134 0.121453 0.333169
180 1 0.084704 0.317125 0.0875523
69 1 0.810909 0.256718 0.0275316
566 1 0.20382 0.0732506 0.319093
318 1 0.698359 0.217309 0.0259822
437 1 0.733014 0.158332 0.260605
730 1 0.561089 0.159513 0.502715
415 1 0.428241 0.00274737 0.472001
734 1 0.65627 0.439902 0.0578453
184 1 0.143219 0.495273 0.120355
628 1 0.0211914 0.0897015 0.224409
25 1 0.255014 0.174406 0.109697
43 1 0.286797 0.0367187 0.0816753
748 1 0.857602 0.275771 0.387509
697 1 0.933205 0.401857 0.359329
120 1 0.579087 0.138619 0.268923
709 1 0.932077 0.237521 0.236361
829 1 0.922827 0.324251 0.0466421
64 1 0.215753 0.48044 0.0297087
811 1 0.709408 0.136532 0.182771
97 1 0.764143 0.387677 0.164749
79 1 0.305501 0.378939 0.465674
407 1 0.389501 0.217783 0.460641
498 1 0.0763184 0.168669 0.412959
146 1 0.353487 0.00144846 0.125516
579 1 0.870212 0.185215 0.294619
343 1 0.215608 0.174623 0.0243516
616 1 0.495766 0.459721 0.28781
677 1 0.111052 0.441246 0.0427153
722 1 0.437299 0.446688 0.195209
471 1 0.353768 0.309754 0.110621
366 1 0.214647 0.23686 0.1664
754 1 0.158183 0.00485884 0.240857
736 1 0.424616 0.504628 0.484349
539 1 0.211239 0.262826 0.481571
20 1 0.196804 0.068314 0.420707
822 1 0.661136 0.295392 0.155436
412 1 0.581954 0.339965 0.129728
117 1 0.168054 0.118304 0.136196
666 1 0.655743 0.0643276 0.239889
531 1 0.894316 0.387729 0.131788
385 1 0.500998 0.341132 0.438506
619 1 0.587368 0.144218 0.153183
630 1 0.551439 0.11255 0.388587
362 1 0.668336 0.220651 0.444516
474 1 0.609109 0.200834 0.336282
128 1 0.697982 0.405774 0.47549
538 1 0.682907 0.055805 0.41788
126 1 0.173868 0.00344346 0.0749925
289 1 0.607706 0.29899 0.368989
669 1 0.877848 0.0619371 0.187625
830 1 0.638327 0.280834 0.293973
419 1 0.332658 0.443145 0.247074
832 1 0.756643 0.213204 0.156286
715 1 0.562817 0.0677661 0.185185
147 1 0.808637 0.104111 0.155395
293 1 0.818749 0.0543572 0.376158
92 1 0.908275 0.316147 0.307756
444 1 0.75099 0.295089 0.167324
727 1 0.185128 0.441722 0.377755
75 1 0.668105 0.2187 0.20649
623 1 0.983591 0.253551 0.15838
503 1 0.4992 0.343966 0.0273922
165 1 0.106609 0.0566671 0.0728747
241 1 0.0960837 0.246811 0.231644
15 1 0.440871 0.15654 0.488279
12 1 0.286862 0.0986746 0.0185067
223 1 0.186868 0.141234 0.478083
814 1 0.135722 0.286513 -0.000896853
563 1 0.494529 0.481598 0.0126343
28 1 0.0461546 0.0412185 0.498143
568 1 0.630577 0.0802488 0.485597
541 1 0.524039 0.12664 0.0180889
693 1 0.409828 0.122212 0.0223771
786 1 0.963503 0.175617 0.750357
45 1 0.844439 0.121398 0.697567
492 1 0.5849 0.259916 0.874444
290 1 0.204762 0.192091 0.613347
239 1 0.749687 0.289943 0.971532
78 1 0.0761602 0.471569 0.957504
816 1 0.426651 0.448425 0.886717
622 1 0.68902 0.0679646 0.641549
99 1 0.267321 0.15254 0.56206
230 1 0.284675 0.244929 0.605649
365 1 0.656266 0.149259 0.908198
260 1 0.665594 0.182503 0.579821
580 1 0.743626 0.00594638 0.604039
753 1 0.0554043 0.137286 0.929831
23 1 0.78681 0.220455 0.713308
551 1 0.564959 0.00034188 0.76718
650 1 0.918015 0.331114 0.730256
797 1 0.655659 0.409142 0.646389
635 1 0.742921 0.139711 0.688269
145 1 0.347923 0.369403 0.733602
596 1 0.403347 0.415049 0.770363
523 1 0.938452 0.353123 0.516626
584 1 0.94393 0.276059 0.583941
410 1 0.662545 0.398328 0.757122
683 1 0.195436 0.111652 0.640903
564 1 0.294666 0.24196 0.9271
780 1 0.536405 0.499778 0.730672
682 1 0.0645457 0.0292395 0.846198
594 1 0.274825 0.344309 0.702953
570 1 0.124631 0.219062 0.663441
272 1 0.861018 0.20133 0.887798
72 1 0.967027 0.0083418 0.552365
14 1 0.619827 0.224341 0.648426
777 1 -0.00629331 0.25194 0.51074
327 1 0.592544 0.356956 0.731196
612 1 0.0845296 0.109061 0.627737
838 1 0.905623 0.215305 0.8174
740 1 0.170066 0.021113 0.887774
759 1 0.0108546 0.308887 0.813545
176 1 0.703969 0.381083 0.949479
74 1 0.129572 0.117456 0.867556
644 1 0.227494 0.0105896 0.816129
627 1 0.111544 0.222514 0.536403
451 1 0.886629 0.437831 0.968822
586 1 0.309206 0.418101 0.792067
602 1 0.202697 0.0739168 0.968824
577 1 0.899566 -0.00393352 0.960799
279 1 0.744813 0.155757 0.952051
723 1 0.811628 0.442711 0.626263
5 1 0.621641 0.328484 0.833497
266 1 0.494355 0.108006 0.554986
768 1 0.440078 0.327926 0.760041
211 1 0.706177 0.0631194 0.541944
609 1 0.474444 0.204309 0.687764
494 1 0.00714045 0.28595 0.713916
714 1 0.951849 0.186947 0.641902
671 1 0.820896 0.1426 0.794555
710 1 0.931203 0.0956481 0.683821
417 1 0.217169 0.320413 0.630585
350 1 0.770834 0.0896365 0.62551
296 1 0.132235 0.454576 0.80519
205 1 0.298287 0.14547 0.876902
337 1 0.876297 0.258297 0.968791
104 1 0.174231 0.157475 0.718623
58 1 0.0845114 0.36458 0.832617
359 1 0.0588265 0.352237 0.989278
263 1 0.393368 0.379315 0.856079
294 1 0.849968 0.32697 0.665381
70 1 0.674433 0.281739 0.918968
679 1 0.21811 0.299379 0.781516
374 1 -0.00366841 0.0598502 0.638609
615 1 0.561099 0.322658 0.949648
105 1 0.828999 0.357869 0.553343
738 1 0.565211 0.14665 0.594225
719 1 0.429137 0.23059 0.771382
363 1 0.180628 0.0833529 0.799769
721 1 0.499331 0.16341 0.758821
51 1 0.148214 0.243904 0.764444
684 1 0.723356 0.120916 0.827196
617 1 0.560346 0.045892 0.548516
820 1 0.786136 0.301269 0.730865
408 1 0.61635 0.422413 0.950741
198 1 0.141322 0.304608 0.855981
83 1 0.170986 0.445827 0.573266
16 1 0.882236 0.419963 0.534045
660 1 0.807849 0.00495325 0.960328
202 1 0.81089 0.472957 0.913799
406 1 0.844018 0.399322 0.773543
55 1 0.957241 0.362383 0.973266
351 1 0.170629 0.2379 0.90418
501 1 0.81472 0.0467074 0.800895
286 1 0.609817 0.447349 0.713427
329 1 0.0591451 0.0854168 0.782412
203 1 0.113127 0.136173 0.559596
322 1 0.489492 0.0338146 0.633764
428 1 0.339171 0.413895 0.580207
135 1 0.763015 0.429276 0.786871
384 1 0.227485 0.238008 0.691635
312 1 0.937981 0.309213 0.898326
258 1 0.477378 0.362257 0.5837
742 1 0.161858 0.0118861 0.596234
339 1 0.756239 0.234847 0.873867
655 1 0.441996 0.138259 0.621283
101 1 0.653785 0.0325219 0.818629
561 1 0.329445 0.214986 0.824792
757 1 0.201307 0.333247 0.916004
661 1 0.131498 0.473648 0.648199
680 1 0.636621 0.30726 0.561922
280 1 0.0718214 0.357217 0.733182
196 1 0.0167523 0.415355 0.922759
452 1 0.567622 0.266347 0.791134
156 1 0.972705 0.501501 0.700629
304 1 0.116034 0.359431 0.634051
454 1 0.0697226 0.0456798 0.98176
578 1 0.158471 0.349747 0.539336
574 1 0.385398 0.150669 0.871627
53 1 0.0153223 0.244152 0.631918
236 1 0.490322 0.0675198 0.804307
624 1 0.435705 0.201114 0.912673
805 1 0.687575 0.329002 0.670488
38 1 0.38056 0.0802594 0.798622
859 1 0.984323 0.11869 0.820612
502 1 0.752743 0.0373094 0.702975
399 1 0.363034 0.292381 0.569507
326 1 0.421469 0.389795 0.684968
533 1 0.723481 0.478618 0.558418
724 1 0.572471 0.310562 0.649122
749 1 0.251559 0.403542 0.978627
477 1 0.764536 0.41276 0.865141
153 1 0.573854 0.468851 0.896111
542 1 0.0781476 0.162884 0.728476
507 1 0.947759 0.342049 0.647791
94 1 0.0118277 0.421688 0.516774
310 1 0.130029 0.0329212 0.746616
181 1 0.564691 0.0576797 0.664217
643 1 0.454276 0.458509 0.589317
137 1 0.154753 0.442585 0.903386
61 1 0.495321 0.206213 0.575902
613 1 0.812009 0.229453 0.79718
456 1 0.969931 0.44889 0.626025
13 1 0.386984 0.289496 0.855503
395 1 0.284359 0.307655 0.830068
828 1 0.0363861 0.342822 0.568682
24 1 0.858036 0.360403 0.908796
46 1 0.876654 0.0651506 0.581544
309 1 0.24359 0.384855 0.552669
127 1 0.386948 0.0963948 0.552841
704 1 0.734095 0.0653582 0.941058
438 1 0.963807 0.229031 0.95258
89 1 0.794046 0.119162 0.879421
807 1 0.891189 0.328777 0.830371
52 1 1.00025 0.482016 0.82762
256 1 0.917893 0.141881 0.555422
804 1 0.725067 0.322718 0.803253
571 1 0.465803 0.329472 0.887297
524 1 0.749467 0.328527 0.879132
317 1 0.249806 0.0493832 0.615721
379 1 0.567597 0.449742 0.80943
138 1 0.871466 0.103493 0.976055
216 1 0.500127 0.354453 0.697268
307 1 0.584603 0.448554 0.567238
449 1 0.392605 0.480406 0.971797
409 1 0.192367 0.418412 0.737908
344 1 0.459075 0.2986 0.972976
325 1 0.251996 0.0641934 0.897538
367 1 0.65923 0.0167789 0.952997
154 1 0.781243 0.0333479 0.529023
95 1 0.271315 0.429659 0.712503
188 1 0.243971 0.432882 0.631045
712 1 0.127841 0.193013 0.977768
810 1 0.503721 0.419778 0.755187
391 1 0.563967 0.150041 0.686875
678 1 0.414489 0.298776 0.641201
549 1 0.983833 0.234647 0.866581
207 1 0.777713 0.172538 0.595499
254 1 0.244049 0.155703 0.809972
109 1 0.646382 0.11553 0.752372
827 1 0.0871976 0.186643 0.830026
818 1 0.898713 0.115187 0.792134
348 1 0.0645814 0.232497 0.920912
285 1 0.647405 0.246784 0.822234
313 1 0.793231 0.391558 0.955884
634 1 0.211875 0.0771258 0.534551
696 1 0.767145 0.451154 0.702155
352 1 0.0148773 0.124488 0.56815
346 1 0.156068 0.308892 0.69443
405 1 0.548833 0.165278 0.840578
463 1 0.0686053 0.458822 0.590192
681 1 0.400619 0.15533 0.719501
717 1 0.478037 0.0908752 0.710945
299 1 0.975527 0.395788 0.803862
141 1 0.0669935 0.446064 0.707155
33 1 0.972719 0.0217794 0.731186
555 1 0.70231 0.193943 0.778432
741 1 0.219484 0.0514926 0.707191
489 1 0.701105 0.477776 0.907486
103 1 0.464883 0.399381 0.950854
242 1 0.0295236 0.318791 0.910361
476 1 0.565901 0.398677 0.644392
631 1 0.621924 0.213358 0.964126
728 1 0.298636 0.106339 0.746838
695 1 0.992355 0.124429 0.983561
455 1 0.390288 0.226936 0.99498
174 1 0.856509 0.357022 0.996635
150 1 0.859432 0.00491273 0.509491
425 1 0.131701 0.0187749 0.505414
221 1 0.947171 0.0768611 0.508277
401 1 0.29261 0.0828857 0.505266
68 1 0.57468 0.370963 0.517468
194 1 0.0956073 0.441943 0.512712
445 1 0.49646 0.00461354 0.984662
314 1 0.860985 0.281785 0.516202
253 1 0.568027 0.667267 0.216967
370 1 0.206044 0.855506 0.146696
423 1 0.636658 0.916823 0.108914
191 1 0.356916 0.539333 0.233312
802 1 0.572034 0.668918 0.0392895
651 1 1.00793 0.900119 0.203555
504 1 0.30606 0.59475 0.159419
255 1 0.231692 0.874793 0.289791
397 1 0.103664 0.572089 0.271658
160 1 0.619239 0.790166 0.402863
642 1 0.620505 0.919247 0.348288
686 1 0.899698 0.991695 0.102757
353 1 0.784596 0.798588 0.14178
815 1 0.681078 0.643692 0.353861
694 1 0.449311 0.681861 0.308788
604 1 0.913428 0.964328 0.431928
178 1 0.583306 0.653974 0.351175
795 1 0.220666 0.802163 0.213575
48 1 0.890511 0.834209 0.171081
480 1 0.120443 0.822978 0.151829
467 1 0.928035 0.884674 0.0472171
220 1 0.414784 0.824629 0.236765
288 1 0.83258 0.741941 0.00834473
640 1 0.134268 0.89172 0.0919261
652 1 0.24787 0.725574 0.137802
532 1 0.12914 0.618696 0.0953311
441 1 0.393965 0.717952 0.0754211
470 1 0.704759 0.569171 0.438631
381 1 0.176988 0.764216 0.277889
7 1 0.411056 0.839545 0.122333
88 1 0.427124 0.507959 0.315283
553 1 0.450756 0.549067 0.151039
732 1 0.493641 0.815216 0.0663328
581 1 0.514974 0.599152 0.270323
636 1 0.367961 0.540904 0.124081
576 1 0.801135 0.888677 0.10447
760 1 0.490641 0.744134 0.229736
136 1 0.919603 0.668299 0.364157
371 1 0.0194858 0.527705 0.0472517
144 1 0.543484 0.536629 0.450819
96 1 0.825198 0.824089 0.456024
806 1 0.973109 0.681275 0.460107
162 1 0.795092 0.612446 0.467999
175 1 0.465364 0.735049 0.425004
478 1 0.818654 0.741339 0.350238
774 1 0.577291 0.846351 0.28446
481 1 0.407292 0.825467 0.462794
60 1 0.166998 0.524186 0.42821
446 1 0.672575 0.547484 0.127125
691 1 0.608583 0.723877 0.470316
685 1 0.300165 0.870363 0.213
473 1 0.644069 0.799084 0.230202
39 1 0.322986 0.663671 0.268896
702 1 0.328401 0.996008 0.372723
59 1 0.295401 0.572161 0.0687737
259 1 0.889779 0.705336 0.179119
396 1 0.399559 0.714679 0.230501
232 1 0.994713 0.869271 0.469651
629 1 0.315671 0.83867 0.128827
545 1 0.960795 0.755941 0.211337
251 1 0.582321 0.533293 0.278495
169 1 0.706555 0.686699 0.0292835
864 1 0.0810701 0.969925 0.0410439
775 1 0.661133 0.84057 0.0758273
26 1 0.639312 0.716849 0.182589
854 1 0.11721 0.517865 0.195515
414 1 0.180466 0.555983 0.0507484
554 1 0.907179 0.920309 0.152846
209 1 0.529369 0.954972 0.0767847
607 1 0.923874 0.7533 0.328653
488 1 0.151685 0.796186 0.0385085
269 1 0.755389 0.9715 0.36971
123 1 0.22251 0.652324 0.468772
308 1 0.638887 0.749693 0.0218857
213 1 0.464207 0.891795 0.163604
796 1 0.523418 0.756713 0.141421
583 1 0.0609083 0.706714 0.34215
9 1 0.999781 0.733547 0.125221
333 1 0.23977 0.980747 0.38269
378 1 0.715489 0.80925 0.444331
513 1 0.815665 0.873884 0.224384
32 1 0.0201682 0.629424 0.329723
167 1 0.0289203 0.740364 0.266889
420 1 0.0726424 0.654622 0.236253
210 1 0.353907 0.672886 0.168165
106 1 0.446603 0.925403 0.0855372
283 1 0.847759 0.951159 0.302658
331 1 0.796755 0.958662 0.457346
510 1 0.010754 0.784415 0.366089
611 1 0.526192 0.59399 0.0506744
588 1 0.546536 0.865108 0.129399
819 1 0.370276 0.617154 0.446369
30 1 0.0701441 0.498509 0.325527
65 1 0.80124 0.547546 0.232585
434 1 0.296369 0.824695 0.504189
112 1 0.305044 0.688953 0.363448
292 1 0.955637 0.98603 0.343633
334 1 0.0934882 0.71331 0.415912
149 1 0.154195 0.86122 0.232758
558 1 0.961753 0.652217 0.258194
349 1 0.162674 0.751823 0.143917
155 1 0.457822 0.64255 0.0929887
620 1 0.396118 0.747738 0.366958
705 1 0.221291 0.607892 0.383321
249 1 0.560382 0.891517 -0.00578886
781 1 0.709337 0.576947 0.215248
134 1 0.629028 0.61834 0.0728373
185 1 0.642244 0.658978 0.287987
862 1 0.727697 0.83712 0.203572
826 1 0.563039 0.60691 0.159204
305 1 0.616289 0.502846 0.473796
756 1 0.076234 0.868945 0.430318
608 1 0.832522 0.634419 0.19726
91 1 0.0625836 0.824309 0.266428
649 1 0.558857 0.871271 0.425936
171 1 0.539258 0.614801 0.420799
841 1 0.101875 0.767547 0.213483
662 1 0.365515 0.905966 0.161357
250 1 0.946484 0.897511 0.292747
439 1 0.791854 0.624458 0.0513144
435 1 0.837031 0.605724 0.364485
843 1 0.139851 0.772866 0.369415
718 1 0.670955 0.546764 0.300833
769 1 0.520636 0.564297 0.350856
431 1 0.406462 0.957941 0.224372
433 1 0.327598 0.760382 0.298527
400 1 0.057799 0.588241 0.121693
36 1 0.465164 0.633225 0.489153
142 1 0.445998 0.888453 0.315254
284 1 0.456529 0.783708 0.310901
559 1 0.421325 0.599147 0.21408
464 1 0.455537 0.540433 0.0620067
851 1 0.329172 0.698596 0.450796
383 1 0.0380027 0.813985 0.0945251
824 1 0.226946 0.681883 0.215409
42 1 0.48912 0.668478 0.187382
855 1 0.0238021 0.994721 0.245768
548 1 0.631407 0.859556 0.166967
637 1 0.446713 0.595901 0.417611
122 1 0.921911 0.81053 0.439398
852 1 0.725559 0.882481 0.301536
667 1 0.0768003 0.705607 0.154975
143 1 0.361449 0.918004 0.294418
641 1 0.918456 0.990099 0.23651
125 1 0.535479 0.933758 0.294097
803 1 0.344784 0.774956 0.208983
791 1 0.886807 0.837276 0.333048
208 1 0.763677 0.525777 0.334534
688 1 0.722607 0.745976 0.160465
853 1 0.219408 0.57502 0.135997
598 1 0.0198945 0.988661 0.440658
646 1 0.296125 0.927527 0.113871
668 1 0.177373 0.885587 0.418012
387 1 0.307087 0.671312 0.0915669
152 1 0.536349 0.828589 0.216545
659 1 0.603611 0.980973 0.0408177
572 1 0.145897 0.817085 0.486546
647 1 0.745702 0.822688 0.0575183
593 1 0.957256 0.575415 0.413991
528 1 0.811326 0.738734 0.257604
303 1 0.488058 0.723919 0.0350107
219 1 0.109749 0.597447 0.437928
361 1 0.163082 0.969929 0.16384
182 1 0.409691 0.946374 0.371938
17 1 0.778315 0.809916 0.356727
771 1 0.302059 0.752225 0.0627385
506 1 0.795297 0.619757 0.284238
552 1 0.230707 0.69767 0.31289
119 1 0.106101 0.960915 0.426885
130 1 0.044383 0.973795 0.328023
386 1 0.207126 0.96314 0.468867
565 1 0.50093 0.822149 0.394113
778 1 0.573639 0.911577 0.215149
57 1 0.866967 0.537212 0.431605
690 1 0.242859 0.780308 0.356441
179 1 0.356222 0.592717 0.364387
3 1 0.873668 0.686063 0.436655
306 1 0.660187 0.742168 0.329337
206 1 0.024605 0.756122 0.462354
177 1 0.587572 0.783372 0.0920682
390 1 0.588425 0.525206 0.0609154
40 1 0.617642 0.581203 0.388101
599 1 0.0835011 0.929329 0.174307
514 1 0.316953 0.884569 0.423147
403 1 0.204805 0.738723 0.449795
265 1 0.387703 0.853071 0.367857
264 1 0.285698 0.990021 0.300521
846 1 0.987138 0.582095 0.214398
193 1 0.69101 0.634101 0.147603
764 1 0.432863 0.748432 0.14498
217 1 0.914022 0.583269 0.0750385
163 1 0.881608 0.542975 0.241781
485 1 0.878008 0.675262 0.283999
261 1 0.764125 0.723477 0.409734
720 1 0.921818 0.553957 0.329171
603 1 0.138365 0.859005 0.329826
729 1 0.0824401 0.931919 0.256431
22 1 0.304545 0.550436 0.454612
86 1 0.836665 0.540151 0.03054
618 1 0.764365 0.516569 0.134015
77 1 0.224243 0.524873 0.340479
338 1 0.750448 0.692816 0.486932
517 1 0.341666 0.965252 0.0366244
340 1 0.975207 0.664392 0.0699189
687 1 0.131327 0.720727 0.0662931
222 1 0.768776 0.889401 0.422075
536 1 0.21877 0.865287 0.0590715
369 1 0.419605 0.84666 0.0218678
500 1 0.172595 0.9582 0.313993
278 1 0.247376 0.943413 0.0333808
81 1 0.735506 0.907933 0.0339972
90 1 0.299459 0.992053 0.477232
692 1 0.246896 0.954697 0.216878
535 1 0.460747 0.906798 0.484626
519 1 0.688213 0.967526 0.298913
562 1 0.448902 0.62379 0.000140471
460 1 0.435025 0.986039 0.300245
323 1 0.318148 0.831039 0.00388095
389 1 0.0573243 0.616458 0.0307528
316 1 0.694614 0.924056 0.493545
235 1 0.140793 0.913855 0.493496
170 1 0.00479879 0.954739 0.00869996
589 1 0.374241 0.574704 0.00791378
49 1 0.1388 0.916637 0.00403281
421 1 0.940214 0.525565 0.0184815
812 1 0.645345 0.859048 0.458341
159 1 0.821999 0.912545 0.0173586
172 1 0.801085 0.520637 0.491925
287 1 0.170208 0.837443 0.962765
469 1 0.521145 1.00071 0.859811
772 1 0.640857 0.814015 0.908276
436 1 0.0255552 0.865745 0.889532
234 1 0.227532 0.848369 0.648079
199 1 0.456421 0.551146 0.945903
758 1 0.363689 0.697494 0.608255
151 1 0.185344 0.673976 0.701965
442 1 0.293348 0.522682 0.890598
243 1 0.0751124 0.815256 1.00115
632 1 0.579637 0.542731 0.546633
315 1 0.483602 0.745593 0.689865
638 1 0.42989 0.789731 0.919895
161 1 0.646052 0.598965 0.955431
302 1 0.404268 0.556928 0.552562
825 1 0.986006 0.584353 0.739941
355 1 0.493614 0.53931 0.531427
713 1 0.902475 0.936964 0.531919
354 1 0.322442 0.984384 0.799582
190 1 0.856268 0.735044 0.856889
479 1 0.488854 0.663478 0.633202
847 1 0.911168 0.669253 0.605486
747 1 0.930808 0.566281 0.667264
111 1 0.528093 0.499053 0.609942
121 1 0.0422587 0.61968 0.555671
654 1 0.295681 0.716829 0.772498
844 1 0.981263 0.900417 0.609928
703 1 0.231313 0.740989 0.544674
342 1 0.599392 0.919176 0.659808
858 1 0.244126 0.889727 0.933689
443 1 0.32193 0.506741 0.798597
301 1 0.517469 0.865918 0.670688
82 1 0.797369 0.622821 0.730083
268 1 0.692517 0.729169 0.655189
591 1 0.920191 0.64059 0.721471
508 1 0.764489 0.650892 0.578695
648 1 0.92791 0.969902 0.625364
633 1 0.494356 0.748241 0.817507
411 1 0.932985 0.578945 0.877442
183 1 0.393656 0.881224 0.727818
783 1 0.367532 0.932428 0.592415
698 1 0.996083 0.962908 0.833061
37 1 0.946786 0.761633 0.548766
663 1 0.0327118 0.641483 0.648231
674 1 0.0167336 0.505047 0.523534
701 1 0.458363 0.947128 0.65837
752 1 0.46141 0.570645 0.615439
673 1 0.848559 0.89124 0.800145
118 1 0.115706 0.909887 0.585244
462 1 0.592965 0.903916 0.76556
762 1 0.875727 0.633818 0.978277
6 1 0.52862 0.741562 0.506355
404 1 0.0830381 0.870996 0.731234
495 1 0.471725 0.911512 0.746278
706 1 0.852573 0.543829 0.737788
546 1 0.402457 0.539246 0.859729
458 1 0.963232 0.663297 0.909234
689 1 0.0245237 0.728564 0.665447
168 1 0.858011 0.952259 0.905635
453 1 0.787058 0.805746 0.822255
328 1 0.698391 0.624135 0.76621
645 1 0.571815 0.973248 0.953998
483 1 0.826621 0.646801 0.84495
270 1 0.592625 0.78635 0.54306
708 1 0.383423 0.795197 0.549092
8 1 0.882665 0.989136 0.817578
273 1 0.229274 0.79768 0.890601
413 1 0.71485 0.864924 0.917004
547 1 0.840855 0.979974 0.613978
276 1 0.184264 0.691594 0.616747
837 1 0.104259 0.550151 0.898609
590 1 0.89534 0.785987 0.755742
238 1 0.676893 0.823577 0.638816
358 1 0.908448 0.725355 0.932587
35 1 0.338773 0.814134 0.724914
597 1 0.365108 0.652919 0.792769
133 1 0.205635 0.543109 0.697136
556 1 0.942134 0.893183 0.908958
186 1 0.0630365 0.981801 0.760744
530 1 0.284658 0.617982 0.935796
197 1 0.187984 0.52741 0.818256
801 1 0.118083 0.552592 0.990808
311 1 0.876546 0.500752 0.639262
626 1 0.685817 0.717279 0.764793
543 1 0.932127 0.721169 0.676059
731 1 0.870454 0.839553 0.980355
267 1 0.535661 0.617415 0.966648
47 1 0.257878 0.633193 0.672785
550 1 0.213913 0.762493 0.675773
132 1 0.133761 0.525569 0.554093
782 1 0.411659 0.911903 0.843748
788 1 0.489364 0.817135 0.750475
44 1 0.316952 0.604113 0.605605
129 1 0.792882 0.528083 0.618199
430 1 0.137963 0.957776 0.699948
484 1 0.112979 0.917791 0.913887
482 1 0.179761 0.987026 0.992877
743 1 0.523405 0.551464 0.800683
567 1 0.574792 0.705231 0.96523
231 1 0.514726 0.889492 0.869081
512 1 0.706517 0.751538 0.965566
794 1 0.0708175 0.842918 0.530869
496 1 0.35751 0.89517 0.510363
779 1 0.399485 0.659125 0.531976
625 1 0.253695 0.826969 0.814898
725 1 0.349426 0.992619 0.890981
653 1 0.0624585 0.554646 0.809812
515 1 0.188904 0.849721 0.730074
382 1 0.973474 0.643239 0.806695
860 1 0.920732 0.810016 0.627271
490 1 0.414111 0.758664 0.995214
595 1 0.577432 0.609133 0.747561
274 1 0.490453 0.680411 0.76056
76 1 0.682961 0.877891 0.802426
798 1 0.268453 0.980488 0.708479
229 1 0.59698 0.677799 0.567795
29 1 0.585975 0.620276 0.852202
672 1 0.759752 0.534118 0.746034
835 1 0.821997 0.70443 0.751818
808 1 0.549232 0.791703 0.629844
573 1 0.271293 0.603334 0.828949
849 1 0.43985 0.82483 0.8317
518 1 0.540613 0.602092 0.584656
592 1 0.681444 0.506798 0.812717
257 1 0.182563 0.751155 0.781425
295 1 0.402161 0.731088 0.726193
360 1 0.810982 0.508189 0.818216
755 1 0.149241 0.657909 0.777442
240 1 0.309914 0.628259 0.510092
56 1 0.241179 0.905926 0.831378
244 1 0.216148 0.849876 0.54213
201 1 0.135391 0.646534 0.541508
298 1 0.231012 0.578621 0.596589
516 1 0.123206 0.536113 0.72661
275 1 0.34298 0.914335 0.965729
711 1 0.056052 0.560171 0.638476
606 1 0.202271 0.933079 0.612091
675 1 0.133101 0.608436 0.683118
511 1 0.386846 0.626021 0.929228
575 1 -0.000492971 0.913417 0.75717
422 1 0.425068 0.694996 0.849635
319 1 0.572219 0.739218 0.872978
735 1 0.646305 0.925047 0.579747
833 1 0.363829 0.762728 0.842512
605 1 0.312939 0.516893 0.656517
793 1 0.129431 0.751407 0.538403
388 1 0.639415 0.512758 0.605956
1 1 0.0374829 0.611613 0.891364
585 1 0.775044 0.87877 0.519578
861 1 0.0510093 0.931586 0.543631
763 1 0.778282 0.918602 0.862676
164 1 0.573455 0.790393 0.984976
375 1 1.00085 0.767939 0.821636
62 1 0.437341 0.602253 0.74411
766 1 0.647206 0.961838 0.737362
813 1 0.635668 0.601003 0.655775
300 1 0.281271 0.987695 0.950259
107 1 0.763022 0.951551 0.689498
466 1 0.697309 0.589263 0.528703
345 1 0.370498 0.835258 0.647086
115 1 0.753893 0.837516 0.600348
658 1 0.616816 0.94415 0.843485
356 1 0.236232 0.767409 0.969741
139 1 0.957469 0.567585 0.570989
776 1 0.181987 0.653888 0.924542
332 1 0.655587 0.709941 0.854898
140 1 0.0487434 0.724283 0.904774
41 1 0.351866 0.98434 0.674426
271 1 0.721329 0.504106 0.652342
836 1 0.690487 0.675819 0.540012
842 1 0.955174 0.798585 0.927339
80 1 0.966766 0.604926 0.98313
281 1 0.560678 0.534421 0.963468
320 1 0.809455 0.769524 0.694782
341 1 0.832259 0.874033 0.633745
237 1 0.00894753 0.952139 0.67444
248 1 0.169064 0.945777 0.801145
432 1 0.0481805 0.673036 0.828932
21 1 0.00976861 0.686873 0.977274
746 1 0.277496 0.685855 0.881658
102 1 0.117847 0.825974 0.627544
737 1 0.477897 0.706979 0.944954
699 1 0.837056 0.897186 0.715193
228 1 0.873328 0.992474 0.702835
527 1 0.0281699 0.542134 0.948851
357 1 0.928056 0.516786 0.502865
537 1 0.624508 0.909709 0.941988
739 1 0.236077 0.994062 0.536664
848 1 0.584281 0.670862 0.690794
19 1 0.795241 0.693227 0.924385
850 1 0.751354 0.762852 0.542348
665 1 0.216917 0.539493 0.960258
534 1 0.570538 0.874914 0.590031
262 1 0.732483 0.773391 0.87915
166 1 0.745031 0.864339 0.727209
657 1 0.616062 0.764002 0.705269
10 1 0.529034 0.566969 0.892109
54 1 0.773992 0.546781 0.963444
34 1 0.469735 0.959152 0.914049
2 1 0.365382 0.709815 0.916177
402 1 0.869357 0.706584 0.537788
291 1 0.288114 0.759087 0.618997
84 1 0.541258 0.954135 0.602766
226 1 0.554472 0.917432 0.501063
475 1 0.220309 0.560071 0.501734
785 1 0.638823 0.982567 0.516327
520 1 0.474831 0.924759 0.992538
839 1 0.0109135 0.86336 0.977731
448 1 0.523227 0.826686 0.504639
497 1 0.879445 0.599666 0.52034
521 1 0.680385 0.518047 0.982227
