ITEM: TIMESTEP
3500
ITEM: NUMBER OF ATOMS
864
ITEM: BOX BOUNDS pp pp pp
0.0000000000000000e+00 3.1559999999999999e+01
0.0000000000000000e+00 3.1559999999999999e+01
0.0000000000000000e+00 3.1559999999999999e+01
ITEM: ATOMS id type xs ys zs
27 1 0.0648322 0.163988 0.0841795
74 1 0.0858293 0.0717352 0.162147
8 1 0.157591 0.0843513 0.0773587
31 1 0.22633 0.166619 0.0624868
17 1 0.667442 0.000574927 0.000180503
286 1 0.918916 0.399116 0.491597
12 1 0.333672 0.0678443 0.0919855
82 1 0.427555 0.0740704 0.183992
35 1 0.425039 0.160315 0.0919298
41 1 0.650337 0.167493 0.000158347
581 1 0.164691 0.496613 0.318343
16 1 0.501697 0.0806292 0.111693
20 1 0.665294 0.0879811 0.075161
39 1 0.58648 0.15883 0.0946766
511 1 0.250459 0.499785 0.246994
665 1 0.655352 0.493739 0.494003
24 1 0.82623 0.0911222 0.0873731
43 1 0.749915 0.16656 0.0745596
117 1 0.836164 0.163371 0.165564
273 1 0.329893 0.334947 0.487734
14 1 0.571121 0.0943176 0.00118076
4 1 0.0123653 0.0793552 0.0815579
214 1 0.921029 0.416983 0.332224
250 1 0.41317 0.256781 0.489842
159 1 0.592763 0.00916014 0.414394
32 1 0.171616 0.256833 0.0837807
98 1 0.075208 0.250387 0.16472
28 1 0.990985 0.265569 0.0825565
51 1 0.0819073 0.342583 0.0923894
121 1 0.997426 0.336414 0.167476
125 1 0.175601 0.338526 0.154925
55 1 0.261896 0.328709 0.0769565
36 1 0.334449 0.213756 0.0885038
102 1 0.244423 0.248421 0.160871
129 1 0.322405 0.323868 0.164028
281 1 0.664772 0.334898 0.482825
246 1 0.241226 0.263895 0.496392
59 1 0.41318 0.322374 0.0801024
106 1 0.415883 0.254652 0.166994
15 1 0.582429 0.00598632 0.0851984
40 1 0.500202 0.247304 0.0803857
44 1 0.675113 0.234299 0.0831819
245 1 0.166074 0.18126 0.4952
114 1 0.743362 0.240677 0.167465
13 1 0.495351 0.00423334 0.0194106
97 1 0.99974 0.166199 0.165916
48 1 0.829644 0.253324 0.086491
47 1 0.915637 0.177593 0.0801615
71 1 0.916147 0.336879 0.0793768
118 1 0.905057 0.240307 0.168671
439 1 0.261494 0.489663 0.0774426
157 1 0.513441 0.0116156 0.344395
65 1 0.656854 0.332234 0.00325404
52 1 0.000851408 0.422578 0.0813569
216 1 0.831427 0.420315 0.416655
56 1 0.173849 0.417815 0.0848016
126 1 0.2448 0.417495 0.160982
161 1 0.661756 0.00736688 0.330465
163 1 0.750153 0.000700153 0.427332
60 1 0.33801 0.409079 0.0830266
64 1 0.491599 0.434848 0.0798363
83 1 0.429556 0.00510546 0.262012
507 1 0.0835835 0.499977 0.245428
455 1 0.9061 0.498255 0.0916752
277 1 0.482222 0.356406 0.487871
63 1 0.575734 0.352884 0.0860811
68 1 0.670813 0.414648 0.0809758
134 1 0.572627 0.425549 0.168405
211 1 0.738679 0.325111 0.408511
67 1 0.739433 0.324216 0.0881743
138 1 0.754609 0.421911 0.16079
212 1 0.650863 0.40973 0.417281
72 1 0.837412 0.416128 0.0842609
151 1 0.244035 0.00035342 0.421237
258 1 0.73466 0.254885 0.494748
93 1 0.831111 0.000645221 0.171627
80 1 0.15558 0.0818035 0.261497
101 1 0.161425 0.163739 0.153696
99 1 0.0872625 0.167225 0.229516
11 1 0.423143 0.00363657 0.0893336
146 1 0.0761013 0.0911136 0.331089
209 1 0.645697 0.343364 0.31877
199 1 0.243185 0.322841 0.410674
105 1 0.353002 0.150798 0.167221
78 1 0.239293 0.0757482 0.169933
84 1 0.34034 0.0763858 0.262113
207 1 0.563648 0.35695 0.403716
109 1 0.514715 0.178722 0.173652
107 1 0.425226 0.16609 0.255676
88 1 0.520461 0.0872232 0.241526
86 1 0.589917 0.0814073 0.169476
92 1 0.667922 0.0940244 0.24461
111 1 0.59222 0.176013 0.257576
208 1 0.470564 0.431595 0.411789
145 1 0.997471 0.00248663 0.342969
90 1 0.747254 0.0851675 0.165926
96 1 0.823273 0.0860116 0.249751
94 1 0.927053 0.0825253 0.15728
527 1 0.921279 0.492073 0.247532
76 1 0.995012 0.0767842 0.258363
104 1 0.172623 0.251912 0.240255
100 1 0.999897 0.240171 0.244891
123 1 0.0816332 0.329035 0.236798
173 1 0.172359 0.1827 0.334049
103 1 0.243829 0.158951 0.251548
108 1 0.334824 0.238199 0.241907
174 1 0.255084 0.247153 0.327354
127 1 0.249122 0.332636 0.245564
131 1 0.418877 0.335756 0.249969
178 1 0.41301 0.250369 0.332363
201 1 0.332051 0.338987 0.3308
133 1 0.495459 0.343372 0.163782
110 1 0.583382 0.263769 0.156816
112 1 0.493371 0.255362 0.249491
182 1 0.579077 0.26426 0.328885
116 1 0.670371 0.256154 0.247566
113 1 0.665283 0.165772 0.166097
115 1 0.748696 0.166685 0.239909
120 1 0.834181 0.23472 0.245176
139 1 0.752557 0.341312 0.237239
186 1 0.764128 0.251405 0.322604
213 1 0.843571 0.331734 0.336717
119 1 0.91871 0.157187 0.25287
169 1 0.990023 0.168385 0.332149
190 1 0.919826 0.250457 0.322711
143 1 0.910498 0.324529 0.242001
122 1 0.0756237 0.413185 0.17097
194 1 0.0750085 0.424612 0.334371
124 1 0.998438 0.418499 0.262824
185 1 0.685732 0.177871 0.329462
595 1 0.743983 0.496415 0.416317
204 1 0.324812 0.41441 0.410094
128 1 0.160946 0.405792 0.245047
132 1 0.327618 0.411387 0.236058
193 1 0.0110284 0.325584 0.316871
198 1 0.248975 0.400774 0.328109
176 1 0.145737 0.261955 0.410511
45 1 0.832251 0.168169 0.00326917
130 1 0.416752 0.419339 0.166206
202 1 0.405064 0.41375 0.330414
136 1 0.489402 0.425783 0.248555
196 1 0.99875 0.433508 0.405419
205 1 0.489257 0.343343 0.327332
137 1 0.66243 0.34079 0.171527
206 1 0.577451 0.428582 0.331747
135 1 0.562737 0.337349 0.251004
200 1 0.165156 0.424526 0.40573
210 1 0.746858 0.423798 0.335702
140 1 0.661126 0.427351 0.25573
141 1 0.823954 0.33655 0.158236
142 1 0.920085 0.424204 0.172151
144 1 0.836428 0.410563 0.249447
172 1 0.997767 0.236421 0.422258
191 1 0.912435 0.160808 0.419473
262 1 0.910453 0.263814 0.497658
150 1 0.248261 0.0957366 0.335441
152 1 0.160731 0.0891797 0.406018
46 1 0.90962 0.245226 0.00155873
215 1 0.934854 0.332671 0.404216
184 1 0.488235 0.246405 0.417158
154 1 0.411532 0.0767069 0.344003
156 1 0.326744 0.0774792 0.422442
181 1 0.507229 0.189141 0.3265
160 1 0.504267 0.0959692 0.402776
192 1 0.842024 0.249577 0.403884
188 1 0.659332 0.246842 0.420344
158 1 0.584229 0.0940309 0.323356
183 1 0.576907 0.173158 0.42203
189 1 0.848227 0.167276 0.323034
164 1 0.66633 0.0832692 0.410748
162 1 0.741715 0.0708379 0.332865
168 1 0.839539 0.068291 0.40248
187 1 0.756743 0.157769 0.409953
179 1 0.408071 0.164389 0.422987
166 1 0.925067 0.0840296 0.34492
148 1 0.00594249 0.0957359 0.410728
170 1 0.0766432 0.235602 0.311053
197 1 0.146292 0.342181 0.328145
195 1 0.0512397 0.331963 0.421265
171 1 0.0881017 0.170253 0.413079
203 1 0.412553 0.340339 0.410701
180 1 0.343041 0.241863 0.414426
177 1 0.35293 0.158512 0.334295
175 1 0.25828 0.167317 0.43197
587 1 0.391247 0.499436 0.396429
155 1 0.429279 0.0101898 0.42606
585 1 0.3178 0.488964 0.327595
2 1 0.0809353 0.0800357 0.00101344
593 1 0.664563 0.497321 0.340343
513 1 0.324815 0.492519 0.167716
515 1 0.407437 0.494119 0.25115
285 1 0.823986 0.325591 0.487947
591 1 0.558205 0.493129 0.422478
261 1 0.832213 0.17869 0.489667
257 1 0.679439 0.162216 0.497348
50 1 0.0795802 0.416739 0.00885714
254 1 0.569095 0.255108 0.495036
234 1 0.774241 0.0934886 0.497493
505 1 0.00960889 0.494739 0.160503
26 1 0.0848574 0.265719 0.0182236
58 1 0.413967 0.427222 0.001048
233 1 0.668818 0.0117307 0.497564
653 1 0.156425 0.486754 0.492536
238 1 0.899523 0.0912486 0.497078
437 1 0.176227 0.498605 0.000353856
269 1 0.147235 0.331687 0.490487
282 1 0.743683 0.422237 0.495984
230 1 0.585114 0.092311 0.491048
53 1 0.169715 0.341453 0.0126037
22 1 0.921914 0.0860994 0.01398
34 1 0.411058 0.240974 9.49021e-05
253 1 0.501795 0.166013 0.492035
70 1 0.909762 0.412934 0.00713626
266 1 0.063136 0.403168 0.492706
30 1 0.247098 0.254313 0.00385765
54 1 0.252555 0.415064 0.00290596
38 1 0.582063 0.2565 0.0109718
229 1 0.505932 0.0123807 0.495003
365 1 0.173309 0.000330743 0.838318
243 1 0.0681335 0.176724 0.592769
224 1 0.171341 0.0855065 0.58389
321 1 0.325091 0.168223 0.659643
219 1 0.0781801 0.0166679 0.580586
241 1 0.983154 0.163718 0.500798
228 1 0.332322 0.0811956 0.586411
232 1 0.49981 0.0877687 0.573705
739 1 0.764346 0.483267 0.750953
651 1 0.0724412 0.49914 0.583494
255 1 0.582659 0.168713 0.57751
667 1 0.745013 0.490786 0.5844
231 1 0.578198 0.00996805 0.589094
236 1 0.67176 0.0967814 0.583888
240 1 0.836103 0.0832319 0.583774
432 1 0.840756 0.416543 0.922037
306 1 0.756637 0.0886243 0.65769
220 1 0.989501 0.0809759 0.567204
263 1 0.906417 0.176871 0.576894
310 1 0.918356 0.0878141 0.652948
381 1 0.828306 0.0078982 0.838544
799 1 0.247691 0.487001 0.914288
69 1 0.833914 0.33076 0.999124
244 1 0.994989 0.248863 0.588276
805 1 0.498101 0.491681 0.822496
247 1 0.236551 0.176605 0.578377
248 1 0.162285 0.251292 0.582003
271 1 0.231762 0.341595 0.582799
341 1 0.148453 0.329887 0.676167
318 1 0.246035 0.255037 0.667477
252 1 0.320778 0.263944 0.576194
251 1 0.419675 0.171777 0.567177
275 1 0.407703 0.335605 0.575057
322 1 0.402174 0.250374 0.6566
345 1 0.323792 0.34237 0.656159
256 1 0.494354 0.256065 0.565057
279 1 0.5976 0.324616 0.585848
260 1 0.684135 0.23554 0.588473
259 1 0.766321 0.167623 0.587483
283 1 0.725142 0.330063 0.580375
264 1 0.819877 0.25386 0.584157
287 1 0.918235 0.329632 0.579195
334 1 0.924737 0.250072 0.680981
357 1 0.852978 0.327495 0.682175
267 1 0.0819449 0.332607 0.582234
338 1 0.0923648 0.42017 0.680913
57 1 0.333443 0.317269 0.990354
412 1 0.012734 0.415398 0.928117
361 1 0.012201 0.00348217 0.841005
272 1 0.150654 0.421758 0.592837
342 1 0.23642 0.404935 0.67518
242 1 0.0740047 0.239296 0.51589
276 1 0.321591 0.416217 0.586232
346 1 0.409645 0.410889 0.664969
793 1 0.00375926 0.49099 0.83292
349 1 0.505016 0.317025 0.665445
280 1 0.507796 0.416037 0.580099
741 1 0.825178 0.477606 0.659026
222 1 0.241253 0.0785811 0.506316
284 1 0.654723 0.425991 0.572886
354 1 0.743891 0.39697 0.672919
288 1 0.816536 0.40125 0.579301
737 1 0.679318 0.487982 0.661163
731 1 0.424891 0.491647 0.748539
659 1 0.411645 0.491152 0.59472
268 1 0.00653992 0.412456 0.591606
358 1 0.922865 0.414145 0.659514
337 1 0.00229893 0.334721 0.671645
290 1 0.0764589 0.0800579 0.662199
428 1 0.655019 0.415201 0.911624
362 1 0.0951932 0.0799913 0.824158
429 1 0.833863 0.337374 0.845372
294 1 0.24183 0.0804512 0.668723
296 1 0.173416 0.0834613 0.74354
300 1 0.324734 0.0850899 0.745077
249 1 0.316114 0.160774 0.51594
366 1 0.249039 0.0892359 0.83647
426 1 0.750949 0.410751 0.856944
298 1 0.411439 0.0930622 0.660028
427 1 0.742744 0.317931 0.930682
323 1 0.415977 0.175498 0.741074
304 1 0.49086 0.0910724 0.736736
370 1 0.426089 0.0881631 0.818073
302 1 0.588646 0.0962715 0.672129
801 1 0.335438 0.492064 0.83717
308 1 0.66967 0.0894875 0.751585
327 1 0.587311 0.166506 0.755015
227 1 0.426097 0.00780549 0.577526
331 1 0.758249 0.15496 0.769234
424 1 0.506412 0.420324 0.907745
333 1 0.847148 0.174867 0.676665
292 1 0.00423803 0.0834512 0.751894
312 1 0.853499 0.0791245 0.744143
314 1 0.0817062 0.253942 0.664195
315 1 0.0800483 0.170746 0.762828
320 1 0.16338 0.239994 0.74853
316 1 0.00976096 0.244622 0.749888
339 1 0.0870464 0.328943 0.758404
409 1 0.00698928 0.334871 0.847335
317 1 0.153878 0.16098 0.660752
319 1 0.248265 0.169795 0.734992
343 1 0.239546 0.331234 0.757975
389 1 0.176536 0.169258 0.830453
325 1 0.480239 0.168955 0.65408
393 1 0.341841 0.155287 0.834286
324 1 0.327087 0.258283 0.738055
394 1 0.40885 0.244985 0.836271
328 1 0.500378 0.236075 0.737841
421 1 0.493637 0.322663 0.815339
326 1 0.589556 0.241458 0.668231
329 1 0.681465 0.163646 0.663211
353 1 0.664517 0.316693 0.675127
351 1 0.580659 0.330579 0.745986
330 1 0.75555 0.253933 0.69009
332 1 0.657546 0.244168 0.755601
401 1 0.667951 0.153027 0.840057
336 1 0.835813 0.256005 0.760701
335 1 0.922062 0.172955 0.758867
313 1 0.994852 0.158979 0.666424
359 1 0.921518 0.343788 0.758002
410 1 0.0748239 0.415254 0.832666
344 1 0.160106 0.421395 0.761612
417 1 0.32971 0.325489 0.831162
803 1 0.418612 0.4937 0.911797
303 1 0.584877 0.00891517 0.764385
348 1 0.332102 0.424697 0.745678
347 1 0.419939 0.324681 0.737483
418 1 0.418409 0.41236 0.825464
350 1 0.590644 0.413787 0.669232
352 1 0.493132 0.409736 0.726313
422 1 0.583393 0.415941 0.833481
729 1 0.311673 0.492879 0.666495
420 1 0.328506 0.405529 0.91469
355 1 0.740225 0.326567 0.769894
356 1 0.657365 0.408473 0.760378
360 1 0.848888 0.417641 0.756628
6 1 0.243209 0.0796836 0.982628
413 1 0.16804 0.335846 0.832312
430 1 0.923287 0.425716 0.836581
340 1 0.997315 0.404819 0.75354
411 1 0.0937315 0.336982 0.92747
239 1 0.917187 0.00149757 0.577597
387 1 0.0780506 0.168217 0.895568
364 1 0.0124792 0.0744827 0.919603
226 1 0.421677 0.0905323 0.50132
235 1 0.752307 0.0020119 0.57114
265 1 0.997879 0.326408 0.51221
368 1 0.160631 0.0857307 0.915814
372 1 0.332654 0.0790584 0.915499
391 1 0.238359 0.171624 0.911671
797 1 0.168511 0.489527 0.840464
376 1 0.497502 0.0670465 0.919977
416 1 0.169732 0.418028 0.927907
374 1 0.579907 0.0789604 0.856348
295 1 0.251606 0.0100124 0.752072
367 1 0.260504 0.000976222 0.907383
378 1 0.754834 0.0903279 0.849269
380 1 0.662253 0.0772932 0.925394
384 1 0.832713 0.073813 0.9335
405 1 0.844057 0.166849 0.84452
414 1 0.249824 0.412298 0.833228
407 1 0.920936 0.164008 0.926726
408 1 0.832261 0.249472 0.92087
382 1 0.920493 0.0638071 0.836629
811 1 0.757984 0.498673 0.936154
406 1 0.940549 0.250546 0.834802
386 1 0.0835117 0.256619 0.844496
388 1 0.0111729 0.24441 0.918058
385 1 0.988709 0.154328 0.844501
392 1 0.170615 0.264343 0.923764
415 1 0.250676 0.338812 0.924176
390 1 0.252907 0.249317 0.833549
18 1 0.744233 0.0907613 0.999647
397 1 0.497431 0.1767 0.828457
395 1 0.428851 0.171656 0.912537
431 1 0.922062 0.326409 0.918072
419 1 0.426803 0.347194 0.913055
396 1 0.331014 0.245851 0.910821
399 1 0.576583 0.175007 0.925687
423 1 0.588825 0.330627 0.921914
400 1 0.498081 0.26313 0.916366
398 1 0.578607 0.25535 0.84386
402 1 0.75081 0.23689 0.847997
403 1 0.734324 0.163282 0.926769
425 1 0.659409 0.332256 0.843497
404 1 0.655309 0.245351 0.914504
369 1 0.346452 0.00346763 0.828502
721 1 0.998484 0.491119 0.664196
725 1 0.173582 0.495468 0.671262
373 1 0.499384 0.0016251 0.829193
307 1 0.741753 0.0112554 0.749185
743 1 0.909221 0.498135 0.738294
305 1 0.671866 0.0118252 0.645803
309 1 0.823262 0.011724 0.664696
671 1 0.909036 0.491055 0.586558
735 1 0.584697 0.494398 0.74097
301 1 0.505551 0.00963994 0.663789
49 1 0.997705 0.33121 0.988357
218 1 0.0854509 0.0941578 0.510612
62 1 0.578238 0.423206 0.990546
42 1 0.744122 0.242308 0.995127
29 1 0.148598 0.164621 0.977674
33 1 0.329033 0.172976 0.988016
274 1 0.406001 0.425415 0.504465
9 1 0.329331 0.00282928 0.994816
61 1 0.499073 0.339303 0.996332
25 1 0.00687379 0.156237 0.99889
278 1 0.585234 0.401243 0.501948
649 1 0.986511 0.487677 0.502592
66 1 0.761583 0.410687 0.996698
270 1 0.238985 0.412214 0.50049
37 1 0.497849 0.174852 0.998367
10 1 0.423907 0.0844321 0.998203
436 1 0.00419091 0.583965 0.0843997
459 1 0.0776596 0.667001 0.093217
506 1 0.0860598 0.583928 0.16752
646 1 0.927967 0.921953 0.333092
447 1 0.593229 0.514643 0.0697355
440 1 0.182092 0.585853 0.0871042
510 1 0.250837 0.598324 0.169846
465 1 0.332218 0.680846 0.00590669
444 1 0.32792 0.578601 0.0808519
498 1 0.744574 0.914426 0.00132874
642 1 0.739991 0.908613 0.335925
448 1 0.518506 0.588635 0.0829605
452 1 0.673247 0.57824 0.0823783
641 1 0.684704 0.829845 0.351365
644 1 0.664372 0.915263 0.417492
522 1 0.751717 0.575186 0.162175
475 1 0.757909 0.655303 0.0814538
493 1 0.514251 0.82348 0.0154214
19 1 0.76072 0.986046 0.0889972
456 1 0.831691 0.574528 0.0898469
526 1 0.908348 0.59013 0.153813
643 1 0.761419 0.813595 0.419877
464 1 0.158991 0.754151 0.0847054
530 1 0.0730323 0.754762 0.172853
509 1 0.176308 0.516487 0.170885
463 1 0.244422 0.67603 0.0825229
487 1 0.249199 0.829943 0.0787359
468 1 0.337386 0.761208 0.083436
467 1 0.412586 0.674356 0.0812513
491 1 0.411604 0.847935 0.100238
472 1 0.502777 0.750889 0.0916785
565 1 0.508884 0.832857 0.156409
490 1 0.404907 0.912594 0.0159252
471 1 0.59185 0.662538 0.072137
476 1 0.667372 0.731468 0.0860717
597 1 0.822205 0.506698 0.335891
654 1 0.255546 0.589322 0.487567
480 1 0.832484 0.744493 0.0791168
499 1 0.752172 0.821541 0.0772396
479 1 0.924852 0.658582 0.0743868
460 1 0.993653 0.749165 0.0941752
550 1 0.912788 0.74098 0.172663
529 1 0.994151 0.664731 0.163915
549 1 0.832918 0.661989 0.164414
483 1 0.0857796 0.827604 0.0932909
554 1 0.0824684 0.910493 0.157375
488 1 0.168121 0.908313 0.0766455
557 1 0.17054 0.828804 0.155911
648 1 0.827197 0.917195 0.402287
433 1 0.00446758 0.503234 0.00942471
492 1 0.33502 0.931075 0.0867726
558 1 0.246379 0.913528 0.158434
3 1 0.0957581 0.992594 0.0760816
79 1 0.234962 0.996494 0.242624
496 1 0.519251 0.910627 0.0826644
638 1 0.578274 0.923767 0.347218
89 1 0.666157 0.998316 0.159892
495 1 0.598399 0.832212 0.0796226
500 1 0.660875 0.921531 0.0834017
566 1 0.593381 0.904229 0.175078
504 1 0.832755 0.907587 0.0747071
637 1 0.497177 0.83997 0.341969
435 1 0.105301 0.500696 0.0895867
503 1 0.915874 0.81991 0.0873195
484 1 0.992118 0.916957 0.0874289
574 1 0.902769 0.904589 0.176377
553 1 0.999738 0.835833 0.171324
589 1 0.483043 0.512025 0.324114
73 1 0.998222 0.992053 0.172965
508 1 0.983504 0.585818 0.239732
531 1 0.0840149 0.67616 0.249115
601 1 0.000379379 0.673328 0.3335
640 1 0.510905 0.914284 0.419781
523 1 0.754912 0.500272 0.24797
533 1 0.161309 0.663644 0.171847
609 1 0.341011 0.676051 0.348631
512 1 0.152915 0.587066 0.254666
516 1 0.339146 0.578524 0.241691
605 1 0.171519 0.689737 0.319908
514 1 0.407437 0.593214 0.163813
586 1 0.418923 0.597751 0.31729
518 1 0.586067 0.586598 0.186949
520 1 0.501722 0.589306 0.259033
524 1 0.669102 0.579128 0.266264
547 1 0.743807 0.660657 0.254324
519 1 0.578958 0.507883 0.2576
521 1 0.668647 0.510849 0.172264
634 1 0.423492 0.916274 0.328347
528 1 0.830503 0.580564 0.253779
551 1 0.906819 0.668515 0.259311
598 1 0.912863 0.5829 0.329156
555 1 0.0883101 0.833538 0.254229
536 1 0.175947 0.751565 0.245704
532 1 0.00223437 0.749185 0.244903
534 1 0.264778 0.761059 0.166234
535 1 0.267831 0.681035 0.253923
559 1 0.257747 0.831131 0.247632
540 1 0.348174 0.762342 0.254057
537 1 0.332744 0.673627 0.166394
541 1 0.510206 0.662121 0.171392
538 1 0.418397 0.754558 0.164335
539 1 0.421814 0.675297 0.242855
563 1 0.42793 0.851533 0.242479
544 1 0.49235 0.7524 0.253402
542 1 0.592061 0.74568 0.160769
543 1 0.573124 0.684016 0.248944
567 1 0.5929 0.85725 0.272621
569 1 0.673546 0.830599 0.161647
545 1 0.664491 0.648551 0.16658
548 1 0.670316 0.741211 0.248216
546 1 0.75053 0.736328 0.162576
552 1 0.841344 0.753434 0.255491
575 1 0.927905 0.837246 0.255782
622 1 0.926918 0.756756 0.328629
658 1 0.403446 0.576138 0.494698
560 1 0.178517 0.902003 0.242233
629 1 0.176805 0.829696 0.33792
635 1 0.428459 0.838724 0.419816
561 1 0.337376 0.845858 0.170953
633 1 0.335739 0.841886 0.335226
564 1 0.331383 0.916892 0.254436
583 1 0.240248 0.511497 0.406754
454 1 0.923709 0.57944 0.00107295
562 1 0.42991 0.930804 0.168685
568 1 0.51317 0.922233 0.257369
599 1 0.917208 0.505918 0.414122
77 1 0.163205 0.981017 0.162765
630 1 0.252052 0.912907 0.336307
573 1 0.824633 0.834811 0.161043
571 1 0.73574 0.839924 0.258582
570 1 0.75409 0.919631 0.163388
572 1 0.67209 0.922245 0.248819
556 1 3.6685e-05 0.911005 0.255728
576 1 0.830737 0.913165 0.262859
625 1 0.00924321 0.845424 0.343282
167 1 0.925666 0.987986 0.422751
578 1 0.0832004 0.585471 0.343068
580 1 0.99654 0.58454 0.421668
147 1 0.0926282 0.996506 0.413777
582 1 0.24333 0.584764 0.322684
584 1 0.163126 0.595897 0.40711
607 1 0.239768 0.667476 0.411055
85 1 0.520906 0.992041 0.169017
588 1 0.328558 0.580005 0.40224
592 1 0.508635 0.578438 0.411236
517 1 0.495584 0.522575 0.156742
501 1 0.835756 0.82429 0.00827356
617 1 0.673333 0.661014 0.340149
590 1 0.587606 0.602683 0.328856
615 1 0.586097 0.658804 0.423013
636 1 0.350145 0.906281 0.433969
87 1 0.599974 0.998645 0.247936
594 1 0.743192 0.582503 0.343035
596 1 0.654184 0.577702 0.422256
626 1 0.093275 0.910796 0.339556
600 1 0.832777 0.591688 0.410127
623 1 0.911933 0.669511 0.39625
662 1 0.582343 0.581785 0.497
627 1 0.0898342 0.828959 0.419648
602 1 0.0839087 0.756506 0.335354
604 1 0.992597 0.748672 0.405903
603 1 0.0791177 0.673865 0.412944
608 1 0.174468 0.763571 0.424418
443 1 0.408767 0.507973 0.0883536
478 1 0.926551 0.747099 0.00937623
612 1 0.33995 0.76112 0.4101
631 1 0.264862 0.840468 0.433487
606 1 0.264285 0.759936 0.335823
628 1 0.00123794 0.906083 0.424017
613 1 0.501321 0.67239 0.331877
611 1 0.430415 0.670956 0.408016
632 1 0.177687 0.897885 0.427468
610 1 0.421925 0.76471 0.336151
616 1 0.507208 0.750773 0.413839
614 1 0.592941 0.744993 0.328582
639 1 0.589353 0.8181 0.415707
647 1 0.921427 0.824267 0.412441
620 1 0.674276 0.748815 0.427559
618 1 0.744994 0.745138 0.326666
619 1 0.750828 0.675985 0.415188
624 1 0.839263 0.750581 0.403173
621 1 0.820167 0.667059 0.333377
645 1 0.850829 0.827325 0.327623
81 1 0.334919 0.99338 0.177989
7 1 0.235505 0.996974 0.0811739
525 1 0.829429 0.503814 0.170851
579 1 0.0814732 0.505614 0.412608
466 1 0.417861 0.770632 0.0059841
451 1 0.743675 0.503221 0.0824587
153 1 0.326749 0.990588 0.334549
149 1 0.178889 0.998589 0.341132
681 1 0.32809 0.68124 0.482927
91 1 0.750862 0.992616 0.25417
23 1 0.915173 0.98879 0.075435
95 1 0.918725 0.989055 0.253092
75 1 0.083473 0.996408 0.250233
577 1 0.00856562 0.51654 0.324142
165 1 0.841817 0.99476 0.328013
482 1 0.080724 0.90621 0.0161116
450 1 0.76175 0.581226 0.00525821
713 1 0.675032 0.847328 0.499493
462 1 0.254105 0.75152 0.000893723
438 1 0.253034 0.574278 0.00384578
469 1 0.508324 0.669059 0.000673525
494 1 0.585593 0.903382 0.00570051
694 1 0.918549 0.747642 0.486512
217 1 0.00382486 0.994587 0.487956
477 1 0.83965 0.649245 0.00469819
682 1 0.426912 0.747086 0.497989
489 1 0.329276 0.841343 0.00696056
434 1 0.092366 0.579308 0.00958817
689 1 0.671981 0.667769 0.487088
657 1 0.325533 0.507545 0.483078
673 1 0.00791888 0.666832 0.497006
453 1 0.835256 0.503426 0.00793524
21 1 0.841277 0.999313 0.000897974
669 1 0.826441 0.517665 0.495716
481 1 0.999279 0.832977 0.0128444
237 1 0.83558 0.990785 0.494854
652 1 0.998353 0.590646 0.58384
656 1 0.155786 0.562396 0.568847
722 1 0.0983077 0.587459 0.660073
749 1 0.17186 0.662555 0.667907
727 1 0.24563 0.500046 0.750105
863 1 0.918931 0.841569 0.933177
660 1 0.334727 0.574703 0.571819
730 1 0.395529 0.570646 0.665256
664 1 0.483702 0.580996 0.579095
844 1 0.00897623 0.913991 0.92155
734 1 0.585657 0.576151 0.67446
293 1 0.166571 0.996109 0.653526
862 1 0.918467 0.921311 0.829302
650 1 0.0725416 0.588313 0.501481
668 1 0.657507 0.600267 0.579958
672 1 0.839093 0.592241 0.587685
807 1 0.581635 0.503545 0.907143
738 1 0.75179 0.578805 0.681692
813 1 0.821497 0.501416 0.841531
695 1 0.913255 0.668239 0.589722
655 1 0.244481 0.502532 0.57414
297 1 0.330841 0.998966 0.661611
675 1 0.0851649 0.667763 0.583444
746 1 0.0804412 0.75588 0.664748
680 1 0.167003 0.753278 0.605891
676 1 0.993454 0.751193 0.577112
699 1 0.0663261 0.834636 0.593396
678 1 0.241773 0.733117 0.512055
753 1 0.33268 0.671519 0.674768
679 1 0.243245 0.639315 0.585009
750 1 0.258303 0.744202 0.680996
795 1 0.0865569 0.500525 0.924425
683 1 0.402436 0.658988 0.577664
684 1 0.329646 0.743154 0.572957
754 1 0.42009 0.739454 0.652338
757 1 0.494918 0.653146 0.655031
677 1 0.16672 0.657297 0.500555
688 1 0.496393 0.748397 0.5959
687 1 0.57672 0.659951 0.582956
781 1 0.515212 0.835783 0.663609
691 1 0.751954 0.66351 0.586024
692 1 0.658916 0.745073 0.575041
715 1 0.747044 0.83524 0.589031
733 1 0.50024 0.503408 0.659232
379 1 0.753673 0.993307 0.925691
696 1 0.834586 0.747622 0.59011
719 1 0.903385 0.830731 0.590146
769 1 0.98961 0.844945 0.673759
299 1 0.430127 0.987287 0.738696
860 1 0.663834 0.911323 0.916533
700 1 0.993721 0.921787 0.591058
690 1 0.753019 0.737138 0.51299
291 1 0.0733365 0.998364 0.74287
704 1 0.162296 0.899195 0.591915
703 1 0.245866 0.834418 0.590063
708 1 0.330541 0.913025 0.579839
445 1 0.501707 0.502587 0.99262
707 1 0.428366 0.835633 0.594276
778 1 0.426272 0.91479 0.670555
864 1 0.840935 0.908177 0.924671
711 1 0.578546 0.836012 0.58486
712 1 0.513272 0.923238 0.580805
383 1 0.908253 0.996163 0.920709
709 1 0.513975 0.841862 0.500585
377 1 0.673024 0.989625 0.848481
716 1 0.667996 0.933742 0.581036
718 1 0.914717 0.906991 0.5143
859 1 0.734478 0.826198 0.914442
371 1 0.421922 0.990948 0.935053
789 1 0.827464 0.840458 0.667518
720 1 0.82036 0.933444 0.592585
790 1 0.90455 0.921216 0.653253
745 1 0.996151 0.684874 0.67649
794 1 0.086596 0.568317 0.83044
747 1 0.088049 0.677957 0.753051
663 1 0.575497 0.5086 0.588337
840 1 0.84145 0.737834 0.929831
728 1 0.177183 0.574841 0.756311
726 1 0.245702 0.579467 0.669544
732 1 0.321211 0.583674 0.749436
751 1 0.24064 0.672509 0.752417
706 1 0.439119 0.915145 0.505284
736 1 0.497115 0.5807 0.73674
755 1 0.420962 0.663475 0.738116
829 1 0.506005 0.663253 0.829949
759 1 0.584711 0.664556 0.738113
833 1 0.65555 0.6595 0.822455
5 1 0.174925 0.992495 0.984196
806 1 0.577934 0.577227 0.811354
363 1 0.100218 0.98505 0.911467
740 1 0.668707 0.577638 0.749369
744 1 0.840352 0.582527 0.746505
810 1 0.748411 0.5889 0.825105
742 1 0.911954 0.565245 0.655306
724 1 0.000677339 0.581443 0.737455
767 1 0.919557 0.658991 0.748417
773 1 0.187379 0.825998 0.682407
771 1 0.0907315 0.828672 0.765647
821 1 0.168584 0.666821 0.84225
777 1 0.343328 0.830304 0.661964
849 1 0.347556 0.836023 0.838072
752 1 0.170091 0.744738 0.746396
775 1 0.258043 0.835075 0.764645
756 1 0.347017 0.761664 0.755517
779 1 0.43151 0.825657 0.730461
760 1 0.502199 0.746327 0.746891
853 1 0.492825 0.845081 0.824969
785 1 0.676052 0.831066 0.675552
758 1 0.583544 0.758838 0.67584
764 1 0.672247 0.750807 0.737912
761 1 0.667333 0.675234 0.663211
762 1 0.754094 0.745049 0.665283
763 1 0.762154 0.668538 0.742043
834 1 0.763543 0.751772 0.834144
765 1 0.842242 0.664544 0.670483
766 1 0.91819 0.765176 0.674058
768 1 0.831009 0.768872 0.756423
748 1 0.996157 0.745764 0.766254
442 1 0.411334 0.599209 0.991933
770 1 0.0850346 0.905964 0.666184
772 1 0.00164989 0.916598 0.749039
776 1 0.162623 0.936167 0.75027
774 1 0.241064 0.927451 0.6709
846 1 0.261147 0.920134 0.827222
837 1 0.839211 0.663702 0.835074
486 1 0.240807 0.902299 0.996029
850 1 0.413771 0.916932 0.830432
780 1 0.325735 0.926237 0.740512
854 1 0.59072 0.913048 0.842181
784 1 0.514181 0.919308 0.738763
783 1 0.59615 0.844796 0.741637
782 1 0.598518 0.919086 0.660687
857 1 0.663209 0.820946 0.826981
852 1 0.335267 0.918446 0.916461
858 1 0.763932 0.916598 0.850147
786 1 0.7314 0.924132 0.669
788 1 0.676385 0.920634 0.766263
787 1 0.74308 0.846251 0.748748
851 1 0.406647 0.845455 0.935732
861 1 0.838627 0.846226 0.837895
843 1 0.077663 0.829422 0.925162
792 1 0.81902 0.934734 0.740548
791 1 0.919274 0.845698 0.752993
223 1 0.24886 0.993673 0.589586
796 1 0.000504858 0.587808 0.907486
800 1 0.165001 0.590254 0.916368
845 1 0.183324 0.834528 0.83204
798 1 0.254377 0.583141 0.834637
804 1 0.321942 0.586725 0.930451
802 1 0.402733 0.592013 0.824797
825 1 0.339363 0.681842 0.810635
827 1 0.426186 0.669171 0.914578
808 1 0.503367 0.575971 0.91338
812 1 0.677109 0.582405 0.912861
838 1 0.907067 0.757597 0.843765
841 1 0.999256 0.837438 0.831851
856 1 0.499386 0.902549 0.932203
835 1 0.748659 0.662253 0.920298
816 1 0.844838 0.590931 0.913636
839 1 0.917017 0.668934 0.929005
814 1 0.925915 0.569529 0.829943
485 1 0.166579 0.825163 0.987257
818 1 0.0659729 0.752864 0.842367
819 1 0.0814651 0.661265 0.917897
824 1 0.165928 0.745399 0.914375
822 1 0.250222 0.738203 0.844039
847 1 0.267576 0.834897 0.915595
823 1 0.251294 0.666398 0.929176
820 1 0.989642 0.744718 0.916613
817 1 0.989635 0.657934 0.82226
828 1 0.336702 0.757595 0.918628
826 1 0.423278 0.757284 0.838624
848 1 0.181309 0.915864 0.910692
842 1 0.0901083 0.907783 0.83937
855 1 0.589483 0.836779 0.918842
830 1 0.583274 0.751042 0.81964
836 1 0.666319 0.736012 0.894604
832 1 0.498197 0.767283 0.918883
831 1 0.573977 0.66499 0.90794
697 1 0.994884 0.831874 0.510664
809 1 0.668935 0.503355 0.835227
470 1 0.593837 0.742028 0.9922
441 1 0.344368 0.508533 0.9955
815 1 0.924195 0.506779 0.921494
311 1 0.915279 0.996021 0.744845
717 1 0.831543 0.831699 0.50513
710 1 0.587057 0.932224 0.50162
714 1 0.743785 0.915401 0.50591
702 1 0.243233 0.914053 0.502533
289 1 0.0023725 0.998771 0.657585
674 1 0.0892756 0.738145 0.507299
705 1 0.343657 0.833919 0.513837
375 1 0.573458 0.985403 0.933085
446 1 0.596007 0.58321 0.99101
723 1 0.0801062 0.50298 0.747851
225 1 0.332775 0.993554 0.506644
502 1 0.931429 0.921204 0.997534
666 1 0.738687 0.579732 0.513048
458 1 0.0701827 0.752931 0.994536
693 1 0.840985 0.673562 0.502787
473 1 0.674671 0.663103 0.994009
449 1 0.66797 0.500424 0.994245
221 1 0.164255 0.993788 0.502443
497 1 0.672007 0.831249 0.999041
1 1 0.0134342 0.993418 0.993502
670 1 0.913173 0.591361 0.50734
698 1 0.0873336 0.916882 0.50693
686 1 0.571896 0.745584 0.501207
457 1 0.0118962 0.654467 0.998728
461 1 0.162426 0.670313 0.996044
474 1 0.75844 0.739358 0.988359
701 1 0.169588 0.821451 0.517248
685 1 0.498156 0.661664 0.501258
661 1 0.489354 0.511703 0.502904
