ITEM: TIMESTEP
6750
ITEM: NUMBER OF ATOMS
864
ITEM: BOX BOUNDS pp pp pp
0.0000000000000000e+00 3.1559999999999999e+01
0.0000000000000000e+00 3.1559999999999999e+01
0.0000000000000000e+00 3.1559999999999999e+01
ITEM: ATOMS id type xs ys zs
8 1 0.170588 0.0931869 0.0812514
27 1 0.0886088 0.174035 0.0919162
4 1 0.00966119 0.0759897 0.0771528
101 1 0.169796 0.174221 0.176184
213 1 0.852203 0.343236 0.326824
74 1 0.0861338 0.0857008 0.164365
97 1 0.999393 0.150682 0.158674
441 1 0.325143 0.509376 -0.00708369
78 1 0.232843 0.089318 0.166256
31 1 0.256891 0.184488 0.0843008
25 1 0.0220062 0.16677 0.0066346
12 1 0.317812 0.0820438 0.0987006
16 1 0.514066 0.0748016 0.0821416
579 1 0.0818472 0.500682 0.413116
105 1 0.316691 0.164212 0.167883
214 1 0.921651 0.424832 0.341006
86 1 0.581104 0.0934284 0.163467
513 1 0.340344 0.497616 0.159868
587 1 0.421012 0.502864 0.423172
269 1 0.163462 0.325479 0.498809
20 1 0.660595 0.0981103 0.09238
24 1 0.819421 0.0743332 0.0888095
439 1 0.239469 0.501413 0.083484
215 1 0.910192 0.333567 0.421127
94 1 0.928866 0.0703221 0.15551
511 1 0.244792 0.499019 0.240891
210 1 0.74817 0.41322 0.331718
32 1 0.169489 0.247748 0.0974308
28 1 0.999359 0.24176 0.0782767
98 1 0.0788872 0.263477 0.176422
22 1 0.914968 0.0650232 -0.00015419
55 1 0.246911 0.337812 0.0955299
102 1 0.255441 0.248603 0.185964
129 1 0.327926 0.330475 0.176295
125 1 0.162379 0.332151 0.171595
35 1 0.41358 0.175278 0.093362
36 1 0.336227 0.253645 0.0881939
59 1 0.417208 0.335492 0.0783753
40 1 0.492563 0.252094 0.0976465
75 1 0.0842189 0.00114375 0.263276
39 1 0.582155 0.177152 0.0921472
63 1 0.575832 0.317897 0.0988122
155 1 0.428242 -0.00630728 0.416154
43 1 0.755004 0.161992 0.104553
180 1 0.32746 0.237449 0.411926
44 1 0.663495 0.247529 0.10272
67 1 0.741671 0.33222 0.0885924
114 1 0.767093 0.25451 0.172473
435 1 0.116191 0.501713 0.0859634
48 1 0.831555 0.227519 0.0878961
47 1 0.913572 0.148993 0.0678096
71 1 0.926514 0.332377 0.0871789
87 1 0.58946 -0.00870575 0.236403
165 1 0.838577 -0.00757354 0.334038
51 1 0.0830102 0.323422 0.0887034
56 1 0.16218 0.40128 0.0875226
122 1 0.081288 0.421694 0.163878
52 1 0.0173444 0.433411 0.0833219
60 1 0.322903 0.425309 0.084162
10 1 0.424918 0.0635213 0.0152177
201 1 0.337821 0.328141 0.335002
83 1 0.431688 0.0115718 0.245014
178 1 0.421936 0.239108 0.331783
6 1 0.252427 0.0827312 -2.195e-05
30 1 0.266761 0.252938 0.00932414
64 1 0.499282 0.409683 0.0752932
134 1 0.564052 0.425857 0.168868
199 1 0.24624 0.340616 0.412928
176 1 0.176172 0.251328 0.409798
68 1 0.663758 0.403774 0.0926134
181 1 0.504537 0.156066 0.331361
509 1 0.172049 0.487648 0.176102
234 1 0.757887 0.0800885 0.483303
209 1 0.662983 0.323259 0.335702
72 1 0.818408 0.411982 0.0921673
33 1 0.336892 0.159094 0.00941145
159 1 0.581177 0.0127499 0.417648
146 1 0.0762865 0.0794106 0.353401
76 1 -0.00117598 0.0957132 0.264738
46 1 0.902956 0.239629 0.0013329
277 1 0.511723 0.350598 0.499985
80 1 0.162917 0.0721012 0.24105
150 1 0.257629 0.0699023 0.326094
84 1 0.34146 0.0765239 0.244615
173 1 0.155064 0.160023 0.314485
82 1 0.42047 0.0819959 0.148894
88 1 0.514091 0.0915839 0.254832
107 1 0.421941 0.15546 0.254019
113 1 0.664201 0.165713 0.169238
92 1 0.67585 0.0858797 0.250687
111 1 0.59888 0.162197 0.25326
158 1 0.601864 0.074736 0.336202
212 1 0.663138 0.418048 0.424766
90 1 0.755913 0.0751023 0.171163
162 1 0.75238 0.0734852 0.339663
216 1 0.828203 0.415296 0.411745
599 1 0.916979 0.500417 0.412079
96 1 0.846342 0.0872748 0.244405
166 1 0.92838 0.0808596 0.346216
206 1 0.581295 0.425444 0.331817
211 1 0.736022 0.350719 0.413298
99 1 0.0721764 0.168668 0.246511
169 1 0.00140435 0.1723 0.343245
100 1 -0.00353792 0.252287 0.257253
104 1 0.160097 0.263473 0.243928
103 1 0.26132 0.151412 0.253087
127 1 0.25029 0.336975 0.262174
174 1 0.250015 0.235926 0.323575
133 1 0.498417 0.331236 0.175546
106 1 0.413107 0.237322 0.17723
109 1 0.499936 0.166098 0.165456
108 1 0.336732 0.25082 0.245853
112 1 0.4969 0.259653 0.254937
131 1 0.411486 0.338366 0.25172
110 1 0.584764 0.234941 0.190097
182 1 0.583752 0.241873 0.332807
117 1 0.856758 0.155414 0.158805
116 1 0.681844 0.228682 0.242206
115 1 0.76069 0.164993 0.250003
120 1 0.846262 0.26123 0.24835
185 1 0.674488 0.168255 0.336699
186 1 0.765384 0.245093 0.327882
119 1 0.918268 0.172021 0.259092
118 1 0.928212 0.255159 0.174401
190 1 0.905587 0.246056 0.346164
143 1 0.930498 0.336642 0.24075
189 1 0.831205 0.152844 0.339073
121 1 1.0059 0.356055 0.166239
123 1 0.0764683 0.348203 0.247014
194 1 0.0664392 0.432622 0.340861
124 1 0.99218 0.433827 0.242909
207 1 0.579427 0.338383 0.420001
126 1 0.253448 0.416857 0.178065
128 1 0.166011 0.422484 0.263432
130 1 0.42002 0.421463 0.153998
202 1 0.411647 0.414253 0.335314
77 1 0.16868 -0.00313824 0.158525
132 1 0.348871 0.42434 0.246648
136 1 0.487791 0.422587 0.245371
281 1 0.665193 0.347186 0.512344
135 1 0.565728 0.354557 0.256079
140 1 0.654481 0.422146 0.253841
153 1 0.343677 -0.000172165 0.330637
137 1 0.668218 0.32533 0.192575
171 1 0.078941 0.186022 0.420122
139 1 0.761477 0.336184 0.25892
138 1 0.746571 0.409375 0.18148
172 1 0.996765 0.250626 0.411024
141 1 0.840574 0.329959 0.177491
144 1 0.845537 0.413417 0.241913
142 1 0.902211 0.425825 0.163663
203 1 0.407768 0.336626 0.426409
183 1 0.581711 0.17306 0.425354
197 1 0.157936 0.327893 0.334069
200 1 0.1607 0.413627 0.408521
152 1 0.17084 0.0890491 0.404098
175 1 0.239719 0.157631 0.411192
191 1 0.925613 0.156579 0.42525
184 1 0.495616 0.257284 0.424096
198 1 0.267366 0.414946 0.327454
154 1 0.415452 0.0838388 0.334654
177 1 0.340276 0.158105 0.332945
156 1 0.348112 0.0845001 0.418509
179 1 0.417909 0.165498 0.418006
188 1 0.668331 0.255044 0.419896
160 1 0.499018 0.0835207 0.423447
164 1 0.668582 0.0915467 0.420524
195 1 0.0730076 0.344318 0.426963
192 1 0.830231 0.257014 0.419885
205 1 0.49828 0.341317 0.333321
208 1 0.488467 0.414338 0.419375
204 1 0.321028 0.407009 0.415441
187 1 0.746108 0.185889 0.409252
521 1 0.677997 0.492607 0.18011
196 1 0.992799 0.405583 0.417689
148 1 1.0039 0.0867611 0.43358
168 1 0.842645 0.0754163 0.409963
193 1 1.00251 0.335971 0.342813
170 1 0.0895573 0.250409 0.321227
282 1 0.743139 0.425696 0.496222
597 1 0.836113 0.5051 0.325188
42 1 0.745579 0.247451 0.0272695
69 1 0.830579 0.319541 0.0282335
65 1 0.648233 0.336169 0.00253362
581 1 0.15942 0.507206 0.322755
7 1 0.247296 -0.00576193 0.0838618
19 1 0.737064 0.00850047 0.0768413
523 1 0.751088 0.488581 0.261596
157 1 0.513128 0.0182813 0.333528
49 1 -0.00275533 0.337847 0.0038254
583 1 0.259913 0.497287 0.411681
89 1 0.658829 -0.000500768 0.1584
45 1 0.825367 0.162977 0.00952513
26 1 0.0847681 0.253317 0.00121837
286 1 0.907422 0.417992 0.5138
66 1 0.74666 0.428704 0.0116931
29 1 0.177515 0.170216 0.0013391
70 1 0.925036 0.410655 0.00915015
229 1 0.509211 0.0142206 0.502205
222 1 0.248615 0.080802 0.480306
53 1 0.165399 0.329995 0.0099341
50 1 0.085417 0.392637 -0.0038484
221 1 0.169723 -0.00900192 0.494342
218 1 0.0992818 0.0768217 0.491349
261 1 0.826704 0.162756 0.486742
285 1 0.821939 0.336099 0.493116
278 1 0.588261 0.436044 0.494011
449 1 0.662914 0.495687 0.00657379
238 1 0.9017 0.0816887 0.505666
245 1 0.170839 0.165142 0.484891
233 1 0.673078 0.0140452 0.504344
290 1 0.0862948 0.0860944 0.671456
243 1 0.0916435 0.168611 0.58287
231 1 0.574267 0.00770471 0.581833
361 1 0.991633 0.00735072 0.823849
224 1 0.166067 0.0872745 0.564962
62 1 0.575772 0.434204 0.985957
294 1 0.236247 0.074937 0.659661
228 1 0.3256 0.100872 0.584466
298 1 0.401226 0.0799736 0.655688
232 1 0.515073 0.0959405 0.584849
251 1 0.436899 0.173086 0.608032
321 1 0.33503 0.176904 0.686965
236 1 0.663464 0.0897289 0.60543
255 1 0.588141 0.18774 0.58673
329 1 0.666597 0.175367 0.671361
240 1 0.823607 0.0996082 0.580384
259 1 0.741596 0.1749 0.586806
220 1 0.00322534 0.0908861 0.564675
453 1 0.827516 0.500523 0.99602
58 1 0.407871 0.416319 1.00818
801 1 0.30567 0.512353 0.837347
244 1 -0.00448781 0.247027 0.588262
267 1 0.0922087 0.333321 0.585229
314 1 0.0820067 0.254459 0.6662
61 1 0.486968 0.344132 0.992482
248 1 0.168565 0.246316 0.601164
247 1 0.241882 0.17593 0.582235
318 1 0.245898 0.240011 0.68365
252 1 0.324198 0.24099 0.600249
271 1 0.244225 0.328998 0.586807
317 1 0.161373 0.165933 0.670798
256 1 0.504332 0.256328 0.578943
260 1 0.68146 0.268838 0.585931
279 1 0.597341 0.33839 0.583714
326 1 0.583086 0.249007 0.66865
333 1 0.822114 0.16938 0.65791
283 1 0.753574 0.352382 0.583882
264 1 0.824439 0.260577 0.573027
34 1 0.414494 0.243215 1.0101
357 1 0.82568 0.3404 0.656932
273 1 0.322129 0.333559 0.492799
263 1 0.904224 0.173962 0.563935
287 1 0.90523 0.333163 0.592569
268 1 0.989481 0.420696 0.584817
337 1 0.995787 0.329607 0.673606
338 1 0.0846769 0.413667 0.672235
811 1 0.757644 0.485772 0.916743
272 1 0.162912 0.420254 0.579652
342 1 0.241453 0.441345 0.673807
341 1 0.171685 0.334629 0.674674
275 1 0.408682 0.317686 0.566523
276 1 0.332429 0.401581 0.583477
280 1 0.515494 0.428389 0.575544
431 1 0.920672 0.339375 0.913984
349 1 0.498379 0.33237 0.665367
346 1 0.411244 0.401355 0.673754
284 1 0.668319 0.422803 0.587896
350 1 0.588867 0.420682 0.675025
412 1 1.00242 0.400141 0.912652
57 1 0.329343 0.34268 1.00816
289 1 0.989318 0.0200624 0.650022
375 1 0.573234 0.0129625 0.917992
288 1 0.821342 0.432651 0.578897
354 1 0.750356 0.417888 0.668843
729 1 0.338496 0.489282 0.675445
262 1 0.905648 0.244682 0.486941
246 1 0.244798 0.252351 0.497859
358 1 0.90188 0.417736 0.662337
270 1 0.246666 0.419571 0.508986
671 1 0.906861 0.513718 0.595698
385 1 1.00625 0.166694 0.856076
389 1 0.157896 0.159609 0.842394
296 1 0.169567 0.0724487 0.771061
427 1 0.737051 0.325009 0.948774
366 1 0.251212 0.0688072 0.831542
265 1 0.983707 0.331931 0.50391
300 1 0.346447 0.0784286 0.744842
304 1 0.488166 0.0766565 0.74094
325 1 0.516184 0.165705 0.676047
370 1 0.424737 0.0844277 0.836313
291 1 0.082519 -0.00484813 0.730193
302 1 0.581895 0.0809932 0.678078
308 1 0.682944 0.0744059 0.739561
327 1 0.590677 0.169194 0.756489
306 1 0.760835 0.0764545 0.653439
432 1 0.8201 0.398907 0.939486
312 1 0.835374 0.0861983 0.747835
809 1 0.690117 0.502129 0.83428
310 1 0.901814 0.0891834 0.648903
313 1 0.982467 0.152285 0.655305
230 1 0.592524 0.0885921 0.507847
371 1 0.437675 0.0126561 0.922515
292 1 -0.00328103 0.0908922 0.749733
335 1 0.923056 0.16346 0.748978
315 1 0.080963 0.161012 0.748166
316 1 0.985062 0.254432 0.737671
386 1 0.0763384 0.232516 0.821924
319 1 0.231948 0.15875 0.749346
320 1 0.158439 0.251171 0.743916
390 1 0.238487 0.230898 0.841353
393 1 0.320934 0.154811 0.821944
323 1 0.413888 0.154808 0.744796
324 1 0.332098 0.253541 0.765536
322 1 0.411438 0.266983 0.672368
394 1 0.425916 0.234256 0.83547
328 1 0.492043 0.259376 0.745685
332 1 0.679897 0.24177 0.759274
421 1 0.485195 0.343931 0.839908
398 1 0.574237 0.265212 0.826552
330 1 0.754452 0.261307 0.66756
331 1 0.753108 0.152045 0.75157
336 1 0.818176 0.239929 0.75762
334 1 0.893537 0.246959 0.678789
406 1 0.908581 0.245022 0.851497
429 1 0.835163 0.328082 0.842763
54 1 0.235208 0.418627 1.00147
409 1 0.981274 0.326257 0.822891
339 1 0.0757681 0.334899 0.756018
340 1 0.98946 0.409567 0.753502
410 1 0.0721255 0.399289 0.836259
343 1 0.23643 0.32338 0.760743
344 1 0.166205 0.423327 0.74758
414 1 0.243337 0.413451 0.842242
348 1 0.313861 0.403578 0.756866
413 1 0.163564 0.332428 0.839409
345 1 0.31695 0.34341 0.670505
347 1 0.400222 0.340102 0.759484
381 1 0.838282 0.00538826 0.830322
353 1 0.665285 0.356276 0.680607
351 1 0.58268 0.345608 0.757413
352 1 0.491881 0.403989 0.74764
356 1 0.669862 0.423077 0.76447
241 1 1.00228 0.181094 0.502158
355 1 0.754485 0.344366 0.754227
426 1 0.762392 0.411571 0.835601
360 1 0.839648 0.416938 0.75276
297 1 0.345752 -0.0161698 0.668234
430 1 0.898829 0.410014 0.846045
359 1 0.900207 0.336297 0.74938
362 1 0.0800793 0.0856319 0.841668
368 1 0.166506 0.0886465 0.921058
219 1 0.0775107 0.00958221 0.580667
227 1 0.42639 0.0111761 0.577307
293 1 0.168056 -0.00432365 0.638279
419 1 0.414851 0.310495 0.920419
417 1 0.30345 0.325041 0.841822
372 1 0.332376 0.0786409 0.904935
391 1 0.249695 0.162258 0.920112
415 1 0.248062 0.332348 0.93974
397 1 0.508931 0.169703 0.821427
301 1 0.509606 0.00342545 0.656357
374 1 0.596252 0.0870697 0.825278
401 1 0.672239 0.165211 0.836034
376 1 0.506219 0.0926478 0.90297
380 1 0.660146 0.105319 0.92058
378 1 0.736989 0.0751772 0.837124
423 1 0.567563 0.330325 0.910393
795 1 0.10471 0.513761 0.910182
382 1 0.914432 0.0917841 0.841731
364 1 1.00743 0.0776768 0.929765
384 1 0.82994 0.0722035 0.916074
411 1 0.0830696 0.318306 0.91391
387 1 0.0894063 0.175779 0.924801
428 1 0.669673 0.426363 0.919455
396 1 0.328968 0.246863 0.921214
422 1 0.567111 0.428993 0.845104
392 1 0.18111 0.255536 0.929719
395 1 0.409958 0.146247 0.915907
416 1 0.164001 0.403155 0.921346
249 1 0.331955 0.175077 0.502692
418 1 0.405991 0.442011 0.826706
425 1 0.674055 0.338019 0.82932
399 1 0.57548 0.184128 0.905004
400 1 0.498523 0.244334 0.929886
408 1 0.820387 0.256606 0.931633
404 1 0.659727 0.258257 0.903923
403 1 0.751998 0.162426 0.928858
402 1 0.749853 0.258645 0.837108
405 1 0.822515 0.161084 0.832452
373 1 0.504198 -0.00619539 0.826787
407 1 0.904226 0.169251 0.925665
388 1 0.994864 0.252544 0.931686
420 1 0.338323 0.415158 0.920855
424 1 0.486155 0.418036 0.922264
651 1 0.0810504 0.490177 0.573668
266 1 0.0800506 0.411856 0.506372
743 1 0.923492 0.501996 0.743952
667 1 0.755575 0.517652 0.588586
661 1 0.485219 0.517286 0.532393
735 1 0.58429 0.490645 0.762492
793 1 0.0150788 0.496722 0.84411
805 1 0.491015 0.513433 0.832768
737 1 0.667343 0.498483 0.665665
223 1 0.248652 -0.00481742 0.565022
217 1 0.994672 -0.00305498 0.511093
41 1 0.655612 0.18234 0.991213
649 1 0.989723 0.488538 0.482372
18 1 0.736928 0.0833355 0.996838
653 1 0.167002 0.488504 0.49831
38 1 0.577251 0.249521 0.999269
257 1 0.673981 0.158271 0.500878
274 1 0.404052 0.420455 0.500452
258 1 0.735016 0.258927 0.498844
254 1 0.580135 0.258227 0.503221
14 1 0.599378 0.0887648 1.01074
2 1 0.0949306 0.0563364 0.995364
242 1 0.0862654 0.250099 0.504567
226 1 0.411888 0.0974018 0.515249
250 1 0.428139 0.230796 0.5067
37 1 0.514848 0.148092 0.995765
253 1 0.505572 0.157993 0.497501
459 1 0.0874142 0.672073 0.0682662
533 1 0.165786 0.674578 0.168299
440 1 0.169739 0.602203 0.0904062
666 1 0.751709 0.580871 0.50115
710 1 0.58339 0.918641 0.490086
463 1 0.258113 0.655174 0.09537
577 1 0.996872 0.51968 0.329852
537 1 0.340035 0.667203 0.165337
149 1 0.170333 0.998501 0.332446
444 1 0.333478 0.577911 0.0811671
448 1 0.4929 0.583958 0.0613381
467 1 0.407689 0.667382 0.0737392
471 1 0.59199 0.668095 0.0707544
545 1 0.668091 0.66664 0.166406
452 1 0.665047 0.59856 0.0864874
475 1 0.748736 0.663619 0.0662179
456 1 0.818589 0.586447 0.0940442
147 1 0.0821353 0.998773 0.424298
436 1 0.99118 0.567916 0.076426
647 1 0.904862 0.821519 0.399436
479 1 0.913804 0.645752 0.0853468
646 1 0.923396 0.912942 0.33935
85 1 0.501025 0.982761 0.143855
461 1 0.187982 0.673219 0.0130288
530 1 0.102461 0.761352 0.169382
483 1 0.0906284 0.835169 0.0739356
464 1 0.174458 0.755559 0.0803169
534 1 0.250148 0.756561 0.159162
487 1 0.251276 0.833468 0.0798645
557 1 0.175068 0.836138 0.181292
561 1 0.335012 0.832126 0.155144
468 1 0.328625 0.738936 0.0897231
472 1 0.505137 0.742247 0.0791263
491 1 0.420956 0.811592 0.0856281
538 1 0.41412 0.743925 0.156531
91 1 0.754657 0.997454 0.23937
709 1 0.506446 0.833265 0.507595
476 1 0.658677 0.754181 0.0760928
495 1 0.582588 0.826956 0.0796754
542 1 0.587258 0.742216 0.161518
525 1 0.822801 0.497835 0.177462
447 1 0.59499 0.491576 0.0976934
499 1 0.749851 0.831764 0.0911961
527 1 0.919467 0.519695 0.252629
693 1 0.825181 0.665796 0.499361
480 1 0.833979 0.74609 0.0895761
460 1 0.00698287 0.747229 0.0698093
550 1 0.928138 0.743286 0.152093
73 1 0.0149743 1.00253 0.155026
503 1 0.921388 0.838496 0.0826638
529 1 1.02475 0.671907 0.158442
554 1 0.0914049 0.921882 0.187438
484 1 0.00951166 0.909947 0.0888785
628 1 0.990012 0.898224 0.423684
488 1 0.166857 0.909544 0.0796484
558 1 0.247417 0.916695 0.173892
492 1 0.324641 0.910751 0.0807942
496 1 0.495467 0.901412 0.0697542
507 1 0.0613061 0.513693 0.238877
648 1 0.841053 0.915684 0.408224
702 1 0.25447 0.922953 0.489797
3 1 0.0970395 0.990562 0.0838767
566 1 0.577618 0.905746 0.160662
685 1 0.502619 0.676649 0.499447
500 1 0.674159 0.909047 0.0754918
705 1 0.332883 0.833934 0.499479
645 1 0.833164 0.820435 0.311676
504 1 0.819625 0.915082 0.0683473
574 1 0.917726 0.920895 0.171117
643 1 0.758447 0.836727 0.402845
506 1 0.0840427 0.57559 0.152784
531 1 0.0895388 0.668285 0.240563
578 1 0.0774753 0.592872 0.337664
508 1 1.00213 0.609747 0.243532
451 1 0.739781 0.498761 0.0912369
512 1 0.174947 0.590018 0.224352
510 1 0.260982 0.570736 0.166024
516 1 0.322956 0.585487 0.262055
609 1 0.343648 0.676091 0.338284
514 1 0.414446 0.594757 0.170328
539 1 0.424488 0.667902 0.252211
541 1 0.496553 0.657817 0.142668
520 1 0.507175 0.587683 0.235457
518 1 0.584126 0.589037 0.147117
543 1 0.590191 0.66495 0.235358
524 1 0.67053 0.577785 0.248372
522 1 0.743773 0.57516 0.176236
547 1 0.749883 0.676132 0.244131
526 1 0.906445 0.571334 0.166939
549 1 0.826585 0.671189 0.17276
528 1 0.823775 0.596316 0.249754
551 1 0.91532 0.672185 0.24621
621 1 0.835272 0.672146 0.326286
555 1 0.0989738 0.841092 0.258903
532 1 0.0192864 0.746352 0.250429
536 1 0.17998 0.746719 0.260889
535 1 0.254903 0.68112 0.263206
540 1 0.349706 0.755373 0.253726
633 1 0.351238 0.833897 0.326463
606 1 0.26081 0.754365 0.35036
637 1 0.496795 0.835205 0.331784
544 1 0.509702 0.754106 0.251785
563 1 0.429891 0.829362 0.233739
641 1 0.66037 0.831739 0.342975
565 1 0.501951 0.820907 0.156593
567 1 0.595734 0.826031 0.256867
618 1 0.742481 0.74768 0.330543
548 1 0.674831 0.757535 0.233812
546 1 0.746855 0.740474 0.148317
569 1 0.662143 0.831677 0.154239
571 1 0.755713 0.832701 0.21537
573 1 0.838519 0.850159 0.149331
552 1 0.822227 0.757803 0.23514
553 1 -0.0010144 0.829474 0.170673
575 1 0.916954 0.831761 0.236657
560 1 0.18445 0.918485 0.259425
556 1 -0.00258935 0.906739 0.250653
455 1 0.903054 0.495923 0.0812212
559 1 0.265918 0.833478 0.254411
630 1 0.271804 0.912352 0.338706
674 1 0.0807678 0.746039 0.501437
562 1 0.42039 0.908419 0.154884
564 1 0.340765 0.910768 0.245178
79 1 0.2729 0.989278 0.250509
481 1 -0.0074125 0.844518 0.0067463
686 1 0.590351 0.749627 0.504547
568 1 0.498979 0.921128 0.249085
572 1 0.65877 0.908729 0.236236
654 1 0.235222 0.591338 0.499486
642 1 0.743876 0.906754 0.312328
570 1 0.744943 0.929919 0.160422
576 1 0.830607 0.912635 0.234844
478 1 0.913849 0.739894 0.0102178
23 1 0.92285 0.994658 0.0752731
644 1 0.654586 0.923314 0.404399
580 1 -0.00127736 0.601375 0.42447
605 1 0.155148 0.656796 0.328757
584 1 0.159636 0.590593 0.419918
582 1 0.242658 0.575318 0.320693
588 1 0.328981 0.577137 0.420907
638 1 0.569136 0.911346 0.329525
632 1 0.173909 0.919138 0.404272
669 1 0.833818 0.50156 0.491482
640 1 0.505139 0.900845 0.416942
586 1 0.411547 0.591704 0.347727
592 1 0.487997 0.589357 0.431372
611 1 0.420504 0.663102 0.426727
613 1 0.509593 0.659299 0.351655
590 1 0.587818 0.588492 0.340432
617 1 0.657962 0.670787 0.323488
615 1 0.588767 0.667046 0.426145
596 1 0.674568 0.595804 0.419527
717 1 0.845867 0.836625 0.489883
594 1 0.751747 0.586627 0.340172
619 1 0.747977 0.668837 0.420078
1 1 0.00688098 0.988559 0.00480894
634 1 0.421611 0.930083 0.328246
623 1 0.914709 0.685219 0.414101
598 1 0.914432 0.590581 0.338729
600 1 0.836416 0.580437 0.416848
601 1 0.996348 0.670772 0.337572
602 1 0.0931806 0.751348 0.336479
604 1 -0.00243671 0.763713 0.409356
603 1 0.0861042 0.677552 0.414231
595 1 0.756083 0.499513 0.412315
607 1 0.251631 0.660061 0.413392
612 1 0.341651 0.767715 0.422076
608 1 0.179429 0.755472 0.422553
610 1 0.436142 0.743332 0.334968
635 1 0.427388 0.834873 0.409944
616 1 0.490619 0.752086 0.423975
636 1 0.345475 0.912011 0.427707
589 1 0.49956 0.506405 0.340929
626 1 0.0654878 0.915587 0.344341
625 1 1.02015 0.823885 0.324835
614 1 0.59336 0.748316 0.331118
620 1 0.670259 0.753154 0.421165
639 1 0.58263 0.833754 0.420545
627 1 0.081261 0.83658 0.425179
167 1 0.914545 0.997224 0.436152
629 1 0.172664 0.832042 0.343964
622 1 0.928633 0.758655 0.308966
624 1 0.833774 0.751052 0.40662
631 1 0.255589 0.833721 0.426411
11 1 0.407446 0.994639 0.0863302
81 1 0.336589 0.997415 0.160648
93 1 0.845013 1.00392 0.158178
505 1 -0.0124561 0.502851 0.15866
697 1 -0.00563996 0.814986 0.509619
681 1 0.326978 0.665928 0.489726
151 1 0.277703 0.996727 0.418273
519 1 0.579358 0.511796 0.250663
95 1 0.940745 1.01245 0.250445
457 1 0.00305959 0.645942 -0.011724
517 1 0.498845 0.507976 0.150453
585 1 0.337424 0.505267 0.333243
443 1 0.418323 0.500744 0.0706966
677 1 0.159109 0.676887 0.500206
15 1 0.578234 0.982651 0.0744171
17 1 0.665294 0.990735 -0.0109859
501 1 0.835348 0.822484 0.00720095
145 1 0.9951 0.98895 0.362239
515 1 0.423688 0.511339 0.257152
485 1 0.172755 0.836332 -0.0119208
163 1 0.749864 0.980967 0.392842
161 1 0.672462 0.99238 0.312128
593 1 0.667783 0.513501 0.338671
591 1 0.581406 0.511395 0.405386
650 1 0.0759643 0.573988 0.499771
502 1 0.91682 0.922297 -0.00492822
670 1 0.920912 0.574002 0.503006
658 1 0.405661 0.595624 0.501434
701 1 0.177614 0.838617 0.501962
673 1 -0.00770551 0.668115 0.521917
489 1 0.333025 0.827018 0.0121513
474 1 0.74941 0.756832 -0.000883956
9 1 0.323127 0.994122 0.00900364
690 1 0.757736 0.774967 0.492934
237 1 0.816761 0.977001 0.484764
13 1 0.510728 0.988211 -0.00255232
657 1 0.331042 0.502077 0.497489
438 1 0.247661 0.592099 0.0127666
465 1 0.324036 0.660645 0.00269529
494 1 0.581103 0.90328 0.00390329
652 1 0.994972 0.586483 0.577886
694 1 0.911155 0.740903 0.48681
311 1 0.910975 1.01322 0.744062
863 1 0.917143 0.811942 0.931305
656 1 0.154248 0.573653 0.572235
363 1 0.0809365 0.992221 0.903515
725 1 0.154828 0.514018 0.667065
807 1 0.597991 0.509041 0.914244
493 1 0.499232 0.825943 1.00368
660 1 0.32303 0.600005 0.575478
466 1 0.416375 0.752597 1.00489
718 1 0.923068 0.90758 0.516246
861 1 0.83791 0.827813 0.835614
664 1 0.503941 0.594813 0.593665
734 1 0.585022 0.585565 0.656435
668 1 0.668561 0.580279 0.581648
687 1 0.587326 0.67014 0.586224
691 1 0.754539 0.664511 0.587815
765 1 0.83536 0.670247 0.66435
799 1 0.224262 0.503854 0.910131
303 1 0.588245 0.99491 0.752339
672 1 0.829753 0.587119 0.59078
797 1 0.166305 0.511068 0.814588
841 1 8.17893e-05 0.828506 0.83574
675 1 0.0913278 0.651025 0.582866
699 1 0.0909439 0.836695 0.57585
680 1 0.162112 0.747779 0.584905
676 1 1.01419 0.750134 0.593871
477 1 0.823053 0.675952 0.996689
679 1 0.248714 0.667886 0.578303
703 1 0.251424 0.832823 0.584328
750 1 0.251702 0.74905 0.650753
777 1 0.338713 0.831134 0.659159
446 1 0.596713 0.572182 0.99569
803 1 0.400004 0.511633 0.907362
683 1 0.412362 0.662373 0.590831
684 1 0.345759 0.750694 0.57099
707 1 0.420629 0.834025 0.579989
299 1 0.41185 0.988869 0.750228
757 1 0.503864 0.659178 0.672935
688 1 0.489499 0.727287 0.585497
758 1 0.57513 0.741157 0.664607
785 1 0.662713 0.828338 0.67011
692 1 0.687818 0.741754 0.59322
696 1 0.82902 0.752932 0.576874
695 1 0.907718 0.65836 0.582087
766 1 0.930117 0.756123 0.667706
719 1 0.922807 0.826634 0.594062
307 1 0.751301 0.995837 0.757597
770 1 0.0847363 0.910493 0.651529
704 1 0.166708 0.911949 0.571673
774 1 0.254019 0.928335 0.657608
365 1 0.158154 0.9906 0.82559
731 1 0.41457 0.503012 0.746454
723 1 0.0812986 0.501262 0.746634
708 1 0.329278 0.925831 0.574036
778 1 0.425354 0.920752 0.644146
239 1 0.897606 0.997457 0.563848
727 1 0.253393 0.506634 0.749319
712 1 0.512514 0.925649 0.568673
711 1 0.582393 0.814252 0.582367
716 1 0.656725 0.920073 0.575378
782 1 0.584585 0.905797 0.662681
815 1 0.901527 0.495435 0.906827
781 1 0.504049 0.823132 0.661351
862 1 0.914753 0.915303 0.844384
715 1 0.745257 0.841622 0.586288
720 1 0.824263 0.909279 0.587522
700 1 -0.00707743 0.922395 0.597722
769 1 0.0162826 0.830536 0.668041
377 1 0.652987 0.986187 0.841113
383 1 0.926026 0.997725 0.914286
722 1 0.0822042 0.593954 0.677326
379 1 0.741159 0.9867 0.908475
295 1 0.266193 0.986593 0.749398
724 1 1.00538 0.585952 0.7585
858 1 0.756374 0.897506 0.83346
728 1 0.172436 0.591114 0.738664
726 1 0.242068 0.574454 0.660118
732 1 0.32146 0.592911 0.746221
798 1 0.243257 0.596303 0.841162
834 1 0.756345 0.759031 0.830546
825 1 0.334225 0.670556 0.816016
730 1 0.410064 0.570957 0.660713
852 1 0.326278 0.910938 0.92239
736 1 0.513048 0.569656 0.732569
753 1 0.330871 0.655733 0.672697
846 1 0.263931 0.913209 0.833867
759 1 0.586372 0.669079 0.74339
859 1 0.731098 0.830342 0.914371
806 1 0.585417 0.588465 0.821358
740 1 0.671351 0.584697 0.748923
738 1 0.74836 0.594828 0.675673
744 1 0.853096 0.587687 0.759824
761 1 0.666115 0.663351 0.673352
742 1 0.932567 0.58858 0.67628
814 1 0.929913 0.587663 0.843793
749 1 0.171008 0.676303 0.6606
745 1 -0.00830258 0.667027 0.662581
747 1 0.0688343 0.672484 0.760227
746 1 0.0750176 0.736689 0.681103
818 1 0.0872503 0.749797 0.831174
751 1 0.247642 0.681383 0.751104
752 1 0.169391 0.775783 0.739148
756 1 0.338312 0.76231 0.741585
754 1 0.418073 0.734488 0.671615
755 1 0.423576 0.661855 0.74575
826 1 0.411433 0.751273 0.832296
760 1 0.497831 0.739223 0.745749
764 1 0.678067 0.753251 0.757171
763 1 0.758063 0.663585 0.754787
762 1 0.756014 0.742525 0.672675
768 1 0.84163 0.762668 0.74478
748 1 1.00344 0.747187 0.751181
767 1 0.926555 0.671572 0.751222
838 1 0.922926 0.745051 0.843358
771 1 0.0836841 0.839489 0.759774
842 1 0.0668889 0.930724 0.822082
773 1 0.161788 0.83197 0.653528
864 1 0.833373 0.893303 0.920568
775 1 0.253403 0.835556 0.738995
776 1 0.170736 0.906398 0.726604
780 1 0.341241 0.905655 0.735558
853 1 0.499373 0.819731 0.835288
849 1 0.327504 0.829334 0.83449
779 1 0.433904 0.826094 0.738805
784 1 0.496517 0.921078 0.729717
855 1 0.563409 0.845724 0.913933
783 1 0.581838 0.795868 0.750914
788 1 0.673789 0.91316 0.757275
857 1 0.658436 0.822594 0.83498
856 1 0.484474 0.919848 0.923643
789 1 0.84187 0.822083 0.664185
786 1 0.746184 0.927904 0.665922
787 1 0.76496 0.82859 0.742571
790 1 0.906052 0.915823 0.661468
791 1 0.921418 0.837448 0.746632
772 1 0.999121 0.925442 0.731125
792 1 0.830081 0.91897 0.749186
5 1 0.181059 0.990898 1.00407
794 1 0.0918953 0.587686 0.816428
843 1 0.0820553 0.833959 0.91321
821 1 0.165997 0.664218 0.834123
497 1 0.658253 0.826681 1.00061
800 1 0.178889 0.614404 0.925675
804 1 0.322044 0.586782 0.918853
741 1 0.829056 0.502332 0.675398
802 1 0.396033 0.58116 0.823296
827 1 0.403967 0.671138 0.908422
844 1 1.00208 0.908903 0.923498
848 1 0.171188 0.919475 0.920568
808 1 0.503391 0.594014 0.910792
812 1 0.685563 0.574415 0.917455
829 1 0.490682 0.670599 0.837389
831 1 0.592209 0.6486 0.910239
833 1 0.674091 0.66144 0.825801
854 1 0.557799 0.904088 0.823168
860 1 0.650135 0.903649 0.912028
721 1 -0.00816089 0.502452 0.660821
850 1 0.410468 0.893026 0.840307
810 1 0.763206 0.582589 0.823451
816 1 0.827049 0.584687 0.904567
835 1 0.74186 0.662353 0.913687
839 1 0.911029 0.673202 0.929632
817 1 0.00492264 0.676496 0.844978
796 1 0.0225983 0.583459 0.90893
819 1 0.0954344 0.673017 0.911249
824 1 0.168461 0.750966 0.922726
820 1 -0.00589699 0.743212 0.932228
733 1 0.489764 0.498248 0.653734
845 1 0.163672 0.84114 0.835982
822 1 0.243109 0.746259 0.832771
823 1 0.263796 0.677829 0.919558
655 1 0.24969 0.495446 0.582679
828 1 0.336267 0.759162 0.921359
851 1 0.421883 0.838769 0.931011
832 1 0.496222 0.742797 0.918437
367 1 0.245188 1.00413 0.920409
830 1 0.57904 0.743573 0.84625
847 1 0.249413 0.846381 0.924269
836 1 0.658518 0.753843 0.918226
840 1 0.825723 0.749108 0.915685
837 1 0.84528 0.674377 0.840075
369 1 0.34396 0.985891 0.835717
235 1 0.743852 0.991237 0.582387
659 1 0.395507 0.508277 0.579562
462 1 0.262349 0.744606 1.00344
305 1 0.661202 1.00669 0.671255
663 1 0.588811 0.499848 0.587568
813 1 0.834344 0.499019 0.822623
739 1 0.756187 0.505995 0.74402
309 1 0.837977 0.991533 0.66755
678 1 0.241369 0.751542 0.507579
21 1 0.828577 0.981502 0.985004
665 1 0.678256 0.504164 0.50709
490 1 0.404013 0.924331 1.00567
442 1 0.406872 0.591773 0.983529
458 1 0.0844338 0.748268 0.993382
706 1 0.421677 0.923281 0.496495
225 1 0.342241 1.02352 0.502511
437 1 0.17841 0.51025 1.00439
682 1 0.416926 0.760696 0.492732
713 1 0.653104 0.83539 0.499435
689 1 0.678973 0.684511 0.498411
498 1 0.743004 0.909619 0.992802
454 1 0.920844 0.575524 0.969683
470 1 0.581807 0.747861 0.995435
662 1 0.570854 0.584418 0.501044
486 1 0.249243 0.921258 0.994257
469 1 0.504415 0.656182 0.994993
482 1 0.0907168 0.916407 0.990239
714 1 0.732384 0.91649 0.490869
698 1 0.0798051 0.920255 0.503531
434 1 0.0927853 0.579896 1.01107
450 1 0.747223 0.579385 1.00377
473 1 0.66587 0.664997 0.995835
445 1 0.502927 0.506245 0.992955
433 1 0.0273889 0.482567 0.981024
