ITEM: TIMESTEP
5400
ITEM: NUMBER OF ATOMS
864
ITEM: BOX BOUNDS pp pp pp
0.0000000000000000e+00 3.1559999999999999e+01
0.0000000000000000e+00 3.1559999999999999e+01
0.0000000000000000e+00 3.1559999999999999e+01
ITEM: ATOMS id type xs ys zs
8 1 0.157254 0.0813862 0.0771984
74 1 0.082305 0.0814044 0.153986
4 1 0.000564652 0.0830597 0.0833832
523 1 0.757784 0.503754 0.249029
583 1 0.239902 0.50608 0.403499
31 1 0.244436 0.157291 0.080601
589 1 0.503282 0.505385 0.337774
587 1 0.411753 0.496095 0.427898
163 1 0.745934 -0.0031353 0.411964
215 1 0.921988 0.348914 0.395883
12 1 0.333421 0.0857037 0.0870018
16 1 0.496806 0.0794323 0.0851333
82 1 0.423669 0.0819766 0.181628
214 1 0.942236 0.430441 0.324239
83 1 0.409418 0.00440198 0.257022
278 1 0.603093 0.416443 0.4861
657 1 0.310471 0.505713 0.504826
86 1 0.574446 0.0939893 0.183754
599 1 0.924834 0.500577 0.418416
211 1 0.773232 0.323372 0.400781
226 1 0.417329 0.0927733 0.50156
20 1 0.643065 0.077033 0.0919316
43 1 0.746096 0.165436 0.0958941
90 1 0.736845 0.0787198 0.152135
24 1 0.816201 0.0808128 0.0757051
47 1 0.917217 0.178739 0.101477
87 1 0.578888 0.00692116 0.268626
94 1 0.911863 0.0772594 0.156428
57 1 0.336017 0.335419 0.00193098
27 1 0.0724391 0.167785 0.099581
28 1 1.00916 0.246633 0.0833842
125 1 0.16182 0.33191 0.157227
32 1 0.159359 0.243393 0.077835
102 1 0.241183 0.25299 0.176703
36 1 0.33087 0.255702 0.0825409
521 1 0.667569 0.494341 0.165123
35 1 0.426235 0.178291 0.0899378
149 1 0.168823 -0.00262672 0.331789
40 1 0.506357 0.25122 0.0901663
39 1 0.585246 0.1665 0.0879411
44 1 0.650669 0.264327 0.0862184
109 1 0.491183 0.157536 0.18057
79 1 0.256613 -0.000830834 0.236265
285 1 0.85934 0.317613 0.482631
114 1 0.745629 0.255479 0.163604
67 1 0.747634 0.323214 0.0852872
113 1 0.656088 0.160387 0.167211
137 1 0.677854 0.328331 0.173747
141 1 0.84856 0.346457 0.184675
48 1 0.832494 0.254364 0.0834544
71 1 0.923731 0.321812 0.0902454
118 1 0.919038 0.254394 0.173783
51 1 0.0868307 0.326176 0.090238
56 1 0.1753 0.399436 0.0783435
122 1 0.0863087 0.409205 0.15624
52 1 -0.00551548 0.411373 0.0824345
216 1 0.843932 0.410023 0.424414
55 1 0.25781 0.335165 0.100782
129 1 0.348838 0.331689 0.181016
60 1 0.33578 0.410455 0.0930282
254 1 0.583439 0.234995 0.491258
19 1 0.727652 -0.00528019 0.0897579
153 1 0.324716 0.00552839 0.332647
507 1 0.0739244 0.505022 0.261013
59 1 0.420757 0.331399 0.101582
511 1 0.248694 0.512251 0.24203
63 1 0.577853 0.337059 0.0898325
64 1 0.506478 0.419701 0.0924645
134 1 0.585512 0.416696 0.166865
68 1 0.664873 0.405983 0.085091
205 1 0.507483 0.320934 0.325921
212 1 0.695135 0.404684 0.416487
138 1 0.756733 0.405491 0.169078
172 1 1.00342 0.244921 0.424785
72 1 0.838893 0.423274 0.102351
142 1 0.930221 0.420414 0.168389
519 1 0.595483 0.499031 0.253285
155 1 0.424266 0.0210596 0.418771
80 1 0.153223 0.0765324 0.245215
99 1 0.08544 0.166734 0.244421
78 1 0.253824 0.0902537 0.157864
585 1 0.324953 0.517642 0.327519
84 1 0.327204 0.0852761 0.240062
177 1 0.334159 0.151049 0.341179
101 1 0.179007 0.157122 0.164197
103 1 0.250988 0.171396 0.248935
154 1 0.41669 0.0755217 0.336982
203 1 0.420727 0.343059 0.41379
88 1 0.503053 0.0982921 0.262958
158 1 0.586812 0.0886173 0.333686
181 1 0.506898 0.17964 0.33864
185 1 0.67561 0.163509 0.323449
92 1 0.671404 0.0816855 0.252281
96 1 0.838021 0.0840164 0.246158
117 1 0.82844 0.165429 0.159953
115 1 0.750956 0.159625 0.236175
45 1 0.82588 0.17252 0.00231813
76 1 0.00680789 0.0852709 0.241617
166 1 0.925157 0.074298 0.332271
119 1 0.916591 0.178285 0.241027
98 1 0.0951237 0.247593 0.171173
97 1 -0.00162675 0.164954 0.176312
123 1 0.0851191 0.332838 0.246483
169 1 -0.0109827 0.169217 0.33718
104 1 0.164458 0.252312 0.252978
108 1 0.325613 0.24551 0.241714
127 1 0.231323 0.335983 0.2516
105 1 0.331178 0.168465 0.157812
107 1 0.406396 0.16739 0.256884
106 1 0.424958 0.245002 0.177215
110 1 0.580138 0.234844 0.174293
112 1 0.50343 0.238484 0.249339
111 1 0.580615 0.176089 0.263931
182 1 0.590465 0.252542 0.333749
135 1 0.591716 0.323754 0.239588
116 1 0.666818 0.244492 0.243047
189 1 0.837965 0.167572 0.322108
120 1 0.821171 0.247802 0.241467
121 1 0.00862312 0.329256 0.165153
193 1 0.0050368 0.337635 0.332452
100 1 0.0110113 0.254666 0.23824
208 1 0.506101 0.412165 0.437231
653 1 0.155726 0.508356 0.503032
126 1 0.256127 0.421867 0.173486
128 1 0.159405 0.424911 0.244526
132 1 0.326995 0.421931 0.25753
165 1 0.844371 -0.0123718 0.330454
130 1 0.422955 0.426844 0.173293
133 1 0.50656 0.328217 0.177132
131 1 0.427121 0.354764 0.257042
136 1 0.504274 0.427566 0.251284
258 1 0.758131 0.242404 0.493706
202 1 0.412799 0.429599 0.339595
206 1 0.598008 0.420462 0.328581
139 1 0.75106 0.329557 0.255694
140 1 0.679637 0.420241 0.251547
210 1 0.774775 0.41358 0.325723
198 1 0.236546 0.405863 0.334063
197 1 0.15136 0.329265 0.328977
124 1 1.01575 0.4174 0.245316
144 1 0.847653 0.432435 0.243744
143 1 0.936083 0.342769 0.247788
213 1 0.84579 0.334299 0.30342
25 1 -0.00843857 0.162491 0.0150501
192 1 0.854781 0.250757 0.407399
173 1 0.169875 0.158979 0.319359
204 1 0.322822 0.429708 0.412665
146 1 0.0777042 0.0836913 0.324385
152 1 0.167086 0.081825 0.410725
199 1 0.251669 0.334607 0.415835
201 1 0.334578 0.333265 0.327824
150 1 0.251001 0.0769962 0.328644
190 1 0.927476 0.259339 0.315376
253 1 0.501079 0.161016 0.518289
7 1 0.247145 -0.00479704 0.0984497
156 1 0.328016 0.0931536 0.417767
200 1 0.15598 0.41777 0.423545
513 1 0.331407 0.495035 0.164655
196 1 1.02495 0.415339 0.431917
160 1 0.508546 0.0969331 0.437805
164 1 0.680289 0.0880084 0.414747
162 1 0.761738 0.067939 0.33464
187 1 0.76794 0.164219 0.398658
194 1 0.0826768 0.419573 0.330709
257 1 0.678914 0.159021 0.498142
191 1 0.919907 0.163624 0.41512
168 1 0.831342 0.0755275 0.413499
148 1 0.00292817 0.0753004 0.418059
186 1 0.752699 0.240895 0.321213
195 1 0.0767834 0.319041 0.417368
170 1 0.084216 0.240711 0.32965
171 1 0.0857062 0.152945 0.411923
176 1 0.163146 0.241795 0.40129
188 1 0.680861 0.263895 0.413671
49 1 1.00379 0.326946 0.0189658
174 1 0.243729 0.253857 0.324969
175 1 0.259204 0.179832 0.415175
180 1 0.343175 0.25016 0.405453
178 1 0.417151 0.251536 0.322843
179 1 0.407795 0.166885 0.414479
21 1 0.812046 -0.000596241 -0.00192941
517 1 0.501818 0.499786 0.171791
209 1 0.678529 0.340836 0.318652
207 1 0.586804 0.341762 0.402899
183 1 0.595988 0.175253 0.405855
184 1 0.494075 0.253895 0.418598
447 1 0.573214 0.505584 0.0792371
281 1 0.665214 0.323119 0.502107
515 1 0.406985 0.501751 0.248152
73 1 0.99334 -0.0156642 0.160082
147 1 0.0834116 -0.0022132 0.425442
161 1 0.661875 -0.00324522 0.343488
443 1 0.39999 0.509803 0.0796601
93 1 0.833138 -0.00196752 0.165874
593 1 0.688252 0.491891 0.335764
159 1 0.5737 0.0031084 0.423246
81 1 0.345661 -7.27526e-05 0.159579
2 1 0.0688845 0.0800841 0.000544415
245 1 0.171499 0.176126 0.499696
265 1 1.01218 0.321477 0.507849
238 1 0.911458 0.0678223 0.509634
246 1 0.260352 0.247102 0.507306
277 1 0.495099 0.321223 0.509196
26 1 0.0898517 0.252234 0.00122765
53 1 0.169501 0.32942 -0.00202484
230 1 0.595808 0.0984371 0.49886
6 1 0.23816 0.0886953 -0.00289364
22 1 0.905986 0.085111 0.00935652
34 1 0.418611 0.239516 -0.00870626
54 1 0.268787 0.415886 0.00961893
665 1 0.672863 0.502688 0.489319
221 1 0.167762 0.00464199 0.50962
270 1 0.252431 0.419669 0.518895
229 1 0.494163 0.0165251 0.506692
61 1 0.484383 0.326995 0.00884698
46 1 0.910215 0.25325 0.0116147
220 1 -0.0137134 0.082139 0.584541
313 1 0.995007 0.178072 0.669714
365 1 0.170849 -0.00524113 0.843566
249 1 0.33011 0.171391 0.495666
224 1 0.171459 0.0838066 0.581978
228 1 0.327911 0.0840983 0.579074
294 1 0.249624 0.0627105 0.667646
30 1 0.238399 0.248538 1.00371
298 1 0.428561 0.0945152 0.665688
241 1 0.00426326 0.152795 0.490187
232 1 0.506811 0.0859881 0.593302
255 1 0.584193 0.175588 0.58362
302 1 0.60058 0.0815375 0.665884
250 1 0.406976 0.263127 0.503192
325 1 0.524724 0.168685 0.668414
222 1 0.248855 0.0738187 0.492536
236 1 0.669033 0.0844343 0.581544
259 1 0.756405 0.167132 0.583591
293 1 0.163046 0.00512449 0.668596
239 1 0.914293 -0.0180277 0.582117
333 1 0.834532 0.161615 0.681401
261 1 0.841107 0.164241 0.489536
733 1 0.49647 0.48974 0.652079
240 1 0.83503 0.0826944 0.587197
263 1 0.907082 0.169342 0.593549
310 1 0.923956 0.0705574 0.674528
38 1 0.573688 0.244187 0.993564
431 1 0.902197 0.327112 0.916437
243 1 0.0756705 0.154442 0.568711
244 1 -0.00321068 0.233205 0.58244
314 1 0.0914583 0.234711 0.682355
248 1 0.155459 0.240773 0.597086
267 1 0.0764709 0.327765 0.598206
247 1 0.250731 0.160141 0.592993
318 1 0.256922 0.246021 0.677135
317 1 0.162662 0.168027 0.677738
66 1 0.731428 0.415763 1.00306
739 1 0.743319 0.504034 0.739189
251 1 0.411586 0.172579 0.585638
252 1 0.33261 0.249295 0.586091
256 1 0.492326 0.247991 0.587887
322 1 0.415021 0.255746 0.673697
260 1 0.680155 0.23969 0.57127
283 1 0.756081 0.320773 0.579748
330 1 0.756188 0.24295 0.659763
273 1 0.331713 0.33134 0.492778
361 1 0.998474 -0.000820152 0.842952
234 1 0.759419 0.0861547 0.497524
264 1 0.825353 0.24718 0.570824
287 1 0.919401 0.332915 0.574567
14 1 0.580676 0.0765497 1.00362
272 1 0.151809 0.406948 0.601491
338 1 0.0882075 0.422081 0.685828
815 1 0.910723 0.497775 0.922195
797 1 0.163482 0.501895 0.851447
795 1 0.0940131 0.487581 0.930692
271 1 0.246206 0.315421 0.580149
432 1 0.822673 0.428188 0.927247
29 1 0.157234 0.167992 1.00494
342 1 0.248604 0.419804 0.670481
275 1 0.415759 0.329703 0.595507
276 1 0.338573 0.398131 0.583594
280 1 0.482355 0.404673 0.581262
346 1 0.413593 0.419326 0.664893
345 1 0.336594 0.329331 0.685563
301 1 0.497636 0.000565306 0.658004
279 1 0.583441 0.323182 0.568272
793 1 0.99452 0.5077 0.836854
420 1 0.330533 0.415549 0.917015
284 1 0.682213 0.40959 0.563936
288 1 0.835498 0.421805 0.578443
418 1 0.426103 0.412881 0.817928
217 1 -0.00368634 -0.00537271 0.50026
375 1 0.60558 0.00837523 0.911014
268 1 1.01383 0.415199 0.608379
735 1 0.584788 0.494564 0.739149
423 1 0.583214 0.341716 0.912717
290 1 0.0751387 0.0906791 0.667177
315 1 0.084266 0.157897 0.766239
362 1 0.064114 0.0788559 0.823454
426 1 0.755534 0.42349 0.839599
363 1 0.0648658 -0.00567924 0.917314
282 1 0.761624 0.390694 0.49421
296 1 0.160205 0.0725971 0.754225
319 1 0.256379 0.151353 0.742051
404 1 0.660769 0.250306 0.922227
366 1 0.241334 0.0706975 0.8413
235 1 0.74716 0.00570393 0.567299
300 1 0.340898 0.0731226 0.741066
307 1 0.751359 0.00308396 0.741102
399 1 0.575625 0.164886 0.913557
383 1 0.91248 0.0100786 0.93356
304 1 0.517024 0.087425 0.742066
308 1 0.683335 0.0835543 0.749596
397 1 0.506622 0.159337 0.823128
327 1 0.611026 0.168299 0.738516
374 1 0.588613 0.0769763 0.834066
401 1 0.652622 0.173114 0.837192
10 1 0.411517 0.0758598 1.01674
306 1 0.745682 0.0821749 0.668036
312 1 0.828878 0.0890007 0.741988
331 1 0.746723 0.170781 0.743345
378 1 0.764864 0.0938266 0.822609
396 1 0.346991 0.236238 0.91126
292 1 1.00357 0.0615877 0.741429
385 1 -0.00135603 0.166634 0.839668
405 1 0.844224 0.172539 0.813019
335 1 0.916935 0.169967 0.731437
419 1 0.41069 0.334304 0.928315
316 1 1.00211 0.239639 0.759656
386 1 0.0884725 0.241433 0.845494
393 1 0.34274 0.151675 0.830538
320 1 0.168083 0.251005 0.761595
413 1 0.165715 0.32336 0.845833
321 1 0.332562 0.151453 0.669164
324 1 0.328794 0.248992 0.763408
323 1 0.417717 0.168327 0.7316
347 1 0.41874 0.324895 0.759997
394 1 0.434993 0.233059 0.827261
349 1 0.481725 0.330692 0.670334
329 1 0.668174 0.181142 0.658182
326 1 0.583794 0.256639 0.654211
328 1 0.50995 0.263684 0.747434
398 1 0.585047 0.255967 0.831451
332 1 0.667924 0.25593 0.745793
355 1 0.746091 0.327379 0.740245
402 1 0.745891 0.238004 0.821842
357 1 0.832882 0.334926 0.662554
334 1 0.904476 0.258558 0.660571
336 1 0.838374 0.256766 0.746592
359 1 0.914015 0.342816 0.750714
341 1 0.166552 0.324381 0.673884
339 1 0.0886166 0.326508 0.746784
409 1 1.00403 0.323906 0.827929
340 1 -0.00205182 0.42446 0.747827
410 1 0.0737481 0.421572 0.84575
415 1 0.265729 0.324455 0.929278
416 1 0.184497 0.411712 0.919743
343 1 0.245308 0.328685 0.757682
344 1 0.173695 0.416571 0.749856
414 1 0.255423 0.420545 0.832576
348 1 0.335211 0.424812 0.761218
417 1 0.342575 0.331592 0.84063
352 1 0.509769 0.420996 0.736111
428 1 0.662827 0.415565 0.90944
421 1 0.503828 0.34083 0.833738
350 1 0.580358 0.402781 0.648725
351 1 0.584314 0.345531 0.749323
353 1 0.660189 0.328319 0.656991
356 1 0.661414 0.41989 0.737559
354 1 0.74751 0.404801 0.652988
360 1 0.828141 0.41197 0.738284
37 1 0.496296 0.155075 1.00427
337 1 0.990512 0.329167 0.665948
427 1 0.742342 0.321851 0.890712
358 1 0.917668 0.423955 0.663477
429 1 0.829011 0.335784 0.830291
430 1 0.910853 0.426337 0.836132
390 1 0.251393 0.265083 0.842356
368 1 0.133055 0.0721116 0.913219
422 1 0.589073 0.414774 0.827569
391 1 0.243825 0.161505 0.91755
412 1 0.983736 0.40938 0.919838
372 1 0.334553 0.0775658 0.921924
370 1 0.426109 0.0849957 0.816213
395 1 0.425291 0.15063 0.902528
376 1 0.509475 0.0848065 0.908229
425 1 0.671952 0.343623 0.81884
424 1 0.485416 0.409979 0.914661
408 1 0.844305 0.242235 0.927689
389 1 0.163228 0.149613 0.838503
406 1 0.918365 0.249585 0.822631
380 1 0.681336 0.0860436 0.890016
384 1 0.838917 0.0920768 0.916163
403 1 0.758082 0.16118 0.910587
382 1 0.925304 0.0933032 0.824071
364 1 0.995851 0.0854085 0.911312
407 1 0.915977 0.17334 0.918313
388 1 0.994871 0.257327 0.928804
400 1 0.507254 0.258283 0.910373
387 1 0.071035 0.17179 0.922454
411 1 0.0762488 0.321915 0.912426
392 1 0.171696 0.229618 0.907126
305 1 0.670488 -0.007085 0.661412
231 1 0.578168 0.0153626 0.572469
811 1 0.74751 0.513099 0.903461
741 1 0.836734 0.509436 0.660149
743 1 0.91282 0.49998 0.752356
373 1 0.503555 0.00486593 0.82934
379 1 0.748689 0.00897584 0.91052
721 1 -0.000510441 0.506005 0.676982
723 1 0.0739752 0.505423 0.768495
807 1 0.577464 0.506093 0.909405
371 1 0.429645 0.0205344 0.909982
663 1 0.592862 0.49404 0.566169
659 1 0.39937 0.505064 0.578243
291 1 0.0869545 -0.0141015 0.753231
667 1 0.757343 0.48934 0.572505
242 1 0.084428 0.24352 0.489836
41 1 0.653115 0.160864 1.00798
274 1 0.413225 0.41772 0.498919
729 1 0.315095 0.501581 0.656823
223 1 0.253236 -0.00178399 0.578441
227 1 0.422004 0.00231191 0.580543
369 1 0.353432 0.00866692 0.835368
50 1 0.0714886 0.401016 0.986594
33 1 0.342555 0.160674 0.992347
65 1 0.663204 0.333545 0.999156
42 1 0.728864 0.237578 0.993284
69 1 0.812506 0.331026 0.983283
269 1 0.160047 0.326024 0.504269
669 1 0.845218 0.509542 0.487492
18 1 0.746908 0.0964461 0.990896
262 1 0.929095 0.233764 0.493376
233 1 0.666783 0.00781581 0.499409
58 1 0.414338 0.423884 1.00639
286 1 0.943348 0.41765 0.4989
70 1 0.910934 0.407863 1.00551
62 1 0.55983 0.424713 0.996328
266 1 0.0843002 0.405006 0.525214
218 1 0.0946671 0.0810147 0.492117
436 1 -0.00216451 0.586705 0.0747777
459 1 0.0807056 0.65834 0.100879
533 1 0.169589 0.676201 0.160958
527 1 0.922326 0.515495 0.250593
440 1 0.164494 0.577547 0.0748828
463 1 0.235448 0.658208 0.0864793
91 1 0.754085 1.00988 0.233265
455 1 0.921 0.508129 0.084136
17 1 0.670164 1.0139 0.000616779
444 1 0.327252 0.578385 0.0810604
448 1 0.500568 0.584122 0.0813429
467 1 0.42116 0.66114 0.0877754
579 1 0.0887703 0.511173 0.408825
518 1 0.598742 0.583582 0.16861
646 1 0.919014 0.89896 0.333858
474 1 0.755714 0.744265 -0.012579
452 1 0.656371 0.58486 0.0749815
522 1 0.746298 0.597855 0.165648
475 1 0.743566 0.671807 0.0782686
545 1 0.654318 0.667701 0.157185
628 1 0.000619295 0.913859 0.412145
456 1 0.83227 0.584371 0.091273
526 1 0.918264 0.580464 0.169511
529 1 0.00184014 0.660258 0.165072
479 1 0.909007 0.672655 0.0896002
530 1 0.0849235 0.748998 0.148218
23 1 0.909365 0.999965 0.0761312
157 1 0.500924 1.00964 0.345
464 1 0.169135 0.762137 0.0864926
487 1 0.250845 0.834757 0.0975518
468 1 0.342996 0.756491 0.0941543
89 1 0.656264 0.989321 0.171328
472 1 0.490641 0.741884 0.0831089
75 1 0.0888944 0.994816 0.251531
441 1 0.346395 0.511832 -0.00610105
471 1 0.575199 0.66919 0.0877494
495 1 0.58029 0.829122 0.0945375
476 1 0.661027 0.752337 0.081648
525 1 0.823504 0.504786 0.160868
11 1 0.435812 0.983103 0.0921735
546 1 0.743763 0.757645 0.174823
499 1 0.740353 0.818848 0.0762118
15 1 0.572039 0.992627 0.070897
460 1 -0.00302726 0.749656 0.0808844
480 1 0.831848 0.749763 0.0695246
550 1 0.905513 0.76636 0.156926
549 1 0.818172 0.686207 0.162845
85 1 0.508703 1.00651 0.188407
151 1 0.248373 0.990601 0.427214
483 1 0.0846862 0.841255 0.0759368
484 1 -0.0218233 0.896801 0.0751623
445 1 0.501733 0.515386 -0.0181291
488 1 0.167853 0.922948 0.0814071
558 1 0.247532 0.915173 0.167939
492 1 0.340768 0.923703 0.0808879
597 1 0.832196 0.523066 0.321766
491 1 0.409731 0.847348 0.0841035
496 1 0.494632 0.901436 0.0684515
497 1 0.650298 0.829057 0.00634507
500 1 0.658079 0.917923 0.0933391
167 1 0.924957 0.997011 0.406241
458 1 0.0785887 0.742329 0.00603479
570 1 0.733351 0.919102 0.179888
505 1 0.0192067 0.497947 0.15608
504 1 0.820145 0.917428 0.0853082
503 1 0.889062 0.841519 0.0687664
481 1 1.0051 0.829847 -0.00657963
574 1 0.900645 0.917763 0.160224
577 1 0.997332 0.522672 0.338186
506 1 0.0866991 0.585283 0.168691
578 1 0.0873022 0.592298 0.332278
512 1 0.16875 0.587831 0.248382
531 1 0.0814682 0.670077 0.237735
510 1 0.246546 0.589243 0.17115
535 1 0.234981 0.672586 0.252193
605 1 0.16187 0.67137 0.332292
645 1 0.831445 0.837996 0.32067
537 1 0.340357 0.663741 0.158793
514 1 0.421161 0.586728 0.175537
516 1 0.329185 0.581274 0.240147
539 1 0.413777 0.652801 0.257465
520 1 0.514093 0.58684 0.252584
524 1 0.667896 0.575308 0.255212
590 1 0.590432 0.586276 0.343231
543 1 0.596661 0.668088 0.248142
648 1 0.828152 0.917829 0.410545
547 1 0.733903 0.672041 0.249858
594 1 0.750185 0.596124 0.325447
581 1 0.168611 0.497061 0.324
508 1 -0.00430833 0.5918 0.259526
621 1 0.829329 0.687788 0.334395
528 1 0.823729 0.60983 0.252872
532 1 1.00751 0.756239 0.238975
555 1 0.0853152 0.833178 0.246413
601 1 0.00542608 0.685883 0.324692
534 1 0.258082 0.743492 0.167053
557 1 0.168852 0.835521 0.165668
536 1 0.169501 0.756309 0.247084
540 1 0.331056 0.750699 0.242232
559 1 0.258573 0.836456 0.259215
541 1 0.504459 0.660265 0.168897
609 1 0.331117 0.676558 0.321885
538 1 0.42755 0.739306 0.180108
563 1 0.429834 0.827729 0.246565
637 1 0.495173 0.830204 0.342558
544 1 0.501172 0.754634 0.254065
542 1 0.563662 0.752666 0.168426
567 1 0.567724 0.83294 0.257522
548 1 0.651807 0.758494 0.250964
552 1 0.840158 0.764866 0.241091
551 1 0.922301 0.678042 0.249815
625 1 -0.00133687 0.824186 0.32483
622 1 0.913735 0.756155 0.322599
573 1 0.809992 0.8455 0.159342
498 1 0.737186 0.914685 0.00864283
554 1 0.0865317 0.922471 0.164084
556 1 0.00721242 0.915577 0.249805
642 1 0.756019 0.92935 0.327978
561 1 0.333942 0.85366 0.164387
644 1 0.66395 0.913723 0.425362
560 1 0.174438 0.912809 0.245913
564 1 0.345168 0.914041 0.250317
562 1 0.422602 0.915496 0.183295
634 1 0.412072 0.927862 0.340585
568 1 0.497475 0.911832 0.262559
95 1 0.911448 1.00091 0.232466
595 1 0.77012 0.490051 0.416852
565 1 0.490969 0.829575 0.157484
566 1 0.545815 0.912266 0.162215
638 1 0.575346 0.903143 0.345625
569 1 0.657639 0.825066 0.164204
571 1 0.739176 0.833038 0.252286
572 1 0.652273 0.914259 0.256593
576 1 0.835192 0.915199 0.248782
633 1 0.346663 0.825856 0.337035
705 1 0.334881 0.836196 0.49701
553 1 1.00037 0.831544 0.156955
636 1 0.342369 0.920558 0.431233
575 1 0.920663 0.842892 0.241018
435 1 0.0913515 0.482056 0.078492
647 1 0.906315 0.831196 0.41697
584 1 0.160084 0.584723 0.419141
640 1 0.490254 0.912229 0.42845
654 1 0.235406 0.585628 0.514735
582 1 0.24829 0.590605 0.340014
588 1 0.338127 0.590272 0.408242
632 1 0.166083 0.911303 0.422351
145 1 1.00345 0.99435 0.32918
586 1 0.427412 0.567796 0.327777
592 1 0.494987 0.592339 0.419715
611 1 0.418688 0.663349 0.431686
613 1 0.493849 0.664687 0.328483
670 1 0.924317 0.58304 0.505353
615 1 0.587943 0.66908 0.415561
649 1 0.0215469 0.49634 0.527809
596 1 0.661688 0.586949 0.414512
617 1 0.662814 0.678378 0.332009
718 1 0.9188 0.911567 0.488957
598 1 0.910984 0.600551 0.324468
580 1 -0.0114219 0.600875 0.419816
600 1 0.840852 0.580448 0.410586
602 1 0.0993752 0.761292 0.34007
603 1 0.0813479 0.675055 0.415641
627 1 0.0892109 0.821981 0.424667
606 1 0.265129 0.748806 0.337575
631 1 0.245232 0.829506 0.434197
608 1 0.17534 0.74216 0.421799
607 1 0.246874 0.665914 0.425596
629 1 0.182883 0.834835 0.34302
630 1 0.263248 0.904713 0.347116
612 1 0.33533 0.72329 0.421523
610 1 0.418866 0.740273 0.346188
635 1 0.410311 0.833821 0.424156
641 1 0.659905 0.827911 0.341272
639 1 0.572137 0.842504 0.436932
616 1 0.492061 0.756644 0.431507
614 1 0.580645 0.744127 0.349995
620 1 0.665249 0.752673 0.427195
626 1 0.0881009 0.905863 0.332723
604 1 0.0027324 0.754037 0.421062
619 1 0.735375 0.660378 0.419322
618 1 0.745936 0.756023 0.321406
643 1 0.745417 0.837129 0.418051
623 1 0.912891 0.693631 0.422961
77 1 0.163382 0.99243 0.165701
624 1 0.823043 0.758918 0.410433
439 1 0.257737 0.492865 0.080811
509 1 0.15691 0.498817 0.159927
710 1 0.576902 0.926622 0.508626
591 1 0.582118 0.496199 0.420281
490 1 0.414136 0.925611 -0.0145183
3 1 0.0797374 0.996713 0.073272
451 1 0.746721 0.491052 0.0824079
681 1 0.324324 0.666088 0.512023
702 1 0.246964 0.91708 0.509809
457 1 0.99348 0.662323 -0.013524
450 1 0.743579 0.583805 0.0051294
478 1 0.918352 0.750556 -0.00150528
501 1 0.818931 0.83996 -0.00675869
237 1 0.842931 0.9974 0.485466
449 1 0.651035 0.49391 -0.0131458
717 1 0.827273 0.83929 0.495785
686 1 0.578624 0.753036 0.494081
465 1 0.322448 0.681247 0.0219528
698 1 0.0900543 0.922721 0.502043
666 1 0.755893 0.583318 0.487688
689 1 0.66447 0.656762 0.502736
678 1 0.245833 0.750265 0.502469
714 1 0.752966 0.914705 0.501153
693 1 0.827045 0.683792 0.490596
442 1 0.420264 0.580942 -0.00207232
485 1 0.184235 0.83636 0.00327927
454 1 0.893286 0.580602 -0.00156206
502 1 0.910138 0.906632 -0.00695288
675 1 0.0817338 0.689011 0.595101
656 1 0.156606 0.590786 0.596989
749 1 0.15891 0.664096 0.677225
722 1 0.079151 0.578997 0.685607
655 1 0.225793 0.495321 0.596801
679 1 0.232636 0.676209 0.593842
726 1 0.239535 0.581018 0.678473
295 1 0.271745 0.998679 0.758448
219 1 0.0759347 1.01462 0.566245
660 1 0.30888 0.581236 0.590618
863 1 0.920858 0.820582 0.917421
753 1 0.321618 0.667607 0.653914
706 1 0.428997 0.91846 0.511756
303 1 0.592536 0.998333 0.744535
664 1 0.480948 0.58361 0.58987
687 1 0.59255 0.653425 0.578083
709 1 0.505018 0.837609 0.509999
381 1 0.827433 0.999657 0.836666
668 1 0.681507 0.573964 0.579239
672 1 0.833342 0.57746 0.571345
738 1 0.757129 0.585565 0.662233
761 1 0.667089 0.663873 0.658787
9 1 0.332721 1.0098 1.00859
311 1 0.915101 0.99858 0.756528
652 1 1.00095 0.581928 0.593987
742 1 0.924364 0.594731 0.67536
799 1 0.258467 0.508798 0.918136
469 1 0.489955 0.660996 0.997801
680 1 0.164605 0.760246 0.591994
676 1 1.00581 0.757189 0.597865
746 1 0.0893391 0.756277 0.67432
299 1 0.424063 0.999374 0.74296
750 1 0.241758 0.748746 0.678982
684 1 0.323376 0.75478 0.579515
703 1 0.250521 0.834967 0.598112
651 1 0.101341 0.498533 0.60453
683 1 0.421015 0.671616 0.584941
473 1 0.660243 0.673237 0.990542
813 1 0.831751 0.500646 0.82726
671 1 0.92859 0.502971 0.594106
688 1 0.495869 0.749439 0.587317
692 1 0.664171 0.745867 0.57907
691 1 0.751826 0.665023 0.573876
696 1 0.819775 0.75786 0.584375
715 1 0.756557 0.851822 0.591035
297 1 0.333593 1.00061 0.663397
433 1 1.00083 0.480381 0.990979
695 1 0.909849 0.675339 0.589429
719 1 0.918802 0.848891 0.587787
765 1 0.834678 0.656534 0.665218
453 1 0.840684 0.496984 1.01115
699 1 0.0684292 0.837392 0.584423
704 1 0.167491 0.932376 0.587289
774 1 0.234557 0.915795 0.669417
857 1 0.679074 0.846591 0.841479
707 1 0.410524 0.829518 0.583483
708 1 0.340349 0.909279 0.581394
777 1 0.334786 0.827433 0.663261
727 1 0.253804 0.503905 0.750112
462 1 0.249566 0.754699 1.0056
805 1 0.507517 0.495907 0.821201
711 1 0.590473 0.847179 0.577068
712 1 0.502522 0.924361 0.593765
801 1 0.338715 0.511559 0.843182
716 1 0.667869 0.932676 0.57322
769 1 0.988371 0.848641 0.678971
700 1 0.000145909 0.922585 0.572049
720 1 0.827526 0.932295 0.585299
790 1 0.8996 0.909638 0.666703
858 1 0.756118 0.920945 0.83158
728 1 0.163668 0.573313 0.774903
794 1 0.0870426 0.572494 0.844805
817 1 1.0058 0.645795 0.848058
724 1 -0.00482037 0.584986 0.756167
745 1 0.0112683 0.676698 0.679624
864 1 0.832959 0.916614 0.913611
732 1 0.332797 0.572944 0.749065
861 1 0.831631 0.839584 0.834476
730 1 0.405131 0.580629 0.671891
802 1 0.414478 0.594923 0.831173
757 1 0.495439 0.673718 0.678807
755 1 0.405052 0.670817 0.745458
493 1 0.495811 0.8189 1.00734
855 1 0.585334 0.830648 0.908338
736 1 0.494293 0.589483 0.75422
734 1 0.580653 0.578861 0.64512
740 1 0.663604 0.573349 0.730216
860 1 0.67702 0.928301 0.91251
466 1 0.414386 0.747547 1.00647
744 1 0.8336 0.575887 0.738813
803 1 0.428383 0.493795 0.907481
767 1 0.919955 0.675675 0.75758
814 1 0.912669 0.574887 0.843405
747 1 0.0901199 0.646847 0.759239
821 1 0.172889 0.677208 0.840856
751 1 0.245041 0.671277 0.758257
752 1 0.147685 0.742761 0.758969
822 1 0.245109 0.758275 0.824322
849 1 0.34695 0.816582 0.832895
775 1 0.258695 0.833241 0.742301
845 1 0.15239 0.820326 0.829504
756 1 0.336363 0.755053 0.752395
754 1 0.427293 0.755669 0.667945
760 1 0.508121 0.74456 0.748106
779 1 0.423661 0.830411 0.754404
853 1 0.505689 0.828654 0.825899
829 1 0.512057 0.671458 0.828852
758 1 0.590266 0.760725 0.655038
759 1 0.598278 0.666211 0.743042
783 1 0.590365 0.825217 0.759237
830 1 0.593937 0.749386 0.830677
763 1 0.747728 0.66829 0.738603
764 1 0.666166 0.742983 0.754274
762 1 0.736885 0.755916 0.653739
834 1 0.761321 0.753173 0.831512
768 1 0.836721 0.742069 0.747766
748 1 -0.006736 0.762578 0.760451
766 1 0.91963 0.753461 0.663893
838 1 0.916208 0.740866 0.841173
773 1 0.154454 0.844706 0.65523
770 1 0.0773352 0.920492 0.664722
771 1 0.0818391 0.838287 0.748838
842 1 0.0731774 0.92125 0.84205
776 1 0.16475 0.916467 0.751422
846 1 0.247349 0.888312 0.834384
778 1 0.413398 0.916993 0.655435
780 1 0.328845 0.896754 0.750763
854 1 0.585561 0.918552 0.818466
782 1 0.583526 0.920493 0.669466
781 1 0.505435 0.83951 0.668346
784 1 0.502227 0.919915 0.743821
788 1 0.666482 0.91346 0.746401
785 1 0.665414 0.853199 0.647459
787 1 0.747915 0.823912 0.744463
786 1 0.75477 0.913018 0.675304
789 1 0.827702 0.820396 0.668825
792 1 0.835026 0.921213 0.757151
862 1 0.921212 0.906443 0.841711
772 1 -0.00270335 0.918965 0.752008
791 1 0.906486 0.821518 0.751226
841 1 0.00877103 0.843785 0.825904
737 1 0.670656 0.489943 0.643972
848 1 0.168659 0.904707 0.91372
796 1 0.98121 0.566483 0.932194
309 1 0.82927 1.01029 0.666697
800 1 0.170041 0.602382 0.920966
798 1 0.259063 0.594705 0.842113
823 1 0.25175 0.672572 0.919814
825 1 0.323554 0.677456 0.835061
377 1 0.674451 0.997941 0.820095
804 1 0.349026 0.604719 0.925961
843 1 0.0899748 0.831499 0.928689
827 1 0.427237 0.668285 0.907164
725 1 0.160264 0.506498 0.685483
806 1 0.59402 0.577613 0.816974
852 1 0.327936 0.923483 0.906159
808 1 0.500511 0.581779 0.892646
812 1 0.665092 0.578718 0.904686
856 1 0.506162 0.916897 0.905349
850 1 0.412937 0.923981 0.841114
809 1 0.672423 0.488433 0.822446
810 1 0.733269 0.574414 0.811624
816 1 0.830246 0.589878 0.906858
837 1 0.835751 0.655428 0.809907
367 1 0.248855 0.996972 0.932984
470 1 0.577482 0.739347 0.98233
839 1 0.9211 0.664297 0.91135
847 1 0.269581 0.824097 0.924494
819 1 0.0848898 0.667946 0.908911
820 1 1.00448 0.747005 0.921988
818 1 0.0682436 0.752297 0.83812
824 1 0.163984 0.749645 0.917354
828 1 0.34399 0.743776 0.922127
826 1 0.423395 0.737066 0.826448
851 1 0.417935 0.82974 0.918049
832 1 0.490404 0.746799 0.916492
831 1 0.58822 0.662072 0.904069
836 1 0.666958 0.757847 0.931454
833 1 0.673298 0.677854 0.838444
844 1 0.989298 0.912573 0.917459
289 1 1.00717 0.993366 0.66089
835 1 0.754549 0.661725 0.923277
859 1 0.749353 0.843024 0.922208
840 1 0.836906 0.73754 0.915218
731 1 0.424395 0.503323 0.747593
434 1 0.0950088 0.577018 0.991438
677 1 0.16714 0.669121 0.500504
437 1 0.171156 0.475725 0.996913
482 1 0.0869993 0.917619 0.991999
661 1 0.498188 0.500483 0.513566
658 1 0.414965 0.577548 0.504812
701 1 0.157156 0.832102 0.508156
13 1 0.497757 0.996078 0.974915
685 1 0.498182 0.668362 0.50087
690 1 0.743293 0.756334 0.499092
650 1 0.0665527 0.594393 0.494487
673 1 0.999663 0.680388 0.517723
1 1 -0.0055528 1.00444 1.00382
486 1 0.260566 0.907368 1.0224
446 1 0.575898 0.600061 1.00086
494 1 0.593712 0.924972 0.982955
461 1 0.16596 0.678257 1.00472
694 1 0.911066 0.772036 0.510816
438 1 0.245112 0.572749 1.00936
662 1 0.578481 0.58116 0.500107
489 1 0.327493 0.831813 1.0174
713 1 0.673904 0.845218 0.512185
477 1 0.831747 0.664308 1.00648
5 1 0.163121 1.00429 0.999901
697 1 0.00409042 0.831211 0.503513
225 1 0.341236 1.01497 0.497251
682 1 0.413944 0.747577 0.496672
674 1 0.078524 0.747793 0.509411
