ITEM: TIMESTEP
15500
ITEM: NUMBER OF ATOMS
864
ITEM: BOX BOUNDS pp pp pp
0.0000000000000000e+00 3.1559999999999999e+01
0.0000000000000000e+00 3.1559999999999999e+01
0.0000000000000000e+00 3.1559999999999999e+01
ITEM: ATOMS id type xs ys zs
8 1 0.180769 0.0724473 0.0938103
27 1 0.0906572 0.177546 0.0899945
519 1 0.566407 0.493196 0.245712
453 1 0.843283 0.497172 0.00532259
53 1 0.174315 0.326695 0.00679895
93 1 0.826554 0.00743523 0.181055
31 1 0.244495 0.163825 0.0708635
101 1 0.158855 0.158424 0.178394
42 1 0.747519 0.239423 0.00560204
49 1 0.989329 0.325744 0.00215504
12 1 0.329573 0.073078 0.0746374
35 1 0.40808 0.154792 0.0722381
105 1 0.336281 0.153911 0.159449
16 1 0.489729 0.0603656 0.0808748
455 1 0.927489 0.491751 0.0879973
20 1 0.678056 0.0823919 0.0689032
109 1 0.490807 0.169556 0.166075
513 1 0.336271 0.49816 0.159555
216 1 0.832547 0.411425 0.422337
90 1 0.750908 0.0919575 0.183297
447 1 0.575119 0.491289 0.0869992
70 1 0.911111 0.415732 0.00122115
24 1 0.833546 0.0919242 0.0974948
4 1 0.0175363 0.0882212 0.0900207
47 1 0.923398 0.148951 0.0960314
161 1 0.662392 0.00873407 0.340976
51 1 0.0733289 0.324627 0.0849575
98 1 0.0886106 0.252671 0.167233
125 1 0.16835 0.326326 0.154799
266 1 0.0790924 0.413696 0.499994
507 1 0.0848091 0.499429 0.253139
32 1 0.160058 0.243378 0.0802405
55 1 0.256756 0.343488 0.0812165
102 1 0.250735 0.248096 0.16345
129 1 0.340117 0.34332 0.154579
523 1 0.744491 0.494919 0.258827
597 1 0.837052 0.495789 0.346422
36 1 0.331564 0.245831 0.0845726
39 1 0.58304 0.165094 0.0854868
113 1 0.656011 0.168429 0.159108
40 1 0.509841 0.25398 0.0815408
110 1 0.584282 0.240338 0.179303
23 1 0.926901 0.00211305 0.0965242
43 1 0.748816 0.16783 0.0947868
44 1 0.658716 0.252735 0.0829235
48 1 0.830803 0.253301 0.0888898
137 1 0.664176 0.32154 0.174472
77 1 0.175061 0.00857016 0.172432
28 1 0.998932 0.252017 0.0889135
71 1 0.923755 0.356211 0.0850965
595 1 0.752877 0.499754 0.42623
97 1 0.0162979 0.165988 0.168165
89 1 0.664346 0.0231844 0.15484
52 1 0.0025544 0.431352 0.0717952
56 1 0.159248 0.41007 0.0770379
95 1 0.931741 0.00802816 0.258538
91 1 0.74913 0.00234676 0.258713
126 1 0.246197 0.418238 0.156424
649 1 0.0179581 0.496947 0.492738
242 1 0.0746008 0.245606 0.493077
214 1 0.916232 0.414544 0.333041
60 1 0.332647 0.418482 0.079972
59 1 0.429223 0.33114 0.0754066
130 1 0.414958 0.419264 0.172538
64 1 0.49274 0.408094 0.0904081
133 1 0.511792 0.31604 0.175424
63 1 0.591301 0.34375 0.09582
134 1 0.580425 0.415853 0.171341
68 1 0.670153 0.408522 0.0869672
141 1 0.834233 0.339353 0.173662
67 1 0.752626 0.340905 0.0999576
72 1 0.842875 0.424595 0.0884019
196 1 0.00814034 0.413179 0.417262
245 1 0.178358 0.154616 0.496794
587 1 0.402107 0.498299 0.415494
238 1 0.918535 0.0788436 0.491205
212 1 0.660038 0.42259 0.423691
74 1 0.0978935 0.0795553 0.172439
591 1 0.574052 0.499893 0.43489
78 1 0.258794 0.0732901 0.170031
80 1 0.161948 0.0760893 0.260468
103 1 0.261115 0.165118 0.254935
46 1 0.907754 0.256454 0.00264918
577 1 0.999581 0.487926 0.339635
45 1 0.850969 0.176369 0.00689847
241 1 0.995937 0.158699 0.487545
84 1 0.338996 0.0672028 0.249569
82 1 0.41204 0.0762099 0.162211
86 1 0.573544 0.0848552 0.165083
88 1 0.502864 0.0782028 0.250703
111 1 0.5738 0.161057 0.255733
92 1 0.66523 0.0967512 0.2561
215 1 0.917666 0.330591 0.420465
96 1 0.83345 0.0828695 0.25471
162 1 0.737416 0.0869756 0.33641
210 1 0.751748 0.422538 0.336151
76 1 0.0105185 0.0909572 0.253821
94 1 0.92377 0.0763634 0.175255
166 1 0.916398 0.0950859 0.329448
121 1 0.98693 0.333642 0.172528
99 1 0.093336 0.171714 0.263732
104 1 0.181717 0.244739 0.245679
197 1 0.155082 0.324668 0.327816
174 1 0.252936 0.25105 0.334077
106 1 0.424549 0.252161 0.171471
108 1 0.343474 0.245486 0.245152
107 1 0.407294 0.154589 0.24293
131 1 0.421268 0.340844 0.249324
178 1 0.426803 0.254924 0.338773
112 1 0.512364 0.26013 0.269276
116 1 0.66822 0.251288 0.259965
205 1 0.504797 0.325856 0.366788
182 1 0.593988 0.250704 0.341775
117 1 0.834451 0.156961 0.174491
114 1 0.746596 0.255275 0.17015
115 1 0.746119 0.176712 0.250694
120 1 0.8265 0.258802 0.252221
185 1 0.660622 0.164112 0.34545
186 1 0.742393 0.256012 0.332107
118 1 0.911185 0.241914 0.172424
119 1 0.912779 0.167976 0.251498
100 1 0.00257787 0.243272 0.238837
143 1 0.921981 0.338443 0.25479
190 1 0.917834 0.253456 0.325073
213 1 0.826846 0.343821 0.331532
123 1 0.0812639 0.335251 0.243909
122 1 0.0820111 0.403138 0.150814
194 1 0.102587 0.410273 0.351454
128 1 0.1694 0.422213 0.242394
127 1 0.257042 0.336736 0.236588
201 1 0.336834 0.333402 0.328285
198 1 0.246086 0.403757 0.326625
132 1 0.336203 0.411801 0.249614
202 1 0.428599 0.409094 0.347305
135 1 0.587961 0.337722 0.260207
209 1 0.666892 0.352851 0.332011
136 1 0.500463 0.40262 0.265495
140 1 0.667032 0.421097 0.238072
138 1 0.757878 0.431443 0.17523
172 1 0.99994 0.258188 0.410428
139 1 0.750606 0.347482 0.256326
142 1 0.910359 0.416677 0.183782
193 1 0.00309631 0.336445 0.332798
144 1 0.839021 0.427872 0.266446
124 1 0.000701617 0.415247 0.263262
146 1 0.0769641 0.066414 0.340359
169 1 0.00256748 0.17085 0.339903
443 1 0.42234 0.496279 0.077644
234 1 0.758017 0.0511378 0.49859
66 1 0.754197 0.426693 0.00557311
204 1 0.347523 0.411325 0.407603
152 1 0.175375 0.0775061 0.422366
150 1 0.256698 0.0763642 0.328565
19 1 0.751109 0.014351 0.0819967
218 1 0.0803027 0.0928446 0.495528
34 1 0.413738 0.245318 0.000553533
156 1 0.350246 0.0851013 0.420412
154 1 0.424114 0.0615585 0.325317
15 1 0.58656 0.00302849 0.0792989
158 1 0.578373 0.0840042 0.334334
160 1 0.520766 0.0799507 0.419042
183 1 0.595067 0.175691 0.427511
189 1 0.827307 0.173703 0.327881
164 1 0.67759 0.0759811 0.428905
168 1 0.828758 0.0763401 0.407871
187 1 0.758875 0.162003 0.408445
505 1 0.00859536 0.499249 0.16892
206 1 0.576876 0.419453 0.343872
148 1 0.00468544 0.0730068 0.415029
207 1 0.584637 0.328321 0.432274
191 1 0.910382 0.178899 0.408708
170 1 0.0859563 0.24508 0.340508
171 1 0.0952559 0.161126 0.40856
173 1 0.185703 0.160966 0.341216
199 1 0.259866 0.341379 0.408648
176 1 0.189648 0.237693 0.419039
175 1 0.264432 0.154159 0.417441
180 1 0.342297 0.245085 0.411425
208 1 0.482442 0.410854 0.436262
177 1 0.340871 0.167723 0.33687
181 1 0.497444 0.175953 0.326102
179 1 0.430035 0.157658 0.408842
200 1 0.186151 0.424515 0.432977
184 1 0.503813 0.239643 0.430964
515 1 0.398007 0.492034 0.25303
195 1 0.100317 0.319473 0.422915
593 1 0.66852 0.488031 0.324238
203 1 0.416613 0.325425 0.43065
188 1 0.678837 0.248192 0.422683
192 1 0.842702 0.256759 0.398757
211 1 0.751905 0.337137 0.408211
1 1 0.00731285 0.00137622 0.0131892
151 1 0.244988 0.00371181 0.409489
69 1 0.838478 0.338611 0.00377863
29 1 0.161464 0.156056 0.00399576
229 1 0.501412 0.00884618 0.493579
253 1 0.502281 0.162962 0.496756
269 1 0.183346 0.34156 0.495925
37 1 0.494225 0.171036 0.00218687
246 1 0.260733 0.232203 0.499384
222 1 0.257528 0.0757645 0.498586
281 1 0.679943 0.324057 0.493034
14 1 0.580666 0.0900334 0.0144043
221 1 0.16348 0.00609123 0.495808
41 1 0.672223 0.175325 0.00495849
217 1 0.00543954 0.00613563 0.499981
21 1 0.826948 0.012999 0.00244286
50 1 0.0810862 0.410828 0.0104985
25 1 0.994237 0.18001 0.00479267
224 1 0.163549 0.0836858 0.586037
220 1 0.998345 0.0746392 0.600297
243 1 0.0877369 0.164134 0.572344
803 1 0.406476 0.486879 0.913068
381 1 0.83149 0.00214977 0.845568
431 1 0.912698 0.344768 0.916606
228 1 0.339899 0.0716888 0.580874
251 1 0.416573 0.159785 0.597775
298 1 0.423094 0.0879925 0.674345
321 1 0.339502 0.154898 0.673278
445 1 0.520042 0.499401 0.983219
232 1 0.498443 0.0875616 0.603522
430 1 0.928901 0.415223 0.832054
427 1 0.745491 0.350895 0.903842
325 1 0.495973 0.172976 0.677897
432 1 0.839855 0.423919 0.917377
236 1 0.672814 0.0907495 0.599451
240 1 0.832626 0.0662606 0.574995
259 1 0.753863 0.165974 0.584439
815 1 0.928265 0.494059 0.900945
307 1 0.757435 0.00347845 0.755353
299 1 0.410021 0.00417028 0.744369
383 1 0.921117 0.00877185 0.916335
425 1 0.666547 0.345512 0.826737
263 1 0.913455 0.155856 0.581376
230 1 0.591206 0.0841845 0.508712
721 1 0.00895321 0.498493 0.653326
807 1 0.588824 0.498085 0.903909
314 1 0.091078 0.24977 0.648369
277 1 0.511083 0.322913 0.504136
262 1 0.921159 0.247648 0.508063
248 1 0.167147 0.245376 0.560435
247 1 0.25419 0.159626 0.588602
252 1 0.341211 0.246452 0.586907
271 1 0.261915 0.329027 0.592563
341 1 0.171325 0.334818 0.651228
345 1 0.340667 0.328539 0.67019
274 1 0.401823 0.419085 0.510411
256 1 0.500781 0.260018 0.589929
322 1 0.412585 0.243817 0.666143
255 1 0.57791 0.160147 0.588279
279 1 0.600909 0.33915 0.576017
793 1 0.00969743 0.497461 0.827487
741 1 0.828706 0.488213 0.6595
260 1 0.673058 0.242995 0.583525
283 1 0.750577 0.339458 0.580427
330 1 0.756277 0.237832 0.657378
357 1 0.820923 0.3365 0.665479
244 1 0.999678 0.245604 0.58747
264 1 0.837223 0.243805 0.583412
287 1 0.910811 0.339081 0.576695
313 1 0.996194 0.157811 0.680896
267 1 0.0741787 0.320048 0.573861
268 1 0.00461225 0.420246 0.572336
225 1 0.333868 0.00333457 0.50251
428 1 0.681802 0.444444 0.925898
272 1 0.178755 0.412855 0.582174
276 1 0.330668 0.436104 0.585604
342 1 0.253332 0.415176 0.655086
275 1 0.41917 0.334665 0.583912
280 1 0.492397 0.427535 0.584498
346 1 0.412289 0.41994 0.670402
273 1 0.33631 0.332915 0.506161
667 1 0.742431 0.497362 0.579756
350 1 0.568656 0.410234 0.65837
10 1 0.42082 0.0807172 0.987955
258 1 0.74706 0.238462 0.502506
219 1 0.0843891 0.00544427 0.569502
284 1 0.664682 0.423418 0.570656
353 1 0.667302 0.322403 0.661712
288 1 0.83173 0.414011 0.575753
795 1 0.0770834 0.497245 0.924822
231 1 0.583264 0.012085 0.592163
239 1 0.914326 0.00326435 0.575149
385 1 0.992439 0.178736 0.837824
290 1 0.0871116 0.0631567 0.66273
317 1 0.139079 0.151427 0.66142
315 1 0.0752973 0.161942 0.744393
296 1 0.165889 0.0706369 0.750761
294 1 0.246492 0.0797885 0.669572
300 1 0.327695 0.0796248 0.744848
671 1 0.914378 0.495423 0.58858
323 1 0.409026 0.17597 0.755319
393 1 0.328419 0.157213 0.82472
311 1 0.909223 0.00283137 0.752207
302 1 0.599544 0.069164 0.675052
304 1 0.504675 0.0839561 0.743786
327 1 0.574316 0.165073 0.757984
374 1 0.589103 0.0760818 0.835054
397 1 0.506452 0.169184 0.837085
308 1 0.670024 0.0724887 0.754531
306 1 0.768928 0.08554 0.656993
312 1 0.844868 0.0891035 0.750184
310 1 0.910128 0.0842554 0.664771
292 1 0.985553 0.083059 0.751895
335 1 0.917869 0.166311 0.762036
320 1 0.152733 0.239087 0.738982
339 1 0.0818914 0.3201 0.735077
337 1 0.00139952 0.341695 0.653088
386 1 0.0820549 0.258707 0.825109
319 1 0.239781 0.15097 0.744853
318 1 0.228714 0.247912 0.673199
390 1 0.235441 0.231074 0.818425
413 1 0.168336 0.33365 0.825194
343 1 0.23572 0.33422 0.741701
324 1 0.326591 0.248018 0.736891
394 1 0.425684 0.252301 0.837301
349 1 0.485723 0.342011 0.67028
347 1 0.404613 0.315943 0.759863
326 1 0.586066 0.237171 0.668863
328 1 0.486551 0.247044 0.748602
421 1 0.504706 0.323958 0.81779
398 1 0.589261 0.266713 0.830348
329 1 0.656695 0.160263 0.671414
332 1 0.666022 0.246162 0.752775
331 1 0.750938 0.166071 0.751201
355 1 0.751681 0.324989 0.761887
333 1 0.841373 0.166119 0.670475
336 1 0.83553 0.258484 0.735973
316 1 5.66495e-05 0.240718 0.7501
334 1 0.92203 0.252024 0.669562
359 1 0.925284 0.334347 0.742363
412 1 0.00505084 0.406756 0.923286
338 1 0.0890812 0.413827 0.65626
344 1 0.162202 0.413176 0.748728
348 1 0.327841 0.422021 0.72428
417 1 0.326205 0.329437 0.832385
410 1 0.0879658 0.41775 0.828601
723 1 0.0906737 0.49653 0.747079
418 1 0.405928 0.421959 0.816691
352 1 0.501503 0.4218 0.74129
409 1 0.000495304 0.342103 0.814169
351 1 0.594452 0.336599 0.743993
422 1 0.578579 0.421324 0.827322
424 1 0.511225 0.421751 0.900635
426 1 0.745693 0.423756 0.830209
356 1 0.678052 0.420749 0.745537
354 1 0.749112 0.408882 0.665627
429 1 0.836688 0.34226 0.833177
414 1 0.25897 0.415406 0.821167
340 1 0.00764513 0.422496 0.74249
360 1 0.8411 0.410401 0.746833
358 1 0.923857 0.415314 0.664484
270 1 0.265693 0.410233 0.504698
362 1 0.067779 0.0747891 0.82789
364 1 0.00647565 0.0846289 0.911124
6 1 0.243828 0.0650685 0.982337
366 1 0.238745 0.0827438 0.844026
368 1 0.155963 0.083976 0.917459
377 1 0.662947 0.000336412 0.838981
420 1 0.323322 0.412748 0.920509
801 1 0.3255 0.493035 0.837025
372 1 0.33244 0.0825172 0.910458
370 1 0.415989 0.0724073 0.841242
395 1 0.416798 0.16784 0.909635
62 1 0.594609 0.426701 0.990426
406 1 0.922805 0.264622 0.832182
376 1 0.520575 0.0877864 0.918162
401 1 0.665424 0.158208 0.824001
380 1 0.670043 0.0783726 0.926346
399 1 0.595717 0.171809 0.906891
33 1 0.334624 0.153163 0.992475
249 1 0.33877 0.158872 0.51713
403 1 0.734363 0.176289 0.918526
378 1 0.763444 0.0871357 0.827828
384 1 0.827126 0.0900726 0.917559
388 1 0.00323192 0.257904 0.920229
407 1 0.909559 0.183907 0.915745
382 1 0.910396 0.0899956 0.841198
387 1 0.0766108 0.170314 0.920101
411 1 0.0990284 0.343692 0.919204
392 1 0.165343 0.238917 0.916107
415 1 0.233233 0.337376 0.922142
391 1 0.243881 0.166797 0.916317
389 1 0.153702 0.15971 0.824292
282 1 0.751698 0.427643 0.500353
419 1 0.413823 0.341913 0.908656
396 1 0.345472 0.241112 0.924511
400 1 0.499208 0.252385 0.920597
743 1 0.926154 0.496026 0.757185
423 1 0.576587 0.334225 0.910214
416 1 0.163186 0.423372 0.914986
405 1 0.833561 0.182192 0.822678
402 1 0.748325 0.246089 0.834491
404 1 0.655084 0.262393 0.908854
408 1 0.836591 0.257009 0.921143
254 1 0.588012 0.247573 0.517027
278 1 0.575896 0.426074 0.508469
250 1 0.42431 0.240577 0.518012
57 1 0.317563 0.327317 0.997465
30 1 0.249884 0.246535 0.991599
13 1 0.497343 0.00218497 0.999072
26 1 0.0887942 0.253407 0.995193
2 1 0.0759839 0.0974709 0.996115
38 1 0.580134 0.237804 0.992669
61 1 0.513442 0.342314 0.998783
437 1 0.159587 0.497376 0.998109
265 1 0.987812 0.341483 0.503538
22 1 0.92073 0.0843553 0.997208
58 1 0.426187 0.40951 0.992141
286 1 0.923046 0.427599 0.500834
226 1 0.427398 0.0820852 0.52398
65 1 0.662748 0.339648 0.995316
261 1 0.828811 0.152425 0.501199
257 1 0.687706 0.146835 0.500628
18 1 0.75511 0.0993228 0.999781
285 1 0.821317 0.337469 0.500825
54 1 0.250979 0.414311 0.995708
436 1 0.996557 0.584918 0.0926816
459 1 0.0668904 0.673229 0.0837677
506 1 0.0884244 0.588331 0.151035
673 1 0.994804 0.670998 0.492033
440 1 0.171345 0.58582 0.0797003
510 1 0.255048 0.588048 0.144575
145 1 0.0048311 0.99319 0.335996
444 1 0.347637 0.57839 0.0928696
448 1 0.502929 0.588466 0.0833569
73 1 0.0063902 0.997643 0.177112
514 1 0.408856 0.577369 0.187278
438 1 0.250642 0.601622 0.00368738
452 1 0.655376 0.595107 0.085173
457 1 0.994572 0.678462 0.0075123
157 1 0.517885 0.991948 0.339078
545 1 0.666538 0.679892 0.160688
501 1 0.828819 0.852565 0.0135758
522 1 0.747177 0.578141 0.17531
475 1 0.755007 0.679826 0.0918644
456 1 0.843884 0.584306 0.0864365
81 1 0.325897 0.991312 0.168708
530 1 0.0744845 0.741373 0.181435
460 1 0.993382 0.760606 0.0910047
483 1 0.0759367 0.840443 0.101734
463 1 0.24213 0.68229 0.0786272
537 1 0.320727 0.681876 0.165599
464 1 0.15448 0.748274 0.0912581
468 1 0.327922 0.753634 0.0701415
534 1 0.234882 0.741384 0.162372
467 1 0.418729 0.670969 0.0836281
472 1 0.49398 0.741964 0.0788195
541 1 0.497944 0.660739 0.172443
565 1 0.488866 0.844728 0.153831
471 1 0.58234 0.666875 0.0932441
476 1 0.666711 0.752799 0.0751106
569 1 0.659649 0.824799 0.157165
542 1 0.574916 0.759873 0.154177
689 1 0.669525 0.664782 0.496461
165 1 0.832178 0.989502 0.330667
499 1 0.74421 0.840406 0.0827445
546 1 0.750931 0.764746 0.156859
479 1 0.918267 0.672349 0.105659
480 1 0.845119 0.766443 0.0898758
529 1 0.00213515 0.659528 0.193717
589 1 0.499484 0.507441 0.332976
477 1 0.845239 0.669787 0.0174496
557 1 0.162747 0.832802 0.168965
484 1 0.00334642 0.920425 0.091859
554 1 0.0802629 0.923299 0.171315
511 1 0.25745 0.502629 0.226056
487 1 0.24002 0.812974 0.0764309
488 1 0.168605 0.925328 0.0997727
492 1 0.337996 0.916576 0.0683976
561 1 0.325456 0.818782 0.153545
461 1 0.162549 0.666905 0.00441804
517 1 0.480062 0.508489 0.161084
491 1 0.415946 0.829776 0.0736279
599 1 0.92242 0.506892 0.413628
159 1 0.59086 0.990605 0.417942
647 1 0.928995 0.829962 0.403758
496 1 0.48737 0.93004 0.072573
495 1 0.577874 0.842922 0.0691505
500 1 0.676274 0.921122 0.0910815
566 1 0.592226 0.915731 0.151541
481 1 0.985542 0.852755 0.00782307
646 1 0.907846 0.915849 0.3191
504 1 0.834413 0.933709 0.0940113
482 1 0.0797961 0.912084 0.00718537
706 1 0.423078 0.917101 0.499482
503 1 0.916764 0.855757 0.0936522
79 1 0.243282 0.991358 0.256409
153 1 0.341606 0.994319 0.329653
574 1 0.913271 0.923538 0.181406
7 1 0.24758 0.994469 0.0794999
508 1 0.0067417 0.577017 0.250969
533 1 0.162692 0.660686 0.162173
578 1 0.102099 0.589843 0.332261
3 1 0.076626 0.990122 0.0951697
648 1 0.849862 0.905066 0.414345
512 1 0.173864 0.587257 0.240494
605 1 0.182037 0.682011 0.349309
582 1 0.245337 0.595303 0.312381
11 1 0.40272 0.990922 0.0607755
149 1 0.159674 0.982567 0.327168
640 1 0.504579 0.920535 0.41586
516 1 0.327039 0.605982 0.254074
638 1 0.582331 0.91902 0.322476
520 1 0.498088 0.584546 0.261399
518 1 0.574356 0.580499 0.169791
439 1 0.261618 0.507058 0.0798194
543 1 0.582364 0.669249 0.243343
524 1 0.660152 0.570966 0.239381
528 1 0.827538 0.579052 0.260622
526 1 0.918379 0.569506 0.186739
693 1 0.830205 0.671284 0.49066
549 1 0.831028 0.656059 0.175158
435 1 0.0756135 0.500099 0.0687114
621 1 0.826568 0.662079 0.338569
644 1 0.663504 0.91063 0.422547
531 1 0.0962204 0.665149 0.254022
536 1 0.171285 0.752755 0.253439
555 1 0.0769472 0.829316 0.24703
625 1 0.00107527 0.829468 0.338349
602 1 0.084844 0.750688 0.331868
535 1 0.24843 0.684725 0.252295
540 1 0.334458 0.74978 0.242745
629 1 0.163904 0.828072 0.325353
609 1 0.329444 0.668389 0.343588
539 1 0.420098 0.666064 0.241836
538 1 0.407829 0.754342 0.146438
610 1 0.409482 0.740081 0.33245
613 1 0.508876 0.664529 0.332411
544 1 0.490474 0.746229 0.236931
614 1 0.589738 0.745936 0.3287
548 1 0.664636 0.750057 0.246974
567 1 0.578383 0.829858 0.230587
547 1 0.746286 0.678129 0.239304
552 1 0.822302 0.751947 0.250387
645 1 0.826856 0.843488 0.335224
571 1 0.741432 0.838301 0.252626
553 1 0.985625 0.826944 0.175139
551 1 0.910206 0.660644 0.244728
532 1 0.980711 0.751524 0.252537
573 1 0.825525 0.843008 0.172307
550 1 0.901891 0.749172 0.173225
575 1 0.899956 0.841473 0.251007
87 1 0.576165 0.991448 0.243848
626 1 0.0764672 0.90645 0.330132
559 1 0.253155 0.837425 0.244746
560 1 0.158203 0.911339 0.249007
558 1 0.254388 0.908376 0.164475
563 1 0.40615 0.831778 0.240015
564 1 0.329854 0.922373 0.25552
562 1 0.391629 0.903119 0.158893
635 1 0.421294 0.840174 0.413719
568 1 0.496828 0.91116 0.232789
572 1 0.668219 0.915766 0.250384
634 1 0.438899 0.912555 0.328002
570 1 0.744026 0.931508 0.174104
633 1 0.340679 0.843623 0.330048
642 1 0.737433 0.913583 0.33824
576 1 0.816505 0.920508 0.250105
705 1 0.335717 0.838548 0.499999
556 1 0.00143428 0.903378 0.252328
653 1 0.152208 0.506096 0.49474
603 1 0.0889258 0.67552 0.407971
580 1 0.0182887 0.584889 0.398756
521 1 0.666478 0.508487 0.150855
632 1 0.156361 0.913725 0.426146
702 1 0.244912 0.933041 0.495121
584 1 0.173866 0.602108 0.425729
588 1 0.343689 0.590798 0.418805
502 1 0.908141 0.930986 0.0184447
636 1 0.338227 0.911768 0.421787
498 1 0.748606 0.925641 0.000831421
586 1 0.407783 0.586006 0.329956
592 1 0.491754 0.594915 0.417391
601 1 0.00522713 0.668729 0.322329
631 1 0.247786 0.835854 0.416416
590 1 0.583372 0.581157 0.339446
615 1 0.585853 0.667607 0.407716
596 1 0.658297 0.568918 0.409484
594 1 0.747433 0.590364 0.337547
600 1 0.830981 0.587388 0.425492
619 1 0.733638 0.669892 0.417082
623 1 0.932097 0.651433 0.415392
598 1 0.918126 0.584853 0.32797
622 1 0.895377 0.743683 0.33157
630 1 0.252601 0.923597 0.330411
604 1 0.991322 0.740381 0.407433
606 1 0.254844 0.764062 0.328909
607 1 0.263809 0.677784 0.435667
608 1 0.166053 0.754607 0.433259
624 1 0.828478 0.761222 0.414438
611 1 0.406313 0.671538 0.420653
612 1 0.339031 0.759742 0.4158
616 1 0.502199 0.748211 0.406215
627 1 0.087632 0.833168 0.411553
617 1 0.655868 0.66251 0.326754
639 1 0.583672 0.817517 0.40474
637 1 0.518834 0.821768 0.321352
641 1 0.658238 0.836411 0.329696
643 1 0.747107 0.842699 0.418099
618 1 0.728628 0.736037 0.330235
620 1 0.660691 0.751262 0.418664
628 1 0.000278786 0.910636 0.426153
509 1 0.159553 0.502107 0.152254
167 1 0.920584 0.991551 0.409044
527 1 0.930461 0.506089 0.26669
147 1 0.0769332 0.984036 0.413782
686 1 0.584887 0.750013 0.494923
485 1 0.159792 0.829093 0.00501075
585 1 0.315476 0.514757 0.317433
525 1 0.844831 0.502493 0.187995
75 1 0.0832671 0.994017 0.244096
85 1 0.499562 0.994787 0.157908
474 1 0.756299 0.74826 0.0111058
163 1 0.756217 0.998935 0.405672
579 1 0.0907861 0.502861 0.409037
83 1 0.418921 0.982066 0.237227
697 1 0.00475948 0.829683 0.494285
717 1 0.842557 0.839285 0.495555
661 1 0.497247 0.505229 0.497199
658 1 0.424266 0.580385 0.497211
465 1 0.328797 0.665803 0.0123113
478 1 0.922114 0.769355 0.0112123
583 1 0.247917 0.511016 0.403681
454 1 0.911339 0.574366 0.00672809
451 1 0.760704 0.516502 0.0877381
449 1 0.666492 0.510974 0.0109791
581 1 0.179347 0.505466 0.315484
155 1 0.425495 0.997322 0.418528
718 1 0.927677 0.914609 0.499506
469 1 0.496889 0.664369 0.00672942
662 1 0.578603 0.588413 0.486476
701 1 0.16797 0.834834 0.490307
682 1 0.417604 0.76325 0.49229
237 1 0.839702 0.983039 0.483249
685 1 0.504485 0.679219 0.495017
666 1 0.749184 0.576695 0.495363
442 1 0.411957 0.586864 0.00632263
714 1 0.747973 0.918763 0.498749
674 1 0.0700508 0.753675 0.48419
17 1 0.663225 0.995408 0.00607113
441 1 0.334026 0.516392 0.00373632
446 1 0.581537 0.582749 0.0020958
669 1 0.839521 0.508308 0.498086
675 1 0.081828 0.68158 0.591457
722 1 0.0896829 0.589325 0.649018
652 1 0.00283876 0.588529 0.58387
656 1 0.172854 0.589809 0.569471
726 1 0.247442 0.581497 0.659714
844 1 0.986909 0.914418 0.905898
660 1 0.332273 0.582445 0.592258
679 1 0.250829 0.683334 0.575701
664 1 0.507186 0.581565 0.572619
757 1 0.508594 0.663378 0.657538
730 1 0.418431 0.591861 0.656463
668 1 0.657519 0.590106 0.579792
687 1 0.592375 0.668569 0.572276
735 1 0.5833 0.501634 0.753564
734 1 0.585232 0.587562 0.660251
651 1 0.0896494 0.50154 0.581187
862 1 0.919543 0.924347 0.824542
738 1 0.764819 0.58628 0.674573
663 1 0.572097 0.504385 0.596422
672 1 0.819801 0.584049 0.582864
765 1 0.832673 0.666417 0.655311
361 1 0.985812 0.9951 0.820952
864 1 0.834061 0.927441 0.925037
797 1 0.159075 0.513054 0.820284
745 1 0.99609 0.66849 0.663657
676 1 0.00247514 0.745557 0.574131
746 1 0.0913361 0.756417 0.663426
654 1 0.263692 0.58547 0.500707
680 1 0.173627 0.759907 0.579356
684 1 0.343107 0.752424 0.579643
683 1 0.416385 0.686012 0.581343
688 1 0.512144 0.752183 0.58518
754 1 0.418323 0.764422 0.675511
295 1 0.250967 0.993587 0.761085
692 1 0.660307 0.749432 0.575978
711 1 0.577889 0.830799 0.588524
677 1 0.168123 0.675186 0.502431
694 1 0.918615 0.749803 0.50207
781 1 0.504647 0.829906 0.677164
691 1 0.742741 0.673417 0.584334
379 1 0.746561 0.996524 0.930571
715 1 0.742771 0.836303 0.581208
811 1 0.760342 0.508926 0.907598
695 1 0.920069 0.658712 0.588379
696 1 0.831865 0.759211 0.586948
699 1 0.0863086 0.831301 0.582146
773 1 0.168745 0.836051 0.656522
297 1 0.319772 0.997051 0.67859
309 1 0.840093 0.997164 0.676035
703 1 0.257212 0.852598 0.586555
704 1 0.164776 0.903457 0.566449
369 1 0.329809 0.985477 0.838647
774 1 0.244484 0.914758 0.673517
731 1 0.41328 0.515823 0.748033
737 1 0.663806 0.506389 0.668037
708 1 0.343247 0.936564 0.595708
707 1 0.432779 0.829185 0.584572
458 1 0.0792987 0.757022 0.993398
712 1 0.510301 0.916231 0.58118
716 1 0.646634 0.909767 0.594361
785 1 0.668995 0.838426 0.658988
373 1 0.510927 0.997646 0.830845
782 1 0.577345 0.902607 0.678375
720 1 0.822515 0.912783 0.586495
786 1 0.754375 0.918388 0.674791
303 1 0.591081 0.994565 0.751917
719 1 0.915617 0.841345 0.58106
700 1 0.00440627 0.909662 0.597707
790 1 0.914532 0.920168 0.670875
858 1 0.743143 0.922573 0.854092
728 1 0.160226 0.589297 0.740962
724 1 0.0113994 0.577981 0.733774
747 1 0.0748486 0.674605 0.739083
860 1 0.673906 0.899038 0.929375
732 1 0.323805 0.576647 0.755554
751 1 0.247215 0.66216 0.743426
798 1 0.219204 0.591735 0.831673
223 1 0.245528 0.995732 0.581992
736 1 0.498764 0.598076 0.735225
755 1 0.415882 0.66181 0.746594
670 1 0.911745 0.589961 0.505281
813 1 0.833498 0.5017 0.828289
761 1 0.664436 0.666362 0.668408
759 1 0.581334 0.674057 0.749356
806 1 0.590859 0.588373 0.837355
740 1 0.66247 0.585737 0.749652
810 1 0.765202 0.589228 0.827542
854 1 0.584907 0.921286 0.848468
742 1 0.894696 0.576802 0.665218
744 1 0.837585 0.587024 0.750679
767 1 0.926188 0.66484 0.750108
852 1 0.3328 0.905155 0.906966
769 1 0.999308 0.827566 0.668758
818 1 0.0665478 0.758013 0.836107
748 1 0.988917 0.759332 0.746856
749 1 0.167516 0.669555 0.652887
753 1 0.334238 0.672252 0.656288
752 1 0.169872 0.752448 0.740532
750 1 0.249238 0.767336 0.653842
845 1 0.159499 0.821704 0.824461
821 1 0.148349 0.684243 0.823966
822 1 0.244426 0.736925 0.844175
756 1 0.324093 0.741852 0.755622
760 1 0.502885 0.74806 0.749688
829 1 0.492663 0.665215 0.830215
758 1 0.591816 0.753423 0.677067
830 1 0.587459 0.737787 0.85249
762 1 0.743033 0.742547 0.660711
833 1 0.683758 0.663619 0.850866
764 1 0.675086 0.744686 0.752214
763 1 0.749882 0.666007 0.738077
834 1 0.750545 0.747263 0.839101
766 1 0.918271 0.740189 0.66128
768 1 0.842596 0.742637 0.739233
841 1 0.997113 0.83936 0.830693
791 1 0.911864 0.823353 0.755054
770 1 0.0844113 0.91207 0.675402
851 1 0.412182 0.824868 0.909758
771 1 0.0771617 0.822919 0.749049
776 1 0.167461 0.907738 0.762244
856 1 0.497767 0.913867 0.917532
775 1 0.249608 0.831732 0.746937
780 1 0.330283 0.910206 0.766477
846 1 0.245305 0.910441 0.838603
777 1 0.333753 0.844662 0.663213
779 1 0.426236 0.834692 0.764975
778 1 0.424998 0.918242 0.659796
784 1 0.5005 0.905728 0.759199
850 1 0.424505 0.927074 0.840297
293 1 0.164527 0.979972 0.653356
783 1 0.58262 0.827721 0.765185
655 1 0.2531 0.504173 0.580607
9 1 0.331566 0.995297 0.99028
787 1 0.741416 0.831134 0.741563
788 1 0.670314 0.922037 0.758496
792 1 0.831514 0.909766 0.761542
857 1 0.684857 0.828226 0.827577
809 1 0.679054 0.504592 0.82904
789 1 0.844604 0.825771 0.667005
772 1 0.00247283 0.911833 0.753879
853 1 0.491232 0.831997 0.847075
794 1 0.0688856 0.589876 0.842892
819 1 0.0770567 0.666992 0.92851
301 1 0.518892 0.990922 0.672356
796 1 0.989397 0.586883 0.927388
493 1 0.509048 0.831206 0.986842
365 1 0.155873 0.995988 0.845258
727 1 0.242885 0.505775 0.749426
800 1 0.14812 0.5804 0.908264
804 1 0.3287 0.581481 0.908662
462 1 0.248608 0.733237 0.989262
847 1 0.22687 0.821804 0.915136
802 1 0.405807 0.56624 0.837704
808 1 0.489397 0.576242 0.912413
733 1 0.496846 0.506425 0.671222
497 1 0.649826 0.82643 0.990536
812 1 0.669967 0.569083 0.921947
291 1 0.0712539 0.992824 0.751138
305 1 0.671238 0.992721 0.65846
816 1 0.849116 0.579605 0.911055
289 1 0.991922 0.995887 0.673498
817 1 0.0107263 0.676002 0.829503
814 1 0.918308 0.59236 0.825799
837 1 0.836309 0.65862 0.843047
848 1 0.158521 0.910921 0.925621
839 1 0.926034 0.679614 0.9367
375 1 0.58318 0.9988 0.930408
739 1 0.752383 0.50704 0.745111
729 1 0.325483 0.504882 0.66718
820 1 0.979214 0.76762 0.920732
843 1 0.0766086 0.832145 0.911527
824 1 0.159324 0.743199 0.911422
490 1 0.41208 0.90134 0.990767
825 1 0.320163 0.652663 0.830403
823 1 0.221568 0.659211 0.913865
828 1 0.336509 0.738923 0.910707
799 1 0.257816 0.501615 0.915882
849 1 0.313757 0.825763 0.846527
827 1 0.412122 0.652709 0.915264
826 1 0.40368 0.72468 0.839323
832 1 0.497199 0.736407 0.910344
659 1 0.418353 0.522347 0.586211
840 1 0.842999 0.752409 0.939821
842 1 0.0758373 0.914359 0.843334
855 1 0.5871 0.829345 0.902014
831 1 0.587208 0.660297 0.928464
859 1 0.755921 0.82158 0.91789
367 1 0.248976 0.994583 0.905045
835 1 0.770541 0.674015 0.923658
836 1 0.67013 0.739802 0.923678
489 1 0.31767 0.826834 0.981352
863 1 0.908922 0.849975 0.92215
838 1 0.912605 0.738732 0.826933
861 1 0.841469 0.823307 0.84404
725 1 0.169802 0.502363 0.656901
233 1 0.663913 0.989991 0.518099
227 1 0.43112 0.997126 0.580332
433 1 0.995578 0.502316 0.989165
805 1 0.493513 0.509532 0.830442
371 1 0.422328 0.997077 0.925282
235 1 0.754533 0.990787 0.5898
363 1 0.0731641 0.997865 0.914208
710 1 0.585835 0.921275 0.500926
486 1 0.2339 0.914105 0.998459
681 1 0.347325 0.6696 0.512565
466 1 0.413805 0.756775 0.991002
698 1 0.067118 0.919067 0.514063
5 1 0.146294 0.996558 0.998079
494 1 0.592782 0.923195 0.99728
665 1 0.655389 0.507396 0.506966
690 1 0.73748 0.763476 0.505083
713 1 0.659835 0.835962 0.500346
650 1 0.0906881 0.594606 0.501252
434 1 0.0882948 0.581172 0.997329
470 1 0.57969 0.741485 0.985512
657 1 0.333269 0.504817 0.50089
709 1 0.513687 0.832352 0.500002
473 1 0.677863 0.662951 0.987182
678 1 0.253647 0.763564 0.511403
450 1 0.759656 0.598349 0.999835
