ITEM: TIMESTEP
17850
ITEM: NUMBER OF ATOMS
864
ITEM: BOX BOUNDS pp pp pp
0.0000000000000000e+00 3.1559999999999999e+01
0.0000000000000000e+00 3.1559999999999999e+01
0.0000000000000000e+00 3.1559999999999999e+01
ITEM: ATOMS id type xs ys zs
27 1 0.0749535 0.171219 0.0872519
4 1 0.985385 0.086347 0.0898967
74 1 0.0742666 0.0867099 0.167117
8 1 0.166576 0.0907831 0.0844928
519 1 0.587644 0.5074 0.25132
579 1 0.0769239 0.495578 0.417256
12 1 0.329955 0.0909209 0.0813265
31 1 0.251073 0.164288 0.0882704
258 1 0.745673 0.25843 0.493104
101 1 0.154657 0.162839 0.181816
9 1 0.339498 0.00162411 -0.00283517
95 1 0.917273 -0.00255479 0.25984
82 1 0.404918 0.0949854 0.166953
282 1 0.743236 0.421247 0.505299
155 1 0.417075 0.0108312 0.41717
16 1 0.481513 0.0781223 0.0880386
39 1 0.582733 0.169384 0.0882017
196 1 0.991275 0.413817 0.407391
234 1 0.745854 0.0801049 0.498606
167 1 0.913813 0.00458868 0.415998
20 1 0.675548 0.0828044 0.0808653
113 1 0.675035 0.162908 0.156271
163 1 0.74441 0.0110254 0.417787
24 1 0.820935 0.0819607 0.0907356
94 1 0.917931 0.0780311 0.16739
117 1 0.84211 0.169631 0.150266
32 1 0.166496 0.234068 0.0993903
28 1 1.00002 0.250832 0.0962383
36 1 0.333584 0.24817 0.0822056
125 1 0.159347 0.325252 0.168774
509 1 0.167962 0.490213 0.180602
35 1 0.417598 0.16963 0.0745688
59 1 0.406103 0.335515 0.105213
40 1 0.501139 0.241819 0.0807882
439 1 0.251822 0.494264 0.0794399
63 1 0.587889 0.328946 0.0781504
137 1 0.667511 0.340626 0.172317
451 1 0.75053 0.510956 0.0852347
43 1 0.761214 0.172706 0.0761629
44 1 0.684315 0.256076 0.078628
114 1 0.754065 0.240507 0.174538
30 1 0.237867 0.227035 0.00261155
48 1 0.839566 0.25563 0.0745193
47 1 0.913668 0.186048 0.0825834
97 1 0.991027 0.163787 0.193685
51 1 0.083654 0.326359 0.0968203
599 1 0.925165 0.505757 0.410632
52 1 0.0129784 0.40661 0.0834859
122 1 0.0926605 0.40947 0.180351
213 1 0.83635 0.346694 0.339284
215 1 0.912206 0.337525 0.41184
587 1 0.424081 0.496898 0.407186
55 1 0.245592 0.316011 0.0911365
56 1 0.155523 0.404854 0.0787929
60 1 0.322123 0.415464 0.0961425
129 1 0.32568 0.317749 0.170929
126 1 0.249436 0.402294 0.173074
70 1 0.931895 0.418763 -0.00324758
515 1 0.42449 0.486502 0.254126
130 1 0.39598 0.42024 0.173913
64 1 0.502597 0.404069 0.0886792
133 1 0.513505 0.316187 0.174865
447 1 0.575762 0.503529 0.0822275
68 1 0.654878 0.419281 0.085421
134 1 0.569556 0.426553 0.184398
13 1 0.513044 -9.28619e-05 0.00773107
67 1 0.755271 0.333657 0.0950523
72 1 0.840041 0.410896 0.0575413
589 1 0.510352 0.510425 0.321848
71 1 0.921597 0.333787 0.0683344
141 1 0.830417 0.342187 0.16779
245 1 0.168182 0.166914 0.504774
142 1 0.932109 0.419557 0.167007
2 1 0.069558 0.0915283 0.00633267
99 1 0.0879152 0.142106 0.258841
80 1 0.173336 0.0727441 0.255865
105 1 0.321136 0.170032 0.175734
18 1 0.754738 0.0715002 0.00374963
78 1 0.256481 0.0749326 0.170452
150 1 0.239652 0.0843976 0.348113
266 1 0.07315 0.40088 0.492606
84 1 0.318373 0.0946505 0.256226
107 1 0.416968 0.171786 0.248874
41 1 0.671802 0.170761 0.000224223
154 1 0.397353 0.0895655 0.327517
86 1 0.596118 0.0884185 0.160649
88 1 0.510748 0.0862544 0.233586
92 1 0.673629 0.0813344 0.250679
158 1 0.579094 0.0835578 0.330477
185 1 0.657011 0.171346 0.348212
214 1 0.927192 0.415455 0.320386
90 1 0.759516 0.0860408 0.178723
96 1 0.841502 0.0953822 0.262401
76 1 0.986938 0.0804266 0.255648
119 1 0.913178 0.172337 0.26105
166 1 0.911361 0.0822299 0.339867
98 1 0.0930663 0.240694 0.173049
100 1 1.00766 0.256738 0.255547
104 1 0.170289 0.245161 0.259462
103 1 0.238482 0.161611 0.259935
102 1 0.238713 0.240227 0.17844
127 1 0.24666 0.327103 0.254367
197 1 0.165484 0.330464 0.338026
109 1 0.490492 0.160385 0.165332
106 1 0.399505 0.251135 0.171341
201 1 0.332312 0.324316 0.346426
108 1 0.327332 0.240068 0.253165
112 1 0.498289 0.247794 0.253875
131 1 0.409012 0.342302 0.247014
178 1 0.425174 0.252218 0.332487
110 1 0.602125 0.253625 0.16311
111 1 0.584195 0.165642 0.256957
135 1 0.586551 0.32418 0.255147
182 1 0.57377 0.248008 0.351508
116 1 0.675783 0.234066 0.251869
115 1 0.758826 0.157714 0.254154
186 1 0.736161 0.262135 0.338691
118 1 0.915318 0.256544 0.175017
120 1 0.821144 0.248045 0.26096
121 1 1.0071 0.326693 0.166383
123 1 0.0901835 0.318016 0.266314
211 1 0.743731 0.344137 0.41813
128 1 0.175178 0.411757 0.25781
265 1 0.98557 0.343946 0.505097
132 1 0.327126 0.40183 0.257839
202 1 0.424447 0.40874 0.33341
93 1 0.843581 -0.00249865 0.15953
25 1 0.990106 0.178018 0.00816549
136 1 0.495699 0.39423 0.257274
140 1 0.665113 0.42466 0.245845
210 1 0.747213 0.43618 0.315392
139 1 0.748846 0.336664 0.257181
138 1 0.753684 0.420069 0.157458
144 1 0.835753 0.416013 0.24077
198 1 0.249269 0.414466 0.34023
143 1 0.905823 0.339247 0.251164
124 1 0.00717524 0.410408 0.260392
216 1 0.825039 0.418721 0.422363
146 1 0.0899129 0.0768715 0.34529
152 1 0.164006 0.0775972 0.4312
171 1 0.0940571 0.171575 0.427234
15 1 0.587658 -0.00144394 0.0950584
190 1 0.900277 0.266883 0.329909
173 1 0.16709 0.162894 0.34174
435 1 0.0975208 0.49023 0.0980898
156 1 0.33163 0.0853101 0.431373
177 1 0.333258 0.168805 0.34684
194 1 0.0776617 0.408511 0.347251
437 1 0.155795 0.507858 -0.0267681
181 1 0.504069 0.164737 0.32145
188 1 0.654946 0.253558 0.419989
200 1 0.167088 0.41568 0.4262
511 1 0.258375 0.493106 0.246044
157 1 0.490187 0.0134548 0.331668
195 1 0.0913319 0.329682 0.411284
160 1 0.500502 0.0940903 0.427217
164 1 0.661487 0.0880722 0.41867
206 1 0.575316 0.423217 0.337755
162 1 0.74892 0.0794342 0.331218
168 1 0.827037 0.0947085 0.4196
212 1 0.657471 0.437268 0.416486
507 1 0.0769807 0.498469 0.258313
193 1 0.997734 0.337783 0.334796
189 1 0.818136 0.176811 0.335611
169 1 0.0157518 0.157405 0.341476
148 1 -0.017538 0.0841579 0.418776
191 1 0.905752 0.177913 0.399707
187 1 0.740626 0.158848 0.421793
208 1 0.503089 0.421025 0.427912
172 1 0.990554 0.246298 0.396262
170 1 0.0879308 0.240304 0.352667
204 1 0.332334 0.42564 0.416533
175 1 0.248963 0.166342 0.413804
174 1 0.238351 0.241643 0.337627
176 1 0.171743 0.254032 0.425905
205 1 0.501969 0.344892 0.345307
179 1 0.421121 0.167715 0.415436
180 1 0.336224 0.25414 0.432458
203 1 0.419703 0.335372 0.422492
199 1 0.249439 0.334578 0.422682
183 1 0.589077 0.166591 0.425031
207 1 0.578194 0.349899 0.418081
184 1 0.496464 0.245201 0.430366
192 1 0.832374 0.258096 0.414455
209 1 0.656292 0.334424 0.340543
153 1 0.32929 0.00714639 0.353408
525 1 0.837432 0.482744 0.151043
261 1 0.840114 0.178163 0.48668
23 1 0.906551 0.00724771 0.0754515
45 1 0.847556 0.179172 0.00128348
257 1 0.667301 0.177276 0.50443
517 1 0.485243 0.499663 0.15923
270 1 0.249345 0.41789 0.51246
54 1 0.246463 0.409527 0.014038
89 1 0.674946 0.00212947 0.154842
595 1 0.757069 0.504481 0.410769
581 1 0.155985 0.495632 0.340068
50 1 0.0855727 0.418053 -0.00587894
149 1 0.162078 -0.00362355 0.333683
75 1 0.074428 0.0238565 0.260011
3 1 0.0756254 0.0126447 0.0749102
238 1 0.928542 0.0775689 0.510333
527 1 0.916125 0.494498 0.23914
285 1 0.836655 0.324464 0.499071
5 1 0.153172 0.0286472 -0.00713149
649 1 1.00376 0.485206 0.499345
250 1 0.421184 0.250002 0.500703
34 1 0.416688 0.253503 -0.00638394
37 1 0.513579 0.148597 0.0115403
10 1 0.41307 0.0944046 -0.00739607
242 1 0.0570181 0.265015 0.482864
237 1 0.820683 0.00222638 0.489258
26 1 0.0699227 0.242606 0.00443224
222 1 0.251224 0.0908647 0.497326
38 1 0.57629 0.237398 0.000677285
273 1 0.330801 0.348878 0.494262
58 1 0.422037 0.418198 0.0147122
61 1 0.494172 0.327081 -0.00666593
66 1 0.74895 0.41993 0.00728503
433 1 0.00692695 0.494811 0.00570583
241 1 0.994315 0.163592 0.488819
317 1 0.154045 0.162975 0.653273
224 1 0.159678 0.0840706 0.568873
239 1 0.921982 -0.00787045 0.594225
409 1 -0.00627339 0.32599 0.831926
247 1 0.248438 0.147675 0.580021
294 1 0.24173 0.0849961 0.669657
361 1 0.0081367 0.008857 0.832176
228 1 0.330455 0.0669028 0.592288
251 1 0.412352 0.156894 0.604026
298 1 0.432248 0.0783419 0.674439
293 1 0.162017 0.0104973 0.657812
232 1 0.506841 0.0855165 0.591714
236 1 0.650496 0.0762955 0.575717
255 1 0.580611 0.172874 0.581173
291 1 0.0796437 -0.000726983 0.744587
309 1 0.829199 -0.00120325 0.682916
240 1 0.835035 0.0852901 0.556996
259 1 0.761084 0.16581 0.562662
306 1 0.75132 0.0790195 0.641858
220 1 0.00161145 0.0789849 0.586617
431 1 0.915299 0.326567 0.90984
243 1 0.0681401 0.167296 0.569697
267 1 0.079974 0.325136 0.581618
314 1 0.0856346 0.257954 0.661351
248 1 0.157006 0.256679 0.578106
318 1 0.237339 0.234521 0.65465
252 1 0.331881 0.251985 0.568874
307 1 0.743705 0.00503631 0.753034
795 1 0.0775069 0.490679 0.915882
256 1 0.497968 0.252695 0.587739
803 1 0.422239 0.509918 0.917385
811 1 0.761915 0.491532 0.923457
721 1 0.992944 0.501267 0.656539
326 1 0.587244 0.255712 0.662491
369 1 0.322582 -0.00132419 0.828412
57 1 0.33728 0.337839 1.00598
260 1 0.669151 0.251501 0.581103
283 1 0.744211 0.341964 0.584928
264 1 0.840236 0.242348 0.570239
301 1 0.509457 0.00423962 0.671455
365 1 0.158992 0.0129621 0.845149
263 1 0.928907 0.160216 0.57584
244 1 0.993862 0.257253 0.572621
334 1 0.909724 0.233736 0.65799
65 1 0.678388 0.343243 0.994799
338 1 0.0755985 0.426061 0.679367
272 1 0.161765 0.431945 0.607542
271 1 0.261171 0.328838 0.579631
276 1 0.334695 0.41865 0.582516
341 1 0.184728 0.335501 0.649268
303 1 0.578208 -0.00477825 0.764023
277 1 0.498394 0.340042 0.502363
275 1 0.414946 0.331581 0.574159
305 1 0.659892 -0.00130111 0.675187
280 1 0.496603 0.431067 0.595318
346 1 0.411276 0.420306 0.662331
379 1 0.755498 -0.00434528 0.910705
279 1 0.581567 0.334931 0.583088
284 1 0.677157 0.436695 0.579166
311 1 0.931519 0.0236133 0.742274
651 1 0.0721503 0.489658 0.589364
357 1 0.81815 0.325227 0.661448
354 1 0.73672 0.431828 0.671419
288 1 0.83191 0.407004 0.575676
428 1 0.670722 0.426182 0.908328
801 1 0.33637 0.506344 0.832318
411 1 0.0829366 0.32497 0.915269
410 1 0.0720907 0.41535 0.822081
287 1 0.909376 0.321296 0.581839
268 1 0.994739 0.417064 0.586027
429 1 0.833382 0.343642 0.823956
290 1 0.0805193 0.080975 0.663194
362 1 0.0754124 0.0891626 0.834683
292 1 1.00675 0.0955624 0.745375
427 1 0.749009 0.343788 0.917802
432 1 0.8466 0.404745 0.928623
296 1 0.156636 0.0873609 0.750683
366 1 0.248861 0.0774335 0.833486
235 1 0.746643 -0.00230025 0.567974
300 1 0.32835 0.0865916 0.721827
370 1 0.414518 0.0767362 0.828797
323 1 0.409532 0.17168 0.743249
393 1 0.328283 0.162561 0.83486
325 1 0.498886 0.171011 0.677877
302 1 0.571698 0.0929796 0.670487
262 1 0.92115 0.25383 0.482894
304 1 0.50472 0.0875548 0.770418
327 1 0.571551 0.172001 0.752187
374 1 0.585612 0.0847803 0.839352
308 1 0.658149 0.0757781 0.760676
312 1 0.834411 0.0943223 0.746614
310 1 0.919745 0.0829849 0.651863
723 1 0.0867352 0.505768 0.751361
333 1 0.821581 0.171895 0.660482
382 1 0.922918 0.0942634 0.825994
385 1 1.00568 0.178223 0.829977
337 1 -0.00333349 0.33665 0.648994
315 1 0.0754946 0.177473 0.740987
316 1 0.994059 0.267366 0.736183
345 1 0.34664 0.338818 0.65844
320 1 0.172506 0.260453 0.742429
319 1 0.237034 0.171686 0.748625
324 1 0.332252 0.25873 0.743707
390 1 0.259578 0.238305 0.814254
343 1 0.251678 0.333263 0.743429
389 1 0.16932 0.174802 0.836445
322 1 0.428658 0.26099 0.666207
321 1 0.318541 0.172888 0.661146
417 1 0.326568 0.342444 0.828305
347 1 0.411621 0.336573 0.745638
349 1 0.504119 0.338627 0.663351
394 1 0.412387 0.253594 0.81627
328 1 0.490147 0.262627 0.743659
332 1 0.669947 0.232495 0.726888
425 1 0.663587 0.336199 0.832159
330 1 0.741556 0.251594 0.65391
329 1 0.666679 0.151975 0.655792
331 1 0.742816 0.16058 0.744862
401 1 0.672705 0.165978 0.822023
313 1 0.00328391 0.167309 0.658638
335 1 0.89771 0.176024 0.75325
336 1 0.810241 0.24974 0.732568
388 1 -0.00205813 0.259073 0.91864
339 1 0.0863594 0.341519 0.753271
340 1 0.997171 0.401019 0.748913
412 1 -0.00794939 0.417898 0.912813
342 1 0.253096 0.42189 0.671373
344 1 0.172813 0.417864 0.745995
413 1 0.191704 0.344226 0.828061
348 1 0.325946 0.417424 0.749195
352 1 0.499251 0.411956 0.750425
408 1 0.822717 0.246179 0.907094
350 1 0.604551 0.413637 0.658231
351 1 0.582097 0.332356 0.753716
353 1 0.6751 0.343802 0.666398
356 1 0.666055 0.433667 0.758631
355 1 0.734122 0.341266 0.75245
426 1 0.765896 0.428577 0.836089
360 1 0.833061 0.416657 0.742236
418 1 0.418984 0.423084 0.837497
358 1 0.904025 0.407375 0.662432
359 1 0.905478 0.331583 0.728254
430 1 0.914392 0.410054 0.827677
423 1 0.578041 0.328539 0.909789
295 1 0.235309 0.00546717 0.750099
364 1 0.991549 0.0989192 0.910366
422 1 0.591687 0.415646 0.837127
368 1 0.152575 0.0969072 0.912066
372 1 0.330815 0.0825173 0.911883
377 1 0.669648 0.00513387 0.84861
395 1 0.412705 0.167656 0.922322
376 1 0.492114 0.08708 0.907188
399 1 0.584028 0.155232 0.922327
53 1 0.159682 0.32998 1.01547
378 1 0.75368 0.0854489 0.843673
380 1 0.676846 0.0895358 0.922411
384 1 0.851147 0.082249 0.90156
424 1 0.498944 0.414604 0.909782
407 1 0.911467 0.182454 0.903393
406 1 0.912394 0.263442 0.815896
386 1 0.0887704 0.264195 0.825042
387 1 0.0876412 0.184882 0.91157
416 1 0.154966 0.418834 0.896161
420 1 0.335672 0.425175 0.905777
363 1 0.0740283 -0.000813395 0.926545
392 1 0.203395 0.246257 0.90152
391 1 0.244837 0.153681 0.907389
415 1 0.247012 0.332403 0.927662
396 1 0.32642 0.255027 0.904603
419 1 0.418965 0.350024 0.910898
421 1 0.499763 0.339202 0.827103
397 1 0.495834 0.179005 0.835013
400 1 0.487669 0.25269 0.911822
398 1 0.592905 0.239557 0.833839
414 1 0.254715 0.428781 0.833069
402 1 0.74228 0.247168 0.820508
404 1 0.663193 0.254712 0.924345
403 1 0.765371 0.150407 0.927024
249 1 0.341534 0.160621 0.513694
405 1 0.823605 0.173769 0.827345
33 1 0.316834 0.153273 1.00105
246 1 0.254235 0.236326 0.498611
793 1 1.00003 0.504965 0.833266
281 1 0.667771 0.342473 0.499825
289 1 1.00194 -0.000866943 0.661848
813 1 0.842393 0.506638 0.837257
14 1 0.602485 0.0794598 1.01161
731 1 0.417095 0.481605 0.75504
655 1 0.255787 0.500879 0.583497
6 1 0.241737 0.0757601 0.998787
274 1 0.422661 0.423897 0.493608
269 1 0.16172 0.332599 0.505733
69 1 0.818281 0.321616 0.999292
62 1 0.569902 0.414675 1.00583
445 1 0.498177 0.503127 1.00596
453 1 0.844828 0.498243 0.991322
226 1 0.424297 0.0829012 0.511519
253 1 0.493647 0.163937 0.510852
286 1 0.911376 0.424248 0.502743
49 1 0.0168707 0.33346 1.00549
21 1 0.848097 -0.00593469 0.983267
278 1 0.576817 0.425721 0.515723
230 1 0.577928 0.0768056 0.493581
46 1 0.917754 0.253961 0.996339
42 1 0.742144 0.243572 0.990805
254 1 0.588815 0.257218 0.508152
29 1 0.154982 0.16672 0.999782
22 1 0.904613 0.0783714 1.00104
218 1 0.0789139 0.0763831 0.495002
653 1 0.163136 0.49765 0.494801
436 1 0.997847 0.587747 0.0790143
506 1 0.0833921 0.573907 0.167341
585 1 0.338708 0.504522 0.319152
477 1 0.839877 0.676769 -0.00351684
533 1 0.167731 0.666526 0.155266
440 1 0.177977 0.575227 0.0804985
151 1 0.24045 1.00141 0.423015
583 1 0.240356 0.499885 0.420725
444 1 0.337942 0.591691 0.0872307
448 1 0.492482 0.588557 0.0851497
657 1 0.342725 0.504193 0.489322
161 1 0.656366 1.00128 0.337118
654 1 0.248902 0.583544 0.495941
452 1 0.666798 0.585447 0.0856221
471 1 0.564044 0.665048 0.0768167
646 1 0.914742 0.910464 0.351502
545 1 0.65799 0.664055 0.162946
475 1 0.750889 0.653176 0.0798232
662 1 0.584182 0.605926 0.509323
456 1 0.834148 0.577946 0.0804236
526 1 0.912257 0.568086 0.153216
709 1 0.497268 0.822869 0.499685
642 1 0.747586 0.925052 0.337274
459 1 0.0852655 0.66189 0.0953001
464 1 0.154262 0.752941 0.094354
85 1 0.508494 0.993865 0.16688
460 1 0.99832 0.749158 0.0947946
530 1 0.0828073 0.743379 0.168295
597 1 0.837827 0.481811 0.323624
474 1 0.763876 0.765716 0.00256531
463 1 0.241545 0.670897 0.0764951
468 1 0.334594 0.762872 0.0941057
534 1 0.230373 0.753695 0.168904
490 1 0.415806 0.915796 0.00950661
467 1 0.416725 0.684776 0.0846707
538 1 0.413271 0.756662 0.169677
565 1 0.507865 0.828677 0.153346
17 1 0.680189 0.990262 -0.0066339
19 1 0.754489 1.00177 0.0822882
472 1 0.494031 0.759343 0.0727408
476 1 0.672899 0.752641 0.0832138
713 1 0.679073 0.824256 0.487544
159 1 0.574851 1.00276 0.417688
499 1 0.742448 0.830823 0.0792105
480 1 0.836179 0.755992 0.0921089
502 1 0.918586 0.915006 -0.0067916
479 1 0.913161 0.668685 0.0828573
503 1 0.918539 0.841898 0.0821986
83 1 0.402671 1.01874 0.250469
79 1 0.274016 0.994992 0.253617
483 1 0.0915995 0.847249 0.0869217
488 1 0.168715 0.930945 0.0937217
554 1 0.0892324 0.918069 0.179675
87 1 0.589559 1.01651 0.2556
487 1 0.260562 0.828487 0.0838445
558 1 0.261776 0.916716 0.180347
450 1 0.750888 0.565872 -0.00791178
492 1 0.331364 0.912482 0.0873317
491 1 0.419209 0.842797 0.0868629
496 1 0.512028 0.924904 0.0834906
497 1 0.679643 0.837445 -0.00820226
495 1 0.597321 0.833025 0.0807901
685 1 0.489846 0.655498 0.486997
620 1 0.678277 0.747491 0.403658
500 1 0.671389 0.908271 0.0743053
648 1 0.823571 0.916498 0.423675
484 1 1.00864 0.933982 0.0781312
643 1 0.749896 0.83749 0.41121
504 1 0.831167 0.918434 0.0742684
574 1 0.918021 0.92649 0.156109
641 1 0.668967 0.825751 0.331896
512 1 0.169586 0.583881 0.23957
531 1 0.0752857 0.668932 0.248344
510 1 0.248854 0.57899 0.155814
582 1 0.244747 0.572366 0.32082
640 1 0.503157 0.919696 0.41015
627 1 0.081276 0.811799 0.420143
11 1 0.413148 0.99902 0.0890353
514 1 0.410433 0.586759 0.158441
516 1 0.348599 0.580785 0.244128
520 1 0.492254 0.586567 0.240969
613 1 0.503688 0.672185 0.316121
518 1 0.571473 0.573541 0.155966
541 1 0.490262 0.668266 0.169185
524 1 0.66778 0.587307 0.244878
543 1 0.583962 0.655865 0.243349
632 1 0.158916 0.902008 0.415696
522 1 0.737717 0.583022 0.163231
547 1 0.762746 0.662525 0.238882
644 1 0.654877 0.904542 0.39956
625 1 0.000573597 0.838279 0.342481
508 1 1.0001 0.584557 0.257311
528 1 0.839439 0.567955 0.239857
549 1 0.848342 0.662222 0.163973
628 1 -0.00722604 0.915848 0.414434
555 1 0.102422 0.825305 0.251765
536 1 0.174504 0.726395 0.252212
602 1 0.0968275 0.736711 0.324913
535 1 0.263055 0.668637 0.242215
537 1 0.3257 0.671854 0.158787
540 1 0.342077 0.758448 0.266887
605 1 0.166345 0.65044 0.330312
606 1 0.248483 0.741225 0.328851
539 1 0.414736 0.67605 0.249606
544 1 0.498148 0.762504 0.251236
610 1 0.42722 0.753222 0.332828
542 1 0.575378 0.741836 0.170013
548 1 0.671905 0.742739 0.255337
567 1 0.591004 0.826569 0.255139
614 1 0.581509 0.75103 0.323394
569 1 0.664354 0.818654 0.179917
546 1 0.748994 0.749853 0.171627
571 1 0.763402 0.842744 0.258279
529 1 0.983548 0.657553 0.174782
551 1 0.918436 0.656896 0.257453
532 1 0.00202092 0.738045 0.258713
552 1 0.835368 0.744072 0.243904
550 1 0.921503 0.771511 0.168247
557 1 0.172524 0.836295 0.157487
560 1 0.170158 0.909778 0.264327
556 1 -0.00427477 0.916165 0.255069
626 1 0.0809811 0.919642 0.341325
559 1 0.246239 0.812459 0.257501
630 1 0.23715 0.922728 0.34114
561 1 0.326536 0.829116 0.182178
563 1 0.409313 0.852729 0.254616
562 1 0.425437 0.916865 0.167243
564 1 0.336644 0.923037 0.272906
634 1 0.421362 0.926743 0.335469
622 1 0.925228 0.750207 0.329859
566 1 0.599499 0.915245 0.163888
568 1 0.523626 0.908721 0.240972
638 1 0.578833 0.907387 0.336797
624 1 0.855506 0.747629 0.428574
570 1 0.722089 0.910699 0.164329
572 1 0.663177 0.912211 0.263663
481 1 0.00264071 0.838413 0.00783102
647 1 0.907218 0.845514 0.427025
573 1 0.829585 0.840641 0.160079
639 1 0.585488 0.806873 0.426787
575 1 0.933557 0.826219 0.25971
553 1 -0.000911423 0.836375 0.153598
576 1 0.836947 0.921186 0.254316
578 1 0.0907543 0.588616 0.324889
580 1 0.00176925 0.57774 0.41844
603 1 0.0914813 0.671683 0.410855
618 1 0.758861 0.753829 0.325926
616 1 0.496144 0.747108 0.422316
584 1 0.164859 0.577777 0.409715
607 1 0.246642 0.652869 0.396905
635 1 0.412954 0.841257 0.412364
147 1 0.080546 0.996747 0.424047
588 1 0.338514 0.575437 0.406403
586 1 0.411976 0.595632 0.337406
592 1 0.494213 0.574274 0.412582
611 1 0.417701 0.672307 0.407232
454 1 0.909972 0.588134 -0.00842282
665 1 0.672979 0.50966 0.501663
590 1 0.597123 0.577423 0.340958
615 1 0.566079 0.659859 0.400287
617 1 0.684604 0.650618 0.330546
636 1 0.342045 0.915935 0.42057
609 1 0.33359 0.6622 0.321958
596 1 0.658942 0.595292 0.425241
621 1 0.832959 0.663358 0.337946
594 1 0.754723 0.570817 0.323863
619 1 0.765679 0.674735 0.417456
600 1 0.834979 0.574681 0.411297
637 1 0.503699 0.837162 0.329722
601 1 0.00523076 0.662504 0.331255
598 1 0.917138 0.574652 0.324776
623 1 0.919427 0.670806 0.400549
498 1 0.757814 0.931667 -0.00691946
604 1 1.00165 0.744249 0.412137
608 1 0.172471 0.74258 0.425485
629 1 0.173603 0.8286 0.341287
631 1 0.253851 0.836263 0.433413
645 1 0.845761 0.840797 0.329454
612 1 0.315257 0.745748 0.415995
633 1 0.323456 0.844268 0.34448
523 1 0.744282 0.502991 0.23856
714 1 0.741624 0.914761 0.506711
521 1 0.660664 0.487652 0.164402
473 1 0.667321 0.662728 0.0105294
669 1 0.837134 0.509925 0.493091
73 1 -0.00324878 0.992059 0.178571
81 1 0.341528 0.988069 0.176265
443 1 0.413176 0.510158 0.0777115
494 1 0.596689 0.903716 -0.0022773
505 1 0.996925 0.506671 0.1666
233 1 0.660709 0.98958 0.481107
165 1 0.829256 0.998878 0.324046
455 1 0.924766 0.496374 0.0675449
577 1 1.00883 0.494669 0.334886
77 1 0.176755 0.997651 0.173659
7 1 0.2498 0.99256 0.0820862
1 1 0.990613 1.00781 -0.00754172
513 1 0.326543 0.503472 0.16927
593 1 0.666778 0.501005 0.337557
441 1 0.336844 0.489227 -0.0030634
91 1 0.754359 1.00333 0.255685
591 1 0.583071 0.509434 0.423355
145 1 -0.0045174 1.00463 0.339153
673 1 -0.00317068 0.663426 0.481448
689 1 0.669183 0.669693 0.507865
221 1 0.170515 0.990014 0.511546
478 1 0.92557 0.759536 0.0131699
650 1 0.0876887 0.587824 0.494363
485 1 0.158528 0.841685 0.00540492
449 1 0.658068 0.498906 0.0157527
482 1 0.0892476 0.92878 0.00153815
446 1 0.573868 0.585764 0.00681622
489 1 0.335137 0.842867 0.00357533
718 1 0.909836 0.932986 0.495905
666 1 0.757185 0.588812 0.480239
458 1 0.0627019 0.748598 0.00438291
693 1 0.845404 0.661413 0.487428
501 1 0.846356 0.832325 0.000462909
658 1 0.405083 0.588274 0.485261
656 1 0.152822 0.567264 0.585537
675 1 0.0855133 0.650994 0.585313
679 1 0.238867 0.654055 0.589438
660 1 0.327674 0.590724 0.581421
741 1 0.832947 0.493125 0.666314
698 1 0.0843136 0.906477 0.490773
664 1 0.495797 0.597238 0.578602
690 1 0.755301 0.753015 0.492929
730 1 0.418795 0.589039 0.669542
466 1 0.404319 0.763082 1.00212
668 1 0.679448 0.581533 0.586955
687 1 0.581404 0.670731 0.59834
734 1 0.563238 0.599184 0.675056
223 1 0.235469 1.00782 0.586887
864 1 0.835305 0.910826 0.911092
691 1 0.755238 0.662707 0.582197
738 1 0.762543 0.579798 0.681137
765 1 0.837303 0.663553 0.66511
225 1 0.329573 0.992804 0.504156
671 1 0.913883 0.508173 0.581238
652 1 1.01181 0.588252 0.564324
727 1 0.25267 0.508023 0.755002
672 1 0.836838 0.584788 0.589084
745 1 0.996567 0.675556 0.666063
695 1 0.913959 0.647885 0.574815
742 1 0.923241 0.581437 0.660893
678 1 0.25413 0.74784 0.505574
746 1 0.0905571 0.738004 0.665318
676 1 1.00164 0.749138 0.593052
699 1 0.0778291 0.832035 0.582473
773 1 0.160277 0.824904 0.654623
680 1 0.167264 0.7378 0.590893
684 1 0.327684 0.739213 0.594802
367 1 0.255147 0.997711 0.915592
777 1 0.341697 0.826238 0.669217
371 1 0.406688 0.999424 0.919607
683 1 0.414063 0.664601 0.590807
754 1 0.417967 0.745649 0.686797
688 1 0.499509 0.742344 0.583047
757 1 0.498733 0.681018 0.672455
711 1 0.591775 0.803681 0.556294
761 1 0.663608 0.642341 0.671084
758 1 0.583265 0.750761 0.661076
462 1 0.255243 0.747508 1.00496
692 1 0.669327 0.742574 0.584144
762 1 0.759354 0.757697 0.655321
799 1 0.250461 0.506485 0.91951
696 1 0.843921 0.743049 0.570879
766 1 0.907462 0.745367 0.654896
789 1 0.838474 0.83713 0.657792
769 1 1.00443 0.832735 0.669937
719 1 0.910745 0.851608 0.584502
700 1 0.999559 0.908658 0.583861
739 1 0.756477 0.509596 0.756972
805 1 0.498265 0.495893 0.8288
704 1 0.161406 0.913555 0.582024
703 1 0.250935 0.820388 0.582968
708 1 0.321214 0.914498 0.590025
774 1 0.24104 0.913705 0.657822
807 1 0.594642 0.494402 0.911364
860 1 0.680524 0.909141 0.917955
707 1 0.42463 0.826607 0.599727
725 1 0.161852 0.506407 0.674892
470 1 0.593118 0.743109 1.00726
712 1 0.50484 0.901105 0.586659
716 1 0.656281 0.909602 0.568706
797 1 0.168271 0.504165 0.83423
715 1 0.754425 0.832104 0.580451
786 1 0.749289 0.922479 0.651259
720 1 0.82681 0.933419 0.585627
434 1 0.0699745 0.584565 1.00644
729 1 0.339446 0.500245 0.672111
381 1 0.840275 1.0019 0.83407
722 1 0.0684601 0.569308 0.66089
749 1 0.164315 0.653761 0.670341
674 1 0.0762984 0.735879 0.513855
724 1 -0.00509948 0.584776 0.742191
747 1 0.0708572 0.660031 0.739298
794 1 0.0768683 0.571518 0.830238
728 1 0.167772 0.581968 0.755343
726 1 0.255329 0.581107 0.66122
751 1 0.246701 0.667099 0.754738
659 1 0.417366 0.504269 0.58481
383 1 0.930001 0.994956 0.899403
732 1 0.335561 0.581038 0.757549
755 1 0.426599 0.67249 0.770381
438 1 0.232663 0.586009 0.999053
667 1 0.760502 0.504996 0.574282
736 1 0.484803 0.587294 0.75479
740 1 0.674334 0.586256 0.75955
231 1 0.575357 0.978272 0.57702
806 1 0.585675 0.599916 0.835128
677 1 0.167337 0.659349 0.493496
744 1 0.847953 0.57905 0.747345
763 1 0.756991 0.671133 0.743258
663 1 0.586926 0.50835 0.590649
856 1 0.511138 0.911976 0.920699
767 1 0.89937 0.676649 0.754139
818 1 0.0892732 0.750017 0.831109
752 1 0.158889 0.743907 0.736733
771 1 0.0848803 0.823865 0.751519
845 1 0.181613 0.820882 0.832451
753 1 0.335085 0.653557 0.673007
750 1 0.257357 0.744745 0.68174
775 1 0.237656 0.836565 0.748648
822 1 0.260318 0.749415 0.828562
756 1 0.337164 0.73626 0.756773
760 1 0.507327 0.75928 0.751313
779 1 0.428794 0.836524 0.748337
759 1 0.582652 0.674408 0.7515
783 1 0.601804 0.837201 0.753573
764 1 0.684764 0.745624 0.733304
781 1 0.51304 0.834977 0.674159
834 1 0.75406 0.754973 0.83378
768 1 0.833566 0.760541 0.741324
857 1 0.678158 0.818327 0.847484
861 1 0.843913 0.824071 0.845173
748 1 1.00694 0.743945 0.752354
791 1 0.921178 0.828671 0.744107
838 1 0.936006 0.745835 0.833386
837 1 0.832084 0.667506 0.838871
770 1 0.0781411 0.916412 0.652308
841 1 0.00907644 0.82388 0.827703
842 1 0.094472 0.890206 0.838888
772 1 -0.00517942 0.934939 0.762513
846 1 0.243439 0.923546 0.828196
776 1 0.164355 0.922912 0.73866
217 1 1.00439 0.990835 0.505324
743 1 0.92419 0.495651 0.748966
849 1 0.327153 0.838966 0.808231
780 1 0.326178 0.918521 0.751411
778 1 0.417675 0.915846 0.68072
853 1 0.507722 0.832087 0.84138
850 1 0.41493 0.907552 0.835367
785 1 0.661086 0.842206 0.650789
782 1 0.572626 0.923025 0.662994
851 1 0.415605 0.83306 0.92288
784 1 0.501197 0.915056 0.752721
854 1 0.580707 0.911945 0.829779
852 1 0.335324 0.9154 0.905809
788 1 0.671758 0.930741 0.756347
858 1 0.743208 0.921684 0.830798
787 1 0.760167 0.835488 0.737005
792 1 0.839472 0.917339 0.761125
847 1 0.258529 0.846304 0.917531
299 1 0.419618 0.998799 0.759711
839 1 0.912097 0.665318 0.91225
863 1 0.924617 0.822941 0.927912
790 1 0.919242 0.931549 0.677621
862 1 0.923837 0.904208 0.832375
817 1 1.01112 0.656357 0.829606
796 1 -0.00448652 0.584065 0.915123
800 1 0.169995 0.592146 0.911145
819 1 0.0798506 0.664316 0.925865
798 1 0.25761 0.581999 0.83952
804 1 0.338557 0.581543 0.922753
836 1 0.660889 0.753365 0.929304
835 1 0.750083 0.655328 0.918184
802 1 0.412777 0.580133 0.829108
808 1 0.498318 0.595085 0.906413
848 1 0.166225 0.923326 0.910626
840 1 0.838173 0.75338 0.920852
812 1 0.670993 0.58265 0.921029
681 1 0.324496 0.663461 0.480926
855 1 0.591975 0.828287 0.917311
859 1 0.764612 0.833147 0.930507
833 1 0.662035 0.674344 0.841644
810 1 0.768507 0.593343 0.823776
735 1 0.585955 0.507238 0.764776
830 1 0.587934 0.755525 0.827229
831 1 0.590886 0.663071 0.923234
844 1 0.00123187 0.904811 0.906636
816 1 0.833077 0.576661 0.916606
814 1 0.925862 0.589747 0.835949
809 1 0.679856 0.503115 0.838166
820 1 0.0056148 0.756104 0.904479
843 1 0.0916852 0.818258 0.924061
821 1 0.166285 0.676153 0.82333
823 1 0.258019 0.650761 0.920215
824 1 0.189676 0.764279 0.922767
815 1 0.925166 0.501971 0.911369
832 1 0.508259 0.752468 0.92184
826 1 0.42259 0.765992 0.830821
827 1 0.41841 0.6686 0.90939
825 1 0.327134 0.662477 0.835516
829 1 0.497002 0.68539 0.840793
828 1 0.332544 0.754758 0.91823
227 1 0.416523 0.99375 0.581886
737 1 0.652677 0.515123 0.672928
465 1 0.33563 0.667056 1.0074
219 1 0.081901 0.999262 0.580772
493 1 0.506068 0.841168 0.998578
697 1 0.00700031 0.823774 0.497715
297 1 0.329165 0.996752 0.673057
733 1 0.49565 0.499548 0.678662
375 1 0.589794 1.00862 0.921136
373 1 0.49134 0.987241 0.840685
702 1 0.254417 0.911905 0.509517
705 1 0.3349 0.826046 0.500357
442 1 0.432259 0.589062 0.996803
461 1 0.16748 0.669292 1.00478
710 1 0.57578 0.906205 0.477434
229 1 0.499187 0.980371 0.501696
686 1 0.57515 0.715202 0.49368
486 1 0.249257 0.909621 1.00195
682 1 0.405972 0.745159 0.510092
694 1 0.930989 0.743775 0.504399
701 1 0.170748 0.830526 0.507496
670 1 0.916479 0.582231 0.480922
717 1 0.834651 0.842961 0.50818
457 1 1.00036 0.666298 1.00439
469 1 0.494849 0.667325 0.997796
706 1 0.405049 0.910977 0.510677
661 1 0.501056 0.511875 0.501082
