ITEM: TIMESTEP
30400
ITEM: NUMBER OF ATOMS
864
ITEM: BOX BOUNDS pp pp pp
0.0000000000000000e+00 3.1559999999999999e+01
0.0000000000000000e+00 3.1559999999999999e+01
0.0000000000000000e+00 3.1559999999999999e+01
ITEM: ATOMS id type xs ys zs
27 1 0.0824703 0.179057 0.069254
4 1 1.00798 0.0783723 0.0810244
62 1 0.577812 0.402975 -0.00103638
215 1 0.926044 0.325208 0.431475
515 1 0.429466 0.490853 0.24902
8 1 0.155195 0.0925841 0.0804298
31 1 0.250821 0.168124 0.0740823
218 1 0.0911678 0.0881009 0.49361
12 1 0.332412 0.0864468 0.0894846
35 1 0.409239 0.179163 0.0765982
579 1 0.0838516 0.500401 0.428688
583 1 0.248942 0.499824 0.420605
16 1 0.505593 0.0878066 0.0992651
86 1 0.585059 0.0789807 0.177309
20 1 0.660052 0.0758185 0.0757783
90 1 0.736937 0.0919792 0.161213
43 1 0.743153 0.178487 0.0937069
113 1 0.652925 0.176437 0.171594
437 1 0.157633 0.495132 -0.00174566
89 1 0.67129 0.00448704 0.152081
24 1 0.840263 0.093466 0.0997368
94 1 0.936967 0.0814465 0.157524
75 1 0.0853093 0.00213382 0.242085
599 1 0.913919 0.490503 0.432909
95 1 0.915788 0.002794 0.239902
98 1 0.0916212 0.253015 0.159666
151 1 0.247593 -0.014407 0.424316
28 1 0.00478041 0.252544 0.0764197
589 1 0.502855 0.489185 0.330388
32 1 0.172223 0.260655 0.0824852
36 1 0.32001 0.258914 0.0684409
10 1 0.41948 0.0732531 0.0131562
109 1 0.507319 0.171329 0.168701
77 1 0.155616 0.0116949 0.14508
40 1 0.510777 0.25318 0.082782
39 1 0.590554 0.170773 0.0817238
44 1 0.669848 0.252612 0.0760696
48 1 0.835119 0.263022 0.0856357
521 1 0.661317 0.497905 0.185518
47 1 0.923552 0.16871 0.0640858
117 1 0.849032 0.175592 0.168121
118 1 0.914744 0.254652 0.151006
71 1 0.915823 0.349519 0.0824892
519 1 0.575503 0.502784 0.25916
51 1 0.0880726 0.331789 0.0796082
81 1 0.329006 0.00503119 0.169989
238 1 0.915888 0.0812115 0.485064
167 1 0.918974 0.00694599 0.4054
55 1 0.243562 0.335384 0.0946871
581 1 0.178536 0.502141 0.327519
56 1 0.167251 0.430525 0.0934922
60 1 0.330983 0.422319 0.0867495
59 1 0.417648 0.329867 0.0713803
64 1 0.497375 0.42182 0.087768
23 1 0.916495 -0.0023398 0.0813988
129 1 0.35004 0.344687 0.156079
505 1 0.00350321 0.497037 0.178571
63 1 0.586756 0.329156 0.07448
68 1 0.665686 0.406262 0.0927702
134 1 0.575384 0.428048 0.161699
199 1 0.258804 0.330116 0.411435
67 1 0.747532 0.335345 0.0856747
138 1 0.73566 0.420123 0.179895
61 1 0.49985 0.327263 -0.0125183
198 1 0.24514 0.407725 0.342987
141 1 0.835292 0.352413 0.166823
52 1 0.0145825 0.42817 0.0925958
72 1 0.80507 0.418071 0.0793662
211 1 0.751057 0.333464 0.402998
188 1 0.67367 0.247282 0.415364
101 1 0.177835 0.172257 0.160701
74 1 0.0802703 0.0971238 0.169524
76 1 0.999791 0.0930563 0.245359
99 1 0.0995422 0.180807 0.251852
78 1 0.244565 0.0862673 0.150665
80 1 0.168693 0.0739179 0.234983
103 1 0.236067 0.161907 0.248848
216 1 0.829085 0.417114 0.411662
45 1 0.82545 0.173495 0.019727
82 1 0.412812 0.0863838 0.164373
84 1 0.31844 0.0961501 0.231914
88 1 0.503742 0.0908459 0.239354
177 1 0.331987 0.161178 0.326213
527 1 0.933171 0.495092 0.268912
111 1 0.575252 0.177977 0.251996
3 1 0.0837292 0.00241595 0.070024
92 1 0.664703 0.0693508 0.257823
115 1 0.729066 0.162515 0.255259
162 1 0.753333 0.0770215 0.321392
96 1 0.827087 0.0853527 0.23548
119 1 0.931225 0.178189 0.244875
166 1 0.919682 0.079226 0.319392
97 1 0.000639826 0.178102 0.157146
100 1 0.0110901 0.253079 0.241306
125 1 0.172492 0.341905 0.169218
102 1 0.252765 0.251876 0.170002
104 1 0.175006 0.248564 0.247051
127 1 0.271432 0.320826 0.243685
108 1 0.355402 0.24085 0.253123
105 1 0.330535 0.183135 0.163363
106 1 0.422055 0.255717 0.164076
107 1 0.417892 0.153655 0.236696
178 1 0.410322 0.243308 0.340824
112 1 0.488951 0.234905 0.260936
110 1 0.593962 0.264256 0.171192
135 1 0.582659 0.328486 0.26787
116 1 0.665006 0.263175 0.25692
114 1 0.781264 0.257304 0.174028
120 1 0.837357 0.247702 0.26405
209 1 0.675143 0.337665 0.3215
213 1 0.852482 0.329306 0.344751
139 1 0.781765 0.334209 0.259439
186 1 0.765744 0.237957 0.341862
121 1 0.0107849 0.345602 0.165016
189 1 0.847592 0.151876 0.322069
143 1 0.91969 0.326216 0.241865
122 1 0.0992535 0.419862 0.174507
123 1 0.101556 0.340439 0.249351
128 1 0.185369 0.420522 0.257264
194 1 0.0930146 0.424975 0.332287
208 1 0.484884 0.412496 0.413989
126 1 0.255238 0.420752 0.181521
132 1 0.330708 0.426764 0.251157
49 1 0.00301641 0.341682 -0.000147164
153 1 0.340255 0.0131348 0.318679
207 1 0.578218 0.323744 0.416875
130 1 0.416159 0.4258 0.161415
131 1 0.405401 0.333399 0.24485
202 1 0.416643 0.422096 0.331386
137 1 0.679171 0.320353 0.169598
133 1 0.49765 0.343039 0.150313
136 1 0.498655 0.39402 0.242779
206 1 0.585216 0.402554 0.342645
210 1 0.746624 0.424772 0.326597
140 1 0.654766 0.415 0.253826
144 1 0.841341 0.426448 0.254192
37 1 0.502965 0.168835 -0.000335237
205 1 0.478076 0.321053 0.327029
142 1 0.925397 0.42068 0.17083
214 1 0.925631 0.420624 0.344771
124 1 0.00199747 0.412745 0.259719
146 1 0.0873258 0.0725709 0.336211
152 1 0.180088 0.0757309 0.420805
148 1 0.00588567 0.0861439 0.416663
171 1 0.0923676 0.163692 0.412905
212 1 0.66976 0.405197 0.423147
173 1 0.173107 0.152375 0.330267
150 1 0.251384 0.0648641 0.329963
156 1 0.331245 0.0715755 0.413094
175 1 0.254561 0.158023 0.423214
234 1 0.744073 0.0751048 0.494679
190 1 0.920544 0.243269 0.338167
204 1 0.343201 0.425874 0.409163
182 1 0.575796 0.238126 0.338133
154 1 0.419169 0.0800164 0.328369
179 1 0.415461 0.146185 0.41383
160 1 0.493537 0.0739375 0.415991
181 1 0.490666 0.156448 0.337047
50 1 0.0749796 0.420317 0.00719049
203 1 0.404372 0.335941 0.406398
185 1 0.643613 0.147311 0.358072
158 1 0.573248 0.0725473 0.323944
183 1 0.564227 0.164028 0.427382
201 1 0.331093 0.328504 0.330859
192 1 0.823049 0.251976 0.428052
200 1 0.173888 0.420186 0.420117
164 1 0.659587 0.0544019 0.40906
187 1 0.748532 0.151484 0.404834
184 1 0.488707 0.238447 0.407575
195 1 0.0951951 0.341521 0.405616
169 1 0.992903 0.168456 0.33567
168 1 0.832202 0.0746116 0.404276
19 1 0.75693 0.0111022 0.0720189
196 1 1.00658 0.424146 0.422453
180 1 0.315027 0.243876 0.410147
170 1 0.0906127 0.240023 0.328998
193 1 0.0105713 0.333071 0.344551
172 1 0.00298773 0.243381 0.412127
197 1 0.175287 0.330141 0.324332
176 1 0.179175 0.248026 0.416098
145 1 0.00421778 0.0098113 0.333469
18 1 0.736142 0.0902394 0.00374773
191 1 0.908569 0.171232 0.420608
174 1 0.249059 0.247944 0.32691
273 1 0.34578 0.334937 0.497424
222 1 0.25821 0.072885 0.495021
54 1 0.250433 0.418704 0.0205203
261 1 0.834052 0.164019 0.49968
58 1 0.427035 0.407655 0.0132163
257 1 0.658344 0.171034 0.4837
281 1 0.658687 0.331319 0.495633
14 1 0.556735 0.0763368 0.00794362
274 1 0.408691 0.439501 0.495624
41 1 0.660161 0.179613 0.00511017
46 1 0.917735 0.256587 0.00548743
285 1 0.835911 0.343351 0.48937
282 1 0.747855 0.426855 0.485611
57 1 0.332277 0.345586 0.0075801
277 1 0.499086 0.341135 0.492813
449 1 0.662075 0.486846 0.021326
665 1 0.664831 0.484879 0.496996
242 1 0.0883714 0.258101 0.48426
250 1 0.41321 0.245072 0.487104
441 1 0.331764 0.504334 0.00801917
33 1 0.3437 0.156833 0.00710839
224 1 0.164794 0.0695527 0.572776
729 1 0.34141 0.49775 0.673263
220 1 1.00446 0.0742145 0.566808
375 1 0.591366 0.011203 0.8942
6 1 0.247753 0.0909095 1.00102
247 1 0.251691 0.159649 0.568452
653 1 0.17019 0.489058 0.514655
228 1 0.335826 0.080241 0.584001
298 1 0.406883 0.0908762 0.663715
253 1 0.488589 0.172796 0.498283
251 1 0.419024 0.179019 0.577645
232 1 0.494671 0.0862076 0.598319
255 1 0.586122 0.165084 0.575866
302 1 0.579115 0.0694379 0.670534
231 1 0.580937 0.0120492 0.57504
236 1 0.668985 0.0850537 0.573971
306 1 0.749757 0.0717547 0.657482
240 1 0.828278 0.0812492 0.568684
333 1 0.841255 0.161661 0.651626
263 1 0.92526 0.162516 0.588461
310 1 0.927582 0.0923386 0.679268
313 1 0.00675244 0.16587 0.660769
243 1 0.0922252 0.16667 0.576772
663 1 0.582767 0.489161 0.578036
267 1 0.0940676 0.317675 0.584704
248 1 0.177937 0.241241 0.592862
252 1 0.338351 0.247886 0.590231
271 1 0.259097 0.326009 0.589269
318 1 0.246033 0.238871 0.669773
322 1 0.430145 0.236677 0.67115
275 1 0.430338 0.343226 0.576829
321 1 0.31822 0.156331 0.673851
325 1 0.512766 0.162657 0.671121
256 1 0.502601 0.267504 0.576975
260 1 0.671168 0.238775 0.580283
279 1 0.592833 0.339434 0.583315
326 1 0.591245 0.253977 0.664346
349 1 0.497924 0.330186 0.672404
259 1 0.745477 0.152603 0.580562
353 1 0.677687 0.328509 0.65789
264 1 0.834902 0.25469 0.578417
244 1 -0.00673377 0.243167 0.581189
287 1 0.921361 0.334136 0.588922
334 1 0.91866 0.247181 0.663322
25 1 0.00907151 0.167899 0.986671
667 1 0.74386 0.500595 0.577765
272 1 0.167731 0.409194 0.592373
338 1 0.0815423 0.407776 0.658215
276 1 0.340529 0.401228 0.597351
342 1 0.260229 0.400281 0.668294
346 1 0.416148 0.417371 0.68177
280 1 0.495925 0.420574 0.597223
69 1 0.81883 0.342611 1.01054
53 1 0.163457 0.336957 0.999888
659 1 0.416013 0.494934 0.60124
284 1 0.66885 0.41743 0.588935
350 1 0.568995 0.418182 0.674284
795 1 0.0792174 0.487175 0.910147
283 1 0.751188 0.344657 0.586522
432 1 0.812389 0.423695 0.920577
354 1 0.77677 0.422197 0.670342
38 1 0.583782 0.251324 0.993974
649 1 0.016668 0.489952 0.508203
288 1 0.83289 0.405556 0.569947
268 1 0.994897 0.425252 0.58554
381 1 0.824969 0.00220262 0.840538
269 1 0.185769 0.332748 0.505264
371 1 0.413497 0.00979101 0.912986
290 1 0.0723298 0.0846501 0.646731
385 1 0.98114 0.17329 0.856648
362 1 0.0767569 0.064383 0.832355
430 1 0.895683 0.440108 0.840824
294 1 0.247944 0.0922263 0.661264
296 1 0.144375 0.0786031 0.75509
366 1 0.240477 0.0752242 0.823727
258 1 0.749976 0.25321 0.510983
5 1 0.167296 0.0176264 1.0052
300 1 0.319474 0.0779755 0.745762
270 1 0.266559 0.421378 0.512122
427 1 0.741354 0.333797 0.907006
304 1 0.491154 0.0854954 0.757343
308 1 0.682835 0.0772118 0.743122
374 1 0.594869 0.110014 0.832896
735 1 0.587106 0.497461 0.751112
799 1 0.252443 0.497023 0.921199
428 1 0.667217 0.408221 0.90303
329 1 0.654827 0.154089 0.677543
378 1 0.742125 0.0944418 0.835007
331 1 0.74678 0.165309 0.738579
312 1 0.829495 0.0881052 0.744301
292 1 0.00569451 0.100948 0.75617
335 1 0.910011 0.163032 0.759951
382 1 0.909599 0.0893007 0.837868
314 1 0.0960677 0.248998 0.674176
315 1 0.0955544 0.170505 0.75154
409 1 0.00570122 0.324856 0.836504
386 1 0.077799 0.257832 0.811928
317 1 0.155601 0.151533 0.658801
319 1 0.230333 0.149887 0.748549
320 1 0.175996 0.250453 0.762407
343 1 0.266737 0.330786 0.757667
389 1 0.166746 0.162865 0.831593
323 1 0.424557 0.155422 0.747681
324 1 0.347992 0.240246 0.740638
328 1 0.49623 0.251538 0.752788
345 1 0.357716 0.324062 0.671412
327 1 0.584753 0.166168 0.75113
401 1 0.673613 0.17722 0.825534
351 1 0.581041 0.332605 0.747392
398 1 0.567673 0.248657 0.835134
425 1 0.670942 0.337095 0.816892
332 1 0.667614 0.248472 0.744329
330 1 0.746376 0.244087 0.66632
402 1 0.755208 0.250779 0.834129
336 1 0.852632 0.246447 0.741283
337 1 -0.0038159 0.335183 0.675654
357 1 0.828888 0.322365 0.660126
316 1 0.983457 0.252425 0.754315
429 1 0.825202 0.333037 0.839578
406 1 0.918251 0.259778 0.844136
339 1 0.0849545 0.352334 0.745095
413 1 0.190302 0.332625 0.84376
344 1 0.186209 0.41183 0.770891
340 1 0.986419 0.422806 0.774303
721 1 0.0171446 0.49402 0.676647
303 1 0.593295 0.0201221 0.768473
341 1 0.174126 0.328146 0.6722
348 1 0.33253 0.429393 0.762467
414 1 0.260273 0.423528 0.84487
417 1 0.347486 0.321001 0.834573
418 1 0.429888 0.425105 0.83593
347 1 0.416684 0.343432 0.756712
352 1 0.500265 0.439566 0.752571
421 1 0.492769 0.339885 0.82472
422 1 0.583594 0.417028 0.820747
356 1 0.667855 0.413299 0.727455
809 1 0.667765 0.490889 0.826945
426 1 0.73992 0.415277 0.824722
355 1 0.753414 0.330045 0.742754
286 1 0.920325 0.417453 0.508244
358 1 0.919822 0.41945 0.667889
359 1 0.904738 0.350041 0.764941
360 1 0.827211 0.431886 0.766261
364 1 0.985107 0.0750501 0.911753
807 1 0.581192 0.493942 0.920253
2 1 0.0839349 0.0932522 1.00974
311 1 0.913502 0.0201119 0.758347
368 1 0.17002 0.0811028 0.901526
372 1 0.323817 0.0866739 0.907496
370 1 0.417463 0.084605 0.834323
741 1 0.843655 0.491368 0.6571
266 1 0.094288 0.405765 0.505658
376 1 0.510544 0.0708658 0.906272
424 1 0.499564 0.415797 0.920016
380 1 0.671535 0.0966679 0.926715
239 1 0.923818 -0.00150455 0.562313
411 1 0.0932477 0.348813 0.915554
655 1 0.257237 0.49928 0.587005
384 1 0.82519 0.0896467 0.914216
227 1 0.422294 -0.000186686 0.597345
387 1 0.0898926 0.148511 0.910409
388 1 0.990875 0.25837 0.923634
390 1 0.260251 0.254319 0.82791
391 1 0.238405 0.167734 0.92207
392 1 0.148769 0.2521 0.905386
415 1 0.263695 0.33899 0.924646
420 1 0.363905 0.423084 0.919507
393 1 0.332959 0.161534 0.823047
396 1 0.336786 0.237136 0.921743
394 1 0.420195 0.243025 0.825642
395 1 0.417157 0.151705 0.925986
400 1 0.494878 0.244594 0.917773
397 1 0.496254 0.166718 0.827592
423 1 0.568968 0.332168 0.91266
399 1 0.588912 0.17937 0.915368
416 1 0.17597 0.416091 0.918666
410 1 0.0765215 0.420897 0.829149
403 1 0.752873 0.177523 0.93053
404 1 0.656091 0.265599 0.910156
419 1 0.422707 0.332028 0.915496
405 1 0.823564 0.160344 0.838975
407 1 0.902101 0.178497 0.926721
408 1 0.828963 0.256241 0.923676
431 1 0.908024 0.3354 0.927826
412 1 0.991261 0.412686 0.907834
22 1 0.906359 0.0824832 0.997259
29 1 0.161265 0.165028 0.999515
289 1 -0.00437592 0.00785344 0.659266
811 1 0.72278 0.501578 0.922131
297 1 0.327903 -0.000978831 0.674189
249 1 0.340119 0.151124 0.503571
651 1 0.0900882 0.491941 0.592823
9 1 0.329701 0.00923266 0.994183
30 1 0.239281 0.249893 1.00001
725 1 0.167208 0.49305 0.681871
379 1 0.748179 0.0163781 0.918357
265 1 0.00800341 0.331501 0.508748
34 1 0.406111 0.263091 0.992045
66 1 0.736503 0.407695 0.992615
26 1 0.085603 0.253343 0.995304
278 1 0.590516 0.411244 0.502819
262 1 0.921433 0.243814 0.504305
246 1 0.265766 0.246589 0.514119
245 1 0.166876 0.158289 0.505736
254 1 0.573891 0.250872 0.500645
65 1 0.660005 0.333904 0.994
70 1 0.922658 0.415479 0.997013
241 1 0.00630044 0.167603 0.495535
230 1 0.567823 0.0811051 0.497204
1 1 0.993456 -0.00445539 0.990441
226 1 0.420263 0.0837333 0.52024
42 1 0.75317 0.265634 0.99429
436 1 0.99867 0.58668 0.0694423
506 1 0.0853746 0.596232 0.165085
459 1 0.0693799 0.674247 0.0759371
440 1 0.149603 0.58928 0.071934
482 1 0.0772131 0.913206 0.00444258
453 1 0.830962 0.499533 0.0149409
463 1 0.24894 0.677815 0.0841536
673 1 0.0063363 0.664791 0.503171
587 1 0.42402 0.515399 0.425056
444 1 0.321846 0.588248 0.0874246
83 1 0.421504 0.996098 0.248516
448 1 0.503531 0.586839 0.0852826
13 1 0.490522 0.992588 -0.0014417
452 1 0.673027 0.597018 0.0953696
451 1 0.744036 0.499909 0.0942522
471 1 0.57903 0.664511 0.0957124
435 1 0.0816135 0.510025 0.0888781
456 1 0.83748 0.592417 0.0915374
597 1 0.831033 0.500331 0.32774
526 1 0.926353 0.582515 0.168991
479 1 0.923541 0.664287 0.0879545
647 1 0.924668 0.834648 0.411954
147 1 0.0865482 0.994533 0.409969
685 1 0.507876 0.680332 0.504421
530 1 0.0770499 0.740767 0.168336
464 1 0.156729 0.75953 0.0740112
483 1 0.0704769 0.82511 0.0799369
93 1 0.830302 0.997747 0.158705
468 1 0.344911 0.741235 0.0773249
557 1 0.158749 0.839611 0.152861
534 1 0.25388 0.745405 0.176078
467 1 0.425262 0.66497 0.0725143
541 1 0.494344 0.665016 0.172477
537 1 0.342055 0.661131 0.160461
538 1 0.414983 0.752467 0.184617
79 1 0.242326 0.985879 0.240278
472 1 0.505827 0.752005 0.0904111
476 1 0.665524 0.739873 0.0855617
545 1 0.665108 0.661474 0.182447
542 1 0.576883 0.745564 0.18073
693 1 0.836562 0.662783 0.49683
439 1 0.244019 0.521131 0.0701881
475 1 0.763087 0.663291 0.0821472
480 1 0.84395 0.74335 0.0893057
546 1 0.74319 0.744283 0.160511
11 1 0.410154 0.998073 0.0940581
460 1 0.986736 0.746394 0.083199
550 1 0.918955 0.75416 0.175811
553 1 0.99398 0.844831 0.164016
484 1 1.00005 0.940634 0.0822554
554 1 0.0734545 0.9084 0.154746
689 1 0.668915 0.671109 0.478705
487 1 0.252988 0.827332 0.0825782
488 1 0.179772 0.907196 0.067634
648 1 0.839221 0.91478 0.401164
157 1 0.488305 0.987688 0.333862
492 1 0.324501 0.92222 0.0841931
491 1 0.417346 0.831475 0.0873541
562 1 0.424203 0.894977 0.170639
577 1 0.0173584 0.494653 0.341187
496 1 0.489722 0.91571 0.079499
495 1 0.581804 0.838668 0.0768849
565 1 0.50793 0.830581 0.180811
7 1 0.236577 1.00646 0.076608
455 1 0.913734 0.507474 0.0982642
499 1 0.755464 0.827294 0.0820731
500 1 0.660554 0.912182 0.0808138
503 1 0.918617 0.827802 0.0805203
163 1 0.740983 0.988504 0.400863
504 1 0.835025 0.918538 0.0927695
574 1 0.916998 0.917622 0.160926
485 1 0.1503 0.830432 -0.000135342
87 1 0.567136 0.99192 0.243881
469 1 0.524285 0.663629 0.00261648
578 1 0.0906459 0.582748 0.339667
666 1 0.753934 0.585381 0.493567
533 1 0.179806 0.671368 0.191222
510 1 0.247568 0.593579 0.170547
512 1 0.163968 0.584709 0.250959
516 1 0.331445 0.581375 0.263043
595 1 0.75235 0.50769 0.416483
514 1 0.41066 0.584971 0.165893
520 1 0.485112 0.577257 0.265728
539 1 0.418423 0.668117 0.252504
507 1 0.0863416 0.501427 0.250897
518 1 0.581336 0.589335 0.175171
15 1 0.584567 0.990091 0.0876332
524 1 0.664184 0.588128 0.25377
590 1 0.577725 0.58808 0.33804
522 1 0.753297 0.596111 0.172181
547 1 0.752119 0.671433 0.259337
528 1 0.837792 0.585638 0.250447
549 1 0.830044 0.665772 0.178388
642 1 0.760601 0.915194 0.313555
529 1 0.998637 0.666185 0.170416
686 1 0.596613 0.752416 0.481913
508 1 0.00674554 0.579633 0.255173
598 1 0.921705 0.572878 0.35533
551 1 0.929055 0.670114 0.254678
601 1 -0.000338681 0.664989 0.336264
531 1 0.0842503 0.660615 0.259375
555 1 0.0724509 0.834281 0.251944
536 1 0.169 0.754919 0.247355
602 1 0.0772883 0.744869 0.333991
625 1 0.0115283 0.827651 0.332405
535 1 0.260895 0.670685 0.252473
559 1 0.25753 0.844166 0.250311
606 1 0.250447 0.74617 0.326307
561 1 0.32599 0.833079 0.161398
540 1 0.332498 0.750314 0.249553
544 1 0.498266 0.752337 0.266374
543 1 0.577907 0.670693 0.256318
569 1 0.663232 0.834688 0.155868
548 1 0.671571 0.763359 0.26424
618 1 0.756718 0.753977 0.33391
571 1 0.743058 0.838504 0.240123
532 1 -0.0121726 0.754559 0.251078
552 1 0.820253 0.751754 0.242895
645 1 0.837965 0.838115 0.330567
622 1 0.913158 0.759934 0.318413
621 1 0.842682 0.669984 0.32593
718 1 0.908335 0.927549 0.488922
560 1 0.160056 0.916897 0.239423
556 1 0.998765 0.932991 0.240844
558 1 0.245566 0.912258 0.162738
709 1 0.505322 0.830235 0.500915
564 1 0.335192 0.916044 0.249612
563 1 0.425772 0.827695 0.273958
690 1 0.745952 0.741134 0.492176
567 1 0.577282 0.832473 0.255277
566 1 0.57768 0.907257 0.172243
568 1 0.498259 0.907047 0.255006
638 1 0.579471 0.919186 0.339367
570 1 0.749176 0.919276 0.151564
573 1 0.835428 0.826707 0.158181
572 1 0.65513 0.91321 0.249978
717 1 0.833738 0.822606 0.49499
575 1 0.91127 0.840304 0.243152
646 1 0.926359 0.919991 0.335371
576 1 0.82656 0.914158 0.227551
91 1 0.749802 0.99041 0.229856
603 1 0.0863548 0.672977 0.419132
584 1 0.163789 0.579729 0.426288
582 1 0.245097 0.596621 0.339964
588 1 0.330463 0.590031 0.423087
609 1 0.332101 0.680468 0.350802
586 1 0.413273 0.582477 0.339982
458 1 0.078733 0.756904 0.000818342
592 1 0.507992 0.576131 0.412486
517 1 0.495894 0.504927 0.165193
523 1 0.736103 0.501759 0.25345
594 1 0.747631 0.590922 0.338242
617 1 0.66224 0.658015 0.331423
596 1 0.671668 0.584735 0.411044
525 1 0.812201 0.507346 0.17546
670 1 0.928095 0.574246 0.496398
580 1 0.0109099 0.576282 0.433379
600 1 0.828398 0.58317 0.413206
702 1 0.257196 0.915173 0.499111
217 1 0.00754346 0.987356 0.499426
605 1 0.178027 0.670063 0.324973
627 1 0.0763764 0.831883 0.418875
629 1 0.153629 0.82448 0.320109
608 1 0.157677 0.758142 0.407594
513 1 0.336385 0.509229 0.174111
631 1 0.258682 0.847401 0.399794
607 1 0.239563 0.663517 0.420936
612 1 0.332172 0.762616 0.414907
637 1 0.502886 0.83361 0.347568
633 1 0.340749 0.834166 0.328381
616 1 0.505453 0.748469 0.415639
635 1 0.418296 0.839299 0.407638
610 1 0.412836 0.742667 0.333055
611 1 0.428253 0.654176 0.414479
636 1 0.333189 0.921407 0.41608
614 1 0.583346 0.743204 0.335336
613 1 0.50681 0.663925 0.339097
615 1 0.582658 0.667512 0.420472
641 1 0.663279 0.841275 0.331574
644 1 0.651454 0.922226 0.422099
619 1 0.761424 0.675584 0.407714
620 1 0.672727 0.753662 0.407576
643 1 0.763013 0.830785 0.411012
585 1 0.332511 0.507221 0.34856
623 1 0.923583 0.656757 0.424788
604 1 0.996248 0.746989 0.425312
624 1 0.850187 0.738144 0.416088
628 1 -0.000113559 0.918399 0.408948
626 1 0.0823789 0.920186 0.325613
634 1 0.402646 0.919104 0.332842
639 1 0.588188 0.833801 0.420451
640 1 0.488565 0.924608 0.426291
630 1 0.255233 0.923534 0.320185
632 1 0.159973 0.909432 0.411634
443 1 0.410134 0.507181 0.0813616
165 1 0.829113 0.998833 0.310039
149 1 0.167558 1.0028 0.335713
159 1 0.564396 0.995643 0.417522
509 1 0.162401 0.510926 0.1664
501 1 0.836022 0.822621 0.00812442
161 1 0.657093 0.990579 0.32867
73 1 0.00995138 1.01332 0.162383
155 1 0.407172 1.00076 0.4122
681 1 0.337903 0.667188 0.494532
466 1 0.42943 0.755008 -0.00982258
237 1 0.824452 0.997184 0.4819
591 1 0.583174 0.495958 0.408327
511 1 0.253378 0.508286 0.25101
447 1 0.593362 0.518969 0.0991378
593 1 0.664667 0.503151 0.325482
21 1 0.838755 0.99408 0.00359006
85 1 0.494982 0.983931 0.165154
446 1 0.598053 0.587632 0.00964152
674 1 0.0904852 0.749691 0.497776
706 1 0.417627 0.904776 0.501893
473 1 0.671744 0.667579 0.00649037
474 1 0.745801 0.748037 0.00899554
705 1 0.324106 0.835796 0.492798
442 1 0.430239 0.581791 0.0104254
682 1 0.428968 0.755126 0.48886
221 1 0.16408 0.985174 0.490053
701 1 0.174331 0.838082 0.48885
481 1 0.993308 0.829166 0.00578959
470 1 0.588598 0.759099 0.0115424
450 1 0.750843 0.587 0.00949484
461 1 0.166388 0.668905 0.0049227
498 1 0.760533 0.913028 0.0148095
225 1 0.339869 0.992698 0.498061
697 1 0.995327 0.827777 0.495191
713 1 0.66402 0.83434 0.491599
478 1 0.912615 0.748005 0.00446909
714 1 0.752835 0.918485 0.483329
675 1 0.0983941 0.681514 0.580707
223 1 0.245609 1.00339 0.589149
743 1 0.905391 0.513018 0.755872
710 1 0.583634 0.916039 0.514598
739 1 0.73689 0.50373 0.748043
656 1 0.182029 0.582159 0.604933
660 1 0.337418 0.579597 0.593707
654 1 0.233363 0.59563 0.50452
797 1 0.158777 0.503336 0.835392
229 1 0.480734 1.00041 0.500869
683 1 0.42174 0.665167 0.589042
862 1 0.907373 0.918974 0.822925
657 1 0.322313 0.514518 0.493078
494 1 0.585334 0.910668 0.993298
727 1 0.251373 0.486786 0.756648
664 1 0.493387 0.574822 0.582933
668 1 0.661296 0.588603 0.590718
672 1 0.824066 0.573046 0.598261
462 1 0.234507 0.763738 0.998379
652 1 1.00718 0.567369 0.595559
745 1 -0.000621685 0.660116 0.66545
695 1 0.904953 0.646115 0.584656
299 1 0.396954 0.994181 0.754226
699 1 0.0823063 0.830872 0.578556
680 1 0.172356 0.748673 0.574057
369 1 0.322727 0.997815 0.845945
801 1 0.334578 0.507006 0.838878
679 1 0.262399 0.659915 0.586363
703 1 0.255818 0.834187 0.568815
773 1 0.183028 0.81886 0.662398
233 1 0.659615 0.993681 0.508248
750 1 0.24905 0.737192 0.662203
684 1 0.347601 0.747948 0.569483
754 1 0.426833 0.753175 0.669965
777 1 0.318275 0.817477 0.657339
707 1 0.431064 0.833336 0.595328
781 1 0.514877 0.827798 0.664463
383 1 0.909071 0.995856 0.916614
688 1 0.504365 0.746 0.589402
687 1 0.584369 0.675743 0.581787
758 1 0.58179 0.741639 0.668407
761 1 0.656943 0.668578 0.67473
691 1 0.745682 0.652643 0.56586
692 1 0.675139 0.748683 0.577696
762 1 0.741699 0.74907 0.660626
696 1 0.823815 0.738728 0.585057
295 1 0.242987 0.993259 0.74711
789 1 0.833181 0.839671 0.665717
676 1 0.00271068 0.748619 0.579719
766 1 0.920793 0.739635 0.673625
719 1 0.916792 0.825431 0.594941
769 1 0.995255 0.835204 0.666814
678 1 0.250636 0.735806 0.501452
805 1 0.506408 0.517722 0.830838
434 1 0.0790129 0.5852 0.986961
671 1 0.918796 0.506657 0.591116
737 1 0.669175 0.500733 0.662106
704 1 0.172976 0.917939 0.570422
774 1 0.238787 0.917517 0.665366
708 1 0.343636 0.902935 0.596581
733 1 0.503781 0.512906 0.667973
658 1 0.412493 0.586234 0.50594
712 1 0.500041 0.92506 0.584347
438 1 0.254089 0.579297 0.986275
490 1 0.411528 0.902296 1.00047
307 1 0.746622 0.999781 0.746671
711 1 0.588471 0.836416 0.581426
782 1 0.576237 0.923676 0.665735
716 1 0.672451 0.918434 0.580583
723 1 0.0740804 0.511139 0.758051
715 1 0.752849 0.825495 0.583512
786 1 0.753236 0.91713 0.665608
373 1 0.496946 0.993496 0.814052
840 1 0.824888 0.755311 0.917775
301 1 0.484362 1.00802 0.685083
700 1 1.00464 0.910251 0.572996
720 1 0.84346 0.922499 0.572778
377 1 0.673143 0.993681 0.831207
305 1 0.673901 0.994666 0.656414
835 1 0.743152 0.662379 0.923502
722 1 0.09766 0.595611 0.651526
749 1 0.172712 0.660185 0.683239
747 1 0.083584 0.645227 0.762319
728 1 0.171845 0.578846 0.755757
794 1 0.0781485 0.585451 0.865806
726 1 0.257517 0.570353 0.674017
751 1 0.242501 0.665537 0.761127
732 1 0.327869 0.583866 0.755201
798 1 0.242882 0.573886 0.830367
730 1 0.411116 0.583565 0.674994
736 1 0.496727 0.585645 0.749948
802 1 0.421562 0.597772 0.832988
837 1 0.824383 0.672332 0.808387
844 1 0.981405 0.905442 0.91026
734 1 0.584746 0.578835 0.671502
759 1 0.574821 0.662389 0.766097
757 1 0.507376 0.671034 0.675879
806 1 0.588197 0.575197 0.839199
363 1 0.0793673 0.998503 0.926531
765 1 0.821602 0.675736 0.677522
740 1 0.652521 0.585262 0.7556
738 1 0.741528 0.582839 0.668185
810 1 0.728876 0.578941 0.845446
744 1 0.819507 0.584888 0.744128
742 1 0.911484 0.576957 0.669305
724 1 0.984855 0.573483 0.748492
859 1 0.751359 0.839731 0.90394
767 1 0.906193 0.666928 0.745715
662 1 0.586176 0.583766 0.514137
746 1 0.0850142 0.747823 0.671585
748 1 -1.7394e-05 0.745541 0.744892
771 1 0.0839748 0.830718 0.73652
821 1 0.159461 0.660389 0.833502
752 1 0.16121 0.749023 0.744994
822 1 0.256896 0.757521 0.831886
756 1 0.332089 0.754241 0.752133
775 1 0.245522 0.823325 0.753038
849 1 0.333191 0.846705 0.822453
753 1 0.338795 0.681636 0.67087
755 1 0.414881 0.665855 0.747557
779 1 0.409915 0.829989 0.750291
829 1 0.497685 0.672053 0.839056
833 1 0.661822 0.671461 0.828283
760 1 0.514287 0.75775 0.753046
764 1 0.665189 0.753601 0.736405
857 1 0.676051 0.829649 0.835204
830 1 0.58647 0.744536 0.835115
763 1 0.740577 0.668311 0.748138
834 1 0.749563 0.74646 0.832323
768 1 0.82094 0.75827 0.730922
861 1 0.836504 0.825498 0.814938
791 1 0.914704 0.824785 0.742867
770 1 0.0715147 0.920288 0.661811
502 1 0.914597 0.906066 1.00819
848 1 0.163291 0.914242 0.924936
776 1 0.16624 0.911709 0.756425
780 1 0.323366 0.921673 0.750183
863 1 0.923826 0.822263 0.918284
778 1 0.413721 0.910843 0.682942
853 1 0.508095 0.827977 0.848407
850 1 0.413785 0.926836 0.837465
785 1 0.669694 0.842005 0.654645
783 1 0.598605 0.83563 0.742978
784 1 0.492424 0.897948 0.751675
788 1 0.667512 0.929504 0.739035
854 1 0.595814 0.915283 0.829046
787 1 0.738158 0.835367 0.723586
858 1 0.759259 0.922143 0.826871
792 1 0.843268 0.929393 0.749222
790 1 0.929276 0.922742 0.6535
846 1 0.246259 0.926205 0.836652
856 1 0.505417 0.918973 0.9074
772 1 0.00515318 0.923498 0.743552
650 1 0.0864635 0.578177 0.528705
819 1 0.0826691 0.672208 0.925453
855 1 0.598073 0.829782 0.917568
486 1 0.263486 0.904789 1.00174
793 1 0.00120636 0.507668 0.843408
800 1 0.170582 0.568566 0.923524
804 1 0.34315 0.587073 0.912782
477 1 0.827793 0.663026 0.998656
808 1 0.513026 0.589238 0.923567
365 1 0.162061 0.987262 0.833816
493 1 0.497727 0.841643 0.992721
860 1 0.67216 0.90825 0.901936
812 1 0.663953 0.585235 0.929491
816 1 0.826413 0.573775 0.921369
864 1 0.821361 0.932838 0.921901
845 1 0.154118 0.834434 0.827233
817 1 0.0075863 0.666359 0.83977
814 1 0.895354 0.582079 0.835073
796 1 0.98061 0.583433 0.910308
818 1 0.0854029 0.752766 0.829627
841 1 0.984721 0.820315 0.826802
820 1 -0.0137683 0.744573 0.903717
843 1 0.0699926 0.82062 0.91086
219 1 0.0894673 0.99507 0.570892
842 1 0.063533 0.904255 0.833651
825 1 0.341331 0.667709 0.83356
823 1 0.253598 0.677725 0.90249
824 1 0.175977 0.757885 0.906916
828 1 0.328708 0.763107 0.900593
847 1 0.250474 0.838303 0.905237
839 1 0.906872 0.673771 0.919557
838 1 0.911441 0.740274 0.832329
826 1 0.410037 0.75083 0.82831
827 1 0.418072 0.66899 0.917512
852 1 0.331093 0.914421 0.912826
832 1 0.520444 0.755466 0.918856
831 1 0.583826 0.670211 0.928179
836 1 0.673984 0.752331 0.91703
851 1 0.406129 0.831711 0.916058
815 1 0.895309 0.501882 0.933308
367 1 0.241982 1.00363 0.929758
813 1 0.800306 0.51277 0.838703
291 1 0.0894969 0.989089 0.758047
235 1 0.767003 0.993592 0.577782
361 1 0.997674 0.987634 0.829398
803 1 0.434552 0.507057 0.916389
661 1 0.50133 0.500587 0.507119
454 1 0.912703 0.581312 1.00988
309 1 0.859941 1.00019 0.663221
731 1 0.413075 0.508163 0.764021
293 1 0.158985 0.997274 0.666455
497 1 0.680059 0.837915 0.99164
694 1 0.910269 0.750945 0.508815
698 1 0.0782318 0.903687 0.502614
677 1 0.157778 0.66028 0.503882
489 1 0.333883 0.827786 0.996335
457 1 0.000370108 0.665541 0.988928
669 1 0.835481 0.507198 0.511466
433 1 -0.00343172 0.511229 0.984782
465 1 0.334146 0.666063 0.995888
445 1 0.493765 0.494504 1.00035
17 1 0.655262 0.99332 0.981273
