ITEM: TIMESTEP
16000
ITEM: NUMBER OF ATOMS
1372
ITEM: BOX BOUNDS pp pp pp
0.0000000000000000e+00 3.6820000000000000e+01
0.0000000000000000e+00 3.6820000000000000e+01
0.0000000000000000e+00 3.6820000000000000e+01
ITEM: ATOMS id type xs ys zs
8 1 0.137297 0.0722593 0.082995
100 1 0.0657342 0.0558288 0.150861
117 1 0.144195 0.125287 0.161851
17 1 0.0639055 0.147675 0.0762648
281 1 0.00279099 0.852886 0.294
12 1 0.274046 0.0677553 0.069312
104 1 0.216636 0.0651435 0.139583
7 1 0.204321 0.00803335 0.0712575
121 1 0.263832 0.142623 0.142793
21 1 0.217783 0.140445 0.0658993
378 1 0.427585 0.659815 0.497257
14 1 0.419276 0.0746215 0.0774765
108 1 0.329275 0.0711748 0.142188
111 1 0.425724 1.0093 0.141166
688 1 0.494179 1.00455 0.0574273
374 1 0.218442 0.576232 0.510167
22 1 0.155577 0.211993 0.076439
114 1 0.0810576 0.201137 0.159676
131 1 0.136613 0.275697 0.142797
31 1 0.070105 0.290563 0.0707383
301 1 0.432408 0.00408365 0.435149
46 1 -0.00223307 0.503775 0.0727569
385 1 0.434398 0.794352 0.51031
26 1 0.28254 0.208605 0.0726178
118 1 0.224327 0.221937 0.144942
135 1 0.28605 0.290012 0.129498
939 1 0.510772 0.634826 0.283762
125 1 0.419069 0.139922 0.138081
25 1 0.334385 0.136873 0.0772505
28 1 0.434026 0.215073 0.0832439
122 1 0.343219 0.212229 0.144865
39 1 0.355415 0.277146 0.0787795
36 1 0.139079 0.349511 0.0669361
128 1 0.0777813 0.346028 0.145242
145 1 0.151608 0.429287 0.153147
80 1 0.372706 0.788329 0.00454476
23 1 0.288842 0.135179 -0.00685446
43 1 0.0142486 0.420007 0.00417113
35 1 0.210507 0.284795 0.0691748
40 1 0.287072 0.359112 0.0638662
132 1 0.20304 0.351558 0.139579
49 1 0.218094 0.433258 0.0679423
149 1 0.278504 0.417033 0.136627
139 1 0.42401 0.270543 0.148671
42 1 0.436722 0.369977 0.0733756
136 1 0.360282 0.360485 0.154121
153 1 0.436975 0.431597 0.150583
53 1 0.36099 0.423278 0.0795329
342 1 0.349803 0.934399 0.430822
294 1 0.420286 0.926848 0.36684
45 1 0.0934397 0.427897 0.0735269
371 1 0.434223 0.496991 0.500096
50 1 0.154993 0.512392 0.0731318
142 1 0.0652843 0.519499 0.140065
59 1 0.0824732 0.577962 0.0671435
159 1 0.146663 0.575703 0.141792
302 1 -0.00768788 0.140182 0.437311
361 1 0.140786 0.359818 0.509992
54 1 0.285821 0.495172 0.0809723
146 1 0.22401 0.496622 0.143842
163 1 0.289855 0.570188 0.133867
63 1 0.226157 0.585529 0.0578418
15 1 -0.00296708 0.136559 0.00782077
56 1 0.420141 0.495662 0.0795329
150 1 0.355865 0.498864 0.149256
167 1 0.42793 0.574239 0.142127
67 1 0.35648 0.568512 0.0819766
33 1 0.150428 0.287788 -0.00375491
343 1 0.433249 0.855292 0.435271
64 1 0.152041 0.637441 0.06323
156 1 0.0752979 0.639026 0.139632
173 1 0.135533 0.709537 0.133476
323 1 0.002338 0.574002 0.438336
898 1 0.488053 0.126114 0.352573
68 1 0.303299 0.649061 0.0693845
160 1 0.222399 0.645194 0.132492
77 1 0.231304 0.71685 0.0684318
177 1 0.298676 0.71526 0.143708
19 1 0.150594 0.137031 0.00602878
130 1 0.00637608 0.359419 0.220065
70 1 0.434398 0.643434 0.0605528
164 1 0.384449 0.652613 0.150668
81 1 0.369878 0.708945 0.0771926
181 1 0.442819 0.717218 0.140844
730 1 0.502709 0.435887 0.0802445
73 1 0.0655397 0.71431 0.0713268
78 1 0.143797 0.783387 0.0735128
170 1 0.0663107 0.784218 0.137707
87 1 0.0715644 0.853889 0.0737823
187 1 0.131647 0.866394 0.144111
225 1 0.000761886 0.285608 0.281497
44 1 0.0922977 0.509776 -0.00107006
82 1 0.280663 0.791588 0.0689494
174 1 0.21674 0.776917 0.141334
191 1 0.280022 0.851516 0.144275
786 1 0.505264 0.991303 0.212938
375 1 0.143856 0.641702 0.499516
84 1 0.429611 0.779286 0.0762516
178 1 0.363609 0.800576 0.151586
95 1 0.350396 0.858067 0.0633908
299 1 0.274867 1.00499 0.434875
127 1 0.00257928 0.298476 0.145754
3 1 0.072189 -0.00469405 0.0697475
103 1 0.1402 -0.00627679 0.14907
92 1 0.136862 0.925466 0.0768697
184 1 0.0653949 0.934327 0.152472
729 1 0.508339 0.491478 0.00934685
367 1 0.2138 0.425941 0.493898
91 1 0.206721 0.857876 0.0823784
107 1 0.280319 -0.00997274 0.14613
96 1 0.273036 0.918654 0.0739378
188 1 0.213902 0.928462 0.141121
195 1 0.433071 0.863153 0.118869
11 1 0.352953 -0.000791978 0.0872981
98 1 0.431853 0.94805 0.0748473
192 1 0.351103 0.921058 0.139011
953 1 0.495374 0.800182 0.293631
79 1 0.302945 0.725948 0.00573558
330 1 -0.000529052 0.709323 0.416242
292 1 0.278882 0.921893 0.357329
106 1 0.132533 0.0571681 0.222925
198 1 0.0691109 0.0662994 0.291101
115 1 0.0585907 0.135069 0.225425
340 1 0.213409 0.926814 0.433161
110 1 0.271472 0.0766673 0.228223
202 1 0.210443 0.0681501 0.289016
119 1 0.215146 0.146499 0.219827
205 1 0.276818 -0.0106525 0.290075
105 1 0.212319 1.00213 0.222238
112 1 0.410091 0.0683771 0.229698
206 1 0.347127 0.0664283 0.29178
109 1 0.337536 1.0093 0.2161
209 1 0.421762 0.993092 0.28817
968 1 0.503059 0.862862 0.367746
215 1 0.139145 0.1363 0.280424
120 1 0.153853 0.225178 0.217838
212 1 0.0772663 0.22065 0.305383
129 1 0.082286 0.286916 0.21911
229 1 0.147899 0.295265 0.297423
219 1 0.282619 0.145876 0.287899
124 1 0.289871 0.21092 0.222374
216 1 0.219724 0.216183 0.287656
133 1 0.229738 0.280636 0.211361
233 1 0.286975 0.283224 0.283253
123 1 0.344279 0.139987 0.216269
223 1 0.410653 0.135746 0.294383
126 1 0.416089 0.205206 0.216687
220 1 0.344563 0.213515 0.299029
137 1 0.351362 0.292544 0.219495
926 1 0.498853 0.424034 0.363447
134 1 0.165544 0.339307 0.219816
226 1 0.079018 0.375897 0.269049
138 1 0.287162 0.364281 0.212936
230 1 0.228587 0.358126 0.278006
147 1 0.223681 0.434493 0.212763
341 1 0.287243 0.864072 0.442426
237 1 0.423962 0.284105 0.273751
140 1 0.443946 0.34814 0.210065
234 1 0.364023 0.363061 0.275565
251 1 0.433263 0.423878 0.281364
151 1 0.376592 0.433773 0.213086
169 1 -0.00715712 0.699832 0.149658
143 1 0.0754769 0.432877 0.201784
243 1 0.150369 0.449325 0.283808
148 1 0.141807 0.512563 0.214838
240 1 0.0702962 0.485849 0.286522
157 1 0.0683651 0.57037 0.220976
74 1 0.00211024 0.782272 0.0439014
247 1 0.288822 0.432051 0.285516
152 1 0.286328 0.518735 0.209568
244 1 0.223097 0.505589 0.282162
261 1 0.286813 0.57467 0.289804
154 1 0.433265 0.50698 0.213236
248 1 0.353726 0.509902 0.266569
165 1 0.36184 0.581085 0.204899
381 1 0.213316 0.709004 0.490707
358 1 0.0776506 0.282982 0.503982
257 1 0.133727 0.556366 0.299934
162 1 0.139146 0.640172 0.216557
254 1 0.0680522 0.637602 0.281905
271 1 0.144835 0.714925 0.276425
171 1 0.0683613 0.713913 0.213612
199 1 0.0664645 1.00026 0.373299
297 1 0.144309 -0.00855562 0.430596
161 1 0.213552 0.586484 0.208058
166 1 0.293313 0.657987 0.220382
258 1 0.227116 0.667067 0.285866
175 1 0.206351 0.712617 0.203589
265 1 0.428028 0.575242 0.284539
168 1 0.443101 0.651582 0.221828
262 1 0.350611 0.63487 0.293661
179 1 0.368397 0.7266 0.212669
988 1 0.492765 0.222327 0.420356
176 1 0.14166 0.791181 0.209092
268 1 0.0941817 0.786706 0.289251
285 1 0.146804 0.857606 0.290104
185 1 0.0730058 0.859588 0.230833
275 1 0.305698 0.716767 0.28801
180 1 0.287471 0.781469 0.215781
272 1 0.216764 0.797138 0.276426
189 1 0.207366 0.8569 0.20532
289 1 0.278123 0.857988 0.274111
329 1 0.420059 0.573376 0.432905
279 1 0.440676 0.726068 0.285744
182 1 0.437018 0.790383 0.225159
276 1 0.356722 0.796424 0.300435
193 1 0.356126 0.842975 0.227579
293 1 0.423205 0.864026 0.299919
24 1 0.354104 0.211908 -0.00338576
201 1 0.14158 0.999191 0.303734
101 1 0.0619611 0.992036 0.230633
190 1 0.1379 0.92707 0.222848
282 1 0.0821668 0.93137 0.297985
267 1 0.00674746 0.707524 0.276811
194 1 0.268777 0.923954 0.216417
286 1 0.210636 0.92079 0.28841
842 1 0.502779 0.57004 0.214738
196 1 0.421123 0.934658 0.206299
290 1 0.352551 0.929573 0.276644
288 1 0.148016 0.919317 0.36201
204 1 0.135938 0.075949 0.359494
296 1 0.0698517 0.0771693 0.433966
304 1 0.144322 0.140828 0.430543
328 1 0.361086 0.643814 0.434283
203 1 0.208402 1.00597 0.358492
208 1 0.286205 0.071315 0.357533
298 1 0.202035 0.0670591 0.423657
217 1 0.216318 0.132813 0.357068
266 1 0.423817 0.636296 0.352161
55 1 0.439675 0.430003 -0.00460429
158 1 -0.00382775 0.636305 0.215321
207 1 0.348126 -0.00815154 0.355586
210 1 0.421573 0.0581201 0.358975
300 1 0.345604 0.0624947 0.433136
308 1 0.437182 0.145936 0.440068
912 1 0.496088 0.281959 0.343178
213 1 0.0639659 0.14133 0.367763
218 1 0.150866 0.196114 0.356067
303 1 0.0764584 0.222835 0.405134
227 1 0.0762893 0.302261 0.349437
18 1 -0.00123436 0.210351 0.0645319
306 1 0.275175 0.13373 0.431348
222 1 0.277095 0.202315 0.371687
305 1 0.207558 0.218156 0.439941
339 1 0.143636 0.856607 0.442587
274 1 0.143855 0.777216 0.360736
221 1 0.361814 0.1514 0.372113
772 1 0.510241 0.858681 0.0615477
224 1 0.420257 0.215713 0.357842
307 1 0.347794 0.212884 0.439936
315 1 0.419064 0.290575 0.438737
283 1 0.0798024 0.849687 0.368912
287 1 0.224392 0.849016 0.35213
335 1 0.36039 0.785743 0.43154
311 1 0.157682 0.300509 0.427522
232 1 0.167376 0.368734 0.343409
310 1 0.0736692 0.357171 0.43034
277 1 0.366168 0.709156 0.360038
313 1 0.277909 0.277788 0.432457
231 1 0.22414 0.286658 0.35058
236 1 0.289974 0.357676 0.349779
312 1 0.234208 0.358609 0.423313
320 1 0.29327 0.434727 0.434626
141 1 0.00754307 0.418705 0.144303
336 1 0.422877 0.713818 0.423999
235 1 0.361283 0.286236 0.342669
238 1 0.425707 0.362086 0.346095
314 1 0.34935 0.350346 0.414061
291 1 0.35311 0.853853 0.371412
884 1 0.500004 1.00412 0.367149
280 1 0.421964 0.789108 0.363726
318 1 0.146747 0.417338 0.436301
241 1 0.0865884 0.417073 0.357365
246 1 0.156065 0.491097 0.374808
317 1 0.0846124 0.495824 0.427887
255 1 0.0576111 0.564169 0.351632
245 1 0.22958 0.428511 0.365182
319 1 0.221955 0.505956 0.439838
250 1 0.290981 0.503977 0.354826
327 1 0.291597 0.575481 0.425059
278 1 0.289266 0.777714 0.365623
338 1 0.0727757 0.920691 0.440118
333 1 0.20976 0.784927 0.426266
172 1 0.00960008 0.78874 0.215204
249 1 0.35533 0.433854 0.361232
322 1 0.431288 0.427856 0.42822
321 1 0.362505 0.502962 0.441947
263 1 0.35662 0.563536 0.354442
252 1 0.414787 0.497844 0.356036
331 1 0.0842019 0.778028 0.432425
332 1 0.152542 0.704771 0.422787
269 1 0.0814092 0.70602 0.351582
325 1 0.144331 0.568904 0.425484
260 1 0.141006 0.638718 0.349049
324 1 0.0784166 0.639045 0.425231
813 1 0.513993 0.363362 0.137187
273 1 0.224953 0.710787 0.37115
264 1 0.291846 0.646013 0.370823
259 1 0.214469 0.579538 0.349707
326 1 0.215364 0.631904 0.429879
334 1 0.296261 0.707748 0.437894
352 1 -0.000932935 0.221912 0.491599
940 1 0.499288 0.571543 0.360395
897 1 0.496463 0.211375 0.267331
1023 1 0.494717 0.931021 0.435381
61 1 0.154315 0.578054 -0.00911862
376 1 0.357185 0.574192 0.505627
702 1 0.49838 0.151722 0.0855087
83 1 0.429469 0.712822 -0.000104601
48 1 0.216834 0.501186 0.00340749
354 1 0.140852 0.213502 0.50412
687 1 0.491545 0.0897295 0.0138269
270 1 0.0109064 0.776258 0.348492
52 1 0.360387 0.494224 0.0105382
388 1 0.219908 0.858805 0.508985
925 1 0.495354 0.493358 0.288737
1051 1 0.494751 0.406499 0.494045
841 1 0.504069 0.64694 0.137544
228 1 0.00176801 0.365828 0.355015
1002 1 0.50495 0.494484 0.428371
1 1 0.00625929 -0.00449275 -0.0098484
995 1 0.493443 0.358287 0.421469
284 1 0.0081824 0.927774 0.368104
799 1 0.500881 0.202201 0.156626
828 1 0.509551 0.433798 0.209297
256 1 -0.00150364 0.636486 0.364712
337 1 0.0101428 0.844191 0.433813
870 1 0.492178 0.867297 0.214772
155 1 -0.0185986 0.564418 0.135917
32 1 0.0096052 0.358771 0.0741548
30 1 0.0818729 0.345804 -0.000708751
350 1 0.431713 0.0764711 0.501166
344 1 0.0591326 1.00757 0.495522
41 1 0.425955 0.272967 0.00545409
57 1 -0.00363027 0.575816 0.00207062
97 1 0.420448 0.865842 0.00138352
2 1 0.0704652 0.0754653 -0.00669167
51 1 0.291705 0.437965 0.0115353
9 1 0.280079 1.00438 -0.000187646
20 1 0.213662 0.205324 -0.00574294
13 1 0.425572 1.00656 -0.00892371
368 1 0.150311 0.500285 0.497792
47 1 0.148333 0.421589 0.00220289
27 1 0.4145 0.140949 -0.00213197
65 1 0.294514 0.576541 -0.00128119
16 1 0.0861449 0.218865 0.0112777
390 1 0.350125 0.851984 0.506834
89 1 0.148865 0.850299 0.00612595
1030 1 0.499014 0.0125719 0.496251
1037 1 0.512439 0.149674 0.495266
394 1 0.0674255 0.0627871 0.567488
400 1 0.139101 0.0783158 0.637647
411 1 0.141422 0.146366 0.567576
37 1 0.281428 0.271661 1.02086
398 1 0.207407 0.0597843 0.572741
404 1 0.285751 0.068308 0.642752
413 1 0.202538 0.143777 0.651251
399 1 0.210753 -0.00577364 0.638072
58 1 0.0774054 0.638928 0.99471
402 1 0.364152 0.0727236 0.577263
406 1 0.428929 0.076984 0.642718
419 1 0.432627 0.1504 0.571689
417 1 0.363007 0.148196 0.629712
1107 1 0.492656 0.362626 0.573835
409 1 0.0642565 0.144669 0.632942
408 1 0.0739569 0.213827 0.565279
414 1 0.139078 0.201927 0.63518
425 1 0.144453 0.293838 0.575709
348 1 0.357855 0.00862697 0.504168
1191 1 0.504907 0.226014 0.721011
599 1 0.352666 0.999076 0.935384
357 1 0.431068 0.213648 0.497052
415 1 0.267409 0.136976 0.580114
412 1 0.204269 0.216537 0.561033
418 1 0.27721 0.224071 0.633624
427 1 0.19832 0.281804 0.646856
429 1 0.267677 0.295902 0.569167
431 1 0.343757 0.290314 0.625681
416 1 0.360434 0.210319 0.558595
420 1 0.421905 0.217427 0.650192
5 1 0.137197 1.011 1.00252
383 1 0.361598 0.721777 0.501995
423 1 0.074193 0.282105 0.64721
422 1 0.0738451 0.3662 0.566272
428 1 0.125759 0.355301 0.64662
439 1 0.12298 0.442544 0.559281
437 1 0.0643716 0.436189 0.644196
86 1 0.0695833 0.92858 0.988876
683 1 0.35532 0.86433 0.940225
645 1 0.00600395 0.552451 0.866989
620 1 0.00277883 0.35817 0.933989
426 1 0.201934 0.37676 0.569079
432 1 0.267244 0.366488 0.651728
441 1 0.214096 0.43594 0.650046
443 1 0.2797 0.434836 0.578944
433 1 0.41428 0.285268 0.57459
430 1 0.342174 0.372407 0.578122
434 1 0.412901 0.358616 0.641434
445 1 0.348045 0.439155 0.650724
421 1 0.00569309 0.289492 0.578408
389 1 0.13279 0.93738 0.502313
436 1 0.0502609 0.499615 0.565013
442 1 0.14526 0.503846 0.661348
453 1 0.143623 0.558709 0.579503
1289 1 0.482291 0.218691 0.854616
90 1 0.201235 0.928553 1.01365
440 1 0.213949 0.499857 0.580583
446 1 0.281163 0.510148 0.648275
455 1 0.210831 0.577413 0.642151
353 1 0.208621 0.143913 0.503981
447 1 0.424213 0.433061 0.572665
444 1 0.35381 0.505171 0.567254
448 1 0.418181 0.50065 0.648165
461 1 0.433345 0.569753 0.558102
685 1 0.42744 0.858253 0.840121
451 1 0.0729924 0.564437 0.640247
450 1 0.0804956 0.635954 0.568428
456 1 0.135988 0.644453 0.640157
467 1 0.152336 0.71719 0.566831
465 1 0.0678688 0.720036 0.647398
76 1 0.211331 0.785932 1.00504
391 1 0.284048 0.941676 0.497624
682 1 0.346272 0.932272 0.855531
457 1 0.283164 0.574745 0.572253
454 1 0.206935 0.639092 0.576599
460 1 0.270164 0.65859 0.640453
1205 1 0.506402 0.355143 0.713542
93 1 0.284835 0.859981 1.00253
686 1 0.422478 0.929594 0.919949
1345 1 0.489717 0.780644 0.855646
459 1 0.353422 0.569271 0.639491
458 1 0.371042 0.642883 0.568435
462 1 0.443577 0.634333 0.628816
475 1 0.43851 0.711865 0.570566
351 1 0.056544 0.134911 0.502761
536 1 -0.0029211 0.50019 0.786303
386 1 0.0767554 0.844942 0.509749
410 1 -0.00340806 0.219153 0.645515
1108 1 0.497104 0.293285 0.639295
464 1 0.0788451 0.784056 0.583732
470 1 0.154519 0.815619 0.656315
1248 1 0.503331 0.724967 0.778624
480 1 -0.00901557 0.944038 0.642499
469 1 0.21231 0.736782 0.652593
471 1 0.280688 0.709407 0.562378
71 1 0.0119189 0.711367 1.00026
468 1 0.217891 0.789459 0.582875
483 1 0.234278 0.865056 0.646398
474 1 0.293019 0.793609 0.639098
485 1 0.285603 0.868692 0.569287
1359 1 0.49471 0.934775 0.845815
1121 1 0.501629 0.491171 0.570434
473 1 0.350116 0.709513 0.635527
472 1 0.366185 0.77851 0.571598
476 1 0.43577 0.782783 0.631875
487 1 0.351889 0.863669 0.645828
392 1 0.422044 0.935145 0.505363
395 1 0.0616873 0.00861951 0.640546
397 1 0.134524 -0.00716462 0.578645
617 1 0.0022179 0.283575 0.878643
481 1 0.143854 0.878044 0.574223
479 1 0.0685296 0.853265 0.649976
478 1 0.07126 0.928813 0.58827
484 1 0.13512 0.933048 0.653123
72 1 0.0848104 0.785324 1.0031
349 1 0.273364 0.0679498 0.503355
401 1 0.289785 0.0114765 0.581308
482 1 0.216812 0.926465 0.571354
488 1 0.283173 0.939346 0.642126
547 1 -0.000596488 0.569997 0.717645
403 1 0.351822 0.00163292 0.644277
489 1 0.40801 0.860538 0.571742
405 1 0.431413 0.00412493 0.571688
486 1 0.351981 0.949175 0.571946
490 1 0.429819 0.939831 0.633595
1261 1 0.48664 0.92848 0.712697
347 1 0.134706 0.064533 0.497327
492 1 0.0807972 0.0719029 0.710894
498 1 0.139104 0.0609704 0.782126
507 1 0.0697886 0.132055 0.780528
509 1 0.143899 0.144177 0.718102
493 1 0.0652344 1.00473 0.791692
495 1 0.142262 0.000659407 0.717084
496 1 0.212434 0.0755257 0.713382
502 1 0.28239 0.0790561 0.780335
513 1 0.277742 0.142822 0.709989
497 1 0.218586 0.00237888 0.779276
499 1 0.280753 0.011388 0.720486
678 1 0.21524 0.924911 0.864066
500 1 0.357868 0.0779035 0.710815
504 1 0.429241 0.0741687 0.787333
515 1 0.354773 0.14776 0.793514
503 1 0.417965 -0.00758469 0.705652
506 1 0.0744541 0.208433 0.708725
512 1 0.126203 0.211807 0.787913
521 1 0.077172 0.28918 0.801376
511 1 0.21559 0.144749 0.779616
510 1 0.218487 0.212922 0.707339
516 1 0.281708 0.216025 0.782176
527 1 0.2734 0.282612 0.709246
525 1 0.204891 0.277974 0.786602
517 1 0.423806 0.139864 0.71103
514 1 0.336002 0.210132 0.702329
518 1 0.419585 0.216597 0.783817
531 1 0.427377 0.286434 0.713559
684 1 0.284941 0.921734 0.921868
523 1 0.136317 0.286714 0.712815
520 1 0.0645389 0.354068 0.729206
526 1 0.15169 0.350438 0.787432
537 1 0.143664 0.424245 0.712981
524 1 0.209746 0.358932 0.712592
530 1 0.291002 0.352431 0.790069
541 1 0.282714 0.432729 0.714138
539 1 0.229209 0.424247 0.793193
360 1 0.207059 0.295805 0.501258
597 1 0.280813 1.00837 0.854378
529 1 0.359317 0.290277 0.781514
528 1 0.349947 0.357996 0.720071
532 1 0.428921 0.370365 0.775805
543 1 0.357827 0.432307 0.78317
535 1 0.0773573 0.427801 0.786446
534 1 0.072026 0.502366 0.728337
540 1 0.144565 0.487371 0.804539
549 1 0.0830064 0.569301 0.789583
538 1 0.204716 0.490389 0.731084
544 1 0.282304 0.491994 0.790861
555 1 0.283081 0.582667 0.714375
553 1 0.218905 0.557611 0.786156
545 1 0.425108 0.425469 0.705461
542 1 0.364352 0.500005 0.72572
546 1 0.439349 0.497059 0.793879
559 1 0.436767 0.574822 0.700957
557 1 0.342137 0.566352 0.778037
551 1 0.147405 0.573188 0.720647
548 1 0.0775021 0.643987 0.714522
554 1 0.134742 0.652763 0.782034
563 1 0.0647253 0.718217 0.773804
552 1 0.208898 0.641764 0.713595
558 1 0.293869 0.643299 0.795467
567 1 0.219942 0.724215 0.796792
38 1 0.363612 0.344459 1.01493
556 1 0.371137 0.639961 0.709105
560 1 0.425197 0.62585 0.779832
573 1 0.431318 0.716909 0.705383
565 1 0.14033 0.715635 0.709466
562 1 0.0845136 0.795478 0.716218
568 1 0.145449 0.782412 0.778544
577 1 0.0733751 0.857913 0.783104
579 1 0.141432 0.868615 0.726415
569 1 0.281003 0.714745 0.727711
566 1 0.231846 0.795235 0.719136
572 1 0.289973 0.782552 0.790845
583 1 0.292609 0.862241 0.714171
571 1 0.365009 0.702366 0.776207
570 1 0.355169 0.773614 0.701939
574 1 0.426012 0.786428 0.771163
585 1 0.362918 0.858551 0.772718
576 1 0.0555141 0.935973 0.720758
582 1 0.131858 0.943564 0.78833
581 1 0.209065 0.859629 0.789596
580 1 0.212872 0.934151 0.708716
586 1 0.268029 0.929459 0.791014
675 1 0.0702077 0.853091 0.917556
501 1 0.352956 1.00101 0.786612
587 1 0.424473 0.847962 0.697284
584 1 0.345552 0.933339 0.712362
588 1 0.417336 0.935413 0.789536
591 1 0.0816692 1.00382 0.930726
362 1 0.33658 0.292751 0.502165
590 1 0.0790876 0.0701629 0.86238
596 1 0.144141 0.0806979 0.931974
593 1 0.157835 0.997252 0.857508
605 1 0.082994 0.14903 0.933363
674 1 0.0667457 0.931047 0.858061
680 1 0.146451 0.90979 0.929157
1080 1 0.497451 0.0117071 0.64424
1163 1 0.503084 0.934745 0.580512
595 1 0.209519 0.983833 0.939298
594 1 0.218557 0.0790724 0.844622
600 1 0.285596 0.067073 0.927866
609 1 0.216361 0.142484 0.91653
611 1 0.28653 0.149943 0.858754
601 1 0.422128 0.00656013 0.85555
1262 1 0.493427 0.8428 0.765571
661 1 0.0899849 0.716859 0.925512
598 1 0.356138 0.0679214 0.852278
602 1 0.447119 0.0736837 0.92781
607 1 0.138405 0.146049 0.861204
604 1 0.064889 0.212132 0.866226
610 1 0.147367 0.220019 0.921303
621 1 0.135798 0.28235 0.860919
619 1 0.0731605 0.277434 0.938367
648 1 0.0122886 0.639017 0.924328
660 1 0.0839684 0.788119 0.843919
666 1 0.150156 0.784525 0.933375
608 1 0.210193 0.213957 0.850745
614 1 0.286703 0.212598 0.933383
623 1 0.215478 0.279284 0.914477
615 1 0.438034 0.138692 0.872495
613 1 0.35563 0.144012 0.923627
612 1 0.363628 0.219175 0.870712
616 1 0.42802 0.209935 0.93793
627 1 0.342294 0.284827 0.933443
629 1 0.41084 0.290936 0.872418
665 1 0.214264 0.702671 0.930862
677 1 0.143619 0.859717 0.85352
618 1 0.0789981 0.361051 0.863373
624 1 0.150298 0.357156 0.926458
633 1 0.0724375 0.431539 0.928807
635 1 0.140002 0.421279 0.864276
625 1 0.299295 0.285298 0.850569
622 1 0.216137 0.359145 0.85522
628 1 0.285461 0.364134 0.935668
637 1 0.212731 0.425249 0.93385
639 1 0.292427 0.429259 0.869534
679 1 0.221054 0.856334 0.93792
657 1 0.44845 0.5769 0.860662
641 1 0.362312 0.415697 0.942446
626 1 0.364282 0.363863 0.851775
630 1 0.432774 0.356586 0.933258
463 1 -0.00229022 0.715628 0.574033
632 1 0.0765539 0.499058 0.865879
638 1 0.152802 0.500993 0.936812
664 1 0.218858 0.782284 0.86664
681 1 0.289212 0.854965 0.841956
668 1 0.365372 0.788642 0.838542
636 1 0.207918 0.490768 0.863532
642 1 0.302466 0.499471 0.947076
654 1 0.360805 0.637274 0.84868
670 1 0.294078 0.790387 0.929377
533 1 0.00633398 0.430678 0.718934
424 1 0.00389202 0.359031 0.650881
655 1 0.367678 0.565799 0.933186
640 1 0.365568 0.502111 0.85515
644 1 0.430196 0.496673 0.942449
643 1 0.435056 0.423113 0.857698
669 1 0.362204 0.723708 0.931677
663 1 0.143475 0.723907 0.855632
671 1 0.428723 0.709353 0.861925
649 1 0.146801 0.572895 0.864047
646 1 0.0815068 0.644788 0.85395
652 1 0.151875 0.645141 0.930628
647 1 0.0746326 0.569364 0.927388
650 1 0.212797 0.638972 0.857815
656 1 0.296094 0.643174 0.929221
653 1 0.290022 0.561238 0.853873
651 1 0.224065 0.56501 0.927955
667 1 0.303156 0.720823 0.860809
69 1 0.432664 0.558945 1.00858
672 1 0.425616 0.789462 0.931714
658 1 0.43794 0.623631 0.934934
355 1 0.339113 0.133051 0.504557
1094 1 0.504901 0.151615 0.638622
1122 1 0.498071 0.428951 0.642409
373 1 0.00386222 0.657408 0.506843
522 1 -0.000639671 0.348237 0.797938
1206 1 0.479493 0.293864 0.791128
364 1 0.403593 0.350484 0.498708
592 1 0.00813985 0.0604705 0.93093
369 1 0.35257 0.433492 0.506787
477 1 0.00698915 0.856303 0.577269
380 1 -0.00564362 0.778058 0.5
449 1 0.00904763 0.579601 0.574342
75 1 0.138627 0.71089 1.00595
662 1 0.0182717 0.783343 0.930937
356 1 0.284276 0.21289 0.50462
634 1 0.00408741 0.504828 0.951169
1149 1 0.512369 0.786083 0.569446
1331 1 0.505579 0.650613 0.849698
1136 1 0.509759 0.566239 0.632267
1178 1 0.483655 1.00581 0.7814
550 1 0.0190927 0.638372 0.784334
435 1 -0.00192008 0.419842 0.576407
606 1 0.000224518 0.207486 0.944076
659 1 0.0080682 0.719691 0.8593
631 1 0.00406136 0.418517 0.856645
1303 1 0.492648 0.36201 0.846067
1220 1 0.501159 0.431411 0.78834
1360 1 0.496513 0.863081 0.932923
66 1 0.364533 0.638471 0.998724
372 1 0.0750553 0.563436 0.493042
34 1 0.21662 0.357416 1.00176
6 1 0.215623 0.0708583 0.993833
370 1 0.283038 0.505948 0.511071
377 1 0.291129 0.633922 0.488784
10 1 0.351453 0.0684947 1.0121
363 1 0.283717 0.367065 0.501691
384 1 0.289231 0.780703 0.493786
379 1 0.0784006 0.726695 0.511911
94 1 0.348522 0.934485 1.01496
365 1 0.0596733 0.429459 0.494956
382 1 0.152769 0.786229 0.495037
1044 1 0.499086 0.302892 0.499276
346 1 0.204552 -0.000111166 0.503058
62 1 0.237416 0.659614 1.0026
85 1 -0.00557034 0.863817 0.993034
387 1 0.00017548 0.923768 0.50307
771 1 0.504911 0.933825 0.994685
692 1 0.568496 0.0638088 0.0640771
788 1 0.650532 0.0607017 0.160427
787 1 0.573177 -0.00326654 0.122502
691 1 0.648894 1.00653 0.0723358
801 1 0.576651 0.143766 0.144359
758 1 0.501982 0.720529 0.0721566
986 1 0.854736 -0.00780179 0.429146
696 1 0.720759 0.0634429 0.0769172
792 1 0.788128 0.0574389 0.134991
805 1 0.713845 0.132191 0.138104
709 1 0.789652 0.140817 0.0649189
695 1 0.787249 0.999814 0.0619486
700 1 0.859695 0.0697022 0.066728
796 1 0.931677 0.0530815 0.139421
895 1 0.925385 0.992295 0.369528
713 1 0.923021 0.141957 0.0749026
809 1 0.858428 0.13434 0.152117
1069 1 0.720819 0.78071 0.505305
699 1 0.911215 0.999393 0.0652358
980 1 0.850143 0.934165 0.360683
705 1 0.643942 0.111669 0.0789091
706 1 0.565729 0.227362 0.0850904
802 1 0.647818 0.203984 0.139366
815 1 0.575137 0.298299 0.142103
1029 1 0.930773 0.924463 0.440244
710 1 0.714642 0.211294 0.0640596
806 1 0.786161 0.204288 0.146647
981 1 0.5046 0.0770255 0.423415
714 1 0.855539 0.234945 0.068523
810 1 0.927917 0.21851 0.149199
823 1 0.859028 0.291835 0.137068
827 1 0.497253 0.508198 0.141664
719 1 0.643263 0.275911 0.0746451
720 1 0.579681 0.36527 0.0730042
816 1 0.649795 0.360865 0.145112
716 1 0.500622 0.288965 0.0900626
967 1 0.494501 0.924163 0.293923
723 1 0.786185 0.284641 0.0771243
819 1 0.710266 0.283729 0.138188
724 1 0.707801 0.353634 0.0729068
820 1 0.779201 0.353426 0.142208
833 1 0.706882 0.424368 0.134874
309 1 1.00744 0.283751 0.406141
744 1 0.498272 0.569919 0.074593
727 1 0.939136 0.291462 0.0815752
728 1 0.854294 0.366126 0.0641121
824 1 0.932542 0.361563 0.157386
690 1 0.634942 0.0553916 -0.00727074
829 1 0.574547 0.429486 0.143985
733 1 0.645524 0.434979 0.0656029
734 1 0.574338 0.496434 0.0872824
830 1 0.643607 0.496859 0.142536
747 1 0.643057 0.578568 0.0741264
843 1 0.577045 0.581817 0.126014
737 1 0.778346 0.426316 0.0695678
738 1 0.724208 0.507342 0.0704479
834 1 0.782938 0.496287 0.137157
751 1 0.794358 0.57542 0.0795669
1060 1 0.566747 0.64848 0.49146
984 1 0.716706 0.994879 0.433163
837 1 0.843303 0.422519 0.137722
741 1 0.94091 0.417235 0.0720285
742 1 0.855581 0.489121 0.0658418
838 1 0.924338 0.492224 0.146369
755 1 0.917343 0.573567 0.0722514
851 1 0.861639 0.569282 0.14532
316 1 1.00612 0.421466 0.428188
4 1 0.998682 0.0545254 0.0649104
748 1 0.577135 0.6521 0.0725535
844 1 0.641958 0.653856 0.140736
857 1 0.564813 0.716679 0.137423
847 1 0.719346 0.574097 0.140296
752 1 0.71507 0.645892 0.078318
848 1 0.793454 0.649094 0.147017
759 1 0.579695 0.717128 -0.00217058
756 1 0.862957 0.646938 0.0785654
852 1 0.923071 0.646967 0.156224
865 1 0.854991 0.723244 0.135676
761 1 0.649061 0.739935 0.0798403
762 1 0.571076 0.787595 0.060902
858 1 0.636896 0.801919 0.149709
871 1 0.563247 0.863358 0.136929
775 1 0.639787 0.851569 0.0683083
861 1 0.700464 0.729143 0.147022
765 1 0.787302 0.708143 0.0770619
766 1 0.71925 0.799476 0.0737678
862 1 0.786481 0.796485 0.139617
875 1 0.711352 0.859089 0.147225
1009 1 0.495445 0.637891 0.429963
891 1 0.788477 1.00463 0.361822
769 1 0.940399 0.706761 0.0764077
770 1 0.850981 0.784194 0.0670329
866 1 0.931815 0.78843 0.124871
1016 1 0.495522 0.787113 0.423279
776 1 0.583789 0.925895 0.0541618
872 1 0.637367 0.930264 0.144387
779 1 0.779262 0.860163 0.06553
791 1 0.713845 0.988271 0.138787
780 1 0.707541 0.92046 0.0786245
876 1 0.787726 0.924607 0.143404
99 1 0.990854 0.982318 0.147053
879 1 0.851772 0.852761 0.129122
795 1 0.854381 0.989624 0.139731
783 1 0.929559 0.861993 0.0707713
784 1 0.843857 0.924699 0.0661241
880 1 0.925299 0.913065 0.141165
239 1 0.994509 0.430149 0.288387
785 1 0.496947 0.071782 0.144133
1038 1 0.637172 0.145782 0.489982
790 1 0.57352 0.0627841 0.215745
886 1 0.647084 0.0602195 0.29004
803 1 0.653479 0.140012 0.228297
794 1 0.721502 0.062694 0.232394
890 1 0.77155 0.0650665 0.298306
903 1 0.722283 0.145904 0.288902
807 1 0.786909 0.146718 0.216612
798 1 0.858522 0.064982 0.210743
894 1 0.929173 0.0624527 0.291247
907 1 0.864492 0.157033 0.28231
954 1 0.492156 0.7132 0.355942
899 1 0.567126 0.136126 0.27831
804 1 0.582762 0.214896 0.200121
900 1 0.651677 0.21633 0.287283
817 1 0.645642 0.280296 0.218622
913 1 0.568201 0.278298 0.280979
743 1 0.502614 0.643862 0.005915
808 1 0.711429 0.206279 0.203012
904 1 0.783417 0.21591 0.294798
917 1 0.703727 0.305515 0.285688
821 1 0.775439 0.287745 0.221164
811 1 0.930497 0.144416 0.211876
812 1 0.858663 0.222532 0.209853
908 1 0.933072 0.220796 0.284167
825 1 0.928561 0.287764 0.218715
921 1 0.850638 0.290392 0.278105
200 1 0.98771 0.0670909 0.366711
818 1 0.576596 0.358149 0.209355
914 1 0.629871 0.366051 0.291644
927 1 0.567848 0.437767 0.269195
822 1 0.718152 0.362815 0.212666
918 1 0.781308 0.355102 0.281576
295 1 0.991235 0.99026 0.44371
826 1 0.848442 0.365983 0.206974
922 1 0.919816 0.37149 0.282684
831 1 0.640915 0.424169 0.215591
832 1 0.574796 0.506124 0.194452
928 1 0.636309 0.513745 0.271171
845 1 0.657231 0.576805 0.19659
835 1 0.771474 0.438549 0.218123
931 1 0.706519 0.430689 0.283374
836 1 0.701406 0.498886 0.213688
932 1 0.75578 0.506677 0.288438
211 1 1.0094 0.14134 0.294373
935 1 0.845151 0.430833 0.273437
839 1 0.922778 0.431116 0.222653
840 1 0.84335 0.499994 0.214383
936 1 0.925659 0.50421 0.287305
853 1 0.929803 0.56649 0.215742
976 1 0.716401 0.929347 0.364276
941 1 0.56144 0.554437 0.281516
846 1 0.57235 0.642564 0.205006
942 1 0.620481 0.640059 0.276005
955 1 0.568627 0.726882 0.289693
849 1 0.79388 0.577879 0.215709
945 1 0.715045 0.598609 0.26908
850 1 0.706606 0.657083 0.206692
946 1 0.793863 0.648895 0.274789
959 1 0.7034 0.705166 0.280685
1043 1 0.849511 0.215428 0.50138
949 1 0.862775 0.571067 0.28994
854 1 0.869023 0.650153 0.226143
950 1 0.934314 0.631228 0.296354
963 1 0.852913 0.719155 0.281663
731 1 0.579414 0.428721 0.00775347
859 1 0.633092 0.71587 0.212049
860 1 0.560861 0.801058 0.215535
956 1 0.646248 0.790226 0.279678
863 1 0.780053 0.72008 0.209081
864 1 0.728043 0.793486 0.226606
960 1 0.788244 0.788448 0.29763
973 1 0.717161 0.869003 0.297448
877 1 0.799024 0.849185 0.218838
704 1 0.645356 0.212767 0.00808037
867 1 0.941358 0.718412 0.218974
868 1 0.860455 0.783425 0.212676
964 1 0.935747 0.786815 0.292289
1027 1 0.789148 0.926312 0.439581
144 1 1.0107 0.493715 0.213888
885 1 0.567446 0.999011 0.287034
789 1 0.65309 0.997129 0.228164
969 1 0.576865 0.870067 0.292042
873 1 0.637044 0.865933 0.220643
874 1 0.571885 0.935571 0.215805
970 1 0.64309 0.939933 0.293133
889 1 0.714408 -0.00523014 0.29986
793 1 0.783135 -0.00306701 0.210429
878 1 0.71664 0.921388 0.216215
974 1 0.781626 0.933532 0.288138
893 1 0.860829 1.00415 0.278765