ITEM: TIMESTEP
21500
ITEM: NUMBER OF ATOMS
6912
ITEM: BOX BOUNDS pp pp pp
0.0000000000000000e+00 6.3119999999999997e+01
0.0000000000000000e+00 6.3119999999999997e+01
0.0000000000000000e+00 6.3119999999999997e+01
ITEM: ATOMS id type xs ys zs
51 1 0.0478792 0.0814392 0.0386315
8 1 0.082222 0.0395358 0.0440934
4 1 0.997336 0.0388893 0.0397698
290 1 0.0383845 0.0444949 0.0855377
337 1 0.00133829 0.0842427 0.0806203
4941 1 0.92126 0.497232 0.414276
55 1 0.125932 0.0880125 0.0311779
899 1 0.701221 0.000694724 0.294321
12 1 0.164708 0.0483898 0.0324694
16 1 0.252147 0.045768 0.0296297
59 1 0.21221 0.084164 0.037912
327 1 0.785913 0.00455657 0.128729
4621 1 0.253053 0.489319 0.326653
63 1 0.295498 0.0854261 0.040719
20 1 0.333022 0.0430343 0.0334531
4653 1 0.923101 0.495611 0.330842
4937 1 0.829913 0.495146 0.409134
3787 1 0.87181 0.495807 0.127222
306 1 0.378215 0.0358684 0.0818403
3479 1 0.465066 0.496747 0.0352141
4053 1 0.427951 0.498416 0.174533
317 1 0.583363 0.0064373 0.0802054
24 1 0.421592 0.0319987 0.0469611
71 1 0.46242 0.0744662 0.0455413
310 1 0.461466 0.0399893 0.0856205
3483 1 0.538007 0.497119 0.0400761
28 1 0.499917 0.0316862 0.0464465
75 1 0.549656 0.0777159 0.0383251
314 1 0.541117 0.0388568 0.0808745
4901 1 0.0701031 0.494979 0.418881
198 1 0.122548 0.378369 0.00321542
32 1 0.581301 0.0362066 0.0357124
36 1 0.663419 0.0418575 0.0387397
318 1 0.627629 0.041294 0.0771445
40 1 0.747862 0.0440989 0.0384502
322 1 0.71559 0.0338446 0.084197
1727 1 0.956029 0.420867 0.457193
39 1 0.793722 0.00734771 0.0434167
44 1 0.840532 0.0414739 0.0368128
1177 1 0.499926 0.00149976 0.337327
5201 1 0.334211 0.493498 0.494777
4363 1 0.876181 0.495542 0.295265
91 1 0.875883 0.0787782 0.0440468
330 1 0.87064 0.0374435 0.0896747
1728 1 0.909452 0.460823 0.457122
299 1 0.203695 0.00689976 0.117727
48 1 0.922578 0.043723 0.0464561
381 1 0.917217 0.0866071 0.0809134
385 1 0.99095 0.169677 0.0836183
338 1 0.0365012 0.130198 0.0801078
389 1 0.0917694 0.174103 0.0775753
99 1 0.0452538 0.161759 0.0402632
56 1 0.0911689 0.124081 0.0369339
60 1 0.172697 0.121401 0.0379894
103 1 0.131552 0.173185 0.0381174
4059 1 0.544632 0.496412 0.207886
4033 1 0.998168 0.495483 0.166198
4643 1 0.71044 0.496411 0.374553
107 1 0.21207 0.166026 0.0339841
64 1 0.252895 0.126632 0.0427297
68 1 0.334631 0.122713 0.0414887
891 1 0.539044 0.000741959 0.290983
67 1 0.374846 0.0807548 0.0390117
115 1 0.373105 0.162121 0.0423746
405 1 0.415787 0.158938 0.0788931
72 1 0.422058 0.12255 0.0419092
358 1 0.458708 0.118683 0.079299
76 1 0.49978 0.118804 0.0383773
362 1 0.542961 0.117583 0.0767421
335 1 0.95362 0.00210232 0.127131
79 1 0.618487 0.0788584 0.0318369
80 1 0.584483 0.123628 0.0389733
84 1 0.657594 0.121058 0.0404498
369 1 0.668378 0.0752995 0.0859198
366 1 0.617558 0.114321 0.0828751
83 1 0.708999 0.0796945 0.040921
131 1 0.70493 0.159517 0.0427527
88 1 0.743697 0.1181 0.0469829
87 1 0.793895 0.0794616 0.0465082
135 1 0.792115 0.159535 0.0397768
373 1 0.743584 0.0851747 0.0891837
4943 1 0.955251 0.495498 0.457229
92 1 0.84356 0.122888 0.0390351
139 1 0.884409 0.169543 0.038391
378 1 0.880115 0.124956 0.0863225
3765 1 0.429166 0.496238 0.0827862
1922 1 0.0419602 0.377458 0.494501
96 1 0.918852 0.126155 0.0313504
95 1 0.957711 0.082565 0.0380509
52 1 0.00218012 0.121795 0.0393751
382 1 0.954634 0.127906 0.0731823
386 1 0.0398313 0.208484 0.0836035
147 1 0.0435276 0.247394 0.0412948
3493 1 0.750148 0.496475 0.00407968
879 1 0.284393 0.00346036 0.302041
104 1 0.0857569 0.213256 0.0351252
108 1 0.173507 0.211115 0.0405247
390 1 0.13006 0.215836 0.0807933
1179 1 0.541457 0.00457655 0.381886
4907 1 0.204844 0.497413 0.453016
112 1 0.249464 0.205755 0.0298409
111 1 0.295788 0.167869 0.0412895
159 1 0.283253 0.251193 0.0363159
445 1 0.246428 0.245783 0.0874247
401 1 0.333542 0.165532 0.086588
449 1 0.341582 0.244506 0.0823832
4339 1 0.372296 0.495067 0.290515
116 1 0.339988 0.203456 0.0344067
120 1 0.412613 0.210838 0.0373515
163 1 0.371388 0.250012 0.0278925
402 1 0.38211 0.204556 0.0834506
4629 1 0.420517 0.49553 0.341286
119 1 0.457974 0.162079 0.0446068
4631 1 0.463566 0.49897 0.378458
873 1 0.16526 0.00358853 0.247559
124 1 0.490792 0.205574 0.0469175
123 1 0.539422 0.159349 0.03406
410 1 0.542488 0.203063 0.0882838
171 1 0.542037 0.248078 0.03965
457 1 0.503544 0.252578 0.0817582
35 1 0.706923 0.00258388 0.0437964
4627 1 0.373996 0.494665 0.379061
1155 1 0.045804 0.00346541 0.381151
127 1 0.621432 0.161738 0.0424702
128 1 0.582429 0.199914 0.0283489
175 1 0.622446 0.252182 0.0403827
417 1 0.660538 0.161112 0.0764978
132 1 0.665582 0.208396 0.0382482
136 1 0.749472 0.194716 0.0424133
4365 1 0.912312 0.498142 0.247113
183 1 0.79643 0.243413 0.0470543
422 1 0.792002 0.197592 0.0794123
473 1 0.830376 0.245573 0.0877341
140 1 0.833387 0.201139 0.0473364
144 1 0.911731 0.216851 0.037261
187 1 0.871235 0.252572 0.0452836
425 1 0.837285 0.163109 0.0811502
143 1 0.958691 0.162576 0.0364003
100 1 0.00653509 0.20275 0.0387701
195 1 0.0456027 0.33276 0.034278
289 1 0.000201793 0.00551886 0.0804496
152 1 0.086941 0.291018 0.0409561
151 1 0.12065 0.250251 0.0434822
156 1 0.170824 0.295077 0.0372131
485 1 0.0815018 0.332402 0.084341
4057 1 0.50749 0.495871 0.169251
4909 1 0.254913 0.493347 0.416867
155 1 0.216786 0.252316 0.0372617
160 1 0.2499 0.295037 0.0326844
1467 1 0.531586 0.00976351 0.469868
446 1 0.2858 0.285703 0.0787155
1171 1 0.371749 0.00473881 0.376259
164 1 0.329902 0.285748 0.029855
450 1 0.372273 0.291339 0.0699718
168 1 0.413171 0.287453 0.0341635
453 1 0.413901 0.248792 0.0772866
3497 1 0.832127 0.499844 0.00845962
595 1 0.372565 4.96277e-05 0.207382
167 1 0.453031 0.249353 0.0364399
209 1 0.335313 0.330883 0.000777934
454 1 0.457133 0.291283 0.0824967
172 1 0.498521 0.289165 0.0412688
219 1 0.546755 0.335148 0.0366456
911 1 0.959921 0.000410804 0.296376
3761 1 0.32473 0.499962 0.076919
176 1 0.578875 0.289792 0.0403241
180 1 0.670109 0.289443 0.0431593
223 1 0.620344 0.331183 0.039195
587 1 0.206661 0.0112634 0.203967
179 1 0.706224 0.246594 0.0449443
227 1 0.706922 0.330673 0.043978
1906 1 0.706176 0.281419 0.498367
466 1 0.711795 0.290546 0.0766339
3789 1 0.916808 0.497129 0.079866
184 1 0.752339 0.289288 0.0398757
188 1 0.834075 0.288372 0.0444675
469 1 0.751283 0.236327 0.071612
517 1 0.745878 0.336408 0.0847867
470 1 0.779264 0.290945 0.0847781
477 1 0.911923 0.248864 0.0838579
192 1 0.918452 0.289764 0.0386852
474 1 0.865865 0.296476 0.0824514
148 1 0.00240177 0.291676 0.0397676
191 1 0.967436 0.2449 0.0411656
478 1 0.9605 0.28947 0.087875
481 1 0.00549589 0.333208 0.0761689
4647 1 0.791655 0.498343 0.370652
196 1 0.000888076 0.371877 0.0399956
200 1 0.0852915 0.374778 0.0467296
199 1 0.122683 0.332469 0.0396105
581 1 0.0847365 0.0062075 0.166467
4325 1 0.0773181 0.492989 0.253593
1794 1 0.374489 0.126436 0.498996
203 1 0.202602 0.339856 0.0370418
204 1 0.163345 0.37034 0.0448643
208 1 0.246717 0.383091 0.0398174
207 1 0.290016 0.330834 0.0359169
212 1 0.334187 0.379454 0.0384056
497 1 0.32932 0.326533 0.0752684
4917 1 0.42117 0.495703 0.412783
211 1 0.372588 0.337572 0.0411927
216 1 0.424988 0.373875 0.042157
259 1 0.373958 0.416121 0.034148
498 1 0.3753 0.372509 0.0793573
4343 1 0.467789 0.49454 0.289424
1945 1 0.514945 0.342138 0.499924
215 1 0.463634 0.333171 0.0339476
263 1 0.461053 0.413393 0.0455616
502 1 0.46465 0.366815 0.0794546
220 1 0.498433 0.374391 0.0401361
224 1 0.583855 0.373663 0.0358715
510 1 0.623902 0.375939 0.0728938
228 1 0.670038 0.380011 0.0451609
597 1 0.41821 0.00301994 0.166842
514 1 0.709417 0.380325 0.0893833
275 1 0.718952 0.412649 0.0447341
4609 1 0.00234285 0.487447 0.330025
1167 1 0.283526 0.00645276 0.371081
231 1 0.798143 0.328182 0.0415708
232 1 0.754653 0.37211 0.0463584
236 1 0.828568 0.381488 0.039996
279 1 0.790859 0.423005 0.0490316
235 1 0.866158 0.341923 0.0421352
240 1 0.91585 0.377471 0.0415504
283 1 0.874026 0.414001 0.0481634
573 1 0.918814 0.420676 0.0853139
239 1 0.9542 0.334343 0.0379664
526 1 0.958451 0.38275 0.0780932
287 1 0.953718 0.417816 0.0387164
4327 1 0.124994 0.497449 0.289775
243 1 0.0421631 0.422387 0.0451123
248 1 0.0838681 0.4641 0.0481474
4913 1 0.331513 0.497514 0.42074
1719 1 0.795182 0.417542 0.458697
3759 1 0.292377 0.490622 0.122221
1720 1 0.745959 0.460805 0.456599
247 1 0.122397 0.41892 0.0501843
534 1 0.126857 0.464794 0.0870011
1724 1 0.837468 0.458222 0.451442
4623 1 0.293606 0.494179 0.36821
252 1 0.160928 0.463625 0.0453261
251 1 0.205196 0.423304 0.0364857
538 1 0.212192 0.459737 0.080882
255 1 0.293203 0.421256 0.0384939
256 1 0.242704 0.456736 0.0313261
260 1 0.336746 0.461097 0.0437774
546 1 0.379728 0.450273 0.0772797
4335 1 0.294642 0.493317 0.291014
264 1 0.416516 0.454403 0.0320971
3753 1 0.172584 0.499048 0.088397
4939 1 0.872463 0.495102 0.45218
118 1 0.455598 0.206036 0.0033213
267 1 0.546929 0.412776 0.034532
268 1 0.504409 0.455447 0.0393821
4903 1 0.122709 0.498818 0.44762
4323 1 0.0399232 0.495568 0.298424
3471 1 0.287009 0.493455 0.0324181
557 1 0.590212 0.416098 0.0790234
272 1 0.584724 0.455285 0.0345173
271 1 0.627511 0.414276 0.0349334
558 1 0.624486 0.457924 0.0825629
276 1 0.671114 0.45509 0.043144
280 1 0.749129 0.457211 0.0463484
565 1 0.751833 0.419943 0.0896666
4905 1 0.162663 0.48852 0.414346
4645 1 0.753458 0.49421 0.330889
297 1 0.168553 0.00498404 0.0777738
284 1 0.832967 0.450288 0.0435487
569 1 0.830771 0.41223 0.0841554
566 1 0.793604 0.452731 0.0902529
570 1 0.872493 0.460545 0.08143
288 1 0.913919 0.460975 0.0381018
3783 1 0.798257 0.499147 0.130325
1715 1 0.701184 0.416938 0.459805
244 1 0.995192 0.45959 0.030328
4359 1 0.793594 0.4961 0.292356
341 1 0.0916669 0.0841621 0.0741532
307 1 0.370718 0.000120415 0.125734
339 1 0.0448686 0.0873809 0.117789
4617 1 0.167919 0.496473 0.32578
294 1 0.124191 0.0384803 0.0826341
286 1 0.951568 0.465811 0.00515429
1183 1 0.628358 0.0033295 0.374041
296 1 0.0809213 0.0349269 0.119547
343 1 0.129369 0.0870762 0.120617
300 1 0.167065 0.048578 0.118143
298 1 0.210728 0.0441636 0.0798303
304 1 0.247361 0.0408614 0.125791
345 1 0.161126 0.0859189 0.079036
302 1 0.284071 0.0401456 0.0767907
1711 1 0.629772 0.418377 0.463911
590 1 0.288618 0.0383259 0.159359
308 1 0.329462 0.0348758 0.121989
3779 1 0.710099 0.498422 0.121226
355 1 0.37149 0.0803317 0.121707
312 1 0.415119 0.0350901 0.126142
594 1 0.379038 0.0392117 0.166042
1716 1 0.669875 0.459135 0.459697
598 1 0.459247 0.0385641 0.172015
3773 1 0.586318 0.495742 0.0765453
649 1 0.504878 0.0832186 0.170586
1449 1 0.168732 0.00142294 0.421889
895 1 0.631857 0.0052762 0.29363
316 1 0.498574 0.043738 0.131289
320 1 0.591399 0.0363058 0.128448
363 1 0.544732 0.0770143 0.12289
365 1 0.579905 0.0660448 0.0870148
602 1 0.541206 0.0443671 0.167835
367 1 0.62297 0.079388 0.125743
324 1 0.675591 0.0415595 0.138775
606 1 0.630696 0.0383129 0.165461
371 1 0.707336 0.0815593 0.124873
328 1 0.750644 0.043579 0.126966
610 1 0.712957 0.0307713 0.174648
326 1 0.786529 0.0468865 0.0888516
665 1 0.83912 0.0812653 0.166012
375 1 0.790761 0.0860294 0.123494
614 1 0.787289 0.0449964 0.170287
661 1 0.744895 0.077603 0.167941
1708 1 0.499942 0.458694 0.459607
332 1 0.831665 0.042668 0.12732
618 1 0.874474 0.0453117 0.173571
1161 1 0.168409 0.00959419 0.324821
334 1 0.958593 0.0460784 0.0874754
292 1 0.998879 0.0486313 0.123887
336 1 0.916606 0.0433919 0.122647
383 1 0.954245 0.0899208 0.122633
626 1 0.0390312 0.129567 0.162918
340 1 0.998684 0.124072 0.124147
342 1 0.126481 0.12472 0.0775286
393 1 0.164922 0.169716 0.0754246
344 1 0.0831437 0.130027 0.119453
677 1 0.0815343 0.169448 0.160091
348 1 0.165419 0.125976 0.115375
346 1 0.206986 0.131752 0.0802073
347 1 0.208969 0.0901749 0.117955
352 1 0.257397 0.124192 0.124297
353 1 0.329792 0.0777706 0.0828165
349 1 0.254816 0.0823601 0.0807633
350 1 0.295834 0.12397 0.0833952
351 1 0.292163 0.0806381 0.118739
357 1 0.421027 0.0793744 0.0851571
354 1 0.371587 0.118774 0.0841992
356 1 0.329862 0.116295 0.129063
403 1 0.379429 0.170667 0.129767
360 1 0.422718 0.123156 0.121853
359 1 0.455477 0.0793236 0.131357
364 1 0.499849 0.115803 0.124702
646 1 0.453353 0.128152 0.165931
407 1 0.45359 0.168661 0.129581
361 1 0.498417 0.0813787 0.0835237
368 1 0.57983 0.116789 0.122044
413 1 0.578522 0.162358 0.0794419
650 1 0.544795 0.116149 0.167498
372 1 0.652941 0.126308 0.121096
415 1 0.617267 0.161131 0.129814
657 1 0.666802 0.090596 0.162085
370 1 0.694478 0.121797 0.0814975
658 1 0.702776 0.127239 0.174325
419 1 0.704859 0.163454 0.12353
377 1 0.837358 0.0888286 0.0894733
376 1 0.740018 0.119478 0.133039
374 1 0.79456 0.122558 0.0843279
380 1 0.833084 0.12803 0.131565
662 1 0.788044 0.124293 0.164713
709 1 0.744664 0.165249 0.164873
429 1 0.915079 0.167653 0.0843934
379 1 0.874356 0.0767608 0.124562
384 1 0.917265 0.126195 0.129857
427 1 0.878268 0.166095 0.128892
670 1 0.95639 0.124679 0.168635
625 1 0.997223 0.0854154 0.165682
437 1 0.085363 0.248348 0.0851585
387 1 0.0390413 0.170088 0.119174
392 1 0.0832133 0.205755 0.12175
391 1 0.127789 0.167658 0.116304
396 1 0.167175 0.212763 0.11768
439 1 0.125222 0.255087 0.124384
681 1 0.173564 0.165694 0.159338
394 1 0.21661 0.20512 0.0745735
397 1 0.253103 0.165024 0.0834104
395 1 0.201346 0.172439 0.116424
400 1 0.254242 0.206152 0.125236
685 1 0.251386 0.167756 0.163553
441 1 0.175239 0.252467 0.0801624
398 1 0.295593 0.208475 0.0810274
399 1 0.29515 0.16577 0.126521
404 1 0.338622 0.204088 0.126492
693 1 0.41481 0.174301 0.168779
690 1 0.373336 0.209963 0.168588
409 1 0.497161 0.161163 0.0896228
406 1 0.444074 0.206691 0.0844347
408 1 0.412558 0.21112 0.12861
694 1 0.46493 0.215437 0.163987
411 1 0.542797 0.156041 0.11811
412 1 0.494114 0.208614 0.114193
459 1 0.547151 0.253508 0.11503
416 1 0.585202 0.210834 0.120151
749 1 0.578889 0.252924 0.164926
414 1 0.623041 0.196922 0.0881355
420 1 0.666234 0.207597 0.12199
463 1 0.620487 0.247703 0.122671
418 1 0.708514 0.198908 0.0817677
421 1 0.747114 0.159 0.0874203
424 1 0.757254 0.205892 0.121801
753 1 0.664182 0.246682 0.16076
706 1 0.70403 0.202096 0.152289
423 1 0.791101 0.160625 0.123701
471 1 0.786 0.251998 0.12772
428 1 0.831922 0.203169 0.123093
710 1 0.786549 0.200458 0.17214
757 1 0.744803 0.24968 0.170398
426 1 0.880585 0.209288 0.0821754
717 1 0.916509 0.164083 0.174426
714 1 0.874932 0.206816 0.167399
430 1 0.95091 0.210234 0.0821095
431 1 0.954515 0.166703 0.126919
388 1 0.000902414 0.20969 0.124094
432 1 0.913149 0.206171 0.12916
765 1 0.909488 0.246584 0.165347
721 1 0.995545 0.247119 0.163925
434 1 0.0443776 0.28963 0.0780503
435 1 0.0422802 0.246055 0.127957
483 1 0.0403778 0.333578 0.120169
440 1 0.0817082 0.29521 0.123865
438 1 0.126697 0.29018 0.0807311
726 1 0.1205 0.297203 0.161779
444 1 0.170254 0.299505 0.12608
442 1 0.212944 0.29866 0.0718692
443 1 0.210249 0.24518 0.127137
448 1 0.23894 0.296294 0.123898
730 1 0.213398 0.290326 0.174426
493 1 0.252367 0.332815 0.0784519
447 1 0.290888 0.254003 0.123412
452 1 0.337694 0.289118 0.119188
741 1 0.419406 0.255493 0.159434
451 1 0.380303 0.249757 0.119255
456 1 0.414845 0.293861 0.120511
499 1 0.375476 0.332402 0.120322
738 1 0.38084 0.293132 0.165363
455 1 0.45818 0.245254 0.121326
742 1 0.466158 0.292707 0.159721
460 1 0.502888 0.291092 0.115272
793 1 0.502998 0.328727 0.157416
458 1 0.540857 0.288877 0.0790741
507 1 0.546854 0.332284 0.122891
746 1 0.546345 0.294272 0.169605
464 1 0.584391 0.290272 0.126087
461 1 0.584015 0.237118 0.0736558
509 1 0.579602 0.335894 0.0776536
462 1 0.620226 0.294405 0.0860604
465 1 0.660518 0.236814 0.0803331
468 1 0.663449 0.277724 0.118686
511 1 0.619253 0.332694 0.118685
750 1 0.624748 0.28955 0.162865
467 1 0.719647 0.240396 0.110435
515 1 0.710806 0.330156 0.121369
472 1 0.747095 0.284991 0.130302
519 1 0.782783 0.332561 0.12812
476 1 0.826038 0.291792 0.126902
525 1 0.920182 0.345604 0.084627
475 1 0.863953 0.245057 0.127834
480 1 0.91606 0.288482 0.123437
433 1 0.996966 0.249653 0.0836032
479 1 0.95149 0.243263 0.123022
436 1 0.999797 0.296064 0.12245
527 1 0.962504 0.339255 0.128377
482 1 0.0400861 0.375147 0.0819945
529 1 0.996684 0.422446 0.0748257
531 1 0.0433052 0.417641 0.125894
488 1 0.0803647 0.379487 0.123492
821 1 0.0783612 0.415672 0.166936
486 1 0.127162 0.376526 0.0869098
487 1 0.127688 0.33344 0.121614
774 1 0.124488 0.379853 0.166205
489 1 0.167629 0.332451 0.0822253
492 1 0.169341 0.369819 0.122937
490 1 0.207922 0.37254 0.0838733
491 1 0.215606 0.338557 0.127875
778 1 0.212299 0.373158 0.168432
494 1 0.28186 0.376801 0.0767513
495 1 0.286651 0.332764 0.122965
496 1 0.24996 0.382863 0.121501
500 1 0.332467 0.378224 0.1232
782 1 0.295028 0.371018 0.164519
549 1 0.415817 0.412912 0.0787036
501 1 0.417577 0.324964 0.0719835
786 1 0.382986 0.368941 0.165114
504 1 0.417195 0.372931 0.11399
503 1 0.45594 0.328909 0.120512
551 1 0.457631 0.413895 0.124609
790 1 0.469457 0.369053 0.16723
837 1 0.419055 0.409018 0.162342
505 1 0.506611 0.330637 0.078766
553 1 0.500059 0.4117 0.086855
508 1 0.503171 0.368687 0.123454
506 1 0.542006 0.374456 0.077046
555 1 0.5436 0.416268 0.125936
512 1 0.581538 0.376618 0.117464
513 1 0.662327 0.329091 0.0860859
559 1 0.628628 0.413881 0.118427
849 1 0.671009 0.418476 0.163484
516 1 0.670294 0.371298 0.134407
563 1 0.71147 0.413223 0.130212
520 1 0.74952 0.373517 0.129092
518 1 0.794673 0.373365 0.0927383
521 1 0.827232 0.328854 0.0870969
806 1 0.79117 0.371398 0.16727
524 1 0.835904 0.367724 0.135119
567 1 0.794305 0.417833 0.130128
522 1 0.869653 0.377012 0.089932
523 1 0.879116 0.337719 0.127171
810 1 0.873285 0.370486 0.174708
528 1 0.920888 0.381363 0.131819
861 1 0.92459 0.420287 0.167608
484 1 0.997947 0.3809 0.121067
814 1 0.962931 0.373695 0.17211
530 1 0.0386292 0.458911 0.0849571
533 1 0.0816459 0.419732 0.0846474
818 1 0.0406876 0.461232 0.163317
536 1 0.0795594 0.464548 0.12011
535 1 0.129638 0.421935 0.126719
1712 1 0.590723 0.462228 0.459647
540 1 0.165676 0.462644 0.125463
4915 1 0.382239 0.499359 0.458191
537 1 0.166888 0.409272 0.0810562
539 1 0.201941 0.418976 0.124603
829 1 0.255144 0.41289 0.169193
826 1 0.208683 0.456382 0.162135
1703 1 0.459125 0.420759 0.461451
541 1 0.247291 0.417569 0.0769152
545 1 0.331174 0.414323 0.0814727
544 1 0.249023 0.4528 0.127847
542 1 0.292646 0.451464 0.0891646
543 1 0.296478 0.416469 0.12752
833 1 0.343223 0.41738 0.167819
547 1 0.381107 0.414463 0.124462
548 1 0.335165 0.453079 0.12262
591 1 0.289161 0.00670912 0.209398
550 1 0.466284 0.453247 0.0779709
552 1 0.418182 0.462052 0.128005
4333 1 0.249214 0.494841 0.24304
599 1 0.464598 0.00177569 0.217226
4649 1 0.836934 0.493177 0.337141
556 1 0.501863 0.459945 0.1252
554 1 0.544777 0.452956 0.0781629
229 1 0.758467 0.328901 0.00252964
561 1 0.673381 0.421062 0.0861712
560 1 0.58383 0.455001 0.120119
564 1 0.672105 0.463013 0.129263
1704 1 0.424975 0.463028 0.46336
562 1 0.712054 0.461816 0.084994
850 1 0.713252 0.461369 0.168222
853 1 0.757499 0.416059 0.164409
568 1 0.751709 0.453207 0.131188
572 1 0.836974 0.456774 0.136145
857 1 0.832616 0.412764 0.170407
571 1 0.87764 0.415905 0.122071
576 1 0.906873 0.458882 0.127795
858 1 0.871347 0.453689 0.17591
1700 1 0.331283 0.44518 0.452455
532 1 0.00189704 0.46273 0.124898
574 1 0.960339 0.462535 0.0859413
575 1 0.960002 0.418363 0.128076
862 1 0.947457 0.465621 0.168228
1691 1 0.209024 0.420689 0.460938
1187 1 0.705679 0.00446988 0.377152
578 1 0.0418694 0.0445082 0.154124
584 1 0.073492 0.0395455 0.215301
1696 1 0.251702 0.459209 0.454328
633 1 0.163444 0.082031 0.16567
629 1 0.08755 0.0788834 0.157517
582 1 0.127746 0.0416482 0.157276
631 1 0.114268 0.0741318 0.204924
586 1 0.2044 0.0502174 0.160293
637 1 0.256623 0.0869516 0.167333
588 1 0.162169 0.0424208 0.202117
592 1 0.250782 0.0460359 0.20655
635 1 0.202105 0.0798666 0.213003
43 1 0.877359 0.00318056 0.0394082
641 1 0.328598 0.071822 0.16567
639 1 0.296909 0.0836915 0.208837
4935 1 0.792619 0.493087 0.456584
929 1 0.332664 0.0817667 0.247858
596 1 0.335186 0.0410288 0.213577
882 1 0.373686 0.037627 0.251694
600 1 0.414271 0.0375016 0.212096
643 1 0.372935 0.083727 0.212434
886 1 0.46006 0.0450612 0.249783
604 1 0.494847 0.0450626 0.211172
303 1 0.285282 0.00244268 0.117091
1688 1 0.0735865 0.457433 0.450088
890 1 0.542684 0.0420733 0.251769
608 1 0.584429 0.0358137 0.213274
937 1 0.502613 0.0778635 0.256145
653 1 0.592558 0.0769364 0.170016
941 1 0.586172 0.0768554 0.253908
655 1 0.6229 0.0833552 0.211963
612 1 0.666534 0.0383135 0.202984
659 1 0.712466 0.0789088 0.212128
949 1 0.749882 0.0885132 0.262432
898 1 0.70708 0.036645 0.250105
945 1 0.668702 0.081232 0.252377
329 1 0.831071 0.00223217 0.0886181
4933 1 0.750316 0.497603 0.415326
616 1 0.75474 0.0443699 0.21557
902 1 0.792223 0.0387559 0.254245
663 1 0.796386 0.0880585 0.202427
620 1 0.832343 0.0421082 0.212524
667 1 0.871901 0.0828052 0.212294
624 1 0.924973 0.0429971 0.206609
953 1 0.833328 0.0860738 0.256086
669 1 0.914089 0.0820201 0.167464
1686 1 0.120506 0.452814 0.414464
580 1 0.993437 0.039792 0.208968
622 1 0.964713 0.039102 0.161082
671 1 0.95813 0.0841838 0.207187
1692 1 0.164277 0.4553 0.457497
1199 1 0.96631 0.00501157 0.385566
627 1 0.0427683 0.0807309 0.198663
675 1 0.0493278 0.160739 0.208891
632 1 0.0846888 0.125252 0.195116
630 1 0.122678 0.126969 0.157217
636 1 0.166299 0.127261 0.204622
679 1 0.118974 0.170129 0.198126
634 1 0.210649 0.127822 0.168128
922 1 0.209342 0.120128 0.246137
638 1 0.294778 0.124847 0.169372
640 1 0.253167 0.127855 0.203547
926 1 0.293301 0.122703 0.248319
687 1 0.293007 0.167189 0.201475
644 1 0.33552 0.125221 0.209797
689 1 0.334677 0.163199 0.167337
642 1 0.379539 0.127538 0.161927
648 1 0.412051 0.118337 0.205817
933 1 0.413635 0.087699 0.251798
977 1 0.332268 0.170425 0.252378
930 1 0.364735 0.121013 0.253283
645 1 0.419176 0.0739564 0.16789
647 1 0.452994 0.0857814 0.206531
652 1 0.499761 0.119071 0.217696
934 1 0.455416 0.117096 0.258743
651 1 0.543822 0.0817905 0.209583
656 1 0.581558 0.119326 0.207885
697 1 0.498091 0.159277 0.155789
938 1 0.54545 0.119036 0.248372
654 1 0.625587 0.121645 0.171642
942 1 0.619664 0.125081 0.249169
705 1 0.667546 0.161974 0.163684
660 1 0.66573 0.133406 0.215045
703 1 0.621566 0.164104 0.204425
664 1 0.74826 0.121995 0.210857
707 1 0.706131 0.172782 0.210185
946 1 0.708455 0.128412 0.244723
711 1 0.784013 0.161469 0.210522
668 1 0.835318 0.127232 0.209309
666 1 0.873589 0.127727 0.16801
715 1 0.872128 0.16404 0.210503
672 1 0.907714 0.119227 0.217024
957 1 0.924716 0.0831106 0.253346
954 1 0.869403 0.131898 0.256422
673 1 0.998088 0.178639 0.17009
628 1 0.997786 0.12799 0.198005
719 1 0.95979 0.165844 0.204
725 1 0.0861405 0.246993 0.162414
674 1 0.0391835 0.213894 0.167947
676 1 0.999251 0.215851 0.206235
678 1 0.129471 0.204536 0.156706
680 1 0.077542 0.209753 0.19909
727 1 0.126201 0.248134 0.20678
966 1 0.11951 0.208791 0.250752
684 1 0.163487 0.206861 0.198601
682 1 0.209475 0.209157 0.16533
729 1 0.162389 0.260828 0.166469
683 1 0.214844 0.163051 0.208402
731 1 0.204194 0.253212 0.214455
688 1 0.246564 0.21092 0.208017
686 1 0.284375 0.2086 0.168996
974 1 0.291164 0.206034 0.247529
692 1 0.33865 0.207469 0.211469
691 1 0.382609 0.162281 0.213464
739 1 0.373806 0.248063 0.205265
978 1 0.378418 0.217005 0.251791
1029 1 0.41774 0.260136 0.249878
981 1 0.414431 0.177259 0.256481
696 1 0.424566 0.215197 0.20655
695 1 0.449414 0.160805 0.216826
700 1 0.500467 0.207187 0.206557
982 1 0.465532 0.219514 0.249101
698 1 0.53994 0.212459 0.152666
699 1 0.533515 0.166163 0.201637
701 1 0.574444 0.171892 0.164977
747 1 0.543227 0.249887 0.202779
702 1 0.624683 0.198123 0.164921
704 1 0.578428 0.203149 0.207377
990 1 0.623364 0.201558 0.239578
993 1 0.671914 0.171442 0.251961
708 1 0.663002 0.199317 0.201918
755 1 0.703608 0.249367 0.205585
712 1 0.74551 0.21028 0.20709
713 1 0.834341 0.165546 0.170595
759 1 0.792991 0.253055 0.213962
998 1 0.784551 0.206844 0.243238
761 1 0.827029 0.249229 0.170896
716 1 0.836804 0.207189 0.209258
720 1 0.919789 0.206644 0.207666
718 1 0.950247 0.199589 0.165594
767 1 0.959226 0.258131 0.212232
722 1 0.0480498 0.286962 0.161788
723 1 0.0405805 0.253097 0.202726
773 1 0.0864098 0.337236 0.165911
771 1 0.0491415 0.325069 0.207712
1061 1 0.0887366 0.32734 0.251455
1057 1 0.00334852 0.332229 0.241762
1009 1 0.00775779 0.246898 0.247983
1013 1 0.0862947 0.245148 0.246981
728 1 0.0860752 0.283912 0.204846
775 1 0.1212 0.331981 0.209121
733 1 0.250604 0.247671 0.171042
732 1 0.164176 0.294424 0.207129
736 1 0.248 0.292465 0.21069
1018 1 0.207343 0.293425 0.250886
1025 1 0.336585 0.258914 0.25036
734 1 0.287655 0.29112 0.167091
735 1 0.295363 0.247202 0.210574
1022 1 0.288072 0.294017 0.244879
740 1 0.334146 0.292761 0.205396
737 1 0.331783 0.250302 0.166174
744 1 0.424954 0.291181 0.207023
789 1 0.422287 0.329868 0.158358
745 1 0.500902 0.255795 0.153596
743 1 0.465979 0.254416 0.208181
748 1 0.507604 0.296787 0.212117
1034 1 0.544134 0.288143 0.249674
752 1 0.587761 0.287464 0.206849
751 1 0.626436 0.239846 0.200233
799 1 0.625509 0.325587 0.20686
754 1 0.704287 0.288347 0.160351
805 1 0.744036 0.334953 0.167357
756 1 0.662555 0.286261 0.20904
760 1 0.750509 0.291619 0.206033
801 1 0.664993 0.325956 0.161446
1093 1 0.7504 0.324786 0.253037
1041 1 0.663678 0.245607 0.253003
758 1 0.787609 0.293519 0.169428
1046 1 0.790669 0.284574 0.252682
764 1 0.839833 0.28788 0.208783
807 1 0.785222 0.328551 0.212256
809 1 0.82352 0.329453 0.170206
762 1 0.868731 0.287748 0.161124
763 1 0.879302 0.247258 0.205991
813 1 0.91769 0.321618 0.160984
811 1 0.877001 0.32545 0.202051
724 1 0.9991 0.28895 0.213814
768 1 0.917679 0.291787 0.206459
766 1 0.955083 0.28541 0.162561
769 1 0.00750648 0.325023 0.165932
770 1 0.0366804 0.372244 0.166054
776 1 0.0754476 0.379052 0.207203
817 1 0.995998 0.420322 0.168159
819 1 0.0349785 0.421003 0.211356
1058 1 0.0468634 0.376817 0.249399
1109 1 0.0818882 0.413424 0.245885
780 1 0.159063 0.373728 0.207575
1062 1 0.121205 0.375813 0.253224
1065 1 0.16777 0.339779 0.246138
1113 1 0.163528 0.415241 0.249537
777 1 0.170943 0.334264 0.166768
779 1 0.210124 0.333955 0.207406
784 1 0.254037 0.375222 0.211425
781 1 0.255968 0.332679 0.166914
785 1 0.338243 0.332887 0.16361
783 1 0.295083 0.332291 0.208039
788 1 0.336801 0.377202 0.20531
787 1 0.374241 0.332322 0.20786
1074 1 0.36665 0.370787 0.248012
792 1 0.42111 0.368417 0.208445
835 1 0.378504 0.409015 0.204589
1125 1 0.419294 0.411008 0.246635
791 1 0.464034 0.330371 0.201383
1081 1 0.504751 0.332322 0.258825
1078 1 0.462279 0.36699 0.24328
796 1 0.512455 0.366945 0.20677
839 1 0.464348 0.409598 0.200896
1129 1 0.498273 0.415472 0.251982
795 1 0.5552 0.328423 0.221589
794 1 0.546474 0.375772 0.164479
797 1 0.585374 0.334724 0.167576
843 1 0.54752 0.411348 0.213541
798 1 0.61934 0.374313 0.158761
800 1 0.591451 0.379428 0.209731
1086 1 0.628876 0.378525 0.243955
1133 1 0.594464 0.415907 0.251741
847 1 0.625503 0.417064 0.201245
802 1 0.710729 0.376607 0.17049
803 1 0.707867 0.32805 0.20447
804 1 0.672061 0.367696 0.201999
1090 1 0.709086 0.361276 0.250383
808 1 0.750365 0.370343 0.206121
855 1 0.790158 0.420275 0.216637
1097 1 0.831973 0.324302 0.256075
1094 1 0.7931 0.371494 0.252384
812 1 0.837586 0.363099 0.215214
816 1 0.914787 0.371461 0.212865
1098 1 0.876748 0.376859 0.252478
1149 1 0.91555 0.416995 0.256901
1145 1 0.831384 0.414215 0.258443
815 1 0.955258 0.333723 0.200803
772 1 0.00287935 0.378178 0.214373
824 1 0.0805389 0.459614 0.208671
823 1 0.119035 0.419319 0.205613
822 1 0.127178 0.466236 0.168382
825 1 0.165943 0.419207 0.173575
1110 1 0.122149 0.451697 0.248799
828 1 0.168708 0.464589 0.202176
827 1 0.207154 0.408625 0.205331
1114 1 0.206731 0.445678 0.249435
831 1 0.30025 0.412875 0.205001
832 1 0.24454 0.450104 0.212714
830 1 0.288129 0.4527 0.167626
1118 1 0.288964 0.457436 0.243972
834 1 0.381442 0.452955 0.1679
836 1 0.333736 0.452727 0.212082
840 1 0.413199 0.450441 0.208322
838 1 0.4598 0.447541 0.165597
844 1 0.506981 0.451402 0.209885
1126 1 0.464139 0.454676 0.243438
1481 1 0.834931 0.00301775 0.410878
3785 1 0.831435 0.49868 0.0797738
841 1 0.507708 0.409088 0.168088
842 1 0.542766 0.458385 0.162604
1130 1 0.545643 0.45484 0.244658
848 1 0.591821 0.458512 0.2109
845 1 0.585732 0.415442 0.164064
846 1 0.625762 0.460412 0.159065
1134 1 0.634707 0.459114 0.252111
851 1 0.707453 0.423431 0.210595
852 1 0.660032 0.454176 0.204286
856 1 0.749262 0.460629 0.219629
1683 1 0.0420961 0.417103 0.457722
854 1 0.787895 0.463714 0.181968
1141 1 0.748234 0.407324 0.249706
1142 1 0.797491 0.456335 0.253632
1684 1 0.00109328 0.456222 0.456813
860 1 0.839649 0.460919 0.217522
859 1 0.873439 0.412283 0.206976
864 1 0.911466 0.456013 0.209615
282 1 0.870792 0.46875 0.00179948
1146 1 0.879318 0.4524 0.257583
3763 1 0.379035 0.497947 0.110542
1636 1 0.995919 0.376636 0.462344
820 1 0.999361 0.460887 0.209287
863 1 0.955976 0.420487 0.212796
1858 1 0.707171 0.197105 0.497192
866 1 0.0377976 0.0519618 0.257717
1154 1 0.0452642 0.0405578 0.327547
915 1 0.0446127 0.0946285 0.294905
301 1 0.248362 0.00204136 0.0780244
870 1 0.12271 0.0368756 0.246812
872 1 0.0840845 0.0494485 0.293324
4035 1 0.0400571 0.49783 0.206516
874 1 0.197123 0.04611 0.251846
925 1 0.256471 0.0845575 0.242241
876 1 0.161303 0.0557943 0.291663
880 1 0.250461 0.0544082 0.288923
1213 1 0.248105 0.0914696 0.333471
1678 1 0.959945 0.373888 0.425665
878 1 0.284139 0.0431305 0.253014
927 1 0.290768 0.0872896 0.288709
884 1 0.325948 0.0480397 0.289146
931 1 0.371829 0.081023 0.294373
1170 1 0.374678 0.0436434 0.337985
1866 1 0.874865 0.205576 0.499354
888 1 0.415343 0.0445789 0.297537
892 1 0.499999 0.0368156 0.291598
1221 1 0.419891 0.0869362 0.33057
1174 1 0.461523 0.0401031 0.336499
939 1 0.540512 0.0715014 0.297453
896 1 0.586687 0.0347526 0.295595
1229 1 0.582674 0.078414 0.328001
894 1 0.627124 0.0372582 0.250645
900 1 0.666976 0.0443214 0.289538
1182 1 0.622797 0.04205 0.335444
1233 1 0.663539 0.0825443 0.332445
3487 1 0.629294 0.492056 0.0429676
1185 1 0.66292 0.0030784 0.333248
3459 1 0.0403332 0.499726 0.0420853
1186 1 0.712498 0.0445897 0.328632
904 1 0.747056 0.0334237 0.294157