ITEM: TIMESTEP
24000
ITEM: NUMBER OF ATOMS
5324
ITEM: BOX BOUNDS pp pp pp
0.0000000000000000e+00 5.7859999999999999e+01
0.0000000000000000e+00 5.7859999999999999e+01
0.0000000000000000e+00 5.7859999999999999e+01
ITEM: ATOMS id type xs ys zs
47 1 0.0438033 0.0855599 0.0478141
244 1 0.0538973 0.0485409 0.0972476
8 1 0.0889618 0.0391868 0.048375
4 1 0.000284123 0.0433521 0.0413306
287 1 0.00196171 0.0892558 0.0910356
243 1 0.00830065 0.00373063 0.0967859
2 1 0.0423589 0.0394889 9.5207e-05
49 1 0.0879241 0.0789102 0.00228348
248 1 0.133545 0.0427168 0.096345
295 1 0.174676 0.0900539 0.0908201
12 1 0.174128 0.0479273 0.0485928
291 1 0.095893 0.0948182 0.0900816
51 1 0.136009 0.0887062 0.0434636
6 1 0.137895 0.0376701 0.00162649
55 1 0.237123 0.0904953 0.0481936
252 1 0.220579 0.0388271 0.0901006
16 1 0.27251 0.0405778 0.0456928
10 1 0.221381 0.0426615 0.0110178
299 1 0.27294 0.0883252 0.0914647
59 1 0.318004 0.0936282 0.0436136
256 1 0.319669 0.0366758 0.0850067
303 1 0.362385 0.0919635 0.0911109
20 1 0.360152 0.0385058 0.041129
13 1 0.279714 0.00272353 0.00095599
63 1 0.411397 0.0971832 0.0480381
260 1 0.40851 0.042703 0.0797372
61 1 0.368217 0.0857595 0.00999797
24 1 0.461473 0.0463932 0.0473764
307 1 0.460821 0.0881825 0.096017
264 1 0.501833 0.0474737 0.0920067
67 1 0.504369 0.0946419 0.0444713
28 1 0.537275 0.0464824 0.0451453
263 1 0.455324 0.00585495 0.0959972
267 1 0.542381 0.000287767 0.0903477
65 1 0.454726 0.0887064 0.000881714
71 1 0.58479 0.0916183 0.045017
268 1 0.595038 0.0498583 0.084257
311 1 0.547566 0.0895002 0.0871277
271 1 0.632891 0.00300353 0.0864801
32 1 0.637494 0.0473343 0.0367917
272 1 0.682609 0.0574161 0.0744713
319 1 0.724566 0.0988833 0.0868703
36 1 0.726433 0.0425512 0.0403591
77 1 0.725394 0.09056 0.00110013
79 1 0.777066 0.0885662 0.0451222
276 1 0.780426 0.0387323 0.0884979
40 1 0.818773 0.0454712 0.0440729
323 1 0.819271 0.0914563 0.0940333
280 1 0.861581 0.0455037 0.0945948
83 1 0.875113 0.0948413 0.0387289
39 1 0.874803 0.00268085 0.0445416
81 1 0.828021 0.0907489 0.00109559
283 1 0.907953 0.00923178 0.0950833
37 1 0.821863 0.00126852 0.00118375
38 1 0.86233 0.0437611 0.00271437
327 1 0.912962 0.0888134 0.0918649
44 1 0.919644 0.0404856 0.0460285
284 1 0.960067 0.0415287 0.0888626
87 1 0.956437 0.08792 0.0479054
42 1 0.958909 0.043318 0.0028321
91 1 0.0491332 0.169444 0.0436035
288 1 0.0465131 0.142959 0.0932257
48 1 0.000469291 0.132272 0.0407588
46 1 0.0473428 0.125914 0.00440689
89 1 0.00475348 0.180157 0.000708804
52 1 0.0960289 0.129901 0.044379
335 1 0.0973715 0.175124 0.0904352
95 1 0.141842 0.176262 0.0459598
292 1 0.141241 0.137695 0.0892838
56 1 0.180023 0.129638 0.0415441
339 1 0.178726 0.187632 0.0895319
99 1 0.229888 0.181999 0.0479816
296 1 0.220391 0.134494 0.0879741
60 1 0.271445 0.135918 0.0435436
97 1 0.184078 0.181044 0.00256804
54 1 0.223945 0.127153 0.00426283
343 1 0.284885 0.183077 0.0923472
103 1 0.328515 0.188041 0.0544162
300 1 0.323166 0.14101 0.093657
64 1 0.356969 0.134937 0.0382508
347 1 0.371082 0.179159 0.0937247
107 1 0.409056 0.177817 0.0469736
304 1 0.414024 0.13613 0.0937318
351 1 0.4521 0.17694 0.0868623
68 1 0.456027 0.134432 0.0439843
111 1 0.500249 0.180106 0.0411029
308 1 0.500962 0.139985 0.0869181
355 1 0.54445 0.190784 0.0863609
315 1 0.63137 0.100515 0.0863695
72 1 0.548086 0.138676 0.0423228
115 1 0.587369 0.1861 0.043949
312 1 0.588135 0.145001 0.0896465
76 1 0.632808 0.138679 0.0416521
359 1 0.628425 0.185165 0.0852945
75 1 0.678188 0.101127 0.0382656
119 1 0.679477 0.184751 0.0475663
316 1 0.691512 0.142677 0.0989151
121 1 0.721797 0.182672 0.00278774
80 1 0.729792 0.136827 0.0413675
123 1 0.772465 0.179058 0.0426446
320 1 0.775809 0.13373 0.0930796
84 1 0.81593 0.132836 0.0405267
367 1 0.817701 0.176148 0.0837983
363 1 0.73258 0.176656 0.084981
127 1 0.867461 0.174631 0.0396767
324 1 0.870322 0.139057 0.0902829
88 1 0.920344 0.135214 0.0389553
331 1 0.997694 0.179104 0.0899098
371 1 0.915606 0.180709 0.091486
131 1 0.961816 0.177868 0.0443291
328 1 0.960003 0.136228 0.092068
135 1 0.0505012 0.269777 0.0443105
96 1 0.0820601 0.21976 0.0458864
92 1 0.0190234 0.21604 0.0484313
375 1 0.00606771 0.265323 0.0833025
133 1 0.000200783 0.262655 0.00912097
379 1 0.0919847 0.273508 0.09935
139 1 0.134572 0.276864 0.0560945
336 1 0.125079 0.22806 0.0889376
100 1 0.17587 0.230718 0.0517835
137 1 0.0935299 0.263255 0.00650032
94 1 0.133652 0.221479 0.00804206
143 1 0.225181 0.267071 0.0517013
340 1 0.228575 0.222988 0.0926443
145 1 0.271707 0.266343 0.00775707
141 1 0.182395 0.265735 0.00400192
98 1 0.23003 0.222947 0.00157094
104 1 0.282065 0.230287 0.0534163
387 1 0.275793 0.274699 0.0919415
147 1 0.330349 0.271552 0.0483174
344 1 0.32943 0.232641 0.0939015
102 1 0.325437 0.227626 0.00347628
106 1 0.402796 0.223824 0.00515638
108 1 0.372044 0.228777 0.0524164
151 1 0.407995 0.274432 0.0479396
395 1 0.453029 0.266912 0.0824572
348 1 0.41167 0.230177 0.0989648
112 1 0.455586 0.223354 0.0403277
155 1 0.500096 0.270325 0.0404771
352 1 0.500334 0.231053 0.0842442
399 1 0.547381 0.277454 0.0902382
116 1 0.54747 0.23229 0.0449268
159 1 0.587809 0.278124 0.0451946
356 1 0.59125 0.225208 0.0914614
120 1 0.630088 0.236343 0.042815
403 1 0.630582 0.266175 0.0916378
114 1 0.591902 0.230748 0.00353026
118 1 0.675248 0.232908 0.00400525
163 1 0.683746 0.274278 0.047206
407 1 0.722667 0.274836 0.0984024
124 1 0.72722 0.225319 0.0470755
360 1 0.683162 0.227423 0.0899941
165 1 0.725112 0.26974 0.0061152
167 1 0.77129 0.272264 0.0537521
364 1 0.773076 0.220103 0.0850933
122 1 0.769183 0.229743 0.00629825
169 1 0.809024 0.271273 0.00249725
411 1 0.824252 0.259016 0.0931073
128 1 0.824166 0.220797 0.0406708
171 1 0.863367 0.270205 0.0468751
368 1 0.868772 0.215053 0.0859567
415 1 0.914851 0.272198 0.0927941
132 1 0.91087 0.22087 0.0404711
175 1 0.950591 0.272777 0.045489
372 1 0.961651 0.228858 0.085228
134 1 0.0520795 0.315996 0.00764171
179 1 0.0479257 0.367965 0.0516505
376 1 0.0433515 0.318879 0.0869584
136 1 0.00359835 0.306959 0.0443539
140 1 0.0883289 0.312885 0.0473921
423 1 0.0898487 0.363335 0.0917612
183 1 0.144568 0.358147 0.0462524
427 1 0.181239 0.36354 0.0937895
144 1 0.18185 0.307017 0.0464843
187 1 0.23824 0.361559 0.0388825
384 1 0.229173 0.311999 0.098515
431 1 0.266547 0.356916 0.0902846
142 1 0.225588 0.30773 0.00877317
185 1 0.186732 0.356156 0.00724986
148 1 0.276075 0.321534 0.0431787
191 1 0.325042 0.36512 0.0518343
388 1 0.318635 0.317767 0.0907685
189 1 0.286794 0.361607 0.00339528
435 1 0.378833 0.364566 0.0976655
152 1 0.366779 0.316631 0.0570839
195 1 0.409131 0.361415 0.0440333
392 1 0.413424 0.323074 0.0892525
156 1 0.450496 0.316832 0.0442343
150 1 0.411794 0.314789 0.00386811
439 1 0.45457 0.36706 0.0844156
199 1 0.497389 0.355738 0.0425416
396 1 0.493204 0.317174 0.0877503
160 1 0.541691 0.319434 0.0447689
443 1 0.542861 0.357137 0.08694
201 1 0.543554 0.359832 0.000564357
154 1 0.496127 0.316272 0.00364382
203 1 0.590175 0.35558 0.0497741
400 1 0.592487 0.312232 0.0986968
162 1 0.687404 0.314531 0.00183196
447 1 0.643213 0.355459 0.095715
164 1 0.638419 0.319087 0.0507247
207 1 0.683503 0.356753 0.0479781
404 1 0.686162 0.31446 0.0981022
451 1 0.726329 0.363662 0.0938226
168 1 0.729042 0.317778 0.0421634
211 1 0.767853 0.369857 0.0535843
408 1 0.772215 0.315705 0.0907644
172 1 0.816459 0.312883 0.0546792
455 1 0.811369 0.357285 0.0958514
166 1 0.774829 0.321271 0.00700073
215 1 0.860776 0.359679 0.0427748
412 1 0.872592 0.321259 0.0951517
176 1 0.906805 0.310545 0.0422749
459 1 0.902944 0.365758 0.0858468
170 1 0.861996 0.309307 0.0041082
217 1 0.907274 0.35791 0.00331742
174 1 0.955563 0.311917 0.00240442
419 1 0.995598 0.363473 0.0869142
219 1 0.950511 0.360726 0.0439585
416 1 0.953489 0.31783 0.0876055
177 1 0.993916 0.363015 0.00561068
2905 1 0.0425435 0.497826 0.0909118
222 1 0.0414613 0.455375 0.0557985
184 1 0.0880933 0.411993 0.0410604
180 1 0.00253838 0.404294 0.0489327
420 1 0.0452341 0.410888 0.0918199
178 1 0.0414751 0.415258 0.00265158
221 1 4.41539e-05 0.459013 0.0143181
223 1 0.0889178 0.460219 0.00432206
2665 1 0.139435 0.494435 0.00211609
224 1 0.134079 0.45068 0.0438468
424 1 0.131484 0.405344 0.0917729
467 1 0.174121 0.444501 0.0937709
188 1 0.179889 0.408924 0.0403929
465 1 0.0932031 0.44857 0.0917318
2668 1 0.178208 0.497176 0.0559619
182 1 0.1381 0.404435 0.00326448
2909 1 0.220291 0.493919 0.0936843
428 1 0.222445 0.40552 0.0830171
226 1 0.227517 0.458468 0.0488412
192 1 0.27193 0.410648 0.0484334
186 1 0.2318 0.413847 0.0086738
2667 1 0.225652 0.494341 0.00131743
469 1 0.283327 0.461509 0.0920995
432 1 0.318145 0.40691 0.0973574
228 1 0.324205 0.45677 0.042939
2911 1 0.328618 0.496304 0.0938971
2670 1 0.276635 0.496813 0.0432049
190 1 0.318514 0.410572 0.00588367
229 1 0.364235 0.458285 0.00365871
196 1 0.368228 0.407896 0.0461852
471 1 0.371208 0.454573 0.0887687
436 1 0.415131 0.411025 0.0900259
230 1 0.406221 0.449813 0.0460719
200 1 0.44976 0.408043 0.0391634
473 1 0.45157 0.455809 0.08586
2915 1 0.501704 0.493613 0.0945287
232 1 0.496985 0.455 0.0431167
440 1 0.492667 0.413417 0.0884724
475 1 0.544917 0.451978 0.0905397
2674 1 0.458405 0.499347 0.0422125
233 1 0.540131 0.452531 0.00753317
198 1 0.506234 0.404064 0.00175341
2917 1 0.593741 0.498879 0.085155
444 1 0.595579 0.40161 0.0874183
204 1 0.546121 0.404667 0.0529416
234 1 0.590201 0.45786 0.0464142
477 1 0.635961 0.453056 0.0909727
208 1 0.632517 0.405589 0.036226
2675 1 0.59115 0.497606 0.0017582
448 1 0.678715 0.404345 0.0801561
236 1 0.670677 0.450486 0.0400922
212 1 0.721226 0.408283 0.0438318
479 1 0.726077 0.456969 0.0877179
2919 1 0.684632 0.49883 0.0980358
2680 1 0.733351 0.495239 0.0463201
452 1 0.773396 0.407418 0.0979715
238 1 0.768421 0.448365 0.051277
216 1 0.817296 0.409063 0.0484707
2921 1 0.775796 0.491818 0.0877907
239 1 0.812321 0.456847 0.00840271
481 1 0.821193 0.449959 0.0948694
240 1 0.862234 0.452477 0.053595
456 1 0.863049 0.407841 0.095636
220 1 0.904346 0.409183 0.0448785
2923 1 0.860183 0.496257 0.0907137
214 1 0.857796 0.419646 0.00689732
2925 1 0.957708 0.497092 0.0982043
463 1 0.991236 0.447032 0.0913844
242 1 0.948714 0.453647 0.0469201
460 1 0.946389 0.411079 0.0881844
483 1 0.913246 0.464863 0.0891474
2684 1 0.912472 0.499028 0.0397775
218 1 0.951122 0.403731 0.00492339
289 1 0.0442718 0.0854022 0.140681
486 1 0.0427578 0.0487039 0.186793
250 1 0.090556 0.036265 0.143187
246 1 0.0013159 0.0383944 0.141798
533 1 0.0948444 0.0884422 0.185141
490 1 0.140313 0.0503988 0.169665
293 1 0.135389 0.0962796 0.131995
493 1 0.184729 0.000591195 0.178472
537 1 0.184969 0.0868539 0.185007
254 1 0.186047 0.0499872 0.134188
494 1 0.223777 0.0464605 0.177741
297 1 0.225381 0.0920381 0.127879
258 1 0.26865 0.0417557 0.131355
541 1 0.271908 0.0865101 0.181142
498 1 0.318645 0.0422589 0.176061
262 1 0.362275 0.0435757 0.135613
545 1 0.362129 0.0923535 0.183031
301 1 0.309315 0.0894727 0.136561
305 1 0.410331 0.0917352 0.13474
502 1 0.405793 0.0420704 0.182303
266 1 0.445972 0.0492252 0.13777
505 1 0.449775 0.000140133 0.173743
549 1 0.456319 0.0875391 0.181945
506 1 0.494158 0.0425594 0.176678
309 1 0.499096 0.0901604 0.137513
265 1 0.501009 0.000276868 0.131014
513 1 0.63411 0.0037777 0.176957
553 1 0.546559 0.0963907 0.179453
270 1 0.549404 0.047335 0.133382
313 1 0.590678 0.0967994 0.128985
510 1 0.591183 0.0540859 0.174974
269 1 0.592675 0.00672463 0.130723
274 1 0.640314 0.046439 0.136333
557 1 0.640034 0.0956615 0.175651
317 1 0.672585 0.093778 0.131225
514 1 0.684614 0.0461577 0.178558
277 1 0.782583 0.00455227 0.133247
278 1 0.727816 0.0414151 0.128041
561 1 0.728091 0.0848743 0.175142
518 1 0.779689 0.0458222 0.18856
321 1 0.774823 0.0851522 0.132845
521 1 0.824211 0.00646063 0.180248
282 1 0.821775 0.0476448 0.14194
565 1 0.827218 0.0986506 0.187519
522 1 0.865618 0.0552704 0.177363
325 1 0.864434 0.0921088 0.135315
286 1 0.908262 0.0449977 0.139548
281 1 0.866068 0.00350561 0.139075
525 1 0.907608 0.00635034 0.183207
285 1 0.950354 0.00287659 0.134091
529 1 0.997501 0.0880304 0.191989
569 1 0.919276 0.0874464 0.179476
526 1 0.955168 0.039351 0.182883
329 1 0.960721 0.084295 0.136839
333 1 0.0403288 0.175871 0.141273
530 1 0.041281 0.132913 0.189139
577 1 0.0883512 0.178336 0.182398
294 1 0.0890196 0.133736 0.142238
337 1 0.136438 0.183055 0.140854
534 1 0.136616 0.131067 0.182423
581 1 0.182131 0.174633 0.182873
298 1 0.182136 0.137783 0.133803
341 1 0.232173 0.179564 0.138054
538 1 0.219325 0.133049 0.179065
302 1 0.271808 0.136407 0.139016
585 1 0.273091 0.180015 0.183546
345 1 0.322981 0.182897 0.141979
542 1 0.319583 0.130774 0.172138
589 1 0.36479 0.1836 0.179568
306 1 0.367331 0.131364 0.135678
349 1 0.405539 0.172775 0.137621
546 1 0.410603 0.126561 0.182879
593 1 0.453525 0.175983 0.180268
310 1 0.458793 0.130756 0.135255
353 1 0.492736 0.190531 0.13111
550 1 0.500717 0.134644 0.177925
597 1 0.537151 0.189958 0.180075
314 1 0.537411 0.140651 0.129904
357 1 0.58168 0.180982 0.13802
554 1 0.592845 0.130486 0.172786
601 1 0.631271 0.177435 0.176192
318 1 0.635384 0.13839 0.133357
361 1 0.682384 0.186348 0.132888
558 1 0.678867 0.139523 0.177412
605 1 0.733791 0.184144 0.178225
322 1 0.731132 0.138309 0.147626
365 1 0.774252 0.180015 0.134212
562 1 0.775769 0.12533 0.183014
326 1 0.814043 0.134841 0.135658
609 1 0.819403 0.174195 0.18501
369 1 0.860262 0.184485 0.136667
566 1 0.869662 0.138372 0.179887
290 1 0.999345 0.133174 0.137829
330 1 0.917936 0.139574 0.137598
613 1 0.915137 0.186028 0.177704
573 1 0.99462 0.182775 0.18201
373 1 0.958911 0.185529 0.134644
570 1 0.953866 0.13996 0.185709
332 1 0.03854 0.222002 0.100916
377 1 0.0442261 0.273355 0.133604
574 1 0.0413434 0.225246 0.179734
617 1 0.00315435 0.280852 0.17985
338 1 0.0880008 0.222265 0.136212
621 1 0.0838952 0.266932 0.185513
383 1 0.176814 0.265585 0.103346
381 1 0.134623 0.269979 0.148578
578 1 0.14158 0.226211 0.184285
342 1 0.186675 0.221868 0.142585
625 1 0.189581 0.267274 0.185864
385 1 0.229642 0.263117 0.137839
582 1 0.232356 0.225962 0.186387
629 1 0.276605 0.275108 0.182386
346 1 0.281686 0.224815 0.136822
389 1 0.317291 0.272672 0.142111
586 1 0.325555 0.232036 0.184355
391 1 0.368337 0.284526 0.105784
633 1 0.375904 0.27078 0.183339
350 1 0.370236 0.225788 0.141091
393 1 0.418053 0.282369 0.142886
590 1 0.409833 0.218219 0.180472
354 1 0.449856 0.227687 0.142085
637 1 0.453821 0.275616 0.187102
397 1 0.495522 0.265205 0.128493
594 1 0.498237 0.232871 0.179165
358 1 0.546661 0.2316 0.13182
641 1 0.549427 0.265645 0.181504
401 1 0.587312 0.271462 0.135863
598 1 0.591671 0.229242 0.181208
362 1 0.633364 0.224532 0.137127
645 1 0.636583 0.276794 0.181261
405 1 0.688249 0.266893 0.141612
602 1 0.683751 0.224698 0.182931
649 1 0.728612 0.279215 0.180902
366 1 0.731015 0.223427 0.133777
409 1 0.780002 0.273435 0.131627
606 1 0.77011 0.237627 0.177052
370 1 0.810332 0.225566 0.141236
653 1 0.82266 0.273012 0.181946
413 1 0.868879 0.269782 0.136664
610 1 0.860653 0.219634 0.182236
334 1 0.996285 0.23313 0.137099
374 1 0.910667 0.22769 0.133473
657 1 0.923098 0.271659 0.171247
417 1 0.964245 0.281428 0.134408
614 1 0.960903 0.230034 0.179363
421 1 0.0444515 0.368821 0.133116
618 1 0.0458368 0.326082 0.181279
378 1 0.000666784 0.327259 0.133089
380 1 0.142162 0.317331 0.100636
665 1 0.0958049 0.365825 0.186465
382 1 0.0942044 0.325104 0.14442
425 1 0.137298 0.362082 0.133049
622 1 0.140729 0.309677 0.191323
669 1 0.173614 0.35968 0.179378
386 1 0.18514 0.312785 0.142508
429 1 0.225117 0.369529 0.139586
626 1 0.227704 0.324422 0.190433
390 1 0.26641 0.318987 0.142187
673 1 0.270615 0.382976 0.182575
433 1 0.307123 0.366728 0.139436
630 1 0.320117 0.317577 0.182904
394 1 0.359239 0.332272 0.14344
677 1 0.363614 0.37708 0.183932
437 1 0.411405 0.366418 0.14335
634 1 0.404008 0.319947 0.195813
398 1 0.460698 0.319379 0.134548
681 1 0.462996 0.359824 0.187089
441 1 0.49551 0.359995 0.132729
638 1 0.505624 0.312256 0.188123
402 1 0.532873 0.313658 0.136091
682 1 0.506073 0.396692 0.182267
685 1 0.54705 0.361204 0.183472
445 1 0.579816 0.359158 0.132664
642 1 0.583978 0.315739 0.173609
689 1 0.633347 0.364401 0.172719
406 1 0.638394 0.310835 0.132189
449 1 0.684894 0.362177 0.138015
646 1 0.688898 0.323301 0.182357
410 1 0.727789 0.31877 0.13752
693 1 0.728401 0.364309 0.179935
453 1 0.777718 0.35677 0.140765
650 1 0.780616 0.318759 0.183209
697 1 0.831524 0.362567 0.186132
414 1 0.81851 0.312367 0.129192
457 1 0.858108 0.361441 0.131905
654 1 0.869429 0.313725 0.183955
661 1 0.997422 0.368679 0.186979
418 1 0.915468 0.323029 0.145252
701 1 0.917521 0.364713 0.180835
461 1 0.951868 0.362175 0.129554
658 1 0.963481 0.322767 0.17811
2906 1 0.0038081 0.498721 0.138206
464 1 0.0486665 0.460683 0.139021
662 1 0.0513107 0.416195 0.183502
707 1 0.0891575 0.461335 0.18535
426 1 0.087298 0.411803 0.132092
422 1 0.00471093 0.410203 0.140356
666 1 0.134871 0.415073 0.183174
466 1 0.130321 0.45117 0.136526
430 1 0.173873 0.407672 0.136629
709 1 0.185246 0.448941 0.175129
468 1 0.23292 0.454542 0.138784
670 1 0.219137 0.401242 0.185432
711 1 0.268316 0.446258 0.185963
434 1 0.269388 0.411457 0.1242
674 1 0.31839 0.414955 0.18363
470 1 0.313707 0.451814 0.143921
713 1 0.362183 0.455977 0.191617
2914 1 0.365988 0.492794 0.141701
438 1 0.365565 0.418759 0.138114
678 1 0.409323 0.415884 0.185597
472 1 0.416419 0.456287 0.14388
442 1 0.452734 0.410097 0.140586
3155 1 0.409559 0.494134 0.18731
715 1 0.462173 0.453331 0.182643
474 1 0.493654 0.454145 0.134487
717 1 0.538771 0.454538 0.184526
446 1 0.542336 0.415522 0.131
2920 1 0.633373 0.497271 0.137708
3159 1 0.583671 0.497095 0.183481
686 1 0.58846 0.409622 0.179113
476 1 0.588403 0.453369 0.130388
3161 1 0.676423 0.489908 0.176641
450 1 0.638853 0.40699 0.129574
690 1 0.681385 0.407085 0.174792
719 1 0.637306 0.450279 0.177939
478 1 0.687539 0.446353 0.130896
721 1 0.721479 0.449469 0.185028
3163 1 0.777287 0.499905 0.178829
454 1 0.732499 0.406635 0.136501
480 1 0.77664 0.449643 0.14242
694 1 0.774242 0.413807 0.185244
2922 1 0.736356 0.496413 0.134551
3165 1 0.863143 0.499264 0.182914
458 1 0.819577 0.409701 0.14281
723 1 0.822972 0.453871 0.186555
482 1 0.858975 0.445398 0.139517
698 1 0.872373 0.405071 0.183728
462 1 0.906456 0.404187 0.135148
2924 1 0.822575 0.491659 0.138872
725 1 0.912218 0.453386 0.181061
705 1 0.998591 0.457671 0.185533
702 1 0.95646 0.414065 0.180134
484 1 0.952785 0.451317 0.137207
2926 1 0.910793 0.493859 0.141441
531 1 0.0471243 0.0886164 0.230334
728 1 0.0459533 0.0407678 0.277019
775 1 0.084772 0.0860774 0.280043
492 1 0.0890055 0.0383789 0.226657
488 1 0.00949976 0.039943 0.233806
771 1 0.00202918 0.0824092 0.272251
535 1 0.127052 0.0895407 0.235306
732 1 0.133062 0.0425682 0.273989
496 1 0.174671 0.0437312 0.230208
495 1 0.224643 0.00199492 0.224771
779 1 0.189311 0.08993 0.265545
736 1 0.227756 0.0473993 0.272232
539 1 0.234169 0.0919961 0.232777
500 1 0.27037 0.0433099 0.226957
783 1 0.277474 0.0851623 0.267815
740 1 0.318228 0.0395394 0.265832
504 1 0.36291 0.0453465 0.223801
787 1 0.36066 0.0856657 0.270051
543 1 0.314364 0.0845229 0.22525
744 1 0.413072 0.0419987 0.276841
547 1 0.405166 0.083925 0.230948
508 1 0.448053 0.0435195 0.220411
791 1 0.453913 0.0799704 0.267216
748 1 0.502219 0.0440899 0.270802
551 1 0.502741 0.0881074 0.220329
795 1 0.549859 0.0854413 0.271166
512 1 0.549487 0.0434114 0.224794
752 1 0.58099 0.0426733 0.272223
555 1 0.593324 0.0882399 0.223695
799 1 0.633977 0.090128 0.275155
755 1 0.631906 0.00824884 0.262003
516 1 0.636475 0.0515165 0.215768
559 1 0.682182 0.0939903 0.221636
756 1 0.675495 0.050703 0.262881
759 1 0.73426 0.0083909 0.263255
803 1 0.730026 0.0741019 0.272332
520 1 0.730602 0.04041 0.215173
760 1 0.783481 0.0359329 0.283958
563 1 0.770344 0.084094 0.231621
807 1 0.813779 0.0895838 0.266837
519 1 0.777449 0.000809107 0.228294
524 1 0.828149 0.0510938 0.22613
764 1 0.870973 0.0383027 0.270593
567 1 0.871711 0.0969884 0.23136
811 1 0.921485 0.0857021 0.271981
528 1 0.909945 0.0400523 0.230677
768 1 0.953635 0.0394905 0.275914
571 1 0.953052 0.0884783 0.228345
575 1 0.043565 0.184551 0.22667
772 1 0.044625 0.135085 0.277518
536 1 0.0870814 0.131586 0.227212
532 1 0.00424328 0.134766 0.230868
815 1 0.00195469 0.180761 0.26703
819 1 0.0920989 0.172743 0.273888
579 1 0.133525 0.180198 0.221764
776 1 0.136032 0.133143 0.277582
823 1 0.178865 0.173973 0.270832
540 1 0.182866 0.135438 0.225046
583 1 0.226208 0.178255 0.222041
780 1 0.232071 0.13673 0.267183
827 1 0.272863 0.17911 0.26607
544 1 0.276288 0.131718 0.219406
587 1 0.32624 0.17894 0.221282
784 1 0.322794 0.129162 0.269495
831 1 0.361979 0.176584 0.276118
548 1 0.367153 0.135378 0.221681
591 1 0.407504 0.179218 0.22571
788 1 0.406006 0.127073 0.2697
552 1 0.450801 0.129256 0.22642
835 1 0.4592 0.177886 0.265692
595 1 0.503967 0.172143 0.226454
792 1 0.501492 0.128871 0.268368
839 1 0.549306 0.184031 0.265397
556 1 0.548395 0.133041 0.227777
599 1 0.585811 0.183309 0.219518
796 1 0.586147 0.133485 0.26703
560 1 0.633607 0.140055 0.223548
843 1 0.639589 0.184487 0.270812
603 1 0.681142 0.181345 0.220208
800 1 0.675386 0.143148 0.271229
847 1 0.72164 0.180144 0.269743
564 1 0.723453 0.137182 0.224526
607 1 0.774821 0.179353 0.226213
804 1 0.767267 0.135994 0.269872
851 1 0.808625 0.181967 0.273521
568 1 0.818834 0.137991 0.233876
611 1 0.865359 0.182506 0.22795
808 1 0.862112 0.133581 0.279768
855 1 0.907148 0.179086 0.270118
572 1 0.913429 0.142988 0.224697
615 1 0.953803 0.184056 0.232055
812 1 0.958948 0.136961 0.270229
619 1 0.0429118 0.272103 0.229499
816 1 0.0453491 0.226758 0.273743
580 1 0.0867344 0.219409 0.231303
863 1 0.0906599 0.274598 0.265828
859 1 0.00600168 0.267307 0.272716
623 1 0.135517 0.264183 0.227779
820 1 0.131716 0.216157 0.273541
867 1 0.181508 0.270923 0.271524
584 1 0.18268 0.224407 0.23482
627 1 0.228874 0.273942 0.235013
824 1 0.230534 0.222453 0.268055
588 1 0.276635 0.224053 0.221706
871 1 0.278412 0.273072 0.269802
631 1 0.315695 0.269876 0.226821
828 1 0.315648 0.220868 0.271384
592 1 0.368129 0.225798 0.229872
875 1 0.365124 0.262884 0.277586
635 1 0.407968 0.266944 0.230783
832 1 0.42163 0.22457 0.266411
879 1 0.462308 0.271874 0.268944
596 1 0.460041 0.218 0.218164
639 1 0.504575 0.27173 0.231653
836 1 0.494848 0.220602 0.280998
600 1 0.543944 0.228471 0.224825
883 1 0.551112 0.277828 0.266688
643 1 0.597691 0.274241 0.227145
840 1 0.591538 0.226619 0.268511
887 1 0.637752 0.271114 0.27261
604 1 0.639463 0.230361 0.227788
647 1 0.682851 0.268951 0.221977
844 1 0.677149 0.230034 0.26737
891 1 0.728684 0.276412 0.280728
608 1 0.727318 0.22145 0.2246
651 1 0.782148 0.27622 0.229184
848 1 0.76944 0.226839 0.273259
612 1 0.817158 0.221997 0.221952
895 1 0.821019 0.268441 0.279384
655 1 0.868867 0.265672 0.218598
852 1 0.858759 0.226339 0.270545
899 1 0.906867 0.273313 0.263831
576 1 0.994695 0.227021 0.228185
616 1 0.9129 0.224868 0.218337
659 1 0.960866 0.275136 0.220893
856 1 0.954456 0.235161 0.266154
663 1 0.0393657 0.371341 0.229439
860 1 0.0457925 0.324283 0.270263
624 1 0.0860204 0.314831 0.224042
620 1 0.00307073 0.320465 0.226857
907 1 0.0912652 0.36556 0.273884
667 1 0.150248 0.358252 0.231148
864 1 0.131453 0.312756 0.268582
911 1 0.178782 0.368202 0.283235
628 1 0.186012 0.315246 0.233881
671 1 0.223342 0.362801 0.233141
868 1 0.23183 0.316123 0.27397
632 1 0.274183 0.320446 0.229858
915 1 0.273533 0.360177 0.277759
675 1 0.317837 0.360103 0.22394
872 1 0.314617 0.316955 0.273462
636 1 0.360777 0.316736 0.230779
919 1 0.359077 0.35978 0.277125
679 1 0.409397 0.365563 0.225292
876 1 0.403851 0.312092 0.278982
923 1 0.445784 0.357271 0.27219
684 1 0.454235 0.399444 0.231868
640 1 0.459983 0.31785 0.231509
683 1 0.502434 0.363593 0.22903
880 1 0.499348 0.315856 0.274506
927 1 0.553478 0.360297 0.277698
644 1 0.549117 0.325263 0.229772
687 1 0.593633 0.364904 0.220672
884 1 0.59937 0.323545 0.265291
648 1 0.64067 0.321223 0.222741
931 1 0.639006 0.3696 0.271411
691 1 0.684763 0.367201 0.22625
888 1 0.684236 0.317027 0.270737
652 1 0.727963 0.318218 0.229185
935 1 0.730332 0.364719 0.268031
695 1 0.776863 0.362041 0.223314
892 1 0.780825 0.314454 0.271889
936 1 0.78046 0.399302 0.269418
656 1 0.82287 0.314024 0.226011
939 1 0.821767 0.355286 0.274196
699 1 0.867675 0.359684 0.233484
896 1 0.861732 0.306966 0.270255
660 1 0.911983 0.316968 0.225681
903 1 0.995037 0.359154 0.271842
943 1 0.913527 0.350013 0.276712
703 1 0.958138 0.367609 0.232235
900 1 0.958471 0.311139 0.26938
904 1 0.0381814 0.408305 0.269387
706 1 0.046629 0.453285 0.231005
668 1 0.0906439 0.402016 0.226562
949 1 0.0863347 0.455646 0.27352
3152 1 0.177802 0.494687 0.222332
908 1 0.134626 0.413596 0.276646
708 1 0.130652 0.4611 0.225228
951 1 0.178681 0.46437 0.27806
672 1 0.177737 0.412491 0.230064
3391 1 0.129845 0.495115 0.273944
710 1 0.226281 0.456771 0.227054
912 1 0.221058 0.412675 0.277897
676 1 0.261434 0.40565 0.238476
953 1 0.270515 0.449957 0.274929
3395 1 0.321511 0.494767 0.275563
916 1 0.314053 0.40302 0.270879
712 1 0.311255 0.456473 0.233439
680 1 0.359939 0.411213 0.231088
955 1 0.363626 0.453223 0.272047
3154 1 0.275691 0.498279 0.228979
3158 1 0.446128 0.497836 0.231047
3397 1 0.407565 0.491685 0.279812
920 1 0.411413 0.414013 0.275772
714 1 0.412626 0.452813 0.230175
957 1 0.452525 0.453618 0.270762
924 1 0.49557 0.404829 0.272876
716 1 0.496696 0.454611 0.232553
688 1 0.549148 0.404058 0.224699
959 1 0.559695 0.448723 0.269938
718 1 0.59616 0.44711 0.220142
928 1 0.592434 0.402018 0.272117
3162 1 0.6349 0.496993 0.217693
3403 1 0.682372 0.495566 0.266924
961 1 0.638992 0.447535 0.271208
692 1 0.638375 0.402434 0.224407
932 1 0.689345 0.40354 0.272029
720 1 0.675652 0.44732 0.221789
696 1 0.725449 0.403611 0.222139
3164 1 0.728469 0.492461 0.228485
3405 1 0.770097 0.49653 0.27832
963 1 0.73715 0.442617 0.266065
722 1 0.779163 0.455437 0.227751
965 1 0.816274 0.456106 0.26873
3407 1 0.865645 0.499164 0.268219
700 1 0.820987 0.409039 0.224445
940 1 0.866963 0.411188 0.273587
724 1 0.859106 0.453762 0.231887
3168 1 0.905008 0.496031 0.221433
664 1 0.995338 0.417371 0.227907
967 1 0.916714 0.453037 0.267929
704 1 0.909892 0.410003 0.226315
947 1 0.990988 0.459185 0.275372
726 1 0.957186 0.461657 0.223634
944 1 0.953102 0.40738 0.273897
773 1 0.0461628 0.0804206 0.324775
970 1 0.0472221 0.0411162 0.368939
730 1 0.00969302 0.034831 0.322571
1017 1 0.0930488 0.080858 0.365191
734 1 0.0964512 0.040769 0.32036
974 1 0.134119 0.0417918 0.367988
777 1 0.136436 0.0888734 0.320006
1021 1 0.181325 0.0923359 0.363757
737 1 0.234559 0.00535753 0.319285
977 1 0.182242 0.00462111 0.359305
738 1 0.182209 0.0568685 0.319933
781 1 0.233708 0.0898345 0.312506
978 1 0.22861 0.0479673 0.372602
742 1 0.277128 0.0424812 0.314389
1025 1 0.276075 0.0988552 0.363899
982 1 0.329411 0.04246 0.360365
785 1 0.318789 0.087191 0.317025
981 1 0.273542 0.00480233 0.36197
741 1 0.324998 0.00620792 0.317034
746 1 0.364593 0.044136 0.308283
1029 1 0.365098 0.0879112 0.350758
986 1 0.407732 0.0486954 0.35866
789 1 0.415357 0.0885801 0.313566
745 1 0.401555 0.00031289 0.31038
989 1 0.455221 4.7572e-05 0.357627
750 1 0.46002 0.0449847 0.317371
1033 1 0.458328 0.0871383 0.362918
793 1 0.503627 0.0917169 0.311135
990 1 0.502561 0.0401304 0.363587
754 1 0.540629 0.0398357 0.314564
1037 1 0.543364 0.0798592 0.357871
753 1 0.585988 0.000409927 0.318114
994 1 0.58851 0.0418565 0.361688
797 1 0.595852 0.0838814 0.321294
1041 1 0.62307 0.0958147 0.37396
758 1 0.63357 0.0391633 0.312912
998 1 0.683056 0.0356265 0.362963
801 1 0.68495 0.0791418 0.314568
1045 1 0.725467 0.0898361 0.367594
757 1 0.68818 0.0143787 0.310678
762 1 0.729826 0.045364 0.325179
1002 1 0.777381 0.0509582 0.365489
805 1 0.774349 0.0937549 0.317459
1003 1 0.779736 0.00103183 0.398025
766 1 0.8295 0.0462981 0.313981
1049 1 0.823629 0.0930164 0.36129
809 1 0.872335 0.0858138 0.30723
1006 1 0.866734 0.0431167 0.365045
1008 1 0.824085 0.0445288 0.399321
1013 1 0.999059 0.0933877 0.362063
770 1 0.909369 0.0427806 0.317024
1053 1 0.911999 0.0866202 0.356599
1010 1 0.962352 0.0464365 0.355015
813 1 0.962739 0.0900215 0.310685
1009 1 0.91506 0.00511996 0.366533
817 1 0.043036 0.182278 0.313688
1014 1 0.0442301 0.138679 0.367299
778 1 0.0845007 0.135263 0.318933
1057 1 0.000527807 0.186883 0.359042
1061 1 0.0909522 0.177148 0.370079
821 1 0.140156 0.177606 0.31545
1018 1 0.136164 0.132715 0.35771
1065 1 0.181175 0.177896 0.367651
782 1 0.182392 0.129966 0.318578
825 1 0.226506 0.178186 0.315881
1022 1 0.223795 0.132333 0.357692
1069 1 0.270026 0.175327 0.355113
786 1 0.27414 0.132124 0.311284
829 1 0.329554 0.178007 0.323762
1026 1 0.329973 0.132339 0.365871
790 1 0.361324 0.127582 0.31243
1073 1 0.367064 0.178244 0.367656
833 1 0.412702 0.17564 0.310038
1030 1 0.409594 0.129757 0.357141
1077 1 0.453883 0.17473 0.356258
794 1 0.454661 0.128426 0.31457
837 1 0.499531 0.168927 0.31358
1034 1 0.500855 0.134327 0.363268
1081 1 0.535055 0.185779 0.364481
798 1 0.550889 0.130855 0.316374
841 1 0.589998 0.181125 0.313366
1038 1 0.581436 0.138183 0.368311
1085 1 0.631583 0.1785 0.366706
802 1 0.627856 0.138957 0.317909
845 1 0.679147 0.17891 0.321348
1042 1 0.674753 0.125765 0.360786
806 1 0.724287 0.12986 0.316821
1089 1 0.72988 0.180422 0.360642
849 1 0.769635 0.185949 0.315792
1046 1 0.775134 0.140436 0.365431
1093 1 0.817696 0.18116 0.360873
810 1 0.8113 0.135952 0.316164
853 1 0.860653 0.183246 0.313938
1050 1 0.868764 0.140594 0.351355
1097 1 0.907502 0.189436 0.348968
814 1 0.912857 0.131847 0.312693
774 1 0.999593 0.141057 0.317413
857 1 0.955962 0.180116 0.305071
1054 1 0.949948 0.150598 0.35533
861 1 0.0495199 0.268482 0.317109
1058 1 0.0496041 0.225748 0.36123
822 1 0.0890487 0.226564 0.315561
1101 1 0.00232504 0.270882 0.354303
1105 1 0.0949893 0.266871 0.363347
865 1 0.134574 0.261467 0.323417
1062 1 0.134249 0.222897 0.366937
826 1 0.181628 0.225046 0.309065
1109 1 0.189599 0.274623 0.363058
869 1 0.219701 0.271576 0.311635
1066 1 0.224162 0.229026 0.359579
830 1 0.266822 0.220791 0.315252
1113 1 0.270368 0.264112 0.355921
873 1 0.322788 0.263651 0.321068