ITEM: TIMESTEP
5000
ITEM: NUMBER OF ATOMS
500
ITEM: BOX BOUNDS pp pp pp
0.0000000000000000e+00 2.6299999999999997e+01
0.0000000000000000e+00 2.6299999999999997e+01
0.0000000000000000e+00 2.6299999999999997e+01
ITEM: ATOMS id type xs ys zs
23 1 0.107288 0.201099 0.120509
52 1 0.0889677 0.0986523 0.202244
4 1 0.00577648 0.0837847 0.087405
2 1 0.108758 0.0986853 0.00783166
51 1 0.00176628 0.00476171 0.195366
25 1 0.198021 0.197062 0.0200674
21 1 0.0108127 0.181787 0.000249436
8 1 0.214668 0.0955248 0.122987
75 1 0.202299 0.197411 0.209765
27 1 0.304434 0.19932 0.120384
56 1 0.310523 0.111009 0.224009
12 1 0.380441 0.0974233 0.0999512
59 1 0.390667 0.00194276 0.203761
29 1 0.38998 0.188401 0.00344503
63 1 0.586921 0.00295752 0.220483
79 1 0.415412 0.182234 0.208535
31 1 0.490568 0.177968 0.0996313
60 1 0.491496 0.0771703 0.194963
83 1 0.582478 0.171989 0.202521
16 1 0.599615 0.0778889 0.114959
35 1 0.701929 0.188545 0.0912086
64 1 0.700113 0.0732337 0.22325
20 1 0.795244 0.0814112 0.103512
33 1 0.607145 0.187386 0.00435856
87 1 0.802263 0.173937 0.202122
71 1 0.994984 0.200512 0.203354
39 1 0.895104 0.161615 0.102232
68 1 0.898864 0.0802872 0.207134
37 1 0.803575 0.187019 0.00537894
41 1 0.0176869 0.40953 0.00639862
252 1 0.0119185 0.488195 0.10017
42 1 0.113854 0.385996 0.119437
72 1 0.103474 0.284044 0.212817
301 1 0.0973395 0.495282 0.20296
24 1 0.0203405 0.29343 0.101571
91 1 0.00885466 0.396847 0.207996
93 1 0.21013 0.401446 0.193759
28 1 0.212096 0.291916 0.108162
44 1 0.294126 0.417695 0.101107
76 1 0.303367 0.321009 0.203578
26 1 0.317409 0.302968 0.0219796
43 1 0.206037 0.418677 0.00551638
305 1 0.499075 0.491815 0.196733
32 1 0.416906 0.278911 0.103106
95 1 0.405069 0.40429 0.170113
46 1 0.515726 0.383271 0.103485
80 1 0.494913 0.307271 0.196368
36 1 0.597011 0.268316 0.104019
45 1 0.404614 0.399237 0.0124449
48 1 0.68798 0.4007 0.0830081
84 1 0.686934 0.296953 0.193562
97 1 0.607558 0.42383 0.186001
40 1 0.779248 0.29658 0.0851233
99 1 0.788212 0.393236 0.168953
260 1 0.784113 0.497737 0.0685182
34 1 0.679253 0.295521 0.00737148
309 1 0.905659 0.480089 0.156607
50 1 0.89009 0.385467 0.0692864
88 1 0.884713 0.293185 0.181463
38 1 0.904934 0.273242 0.00195518
53 1 0.0941234 0.0151169 0.296275
73 1 0.10395 0.185556 0.288837
102 1 0.0952881 0.103849 0.399524
54 1 0.00331124 0.0998924 0.307431
136 1 0.0949764 0.207437 0.481585
58 1 0.200047 0.0962939 0.297606
113 1 0.204038 0.209091 0.391226
77 1 0.302055 0.193594 0.307715
104 1 0.30725 0.0940544 0.412287
115 1 0.397684 0.214152 0.401642
57 1 0.295663 0.0108529 0.305829
138 1 0.305213 0.199935 0.488198
62 1 0.420024 0.10529 0.320559
81 1 0.502984 0.2158 0.306647
106 1 0.505143 0.103641 0.416863
66 1 0.586557 0.108483 0.312807
130 1 0.503504 0.00130044 0.494793
117 1 0.608488 0.221651 0.418343
85 1 0.708514 0.186191 0.311792
108 1 0.683801 0.0948946 0.416019
119 1 0.792173 0.207864 0.406842
70 1 0.796996 0.0931692 0.332419
135 1 0.799165 0.0978358 0.498774
111 1 0.988794 0.201521 0.38349
110 1 0.898908 0.0950138 0.409418
89 1 0.89148 0.20804 0.297251
127 1 0.991091 0.105411 0.494117
351 1 0.106317 0.497225 0.396842
302 1 0.00366227 0.49358 0.311861
121 1 0.0015467 0.396071 0.417688
92 1 0.107323 0.401853 0.299296
112 1 0.103389 0.304518 0.389286
304 1 0.198224 0.496147 0.299453
146 1 0.133456 0.396589 0.490544
147 1 0.294112 0.430358 0.495341
139 1 0.208336 0.291708 0.493335
94 1 0.300707 0.410886 0.295228
82 1 0.395001 0.298697 0.300446
78 1 0.21663 0.305645 0.300483
122 1 0.210418 0.391013 0.389404
114 1 0.300277 0.29544 0.400004
306 1 0.419562 0.496193 0.310272
123 1 0.40887 0.395693 0.393075
124 1 0.58977 0.400749 0.391801
96 1 0.509051 0.402916 0.285339
116 1 0.497261 0.310875 0.390887
141 1 0.407808 0.312179 0.484218
308 1 0.602439 0.494898 0.297183
86 1 0.619694 0.291289 0.297226
90 1 0.794518 0.290033 0.28848
118 1 0.706896 0.339231 0.395527
98 1 0.699871 0.40504 0.293394
125 1 0.809883 0.410977 0.386097
120 1 0.891328 0.300301 0.382505
100 1 0.894141 0.409211 0.293153
74 1 0.979347 0.292963 0.294252
137 1 0.993806 0.285781 0.470525
150 1 0.878679 0.409434 0.498581
152 1 0.0904755 0.113265 0.609892
173 1 0.0912914 0.207834 0.715063
153 1 0.098374 0.0205984 0.704612
126 1 0.112686 0.00254452 0.502429
151 1 0.000716336 0.003971 0.602079
158 1 0.20362 0.123424 0.693931
175 1 0.203985 0.222421 0.612844
156 1 0.300336 0.129982 0.59893
177 1 0.299547 0.199926 0.706986
162 1 0.3893 0.113576 0.698901
179 1 0.398101 0.224895 0.586913
129 1 0.201377 0.11652 0.50185
157 1 0.310532 0.00819644 0.693308
155 1 0.203128 0.0122029 0.615014
159 1 0.395208 0.0141536 0.599621
128 1 0.294296 0.00390881 0.510107
160 1 0.500237 0.105318 0.604007
181 1 0.48663 0.214743 0.696622
166 1 0.596095 0.0804629 0.703011
183 1 0.580713 0.219019 0.607604
163 1 0.571478 0.00460256 0.599635
133 1 0.591837 0.114469 0.514453
140 1 0.490117 0.222324 0.508594
131 1 0.403753 0.111488 0.501537
142 1 0.690882 0.196288 0.506003
164 1 0.699649 0.107211 0.610282
185 1 0.718104 0.201933 0.706044
187 1 0.790426 0.210779 0.600239
167 1 0.793058 0.002276 0.609088
165 1 0.702831 0.00503736 0.701747
154 1 0.977169 0.117162 0.701043
170 1 0.805923 0.0987325 0.725755
169 1 0.891269 0.00221643 0.678229
171 1 0.981511 0.211892 0.599913
168 1 0.895224 0.120351 0.606321
189 1 0.897557 0.219647 0.707875
144 1 0.891861 0.20941 0.502712
172 1 0.0807857 0.282863 0.58103
192 1 0.104189 0.416591 0.706281
178 1 0.175352 0.312729 0.707562
174 1 0.013476 0.309482 0.691323
191 1 0.00701799 0.407666 0.590267
401 1 0.109776 0.498744 0.581456
376 1 0.00450702 0.499558 0.500596
193 1 0.210587 0.392366 0.603977
176 1 0.300975 0.304244 0.590089
194 1 0.303928 0.40778 0.701128
195 1 0.381118 0.408919 0.597005
182 1 0.38939 0.309009 0.693895
180 1 0.490705 0.326791 0.593087
196 1 0.49192 0.399617 0.700102
186 1 0.594951 0.314883 0.721607
148 1 0.500089 0.432842 0.501752
143 1 0.601536 0.321319 0.503205
197 1 0.600233 0.401808 0.621031
184 1 0.682735 0.289312 0.627477
198 1 0.689216 0.402877 0.718014
145 1 0.778477 0.312005 0.501127
199 1 0.786264 0.39964 0.609759
190 1 0.798118 0.310297 0.697006
149 1 0.691307 0.428089 0.507805
188 1 0.894668 0.314613 0.58895
200 1 0.883992 0.404051 0.696734
402 1 0.984942 0.495496 0.692138
202 1 0.107431 0.115017 0.807455
223 1 0.11459 0.185233 0.92246
225 1 0.19664 0.203856 0.805182
204 1 0.0101697 0.088028 0.900243
205 1 0.210388 0.0175169 0.781225
208 1 0.210078 0.0975797 0.90178
206 1 0.293127 0.118779 0.812045
227 1 0.300902 0.223724 0.919187
212 1 0.397788 0.1133 0.899958
229 1 0.386175 0.220766 0.813353
207 1 0.296815 0.000713221 0.89097
6 1 0.30836 0.087161 0.987078
209 1 0.401947 0.0102483 0.79875
210 1 0.488393 0.112003 0.785803
231 1 0.499471 0.202458 0.900754
233 1 0.597011 0.198408 0.793784
10 1 0.494897 0.106423 0.990972
216 1 0.600943 0.0902825 0.898134
214 1 0.686171 0.105044 0.795559
235 1 0.705409 0.205762 0.923377
220 1 0.798675 0.0982422 0.89184
14 1 0.702822 0.0823506 0.997156
221 1 0.988743 0.214165 0.817043
237 1 0.811089 0.190749 0.806441
239 1 0.901531 0.178698 0.908291
218 1 0.922293 0.0579853 0.810936
18 1 0.892717 0.0850076 0.987384
452 1 0.00339754 0.475906 0.905844
242 1 0.100813 0.387117 0.877306
222 1 0.0918324 0.294906 0.795555
451 1 0.11265 0.493509 0.804694
22 1 0.101918 0.299085 0.982248
228 1 0.20031 0.290815 0.894604
243 1 0.212317 0.405818 0.807455
245 1 0.393918 0.384817 0.79571
244 1 0.31465 0.378776 0.915328
226 1 0.283299 0.305141 0.802731
253 1 0.319045 0.491502 0.992894
455 1 0.485189 0.495342 0.793428
230 1 0.498302 0.282444 0.809664
246 1 0.50614 0.379529 0.888333
232 1 0.411908 0.300087 0.917883
247 1 0.579727 0.420945 0.795009
30 1 0.52902 0.295531 0.99819
458 1 0.58278 0.495707 0.901689
47 1 0.590278 0.394855 0.985595
249 1 0.784893 0.421307 0.809814
257 1 0.687149 0.498062 0.976411
248 1 0.683704 0.402883 0.879985
234 1 0.704612 0.31 0.805101
236 1 0.614149 0.285225 0.885227
49 1 0.782028 0.391831 0.996829
241 1 0.979014 0.377701 0.806835
224 1 0.990611 0.305406 0.916436
250 1 0.895702 0.396266 0.903999
459 1 0.903601 0.492065 0.795276
238 1 0.876652 0.312587 0.795281
240 1 0.818119 0.292596 0.913041
263 1 0.0975891 0.584948 0.101058
312 1 0.100024 0.678968 0.20555
268 1 0.194067 0.689352 0.0922024
264 1 0.00113703 0.702703 0.0947159
262 1 0.0964572 0.7067 0.00920062
315 1 0.211175 0.588235 0.203635
267 1 0.32538 0.60312 0.0972647
316 1 0.296305 0.698441 0.188825
254 1 0.206365 0.501012 0.113217
303 1 0.31246 0.504146 0.193062
272 1 0.406772 0.710523 0.0932831
319 1 0.421064 0.60357 0.215349
271 1 0.503393 0.599752 0.104179
320 1 0.501333 0.702363 0.184612
323 1 0.592415 0.597101 0.209096
256 1 0.411501 0.504938 0.093742
269 1 0.409708 0.60879 0.000907151
270 1 0.50025 0.691026 0.010347
255 1 0.491494 0.509023 0.000797911
258 1 0.616292 0.509834 0.0894842
307 1 0.699643 0.51778 0.199079
275 1 0.704712 0.607148 0.112418
276 1 0.6076 0.689992 0.108191
324 1 0.723944 0.695978 0.210772
274 1 0.697431 0.70387 0.00410526
327 1 0.812336 0.572472 0.182673
311 1 0.995528 0.591131 0.214117
280 1 0.816982 0.701597 0.106956
279 1 0.896317 0.593771 0.0870793
328 1 0.911433 0.684746 0.191235
283 1 0.0950707 0.812425 0.0922452
332 1 0.0987012 0.906523 0.208538
335 1 0.174008 0.800782 0.206776
284 1 0.00736666 0.900117 0.102853
331 1 0.00388681 0.784544 0.191733
3 1 0.12133 0.986646 0.100457
288 1 0.203917 0.880184 0.0952568
287 1 0.294234 0.802717 0.102441
336 1 0.295004 0.903781 0.207062
9 1 0.393742 0.997816 0.0121124
292 1 0.390901 0.897819 0.110244
55 1 0.214544 0.991047 0.197655
7 1 0.293058 0.991067 0.0998259
285 1 0.203004 0.793613 0.00480528
286 1 0.314706 0.899452 0.000994367
339 1 0.407245 0.80196 0.204535
291 1 0.510421 0.797254 0.0887818
340 1 0.496674 0.901665 0.207069
296 1 0.589043 0.902636 0.109814
343 1 0.592352 0.813889 0.203975
11 1 0.49075 0.988496 0.10607
290 1 0.510269 0.900517 0.00493003
17 1 0.788337 0.982259 0.012649
295 1 0.68519 0.794292 0.111457
344 1 0.70829 0.883304 0.205131
300 1 0.797211 0.890851 0.106958
15 1 0.700581 0.980898 0.116075
67 1 0.809119 0.98264 0.195053
347 1 0.801807 0.801527 0.195016
299 1 0.908851 0.811701 0.105173
348 1 0.898818 0.886698 0.198398
1 1 0.996598 0.985974 0.00525341
19 1 0.898757 0.975234 0.0999492
298 1 0.910139 0.887601 0.00190441
297 1 0.804271 0.783557 0.0017478
313 1 0.10768 0.598987 0.30436
357 1 0.0955082 0.684587 0.400966
356 1 0.00281214 0.601019 0.404738
314 1 0.013607 0.70359 0.297811
358 1 0.205937 0.607293 0.392532
318 1 0.20206 0.692739 0.304519
317 1 0.315511 0.608732 0.28136
359 1 0.310035 0.719848 0.401276
360 1 0.396363 0.610686 0.404388
352 1 0.302359 0.512157 0.390655
377 1 0.206731 0.51541 0.482992
384 1 0.216961 0.706598 0.491351
322 1 0.400206 0.704118 0.303182
321 1 0.507531 0.610404 0.304016
361 1 0.500239 0.722583 0.417039
362 1 0.593085 0.596545 0.396183
353 1 0.50771 0.509396 0.40442
354 1 0.695594 0.50753 0.391334
326 1 0.608538 0.700148 0.286446
325 1 0.692786 0.600079 0.311126
363 1 0.700638 0.6946 0.408682
330 1 0.798376 0.694907 0.310071
310 1 0.798575 0.504017 0.284516
380 1 0.794393 0.512448 0.488035
387 1 0.690309 0.601756 0.49132
364 1 0.803192 0.608197 0.402298
365 1 0.906726 0.695844 0.371189
329 1 0.902477 0.594948 0.293121
355 1 0.905282 0.511124 0.411058
333 1 0.0963659 0.801965 0.303404
366 1 0.00400569 0.804389 0.413007
368 1 0.188982 0.793187 0.398966
367 1 0.0965526 0.914066 0.400929
103 1 0.205078 0.994456 0.411444
105 1 0.39466 0.991228 0.402698
370 1 0.398199 0.831814 0.411488
338 1 0.203053 0.906733 0.295714
337 1 0.301764 0.791205 0.285208
369 1 0.28877 0.89739 0.425814
342 1 0.383031 0.898969 0.291668
61 1 0.486757 0.98562 0.305178
341 1 0.50561 0.801967 0.29519
371 1 0.513006 0.891979 0.392103
346 1 0.599725 0.886441 0.305763
107 1 0.598558 0.99655 0.388933
373 1 0.70417 0.903494 0.409405
372 1 0.605219 0.790422 0.394607
345 1 0.707478 0.790136 0.304325
374 1 0.790863 0.789889 0.400082
65 1 0.699377 0.985027 0.308195
398 1 0.602443 0.89359 0.496064
397 1 0.689366 0.784803 0.493078
334 1 0.997061 0.903548 0.296163
101 1 0.992127 0.994733 0.400714
375 1 0.909779 0.88506 0.395972
349 1 0.888213 0.798816 0.288233
350 1 0.801485 0.884014 0.30247
69 1 0.887971 0.980007 0.302521
399 1 0.893946 0.803873 0.495522
400 1 0.803813 0.887999 0.485732
109 1 0.817939 0.987196 0.403808
412 1 0.0980507 0.701647 0.584936
413 1 0.0868089 0.591761 0.690589
418 1 0.194528 0.690248 0.701293
415 1 0.192939 0.60024 0.601278
414 1 0.00437269 0.716704 0.688491
404 1 0.192394 0.501195 0.705317
381 1 0.102014 0.597003 0.505888
416 1 0.30153 0.698145 0.613411
417 1 0.288195 0.604097 0.702429
422 1 0.385345 0.696418 0.717586
403 1 0.298163 0.516006 0.606251
406 1 0.392482 0.504493 0.689335
386 1 0.393611 0.708617 0.503451
383 1 0.308024 0.607916 0.502185
419 1 0.407453 0.613769 0.600819
420 1 0.497941 0.688541 0.616995
421 1 0.495977 0.597001 0.711829
423 1 0.59511 0.608634 0.610243
379 1 0.590487 0.517045 0.513225
405 1 0.495334 0.521203 0.603848
408 1 0.585377 0.506246 0.695288
388 1 0.591843 0.698005 0.512824
378 1 0.404986 0.516456 0.500175
385 1 0.493806 0.613745 0.506567
426 1 0.603162 0.695856 0.70706
424 1 0.704703 0.690648 0.599784
425 1 0.69751 0.596294 0.689304
410 1 0.795944 0.505902 0.700034
407 1 0.699201 0.509075 0.597847
427 1 0.808292 0.590328 0.599971
430 1 0.803999 0.685224 0.703412
411 1 0.993579 0.611191 0.600424
428 1 0.889829 0.70726 0.600496
429 1 0.904143 0.598196 0.705269
409 1 0.893624 0.503047 0.596798
382 1 0.986552 0.700986 0.500842
390 1 0.803947 0.691984 0.500373
389 1 0.907454 0.602912 0.506807
432 1 0.109653 0.896434 0.610506
433 1 0.0969084 0.800711 0.693482
438 1 0.192674 0.916512 0.702795
431 1 0.00304431 0.816152 0.595621
391 1 0.097072 0.810476 0.501553
394 1 0.196387 0.896469 0.508314
392 1 0.00481244 0.914814 0.513275
435 1 0.20205 0.788652 0.602703
436 1 0.296414 0.888028 0.612943
437 1 0.286292 0.799562 0.699619
442 1 0.388193 0.899844 0.69654
396 1 0.393857 0.91472 0.505383
393 1 0.30182 0.800807 0.521663
439 1 0.403684 0.79338 0.61927
161 1 0.494258 0.999237 0.697012
440 1 0.514992 0.895767 0.604917
441 1 0.513794 0.801827 0.705992
395 1 0.491974 0.817238 0.516362
446 1 0.61113 0.900898 0.698368
443 1 0.607368 0.811653 0.601291
444 1 0.69923 0.887963 0.58681
445 1 0.706174 0.797258 0.699328
450 1 0.798012 0.899338 0.690824
447 1 0.798164 0.794111 0.595081
132 1 0.705142 0.998082 0.517993
134 1 0.903615 0.998163 0.512094
434 1 0.994511 0.903005 0.684524
448 1 0.881644 0.892586 0.588225
449 1 0.900186 0.792602 0.700347
261 1 0.00524961 0.596693 0.992212
462 1 0.0832456 0.699312 0.786872
463 1 0.0922885 0.590806 0.899401
468 1 0.181142 0.695398 0.896522
461 1 0.00456294 0.577221 0.806178
464 1 0.00131926 0.695358 0.888477
251 1 0.116016 0.503165 0.99339
265 1 0.202013 0.607609 0.993226
456 1 0.394841 0.503482 0.882523
465 1 0.203113 0.606357 0.798082
466 1 0.295749 0.695996 0.818337
467 1 0.316982 0.597702 0.898169
472 1 0.399094 0.705388 0.897352
453 1 0.300697 0.50695 0.783076
454 1 0.206544 0.51837 0.89638
266 1 0.306432 0.703816 0.990174
469 1 0.401902 0.603584 0.801678
470 1 0.494823 0.694661 0.800367
471 1 0.491996 0.601524 0.890016
473 1 0.590649 0.600439 0.795262
457 1 0.674653 0.504509 0.811861
476 1 0.61369 0.708636 0.895239
474 1 0.696521 0.710891 0.796194
475 1 0.701306 0.607734 0.889614
277 1 0.796577 0.621379 0.997126
273 1 0.608539 0.592658 0.98048
460 1 0.807752 0.522902 0.903868
278 1 0.914556 0.690115 0.99075
477 1 0.805217 0.605235 0.803345
480 1 0.806597 0.707502 0.885983
478 1 0.916985 0.70076 0.790756
479 1 0.918856 0.606114 0.892962
259 1 0.915748 0.503558 0.992522
201 1 0.0257464 0.976351 0.79855
203 1 0.117935 0.996875 0.872339
484 1 0.00823011 0.897308 0.89112
483 1 0.0993597 0.803767 0.891469
482 1 0.122542 0.888173 0.799007
481 1 0.00804942 0.8123 0.799943
281 1 0.00940941 0.800146 0.978104
282 1 0.107802 0.899244 0.986375
492 1 0.385256 0.894812 0.880958
488 1 0.215939 0.892495 0.903
5 1 0.208391 0.998077 0.997476
489 1 0.389805 0.799318 0.79227
486 1 0.297931 0.913524 0.794632
487 1 0.292365 0.794861 0.903081
485 1 0.204413 0.789762 0.79564
213 1 0.590826 0.996282 0.792953
211 1 0.478278 0.988784 0.903754
491 1 0.488156 0.806616 0.883947
490 1 0.487871 0.897722 0.795481
13 1 0.596433 0.985767 0.976684
293 1 0.593131 0.799304 0.985288
289 1 0.401838 0.798427 0.99491
500 1 0.799096 0.885447 0.919183
215 1 0.713543 0.99992 0.902781
493 1 0.604099 0.802229 0.793185
494 1 0.70578 0.912771 0.790256
495 1 0.700961 0.796614 0.884952
496 1 0.606801 0.899465 0.884752
294 1 0.68586 0.88755 0.99333
498 1 0.908742 0.892221 0.786475
499 1 0.900613 0.816297 0.890748
497 1 0.811322 0.812373 0.789071
219 1 0.906455 0.962611 0.899502
217 1 0.819546 0.996299 0.801061
