ITEM: TIMESTEP
6500
ITEM: NUMBER OF ATOMS
6912
ITEM: BOX BOUNDS pp pp pp
0.0000000000000000e+00 6.3119999999999997e+01
0.0000000000000000e+00 6.3119999999999997e+01
0.0000000000000000e+00 6.3119999999999997e+01
ITEM: ATOMS id type xs ys zs
51 1 0.0423489 0.082995 0.038703
290 1 0.0414659 0.0389751 0.0816287
4629 1 0.417792 0.497515 0.330735
8 1 0.0826463 0.0349227 0.03078
294 1 0.116278 0.0398178 0.0821609
1733 1 0.0861031 0.00241923 0.497727
12 1 0.158182 0.0460151 0.0340889
59 1 0.2081 0.087092 0.0421293
4941 1 0.92506 0.49597 0.414345
141 1 0.915456 0.160275 0.00839912
137 1 0.835085 0.152943 0.00990986
16 1 0.249613 0.0428025 0.038979
1684 1 0.00320312 0.469305 0.453059
225 1 0.668736 0.334302 0.00489572
1902 1 0.620501 0.282684 0.493198
20 1 0.338164 0.0414937 0.0472108
3471 1 0.295233 0.493214 0.0338688
24 1 0.417868 0.0452 0.0388195
310 1 0.450909 0.0463294 0.0816808
1728 1 0.918521 0.464511 0.462125
153 1 0.167688 0.239677 0.00341118
4933 1 0.755487 0.496014 0.410707
28 1 0.486904 0.0459335 0.0445526
77 1 0.58227 0.0846872 0.00923776
4061 1 0.586919 0.49329 0.16039
603 1 0.540732 0.00520636 0.203895
32 1 0.579838 0.0439348 0.0481437
36 1 0.666205 0.0369799 0.0437684
79 1 0.631313 0.0890323 0.0446527
318 1 0.619946 0.0376353 0.0862575
1722 1 0.880499 0.463049 0.416945
83 1 0.708162 0.0852604 0.0490552
40 1 0.742353 0.0451672 0.0395826
322 1 0.705092 0.040794 0.088423
4655 1 0.962559 0.499055 0.37054
607 1 0.624233 0.00404196 0.206224
377 1 0.825801 0.0773579 0.0852077
326 1 0.783524 0.0390012 0.0863179
1993 1 0.506734 0.410717 0.499586
44 1 0.834637 0.0412366 0.0482081
330 1 0.871645 0.0397782 0.0832867
48 1 0.912424 0.0326235 0.0391442
4907 1 0.212056 0.49856 0.468214
1445 1 0.0883153 0.00130215 0.414304
4 1 0.99825 0.0413199 0.0465475
334 1 0.949687 0.0344075 0.0761022
95 1 0.953757 0.081648 0.0504351
337 1 0.99904 0.0806612 0.0808542
56 1 0.0792085 0.121078 0.0446722
99 1 0.0387307 0.172526 0.0426369
42 1 0.872795 0.0315267 0.0042703
55 1 0.119156 0.0830399 0.0461151
103 1 0.116473 0.163925 0.0394964
1173 1 0.417771 0.00688769 0.3363
342 1 0.118681 0.127587 0.0823823
393 1 0.1645 0.163999 0.0848178
60 1 0.158145 0.119862 0.0342643
107 1 0.201328 0.156074 0.0381312
346 1 0.210189 0.123328 0.0827528
63 1 0.291639 0.0859125 0.0515992
64 1 0.251249 0.128586 0.0434114
111 1 0.293708 0.170575 0.0551872
605 1 0.577558 0.00220538 0.167235
865 1 0.998082 0.00370532 0.253621
68 1 0.332444 0.129788 0.0430814
67 1 0.378644 0.0904572 0.0398324
115 1 0.375093 0.167927 0.0345936
401 1 0.344997 0.170825 0.0915827
354 1 0.379394 0.126298 0.0765349
72 1 0.41617 0.126504 0.0364637
71 1 0.454984 0.0941111 0.0455571
76 1 0.496539 0.126971 0.0368478
357 1 0.410134 0.0836295 0.0864352
2001 1 0.662019 0.416078 0.497127
1781 1 0.0833748 0.0826523 0.498165
75 1 0.537053 0.0912639 0.0393385
62 1 0.292755 0.125249 0.00166036
323 1 0.702229 9.85091e-05 0.124335
409 1 0.499355 0.168178 0.080744
362 1 0.541914 0.127023 0.0808594
80 1 0.582638 0.122656 0.0434839
3777 1 0.666126 0.496119 0.0833141
365 1 0.58793 0.0865667 0.0795295
366 1 0.62137 0.136432 0.0807818
209 1 0.328737 0.330237 0.00201854
84 1 0.670285 0.129638 0.0465
370 1 0.707331 0.12451 0.0859774
88 1 0.744996 0.121904 0.0479448
4903 1 0.123582 0.499257 0.46146
4357 1 0.75209 0.496433 0.256263
87 1 0.781043 0.0844743 0.0405897
92 1 0.83342 0.114329 0.0459126
425 1 0.8273 0.161894 0.083825
3775 1 0.627167 0.492421 0.119314
91 1 0.876485 0.0751836 0.0469008
139 1 0.873219 0.163645 0.0483332
378 1 0.870948 0.120443 0.0831613
4621 1 0.249593 0.498659 0.328908
52 1 0.00645635 0.128035 0.0382336
381 1 0.913208 0.0795894 0.0906047
96 1 0.920033 0.118385 0.0444067
382 1 0.958462 0.121241 0.0835511
385 1 0.00214517 0.167377 0.09205
104 1 0.0804983 0.209324 0.0424531
147 1 0.03768 0.250953 0.0416079
893 1 0.580355 0.00719961 0.247014
386 1 0.0439796 0.214797 0.0844524
390 1 0.121158 0.21028 0.0828713
4909 1 0.249395 0.499114 0.416994
1461 1 0.421263 0.00123108 0.420659
313 1 0.494408 3.31113e-05 0.0856607
108 1 0.163295 0.205333 0.0450711
155 1 0.206983 0.255967 0.0431976
394 1 0.205159 0.212016 0.0787429
445 1 0.244918 0.253971 0.0854508
303 1 0.293876 0.00374359 0.117232
112 1 0.240225 0.204007 0.041823
398 1 0.285087 0.212207 0.0841732
899 1 0.708633 0.00250907 0.290573
116 1 0.336093 0.209955 0.0453453
120 1 0.415163 0.20436 0.0416401
402 1 0.379012 0.211599 0.0857236
163 1 0.382493 0.257171 0.0505038
119 1 0.461662 0.169708 0.0403878
406 1 0.457773 0.20472 0.078984
133 1 0.749172 0.157864 0.00209611
311 1 0.453335 0.00495951 0.122053
123 1 0.53866 0.165955 0.0397103
124 1 0.503043 0.208301 0.0379441
410 1 0.543792 0.21449 0.0742391
611 1 0.704846 0.00237347 0.204527
110 1 0.28439 0.206881 0.00873437
413 1 0.573383 0.171347 0.0793908
127 1 0.626924 0.169066 0.0380497
461 1 0.580592 0.253527 0.0850999
128 1 0.581121 0.20995 0.0364528
414 1 0.619433 0.210344 0.0774404
14 1 0.295136 0.0436152 0.00365426
131 1 0.71015 0.163103 0.0438894
132 1 0.665881 0.204367 0.0419521
421 1 0.753041 0.166735 0.0913001
136 1 0.747778 0.205468 0.0405043
135 1 0.784558 0.162982 0.0455968
422 1 0.790497 0.209664 0.0787198
140 1 0.830999 0.204911 0.0489014
429 1 0.917247 0.163538 0.0842567
426 1 0.865882 0.20656 0.090412
615 1 0.792018 0.00215785 0.208818
4325 1 0.0847632 0.499095 0.248321
329 1 0.83521 0.00127211 0.0875585
143 1 0.961892 0.159691 0.0475933
100 1 0.998545 0.203238 0.0368347
144 1 0.913439 0.20079 0.0468022
152 1 0.0762999 0.294409 0.0338859
3487 1 0.621286 0.499526 0.0332751
151 1 0.123907 0.245084 0.0362134
199 1 0.12524 0.329827 0.0351446
438 1 0.129112 0.29334 0.0728433
4367 1 0.957445 0.497049 0.289793
156 1 0.16671 0.292092 0.0352746
442 1 0.206599 0.292637 0.0783665
489 1 0.167125 0.338843 0.0837015
203 1 0.208509 0.33161 0.0413481
441 1 0.163933 0.249924 0.0828729
897 1 0.665407 0.0119148 0.247254
1841 1 0.332918 0.163137 0.498697
159 1 0.292645 0.249834 0.041731
160 1 0.252315 0.289827 0.0409007
207 1 0.286844 0.3338 0.0470757
29 1 0.583146 0.00744059 0.0105511
81 1 0.662166 0.0858053 0.00374475
164 1 0.333547 0.291968 0.047575
211 1 0.369197 0.338614 0.0458217
168 1 0.422707 0.294972 0.0512566
1475 1 0.710523 0.00585766 0.459602
167 1 0.460344 0.248006 0.0462921
215 1 0.458972 0.334492 0.0416009
454 1 0.467331 0.287484 0.0841408
172 1 0.501414 0.296322 0.0381237
170 1 0.543602 0.291907 0.000503751
171 1 0.540391 0.254592 0.0374097
457 1 0.503349 0.248947 0.0788756
176 1 0.580196 0.296073 0.0451726
505 1 0.508149 0.338339 0.0834108
509 1 0.584861 0.338583 0.0857312
465 1 0.664486 0.249537 0.0801537
175 1 0.624183 0.251342 0.0420242
1189 1 0.754018 0.00406028 0.330019
249 1 0.164491 0.419944 0.00825529
180 1 0.668431 0.288235 0.0425175
179 1 0.70541 0.245142 0.0401369
469 1 0.749518 0.244975 0.0859637
183 1 0.795588 0.24738 0.0388937
184 1 0.747483 0.2835 0.045999
470 1 0.789914 0.292157 0.079631
188 1 0.828183 0.28727 0.0377655
473 1 0.832094 0.25044 0.085566
187 1 0.875881 0.24421 0.0477223
49 1 0.984594 0.0859352 0.00408767
192 1 0.919173 0.297851 0.0350289
474 1 0.868049 0.290069 0.0722912
1861 1 0.753674 0.16032 0.495355
11 1 0.208439 0.00444761 0.0375518
148 1 0.997071 0.292607 0.0398158
191 1 0.964828 0.245306 0.0362163
478 1 0.95963 0.289329 0.0836449
587 1 0.211618 0.0061117 0.206353
195 1 0.0372575 0.331421 0.0412644
200 1 0.0846835 0.370229 0.0352022
243 1 0.0510224 0.416494 0.0276459
482 1 0.0463497 0.382204 0.0809716
89 1 0.834098 0.0749689 0.00893624
4041 1 0.164784 0.496919 0.169226
486 1 0.116385 0.376443 0.0815141
206 1 0.286735 0.370088 0.000288368
204 1 0.161909 0.371473 0.0407664
251 1 0.205063 0.417931 0.0458095
1949 1 0.585664 0.326499 0.49541
208 1 0.250754 0.37034 0.0380071
494 1 0.288921 0.373988 0.0903199
541 1 0.250775 0.422903 0.0821502
65 1 0.33104 0.0811754 0.00841888
501 1 0.416396 0.342018 0.0844012
212 1 0.332507 0.37307 0.0447466
259 1 0.382407 0.415488 0.035229
498 1 0.379513 0.38237 0.0794057
216 1 0.419333 0.377376 0.0402491
263 1 0.458146 0.415511 0.0354587
553 1 0.504848 0.426272 0.079481
90 1 0.880999 0.119376 0.00483244
219 1 0.538859 0.335695 0.0383688
220 1 0.496614 0.372769 0.0402639
506 1 0.542524 0.38183 0.0820845
224 1 0.586549 0.377765 0.0336204
223 1 0.628742 0.331593 0.0465006
228 1 0.674542 0.378201 0.0377149
561 1 0.665843 0.413934 0.0779975
319 1 0.62191 0.000950311 0.124775
227 1 0.711336 0.326332 0.0409608
517 1 0.751304 0.331015 0.0823657
514 1 0.709499 0.377266 0.080537
232 1 0.744837 0.373737 0.0367256
601 1 0.504315 0.00576157 0.168335
4069 1 0.7496 0.497778 0.163152
82 1 0.705778 0.123877 0.00578554
231 1 0.79506 0.338557 0.0422312
518 1 0.797394 0.376343 0.0785201
236 1 0.831599 0.376048 0.0389632
15 1 0.288309 0.00744259 0.0441342
235 1 0.87327 0.331946 0.0410288
240 1 0.912971 0.369377 0.0352429
522 1 0.868741 0.377306 0.0777003
4335 1 0.291956 0.49927 0.28646
239 1 0.959531 0.345651 0.0452026
196 1 0.0070971 0.381772 0.0437164
297 1 0.160492 0.00199991 0.0786863
287 1 0.957346 0.412323 0.0452749
333 1 0.913982 0.000975704 0.0903347
529 1 0.999507 0.418496 0.0921261
244 1 0.00388764 0.448836 0.0438083
1455 1 0.292992 0.00369158 0.458165
1723 1 0.876555 0.420122 0.457613
871 1 0.128324 0.00146246 0.288201
247 1 0.122271 0.416606 0.0456955
248 1 0.0841579 0.461578 0.0414848
534 1 0.126017 0.465414 0.090814
1724 1 0.839971 0.467154 0.46279
252 1 0.168183 0.463257 0.0425916
256 1 0.252328 0.458081 0.0440965
1721 1 0.827599 0.418825 0.412403
545 1 0.33537 0.418962 0.0854734
255 1 0.287917 0.416246 0.0447759
542 1 0.290536 0.461262 0.0826514
1719 1 0.795501 0.426079 0.459638
260 1 0.330772 0.453602 0.0379001
264 1 0.424208 0.455181 0.0428769
546 1 0.376526 0.454343 0.0746239
549 1 0.428098 0.409569 0.0803023
268 1 0.497656 0.462259 0.0401142
1479 1 0.785882 0.00322488 0.460514
1998 1 0.617471 0.454704 0.496822
4653 1 0.922331 0.492234 0.327224
267 1 0.545167 0.413671 0.037381
272 1 0.581478 0.461818 0.0343494
554 1 0.541839 0.464169 0.081601
1718 1 0.792997 0.463843 0.424138
271 1 0.619646 0.420654 0.0325053
593 1 0.332725 0.00336238 0.169578
557 1 0.580042 0.419631 0.0771722
276 1 0.66608 0.460534 0.0471761
903 1 0.795811 0.00212388 0.289953
4353 1 0.670322 0.499474 0.245223
275 1 0.711004 0.42078 0.0427672
280 1 0.749365 0.462938 0.0400755
565 1 0.754208 0.417597 0.0743201
562 1 0.710059 0.460942 0.0786903
279 1 0.796483 0.419772 0.0356633
284 1 0.842217 0.461284 0.0405359
301 1 0.249744 0.00595191 0.079549
5213 1 0.586524 0.499161 0.496095
283 1 0.877441 0.409745 0.0330556
570 1 0.880195 0.456951 0.075481
2002 1 0.708222 0.466698 0.497059
3761 1 0.340044 0.496144 0.0760266
1934 1 0.278448 0.37491 0.488746
1720 1 0.747488 0.458629 0.463886
288 1 0.918385 0.451209 0.0364228
1837 1 0.252349 0.167131 0.496216
578 1 0.034627 0.0324705 0.160427
341 1 0.0790648 0.0819506 0.0817168
296 1 0.0811483 0.0390508 0.127145
343 1 0.11525 0.0853426 0.122341
582 1 0.12733 0.0349606 0.167294
345 1 0.168053 0.0840934 0.0805559
633 1 0.162798 0.0868216 0.170013
300 1 0.153793 0.0482079 0.123167
298 1 0.196557 0.0385717 0.0776122
347 1 0.202645 0.0834444 0.124773
586 1 0.201297 0.0391488 0.162427
4079 1 0.958185 0.498089 0.208174
1714 1 0.70895 0.45891 0.413936
349 1 0.248233 0.0834319 0.0800631
304 1 0.24697 0.0412325 0.123548
302 1 0.2861 0.044946 0.0825437
308 1 0.334856 0.0422078 0.114634
306 1 0.378967 0.0406048 0.0853254
645 1 0.404847 0.0805126 0.172152
312 1 0.415444 0.0483848 0.127686
598 1 0.456713 0.0426126 0.167609
361 1 0.497345 0.0875157 0.0778246
314 1 0.536434 0.0488184 0.0863735
316 1 0.496396 0.0473808 0.128659
4065 1 0.663004 0.495845 0.163422
320 1 0.580172 0.0413134 0.121207
606 1 0.622308 0.037997 0.162527
324 1 0.667079 0.0414369 0.132918
369 1 0.661462 0.0896431 0.0865262
367 1 0.623904 0.0830084 0.12536
1712 1 0.582096 0.451488 0.45823
1716 1 0.671573 0.45848 0.458411
371 1 0.701833 0.0854457 0.121983
328 1 0.747662 0.0422712 0.132147
332 1 0.829333 0.0387986 0.124762
614 1 0.785052 0.0366363 0.171551
1451 1 0.202941 0.00944246 0.470998
1163 1 0.209002 0.001177 0.374105
618 1 0.87619 0.0385431 0.16687
4063 1 0.625432 0.499907 0.19977
336 1 0.920781 0.0361395 0.125742
292 1 0.990932 0.0351151 0.119428
3479 1 0.452606 0.498376 0.0474685
4913 1 0.339431 0.499767 0.410195
339 1 0.0421974 0.0781321 0.120304
338 1 0.0359096 0.118944 0.0796793
387 1 0.0443887 0.170972 0.128004
344 1 0.0758318 0.121262 0.124923
629 1 0.0868299 0.0762098 0.165617
630 1 0.123422 0.122984 0.170676
348 1 0.164726 0.121618 0.1229
397 1 0.248565 0.162837 0.0855365
634 1 0.208329 0.127951 0.164514
352 1 0.248372 0.122392 0.12242
351 1 0.288195 0.083242 0.12291
350 1 0.290825 0.125436 0.0843273
356 1 0.333162 0.127369 0.127486
638 1 0.285134 0.125124 0.162577
353 1 0.335282 0.0936369 0.0846533
355 1 0.366612 0.0836918 0.124503
403 1 0.372596 0.173152 0.136445
693 1 0.412209 0.15971 0.164471
359 1 0.458459 0.0882743 0.127089
360 1 0.414961 0.12423 0.124488
358 1 0.452634 0.134546 0.0824847
646 1 0.456783 0.121653 0.174246
407 1 0.449503 0.168319 0.126168
364 1 0.495815 0.127862 0.120711
363 1 0.537568 0.0884801 0.120338
411 1 0.540377 0.163821 0.125512
650 1 0.544063 0.129188 0.168527
368 1 0.582522 0.119219 0.122858
654 1 0.622465 0.13178 0.166011
415 1 0.629814 0.169258 0.125675
701 1 0.583695 0.171804 0.163159
417 1 0.668765 0.174681 0.0873509
373 1 0.748441 0.0797033 0.0861103
372 1 0.663747 0.127911 0.123267
376 1 0.741346 0.12759 0.127016
419 1 0.711002 0.174942 0.127743
658 1 0.703668 0.12544 0.171662
374 1 0.789277 0.119168 0.0791487
375 1 0.789154 0.0728304 0.128605
661 1 0.743762 0.0876814 0.168416
662 1 0.782048 0.121096 0.171104
380 1 0.825741 0.119279 0.12238
379 1 0.87382 0.0784117 0.125935
384 1 0.914972 0.123884 0.121327
665 1 0.833768 0.073594 0.163044
669 1 0.918322 0.0797837 0.154843
625 1 0.00356211 0.0722584 0.162719
383 1 0.962054 0.0827568 0.125161
340 1 0.000515334 0.124902 0.123354
670 1 0.955549 0.134188 0.159666
431 1 0.954291 0.165306 0.118686
674 1 0.0348791 0.217466 0.169534
389 1 0.0800398 0.160838 0.0886914
435 1 0.0348929 0.253745 0.126752
721 1 0.994712 0.251527 0.16186
673 1 0.998148 0.173212 0.164333
391 1 0.123545 0.157854 0.122826
392 1 0.0874419 0.206936 0.124248
439 1 0.122991 0.246496 0.12661
677 1 0.0864814 0.159103 0.165533
678 1 0.121104 0.206455 0.16931
395 1 0.207332 0.168148 0.11817
396 1 0.1596 0.203025 0.120629
443 1 0.196311 0.255114 0.127552
449 1 0.340403 0.250192 0.0817986
399 1 0.294953 0.177118 0.126757
400 1 0.240044 0.215097 0.12168
733 1 0.244968 0.245649 0.168329
686 1 0.286621 0.215312 0.164594
404 1 0.340849 0.213448 0.126392
689 1 0.332762 0.175412 0.168582
451 1 0.381065 0.26196 0.114348
408 1 0.412886 0.211262 0.124123
741 1 0.412994 0.25828 0.160067
453 1 0.422677 0.246292 0.0882797
405 1 0.412124 0.171488 0.0848826
745 1 0.492382 0.252771 0.167425
455 1 0.456297 0.252564 0.125536
412 1 0.501109 0.204262 0.124801
459 1 0.533878 0.246229 0.128695
698 1 0.542438 0.203895 0.167253
416 1 0.579839 0.207334 0.123359
420 1 0.675746 0.219616 0.121537
702 1 0.624206 0.211642 0.165317
418 1 0.70974 0.212644 0.0820691
706 1 0.70614 0.209157 0.17397
424 1 0.758179 0.208502 0.126332
757 1 0.756894 0.251253 0.167405
423 1 0.789497 0.158481 0.127969
710 1 0.794917 0.212298 0.166352
471 1 0.79345 0.248417 0.122414
713 1 0.828583 0.16786 0.164196
428 1 0.82749 0.197481 0.122474
427 1 0.870155 0.152698 0.125356
432 1 0.91248 0.206688 0.122207
475 1 0.880214 0.252848 0.115369
717 1 0.908017 0.167648 0.165498
714 1 0.870537 0.205939 0.159143
765 1 0.912028 0.256377 0.160324
430 1 0.960694 0.207502 0.0834875
388 1 0.00121046 0.21242 0.120825
718 1 0.959174 0.207387 0.162665
434 1 0.0359386 0.289016 0.0821483
437 1 0.0865624 0.253869 0.0813237
433 1 0.996832 0.24527 0.0796172
483 1 0.0326629 0.338959 0.121933
722 1 0.0316438 0.295154 0.169912
773 1 0.0774755 0.343268 0.168577
440 1 0.0759001 0.301651 0.123844
444 1 0.155319 0.293988 0.120312
725 1 0.0835452 0.261798 0.16278
726 1 0.117844 0.295902 0.160883
491 1 0.203277 0.326424 0.124257
730 1 0.20069 0.295057 0.171227
446 1 0.291287 0.28142 0.0818133
448 1 0.251051 0.291479 0.130839
447 1 0.289511 0.246262 0.122834
495 1 0.292564 0.334829 0.134153
450 1 0.37791 0.302192 0.0815695
497 1 0.329756 0.331797 0.0865295
452 1 0.330674 0.289133 0.119884
499 1 0.376272 0.338498 0.132507
456 1 0.422368 0.297676 0.117196
460 1 0.503116 0.290875 0.128575
742 1 0.458536 0.29702 0.171988
793 1 0.501018 0.327622 0.170311
458 1 0.544982 0.288601 0.0876907
507 1 0.541254 0.336703 0.129292
746 1 0.546403 0.28767 0.169607
797 1 0.590623 0.335604 0.160066
462 1 0.629895 0.297368 0.0879464
463 1 0.624183 0.248299 0.121755
464 1 0.588627 0.293983 0.125667
750 1 0.626367 0.293597 0.175303
466 1 0.709178 0.290083 0.083515
468 1 0.670739 0.283519 0.122218
467 1 0.71992 0.251256 0.129041
754 1 0.710095 0.289061 0.161026
515 1 0.712728 0.335682 0.121842
472 1 0.755498 0.289806 0.125747
758 1 0.799161 0.291117 0.161233
476 1 0.840236 0.291632 0.117277
525 1 0.916045 0.331895 0.0781647
477 1 0.921163 0.261026 0.0779265
480 1 0.922572 0.292142 0.125358
479 1 0.952237 0.247369 0.124218
436 1 0.995999 0.293479 0.127228
766 1 0.953096 0.293197 0.167391
485 1 0.075721 0.330514 0.0787272
484 1 0.997925 0.377529 0.125888
769 1 0.998014 0.340992 0.171532
770 1 0.0371548 0.378257 0.170695
487 1 0.115534 0.334901 0.117836
488 1 0.0819952 0.374686 0.120722
492 1 0.163864 0.375152 0.121897
774 1 0.124948 0.373753 0.164923
490 1 0.207991 0.375208 0.0880546
777 1 0.157325 0.333169 0.16718
778 1 0.197954 0.375681 0.166097
539 1 0.207349 0.4262 0.125011
493 1 0.247251 0.33465 0.0818702
496 1 0.249094 0.379032 0.126344
543 1 0.289027 0.418249 0.128088
829 1 0.245938 0.423501 0.160834
500 1 0.32813 0.379272 0.124025
786 1 0.382677 0.388001 0.171874
833 1 0.338796 0.425049 0.16768
504 1 0.422396 0.372266 0.129934
502 1 0.467796 0.373483 0.0869805
789 1 0.415079 0.331236 0.169375
503 1 0.460499 0.331532 0.128945
790 1 0.456401 0.374004 0.171203
508 1 0.501837 0.375863 0.128936
512 1 0.583007 0.377244 0.127235
794 1 0.542013 0.379864 0.166445
513 1 0.672436 0.325746 0.0821236
510 1 0.624533 0.367325 0.0862355
511 1 0.629615 0.331254 0.126622
798 1 0.632781 0.3692 0.173033
559 1 0.625295 0.41466 0.114747
516 1 0.66844 0.37118 0.122975
520 1 0.758275 0.375952 0.116498
563 1 0.706069 0.419574 0.114014
521 1 0.829601 0.333716 0.0818779
519 1 0.79809 0.328933 0.124762
806 1 0.791648 0.374936 0.163044
524 1 0.82907 0.376842 0.120972
523 1 0.87042 0.336032 0.116347
528 1 0.918062 0.374291 0.121821
481 1 0.989498 0.330132 0.0874635
527 1 0.961774 0.33386 0.129478
526 1 0.967778 0.380666 0.0798477
575 1 0.951617 0.417892 0.12341
530 1 0.042316 0.45595 0.0822433
531 1 0.0374645 0.425738 0.126547
532 1 0.989407 0.459834 0.125013
533 1 0.0829619 0.419906 0.0824442
536 1 0.0816768 0.462306 0.124292
821 1 0.0853663 0.413121 0.156005
535 1 0.120763 0.413549 0.118101
1708 1 0.503464 0.452446 0.452216
1706 1 0.547907 0.457123 0.415258
537 1 0.16014 0.422155 0.082771
538 1 0.207653 0.464519 0.0814272
540 1 0.16742 0.469514 0.122035
544 1 0.245868 0.462579 0.121694
830 1 0.291122 0.460441 0.164741
547 1 0.384247 0.419015 0.11925
548 1 0.330599 0.458738 0.126171
4355 1 0.7067 0.499928 0.293003
550 1 0.45493 0.456044 0.0865444
552 1 0.413798 0.466633 0.117141
551 1 0.459331 0.410181 0.130866
3767 1 0.45382 0.492635 0.132454
555 1 0.543122 0.418635 0.125262
556 1 0.498271 0.459288 0.120118
560 1 0.581657 0.456282 0.118855
1703 1 0.459025 0.410903 0.456995
558 1 0.622865 0.458637 0.078664
564 1 0.67141 0.457892 0.120997
846 1 0.630078 0.454645 0.1612
850 1 0.705482 0.446547 0.171235
568 1 0.749376 0.450158 0.121275
566 1 0.792766 0.46302 0.0781248
569 1 0.834105 0.422183 0.0830705
853 1 0.750751 0.416067 0.171687
567 1 0.793337 0.423848 0.129744
572 1 0.832021 0.464828 0.116216
4039 1 0.123167 0.498519 0.207551
571 1 0.871272 0.41613 0.127521
858 1 0.870486 0.456882 0.165905
1702 1 0.461394 0.452461 0.418504
1704 1 0.422431 0.460589 0.45841
574 1 0.952172 0.458719 0.0811355
573 1 0.915123 0.411483 0.0768926
576 1 0.911597 0.45929 0.129319
325 1 0.742817 0.00515597 0.085337
584 1 0.0859001 0.031456 0.208516
866 1 0.03322 0.0416757 0.244076
1845 1 0.412912 0.161267 0.494176
870 1 0.128229 0.0386457 0.244222
588 1 0.166194 0.0346011 0.208342
631 1 0.121141 0.0802378 0.206776
921 1 0.168067 0.0863566 0.251761
1697 1 0.334936 0.42187 0.412452
592 1 0.250821 0.0468587 0.210049
874 1 0.208988 0.0448892 0.251392
590 1 0.285873 0.0375511 0.163775
639 1 0.29083 0.0854845 0.212063
925 1 0.251371 0.0795687 0.252025
594 1 0.374989 0.0417134 0.160194
596 1 0.330319 0.0401221 0.204173
933 1 0.415581 0.0892623 0.253868
600 1 0.41879 0.0378852 0.211136
882 1 0.375833 0.0475866 0.252313
18 1 0.375367 0.0425358 0.00518279
647 1 0.456308 0.0928027 0.217422
604 1 0.499475 0.042696 0.212277
649 1 0.4994 0.0855079 0.169353
886 1 0.457437 0.0440683 0.249305
602 1 0.543402 0.0496001 0.162218
608 1 0.584885 0.0434574 0.201488
937 1 0.498714 0.0834557 0.251633
890 1 0.537802 0.0414272 0.249097
1698 1 0.380428 0.459193 0.414888
3745 1 0.00844637 0.498383 0.0850312
894 1 0.622304 0.0454245 0.253169
657 1 0.659635 0.0903818 0.163573
1699 1 0.382347 0.420044 0.456216
612 1 0.664837 0.0454633 0.197995
610 1 0.708394 0.040655 0.16686
299 1 0.207118 0.00269549 0.126206
898 1 0.708444 0.0475785 0.251453
1183 1 0.630111 0.00142453 0.372991
1862 1 0.791925 0.202886 0.497909
616 1 0.746644 0.0503848 0.213618
1187 1 0.716869 0.000919329 0.375213
39 1 0.77823 0.00309842 0.0480617
620 1 0.834795 0.0356407 0.209437
624 1 0.917796 0.0352394 0.205331
906 1 0.874916 0.0364939 0.245412
202 1 0.209525 0.377493 0.0013756
1921 1 0.00500063 0.34206 0.499725
580 1 0.998798 0.0310982 0.204672
622 1 0.958133 0.0325067 0.16736
910 1 0.952821 0.0361211 0.248634
957 1 0.919553 0.0841821 0.242841
627 1 0.0408069 0.0829153 0.205734
626 1 0.0364105 0.121246 0.160185
675 1 0.0393924 0.15701 0.21043
628 1 0.995868 0.123816 0.204201
914 1 0.0421944 0.118178 0.250636
632 1 0.0843579 0.120021 0.205489
965 1 0.0806117 0.170963 0.256715
681 1 0.159355 0.16288 0.160423
636 1 0.170122 0.127017 0.20653
635 1 0.204855 0.0823138 0.211267
640 1 0.245967 0.120751 0.211434
922 1 0.201618 0.133023 0.249474
637 1 0.247421 0.088179 0.162758
926 1 0.286413 0.120456 0.249937
641 1 0.331799 0.0783416 0.166268
642 1 0.373883 0.121201 0.166767
643 1 0.366318 0.0830372 0.214274
644 1 0.327514 0.125073 0.21527
648 1 0.412022 0.120781 0.202247
652 1 0.499181 0.122009 0.211016
695 1 0.459543 0.171038 0.20445
934 1 0.463594 0.124146 0.255548
651 1 0.5464 0.0849239 0.210008
697 1 0.501385 0.166172 0.163081
653 1 0.586189 0.0824499 0.165294
938 1 0.544096 0.122834 0.253649
656 1 0.580727 0.126441 0.209484
941 1 0.583757 0.0823322 0.254257
699 1 0.542417 0.16314 0.209714
655 1 0.617244 0.0865846 0.207623
660 1 0.657834 0.121732 0.206807
989 1 0.582152 0.163903 0.249405
659 1 0.704091 0.0818431 0.204072
707 1 0.71132 0.168161 0.20998
946 1 0.707508 0.129592 0.248926
709 1 0.75038 0.176791 0.168486
664 1 0.749403 0.126318 0.209162
949 1 0.75855 0.0889663 0.253859
663 1 0.794393 0.0856886 0.21295
668 1 0.838971 0.122318 0.201389
666 1 0.874339 0.117223 0.161823
667 1 0.870943 0.0784999 0.205326
672 1 0.917848 0.125144 0.210847
1005 1 0.912172 0.16465 0.248716
953 1 0.836417 0.0787524 0.245005
671 1 0.96036 0.0800557 0.196033
958 1 0.955909 0.120798 0.247268
719 1 0.962313 0.169138 0.204652
723 1 0.052151 0.259144 0.209623
962 1 0.0420178 0.208942 0.247004
1009 1 0.996325 0.254448 0.256876
680 1 0.0844054 0.207525 0.207639
679 1 0.120672 0.161527 0.211762
684 1 0.16632 0.199868 0.213365
1017 1 0.167094 0.249857 0.249442
683 1 0.210884 0.171138 0.205755
685 1 0.254949 0.171255 0.164474
682 1 0.2037 0.198784 0.161121
729 1 0.160701 0.244441 0.173297
688 1 0.247226 0.210934 0.209172
731 1 0.2098 0.252348 0.212946
970 1 0.204327 0.206337 0.248393
687 1 0.285278 0.167204 0.204615
973 1 0.246452 0.163137 0.246477
974 1 0.285387 0.207968 0.246181
691 1 0.370197 0.167239 0.20465
692 1 0.332746 0.218867 0.211487
690 1 0.378713 0.218401 0.166523
739 1 0.385283 0.251749 0.211893
1025 1 0.339965 0.252443 0.253772
696 1 0.410256 0.201921 0.209961
694 1 0.45548 0.213814 0.159878
985 1 0.501199 0.163224 0.253908
982 1 0.460644 0.19768 0.249661
743 1 0.445905 0.242685 0.202019
749 1 0.582125 0.250215 0.161695
700 1 0.498164 0.212687 0.208713
747 1 0.542823 0.25165 0.20787
986 1 0.551386 0.209739 0.244052
1033 1 0.49833 0.252617 0.248275
705 1 0.66999 0.168966 0.170044
703 1 0.622713 0.166728 0.209234
704 1 0.589236 0.20556 0.21035
1041 1 0.660857 0.255037 0.253849
753 1 0.671136 0.251223 0.17106
708 1 0.662244 0.206284 0.213438
755 1 0.714216 0.253488 0.202789
712 1 0.749165 0.215268 0.213277
711 1 0.788925 0.1692 0.205192
1001 1 0.833889 0.165106 0.241526
761 1 0.836959 0.250067 0.161351
715 1 0.871287 0.166259 0.205297
716 1 0.834748 0.206349 0.204911
1002 1 0.87371 0.212817 0.253938
720 1 0.916814 0.204731 0.207875
676 1 0.00514531 0.224597 0.211116
1006 1 0.951722 0.218906 0.252628
767 1 0.954884 0.247197 0.201638
961 1 0.00103241 0.16874 0.242059
724 1 0.997744 0.290239 0.215298
771 1 0.0391652 0.335146 0.210394
727 1 0.115077 0.263851 0.20632
728 1 0.0801043 0.302834 0.209492
1014 1 0.12398 0.292953 0.247806
1013 1 0.0881813 0.249691 0.246343
732 1 0.165577 0.29311 0.207794
1018 1 0.208822 0.305849 0.247576
1069 1 0.252778 0.34195 0.245382
734 1 0.297746 0.291857 0.17775
735 1 0.282757 0.254435 0.209731
781 1 0.246087 0.339989 0.17011
736 1 0.251688 0.30077 0.211778
783 1 0.293237 0.341859 0.209772
737 1 0.330816 0.249372 0.165462
740 1 0.337475 0.293208 0.214388
738 1 0.365581 0.28995 0.166897
1077 1 0.41676 0.330375 0.254552
744 1 0.419825 0.301134 0.209623
1081 1 0.500517 0.336032 0.25145
748 1 0.501696 0.289542 0.209244
752 1 0.584922 0.286372 0.207124
795 1 0.54694 0.332975 0.202133
1085 1 0.583872 0.329881 0.253717
1034 1 0.538615 0.295177 0.247687
751 1 0.627107 0.251161 0.205703
1038 1 0.623455 0.290543 0.250411
801 1 0.666273 0.330003 0.171647
805 1 0.756153 0.335911 0.163562
756 1 0.676785 0.291322 0.208502
803 1 0.70775 0.331618 0.205784
759 1 0.793659 0.246799 0.210225
760 1 0.752522 0.290604 0.208504
764 1 0.833988 0.290439 0.205011
762 1 0.87313 0.293151 0.159839
763 1 0.870946 0.248584 0.203275
811 1 0.872581 0.334254 0.203102
1101 1 0.917348 0.337511 0.241363
768 1 0.909838 0.296057 0.201224
815 1 0.954556 0.335901 0.204973
1053 1 0.917209 0.257867 0.239386
1057 1 0.999818 0.336783 0.255128
819 1 0.0410604 0.418475 0.210589
776 1 0.0866991 0.376443 0.213813
775 1 0.122876 0.334548 0.209707
780 1 0.166119 0.381027 0.204675
1062 1 0.129764 0.391251 0.248446
825 1 0.162976 0.417244 0.161452
779 1 0.209253 0.344864 0.208155
1065 1 0.168837 0.339608 0.245239
782 1 0.284725 0.382316 0.163278
784 1 0.253206 0.383932 0.203604
831 1 0.288366 0.426405 0.204477
1117 1 0.248419 0.420476 0.246377
1070 1 0.297552 0.386876 0.245576
785 1 0.335908 0.337706 0.168125
788 1 0.336055 0.384645 0.203024
787 1 0.373876 0.334447 0.212209
835 1 0.380368 0.421157 0.211979
1073 1 0.331632 0.33682 0.256008
1074 1 0.373743 0.370788 0.251159
792 1 0.420732 0.376118 0.214223
791 1 0.459906 0.336671 0.211329
839 1 0.452473 0.420646 0.203473
796 1 0.4954 0.378177 0.20983
841 1 0.499841 0.418336 0.169057
1082 1 0.544887 0.371433 0.251751
800 1 0.588891 0.373281 0.203717
843 1 0.548129 0.410146 0.213098
845 1 0.585191 0.419313 0.159894
849 1 0.668773 0.413542 0.159715
799 1 0.629719 0.328157 0.210191
804 1 0.663352 0.378622 0.21291
1089 1 0.666479 0.332939 0.252119
802 1 0.715002 0.37348 0.159568
1090 1 0.70602 0.380073 0.251786
1137 1 0.665427 0.413541 0.251658
808 1 0.74971 0.378961 0.203481
809 1 0.836565 0.334394 0.16004
807 1 0.792269 0.326447 0.203828
1145 1 0.835661 0.415331 0.249303
1094 1 0.793843 0.368271 0.251573
813 1 0.914149 0.336584 0.157101
810 1 0.87335 0.375494 0.162027
861 1 0.92411 0.412983 0.167215
857 1 0.835209 0.416971 0.166196
812 1 0.829004 0.374983 0.20477
859 1 0.87611 0.414852 0.206229
816 1 0.912545 0.373465 0.197546
817 1 0.998514 0.417603 0.170198
772 1 0.996889 0.383957 0.214744
814 1 0.965181 0.379528 0.167402
863 1 0.952355 0.420304 0.213754
1102 1 0.952732 0.376475 0.245665
818 1 0.0384158 0.459158 0.173333
820 1 0.994748 0.456311 0.208722
824 1 0.0794677 0.463974 0.209104
822 1 0.122903 0.462718 0.163724
823 1 0.118409 0.423376 0.198856
828 1 0.170259 0.456403 0.202088
1700 1 0.341352 0.459867 0.461668
1110 1 0.127328 0.45898 0.246441
826 1 0.211354 0.464975 0.162812
827 1 0.210942 0.41661 0.203297
1114 1 0.209874 0.461925 0.241195
19 1 0.371288 0.00162156 0.0416743
832 1 0.247639 0.456727 0.202198
836 1 0.333901 0.46782 0.202349
1118 1 0.295455 0.454535 0.246917
23 1 0.450208 0.00290876 0.0441497
834 1 0.381694 0.459627 0.157914
1694 1 0.299786 0.457309 0.418688
840 1 0.41214 0.464079 0.209212
1695 1 0.290147 0.415706 0.455993
837 1 0.421276 0.41958 0.162109
838 1 0.457656 0.457854 0.172287
1126 1 0.461332 0.458834 0.245675
842 1 0.544353 0.45297 0.17128
844 1 0.504183 0.456047 0.214205
848 1 0.582082 0.455332 0.208534
1453 1 0.245044 0.00185057 0.422084
847 1 0.62675 0.413926 0.210422
1134 1 0.626095 0.460368 0.250645
851 1 0.707135 0.416647 0.212455
852 1 0.666075 0.452554 0.205588
1191 1 0.791514 0.00621729 0.366706
854 1 0.793853 0.46144 0.169725
855 1 0.7915 0.41634 0.204742
856 1 0.750021 0.454289 0.208307
1142 1 0.797312 0.456845 0.255135
4349 1 0.58263 0.496743 0.24736
860 1 0.828643 0.457454 0.210729
864 1 0.913324 0.455358 0.205285
862 1 0.955262 0.456003 0.166924
1150 1 0.954919 0.456935 0.251449
915 1 0.034658 0.0767359 0.290271
1154 1 0.0479831 0.037072 0.330339
872 1 0.0830171 0.0441678 0.285811
1945 1 0.501368 0.335455 0.496068
919 1 0.126444 0.0838301 0.288191
1158 1 0.131188 0.0465629 0.334887
1690 1 0.208111 0.464522 0.40862
876 1 0.167007 0.049537 0.292114
923 1 0.214028 0.0886621 0.285804
1162 1 0.207622 0.04009 0.3313
1696 1 0.244623 0.457808 0.45693
878 1 0.290709 0.0346946 0.249058
880 1 0.247946 0.0366468 0.288105
927 1 0.286088 0.0764262 0.306136
873 1 0.170771 0.00300099 0.252504