ITEM: TIMESTEP
21500
ITEM: NUMBER OF ATOMS
4000
ITEM: BOX BOUNDS pp pp pp
0.0000000000000000e+00 5.2599999999999994e+01
0.0000000000000000e+00 5.2599999999999994e+01
0.0000000000000000e+00 5.2599999999999994e+01
ITEM: ATOMS id type xs ys zs
8 1 0.110097 0.0480017 0.051463
2823 1 0.55266 0.498505 0.445151
109 1 0.697992 0.195749 0.00290773
205 1 0.0958811 0.0128794 0.105476
189 1 0.694581 0.40158 0.00788918
47 1 0.153023 0.10502 0.0575071
206 1 0.159644 0.0528825 0.104734
12 1 0.203876 0.0513891 0.0475369
210 1 0.253156 0.0451584 0.111833
16 1 0.303401 0.0469785 0.0440581
51 1 0.251125 0.0929702 0.0586006
2217 1 0.399108 0.49941 0.10281
1009 1 0.198424 0.00249245 0.499
20 1 0.402008 0.0467529 0.0461827
55 1 0.351658 0.100197 0.0437566
407 1 0.157821 0.00295011 0.24921
24 1 0.496897 0.0522124 0.053409
59 1 0.453225 0.0977481 0.0486944
229 1 0.710204 0.00273962 0.0928631
1000 1 0.904804 0.445425 0.451401
2031 1 0.741027 0.497325 0.0547536
63 1 0.54046 0.100856 0.065604
28 1 0.606902 0.051022 0.0566844
964 1 0.00815234 0.446892 0.445632
2605 1 0.100687 0.499083 0.294764
1082 1 0.0440261 0.250574 0.497438
67 1 0.646929 0.101875 0.0645248
2815 1 0.355031 0.49296 0.444666
2219 1 0.458606 0.495549 0.156777
32 1 0.700251 0.0491043 0.0509843
71 1 0.742412 0.10125 0.0647825
36 1 0.798125 0.0474933 0.0616422
273 1 0.803211 0.105301 0.0946499
75 1 0.847065 0.101102 0.0515547
234 1 0.850036 0.0494431 0.105631
170 1 0.252446 0.455315 0.00234492
4 1 0.00446086 0.0507756 0.0420646
40 1 0.890621 0.0529172 0.0497665
238 1 0.954352 0.0594812 0.100457
277 1 0.907323 0.105634 0.0928415
43 1 0.0560047 0.0965558 0.0532492
83 1 0.059978 0.197688 0.0583506
48 1 0.0970408 0.142089 0.0525243
44 1 0.0078611 0.150475 0.0541145
87 1 0.14955 0.201879 0.0507306
246 1 0.147738 0.156951 0.104156
52 1 0.205885 0.144703 0.0526724
56 1 0.295171 0.145083 0.0535316
91 1 0.243827 0.199754 0.0493113
293 1 0.302299 0.197619 0.0955584
253 1 0.312146 0.0945629 0.0978747
60 1 0.394574 0.147041 0.0416795
95 1 0.35852 0.196817 0.0427547
813 1 0.300886 0.00123629 0.394498
64 1 0.502373 0.149879 0.052255
2835 1 0.847148 0.496867 0.453754
301 1 0.497298 0.205422 0.0948998
68 1 0.584896 0.150979 0.0477518
262 1 0.545817 0.154546 0.103094
103 1 0.548458 0.206757 0.0546014
2811 1 0.243359 0.495652 0.452876
305 1 0.595267 0.205095 0.10083
266 1 0.640975 0.159243 0.0961226
107 1 0.642358 0.199263 0.0419276
2619 1 0.444508 0.499218 0.343001
1154 1 0.84421 0.356436 0.490499
269 1 0.693623 0.105567 0.104363
72 1 0.691483 0.159549 0.0566966
309 1 0.691214 0.206586 0.103434
270 1 0.744848 0.165819 0.10442
111 1 0.751951 0.204337 0.0472375
605 1 0.0983734 0.00202635 0.309335
1029 1 0.692408 0.00487092 0.492727
76 1 0.802451 0.164546 0.0506937
80 1 0.897409 0.157862 0.0478136
115 1 0.856995 0.206886 0.0554491
274 1 0.848654 0.159545 0.107751
313 1 0.805472 0.206674 0.106347
79 1 0.956625 0.0981946 0.0484135
278 1 0.952483 0.154268 0.0997754
317 1 0.90093 0.202094 0.104864
84 1 0.00831527 0.254129 0.0407077
88 1 0.109679 0.253895 0.0445981
123 1 0.0567061 0.299657 0.0541839
282 1 0.0539667 0.254339 0.107556
127 1 0.153592 0.29988 0.044455
285 1 0.0993247 0.193372 0.109026
286 1 0.143808 0.240948 0.104192
2439 1 0.953892 0.494575 0.249435
177 1 0.404764 0.40141 0.00348417
92 1 0.193728 0.24465 0.0528445
27 1 0.65626 0.00279846 0.0524848
96 1 0.297655 0.248112 0.0478576
294 1 0.345497 0.251474 0.0994013
135 1 0.348532 0.305889 0.0517786
337 1 0.392205 0.30642 0.0997734
100 1 0.399164 0.256902 0.0538495
99 1 0.438556 0.205637 0.0421452
104 1 0.504613 0.248457 0.0457637
298 1 0.451299 0.249633 0.0957046
108 1 0.595187 0.255174 0.0480422
143 1 0.547555 0.294133 0.0493071
345 1 0.592256 0.296199 0.104588
112 1 0.700988 0.250197 0.0517675
147 1 0.643284 0.304547 0.0591165
306 1 0.65014 0.254709 0.0925722
349 1 0.698263 0.30252 0.106898
46 1 0.150197 0.15359 0.00368149
631 1 0.746742 0.00464442 0.347488
151 1 0.747043 0.299474 0.0487796
310 1 0.746787 0.242953 0.102197
117 1 0.898339 0.200242 7.09718e-05
70 1 0.749947 0.149173 0.0134782
116 1 0.801551 0.244581 0.0579477
155 1 0.850927 0.298968 0.0572761
314 1 0.859415 0.244574 0.108682
66 1 0.646007 0.139967 0.000199917
120 1 0.906081 0.259091 0.0424359
119 1 0.958799 0.197708 0.0508221
163 1 0.0470969 0.402944 0.0492283
322 1 0.053325 0.345451 0.100147
128 1 0.110393 0.342288 0.0443395
124 1 0.999813 0.35095 0.0513162
132 1 0.203507 0.338217 0.0489397
369 1 0.19163 0.401903 0.102707
326 1 0.150969 0.345856 0.0990698
58 1 0.451446 0.151604 0.00207629
827 1 0.641348 0.0020944 0.439453
131 1 0.250008 0.292023 0.0518057
171 1 0.238693 0.403866 0.0500425
136 1 0.298148 0.35003 0.0520686
140 1 0.403738 0.354953 0.0552737
175 1 0.356247 0.397548 0.0463938
233 1 0.797139 0.000369593 0.103511
90 1 0.251336 0.243851 0.00188544
139 1 0.449436 0.305423 0.0534399
179 1 0.446095 0.402856 0.0581348
49 1 0.192165 0.104784 0.00159942
2419 1 0.458185 0.497662 0.250155
144 1 0.493935 0.351623 0.0496528
183 1 0.541217 0.397788 0.0562829
342 1 0.547125 0.346248 0.0978969
148 1 0.594995 0.353102 0.0586548
152 1 0.702073 0.351637 0.0549695
385 1 0.596104 0.40476 0.0959481
389 1 0.697363 0.405579 0.0927796
2831 1 0.755535 0.497061 0.450616
235 1 0.85972 0.00328743 0.15135
191 1 0.756341 0.396538 0.0487419
393 1 0.802652 0.408967 0.0987812
2003 1 0.0573078 0.493159 0.0536752
156 1 0.809138 0.345529 0.0520894
195 1 0.851328 0.397298 0.0388791
354 1 0.852283 0.358075 0.0961899
38 1 0.946814 0.0550409 0.000473415
159 1 0.954914 0.302454 0.0462342
160 1 0.901393 0.354322 0.0481437
199 1 0.947984 0.399548 0.0559906
397 1 0.897301 0.410396 0.0915917
361 1 0.996001 0.404565 0.0957819
168 1 0.110619 0.454971 0.044166
1030 1 0.752227 0.0534681 0.491333
1117 1 0.901592 0.199568 0.487066
994 1 0.855161 0.447692 0.398603
167 1 0.163917 0.391127 0.0447263
172 1 0.193094 0.452572 0.0499591
2813 1 0.29894 0.495858 0.394139
1041 1 0.997533 0.101849 0.498177
365 1 0.100065 0.396998 0.0852602
176 1 0.29274 0.45107 0.0566718
370 1 0.251907 0.440353 0.107182
373 1 0.303451 0.398483 0.093389
833 1 0.800474 0.0065622 0.393746
374 1 0.346068 0.446591 0.0952937
992 1 0.703349 0.447896 0.443958
2431 1 0.755171 0.494748 0.250576
2011 1 0.245807 0.493964 0.0582004
180 1 0.402464 0.452246 0.055202
996 1 0.803517 0.45204 0.449691
2231 1 0.751922 0.498711 0.149997
807 1 0.139661 0.00655881 0.454365
184 1 0.495107 0.45142 0.0502498
150 1 0.743408 0.349504 0.00879633
2601 1 0.00227596 0.499458 0.299083
187 1 0.647739 0.398224 0.0518808
188 1 0.601333 0.444166 0.0473502
192 1 0.705902 0.442006 0.0445002
1114 1 0.843899 0.244938 0.493571
805 1 0.0995333 0.0044841 0.399768
2817 1 0.399784 0.499094 0.401587
411 1 0.251589 0.0102075 0.246031
435 1 0.859181 0.00709337 0.2545
125 1 0.094781 0.29864 0.00110312
390 1 0.744068 0.445355 0.0993745
196 1 0.802499 0.455942 0.0506656
239 1 0.951527 0.00851209 0.147994
30 1 0.751086 0.06039 0.00646531
2203 1 0.0442363 0.494791 0.150692
394 1 0.850081 0.456697 0.0935212
200 1 0.894274 0.465967 0.0425446
164 1 0.000614664 0.450457 0.0462245
398 1 0.951499 0.458104 0.0882679
985 1 0.603117 0.41169 0.407371
1018 1 0.445661 0.0465754 0.494422
987 1 0.646562 0.39985 0.450192
245 1 0.100443 0.0962408 0.0982374
202 1 0.0440898 0.0515581 0.102837
243 1 0.049467 0.0941242 0.155275
445 1 0.0907248 0.0963219 0.208598
402 1 0.0424328 0.0513906 0.202318
208 1 0.108078 0.0620972 0.153129
212 1 0.208047 0.0498391 0.156104
406 1 0.153382 0.0533617 0.206516
247 1 0.164846 0.100218 0.154971
249 1 0.206293 0.100436 0.109888
2827 1 0.656902 0.497521 0.442087
251 1 0.247989 0.103397 0.155034
214 1 0.35286 0.0425362 0.0915253
988 1 0.605718 0.458578 0.450584
216 1 0.31234 0.0434001 0.14399
220 1 0.402173 0.0414315 0.142429
983 1 0.545424 0.398432 0.449951
218 1 0.445301 0.0420204 0.0936719
224 1 0.498899 0.0406565 0.140442
418 1 0.453328 0.0412654 0.201668
261 1 0.487443 0.0918682 0.10023
259 1 0.448905 0.0926748 0.156514
461 1 0.497583 0.0963881 0.199077
982 1 0.548665 0.44466 0.397987
265 1 0.595494 0.0961751 0.116751
222 1 0.545331 0.0453967 0.0967706
228 1 0.593253 0.0344095 0.140674
984 1 0.506627 0.454321 0.452614
226 1 0.645575 0.0480325 0.106829
426 1 0.658616 0.0450749 0.186742
267 1 0.652381 0.092942 0.151958
230 1 0.755242 0.0521616 0.103913
232 1 0.710347 0.050174 0.148453
430 1 0.749329 0.0519585 0.205664
469 1 0.697741 0.102365 0.204015
69 1 0.699448 0.10575 0.00881314
236 1 0.804941 0.0460678 0.15692
275 1 0.857228 0.10685 0.14502
204 1 0.998642 0.0572468 0.151352
240 1 0.906326 0.0529513 0.148415
981 1 0.501573 0.396015 0.399815
242 1 0.0521658 0.148376 0.108696
281 1 0.00840977 0.202008 0.0996356
241 1 0.00619885 0.103478 0.107944
248 1 0.105474 0.139626 0.160334
283 1 0.0471405 0.206011 0.162257
442 1 0.0435314 0.154636 0.203656
446 1 0.160204 0.149135 0.204653
250 1 0.260409 0.145721 0.103323
289 1 0.207816 0.198412 0.104352
252 1 0.209941 0.159485 0.155196
291 1 0.257413 0.195606 0.151624
256 1 0.308214 0.145559 0.149236
254 1 0.35372 0.149718 0.0966968
257 1 0.393806 0.0994391 0.0926652
255 1 0.356814 0.0932881 0.147864
260 1 0.39799 0.148579 0.153315
295 1 0.344961 0.199289 0.147983
258 1 0.446029 0.155581 0.093946
299 1 0.442106 0.194808 0.143481
458 1 0.450861 0.151001 0.197422
264 1 0.483764 0.142087 0.143664
263 1 0.538842 0.102855 0.142561
268 1 0.589482 0.15812 0.149907
272 1 0.693523 0.156248 0.152091
271 1 0.739004 0.107538 0.149025
470 1 0.748528 0.148036 0.194336
276 1 0.795856 0.155471 0.146121
280 1 0.907947 0.160002 0.150366
474 1 0.857126 0.145395 0.197738
473 1 0.806558 0.103149 0.187277
244 1 0.995402 0.156492 0.149934
279 1 0.953873 0.103673 0.147934
319 1 0.95527 0.209038 0.156512
323 1 0.0502281 0.299333 0.149392
284 1 0.00133852 0.25651 0.146846
482 1 0.0544222 0.256509 0.201264
287 1 0.149934 0.192361 0.158619
288 1 0.0962113 0.254948 0.150695
325 1 0.101553 0.305264 0.105236
327 1 0.152059 0.296978 0.149881
329 1 0.192696 0.286568 0.0955696
290 1 0.260471 0.242938 0.105644
292 1 0.192959 0.246201 0.145109
296 1 0.297759 0.24456 0.154511
490 1 0.253228 0.244789 0.20427
333 1 0.294662 0.303723 0.0984248
533 1 0.293183 0.300327 0.201656
335 1 0.345266 0.302569 0.14836
297 1 0.394536 0.20763 0.102575
300 1 0.391019 0.260275 0.14713
498 1 0.442836 0.248298 0.185166
304 1 0.488385 0.248686 0.146572
339 1 0.445778 0.306597 0.14427
501 1 0.50082 0.195302 0.188609
302 1 0.543279 0.24909 0.100731
303 1 0.545709 0.202962 0.148891
502 1 0.547947 0.249209 0.202632
341 1 0.495067 0.292743 0.0967752
343 1 0.538011 0.297182 0.147039
505 1 0.59508 0.199549 0.204434
307 1 0.64586 0.196561 0.148876
509 1 0.705121 0.194791 0.209881
308 1 0.598049 0.24705 0.145371
347 1 0.646437 0.317764 0.147129
506 1 0.648968 0.23809 0.203373
549 1 0.691658 0.303705 0.198269
311 1 0.74342 0.205502 0.154243
312 1 0.687208 0.25119 0.151453
351 1 0.749373 0.286952 0.14834
553 1 0.790819 0.30508 0.193757
353 1 0.799151 0.300537 0.105868
316 1 0.804094 0.253456 0.152313
513 1 0.803723 0.19938 0.196794
315 1 0.856336 0.206714 0.156473
514 1 0.849971 0.258162 0.196014
355 1 0.854177 0.301974 0.148367
318 1 0.953223 0.248246 0.0908492
320 1 0.908561 0.252096 0.153658
359 1 0.95487 0.299158 0.149762
557 1 0.897625 0.299164 0.208303
357 1 0.906524 0.298973 0.104082
481 1 0.998785 0.209306 0.213079
518 1 0.950067 0.252316 0.211485
321 1 1.23829e-05 0.302576 0.0930895
363 1 0.059072 0.4108 0.141494
522 1 0.0522445 0.347312 0.216399
328 1 0.109567 0.355275 0.14922
525 1 0.101268 0.302005 0.200143
331 1 0.245406 0.295264 0.149057
332 1 0.19415 0.351598 0.145557
330 1 0.243101 0.359486 0.0968219
336 1 0.2876 0.349516 0.145289
334 1 0.348568 0.359598 0.10263
377 1 0.403459 0.404399 0.102951
338 1 0.452597 0.350734 0.0962729
537 1 0.388893 0.307159 0.196269
340 1 0.399786 0.354904 0.147824
379 1 0.451935 0.402577 0.153294
538 1 0.456073 0.350224 0.195773
344 1 0.502292 0.358823 0.153109
348 1 0.595669 0.352694 0.150478
381 1 0.503083 0.398732 0.103476
383 1 0.551849 0.400983 0.148639
346 1 0.645861 0.364681 0.103948
352 1 0.707396 0.350218 0.152635
546 1 0.640726 0.350234 0.20177
350 1 0.749172 0.354335 0.100846
356 1 0.803972 0.355739 0.142526
391 1 0.756241 0.399108 0.149538
593 1 0.801807 0.402098 0.198661
550 1 0.756142 0.353915 0.200914
395 1 0.852975 0.403772 0.135641
554 1 0.841222 0.353251 0.19821
324 1 0.997267 0.357875 0.149309
360 1 0.899612 0.345663 0.155852
358 1 0.950083 0.34877 0.102216
399 1 0.949077 0.405372 0.141168
149 1 0.683521 0.306146 0.0043839
362 1 0.0472978 0.453984 0.0984487
368 1 0.106548 0.453562 0.160742
364 1 0.00295716 0.447417 0.150002
562 1 0.0516434 0.450536 0.206308
565 1 0.0984318 0.401312 0.200244
366 1 0.143633 0.444013 0.102881
367 1 0.151711 0.404224 0.157403
371 1 0.248425 0.402408 0.161072
372 1 0.201185 0.445119 0.149657
376 1 0.299107 0.451817 0.161126
401 1 0.996842 0.00687685 0.203997
825 1 0.586389 0.00842536 0.399651
375 1 0.349839 0.399787 0.158741
380 1 0.400229 0.447736 0.154746
574 1 0.353449 0.452087 0.203125
978 1 0.461492 0.443869 0.40743
378 1 0.448738 0.447736 0.106938
839 1 0.959042 0.00475998 0.448687
384 1 0.497164 0.447206 0.147674
382 1 0.552356 0.448298 0.100525
388 1 0.606876 0.455511 0.149621
1002 1 0.049303 0.0470906 0.498616
829 1 0.688628 0.00288115 0.390768
386 1 0.651336 0.451199 0.0983683
387 1 0.658921 0.403416 0.14702
392 1 0.702854 0.454671 0.158719
586 1 0.657585 0.443175 0.205301
589 1 0.704433 0.397786 0.199828
974 1 0.351177 0.446873 0.397034
590 1 0.756279 0.44718 0.19754
396 1 0.800678 0.455187 0.14195
2239 1 0.953337 0.498794 0.153285
2211 1 0.246774 0.490715 0.143801
594 1 0.856259 0.451498 0.195358
597 1 0.893224 0.400944 0.198419
980 1 0.402363 0.445789 0.443729
400 1 0.903826 0.447555 0.139305
561 1 0.00529794 0.399418 0.205974
598 1 0.951237 0.442701 0.196134
976 1 0.299295 0.450477 0.451667
443 1 0.0461536 0.092318 0.256793
441 1 0.00426565 0.101879 0.202319
404 1 0.997784 0.0545081 0.254051
2409 1 0.187403 0.499866 0.188906
408 1 0.102942 0.0424081 0.25253
447 1 0.148201 0.108001 0.261412
412 1 0.202082 0.0540195 0.251577
2821 1 0.498451 0.494835 0.406274
971 1 0.254099 0.390242 0.451875
449 1 0.202963 0.104604 0.212598
410 1 0.252339 0.0563114 0.201281
453 1 0.310454 0.090354 0.197077
653 1 0.300852 0.0959733 0.29932
610 1 0.24568 0.0557468 0.298733
416 1 0.304763 0.0453558 0.248962
414 1 0.355159 0.0438404 0.201664
614 1 0.355374 0.0404066 0.299724
420 1 0.39744 0.0453336 0.245422
972 1 0.207281 0.44705 0.454844
424 1 0.495819 0.0513908 0.247747
459 1 0.439943 0.104017 0.251841
657 1 0.401648 0.088124 0.29847
661 1 0.49302 0.103063 0.303311
970 1 0.244407 0.441436 0.397037
422 1 0.542651 0.0464134 0.194568
622 1 0.541883 0.0513054 0.29246
428 1 0.59072 0.0465329 0.243743
463 1 0.545379 0.101952 0.246006
465 1 0.590075 0.0927967 0.192368
626 1 0.642735 0.0509068 0.292441
467 1 0.641814 0.096793 0.248823
967 1 0.157582 0.401999 0.458897
432 1 0.701724 0.0456986 0.253321
436 1 0.806009 0.0557593 0.242487
630 1 0.753202 0.0400551 0.29061
966 1 0.160073 0.449153 0.401144
477 1 0.903703 0.105539 0.195939
434 1 0.860817 0.0515823 0.199833
475 1 0.854655 0.104912 0.249406
634 1 0.850222 0.055874 0.299195
438 1 0.950043 0.0596663 0.198196
440 1 0.902641 0.0558486 0.249578
642 1 0.0488645 0.15307 0.303861
444 1 0.997585 0.148628 0.253646
485 1 0.0974449 0.201522 0.206777
448 1 0.0919248 0.144064 0.257435
489 1 0.204245 0.194369 0.211607
450 1 0.261917 0.15222 0.204312
452 1 0.204649 0.150322 0.254715
451 1 0.266761 0.102478 0.245895
650 1 0.259819 0.149103 0.306727
455 1 0.347924 0.102714 0.247292
454 1 0.35373 0.145657 0.195361
456 1 0.303842 0.158418 0.255638
654 1 0.354111 0.149322 0.289717
457 1 0.397981 0.0937453 0.200879
460 1 0.400542 0.156317 0.244802
658 1 0.4391 0.154597 0.298272
464 1 0.492062 0.143773 0.247612
462 1 0.545449 0.142314 0.194571
468 1 0.590232 0.152116 0.248271
662 1 0.545694 0.151507 0.299832
705 1 0.592954 0.197732 0.295936
466 1 0.644141 0.141893 0.193731
507 1 0.640396 0.190089 0.251854
709 1 0.701168 0.199079 0.290761
472 1 0.691331 0.146038 0.252442
471 1 0.747701 0.0983436 0.249067
670 1 0.739403 0.143343 0.30011
511 1 0.754105 0.201751 0.251016
517 1 0.897374 0.211187 0.201324
673 1 0.796977 0.0862962 0.295355
476 1 0.796906 0.146096 0.249349
480 1 0.906023 0.149415 0.243886
479 1 0.953326 0.103626 0.260062
478 1 0.952546 0.151223 0.198427
678 1 0.955268 0.149772 0.308042
519 1 0.94365 0.202024 0.253092
681 1 0.988617 0.210631 0.294821
483 1 0.0494709 0.200912 0.256381
685 1 0.0931958 0.199616 0.305128
682 1 0.0586323 0.260616 0.296712
487 1 0.147248 0.190663 0.250669
486 1 0.150276 0.254368 0.204716
488 1 0.105301 0.251197 0.257965
729 1 0.212487 0.290834 0.303607
686 1 0.148101 0.253341 0.307882
491 1 0.253473 0.205141 0.254262
492 1 0.200014 0.253338 0.252687
496 1 0.303592 0.248576 0.249769
493 1 0.303196 0.204568 0.204123
495 1 0.351201 0.198141 0.235665
494 1 0.347575 0.254021 0.193356
500 1 0.394297 0.259989 0.235835
693 1 0.308677 0.196174 0.30233
497 1 0.398024 0.203978 0.189546
541 1 0.498984 0.296857 0.192207
499 1 0.445796 0.210257 0.241543
504 1 0.497199 0.251481 0.249258
503 1 0.540083 0.197411 0.247625
543 1 0.545272 0.301115 0.239842
508 1 0.601805 0.247376 0.257223
512 1 0.705578 0.24571 0.246699
547 1 0.646784 0.292679 0.253043
706 1 0.647441 0.244768 0.303021
745 1 0.593399 0.29712 0.297708
510 1 0.752476 0.248806 0.201782
516 1 0.802379 0.246624 0.242855
551 1 0.739612 0.305527 0.244549
710 1 0.742747 0.252334 0.29937
753 1 0.794212 0.295354 0.292416
713 1 0.795237 0.195148 0.300995
515 1 0.859258 0.190934 0.250756
520 1 0.89295 0.252497 0.250979
717 1 0.892395 0.200528 0.303421
484 1 0.00286293 0.262295 0.245864
559 1 0.94558 0.301344 0.255627
523 1 0.0538611 0.29803 0.247168
722 1 0.0508466 0.351145 0.306672
526 1 0.152851 0.339513 0.203718
529 1 0.20191 0.294015 0.201155
528 1 0.107585 0.343272 0.258
527 1 0.149305 0.298111 0.257248
532 1 0.197249 0.338755 0.258849
530 1 0.24267 0.34436 0.199574
531 1 0.251776 0.291654 0.247857
536 1 0.295116 0.342762 0.254774
534 1 0.339039 0.349001 0.198032
535 1 0.345792 0.297839 0.246077
540 1 0.407805 0.348561 0.24613
737 1 0.419443 0.305996 0.292889
539 1 0.450601 0.297328 0.238306
577 1 0.394422 0.400278 0.20072
579 1 0.450127 0.399702 0.251222
542 1 0.544118 0.355786 0.202927
544 1 0.489156 0.349716 0.246981
742 1 0.551506 0.345711 0.303087
581 1 0.4971 0.399223 0.207583
585 1 0.594073 0.405821 0.190177
545 1 0.601093 0.29452 0.194155
548 1 0.596293 0.3559 0.243231
587 1 0.647352 0.39819 0.244856
552 1 0.697545 0.351386 0.250066
556 1 0.800103 0.357335 0.252037
591 1 0.746731 0.399235 0.252829
793 1 0.802723 0.402732 0.29932
555 1 0.837952 0.299423 0.247153
595 1 0.849345 0.397134 0.251786
560 1 0.896607 0.351307 0.245121
754 1 0.835286 0.351024 0.299514
558 1 0.945912 0.352335 0.19956
521 1 0.00437034 0.308681 0.192824
524 1 0.991991 0.359209 0.253064
599 1 0.942199 0.399468 0.246512
758 1 0.948362 0.353851 0.306231
761 1 0.000921939 0.40489 0.31064
563 1 0.0528488 0.399646 0.257229
568 1 0.0990022 0.452987 0.247395
762 1 0.0492826 0.452112 0.295311
968 1 0.101164 0.445181 0.442344
566 1 0.148521 0.450384 0.209229
567 1 0.147911 0.397333 0.247308
766 1 0.147201 0.446376 0.297577
765 1 0.0994678 0.400132 0.300126
570 1 0.247529 0.457831 0.19835
572 1 0.202596 0.447913 0.255644
569 1 0.201237 0.393211 0.211305
571 1 0.260296 0.398256 0.254829
576 1 0.301288 0.451336 0.253074
770 1 0.252714 0.447055 0.301735
962 1 0.0531712 0.451591 0.389571
573 1 0.297148 0.397415 0.20459
773 1 0.31451 0.395319 0.300169
575 1 0.347525 0.398571 0.248787
774 1 0.354978 0.459598 0.304868
231 1 0.75443 0.00339534 0.150589
809 1 0.200328 0.00645964 0.385987
781 1 0.509164 0.3973 0.297003
578 1 0.448098 0.445388 0.205499
580 1 0.397599 0.448848 0.254059
584 1 0.50791 0.45124 0.247961
423 1 0.547222 0.00324 0.24761
582 1 0.552391 0.454587 0.195663
583 1 0.554777 0.409349 0.24085
782 1 0.549825 0.452249 0.299689
588 1 0.600641 0.452398 0.259342
1057 1 0.40102 0.0928981 0.498122
997 1 0.900756 0.395314 0.39841
785 1 0.59714 0.390795 0.30013
821 1 0.497428 0.00238963 0.393781
138 1 0.444483 0.350724 0.00648285
958 1 0.95226 0.354706 0.396991
592 1 0.705038 0.447381 0.247731
596 1 0.811689 0.445585 0.249939
790 1 0.755474 0.45511 0.299724
1070 1 0.745027 0.145275 0.490632
794 1 0.851062 0.453456 0.302623
600 1 0.906672 0.448712 0.250433
564 1 5.04623e-05 0.447092 0.253273
602 1 0.0439032 0.0441473 0.306688
604 1 0.999565 0.0477098 0.35763
645 1 0.0906083 0.0948099 0.303784
802 1 0.0492784 0.0646043 0.402808
45 1 0.105392 0.101371 0.00610141
606 1 0.146765 0.0557479 0.315626
608 1 0.0923175 0.0550014 0.353162
806 1 0.147293 0.0480826 0.395243
612 1 0.201616 0.0637009 0.349961
845 1 0.105447 0.106611 0.40046
921 1 0.996948 0.307542 0.402342
961 1 0.014238 0.397407 0.39478
924 1 0.00317398 0.358814 0.458397
649 1 0.20231 0.110462 0.302787
616 1 0.299596 0.0459014 0.3402
810 1 0.245438 0.0568655 0.398118
999 1 0.954533 0.402964 0.452007
2623 1 0.54876 0.49846 0.348924
814 1 0.344145 0.0495071 0.40699
620 1 0.408679 0.0460549 0.350444
655 1 0.350195 0.103221 0.342127
2819 1 0.451455 0.492514 0.446689
618 1 0.453606 0.0415819 0.293265
624 1 0.488494 0.0430755 0.344209
857 1 0.394945 0.0951196 0.401784
818 1 0.452943 0.0471269 0.407063
861 1 0.494462 0.101664 0.392529
628 1 0.595699 0.0551032 0.340997
663 1 0.549267 0.0968238 0.345853
865 1 0.593037 0.0949725 0.390803
822 1 0.539288 0.0556827 0.398539
1074 1 0.849959 0.148622 0.491232
669 1 0.689392 0.0991051 0.298035
826 1 0.648145 0.0561728 0.393534
632 1 0.695489 0.053546 0.354164
667 1 0.643629 0.101139 0.342124
995 1 0.850972 0.402148 0.450415
98 1 0.444331 0.252441 0.00118331
869 1 0.697594 0.101228 0.403161
830 1 0.748669 0.0517102 0.390075
2825 1 0.594923 0.492802 0.391337
636 1 0.799551 0.0453848 0.342641
675 1 0.850582 0.102948 0.357419
834 1 0.855029 0.0486981 0.389856
1081 1 0.999897 0.203824 0.498502
960 1 0.900688 0.357099 0.44872
237 1 0.906595 0.00166468 0.10284
94 1 0.347938 0.24916 0.00502726
823 1 0.542513 0.00433165 0.456117
640 1 0.899053 0.0504536 0.346512
638 1 0.951812 0.0471771 0.30499
877 1 0.900362 0.106616 0.398431
641 1 0.00406264 0.0992919 0.308895
643 1 0.0487528 0.103233 0.349295
648 1 0.0939308 0.153676 0.352099
644 1 0.993002 0.155376 0.360042
646 1 0.149646 0.153707 0.308959
647 1 0.15313 0.10734 0.357011
687 1 0.135412 0.204431 0.3527
652 1 0.202829 0.148416 0.357252
689 1 0.189964 0.204007 0.30614
651 1 0.258327 0.102113 0.351411
853 1 0.304576 0.105716 0.405771
850 1 0.252484 0.155488 0.400345
656 1 0.30397 0.156976 0.35479
849 1 0.192593 0.102048 0.402819
854 1 0.353918 0.148988 0.408308
659 1 0.446031 0.10582 0.352148
660 1 0.401372 0.149271 0.354205
897 1 0.407888 0.203464 0.40594
699 1 0.455371 0.204752 0.360001
665 1 0.593351 0.106997 0.294043
664 1 0.498424 0.154343 0.355208
862 1 0.549773 0.147601 0.399115
668 1 0.592213 0.155246 0.349529
701 1 0.493891 0.202025 0.305834
666 1 0.645964 0.148602 0.299073
672 1 0.691541 0.142263 0.340557
866 1 0.64081 0.14636 0.394297
909 1 0.692046 0.205751 0.396148
671 1 0.743098 0.0999006 0.352205
870 1 0.751333 0.148058 0.400754
676 1 0.789903 0.141771 0.344799
711 1 0.740414 0.193273 0.354617
674 1 0.842701 0.142552 0.298546
677 1 0.898496 0.105202 0.298639
679 1 0.943953 0.101804 0.349448
680 1 0.897255 0.148507 0.352735
719 1 0.939621 0.206641 0.352461
878 1 0.94496 0.154197 0.401801
683 1 0.0398541 0.204254 0.341529
723 1 0.0491816 0.300956 0.351676
885 1 0.100056 0.202038 0.404587
688 1 0.0901494 0.252974 0.356446
886 1 0.148543 0.253605 0.40387
690 1 0.258375 0.248818 0.303706
889 1 0.195811 0.200733 0.403059
692 1 0.19968 0.249491 0.356024
691 1 0.257993 0.206398 0.349815
890 1 0.252428 0.253136 0.413908
694 1 0.353217 0.249406 0.289875
696 1 0.313676 0.248957 0.351746
695 1 0.355992 0.195841 0.343761
894 1 0.356021 0.252467 0.403394
697 1 0.401779 0.205241 0.285294
700 1 0.403263 0.241197 0.351522
698 1 0.443493 0.245142 0.305267
898 1 0.452097 0.248607 0.40129
704 1 0.496654 0.25424 0.349055
703 1 0.544599 0.200896 0.354193
702 1 0.5398 0.25342 0.302739
707 1 0.645678 0.19726 0.346191
708 1 0.591729 0.245179 0.343956
749 1 0.697011 0.297467 0.3022
906 1 0.646833 0.255212 0.394024
712 1 0.695838 0.256808 0.346572
716 1 0.793337 0.240829 0.350162
751 1 0.753813 0.304049 0.346084
714 1 0.84841 0.251808 0.300433
715 1 0.841351 0.18469 0.34458
757 1 0.889255 0.295502 0.298133
684 1 0.00451679 0.255786 0.346815
720 1 0.894593 0.257196 0.352855
718 1 0.938837 0.254166 0.295557
759 1 0.953006 0.295414 0.354936
728 1 0.101481 0.354176 0.350854
763 1 0.0513213 0.401719 0.339373
969 1 0.194278 0.392139 0.394932
725 1 0.101976 0.303952 0.315033
726 1 0.151374 0.349216 0.308668
727 1 0.153559 0.304749 0.358616
926 1 0.146601 0.356221 0.405461
732 1 0.20407 0.347234 0.34621
767 1 0.146075 0.415564 0.348979
769 1 0.196506 0.398917 0.302527
730 1 0.254696 0.34582 0.307353
731 1 0.250491 0.288648 0.363457
929 1 0.203983 0.292623 0.408703
771 1 0.24837 0.393102 0.353131
733 1 0.304389 0.296196 0.296651
735 1 0.370938 0.290804 0.340356
933 1 0.305561 0.302447 0.396597
736 1 0.305994 0.341979 0.347475
734 1 0.356862 0.34118 0.299674
973 1 0.296053 0.406036 0.400359
738 1 0.455503 0.358068 0.306236
937 1 0.40668 0.301988 0.395426
739 1 0.446856 0.29931 0.346462
740 1 0.398586 0.35267 0.351033
779 1 0.449344 0.409623 0.351978
741 1 0.497349 0.296593 0.29862
941 1 0.499664 0.301024 0.399849
744 1 0.498927 0.348937 0.347238
743 1 0.549419 0.298606 0.350091
748 1 0.595799 0.361296 0.3576
746 1 0.651836 0.358169 0.295379
747 1 0.637241 0.298867 0.340444
752 1 0.699433 0.345671 0.348673
993 1 0.803333 0.398697 0.405487
750 1 0.745265 0.351253 0.29096
953 1 0.799494 0.297241 0.392118
756 1 0.797866 0.359314 0.344777
755 1 0.839739 0.300107 0.340581
760 1 0.890942 0.351253 0.344784
954 1 0.845144 0.349863 0.392786
795 1 0.848747 0.403284 0.349783
721 1 0.993177 0.307481 0.29358
724 1 0.00340722 0.345978 0.347022
799 1 0.948881 0.405108 0.353856
991 1 0.751756 0.394653 0.444636
768 1 0.0986386 0.45499 0.338635
764 1 0.997823 0.456629 0.353497
3005 1 0.102081 0.4944 0.494217
950 1 0.747208 0.350668 0.400261
1173 1 0.298583 0.398014 0.497147
772 1 0.2068 0.460933 0.344378
776 1 0.299648 0.450512 0.345196
956 1 0.79691 0.344254 0.441866
61 1 0.50084 0.100912 0.0020507
775 1 0.3485 0.401231 0.349615
777 1 0.397933 0.40231 0.300507
780 1 0.395567 0.454606 0.354138
1073 1 0.802777 0.0956103 0.493291
74 1 0.852078 0.155515 0.0018106
145 1 0.59842 0.297624 0.000233803
778 1 0.45574 0.449546 0.300422
784 1 0.499876 0.448253 0.343651
783 1 0.543622 0.399455 0.35417
2 1 0.0526538 0.0565973 0.00155165
2615 1 0.349534 0.495025 0.354838
786 1 0.64659 0.449453 0.301535
789 1 0.696969 0.403641 0.294472
788 1 0.593694 0.439249 0.348451
986 1 0.662937 0.449571 0.391975
787 1 0.645199 0.393623 0.351548
989 1 0.701795 0.399705 0.386564
948 1 0.592051 0.358441 0.448634
946 1 0.645385 0.349659 0.405344
791 1 0.752026 0.398713 0.342267
792 1 0.704995 0.449991 0.345655
990 1 0.754044 0.446639 0.399638
623 1 0.541204 0.00261322 0.346883
796 1 0.797138 0.452507 0.349212
800 1 0.903698 0.446248 0.350281
998 1 0.949348 0.450002 0.401239
3029 1 0.700328 0.498044 0.496192
797 1 0.892632 0.399097 0.30061
798 1 0.94583 0.446551 0.303012
2025 1 0.600606 0.494353 0.00339516
203 1 0.0445928 0.00570206 0.147207
945 1 0.593785 0.301046 0.396331
843 1 0.0474971 0.111586 0.450113
804 1 0.00648001 0.0488881 0.449652
952 1 0.694825 0.350271 0.446507
18 1 0.452312 0.0466257 0.00147892
943 1 0.54908 0.300368 0.447887
942 1 0.540079 0.345777 0.395422
808 1 0.100035 0.0702976 0.453718
847 1 0.158362 0.102611 0.453802
73 1 0.796064 0.104298 0.0115265
812 1 0.200048 0.0468535 0.445247
1010 1 0.252716 0.0522049 0.495731
1038 1 0.949658 0.0472859 0.496262
816 1 0.297137 0.0428843 0.451112
820 1 0.400245 0.0433767 0.447102
11 1 0.25033 0.0084819 0.0509105
963 1 0.0529496 0.400568 0.455928
859 1 0.449548 0.0979446 0.450367
824 1 0.500182 0.0516222 0.447333
828 1 0.598697 0.0559747 0.444394
863 1 0.547329 0.0982112 0.44833
832 1 0.68942 0.0526981 0.442799
867 1 0.644342 0.100834 0.443157
178 1 0.447074 0.454861 0.00488955
944 1 0.494582 0.344589 0.45112
2435 1 0.854809 0.499793 0.242429
2415 1 0.342518 0.499888 0.244167
922 1 0.0472357 0.349856 0.40043
836 1 0.802609 0.0429195 0.452109
875 1 0.849975 0.0957039 0.446142
2803 1 0.0534655 0.494982 0.440394
939 1 0.443406 0.302131 0.452904
838 1 0.947706 0.0440385 0.400347
840 1 0.896228 0.0472159 0.438067
917 1 0.895474 0.204334 0.401937
842 1 0.0427204 0.146708 0.398181
841 1 0.986992 0.0992459 0.400592
957 1 0.889292 0.302848 0.3948
938 1 0.454062 0.354436 0.398606
1146 1 0.651905 0.347229 0.497317
848 1 0.0984301 0.149676 0.453263
846 1 0.151639 0.156148 0.401614
935 1 0.354996 0.298712 0.441547
910 1 0.753562 0.249332 0.405024
893 1 0.303577 0.210919 0.400405
951 1 0.75106 0.302187 0.446296
851 1 0.250683 0.103492 0.446242
852 1 0.200598 0.145895 0.455139
932 1 0.203034 0.345231 0.44756
855 1 0.353733 0.0992825 0.451487
856 1 0.301962 0.152044 0.454252
965 1 0.0956933 0.398307 0.394879
884 1 0.00339806 0.248746 0.447954
858 1 0.449587 0.148392 0.403404
860 1 0.403397 0.153778 0.4517
864 1 0.50377 0.151757 0.456459
903 1 0.551356 0.19777 0.449825
868 1 0.595537 0.143643 0.451572
959 1 0.952146 0.295974 0.447134
2417 1 0.398992 0.492224 0.20326
907 1 0.646459 0.19528 0.446959
625 1 0.595362 0.00400815 0.300817
918 1 0.943183 0.251619 0.398171
979 1 0.449068 0.387771 0.458345
913 1 0.795609 0.194819 0.399271
872 1 0.694159 0.15119 0.447569
871 1 0.741363 0.0983223 0.444764
911 1 0.742167 0.196958 0.441594
874 1 0.839218 0.144505 0.404549
915 1 0.854613 0.200023 0.450304
873 1 0.805617 0.0845841 0.398539
876 1 0.793438 0.145224 0.447389
977 1 0.400714 0.399915 0.39363
919 1 0.952429 0.206179 0.448883
881 1 0.996839 0.206253 0.39948
844 1 0.000226872 0.156944 0.4487
879 1 0.947944 0.0959518 0.446678
880 1 0.893608 0.146608 0.446672
914 1 0.845252 0.252677 0.402872
882 1 0.0461743 0.249339 0.402787
883 1 0.0494929 0.196237 0.453566