ITEM: TIMESTEP
22500
ITEM: NUMBER OF ATOMS
864
ITEM: BOX BOUNDS pp pp pp
0.0000000000000000e+00 3.1559999999999999e+01
0.0000000000000000e+00 3.1559999999999999e+01
0.0000000000000000e+00 3.1559999999999999e+01
ITEM: ATOMS id type xs ys zs
27 1 0.0850968 0.17642 0.0791746
4 1 0.0132522 0.0792449 0.0947891
193 1 0.982663 0.329848 0.336462
8 1 0.159592 0.0853709 0.0758897
78 1 0.257233 0.0933662 0.144969
12 1 0.320751 0.0883937 0.0621482
82 1 0.409772 0.0859063 0.158206
16 1 0.484331 0.0723002 0.0597708
18 1 0.743561 0.0706756 -0.000976224
216 1 0.828011 0.432707 0.426197
113 1 0.653022 0.159398 0.159462
39 1 0.579631 0.146133 0.0734038
669 1 0.847639 0.505099 0.506836
523 1 0.739456 0.514068 0.256351
61 1 0.505136 0.350161 0.0108542
20 1 0.653618 0.0761996 0.0807352
43 1 0.754818 0.185028 0.103884
90 1 0.760266 0.0841549 0.17248
196 1 0.00127608 0.413219 0.418827
24 1 0.826752 0.0837306 0.0757265
47 1 0.910611 0.165656 0.0843907
277 1 0.511522 0.334374 0.499119
593 1 0.668158 0.506865 0.342037
97 1 0.0140332 0.164452 0.153354
23 1 0.937442 -0.00149188 0.0809232
51 1 0.0874161 0.35096 0.105166
98 1 0.0811288 0.27338 0.164915
28 1 -7.39559e-05 0.254831 0.0839625
222 1 0.241017 0.100986 0.491987
31 1 0.227538 0.175671 0.0789804
32 1 0.158215 0.252821 0.0980349
36 1 0.346056 0.251596 0.0921967
55 1 0.266167 0.317977 0.104676
35 1 0.399558 0.156968 0.0689922
106 1 0.42852 0.253591 0.158377
59 1 0.431664 0.338152 0.0900755
40 1 0.515 0.231252 0.0748023
105 1 0.336311 0.169294 0.169096
249 1 0.321037 0.171582 0.506987
44 1 0.657465 0.238836 0.0810397
278 1 0.594794 0.410053 0.49665
67 1 0.745173 0.33446 0.0867118
114 1 0.748701 0.264356 0.166199
141 1 0.836408 0.329243 0.185078
519 1 0.567259 0.495886 0.253499
48 1 0.828658 0.252535 0.0950598
71 1 0.905648 0.335797 0.090257
121 1 0.994837 0.342187 0.168652
45 1 0.814584 0.165464 0.000345617
122 1 0.085061 0.419918 0.185514
274 1 0.433643 0.414665 0.506425
56 1 0.171505 0.413961 0.0937326
60 1 0.339069 0.410974 0.0839761
214 1 0.911379 0.425062 0.32964
125 1 0.17249 0.341881 0.180045
447 1 0.597803 0.508771 0.0839026
133 1 0.51484 0.317861 0.167569
64 1 0.505502 0.417173 0.0953262
217 1 0.997083 0.00706663 0.494149
63 1 0.593017 0.328807 0.0827021
68 1 0.659976 0.407175 0.0955733
455 1 0.913777 0.504634 0.0840032
138 1 0.743181 0.418596 0.173754
73 1 0.009429 0.00466232 0.175362
46 1 0.906148 0.242784 0.00718539
66 1 0.733453 0.432163 0.0147407
72 1 0.812987 0.422936 0.0867071
52 1 0.990264 0.420051 0.0828771
142 1 0.906028 0.42005 0.169247
591 1 0.581041 0.500128 0.414565
74 1 0.0870619 0.0768698 0.176603
80 1 0.170008 0.100915 0.25643
99 1 0.0868149 0.173925 0.258072
101 1 0.141635 0.166909 0.172992
103 1 0.258905 0.173563 0.254014
11 1 0.391223 0.000648394 0.0784781
109 1 0.491117 0.166554 0.154868
89 1 0.66286 0.00473989 0.158306
84 1 0.329851 0.0975593 0.247854
107 1 0.417413 0.159416 0.235606
181 1 0.497842 0.162418 0.323183
86 1 0.571074 0.0771799 0.15985
88 1 0.489781 0.0882846 0.241871
111 1 0.582967 0.163359 0.249487
218 1 0.0767496 0.101269 0.495405
210 1 0.762339 0.425287 0.326738
85 1 0.488627 0.00730731 0.16782
81 1 0.330132 0.0127007 0.166319
92 1 0.675661 0.0848919 0.235147
96 1 0.834602 0.0906605 0.258348
115 1 0.746258 0.178813 0.24706
94 1 0.928292 0.089629 0.161935
76 1 0.0055754 0.09518 0.248006
123 1 0.059835 0.335882 0.250158
170 1 0.0946167 0.244395 0.341196
173 1 0.17281 0.173637 0.337614
102 1 0.248153 0.230834 0.167738
104 1 0.163872 0.256711 0.256049
108 1 0.344874 0.243146 0.246246
112 1 0.524118 0.251596 0.261802
131 1 0.416894 0.327226 0.237818
110 1 0.589915 0.247749 0.162672
135 1 0.587002 0.333716 0.258057
117 1 0.837318 0.161667 0.174414
116 1 0.658923 0.242761 0.250071
137 1 0.65965 0.333299 0.173087
139 1 0.757316 0.336282 0.277006
100 1 0.0109209 0.244658 0.247425
118 1 0.932942 0.249154 0.161315
119 1 0.932725 0.160102 0.24371
120 1 0.830775 0.240039 0.24079
143 1 0.924292 0.327154 0.251022
149 1 0.172307 0.0140353 0.327169
212 1 0.697139 0.404747 0.430762
128 1 0.173238 0.429003 0.258623
197 1 0.155046 0.335356 0.336359
124 1 -0.0162894 0.417 0.247568
129 1 0.344282 0.330599 0.165436
127 1 0.247503 0.334154 0.252607
126 1 0.254335 0.412457 0.160085
198 1 0.259282 0.41877 0.319195
661 1 0.503774 0.496883 0.511122
130 1 0.419556 0.412989 0.178383
132 1 0.32804 0.408288 0.235383
136 1 0.503595 0.400842 0.251487
201 1 0.346463 0.324898 0.318613
134 1 0.575291 0.405403 0.168828
165 1 0.828488 0.0101128 0.339124
517 1 0.500984 0.50112 0.168955
206 1 0.601041 0.411404 0.337049
581 1 0.171402 0.49493 0.341426
155 1 0.422606 0.00368725 0.415823
140 1 0.6698 0.421266 0.245475
144 1 0.843477 0.421775 0.24623
599 1 0.92215 0.494774 0.413024
202 1 0.414742 0.406872 0.335259
200 1 0.178823 0.403661 0.413991
146 1 0.0833462 0.08397 0.331529
169 1 1.00952 0.166731 0.330133
171 1 0.0798673 0.171846 0.411881
204 1 0.351002 0.4243 0.422585
150 1 0.262284 0.0977906 0.338699
152 1 0.171257 0.0910513 0.414578
156 1 0.335917 0.0771309 0.423218
203 1 0.406885 0.323722 0.414189
435 1 0.0690643 0.499159 0.0807351
154 1 0.414311 0.091672 0.334837
160 1 0.504321 0.0796088 0.410216
69 1 0.828174 0.332292 0.00231901
151 1 0.237277 -0.00182917 0.426844
158 1 0.594347 0.0741273 0.332908
183 1 0.583474 0.16748 0.428801
164 1 0.658292 0.0776871 0.4308
162 1 0.738503 0.0889548 0.326221
168 1 0.80667 0.0897587 0.435039
189 1 0.833793 0.152964 0.344089
148 1 1.0044 0.0897463 0.412278
166 1 0.918208 0.0904359 0.327994
172 1 -0.00544409 0.250235 0.406517
195 1 0.0854473 0.332608 0.411665
176 1 0.182151 0.255744 0.416339
174 1 0.261974 0.257299 0.327143
175 1 0.254066 0.183647 0.412289
180 1 0.341605 0.243056 0.414481
205 1 0.502622 0.335051 0.344776
177 1 0.342244 0.177847 0.332202
179 1 0.430276 0.148534 0.427176
178 1 0.423778 0.242481 0.328541
184 1 0.498945 0.251957 0.427292
182 1 0.587265 0.253983 0.355317
207 1 0.58578 0.338431 0.414099
209 1 0.665065 0.325735 0.336791
188 1 0.669353 0.262359 0.433559
211 1 0.758072 0.324552 0.417387
185 1 0.659023 0.159888 0.335336
187 1 0.720395 0.153495 0.42574
186 1 0.765777 0.250019 0.341448
213 1 0.842102 0.336441 0.331046
190 1 0.925617 0.229431 0.326987
215 1 0.912691 0.339668 0.427079
191 1 0.911909 0.172876 0.428444
192 1 0.848747 0.251159 0.406288
194 1 0.0773467 0.415699 0.337076
208 1 0.505812 0.410755 0.424684
199 1 0.257838 0.329155 0.405823
77 1 0.160622 -0.000965598 0.168527
57 1 0.340279 0.330283 0.00718953
145 1 1.00438 0.00922209 0.342851
93 1 0.846071 -0.00802402 0.147998
49 1 0.98823 0.333969 0.0115473
25 1 -0.00514305 0.165982 0.0194094
157 1 0.487097 -0.00266775 0.323689
83 1 0.412734 0.00921985 0.244603
577 1 -0.0129931 0.501181 0.330379
50 1 0.081813 0.410827 0.00150546
246 1 0.261105 0.262773 0.494466
585 1 0.344216 0.501542 0.328175
58 1 0.426046 0.426545 0.0135712
79 1 0.238988 -0.00668278 0.243638
505 1 1.00553 0.496432 0.164168
91 1 0.771347 -0.0107788 0.237835
54 1 0.241109 0.407389 0.00792068
583 1 0.253985 0.486411 0.411741
19 1 0.749124 6.57229e-05 0.0862668
167 1 0.908198 0.0146099 0.426393
15 1 0.572382 -0.00354841 0.0754579
589 1 0.498568 0.494154 0.343694
153 1 0.333038 -0.000939826 0.322326
3 1 0.0935453 -0.0071748 0.0794771
53 1 0.169337 0.33905 0.0263598
437 1 0.150497 0.510394 0.0102887
42 1 0.752838 0.254689 0.00854
41 1 0.675255 0.16158 0.000965846
653 1 0.151082 0.481939 0.490281
245 1 0.168186 0.183382 0.49655
65 1 0.662129 0.346725 0.00895131
14 1 0.584363 0.0591457 -0.00935922
70 1 0.904233 0.42345 0.00885803
261 1 0.828288 0.175676 0.512137
269 1 0.168802 0.333885 0.496855
34 1 0.426974 0.254697 0.0143187
270 1 0.26482 0.406519 0.484054
6 1 0.232392 0.0939396 -0.0213663
441 1 0.341301 0.498198 0.0105298
241 1 0.999667 0.181944 0.495981
26 1 0.0810103 0.267862 0.0112243
62 1 0.588868 0.424327 0.0118596
242 1 0.0891134 0.24676 0.504819
220 1 1.00331 0.0942187 0.56998
224 1 0.155909 0.0820562 0.574393
723 1 0.0905551 0.494683 0.749656
295 1 0.257677 0.0106804 0.753198
367 1 0.241015 0.00548076 0.913197
651 1 0.0923504 0.500571 0.573984
228 1 0.343381 0.0880744 0.585464
727 1 0.257098 0.497258 0.746057
361 1 0.977119 -0.00518211 0.853682
294 1 0.226734 0.0729463 0.668944
799 1 0.261911 0.480279 0.925447
232 1 0.501405 0.0773566 0.598367
811 1 0.73425 0.500501 0.924555
298 1 0.422573 0.0704092 0.680267
369 1 0.319487 0.00570175 0.847851
431 1 0.90223 0.331727 0.904068
793 1 -0.0005214 0.502681 0.843581
302 1 0.573068 0.0778411 0.671681
739 1 0.762729 0.510673 0.741427
2 1 0.0891152 0.0945386 0.999727
236 1 0.655193 0.0751508 0.582264
306 1 0.749438 0.0868872 0.671165
223 1 0.255164 -0.00472936 0.5778
240 1 0.824058 0.0797174 0.593377
263 1 0.924943 0.184842 0.582608
333 1 0.84269 0.168283 0.678509
291 1 0.0864397 -0.00959616 0.755275
226 1 0.416571 0.0737487 0.499709
243 1 0.0828382 0.168749 0.577719
267 1 0.0803549 0.328789 0.585076
248 1 0.180791 0.260526 0.570638
807 1 0.581038 0.514336 0.926478
247 1 0.236137 0.16267 0.582828
252 1 0.349184 0.258744 0.582233
237 1 0.829319 0.00244048 0.494967
38 1 0.584455 0.238052 0.991434
803 1 0.424576 0.507765 0.921888
251 1 0.41242 0.166161 0.570856
813 1 0.831351 0.504713 0.829147
322 1 0.415225 0.240624 0.663684
255 1 0.592707 0.174547 0.592731
325 1 0.486137 0.16645 0.669212
256 1 0.501681 0.249768 0.585928
279 1 0.585007 0.334932 0.589349
326 1 0.565384 0.249795 0.674589
655 1 0.235479 0.49349 0.561934
721 1 0.00756014 0.510998 0.671954
383 1 0.918903 -0.00778064 0.936695
259 1 0.743249 0.165064 0.589571
260 1 0.668299 0.250877 0.606346
329 1 0.66879 0.154893 0.670153
293 1 0.156845 -0.00942681 0.653813
244 1 0.999039 0.255074 0.585204
264 1 0.837565 0.253652 0.591442
287 1 0.909493 0.32723 0.58166
334 1 0.913187 0.268801 0.67647
337 1 -0.00800095 0.350793 0.654304
219 1 0.0699734 0.0102651 0.56931
365 1 0.172794 0.00155684 0.816744
268 1 1.00472 0.428048 0.585426
301 1 0.513262 -0.027886 0.658813
659 1 0.422741 0.502838 0.588258
271 1 0.264102 0.338454 0.581977
272 1 0.160721 0.405417 0.581984
416 1 0.166505 0.414295 0.923684
410 1 0.0946792 0.437019 0.844065
275 1 0.41924 0.349829 0.590614
276 1 0.328646 0.42639 0.577861
346 1 0.399408 0.427345 0.665407
430 1 0.908545 0.420715 0.833748
280 1 0.511462 0.411059 0.595525
350 1 0.587103 0.419016 0.673803
409 1 -0.0123692 0.330833 0.837485
412 1 0.994207 0.403374 0.915194
283 1 0.753006 0.335826 0.595409
284 1 0.656481 0.428516 0.585269
432 1 0.827372 0.407129 0.914593
398 1 0.580313 0.251549 0.852795
288 1 0.825569 0.409806 0.59279
357 1 0.829787 0.344454 0.681734
429 1 0.817901 0.341245 0.823128
425 1 0.658757 0.33139 0.840361
428 1 0.662557 0.425827 0.927625
254 1 0.581005 0.25024 0.499482
729 1 0.329497 0.506061 0.660274
290 1 0.0775513 0.0933685 0.660422
362 1 0.0641811 0.0743682 0.842692
388 1 0.993057 0.267412 0.925456
30 1 0.253429 0.269301 1.01194
296 1 0.155677 0.0943623 0.736005
300 1 0.33118 0.080477 0.743703
394 1 0.412651 0.243326 0.826788
29 1 0.167968 0.189613 0.990311
370 1 0.397638 0.0775012 0.82127
397 1 0.519126 0.170225 0.839334
725 1 0.182959 0.5026 0.655636
663 1 0.582647 0.507895 0.586232
304 1 0.514345 0.0735352 0.763344
327 1 0.570716 0.17675 0.753423
374 1 0.590639 0.076033 0.828044
308 1 0.672255 0.0815996 0.75472
378 1 0.747086 0.0796879 0.827058
396 1 0.350837 0.25025 0.939895
423 1 0.58569 0.342643 0.929515
310 1 0.913864 0.0848841 0.669272
313 1 -0.014155 0.164499 0.667678
292 1 1.00421 0.0890035 0.75556
312 1 0.837069 0.0810144 0.75605
335 1 0.916592 0.156217 0.754708
314 1 0.0780688 0.232383 0.662814
315 1 0.0751821 0.158684 0.775397
317 1 0.171999 0.172835 0.660771
386 1 0.0884846 0.259213 0.823802
318 1 0.262489 0.253205 0.646453
320 1 0.159303 0.249072 0.745737
319 1 0.244136 0.177986 0.742218
321 1 0.319759 0.169337 0.646853
324 1 0.32745 0.260785 0.739744
345 1 0.350118 0.325978 0.66818
323 1 0.426892 0.159944 0.749297
347 1 0.410784 0.33784 0.753735
328 1 0.495867 0.256842 0.772109
330 1 0.762055 0.251281 0.661727
331 1 0.77121 0.160676 0.755282
332 1 0.674973 0.24513 0.728355
336 1 0.83249 0.263199 0.753554
355 1 0.733201 0.339346 0.757824
316 1 1.00332 0.252332 0.74104
359 1 0.912317 0.336243 0.75956
406 1 0.917495 0.245649 0.83439
424 1 0.504742 0.432086 0.930343
338 1 0.0741557 0.417932 0.658852
339 1 0.0864083 0.336686 0.74171
341 1 0.180408 0.319121 0.663884
413 1 0.167644 0.330924 0.830778
421 1 0.511113 0.353384 0.833194
342 1 0.239633 0.4155 0.662631
343 1 0.254822 0.345073 0.746783
344 1 0.165426 0.422074 0.754269
348 1 0.335792 0.421374 0.746396
400 1 0.493496 0.275761 0.917699
352 1 0.494699 0.429728 0.752084
349 1 0.488539 0.328467 0.668166
420 1 0.354546 0.42812 0.918536
418 1 0.422659 0.422494 0.827362
390 1 0.245684 0.259048 0.816948
422 1 0.590645 0.421015 0.819311
351 1 0.58639 0.329514 0.750722
415 1 0.268783 0.339305 0.92855
414 1 0.264919 0.405538 0.839829
353 1 0.670292 0.33552 0.667356
426 1 0.741328 0.420341 0.845305
354 1 0.745926 0.419454 0.668486
356 1 0.675872 0.42353 0.760607
360 1 0.839336 0.41831 0.754135
358 1 0.918988 0.42437 0.661915
340 1 0.000175337 0.41434 0.745781
391 1 0.253093 0.196771 0.907379
368 1 0.15839 0.101788 0.900043
408 1 0.826608 0.251404 0.910006
393 1 0.326342 0.172345 0.815518
366 1 0.241836 0.0948022 0.823408
417 1 0.335248 0.321023 0.829209
372 1 0.310399 0.0956662 0.905744
289 1 -0.00797862 -0.00488542 0.670956
395 1 0.424867 0.16845 0.910076
402 1 0.737268 0.255187 0.825073
404 1 0.670184 0.249936 0.928614
419 1 0.409667 0.3391 0.897985
376 1 0.513149 0.0768559 0.904292
399 1 0.589359 0.145531 0.933039
389 1 0.165912 0.182079 0.821088
797 1 0.197368 0.500645 0.839189
401 1 0.671146 0.16554 0.82976
405 1 0.826948 0.160069 0.8431
380 1 0.680627 0.0753326 0.917928
384 1 0.829732 0.0748523 0.916883
411 1 0.0734863 0.336961 0.910023
385 1 0.994122 0.177541 0.841179
382 1 0.919588 0.0982451 0.842488
407 1 0.912074 0.166757 0.926668
364 1 1.00743 0.108153 0.940954
403 1 0.755963 0.164555 0.917738
387 1 0.0893021 0.190242 0.914681
392 1 0.167983 0.278432 0.933147
427 1 0.74649 0.327701 0.904449
257 1 0.664687 0.173908 0.506951
33 1 0.330163 0.166663 0.993435
239 1 0.912801 0.0202396 0.575098
311 1 0.912844 -0.010747 0.755744
281 1 0.668686 0.331401 0.518118
1 1 0.00755994 0.00524586 0.998052
250 1 0.431785 0.253151 0.501593
9 1 0.317061 0.0244417 0.983198
262 1 0.902443 0.255661 0.50329
37 1 0.505412 0.163468 0.984819
286 1 0.93108 0.415876 0.506365
265 1 0.998244 0.324405 0.481423
253 1 0.502227 0.14891 0.505116
10 1 0.408809 0.0834321 0.982111
258 1 0.740592 0.256202 0.513615
285 1 0.816423 0.332384 0.512587
282 1 0.749142 0.416909 0.517219
22 1 0.921452 0.0794314 1.01719
273 1 0.345335 0.328958 0.503589
266 1 0.08736 0.398604 0.499972
453 1 0.817377 0.509499 1.00474
234 1 0.736075 0.0829893 0.514582
230 1 0.575294 0.0626841 0.506232
238 1 0.901111 0.0926221 0.50427
440 1 0.174865 0.583507 0.0847088
436 1 0.999348 0.581154 0.102244
506 1 0.0889312 0.569886 0.163807
525 1 0.826204 0.510003 0.164143
444 1 0.348921 0.591008 0.08362
685 1 0.503708 0.669277 0.49019
21 1 0.824883 0.98599 0.0152263
493 1 0.491114 0.843055 0.00104247
514 1 0.429763 0.592435 0.171617
595 1 0.746529 0.503309 0.428999
497 1 0.665514 0.840046 0.0143761
541 1 0.493877 0.675004 0.164712
448 1 0.499077 0.597956 0.0875906
471 1 0.579453 0.68772 0.0778472
545 1 0.658757 0.66073 0.174788
445 1 0.501603 0.501377 0.0114034
452 1 0.667631 0.59875 0.0886671
706 1 0.412193 0.921093 0.488206
673 1 0.0127667 0.648141 0.50238
456 1 0.836491 0.590159 0.0884024
628 1 1.00126 0.923442 0.432571
526 1 0.903165 0.588026 0.166743
459 1 0.0750522 0.6474 0.0797884
460 1 0.0203468 0.748027 0.101009
464 1 0.159962 0.727379 0.0800594
529 1 1.00176 0.667619 0.169604
463 1 0.250193 0.657086 0.0756261
468 1 0.325792 0.743532 0.0770289
534 1 0.258102 0.742406 0.153437
467 1 0.418922 0.664077 0.0779979
538 1 0.409367 0.748215 0.163209
502 1 0.938929 0.912857 0.0107085
75 1 0.084846 1.00285 0.256687
472 1 0.489718 0.747671 0.0764496
476 1 0.663231 0.749164 0.102168
542 1 0.577935 0.758624 0.172844
549 1 0.822815 0.670571 0.167498
475 1 0.743455 0.66892 0.0840291
480 1 0.831957 0.737749 0.0789662
546 1 0.751049 0.750416 0.164044
697 1 0.990845 0.830705 0.501167
479 1 0.930414 0.666996 0.0794225
507 1 0.0833962 0.491609 0.26078
550 1 0.924535 0.741084 0.156056
483 1 0.086877 0.83017 0.0903823
95 1 0.908343 1.00803 0.2539
509 1 0.180398 0.507603 0.173096
488 1 0.170264 0.916959 0.0840798
487 1 0.239963 0.820483 0.0757277
557 1 0.166127 0.821105 0.16819
492 1 0.324978 0.924146 0.0711669
161 1 0.684283 0.996985 0.325294
558 1 0.24857 0.912839 0.155121
491 1 0.404941 0.837061 0.0828685
562 1 0.409335 0.934541 0.169961
561 1 0.316823 0.831462 0.151823
587 1 0.431358 0.489877 0.428414
495 1 0.586594 0.842379 0.101022
565 1 0.486369 0.829215 0.156508
579 1 0.0757705 0.491626 0.411088
496 1 0.47949 0.922022 0.0824076
500 1 0.663696 0.916597 0.0981174
499 1 0.754956 0.834252 0.0907904
504 1 0.853242 0.895105 0.0748861
87 1 0.567535 1.00999 0.249036
515 1 0.435338 0.488681 0.254044
503 1 0.928673 0.821422 0.0797708
484 1 0.00793246 0.923094 0.0935019
689 1 0.661874 0.661755 0.493135
686 1 0.569896 0.757185 0.487457
512 1 0.173409 0.579705 0.260946
533 1 0.177358 0.660481 0.166282
531 1 0.105727 0.665038 0.248067
578 1 0.0902181 0.585734 0.332329
510 1 0.250169 0.58194 0.161928
535 1 0.247416 0.65886 0.252012
516 1 0.330761 0.584136 0.237581
609 1 0.327034 0.681374 0.318951
582 1 0.25806 0.574025 0.33283
644 1 0.675333 0.913367 0.409292
539 1 0.406284 0.670499 0.237121
520 1 0.508522 0.589731 0.253252
518 1 0.565686 0.582435 0.159736
617 1 0.667061 0.673466 0.337668
590 1 0.577279 0.576792 0.332956
524 1 0.661393 0.584481 0.254657
522 1 0.746866 0.594788 0.169965
547 1 0.749357 0.68873 0.255155
508 1 1.00421 0.574732 0.250377
528 1 0.829442 0.587368 0.254465
551 1 0.9108 0.669773 0.242593
598 1 0.918143 0.59817 0.329269
530 1 0.0961304 0.750537 0.183296
536 1 0.1894 0.756145 0.246259
555 1 0.0680436 0.828181 0.243866
553 1 0.00259925 0.838126 0.154467
559 1 0.266078 0.841061 0.260137
606 1 0.261921 0.758631 0.334466
537 1 0.329591 0.663809 0.154897
540 1 0.315951 0.754912 0.235804
610 1 0.41397 0.754424 0.324657
563 1 0.394506 0.831375 0.24395
544 1 0.492735 0.76371 0.249462
543 1 0.580358 0.662547 0.259394
637 1 0.494545 0.837635 0.324997
567 1 0.577037 0.848451 0.246163
548 1 0.652443 0.7516 0.250007
645 1 0.821699 0.818047 0.335212
571 1 0.749144 0.823589 0.245593
552 1 0.850048 0.763806 0.250439
618 1 0.743687 0.75389 0.341245
573 1 0.834574 0.82203 0.158037
532 1 0.990212 0.759991 0.23409
622 1 0.922106 0.753271 0.33058
575 1 0.926842 0.839392 0.26348
625 1 1.00321 0.839312 0.332884
648 1 0.826045 0.936406 0.413406
554 1 0.0974413 0.913873 0.180569
560 1 0.161754 0.918534 0.274068
511 1 0.261076 0.492886 0.247695
630 1 0.252339 0.914647 0.330415
564 1 0.335217 0.934577 0.243703
634 1 0.409685 0.915371 0.337014
568 1 0.489896 0.911258 0.249202
566 1 0.575177 0.929501 0.175271
569 1 0.674893 0.834343 0.169028
572 1 0.6858 0.927778 0.248581
642 1 0.764088 0.906456 0.324276
662 1 0.574309 0.579812 0.482358
570 1 0.778953 0.915101 0.158821
576 1 0.839891 0.90473 0.256907
646 1 0.93057 0.920435 0.330374
639 1 0.579223 0.832729 0.405716
705 1 0.336896 0.827851 0.494344
147 1 0.0860533 1.01424 0.426242
556 1 1.00742 0.910044 0.242091
574 1 0.920135 0.915066 0.157011
713 1 0.654539 0.831907 0.490487
605 1 0.168253 0.680331 0.341424
584 1 0.160004 0.579412 0.414224
580 1 -0.0137905 0.565661 0.412863
443 1 0.424272 0.506937 0.0934188
588 1 0.346949 0.58107 0.409717
607 1 0.269041 0.66397 0.41183
640 1 0.505773 0.91025 0.416574
586 1 0.412825 0.589414 0.325965
611 1 0.418656 0.672832 0.406788
638 1 0.57823 0.924436 0.335622
592 1 0.497337 0.573482 0.405769
613 1 0.486796 0.672222 0.315019
615 1 0.580658 0.674701 0.400869
596 1 0.666939 0.596594 0.406556
594 1 0.75449 0.588403 0.327365
619 1 0.752799 0.661941 0.400866
632 1 0.16856 0.926049 0.398537
636 1 0.332891 0.910876 0.420268
623 1 0.93776 0.660455 0.426357
600 1 0.846539 0.575163 0.418462
621 1 0.836303 0.686169 0.32829
602 1 0.0778922 0.748092 0.320326
627 1 0.102592 0.830227 0.410522
603 1 0.0820996 0.667505 0.405848
608 1 0.181159 0.754732 0.405793
641 1 0.655893 0.844622 0.318377
629 1 0.182948 0.834173 0.336401
631 1 0.259034 0.833841 0.418416
612 1 0.342638 0.747067 0.409314
657 1 0.33671 0.510263 0.494155
633 1 0.336512 0.832801 0.340386
616 1 0.490506 0.754495 0.404574
626 1 0.0778483 0.909935 0.348994
451 1 0.735551 0.513536 0.0809023
614 1 0.575611 0.751325 0.32617
635 1 0.420377 0.831777 0.408823
604 1 0.0128274 0.744906 0.4068
624 1 0.837412 0.741421 0.428469
620 1 0.667682 0.756872 0.412504
643 1 0.748844 0.818586 0.430944
498 1 0.736045 0.908185 0.0108249
601 1 0.00561969 0.680419 0.290203
647 1 0.901772 0.838859 0.40641
527 1 0.907873 0.506743 0.250826
159 1 0.582677 0.998624 0.404453
658 1 0.426242 0.587358 0.500105
163 1 0.741764 1.00705 0.420555
434 1 0.0667834 0.583799 0.00366267
597 1 0.835809 0.507628 0.33517
7 1 0.239613 1.0064 0.0835625
702 1 0.230736 0.90799 0.491862
17 1 0.673497 0.989892 0.00320874
513 1 0.33405 0.499649 0.162764
225 1 0.333287 1.00547 0.499814
681 1 0.342706 0.658657 0.498666
494 1 0.576433 0.921281 9.46401e-05
709 1 0.497587 0.830714 0.493174
521 1 0.650374 0.502534 0.183068
439 1 0.243666 0.501946 0.0856849
665 1 0.670967 0.500301 0.500217
649 1 0.00483752 0.495907 0.503919
654 1 0.245755 0.573663 0.48355
718 1 0.909871 0.911152 0.480299
450 1 0.748393 0.592531 0.00883652
678 1 0.270955 0.744741 0.506807
433 1 0.989972 0.497591 -7.52581e-05
677 1 0.19319 0.678103 0.483473
714 1 0.75981 0.913342 0.502226
473 1 0.657597 0.665624 0.00653581
449 1 0.658745 0.506755 -0.00230371
650 1 0.100074 0.578553 0.502514
690 1 0.735155 0.736309 0.492031
674 1 0.0883985 0.755991 0.48055
710 1 0.585759 0.904931 0.498793
481 1 0.0220128 0.815635 0.00343282
666 1 0.742639 0.581896 0.502099
454 1 0.912087 0.591146 0.00716926
474 1 0.743309 0.747707 0.00551569
675 1 0.0940509 0.654256 0.592716
233 1 0.67135 0.986097 0.51441
861 1 0.831863 0.823191 0.843272
371 1 0.420598 1.00597 0.900663
656 1 0.183967 0.580627 0.582639
660 1 0.343944 0.57549 0.584278
466 1 0.41299 0.75489 0.981923
741 1 0.829426 0.501239 0.664939
735 1 0.570499 0.509718 0.753696
683 1 0.408768 0.666843 0.582799
664 1 0.495266 0.578738 0.584129
698 1 0.0761017 0.918417 0.506453
309 1 0.838141 0.987198 0.675467
668 1 0.673578 0.57425 0.590859
734 1 0.58036 0.594478 0.664951
485 1 0.165867 0.822981 0.99498
379 1 0.773603 0.99193 0.920624
672 1 0.829017 0.570668 0.58766
691 1 0.745667 0.664281 0.581132
738 1 0.74684 0.584196 0.659931
761 1 0.665391 0.663331 0.666393
765 1 0.825906 0.666682 0.655011
652 1 0.0127477 0.572983 0.581956
742 1 0.923529 0.581297 0.656425
695 1 0.90661 0.677635 0.595851
307 1 0.752632 0.993968 0.760084
676 1 0.0153958 0.74303 0.575329
486 1 0.247856 0.927372 0.998312
805 1 0.517799 0.504303 0.838092
679 1 0.265937 0.660261 0.578091
680 1 0.183316 0.730652 0.583821
773 1 0.160261 0.846401 0.65511
750 1 0.247077 0.743059 0.677227
684 1 0.322007 0.7539 0.600752
754 1 0.410153 0.744899 0.667408
753 1 0.335271 0.668922 0.680145
231 1 0.576724 0.987155 0.579402
688 1 0.507283 0.726991 0.577942
687 1 0.586041 0.656333 0.570866
692 1 0.665913 0.737028 0.568369
758 1 0.587675 0.746192 0.673566
715 1 0.752082 0.827725 0.557254
762 1 0.740248 0.738382 0.666904
696 1 0.811968 0.742522 0.562691
719 1 0.912348 0.833247 0.58209
769 1 0.99287 0.824255 0.662651
733 1 0.515272 0.506343 0.665911
667 1 0.747499 0.494819 0.587224
815 1 0.909202 0.495239 0.919893
699 1 0.0692158 0.841654 0.584659
700 1 0.982623 0.916637 0.580712
770 1 0.0773389 0.928485 0.67659
489 1 0.330302 0.828355 0.999861
777 1 0.335695 0.824032 0.676267
704 1 0.16916 0.915498 0.577684
703 1 0.24688 0.81964 0.579224
708 1 0.330301 0.910438 0.589617
381 1 0.838177 0.995898 0.83478
707 1 0.418258 0.824786 0.577846
778 1 0.419124 0.902597 0.661953
737 1 0.661441 0.492863 0.676869
711 1 0.576322 0.823011 0.578168
712 1 0.498521 0.909256 0.580015
781 1 0.498428 0.809579 0.667763
864 1 0.852349 0.915232 0.921863
716 1 0.674287 0.896279 0.579472
786 1 0.755287 0.91068 0.673154
731 1 0.416648 0.510368 0.756059
720 1 0.835053 0.908546 0.575723
790 1 0.907877 0.904065 0.670242
717 1 0.843226 0.817015 0.49672
745 1 1.00346 0.659181 0.657704
749 1 0.176689 0.654365 0.677463
722 1 0.0981162 0.574187 0.671695
724 1 1.00479 0.572365 0.760548
747 1 0.0836593 0.659327 0.739532
821 1 0.171431 0.666028 0.825483
794 1 0.0981903 0.570661 0.839072
726 1 0.254075 0.588532 0.669281
728 1 0.169012 0.57263 0.756658
798 1 0.264851 0.581379 0.842028
730 1 0.421678 0.577377 0.664688
377 1 0.678373 0.997612 0.836263
732 1 0.332202 0.567174 0.744599
736 1 0.493793 0.584655 0.759595
859 1 0.73982 0.836639 0.923422
740 1 0.673982 0.577952 0.753001
806 1 0.5928 0.600963 0.823817
461 1 0.161416 0.653228 1.00456
303 1 0.586533 0.980205 0.749316
744 1 0.834937 0.58228 0.733962
817 1 0.0134706 0.650714 0.820918
767 1 0.908557 0.663237 0.7234
438 1 0.246736 0.568211 1.00284
746 1 0.0824246 0.742473 0.663439
748 1 -0.00611683 0.743168 0.742649
771 1 0.0778191 0.836108 0.734776
818 1 0.0724864 0.743374 0.824877
751 1 0.253929 0.659907 0.760922
752 1 0.164372 0.741522 0.751537
822 1 0.253648 0.745411 0.834583
775 1 0.253182 0.846263 0.738201
757 1 0.496398 0.667804 0.659277
756 1 0.325852 0.747444 0.756497
755 1 0.414595 0.666882 0.763313
760 1 0.49033 0.743651 0.746252
829 1 0.508986 0.674846 0.838869
759 1 0.575634 0.68245 0.745054
783 1 0.581691 0.828705 0.744336
764 1 0.661996 0.745865 0.750561
833 1 0.657319 0.68371 0.836886
830 1 0.581084 0.767134 0.829536
789 1 0.826122 0.808933 0.6567
763 1 0.748585 0.668045 0.755614
787 1 0.753311 0.817629 0.74367
837 1 0.827951 0.661733 0.825677
766 1 0.919037 0.747294 0.664584
768 1 0.831014 0.74607 0.744058
838 1 0.916744 0.7222 0.812271
791 1 0.911344 0.821511 0.748555
841 1 0.991146 0.822594 0.825445
845 1 0.176976 0.837033 0.827002
774 1 0.245304 0.931776 0.670529
776 1 0.163712 0.909905 0.756832
846 1 0.247596 0.920249 0.846269
780 1 0.325546 0.922503 0.776314
779 1 0.421521 0.82562 0.747157
850 1 0.419682 0.921772 0.823633
784 1 0.486643 0.918449 0.74106
855 1 0.592702 0.831014 0.922934
782 1 0.581327 0.892496 0.658121
854 1 0.588287 0.900006 0.826448
853 1 0.498717 0.831096 0.821274
857 1 0.67316 0.837829 0.843361
785 1 0.674628 0.819206 0.65874
788 1 0.661144 0.903204 0.731607
858 1 0.758854 0.908717 0.833869
792 1 0.83545 0.892459 0.751524
305 1 0.640044 0.98607 0.65958
860 1 0.67564 0.923936 0.914399
375 1 0.587518 0.994712 0.912629
482 1 0.0714094 0.91631 1.01005
772 1 0.989432 0.915407 0.746484
862 1 0.912955 0.89404 0.846077
795 1 0.0690486 0.514552 0.925461
743 1 0.911462 0.497622 0.741852
800 1 0.166315 0.573798 0.924688
796 1 0.994533 0.596569 0.910114
819 1 0.0936599 0.655312 0.911838
801 1 0.337324 0.492387 0.820758
849 1 0.323649 0.828975 0.826473
299 1 0.407806 0.997458 0.739425
804 1 0.341705 0.588225 0.922136
863 1 0.922636 0.821711 0.930733
809 1 0.660458 0.498171 0.842292
802 1 0.418081 0.58494 0.837874
808 1 0.508498 0.59108 0.90887
852 1 0.333379 0.928005 0.919313
851 1 0.406144 0.839376 0.904721
840 1 0.830973 0.747213 0.919822
848 1 0.154394 0.911865 0.90528
373 1 0.509904 0.979103 0.825695
812 1 0.669532 0.58634 0.926855
810 1 0.75908 0.577697 0.83437
835 1 0.744258 0.6673 0.922805
816 1 0.832383 0.590587 0.916947
847 1 0.243295 0.843359 0.916117
820 1 0.996291 0.750956 0.905935
814 1 0.912276 0.589543 0.829562
839 1 0.903725 0.670858 0.907619
832 1 0.498491 0.766034 0.914523
856 1 0.500566 0.912482 0.912274
842 1 0.0780111 0.90038 0.816953
843 1 0.0850547 0.818121 0.906364
824 1 0.182004 0.745408 0.910439
825 1 0.328007 0.670278 0.838639
836 1 0.671113 0.74741 0.921204
828 1 0.317643 0.753978 0.921566
823 1 0.240367 0.657559 0.924863
834 1 0.751476 0.746373 0.839763
827 1 0.42142 0.680879 0.911313
826 1 0.40165 0.752943 0.834886
844 1 1.01365 0.907722 0.925036
831 1 0.575919 0.677413 0.925402
235 1 0.74844 0.992642 0.603271
671 1 0.91729 0.500341 0.582363
5 1 0.168543 1.00477 0.997751
363 1 0.0870943 0.994948 0.914873
694 1 0.92517 0.738134 0.506506
297 1 0.336752 1.00155 0.655233
227 1 0.427048 0.99509 0.592321
478 1 0.901308 0.739588 1.00053
465 1 0.33229 0.661573 1.00087
501 1 0.818138 0.824493 0.998285
490 1 0.409556 0.9346 0.997079
470 1 0.59065 0.761712 1.00537
446 1 0.577243 0.59414 1.0065
670 1 0.927542 0.578769 0.508027
477 1 0.822294 0.663572 0.996285
458 1 0.0957288 0.745763 0.997231
701 1 0.149742 0.841982 0.504054
469 1 0.496847 0.677357 0.991241
229 1 0.49664 0.994748 0.500727
693 1 0.835301 0.645658 0.503767
457 1 0.00971693 0.677902 0.995276
462 1 0.238324 0.735008 0.999775
13 1 0.497611 0.996632 0.985128
442 1 0.420813 0.59187 0.983334
682 1 0.423997 0.754992 0.495691
221 1 0.16336 1.00319 0.498322
