ITEM: TIMESTEP
21200
ITEM: NUMBER OF ATOMS
864
ITEM: BOX BOUNDS pp pp pp
0.0000000000000000e+00 3.1559999999999999e+01
0.0000000000000000e+00 3.1559999999999999e+01
0.0000000000000000e+00 3.1559999999999999e+01
ITEM: ATOMS id type xs ys zs
27 1 0.0861256 0.164107 0.0776818
4 1 -0.000924796 0.0778473 0.0794002
53 1 0.157088 0.335101 0.00855379
8 1 0.162232 0.0792698 0.0921075
31 1 0.247058 0.164848 0.0838929
78 1 0.240053 0.080705 0.172478
242 1 0.0754852 0.254645 0.501923
12 1 0.338424 0.0693587 0.0776144
82 1 0.416532 0.0841694 0.164969
16 1 0.525799 0.082471 0.083737
585 1 0.339616 0.509993 0.336967
35 1 0.424285 0.164821 0.0868613
85 1 0.501883 0.0185593 0.179287
20 1 0.667018 0.0835208 0.0801605
109 1 0.511639 0.165183 0.160529
43 1 0.745014 0.171522 0.0849866
24 1 0.842206 0.0853054 0.0803649
25 1 0.997238 0.16789 0.00206085
30 1 0.257775 0.244337 0.00255021
47 1 0.925303 0.173947 0.079496
579 1 0.0817352 0.501127 0.408846
145 1 0.986915 0.0177694 0.332161
29 1 0.161791 0.166685 0.00559293
32 1 0.160277 0.249233 0.0851598
51 1 0.0868708 0.343048 0.0818107
98 1 0.0802027 0.24835 0.177382
87 1 0.580467 0.00772804 0.243001
513 1 0.34373 0.504117 0.165636
101 1 0.163117 0.172576 0.161249
102 1 0.254947 0.251195 0.155912
36 1 0.348229 0.242542 0.0983614
106 1 0.418586 0.25128 0.16783
129 1 0.345622 0.3272 0.170441
59 1 0.414728 0.326982 0.0778545
113 1 0.665879 0.166693 0.170328
40 1 0.505761 0.24706 0.0734869
39 1 0.603881 0.160916 0.0834467
110 1 0.590176 0.248249 0.168057
63 1 0.589534 0.324334 0.0714862
44 1 0.664388 0.245979 0.0873136
48 1 0.841056 0.251704 0.0852224
147 1 0.0639472 0.00393033 0.397762
28 1 1.01823 0.256764 0.091326
507 1 0.0935375 0.498906 0.263138
509 1 0.170424 0.497759 0.16572
56 1 0.168858 0.418482 0.0734334
55 1 0.251203 0.340176 0.0805619
60 1 0.330587 0.415602 0.0820627
595 1 0.781177 0.497807 0.418786
521 1 0.678848 0.493459 0.155301
133 1 0.520848 0.340307 0.161961
581 1 0.17163 0.505857 0.352618
64 1 0.498755 0.407822 0.0637838
214 1 0.9033 0.413615 0.330564
130 1 0.41361 0.415203 0.160817
134 1 0.593943 0.431298 0.15872
67 1 0.753694 0.329482 0.0892977
68 1 0.667036 0.39768 0.0798069
72 1 0.83545 0.412374 0.0869349
138 1 0.74508 0.399782 0.175461
71 1 0.923884 0.345371 0.0889043
52 1 0.997576 0.429082 0.09041
142 1 0.915715 0.415005 0.17333
121 1 0.00904044 0.342359 0.176973
527 1 0.917706 0.508905 0.249993
74 1 0.0741346 0.100031 0.169338
146 1 0.0711638 0.100116 0.331852
589 1 0.518154 0.503909 0.323575
167 1 0.905885 0.00911984 0.428055
80 1 0.152756 0.0783253 0.24279
91 1 0.745405 -0.00940321 0.254272
84 1 0.329423 0.0886581 0.247574
107 1 0.42079 0.168181 0.239985
154 1 0.399895 0.0897744 0.326141
149 1 0.1809 0.00515251 0.322777
155 1 0.414695 -0.0030876 0.431605
86 1 0.588404 0.0845212 0.172696
88 1 0.491613 0.0967116 0.254728
92 1 0.660332 0.095848 0.272241
158 1 0.567171 0.104966 0.344144
90 1 0.758318 0.0810326 0.171146
213 1 0.81891 0.335615 0.334536
96 1 0.837335 0.0792758 0.247701
97 1 0.997004 0.169456 0.186122
443 1 0.417099 0.497741 0.0735631
94 1 0.9111 0.0894223 0.160087
76 1 0.994638 0.0887768 0.244402
99 1 0.0894094 0.164941 0.252583
100 1 1.00235 0.248954 0.267044
104 1 0.172265 0.252672 0.248517
123 1 0.0891919 0.323176 0.265406
170 1 0.0904055 0.237159 0.326382
103 1 0.243088 0.164527 0.238228
105 1 0.324502 0.150413 0.15745
125 1 0.158508 0.33608 0.159782
127 1 0.245065 0.334278 0.247454
108 1 0.331469 0.241703 0.245071
111 1 0.577431 0.168772 0.248242
112 1 0.51078 0.246055 0.256305
182 1 0.585951 0.264262 0.339023
117 1 0.836079 0.178055 0.161492
115 1 0.751617 0.159013 0.248758
114 1 0.740153 0.251852 0.175878
116 1 0.667397 0.252786 0.253943
118 1 0.926583 0.244461 0.161907
119 1 0.907907 0.167838 0.251093
120 1 0.838087 0.258799 0.247457
190 1 0.896676 0.23815 0.34076
216 1 0.831047 0.406441 0.418336
122 1 0.0876166 0.418526 0.168754
194 1 0.0904569 0.402229 0.333623
128 1 0.176333 0.41543 0.242449
126 1 0.249329 0.424638 0.162165
198 1 0.250953 0.40348 0.339278
132 1 0.338215 0.415074 0.264884
207 1 0.579343 0.355688 0.414322
197 1 0.168083 0.326548 0.334917
18 1 0.743311 0.0659616 -0.00465573
131 1 0.429309 0.34846 0.254414
136 1 0.513762 0.422751 0.245335
202 1 0.416201 0.420572 0.331688
205 1 0.50709 0.344554 0.342309
212 1 0.67918 0.425243 0.425046
206 1 0.58532 0.416316 0.328965
135 1 0.592022 0.332464 0.248142
140 1 0.662132 0.42358 0.258873
211 1 0.734095 0.333444 0.408045
451 1 0.752766 0.502282 0.0725957
137 1 0.663335 0.33206 0.169081
139 1 0.74724 0.335675 0.26119
144 1 0.828512 0.410855 0.245505
141 1 0.839137 0.319855 0.166492
143 1 0.919481 0.330137 0.257068
193 1 -0.0108399 0.331949 0.340085
124 1 1.00906 0.435849 0.264929
447 1 0.597821 0.484914 0.0745349
10 1 0.443525 0.0822831 -0.000710086
22 1 0.91733 0.0886777 -0.000183685
150 1 0.253344 0.0829241 0.318516
152 1 0.175387 0.0751731 0.415499
583 1 0.247848 0.510518 0.42439
177 1 0.326504 0.171682 0.325465
156 1 0.331412 0.076482 0.415698
179 1 0.402038 0.170958 0.424892
210 1 0.749641 0.411606 0.339814
209 1 0.659682 0.336384 0.332823
525 1 0.822333 0.498759 0.16764
160 1 0.485929 0.0918296 0.424288
164 1 0.658103 0.0800764 0.415036
523 1 0.744741 0.49745 0.244081
208 1 0.488152 0.42722 0.40995
262 1 0.920344 0.26224 0.498198
185 1 0.659247 0.172165 0.348638
162 1 0.742923 0.0754011 0.339704
168 1 0.815547 0.0796798 0.420855
187 1 0.742293 0.161964 0.40922
511 1 0.260528 0.493774 0.248835
148 1 0.997132 0.0840784 0.420984
166 1 0.912292 0.08996 0.329215
191 1 0.899751 0.173363 0.428218
171 1 0.0861029 0.172941 0.421143
195 1 0.0748237 0.326227 0.411502
176 1 0.162283 0.240151 0.399749
204 1 0.337712 0.431276 0.408198
173 1 0.178991 0.153391 0.332835
174 1 0.262494 0.254228 0.337444
175 1 0.261348 0.156676 0.412778
180 1 0.32414 0.244965 0.424298
591 1 0.585946 0.498384 0.415824
201 1 0.338414 0.335932 0.350614
178 1 0.39765 0.255768 0.325169
203 1 0.412837 0.340351 0.432588
241 1 1.00009 0.163248 0.496662
181 1 0.484936 0.169008 0.336223
188 1 0.661489 0.258125 0.414971
184 1 0.488424 0.25257 0.412877
183 1 0.57804 0.188937 0.416965
199 1 0.258077 0.336913 0.424813
200 1 0.162137 0.409472 0.423674
186 1 0.747616 0.252117 0.336315
192 1 0.815972 0.250788 0.420269
189 1 0.821854 0.151073 0.329868
215 1 0.91647 0.323459 0.417319
172 1 -0.000587801 0.252983 0.422896
169 1 0.993268 0.178531 0.342023
196 1 -4.89824e-05 0.429257 0.412788
230 1 0.574029 0.0843058 0.496573
33 1 0.332469 0.168421 0.0108515
70 1 0.916821 0.415643 -0.00486253
50 1 0.0724921 0.419342 0.00365617
217 1 0.993449 0.007004 0.499893
245 1 0.18211 0.169156 0.486954
69 1 0.829945 0.339765 0.00692835
41 1 0.664934 0.149305 -0.00229505
6 1 0.247387 0.0866009 0.00641814
2 1 0.082729 0.078301 -0.00530917
229 1 0.496239 -0.00495848 0.493983
220 1 1.00227 0.0887832 0.580411
224 1 0.144435 0.0934106 0.587858
58 1 0.412857 0.405909 1.00202
223 1 0.24727 -0.00619419 0.590792
247 1 0.244671 0.149196 0.592744
432 1 0.836003 0.421455 0.915212
228 1 0.336348 0.0851069 0.599632
232 1 0.50014 0.0837685 0.578082
251 1 0.415398 0.163517 0.586079
255 1 0.579282 0.167806 0.582915
723 1 0.0898541 0.513975 0.755487
266 1 0.0796712 0.417188 0.507783
325 1 0.483436 0.157573 0.674459
813 1 0.834041 0.506552 0.841746
236 1 0.655594 0.0934785 0.586059
240 1 0.817083 0.0795944 0.578573
263 1 0.914038 0.188807 0.587262
258 1 0.751837 0.241866 0.505101
21 1 0.84724 0.0162537 0.996482
310 1 0.910167 0.0921793 0.648863
412 1 0.00848301 0.419422 0.925998
243 1 0.0776424 0.178125 0.569692
314 1 0.0870403 0.247359 0.665217
267 1 0.0982637 0.31948 0.589456
61 1 0.496102 0.321064 0.999997
248 1 0.169636 0.24581 0.578932
271 1 0.256592 0.322792 0.583569
318 1 0.240993 0.247287 0.671703
361 1 0.999377 0.00904237 0.829985
252 1 0.325597 0.236077 0.575657
275 1 0.407946 0.331993 0.59578
345 1 0.326237 0.336218 0.673409
256 1 0.495116 0.26278 0.582345
279 1 0.579988 0.337721 0.593825
326 1 0.570813 0.246604 0.655346
303 1 0.59144 -0.00970365 0.747589
259 1 0.744874 0.164819 0.591936
260 1 0.660042 0.257093 0.586439
45 1 0.820218 0.146087 0.998025
330 1 0.749956 0.249228 0.658244
353 1 0.671711 0.325958 0.662228
313 1 1.00109 0.174674 0.659754
244 1 1.00525 0.259354 0.582631
264 1 0.831295 0.257384 0.589118
293 1 0.1583 0.0102433 0.652899
66 1 0.763509 0.413843 0.99086
338 1 0.0917343 0.419808 0.674467
270 1 0.241896 0.427548 0.497446
273 1 0.323718 0.333541 0.504016
272 1 0.171648 0.397654 0.58336
285 1 0.83932 0.339835 0.49413
342 1 0.253581 0.40839 0.679406
725 1 0.178121 0.508685 0.665221
276 1 0.336679 0.4121 0.57516
346 1 0.414595 0.412485 0.677065
425 1 0.675272 0.348507 0.821762
426 1 0.748311 0.417036 0.832938
809 1 0.661378 0.500763 0.82043
280 1 0.485192 0.421612 0.58933
246 1 0.250921 0.24921 0.489154
46 1 0.916329 0.245174 1.00285
283 1 0.752509 0.334236 0.571719
284 1 0.669554 0.422465 0.590346
288 1 0.840806 0.425521 0.59052
354 1 0.739568 0.421817 0.666735
375 1 0.581917 -0.00417464 0.921431
226 1 0.413926 0.0727743 0.50935
268 1 0.991869 0.417821 0.583599
287 1 0.909555 0.338155 0.586949
427 1 0.773361 0.316652 0.907362
290 1 0.079142 0.100037 0.659502
292 1 -0.000462533 0.0894729 0.740324
296 1 0.176093 0.0807674 0.752793
362 1 0.07289 0.0861133 0.8357
294 1 0.247041 0.076513 0.672492
389 1 0.152838 0.160854 0.849858
366 1 0.247394 0.0781702 0.843169
298 1 0.41589 0.0733351 0.683659
65 1 0.678 0.333419 0.992197
300 1 0.331114 0.0781956 0.760253
304 1 0.505008 0.0808782 0.743292
323 1 0.420721 0.17606 0.758232
370 1 0.417261 0.0877149 0.829255
302 1 0.574752 0.0743933 0.661302
327 1 0.596397 0.18596 0.749351
329 1 0.661209 0.179396 0.667209
737 1 0.670475 0.50676 0.673378
308 1 0.667481 0.0813655 0.731989
306 1 0.740127 0.0822335 0.656728
331 1 0.749143 0.158016 0.741618
405 1 0.834287 0.159244 0.835296
805 1 0.50393 0.495654 0.822514
312 1 0.827833 0.0871375 0.747427
335 1 0.915737 0.177013 0.750958
315 1 0.0859502 0.164341 0.760747
317 1 0.180739 0.164483 0.689883
339 1 0.0798483 0.336608 0.744449
341 1 0.170613 0.326032 0.675863
413 1 0.161006 0.328898 0.834019
320 1 0.167336 0.243405 0.759826
319 1 0.27054 0.166828 0.759315
343 1 0.242213 0.335591 0.762853
417 1 0.336649 0.329377 0.824111
322 1 0.414857 0.244457 0.665972
321 1 0.338186 0.161401 0.673785
324 1 0.331156 0.246579 0.744028
394 1 0.437865 0.245531 0.835035
393 1 0.346666 0.183295 0.830246
328 1 0.504418 0.241022 0.734887
332 1 0.680531 0.256401 0.745354
333 1 0.822481 0.16993 0.674782
334 1 0.908322 0.252646 0.674241
337 1 1.01097 0.341598 0.654194
316 1 0.0134225 0.250885 0.750788
336 1 0.830371 0.240306 0.756373
359 1 0.923558 0.338296 0.755245
409 1 0.0108515 0.330246 0.83396
369 1 0.318425 -0.00156129 0.858032
344 1 0.159669 0.418184 0.767573
348 1 0.328931 0.416247 0.751341
222 1 0.233169 0.0801784 0.514561
347 1 0.415726 0.318883 0.74653
352 1 0.495516 0.410607 0.756812
349 1 0.499477 0.344807 0.661773
422 1 0.588393 0.407584 0.830882
350 1 0.587655 0.417873 0.655137
351 1 0.588095 0.317029 0.74272
357 1 0.830174 0.329579 0.676019
421 1 0.509881 0.324395 0.829457
356 1 0.658053 0.417381 0.737487
355 1 0.75222 0.338462 0.749287
360 1 0.839749 0.414157 0.746977
428 1 0.670978 0.414692 0.915365
358 1 0.919504 0.41043 0.67957
340 1 -0.00430077 0.429587 0.766101
430 1 0.917788 0.415318 0.834098
418 1 0.418241 0.396433 0.830154
305 1 0.654584 -0.000542589 0.662933
385 1 -0.00574052 0.168147 0.836799
277 1 0.506812 0.338504 0.502884
371 1 0.425487 0.0180955 0.913613
368 1 0.168354 0.0819962 0.934831
391 1 0.233496 0.161352 0.920513
289 1 0.99648 0.012892 0.661673
372 1 0.330468 0.0973427 0.923061
376 1 0.513333 0.0970902 0.912525
395 1 0.410494 0.164713 0.921722
57 1 0.332992 0.336973 1.00381
62 1 0.586933 0.405575 0.993323
374 1 0.583807 0.0763812 0.827909
380 1 0.66806 0.0716596 0.918132
416 1 0.159295 0.407634 0.919953
414 1 0.245247 0.41188 0.844429
378 1 0.746085 0.0669549 0.82163
401 1 0.669493 0.168402 0.823521
382 1 0.915289 0.0928797 0.813109
424 1 0.507258 0.414558 0.898023
407 1 0.909178 0.145751 0.910074
384 1 0.81835 0.0778346 0.900032
364 1 0.99645 0.0849219 0.910088
386 1 0.0854708 0.248675 0.840337
411 1 0.0854371 0.324141 0.918539
387 1 0.0674224 0.164907 0.926135
392 1 0.167678 0.255193 0.924063
278 1 0.591886 0.4357 0.509528
269 1 0.157776 0.326821 0.488075
415 1 0.254207 0.333674 0.917812
390 1 0.241957 0.258184 0.838871
396 1 0.325093 0.242336 0.923158
397 1 0.508721 0.171654 0.824895
420 1 0.339541 0.411366 0.907092
419 1 0.41465 0.327101 0.921799
721 1 0.00791226 0.506493 0.669398
741 1 0.821261 0.499855 0.671896
363 1 0.0854827 0.000182581 0.910343
398 1 0.594386 0.266252 0.830618
399 1 0.577832 0.170043 0.927598
400 1 0.495803 0.245719 0.922298
423 1 0.595569 0.317544 0.925886
429 1 0.841789 0.340888 0.836133
402 1 0.752853 0.232232 0.824355
404 1 0.683942 0.257584 0.904034
403 1 0.73326 0.155912 0.914183
42 1 0.72985 0.23472 0.995252
431 1 0.905603 0.323286 0.923106
408 1 0.839545 0.226227 0.931761
406 1 0.91713 0.256578 0.826061
388 1 0.994452 0.251266 0.918392
410 1 0.0837134 0.408327 0.839069
219 1 0.0790017 0.00651779 0.582581
257 1 0.670985 0.178728 0.504447
254 1 0.567194 0.250531 0.502438
373 1 0.505238 -0.000405569 0.832165
797 1 0.172103 0.506196 0.832904
299 1 0.412096 0.00556336 0.767643
34 1 0.406395 0.24873 1.00031
239 1 0.908074 -0.00935526 0.593664
739 1 0.755992 0.500817 0.759495
735 1 0.577505 0.495952 0.74532
727 1 0.253154 0.502919 0.754916
383 1 0.919975 0.0089584 0.914793
655 1 0.244771 0.475183 0.594291
235 1 0.735794 -0.00465986 0.581387
445 1 0.511388 0.500763 0.993977
441 1 0.33925 0.505961 0.988344
231 1 0.574231 -0.00250483 0.570174
295 1 0.248109 0.00205806 0.762001
218 1 0.0802723 0.0825852 0.489288
54 1 0.253217 0.401952 0.996353
449 1 0.652463 0.497291 0.986396
250 1 0.412311 0.243245 0.505141
281 1 0.666312 0.326964 0.498472
38 1 0.601192 0.245398 1.00582
238 1 0.91099 0.0866778 0.496802
649 1 0.0135206 0.510511 0.495518
233 1 0.669263 0.0121455 0.501943
14 1 0.59192 0.0816814 1.00499
37 1 0.505772 0.163976 1.0044
286 1 0.907909 0.412918 0.491531
253 1 0.500697 0.167587 0.496176
282 1 0.764196 0.422082 0.505537
9 1 0.354214 -0.00642333 0.99831
26 1 0.0824763 0.248502 1.00402
234 1 0.731091 0.0923336 0.494211
265 1 0.000569246 0.336819 0.508954
261 1 0.820914 0.160483 0.505595
274 1 0.423501 0.417512 0.495043
249 1 0.322995 0.145651 0.499888
49 1 0.996449 0.330566 1.00591
1 1 0.997296 0.0063892 0.991841
440 1 0.193181 0.578369 0.0765955
436 1 1.0082 0.572071 0.0713314
506 1 0.0977031 0.571484 0.18016
645 1 0.832622 0.835278 0.334118
444 1 0.349009 0.584989 0.0673895
537 1 0.338097 0.658882 0.152841
505 1 -0.00789157 0.497953 0.164914
19 1 0.750273 1.01185 0.0807025
646 1 0.917122 0.922554 0.332248
541 1 0.50038 0.6539 0.172277
514 1 0.413065 0.585585 0.162285
83 1 0.413274 1.00727 0.260035
448 1 0.505009 0.586533 0.0771242
471 1 0.570885 0.67852 0.0885326
75 1 0.0813111 1.00892 0.270527
435 1 0.0976583 0.513813 0.0816891
452 1 0.675297 0.576909 0.0802665
549 1 0.847859 0.649271 0.164094
79 1 0.258258 1.00329 0.248614
642 1 0.73683 0.920883 0.338404
456 1 0.841639 0.605687 0.0695662
682 1 0.401409 0.750444 0.502967
648 1 0.839567 0.912634 0.420666
459 1 0.0917661 0.641967 0.0835855
460 1 0.0134646 0.741075 0.0924383
483 1 0.0850491 0.831607 0.0789084
478 1 0.921715 0.745608 -0.000336936
157 1 0.489065 1.0082 0.345686
464 1 0.180133 0.745751 0.0897131
463 1 0.260591 0.671562 0.0801169
468 1 0.345428 0.746618 0.0887958
587 1 0.419016 0.499717 0.408337
534 1 0.261797 0.756666 0.159819
95 1 0.91673 0.998142 0.243718
467 1 0.420906 0.667262 0.0679725
538 1 0.399243 0.756115 0.186145
472 1 0.478803 0.75719 0.103308
491 1 0.401459 0.843817 0.0815143
495 1 0.565239 0.834532 0.0738243
476 1 0.65851 0.749727 0.074578
565 1 0.496083 0.847133 0.170433
458 1 0.102801 0.750479 0.0103649
519 1 0.591111 0.501283 0.240591
475 1 0.744049 0.676776 0.0842699
480 1 0.846609 0.735379 0.0959938
499 1 0.745644 0.825418 0.0752079
636 1 0.332246 0.922513 0.428343
481 1 0.00235921 0.829011 0.00162866
479 1 0.944811 0.664658 0.0800658
503 1 0.91101 0.82917 0.0768689
554 1 0.0962 0.904703 0.16961
15 1 0.59495 0.990796 0.11044
488 1 0.163717 0.900764 0.0788504
487 1 0.268513 0.824254 0.0738574
557 1 0.16792 0.827595 0.153164
640 1 0.490245 0.917409 0.426521
492 1 0.33503 0.930026 0.0820907
496 1 0.50011 0.921316 0.0983244
562 1 0.420006 0.916899 0.165659
439 1 0.264264 0.491939 0.0759495
77 1 0.147843 1.0014 0.173669
500 1 0.650103 0.893923 0.088295
517 1 0.505037 0.496042 0.148873
515 1 0.42084 0.495759 0.251692
632 1 0.17515 0.931985 0.404735
662 1 0.597233 0.56799 0.500085
11 1 0.424921 1.00149 0.0762881
484 1 -0.00368237 0.892385 0.0774504
504 1 0.823984 0.929518 0.0574782
165 1 0.841082 1.00042 0.32737
163 1 0.737939 0.996781 0.412624
512 1 0.174957 0.573593 0.266191
508 1 0.0161938 0.583896 0.248167
533 1 0.178274 0.673284 0.161499
577 1 0.997667 0.513954 0.342322
605 1 0.176264 0.673058 0.342025
510 1 0.266589 0.586185 0.15804
535 1 0.266673 0.666356 0.233602
3 1 0.0534392 0.981298 0.0847826
516 1 0.334066 0.578924 0.244564
520 1 0.510277 0.572837 0.235926
539 1 0.43138 0.66459 0.240733
586 1 0.422432 0.592848 0.314522
518 1 0.594428 0.572544 0.158353
543 1 0.591786 0.659587 0.25469
545 1 0.656229 0.670917 0.156852
524 1 0.666177 0.579988 0.251842
650 1 0.0835812 0.588167 0.500427
522 1 0.755715 0.585971 0.153418
528 1 0.833542 0.575991 0.245883
593 1 0.674158 0.497483 0.343322
81 1 0.327534 0.996481 0.175841
529 1 0.00370004 0.661038 0.185164
526 1 0.926155 0.583291 0.162269
73 1 0.00401549 1.00889 0.185465
531 1 0.0878745 0.676362 0.258337
530 1 0.099214 0.744567 0.163958
602 1 0.0876456 0.749582 0.344317
536 1 0.179706 0.73189 0.25263
561 1 0.340229 0.851582 0.156954
559 1 0.239875 0.830495 0.251376
540 1 0.339407 0.768204 0.270709
610 1 0.417447 0.744925 0.329566
563 1 0.410214 0.845609 0.257206
637 1 0.492545 0.84059 0.328952
609 1 0.332927 0.671286 0.334475
544 1 0.49285 0.752916 0.252051
542 1 0.573826 0.739176 0.184533
614 1 0.587112 0.752151 0.325482
567 1 0.578903 0.827396 0.255335
547 1 0.740152 0.667168 0.243314
546 1 0.756901 0.754032 0.169377
548 1 0.67228 0.744291 0.231756
571 1 0.750881 0.828558 0.250098
552 1 0.835033 0.758631 0.255541
641 1 0.673698 0.821105 0.337308
618 1 0.744326 0.74026 0.327058
573 1 0.835002 0.831424 0.174249
551 1 0.919064 0.674793 0.267818
532 1 0.00468366 0.75345 0.26322
550 1 0.922246 0.744538 0.170291
622 1 0.924651 0.756558 0.336675
555 1 0.0908375 0.82479 0.252066
553 1 0.995076 0.832061 0.168318
556 1 1.0034 0.897828 0.248182
159 1 0.575766 0.989762 0.409673
629 1 0.160741 0.833996 0.336074
558 1 0.250786 0.908973 0.166949
560 1 0.16697 0.914826 0.24795
633 1 0.326884 0.840899 0.350723
564 1 0.334004 0.927671 0.257885
568 1 0.509955 0.92487 0.25382
634 1 0.4194 0.923344 0.341845
566 1 0.59703 0.912203 0.188732
455 1 0.905357 0.500514 0.0949631
569 1 0.657163 0.821047 0.167183
644 1 0.664207 0.914179 0.417897
638 1 0.588775 0.917982 0.336614
572 1 0.668879 0.906077 0.260017
639 1 0.580553 0.825573 0.421206
627 1 0.0844486 0.869252 0.428657
570 1 0.740458 0.896834 0.157623
576 1 0.828919 0.918689 0.237927
713 1 0.663645 0.830089 0.501981
575 1 0.915075 0.836099 0.253338
574 1 0.922952 0.916173 0.168997
601 1 0.00334632 0.663979 0.332217
631 1 0.250441 0.830327 0.430998
578 1 0.0861024 0.593277 0.334447
709 1 0.490876 0.825955 0.487941
647 1 0.920492 0.838628 0.409041
584 1 0.161977 0.592163 0.415566
582 1 0.255227 0.590157 0.321892
626 1 0.0578014 0.929391 0.335241
588 1 0.343402 0.591293 0.402526
611 1 0.433751 0.668292 0.422625
630 1 0.257936 0.921697 0.329827
592 1 0.495702 0.578198 0.393256
590 1 0.593623 0.571026 0.326862
596 1 0.660964 0.575786 0.418714
613 1 0.496928 0.668552 0.326385
23 1 0.922551 0.993368 0.0804182
594 1 0.75253 0.574451 0.34105
600 1 0.830584 0.595545 0.409162
619 1 0.75784 0.673945 0.409703
597 1 0.849692 0.516089 0.340937
625 1 1.01004 0.834094 0.345616
598 1 0.924633 0.594921 0.336411
580 1 1.00314 0.590928 0.420187
603 1 0.0744697 0.666682 0.418276
604 1 -0.00831368 0.752299 0.419757
153 1 0.340776 0.996506 0.334242
606 1 0.240858 0.767499 0.335321
607 1 0.259141 0.64549 0.424012
608 1 0.173287 0.749218 0.43131
612 1 0.3265 0.746364 0.426256
635 1 0.40733 0.816636 0.420524
616 1 0.494764 0.751813 0.395473
615 1 0.579233 0.674162 0.418648
620 1 0.66892 0.749021 0.407407
643 1 0.757704 0.839879 0.412954
621 1 0.821072 0.657273 0.316946
624 1 0.84316 0.75587 0.405237
617 1 0.670072 0.659121 0.339885
628 1 0.98014 0.934563 0.407593
623 1 0.922456 0.669416 0.411142
89 1 0.686906 0.984539 0.16528
93 1 0.841887 0.986587 0.145514
7 1 0.230331 0.99519 0.0851279
599 1 0.923811 0.50106 0.425354
151 1 0.258636 1.00562 0.421585
653 1 0.159685 0.501671 0.498385
161 1 0.660659 1.00501 0.331336
657 1 0.32895 0.495387 0.501352
710 1 0.566356 0.915084 0.49944
221 1 0.149301 1.00523 0.488228
689 1 0.683946 0.674407 0.490161
485 1 0.179312 0.830006 0.00570522
450 1 0.736785 0.576462 -0.0193821
678 1 0.250074 0.743516 0.505622
690 1 0.763778 0.765795 0.493092
17 1 0.668331 0.986094 0.0119861
658 1 0.41495 0.575568 0.487743
694 1 0.9145 0.757405 0.498867
470 1 0.57115 0.752165 4.51488e-05
685 1 0.503787 0.663704 0.509115
697 1 -0.00674688 0.844886 0.494788
457 1 0.0243507 0.671378 -0.00399454
666 1 0.766738 0.596973 0.482936
661 1 0.504295 0.49661 0.494606
693 1 0.831156 0.678501 0.492066
665 1 0.68025 0.514796 0.500199
675 1 0.0856521 0.662305 0.569164
652 1 0.999148 0.595045 0.579894
745 1 1.00677 0.652957 0.670412
656 1 0.17003 0.58355 0.587823
726 1 0.255909 0.59636 0.678702
660 1 0.32184 0.579597 0.597722
679 1 0.239668 0.658446 0.564323
442 1 0.426653 0.565888 0.992631
683 1 0.432655 0.665553 0.587174
664 1 0.491183 0.559939 0.581047
730 1 0.414355 0.579916 0.66203
698 1 0.0685278 0.930755 0.508639
668 1 0.689456 0.574958 0.587201
801 1 0.337054 0.494099 0.83707
844 1 0.00652159 0.929488 0.912881
705 1 0.333651 0.839879 0.501997
672 1 0.830169 0.593039 0.572284
497 1 0.664048 0.833691 1.00231
701 1 0.161747 0.842484 0.492684
742 1 0.907947 0.585844 0.670131
227 1 0.41271 1.00487 0.600931
749 1 0.16459 0.671848 0.66286
676 1 0.00308226 0.760922 0.591147
746 1 0.0775307 0.739248 0.67866
680 1 0.164058 0.740426 0.579704
773 1 0.161271 0.83055 0.659913
750 1 0.246087 0.751597 0.657653
684 1 0.320984 0.734722 0.583974
777 1 0.308553 0.833866 0.659278
365 1 0.157667 1.01118 0.836371
477 1 0.826977 0.690911 1.00209
688 1 0.489494 0.758441 0.567339
754 1 0.417689 0.75931 0.671406
707 1 0.40421 0.810915 0.587434
673 1 -0.0037697 0.669353 0.498984
5 1 0.158401 0.994379 0.99761
687 1 0.598623 0.649054 0.563522
711 1 0.581301 0.835794 0.57825
438 1 0.267425 0.590751 0.994644
692 1 0.662422 0.749697 0.56565
691 1 0.754763 0.677731 0.575383
715 1 0.754606 0.840662 0.581069
789 1 0.81807 0.825656 0.66493
367 1 0.256902 1.0025 0.935955
291 1 0.0815923 0.997831 0.73603
696 1 0.828464 0.754044 0.570791
695 1 0.911361 0.674678 0.579456
766 1 0.908105 0.770203 0.658767
719 1 0.919752 0.836309 0.571479
769 1 0.997517 0.839398 0.668549
699 1 0.0715122 0.84187 0.573531
704 1 0.155195 0.922476 0.594505
860 1 0.66106 0.919383 0.907469
795 1 0.0901002 0.499123 0.913399
864 1 0.834829 0.917987 0.911989
703 1 0.250416 0.845962 0.571016
462 1 0.260306 0.745099 0.999484
811 1 0.744538 0.497983 0.900109
708 1 0.33932 0.937485 0.583442
778 1 0.391572 0.89698 0.671164
677 1 0.159903 0.654441 0.491389
856 1 0.508415 0.924454 0.911763
13 1 0.521471 0.992141 1.02271
712 1 0.49393 0.921974 0.583164
716 1 0.653307 0.904962 0.572314
782 1 0.575134 0.918697 0.662256
651 1 0.0857747 0.489381 0.586502
720 1 0.833658 0.909638 0.605713
786 1 0.749383 0.904115 0.670746
854 1 0.59613 0.917512 0.818754
700 1 0.986617 0.920432 0.587932
790 1 0.922458 0.914687 0.679338
731 1 0.421724 0.481082 0.760352
722 1 0.0899272 0.582714 0.658951
724 1 -0.00377569 0.58217 0.752695
728 1 0.169524 0.586198 0.754867
852 1 0.331558 0.917834 0.927292
817 1 0.999163 0.687636 0.833523
753 1 0.342517 0.676991 0.666198
851 1 0.426767 0.840875 0.905284
798 1 0.259935 0.588673 0.828083
751 1 0.255723 0.687644 0.744714
757 1 0.500301 0.6545 0.680551
494 1 0.584276 0.91331 1.00083
732 1 0.344296 0.572694 0.746194
736 1 0.505161 0.577653 0.745767
815 1 0.918624 0.497834 0.924755
825 1 0.339255 0.675848 0.838401
734 1 0.585482 0.580246 0.657933
309 1 0.82765 1.01011 0.672154
714 1 0.729423 0.914829 0.501715
738 1 0.750706 0.579206 0.668213
740 1 0.66834 0.586121 0.748387
744 1 0.836402 0.579913 0.751951
763 1 0.756914 0.665114 0.742193
767 1 0.9088 0.68068 0.735834
848 1 0.161581 0.914813 0.921393
814 1 0.915061 0.595193 0.835471
747 1 0.084542 0.660095 0.748786
752 1 0.170135 0.754143 0.758474
821 1 0.181095 0.672681 0.831358
748 1 1.00095 0.744552 0.743573
822 1 0.266213 0.749164 0.843112
756 1 0.323991 0.76088 0.744851
755 1 0.408938 0.673317 0.752144
826 1 0.429068 0.743881 0.83144
760 1 0.499488 0.750386 0.74601
758 1 0.574463 0.748145 0.654467
759 1 0.586014 0.660608 0.736868
781 1 0.491276 0.848265 0.677823
783 1 0.584404 0.827824 0.724033
785 1 0.664448 0.824696 0.656297
764 1 0.658658 0.735415 0.734442
833 1 0.658158 0.669915 0.83339
761 1 0.666648 0.655513 0.655118
762 1 0.732812 0.74501 0.655542
787 1 0.736101 0.818706 0.736547
837 1 0.829327 0.670374 0.831561
857 1 0.665753 0.833911 0.824272
834 1 0.737327 0.747982 0.828936
765 1 0.836331 0.670117 0.653571
768 1 0.821843 0.74962 0.745643
838 1 0.910596 0.738123 0.836362
770 1 0.0603575 0.925509 0.661284
845 1 0.162213 0.828491 0.834761
771 1 0.07886 0.833076 0.750193
772 1 -0.00797427 0.920252 0.765096
774 1 0.246127 0.932237 0.66377
775 1 0.241331 0.846871 0.750111
776 1 0.165344 0.92807 0.741582
780 1 0.325627 0.924537 0.776901
846 1 0.23775 0.917865 0.834785
842 1 0.0959974 0.916178 0.83016
718 1 0.909819 0.934134 0.509364
779 1 0.414815 0.841272 0.760683
850 1 0.416469 0.924748 0.844877
849 1 0.333858 0.823229 0.843574
843 1 0.0854569 0.82696 0.922018
784 1 0.504378 0.92237 0.755978
377 1 0.657744 1.00455 0.839406
788 1 0.677229 0.918589 0.747482
858 1 0.738957 0.903039 0.837912
792 1 0.831773 0.905951 0.74073
861 1 0.833686 0.823773 0.8257
862 1 0.912043 0.915782 0.847074
791 1 0.918458 0.834743 0.752018
841 1 0.0194544 0.841583 0.838495
474 1 0.733975 0.734139 0.985182
794 1 0.0726574 0.59207 0.836964
501 1 0.838261 0.832152 1.00267
803 1 0.41796 0.493407 0.901076
800 1 0.187103 0.58345 0.921658
804 1 0.337201 0.585933 0.910288
301 1 0.490021 0.99608 0.661395
667 1 0.770612 0.503535 0.565312
802 1 0.414699 0.586777 0.825166
839 1 0.910192 0.661061 0.920116
743 1 0.909324 0.496154 0.752352
806 1 0.581129 0.588646 0.822816
808 1 0.496043 0.580656 0.909186
832 1 0.495629 0.748553 0.906751
812 1 0.665349 0.578943 0.89945
810 1 0.755486 0.587154 0.837172
863 1 0.907842 0.831686 0.91666
830 1 0.566273 0.73886 0.829919
835 1 0.73911 0.660663 0.908705
807 1 0.570925 0.51152 0.906803
859 1 0.728945 0.820756 0.910306
796 1 -9.25591e-05 0.596577 0.908401
840 1 0.8163 0.75346 0.912776
816 1 0.826533 0.596413 0.910462
818 1 0.0918344 0.748635 0.835442
473 1 0.664023 0.652026 1.00617
819 1 0.0950034 0.64917 0.920586
820 1 1.00167 0.756438 0.925495
824 1 0.173532 0.757632 0.920541
847 1 0.248927 0.838021 0.912306
823 1 0.259836 0.6564 0.913422
828 1 0.350058 0.752401 0.916967
836 1 0.652473 0.756118 0.916511
853 1 0.508069 0.825888 0.824664
829 1 0.499669 0.656613 0.824138
827 1 0.416445 0.663061 0.921665
855 1 0.580896 0.82845 0.928402
498 1 0.746043 0.896263 0.994745
831 1 0.5817 0.662528 0.90847
671 1 0.919291 0.5073 0.601438
799 1 0.254281 0.492566 0.920979
733 1 0.48899 0.495491 0.668993
446 1 0.582647 0.578709 1.01085
466 1 0.418613 0.751024 1.00343
729 1 0.329358 0.482882 0.658421
482 1 0.0774107 0.914525 1.00737
381 1 0.846056 1.00119 0.829591
453 1 0.830023 0.504189 1.00418
379 1 0.746348 0.995469 0.909605
311 1 0.93009 1.00563 0.748748
489 1 0.346077 0.834757 0.991327
793 1 -0.00360354 0.498468 0.847665
659 1 0.407161 0.499525 0.583211
297 1 0.328516 0.991117 0.689973
307 1 0.74956 0.989569 0.749212
663 1 0.597415 0.498011 0.589296
674 1 0.0718487 0.740251 0.498321
469 1 0.505321 0.674512 0.983933
237 1 0.807823 1.00627 0.50233
433 1 0.991564 0.500125 1.00379
461 1 0.175367 0.675782 0.992615
434 1 0.0944689 0.581053 0.997708
490 1 0.437689 0.926016 0.999263
670 1 0.918426 0.591281 0.502263
465 1 0.343526 0.662817 0.996216
486 1 0.253532 0.909116 1.01986
702 1 0.233274 0.929928 0.506092
493 1 0.482153 0.83247 1.02066
706 1 0.415817 0.909891 0.498132
681 1 0.334584 0.656021 0.496104
437 1 0.171403 0.498726 0.999379
225 1 0.320273 1.00904 0.510406
669 1 0.857562 0.50397 0.501066
686 1 0.587868 0.753112 0.490827
502 1 0.926487 0.913187 0.988072
654 1 0.248544 0.565374 0.514611
454 1 0.927786 0.594894 1.00339
717 1 0.829739 0.846081 0.504602
