ITEM: TIMESTEP
16000
ITEM: NUMBER OF ATOMS
864
ITEM: BOX BOUNDS pp pp pp
0.0000000000000000e+00 3.1559999999999999e+01
0.0000000000000000e+00 3.1559999999999999e+01
0.0000000000000000e+00 3.1559999999999999e+01
ITEM: ATOMS id type xs ys zs
2 1 0.0791815 0.0681208 0.000835558
3 1 0.087795 0.0101349 0.0923863
27 1 0.077329 0.157469 0.0888292
8 1 0.166808 0.0951989 0.0981843
78 1 0.25425 0.0844738 0.156573
105 1 0.330281 0.15624 0.165329
29 1 0.170147 0.163339 0.00737923
12 1 0.338689 0.074507 0.0841608
16 1 0.493854 0.0848912 0.0809777
86 1 0.587451 0.0936323 0.164476
15 1 0.582475 3.46482e-05 0.0980529
41 1 0.659003 0.166635 0.0180678
17 1 0.665158 0.00325977 0.00296315
20 1 0.673819 0.084977 0.08902
43 1 0.745951 0.16246 0.0831842
18 1 0.759253 0.0824162 0.00773031
90 1 0.765119 0.0891784 0.16493
4 1 0.99517 0.0802099 0.0886262
24 1 0.837241 0.0859675 0.0840978
47 1 0.924126 0.15994 0.070304
23 1 0.906878 0.00340753 0.0872001
22 1 0.917488 0.0826755 0.00275201
1 1 0.998231 0.0023788 0.0115399
28 1 0.00609167 0.236831 0.0723389
51 1 0.0905411 0.328161 0.0727228
121 1 0.00708975 0.324228 0.156247
32 1 0.169546 0.250904 0.0818527
31 1 0.254182 0.171234 0.0858347
36 1 0.322164 0.252412 0.0871169
102 1 0.249995 0.252475 0.162924
35 1 0.411265 0.180475 0.0655547
109 1 0.494925 0.187516 0.162528
106 1 0.410256 0.247816 0.163148
40 1 0.496742 0.258183 0.0712767
59 1 0.408571 0.322392 0.0760287
133 1 0.488584 0.316594 0.158563
39 1 0.573295 0.171926 0.0787241
113 1 0.664419 0.170106 0.166522
110 1 0.580209 0.247119 0.15778
38 1 0.581214 0.263935 0.00208615
42 1 0.746843 0.255305 0.0010039
44 1 0.673823 0.248491 0.0886341
67 1 0.752185 0.331335 0.099144
48 1 0.834882 0.237013 0.087174
71 1 0.910788 0.321853 0.0785636
117 1 0.847105 0.167255 0.15718
118 1 0.920561 0.245301 0.153667
435 1 0.058245 0.490982 0.0943305
56 1 0.150278 0.42878 0.0693401
52 1 0.00641383 0.399982 0.0743757
439 1 0.241413 0.494073 0.0808927
55 1 0.262988 0.342549 0.0733503
60 1 0.331045 0.425168 0.0896819
53 1 0.167271 0.335401 0.00509738
125 1 0.176296 0.355123 0.142351
443 1 0.427267 0.495793 0.0930278
130 1 0.408214 0.396114 0.163802
64 1 0.491655 0.415791 0.088366
441 1 0.337459 0.496734 0.00493889
58 1 0.414119 0.421747 0.0125805
447 1 0.591878 0.488965 0.102067
63 1 0.571669 0.336936 0.0903615
62 1 0.580316 0.410557 0.0136645
65 1 0.672118 0.33833 0.00553369
68 1 0.6692 0.414117 0.0942688
72 1 0.829946 0.411382 0.0907576
138 1 0.76116 0.42807 0.166382
66 1 0.752615 0.431775 0.0132479
141 1 0.840856 0.336561 0.159857
142 1 0.923715 0.415868 0.165065
455 1 0.916268 0.485767 0.0882952
74 1 0.0815495 0.0955134 0.187434
146 1 0.0779911 0.0935095 0.330324
97 1 0.000234619 0.15847 0.166957
77 1 0.163247 0.00542123 0.176708
75 1 0.0752381 0.00595326 0.26466
80 1 0.181761 0.0866961 0.243371
150 1 0.262662 0.0908194 0.328161
84 1 0.326442 0.0680404 0.240552
149 1 0.167732 0.0163741 0.324672
82 1 0.427591 0.0902032 0.176094
154 1 0.407193 0.0930063 0.321704
89 1 0.664939 0.00093591 0.169068
88 1 0.506632 0.088285 0.252759
92 1 0.663011 0.0843822 0.243604
111 1 0.593364 0.159682 0.260926
91 1 0.748865 0.00271135 0.247931
162 1 0.736684 0.0861335 0.331656
189 1 0.820031 0.164567 0.330107
73 1 0.998193 0.000695135 0.175703
94 1 0.923401 0.0801416 0.168806
76 1 0.996883 0.0814794 0.247603
96 1 0.834393 0.0881735 0.251914
119 1 0.915893 0.161674 0.240412
166 1 0.916934 0.0926487 0.325736
98 1 0.0891966 0.250938 0.172817
99 1 0.0836496 0.175308 0.258241
170 1 0.0736552 0.267562 0.328447
123 1 0.0862964 0.326581 0.240761
101 1 0.166889 0.173089 0.171313
129 1 0.333044 0.318627 0.179083
103 1 0.270813 0.166965 0.248534
173 1 0.172154 0.173058 0.32634
104 1 0.180567 0.259721 0.249923
107 1 0.418931 0.184846 0.255359
108 1 0.340043 0.242581 0.270775
205 1 0.494902 0.329915 0.330839
131 1 0.428729 0.331542 0.250911
112 1 0.502719 0.247985 0.241855
182 1 0.582749 0.265108 0.323469
135 1 0.571638 0.323621 0.239887
116 1 0.660282 0.256355 0.252779
181 1 0.508905 0.179923 0.330249
115 1 0.743174 0.167318 0.246103
114 1 0.74597 0.26001 0.179622
120 1 0.830015 0.244863 0.244088
186 1 0.742621 0.245748 0.324417
100 1 0.994679 0.254918 0.238959
143 1 0.920329 0.330517 0.244144
190 1 0.907836 0.251702 0.325634
169 1 0.990002 0.177495 0.315554
122 1 0.0853154 0.422396 0.170295
124 1 0.00385507 0.420734 0.249221
128 1 0.162853 0.404184 0.262277
509 1 0.168957 0.489623 0.172309
127 1 0.251824 0.336795 0.262425
126 1 0.24681 0.415574 0.183872
515 1 0.419674 0.491206 0.249044
132 1 0.334523 0.411561 0.248592
202 1 0.411411 0.409214 0.331349
136 1 0.498045 0.411984 0.250971
137 1 0.665834 0.347212 0.17975
589 1 0.504605 0.489593 0.330984
209 1 0.66551 0.337581 0.317007
134 1 0.576076 0.407256 0.172025
140 1 0.657956 0.428648 0.244648
206 1 0.583593 0.415739 0.320749
517 1 0.504778 0.493838 0.166782
523 1 0.756813 0.49266 0.24987
213 1 0.828219 0.338829 0.320747
210 1 0.747879 0.419083 0.331627
139 1 0.7458 0.345818 0.245205
144 1 0.841919 0.430049 0.248
193 1 0.998362 0.337269 0.320342
217 1 0.00122506 0.0105814 0.498994
171 1 0.0747958 0.165232 0.41291
147 1 0.0865642 0.0153826 0.417671
221 1 0.165969 0.0101406 0.489333
218 1 0.0783488 0.0869513 0.491611
152 1 0.168747 0.102478 0.409706
156 1 0.331648 0.0867301 0.424218
153 1 0.32956 0.0160661 0.333917
222 1 0.250783 0.0870732 0.493123
160 1 0.486702 0.0876481 0.406952
155 1 0.41942 0.0122404 0.403017
225 1 0.348286 0.00280179 0.48519
226 1 0.423955 0.0886843 0.488667
230 1 0.577293 0.0838661 0.491606
158 1 0.573386 0.0816197 0.341878
229 1 0.503684 0.00716292 0.485261
163 1 0.741383 0.00192107 0.435982
165 1 0.821249 0.00867211 0.333618
164 1 0.67725 0.0922928 0.414138
168 1 0.824579 0.0750207 0.413576
161 1 0.668174 0.00299815 0.337438
234 1 0.761116 0.0885008 0.497267
237 1 0.826634 0.00667983 0.492383
167 1 0.909913 0.000801401 0.41854
148 1 0.996076 0.0771406 0.409775
145 1 0.980984 0.00966331 0.335306
238 1 0.907885 0.0874816 0.488774
176 1 0.160214 0.248029 0.411776
242 1 0.0671432 0.236028 0.487443
175 1 0.256778 0.169871 0.418355
174 1 0.245934 0.250882 0.33342
180 1 0.331597 0.260211 0.421701
245 1 0.168452 0.173234 0.499806
203 1 0.430184 0.322479 0.424934
179 1 0.429074 0.184401 0.440843
177 1 0.346808 0.175486 0.363519
178 1 0.416892 0.24918 0.34615
183 1 0.587606 0.175618 0.437048
184 1 0.513556 0.249539 0.409221
188 1 0.660428 0.247858 0.409085
192 1 0.821278 0.25242 0.403633
187 1 0.747913 0.174702 0.411291
258 1 0.741552 0.25399 0.492331
211 1 0.752053 0.33307 0.397092
185 1 0.66862 0.167651 0.336832
285 1 0.830868 0.326497 0.486795
261 1 0.83045 0.166734 0.482231
172 1 0.983058 0.243722 0.405413
191 1 0.909777 0.168793 0.403401
262 1 0.916418 0.249312 0.48263
265 1 0.00361597 0.334939 0.498721
581 1 0.163576 0.499221 0.337015
194 1 0.0751011 0.415435 0.338464
200 1 0.15644 0.425425 0.425189
197 1 0.163464 0.336589 0.341326
195 1 0.0872048 0.334773 0.42215
198 1 0.236547 0.412233 0.346519
204 1 0.331582 0.410447 0.424196
199 1 0.246451 0.336239 0.421647
270 1 0.243524 0.416168 0.490761
587 1 0.406602 0.499417 0.417399
208 1 0.499637 0.407289 0.406863
201 1 0.336276 0.339858 0.3407
657 1 0.335609 0.495592 0.494496
661 1 0.516424 0.491286 0.487718
591 1 0.579706 0.48819 0.403327
278 1 0.589088 0.414183 0.495396
207 1 0.592001 0.335102 0.404855
212 1 0.664439 0.426797 0.403674
277 1 0.515828 0.336088 0.487373
281 1 0.675572 0.344455 0.490033
282 1 0.754821 0.443073 0.497826
214 1 0.920009 0.419149 0.333682
215 1 0.91503 0.33419 0.391153
196 1 0.997017 0.410368 0.412377
216 1 0.847368 0.424537 0.418383
290 1 0.0785158 0.0703631 0.658965
224 1 0.164622 0.08693 0.574533
317 1 0.164512 0.158372 0.654401
243 1 0.0702745 0.164458 0.574732
249 1 0.330736 0.163716 0.501497
247 1 0.250913 0.16563 0.576597
294 1 0.254771 0.0798058 0.655974
228 1 0.342965 0.0765681 0.591307
251 1 0.420393 0.165121 0.588756
227 1 0.436792 0.00613416 0.573127
232 1 0.500065 0.0849575 0.582059
236 1 0.64271 0.0769998 0.575187
305 1 0.650367 0.0089112 0.655524
259 1 0.739135 0.141447 0.582672
333 1 0.814073 0.151792 0.656384
235 1 0.743913 0.00385972 0.583067
329 1 0.670508 0.165297 0.665534
257 1 0.674521 0.16399 0.500654
220 1 0.989026 0.0869709 0.5808
240 1 0.84062 0.0747537 0.580023
239 1 0.910509 0.00720416 0.589442
289 1 0.992806 0.00162207 0.662507
248 1 0.157957 0.243769 0.582413
252 1 0.328836 0.244251 0.588454
246 1 0.251277 0.253096 0.508493
250 1 0.425366 0.259353 0.527572
321 1 0.341514 0.17186 0.663531
322 1 0.423059 0.258831 0.655949
255 1 0.596297 0.17217 0.588341
256 1 0.523869 0.260604 0.584352
254 1 0.600529 0.272148 0.50685
253 1 0.503045 0.181725 0.51322
260 1 0.677563 0.256014 0.583252
264 1 0.80679 0.240071 0.582586
357 1 0.825315 0.319853 0.644983
263 1 0.894164 0.179482 0.573458
244 1 0.998835 0.255116 0.58616
241 1 0.989805 0.168619 0.501089
267 1 0.0826765 0.333985 0.593422
338 1 0.0982871 0.41279 0.663034
272 1 0.164662 0.436003 0.58973
651 1 0.0666966 0.488759 0.588898
266 1 0.0892203 0.418908 0.509564
271 1 0.241529 0.336894 0.588003
276 1 0.327626 0.424701 0.586634
273 1 0.3241 0.344537 0.50217
269 1 0.172017 0.336679 0.502358
275 1 0.430425 0.345749 0.599421
659 1 0.414013 0.490939 0.586548
733 1 0.497371 0.48734 0.665022
274 1 0.414529 0.411687 0.502521
279 1 0.590463 0.341821 0.59238
280 1 0.505694 0.41624 0.581233
284 1 0.66583 0.42547 0.579763
349 1 0.509629 0.353253 0.660743
663 1 0.581171 0.495884 0.586794
283 1 0.761945 0.345534 0.56367
354 1 0.75447 0.418557 0.644733
286 1 0.927459 0.422321 0.513568
288 1 0.836535 0.429852 0.567019
287 1 0.926425 0.33566 0.584652
268 1 0.999706 0.405371 0.604025
671 1 0.91895 0.499132 0.584519
315 1 0.0904601 0.155867 0.754396
296 1 0.162434 0.0814391 0.735846
362 1 0.0851228 0.0761459 0.823335
385 1 0.00712164 0.161058 0.82855
292 1 0.00586242 0.0711628 0.747987
319 1 0.232637 0.154648 0.743234
300 1 0.333204 0.0790846 0.734121
366 1 0.230398 0.0786175 0.826082
393 1 0.320399 0.161762 0.811817
298 1 0.420477 0.0836406 0.672153
304 1 0.499607 0.0838081 0.758312
323 1 0.414656 0.164468 0.743144
302 1 0.569129 0.0875781 0.687282
308 1 0.65196 0.0938472 0.754985
301 1 0.513632 0.00416142 0.675146
309 1 0.82331 0.0037446 0.668319
306 1 0.732607 0.071801 0.680108
331 1 0.747986 0.156475 0.745053
312 1 0.828704 0.0817504 0.740389
307 1 0.729298 0.00608718 0.752779
381 1 0.828864 0.00410501 0.829662
311 1 0.918748 0.00378599 0.750939
313 1 0.999049 0.157355 0.678953
310 1 0.903758 0.080881 0.671211
335 1 0.911467 0.164278 0.746413
382 1 0.924348 0.0898971 0.818208
314 1 0.08828 0.24332 0.676091
316 1 0.00997178 0.234057 0.741197
409 1 0.00255295 0.328595 0.808921
386 1 0.0853406 0.244324 0.823276
318 1 0.241733 0.2496 0.669474
320 1 0.169614 0.237427 0.756943
343 1 0.249469 0.325656 0.742912
345 1 0.32976 0.328506 0.669329
324 1 0.321677 0.246598 0.74237
413 1 0.176811 0.332839 0.818379
390 1 0.247852 0.24424 0.823688
394 1 0.406166 0.231815 0.823394
347 1 0.402636 0.324554 0.754661
327 1 0.580399 0.172145 0.768783
328 1 0.501363 0.267367 0.736269
325 1 0.516823 0.17035 0.66769
326 1 0.59563 0.251106 0.667793
425 1 0.681893 0.320129 0.830078
332 1 0.671424 0.223989 0.752968
330 1 0.753938 0.240354 0.682097
402 1 0.753731 0.242105 0.80473
429 1 0.832441 0.327456 0.832371
405 1 0.830955 0.170423 0.830287
334 1 0.906197 0.248562 0.670601
336 1 0.839022 0.251509 0.750837
359 1 0.913225 0.329483 0.743802
406 1 0.92082 0.236095 0.826687
337 1 0.0103749 0.334639 0.677406
339 1 0.0948924 0.337413 0.750998
341 1 0.165645 0.333508 0.678313
340 1 0.0112742 0.413332 0.751904
344 1 0.162441 0.419871 0.74857
723 1 0.0858158 0.499561 0.75736
727 1 0.236496 0.496177 0.771133
342 1 0.247772 0.408939 0.675264
348 1 0.324382 0.407264 0.745048
418 1 0.41688 0.417712 0.828215
346 1 0.399658 0.425791 0.672071
352 1 0.497006 0.409157 0.753407
350 1 0.606497 0.428456 0.667015
351 1 0.591981 0.333833 0.745226
422 1 0.584883 0.399414 0.827467
735 1 0.589363 0.498942 0.757248
739 1 0.755664 0.491638 0.75615
353 1 0.675456 0.333548 0.67103
356 1 0.668502 0.405954 0.761152
355 1 0.75781 0.339462 0.752992
737 1 0.685638 0.498241 0.670542
358 1 0.913439 0.41427 0.669321
360 1 0.837386 0.415902 0.759128
430 1 0.927602 0.410821 0.829844
389 1 0.160199 0.158899 0.833663
368 1 0.164447 0.0797738 0.91933
364 1 0.00227993 0.0787137 0.910018
25 1 0.00782153 0.162885 0.992013
33 1 0.330243 0.157028 0.987699
391 1 0.236498 0.148232 0.906755
372 1 0.325446 0.0709192 0.908698
6 1 0.244029 0.0831437 0.997047
371 1 0.418953 0.00909999 0.915348
10 1 0.421359 0.0940557 0.996883
370 1 0.407082 0.0768801 0.834145
13 1 0.509496 0.0068507 0.998092
373 1 0.508439 0.00801718 0.85046
374 1 0.586454 0.0908209 0.849836
376 1 0.501494 0.0913384 0.919481
375 1 0.584944 0.00709507 0.918346
14 1 0.580285 0.085979 0.996961
377 1 0.667733 0.0123638 0.85027
403 1 0.748471 0.16049 0.930121
380 1 0.671025 0.084799 0.920159
378 1 0.748813 0.0891304 0.843878
379 1 0.749787 0.00650164 0.920113
45 1 0.831766 0.154738 0.995546
383 1 0.92681 0.00155389 0.919151
384 1 0.837536 0.0717807 0.926519
26 1 0.0858975 0.244528 0.99733
388 1 0.00486526 0.25037 0.904526
387 1 0.0925233 0.172345 0.91283
392 1 0.172367 0.241038 0.911649
417 1 0.319442 0.326526 0.838476
396 1 0.321685 0.245281 0.905286
30 1 0.253339 0.255341 0.9937
37 1 0.491547 0.183395 0.990348
419 1 0.411778 0.328799 0.899926
34 1 0.393516 0.257399 0.985737
421 1 0.498056 0.328292 0.835241
400 1 0.494449 0.262132 0.925921
395 1 0.417595 0.172606 0.912146
61 1 0.488731 0.33177 0.996617
399 1 0.584139 0.170001 0.933557
397 1 0.511358 0.182596 0.840118
398 1 0.588971 0.258138 0.84185
404 1 0.658275 0.256412 0.921763
427 1 0.753853 0.33153 0.911856
401 1 0.680949 0.171469 0.84722
408 1 0.821373 0.246792 0.912399
49 1 0.997036 0.31156 0.991795
46 1 0.916347 0.240976 0.994307
431 1 0.921402 0.320677 0.900986
407 1 0.917863 0.172518 0.913948
412 1 0.0053751 0.403847 0.912888
50 1 0.0747082 0.413105 0.986342
410 1 0.0924131 0.403137 0.836339
411 1 0.108496 0.333622 0.914951
793 1 0.0109003 0.492669 0.850155
797 1 0.154512 0.492838 0.834998
799 1 0.255578 0.49771 0.913628
414 1 0.239099 0.414507 0.844
415 1 0.238706 0.336567 0.929294
416 1 0.171158 0.42914 0.926141
801 1 0.330037 0.494936 0.835385
54 1 0.253378 0.424525 0.989156
803 1 0.423085 0.49983 0.918619
57 1 0.337064 0.348609 0.993102
424 1 0.492026 0.420685 0.91418
420 1 0.344079 0.426112 0.919083
445 1 0.490784 0.498844 0.997076
807 1 0.580651 0.497725 0.898124
423 1 0.570923 0.342186 0.928811
449 1 0.658057 0.489579 0.999743
432 1 0.823172 0.41046 0.923559
428 1 0.669823 0.412934 0.918404
426 1 0.748042 0.411066 0.838705
69 1 0.822052 0.334081 0.995803
433 1 0.997775 0.484922 0.992516
813 1 0.833557 0.48872 0.835961
815 1 0.912756 0.489977 0.906921
70 1 0.914771 0.409527 0.999248
457 1 0.00156583 0.661176 0.000521233
461 1 0.158084 0.665975 0.00371725
506 1 0.0943736 0.592022 0.16478
434 1 0.0786196 0.572717 0.0134286
437 1 0.163933 0.509916 0.00264858
440 1 0.172784 0.582974 0.0913717
444 1 0.322193 0.572267 0.0854688
463 1 0.238366 0.663575 0.0854419
438 1 0.250888 0.574162 0.000958475
514 1 0.424738 0.566079 0.156014
467 1 0.416607 0.662376 0.0862953
541 1 0.491999 0.657301 0.165168
442 1 0.405631 0.568389 0.0085406
448 1 0.506347 0.577531 0.085008
518 1 0.58157 0.597268 0.164428
471 1 0.589525 0.657166 0.0837008
446 1 0.591993 0.577 0.00957655
451 1 0.753097 0.50797 0.0856935
452 1 0.674778 0.575535 0.0784648
450 1 0.753345 0.591453 0.00432659
436 1 0.991304 0.596189 0.0903524
456 1 0.847659 0.581619 0.0763408
453 1 0.839981 0.504928 0.01025
459 1 0.0903062 0.686522 0.092449
460 1 0.000187691 0.762689 0.0888362
529 1 0.00418238 0.674782 0.16018
464 1 0.175324 0.751028 0.0879262
534 1 0.256409 0.758015 0.155271
462 1 0.244523 0.740535 0.00212657
485 1 0.172333 0.829756 0.00879076
468 1 0.338058 0.74462 0.0746024
491 1 0.412139 0.825894 0.0873693
538 1 0.402978 0.73164 0.164218
472 1 0.503257 0.741079 0.0794007
542 1 0.566275 0.739274 0.166178
476 1 0.657883 0.750917 0.0794746
569 1 0.664036 0.824026 0.157101
495 1 0.577701 0.828137 0.0855616
475 1 0.746265 0.670544 0.0769111
546 1 0.745254 0.756037 0.160991
499 1 0.748495 0.82734 0.0754821
479 1 0.920499 0.677273 0.080499
480 1 0.841581 0.751576 0.0749413
549 1 0.843542 0.682729 0.161202
501 1 0.834419 0.822499 0.00591527
483 1 0.075935 0.839115 0.0856104
488 1 0.166 0.903815 0.0850985
481 1 0.0157806 0.839153 0.00492485
482 1 0.0876229 0.923313 0.00927389
486 1 0.248834 0.914236 0.00919215
487 1 0.263443 0.834073 0.0767796
492 1 0.329508 0.915849 0.0760704
561 1 0.321403 0.840378 0.160312
7 1 0.240122 0.986485 0.0978055
5 1 0.170063 0.992265 0.00953926
493 1 0.490367 0.837828 0.00776973
11 1 0.419295 0.995118 0.0810988
562 1 0.403538 0.905913 0.153791
81 1 0.338291 0.987546 0.162273
85 1 0.494118 0.99911 0.166118
490 1 0.410817 0.915392 0.00898498
496 1 0.506141 0.921923 0.0790725
500 1 0.659559 0.91855 0.0926763
494 1 0.586022 0.932855 0.0135044
497 1 0.658565 0.838608 0.0140277
93 1 0.825503 0.98149 0.163152
504 1 0.831485 0.918617 0.0774273
19 1 0.750378 0.997048 0.0906314
498 1 0.751449 0.916331 0.00801835
503 1 0.919965 0.837124 0.0926309
484 1 0.997653 0.913887 0.0916453
574 1 0.918051 0.92377 0.15658
573 1 0.837284 0.846518 0.161082
21 1 0.833392 0.993657 0.00871535
512 1 0.162924 0.586315 0.260447
508 1 0.00911481 0.58315 0.255236
578 1 0.085022 0.585455 0.331937
507 1 0.0937117 0.501159 0.259145
510 1 0.240249 0.600929 0.174955
513 1 0.326588 0.510774 0.172185
535 1 0.256992 0.664608 0.265837
511 1 0.23955 0.508091 0.255838
585 1 0.340875 0.503818 0.326408
537 1 0.341539 0.645118 0.182586
516 1 0.351017 0.581547 0.261291
586 1 0.426211 0.57136 0.331293
539 1 0.423856 0.65835 0.244847
519 1 0.5825 0.506061 0.237596
520 1 0.514741 0.597905 0.253655
524 1 0.665145 0.582536 0.246121
617 1 0.664907 0.660948 0.331327
521 1 0.675801 0.50555 0.168503
593 1 0.682782 0.50813 0.330806
522 1 0.756586 0.598129 0.171686
594 1 0.756907 0.587282 0.315938
505 1 0.998837 0.506942 0.175885
528 1 0.845197 0.57245 0.259072
526 1 0.923294 0.580855 0.171509
598 1 0.925733 0.592368 0.328271
551 1 0.915865 0.664846 0.235071
527 1 0.924441 0.509527 0.250243
525 1 0.839534 0.514357 0.166899
530 1 0.0734755 0.76035 0.168605
531 1 0.0799745 0.669282 0.249964
533 1 0.158402 0.677987 0.171802
536 1 0.163725 0.74357 0.254918
557 1 0.164481 0.82748 0.172262
532 1 0.00362905 0.75573 0.247325
555 1 0.0865716 0.825649 0.259893
540 1 0.325515 0.746669 0.24847
559 1 0.245089 0.827135 0.260743
565 1 0.490239 0.829582 0.167034
563 1 0.399619 0.833178 0.240834
609 1 0.336028 0.671067 0.332206
544 1 0.469686 0.756994 0.245687
543 1 0.591786 0.679641 0.251504
567 1 0.585041 0.825181 0.240688
548 1 0.664128 0.753852 0.247647
614 1 0.576006 0.764746 0.327945
545 1 0.673994 0.674326 0.175643
621 1 0.825874 0.688487 0.332032
547 1 0.753586 0.672253 0.247926
571 1 0.744744 0.832095 0.246864
550 1 0.917294 0.751779 0.167557
552 1 0.833436 0.756691 0.244869
601 1 0.995441 0.679465 0.32993
554 1 0.100269 0.90923 0.170373
560 1 0.172501 0.905621 0.253131
558 1 0.248549 0.915743 0.17777
564 1 0.324457 0.902579 0.256194
79 1 0.245358 0.989611 0.267398
634 1 0.412619 0.912167 0.332336
568 1 0.480266 0.917235 0.244281
637 1 0.487882 0.839982 0.323426
83 1 0.407338 0.996678 0.251013
87 1 0.58507 0.999879 0.239021
638 1 0.569358 0.907389 0.307434
566 1 0.572412 0.911357 0.17645
572 1 0.656662 0.905529 0.232309
641 1 0.666432 0.837738 0.320124
157 1 0.500058 0.996783 0.306903
570 1 0.747888 0.912465 0.169449
642 1 0.741653 0.917456 0.31951
95 1 0.902668 0.997788 0.243222
553 1 0.994102 0.859888 0.18933
556 1 0.988027 0.929959 0.261089
576 1 0.835647 0.912678 0.257813
575 1 0.913869 0.836631 0.258661
625 1 0.999043 0.851947 0.329432
579 1 0.0710244 0.502087 0.422271
584 1 0.155741 0.576928 0.415402
580 1 0.00508588 0.592782 0.429613
582 1 0.256947 0.57918 0.334895
605 1 0.177465 0.659443 0.334868
583 1 0.248816 0.500437 0.416769
607 1 0.234933 0.66626 0.423272
588 1 0.324978 0.597555 0.416803
654 1 0.242344 0.585232 0.495821
613 1 0.495284 0.653784 0.343423
611 1 0.425738 0.653896 0.414973
662 1 0.589422 0.600454 0.496321
590 1 0.589765 0.585926 0.335798
615 1 0.581054 0.666654 0.414754
592 1 0.509647 0.576593 0.423358
596 1 0.663109 0.573527 0.415358
669 1 0.827952 0.505592 0.486855
595 1 0.76283 0.50317 0.408287
666 1 0.73998 0.588227 0.496446
599 1 0.919259 0.50844 0.424357
577 1 0.995217 0.504366 0.34585
693 1 0.841499 0.659198 0.480396
600 1 0.838187 0.59135 0.39434
597 1 0.844869 0.508059 0.336747
629 1 0.164718 0.82166 0.340648
602 1 0.0719775 0.760809 0.345768
603 1 0.0723868 0.683234 0.42404
608 1 0.164211 0.757871 0.41573
677 1 0.149759 0.668347 0.486033
606 1 0.260893 0.746596 0.347433
631 1 0.260582 0.829757 0.41008
633 1 0.345574 0.818822 0.337721
610 1 0.420817 0.732219 0.347396
635 1 0.413184 0.829361 0.432134
612 1 0.334328 0.743486 0.427323
682 1 0.418932 0.735389 0.498469
616 1 0.50096 0.743821 0.417953
713 1 0.643089 0.831278 0.487861
619 1 0.746305 0.679825 0.4158
624 1 0.829958 0.762625 0.42798
620 1 0.671493 0.751961 0.427173
618 1 0.741656 0.760246 0.339523
622 1 0.907249 0.773837 0.347078
604 1 0.993628 0.753982 0.431952
623 1 0.920211 0.67464 0.408945
694 1 0.912165 0.755812 0.49867
698 1 0.0772459 0.930777 0.491299
627 1 0.0747942 0.842668 0.430377
626 1 0.0863216 0.93236 0.335283
701 1 0.183705 0.834228 0.493753
630 1 0.257843 0.90711 0.338359
632 1 0.170133 0.920959 0.410374
151 1 0.250212 0.99342 0.410083
702 1 0.258732 0.90564 0.47757
640 1 0.492977 0.91264 0.406758
636 1 0.346021 0.923532 0.410209
644 1 0.660269 0.927301 0.405013
159 1 0.560812 0.991456 0.399291
639 1 0.586229 0.850113 0.407731
710 1 0.575969 0.921456 0.491217
233 1 0.651446 0.999059 0.498376
645 1 0.831805 0.838994 0.340962
643 1 0.742095 0.840428 0.426529
648 1 0.814244 0.928085 0.412923
628 1 0.986413 0.925145 0.418106
646 1 0.909824 0.925131 0.343889
647 1 0.92285 0.847751 0.424653
722 1 0.0748757 0.569935 0.663752
656 1 0.163922 0.579512 0.583047
650 1 0.0846303 0.57998 0.50608
653 1 0.165599 0.502971 0.505022
679 1 0.235499 0.662727 0.583803
660 1 0.33323 0.570753 0.578894
753 1 0.331828 0.656229 0.660998
726 1 0.249574 0.5811 0.666065
655 1 0.255564 0.502262 0.573549
683 1 0.4145 0.652486 0.58256
658 1 0.420512 0.565236 0.504412
685 1 0.496528 0.654791 0.50162
664 1 0.507399 0.577871 0.581931
668 1 0.665437 0.58193 0.586264
665 1 0.664769 0.501931 0.501283
761 1 0.670635 0.658345 0.664937
738 1 0.745491 0.585572 0.663872
667 1 0.760918 0.516442 0.569277
691 1 0.758228 0.664456 0.582697
672 1 0.836046 0.59362 0.583214
652 1 0.999236 0.579424 0.592228
670 1 0.911945 0.59762 0.510417
649 1 0.991162 0.512178 0.5104
741 1 0.845226 0.507649 0.665599
749 1 0.166397 0.679512 0.662689
675 1 0.080592 0.671127 0.596804
676 1 0.0115154 0.761555 0.592572
680 1 0.163236 0.756494 0.576701
674 1 0.0782799 0.757428 0.50219
673 1 0.0060542 0.674154 0.511321
703 1 0.244851 0.830209 0.584605
705 1 0.327139 0.824109 0.512415
678 1 0.237615 0.742789 0.500277
684 1 0.336092 0.745725 0.58687
707 1 0.424006 0.820885 0.575219
754 1 0.426093 0.734872 0.659225
688 1 0.498078 0.742859 0.579598
777 1 0.35431 0.821429 0.665424
681 1 0.335475 0.667637 0.516043
687 1 0.586939 0.667748 0.592636
692 1 0.660169 0.755705 0.588702
686 1 0.582926 0.740301 0.507404
758 1 0.588495 0.760291 0.664178
709 1 0.508002 0.830359 0.501956
789 1 0.829345 0.833006 0.659085
717 1 0.828215 0.832399 0.501571
689 1 0.674875 0.667677 0.510119
690 1 0.744803 0.752901 0.508655
696 1 0.833606 0.738305 0.567811
745 1 0.997375 0.667165 0.665098
695 1 0.929587 0.674458 0.581815
766 1 0.916184 0.753848 0.658219
765 1 0.845575 0.669525 0.659882
219 1 0.0871418 0.998998 0.574851
699 1 0.0779933 0.843881 0.573192
704 1 0.171433 0.92564 0.571174
773 1 0.170644 0.844122 0.664047
223 1 0.268553 0.987108 0.587025
708 1 0.342186 0.911157 0.591595
778 1 0.422128 0.913603 0.662
712 1 0.494839 0.898956 0.585466
297 1 0.351312 0.992768 0.664902
706 1 0.416647 0.912686 0.502376
231 1 0.566945 0.995819 0.579948
711 1 0.583826 0.835135 0.581762
716 1 0.652834 0.915358 0.58226
715 1 0.749423 0.839071 0.579499
720 1 0.822305 0.925829 0.585561
785 1 0.66723 0.837426 0.663292
714 1 0.745917 0.914512 0.502677
719 1 0.909231 0.845521 0.577605
700 1 0.984746 0.924327 0.578859
697 1 0.998418 0.841533 0.509194
718 1 0.901543 0.921475 0.508127
728 1 0.159068 0.590808 0.749685
724 1 0.00310086 0.565327 0.760193
798 1 0.264978 0.590006 0.832971
732 1 0.325993 0.596741 0.744543
725 1 0.167997 0.505214 0.681344
730 1 0.425585 0.581244 0.667832
802 1 0.421321 0.592862 0.828734
736 1 0.497625 0.596114 0.746509
731 1 0.424572 0.507559 0.755381
729 1 0.338339 0.507947 0.68369
805 1 0.508986 0.50328 0.818076
757 1 0.503478 0.663349 0.668955
734 1 0.586005 0.557589 0.676108
759 1 0.587978 0.657036 0.739662
740 1 0.679595 0.589445 0.742083
833 1 0.676585 0.653764 0.82047
810 1 0.767353 0.581007 0.825493
742 1 0.924192 0.586032 0.677322
721 1 0.992805 0.500662 0.674086
837 1 0.840292 0.665802 0.82417
744 1 0.836636 0.583895 0.740803
743 1 0.909627 0.508952 0.764397
746 1 0.0921368 0.764993 0.669486
747 1 0.0820137 0.669359 0.747989
818 1 0.0851052 0.745238 0.828696
752 1 0.164825 0.758229 0.752424
771 1 0.0769391 0.832905 0.761544
748 1 0.003669 0.745007 0.741078
750 1 0.263593 0.741085 0.669685
751 1 0.246943 0.667642 0.747899
775 1 0.256069 0.825646 0.753155
781 1 0.499063 0.81461 0.67267
755 1 0.409988 0.666982 0.744274
756 1 0.344632 0.752471 0.754712
826 1 0.424019 0.745796 0.832556
760 1 0.505136 0.746117 0.750303
764 1 0.663024 0.744398 0.739563
763 1 0.760212 0.671979 0.734714
762 1 0.746451 0.759006 0.669454
787 1 0.75755 0.82516 0.758648
834 1 0.744593 0.74187 0.829346
817 1 0.995801 0.668298 0.8302
768 1 0.834229 0.752592 0.746167
767 1 0.91746 0.669187 0.746438
841 1 0.995207 0.823159 0.82454
838 1 0.917571 0.749919 0.825774
791 1 0.915926 0.832582 0.751105
861 1 0.841504 0.829551 0.823403
770 1 0.0645377 0.903663 0.67399
291 1 0.0910544 0.991859 0.745602
365 1 0.175582 0.986343 0.828082
774 1 0.259526 0.906207 0.672111
293 1 0.173033 0.989716 0.671428
776 1 0.169718 0.911608 0.751234
846 1 0.26879 0.899347 0.829173
780 1 0.333303 0.911731 0.7489
295 1 0.262523 0.988634 0.746432
299 1 0.412309 0.976463 0.750746
779 1 0.430183 0.838695 0.748779
303 1 0.589718 0.995042 0.768851
782 1 0.57568 0.907234 0.67312
784 1 0.507879 0.916609 0.757545
783 1 0.594153 0.834844 0.749781
786 1 0.733381 0.93166 0.671804
788 1 0.666883 0.915962 0.748116
792 1 0.827915 0.913582 0.749343
857 1 0.674887 0.83727 0.827505
769 1 0.977868 0.839027 0.669672
790 1 0.912911 0.924396 0.671558
772 1 0.991977 0.922649 0.745938
794 1 0.0854713 0.588879 0.847454
795 1 0.0907828 0.5053 0.928446
819 1 0.0890209 0.663174 0.925456
800 1 0.167763 0.586369 0.924107
823 1 0.25214 0.661683 0.920487
465 1 0.332823 0.645367 0.991666
804 1 0.336148 0.577238 0.907299
829 1 0.495883 0.66177 0.843027
827 1 0.40626 0.660418 0.918351
806 1 0.598136 0.578842 0.833748
808 1 0.517387 0.580412 0.920214
831 1 0.58428 0.657011 0.903703
812 1 0.661996 0.582529 0.912246
469 1 0.500331 0.661135 0.994864
809 1 0.680623 0.502453 0.843851
811 1 0.754407 0.51671 0.915608
835 1 0.752611 0.656623 0.901883
473 1 0.669209 0.655626 0.994576
814 1 0.929344 0.581118 0.833393
796 1 0.998435 0.576511 0.919828
816 1 0.836286 0.586805 0.917484
454 1 0.922889 0.595923 0.989118
843 1 0.0795389 0.832561 0.919246
458 1 0.0591229 0.746567 0.993949
821 1 0.167643 0.679055 0.842692
822 1 0.256218 0.755669 0.833787
824 1 0.167083 0.740507 0.924997
825 1 0.333026 0.683226 0.833509
828 1 0.331264 0.747851 0.935255
851 1 0.42118 0.833138 0.909628
832 1 0.495045 0.74869 0.924861
466 1 0.416596 0.735593 0.98993
830 1 0.569073 0.742405 0.836345
470 1 0.577265 0.7441 0.997022
474 1 0.742159 0.741386 0.992646
840 1 0.82768 0.758089 0.909745
836 1 0.666934 0.742025 0.911548
859 1 0.740774 0.832142 0.927981
477 1 0.828676 0.670659 0.996675
820 1 0.999985 0.738463 0.91161
863 1 0.924939 0.822853 0.928348
839 1 0.911099 0.668954 0.904109
478 1 0.935151 0.739744 0.991479
844 1 0.0113578 0.915625 0.926867
361 1 0.00630914 0.995482 0.838342
842 1 0.0888883 0.906004 0.841841
363 1 0.0935169 0.994268 0.912435
845 1 0.171965 0.840292 0.845756
848 1 0.167772 0.918481 0.924827
847 1 0.246567 0.833754 0.924732
369 1 0.330336 0.992408 0.8371
367 1 0.258903 0.988884 0.918836
9 1 0.331233 0.997769 0.999903
852 1 0.351114 0.915774 0.915938
856 1 0.49341 0.909074 0.935466
849 1 0.351375 0.837682 0.835711
850 1 0.439973 0.907081 0.834121
489 1 0.340322 0.83942 0.999736
860 1 0.664549 0.91211 0.930206
853 1 0.520032 0.834473 0.844334
854 1 0.59446 0.913717 0.845553
855 1 0.581877 0.839076 0.93142
858 1 0.751093 0.903234 0.838528
864 1 0.833898 0.906976 0.908019
862 1 0.92862 0.911582 0.839709
502 1 0.913893 0.910906 0.996359
