ITEM: TIMESTEP
10700
ITEM: NUMBER OF ATOMS
864
ITEM: BOX BOUNDS pp pp pp
0.0000000000000000e+00 3.1559999999999999e+01
0.0000000000000000e+00 3.1559999999999999e+01
0.0000000000000000e+00 3.1559999999999999e+01
ITEM: ATOMS id type xs ys zs
8 1 0.182174 0.068091 0.0905847
511 1 0.237083 0.491614 0.263556
74 1 0.0776068 0.0887375 0.15567
65 1 0.667408 0.324754 0.0123838
439 1 0.253524 0.484186 0.084919
515 1 0.425623 0.499176 0.241898
12 1 0.334256 0.0706455 0.083069
593 1 0.659149 0.496052 0.330681
513 1 0.334946 0.482861 0.178745
78 1 0.264239 0.0743764 0.176782
105 1 0.3326 0.164207 0.176148
42 1 0.744125 0.248288 0.00422287
16 1 0.49799 0.0764416 0.0768151
163 1 0.73841 -0.0102866 0.41394
34 1 0.427441 0.24743 0.00886031
86 1 0.590353 0.0776158 0.163434
15 1 0.580154 -0.0069497 0.0885153
20 1 0.674447 0.0866166 0.0734793
24 1 0.835041 0.0818398 0.0736849
4 1 0.00392359 0.0789049 0.0582371
585 1 0.337618 0.50796 0.32914
525 1 0.833765 0.502848 0.166713
27 1 0.0995233 0.171186 0.0905742
32 1 0.180624 0.245784 0.0872777
98 1 0.0846951 0.250533 0.171024
51 1 0.0731039 0.325206 0.0946381
125 1 0.15536 0.334011 0.182798
31 1 0.258325 0.167507 0.0835139
36 1 0.337038 0.243972 0.088839
87 1 0.567427 0.00203898 0.242701
35 1 0.41819 0.152826 0.0834911
59 1 0.426023 0.328914 0.0948188
39 1 0.582432 0.156114 0.0842585
40 1 0.510292 0.238668 0.0859655
110 1 0.598733 0.247062 0.174949
44 1 0.671258 0.248267 0.0840574
137 1 0.682202 0.332192 0.157138
113 1 0.663947 0.160288 0.172679
43 1 0.739934 0.160499 0.0882747
114 1 0.76838 0.244356 0.173845
47 1 0.914801 0.153839 0.0835703
28 1 -0.00517615 0.245183 0.0806824
48 1 0.828284 0.241299 0.0862822
141 1 0.840351 0.332227 0.157901
71 1 0.92666 0.321639 0.0793925
10 1 0.410382 0.0836544 -0.001186
56 1 0.171746 0.406567 0.100248
50 1 0.0968077 0.401315 0.0135654
437 1 0.166958 0.489596 0.0042684
55 1 0.247978 0.32224 0.105659
126 1 0.246387 0.42051 0.185222
60 1 0.332287 0.403882 0.114225
133 1 0.508671 0.335606 0.166246
509 1 0.162175 0.489085 0.163034
155 1 0.425798 0.00423184 0.418561
7 1 0.258909 -0.00733473 0.074005
64 1 0.515934 0.420095 0.0912979
63 1 0.587339 0.318535 0.0870654
134 1 0.600695 0.403153 0.154785
6 1 0.258536 0.0773441 -0.00456626
451 1 0.770504 0.499256 0.0816664
68 1 0.677417 0.411406 0.0769761
67 1 0.752733 0.332061 0.0746673
138 1 0.767426 0.407074 0.156595
72 1 0.848054 0.423173 0.0876283
58 1 0.425128 0.403105 0.0208769
147 1 0.0778651 0.000627112 0.422705
52 1 -0.00694928 0.413462 0.0752351
121 1 0.0116688 0.332497 0.179021
277 1 0.506483 0.335833 0.515477
142 1 0.916942 0.414525 0.166614
153 1 0.341934 -0.002735 0.33163
80 1 0.164757 0.0707615 0.262544
99 1 0.0807334 0.167056 0.247222
173 1 0.160406 0.162361 0.32778
83 1 0.406826 0.000307165 0.249066
103 1 0.242524 0.150368 0.251179
82 1 0.410814 0.0923955 0.171664
84 1 0.346864 0.0866812 0.257611
109 1 0.50845 0.150179 0.160567
88 1 0.488841 0.0852225 0.247705
92 1 0.651694 0.0690675 0.244776
158 1 0.56732 0.0872278 0.321537
185 1 0.660015 0.144835 0.337686
79 1 0.249976 0.00270589 0.258554
117 1 0.821253 0.147983 0.167101
90 1 0.742052 0.0737919 0.172718
115 1 0.74158 0.1484 0.257348
195 1 0.0833407 0.324109 0.424451
97 1 0.00349019 0.163502 0.155435
208 1 0.508024 0.399244 0.394532
96 1 0.823183 0.070731 0.258532
94 1 0.915736 0.0848028 0.17188
76 1 0.994843 0.0858993 0.254116
119 1 0.91973 0.160001 0.239634
207 1 0.589967 0.327207 0.409025
101 1 0.168145 0.163491 0.167883
123 1 0.0851124 0.321996 0.263087
100 1 1.00178 0.249689 0.262049
104 1 0.156999 0.246243 0.25171
102 1 0.24471 0.233563 0.166323
129 1 0.32914 0.318527 0.191604
108 1 0.322808 0.232402 0.262872
127 1 0.248655 0.32118 0.261614
201 1 0.333707 0.33461 0.329186
107 1 0.418588 0.176604 0.245932
106 1 0.418573 0.238386 0.158006
178 1 0.416637 0.255671 0.32256
181 1 0.4998 0.171601 0.322451
112 1 0.500848 0.249614 0.246313
111 1 0.579045 0.150119 0.238286
116 1 0.677465 0.23475 0.251339
186 1 0.768584 0.238921 0.323206
139 1 0.76209 0.337852 0.250061
189 1 0.840851 0.150892 0.324848
118 1 0.917117 0.238436 0.161218
120 1 0.852198 0.24071 0.248069
143 1 0.921107 0.315263 0.253212
190 1 0.914991 0.240239 0.340198
122 1 0.076155 0.421732 0.173413
193 1 0.999139 0.324795 0.332076
194 1 0.0709278 0.405467 0.347205
124 1 0.995689 0.41509 0.244697
211 1 0.742401 0.338937 0.397106
128 1 0.153046 0.418853 0.257943
132 1 0.339723 0.413702 0.252435
455 1 0.912823 0.511965 0.0853001
172 1 1.00145 0.2589 0.416334
212 1 0.645166 0.411383 0.411389
130 1 0.433913 0.406776 0.161727
131 1 0.430435 0.332918 0.23959
205 1 0.518445 0.329322 0.319634
136 1 0.509569 0.409932 0.24832
202 1 0.410193 0.41806 0.33815
135 1 0.596974 0.317822 0.251003
206 1 0.591004 0.407449 0.316939
209 1 0.674025 0.324924 0.3188
140 1 0.677119 0.420617 0.247087
210 1 0.75885 0.415397 0.330736
216 1 0.840531 0.420054 0.412947
144 1 0.836692 0.417436 0.250414
214 1 0.919547 0.411375 0.327322
146 1 0.0805136 0.076932 0.333763
215 1 0.921857 0.336805 0.415964
171 1 0.0740419 0.15957 0.432074
152 1 0.156219 0.0829829 0.416494
196 1 0.979318 0.444588 0.41866
151 1 0.242884 -0.00764692 0.41911
150 1 0.251228 0.0676597 0.35497
54 1 0.25052 0.411243 0.00751443
77 1 0.153007 0.00179 0.170134
154 1 0.424618 0.090628 0.348595
156 1 0.337542 0.0834923 0.411428
177 1 0.337271 0.157543 0.339114
179 1 0.428208 0.174406 0.408943
203 1 0.420929 0.327563 0.403393
160 1 0.51635 0.0892696 0.416167
164 1 0.668318 0.0834019 0.423368
162 1 0.747476 0.0756266 0.339532
168 1 0.84548 0.073449 0.415834
192 1 0.831043 0.249811 0.419275
166 1 0.913312 0.0783526 0.3269
148 1 1.0026 0.0854617 0.415971
191 1 0.910178 0.156139 0.417739
169 1 0.996318 0.173006 0.336477
200 1 0.162178 0.419267 0.423514
198 1 0.258948 0.412268 0.332355
170 1 0.0857127 0.237204 0.33611
197 1 0.169588 0.315168 0.336005
176 1 0.160883 0.244573 0.422369
187 1 0.76125 0.172719 0.414676
199 1 0.238924 0.340945 0.429883
174 1 0.236091 0.240074 0.338778
175 1 0.23921 0.156068 0.410188
204 1 0.341658 0.414102 0.422076
180 1 0.311029 0.254459 0.410185
184 1 0.507135 0.265669 0.405053
182 1 0.584979 0.228321 0.310289
183 1 0.591 0.175122 0.412288
188 1 0.67244 0.256111 0.396705
213 1 0.835019 0.329272 0.326141
505 1 -0.0095897 0.499296 0.157272
11 1 0.415349 -0.000197337 0.084589
69 1 0.828677 0.343488 0.0026824
3 1 0.0914397 -0.00276733 0.0839287
443 1 0.411653 0.504999 0.0919143
273 1 0.329432 0.34614 0.50755
19 1 0.753194 -0.0109509 0.0788756
441 1 0.325488 0.486732 0.00282073
149 1 0.155074 0.00240502 0.344743
159 1 0.57957 0.00598145 0.422813
453 1 0.850068 0.508694 0.00171155
70 1 0.910759 0.414266 0.00566313
38 1 0.585557 0.262684 -0.00444075
37 1 0.494471 0.156768 0.00820015
29 1 0.181631 0.169273 0.00357745
258 1 0.748771 0.253874 0.498723
241 1 0.989339 0.179804 0.504964
253 1 0.514238 0.170081 0.493436
234 1 0.751989 0.0881833 0.497852
30 1 0.266144 0.263583 0.00848599
245 1 0.16429 0.164688 0.499094
45 1 0.814242 0.167976 0.00603257
46 1 0.917074 0.232002 0.0100728
249 1 0.345273 0.179831 0.482409
226 1 0.424063 0.0821748 0.501363
66 1 0.754699 0.429086 0.00473525
230 1 0.587511 0.0956654 0.50278
282 1 0.751748 0.410865 0.486311
22 1 0.92453 0.0841183 -0.00679353
250 1 0.420278 0.27366 0.498581
449 1 0.663561 0.497839 0.0098796
286 1 0.910085 0.421612 0.494611
62 1 0.589168 0.41165 0.00419147
220 1 0.997452 0.087009 0.583314
224 1 0.161395 0.0780466 0.59772
803 1 0.406991 0.50674 0.922788
363 1 0.0917336 0.0013132 0.914733
721 1 0.00968106 0.497522 0.658852
809 1 0.648061 0.487961 0.831822
228 1 0.3294 0.086026 0.560234
251 1 0.414097 0.179136 0.573585
298 1 0.422475 0.0933575 0.649325
729 1 0.335989 0.498618 0.666924
377 1 0.666216 -0.00335328 0.827492
278 1 0.585342 0.413271 0.505275
232 1 0.494948 0.105781 0.583033
255 1 0.58174 0.185804 0.587084
383 1 0.920469 -0.00984078 0.916708
302 1 0.568453 0.0945573 0.660235
659 1 0.404813 0.493766 0.573368
223 1 0.253483 0.0099931 0.588522
295 1 0.254 0.00399573 0.740989
236 1 0.659501 0.0926868 0.591232
240 1 0.830884 0.0813395 0.596131
306 1 0.753826 0.0822195 0.680816
651 1 0.0862495 0.496743 0.584877
805 1 0.50718 0.508227 0.836242
263 1 0.915418 0.181851 0.577494
310 1 0.923488 0.0868174 0.652607
431 1 0.91789 0.331025 0.937881
243 1 0.066832 0.166801 0.586216
244 1 0.999356 0.26247 0.587329
314 1 0.0916429 0.253814 0.665429
663 1 0.570452 0.491489 0.575304
247 1 0.258721 0.177802 0.582361
248 1 0.165279 0.232809 0.594499
227 1 0.425632 -0.00536406 0.586401
252 1 0.344918 0.260444 0.575261
322 1 0.413838 0.249181 0.660652
256 1 0.50081 0.258089 0.580722
369 1 0.335708 -0.00692827 0.831659
733 1 0.497731 0.501058 0.665071
262 1 0.921597 0.252426 0.489828
279 1 0.5968 0.331216 0.576303
219 1 0.0824261 -0.00280425 0.587244
260 1 0.675859 0.243652 0.575473
259 1 0.758422 0.17431 0.594409
330 1 0.763039 0.255835 0.682131
264 1 0.838927 0.25359 0.592346
373 1 0.498653 0.01503 0.831397
334 1 0.922709 0.260246 0.671295
313 1 1.00545 0.163384 0.67422
267 1 0.088328 0.320862 0.587891
268 1 1.00441 0.417939 0.584301
741 1 0.840286 0.494254 0.666041
305 1 0.664145 0.0136005 0.668423
271 1 0.259642 0.329302 0.583591
272 1 0.160929 0.400471 0.599994
430 1 0.922784 0.411185 0.843065
276 1 0.322518 0.411344 0.601294
275 1 0.409448 0.348148 0.591746
793 1 1.01422 0.499505 0.819011
353 1 0.683049 0.332925 0.67115
280 1 0.4926 0.409411 0.588951
284 1 0.665618 0.413639 0.578879
361 1 0.0029522 0.00674801 0.824238
239 1 0.910612 0.0097652 0.577687
283 1 0.744543 0.328116 0.587058
288 1 0.837869 0.432281 0.574995
354 1 0.759423 0.41521 0.662874
287 1 0.928947 0.338096 0.576648
357 1 0.839552 0.344376 0.654741
358 1 0.913746 0.418859 0.656447
290 1 0.0881414 0.0908903 0.666806
362 1 0.0827426 0.106237 0.825861
294 1 0.259525 0.0987441 0.65279
412 1 1.00342 0.413935 0.928876
296 1 0.172623 0.083855 0.745958
366 1 0.240404 0.0855407 0.823136
389 1 0.171792 0.170901 0.837031
300 1 0.334146 0.0880369 0.752412
393 1 0.332719 0.174727 0.84278
304 1 0.495533 0.0987132 0.743527
323 1 0.413059 0.175158 0.748446
374 1 0.589582 0.0929058 0.830518
308 1 0.663339 0.0852538 0.763974
327 1 0.586322 0.171515 0.757397
1 1 0.00179826 -0.00569589 0.992584
333 1 0.833184 0.161298 0.678927
312 1 0.839881 0.078592 0.754854
331 1 0.759222 0.160316 0.757099
807 1 0.582056 0.510508 0.935377
292 1 0.0056708 0.0926803 0.751787
335 1 0.920023 0.162438 0.749233
285 1 0.834741 0.328518 0.488006
385 1 -0.00188771 0.166085 0.856785
315 1 0.0865762 0.172597 0.747272
339 1 0.0816907 0.321611 0.746212
320 1 0.172015 0.238509 0.749399
317 1 0.182013 0.167117 0.671678
318 1 0.253137 0.258912 0.682132
341 1 0.166971 0.331507 0.676169
319 1 0.260599 0.165458 0.752737
321 1 0.332112 0.182052 0.663891
324 1 0.33453 0.250292 0.7586
325 1 0.499966 0.176985 0.661007
326 1 0.590071 0.260226 0.666876
328 1 0.512535 0.24953 0.747172
425 1 0.66373 0.336669 0.838744
332 1 0.68246 0.248122 0.771404
329 1 0.6697 0.179173 0.678626
405 1 0.830077 0.168837 0.85076
402 1 0.759852 0.251667 0.84999
337 1 0.990546 0.337211 0.673583
336 1 0.841429 0.239684 0.759851
316 1 -0.00362083 0.260185 0.751357
409 1 0.997972 0.329315 0.845423
338 1 0.0727199 0.416574 0.670996
340 1 0.990585 0.421021 0.742359
427 1 0.738956 0.341456 0.919872
345 1 0.333244 0.326723 0.664304
344 1 0.158879 0.42788 0.752806
342 1 0.244239 0.43308 0.668251
343 1 0.252565 0.341594 0.756743
414 1 0.260767 0.419 0.843354
346 1 0.403572 0.41208 0.670548
347 1 0.415179 0.328517 0.760724
348 1 0.339251 0.423065 0.755696
432 1 0.823713 0.415255 0.912386
254 1 0.587251 0.260579 0.492948
349 1 0.490433 0.323141 0.668756
350 1 0.584165 0.409722 0.661497
351 1 0.602687 0.328374 0.753923
352 1 0.503035 0.418 0.752538
799 1 0.247975 0.495859 0.920755
426 1 0.735251 0.432005 0.842394
355 1 0.745256 0.342122 0.762387
356 1 0.680527 0.414441 0.753192
360 1 0.837477 0.41159 0.758505
416 1 0.175653 0.4192 0.919489
359 1 0.900418 0.333261 0.76793
429 1 0.825751 0.335975 0.847522
387 1 0.077648 0.168975 0.924823
424 1 0.50591 0.424916 0.929051
368 1 0.169953 0.0889805 0.925232
372 1 0.332403 0.0781885 0.918037
391 1 0.266965 0.178742 0.922808
370 1 0.414527 0.091192 0.828442
376 1 0.493236 0.0869406 0.9118
395 1 0.415473 0.155671 0.921564
18 1 0.754009 0.0765905 1.00883
418 1 0.426729 0.416597 0.835033
417 1 0.341423 0.349654 0.837811
399 1 0.581887 0.171659 0.922902
380 1 0.675346 0.0778742 0.931563
401 1 0.673827 0.161089 0.850885
423 1 0.582397 0.335203 0.92561
41 1 0.660274 0.165163 1.00586
378 1 0.763698 0.0834333 0.825113
384 1 0.824909 0.0739629 0.92084
403 1 0.749871 0.151747 0.929734
428 1 0.663218 0.415332 0.932077
410 1 0.0805293 0.403482 0.831677
364 1 0.0137823 0.0803841 0.929937
382 1 0.922674 0.0882913 0.846842
407 1 0.904204 0.157129 0.924877
415 1 0.255589 0.335025 0.924852
386 1 0.0797531 0.249613 0.846246
392 1 0.177779 0.237317 0.923354
218 1 0.0859958 0.0823169 0.507568
420 1 0.331099 0.411984 0.928103
390 1 0.255027 0.248478 0.843638
396 1 0.34546 0.266907 0.926426
397 1 0.506201 0.161762 0.826112
394 1 0.427139 0.243686 0.841005
419 1 0.420499 0.342954 0.923412
422 1 0.578685 0.416383 0.845587
400 1 0.498907 0.24336 0.920132
398 1 0.585763 0.241197 0.837165
404 1 0.663033 0.247008 0.913728
421 1 0.498226 0.324 0.836598
408 1 0.83685 0.255695 0.927665
413 1 0.163909 0.324084 0.83617
289 1 0.0144942 -0.00344474 0.661058
406 1 0.907378 0.262979 0.842971
388 1 0.997854 0.251913 0.934305
411 1 0.0921051 0.336256 0.927004
265 1 -0.00575951 0.34928 0.490442
727 1 0.258015 0.507515 0.744582
311 1 0.910776 -0.0045015 0.753857
222 1 0.23371 0.0863664 0.491379
17 1 0.65879 -0.00146926 1.00254
657 1 0.329484 0.508714 0.490069
801 1 0.343372 0.500532 0.837568
381 1 0.834529 -0.00376856 0.838277
293 1 0.175341 -0.0121157 0.651049
25 1 0.00123588 0.169593 1.01006
231 1 0.580997 0.00587597 0.579855
723 1 0.0898202 0.509097 0.745379
281 1 0.671201 0.336758 0.479535
307 1 0.746131 0.00953566 0.752076
671 1 0.921873 0.506125 0.586589
2 1 0.0896448 0.0873551 1.00679
371 1 0.412112 0.00242524 0.909203
367 1 0.253805 -0.00886079 0.891534
667 1 0.752849 0.516093 0.59534
303 1 0.579695 0.0129646 0.753475
795 1 0.0831057 0.486489 0.915102
257 1 0.663246 0.168986 0.504811
13 1 0.500579 0.00244448 0.999335
291 1 0.0943524 0.006945 0.744285
235 1 0.754382 0.0130451 0.593944
242 1 0.0767197 0.255603 0.50442
61 1 0.5052 0.334154 1.01273
33 1 0.339347 0.182482 1.00058
661 1 0.486096 0.489382 0.502735
274 1 0.419201 0.406478 0.494537
246 1 0.250676 0.248111 0.489811
238 1 0.919577 0.0873769 0.502639
266 1 0.0718239 0.423109 0.508426
445 1 0.499739 0.500499 1.01356
233 1 0.668004 0.00781106 0.493709
14 1 0.586369 0.0828668 1.00712
53 1 0.175314 0.321688 1.00895
261 1 0.83308 0.170515 0.508021
270 1 0.232203 0.418821 0.507265
269 1 0.168505 0.32937 0.514495
49 1 0.00931335 0.33599 1.00269
26 1 0.0949397 0.248647 1.00847
237 1 0.845937 0.00603001 0.507224
221 1 0.154982 0.00184999 0.499259
649 1 0.008473 0.512636 0.502923
57 1 0.344138 0.336094 1.02333
436 1 1.00075 0.5962 0.0683859
435 1 0.0689262 0.494645 0.0801985
506 1 0.0734729 0.583264 0.156242
440 1 0.173367 0.581953 0.08053
444 1 0.330948 0.576891 0.0958257
521 1 0.660394 0.498062 0.168205
89 1 0.66568 0.983387 0.15678
514 1 0.411095 0.581733 0.180058
448 1 0.483772 0.589554 0.0805937
467 1 0.410617 0.672061 0.0728021
527 1 0.909189 0.499437 0.245496
91 1 0.750245 0.986296 0.228944
73 1 0.00322194 1.0001 0.169263
471 1 0.56749 0.67329 0.0810363
518 1 0.579428 0.580619 0.17056
658 1 0.418565 0.574746 0.489318
452 1 0.683887 0.578524 0.0787354
522 1 0.749114 0.572013 0.171237
93 1 0.83453 0.99791 0.155227
457 1 0.998456 0.668745 -0.01821
456 1 0.826054 0.585701 0.091449
625 1 -0.00659139 0.837178 0.334569
526 1 0.915393 0.584271 0.161433
23 1 0.924333 0.991385 0.0685167
529 1 0.99686 0.670492 0.148265
459 1 0.0944021 0.661142 0.0758871
460 1 1.01021 0.753244 0.0821982
464 1 0.168572 0.739673 0.0725361
702 1 0.252112 0.926602 0.509368
533 1 0.167941 0.669241 0.161123
463 1 0.250705 0.661693 0.0723819
454 1 0.91925 0.59345 -0.00735278
577 1 -0.00814241 0.504235 0.333941
468 1 0.327712 0.762235 0.0642819
472 1 0.489385 0.750126 0.0836339
507 1 0.0811169 0.515566 0.236665
541 1 0.496318 0.650757 0.16901
495 1 0.578778 0.826287 0.0828427
589 1 0.502057 0.488333 0.331486
165 1 0.826672 1.00117 0.336588
545 1 0.665346 0.657607 0.160019
475 1 0.756674 0.661656 0.0878382
476 1 0.671532 0.751521 0.0812347
499 1 0.746386 0.820964 0.0821761
579 1 0.0874584 0.496322 0.418435
479 1 0.913347 0.660847 0.0803957
480 1 0.833449 0.737361 0.0997027
550 1 0.917431 0.753083 0.180427
503 1 0.909183 0.834347 0.091942
553 1 1.00788 0.831466 0.150474
573 1 0.830253 0.82368 0.167305
483 1 0.087236 0.84311 0.0792143
628 1 1.01384 0.930423 0.42514
157 1 0.506784 0.999796 0.331929
705 1 0.338813 0.835675 0.49179
487 1 0.243826 0.833287 0.0774564
488 1 0.166194 0.91154 0.0717155
492 1 0.329916 0.911917 0.0707688
442 1 0.407254 0.584666 0.00583049
714 1 0.758743 0.937293 0.520173
595 1 0.74323 0.495546 0.417075
491 1 0.426149 0.843502 0.0728624
496 1 0.500125 0.92703 0.0900712
561 1 0.333265 0.839351 0.152742
562 1 0.409543 0.927602 0.160588
566 1 0.57013 0.907262 0.166886
648 1 0.828319 0.92926 0.420845
145 1 0.998732 1.01379 0.333588
81 1 0.332346 1.00828 0.17369
599 1 0.906844 0.533513 0.42981
500 1 0.677085 0.908866 0.0785953
678 1 0.249266 0.731597 0.504273
666 1 0.726879 0.587581 0.48917
484 1 0.00675755 0.917883 0.0805981
504 1 0.839938 0.912314 0.070372
646 1 0.928553 0.919513 0.347999
95 1 0.919104 0.990595 0.240946
508 1 -0.0237008 0.581185 0.250856
512 1 0.166135 0.57382 0.247268
578 1 0.0851454 0.572638 0.332669
647 1 0.917502 0.846294 0.429937
630 1 0.236996 0.913409 0.326692
510 1 0.241925 0.576378 0.152859
582 1 0.242559 0.590725 0.333065
629 1 0.160448 0.838565 0.33088
516 1 0.316897 0.579443 0.247014
539 1 0.428952 0.665716 0.245073
520 1 0.507758 0.569785 0.252268
586 1 0.41355 0.575543 0.314652
433 1 0.0068281 0.514731 -0.0047678
590 1 0.56773 0.584876 0.336424
587 1 0.423623 0.500645 0.403604
524 1 0.661646 0.578161 0.261446
594 1 0.737263 0.582047 0.347141
547 1 0.741417 0.664718 0.250317
620 1 0.653362 0.755586 0.418202
638 1 0.570443 0.913705 0.322783
528 1 0.83357 0.577622 0.262168
551 1 0.922656 0.681851 0.260173
598 1 0.911853 0.576087 0.334259
530 1 0.0922149 0.760881 0.15703
531 1 0.0811986 0.649111 0.25005
536 1 0.153247 0.749288 0.237701
605 1 0.156839 0.681952 0.340214
602 1 0.0723901 0.761177 0.324238
534 1 0.259914 0.740209 0.151135
537 1 0.340684 0.66213 0.173033
535 1 0.231818 0.673045 0.255161
540 1 0.319376 0.73279 0.245457
538 1 0.408061 0.75395 0.168761
565 1 0.490391 0.817399 0.170872
613 1 0.497977 0.669235 0.334852
544 1 0.516773 0.740814 0.228306
610 1 0.394261 0.747703 0.328883
542 1 0.58841 0.742469 0.153757
569 1 0.668879 0.821753 0.167877
543 1 0.587337 0.666631 0.242438
548 1 0.669927 0.750628 0.248189
567 1 0.592872 0.829542 0.259739
546 1 0.751833 0.749463 0.164042
552 1 0.823882 0.754153 0.248818
618 1 0.748651 0.75796 0.332352
549 1 0.832155 0.661714 0.180151
621 1 0.837257 0.691361 0.334819
645 1 0.822924 0.843448 0.337494
532 1 0.010842 0.739508 0.233036
622 1 0.910661 0.770387 0.330819
640 1 0.516492 0.917525 0.414417
554 1 0.0935476 0.916721 0.173284
555 1 0.0786532 0.832875 0.251465
557 1 0.172327 0.836965 0.166465
556 1 0.998465 0.924251 0.244001
558 1 0.251704 0.927248 0.181181
559 1 0.262219 0.834811 0.245528
560 1 0.162589 0.911939 0.253058
633 1 0.324749 0.837152 0.337724
563 1 0.411218 0.82485 0.242376
564 1 0.336578 0.911132 0.254775
634 1 0.425131 0.91317 0.337584
644 1 0.646651 0.923385 0.406583
568 1 0.487919 0.918913 0.237128
641 1 0.667103 0.83551 0.342799
639 1 0.571848 0.825816 0.411228
616 1 0.493009 0.751985 0.413951
698 1 0.0793593 0.920039 0.514668
571 1 0.750951 0.84205 0.247803
572 1 0.661826 0.932283 0.244443
570 1 0.758454 0.899423 0.145125
642 1 0.751608 0.924238 0.327488
576 1 0.837623 0.911951 0.257029
575 1 0.918435 0.845252 0.241823
574 1 0.935125 0.918241 0.155335
580 1 0.999174 0.589887 0.425832
75 1 0.0670513 1.00178 0.248399
636 1 0.33138 0.920483 0.402389
637 1 0.493679 0.81266 0.314849
609 1 0.330087 0.656249 0.32401
584 1 0.161829 0.59011 0.413934
588 1 0.332571 0.592427 0.416533
607 1 0.251584 0.678406 0.408908
624 1 0.820176 0.76571 0.435097
632 1 0.15097 0.913341 0.420572
611 1 0.418784 0.671232 0.415406
604 1 -0.0190251 0.758212 0.421968
631 1 0.247191 0.847404 0.433751
626 1 0.0811812 0.926394 0.328973
619 1 0.737611 0.674559 0.411613
167 1 0.918774 1.00191 0.421766
615 1 0.579321 0.668671 0.415369
592 1 0.489529 0.588804 0.407706
447 1 0.588182 0.499897 0.0890847
519 1 0.581944 0.490927 0.241585
617 1 0.659491 0.659491 0.337208
596 1 0.656506 0.575034 0.410353
600 1 0.81812 0.602484 0.420387
643 1 0.744819 0.871165 0.430388
614 1 0.580313 0.74345 0.330797
601 1 0.992541 0.662696 0.340062
603 1 0.0717759 0.675492 0.410259
608 1 0.179201 0.753805 0.42404
627 1 0.0816705 0.825334 0.412904
623 1 0.906255 0.662335 0.421716
606 1 0.240924 0.766042 0.338687
583 1 0.260379 0.492186 0.400436
591 1 0.567051 0.485427 0.416055
635 1 0.422627 0.821393 0.410423
612 1 0.327301 0.754278 0.419782
523 1 0.765219 0.497273 0.259173
486 1 0.242982 0.91435 -0.0257234
161 1 0.661567 1.01874 0.336327
693 1 0.813454 0.673731 0.511344
85 1 0.48202 1.02185 0.158549
581 1 0.166311 0.502318 0.341967
450 1 0.773758 0.591231 -0.00761697
597 1 0.827814 0.514362 0.340875
517 1 0.503729 0.489611 0.172929
682 1 0.424015 0.759996 0.500901
685 1 0.49151 0.667976 0.497646
489 1 0.316544 0.842893 -0.0145506
713 1 0.649875 0.816631 0.500666
665 1 0.677864 0.487452 0.503656
717 1 0.82623 0.848468 0.515064
653 1 0.167063 0.504887 0.504592
493 1 0.501916 0.835397 0.00739173
689 1 0.653672 0.664565 0.496582
498 1 0.751048 0.918369 -0.00940703
662 1 0.590059 0.574993 0.489936
438 1 0.246596 0.578412 0.00145505
470 1 0.589499 0.760712 0.00319585
473 1 0.663182 0.67051 0.00522315
481 1 -0.00554353 0.834836 0.0010728
217 1 -0.00319375 1.0099 0.504999
652 1 -0.0138872 0.588859 0.577656
675 1 0.0895346 0.682326 0.571227
722 1 0.096252 0.576711 0.664599
797 1 0.153528 0.493574 0.841592
709 1 0.496449 0.838184 0.490296
656 1 0.17072 0.579193 0.589249
725 1 0.167227 0.495102 0.660562
660 1 0.33796 0.584582 0.591417
683 1 0.424276 0.652809 0.581324
664 1 0.50373 0.581378 0.555546
687 1 0.566578 0.662426 0.571269
365 1 0.164091 1.0168 0.836504
668 1 0.653783 0.579763 0.568625
738 1 0.737839 0.597124 0.661992
21 1 0.826618 0.993174 0.99137
857 1 0.659875 0.834603 0.825583
458 1 0.0736342 0.749442 0.998235
672 1 0.829828 0.581699 0.594693
695 1 0.905372 0.669726 0.588495
765 1 0.812881 0.667643 0.660585
742 1 0.912862 0.58334 0.668025
650 1 0.079004 0.600852 0.497122
680 1 0.164866 0.766484 0.576054
676 1 -0.00110449 0.750037 0.585639
699 1 0.0764093 0.829062 0.575721
686 1 0.568909 0.746128 0.503132
746 1 0.0943351 0.749175 0.663737
679 1 0.251178 0.65801 0.588643
703 1 0.256523 0.839214 0.579545
497 1 0.670596 0.840432 0.994699
773 1 0.169219 0.824721 0.679245
684 1 0.336533 0.763712 0.571093
688 1 0.495765 0.755598 0.582939
707 1 0.42621 0.835802 0.587287
781 1 0.496363 0.832109 0.671314
669 1 0.822527 0.509629 0.497215
692 1 0.648255 0.752198 0.583256
711 1 0.57565 0.834334 0.591638
758 1 0.581276 0.751959 0.668328
785 1 0.671162 0.818923 0.677992
301 1 0.491336 1.01031 0.677321
691 1 0.725587 0.668425 0.573782
715 1 0.751028 0.842247 0.587454
762 1 0.735114 0.74312 0.661525
696 1 0.828071 0.746085 0.579659
719 1 0.92248 0.834374 0.579215
766 1 0.913816 0.750225 0.661111
789 1 0.833709 0.842022 0.659378
485 1 0.15433 0.821449 0.997659
700 1 0.00184477 0.930617 0.58276
690 1 0.734316 0.752813 0.489292
769 1 0.998527 0.837315 0.666571
704 1 0.169454 0.91483 0.574417
708 1 0.34026 0.908842 0.586067
774 1 0.256137 0.928503 0.67118
494 1 0.583738 0.920599 1.00989
815 1 0.930595 0.501378 0.908758
777 1 0.337479 0.825565 0.656676
778 1 0.423203 0.930391 0.67723
743 1 0.919167 0.5046 0.748338
712 1 0.499439 0.924986 0.578986
716 1 0.673639 0.930484 0.577828
299 1 0.412968 1.01439 0.748002
379 1 0.755317 0.993257 0.910939
720 1 0.835802 0.936924 0.589751
670 1 0.903157 0.593941 0.51508
474 1 0.754922 0.746359 0.998182
677 1 0.172651 0.655065 0.504598
747 1 0.0766128 0.645578 0.751636
724 1 0.00204449 0.577627 0.748012
745 1 0.017245 0.668721 0.656665
860 1 0.656929 0.909975 0.912189
739 1 0.745322 0.495989 0.749414
864 1 0.838037 0.910643 0.91946
726 1 0.257647 0.575263 0.656559
728 1 0.169032 0.58343 0.734003
858 1 0.753658 0.904155 0.828788
730 1 0.422946 0.57005 0.654068
753 1 0.342636 0.683586 0.657671
757 1 0.500994 0.664467 0.673612
732 1 0.341202 0.577096 0.752952
755 1 0.409785 0.667004 0.74002
697 1 1.00639 0.837401 0.494218
734 1 0.581917 0.575171 0.668629
737 1 0.664685 0.50591 0.652267
833 1 0.646413 0.670564 0.855456
736 1 0.488141 0.581267 0.749304
806 1 0.583289 0.581688 0.841552
811 1 0.761004 0.50493 0.926552
740 1 0.668081 0.573034 0.755024
744 1 0.819661 0.570315 0.742618
763 1 0.746649 0.666036 0.762048
810 1 0.745955 0.584341 0.837831
837 1 0.834956 0.666252 0.830287
767 1 0.916754 0.665173 0.738204
814 1 0.912302 0.586045 0.827865
655 1 0.266537 0.495148 0.579582
501 1 0.83521 0.823546 0.98817
748 1 1.00924 0.741549 0.738468
752 1 0.170888 0.733353 0.753262
818 1 0.0851894 0.733447 0.823622
751 1 0.257897 0.673126 0.727046
749 1 0.173695 0.659849 0.652356
750 1 0.243303 0.752186 0.650139
775 1 0.258369 0.826725 0.74798
754 1 0.426874 0.755252 0.668725
825 1 0.324069 0.655433 0.832058
756 1 0.329301 0.735206 0.750607
779 1 0.413328 0.825111 0.736872
761 1 0.655529 0.679129 0.670585
760 1 0.510986 0.755107 0.740524
759 1 0.597909 0.659877 0.756445
783 1 0.585858 0.849853 0.750154
834 1 0.75203 0.760479 0.840298
764 1 0.678876 0.747081 0.76163
787 1 0.760327 0.835394 0.738745
768 1 0.82471 0.746666 0.747907
791 1 0.922523 0.823463 0.741732
838 1 0.917024 0.736022 0.83409
735 1 0.578231 0.505991 0.746064
771 1 0.0713911 0.825739 0.748172
770 1 0.0853142 0.911667 0.662678
772 1 -0.00156786 0.922164 0.751201
842 1 0.0888144 0.924567 0.837141
776 1 0.157069 0.915996 0.750845
813 1 0.833888 0.494571 0.825485
469 1 0.488005 0.666582 0.995136
859 1 0.754952 0.842681 0.91338
780 1 0.338615 0.912993 0.745901
673 1 1.00444 0.677039 0.494017
782 1 0.584004 0.912373 0.658713
784 1 0.497537 0.931395 0.753488
854 1 0.569886 0.919128 0.844676
502 1 0.923559 0.916588 0.996651
465 1 0.333056 0.667001 0.999059
788 1 0.675454 0.916003 0.740206
786 1 0.757737 0.921587 0.666281
862 1 0.916872 0.919035 0.824304
792 1 0.830515 0.919711 0.737143
861 1 0.831779 0.827755 0.820837
790 1 0.915687 0.916771 0.663653
850 1 0.427702 0.925685 0.831813
852 1 0.330081 0.899916 0.901932
794 1 0.0874956 0.584832 0.838962
835 1 0.754513 0.670556 0.90713
796 1 0.998005 0.587315 0.900787
817 1 0.999739 0.655742 0.824505
819 1 0.0820123 0.669407 0.918954
836 1 0.673397 0.762837 0.914269
800 1 0.172899 0.582524 0.916362
798 1 0.231423 0.553827 0.832218
804 1 0.318904 0.579803 0.917868
856 1 0.507545 0.938304 0.921712
830 1 0.575671 0.749581 0.857284
309 1 0.842322 1.00728 0.672592
802 1 0.424303 0.594312 0.825045
808 1 0.49261 0.593934 0.906677
846 1 0.249779 0.922528 0.814396
845 1 0.17161 0.839726 0.827478
841 1 1.0071 0.810874 0.828575
829 1 0.504688 0.67737 0.827268
848 1 0.156691 0.903078 0.918439
812 1 0.659217 0.578446 0.926543
297 1 0.333379 1.0124 0.665573
816 1 0.841757 0.584718 0.907011
839 1 0.908785 0.667642 0.91127
844 1 1.00541 0.900469 0.8939
821 1 0.161422 0.657688 0.825382
824 1 0.149523 0.744725 0.909387
843 1 0.0826679 0.827579 0.916386
820 1 -0.00264081 0.741226 0.913114
831 1 0.574401 0.674797 0.930239
863 1 0.92152 0.828804 0.913577
822 1 0.252865 0.753347 0.82354
828 1 0.345949 0.761525 0.903319
823 1 0.236388 0.677815 0.913793
847 1 0.244281 0.829235 0.903761
851 1 0.4319 0.854045 0.921335
826 1 0.427406 0.740469 0.810115
853 1 0.495175 0.832888 0.832975
832 1 0.488937 0.754298 0.928399
827 1 0.425004 0.671803 0.901377
849 1 0.346254 0.837917 0.827759
840 1 0.831179 0.742954 0.926727
855 1 0.570729 0.832793 0.911557
674 1 0.0923158 0.747843 0.492756
375 1 0.573082 1.01312 0.912599
731 1 0.419295 0.490148 0.751214
482 1 0.0884704 0.921296 0.996606
434 1 0.0938251 0.581192 1.00169
229 1 0.503966 1.01317 0.501044
225 1 0.329465 1.00104 0.50242
490 1 0.411218 0.915893 1.00974
446 1 0.56802 0.592028 1.00526
466 1 0.404272 0.769151 0.993274
461 1 0.171784 0.657474 0.997647
694 1 0.908478 0.733088 0.500732
477 1 0.838904 0.68005 1.00476
701 1 0.152153 0.838802 0.492165
5 1 0.166661 1.001 0.994964
462 1 0.256152 0.762937 0.988582
710 1 0.583626 0.921736 0.501965
654 1 0.251555 0.595429 0.50065
681 1 0.347489 0.672564 0.503922
9 1 0.340115 0.995705 0.999923
706 1 0.42319 0.930841 0.499221
718 1 0.906898 0.921218 0.501736
478 1 0.914364 0.746581 1.00595
