ITEM: TIMESTEP
500
ITEM: NUMBER OF ATOMS
2916
ITEM: BOX BOUNDS pp pp pp
0.0000000000000000e+00 4.7339999999999996e+01
0.0000000000000000e+00 4.7339999999999996e+01
0.0000000000000000e+00 4.7339999999999996e+01
ITEM: ATOMS id type xs ys zs
729 1 0.451747 0.890068 0.442559
1568 1 0.494971 0.655976 0.0541454
3 1 0.0550292 0.000559952 0.0477204
2143 1 0.495126 0.493293 0.439371
730 1 0.045233 0.00132055 0.497392
8 1 0.112016 0.0553658 0.0577154
2134 1 0.499834 0.391103 0.445413
164 1 0.0576484 0.0577216 0.116402
167 1 0.10871 0.00166248 0.1116
2000 1 0.491486 0.333908 0.3814
7 1 0.162209 0.00744337 0.0534624
2090 1 0.497006 0.895937 0.384031
12 1 0.217065 0.049762 0.0567265
168 1 0.163585 0.0600742 0.112743
171 1 0.208773 0.00325854 0.108401
1730 1 0.49572 0.667774 0.171506
11 1 0.271569 0.999726 0.0600592
1891 1 0.499613 0.720111 0.228802
16 1 0.333047 0.0557173 0.0497285
172 1 0.269047 0.0508842 0.11096
175 1 0.330937 0.00535545 0.109829
184 1 0.00421492 0.178051 0.16045
15 1 0.38752 0.996782 0.0514173
1765 1 0.490037 0.939587 0.105495
18 1 0.439238 0.0520245 0.046499
176 1 0.379607 0.0541165 0.107018
179 1 0.438548 0.00269827 0.102189
728 1 0.397805 0.938275 0.438986
526 1 0.00932682 0.280427 0.391729
21 1 0.0576744 0.113644 0.0602021
271 1 0.00243483 0.664084 0.101526
795 1 0.168293 0.776574 0.494458
26 1 0.111146 0.165159 0.0542534
648 1 0.452716 0.947388 0.38791
182 1 0.0589058 0.173196 0.110599
185 1 0.110444 0.114849 0.112397
68 1 0.390479 0.390203 0.00641229
25 1 0.180963 0.119476 0.0631692
63 1 0.220775 0.325096 0.000363018
30 1 0.225767 0.176738 0.0674524
186 1 0.17151 0.17063 0.115888
189 1 0.222027 0.103958 0.119635
786 1 0.165654 0.660461 0.484869
29 1 0.266112 0.110768 0.0498604
1927 1 0.495095 0.93909 0.224736
34 1 0.325231 0.163854 0.0598216
190 1 0.277809 0.168775 0.114198
193 1 0.32545 0.101665 0.107571
1639 1 0.497841 0.164078 0.11552
33 1 0.388028 0.116966 0.0526651
166 1 0.000106707 0.0529027 0.159077
36 1 0.448289 0.175065 0.0536701
194 1 0.381289 0.166591 0.110007
197 1 0.437361 0.103335 0.109608
1910 1 0.490986 0.771032 0.279381
791 1 0.331856 0.737048 0.496496
39 1 0.0602929 0.227732 0.0533299
2053 1 0.491217 0.72085 0.328795
59 1 0.111972 0.3304 7.46945e-05
44 1 0.108362 0.281976 0.0535622
559 1 0.00211839 0.434614 0.338306
200 1 0.0550251 0.278629 0.10822
203 1 0.110954 0.22373 0.10476
433 1 0.0142099 0.666559 0.229639
43 1 0.165859 0.220669 0.0593655
397 1 0.000442186 0.442789 0.233627
48 1 0.216795 0.274245 0.0580404
204 1 0.162301 0.279673 0.10698
207 1 0.22769 0.230832 0.115894
1567 1 0.493763 0.718142 0.00595413
47 1 0.281475 0.225823 0.0619554
631 1 0.000152503 0.882112 0.326985
52 1 0.335181 0.282982 0.0546613
208 1 0.281081 0.285248 0.107565
211 1 0.328921 0.224261 0.113309
53 1 0.438071 0.225505 0.000101593
51 1 0.381378 0.212292 0.0585655
112 1 0.000199341 0.71915 0.0510188
54 1 0.44165 0.27709 0.0578506
212 1 0.385416 0.275984 0.107721
215 1 0.436821 0.219941 0.111799
645 1 0.383837 0.886356 0.387244
361 1 0.00263259 0.227762 0.22684
57 1 0.0592588 0.334736 0.0540444
727 1 0.333458 0.894435 0.443194
38 1 0.0523277 0.282803 0.00216627
62 1 0.118403 0.387037 0.0575954
726 1 0.276741 0.955285 0.44455
218 1 0.0526821 0.382945 0.108839
221 1 0.11566 0.338708 0.110279
382 1 0.00301302 0.384304 0.287258
61 1 0.17057 0.329781 0.0524539
148 1 0.00956815 0.942627 0.0677062
66 1 0.231322 0.389553 0.0519158
222 1 0.176936 0.386783 0.119044
225 1 0.22866 0.330513 0.108812
1945 1 0.496207 0.0574764 0.338078
65 1 0.283489 0.334174 0.0471206
1496 1 0.498765 0.225569 0.0545572
70 1 0.335161 0.388162 0.0541965
226 1 0.278509 0.383654 0.112308
229 1 0.343662 0.325061 0.128235
1514 1 0.494464 0.330509 0.0612322
69 1 0.381483 0.333667 0.0585941
487 1 0.00221009 0.00152808 0.334906
72 1 0.452076 0.386413 0.0386694
230 1 0.395721 0.400263 0.108432
233 1 0.438403 0.331983 0.114871
28 1 0.277395 0.166844 0.00780791
756 1 0.448554 0.272356 0.484872
75 1 0.0585214 0.436358 0.0642353
646 1 0.332359 0.949934 0.394596
91 1 0.00218202 0.54843 0.00257056
80 1 0.116905 0.503862 0.0580768
641 1 0.277393 0.899966 0.391583
236 1 0.0490137 0.492233 0.109773
239 1 0.107312 0.435751 0.112445
1783 1 0.493457 0.0514102 0.216678
79 1 0.17079 0.433028 0.0575072
1640 1 0.49397 0.105708 0.159911
84 1 0.229877 0.503577 0.0547252
240 1 0.178565 0.486352 0.110604
243 1 0.233189 0.440202 0.1075
451 1 0.00686668 0.777221 0.22722
83 1 0.273152 0.443598 0.044526
1729 1 0.499429 0.727883 0.11177
88 1 0.333214 0.506577 0.0441998
244 1 0.281645 0.503342 0.111047
247 1 0.327433 0.448342 0.108331
199 1 0.00031923 0.228149 0.110904
87 1 0.389202 0.449209 0.0525572
454 1 0.000105165 0.825944 0.278207
90 1 0.439187 0.492874 0.0468284
248 1 0.389803 0.498494 0.10883
251 1 0.447912 0.445199 0.10799
725 1 0.229758 0.898973 0.448504
1856 1 0.499218 0.435533 0.274514
93 1 0.0663187 0.557202 0.054192
724 1 0.173005 0.953094 0.444252
781 1 0.384673 0.537603 0.497756
98 1 0.118866 0.612691 0.0417873
642 1 0.224938 0.959984 0.391747
254 1 0.0651171 0.60217 0.109247
257 1 0.135 0.551429 0.109229
595 1 0.00562691 0.655244 0.33287
97 1 0.17835 0.554955 0.0563888
94 1 0.00910677 0.599817 0.0547365
102 1 0.225126 0.612339 0.0536013
258 1 0.183433 0.615063 0.106444
261 1 0.232505 0.556748 0.110949
577 1 0.00530036 0.553216 0.338113
101 1 0.283224 0.559486 0.0490707
1909 1 0.496899 0.838183 0.218221
106 1 0.335672 0.607189 0.0552231
262 1 0.286936 0.610639 0.119186
265 1 0.336667 0.553172 0.113512
1748 1 0.493722 0.786488 0.165177
105 1 0.389585 0.554738 0.0491976
741 1 0.167435 0.115314 0.497659
108 1 0.437309 0.607514 0.048583
266 1 0.388786 0.615739 0.112115
269 1 0.447677 0.557635 0.114431
253 1 0.00439624 0.548302 0.112635
436 1 0.0198428 0.717436 0.281709
111 1 0.0542958 0.657859 0.061587
637 1 0.181593 0.883282 0.391607
1747 1 0.487071 0.842107 0.0928178
116 1 0.11274 0.72295 0.0490315
723 1 0.119386 0.900399 0.444114
272 1 0.0583363 0.717305 0.100242
275 1 0.111193 0.665232 0.111881
1766 1 0.497989 0.889796 0.16462
115 1 0.165927 0.666008 0.0592867
1820 1 0.49662 0.216274 0.2732
120 1 0.219528 0.718107 0.0574824
276 1 0.17274 0.720198 0.119811
279 1 0.235617 0.664943 0.114118
1819 1 0.491461 0.265999 0.22244
119 1 0.28373 0.657432 0.0516008
2125 1 0.49482 0.285041 0.435767
124 1 0.333824 0.712988 0.0540215
280 1 0.276593 0.720969 0.10976
283 1 0.335402 0.665321 0.120396
1801 1 0.497058 0.174674 0.222531
123 1 0.388377 0.665462 0.0496323
1622 1 0.492226 0.00537772 0.157402
126 1 0.43412 0.721736 0.0514917
284 1 0.382301 0.723619 0.110428
287 1 0.449856 0.669908 0.120604
722 1 0.0575627 0.942793 0.437859
1460 1 0.492939 0.990448 0.0501634
129 1 0.0562649 0.777741 0.0577832
598 1 0.00544894 0.732575 0.37772
117 1 0.219795 0.670682 0.00356696
134 1 0.116556 0.825209 0.0597148
1550 1 0.491972 0.561299 0.0561474
290 1 0.0595407 0.823627 0.111977
293 1 0.105716 0.769005 0.11795
77 1 0.112434 0.442386 0.0127426
133 1 0.171837 0.779144 0.0499391
2018 1 0.497472 0.439793 0.378689
138 1 0.219691 0.839841 0.0459752
294 1 0.160961 0.826428 0.117666
297 1 0.221305 0.780786 0.102424
415 1 0.0134694 0.555519 0.22231
137 1 0.277237 0.773526 0.0607993
793 1 0.0643891 0.780673 0.499577
142 1 0.331005 0.820599 0.0438585
298 1 0.27441 0.828859 0.118843
301 1 0.327013 0.774504 0.107251
1586 1 0.483355 0.778973 0.0544938
141 1 0.378555 0.775858 0.0557902
256 1 0.00779622 0.599521 0.163437
144 1 0.435221 0.829571 0.0510474
302 1 0.379984 0.826816 0.106128
305 1 0.433986 0.781542 0.113049
418 1 0.00456655 0.607073 0.270841
328 1 0.000856918 0.0607178 0.271791
147 1 0.0560953 0.883971 0.0572724
744 1 0.227643 0.161822 0.498241
292 1 0.013115 0.826423 0.169174
152 1 0.103942 0.945956 0.0499907
56 1 0.0540585 0.389454 0.0038335
308 1 0.0525533 0.937187 0.121338
311 1 0.110537 0.886403 0.095306
92 1 0.0556789 0.609965 0.00348682
151 1 0.169145 0.886185 0.0562956
601 1 0.161452 0.667267 0.398979
156 1 0.230907 0.94499 0.0641554
312 1 0.156778 0.944099 0.103364
315 1 0.225651 0.872839 0.110367
705 1 0.101051 0.669344 0.43727
155 1 0.280326 0.881559 0.0598197
704 1 0.0581155 0.733081 0.443574
160 1 0.322438 0.942196 0.052319
316 1 0.282416 0.944703 0.110219
319 1 0.338472 0.884077 0.109606
1999 1 0.491062 0.383008 0.332475
159 1 0.374675 0.889143 0.0484484
1675 1 0.495897 0.388631 0.101489
162 1 0.438558 0.935138 0.0507366
320 1 0.380355 0.94701 0.107839
323 1 0.420672 0.888029 0.107398
165 1 0.0608678 0.992498 0.166012
508 1 0.00411192 0.162942 0.398492
170 1 0.110936 0.0568421 0.173307
747 1 0.44354 0.173109 0.497306
326 1 0.0580485 0.0568642 0.225324
329 1 0.117568 0.00881735 0.232657
169 1 0.163801 0.998879 0.164883
174 1 0.233252 0.04074 0.172149
330 1 0.174371 0.0534138 0.231707
333 1 0.224017 0.987304 0.223917
173 1 0.28256 0.9931 0.166751
178 1 0.328723 0.0463327 0.168021
334 1 0.27649 0.0463959 0.223085
337 1 0.34149 0.00328737 0.219459
177 1 0.386822 0.00523132 0.165301
180 1 0.443975 0.0569924 0.159648
338 1 0.395272 0.0624818 0.214601
341 1 0.437697 0.00563012 0.223974
183 1 0.0547727 0.112842 0.171262
1892 1 0.499661 0.667391 0.27405
188 1 0.110082 0.162422 0.17174
638 1 0.105156 0.934712 0.381441
344 1 0.0437032 0.170261 0.223449
347 1 0.111909 0.109768 0.218976
187 1 0.16787 0.11304 0.164311
192 1 0.227891 0.169753 0.161205
348 1 0.167968 0.167993 0.22331
351 1 0.229004 0.118827 0.211557
191 1 0.282785 0.108045 0.165151
196 1 0.33155 0.163245 0.160706
352 1 0.283506 0.167725 0.21761
355 1 0.335318 0.103292 0.215116
195 1 0.377205 0.107757 0.159159
198 1 0.442413 0.159308 0.162885
356 1 0.391277 0.157491 0.21669
359 1 0.450191 0.109239 0.21793
201 1 0.0577532 0.225901 0.161416
274 1 0.00923721 0.715298 0.165433
206 1 0.105811 0.275121 0.166457
633 1 0.049819 0.887417 0.385638
362 1 0.0614444 0.275728 0.233987
365 1 0.110879 0.214792 0.225794
205 1 0.169825 0.228888 0.169133
210 1 0.227139 0.283421 0.169044
366 1 0.169101 0.274575 0.234871
369 1 0.225194 0.213707 0.231896
209 1 0.27548 0.229074 0.16758
214 1 0.33213 0.271849 0.171328
370 1 0.277743 0.262732 0.235923
373 1 0.342377 0.212014 0.220148
213 1 0.384776 0.211372 0.164961
216 1 0.432927 0.283366 0.172396
374 1 0.388655 0.272276 0.227326
377 1 0.433726 0.213968 0.212297
219 1 0.0636875 0.329161 0.16597
649 1 0.0012418 0.999412 0.432582
224 1 0.108299 0.387697 0.167323
720 1 0.439629 0.777895 0.435391
380 1 0.0518431 0.390732 0.229931
383 1 0.112977 0.337734 0.217519
223 1 0.174247 0.324813 0.171956
228 1 0.223664 0.380605 0.171111
384 1 0.179825 0.378555 0.22406
387 1 0.22724 0.314416 0.232303
227 1 0.279562 0.330246 0.169124
232 1 0.336553 0.391878 0.163849
388 1 0.276662 0.382234 0.216123
391 1 0.326364 0.329176 0.223124
231 1 0.392245 0.343322 0.181051
234 1 0.446733 0.388921 0.160084
392 1 0.378689 0.396359 0.22684
395 1 0.449772 0.332244 0.220507
237 1 0.0531168 0.441397 0.177213
719 1 0.393023 0.832576 0.439316
242 1 0.113463 0.478472 0.174914
630 1 0.443777 0.842198 0.393295
398 1 0.0547688 0.488167 0.232506
401 1 0.115306 0.435228 0.231776
241 1 0.185618 0.445811 0.166944
246 1 0.228806 0.500283 0.173626
402 1 0.163116 0.496788 0.221673
405 1 0.226894 0.433642 0.227841
245 1 0.269854 0.441175 0.166779
250 1 0.333713 0.504145 0.172536
406 1 0.277884 0.497692 0.224992
409 1 0.326571 0.444025 0.223652
249 1 0.393505 0.442882 0.168132
252 1 0.450692 0.492768 0.166006
410 1 0.394034 0.486265 0.223341
413 1 0.445819 0.437048 0.212929
255 1 0.0631667 0.5444 0.16082
627 1 0.385634 0.783438 0.3936
260 1 0.106355 0.603907 0.161555
718 1 0.330674 0.794515 0.444465
416 1 0.0632983 0.606218 0.224478
419 1 0.114576 0.544268 0.212184
259 1 0.177271 0.547792 0.167589
264 1 0.22491 0.611378 0.178218
420 1 0.168684 0.599842 0.226085
423 1 0.226164 0.552481 0.221135
263 1 0.281701 0.561537 0.17843
268 1 0.340752 0.597179 0.169661
424 1 0.275381 0.614205 0.229897
427 1 0.342553 0.550774 0.225525
267 1 0.394716 0.540955 0.169779
270 1 0.441339 0.608343 0.170149
428 1 0.387896 0.613191 0.223759
431 1 0.442886 0.557893 0.222324
273 1 0.0541729 0.6575 0.166591
717 1 0.282521 0.842119 0.443854
278 1 0.105538 0.713267 0.167802
628 1 0.325694 0.842459 0.38768
434 1 0.0640741 0.721969 0.224456
437 1 0.112961 0.657767 0.218163
277 1 0.168375 0.656333 0.170381
282 1 0.219723 0.717159 0.174615
438 1 0.162252 0.716447 0.222145
441 1 0.226946 0.665565 0.227365
281 1 0.279297 0.674387 0.168151
286 1 0.34247 0.722487 0.169976
442 1 0.288094 0.713699 0.230905
445 1 0.330973 0.652328 0.207967
285 1 0.390261 0.668657 0.168815
288 1 0.447305 0.727785 0.16485
446 1 0.388078 0.71768 0.230885
449 1 0.441591 0.661686 0.228778
291 1 0.0628678 0.778591 0.182135
623 1 0.280457 0.777993 0.384984
296 1 0.11317 0.834934 0.167434
775 1 0.0466948 0.556526 0.496819
452 1 0.0667871 0.833576 0.225637
455 1 0.122333 0.771958 0.22287
295 1 0.168356 0.770527 0.170876
300 1 0.214363 0.830398 0.174774
456 1 0.165528 0.828271 0.22008
459 1 0.218852 0.769615 0.216552
299 1 0.279765 0.765726 0.174217
304 1 0.336968 0.828011 0.167877
460 1 0.278994 0.831887 0.222926
463 1 0.333358 0.777047 0.224555
303 1 0.394905 0.77859 0.173114
306 1 0.448366 0.844722 0.161163
464 1 0.394227 0.83054 0.222654
467 1 0.447912 0.781329 0.222183
309 1 0.0578372 0.881253 0.177237
1855 1 0.495164 0.496183 0.225211
314 1 0.108101 0.941328 0.177264
2170 1 0.497548 0.826347 0.433296
470 1 0.0482362 0.934114 0.22703
473 1 0.115085 0.883357 0.221736
313 1 0.152078 0.888531 0.156181
318 1 0.221382 0.943553 0.158713
474 1 0.167688 0.940002 0.217212
477 1 0.225144 0.891385 0.217011
317 1 0.284769 0.889439 0.161572
322 1 0.338081 0.944694 0.166661
478 1 0.288761 0.946177 0.227127
481 1 0.332945 0.890561 0.221009
321 1 0.391804 0.891542 0.17007
324 1 0.442155 0.943213 0.168452
482 1 0.394809 0.946946 0.229062
485 1 0.446963 0.892978 0.234029
327 1 0.0627986 0.988922 0.278619
716 1 0.225731 0.781783 0.437706
332 1 0.104547 0.0628271 0.281266
715 1 0.169507 0.83917 0.45109
488 1 0.0573841 0.0578471 0.333773
491 1 0.111182 0.992178 0.338122
331 1 0.170895 0.987752 0.286123
336 1 0.229526 0.0539024 0.274391
492 1 0.160832 0.0470998 0.32711
495 1 0.229452 0.00511741 0.329414
335 1 0.286899 0.00428224 0.281542
340 1 0.339212 0.0611267 0.280547
496 1 0.274295 0.0641123 0.340237
499 1 0.329619 0.00515096 0.341992
339 1 0.387089 0.0192877 0.270033
342 1 0.454527 0.0543726 0.280338
500 1 0.392456 0.0552081 0.338651
503 1 0.440293 0.00278693 0.335537
345 1 0.0559784 0.110927 0.278865
624 1 0.238773 0.83746 0.38813
350 1 0.114296 0.161205 0.275472
619 1 0.165612 0.783999 0.390568
506 1 0.0479966 0.162145 0.336969
509 1 0.113506 0.10764 0.332783
349 1 0.170399 0.109489 0.279211
354 1 0.220986 0.161629 0.287439
510 1 0.169003 0.159864 0.342037
513 1 0.215331 0.102402 0.338121
353 1 0.281407 0.117701 0.275387
358 1 0.337854 0.168093 0.274793
514 1 0.272098 0.160208 0.334492
517 1 0.335812 0.114996 0.325803
357 1 0.398337 0.113076 0.280491
360 1 0.445875 0.169792 0.275199
518 1 0.384076 0.170078 0.323541
521 1 0.449118 0.116314 0.341
363 1 0.0558202 0.212861 0.288402
714 1 0.114401 0.78808 0.453726
368 1 0.111203 0.270379 0.283364
713 1 0.0558541 0.834383 0.446298
524 1 0.0547703 0.276911 0.329826
527 1 0.114776 0.22384 0.337361
367 1 0.172138 0.2181 0.283626
372 1 0.228301 0.261711 0.282391
528 1 0.168991 0.269787 0.339855
531 1 0.221356 0.21937 0.333622
371 1 0.280394 0.209231 0.286611
376 1 0.336228 0.285969 0.277137
532 1 0.28041 0.284781 0.341628
535 1 0.337851 0.232463 0.330415
375 1 0.396674 0.22612 0.276405
378 1 0.439671 0.278717 0.275349
536 1 0.386255 0.284774 0.333114
539 1 0.449522 0.228174 0.328916
381 1 0.0602458 0.330947 0.284168
73 1 0.00100202 0.443217 0.0104362
386 1 0.11288 0.384198 0.283683
2017 1 0.49697 0.492867 0.323575
542 1 0.0623198 0.381407 0.338929
545 1 0.115141 0.332343 0.337518
385 1 0.169435 0.329069 0.280372
390 1 0.227372 0.385238 0.281047
546 1 0.155703 0.396484 0.337518
549 1 0.20969 0.334962 0.341348
389 1 0.276463 0.331791 0.282395
394 1 0.320982 0.388796 0.281272
550 1 0.274618 0.384179 0.34174
553 1 0.33351 0.339396 0.334889
393 1 0.389225 0.331446 0.259576
396 1 0.445161 0.38691 0.2663
554 1 0.381509 0.389694 0.326962
557 1 0.432333 0.337513 0.326609
399 1 0.0614019 0.434524 0.282221
1478 1 0.498696 0.115887 0.0620468
404 1 0.123713 0.499754 0.283018
310 1 0.00253008 0.944678 0.172057
560 1 0.0643518 0.501592 0.326415
563 1 0.112666 0.449626 0.338162
403 1 0.169768 0.431897 0.277973
408 1 0.213876 0.489098 0.270655
564 1 0.168661 0.494566 0.331
567 1 0.221902 0.44464 0.32947
407 1 0.274894 0.443816 0.277577
412 1 0.336493 0.496808 0.274825
568 1 0.275841 0.496706 0.340524
571 1 0.328615 0.441457 0.333305
411 1 0.381854 0.441679 0.27715
414 1 0.443315 0.499382 0.278964
572 1 0.387641 0.495327 0.325849
575 1 0.440632 0.443751 0.329307
417 1 0.0551927 0.552124 0.282292
620 1 0.116027 0.84356 0.395925
422 1 0.119232 0.602757 0.277337
615 1 0.0578263 0.791568 0.390479
578 1 0.0653321 0.606365 0.328313
581 1 0.120884 0.549339 0.336015
421 1 0.169363 0.550961 0.276269
426 1 0.220995 0.608615 0.286612
582 1 0.171547 0.60224 0.339568
585 1 0.230891 0.550168 0.337303
425 1 0.27885 0.551894 0.276439
430 1 0.332331 0.608369 0.281531
586 1 0.279476 0.613829 0.337552
589 1 0.33614 0.553398 0.335911
429 1 0.392676 0.551683 0.278217
432 1 0.447317 0.609202 0.275783
590 1 0.397433 0.602051 0.330177
593 1 0.45404 0.554222 0.334804
435 1 0.0709719 0.671148 0.279287
1693 1 0.492935 0.50689 0.104201
440 1 0.119836 0.726138 0.287383
711 1 0.44277 0.676601 0.442904
596 1 0.0712554 0.726397 0.335703
599 1 0.117911 0.663545 0.335898
439 1 0.16296 0.66346 0.271809
444 1 0.22277 0.715421 0.282684
600 1 0.171847 0.725771 0.344523
603 1 0.221671 0.664226 0.341218
443 1 0.279527 0.668401 0.286527
448 1 0.336424 0.71342 0.284667
604 1 0.276453 0.722983 0.33621
607 1 0.337135 0.664981 0.342204
447 1 0.395247 0.661616 0.285438
450 1 0.443314 0.72477 0.276547
608 1 0.396932 0.720118 0.333631
611 1 0.447641 0.664655 0.336926
453 1 0.0623504 0.777919 0.279979
364 1 0.00181686 0.27565 0.277658
458 1 0.111931 0.832451 0.275667
710 1 0.385232 0.726579 0.444448
614 1 0.0583907 0.839364 0.326128
617 1 0.116152 0.790264 0.338489
457 1 0.172172 0.774681 0.275843
462 1 0.225334 0.818369 0.271807
618 1 0.184857 0.829829 0.338612
621 1 0.22341 0.772082 0.338817
461 1 0.275237 0.770445 0.274056
466 1 0.329658 0.837754 0.27335
622 1 0.27916 0.828984 0.321908
625 1 0.338884 0.782628 0.332788
465 1 0.386387 0.77596 0.278156
468 1 0.444827 0.829933 0.27436
626 1 0.394902 0.827095 0.337747
629 1 0.447817 0.776258 0.337115
471 1 0.065452 0.88423 0.271211
612 1 0.438215 0.726866 0.386067
476 1 0.121595 0.934832 0.278896
609 1 0.388504 0.663461 0.388607
632 1 0.0477509 0.930784 0.323247
635 1 0.124318 0.871089 0.329266
475 1 0.186042 0.879727 0.272083
480 1 0.225378 0.942478 0.282737
636 1 0.163947 0.93631 0.345823
639 1 0.232998 0.904267 0.342613
479 1 0.272845 0.883163 0.277595
484 1 0.347442 0.966437 0.277736
640 1 0.28098 0.957244 0.337035
643 1 0.327046 0.893051 0.333696
483 1 0.382576 0.883057 0.278247
486 1 0.447892 0.945564 0.291885
644 1 0.388002 0.949591 0.34249
647 1 0.443675 0.883635 0.329994
489 1 0.0595238 0.0113707 0.387499
709 1 0.332348 0.676223 0.44433
494 1 0.109432 0.0625 0.395023
469 1 0.00334746 0.881817 0.234365
650 1 0.0573025 0.0564717 0.449127
651 1 0.104487 0.994422 0.447551
493 1 0.161136 0.00410581 0.393137
498 1 0.215798 0.0519426 0.391837
652 1 0.167976 0.0589976 0.450669
653 1 0.228002 0.00710529 0.45322
497 1 0.27656 0.00580719 0.389606
502 1 0.341513 0.0782839 0.388915
654 1 0.284207 0.0601518 0.434515
655 1 0.329221 0.00368337 0.43883
501 1 0.390512 0.00177431 0.39458
504 1 0.446493 0.0524095 0.388411
656 1 0.383577 0.0526326 0.44894
657 1 0.447947 0.0040079 0.441977
507 1 0.0562878 0.10937 0.38967
708 1 0.28577 0.730423 0.436726
512 1 0.104004 0.162682 0.386503
610 1 0.345624 0.723377 0.384299
659 1 0.0544976 0.166152 0.445523
660 1 0.106023 0.109274 0.449888
511 1 0.15658 0.113211 0.393412
516 1 0.220483 0.161319 0.391585
661 1 0.17358 0.170874 0.442602
662 1 0.223639 0.10852 0.441049
515 1 0.281115 0.118535 0.391653
520 1 0.331615 0.17945 0.375582
663 1 0.284919 0.167723 0.441576
664 1 0.333584 0.11261 0.444865
519 1 0.385778 0.13468 0.395635
522 1 0.446858 0.170244 0.390011
665 1 0.388248 0.182009 0.446065
666 1 0.439695 0.106947 0.431268
525 1 0.0609317 0.220276 0.384126
490 1 0.00291839 0.0592955 0.390823
530 1 0.103013 0.278956 0.394641
597 1 0.0560891 0.668461 0.378437
668 1 0.0505905 0.278846 0.456433
669 1 0.113254 0.224053 0.44281
529 1 0.163155 0.221531 0.389925
534 1 0.215742 0.279596 0.386549
670 1 0.167918 0.271206 0.455874
671 1 0.224394 0.218409 0.447714
533 1 0.275025 0.230778 0.38337
538 1 0.339479 0.275145 0.390593
672 1 0.273392 0.280289 0.453343
673 1 0.327174 0.219581 0.447235
537 1 0.390335 0.220186 0.388074
540 1 0.441745 0.279658 0.376519
674 1 0.393788 0.275699 0.443399
675 1 0.44537 0.224251 0.437484
543 1 0.0551606 0.336082 0.400104
712 1 0.00375609 0.784841 0.447051
548 1 0.114551 0.388356 0.401919
605 1 0.279888 0.667918 0.397612
677 1 0.0502287 0.385954 0.4521
678 1 0.110252 0.326593 0.447347
547 1 0.167514 0.337717 0.402256
552 1 0.21537 0.393858 0.388031
679 1 0.167151 0.385337 0.455707
680 1 0.2238 0.327871 0.45173
551 1 0.276107 0.329245 0.394513
556 1 0.332199 0.380624 0.395973
681 1 0.288912 0.37817 0.455226
682 1 0.3422 0.324594 0.45328
555 1 0.391101 0.333262 0.38594
558 1 0.441216 0.387342 0.391822
683 1 0.386167 0.395412 0.446052
684 1 0.439636 0.325561 0.4404
561 1 0.053253 0.4397 0.387724
602 1 0.113024 0.731469 0.393588
566 1 0.107732 0.493344 0.400446
707 1 0.228708 0.661998 0.448039
686 1 0.0555308 0.499088 0.448892
687 1 0.116028 0.441696 0.448643
565 1 0.166497 0.442651 0.394634
570 1 0.223681 0.49357 0.388017
688 1 0.167146 0.491063 0.452477
689 1 0.226579 0.447878 0.448494
569 1 0.279089 0.440528 0.389694
574 1 0.331793 0.5014 0.385956
690 1 0.28063 0.494984 0.443377
691 1 0.331154 0.440981 0.439945
573 1 0.386702 0.436563 0.377149
576 1 0.435599 0.494997 0.376189
692 1 0.386176 0.48436 0.438935
693 1 0.449095 0.435117 0.445001
579 1 0.061522 0.542046 0.391007
706 1 0.167457 0.723729 0.446123
584 1 0.111842 0.599626 0.38963
606 1 0.231495 0.723581 0.390457
695 1 0.0511359 0.614192 0.443401
696 1 0.108765 0.549321 0.447709
583 1 0.176281 0.54283 0.391845
588 1 0.229986 0.609492 0.391087
697 1 0.165402 0.6059 0.44333
698 1 0.217975 0.547594 0.450824
587 1 0.278132 0.547381 0.39287
592 1 0.339602 0.609717 0.390339
699 1 0.28331 0.607358 0.449205
700 1 0.335349 0.552068 0.439072
591 1 0.396039 0.567438 0.398824
594 1 0.449031 0.610871 0.387854
701 1 0.394871 0.624596 0.446157
702 1 0.445402 0.54613 0.437345
1657 1 0.490558 0.28058 0.114415
613 1 0.00869712 0.779919 0.328997
789 1 0.236573 0.724257 0.486451
130 1 0.00547458 0.824398 0.0495033
802 1 0.0620832 0.893904 0.496178
739 1 0.054391 0.111514 0.498752
2 1 0.0562161 0.0705502 0.0018612
778 1 0.111731 0.610304 0.493737
703 1 0.0151593 0.676807 0.433908
1658 1 0.493481 0.225648 0.163875
1711 1 0.499981 0.613258 0.114142
307 1 0.00592347 0.87589 0.112296
76 1 0.000555727 0.495744 0.0540522
751 1 0.113924 0.272767 0.499889
2206 1 0.499651 0.224469 0.496498
20 1 0.0570024 0.167892 0.00740886
774 1 0.445873 0.497688 0.491137
753 1 0.2261 0.277942 0.498911
794 1 0.00195229 0.844975 0.493835
782 1 0.339271 0.6153 0.488955
776 1 0.00183983 0.615807 0.491626
146 1 0.0447751 0.947255 0.00585482
31 1 0.334664 0.111461 0.00468652
783 1 0.439563 0.613263 0.498299
732 1 0.172214 0.00189469 0.496751
736 1 0.386541 0.992314 0.49388
85 1 0.33101 0.445658 0.00124315
779 1 0.281323 0.547618 0.485039
10 1 0.272126 0.0467095 0.00502391
767 1 0.00342035 0.500145 0.494288
755 1 0.336051 0.272914 0.499443
118 1 0.265669 0.724157 0.00212131
742 1 0.113805 0.170697 0.495065
49 1 0.333485 0.219932 0.0053838
800 1 0.343102 0.84682 0.495017
808 1 0.403209 0.893095 0.49856
792 1 0.451762 0.731993 0.49478
1495 1 0.499515 0.281109 0.00759059
797 1 0.262961 0.792319 0.49782
746 1 0.334218 0.168757 0.493786
50 1 0.387945 0.274958 0.00574868
6 1 0.165885 0.0674631 0.0078244
132 1 0.153884 0.842236 0.00178515
780 1 0.225883 0.613958 0.49874
801 1 0.451325 0.827166 0.492434
78 1 0.174452 0.502333 0.0011778
765 1 0.453384 0.375341 0.493314
107 1 0.439855 0.549404 0.00148786
74 1 0.0617303 0.499328 0.0095961
24 1 0.17694 0.168726 0.00121001
2792 1 0.494771 0.215589 0.955503
1081 1 0.00804258 0.667446 0.661896
2188 1 0.499185 0.00439386 0.503258
735 1 0.224137 0.0630884 0.501205
812 1 0.0523457 0.0586743 0.545512
813 1 0.0471046 0.999523 0.616183
1372 1 0.00244884 0.498575 0.944516
815 1 0.10373 0.00324064 0.561756
818 1 0.106777 0.0540004 0.60799
743 1 0.28353 0.105039 0.500698
886 1 0.000231284 0.490571 0.612091
816 1 0.163767 0.0610711 0.542429
817 1 0.169332 0.00535672 0.619697
819 1 0.232047 0.997599 0.553061
822 1 0.213608 0.0540982 0.607631
154 1 0.270206 0.957981 0.996603
738 1 0.434409 0.0516448 0.501063
820 1 0.275804 0.0556166 0.550742
821 1 0.279072 0.998002 0.609201
823 1 0.344177 0.997937 0.556547
826 1 0.324853 0.0504665 0.609588
904 1 0.00671878 0.615275 0.605887
2468 1 0.494982 0.22338 0.723448
824 1 0.394426 0.0593048 0.557737
825 1 0.388078 0.00380753 0.613608
827 1 0.434403 0.000464981 0.56235
828 1 0.439873 0.050509 0.619012
2702 1 0.496483 0.648291 0.827475
1458 1 0.441057 0.941108 0.94364
734 1 0.290829 0.990793 0.502749
865 1 0.0106801 0.3298 0.561897
830 1 0.0590117 0.164131 0.553071
831 1 0.0504187 0.110376 0.609729
89 1 0.436281 0.448283 0.988152
833 1 0.106739 0.112389 0.549036
836 1 0.0981903 0.1813 0.61415
762 1 0.219644 0.389204 0.501868
901 1 0.0015841 0.560196 0.550477
834 1 0.163044 0.156867 0.556607
835 1 0.162816 0.110262 0.606455
837 1 0.221632 0.107339 0.557546
840 1 0.222958 0.170496 0.625578
153 1 0.218175 0.893989 0.998507
1315 1 0.00452008 0.109327 0.893045
838 1 0.288139 0.163722 0.554091
839 1 0.27467 0.108962 0.619075
841 1 0.3375 0.112414 0.554165
844 1 0.343145 0.178796 0.607277
2630 1 0.49681 0.223383 0.835065
2612 1 0.497144 0.112856 0.835111
842 1 0.382831 0.169861 0.552254
843 1 0.391237 0.117042 0.613631
845 1 0.436199 0.119666 0.556717
846 1 0.452494 0.175535 0.618726
976 1 0.00223512 0.0564575 0.727221
1457 1 0.43519 0.886475 0.890829
1225 1 0.00149415 0.56117 0.774145
1455 1 0.384055 0.87626 0.944744
848 1 0.0587628 0.269752 0.552555
849 1 0.0418108 0.220657 0.606242
2863 1 0.494521 0.719166 0.88955
851 1 0.116601 0.220023 0.555716
854 1 0.101307 0.264698 0.610649
773 1 0.325899 0.494543 0.510233
805 1 0.116333 0.948514 0.502288
852 1 0.169604 0.271719 0.555736
853 1 0.159269 0.213827 0.61721
855 1 0.213751 0.207795 0.563526
858 1 0.219915 0.265601 0.612326
150 1 0.164396 0.939992 0.995904
2881 1 0.49112 0.833967 0.884618
856 1 0.27726 0.273337 0.560097
857 1 0.282502 0.224805 0.605323
859 1 0.339662 0.222559 0.551127
862 1 0.330086 0.291933 0.607453
772 1 0.386657 0.453537 0.50152
2846 1 0.489719 0.559895 0.944093
860 1 0.394687 0.286157 0.565289
861 1 0.401966 0.233817 0.611988
863 1 0.448426 0.213222 0.560511
864 1 0.449732 0.28573 0.618562
1297 1 0.000548424 0.0091317 0.894087
1454 1 0.378615 0.94565 0.895318
937 1 0.00701283 0.768944 0.556907
769 1 0.0988775 0.499536 0.500353
866 1 0.0459251 0.391604 0.554599
867 1 0.0495059 0.337434 0.621776
2719 1 0.498375 0.840586 0.777228
869 1 0.10547 0.329463 0.557118
872 1 0.109053 0.390139 0.615562
127 1 0.00961719 0.774977 0.998047
139 1 0.324937 0.765656 0.998626
870 1 0.164018 0.378728 0.559748
871 1 0.162268 0.321461 0.616591
873 1 0.216219 0.32878 0.563226
876 1 0.222044 0.385814 0.613758
2431 1 0.4981 0.054159 0.675463
2576 1 0.492349 0.890885 0.719213
874 1 0.273373 0.380168 0.555579
875 1 0.274765 0.332541 0.606949
877 1 0.337559 0.33009 0.5507
880 1 0.328817 0.383118 0.607596
1549 1 0.492542 0.604608 0.994331
2773 1 0.491123 0.176998 0.892779
878 1 0.386914 0.383648 0.559311
879 1 0.394376 0.333186 0.615765
881 1 0.449577 0.323989 0.546899
882 1 0.444782 0.385684 0.60212
2611 1 0.48624 0.167328 0.768814
1138 1 0.000158929 0.0577829 0.832261
1063 1 0.00705923 0.560409 0.658995
752 1 0.289081 0.222525 0.503553
884 1 0.0466261 0.500859 0.552795
885 1 0.0566395 0.449785 0.609932
1066 1 0.00614665 0.609884 0.717141
887 1 0.109046 0.441185 0.552015
890 1 0.108575 0.505839 0.608318
764 1 0.338964 0.38628 0.502796
754 1 0.392494 0.235073 0.509398
888 1 0.171436 0.499379 0.552173
889 1 0.167383 0.440469 0.599563
891 1 0.2276 0.436671 0.557118
894 1 0.219777 0.502634 0.604779
2432 1 0.493511 0.992253 0.729059
2756 1 0.498229 0.000810698 0.936349
892 1 0.273019 0.506824 0.560163
893 1 0.274873 0.452045 0.606045
895 1 0.339861 0.438976 0.563972
898 1 0.326949 0.508349 0.600937
2738 1 0.495786 0.895885 0.841317
158 1 0.393962 0.942898 0.998167
896 1 0.382973 0.507603 0.560983
897 1 0.398276 0.437611 0.609381
899 1 0.442025 0.429553 0.544121
900 1 0.450832 0.494825 0.622421
922 1 0.00311777 0.716627 0.603261
1318 1 0.00778928 0.183085 0.948355
737 1 0.33637 0.050708 0.506127
2755 1 0.496655 0.0526742 0.885304
902 1 0.0588005 0.611373 0.544761
903 1 0.0577189 0.559311 0.606362
1456 1 0.325666 0.949319 0.948019
905 1 0.113469 0.554535 0.548492
908 1 0.106249 0.613366 0.603636
814 1 0.00176017 0.0581865 0.614026
2809 1 0.498771 0.38845 0.899681
906 1 0.171335 0.614005 0.543222
907 1 0.163387 0.560527 0.603103
909 1 0.224043 0.5633 0.552531
912 1 0.218253 0.612732 0.608132
2827 1 0.495775 0.499319 0.892162
1153 1 0.00207103 0.108878 0.778147
910 1 0.292942 0.612052 0.553913
911 1 0.275776 0.564654 0.609252
913 1 0.33517 0.564057 0.554343
916 1 0.339743 0.613414 0.616507
1120 1 0.00734265 0.941803 0.723652
2557 1 0.497873 0.836057 0.665868
914 1 0.394105 0.610049 0.556785
915 1 0.390162 0.560637 0.611079
917 1 0.450591 0.550974 0.562784
918 1 0.444014 0.603801 0.61062
1228 1 0.00493018 0.611536 0.83297
45 1 0.219723 0.223334 0.995602
125 1 0.454432 0.665882 0.987685
41 1 0.120077 0.217749 0.998576
920 1 0.0635609 0.712972 0.553931
921 1 0.0573076 0.664065 0.609724
9 1 0.199616 0.00058648 0.997513
923 1 0.114562 0.66253 0.55033