ITEM: TIMESTEP
19200
ITEM: NUMBER OF ATOMS
864
ITEM: BOX BOUNDS pp pp pp
0.0000000000000000e+00 3.1559999999999999e+01
0.0000000000000000e+00 3.1559999999999999e+01
0.0000000000000000e+00 3.1559999999999999e+01
ITEM: ATOMS id type xs ys zs
455 1 0.906296 0.479308 0.081866
69 1 0.831191 0.337062 -0.00447075
42 1 0.725916 0.23892 -0.00816681
101 1 0.184734 0.175818 0.175689
49 1 0.00499282 0.329406 -0.00930788
33 1 0.333205 0.174581 -0.00605396
8 1 0.162686 0.0823475 0.0938285
12 1 0.348105 0.0934318 0.0817773
31 1 0.250362 0.16214 0.0857051
214 1 0.920648 0.434469 0.322063
16 1 0.489326 0.0758094 0.0859683
216 1 0.840515 0.432991 0.413271
62 1 0.57738 0.42209 -0.0088382
82 1 0.417111 0.105831 0.172533
109 1 0.503458 0.172442 0.174199
237 1 0.836712 -0.00136403 0.495067
20 1 0.658526 0.0784312 0.102027
39 1 0.577148 0.16187 0.095973
86 1 0.591633 0.0905173 0.177228
29 1 0.155382 0.153638 -0.0122689
90 1 0.746108 0.0901567 0.178363
24 1 0.830362 0.0844048 0.0991148
209 1 0.675046 0.331771 0.346866
4 1 -0.018946 0.0856805 0.0898703
94 1 0.916621 0.0890544 0.172304
7 1 0.252179 0.0140495 0.0859441
27 1 0.0722569 0.161809 0.0696314
32 1 0.168173 0.239245 0.0636158
28 1 0.991291 0.238406 0.0615877
51 1 0.0744926 0.329634 0.0830766
102 1 0.24276 0.267635 0.154697
125 1 0.164616 0.339932 0.157441
55 1 0.25996 0.333789 0.0770588
527 1 0.936459 0.492707 0.236379
26 1 0.0867686 0.252579 -0.0050307
36 1 0.330937 0.244864 0.086877
35 1 0.415235 0.173431 0.0787546
59 1 0.424162 0.311288 0.0835098
443 1 0.40859 0.502167 0.0858438
587 1 0.422595 0.499621 0.420926
85 1 0.485848 0.0121914 0.172994
40 1 0.508239 0.257267 0.0959601
43 1 0.733652 0.172659 0.0792304
44 1 0.663519 0.254489 0.0862958
67 1 0.750331 0.324747 0.0725283
48 1 0.822327 0.252144 0.0857566
47 1 0.913295 0.165373 0.101014
141 1 0.823342 0.326349 0.172962
71 1 0.925867 0.328904 0.0816274
65 1 0.656292 0.342792 0.00234695
122 1 0.0727436 0.41137 0.163109
21 1 0.824247 0.00707665 0.00706948
11 1 0.423741 -0.0108306 0.0726644
581 1 0.176687 0.49499 0.340666
56 1 0.158248 0.41281 0.0794047
126 1 0.245202 0.409453 0.169561
511 1 0.250546 0.510172 0.256376
253 1 0.501495 0.170652 0.506743
155 1 0.407263 -0.0186437 0.40932
60 1 0.334219 0.417731 0.08773
64 1 0.497674 0.40444 0.0864842
447 1 0.582541 0.490436 0.0718537
3 1 0.0807867 0.00766356 0.0955934
199 1 0.258756 0.330657 0.430984
63 1 0.58761 0.335083 0.096746
134 1 0.580769 0.416921 0.158006
151 1 0.242251 -0.0027007 0.41464
194 1 0.0914974 0.408557 0.326276
192 1 0.840302 0.258277 0.414483
451 1 0.767068 0.4914 0.0899013
68 1 0.674609 0.431444 0.0848776
577 1 0.00187378 0.497267 0.339878
206 1 0.573114 0.420155 0.327491
52 1 0.000180917 0.412702 0.085032
72 1 0.833369 0.394753 0.0985117
211 1 0.751807 0.346217 0.417575
212 1 0.657861 0.424593 0.401164
74 1 0.07372 0.0939034 0.155482
80 1 0.170793 0.0816026 0.25162
99 1 0.084041 0.165125 0.246329
213 1 0.835396 0.351439 0.339327
188 1 0.666582 0.259025 0.425813
15 1 0.574392 0.00882739 0.0973781
78 1 0.267725 0.093506 0.166109
173 1 0.16191 0.182596 0.324861
103 1 0.264026 0.156076 0.25593
165 1 0.829088 -0.00206427 0.334251
105 1 0.328554 0.17369 0.176544
84 1 0.334066 0.0860924 0.270844
107 1 0.405099 0.181095 0.256178
177 1 0.332139 0.167618 0.345312
203 1 0.399882 0.34097 0.423206
201 1 0.334989 0.337282 0.336143
88 1 0.500005 0.101966 0.259853
111 1 0.586436 0.165714 0.261275
92 1 0.677251 0.091747 0.261822
115 1 0.755666 0.175266 0.257751
76 1 0.00439255 0.0842813 0.250176
96 1 0.829886 0.0828746 0.261127
119 1 0.920739 0.171159 0.260203
117 1 0.825925 0.171504 0.170625
205 1 0.481979 0.331941 0.345475
121 1 -0.00639768 0.314648 0.162178
97 1 0.998114 0.175309 0.166708
98 1 0.0950881 0.232084 0.153664
100 1 0.0099111 0.251675 0.254452
123 1 0.0847264 0.322577 0.241131
170 1 0.0788838 0.250043 0.333683
129 1 0.326101 0.328669 0.154252
104 1 0.163082 0.259989 0.241244
127 1 0.235711 0.335104 0.253728
108 1 0.31845 0.260919 0.242552
106 1 0.404311 0.25525 0.1685
131 1 0.415217 0.32908 0.261882
181 1 0.496258 0.177908 0.329628
112 1 0.501458 0.253104 0.251767
110 1 0.597662 0.24733 0.177129
133 1 0.516253 0.339512 0.183549
113 1 0.667181 0.169942 0.17934
114 1 0.752256 0.229058 0.17298
137 1 0.690727 0.334689 0.16587
185 1 0.665608 0.169838 0.332346
116 1 0.685244 0.254484 0.258298
139 1 0.75922 0.345312 0.255876
186 1 0.743751 0.248236 0.35011
118 1 0.910552 0.24412 0.183004
120 1 0.826657 0.266811 0.262775
143 1 0.923838 0.332866 0.256491
190 1 0.928413 0.255562 0.330184
208 1 0.488915 0.416633 0.410837
128 1 0.162415 0.427332 0.24894
132 1 0.328626 0.41451 0.251344
281 1 0.665313 0.360864 0.492669
130 1 0.41927 0.407919 0.176939
202 1 0.409836 0.423529 0.32178
136 1 0.508312 0.434093 0.249715
45 1 0.820434 0.163177 0.00157694
135 1 0.5858 0.341276 0.252886
22 1 0.898987 0.0851938 0.00909267
140 1 0.671168 0.42014 0.24716
210 1 0.747945 0.419315 0.33133
138 1 0.756559 0.426275 0.170575
200 1 0.166413 0.408977 0.418599
124 1 1.00028 0.405448 0.24581
144 1 0.836448 0.422985 0.238912
142 1 0.91815 0.404263 0.164606
146 1 0.0868778 0.0762633 0.326634
152 1 0.15874 0.0963357 0.405837
150 1 0.247325 0.0917451 0.346847
156 1 0.348484 0.0748808 0.414983
234 1 0.750707 0.0919065 0.495059
175 1 0.252358 0.153722 0.426771
196 1 1.0091 0.411158 0.437889
154 1 0.410587 0.1075 0.340219
179 1 0.421897 0.169271 0.421887
160 1 0.480743 0.0669465 0.41769
158 1 0.570013 0.0892426 0.355363
183 1 0.581039 0.173026 0.424277
164 1 0.673144 0.0967719 0.42991
509 1 0.158849 0.493046 0.161782
215 1 0.932762 0.336562 0.414034
207 1 0.583969 0.347304 0.403964
193 1 -0.00270609 0.336228 0.325314
162 1 0.74923 0.0820695 0.3361
189 1 0.834729 0.177489 0.337271
187 1 0.749682 0.174602 0.419445
198 1 0.243861 0.412254 0.328429
148 1 0.0105201 0.0773193 0.4051
168 1 0.832376 0.0842514 0.412889
166 1 0.919518 0.0953451 0.337738
191 1 0.921947 0.173945 0.405337
169 1 1.00567 0.170844 0.331457
171 1 0.0826449 0.165412 0.413817
195 1 0.0787574 0.326097 0.419539
172 1 1.00434 0.249303 0.420432
176 1 0.163321 0.238318 0.418179
197 1 0.159993 0.31811 0.33676
174 1 0.248453 0.253818 0.339464
204 1 0.332056 0.422456 0.411867
180 1 0.330818 0.250359 0.41148
178 1 0.403528 0.246372 0.336094
184 1 0.49902 0.249931 0.415876
182 1 0.592425 0.262664 0.332697
595 1 0.755315 0.498349 0.414757
579 1 0.0818314 0.501347 0.412149
277 1 0.516954 0.323861 0.49997
597 1 0.838298 0.500328 0.322686
254 1 0.586468 0.244879 0.499788
75 1 0.103255 0.00215301 0.243092
83 1 0.417415 0.00792187 0.25378
515 1 0.41321 0.499946 0.242078
1 1 0.986962 -0.00259426 0.00648813
87 1 0.570674 0.000470922 0.242092
70 1 0.91989 0.411797 -0.00727504
159 1 0.591057 0.00660581 0.440551
13 1 0.505447 -0.000179552 -0.00470701
17 1 0.6624 0.00252495 0.00589856
257 1 0.669346 0.174198 0.501829
258 1 0.758217 0.259135 0.491478
241 1 0.00568167 0.163908 0.491044
226 1 0.421591 0.0841735 0.507302
245 1 0.148315 0.152852 0.510971
53 1 0.154826 0.329882 -0.00122379
238 1 0.917743 0.0728564 0.494539
18 1 0.742304 0.0825711 0.00344506
66 1 0.744657 0.414683 -0.00258006
38 1 0.581114 0.24904 0.0106897
445 1 0.482235 0.490457 0.00510269
30 1 0.245628 0.241167 -0.00433437
270 1 0.241762 0.41722 0.503732
286 1 0.917018 0.405929 0.509841
6 1 0.243103 0.0872399 0.00235295
278 1 0.576433 0.418038 0.49312
371 1 0.422245 0.0153967 0.912873
290 1 0.0770525 0.0689253 0.67192
224 1 0.15803 0.0745867 0.580925
243 1 0.0720041 0.165212 0.591871
671 1 0.921279 0.508556 0.589486
223 1 0.232541 -0.0180355 0.574003
247 1 0.253884 0.15025 0.580253
228 1 0.331391 0.0751487 0.587105
412 1 1.01414 0.408833 0.914264
298 1 0.403178 0.0793887 0.669091
232 1 0.501284 0.0832566 0.580079
325 1 0.491131 0.161143 0.66635
309 1 0.822122 -0.0107094 0.689074
432 1 0.83631 0.409913 0.913109
811 1 0.743996 0.489943 0.917012
255 1 0.596649 0.167704 0.58642
803 1 0.411071 0.515201 0.908872
305 1 0.690722 -0.00107142 0.662942
236 1 0.680414 0.087921 0.584875
259 1 0.772662 0.167212 0.577868
311 1 0.92089 -0.014825 0.751843
240 1 0.843514 0.0739632 0.579676
220 1 0.986564 0.0545914 0.596521
263 1 0.924553 0.15923 0.585394
795 1 0.0921276 0.500008 0.912135
248 1 0.17492 0.239446 0.601689
727 1 0.251263 0.513697 0.748047
219 1 0.070443 -0.00708868 0.589374
252 1 0.328057 0.255964 0.580984
318 1 0.254224 0.243699 0.680891
437 1 0.167939 0.495741 1.00221
375 1 0.584101 0.01223 0.905751
251 1 0.418625 0.166518 0.583381
275 1 0.417472 0.33847 0.581817
256 1 0.50744 0.244695 0.57767
322 1 0.422927 0.245652 0.672832
721 1 0.00378454 0.499539 0.664
265 1 0.00175696 0.330154 0.502908
326 1 0.594849 0.237593 0.676489
329 1 0.677256 0.178417 0.656073
260 1 0.679715 0.261269 0.574943
264 1 0.846643 0.243507 0.563201
330 1 0.762163 0.243739 0.659352
303 1 0.584215 0.0291647 0.745073
244 1 0.999649 0.264094 0.590635
229 1 0.482058 -0.00394162 0.520842
337 1 0.992732 0.337458 0.675118
334 1 0.921391 0.246587 0.653365
379 1 0.724827 -0.00151232 0.915502
267 1 0.0717536 0.337981 0.595575
338 1 0.0916622 0.423589 0.668279
218 1 0.0717797 0.0737458 0.5151
271 1 0.250061 0.343977 0.582029
272 1 0.175389 0.429664 0.58641
341 1 0.173656 0.335134 0.667679
262 1 0.92627 0.248003 0.500299
276 1 0.334759 0.418827 0.587297
346 1 0.41895 0.415288 0.660169
280 1 0.503549 0.41229 0.585071
428 1 0.654033 0.439265 0.898905
799 1 0.256828 0.501894 0.905715
367 1 0.246904 -0.00522484 0.923716
279 1 0.585048 0.339508 0.581378
353 1 0.672516 0.346488 0.658479
284 1 0.668916 0.419023 0.582402
429 1 0.833537 0.330513 0.835985
431 1 0.917032 0.327303 0.917467
408 1 0.830664 0.257005 0.910145
427 1 0.730823 0.332401 0.922127
283 1 0.75512 0.347793 0.565617
288 1 0.83694 0.429971 0.574933
357 1 0.820376 0.330145 0.65778
426 1 0.725622 0.413503 0.824611
287 1 0.910795 0.327806 0.584826
793 1 1.01658 0.498453 0.822791
268 1 0.0126666 0.43136 0.58259
404 1 0.652962 0.259396 0.925235
383 1 0.912761 0.00358502 0.919889
317 1 0.160234 0.149154 0.662636
296 1 0.167263 0.0670869 0.749743
315 1 0.0803974 0.162992 0.755475
385 1 0.9996 0.169714 0.834886
294 1 0.242492 0.070759 0.656687
319 1 0.24602 0.156016 0.747598
300 1 0.324749 0.0683171 0.744369
321 1 0.327486 0.161889 0.669515
323 1 0.405408 0.145972 0.750552
370 1 0.403628 0.0810744 0.827266
304 1 0.502143 0.0933783 0.744079
302 1 0.589834 0.0947098 0.663655
424 1 0.492325 0.425973 0.919674
422 1 0.578704 0.405631 0.831259
308 1 0.66975 0.103902 0.738639
306 1 0.756468 0.0981438 0.661034
333 1 0.846441 0.169295 0.66251
312 1 0.819641 0.0872882 0.752235
401 1 0.674102 0.168851 0.841121
292 1 0.993492 0.0767494 0.739545
310 1 0.906206 0.0809477 0.671451
382 1 0.910361 0.0792982 0.812687
335 1 0.91712 0.159076 0.745182
441 1 0.331403 0.48575 0.987271
409 1 0.999781 0.341513 0.83179
314 1 0.0709887 0.23559 0.671834
339 1 0.0723165 0.329726 0.736427
320 1 0.16429 0.243098 0.745304
386 1 0.0767103 0.260802 0.826042
413 1 0.165529 0.334376 0.827235
390 1 0.238046 0.238848 0.826933
324 1 0.3431 0.241353 0.748743
345 1 0.324837 0.319454 0.660378
328 1 0.517258 0.237612 0.74837
347 1 0.409145 0.331588 0.739059
349 1 0.505588 0.324765 0.654762
394 1 0.41993 0.244504 0.817785
327 1 0.588812 0.162851 0.747421
397 1 0.50277 0.165555 0.835213
398 1 0.584877 0.234594 0.838535
332 1 0.675929 0.244761 0.748303
331 1 0.748346 0.169591 0.769698
336 1 0.836379 0.239253 0.748051
402 1 0.73516 0.257239 0.843097
425 1 0.654374 0.334394 0.817364
313 1 -0.00198122 0.157557 0.66577
316 1 -0.0129496 0.258417 0.754521
406 1 0.912109 0.248156 0.832181
344 1 0.18166 0.425546 0.745848
340 1 1.01361 0.420994 0.755017
410 1 0.0928741 0.421192 0.821691
343 1 0.25018 0.323484 0.752178
342 1 0.254349 0.419586 0.66483
417 1 0.322385 0.327889 0.838477
54 1 0.247506 0.413123 1.00132
411 1 0.0927619 0.334963 0.911157
423 1 0.575473 0.326892 0.908982
348 1 0.320631 0.403659 0.754275
352 1 0.495248 0.397404 0.748998
351 1 0.581753 0.320517 0.7384
350 1 0.578607 0.416746 0.663731
356 1 0.653365 0.409274 0.745165
355 1 0.742705 0.332211 0.76188
354 1 0.753507 0.425814 0.666796
430 1 0.919173 0.411596 0.818311
359 1 0.906085 0.328439 0.744412
360 1 0.829853 0.416428 0.756589
358 1 0.911411 0.428745 0.678595
362 1 0.0736557 0.0766575 0.826243
364 1 -0.0142829 0.0836311 0.903632
387 1 0.0766193 0.156107 0.910717
420 1 0.328292 0.404886 0.91378
368 1 0.162859 0.0755763 0.912158
366 1 0.24963 0.0787299 0.837017
418 1 0.40855 0.414347 0.825843
372 1 0.325193 0.0820808 0.922745
376 1 0.504898 0.0844248 0.911128
801 1 0.329606 0.512996 0.822601
381 1 0.821911 -0.00416413 0.835286
400 1 0.491782 0.247843 0.909686
37 1 0.498658 0.17817 1.01693
374 1 0.581115 0.0850574 0.833517
380 1 0.663011 0.0959147 0.927294
399 1 0.589301 0.168046 0.920768
421 1 0.495472 0.327798 0.827563
58 1 0.414413 0.399817 0.999234
239 1 0.911295 -0.0136751 0.597111
414 1 0.249248 0.412571 0.828447
378 1 0.744367 0.079324 0.850993
405 1 0.844512 0.164987 0.830377
403 1 0.756915 0.164706 0.905907
50 1 0.084721 0.408084 1.00137
384 1 0.822353 0.0655589 0.922087
407 1 0.904801 0.157261 0.922124
388 1 -0.0147875 0.244682 0.916943
416 1 0.1618 0.412836 0.918184
419 1 0.419339 0.336578 0.913518
389 1 0.155892 0.145631 0.831023
392 1 0.164985 0.246464 0.911349
415 1 0.242857 0.329521 0.911385
391 1 0.234837 0.161861 0.914798
396 1 0.315318 0.239685 0.906616
393 1 0.322933 0.156548 0.829033
395 1 0.412974 0.165903 0.907355
449 1 0.669338 0.48953 1.00276
285 1 0.844807 0.334448 0.482492
723 1 0.098092 0.513256 0.734003
34 1 0.404461 0.254241 1.00312
222 1 0.255427 0.0750258 0.498632
301 1 0.500059 0.00659445 0.673662
57 1 0.323161 0.323679 1.00281
377 1 0.659677 -0.00287164 0.828737
9 1 0.33869 -0.00423619 0.999894
25 1 0.995337 0.141784 1.00099
661 1 0.499385 0.513651 0.499549
269 1 0.166323 0.329764 0.51173
41 1 0.651468 0.164329 1.00908
14 1 0.562032 0.0939844 1.00464
2 1 0.0834385 0.0707324 1.00748
246 1 0.249116 0.240984 0.511602
250 1 0.417847 0.254303 0.494766
10 1 0.429524 0.098659 0.996092
61 1 0.504096 0.322938 1.01068
266 1 0.095157 0.409464 0.507871
230 1 0.598336 0.094317 0.502509
46 1 0.912311 0.228548 0.996931
273 1 0.326297 0.341752 0.507308
282 1 0.766527 0.423491 0.495
274 1 0.413833 0.418871 0.507513
249 1 0.335703 0.18199 0.491767
242 1 0.0864048 0.258704 0.504825
261 1 0.842987 0.166288 0.489097
506 1 0.0855696 0.571198 0.166328
440 1 0.17859 0.583854 0.0702975
436 1 0.999998 0.593807 0.0849331
513 1 0.311269 0.50031 0.167476
463 1 0.245294 0.674404 0.0869396
510 1 0.247371 0.594814 0.172002
161 1 0.654458 1.01479 0.347146
444 1 0.340106 0.595138 0.0960197
448 1 0.501693 0.582235 0.0802084
471 1 0.60032 0.677759 0.0748081
541 1 0.507988 0.661978 0.151453
717 1 0.836116 0.829809 0.517249
452 1 0.663194 0.562666 0.0744137
481 1 1.01647 0.849053 -0.00923965
521 1 0.665731 0.502225 0.166433
456 1 0.859758 0.582858 0.0902787
526 1 0.930542 0.591985 0.170461
454 1 0.933339 0.585807 0.0107933
459 1 0.0932215 0.660081 0.0909612
460 1 0.00949668 0.749777 0.10022
464 1 0.159774 0.745513 0.0791832
498 1 0.744636 0.920815 -0.00307176
487 1 0.261849 0.827567 0.104171
534 1 0.255951 0.741352 0.167906
467 1 0.405522 0.676814 0.0860192
468 1 0.339082 0.746128 0.0779678
537 1 0.328274 0.673303 0.173566
538 1 0.426052 0.749153 0.16706
482 1 0.0999904 0.931396 -0.000460103
714 1 0.73949 0.917753 0.50829
472 1 0.510454 0.754612 0.0867321
476 1 0.66725 0.752018 0.0926967
542 1 0.588692 0.75232 0.183475
149 1 0.17463 1.00199 0.319547
545 1 0.678421 0.659496 0.167557
549 1 0.81361 0.679732 0.165116
475 1 0.751333 0.655935 0.0820533
546 1 0.751595 0.764836 0.15337
81 1 0.35427 1.00627 0.174219
479 1 0.926091 0.671012 0.0736399
480 1 0.826059 0.751989 0.085548
503 1 0.916853 0.84854 0.068403
550 1 0.901833 0.758652 0.1681
483 1 0.0831886 0.828162 0.0835549
554 1 0.0790913 0.918023 0.167012
488 1 0.172504 0.926172 0.0942338
492 1 0.335191 0.916451 0.0948444
558 1 0.252157 0.928461 0.164522
491 1 0.424913 0.836597 0.0817824
496 1 0.493845 0.920973 0.0808614
562 1 0.423275 0.903337 0.165383
493 1 0.503328 0.848074 0.00678755
77 1 0.184255 1.01565 0.173886
495 1 0.587628 0.844315 0.083193
500 1 0.658243 0.923782 0.094942
662 1 0.574051 0.585444 0.495108
569 1 0.670275 0.834858 0.16648
499 1 0.737134 0.848485 0.0798737
570 1 0.74156 0.920639 0.183184
435 1 0.0898442 0.489147 0.0781337
167 1 0.911222 1.01051 0.405383
647 1 0.925426 0.829714 0.44247
484 1 0.0049651 0.908256 0.0765405
504 1 0.824701 0.921027 0.0946049
574 1 0.910525 0.921794 0.183006
490 1 0.421014 0.92747 -0.0124072
531 1 0.0934448 0.662834 0.246106
512 1 0.167456 0.580126 0.268484
605 1 0.164351 0.67449 0.328776
533 1 0.168486 0.66469 0.169697
582 1 0.259392 0.58571 0.334389
516 1 0.333617 0.577109 0.245447
718 1 0.918852 0.927981 0.500306
514 1 0.419939 0.580906 0.165895
19 1 0.73945 1.00653 0.088655
586 1 0.416375 0.573259 0.323161
518 1 0.595734 0.58347 0.152909
520 1 0.519965 0.566862 0.2366
543 1 0.592035 0.662363 0.238084
524 1 0.688092 0.592939 0.262245
590 1 0.585978 0.576766 0.32755
522 1 0.762387 0.582708 0.16617
507 1 0.0682983 0.506246 0.255432
657 1 0.338886 0.493692 0.504478
547 1 0.774298 0.65704 0.261644
529 1 1.0202 0.66563 0.17294
528 1 0.855505 0.578406 0.245429
508 1 1.01375 0.590668 0.247597
650 1 0.0814392 0.587063 0.499036
530 1 0.0928643 0.760142 0.178853
555 1 0.0839961 0.840247 0.244074
602 1 0.0800299 0.75107 0.327081
629 1 0.173249 0.832178 0.324985
536 1 0.174121 0.76137 0.232649
557 1 0.168213 0.844075 0.163196
535 1 0.247384 0.674591 0.259396
559 1 0.255528 0.828968 0.244423
540 1 0.342692 0.742438 0.251878
539 1 0.407959 0.670032 0.248108
563 1 0.421975 0.830952 0.249107
609 1 0.333142 0.65525 0.330574
544 1 0.516944 0.742727 0.259541
614 1 0.603717 0.759272 0.32377
567 1 0.594621 0.841329 0.241414
613 1 0.505196 0.667162 0.317793
548 1 0.696174 0.725539 0.257549
618 1 0.778108 0.749839 0.343144
552 1 0.824866 0.762867 0.244619
601 1 1.00412 0.665992 0.328339
551 1 0.924155 0.668684 0.24545
532 1 1.00411 0.745358 0.241391
622 1 0.905312 0.750368 0.334937
556 1 0.00335003 0.915017 0.257045
560 1 0.173246 0.918146 0.241842
643 1 0.754993 0.839917 0.425251
630 1 0.261308 0.920243 0.325738
561 1 0.346648 0.816209 0.161333
564 1 0.33222 0.909437 0.235812
565 1 0.506966 0.824873 0.169729
566 1 0.571644 0.911114 0.167082
568 1 0.496051 0.90684 0.240574
638 1 0.580612 0.926481 0.342158
153 1 0.322994 1.00036 0.333063
163 1 0.74559 1.00588 0.404472
583 1 0.26235 0.501322 0.420684
645 1 0.844791 0.84336 0.351336
572 1 0.658425 0.924817 0.261207
571 1 0.748192 0.840879 0.263631
576 1 0.825451 0.918617 0.261425
646 1 0.90898 0.923751 0.333945
642 1 0.752094 0.916812 0.346169
553 1 0.0101421 0.840695 0.161807
573 1 0.832817 0.836361 0.173641
575 1 0.938026 0.831144 0.243661
648 1 0.839679 0.92643 0.428337
578 1 0.0883147 0.595286 0.334114
584 1 0.167393 0.571663 0.410718
93 1 0.820897 1.00704 0.183725
439 1 0.241272 0.484759 0.0811801
607 1 0.243009 0.67065 0.399103
632 1 0.180746 0.915477 0.40392
519 1 0.596275 0.496706 0.250078
640 1 0.497313 0.93581 0.429993
588 1 0.353123 0.588159 0.416947
639 1 0.577627 0.845897 0.411676
486 1 0.251131 0.919105 0.00363796
617 1 0.678453 0.659354 0.343196
592 1 0.506821 0.578846 0.411798
596 1 0.648217 0.57025 0.422425
73 1 1.00491 0.994313 0.178539
644 1 0.656624 0.912204 0.4282
594 1 0.76042 0.568593 0.332704
600 1 0.842019 0.580172 0.411116
619 1 0.760198 0.669838 0.414755
641 1 0.678815 0.831609 0.332824
636 1 0.320632 0.913892 0.412428
598 1 0.929539 0.572748 0.346387
580 1 0.0135482 0.595734 0.410271
631 1 0.257783 0.82588 0.403144
145 1 0.0100444 1.002 0.330493
625 1 -0.00891905 0.819397 0.339114
603 1 0.0850531 0.665675 0.411583
635 1 0.413173 0.834684 0.405421
626 1 0.0896128 0.910662 0.345758
713 1 0.658435 0.823508 0.498115
608 1 0.171173 0.750296 0.411653
606 1 0.253093 0.757622 0.319186
612 1 0.334323 0.739693 0.407884
611 1 0.436349 0.665381 0.409856
633 1 0.347183 0.821116 0.327183
610 1 0.419421 0.731583 0.332635
634 1 0.418419 0.918851 0.320226
616 1 0.511345 0.761632 0.393433
615 1 0.591078 0.646801 0.398502
628 1 0.00396819 0.913175 0.410109
621 1 0.845535 0.648728 0.336237
624 1 0.845686 0.763835 0.43454
620 1 0.670509 0.743462 0.406579
591 1 0.583562 0.489318 0.408222
623 1 0.935402 0.682896 0.421071
604 1 1.01607 0.751851 0.425343
627 1 0.0949003 0.841666 0.427597
637 1 0.513972 0.828783 0.319154
505 1 0.00357072 0.502402 0.147245
494 1 0.582746 0.9199 0.00089247
89 1 0.653562 1.00574 0.174851
79 1 0.26116 1.00005 0.248738
589 1 0.486918 0.495494 0.337615
91 1 0.738017 1.003 0.261194
593 1 0.678608 0.508108 0.318799
517 1 0.496221 0.50184 0.159141
674 1 0.111107 0.766678 0.504985
157 1 0.499142 0.996408 0.334825
502 1 0.904025 0.924114 -0.00662531
217 1 0.0025078 0.990976 0.48427
694 1 0.921107 0.741627 0.504191
697 1 0.0149953 0.823974 0.502141
147 1 0.0862243 0.999953 0.41476
585 1 0.348595 0.500134 0.34408
523 1 0.768159 0.510823 0.242756
23 1 0.914297 0.99467 0.100892
599 1 0.934151 0.485688 0.414664
95 1 0.926298 1.01357 0.256639
525 1 0.839257 0.505415 0.16325
682 1 0.432518 0.751879 0.488973
473 1 0.667508 0.664325 -0.0135691
477 1 0.822513 0.663798 0.00108178
658 1 0.408582 0.578218 0.519754
478 1 0.922049 0.756025 -0.0120622
685 1 0.492214 0.658836 0.500217
654 1 0.246837 0.592899 0.489062
705 1 0.34626 0.828693 0.484374
489 1 0.337397 0.848298 0.00466493
221 1 0.15577 1.00952 0.485269
690 1 0.749605 0.748741 0.489873
462 1 0.257472 0.762312 0.014396
678 1 0.239622 0.75865 0.492461
466 1 0.413601 0.7642 0.00608196
5 1 0.176416 1.01117 0.01127
698 1 0.0925272 0.919734 0.504259
665 1 0.668279 0.500416 0.522311
653 1 0.16333 0.493783 0.492758
702 1 0.265182 0.911155 0.497481
457 1 0.00747469 0.68496 0.0147301
673 1 0.0181829 0.67219 0.500491
689 1 0.664562 0.660176 0.488461
465 1 0.326457 0.6614 0.00404774
681 1 0.328453 0.674529 0.483113
446 1 0.581481 0.583755 0.00643151
675 1 0.0840305 0.679164 0.5867
709 1 0.497963 0.837062 0.500083
722 1 0.0830997 0.586546 0.649936
651 1 0.0852343 0.508677 0.568545
656 1 0.174156 0.584669 0.562603
660 1 0.319146 0.595957 0.56723
679 1 0.253169 0.672851 0.569361
861 1 0.835285 0.829303 0.847211
683 1 0.404059 0.679777 0.58887
664 1 0.49754 0.587768 0.585468
844 1 1.00363 0.926431 0.919943
805 1 0.510148 0.482511 0.804544
668 1 0.655928 0.591546 0.57842
649 1 -0.0091895 0.512332 0.50977
863 1 0.918943 0.850851 0.925352
369 1 0.340752 1.0003 0.832721
858 1 0.744474 0.92348 0.833596
672 1 0.842143 0.589198 0.578115
652 1 0.000701556 0.585339 0.580006
746 1 0.0713017 0.763035 0.680609
749 1 0.149776 0.664123 0.676278
680 1 0.173471 0.737983 0.587459
750 1 0.25022 0.748258 0.658407
684 1 0.335741 0.75402 0.56323
688 1 0.499057 0.750577 0.580705
754 1 0.419924 0.741122 0.666829
777 1 0.337591 0.820065 0.64808
297 1 0.32514 0.98307 0.673641
687 1 0.582168 0.674958 0.572383
692 1 0.65703 0.753456 0.574453
669 1 0.845783 0.514842 0.496646
461 1 0.180547 0.668852 0.987909
691 1 0.750485 0.658987 0.566571
696 1 0.836374 0.734334 0.592738
667 1 0.752052 0.513545 0.578366
695 1 0.919441 0.655948 0.570431
676 1 0.00388724 0.744276 0.587381
745 1 0.999911 0.675045 0.66149
719 1 0.935398 0.831071 0.576697
765 1 0.857923 0.644605 0.666928
766 1 0.914239 0.749378 0.667246
699 1 0.0805107 0.825962 0.586547
864 1 0.824212 0.929538 0.915363
700 1 0.998081 0.911341 0.577528
769 1 0.988442 0.82094 0.68107
770 1 0.0701579 0.911402 0.673696
859 1 0.742068 0.829978 0.922835
703 1 0.246804 0.830836 0.578674
704 1 0.158043 0.904618 0.586985
708 1 0.324575 0.921213 0.588518
666 1 0.744479 0.580789 0.48235
663 1 0.5722 0.484028 0.575011
707 1 0.417746 0.830664 0.57519
712 1 0.510606 0.916303 0.610267
458 1 0.0926795 0.764913 0.995615
295 1 0.252125 0.990053 0.769782
854 1 0.570059 0.942231 0.825991
711 1 0.577243 0.831282 0.578022
781 1 0.491496 0.826663 0.65675
782 1 0.607922 0.925486 0.672145
716 1 0.665949 0.909069 0.59018
299 1 0.40536 0.991611 0.74408
715 1 0.74621 0.815364 0.568456
785 1 0.686159 0.818261 0.658358
677 1 0.171015 0.664706 0.486976
786 1 0.745234 0.897 0.674962
860 1 0.661101 0.911769 0.893928
720 1 0.8215 0.907483 0.579976
789 1 0.83398 0.821679 0.659476
790 1 0.891991 0.907624 0.685044
289 1 0.99794 0.985921 0.673261
735 1 0.591248 0.508601 0.739428
747 1 0.0732832 0.667948 0.757289
794 1 0.0898977 0.585591 0.842558
856 1 0.497034 0.916272 0.918966
225 1 0.33767 0.993663 0.509518
726 1 0.239107 0.611381 0.654662
474 1 0.747814 0.752186 1.02468
307 1 0.740961 1.01593 0.750608
728 1 0.163849 0.594625 0.740867
730 1 0.404139 0.599692 0.667936
753 1 0.331858 0.676972 0.671372
731 1 0.396406 0.500044 0.741124
732 1 0.336864 0.598464 0.748948
802 1 0.432203 0.574705 0.821552
734 1 0.575023 0.582474 0.656792
739 1 0.728609 0.490359 0.740344
815 1 0.916179 0.486155 0.90536
852 1 0.349823 0.919904 0.913339
736 1 0.493006 0.577456 0.727224
740 1 0.654915 0.589122 0.733425
806 1 0.55219 0.584659 0.832633
846 1 0.26004 0.912909 0.851576
737 1 0.668255 0.501229 0.645194
738 1 0.744521 0.586217 0.664055
744 1 0.822072 0.582722 0.745432
742 1 0.936993 0.577699 0.674191
845 1 0.171612 0.837104 0.837235
809 1 0.651342 0.510662 0.817652
724 1 1.01493 0.583152 0.748789
814 1 0.907733 0.574896 0.839243
752 1 0.160976 0.745741 0.739876
818 1 0.084594 0.743689 0.844652
751 1 0.262482 0.678398 0.742281
775 1 0.240885 0.821498 0.744588
822 1 0.249125 0.75305 0.832058
757 1 0.506245 0.672923 0.653688
755 1 0.430419 0.664105 0.745407
756 1 0.330736 0.754903 0.759735
826 1 0.410698 0.749727 0.847147
779 1 0.40709 0.827143 0.74408
825 1 0.335662 0.674788 0.835993
761 1 0.63771 0.675363 0.663025
758 1 0.58156 0.767303 0.664253
759 1 0.559275 0.664803 0.750409
760 1 0.501084 0.755916 0.752809
764 1 0.657265 0.740113 0.759767
762 1 0.739341 0.728082 0.641779
763 1 0.741007 0.657002 0.747312
768 1 0.830906 0.739407 0.753241
817 1 0.999003 0.666149 0.844268
767 1 0.932617 0.660645 0.756554
748 1 0.996895 0.74136 0.7609
838 1 0.924393 0.754446 0.853063
227 1 0.399186 0.980114 0.599124
771 1 0.0779272 0.833884 0.760255
772 1 0.99225 0.909591 0.750611
842 1 0.0720408 0.931756 0.837958
848 1 0.1792 0.919703 0.924472
843 1 0.0862598 0.853206 0.903257
773 1 0.159513 0.831424 0.658665
776 1 0.165118 0.900468 0.751305
774 1 0.235519 0.907188 0.668723
780 1 0.320515 0.896617 0.747161
450 1 0.75165 0.566871 1.00248
743 1 0.922927 0.507913 0.755923
778 1 0.404025 0.89779 0.66936
231 1 0.582596 1.01455 0.595596
784 1 0.488094 0.910631 0.752395
850 1 0.423136 0.917542 0.836685
783 1 0.576881 0.842679 0.742706
788 1 0.663365 0.91245 0.76237
787 1 0.770568 0.831844 0.757662
235 1 0.759344 0.999567 0.571551
832 1 0.501365 0.755326 0.910586
862 1 0.898214 0.914945 0.831205
839 1 0.915339 0.661584 0.914356
792 1 0.821772 0.918418 0.766094
791 1 0.917364 0.823821 0.765865
841 1 0.993796 0.837764 0.84442
813 1 0.832129 0.490153 0.829742
819 1 0.0800614 0.650531 0.926137
659 1 0.401767 0.512899 0.598894
837 1 0.835296 0.669402 0.833225
798 1 0.250969 0.597902 0.83107
821 1 0.164802 0.666657 0.83445
800 1 0.173525 0.578517 0.911218
823 1 0.252643 0.678458 0.919236
829 1 0.480733 0.676914 0.849546
804 1 0.328557 0.588615 0.898747
808 1 0.499907 0.581341 0.932389
827 1 0.409761 0.665801 0.932123
840 1 0.830618 0.751585 0.919548
831 1 0.570401 0.67436 0.923187
835 1 0.750733 0.63952 0.923642
291 1 0.0749483 0.987242 0.751407
833 1 0.645172 0.660347 0.834312
812 1 0.664867 0.569859 0.901503
810 1 0.73399 0.587026 0.831651
733 1 0.490913 0.499188 0.648093
361 1 0.982608 0.996876 0.834432
816 1 0.833792 0.569358 0.929311
796 1 -0.0152542 0.570006 0.916309
836 1 0.652563 0.740719 0.923205
855 1 0.575813 0.840867 0.916483
820 1 1.01172 0.751741 0.922431
824 1 0.168568 0.759628 0.919923
834 1 0.747964 0.728826 0.851523
828 1 0.332966 0.763155 0.934863
847 1 0.25525 0.835393 0.934031
857 1 0.659381 0.830182 0.829248
710 1 0.577642 0.909726 0.505242
849 1 0.329631 0.829712 0.845002
853 1 0.496485 0.836647 0.830268
851 1 0.421774 0.840183 0.920416
830 1 0.588292 0.746257 0.838047
433 1 1.01702 0.497688 1.00072
729 1 0.323327 0.517507 0.659714
293 1 0.164762 0.992835 0.661102
807 1 0.581772 0.509896 0.924233
797 1 0.165576 0.493731 0.831013
434 1 0.0884333 0.571403 0.99782
741 1 0.826871 0.502343 0.674877
363 1 0.0692111 1.01181 0.915486
373 1 0.496722 1.01858 0.827633
655 1 0.249826 0.503691 0.567458
365 1 0.167642 0.986924 0.837799
725 1 0.173729 0.52308 0.65331
501 1 0.817265 0.8324 1.01054
706 1 0.418161 0.91597 0.501573
438 1 0.254594 0.57309 0.994335
233 1 0.68072 1.00444 0.508302
442 1 0.411713 0.581923 1.00276
469 1 0.495672 0.666203 1.00264
686 1 0.571378 0.737249 0.485863
497 1 0.662102 0.852027 0.986881
485 1 0.173232 0.837629 1.01993
701 1 0.182903 0.851291 0.494443
670 1 0.926678 0.591859 0.479556
470 1 0.589912 0.758707 0.997892
693 1 0.842476 0.661273 0.502938
453 1 0.83358 0.474576 1.00175
