ITEM: TIMESTEP
28500
ITEM: NUMBER OF ATOMS
2916
ITEM: BOX BOUNDS pp pp pp
0.0000000000000000e+00 4.7339999999999996e+01
0.0000000000000000e+00 4.7339999999999996e+01
0.0000000000000000e+00 4.7339999999999996e+01
ITEM: ATOMS id type xs ys zs
8 1 0.113956 0.0592819 0.0488515
164 1 0.0517985 0.0470042 0.105035
185 1 0.115042 0.111147 0.111471
21 1 0.0504692 0.112802 0.0498467
382 1 0.00471061 0.394529 0.284286
645 1 0.388531 0.880023 0.381743
616 1 0.00654255 0.833536 0.395717
12 1 0.210557 0.0587727 0.0537269
168 1 0.159422 0.0507479 0.104535
171 1 0.214068 0.00712616 0.114572
16 1 0.336792 0.0494014 0.0514646
172 1 0.274908 0.0541477 0.11465
29 1 0.267353 0.10424 0.0516046
176 1 0.382714 0.0480645 0.0999536
18 1 0.452006 0.0494758 0.0551381
15 1 0.395255 0.999946 0.0424798
33 1 0.383929 0.102375 0.0521086
184 1 0.00157 0.165036 0.167215
179 1 0.441593 0.00983792 0.120751
2071 1 0.4886 0.827139 0.31873
50 1 0.389546 0.274881 0.0142294
508 1 0.00692879 0.161629 0.396755
26 1 0.104933 0.170982 0.0462997
182 1 0.0537668 0.166244 0.102407
39 1 0.0533219 0.22178 0.0520678
1837 1 0.495205 0.393281 0.207132
189 1 0.220908 0.102735 0.109279
25 1 0.161249 0.115392 0.0458042
30 1 0.219114 0.157639 0.0557125
186 1 0.169431 0.158241 0.10625
43 1 0.165752 0.215143 0.0473805
559 1 0.000649327 0.44432 0.33234
193 1 0.334596 0.107266 0.108958
34 1 0.332623 0.156311 0.049598
190 1 0.266796 0.165981 0.11331
197 1 0.444411 0.100918 0.109424
194 1 0.39297 0.152683 0.105594
36 1 0.45303 0.15464 0.0580824
215 1 0.445742 0.21633 0.109028
51 1 0.384514 0.208571 0.0566177
648 1 0.439015 0.931165 0.385128
203 1 0.104714 0.222509 0.106269
44 1 0.104124 0.279984 0.0539526
200 1 0.046254 0.274062 0.11026
256 1 0.00746413 0.609321 0.16503
2000 1 0.495528 0.322115 0.39139
1856 1 0.49478 0.44167 0.276927
207 1 0.21519 0.219038 0.109675
48 1 0.226886 0.279928 0.0526001
204 1 0.164424 0.280713 0.104386
61 1 0.158433 0.326716 0.0540555
1766 1 0.495545 0.886572 0.163333
810 1 0.445153 0.943349 0.498418
211 1 0.329419 0.220606 0.122
47 1 0.273316 0.219239 0.061696
52 1 0.326059 0.27085 0.0484085
208 1 0.26409 0.272724 0.113877
1657 1 0.493889 0.285385 0.11075
54 1 0.443474 0.277034 0.0587592
212 1 0.385898 0.277907 0.107452
69 1 0.380971 0.334483 0.0659478
728 1 0.389169 0.938424 0.440414
2036 1 0.499854 0.54937 0.385837
221 1 0.100552 0.32565 0.112805
57 1 0.0521377 0.337951 0.0556033
62 1 0.104693 0.382158 0.0528105
218 1 0.0495862 0.389303 0.114846
75 1 0.0494423 0.442922 0.0495832
754 1 0.390292 0.227168 0.498161
253 1 0.0039737 0.562957 0.100863
729 1 0.440274 0.877556 0.441518
657 1 0.432413 0.993844 0.44786
307 1 0.000675175 0.893069 0.102177
225 1 0.225371 0.337459 0.105287
66 1 0.219869 0.386419 0.0485058
222 1 0.162211 0.382745 0.110309
1460 1 0.499299 0.997097 0.0554378
65 1 0.282227 0.332216 0.0514275
229 1 0.329522 0.334223 0.11121
70 1 0.335852 0.393206 0.0564322
226 1 0.277253 0.404305 0.0909682
83 1 0.274845 0.457421 0.0405502
68 1 0.388547 0.383918 0.00303689
1730 1 0.499914 0.661941 0.164318
233 1 0.43967 0.329535 0.104331
72 1 0.457996 0.396225 0.0511978
230 1 0.38728 0.401996 0.0979859
87 1 0.38616 0.446956 0.0428162
1910 1 0.497422 0.771841 0.268287
1640 1 0.497993 0.101351 0.169477
580 1 0.00325205 0.61955 0.399212
32 1 0.389078 0.151822 0.00146154
239 1 0.109045 0.442109 0.118696
80 1 0.0961075 0.500383 0.0602068
236 1 0.0494551 0.502485 0.113984
658 1 0.00855513 0.110643 0.451428
79 1 0.157536 0.436619 0.0602644
243 1 0.217644 0.435425 0.115194
84 1 0.206942 0.492931 0.0647818
240 1 0.161869 0.501088 0.124232
97 1 0.159103 0.550931 0.0582088
261 1 0.214293 0.552086 0.109181
35 1 0.44193 0.105012 0.0136365
247 1 0.336535 0.444783 0.108028
88 1 0.335458 0.507672 0.0453746
244 1 0.273175 0.493693 0.100819
265 1 0.332355 0.549121 0.115446
101 1 0.264271 0.558282 0.0551868
2107 1 0.488569 0.0606372 0.440505
2035 1 0.497855 0.611203 0.335628
251 1 0.441503 0.450632 0.11348
90 1 0.447983 0.482905 0.0517523
248 1 0.39014 0.497483 0.0893727
105 1 0.399551 0.558599 0.0508485
748 1 0.0499378 0.234464 0.493617
755 1 0.335632 0.27222 0.496497
93 1 0.0495564 0.553324 0.050807
257 1 0.111583 0.554919 0.117501
98 1 0.102009 0.606152 0.0460097
254 1 0.0533011 0.612078 0.102177
275 1 0.106749 0.667099 0.100671
111 1 0.0484808 0.672653 0.0553429
99 1 0.213012 0.547896 0.0127591
102 1 0.21886 0.60585 0.0540594
258 1 0.166391 0.602343 0.100711
279 1 0.217025 0.659165 0.10324
740 1 0.010512 0.170318 0.492952
115 1 0.162886 0.665929 0.0425906
106 1 0.322224 0.609854 0.0482171
262 1 0.272611 0.610905 0.104644
283 1 0.321475 0.665035 0.103564
119 1 0.273806 0.670797 0.0510034
397 1 0.000113724 0.442304 0.223392
269 1 0.44521 0.549307 0.106593
108 1 0.445311 0.615683 0.044086
266 1 0.380765 0.613812 0.101843
123 1 0.396341 0.663096 0.0543086
667 1 0.00240143 0.22301 0.43975
94 1 0.000135034 0.602129 0.0421914
116 1 0.109627 0.726315 0.057574
272 1 0.0543095 0.718459 0.108112
293 1 0.111675 0.777625 0.121613
129 1 0.0577874 0.771471 0.0555402
685 1 0.00344161 0.442218 0.444186
1855 1 0.49251 0.501099 0.214616
120 1 0.215746 0.723557 0.0463908
276 1 0.165163 0.717878 0.117353
133 1 0.16445 0.777551 0.0431742
78 1 0.1596 0.492656 0.00343782
742 1 0.111862 0.188211 0.493981
124 1 0.338212 0.713254 0.0580534
280 1 0.2742 0.718846 0.107617
287 1 0.442299 0.664674 0.108512
126 1 0.442878 0.720165 0.0571363
284 1 0.389857 0.719722 0.10733
1873 1 0.497502 0.615951 0.224005
17 1 0.450737 0.00152584 0.000423946
40 1 0.0148054 0.28041 0.0531597
290 1 0.0564672 0.836719 0.0994261
134 1 0.111288 0.835041 0.052996
490 1 0.013417 0.0474839 0.399676
781 1 0.392975 0.575836 0.49036
297 1 0.21255 0.770098 0.109411
138 1 0.225605 0.826656 0.0644425
294 1 0.164214 0.828547 0.106315
301 1 0.330475 0.777725 0.117324
137 1 0.286431 0.771688 0.0532419
142 1 0.331555 0.835381 0.0408223
298 1 0.281304 0.846875 0.10552
155 1 0.281887 0.899561 0.0452732
346 1 0.000391325 0.16065 0.282579
305 1 0.442053 0.769921 0.108248
141 1 0.382478 0.775175 0.0551497
144 1 0.429105 0.840045 0.057495
302 1 0.379375 0.828743 0.109434
323 1 0.44786 0.892928 0.110413
159 1 0.38735 0.900694 0.064395
167 1 0.11106 0.996378 0.107701
3 1 0.049217 0.982779 0.0607677
311 1 0.115773 0.883677 0.108388
147 1 0.0559676 0.893561 0.0468375
152 1 0.117542 0.935799 0.0584939
308 1 0.0538535 0.932577 0.114112
7 1 0.154321 0.99728 0.055016
151 1 0.176803 0.88805 0.052397
315 1 0.227932 0.903338 0.109512
156 1 0.216191 0.953219 0.044691
312 1 0.163808 0.939906 0.108577
11 1 0.27342 0.00963634 0.0561968
175 1 0.331634 0.00150809 0.108554
319 1 0.322206 0.90401 0.108043
160 1 0.323883 0.961895 0.0504409
316 1 0.268386 0.96037 0.10195
487 1 0.00478188 0.998453 0.334619
320 1 0.386927 0.957829 0.109399
162 1 0.449064 0.95441 0.0664339
170 1 0.107064 0.0530761 0.157355
326 1 0.0603171 0.0594465 0.22356
347 1 0.11468 0.107482 0.207697
329 1 0.112216 0.00185329 0.21905
183 1 0.0571484 0.116545 0.160151
174 1 0.230041 0.052623 0.174502
330 1 0.172601 0.0531312 0.225342
187 1 0.173856 0.0910897 0.167567
178 1 0.325929 0.0526427 0.167799
334 1 0.281531 0.0436227 0.221898
173 1 0.277471 0.999398 0.164967
2116 1 0.49488 0.1718 0.438688
180 1 0.435617 0.0608395 0.1689
338 1 0.387381 0.0612175 0.220329
195 1 0.380253 0.106449 0.172252
177 1 0.385931 0.012663 0.167356
188 1 0.101314 0.166174 0.160881
344 1 0.0532729 0.163678 0.226182
201 1 0.0410968 0.223388 0.181706
351 1 0.2206 0.109736 0.219884
192 1 0.222166 0.16243 0.166718
348 1 0.166239 0.157231 0.211856
369 1 0.212119 0.219273 0.214594
205 1 0.160635 0.218957 0.164844
355 1 0.333303 0.106796 0.229132
191 1 0.275885 0.107917 0.172243
196 1 0.332667 0.16311 0.171201
352 1 0.272205 0.162506 0.214203
209 1 0.273267 0.215198 0.172027
373 1 0.34293 0.214201 0.217334
727 1 0.338825 0.876131 0.445729
359 1 0.441455 0.10662 0.228585
198 1 0.445193 0.155772 0.166627
356 1 0.384971 0.15779 0.220522
365 1 0.107991 0.217945 0.216553
206 1 0.113486 0.270334 0.153082
362 1 0.0556171 0.275419 0.234534
219 1 0.0571795 0.332319 0.166294
210 1 0.208407 0.276175 0.158734
366 1 0.160859 0.276895 0.220007
387 1 0.221733 0.325997 0.21501
214 1 0.319865 0.273043 0.166485
370 1 0.26864 0.276934 0.216128
227 1 0.276379 0.336082 0.158917
641 1 0.277564 0.891393 0.397254
377 1 0.447638 0.207231 0.216571
213 1 0.394075 0.212645 0.154889
216 1 0.440882 0.271911 0.155354
374 1 0.388411 0.272913 0.219752
231 1 0.384977 0.326932 0.166088
395 1 0.443635 0.32542 0.21642
1838 1 0.485118 0.339655 0.282648
383 1 0.105094 0.331032 0.220764
224 1 0.105528 0.390553 0.166196
380 1 0.0571536 0.389881 0.219954
237 1 0.0549622 0.441709 0.168572
726 1 0.282488 0.947633 0.442253
223 1 0.16649 0.336394 0.159655
228 1 0.224874 0.387561 0.171292
384 1 0.167349 0.384028 0.214467
241 1 0.164748 0.435471 0.163266
391 1 0.344403 0.333837 0.217046
232 1 0.344572 0.384557 0.152686
388 1 0.278392 0.381109 0.217734
245 1 0.272922 0.439302 0.162035
694 1 0.0105034 0.557375 0.452854
234 1 0.43122 0.385188 0.148771
392 1 0.395506 0.381756 0.21642
249 1 0.379349 0.438936 0.175818
401 1 0.114686 0.439768 0.220282
398 1 0.0550517 0.494714 0.223683
242 1 0.106248 0.501357 0.176513
419 1 0.111256 0.552091 0.221879
646 1 0.332833 0.937585 0.383175
405 1 0.216021 0.437822 0.216968
246 1 0.225837 0.504024 0.163433
402 1 0.171282 0.50249 0.219413
259 1 0.163929 0.558148 0.164961
409 1 0.321166 0.436258 0.221514
250 1 0.322876 0.493701 0.166691
406 1 0.269761 0.501252 0.223734
413 1 0.445098 0.443622 0.222983
252 1 0.445409 0.497279 0.160241
410 1 0.385811 0.503663 0.212173
267 1 0.397625 0.563593 0.165391
655 1 0.337084 0.988992 0.434573
493 1 0.151563 0.994693 0.38166
2 1 0.0524289 0.0505047 0.00897176
255 1 0.0584742 0.553261 0.17014
260 1 0.112658 0.615336 0.152027
416 1 0.0511915 0.612391 0.219764
273 1 0.0522083 0.668588 0.160426
437 1 0.102539 0.667324 0.214323
806 1 0.278515 0.888318 0.494274
423 1 0.22904 0.55647 0.210432
264 1 0.217651 0.60713 0.158881
420 1 0.158639 0.611835 0.219091
441 1 0.229917 0.658864 0.216999
263 1 0.273295 0.552575 0.150797
427 1 0.328211 0.551873 0.215829
268 1 0.324832 0.607435 0.163152
424 1 0.280019 0.615594 0.226583
281 1 0.276868 0.662381 0.163872
431 1 0.440152 0.556855 0.230456
428 1 0.380535 0.612133 0.223055
270 1 0.448053 0.610619 0.171458
544 1 0.0131538 0.386232 0.388102
598 1 0.00296238 0.730459 0.395667
724 1 0.165925 0.944506 0.443063
278 1 0.107772 0.716851 0.157963
434 1 0.05635 0.718058 0.21231
291 1 0.0456132 0.773707 0.161782
277 1 0.161522 0.668309 0.172539
282 1 0.217744 0.723111 0.174995
438 1 0.169919 0.722847 0.229858
459 1 0.220864 0.780514 0.220693
445 1 0.335067 0.669253 0.218826
286 1 0.337324 0.714204 0.158178
442 1 0.277138 0.723871 0.221799
463 1 0.340035 0.776752 0.210984
2089 1 0.499979 0.943853 0.333017
765 1 0.431892 0.394878 0.499308
449 1 0.444015 0.661836 0.22104
285 1 0.392607 0.664656 0.165538
288 1 0.442107 0.723114 0.163193
446 1 0.390054 0.723667 0.214919
809 1 0.331741 0.946327 0.498179
455 1 0.112807 0.773392 0.216895
452 1 0.053231 0.829211 0.21759
296 1 0.113173 0.834675 0.164255
295 1 0.16888 0.782611 0.167899
300 1 0.219507 0.842011 0.1546
456 1 0.170107 0.840279 0.211815
477 1 0.22179 0.890326 0.209066
299 1 0.26872 0.783492 0.16689
304 1 0.337024 0.836517 0.169037
460 1 0.27473 0.841826 0.210211
467 1 0.435774 0.780698 0.223438
303 1 0.390808 0.78144 0.159626
464 1 0.386821 0.836931 0.217546
306 1 0.45651 0.828052 0.160533
485 1 0.448264 0.885238 0.21731
1999 1 0.491724 0.386006 0.341531
1550 1 0.495804 0.551176 0.0469824
473 1 0.115604 0.893238 0.212197
309 1 0.0466763 0.885294 0.168507
165 1 0.0500476 0.999417 0.162774
314 1 0.105824 0.948461 0.155453
470 1 0.0603734 0.94409 0.219024
313 1 0.170116 0.893764 0.155921
333 1 0.220486 0.991388 0.223049
169 1 0.166482 0.0011611 0.170975
318 1 0.225664 0.94824 0.16822
474 1 0.162951 0.943592 0.220674
317 1 0.278454 0.896556 0.163059
481 1 0.340675 0.892617 0.223813
337 1 0.335259 0.993162 0.224898
322 1 0.336703 0.942731 0.177162
478 1 0.283096 0.931623 0.224704
321 1 0.390875 0.893383 0.156239
341 1 0.447352 0.00185807 0.213823
482 1 0.394671 0.954825 0.223615
324 1 0.438613 0.949799 0.167357
1711 1 0.487272 0.611444 0.101743
2125 1 0.499758 0.260399 0.451026
332 1 0.108176 0.0516664 0.274379
488 1 0.0583831 0.0621444 0.331824
327 1 0.0523599 0.991582 0.26743
491 1 0.0977662 0.00736826 0.329274
336 1 0.228929 0.0469977 0.273602
492 1 0.163337 0.0512382 0.330482
331 1 0.158855 0.997752 0.27484
495 1 0.224809 0.995033 0.327586
340 1 0.342737 0.0485966 0.279386
496 1 0.28259 0.0543432 0.331171
353 1 0.279091 0.107376 0.271158
499 1 0.338246 0.999915 0.33748
746 1 0.33618 0.166673 0.497114
642 1 0.225476 0.944892 0.380254
342 1 0.450863 0.0605349 0.291103
500 1 0.38994 0.0501683 0.335875
521 1 0.444223 0.105044 0.348174
339 1 0.395241 0.00135595 0.284598
503 1 0.453363 0.993246 0.334149
345 1 0.0525767 0.11152 0.277503
509 1 0.115523 0.106159 0.329023
350 1 0.121359 0.15742 0.276178
506 1 0.0735248 0.156848 0.326551
363 1 0.0488152 0.216812 0.282159
349 1 0.173509 0.108618 0.271197
513 1 0.220363 0.102273 0.33475
354 1 0.21507 0.167213 0.267353
510 1 0.167206 0.164903 0.332706
531 1 0.217608 0.215348 0.329896
517 1 0.344031 0.110845 0.33852
358 1 0.33723 0.166257 0.273066
514 1 0.279977 0.16051 0.324607
489 1 0.0571819 0.993199 0.393047
722 1 0.0614387 0.937634 0.449552
357 1 0.390103 0.111807 0.278334
360 1 0.449257 0.164646 0.284054
518 1 0.393634 0.165471 0.330657
539 1 0.456614 0.21434 0.333135
638 1 0.108519 0.942098 0.385194
527 1 0.107575 0.223442 0.324946
368 1 0.107948 0.276244 0.278289
524 1 0.0524611 0.275984 0.326664
381 1 0.0538435 0.345842 0.274266
545 1 0.11936 0.336651 0.33151
367 1 0.164682 0.218845 0.269242
372 1 0.217453 0.272957 0.271018
528 1 0.162411 0.275232 0.329798
371 1 0.271609 0.22827 0.278374
535 1 0.326016 0.216873 0.326048
376 1 0.337589 0.272628 0.276734
532 1 0.28604 0.266846 0.336809
389 1 0.279349 0.328684 0.266756
553 1 0.32617 0.324423 0.326564
649 1 0.00125034 0.994562 0.455889
375 1 0.389962 0.219492 0.291056
393 1 0.393132 0.335429 0.27455
378 1 0.442278 0.270764 0.280711
536 1 0.392519 0.276781 0.332175
557 1 0.441403 0.339254 0.343261
415 1 0.00368161 0.551776 0.228489
386 1 0.115395 0.386934 0.268345
542 1 0.0612851 0.386403 0.328585
385 1 0.177614 0.329191 0.274528
549 1 0.236677 0.32071 0.340037
390 1 0.225075 0.381166 0.263644
546 1 0.183375 0.390079 0.333056
403 1 0.170276 0.442225 0.27848
552 1 0.232908 0.388926 0.384762
394 1 0.328048 0.380781 0.277248
550 1 0.282888 0.385601 0.327918
407 1 0.266511 0.434465 0.284044
571 1 0.328789 0.448958 0.337959
633 1 0.0565746 0.88681 0.388556
396 1 0.441442 0.39713 0.288072
554 1 0.379045 0.395852 0.324173
575 1 0.447941 0.44703 0.339746
411 1 0.380768 0.44282 0.271216
1586 1 0.494042 0.776388 0.0522389
774 1 0.447575 0.513868 0.491206
399 1 0.0483866 0.45176 0.278237
560 1 0.0595968 0.509017 0.32751
404 1 0.11079 0.501005 0.276251
563 1 0.116902 0.443373 0.32577
567 1 0.220368 0.4483 0.341163
408 1 0.218905 0.498733 0.282289
564 1 0.168072 0.502858 0.332049
412 1 0.327578 0.492983 0.280229
568 1 0.273973 0.49721 0.332733
589 1 0.326392 0.56374 0.339267
414 1 0.452004 0.503879 0.272429
572 1 0.385318 0.490651 0.329664
429 1 0.384254 0.547491 0.278276
593 1 0.442439 0.552726 0.321159
562 1 0.0097748 0.50745 0.391607
417 1 0.0628015 0.554382 0.27643
581 1 0.110839 0.561296 0.335506
422 1 0.0997206 0.617816 0.27944
578 1 0.04944 0.618496 0.336462
599 1 0.109711 0.668504 0.322904
585 1 0.215381 0.559399 0.326404
421 1 0.155602 0.560665 0.282432
426 1 0.221949 0.603023 0.267957
582 1 0.156667 0.617427 0.335212
603 1 0.212258 0.667315 0.336455
425 1 0.276078 0.544474 0.281697
430 1 0.333675 0.617446 0.273802
586 1 0.271294 0.604963 0.322836
607 1 0.332699 0.672473 0.32442
590 1 0.387609 0.605712 0.328318
432 1 0.446765 0.609174 0.283127
447 1 0.391663 0.665041 0.273435
783 1 0.453367 0.614956 0.493248
435 1 0.0451288 0.676572 0.281539
596 1 0.0296445 0.731448 0.320789
440 1 0.105902 0.728115 0.266615
627 1 0.392365 0.774488 0.393563
439 1 0.173722 0.665064 0.280971
444 1 0.222752 0.720631 0.276111
600 1 0.165836 0.729665 0.331991
621 1 0.2239 0.777237 0.320862
443 1 0.275197 0.66036 0.275356
448 1 0.334305 0.719745 0.272343
604 1 0.284121 0.730757 0.325045
461 1 0.278119 0.778963 0.270162
611 1 0.44874 0.660737 0.336063
608 1 0.388335 0.716414 0.333591
450 1 0.448013 0.717604 0.271817
629 1 0.436479 0.769851 0.329172
630 1 0.440224 0.823279 0.389136
2090 1 0.496887 0.886124 0.3828
721 1 0.00438227 0.885909 0.452464
617 1 0.116317 0.783516 0.340614
453 1 0.0514375 0.781896 0.26804
458 1 0.107074 0.834511 0.271539
614 1 0.0606145 0.834612 0.333137
635 1 0.118808 0.883948 0.326568
457 1 0.15867 0.780574 0.273468
462 1 0.22829 0.829822 0.269222
618 1 0.184859 0.832353 0.337355
639 1 0.223684 0.894628 0.326609
475 1 0.159961 0.881363 0.273429
625 1 0.345984 0.780363 0.332141
466 1 0.332025 0.829479 0.261829
622 1 0.272241 0.837769 0.336381
465 1 0.387252 0.771961 0.276036
626 1 0.390415 0.83374 0.333182
468 1 0.431693 0.827878 0.271945
647 1 0.451503 0.889843 0.314617
483 1 0.396505 0.893142 0.270729
719 1 0.392595 0.828033 0.441434
471 1 0.0583243 0.89289 0.278286
476 1 0.107876 0.939229 0.279899
632 1 0.0531033 0.93161 0.334995
480 1 0.217404 0.942403 0.272391
636 1 0.161661 0.945529 0.335013
643 1 0.337379 0.879831 0.320477
479 1 0.279171 0.884166 0.276704
335 1 0.279849 0.989431 0.275261
484 1 0.346884 0.95176 0.279411
640 1 0.281909 0.942053 0.334527
71 1 0.436792 0.332269 0.00834561
486 1 0.452832 0.945896 0.269459
644 1 0.392223 0.938821 0.330573
217 1 0.00192164 0.330807 0.116889
651 1 0.107783 0.993771 0.440526
494 1 0.10302 0.0512879 0.3956
650 1 0.0606158 0.0597514 0.448375
628 1 0.323638 0.829795 0.385527
541 1 0.00275485 0.326753 0.325345
653 1 0.228568 0.987839 0.437909
498 1 0.231936 0.0450779 0.38889
652 1 0.163148 0.0565377 0.451072
716 1 0.220565 0.774496 0.451043
706 1 0.16627 0.721141 0.454586
121 1 0.344131 0.663362 0.00265122
497 1 0.283824 0.992233 0.389533
502 1 0.342615 0.0553112 0.391895
654 1 0.281617 0.0540574 0.434463
515 1 0.275662 0.113654 0.389435
619 1 0.158327 0.779747 0.397236
49 1 0.319957 0.218912 0.000937257
717 1 0.275117 0.833332 0.440448
501 1 0.39456 0.993148 0.391443
656 1 0.388048 0.0593891 0.445582
504 1 0.434519 0.0484873 0.393912
666 1 0.443509 0.124317 0.440964
519 1 0.385672 0.111008 0.393881
637 1 0.172372 0.895592 0.384235
660 1 0.111032 0.111688 0.441792
507 1 0.0500008 0.106375 0.393863
512 1 0.1222 0.166637 0.39347
659 1 0.060009 0.169673 0.440959
511 1 0.167154 0.096009 0.388841
662 1 0.221867 0.10987 0.448406
516 1 0.209858 0.150469 0.386663
661 1 0.173574 0.17074 0.462673
1819 1 0.491563 0.27057 0.218027
612 1 0.450728 0.722205 0.388772
664 1 0.336821 0.110218 0.443023
520 1 0.329052 0.168872 0.393003
663 1 0.283106 0.161789 0.447361
710 1 0.39178 0.715856 0.441457
2017 1 0.49751 0.500655 0.326949
665 1 0.391437 0.171595 0.447492
522 1 0.44972 0.178698 0.389327
675 1 0.441287 0.219656 0.45213
624 1 0.222366 0.834953 0.396348
669 1 0.108512 0.238307 0.440355
525 1 0.0560945 0.227006 0.389651
530 1 0.108721 0.281143 0.387262
668 1 0.0481785 0.279655 0.444167
543 1 0.0544884 0.331435 0.379869
712 1 0.00853354 0.788253 0.452962
529 1 0.164004 0.233543 0.38491
671 1 0.227181 0.219059 0.449485
534 1 0.226109 0.264218 0.389171
670 1 0.178611 0.276856 0.444592
64 1 0.272666 0.396589 0.000143606
707 1 0.22694 0.672663 0.446264
673 1 0.333224 0.226171 0.446585
533 1 0.269714 0.206361 0.382832
538 1 0.337961 0.273569 0.385337
672 1 0.27711 0.274825 0.434763
682 1 0.329817 0.326934 0.448861
718 1 0.33956 0.770675 0.436474
715 1 0.177459 0.836982 0.451829
540 1 0.446766 0.265431 0.383285
537 1 0.388073 0.213998 0.378875
674 1 0.39222 0.278287 0.439
555 1 0.386545 0.3282 0.38958
577 1 1.29886e-05 0.562191 0.333076
678 1 0.107888 0.335169 0.440336
677 1 0.0498466 0.378682 0.45473
561 1 0.0596826 0.450297 0.374989
548 1 0.106731 0.382837 0.385761
720 1 0.452259 0.775322 0.436965
680 1 0.232602 0.330129 0.428413
547 1 0.162142 0.331619 0.394798
679 1 0.184872 0.390581 0.44538
689 1 0.223096 0.456972 0.446622
597 1 0.0454322 0.67693 0.39319
713 1 0.0619397 0.835277 0.444237
379 1 0.000973852 0.332657 0.233524
551 1 0.289678 0.334705 0.389422
556 1 0.346043 0.387209 0.389451
681 1 0.270833 0.387064 0.442684
558 1 0.43841 0.385449 0.393771
684 1 0.447906 0.33124 0.44263
683 1 0.388974 0.369926 0.44285
573 1 0.39205 0.440338 0.394132
725 1 0.22183 0.890405 0.440728
1891 1 0.496028 0.714974 0.214533
723 1 0.121575 0.890076 0.440732
566 1 0.115232 0.495667 0.386154
687 1 0.110313 0.428073 0.439903
686 1 0.0620163 0.490649 0.441907
605 1 0.272524 0.680443 0.377125
634 1 0.00121903 0.945501 0.400001
565 1 0.163661 0.446449 0.390907
570 1 0.214068 0.506092 0.390981
688 1 0.159711 0.500418 0.449599
610 1 0.341282 0.717626 0.384985
623 1 0.285553 0.770301 0.377229
691 1 0.342969 0.424057 0.450164
569 1 0.280142 0.44424 0.397347
574 1 0.330378 0.496578 0.393119
690 1 0.278308 0.505602 0.444411
1568 1 0.493808 0.672312 0.0585002
702 1 0.461458 0.559174 0.436727
692 1 0.387094 0.49876 0.439977
576 1 0.449091 0.505861 0.392354
693 1 0.441893 0.451668 0.44381
708 1 0.277954 0.729462 0.44033
584 1 0.103659 0.631289 0.393478
696 1 0.111487 0.566445 0.445248
695 1 0.0615515 0.6198 0.449232
579 1 0.059163 0.559394 0.394637
136 1 0.275468 0.834365 0.000121735
601 1 0.162912 0.676675 0.39739
697 1 0.159763 0.625419 0.443189
588 1 0.216102 0.616338 0.389121
583 1 0.162734 0.558097 0.389672
698 1 0.216042 0.56598 0.443386
699 1 0.264336 0.614346 0.451494
592 1 0.31556 0.61996 0.38939
709 1 0.335092 0.672876 0.437625
587 1 0.280141 0.552738 0.389155
700 1 0.346011 0.557414 0.435419
615 1 0.052088 0.779633 0.389242
620 1 0.121598 0.840218 0.38716
609 1 0.39085 0.664634 0.381758
711 1 0.449331 0.666667 0.43267
701 1 0.387766 0.623265 0.437872
594 1 0.440095 0.61146 0.384283
591 1 0.388884 0.553196 0.380472
744 1 0.229165 0.15731 0.498429
606 1 0.217836 0.730693 0.386526
782 1 0.333947 0.617108 0.495206
705 1 0.107503 0.682153 0.444764
714 1 0.102134 0.77173 0.449103
602 1 0.10516 0.720885 0.380891
704 1 0.0466283 0.728446 0.460649
1927 1 0.49436 0.937814 0.216589
760 1 0.126524 0.383489 0.493345
418 1 0.0033367 0.612779 0.27365
1747 1 0.490849 0.828338 0.0950303
734 1 0.283525 0.998621 0.497216
1946 1 0.495595 0.999045 0.391518
472 1 0.00311588 0.938147 0.282144
752 1 0.277464 0.217015 0.497947
766 1 0.0639932 0.439449 0.497177
2053 1 0.497944 0.717374 0.328687
454 1 0.00171418 0.842838 0.276802
2179 1 0.488111 0.935337 0.433171
292 1 0.000331052 0.835926 0.161889
53 1 0.449242 0.211954 0.0130206
761 1 0.274641 0.326084 0.49497
166 1 0.00227061 0.0627455 0.173755
343 1 0.00554183 0.109785 0.2199
1784 1 0.498522 0.00191045 0.271324
1748 1 0.494491 0.772309 0.166903
756 1 0.443606 0.278121 0.496033
37 1 0.0023552 0.222465 0.00350419
89 1 0.435192 0.440091 4.68531e-05
161 1 0.465855 0.890814 0.00223233
777 1 0.158521 0.559835 0.495652
768 1 0.169812 0.44269 0.499287
796 1 0.119501 0.839709 0.495914
9 1 0.216842 0.0159001 0.00423697
2251 1 0.49446 0.772596 0.493222
732 1 0.168214 0.996635 0.499018
95 1 0.103266 0.550543 0.000678187
790 1 0.391941 0.663894 0.494077
779 1 0.287083 0.56496 0.493276
792 1 0.438263 0.716875 0.497998
27 1 0.221988 0.111803 0.000374909
800 1 0.337574 0.824997 0.495305
736 1 0.38875 0.000525719 0.498774
801 1 0.454454 0.831086 0.499832
743 1 0.285748 0.103377 0.49547
807 1 0.220618 0.941951 0.493722
788 1 0.278587 0.676666 0.49648
135 1 0.219164 0.78509 0.00355482
773 1 0.33991 0.515391 0.497567
146 1 0.0605336 0.950358 0.000796654
735 1 0.228897 0.0493208 0.490432
113 1 0.0937593 0.663081 0.00405954
751 1 0.120787 0.293658 0.494913
5 1 0.10658 0.00361523 0.00316705
77 1 0.105733 0.444893 5.70474e-05
797 1 0.275829 0.776744 0.496563
795 1 0.163357 0.783142 0.497404
737 1 0.335526 0.0540672 0.495605
2242 1 0.498938 0.672296 0.492901
812 1 0.0651208 0.0492582 0.56202
818 1 0.114094 0.0588417 0.615494
776 1 0.00585317 0.621615 0.50586
2881 1 0.495071 0.832715 0.885508
815 1 0.121279 0.00388729 0.55837
2467 1 0.48896 0.277309 0.662623
973 1 0.00476629 0.0137934 0.657465
816 1 0.175644 0.058737 0.552384
822 1 0.22989 0.0637882 0.614287
819 1 0.233084 0.00706801 0.548752
817 1 0.171512 0.00625331 0.608034
820 1 0.282779 0.0533792 0.554957
826 1 0.326058 0.0518013 0.610328
841 1 0.331551 0.109545 0.5572
823 1 0.337877 0.999046 0.554893
821 1 0.281172 0.995546 0.611188
824 1 0.387114 0.04404 0.557629
828 1 0.446463 0.0574386 0.601277
843 1 0.390611 0.103756 0.590313
825 1 0.384722 0.995103 0.607609
827 1 0.438743 0.993314 0.556691
20 1 0.047333 0.168507 0.991701
1171 1 0.0095656 0.21784 0.773287
60 1 0.159956 0.386682 0.998345
831 1 0.0658268 0.120262 0.610088
833 1 0.113958 0.110361 0.561823
830 1 0.0604853 0.172286 0.553543
836 1 0.127875 0.170649 0.614411
849 1 0.0596183 0.214694 0.609625
1318 1 0.00259386 0.168457 0.931603
883 1 0.00512245 0.438761 0.55729
1333 1 0.0103184 0.216779 0.8787
2539 1 0.497721 0.721335 0.67681
837 1 0.235562 0.110293 0.547813
835 1 0.179106 0.106768 0.607934
834 1 0.176301 0.170063 0.559779
840 1 0.224855 0.169045 0.609656
853 1 0.168027 0.226191 0.614168
764 1 0.321909 0.378027 0.502146
839 1 0.283844 0.112692 0.606891
838 1 0.282376 0.167728 0.555923
844 1 0.33145 0.166117 0.617457
845 1 0.449285 0.118708 0.550341
842 1 0.393796 0.171661 0.550284
846 1 0.438071 0.166447 0.602404
863 1 0.448977 0.230327 0.555038
1455 1 0.387898 0.882692 0.941925
1457 1 0.448838 0.888724 0.888883
42 1 0.175076 0.285494 0.994105
2306 1 0.497982 0.2165 0.612103
1084 1 0.00189643 0.727408 0.720024
851 1 0.120651 0.227074 0.553964
848 1 0.0604671 0.276561 0.563856
854 1 0.116097 0.284524 0.61076
867 1 0.0623827 0.334624 0.611194
1458 1 0.447561 0.941805 0.939244
855 1 0.230611 0.224732 0.555629
869 1 0.113274 0.336482 0.557398
852 1 0.172482 0.273901 0.560012
858 1 0.230642 0.285849 0.605939
873 1 0.238435 0.331482 0.560506
82 1 0.28339 0.51361 0.996597
859 1 0.336127 0.213313 0.56821
857 1 0.279039 0.217883 0.609765
856 1 0.287254 0.277229 0.548267
862 1 0.328653 0.275127 0.613302
877 1 0.328546 0.337973 0.565288
875 1 0.281395 0.343977 0.616301
811 1 0.012096 0.00245046 0.563978
861 1 0.391971 0.222769 0.60651
860 1 0.381307 0.270608 0.555456
864 1 0.438147 0.286386 0.609798
41 1 0.116218 0.237945 0.989771
787 1 0.112274 0.730209 0.515438
1454 1 0.381838 0.949116 0.892015
2774 1 0.49655 0.102013 0.955105
866 1 0.0567376 0.380433 0.558633
872 1 0.109913 0.39261 0.613636
887 1 0.109817 0.442838 0.558733
771 1 0.227447 0.502355 0.511588
741 1 0.173405 0.112023 0.506623
871 1 0.172509 0.338072 0.601088
870 1 0.167007 0.392331 0.551113
876 1 0.233913 0.396526 0.61993
891 1 0.218054 0.446125 0.561677
889 1 0.165465 0.445341 0.622049
874 1 0.279911 0.400179 0.569122
880 1 0.337 0.401527 0.617782
103 1 0.338628 0.563511 0.994239
879 1 0.381341 0.330227 0.61178
881 1 0.442116 0.349663 0.556922
878 1 0.376756 0.397433 0.559879
882 1 0.453126 0.397752 0.611743
885 1 0.0595008 0.453436 0.612776
884 1 0.060069 0.499007 0.564944
890 1 0.112985 0.507403 0.620625
905 1 0.117155 0.558425 0.560612
903 1 0.0576403 0.55007 0.616415
96 1 0.163452 0.605723 0.989979
888 1 0.164702 0.492925 0.558253
894 1 0.226732 0.503367 0.606672
909 1 0.215391 0.556984 0.559033
2630 1 0.496306 0.217202 0.842136
895 1 0.350615 0.464769 0.550963
893 1 0.293619 0.454834 0.604515
892 1 0.28178 0.512871 0.559586
898 1 0.348954 0.498811 0.608486
913 1 0.330335 0.568499 0.55609
911 1 0.281575 0.563849 0.621729
150 1 0.160961 0.940918 0.994027
1307 1 0.273922 0.00576969 0.943066
899 1 0.45011 0.442664 0.547922
897 1 0.397072 0.447061 0.616633
896 1 0.396538 0.519756 0.54413
900 1 0.449821 0.497383 0.603543
917 1 0.444037 0.566728 0.549334
2827 1 0.499145 0.503088 0.890854
780 1 0.205988 0.609226 0.505034
902 1 0.0587804 0.612922 0.566766
908 1 0.109741 0.61049 0.619399
923 1 0.111715 0.670653 0.565504
921 1 0.0461555 0.667469 0.61534
74 1 0.0499902 0.49024 0.995649
1309 1 0.33315 0.00672343 0.896613
907 1 0.165033 0.566771 0.619871
906 1 0.168309 0.624407 0.567988
912 1 0.231155 0.612954 0.616215
925 1 0.166149 0.675932 0.622553
46 1 0.280947 0.272384 0.986051
2737 1 0.486341 0.939739 0.771383
910 1 0.275052 0.618699 0.556268
916 1 0.344124 0.607905 0.61815
929 1 0.282032 0.662036 0.614918
798 1 0.233473 0.832452 0.501621
757 1 0.0553095 0.321439 0.502012
915 1 0.393858 0.557311 0.609899
914 1 0.391501 0.620859 0.55394
918 1 0.447336 0.615229 0.605033
935 1 0.445732 0.665381 0.553947
933 1 0.397014 0.675148 0.61536
784 1 0.0627215 0.670317 0.506732
920 1 0.0569483 0.724404 0.558565
926 1 0.114392 0.729435 0.613402
941 1 0.122575 0.785713 0.562968
153 1 0.232429 0.892827 0.9971
939 1 0.0575979 0.780162 0.614747
775 1 0.0608584 0.558736 0.517326
927 1 0.226725 0.674171 0.562401
924 1 0.167104 0.725698 0.558154
930 1 0.221811 0.722424 0.611393
2576 1 0.494565 0.881567 0.719703
86 1 0.39061 0.502563 0.995471
931 1 0.339918 0.668263 0.562339
928 1 0.275177 0.729759 0.558015
934 1 0.326174 0.726095 0.613202
949 1 0.337013 0.781458 0.552622
2594 1 0.49936 0.993564 0.825022
2882 1 0.492624 0.778592 0.93644
932 1 0.388015 0.721862 0.552472
936 1 0.444606 0.71829 0.614712
953 1 0.439097 0.773444 0.56854
951 1 0.386762 0.78302 0.614942
763 1 0.380854 0.328717 0.503488
938 1 0.062652 0.833595 0.564168
944 1 0.116586 0.83257 0.619458
959 1 0.114014 0.893412 0.554229
957 1 0.0644701 0.890357 0.603047
829 1 0.00727925 0.112652 0.551887
110 1 0.0649887 0.729722 0.989397
945 1 0.21469 0.778878 0.548126
943 1 0.170034 0.778599 0.622397
942 1 0.179592 0.83623 0.55046
948 1 0.224633 0.835715 0.60696
963 1 0.226162 0.891761 0.560604
961 1 0.176276 0.88969 0.606215
814 1 0.00953818 0.0649897 0.604034
793 1 0.0598097 0.778272 0.515131
1336 1 0.00316897 0.276712 0.931477
947 1 0.27582 0.78939 0.621155
946 1 0.288248 0.827744 0.559744
952 1 0.337953 0.838118 0.616565
85 1 0.331211 0.454373 0.994088
868 1 0.00976911 0.389318 0.615473
950 1 0.386503 0.829092 0.559964