ITEM: TIMESTEP
22950
ITEM: NUMBER OF ATOMS
864
ITEM: BOX BOUNDS pp pp pp
0.0000000000000000e+00 3.1559999999999999e+01
0.0000000000000000e+00 3.1559999999999999e+01
0.0000000000000000e+00 3.1559999999999999e+01
ITEM: ATOMS id type xs ys zs
8 1 0.161758 0.091782 0.0955243
4 1 0.000253841 0.0883264 0.0813883
451 1 0.744686 0.483895 0.0781761
78 1 0.25502 0.082693 0.173089
12 1 0.344617 0.0847304 0.113795
105 1 0.326403 0.170718 0.169364
455 1 0.939422 0.491461 0.067713
35 1 0.419389 0.162811 0.0941873
16 1 0.497829 0.0767542 0.0824247
249 1 0.337207 0.173376 0.509737
82 1 0.435009 0.0930438 0.182729
39 1 0.581371 0.159127 0.0838225
86 1 0.575761 0.0644023 0.184624
26 1 0.0873946 0.244565 0.00205818
20 1 0.664753 0.0876878 0.0970627
43 1 0.745111 0.169006 0.0856534
46 1 0.90854 0.251436 0.00480776
113 1 0.647914 0.173315 0.162341
595 1 0.734074 0.502354 0.413708
24 1 0.818452 0.0943558 0.0759949
94 1 0.910948 0.077457 0.156262
519 1 0.576653 0.503692 0.24296
95 1 0.91054 0.00961497 0.243577
167 1 0.893168 0.000973447 0.413583
282 1 0.758522 0.425321 0.492628
27 1 0.079581 0.167594 0.0881945
28 1 0.999611 0.255046 0.0864606
33 1 0.335049 0.161735 0.00825905
53 1 0.178149 0.341112 0.00909288
31 1 0.265244 0.157031 0.0910815
101 1 0.175727 0.163436 0.175204
32 1 0.172057 0.251454 0.0709036
55 1 0.253777 0.334201 0.0865914
36 1 0.350518 0.248677 0.0998009
40 1 0.502677 0.240404 0.0811542
106 1 0.43144 0.232874 0.176187
63 1 0.584448 0.32504 0.0873923
44 1 0.665388 0.240492 0.0706858
137 1 0.654689 0.333349 0.164946
110 1 0.567103 0.239682 0.166379
7 1 0.251006 0.0161051 0.0984585
165 1 0.827728 -0.000232381 0.331377
114 1 0.746248 0.259845 0.167899
48 1 0.83121 0.248292 0.0834952
54 1 0.261085 0.429885 -0.000716765
67 1 0.755309 0.330501 0.0827912
47 1 0.911878 0.167485 0.0857615
71 1 0.916979 0.320253 0.0887509
117 1 0.831537 0.177252 0.159755
118 1 0.916809 0.248364 0.161281
593 1 0.658779 0.502175 0.330979
51 1 0.0942025 0.322562 0.0917292
56 1 0.164932 0.418034 0.0783076
52 1 0.00404476 0.400185 0.0855426
589 1 0.497087 0.499702 0.340445
145 1 0.00262889 0.0135845 0.32481
215 1 0.928402 0.329643 0.398623
126 1 0.246768 0.420844 0.167392
59 1 0.434339 0.328496 0.0889414
129 1 0.33969 0.344436 0.166357
60 1 0.342629 0.419444 0.0811325
130 1 0.425534 0.415044 0.175516
214 1 0.909989 0.407071 0.325947
133 1 0.497857 0.327939 0.170782
64 1 0.503146 0.419397 0.0768183
134 1 0.572852 0.402635 0.164752
68 1 0.675776 0.398392 0.0737471
72 1 0.841973 0.419838 0.0768025
138 1 0.754728 0.41041 0.159627
216 1 0.830965 0.414346 0.403472
266 1 0.100098 0.422627 0.505487
74 1 0.0946173 0.08179 0.167924
76 1 0.987501 0.0898649 0.247068
146 1 0.0824181 0.0869269 0.308259
169 1 -0.00251938 0.169082 0.324301
80 1 0.169812 0.0762353 0.247116
84 1 0.326186 0.0790337 0.256554
521 1 0.665241 0.49957 0.159926
579 1 0.0915639 0.502191 0.407729
211 1 0.737391 0.330144 0.426564
88 1 0.492556 0.0938167 0.275715
109 1 0.520755 0.149742 0.177295
107 1 0.40508 0.155712 0.252391
177 1 0.323591 0.158929 0.333186
92 1 0.657128 0.0809733 0.243692
111 1 0.583255 0.158553 0.254888
185 1 0.664522 0.168039 0.337459
158 1 0.588884 0.0875068 0.332382
90 1 0.736874 0.0902653 0.168788
527 1 0.903612 0.485366 0.242779
162 1 0.748731 0.0839298 0.340594
96 1 0.834047 0.086975 0.235715
119 1 0.913664 0.171009 0.247376
147 1 0.0832089 0.0170444 0.416422
2 1 0.081044 0.0896234 -0.00160029
98 1 0.114072 0.250412 0.163548
97 1 1.00048 0.172691 0.160611
99 1 0.0822536 0.174935 0.2346
100 1 0.00208093 0.245895 0.242823
102 1 0.24403 0.252988 0.152806
103 1 0.247366 0.166872 0.259635
104 1 0.189151 0.266014 0.247373
174 1 0.247082 0.242318 0.329711
108 1 0.34464 0.256076 0.243843
178 1 0.415044 0.257539 0.328848
201 1 0.329698 0.325072 0.3383
131 1 0.413761 0.341972 0.258093
205 1 0.503796 0.331352 0.33384
112 1 0.500636 0.244155 0.256497
135 1 0.575037 0.331076 0.258561
182 1 0.573816 0.243291 0.339966
116 1 0.654875 0.247508 0.245744
115 1 0.741895 0.180983 0.235512
186 1 0.746866 0.23704 0.339743
139 1 0.743568 0.321244 0.25615
141 1 0.831145 0.337796 0.15937
213 1 0.808245 0.322809 0.337823
120 1 0.832275 0.246007 0.24834
143 1 0.912129 0.336239 0.241068
189 1 0.825696 0.147802 0.320282
212 1 0.669121 0.418173 0.421145
122 1 0.0745046 0.415564 0.167497
123 1 0.0840741 0.317669 0.240987
193 1 -0.00627688 0.33667 0.322969
121 1 1.00872 0.329279 0.158747
124 1 0.00519724 0.417788 0.257951
194 1 0.0852154 0.409362 0.335143
125 1 0.162729 0.344726 0.174135
127 1 0.259844 0.343842 0.239147
128 1 0.158035 0.416456 0.254487
198 1 0.251162 0.407953 0.335378
89 1 0.65747 0.000939571 0.166665
132 1 0.336178 0.422421 0.263971
202 1 0.411779 0.4064 0.344152
208 1 0.506057 0.425214 0.415533
209 1 0.656454 0.341544 0.335376
136 1 0.496485 0.411096 0.263648
206 1 0.577874 0.417221 0.337552
140 1 0.669937 0.411505 0.246453
11 1 0.416517 0.00560892 0.0876594
204 1 0.337446 0.405939 0.416116
203 1 0.422976 0.331189 0.428727
210 1 0.734862 0.413159 0.335433
144 1 0.818884 0.408162 0.257445
200 1 0.175282 0.416936 0.412134
142 1 0.919358 0.417874 0.157443
197 1 0.174232 0.339339 0.33581
196 1 0.999656 0.424813 0.411221
152 1 0.192443 0.0895266 0.421706
171 1 0.0853869 0.157171 0.404945
151 1 0.249245 -0.0168182 0.424103
286 1 0.909192 0.408085 0.483115
150 1 0.241804 0.0780895 0.331159
156 1 0.313886 0.0919586 0.425007
509 1 0.158615 0.498628 0.172487
154 1 0.405303 0.0773854 0.340435
160 1 0.495792 0.0710966 0.423838
270 1 0.261611 0.416415 0.495111
164 1 0.67017 0.0901751 0.423528
149 1 0.162525 0.00466261 0.333813
585 1 0.341693 0.511959 0.325219
191 1 0.917479 0.154742 0.410869
148 1 1.00968 0.086538 0.419061
168 1 0.822858 0.0745197 0.431585
166 1 0.912714 0.0784951 0.334452
649 1 1.00228 0.506845 0.479487
173 1 0.161045 0.176552 0.338278
172 1 0.0142146 0.246054 0.403301
170 1 0.08946 0.263826 0.324721
195 1 0.092661 0.330104 0.413963
505 1 0.991449 0.490467 0.161985
587 1 0.409212 0.502368 0.405573
190 1 0.913954 0.247051 0.327045
188 1 0.662037 0.252095 0.409888
199 1 0.259895 0.328774 0.416186
176 1 0.175614 0.251479 0.420675
175 1 0.250479 0.181312 0.422932
184 1 0.493775 0.244114 0.427755
181 1 0.484232 0.174762 0.343698
180 1 0.349349 0.24063 0.421106
179 1 0.409326 0.156905 0.432235
187 1 0.752686 0.160164 0.417766
207 1 0.575776 0.343877 0.424643
183 1 0.584622 0.161048 0.417096
192 1 0.838599 0.23278 0.414725
1 1 -0.00249799 0.00925525 -0.00250472
523 1 0.747039 0.494289 0.239392
273 1 0.345505 0.336309 0.50482
25 1 0.995267 0.172711 0.00591431
511 1 0.249744 0.493637 0.26242
254 1 0.590272 0.239745 0.499022
161 1 0.668943 0.00048429 0.320308
285 1 0.835423 0.326374 0.495948
3 1 0.0945425 0.00546103 0.0744923
435 1 0.072144 0.499315 0.085107
507 1 0.0898089 0.499189 0.242533
73 1 0.00291736 0.00677395 0.165331
157 1 0.488596 -0.0103823 0.329767
30 1 0.258332 0.240672 0.010335
41 1 0.686217 0.147699 0.00312822
274 1 0.414135 0.434552 0.491673
49 1 1.00384 0.331416 -0.00507144
17 1 0.668935 0.00911566 -0.00167292
669 1 0.8424 0.485028 0.499957
217 1 -0.00272617 -0.00570593 0.493539
265 1 0.0106092 0.332484 0.484385
262 1 0.93239 0.250952 0.481426
14 1 0.574333 0.0765253 0.00440471
257 1 0.670486 0.16852 0.488697
5 1 0.175276 0.0106972 -0.00681028
278 1 0.574523 0.424455 0.501032
261 1 0.815895 0.158862 0.505314
6 1 0.270003 0.0719811 0.0127086
61 1 0.514609 0.329339 0.00716022
657 1 0.328765 0.50576 0.48921
62 1 0.593079 0.415096 0.0037293
290 1 0.0714716 0.0877266 0.677154
739 1 0.754399 0.51111 0.74464
245 1 0.165072 0.181225 0.51083
238 1 0.910133 0.0924064 0.501919
224 1 0.175966 0.0722987 0.587347
317 1 0.189503 0.182681 0.657667
228 1 0.328848 0.0650287 0.592489
251 1 0.428655 0.1719 0.59519
232 1 0.503309 0.084665 0.591303
298 1 0.40649 0.0727455 0.662807
291 1 0.0838352 -0.00506803 0.738683
236 1 0.666625 0.0611779 0.58395
255 1 0.587058 0.163245 0.592045
307 1 0.76248 -0.00118496 0.75911
363 1 0.0871412 -0.0107904 0.929052
306 1 0.752217 0.0558801 0.667381
29 1 0.17856 0.149297 0.999137
240 1 0.832756 0.079624 0.592247
220 1 0.0105327 0.0761749 0.577697
263 1 0.914842 0.156986 0.587566
310 1 0.93472 0.0781205 0.673308
243 1 0.093979 0.172812 0.589073
314 1 0.0751662 0.251101 0.675627
244 1 0.00523444 0.238763 0.584509
341 1 0.168069 0.344339 0.662838
248 1 0.162148 0.264487 0.591947
247 1 0.271307 0.167912 0.589494
271 1 0.254474 0.341368 0.586214
318 1 0.254906 0.261988 0.669851
252 1 0.341352 0.261001 0.587981
256 1 0.510036 0.252326 0.59142
322 1 0.424265 0.252889 0.667701
379 1 0.757619 0.0059397 0.917112
289 1 0.0118608 -0.00517294 0.656643
329 1 0.673045 0.14924 0.661872
279 1 0.593339 0.336037 0.580011
326 1 0.591915 0.256669 0.662747
260 1 0.661359 0.246891 0.577562
813 1 0.831664 0.499597 0.828476
259 1 0.74499 0.14342 0.578723
264 1 0.851165 0.247236 0.560817
330 1 0.748413 0.23711 0.661933
230 1 0.591785 0.0967664 0.504547
313 1 0.997547 0.169041 0.669399
333 1 0.857992 0.168137 0.671731
334 1 0.914244 0.26513 0.662615
18 1 0.758858 0.0780816 0.988502
267 1 0.0657361 0.337857 0.58158
338 1 0.0759616 0.3993 0.662537
218 1 0.102412 0.0923157 0.498158
431 1 0.929628 0.328358 0.919324
272 1 0.176047 0.422304 0.576341
276 1 0.333336 0.431236 0.594907
342 1 0.260163 0.421048 0.678865
377 1 0.670206 0.00420126 0.837495
275 1 0.412192 0.34401 0.594537
346 1 0.437189 0.428246 0.672711
222 1 0.250579 0.0762764 0.520015
280 1 0.510546 0.418543 0.595292
284 1 0.677631 0.422951 0.564868
349 1 0.50858 0.335493 0.673651
283 1 0.769915 0.321694 0.575427
353 1 0.677184 0.331254 0.660155
354 1 0.745412 0.415804 0.64886
246 1 0.261771 0.254793 0.520746
253 1 0.490233 0.164153 0.50823
287 1 0.926288 0.335353 0.573464
268 1 1.00144 0.417842 0.573726
258 1 0.748438 0.257235 0.505426
288 1 0.846866 0.411591 0.578454
34 1 0.415709 0.242182 1.00749
671 1 0.906581 0.499863 0.582629
362 1 0.0840927 0.091625 0.843963
296 1 0.163898 0.0852881 0.752608
292 1 0.00297159 0.106136 0.762748
315 1 0.0802884 0.174679 0.74953
294 1 0.243237 0.0830813 0.661068
426 1 0.751458 0.423307 0.846045
319 1 0.239461 0.163242 0.742137
366 1 0.26703 0.0848397 0.831784
389 1 0.161982 0.161554 0.829172
393 1 0.328114 0.183688 0.826831
427 1 0.759001 0.32807 0.915153
321 1 0.336854 0.176269 0.674492
300 1 0.330532 0.0800048 0.738838
304 1 0.505049 0.0908646 0.73264
432 1 0.840735 0.41852 0.903589
325 1 0.51667 0.183937 0.684566
302 1 0.576898 0.0770361 0.660424
374 1 0.594158 0.0872227 0.831915
308 1 0.680597 0.0711389 0.750992
327 1 0.60102 0.165613 0.748708
723 1 0.0985922 0.499067 0.755137
239 1 0.931736 0.00969388 0.576237
312 1 0.84687 0.0769896 0.737034
335 1 0.924235 0.17442 0.758266
382 1 0.907156 0.0904129 0.832631
320 1 0.167697 0.246353 0.740243
386 1 0.0988826 0.246062 0.829131
316 1 0.994761 0.254994 0.754951
324 1 0.328252 0.258939 0.750487
390 1 0.232475 0.250271 0.828243
323 1 0.413752 0.153883 0.747839
394 1 0.418971 0.261198 0.831107
328 1 0.498908 0.26003 0.76173
332 1 0.659712 0.261539 0.755688
398 1 0.586194 0.23981 0.833405
425 1 0.676635 0.337138 0.84019
357 1 0.836597 0.339006 0.665744
405 1 0.839851 0.182443 0.823189
401 1 0.676117 0.159322 0.835686
331 1 0.760307 0.164969 0.738959
336 1 0.827309 0.253262 0.732942
409 1 0.0173096 0.333011 0.838548
406 1 0.917808 0.256763 0.842914
359 1 0.924182 0.353915 0.751395
339 1 0.0880844 0.332779 0.762744
410 1 0.0834824 0.422266 0.845507
344 1 0.17453 0.414403 0.747682
343 1 0.264534 0.346719 0.756152
413 1 0.16286 0.335659 0.844242
361 1 1.01081 0.00344397 0.823261
345 1 0.338991 0.349997 0.674422
347 1 0.420549 0.330809 0.75446
348 1 0.346751 0.425668 0.77401
352 1 0.520183 0.423037 0.744054
65 1 0.650408 0.332098 0.998639
351 1 0.588939 0.33819 0.744787
350 1 0.597214 0.418329 0.660804
725 1 0.171994 0.494975 0.675366
421 1 0.504205 0.330661 0.838345
226 1 0.415829 0.0801271 0.511643
407 1 0.911701 0.171494 0.925854
429 1 0.835453 0.337521 0.824534
356 1 0.680152 0.408545 0.739831
355 1 0.74733 0.328431 0.73394
360 1 0.827268 0.422466 0.745962
430 1 0.915674 0.423589 0.831137
337 1 0.00121436 0.329255 0.663322
358 1 0.9156 0.415613 0.656976
340 1 0.0103399 0.423209 0.753978
424 1 0.51754 0.416804 0.92152
364 1 -0.00753892 0.0801348 0.925517
428 1 0.673065 0.426528 0.92202
368 1 0.172439 0.0777349 0.904337
391 1 0.259605 0.159239 0.919041
408 1 0.846244 0.26317 0.912421
372 1 0.341457 0.0973383 0.9255
388 1 0.00302869 0.248569 0.922966
422 1 0.5937 0.407907 0.829528
397 1 0.506666 0.162636 0.820065
370 1 0.413936 0.0826081 0.82636
376 1 0.503693 0.0905593 0.908334
419 1 0.42271 0.347684 0.922869
721 1 1.00792 0.505755 0.665837
418 1 0.44675 0.412861 0.822057
380 1 0.675651 0.0759353 0.91663
69 1 0.838357 0.338829 1.00036
303 1 0.586387 0.0109842 0.752999
378 1 0.753568 0.0781543 0.830286
417 1 0.337418 0.340964 0.843425
384 1 0.828292 0.101114 0.920605
385 1 0.0130694 0.182662 0.832547
414 1 0.25431 0.42032 0.840793
387 1 0.0914113 0.170135 0.921052
411 1 0.0974706 0.31998 0.928633
392 1 0.188343 0.232116 0.920164
415 1 0.246796 0.33801 0.918634
396 1 0.325063 0.251113 0.926137
412 1 -0.00206566 0.417332 0.908012
659 1 0.427229 0.500273 0.591647
420 1 0.338524 0.423686 0.923703
395 1 0.424601 0.161637 0.895141
400 1 0.501733 0.255242 0.9166
241 1 -0.00255316 0.167507 0.494521
404 1 0.6811 0.254147 0.92406
423 1 0.589589 0.321149 0.902333
399 1 0.596567 0.170282 0.920808
416 1 0.162002 0.412231 0.929211
403 1 0.751511 0.179255 0.919247
402 1 0.748579 0.251238 0.83694
375 1 0.598748 -0.00552881 0.921694
449 1 0.67136 0.509547 0.994871
42 1 0.76238 0.251869 1.00308
22 1 0.895202 0.0795062 1.01141
295 1 0.243366 0.00363979 0.750174
10 1 0.426553 0.0764263 0.998918
311 1 0.932396 -0.00662111 0.740479
727 1 0.246552 0.503156 0.768537
803 1 0.429765 0.491831 0.896929
58 1 0.417936 0.42021 1.0064
381 1 0.83859 0.0107019 0.823577
373 1 0.495466 -0.0114378 0.830553
57 1 0.343792 0.344101 0.998757
383 1 0.90455 0.0158933 0.919658
242 1 0.0828534 0.24537 0.490822
45 1 0.838559 0.173149 1.01017
234 1 0.738699 0.0606023 0.500725
66 1 0.766851 0.417864 0.987746
269 1 0.168949 0.331485 0.50194
38 1 0.582635 0.248206 1.00889
50 1 0.0900836 0.414921 1.00728
37 1 0.502721 0.169298 0.984947
70 1 0.914795 0.418462 0.980401
250 1 0.422163 0.252323 0.514517
277 1 0.491799 0.338128 0.512226
281 1 0.659436 0.342362 0.498836
453 1 0.828403 0.500461 1.00125
459 1 0.074747 0.659279 0.0929851
647 1 0.927072 0.843733 0.419315
440 1 0.155328 0.579901 0.108432
444 1 0.334702 0.577324 0.0735193
463 1 0.257529 0.665954 0.0794894
23 1 0.931314 1.00846 0.0855357
583 1 0.248938 0.491596 0.410672
697 1 0.999834 0.813198 0.494457
448 1 0.501424 0.587502 0.0692018
467 1 0.415081 0.671948 0.0925968
514 1 0.423412 0.564971 0.173947
163 1 0.721521 0.985744 0.419647
153 1 0.322891 0.987586 0.33837
454 1 0.914375 0.576581 0.0041903
599 1 0.905278 0.511169 0.415306
541 1 0.503097 0.652694 0.161781
85 1 0.491905 1.00071 0.181446
452 1 0.670488 0.591301 0.0766669
522 1 0.740392 0.584754 0.154269
628 1 0.992044 0.933052 0.394251
497 1 0.655033 0.830353 -0.000478235
456 1 0.810477 0.576335 0.0719031
436 1 1.00058 0.586891 0.075378
549 1 0.832302 0.660867 0.154725
464 1 0.184122 0.749473 0.0799624
530 1 0.0767345 0.744626 0.158485
701 1 0.169571 0.828118 0.505352
468 1 0.341218 0.746621 0.0935497
661 1 0.505873 0.505963 0.494558
487 1 0.262625 0.827295 0.0792868
561 1 0.335945 0.829663 0.167222
155 1 0.41857 0.994809 0.431747
87 1 0.57636 0.99044 0.265546
491 1 0.405536 0.82721 0.0929488
538 1 0.415648 0.745102 0.180016
472 1 0.490292 0.741727 0.0945038
79 1 0.252284 0.986501 0.244818
471 1 0.589325 0.696557 0.0751174
542 1 0.574237 0.750904 0.170662
476 1 0.669687 0.761086 0.0900928
475 1 0.73799 0.679927 0.0855629
499 1 0.764194 0.840533 0.0596403
673 1 1.01018 0.664365 0.498597
480 1 0.816892 0.743795 0.0811486
529 1 0.98538 0.664237 0.156423
479 1 0.916092 0.66391 0.0693443
460 1 1.00323 0.748733 0.0822709
442 1 0.418302 0.604096 0.00730667
483 1 0.0752181 0.840541 0.0958477
484 1 0.0104219 0.933329 0.0748646
554 1 0.0692399 0.919752 0.170702
642 1 0.759264 0.915726 0.337825
446 1 0.592936 0.581157 0.00202784
581 1 0.167564 0.487944 0.336298
515 1 0.419889 0.496886 0.256883
488 1 0.168954 0.912308 0.0755545
492 1 0.313996 0.932809 0.0904451
641 1 0.668252 0.834106 0.347374
577 1 1.00618 0.496289 0.315623
496 1 0.50173 0.930721 0.0878711
562 1 0.410663 0.914313 0.161741
648 1 0.847301 0.901751 0.411702
19 1 0.738945 1.00699 0.0891999
670 1 0.925097 0.588153 0.512755
639 1 0.576683 0.826539 0.406748
495 1 0.580685 0.83619 0.0938246
566 1 0.593446 0.921319 0.172382
565 1 0.495883 0.838016 0.164862
481 1 -0.0052872 0.846712 0.00318189
644 1 0.636942 0.917694 0.419324
159 1 0.58553 1.01625 0.416457
569 1 0.668384 0.842141 0.17113
500 1 0.670082 0.915295 0.0754038
570 1 0.751962 0.916375 0.15359
447 1 0.582791 0.497855 0.0778545
525 1 0.82591 0.487356 0.156589
503 1 0.909013 0.836665 0.0771082
504 1 0.844884 0.919248 0.0686628
574 1 0.911768 0.928012 0.161746
441 1 0.350003 0.510779 -0.0114356
506 1 0.0530713 0.567674 0.167004
578 1 0.0710923 0.577398 0.330533
508 1 0.979283 0.572045 0.23224
510 1 0.250594 0.576701 0.171945
512 1 0.169812 0.580276 0.249173
516 1 0.32791 0.587917 0.250204
535 1 0.2462 0.673597 0.244684
537 1 0.343328 0.650611 0.162484
636 1 0.32794 0.910257 0.427817
582 1 0.242717 0.574715 0.327028
75 1 0.0823136 1.00755 0.241044
520 1 0.499987 0.577886 0.247487
539 1 0.414134 0.661324 0.251555
586 1 0.42823 0.58957 0.334574
517 1 0.507581 0.498279 0.158814
545 1 0.659774 0.656012 0.173617
518 1 0.579726 0.575775 0.15865
590 1 0.578372 0.57438 0.323334
524 1 0.655373 0.57184 0.24791
547 1 0.741218 0.656653 0.246236
617 1 0.652407 0.659839 0.329978
594 1 0.746114 0.593836 0.334896
469 1 0.504189 0.669859 0.00735035
526 1 0.908715 0.559902 0.152439
528 1 0.828859 0.57396 0.246359
598 1 0.904848 0.589615 0.328675
601 1 -0.00890342 0.672035 0.329636
533 1 0.162974 0.661091 0.173519
531 1 0.0719242 0.644252 0.241411
602 1 0.0697111 0.745314 0.33382
536 1 0.164027 0.754067 0.232409
557 1 0.153432 0.845229 0.169869
534 1 0.255247 0.758179 0.166762
540 1 0.342524 0.742193 0.260467
559 1 0.231142 0.829502 0.250561
609 1 0.325979 0.661046 0.343689
606 1 0.243877 0.758505 0.34007
544 1 0.505369 0.748518 0.252722
637 1 0.48472 0.835941 0.337112
610 1 0.432485 0.737527 0.337946
613 1 0.508872 0.660636 0.32359
543 1 0.585296 0.664929 0.245702
614 1 0.573992 0.752318 0.332555
567 1 0.579244 0.832258 0.246104
618 1 0.758401 0.750633 0.323669
548 1 0.667344 0.754044 0.266244
546 1 0.731149 0.740436 0.176501
645 1 0.820089 0.832429 0.326108
550 1 0.914152 0.749525 0.148393
621 1 0.831868 0.669603 0.312688
551 1 0.921801 0.672593 0.245926
532 1 0.00274504 0.758266 0.238728
552 1 0.83744 0.760435 0.238343
622 1 0.899212 0.742441 0.337928
625 1 0.986331 0.829094 0.319996
81 1 0.33517 0.998027 0.175216
93 1 0.831237 1.00151 0.149247
555 1 0.0811858 0.8394 0.257611
640 1 0.508776 0.917832 0.414647
439 1 0.244756 0.517553 0.0779756
558 1 0.255382 0.904442 0.168616
560 1 0.155739 0.918006 0.252056
630 1 0.233569 0.920316 0.340692
564 1 0.349172 0.907654 0.243482
482 1 0.085204 0.911086 0.00138763
563 1 0.419829 0.824687 0.251237
634 1 0.393151 0.915299 0.337554
568 1 0.494504 0.92028 0.256414
623 1 0.890977 0.671184 0.41975
638 1 0.582785 0.907779 0.327193
629 1 0.157338 0.823083 0.338629
627 1 0.061213 0.840156 0.402686
624 1 0.824268 0.763707 0.419227
571 1 0.73252 0.830157 0.250365
572 1 0.666292 0.923944 0.251719
646 1 0.901379 0.915854 0.319155
553 1 0.986267 0.848288 0.15261
556 1 1.00404 0.922955 0.259284
576 1 0.825239 0.918374 0.24237
573 1 0.832397 0.849633 0.150507
575 1 0.910021 0.83391 0.234346
616 1 0.505392 0.737872 0.419017
605 1 0.169025 0.65632 0.32428
603 1 0.0940325 0.670682 0.414537
438 1 0.253267 0.590569 -0.0174288
584 1 0.161765 0.588992 0.416431
588 1 0.335314 0.58802 0.408473
607 1 0.237421 0.656676 0.410448
633 1 0.314883 0.823359 0.319719
631 1 0.246178 0.835708 0.414525
643 1 0.741512 0.836805 0.418778
592 1 0.489382 0.581368 0.416916
620 1 0.671874 0.758399 0.424022
608 1 0.160888 0.750516 0.413576
611 1 0.418489 0.661981 0.417463
635 1 0.401941 0.817487 0.404258
615 1 0.580508 0.658693 0.404028
596 1 0.671899 0.602969 0.4266
626 1 0.0906483 0.927413 0.329562
619 1 0.755624 0.672766 0.409072
612 1 0.322855 0.744869 0.402621
580 1 0.997276 0.59956 0.416283
600 1 0.820975 0.592071 0.405251
632 1 0.146204 0.905768 0.42097
604 1 0.988203 0.741032 0.411336
591 1 0.597728 0.507274 0.4108
15 1 0.581122 0.99917 0.0806366
462 1 0.256916 0.757383 -0.00192416
83 1 0.41719 1.00252 0.25658
443 1 0.409249 0.494161 0.0869969
461 1 0.1755 0.667389 0.0193923
77 1 0.165083 0.998025 0.153579
91 1 0.753957 1.00823 0.237616
457 1 -0.00944176 0.670865 -0.0108634
513 1 0.335812 0.489055 0.169194
473 1 0.666311 0.677702 -0.00399082
597 1 0.799577 0.497866 0.331747
221 1 0.175 0.993535 0.500055
9 1 0.341582 1.0015 -0.00263769
674 1 0.0840226 0.748863 0.488566
698 1 0.0606177 0.910122 0.492829
682 1 0.409739 0.740301 0.492832
465 1 0.339424 0.685232 -0.00870584
662 1 0.580584 0.593909 0.492804
681 1 0.329158 0.668218 0.482435
665 1 0.65597 0.513299 0.504059
458 1 0.0948909 0.757188 0.0132415
706 1 0.407293 0.905353 0.498426
474 1 0.745802 0.751358 0.00132912
494 1 0.56565 0.912309 0.00198608
709 1 0.487457 0.827604 0.496223
658 1 0.412254 0.570267 0.504593
654 1 0.242084 0.595516 0.497992
493 1 0.49552 0.833223 0.0279676
705 1 0.327041 0.820545 0.50416
437 1 0.170795 0.505475 0.00859333
486 1 0.253976 0.917307 0.00335105
722 1 0.0851452 0.575889 0.68431
693 1 0.829268 0.682782 0.4986
675 1 0.085007 0.648118 0.596267
656 1 0.170514 0.578555 0.590698
679 1 0.24148 0.654516 0.605013
229 1 0.495024 0.986323 0.511015
309 1 0.839167 0.995229 0.661931
660 1 0.326625 0.583816 0.576047
664 1 0.484067 0.598974 0.592269
683 1 0.394825 0.666937 0.572867
730 1 0.415059 0.605262 0.671542
735 1 0.593925 0.488092 0.744202
862 1 0.921071 0.935542 0.829266
668 1 0.67493 0.583416 0.582279
864 1 0.827627 0.91769 0.912127
21 1 0.828356 0.998985 0.99866
672 1 0.838069 0.579561 0.586358
235 1 0.758228 0.974342 0.592018
655 1 0.261401 0.497196 0.581626
652 1 0.00709092 0.567066 0.575911
742 1 0.918064 0.578053 0.662767
695 1 0.91157 0.677429 0.577327
489 1 0.34176 0.833183 0.99838
680 1 0.161344 0.744233 0.582133
746 1 0.0877092 0.738242 0.656801
237 1 0.844693 1.00144 0.507989
750 1 0.230445 0.745382 0.676376
703 1 0.246527 0.829825 0.583096
773 1 0.153573 0.828519 0.669574
749 1 0.150664 0.663522 0.675292
777 1 0.322031 0.818109 0.667308
684 1 0.310098 0.734873 0.596115
688 1 0.478286 0.735936 0.578764
743 1 0.923357 0.493397 0.751085
687 1 0.577635 0.644927 0.583102
692 1 0.674267 0.755734 0.599775
711 1 0.567479 0.808319 0.582787
293 1 0.172919 0.999701 0.671357
737 1 0.677724 0.496266 0.665503
219 1 0.0898657 1.00011 0.558799
761 1 0.666627 0.665787 0.653915
691 1 0.770726 0.671182 0.582116
715 1 0.760001 0.84056 0.590648
676 1 1.00806 0.739347 0.580005
809 1 0.669803 0.500016 0.830484
696 1 0.827909 0.764108 0.592285
745 1 0.00442559 0.65631 0.656718
699 1 0.0865308 0.826406 0.57489
704 1 0.156108 0.91884 0.58396
844 1 0.986132 0.932704 0.913995
433 1 1.00191 0.495117 0.987367
708 1 0.330776 0.905802 0.587539
774 1 0.250887 0.908359 0.665682
793 1 1.0055 0.499178 0.844192
371 1 0.413946 1.00551 0.910067
707 1 0.40459 0.825789 0.581609
712 1 0.48622 0.895937 0.590085
716 1 0.669805 0.903254 0.598221
807 1 0.580455 0.518285 0.917011
223 1 0.246302 0.98524 0.591706
858 1 0.751201 0.92271 0.82645
720 1 0.839301 0.912256 0.577934
860 1 0.654665 0.904823 0.923371
797 1 0.173416 0.496404 0.840486
365 1 0.174882 1.00005 0.832486
651 1 0.0896188 0.497136 0.599671
700 1 -0.000497749 0.913674 0.575535
367 1 0.264163 1.00828 0.920039
299 1 0.403421 1.00157 0.755517
719 1 0.922828 0.829555 0.586915
301 1 0.492683 1.00228 0.683103
859 1 0.741256 0.844346 0.911046
724 1 -0.00745852 0.570763 0.762141
747 1 0.0816631 0.66169 0.753819
821 1 0.164209 0.670369 0.834836
726 1 0.256071 0.573306 0.683246
728 1 0.16352 0.578449 0.746577
825 1 0.332158 0.674231 0.839152
857 1 0.666942 0.833438 0.843094
861 1 0.842965 0.83621 0.821342
732 1 0.333886 0.580688 0.752819
753 1 0.332258 0.663627 0.674005
734 1 0.585151 0.588509 0.665874
736 1 0.496317 0.591742 0.744899
740 1 0.663264 0.586132 0.742087
738 1 0.75255 0.585169 0.661118
795 1 0.0811107 0.512176 0.923589
744 1 0.835687 0.582718 0.762759
767 1 0.92044 0.653275 0.745223
305 1 0.659169 0.994554 0.670899
748 1 0.00519514 0.748148 0.744825
769 1 0.00457548 0.827785 0.665443
771 1 0.0782326 0.839187 0.746367
751 1 0.234856 0.662216 0.751118
752 1 0.153189 0.749448 0.767795
775 1 0.23541 0.834759 0.749709
849 1 0.324095 0.823053 0.837118
822 1 0.245998 0.75066 0.831908
757 1 0.508536 0.684293 0.663266
755 1 0.417233 0.677906 0.759928
754 1 0.408242 0.742267 0.667727
756 1 0.322455 0.743156 0.748664
758 1 0.59093 0.763078 0.683057
759 1 0.577935 0.667678 0.740893
760 1 0.501328 0.764886 0.75079
764 1 0.668894 0.739668 0.747702
781 1 0.488814 0.805029 0.658213
785 1 0.668541 0.832763 0.6834
789 1 0.837039 0.845819 0.673702
762 1 0.756309 0.765844 0.677998
763 1 0.755737 0.655205 0.752789
787 1 0.739404 0.83994 0.7567
765 1 0.830548 0.665092 0.6723
766 1 0.918341 0.740625 0.663218
768 1 0.831931 0.739767 0.747231
852 1 0.336652 0.908802 0.923863
770 1 0.0846029 0.91191 0.655955
842 1 0.0762584 0.929283 0.827342
845 1 0.164768 0.83782 0.843553
729 1 0.335407 0.497205 0.671146
776 1 0.167961 0.922245 0.753256
780 1 0.320364 0.922709 0.750354
846 1 0.258362 0.914012 0.84531
667 1 0.750668 0.50136 0.575651
778 1 0.417568 0.899194 0.678524
779 1 0.409715 0.821022 0.752898
782 1 0.583332 0.895703 0.655522
783 1 0.589402 0.845011 0.758779
784 1 0.507718 0.918582 0.744567
855 1 0.569683 0.828739 0.921035
788 1 0.665342 0.933505 0.754266
786 1 0.739636 0.9198 0.675983
792 1 0.839555 0.920404 0.755259
853 1 0.494844 0.843225 0.827742
790 1 0.929754 0.91693 0.653369
772 1 1.00007 0.916979 0.739578
791 1 0.915266 0.817372 0.737964
794 1 0.0783168 0.585701 0.831277
796 1 -0.0078239 0.591262 0.933282
834 1 0.748785 0.732904 0.827631
836 1 0.662532 0.757672 0.907731
854 1 0.59208 0.919865 0.837949
840 1 0.822492 0.755143 0.904519
800 1 0.15922 0.594312 0.926863
798 1 0.245121 0.590984 0.843093
804 1 0.330028 0.593266 0.923444
823 1 0.249125 0.678226 0.915528
741 1 0.836451 0.495563 0.666995
802 1 0.416096 0.583505 0.842159
827 1 0.420001 0.669322 0.917313
863 1 0.914131 0.848586 0.905663
817 1 0.00831299 0.671208 0.8478
808 1 0.489949 0.581608 0.915998
806 1 0.573785 0.587807 0.8244
850 1 0.397112 0.914526 0.831634
835 1 0.736835 0.680641 0.919128
810 1 0.741559 0.588556 0.838832
833 1 0.658431 0.665195 0.822255
812 1 0.669456 0.589304 0.919991
856 1 0.498917 0.908989 0.913065
848 1 0.177634 0.916207 0.930041
837 1 0.850752 0.677368 0.826491
816 1 0.826959 0.597995 0.910982
814 1 0.917678 0.578353 0.835295
839 1 0.912091 0.663106 0.91609
843 1 0.0886343 0.84851 0.908888
818 1 0.0683381 0.763973 0.835321
841 1 0.998673 0.848817 0.822129
819 1 0.0853159 0.674166 0.930206
820 1 0.00506509 0.765771 0.926457
832 1 0.503589 0.747232 0.916306
824 1 0.157206 0.754641 0.918354
847 1 0.244096 0.835216 0.922297
851 1 0.413254 0.837865 0.907988
826 1 0.420451 0.75851 0.838796
828 1 0.333921 0.753029 0.925615
838 1 0.925698 0.761426 0.83275
829 1 0.494498 0.664877 0.838113
831 1 0.580812 0.65451 0.909323
830 1 0.577732 0.748329 0.826149
799 1 0.245033 0.496785 0.919495
690 1 0.748924 0.757901 0.503593
663 1 0.589264 0.498371 0.591219
445 1 0.486099 0.50025 1.00423
815 1 0.904985 0.502063 0.913623
502 1 0.922755 0.931756 0.998386
731 1 0.423748 0.50209 0.7468
297 1 0.320042 0.993864 0.670249
369 1 0.338445 1.0044 0.842531
227 1 0.421363 0.99526 0.587108
501 1 0.837219 0.839233 0.977473
733 1 0.519257 0.497853 0.673752
13 1 0.509238 0.994444 0.988788
805 1 0.515041 0.502157 0.816808
811 1 0.750134 0.508941 0.914464
801 1 0.333212 0.514501 0.843169
717 1 0.839252 0.843 0.494452
689 1 0.65849 0.677013 0.524906
498 1 0.739316 0.921923 0.995856
231 1 0.583192 0.988969 0.589401
685 1 0.505109 0.661754 0.498312
677 1 0.167838 0.664798 0.512381
478 1 0.919447 0.758558 0.998517
653 1 0.166329 0.510862 0.486868
477 1 0.834253 0.67792 0.989719
694 1 0.91655 0.75181 0.5013
470 1 0.585513 0.755578 0.99079
650 1 0.0796792 0.586762 0.488009
450 1 0.742041 0.59705 0.996155
678 1 0.245231 0.738587 0.509353
485 1 0.171627 0.831921 1.00385
686 1 0.583991 0.743249 0.504062
714 1 0.76255 0.920857 0.493214
702 1 0.245943 0.917322 0.50663
490 1 0.408325 0.920677 1.00114
233 1 0.646435 0.991242 0.50268
718 1 0.913733 0.912631 0.505946
466 1 0.42121 0.75373 0.994262
225 1 0.333147 0.991064 0.507911
434 1 0.08604 0.582509 1.01405
710 1 0.584128 0.896916 0.518583
666 1 0.762065 0.58525 0.494484
713 1 0.671398 0.823397 0.511436
