ITEM: TIMESTEP
5300
ITEM: NUMBER OF ATOMS
864
ITEM: BOX BOUNDS pp pp pp
0.0000000000000000e+00 3.1559999999999999e+01
0.0000000000000000e+00 3.1559999999999999e+01
0.0000000000000000e+00 3.1559999999999999e+01
ITEM: ATOMS id type xs ys zs
8 1 0.171681 0.0771202 0.0801223
74 1 0.0958527 0.0744031 0.146054
4 1 0.998388 0.0669631 0.0845981
527 1 0.915193 0.496273 0.245113
577 1 1.00465 0.50336 0.333616
31 1 0.257072 0.149316 0.100236
79 1 0.255995 -0.0190856 0.268402
435 1 0.0807609 0.501999 0.0866622
583 1 0.252312 0.499789 0.412438
215 1 0.915951 0.325662 0.422901
12 1 0.347645 0.0856622 0.0971787
16 1 0.500798 0.0808681 0.082972
82 1 0.42746 0.083773 0.170058
214 1 0.930142 0.411047 0.324747
65 1 0.658238 0.332674 -0.0102255
449 1 0.652854 0.518377 0.00681878
591 1 0.594894 0.498925 0.400053
86 1 0.582058 0.0820486 0.16947
242 1 0.0718063 0.265234 0.509476
211 1 0.744357 0.334503 0.415712
42 1 0.737401 0.248847 0.00381454
20 1 0.66132 0.0833633 0.0906106
43 1 0.751241 0.162677 0.0842012
90 1 0.740669 0.0805401 0.162242
24 1 0.844808 0.058618 0.090065
47 1 0.922072 0.151484 0.0873886
509 1 0.161665 0.482354 0.152367
94 1 0.917441 0.073209 0.184943
262 1 0.913726 0.251434 0.502524
27 1 0.0764272 0.161733 0.0816232
28 1 0.988607 0.24891 0.0881145
125 1 0.141457 0.332154 0.159606
32 1 0.165237 0.237293 0.0820464
102 1 0.250626 0.245484 0.160243
36 1 0.325208 0.22499 0.08407
599 1 0.905429 0.492288 0.402786
35 1 0.42476 0.168424 0.0811928
221 1 0.169747 0.00171726 0.499899
40 1 0.503659 0.253158 0.0857082
39 1 0.598373 0.163817 0.0775523
44 1 0.662886 0.255689 0.092254
109 1 0.50962 0.163669 0.162405
513 1 0.336131 0.513972 0.169812
443 1 0.428714 0.505653 0.0737733
114 1 0.752732 0.238838 0.169697
67 1 0.74993 0.328254 0.0937913
113 1 0.665708 0.166852 0.16733
137 1 0.657024 0.33756 0.173011
141 1 0.829977 0.320218 0.171751
48 1 0.828765 0.243776 0.0841833
71 1 0.906936 0.328818 0.0711142
118 1 0.903762 0.246775 0.153898
51 1 0.0836936 0.313257 0.0708781
56 1 0.149705 0.405183 0.072817
122 1 0.0662384 0.404373 0.162817
52 1 0.991194 0.39479 0.0915303
216 1 0.8206 0.409577 0.410005
55 1 0.24532 0.3194 0.0784417
129 1 0.326093 0.32717 0.15533
60 1 0.331831 0.416008 0.0879705
23 1 0.930206 -0.0207351 0.0884658
165 1 0.828754 -0.000730174 0.351964
46 1 0.924886 0.236401 0.00617188
15 1 0.571688 0.00140224 0.0843105
59 1 0.419255 0.330439 0.0793043
451 1 0.748819 0.500601 0.0865649
63 1 0.592474 0.327887 0.0834283
64 1 0.502946 0.400764 0.0892512
134 1 0.581236 0.419631 0.149969
68 1 0.672782 0.408727 0.0830825
205 1 0.501511 0.333002 0.310582
212 1 0.664205 0.40795 0.423035
138 1 0.758019 0.411424 0.162238
172 1 -0.00641874 0.256493 0.41476
72 1 0.826526 0.405058 0.0798827
142 1 0.905019 0.405299 0.180728
147 1 0.0940246 -0.00745028 0.427329
155 1 0.418824 -0.00591188 0.419253
80 1 0.173808 0.0775858 0.256932
99 1 0.0866625 0.175224 0.260359
78 1 0.247898 0.0772402 0.174778
593 1 0.675378 0.5077 0.327425
84 1 0.327988 0.0745806 0.252476
177 1 0.324375 0.166458 0.319405
101 1 0.163813 0.160644 0.16657
103 1 0.24297 0.156308 0.242882
154 1 0.413274 0.0753711 0.330936
203 1 0.41365 0.333417 0.405036
88 1 0.507818 0.0773909 0.251784
158 1 0.583358 0.0785334 0.346439
181 1 0.4965 0.170568 0.328132
185 1 0.662959 0.152369 0.333789
92 1 0.667624 0.0783673 0.239784
96 1 0.835551 0.0549998 0.25869
117 1 0.837545 0.166593 0.171932
115 1 0.749285 0.165379 0.256456
286 1 0.911936 0.416118 0.48763
76 1 0.00134214 0.0909404 0.249565
166 1 0.918515 0.0806614 0.341932
119 1 0.919869 0.16162 0.263126
98 1 0.0757531 0.236859 0.165144
97 1 0.996603 0.159996 0.161444
123 1 0.068222 0.323676 0.241315
169 1 0.00598283 0.169198 0.331129
104 1 0.166923 0.244014 0.238043
108 1 0.325417 0.243636 0.248761
127 1 0.246279 0.321668 0.250241
105 1 0.341589 0.163505 0.169301
107 1 0.417484 0.162446 0.25416
106 1 0.418 0.251565 0.157411
110 1 0.575995 0.246757 0.17166
112 1 0.493779 0.246196 0.25429
111 1 0.580894 0.155801 0.255666
182 1 0.585355 0.249763 0.333495
135 1 0.590325 0.336152 0.25151
116 1 0.65301 0.24397 0.250972
189 1 0.82201 0.167533 0.331885
120 1 0.824568 0.256413 0.260899
121 1 0.989342 0.323967 0.163221
193 1 0.000502935 0.327578 0.331052
100 1 0.996502 0.248672 0.256098
208 1 0.505318 0.409377 0.411355
282 1 0.746674 0.412281 0.510189
126 1 0.244543 0.406407 0.152221
128 1 0.169155 0.401668 0.243946
132 1 0.327834 0.408241 0.253041
149 1 0.163085 -0.00339957 0.334348
130 1 0.417972 0.416124 0.153554
133 1 0.503423 0.330179 0.171518
131 1 0.414134 0.333555 0.232361
136 1 0.507817 0.418678 0.242343
3 1 0.100677 -0.00947162 0.0812677
202 1 0.4225 0.417752 0.323402
206 1 0.579813 0.410101 0.335793
139 1 0.735975 0.33778 0.247604
140 1 0.660252 0.4269 0.24846
210 1 0.73838 0.41722 0.335638
198 1 0.238951 0.411236 0.321476
197 1 0.168236 0.329831 0.335172
124 1 0.995488 0.400265 0.23858
144 1 0.828116 0.410775 0.257693
143 1 0.911912 0.323606 0.239931
213 1 0.81914 0.332093 0.337675
595 1 0.752761 0.499248 0.421405
192 1 0.835008 0.252093 0.407411
173 1 0.177569 0.169846 0.332781
204 1 0.33937 0.419034 0.406971
146 1 0.0857493 0.0911257 0.329706
152 1 0.154171 0.0917542 0.414616
199 1 0.254359 0.359917 0.415113
201 1 0.319776 0.328835 0.330589
150 1 0.242068 0.083118 0.347827
190 1 0.913723 0.255575 0.329444
1 1 0.00928291 -0.00759416 -0.00160121
222 1 0.242241 0.0813954 0.484198
156 1 0.32523 0.0995282 0.410563
200 1 0.157932 0.410786 0.418439
273 1 0.335134 0.336922 0.494778
196 1 0.00236922 0.415817 0.417755
160 1 0.496775 0.0836955 0.404985
164 1 0.660366 0.0882621 0.425836
162 1 0.75288 0.0841908 0.327592
187 1 0.73371 0.170427 0.413407
194 1 0.0776269 0.412277 0.323486
505 1 0.999458 0.484032 0.169522
191 1 0.911602 0.169548 0.406902
168 1 0.834507 0.100793 0.410265
148 1 0.00682839 0.0875947 0.414994
186 1 0.743837 0.247729 0.334047
195 1 0.0819929 0.337394 0.428823
170 1 0.0829644 0.264462 0.334516
171 1 0.0789834 0.169631 0.420448
176 1 0.172466 0.251036 0.420973
188 1 0.667609 0.258116 0.434386
49 1 0.99107 0.325045 -7.47299e-05
174 1 0.246492 0.243089 0.330914
175 1 0.239083 0.173869 0.424694
180 1 0.321788 0.260375 0.413624
178 1 0.398059 0.244449 0.322909
179 1 0.408589 0.169719 0.409387
581 1 0.167634 0.490501 0.332441
439 1 0.25565 0.49455 0.0872916
209 1 0.658351 0.331559 0.336762
207 1 0.578204 0.327948 0.412189
183 1 0.592888 0.175154 0.414329
184 1 0.498049 0.264665 0.398413
661 1 0.50468 0.501645 0.505072
579 1 0.0726121 0.497731 0.419888
218 1 0.0790247 0.0852012 0.498656
163 1 0.757633 0.0044593 0.419802
70 1 0.910855 0.413141 -0.00343807
269 1 0.176098 0.325298 0.503175
167 1 0.923788 -0.00556007 0.417962
89 1 0.659376 -0.00596071 0.159477
26 1 0.0882531 0.226156 0.00598346
245 1 0.165528 0.17246 0.508914
265 1 -0.012258 0.340869 0.512883
597 1 0.831265 0.504172 0.331193
87 1 0.591717 0.0190792 0.252672
13 1 0.496515 0.00329061 -0.00232235
241 1 -0.0058713 0.171016 0.498467
25 1 0.00135923 0.144183 0.0110047
81 1 0.334778 -0.003495 0.177557
517 1 0.503776 0.504716 0.161913
91 1 0.744172 0.00230535 0.250832
11 1 0.413692 0.00837056 0.078379
515 1 0.420762 0.486954 0.234599
77 1 0.170245 0.00328223 0.179314
507 1 0.0837129 0.489392 0.251594
585 1 0.326346 0.512371 0.329376
238 1 0.913576 0.0945827 0.482804
261 1 0.822045 0.167436 0.501003
2 1 0.0947356 0.0818869 0.00975812
250 1 0.414971 0.256778 0.479844
246 1 0.254159 0.24585 0.495923
62 1 0.589977 0.418224 0.0115081
657 1 0.32613 0.499963 0.493354
253 1 0.493543 0.173615 0.486385
249 1 0.341672 0.166357 0.499306
281 1 0.655673 0.346383 0.508147
277 1 0.493808 0.335227 0.493911
226 1 0.418627 0.0859668 0.505159
18 1 0.755481 0.0764115 0.0119709
285 1 0.831913 0.339366 0.49326
230 1 0.576589 0.102925 0.500561
225 1 0.331947 0.00691477 0.498397
669 1 0.836344 0.489197 0.497239
33 1 0.331749 0.16681 -0.00928011
50 1 0.0630185 0.41177 0.00797366
41 1 0.6768 0.156495 0.00666982
220 1 -0.0101221 0.0876075 0.583925
313 1 0.0014156 0.167716 0.665799
793 1 1.00031 0.514179 0.842235
365 1 0.14609 0.00240029 0.833647
224 1 0.170782 0.087579 0.572775
228 1 0.332161 0.0897575 0.580457
294 1 0.232685 0.0882236 0.664767
367 1 0.25037 0.00945582 0.913628
298 1 0.421174 0.0882794 0.660174
725 1 0.174036 0.490485 0.655678
232 1 0.50533 0.0875112 0.59085
255 1 0.572062 0.166099 0.58602
302 1 0.593746 0.0859488 0.659799
254 1 0.564635 0.247256 0.488083
325 1 0.504444 0.170588 0.663517
743 1 0.908926 0.514008 0.765126
236 1 0.661716 0.0930163 0.572899
259 1 0.752117 0.174353 0.594356
289 1 0.00161532 0.00277889 0.659325
258 1 0.753512 0.262912 0.496109
333 1 0.840585 0.174174 0.669078
809 1 0.659424 0.50197 0.836473
361 1 0.0026079 0.00145872 0.831578
240 1 0.823204 0.0869816 0.585335
263 1 0.897366 0.163905 0.584819
310 1 0.918826 0.0897939 0.67788
38 1 0.583944 0.242117 1.0189
431 1 0.912922 0.326785 0.923014
243 1 0.077828 0.177372 0.579737
244 1 -0.0167378 0.250555 0.583346
314 1 0.0757633 0.252224 0.664993
248 1 0.176514 0.242528 0.587897
267 1 0.0803432 0.334706 0.595203
247 1 0.248453 0.152908 0.573009
318 1 0.253386 0.244851 0.671007
317 1 0.159964 0.168344 0.678034
233 1 0.659648 0.000152335 0.505168
311 1 0.919847 0.00493887 0.743786
251 1 0.426435 0.177991 0.584643
252 1 0.337858 0.230183 0.586057
256 1 0.50197 0.255849 0.584998
322 1 0.428259 0.239639 0.676318
260 1 0.681106 0.268086 0.586101
283 1 0.752877 0.342823 0.583918
330 1 0.74805 0.258289 0.666569
363 1 0.0961322 -0.00125761 0.928591
795 1 0.074071 0.492906 0.910891
805 1 0.492835 0.505496 0.824852
264 1 0.819255 0.260074 0.578858
287 1 0.911905 0.330107 0.581022
239 1 0.906098 0.0120734 0.582742
272 1 0.160866 0.413699 0.573727
338 1 0.0813433 0.423623 0.665874
369 1 0.340071 -0.0103223 0.832666
235 1 0.74077 0.011651 0.578955
29 1 0.168564 0.155197 0.989587
271 1 0.254702 0.329293 0.575669
432 1 0.831935 0.409188 0.915859
291 1 0.0777408 0.00459478 0.730701
342 1 0.241032 0.414117 0.65807
275 1 0.402039 0.308672 0.588996
276 1 0.321586 0.420628 0.584602
280 1 0.491072 0.426846 0.579539
346 1 0.42061 0.410182 0.659292
345 1 0.327852 0.332301 0.673444
297 1 0.333558 0.0160787 0.666416
279 1 0.587599 0.335228 0.584615
58 1 0.427444 0.413631 1.00212
420 1 0.339572 0.423958 0.921076
284 1 0.660772 0.433095 0.580397
288 1 0.837722 0.410067 0.57768
418 1 0.417073 0.429022 0.834551
299 1 0.423194 0.00153329 0.743718
34 1 0.409092 0.24222 0.994981
268 1 0.984423 0.422501 0.59319
37 1 0.493491 0.170236 1.00035
423 1 0.586864 0.330106 0.914472
290 1 0.0856728 0.0920771 0.661399
315 1 0.0620645 0.184878 0.750073
362 1 0.0785761 0.0797911 0.840075
426 1 0.743029 0.424685 0.845902
234 1 0.742821 0.0948536 0.501242
727 1 0.251573 0.489149 0.751326
296 1 0.16215 0.0806767 0.746511
319 1 0.246637 0.173344 0.756013
404 1 0.664329 0.244407 0.922945
366 1 0.223082 0.104571 0.829887
278 1 0.573483 0.412356 0.500315
300 1 0.316394 0.0854154 0.754596
237 1 0.842867 -0.000735192 0.494433
399 1 0.575903 0.156166 0.924027
379 1 0.746776 0.000451672 0.932514
304 1 0.507991 0.080382 0.74408
308 1 0.662093 0.104229 0.752717
397 1 0.501161 0.161318 0.82708
327 1 0.583515 0.162314 0.752488
374 1 0.574185 0.07798 0.837075
401 1 0.666313 0.181518 0.840817
257 1 0.660217 0.193289 0.512555
306 1 0.754239 0.0866013 0.671495
312 1 0.842596 0.0844494 0.76193
331 1 0.745391 0.171769 0.740887
378 1 0.747065 0.0660186 0.83222
396 1 0.334131 0.25326 0.902207
292 1 0.00107079 0.0939112 0.758194
385 1 0.000905471 0.155944 0.852589
405 1 0.826963 0.160085 0.828615
335 1 0.917723 0.173088 0.758911
419 1 0.415327 0.336452 0.9168
316 1 0.980451 0.263507 0.742177
386 1 0.0781359 0.259191 0.830931
393 1 0.331868 0.178651 0.814677
320 1 0.153139 0.258792 0.747453
413 1 0.164787 0.335152 0.832696
321 1 0.332776 0.171396 0.668818
324 1 0.341762 0.259528 0.748622
323 1 0.422426 0.16817 0.744349
347 1 0.42202 0.334459 0.740337
394 1 0.422629 0.259967 0.82262
349 1 0.506357 0.34502 0.665906
329 1 0.659867 0.181192 0.66321
326 1 0.578029 0.252365 0.667873
328 1 0.508415 0.25529 0.742913
398 1 0.587834 0.255225 0.823213
332 1 0.668109 0.264825 0.73148
355 1 0.752485 0.33867 0.750669
402 1 0.750734 0.251656 0.821801
357 1 0.832314 0.322225 0.67312
334 1 0.909948 0.243497 0.656663
336 1 0.837043 0.252543 0.756177
359 1 0.91284 0.335829 0.772387
341 1 0.165592 0.339767 0.679664
339 1 0.070981 0.340292 0.764478
409 1 0.986877 0.337256 0.843528
340 1 0.000186664 0.432636 0.757296
410 1 0.0684746 0.411705 0.839074
415 1 0.244048 0.341613 0.911899
416 1 0.165468 0.413932 0.911774
343 1 0.248199 0.333121 0.747549
344 1 0.153845 0.433782 0.746918
414 1 0.250087 0.414896 0.826765
348 1 0.344434 0.413077 0.741654
417 1 0.342603 0.338051 0.830572
352 1 0.493769 0.420472 0.755702
428 1 0.654767 0.421277 0.928891
421 1 0.503159 0.333828 0.842234
350 1 0.587253 0.41668 0.66345
351 1 0.582967 0.352541 0.741735
353 1 0.666416 0.348108 0.668046
356 1 0.670288 0.419191 0.755578
354 1 0.76051 0.41804 0.671105
360 1 0.836153 0.430382 0.746009
45 1 0.848001 0.157466 1.00838
337 1 0.999502 0.33943 0.670261
427 1 0.748328 0.319289 0.909654
358 1 0.909694 0.401941 0.684129
429 1 0.821084 0.34363 0.833264
430 1 0.913799 0.425157 0.841236
390 1 0.233925 0.249434 0.84672
368 1 0.166614 0.0749394 0.922268
422 1 0.576284 0.417483 0.829016
391 1 0.25038 0.156197 0.916955
412 1 -0.0159811 0.418093 0.91643
372 1 0.336622 0.075624 0.907053
370 1 0.418196 0.076856 0.827366
395 1 0.421093 0.179984 0.903002
376 1 0.494172 0.0862691 0.921029
425 1 0.668184 0.342606 0.823615
424 1 0.506757 0.416269 0.92825
408 1 0.82672 0.240966 0.932269
389 1 0.14206 0.177196 0.83158
406 1 0.915403 0.254172 0.844282
380 1 0.668705 0.077885 0.910425
384 1 0.834623 0.0837851 0.920322
403 1 0.755517 0.159798 0.919176
382 1 0.912029 0.087345 0.831326
364 1 -0.00208502 0.074027 0.917245
407 1 0.908163 0.156365 0.919169
388 1 1.00691 0.2514 0.912932
400 1 0.518622 0.248441 0.914929
387 1 0.0770259 0.157675 0.922196
411 1 0.0848866 0.335516 0.916191
392 1 0.15467 0.245533 0.934299
270 1 0.240767 0.426936 0.50386
309 1 0.832327 0.00599053 0.658523
807 1 0.565695 0.516975 0.8958
61 1 0.499131 0.323566 1.00005
667 1 0.759639 0.511621 0.589217
223 1 0.247895 0.016377 0.587693
373 1 0.494812 -0.00498268 0.832137
57 1 0.330291 0.344975 0.991665
721 1 0.977 0.493403 0.667214
54 1 0.242117 0.404763 1.00285
227 1 0.418276 0.00638712 0.574714
659 1 0.420382 0.512563 0.596259
295 1 0.249846 0.00569247 0.766226
653 1 0.146871 0.507555 0.508458
305 1 0.665361 0.00195714 0.670655
53 1 0.15396 0.325726 1.00389
6 1 0.257635 0.087366 1.00029
10 1 0.412949 0.0897833 0.991371
69 1 0.819723 0.317828 1.00305
30 1 0.255862 0.25325 0.985151
22 1 0.916559 0.0738704 1.0005
274 1 0.416901 0.431032 0.493296
14 1 0.587448 0.0718578 1.00818
66 1 0.741345 0.414071 0.993598
217 1 -0.00359593 0.00196158 0.499453
266 1 0.0768597 0.410756 0.513589
436 1 0.999367 0.585225 0.0939766
459 1 0.0804665 0.658694 0.0847337
533 1 0.175371 0.661122 0.155382
694 1 0.931265 0.752959 0.49448
440 1 0.164654 0.57428 0.0794879
463 1 0.25418 0.661528 0.0688942
497 1 0.679198 0.828498 -0.00643055
85 1 0.491962 1.00726 0.165105
434 1 0.0854626 0.582729 0.00543955
444 1 0.340334 0.581857 0.0660842
448 1 0.502965 0.586313 0.0678996
467 1 0.409611 0.658901 0.0820812
673 1 0.00222624 0.672475 0.511851
518 1 0.583163 0.581942 0.174544
646 1 0.945356 0.914194 0.332433
705 1 0.331657 0.82778 0.518063
452 1 0.672716 0.581563 0.0860425
522 1 0.744872 0.586834 0.167786
475 1 0.76791 0.670093 0.0967621
545 1 0.67266 0.683167 0.171808
628 1 0.0180737 0.925719 0.417109
456 1 0.82373 0.5774 0.0923255
526 1 0.916334 0.5816 0.166046
529 1 1.00225 0.665241 0.167822
479 1 0.917258 0.665573 0.0840991
530 1 0.0899321 0.740992 0.154231
485 1 0.179908 0.845514 -0.00319694
654 1 0.243028 0.584406 0.504449
464 1 0.16948 0.761562 0.0763013
487 1 0.259348 0.823292 0.0834017
468 1 0.341954 0.750291 0.0683281
523 1 0.753477 0.505209 0.245565
472 1 0.498181 0.748826 0.0819279
73 1 0.00883379 1.00053 0.175456
650 1 0.0831867 0.607739 0.498027
471 1 0.590958 0.674581 0.0781004
495 1 0.576453 0.83972 0.0911851
476 1 0.669297 0.760135 0.0863617
466 1 0.412511 0.757192 -0.0128882
589 1 0.493344 0.494001 0.326115
546 1 0.766592 0.759823 0.176138
499 1 0.771556 0.834201 0.0932131
666 1 0.761651 0.573939 0.503254
460 1 0.993204 0.759809 0.0774386
480 1 0.849116 0.749206 0.0992426
550 1 0.925815 0.750882 0.170708
549 1 0.845909 0.662783 0.167805
458 1 0.0784439 0.758395 -0.00210765
75 1 0.0803182 1.01008 0.246138
483 1 0.0753801 0.826445 0.0843197
484 1 1.01271 0.912584 0.0795293
161 1 0.671904 0.997271 0.355078
488 1 0.184771 0.928536 0.0832441
558 1 0.253427 0.937565 0.161953
492 1 0.33704 0.925176 0.0881952
461 1 0.168734 0.669994 0.00885265
491 1 0.434337 0.824972 0.100389
496 1 0.496862 0.918735 0.0845619
7 1 0.273545 1.01502 0.076039
500 1 0.668195 0.907999 0.0834292
153 1 0.333102 1.00365 0.335327
693 1 0.844177 0.665542 0.498268
570 1 0.743451 0.921774 0.175592
665 1 0.677613 0.503697 0.508134
504 1 0.83577 0.920174 0.0826688
503 1 0.930946 0.84722 0.0781082
455 1 0.924761 0.49812 0.0793369
574 1 0.928786 0.926818 0.178926
151 1 0.254877 1.00156 0.416956
506 1 0.0901202 0.578043 0.164828
578 1 0.0736913 0.57941 0.312744
512 1 0.166285 0.588335 0.241097
531 1 0.0855063 0.660983 0.243843
510 1 0.236238 0.572437 0.155589
535 1 0.251648 0.655995 0.233659
605 1 0.169312 0.660645 0.327738
645 1 0.839139 0.83665 0.335626
537 1 0.331884 0.649329 0.158619
514 1 0.413919 0.581183 0.160485
516 1 0.339048 0.585438 0.24801
539 1 0.431078 0.660064 0.238199
520 1 0.484053 0.573783 0.239595
524 1 0.671061 0.587019 0.24667
590 1 0.593159 0.589742 0.334402
543 1 0.590866 0.659953 0.248751
648 1 0.85832 0.9103 0.416115
547 1 0.766679 0.663339 0.246715
594 1 0.752324 0.587671 0.33684
93 1 0.841039 0.994585 0.181432
508 1 0.999586 0.575589 0.235916
621 1 0.8348 0.678529 0.340362
528 1 0.844605 0.572542 0.24889
532 1 1.01733 0.74864 0.250205
555 1 0.0912484 0.827264 0.242012
601 1 0.000743708 0.657728 0.326328
534 1 0.265653 0.745464 0.162045
557 1 0.170015 0.838505 0.154454
536 1 0.166406 0.743319 0.219144
540 1 0.336635 0.73046 0.241716
559 1 0.253608 0.832435 0.230381
541 1 0.504624 0.657487 0.157411
609 1 0.323202 0.652308 0.334045
538 1 0.425664 0.745037 0.168052
563 1 0.432184 0.83851 0.253014
637 1 0.504698 0.821743 0.333307
544 1 0.508784 0.729226 0.251684
542 1 0.589903 0.747845 0.162729
567 1 0.582577 0.829734 0.240983
548 1 0.67726 0.749289 0.250853
552 1 0.839344 0.763197 0.263804
551 1 0.913116 0.679251 0.252419
625 1 0.028686 0.833275 0.339391
622 1 0.919017 0.750365 0.337994
573 1 0.839176 0.844208 0.176613
95 1 0.924998 0.998171 0.259328
554 1 0.0911447 0.912491 0.161922
556 1 0.0192552 0.924617 0.253029
642 1 0.747824 0.927647 0.333676
561 1 0.35021 0.822645 0.169177
644 1 0.677003 0.908396 0.427994
560 1 0.170037 0.903668 0.256875
564 1 0.336361 0.903629 0.254313
562 1 0.418683 0.921687 0.163971
634 1 0.423115 0.922806 0.327335
568 1 0.516796 0.916498 0.259174
511 1 0.232455 0.4876 0.238388
478 1 0.911453 0.748148 -0.0118493
565 1 0.505782 0.856203 0.171852
566 1 0.579448 0.928456 0.178297
638 1 0.583656 0.918173 0.345594
569 1 0.670095 0.835037 0.172852
571 1 0.751121 0.833389 0.26007
572 1 0.658906 0.913154 0.256586
576 1 0.841624 0.920308 0.267718
633 1 0.329301 0.81237 0.320104
686 1 0.57917 0.742448 0.520029
553 1 0.00604364 0.825103 0.170451
636 1 0.330253 0.890257 0.411354
575 1 0.92121 0.841987 0.249301
701 1 0.172066 0.828117 0.499799
647 1 0.930462 0.83221 0.411739
584 1 0.148336 0.571969 0.404139
640 1 0.504526 0.902341 0.419021
587 1 0.414563 0.49983 0.411259
582 1 0.237588 0.581309 0.328487
588 1 0.324311 0.575046 0.425748
632 1 0.172365 0.904592 0.411001
457 1 -0.00228577 0.663026 0.0194252
586 1 0.414662 0.589283 0.331712
592 1 0.490986 0.583088 0.408528
611 1 0.40347 0.668691 0.428261
613 1 0.491925 0.671404 0.339467
521 1 0.66799 0.500292 0.168035
615 1 0.580365 0.672662 0.420264
83 1 0.415615 1.00295 0.24936
596 1 0.6669 0.582675 0.432402
617 1 0.680761 0.669757 0.325362
649 1 0.993769 0.497766 0.490369
598 1 0.912577 0.599708 0.330311
580 1 1.00382 0.591884 0.413885
600 1 0.839211 0.583621 0.415222
602 1 0.0925163 0.752877 0.331819
603 1 0.0914299 0.669107 0.412031
627 1 0.0966895 0.828284 0.422947
606 1 0.248323 0.728102 0.319938
631 1 0.255445 0.823047 0.413126
608 1 0.17348 0.743808 0.398481
607 1 0.252124 0.657224 0.417274
629 1 0.175407 0.820813 0.315734
630 1 0.257708 0.898157 0.33958
612 1 0.328978 0.743339 0.410365
610 1 0.402121 0.740346 0.327422
635 1 0.429792 0.803695 0.408951
641 1 0.676634 0.841774 0.339948
639 1 0.600238 0.828109 0.421779
616 1 0.519446 0.753336 0.430125
614 1 0.594344 0.753199 0.334124
620 1 0.654564 0.739782 0.434098
626 1 0.0837536 0.919185 0.336411
604 1 0.00478267 0.746577 0.409242
619 1 0.759899 0.665589 0.414803
618 1 0.747292 0.751829 0.341471
643 1 0.734354 0.820611 0.428819
623 1 0.926164 0.67322 0.41522
433 1 0.997634 0.496102 -0.0057403
624 1 0.845323 0.757789 0.436707
670 1 0.931298 0.588431 0.490538
465 1 0.347134 0.672664 -0.00551539
159 1 0.585814 0.997127 0.416729
525 1 0.830002 0.487957 0.16584
519 1 0.582321 0.505368 0.24373
674 1 0.0932287 0.73766 0.493626
145 1 0.00839821 1.00814 0.336047
157 1 0.493675 1.00366 0.337064
447 1 0.577798 0.507635 0.0876623
462 1 0.25192 0.752301 -0.00544578
709 1 0.504266 0.817619 0.517798
658 1 0.421576 0.571846 0.501667
19 1 0.744902 0.988186 0.0972085
702 1 0.245488 0.933577 0.497687
698 1 0.0890493 0.913268 0.497072
685 1 0.496329 0.659852 0.500877
473 1 0.667065 0.668515 -0.0132418
498 1 0.753477 0.91588 0.0104208
490 1 0.401146 0.922862 -0.0122297
718 1 0.92679 0.891108 0.496127
678 1 0.259332 0.749428 0.488971
17 1 0.675692 0.997972 0.0106971
229 1 0.508328 1.01922 0.489544
453 1 0.837362 0.495692 -0.00463036
446 1 0.581928 0.588733 -0.00276208
437 1 0.155807 0.488734 0.0039998
717 1 0.83592 0.833664 0.51175
493 1 0.497555 0.833803 0.000721107
662 1 0.581766 0.580998 0.504796
454 1 0.911981 0.591333 -0.000706979
689 1 0.674902 0.65633 0.505962
482 1 0.0817554 0.908872 -0.000356729
675 1 0.0816792 0.67232 0.573444
656 1 0.148207 0.590313 0.586142
749 1 0.162047 0.669774 0.65103
722 1 0.0755352 0.594245 0.66855
655 1 0.251297 0.502428 0.582938
679 1 0.243942 0.656388 0.580863
726 1 0.235255 0.573856 0.669655
682 1 0.41422 0.744009 0.504591
489 1 0.335773 0.842471 1.0152
660 1 0.335318 0.568037 0.584251
863 1 0.918791 0.833936 0.917444
753 1 0.317105 0.649631 0.660879
371 1 0.414489 1.00657 0.905616
663 1 0.576458 0.504495 0.594493
664 1 0.497936 0.591325 0.584993
687 1 0.587086 0.660964 0.576449
303 1 0.587093 1.00498 0.747912
697 1 0.0183386 0.828013 0.491766
668 1 0.673919 0.582808 0.586952
672 1 0.849803 0.587502 0.584243
738 1 0.760094 0.582784 0.664408
761 1 0.680827 0.664563 0.660463
741 1 0.850892 0.494952 0.655803
713 1 0.660886 0.84466 0.513179
652 1 1.00559 0.588134 0.594402
742 1 0.907937 0.582577 0.66536
375 1 0.578661 1.00333 0.912301
219 1 0.0866404 0.998115 0.578114
680 1 0.198828 0.756122 0.585029
676 1 -0.000902918 0.753346 0.580236
746 1 0.0944304 0.756145 0.652664
714 1 0.754373 0.917311 0.5052
750 1 0.239756 0.733769 0.679395
684 1 0.310021 0.742853 0.591449
703 1 0.246316 0.849939 0.594057
477 1 0.83455 0.6776 1.01189
683 1 0.422125 0.654409 0.571327
729 1 0.326333 0.493454 0.658422
811 1 0.748407 0.491605 0.923874
723 1 0.085908 0.523371 0.752222
688 1 0.499439 0.73286 0.592278
692 1 0.67941 0.746458 0.570155
691 1 0.767352 0.666508 0.580837
696 1 0.852817 0.751955 0.586245
715 1 0.755813 0.829896 0.575212
799 1 0.248118 0.495155 0.910208
445 1 0.511423 0.502192 0.993977
695 1 0.929901 0.665864 0.582189
719 1 0.928472 0.840586 0.594693
765 1 0.843846 0.675547 0.659554
307 1 0.759642 0.995637 0.74197
699 1 0.0876241 0.826563 0.577013
704 1 0.174213 0.928848 0.577421
774 1 0.240787 0.929816 0.670414
857 1 0.665665 0.83983 0.835133
707 1 0.399654 0.807227 0.600276
708 1 0.321605 0.932302 0.581018
777 1 0.318567 0.83177 0.672342
293 1 0.171603 1.00932 0.676561
5 1 0.184625 1.0058 1.00479
710 1 0.568542 0.927187 0.510371
711 1 0.584096 0.832859 0.593316
712 1 0.494537 0.915855 0.578147
441 1 0.342506 0.50055 0.992627
716 1 0.661202 0.920996 0.592418
769 1 0.0149841 0.841936 0.660455
700 1 0.00730927 0.921402 0.5855
720 1 0.85283 0.91533 0.590018
790 1 0.920605 0.915049 0.670037
858 1 0.754535 0.917497 0.826363
728 1 0.159635 0.596744 0.751166
794 1 0.0918379 0.59286 0.839497
817 1 -0.0058442 0.658375 0.833679
724 1 0.998445 0.583407 0.741122
745 1 -0.00116985 0.670758 0.668273
864 1 0.82654 0.925975 0.923056
732 1 0.32817 0.582092 0.749524
861 1 0.83715 0.845075 0.833215
730 1 0.412313 0.587258 0.67059
802 1 0.417247 0.573373 0.833419
757 1 0.500342 0.675877 0.676642
755 1 0.430065 0.654878 0.761687
383 1 0.910588 0.990129 0.909589
855 1 0.586789 0.831002 0.931315
736 1 0.499904 0.582335 0.740441
734 1 0.591451 0.590993 0.673504
740 1 0.681436 0.586976 0.739256
860 1 0.651266 0.918911 0.915736
803 1 0.425569 0.502462 0.922722
744 1 0.821797 0.58237 0.754112
671 1 0.92202 0.503967 0.566751
767 1 0.90593 0.656682 0.751817
814 1 0.910652 0.593496 0.847407
747 1 0.0773042 0.668847 0.754571
821 1 0.166239 0.67306 0.839788
751 1 0.248782 0.675186 0.76126
752 1 0.152053 0.740785 0.76391
822 1 0.252134 0.764018 0.838392
849 1 0.33181 0.84012 0.828898
775 1 0.24321 0.833109 0.747603
845 1 0.143446 0.836432 0.842436
756 1 0.318807 0.745796 0.737778
754 1 0.411116 0.732742 0.678276
760 1 0.513028 0.752812 0.756218
779 1 0.410202 0.826483 0.742422
853 1 0.49814 0.82242 0.838311
829 1 0.519028 0.669089 0.824972
758 1 0.581611 0.743969 0.660701
759 1 0.59903 0.666601 0.747568
783 1 0.570046 0.844213 0.749377
830 1 0.586354 0.759477 0.842738
763 1 0.757185 0.681432 0.734331
764 1 0.668131 0.769166 0.762789
762 1 0.752243 0.758664 0.652165
834 1 0.7526 0.752351 0.824212
768 1 0.844785 0.755581 0.748727
748 1 -0.00465624 0.749006 0.746046
766 1 0.921135 0.756593 0.670054
838 1 0.929229 0.750573 0.835205
773 1 0.166485 0.840709 0.669752
770 1 0.0954053 0.91494 0.655047
771 1 0.0785555 0.826283 0.751173
842 1 0.0685815 0.922626 0.833281
776 1 0.142191 0.917371 0.751381
846 1 0.233867 0.908875 0.833354
778 1 0.401496 0.921466 0.650568
780 1 0.320173 0.912296 0.751999
854 1 0.575018 0.919166 0.834349
782 1 0.574857 0.922091 0.661961
781 1 0.489535 0.836387 0.649946
784 1 0.496494 0.909665 0.739059
788 1 0.660436 0.926957 0.738178
785 1 0.66319 0.837779 0.678688
787 1 0.753944 0.827222 0.742737
786 1 0.750315 0.917245 0.656354
789 1 0.836678 0.832695 0.661898
792 1 0.843895 0.903793 0.740139
862 1 0.92631 0.909892 0.825503
772 1 0.00600751 0.919204 0.748018
791 1 0.941992 0.835327 0.748797
841 1 0.00906644 0.826883 0.845795
733 1 0.493428 0.497503 0.677042
848 1 0.181478 0.919863 0.932527
796 1 0.00663226 0.589125 0.927295
381 1 0.843516 0.986648 0.813598
800 1 0.167118 0.57936 0.92257
798 1 0.254839 0.578241 0.832494
823 1 0.258477 0.665677 0.912977
825 1 0.335214 0.660965 0.844344
231 1 0.584898 1.01625 0.582203
804 1 0.346469 0.582052 0.912998
843 1 0.0765918 0.828358 0.924886
827 1 0.431862 0.67697 0.911036
731 1 0.407807 0.502397 0.740068
806 1 0.60239 0.591945 0.816038
852 1 0.329473 0.916666 0.913352
808 1 0.490561 0.59435 0.913897
812 1 0.667113 0.586938 0.91142
856 1 0.511419 0.901022 0.929772
850 1 0.420421 0.904124 0.822205
651 1 0.071288 0.501777 0.580845
810 1 0.748918 0.574964 0.849856
816 1 0.830078 0.589984 0.926354
837 1 0.826484 0.667743 0.823633
21 1 0.834023 1.00061 1.0073
801 1 0.3203 0.498992 0.838006
839 1 0.915067 0.676404 0.913516
847 1 0.254287 0.837869 0.917664
819 1 0.0905005 0.671945 0.928992
820 1 -0.00142563 0.74309 0.921956
818 1 0.0672271 0.742253 0.840134
824 1 0.163465 0.756801 0.921081
828 1 0.332829 0.760282 0.911924
826 1 0.396801 0.743609 0.830953
851 1 0.408105 0.839135 0.916107
832 1 0.498105 0.756103 0.929767
831 1 0.582389 0.672129 0.921136
836 1 0.661482 0.757549 0.911653
833 1 0.677328 0.669614 0.850711
813 1 0.826095 0.505527 0.8374
739 1 0.741269 0.495807 0.764045
835 1 0.757482 0.698476 0.930733
859 1 0.754442 0.847266 0.910631
840 1 0.834229 0.759288 0.894384
844 1 -0.0108199 0.918835 0.920678
301 1 0.487643 1.00273 0.658199
797 1 0.163736 0.510126 0.830066
815 1 0.912499 0.50772 0.916598
377 1 0.665818 1.00804 0.820533
690 1 0.764742 0.74364 0.494281
735 1 0.58081 0.489565 0.747945
737 1 0.66829 0.504961 0.670723
442 1 0.419393 0.586574 0.997613
681 1 0.326401 0.663998 0.503656
474 1 0.761626 0.754809 1.02829
494 1 0.587244 0.92381 1.01225
706 1 0.409333 0.91758 0.50693
677 1 0.169708 0.663884 0.500854
481 1 -0.00474986 0.836398 1.00329
470 1 0.58916 0.75309 1.00607
501 1 0.83749 0.833764 0.994216
450 1 0.753841 0.608844 1.00142
486 1 0.266004 0.918532 1.02062
502 1 0.913896 0.915778 1.00186
469 1 0.502923 0.674189 1.00583
438 1 0.247023 0.573383 0.988355
9 1 0.326046 1.00663 0.987061
