ITEM: TIMESTEP
800
ITEM: NUMBER OF ATOMS
864
ITEM: BOX BOUNDS pp pp pp
0.0000000000000000e+00 3.1559999999999999e+01
0.0000000000000000e+00 3.1559999999999999e+01
0.0000000000000000e+00 3.1559999999999999e+01
ITEM: ATOMS id type xs ys zs
665 1 0.666327 0.489499 0.499767
581 1 0.18028 0.502562 0.330737
595 1 0.73899 0.488952 0.408941
4 1 -0.00500874 0.0850297 0.086081
216 1 0.838648 0.402066 0.405671
286 1 0.914324 0.410023 0.503868
215 1 0.913737 0.331056 0.41668
8 1 0.166957 0.0813151 0.0828531
23 1 0.914856 0.00216089 0.0953135
69 1 0.828806 0.336435 -0.00438399
282 1 0.763071 0.397221 0.502366
12 1 0.330331 0.079991 0.0801929
214 1 0.932093 0.411576 0.333867
157 1 0.503726 -0.00308722 0.338158
266 1 0.0984484 0.419439 0.489128
16 1 0.502616 0.0740767 0.0934159
61 1 0.492469 0.332643 -0.00240793
165 1 0.834419 0.00302513 0.32107
523 1 0.751318 0.509723 0.257994
20 1 0.66763 0.0735005 0.0882704
509 1 0.171044 0.49918 0.171096
89 1 0.655354 -0.00452495 0.170822
213 1 0.846715 0.325829 0.332589
24 1 0.830701 0.0840316 0.0821162
91 1 0.75354 -0.00315118 0.240255
93 1 0.829114 0.00462182 0.164195
27 1 0.086478 0.170119 0.0677041
28 1 0.0087243 0.238356 0.0818248
521 1 0.663653 0.497292 0.173201
159 1 0.574022 0.0036532 0.415223
31 1 0.253811 0.172106 0.0692633
32 1 0.161027 0.249402 0.0694244
26 1 0.078907 0.254289 -2.94779e-05
167 1 0.91843 -0.00244126 0.426751
35 1 0.408188 0.160192 0.0758951
36 1 0.333862 0.244908 0.0724839
73 1 0.014614 -0.00711461 0.180949
77 1 0.164328 -0.00916942 0.162921
39 1 0.585603 0.157557 0.0799322
40 1 0.50036 0.240281 0.0815166
649 1 0.00573891 0.489033 0.499216
87 1 0.579615 0.00952001 0.259404
43 1 0.75153 0.167421 0.0685868
44 1 0.67404 0.259103 0.0839936
599 1 0.923249 0.512949 0.41992
583 1 0.264402 0.504714 0.420098
47 1 0.903894 0.166095 0.088941
48 1 0.844139 0.25809 0.082819
285 1 0.849498 0.323085 0.510662
197 1 0.170286 0.33663 0.346946
51 1 0.0855675 0.334229 0.0807717
52 1 -0.00159644 0.405263 0.0825657
513 1 0.339001 0.507943 0.15824
83 1 0.423159 -0.0058925 0.257766
55 1 0.24813 0.329514 0.0625327
56 1 0.178809 0.412268 0.0813365
196 1 -0.0080841 0.401511 0.421428
195 1 0.0919799 0.330654 0.417835
59 1 0.425756 0.337391 0.080215
60 1 0.336163 0.408826 0.0887571
79 1 0.248119 0.000384138 0.246216
194 1 0.076681 0.414486 0.338304
63 1 0.570238 0.33487 0.0690845
64 1 0.499507 0.425424 0.0759457
218 1 0.0850409 0.0887462 0.509173
188 1 0.66443 0.245149 0.434753
67 1 0.751976 0.349914 0.0934029
68 1 0.662509 0.419148 0.0843556
30 1 0.236262 0.246801 -0.023181
193 1 0.00232069 0.327117 0.339615
71 1 0.907192 0.34432 0.0777941
72 1 0.834529 0.423815 0.0833536
505 1 0.0069318 0.495944 0.163147
74 1 0.0805659 0.0905526 0.173
212 1 0.648887 0.419784 0.417336
76 1 0.99794 0.0819088 0.243678
211 1 0.754777 0.326439 0.421562
78 1 0.263713 0.0923212 0.170782
210 1 0.756406 0.412526 0.321295
80 1 0.160529 0.0887602 0.245293
209 1 0.662073 0.328946 0.341481
82 1 0.41774 0.0863532 0.172194
208 1 0.509554 0.418108 0.410071
84 1 0.33595 0.0908829 0.259425
207 1 0.574633 0.324086 0.4281
86 1 0.579207 0.0800572 0.171869
192 1 0.835615 0.253406 0.424267
88 1 0.49559 0.0830854 0.251417
206 1 0.582447 0.407521 0.32859
90 1 0.740997 0.0902775 0.176853
205 1 0.498078 0.331493 0.338319
92 1 0.668952 0.0713238 0.261991
579 1 0.082101 0.500582 0.405712
94 1 0.908055 0.0883365 0.172667
185 1 0.666944 0.17013 0.333287
96 1 0.831652 0.0849276 0.253859
97 1 -0.00289019 0.16834 0.163278
98 1 0.0948073 0.249054 0.150609
99 1 0.089629 0.185245 0.244333
100 1 1.00235 0.253177 0.243047
101 1 0.170226 0.17083 0.16018
102 1 0.250335 0.252426 0.152213
103 1 0.23026 0.167984 0.245022
104 1 0.167993 0.256329 0.23998
105 1 0.344023 0.171792 0.160638
106 1 0.42812 0.243767 0.156282
107 1 0.419668 0.165044 0.257138
108 1 0.335255 0.239181 0.248122
109 1 0.498875 0.158781 0.17006
110 1 0.571733 0.241385 0.165096
111 1 0.585853 0.168767 0.255224
112 1 0.492036 0.245619 0.25722
113 1 0.661447 0.166876 0.156049
114 1 0.756668 0.241472 0.15835
115 1 0.743863 0.167289 0.255353
116 1 0.660949 0.250368 0.238651
117 1 0.838285 0.177208 0.167276
118 1 0.92758 0.248161 0.151839
119 1 0.928705 0.177473 0.259765
120 1 0.839543 0.261631 0.24333
121 1 0.0110989 0.326456 0.163871
122 1 0.087491 0.413696 0.160274
123 1 0.0862243 0.337742 0.250824
124 1 0.0113399 0.420092 0.238883
125 1 0.179715 0.330623 0.165625
126 1 0.25756 0.417821 0.172179
127 1 0.259942 0.323741 0.237561
128 1 0.169128 0.4093 0.252738
129 1 0.341678 0.332334 0.160952
130 1 0.419544 0.42644 0.165008
131 1 0.40674 0.329782 0.24931
132 1 0.344337 0.430472 0.245683
133 1 0.495908 0.337632 0.166365
134 1 0.572094 0.426707 0.156651
135 1 0.577567 0.327961 0.248321
136 1 0.496517 0.427533 0.24235
137 1 0.663645 0.33686 0.166808
138 1 0.745082 0.42472 0.18321
139 1 0.746325 0.320258 0.246566
140 1 0.660433 0.407512 0.254029
141 1 0.837901 0.34825 0.162829
142 1 0.922533 0.422053 0.172627
143 1 0.934319 0.334672 0.250629
144 1 0.852842 0.42655 0.264711
204 1 0.335195 0.417128 0.426891
146 1 0.0839667 0.0803669 0.329121
203 1 0.42089 0.337998 0.411761
148 1 0.000634197 0.077901 0.423638
202 1 0.418968 0.413313 0.328687
150 1 0.251804 0.0896371 0.333419
191 1 0.912854 0.167133 0.417837
152 1 0.158834 0.0817465 0.419586
201 1 0.330438 0.33705 0.338021
154 1 0.417311 0.0865623 0.331989
190 1 0.922385 0.253206 0.335412
156 1 0.325383 0.081984 0.426721
187 1 0.744718 0.17586 0.416946
158 1 0.587172 0.087385 0.335224
200 1 0.177323 0.426244 0.408246
160 1 0.502126 0.0893809 0.416665
199 1 0.26212 0.337477 0.422657
162 1 0.762113 0.0853968 0.334236
186 1 0.751264 0.24713 0.328284
164 1 0.680118 0.0906746 0.426101
189 1 0.839638 0.164683 0.327376
166 1 0.920898 0.0808616 0.323654
198 1 0.249271 0.411682 0.311281
168 1 0.837107 0.0720153 0.411105
169 1 0.00495397 0.158063 0.341741
170 1 0.0866383 0.245705 0.33131
171 1 0.0899158 0.166721 0.423767
172 1 0.00167076 0.247272 0.41926
173 1 0.161037 0.166277 0.343506
174 1 0.2478 0.248993 0.337779
175 1 0.246669 0.169739 0.427705
176 1 0.175297 0.246196 0.434045
177 1 0.335546 0.161737 0.340551
178 1 0.408811 0.252888 0.338704
179 1 0.41781 0.164158 0.424853
180 1 0.344845 0.25368 0.416774
181 1 0.501247 0.164461 0.340109
182 1 0.583018 0.251914 0.343641
183 1 0.587853 0.15905 0.423128
184 1 0.4945 0.242783 0.422982
155 1 0.424549 -0.00677282 0.415484
163 1 0.752388 0.000768058 0.409309
161 1 0.664899 0.00300265 0.344573
145 1 1.00287 0.000580457 0.34161
153 1 0.341043 0.0076096 0.338227
217 1 -0.00412724 -0.00401895 0.511201
511 1 0.261431 0.50869 0.246813
657 1 0.336719 0.495005 0.506227
269 1 0.170234 0.334185 0.515556
21 1 0.827735 -0.00414565 0.00629141
22 1 0.920097 0.0743931 0.0099293
70 1 0.923697 0.423036 0.00544981
245 1 0.169139 0.159977 0.504268
42 1 0.745831 0.24967 -0.000587378
278 1 0.573435 0.413756 0.508343
222 1 0.243843 0.0814188 0.497014
653 1 0.171102 0.499289 0.508276
49 1 1.00583 0.326841 0.00534302
669 1 0.839865 0.492386 0.498959
274 1 0.420794 0.413972 0.493461
25 1 0.991232 0.163989 0.00524592
65 1 0.662565 0.329954 -0.0116754
18 1 0.74298 0.0818399 0.0041949
46 1 0.919999 0.244381 0.00621082
432 1 0.835144 0.41756 0.911846
249 1 0.327352 0.166126 0.496163
257 1 0.668971 0.175052 0.516113
220 1 0.00191441 0.0903409 0.579155
431 1 0.918044 0.331995 0.924564
273 1 0.337415 0.332281 0.506177
301 1 0.501347 -0.00661729 0.671429
224 1 0.171924 0.0785139 0.581486
428 1 0.657261 0.427417 0.901077
281 1 0.65807 0.343324 0.488269
427 1 0.752056 0.336594 0.910495
228 1 0.318496 0.083593 0.575068
424 1 0.490172 0.415614 0.918512
246 1 0.261192 0.253799 0.498762
423 1 0.581038 0.331139 0.912651
232 1 0.497308 0.0752903 0.586069
651 1 0.0731459 0.51048 0.579056
659 1 0.40835 0.486888 0.587216
230 1 0.5799 0.084319 0.504017
236 1 0.668189 0.0732858 0.595109
420 1 0.332905 0.417367 0.909144
303 1 0.584033 -0.00732899 0.747007
419 1 0.410923 0.334129 0.911746
240 1 0.836365 0.0911139 0.581303
731 1 0.423056 0.507176 0.737932
219 1 0.0864945 -0.0017904 0.580926
243 1 0.0760773 0.178447 0.583806
244 1 0.993528 0.255034 0.582561
38 1 0.57465 0.258888 0.997111
735 1 0.579356 0.512341 0.747332
247 1 0.234029 0.168739 0.581431
248 1 0.156653 0.255554 0.587305
231 1 0.592074 -0.013742 0.591596
721 1 1.00562 0.50589 0.663507
251 1 0.407675 0.168694 0.604399
252 1 0.323094 0.250048 0.59775
261 1 0.836243 0.165059 0.502418
295 1 0.24995 -0.0126235 0.753359
255 1 0.577003 0.153668 0.582119
256 1 0.490691 0.254887 0.59926
234 1 0.741328 0.0783669 0.512729
250 1 0.414964 0.242175 0.520075
259 1 0.750649 0.162633 0.585409
260 1 0.673316 0.269921 0.581094
41 1 0.66299 0.181046 1.00162
58 1 0.406517 0.414847 1.00105
263 1 0.923804 0.173673 0.596467
264 1 0.836298 0.240781 0.593673
379 1 0.755393 -0.0099728 0.92163
241 1 1.00558 0.164374 0.492684
267 1 0.0830556 0.331709 0.584411
268 1 1.00275 0.407802 0.579883
667 1 0.754713 0.486318 0.568921
372 1 0.32384 0.0776257 0.917996
271 1 0.2455 0.335155 0.596054
272 1 0.161244 0.421556 0.579788
400 1 0.49463 0.257391 0.91907
368 1 0.146325 0.0688963 0.909893
275 1 0.411929 0.338322 0.589677
276 1 0.333811 0.418265 0.582196
805 1 0.500232 0.510388 0.826463
395 1 0.43034 0.161225 0.921819
279 1 0.585983 0.337058 0.584137
280 1 0.494232 0.421441 0.583965
392 1 0.154495 0.24324 0.914222
391 1 0.232799 0.147176 0.917172
283 1 0.758176 0.32984 0.591095
284 1 0.668127 0.406213 0.578985
34 1 0.420676 0.244304 0.999676
50 1 0.0847848 0.421417 1.00569
287 1 0.916067 0.32463 0.593924
288 1 0.840049 0.411691 0.585758
416 1 0.16442 0.417862 0.901539
290 1 0.0876992 0.08003 0.663062
388 1 1.00779 0.263652 0.920363
292 1 1.00363 0.0731053 0.750989
415 1 0.250501 0.344313 0.916786
362 1 0.0633185 0.0761814 0.840847
403 1 0.749825 0.164958 0.916923
294 1 0.238108 0.0870239 0.664318
387 1 0.0819675 0.167199 0.936613
296 1 0.152618 0.0828405 0.747309
14 1 0.589421 0.0848472 0.996614
366 1 0.25011 0.0816991 0.827493
412 1 1.00117 0.421469 0.928494
298 1 0.414765 0.0827286 0.66846
384 1 0.832505 0.094554 0.917586
300 1 0.327363 0.0786515 0.746508
396 1 0.337361 0.246762 0.918089
370 1 0.414776 0.0776766 0.833527
411 1 0.0849808 0.342311 0.923703
302 1 0.578628 0.0781852 0.671584
408 1 0.831037 0.265113 0.907996
304 1 0.513089 0.0852722 0.749631
407 1 0.915903 0.176565 0.918498
374 1 0.583184 0.0764391 0.834223
364 1 0.993003 0.088975 0.919254
306 1 0.759542 0.0745016 0.665868
399 1 0.587913 0.178967 0.922235
308 1 0.670696 0.0803724 0.753983
226 1 0.422694 0.0680973 0.495178
378 1 0.759661 0.0890002 0.842899
380 1 0.676177 0.0819962 0.911901
310 1 0.932501 0.0858993 0.666408
404 1 0.679181 0.249736 0.910445
312 1 0.83707 0.0863702 0.752262
376 1 0.497516 0.0768787 0.918913
382 1 0.913645 0.0793354 0.827986
313 1 0.00748454 0.173216 0.665156
314 1 0.0742816 0.261742 0.66375
315 1 0.0726148 0.164087 0.751438
316 1 1.016 0.257702 0.748915
385 1 1.00666 0.170972 0.849014
386 1 0.0750652 0.256853 0.845656
317 1 0.16046 0.163622 0.661978
318 1 0.236361 0.248299 0.669608
319 1 0.239003 0.169553 0.751805
320 1 0.155306 0.253387 0.749377
389 1 0.157723 0.154286 0.833464
390 1 0.260149 0.24776 0.838256
321 1 0.322738 0.164406 0.671102
322 1 0.415564 0.258921 0.672925
323 1 0.420495 0.166096 0.750464
324 1 0.329239 0.248122 0.743775
393 1 0.342253 0.172345 0.837734
394 1 0.420896 0.253811 0.831416
325 1 0.500617 0.163981 0.659904
326 1 0.577913 0.25279 0.660783
327 1 0.59221 0.159578 0.754572
328 1 0.50126 0.250179 0.744499
397 1 0.509291 0.169276 0.836228
398 1 0.586453 0.25184 0.829567
329 1 0.660151 0.155666 0.670301
330 1 0.746109 0.244599 0.675348
331 1 0.749728 0.168935 0.747523
332 1 0.661113 0.248493 0.753558
401 1 0.661439 0.166657 0.837393
402 1 0.74588 0.250402 0.828492
333 1 0.832696 0.164603 0.677696
334 1 0.922219 0.253013 0.687584
335 1 0.927975 0.156836 0.753507
336 1 0.824524 0.258935 0.756579
405 1 0.846178 0.167723 0.829299
406 1 0.923306 0.252032 0.818585
337 1 -0.00692568 0.340415 0.66933
338 1 0.0862287 0.422733 0.662311
339 1 0.0734148 0.345766 0.741713
340 1 -0.000819159 0.428996 0.746239
409 1 1.0004 0.350869 0.840434
410 1 0.077285 0.42939 0.83722
341 1 0.158219 0.338559 0.673311
342 1 0.246683 0.413147 0.67693
343 1 0.251828 0.329345 0.747747
344 1 0.156586 0.416008 0.751238
413 1 0.157049 0.328597 0.834533
414 1 0.24857 0.408942 0.833258
345 1 0.328729 0.334523 0.671806
346 1 0.408224 0.412731 0.6632
347 1 0.407419 0.338776 0.745715
348 1 0.340547 0.429211 0.758936
417 1 0.333007 0.335895 0.82383
418 1 0.406553 0.424721 0.832146
349 1 0.497288 0.343398 0.672177
350 1 0.57457 0.419093 0.675918
351 1 0.587584 0.337099 0.743926
352 1 0.487228 0.420721 0.751165
421 1 0.490095 0.336227 0.827184
422 1 0.580038 0.415365 0.822262
353 1 0.673807 0.336448 0.67368
354 1 0.744714 0.414906 0.660168
355 1 0.74481 0.336926 0.755911
356 1 0.664119 0.422355 0.741465
425 1 0.652747 0.33916 0.839295
426 1 0.748606 0.419175 0.827843
357 1 0.831643 0.33008 0.676651
358 1 0.919675 0.418336 0.671268
359 1 0.921576 0.334448 0.755109
360 1 0.83912 0.412877 0.760322
429 1 0.837524 0.337401 0.829141
430 1 0.912921 0.417964 0.841848
235 1 0.752354 -0.0129245 0.594852
57 1 0.338585 0.333314 0.995006
253 1 0.484606 0.162134 0.520399
37 1 0.49674 0.153861 1.0126
54 1 0.262961 0.411045 0.992296
2 1 0.0841027 0.078337 1.00212
10 1 0.412919 0.0853746 0.999721
33 1 0.330356 0.16105 0.995666
258 1 0.75909 0.251192 0.506149
45 1 0.842256 0.155924 1.00138
225 1 0.340734 -0.00660681 0.505834
270 1 0.256756 0.412471 0.498425
62 1 0.590372 0.410558 0.996896
265 1 0.999385 0.327131 0.504437
254 1 0.572101 0.243121 0.513994
233 1 0.668047 -0.00537132 0.49335
66 1 0.740993 0.428226 0.980519
6 1 0.240202 0.0754184 1.0046
53 1 0.167326 0.346678 0.994824
242 1 0.0827333 0.243068 0.500679
29 1 0.169396 0.16065 0.999397
277 1 0.497277 0.32886 0.50258
262 1 0.922018 0.240243 0.493688
449 1 0.667301 0.513244 0.982542
238 1 0.917083 0.0817268 0.494755
648 1 0.826869 0.920203 0.426244
486 1 0.242388 0.917919 0.000995534
646 1 0.909004 0.92281 0.336529
436 1 0.0114778 0.580437 0.08454
435 1 0.0940993 0.498314 0.0904113
461 1 0.173096 0.670504 -0.00117098
519 1 0.581875 0.50231 0.243269
440 1 0.174111 0.592711 0.0814424
654 1 0.248583 0.575971 0.505364
7 1 0.242232 0.992202 0.0831375
644 1 0.661571 0.914597 0.407795
444 1 0.329725 0.593388 0.0796965
451 1 0.750383 0.495106 0.0766526
147 1 0.0848536 1.00218 0.417353
642 1 0.750194 0.920083 0.333518
448 1 0.504484 0.577909 0.0738199
640 1 0.497728 0.908196 0.421874
473 1 0.659919 0.671972 -0.00642958
151 1 0.252055 1.00387 0.417179
452 1 0.670015 0.583697 0.0782036
638 1 0.586693 0.90991 0.332945
477 1 0.823973 0.678467 -0.00759659
636 1 0.336196 0.923073 0.417018
456 1 0.820923 0.580723 0.0834466
443 1 0.414202 0.500269 0.0727802
589 1 0.507842 0.504944 0.323095
459 1 0.0869048 0.659649 0.095038
460 1 0.990511 0.752113 0.0805153
450 1 0.743798 0.593659 -0.00735802
483 1 0.0835054 0.834594 0.0800263
527 1 0.919165 0.513308 0.246421
525 1 0.825424 0.493715 0.167254
463 1 0.254672 0.666204 0.0807111
464 1 0.180462 0.747476 0.0862324
75 1 0.102926 0.993145 0.250347
487 1 0.254287 0.839845 0.0859489
15 1 0.580212 1.0033 0.0813198
718 1 0.921552 0.911364 0.505139
467 1 0.418215 0.662236 0.0690315
468 1 0.333589 0.751698 0.0885238
517 1 0.498683 0.503219 0.154657
491 1 0.415304 0.822331 0.0897624
515 1 0.42463 0.50006 0.250555
593 1 0.661546 0.495847 0.32607
471 1 0.587237 0.664397 0.0715749
472 1 0.506347 0.746647 0.0817051
95 1 0.920248 1.00292 0.2447
495 1 0.587626 0.834097 0.0918232
149 1 0.164458 1.00054 0.345435
458 1 0.0894473 0.737001 -0.00765672
475 1 0.74071 0.671881 0.0668541
476 1 0.674789 0.762339 0.0811442
635 1 0.417268 0.829763 0.41417
499 1 0.749782 0.842923 0.089172
85 1 0.495768 1.00202 0.179398
639 1 0.580828 0.835186 0.416851
479 1 0.907248 0.664076 0.069074
480 1 0.824422 0.753818 0.0861142
637 1 0.502885 0.83011 0.335879
503 1 0.9088 0.827692 0.0829309
633 1 0.333758 0.82382 0.346348
484 1 1.00909 0.914354 0.0882282
612 1 0.333098 0.740005 0.424446
488 1 0.171042 0.917581 0.0799838
697 1 -0.00180085 0.834028 0.498639
492 1 0.328397 0.910571 0.0870723
457 1 0.00207087 0.656535 0.00487462
496 1 0.496979 0.920567 0.100032
610 1 0.412312 0.736122 0.336112
500 1 0.65945 0.921323 0.0795721
713 1 0.665077 0.833836 0.503783
504 1 0.834133 0.91736 0.0868115
634 1 0.409733 0.916953 0.332116
506 1 0.103537 0.580677 0.166804
632 1 0.163164 0.912784 0.416973
508 1 -0.00464449 0.593982 0.236937
81 1 0.352694 1.00176 0.173166
510 1 0.253322 0.582146 0.170741
616 1 0.49161 0.74685 0.417498
512 1 0.172866 0.57571 0.251729
630 1 0.242626 0.904122 0.349228
514 1 0.423151 0.59177 0.165091
628 1 1.00931 0.915091 0.420952
516 1 0.345366 0.586927 0.250977
626 1 0.0841986 0.90723 0.328673
518 1 0.590692 0.581059 0.162894
615 1 0.581761 0.66261 0.416395
520 1 0.512355 0.589874 0.247733
641 1 0.662737 0.840565 0.335022
522 1 0.746692 0.583427 0.170625
647 1 0.914823 0.831331 0.418087
524 1 0.669038 0.590787 0.252207
614 1 0.583446 0.74809 0.342467
526 1 0.918421 0.589284 0.155652
620 1 0.667824 0.748626 0.411031
528 1 0.831245 0.582406 0.245959
529 1 1.00708 0.672207 0.157
530 1 0.0803345 0.756501 0.153358
531 1 0.0971036 0.661927 0.250398
532 1 1.00606 0.738991 0.250318
553 1 0.995265 0.821848 0.170848
555 1 0.0847771 0.818493 0.248289
533 1 0.180139 0.670303 0.162477
534 1 0.258162 0.749581 0.167208
535 1 0.25016 0.660811 0.257172
536 1 0.168319 0.745836 0.243633
557 1 0.17819 0.831008 0.168925
559 1 0.24993 0.84035 0.256684
537 1 0.336496 0.661171 0.170248
538 1 0.41409 0.747618 0.159406
539 1 0.418533 0.673547 0.249785
540 1 0.332065 0.751875 0.254839
561 1 0.330852 0.82279 0.178538
563 1 0.42904 0.814094 0.254591
541 1 0.511148 0.668163 0.148139
542 1 0.592369 0.749617 0.171912
543 1 0.587529 0.67415 0.248904
544 1 0.5 0.740982 0.22778
565 1 0.504448 0.828545 0.161714
567 1 0.578426 0.842623 0.247115
545 1 0.667839 0.667255 0.166678
546 1 0.747708 0.753942 0.160502
547 1 0.737597 0.676785 0.250995
548 1 0.660094 0.752261 0.248399
569 1 0.66846 0.829489 0.167103
571 1 0.742047 0.835768 0.251402
549 1 0.819863 0.662986 0.153966
550 1 0.915927 0.744391 0.164929
551 1 0.910429 0.670626 0.25029
552 1 0.828436 0.749851 0.242113
573 1 0.834176 0.839423 0.16795
575 1 0.910431 0.832557 0.263268
554 1 0.084587 0.91037 0.171089
556 1 -0.00965315 0.913199 0.260724
558 1 0.254342 0.916438 0.168758
560 1 0.166716 0.912067 0.243482
562 1 0.415778 0.916471 0.173277
564 1 0.333845 0.928064 0.252982
566 1 0.58119 0.926516 0.174717
568 1 0.502624 0.916335 0.257417
570 1 0.737194 0.923072 0.163915
572 1 0.66761 0.915124 0.258039
574 1 0.924484 0.90845 0.167629
576 1 0.84466 0.922065 0.242142
619 1 0.747775 0.66101 0.420557
578 1 0.0948484 0.586221 0.335025
645 1 0.830288 0.842555 0.337455
580 1 -0.00234857 0.589489 0.425479
624 1 0.83454 0.749427 0.409048
582 1 0.257479 0.582606 0.340251
623 1 0.914397 0.657441 0.404352
584 1 0.176632 0.584092 0.420306
622 1 0.914309 0.743181 0.325254
586 1 0.427713 0.596722 0.336109
621 1 0.832021 0.668822 0.333316
588 1 0.335911 0.583666 0.417293
643 1 0.752877 0.83035 0.419068
590 1 0.588734 0.583179 0.320293
617 1 0.664526 0.667906 0.339595
592 1 0.502769 0.588559 0.417673
618 1 0.753706 0.751718 0.336624
594 1 0.75984 0.589175 0.329009
613 1 0.499202 0.670002 0.327171
596 1 0.665791 0.586112 0.4068
609 1 0.333315 0.662676 0.334312
598 1 0.914969 0.58453 0.327131
611 1 0.411013 0.670049 0.416279
600 1 0.828629 0.587741 0.427232
601 1 0.00402904 0.669107 0.33053
602 1 0.0755936 0.748248 0.336066
603 1 0.0657347 0.663932 0.415912
604 1 0.995236 0.744121 0.413115
625 1 -0.0125157 0.839947 0.346907
627 1 0.0827061 0.827486 0.415869
605 1 0.164295 0.666476 0.339992
606 1 0.250319 0.748295 0.329578
607 1 0.250349 0.667439 0.418049
608 1 0.168452 0.747509 0.413833
629 1 0.156025 0.823202 0.324865
631 1 0.245756 0.82381 0.422898
455 1 0.924557 0.494509 0.0920251
437 1 0.17044 0.49777 -0.0176544
19 1 0.7471 1.00451 0.0890148
489 1 0.343461 0.83742 0.00149902
694 1 0.924627 0.740463 0.498718
587 1 0.422948 0.499045 0.409843
462 1 0.260406 0.759903 0.00594187
693 1 0.830919 0.669794 0.49441
11 1 0.412878 1.00486 0.0824026
434 1 0.0962357 0.585834 0.000605651
577 1 -0.00320635 0.506042 0.326506
497 1 0.65603 0.839559 -0.0128234
591 1 0.584384 0.500452 0.414601
221 1 0.158773 0.999191 0.498014
690 1 0.743097 0.751924 0.505816
597 1 0.833578 0.49942 0.346884
439 1 0.260654 0.509759 0.0883549
3 1 0.0837486 0.998841 0.079278
507 1 0.0963864 0.490595 0.258449
585 1 0.339351 0.492453 0.329336
447 1 0.592353 0.50507 0.0703232
702 1 0.256028 0.910452 0.503811
662 1 0.588519 0.583516 0.498292
686 1 0.578389 0.742508 0.504822
678 1 0.2593 0.749361 0.524973
433 1 -0.00295347 0.498107 0.00943674
438 1 0.255394 0.596836 0.00118441
454 1 0.914605 0.580819 0.00679473
682 1 0.40828 0.744752 0.505217
714 1 0.738137 0.919914 0.503144
481 1 1.00076 0.840809 -0.00067604
661 1 0.494387 0.506372 0.505781
17 1 0.669711 0.998783 -0.00947768
5 1 0.161396 0.999383 -0.00430617
229 1 0.499907 0.993762 0.495459
1 1 -0.00429963 1.00396 -0.00691771
864 1 0.832713 0.91188 0.919115
743 1 0.911121 0.497078 0.744131
689 1 0.66432 0.670543 0.494296
652 1 -0.00647935 0.589145 0.566078
860 1 0.661532 0.922053 0.904822
490 1 0.415304 0.92062 1.00678
856 1 0.493844 0.91396 0.931474
656 1 0.166203 0.588716 0.58385
852 1 0.332664 0.911177 0.916425
377 1 0.677324 1.00674 0.832074
311 1 0.917219 0.994155 0.749644
660 1 0.330664 0.574442 0.590202
848 1 0.164496 0.910993 0.920232
227 1 0.414126 0.998057 0.583551
844 1 0.999585 0.916485 0.913277
664 1 0.519704 0.59033 0.58007
309 1 0.846744 1.00926 0.668309
729 1 0.332849 0.487464 0.663152
863 1 0.913444 0.830943 0.908905
668 1 0.668571 0.590482 0.573073
793 1 0.994165 0.502159 0.842882
441 1 0.334039 0.505264 0.999241
813 1 0.818291 0.496705 0.830693
672 1 0.827901 0.579078 0.585996
801 1 0.325149 0.503775 0.840662
803 1 0.426767 0.502966 0.911206
675 1 0.0925852 0.656772 0.574654
676 1 -0.00114872 0.744978 0.581172
800 1 0.163545 0.602342 0.91106
699 1 0.0872372 0.83212 0.577945
812 1 0.669426 0.599638 0.917433
671 1 0.921055 0.499077 0.580427
679 1 0.255294 0.66388 0.597446
680 1 0.163484 0.735092 0.592409
796 1 -0.0124311 0.58162 0.915349
703 1 0.254159 0.83122 0.592324
297 1 0.32642 0.994335 0.666861
828 1 0.337516 0.756515 0.923217
683 1 0.42037 0.648994 0.579603
684 1 0.336188 0.743681 0.592133
369 1 0.335685 1.0033 0.823507
707 1 0.422099 0.835724 0.581068
705 1 0.329702 0.833706 0.498241
862 1 0.913395 0.909476 0.827578
687 1 0.592626 0.667764 0.593032
688 1 0.503901 0.745225 0.588994
792 1 0.836248 0.914637 0.750889
711 1 0.581974 0.841253 0.578548
790 1 0.917898 0.918096 0.666596
858 1 0.747337 0.914541 0.830624
691 1 0.751741 0.663911 0.572032
692 1 0.665831 0.754902 0.584127
788 1 0.662283 0.922591 0.741785
715 1 0.750217 0.839407 0.585536
786 1 0.74848 0.917086 0.671726
854 1 0.575469 0.928901 0.832254
695 1 0.905909 0.674476 0.582432
696 1 0.833322 0.757887 0.578522
307 1 0.758285 1.00935 0.748225
719 1 0.92116 0.822361 0.569697
820 1 -0.00534486 0.749884 0.923085
700 1 -0.00542491 0.919494 0.584281
784 1 0.497785 0.921235 0.755945
704 1 0.169414 0.919002 0.590107
823 1 0.25225 0.675794 0.919803
708 1 0.331142 0.906117 0.575559
782 1 0.572715 0.910837 0.669318
712 1 0.49749 0.912813 0.572047
367 1 0.23824 0.994409 0.91459
716 1 0.668057 0.910851 0.598105
843 1 0.0869315 0.823634 0.90541
720 1 0.831022 0.911576 0.589875
819 1 0.073015 0.672389 0.91787
722 1 0.0897901 0.582398 0.667868
840 1 0.837491 0.758484 0.912871
724 1 -0.00494842 0.571271 0.74338
839 1 0.910087 0.669178 0.925463
794 1 0.0812419 0.586298 0.838725
816 1 0.826812 0.581855 0.916855
726 1 0.256208 0.582389 0.673937
824 1 0.166553 0.743636 0.911645
728 1 0.163665 0.581083 0.740426
847 1 0.25395 0.825617 0.922129
798 1 0.244757 0.585115 0.837357
859 1 0.745763 0.837585 0.922453
730 1 0.421253 0.589315 0.665612
836 1 0.661979 0.76553 0.91002
732 1 0.337575 0.571902 0.740561
808 1 0.509899 0.587016 0.901199
802 1 0.419525 0.577581 0.830968
835 1 0.751754 0.684587 0.902787
734 1 0.590926 0.584937 0.666517
850 1 0.414665 0.923164 0.825311
736 1 0.49845 0.595306 0.746409
478 1 0.915477 0.752125 1.00285
806 1 0.584569 0.601413 0.827209
855 1 0.571576 0.83782 0.912947
738 1 0.752263 0.592347 0.668828
827 1 0.427235 0.668974 0.904113
740 1 0.658401 0.595972 0.743993
832 1 0.503428 0.755773 0.916549
810 1 0.737914 0.591238 0.82169
831 1 0.585977 0.675808 0.921447
742 1 0.915171 0.584518 0.659215
804 1 0.326929 0.589683 0.917756
744 1 0.836598 0.581799 0.739425
851 1 0.417575 0.843554 0.924508
814 1 0.903461 0.574767 0.835766
745 1 1.0022 0.657946 0.668229
746 1 0.0883261 0.736549 0.663883
747 1 0.074572 0.652923 0.75448
748 1 -0.0039475 0.747158 0.742182
769 1 -0.00389088 0.822408 0.660088
771 1 0.0826578 0.821448 0.750132
817 1 -0.00969364 0.66727 0.836925
818 1 0.0884112 0.744088 0.825945
841 1 -0.00825664 0.81342 0.839692
749 1 0.170902 0.656704 0.664453
750 1 0.257442 0.750968 0.672226
751 1 0.262436 0.663099 0.756621
752 1 0.175378 0.747788 0.749852
773 1 0.175021 0.834353 0.673831
775 1 0.250759 0.83254 0.752141
821 1 0.17228 0.668461 0.82746
822 1 0.252123 0.749433 0.835734
845 1 0.176138 0.819263 0.835725
753 1 0.338261 0.663143 0.673053
754 1 0.420506 0.739458 0.672874
755 1 0.415763 0.672287 0.751788
756 1 0.334309 0.759447 0.749816
777 1 0.340493 0.826003 0.668957
779 1 0.419634 0.836971 0.74357
825 1 0.334906 0.670212 0.835756
826 1 0.416541 0.767231 0.836737
849 1 0.331033 0.830274 0.833203
757 1 0.497852 0.663178 0.664588
758 1 0.585303 0.760173 0.666453
759 1 0.574901 0.682314 0.738158
760 1 0.495391 0.765958 0.752721
781 1 0.496168 0.829878 0.657932
783 1 0.583248 0.837937 0.748278
829 1 0.501129 0.682197 0.827773
830 1 0.575881 0.758762 0.829338
853 1 0.500803 0.841608 0.832028
761 1 0.66682 0.666593 0.660657
762 1 0.748112 0.745501 0.647647
763 1 0.740135 0.674096 0.74071
764 1 0.664733 0.760198 0.742609
785 1 0.670401 0.834085 0.665041
787 1 0.762653 0.837573 0.744427
833 1 0.661245 0.683083 0.818428
834 1 0.747296 0.75689 0.827982
857 1 0.662046 0.843207 0.824907
765 1 0.833736 0.672241 0.679055
766 1 0.91878 0.747681 0.665467
767 1 0.910601 0.659367 0.75203
768 1 0.825478 0.753031 0.754547
789 1 0.839455 0.826483 0.667185
791 1 0.923391 0.825122 0.749498
837 1 0.823227 0.675455 0.815346
838 1 0.905749 0.748544 0.82552
861 1 0.832168 0.830668 0.830658
770 1 0.0717864 0.911044 0.660709
772 1 0.00128064 0.916291 0.750754
842 1 0.0777033 0.895469 0.823245
774 1 0.253573 0.911775 0.674669
776 1 0.169466 0.91677 0.751058
846 1 0.247006 0.9019 0.841371
778 1 0.422194 0.919454 0.663962
780 1 0.336745 0.910166 0.751014
655 1 0.256017 0.488535 0.595891
815 1 0.906668 0.4953 0.924101
650 1 0.0881825 0.576884 0.487184
299 1 0.41676 1.00522 0.74524
383 1 0.916238 0.998471 0.918812
799 1 0.248776 0.498339 0.915487
474 1 0.745364 0.759618 1.00416
723 1 0.0904392 0.500302 0.749617
373 1 0.493222 1.00313 0.830249
381 1 0.83315 1.00316 0.838377
466 1 0.422681 0.750134 1.00123
293 1 0.172857 0.998638 0.667557
739 1 0.739028 0.508236 0.740314
706 1 0.414797 0.916877 0.487396
795 1 0.0794959 0.50497 0.932974
289 1 -0.00326232 0.996034 0.667548
375 1 0.575369 0.997363 0.92306
371 1 0.399236 0.99495 0.92141
363 1 0.0746304 0.984873 0.912537
737 1 0.688236 0.507889 0.647112
13 1 0.488006 1.00573 1.00199
291 1 0.0801777 0.987756 0.73971
710 1 0.583218 0.916785 0.492494
223 1 0.256294 0.990218 0.591501
733 1 0.500502 0.503841 0.652218
361 1 0.992503 0.989668 0.833023
663 1 0.597292 0.503601 0.585223
239 1 0.910695 0.992849 0.589001
709 1 0.498731 0.827481 0.496207
502 1 0.922298 0.912042 1.01502
717 1 0.829875 0.845079 0.501704
666 1 0.747669 0.568801 0.490626
811 1 0.741118 0.507023 0.905584
797 1 0.16325 0.50531 0.840925
807 1 0.581343 0.504787 0.901206
809 1 0.659513 0.498456 0.82044
741 1 0.830892 0.499246 0.663558
725 1 0.168514 0.507495 0.664552
237 1 0.832332 0.996962 0.506179
305 1 0.664378 1.00182 0.669004
727 1 0.246332 0.499606 0.752194
365 1 0.147046 0.989941 0.829847
470 1 0.585462 0.756114 0.999097
442 1 0.41366 0.577368 0.991973
465 1 0.343256 0.673212 0.994571
701 1 0.164035 0.834508 0.496076
485 1 0.166724 0.82984 0.999548
698 1 0.0815605 0.919497 0.501752
673 1 1.00199 0.672531 0.500882
681 1 0.334581 0.666069 0.51191
493 1 0.502573 0.838793 1.01951
677 1 0.168625 0.670505 0.497166
670 1 0.912577 0.583658 0.498642
453 1 0.835122 0.505325 1.00147
674 1 0.0720832 0.748094 0.498533
469 1 0.498163 0.658812 0.996102
446 1 0.578935 0.586152 0.991573
9 1 0.33483 1.00127 1.00128
658 1 0.421798 0.574467 0.501825
501 1 0.823229 0.83149 1.01042
482 1 0.088113 0.91845 0.997804
685 1 0.496941 0.670574 0.497635
494 1 0.566101 0.925397 1.01377
498 1 0.748383 0.920968 1.00851
445 1 0.500752 0.503122 0.989883
