ITEM: TIMESTEP
14500
ITEM: NUMBER OF ATOMS
5324
ITEM: BOX BOUNDS pp pp pp
0.0000000000000000e+00 5.7859999999999999e+01
0.0000000000000000e+00 5.7859999999999999e+01
0.0000000000000000e+00 5.7859999999999999e+01
ITEM: ATOMS id type xs ys zs
47 1 0.0365753 0.100022 0.0428429
244 1 0.0430434 0.049277 0.0848832
291 1 0.0909277 0.0893719 0.0857897
287 1 0.999332 0.089878 0.0864275
8 1 0.092538 0.0417364 0.0425594
4 1 0.00106901 0.0423932 0.0408156
2672 1 0.365237 0.496403 0.0433013
51 1 0.13415 0.0965204 0.0477667
248 1 0.128243 0.0393695 0.0900852
295 1 0.178505 0.0892744 0.0944112
3641 1 0.502176 0.496669 0.357092
2682 1 0.812693 0.492947 0.0473133
3165 1 0.857948 0.498677 0.178353
12 1 0.177947 0.0468529 0.0437325
55 1 0.216316 0.0927696 0.042317
252 1 0.224546 0.0386486 0.0898051
299 1 0.267521 0.0904989 0.0893383
2671 1 0.410566 0.497392 0.000407526
16 1 0.263342 0.0466799 0.050335
59 1 0.322948 0.0981678 0.0425898
256 1 0.326216 0.045548 0.0884537
20 1 0.360809 0.0433729 0.0420957
3406 1 0.727089 0.488075 0.312553
303 1 0.368865 0.0925413 0.0872151
63 1 0.406908 0.0900095 0.0424858
260 1 0.404918 0.0419884 0.0829417
24 1 0.450312 0.0450187 0.0416395
3398 1 0.360637 0.499392 0.31843
2670 1 0.278524 0.497366 0.0348106
67 1 0.503696 0.0918545 0.0398141
264 1 0.505252 0.0471538 0.0841081
307 1 0.460818 0.0912959 0.0873926
28 1 0.550121 0.0441295 0.0464121
281 1 0.864302 0.000391745 0.135348
3642 1 0.460424 0.49999 0.404084
743 1 0.365978 0.00359152 0.275365
311 1 0.546594 0.0915038 0.087692
71 1 0.59244 0.0893914 0.0423256
268 1 0.594429 0.0532704 0.0974077
32 1 0.633504 0.049454 0.0482852
751 1 0.548031 0.00424935 0.282235
2684 1 0.907084 0.49555 0.0452344
315 1 0.641461 0.095403 0.0929504
272 1 0.684211 0.0444949 0.0905535
75 1 0.687775 0.0907965 0.0395821
2666 1 0.0925919 0.494725 0.0460371
1369 1 0.63681 0.135877 0.499984
36 1 0.725592 0.0440385 0.0426683
79 1 0.772181 0.0954653 0.0443183
276 1 0.772307 0.0510197 0.0909186
40 1 0.817405 0.05556 0.0444833
323 1 0.812985 0.089498 0.0943263
319 1 0.727632 0.0940784 0.0891623
280 1 0.862089 0.0459354 0.0937725
83 1 0.867178 0.0929451 0.0547
327 1 0.910559 0.0893158 0.0938628
44 1 0.915799 0.0497506 0.046985
3402 1 0.536581 0.495493 0.307459
284 1 0.956465 0.0495612 0.0908633
87 1 0.953031 0.0973689 0.0463929
2924 1 0.82308 0.496219 0.132881
91 1 0.035541 0.187182 0.0463509
288 1 0.0406312 0.141373 0.0881902
48 1 0.991743 0.145673 0.0494495
85 1 0.902649 0.0957501 0.000494302
52 1 0.0887588 0.138303 0.042623
335 1 0.0839684 0.181709 0.0858645
95 1 0.131469 0.185465 0.0471958
292 1 0.129245 0.139034 0.0857913
56 1 0.180761 0.139895 0.0494939
339 1 0.184609 0.192485 0.0817642
99 1 0.237527 0.192415 0.0441835
296 1 0.228737 0.147445 0.0927068
757 1 0.68533 0.00442031 0.320866
343 1 0.27472 0.181296 0.0867383
60 1 0.272612 0.136874 0.0391238
103 1 0.311451 0.182229 0.0379626
300 1 0.317468 0.135319 0.0870891
347 1 0.351756 0.180254 0.0857228
2677 1 0.682541 0.499641 0.00792823
64 1 0.360785 0.140485 0.0389895
107 1 0.402126 0.183365 0.0392458
304 1 0.403416 0.138747 0.082692
3160 1 0.543974 0.49637 0.22376
517 1 0.725968 0.00689878 0.189305
68 1 0.457465 0.134578 0.0469467
111 1 0.499249 0.186197 0.0590395
308 1 0.502091 0.136424 0.094582
72 1 0.537135 0.139807 0.0431301
182 1 0.142645 0.398828 0.00244229
355 1 0.546512 0.181764 0.0961858
115 1 0.589922 0.187498 0.0410918
312 1 0.592432 0.144523 0.086806
2908 1 0.0997376 0.491665 0.128385
76 1 0.638459 0.134686 0.0464676
119 1 0.688617 0.179679 0.0470945
316 1 0.679813 0.137575 0.0876149
363 1 0.730048 0.182163 0.0928334
501 1 0.364033 0.00261509 0.177613
3648 1 0.73205 0.491853 0.415872
80 1 0.726132 0.138571 0.0477166
123 1 0.785879 0.177655 0.0458341
320 1 0.776436 0.144973 0.0967885
367 1 0.824306 0.179568 0.0972451
84 1 0.823689 0.135853 0.0553501
127 1 0.865057 0.179621 0.0529286
324 1 0.866875 0.136661 0.0938717
88 1 0.909308 0.143239 0.039818
371 1 0.912225 0.18211 0.102801
1385 1 0.365123 0.229206 0.495001
27 1 0.591747 0.000801403 0.0493951
251 1 0.177901 0.00574554 0.091341
331 1 0.991419 0.187331 0.0910717
131 1 0.946096 0.186802 0.0496915
328 1 0.956499 0.139049 0.0949151
2922 1 0.729882 0.495267 0.140137
3164 1 0.730655 0.485223 0.22199
135 1 0.0356623 0.264391 0.0344012
332 1 0.0442554 0.224289 0.0957845
375 1 0.00155671 0.271285 0.0860691
379 1 0.080511 0.270358 0.0858581
38 1 0.86502 0.0444366 0.00451233
96 1 0.0842919 0.224595 0.044823
139 1 0.129565 0.266898 0.0409063
336 1 0.129843 0.234263 0.088321
100 1 0.181379 0.227973 0.0379311
383 1 0.188096 0.258663 0.0865548
143 1 0.230222 0.266862 0.0397498
340 1 0.241704 0.228752 0.093938
104 1 0.27675 0.232173 0.0494101
147 1 0.317592 0.278443 0.0389354
344 1 0.313735 0.222435 0.0903586
387 1 0.278324 0.274617 0.091433
739 1 0.2799 0.0138742 0.27605
741 1 0.317754 0.00871533 0.327689
3390 1 0.995959 0.493238 0.319792
108 1 0.363652 0.230594 0.0401752
391 1 0.361295 0.271784 0.0845104
151 1 0.406939 0.279089 0.0428105
348 1 0.407681 0.228694 0.0814678
112 1 0.455604 0.221411 0.0453085
727 1 0.996953 0.0030989 0.271942
395 1 0.446566 0.271718 0.0893396
155 1 0.497814 0.273189 0.0479883
352 1 0.495464 0.233554 0.0949028
116 1 0.547351 0.22816 0.0483805
399 1 0.541506 0.271593 0.099696
3404 1 0.630505 0.49788 0.312634
3640 1 0.353756 0.497012 0.403011
159 1 0.585842 0.269794 0.0466444
2678 1 0.636687 0.493986 0.0448428
120 1 0.63876 0.222699 0.0500776
356 1 0.588226 0.227863 0.0948831
1375 1 0.918776 0.143361 0.499463
403 1 0.630113 0.274213 0.0940788
163 1 0.687676 0.280955 0.0420555
360 1 0.683989 0.232775 0.0899024
124 1 0.730649 0.225298 0.0509515
157 1 0.541434 0.282358 0.000986645
407 1 0.728475 0.270122 0.0895585
167 1 0.777056 0.270419 0.0461255
364 1 0.778931 0.223475 0.0974387
128 1 0.823497 0.227597 0.042884
411 1 0.822382 0.271139 0.0862188
257 1 0.322734 0.00460588 0.13469
753 1 0.595236 0.00797739 0.329113
78 1 0.775825 0.135359 0.00285777
171 1 0.862913 0.278224 0.0477921
368 1 0.871081 0.228798 0.0916447
1423 1 0.0925184 0.416541 0.498631
132 1 0.907718 0.229685 0.0442246
92 1 0.995263 0.225773 0.0373879
415 1 0.912744 0.279187 0.0880301
175 1 0.956244 0.276268 0.0394133
372 1 0.951726 0.232878 0.0915668
519 1 0.776487 0.00158714 0.224171
3147 1 0.0535692 0.487991 0.17407
179 1 0.0457225 0.360705 0.0480684
376 1 0.0417931 0.309495 0.0733424
140 1 0.0942696 0.319971 0.0469935
423 1 0.0939353 0.363535 0.0910773
183 1 0.148168 0.35703 0.0488312
380 1 0.138742 0.305829 0.0895409
144 1 0.184544 0.307067 0.0402251
427 1 0.186871 0.366309 0.0949994
187 1 0.230638 0.359053 0.0474065
384 1 0.216293 0.317056 0.0943524
148 1 0.278403 0.321508 0.0455846
431 1 0.270341 0.359103 0.094621
191 1 0.317087 0.3701 0.0350692
388 1 0.325369 0.320254 0.0866143
118 1 0.680363 0.227267 0.00345536
3152 1 0.183358 0.497639 0.229579
435 1 0.368433 0.370192 0.092462
152 1 0.362519 0.33057 0.0397437
195 1 0.414004 0.372915 0.0454561
392 1 0.400056 0.317272 0.0899355
981 1 0.271148 0.00569981 0.371863
156 1 0.445085 0.323567 0.0447846
439 1 0.452575 0.35421 0.0958344
199 1 0.499891 0.355504 0.0548735
160 1 0.545395 0.309294 0.0513138
396 1 0.49467 0.314822 0.100221
203 1 0.578204 0.36092 0.0524091
443 1 0.544187 0.358886 0.0980549
400 1 0.588174 0.315025 0.0908242
164 1 0.637698 0.317021 0.0544171
267 1 0.55124 0.00231549 0.0930888
207 1 0.673617 0.36492 0.0523441
404 1 0.681315 0.317044 0.0906026
168 1 0.72835 0.321363 0.0457588
7 1 0.142195 0.000254144 0.0401651
1448 1 0.592612 0.457675 0.495936
211 1 0.775276 0.35827 0.0391331
408 1 0.768158 0.31373 0.0985446
455 1 0.824043 0.363231 0.0798999
172 1 0.819488 0.317051 0.0420886
451 1 0.730439 0.365229 0.0907864
1435 1 0.638962 0.407807 0.499203
82 1 0.856696 0.143444 0.00496523
215 1 0.870877 0.355799 0.0417005
412 1 0.863999 0.31652 0.091
459 1 0.909043 0.368859 0.0913876
176 1 0.914435 0.323212 0.0433899
3166 1 0.82421 0.495264 0.236001
136 1 0.998985 0.324109 0.0381028
219 1 0.94895 0.369515 0.0455315
419 1 0.00111221 0.363326 0.0915138
511 1 0.583159 0.00798312 0.231384
222 1 0.0398676 0.44779 0.0346426
463 1 0.999415 0.441124 0.0847579
420 1 0.050686 0.407258 0.0866832
184 1 0.0959736 0.406554 0.0450774
465 1 0.101793 0.45208 0.0798928
224 1 0.137755 0.45462 0.0352089
424 1 0.136505 0.399476 0.087754
265 1 0.50121 0.00119464 0.142327
277 1 0.768518 0.00363053 0.140227
3149 1 0.144936 0.495438 0.177825
188 1 0.178981 0.41093 0.0466354
467 1 0.184598 0.453596 0.0812826
226 1 0.231148 0.458134 0.0427923
428 1 0.233535 0.410355 0.0847963
153 1 0.451605 0.275964 0.00340593
2906 1 0.00235429 0.483514 0.127838
469 1 0.271486 0.455754 0.081495
432 1 0.312858 0.398439 0.088408
192 1 0.269867 0.409102 0.0441827
228 1 0.318378 0.452258 0.0457352
2923 1 0.86627 0.487003 0.0914567
1405 1 0.264468 0.32006 0.497874
196 1 0.364993 0.40939 0.0475957
230 1 0.411306 0.444603 0.0537897
436 1 0.413382 0.408272 0.0992652
200 1 0.463401 0.412139 0.0503008
232 1 0.500341 0.459562 0.0492977
440 1 0.498957 0.401254 0.0919807
204 1 0.542202 0.409888 0.0501865
473 1 0.456799 0.453303 0.0928485
509 1 0.550828 0.00146382 0.18187
444 1 0.595078 0.40778 0.0918454
475 1 0.54855 0.461609 0.0951524
234 1 0.592962 0.452303 0.0519176
477 1 0.636717 0.458597 0.098783
1217 1 0.279864 0.00508978 0.457711
1433 1 0.550577 0.413585 0.498818
208 1 0.636853 0.406686 0.0455201
236 1 0.688001 0.456186 0.0445968
448 1 0.675765 0.416791 0.0880758
1188 1 0.899811 0.409635 0.415825
999 1 0.682975 0.00332474 0.410778
452 1 0.77866 0.402345 0.0878305
212 1 0.727459 0.401133 0.0402131
479 1 0.734059 0.447996 0.0849123
238 1 0.778319 0.443167 0.0422886
481 1 0.82412 0.44562 0.0935303
216 1 0.823344 0.404159 0.0427492
985 1 0.361329 0.00948299 0.371049
1331 1 0.901548 0.462034 0.456993
253 1 0.2282 0.00049375 0.134977
240 1 0.858649 0.452359 0.0443705
456 1 0.865884 0.407215 0.0939456
220 1 0.902516 0.41021 0.0470355
73 1 0.636893 0.0882666 0.000495297
180 1 0.999557 0.40499 0.0365981
483 1 0.913346 0.450239 0.0968393
242 1 0.951186 0.446206 0.0478719
460 1 0.953867 0.400858 0.0943258
289 1 0.0432254 0.0903008 0.126679
486 1 0.0397029 0.0451437 0.181221
250 1 0.080674 0.0456014 0.13057
533 1 0.0791368 0.0918067 0.175345
490 1 0.136275 0.036841 0.175754
293 1 0.12684 0.0879089 0.136968
254 1 0.186362 0.0478187 0.132258
537 1 0.18077 0.100734 0.17261
494 1 0.224049 0.0470402 0.183684
297 1 0.226494 0.0921143 0.132106
541 1 0.268906 0.0908494 0.180609
258 1 0.273747 0.0447425 0.13146
498 1 0.317562 0.0494836 0.179069
301 1 0.313929 0.0901576 0.128903
262 1 0.365299 0.0438141 0.134948
545 1 0.364187 0.0929864 0.185204
1320 1 0.954551 0.409174 0.459947
1210 1 0.954084 0.456789 0.420673
305 1 0.413976 0.0881823 0.128608
502 1 0.41513 0.0533845 0.176067
3637 1 0.317964 0.49652 0.3579
266 1 0.462833 0.0456842 0.130896
549 1 0.458923 0.0880578 0.178353
506 1 0.507779 0.0392615 0.186127
309 1 0.499263 0.0926286 0.1354
243 1 0.997568 0.00749123 0.0897795
270 1 0.545625 0.0484424 0.136616
553 1 0.542431 0.085235 0.182464
313 1 0.58962 0.0915425 0.140845
510 1 0.588387 0.0442832 0.18683
274 1 0.639081 0.0468588 0.145763
557 1 0.639373 0.0862499 0.189658
3874 1 0.134733 0.498529 0.461096
317 1 0.68511 0.0899863 0.136601
514 1 0.682825 0.0460189 0.185801
561 1 0.725773 0.0888697 0.185267
278 1 0.730509 0.0450362 0.140878
261 1 0.415564 0.00685966 0.135397
518 1 0.769406 0.0537847 0.181705
3636 1 0.183096 0.498459 0.40768
282 1 0.814781 0.0463988 0.138459
321 1 0.769777 0.100635 0.135575
3410 1 0.907822 0.493712 0.328362
565 1 0.818286 0.0899953 0.181747
325 1 0.861596 0.0917618 0.139218
522 1 0.868973 0.0493859 0.1815
286 1 0.908347 0.0463494 0.135972
246 1 0.996195 0.0472732 0.136091
529 1 0.996959 0.0869223 0.181266
569 1 0.911443 0.0916308 0.187259
526 1 0.954264 0.0484 0.180524
329 1 0.954063 0.0871924 0.133528
333 1 0.0381194 0.178068 0.13246
530 1 0.0471048 0.144927 0.178349
573 1 0.999066 0.179723 0.188199
290 1 0.995519 0.13815 0.143039
294 1 0.0872265 0.136838 0.130352
577 1 0.0878501 0.179101 0.18217
337 1 0.1341 0.18404 0.127705
534 1 0.127874 0.134542 0.176187
298 1 0.176266 0.146636 0.130546
581 1 0.177182 0.181669 0.182055
341 1 0.221943 0.185639 0.139263
538 1 0.230186 0.13603 0.172631
585 1 0.275346 0.182683 0.184196
302 1 0.276509 0.134265 0.131694
345 1 0.31692 0.181197 0.137111
542 1 0.310476 0.132063 0.18308
589 1 0.359669 0.173881 0.174977
306 1 0.361606 0.135162 0.130955
349 1 0.409813 0.174963 0.141647
546 1 0.415772 0.137906 0.188991
310 1 0.452709 0.128328 0.140652
593 1 0.465623 0.173448 0.183809
351 1 0.450541 0.180954 0.0961816
353 1 0.501874 0.190288 0.139416
550 1 0.499888 0.127964 0.177747
597 1 0.541934 0.183154 0.183496
314 1 0.544634 0.143252 0.136708
359 1 0.639716 0.17637 0.0960932
357 1 0.590951 0.182046 0.144089
554 1 0.585277 0.130931 0.185713
318 1 0.632798 0.132986 0.142744
601 1 0.644202 0.19135 0.178247
361 1 0.685011 0.189192 0.129666
558 1 0.680716 0.144808 0.180353
322 1 0.720491 0.139346 0.135811
605 1 0.728572 0.177444 0.186983
365 1 0.779791 0.183051 0.139602
562 1 0.77903 0.132675 0.179715
609 1 0.823533 0.183599 0.177279
326 1 0.83188 0.138103 0.143252
369 1 0.870985 0.182664 0.142057
566 1 0.86222 0.135509 0.194791
330 1 0.908693 0.135871 0.140805
613 1 0.913763 0.184608 0.184736
373 1 0.961109 0.186723 0.141344
570 1 0.949573 0.139656 0.179498
377 1 0.0440989 0.281873 0.142663
574 1 0.0501784 0.224806 0.172884
334 1 0.995317 0.233772 0.132703
338 1 0.0881177 0.234755 0.131414
621 1 0.0954506 0.27495 0.184351
381 1 0.138064 0.263613 0.133652
578 1 0.134643 0.221089 0.187363
625 1 0.178222 0.271442 0.179428
342 1 0.181612 0.223489 0.13992
385 1 0.223296 0.267962 0.136776
582 1 0.2204 0.228617 0.179288
346 1 0.274041 0.223905 0.13822
629 1 0.264673 0.267774 0.18201
389 1 0.31878 0.267409 0.13621
586 1 0.320452 0.224577 0.183443
633 1 0.359636 0.270646 0.183806
350 1 0.367492 0.227681 0.12736
393 1 0.407029 0.26764 0.139416
590 1 0.404898 0.222541 0.176987
354 1 0.445266 0.224779 0.131292
637 1 0.455972 0.269302 0.188771
397 1 0.500215 0.269165 0.145308
594 1 0.498453 0.218565 0.1944
358 1 0.549328 0.229185 0.138055
641 1 0.54654 0.262426 0.182124
401 1 0.589135 0.279289 0.136869
598 1 0.591939 0.227799 0.188891
362 1 0.634617 0.227182 0.136188
645 1 0.634639 0.268448 0.176035
405 1 0.685777 0.271504 0.134676
602 1 0.685373 0.23003 0.176182
366 1 0.730934 0.226664 0.138202
649 1 0.730885 0.274489 0.180541
409 1 0.777827 0.262614 0.139702
606 1 0.77625 0.226464 0.180187
653 1 0.820787 0.277298 0.17845
370 1 0.82631 0.230553 0.134365
413 1 0.866931 0.278316 0.137832
610 1 0.863019 0.230506 0.182388
657 1 0.906521 0.271757 0.188297
617 1 0.00653527 0.270503 0.189568
374 1 0.910526 0.233115 0.139715
417 1 0.957745 0.27519 0.154631
614 1 0.955531 0.226519 0.190251
421 1 0.0503257 0.359458 0.136788
618 1 0.0517813 0.316198 0.196253
378 1 0.995454 0.317196 0.140641
661 1 0.00811177 0.363946 0.179711
382 1 0.0913817 0.313545 0.135882
665 1 0.0973608 0.355349 0.185433
425 1 0.144219 0.359533 0.130982
622 1 0.141005 0.317432 0.188561
386 1 0.172045 0.309688 0.129432
669 1 0.186067 0.363715 0.179683
429 1 0.232345 0.367213 0.133384
626 1 0.229215 0.314935 0.183899
390 1 0.275797 0.318899 0.138455
673 1 0.273238 0.362988 0.184297
433 1 0.32019 0.363077 0.133503
630 1 0.315338 0.31444 0.177773
677 1 0.36514 0.358109 0.177875
394 1 0.359267 0.311748 0.134893
437 1 0.404015 0.362243 0.136844
634 1 0.401638 0.312709 0.17878
681 1 0.448208 0.359746 0.17302
398 1 0.445199 0.311277 0.138066
441 1 0.49996 0.365162 0.137453
638 1 0.490385 0.318208 0.172336
685 1 0.545426 0.361688 0.178727
447 1 0.630996 0.360727 0.0936623
402 1 0.542119 0.31665 0.139481
445 1 0.586439 0.369162 0.135893
642 1 0.593427 0.323129 0.174221
689 1 0.639241 0.3675 0.177009
686 1 0.5873 0.403373 0.182814
406 1 0.640137 0.315961 0.129344
449 1 0.678068 0.368962 0.133149
646 1 0.6741 0.319739 0.180079
693 1 0.724187 0.364856 0.178932
410 1 0.722642 0.326055 0.135567
453 1 0.773786 0.362951 0.136985
650 1 0.776591 0.318933 0.174186
414 1 0.822415 0.320576 0.131348
697 1 0.82697 0.361657 0.180992
457 1 0.873847 0.37402 0.143602
654 1 0.868334 0.321193 0.177195
418 1 0.919285 0.32035 0.146703
416 1 0.959166 0.31833 0.0951673
701 1 0.918139 0.368315 0.185086
461 1 0.955505 0.367092 0.140182
658 1 0.963935 0.322627 0.194831
43 1 0.951384 0.00445116 0.0471957
464 1 0.0563549 0.445314 0.131477
662 1 0.0518441 0.408652 0.183713
422 1 0.00627419 0.411415 0.137388
705 1 0.00349021 0.457965 0.18681
505 1 0.456584 0.00750395 0.180391
426 1 0.0959066 0.400431 0.137388
707 1 0.0967559 0.452271 0.179688
466 1 0.144714 0.458517 0.126971
666 1 0.142664 0.398658 0.174778
283 1 0.908268 0.00431167 0.0868021
1184 1 0.821262 0.408803 0.407095
430 1 0.185582 0.41212 0.138853
709 1 0.189289 0.454337 0.186931
468 1 0.228875 0.452705 0.129923
670 1 0.234048 0.404746 0.181226
711 1 0.279681 0.449484 0.180479
471 1 0.361357 0.455747 0.0891697
434 1 0.278774 0.412633 0.134831
674 1 0.326819 0.397432 0.178669
470 1 0.319212 0.459775 0.132108
438 1 0.362393 0.411147 0.133955
713 1 0.364163 0.461574 0.177583
472 1 0.405288 0.454061 0.135104
678 1 0.41099 0.406887 0.179629
715 1 0.455553 0.457677 0.181895
682 1 0.494936 0.409737 0.18188
442 1 0.455541 0.409961 0.141892
474 1 0.495347 0.454247 0.138981
446 1 0.549601 0.41382 0.130188
717 1 0.541817 0.454124 0.180696
476 1 0.588334 0.459647 0.138533
719 1 0.635916 0.455735 0.188164
450 1 0.627939 0.416236 0.140665
478 1 0.67891 0.452492 0.140163
690 1 0.679493 0.407247 0.18335
454 1 0.727223 0.406556 0.139058
1366 1 0.591454 0.090516 0.497694
721 1 0.721676 0.449954 0.180349
480 1 0.76887 0.449944 0.132762
694 1 0.777493 0.41124 0.183018
723 1 0.819376 0.454546 0.180939
458 1 0.821043 0.410792 0.139604
1318 1 0.857207 0.410002 0.456258
482 1 0.864371 0.448508 0.145008
698 1 0.873643 0.411198 0.190189
1208 1 0.869045 0.45895 0.410035
725 1 0.912957 0.459221 0.185924
462 1 0.920363 0.411538 0.141982
484 1 0.956154 0.45889 0.143523
702 1 0.956045 0.409228 0.189406
531 1 0.0398014 0.0878992 0.230634
728 1 0.0381035 0.0452335 0.271931
775 1 0.0910075 0.082922 0.269311
488 1 0.994563 0.048692 0.226227
492 1 0.0909904 0.0455782 0.229605
535 1 0.133828 0.0868018 0.214464
732 1 0.146177 0.0447097 0.267525
496 1 0.170105 0.0444146 0.21741
779 1 0.181726 0.0904953 0.275701
736 1 0.227299 0.0428774 0.276419
500 1 0.265175 0.03867 0.225509
539 1 0.224528 0.089596 0.22324
783 1 0.270773 0.0767682 0.279203
1330 1 0.82117 0.461427 0.456299
740 1 0.332727 0.0484999 0.269229
543 1 0.305245 0.0863464 0.228684
504 1 0.367753 0.0543075 0.224968
787 1 0.365431 0.0995221 0.274556
1316 1 0.776749 0.410403 0.45552
547 1 0.413665 0.0906909 0.228519
744 1 0.408513 0.0491327 0.271444
1372 1 0.871328 0.0932846 0.499189
273 1 0.690995 0.00411555 0.138183
3880 1 0.686341 0.497048 0.450719
791 1 0.453982 0.0913802 0.271639
508 1 0.458773 0.0479821 0.231324
551 1 0.496535 0.0932746 0.230162
748 1 0.500452 0.0471834 0.278176
1206 1 0.774323 0.457324 0.409056
795 1 0.544665 0.0871185 0.286178
512 1 0.546188 0.0540314 0.234015
752 1 0.590293 0.0483314 0.282178
555 1 0.591891 0.0905308 0.231705
1180 1 0.727437 0.406722 0.414024
1329 1 0.731988 0.452453 0.455648
799 1 0.637687 0.0953249 0.271146
516 1 0.629329 0.0416593 0.2344
559 1 0.684099 0.0919636 0.230555
756 1 0.679914 0.0471118 0.268413
520 1 0.729819 0.0494559 0.232363
803 1 0.724722 0.0892181 0.274431
15 1 0.318485 0.00123113 0.0407708
760 1 0.782733 0.050471 0.27117
563 1 0.776924 0.091567 0.228498
807 1 0.820901 0.0901287 0.279152
524 1 0.81728 0.0448417 0.228114
1407 1 0.362099 0.32447 0.494857
1328 1 0.642613 0.451331 0.457438
764 1 0.859069 0.0372273 0.270293
528 1 0.904503 0.0358514 0.228406
811 1 0.901605 0.0794794 0.275787
567 1 0.858223 0.0844026 0.232944
1176 1 0.637581 0.410626 0.416308
771 1 0.989058 0.091117 0.277991
768 1 0.948932 0.0351167 0.272231
571 1 0.956541 0.100171 0.226628
1314 1 0.685564 0.410602 0.45841
575 1 0.0476533 0.1791 0.235737
772 1 0.0449519 0.128477 0.281429
819 1 0.095789 0.181552 0.276597
532 1 0.00651324 0.140908 0.232902
815 1 0.00408297 0.184528 0.277314
536 1 0.0895035 0.133538 0.229789
579 1 0.130777 0.173855 0.227507
776 1 0.133503 0.130318 0.267583
540 1 0.174982 0.128855 0.221176
823 1 0.183892 0.172136 0.269015
583 1 0.223395 0.178042 0.223685
780 1 0.23045 0.135034 0.267814
827 1 0.269981 0.182063 0.274507
544 1 0.267351 0.134943 0.226486
587 1 0.326045 0.18255 0.229242
784 1 0.32018 0.136435 0.269375
548 1 0.366428 0.135323 0.226797
831 1 0.365225 0.184334 0.27411
591 1 0.405932 0.183916 0.237163
788 1 0.41376 0.138085 0.265413
552 1 0.458088 0.13675 0.226223
835 1 0.459135 0.188938 0.283032
595 1 0.505684 0.179463 0.2351
792 1 0.500722 0.133651 0.278066
839 1 0.547354 0.183622 0.271717
556 1 0.543856 0.129669 0.23353
599 1 0.591665 0.172904 0.223382
796 1 0.592958 0.136528 0.276241
560 1 0.63757 0.140218 0.221756
843 1 0.630045 0.185566 0.270894
603 1 0.687421 0.188452 0.228486
800 1 0.676683 0.136133 0.280233
564 1 0.72897 0.131685 0.235088
847 1 0.719295 0.178196 0.272812
607 1 0.770282 0.181386 0.233911
804 1 0.777824 0.131758 0.277846
851 1 0.832773 0.176498 0.28102
568 1 0.814557 0.134722 0.228554
611 1 0.861526 0.186809 0.224723
808 1 0.866348 0.135304 0.269472
855 1 0.904889 0.181705 0.27586
572 1 0.912072 0.131855 0.233888
615 1 0.951966 0.180082 0.226624
812 1 0.949607 0.140907 0.283977
619 1 0.0444334 0.2735 0.241273
816 1 0.0498507 0.222713 0.275784
580 1 0.0852646 0.226066 0.226577
863 1 0.0959731 0.268166 0.277161
576 1 0.0043433 0.224681 0.230429
623 1 0.130204 0.268195 0.231702
820 1 0.141862 0.220589 0.277588
867 1 0.18384 0.263383 0.273817
584 1 0.184874 0.227377 0.226986
627 1 0.230672 0.273725 0.232073
824 1 0.221229 0.22435 0.273908
871 1 0.279872 0.269844 0.277493
588 1 0.265199 0.222403 0.229722
631 1 0.317126 0.262754 0.225425
828 1 0.311531 0.221859 0.266276
592 1 0.36883 0.234217 0.226949
875 1 0.359018 0.272016 0.272499
635 1 0.412039 0.270972 0.225514
832 1 0.408601 0.229322 0.270286
879 1 0.460339 0.274838 0.284663
596 1 0.447775 0.221536 0.22902
639 1 0.499294 0.274956 0.228369
836 1 0.49472 0.231814 0.274812
600 1 0.541259 0.230367 0.23264
883 1 0.549047 0.275274 0.269803
643 1 0.591152 0.272021 0.230152
840 1 0.595124 0.233264 0.283185
887 1 0.636025 0.279045 0.268362
604 1 0.632793 0.221804 0.226025
647 1 0.68339 0.274743 0.221434
844 1 0.678211 0.22992 0.26807
608 1 0.729972 0.228536 0.228461
891 1 0.72472 0.271466 0.270453
651 1 0.779017 0.272102 0.214098
848 1 0.770734 0.228465 0.277384
895 1 0.817003 0.26727 0.270852
612 1 0.814888 0.220904 0.23146
655 1 0.864299 0.273788 0.228912
852 1 0.859748 0.224373 0.274934
899 1 0.90539 0.273816 0.274738
859 1 0.00103304 0.263328 0.272448
616 1 0.905515 0.225072 0.23033
659 1 0.958283 0.271929 0.229776
856 1 0.946945 0.225981 0.275993
663 1 0.03714 0.373569 0.229995
860 1 0.0459319 0.328999 0.273071
624 1 0.0912511 0.322384 0.235666
907 1 0.0984448 0.368943 0.278167
620 1 0.00185714 0.318771 0.238959
667 1 0.140059 0.358025 0.236079
864 1 0.136207 0.312006 0.275581
911 1 0.189464 0.35367 0.26548
628 1 0.18743 0.309476 0.225521
671 1 0.236174 0.359858 0.230316
868 1 0.237765 0.323074 0.272299
632 1 0.280362 0.30671 0.233139
915 1 0.284144 0.367236 0.271953
675 1 0.317367 0.360913 0.225158
872 1 0.314457 0.319804 0.273916
636 1 0.349182 0.310892 0.224559
919 1 0.368805 0.365392 0.262931
679 1 0.409047 0.366608 0.220695
876 1 0.401007 0.312217 0.265151
923 1 0.452643 0.371692 0.261304
640 1 0.452595 0.312614 0.23442
683 1 0.500478 0.360758 0.22346
880 1 0.503108 0.314853 0.26755
927 1 0.542942 0.366627 0.263882
644 1 0.542116 0.315322 0.21919
687 1 0.585512 0.362814 0.222936
884 1 0.58475 0.324726 0.273368
648 1 0.635868 0.322648 0.22463
931 1 0.639221 0.360811 0.272786
691 1 0.679305 0.364463 0.231049
888 1 0.682505 0.32327 0.275191
652 1 0.72371 0.3224 0.220936
935 1 0.728335 0.366444 0.276613
695 1 0.769532 0.36145 0.21593
892 1 0.776703 0.313689 0.268415
656 1 0.829085 0.318823 0.226494
939 1 0.82117 0.355903 0.27133
699 1 0.869403 0.361102 0.23226
896 1 0.867599 0.317801 0.282283
943 1 0.910444 0.363625 0.275333
660 1 0.909909 0.315277 0.225945
903 1 0.993837 0.369802 0.278842
703 1 0.955032 0.368541 0.233267
900 1 0.945918 0.317128 0.27656
904 1 0.0459305 0.408177 0.276233
706 1 0.0496925 0.450118 0.224293
664 1 0.999122 0.413479 0.232508
949 1 0.0910711 0.451264 0.283319
668 1 0.101187 0.413473 0.224814
708 1 0.151672 0.442262 0.228431
908 1 0.136605 0.407803 0.272727
951 1 0.195034 0.456731 0.268539
1204 1 0.675191 0.459767 0.406094
1312 1 0.588719 0.413785 0.455215
672 1 0.183877 0.392718 0.225503
710 1 0.23002 0.449472 0.225589
912 1 0.224905 0.403843 0.267031
1202 1 0.596963 0.460722 0.410318
676 1 0.277134 0.408718 0.227242
953 1 0.272318 0.461024 0.266071
916 1 0.326938 0.408876 0.267592
712 1 0.322935 0.450613 0.225151
955 1 0.368265 0.451451 0.276042
680 1 0.368638 0.412215 0.224742
920 1 0.407391 0.408871 0.274411
714 1 0.403622 0.456992 0.220314
684 1 0.449847 0.418303 0.225738
957 1 0.45 0.446549 0.27725
716 1 0.490591 0.459769 0.224407
924 1 0.493945 0.41197 0.262541
688 1 0.536493 0.408568 0.222036
959 1 0.538283 0.453592 0.267835
718 1 0.583601 0.451977 0.231387
928 1 0.591387 0.408857 0.26974
692 1 0.628935 0.408043 0.227486
2905 1 0.0460935 0.488671 0.0821746
961 1 0.634645 0.451295 0.279502
932 1 0.677823 0.406489 0.276745
720 1 0.672164 0.448681 0.237552
1310 1 0.492429 0.408115 0.458872
696 1 0.72966 0.40452 0.229744
963 1 0.728871 0.446905 0.268879
936 1 0.781135 0.401049 0.277493
722 1 0.774269 0.445247 0.228435
700 1 0.822503 0.40561 0.228062
965 1 0.816738 0.449662 0.270261
940 1 0.868056 0.407172 0.274872
724 1 0.860098 0.451457 0.230469
1172 1 0.540332 0.4097 0.408134
947 1 0.00197656 0.457275 0.272317
967 1 0.904214 0.459809 0.282664
704 1 0.915205 0.41459 0.228688
726 1 0.95714 0.456163 0.224171
944 1 0.94769 0.409684 0.273728
773 1 0.0477126 0.0872047 0.318327
970 1 0.0490066 0.0490085 0.364336
734 1 0.0953168 0.0418019 0.317258
1017 1 0.101399 0.0863217 0.356258
1013 1 0.994632 0.0893242 0.349839
495 1 0.213355 0.00749175 0.22542
777 1 0.140171 0.0798444 0.314509
974 1 0.136862 0.040766 0.362232
1021 1 0.184169 0.0865977 0.363162
738 1 0.181364 0.0386194 0.324167
745 1 0.4088 0.00280837 0.313916
781 1 0.221836 0.0877825 0.315759
978 1 0.225848 0.0422481 0.36697
742 1 0.269895 0.0471694 0.326749
1025 1 0.262438 0.0874876 0.366856
984 1 0.27174 0.0485098 0.415976
731 1 0.0945946 0.00268607 0.270066
785 1 0.316831 0.0948555 0.318916
982 1 0.316802 0.0495751 0.372017
1029 1 0.358333 0.0942566 0.369823
271 1 0.640521 0.000795081 0.0947539
2674 1 0.453619 0.487804 0.0432615
746 1 0.36996 0.0478795 0.321643
986 1 0.412301 0.0383337 0.363419
750 1 0.451976 0.0443536 0.320145
1033 1 0.460435 0.0948941 0.369046
789 1 0.408663 0.0927634 0.316737
3391 1 0.137119 0.495067 0.275852
3389 1 0.0469188 0.495239 0.272597
205 1 0.628875 0.361277 0.0104403
793 1 0.497788 0.0894966 0.322781
990 1 0.493194 0.0304076 0.368415
969 1 0.995883 0.000103797 0.356053
1037 1 0.541844 0.0886376 0.366966
754 1 0.544885 0.0443212 0.326107
797 1 0.587399 0.0914747 0.330114
994 1 0.591593 0.0475291 0.367956
1041 1 0.639563 0.0917808 0.373767
758 1 0.642091 0.0439776 0.322686
801 1 0.678387 0.0949405 0.321191
998 1 0.67726 0.04937 0.368761
1327 1 0.544409 0.457596 0.45623
762 1 0.72529 0.0486549 0.321847
1045 1 0.724875 0.0929615 0.364011
1002 1 0.774662 0.0500918 0.374382
1049 1 0.817514 0.0944632 0.367845
766 1 0.817932 0.0484537 0.321743
1200 1 0.499735 0.450829 0.407644
809 1 0.85934 0.0978931 0.327107
1006 1 0.859393 0.0485926 0.365786
3647 1 0.767678 0.496124 0.362637
499 1 0.321924 0.00566366 0.219849
1168 1 0.456866 0.407442 0.409846
1053 1 0.909664 0.097042 0.370302
730 1 0.994847 0.0430896 0.309159
770 1 0.910455 0.0393966 0.318636
1010 1 0.950814 0.0476671 0.362474
813 1 0.948119 0.0860779 0.320523
817 1 0.0493424 0.183893 0.320981
1014 1 0.045684 0.130055 0.364934
778 1 0.0925364 0.133935 0.314286
1057 1 0.00236874 0.183498 0.363059
1061 1 0.0874166 0.18207 0.375761
821 1 0.133129 0.179331 0.32944
1018 1 0.134832 0.141069 0.377808
782 1 0.166385 0.13216 0.320892
1065 1 0.179239 0.183434 0.367687
825 1 0.216263 0.180063 0.317558
1022 1 0.218106 0.133669 0.354247
786 1 0.272888 0.137688 0.316446
1069 1 0.258864 0.178915 0.364271
829 1 0.321536 0.191403 0.316995
1026 1 0.30486 0.141623 0.365965
1073 1 0.364893 0.191395 0.368081
790 1 0.363026 0.14249 0.327449
833 1 0.407177 0.190078 0.314548
1030 1 0.409206 0.132381 0.368025
794 1 0.448355 0.137034 0.320372
1077 1 0.454053 0.181945 0.368455
837 1 0.499846 0.180001 0.321757
1034 1 0.496394 0.135271 0.362758
798 1 0.541344 0.134259 0.327008
1081 1 0.546608 0.177774 0.365693
841 1 0.593661 0.181239 0.316428
1038 1 0.590362 0.134852 0.372166
1085 1 0.638042 0.17599 0.367393
802 1 0.63077 0.132152 0.319217
845 1 0.682121 0.178493 0.318844
1042 1 0.680948 0.133212 0.368547
1089 1 0.723359 0.174836 0.363842
805 1 0.76807 0.0935933 0.326569
806 1 0.72464 0.132468 0.320856
849 1 0.768728 0.178485 0.318511
1046 1 0.774459 0.135372 0.369281
1093 1 0.816501 0.18153 0.365256
810 1 0.819469 0.142286 0.323378
853 1 0.865995 0.18083 0.325103
1050 1 0.862185 0.134869 0.372259
814 1 0.908539 0.130702 0.320424
774 1 0.00014194 0.137815 0.320225
1097 1 0.906719 0.176608 0.373516
857 1 0.957947 0.184843 0.323648
1054 1 0.954841 0.132987 0.362525
861 1 0.0453301 0.262475 0.325364
1058 1 0.0524779 0.227739 0.373939
822 1 0.0955749 0.225717 0.321967
1105 1 0.0926379 0.269002 0.370628
865 1 0.13728 0.272004 0.323084
1062 1 0.132946 0.22272 0.373266
826 1 0.171805 0.226351 0.328759
1109 1 0.181088 0.275756 0.361859
869 1 0.231492 0.277904 0.318356
1066 1 0.223545 0.222437 0.359795
1113 1 0.269743 0.283095 0.366636
830 1 0.273172 0.231862 0.326013
873 1 0.316598 0.273168 0.327345
1070 1 0.317191 0.229422 0.361608
834 1 0.364789 0.23058 0.320117
1117 1 0.359395 0.273651 0.362634
877 1 0.408667 0.277879 0.31239
1074 1 0.413457 0.227458 0.361837
1121 1 0.459698 0.283067 0.364271