ITEM: TIMESTEP
10050
ITEM: NUMBER OF ATOMS
864
ITEM: BOX BOUNDS pp pp pp
0.0000000000000000e+00 3.1559999999999999e+01
0.0000000000000000e+00 3.1559999999999999e+01
0.0000000000000000e+00 3.1559999999999999e+01
ITEM: ATOMS id type xs ys zs
74 1 0.0761793 0.0861599 0.162727
8 1 0.152003 0.0672181 0.063786
49 1 0.987791 0.329463 0.0197243
12 1 0.334422 0.0755233 0.0917695
6 1 0.250031 0.0830819 -0.00302358
78 1 0.248202 0.0737403 0.170622
7 1 0.245794 -0.00914634 0.0973628
591 1 0.569962 0.500944 0.401504
69 1 0.825944 0.324133 0.00169453
82 1 0.404575 0.0949871 0.17975
16 1 0.504264 0.089665 0.0634789
105 1 0.328317 0.181346 0.144288
665 1 0.679777 0.498873 0.500987
523 1 0.756683 0.492981 0.264686
86 1 0.578099 0.0808471 0.156379
39 1 0.579413 0.164555 0.0773716
85 1 0.50224 0.0110915 0.17215
214 1 0.926078 0.418536 0.327021
20 1 0.660269 0.0783901 0.0817335
24 1 0.838912 0.0728965 0.0781575
153 1 0.329382 -0.00240121 0.326142
45 1 0.827206 0.157488 -0.00103134
10 1 0.410753 0.0862832 0.00155433
4 1 0.996188 0.0921245 0.0847126
34 1 0.413382 0.250183 0.00217828
27 1 0.0821146 0.158051 0.072721
51 1 0.0856536 0.323284 0.0731269
87 1 0.592761 0.0088915 0.249685
32 1 0.159172 0.237915 0.079799
31 1 0.245893 0.14478 0.082972
35 1 0.42429 0.158045 0.0868369
36 1 0.329229 0.253359 0.0761333
133 1 0.496211 0.338753 0.141644
129 1 0.327213 0.340167 0.169915
40 1 0.497225 0.246893 0.0769709
63 1 0.586844 0.326279 0.0775809
507 1 0.0836656 0.510407 0.250349
46 1 0.900921 0.260079 0.00713614
43 1 0.758372 0.161213 0.0838202
44 1 0.665401 0.245932 0.06644
114 1 0.760106 0.236533 0.148247
67 1 0.74622 0.32399 0.0906991
47 1 0.914659 0.156356 0.0828324
28 1 0.988684 0.244208 0.0935583
48 1 0.843647 0.237517 0.0944637
97 1 0.00278659 0.170525 0.166369
145 1 0.996769 0.00907167 0.331942
52 1 0.990586 0.421861 0.0899583
212 1 0.656344 0.433938 0.411676
55 1 0.244384 0.334579 0.0888199
56 1 0.152385 0.424796 0.0876525
147 1 0.0822949 -0.00494343 0.410302
163 1 0.756665 0.0116149 0.420356
237 1 0.848124 0.00208211 0.509075
210 1 0.752619 0.411367 0.341156
59 1 0.413267 0.327911 0.0750094
60 1 0.328232 0.422703 0.0824855
58 1 0.417154 0.423166 0.00629311
61 1 0.502342 0.339249 -0.00552515
64 1 0.502912 0.419894 0.0670228
599 1 0.930593 0.49791 0.410545
68 1 0.672736 0.416185 0.0928552
138 1 0.749256 0.405481 0.157263
72 1 0.823138 0.427337 0.0648996
71 1 0.915006 0.33007 0.0987184
216 1 0.841386 0.4109 0.405726
81 1 0.331936 -0.00913594 0.173463
80 1 0.170301 0.0973854 0.245305
99 1 0.0797938 0.181858 0.24049
76 1 1.0032 0.0849063 0.242382
101 1 0.163919 0.177996 0.171502
84 1 0.318724 0.072607 0.245624
103 1 0.257686 0.172379 0.242718
107 1 0.411883 0.186272 0.252733
181 1 0.491057 0.164726 0.330177
88 1 0.498944 0.0923561 0.243237
111 1 0.579158 0.182337 0.256377
109 1 0.492112 0.163572 0.164697
90 1 0.746818 0.0864574 0.165539
157 1 0.497797 -0.00150749 0.341029
207 1 0.578712 0.337155 0.416226
92 1 0.675425 0.0780788 0.248635
94 1 0.920973 0.0883889 0.166411
261 1 0.841545 0.177433 0.504794
25 1 0.981565 0.165428 0.000535736
96 1 0.830525 0.078735 0.244429
169 1 0.00173517 0.154935 0.329597
98 1 0.0722578 0.267303 0.157433
125 1 0.163755 0.3269 0.155214
170 1 0.094049 0.246308 0.333615
100 1 -0.00101543 0.253232 0.253569
123 1 0.0733502 0.338023 0.249235
197 1 0.153985 0.336988 0.334714
201 1 0.317576 0.338025 0.332714
102 1 0.252138 0.255019 0.168874
104 1 0.156074 0.254163 0.2431
108 1 0.336849 0.254841 0.257285
127 1 0.240647 0.330919 0.245942
106 1 0.419297 0.265129 0.162029
112 1 0.501478 0.27531 0.237336
178 1 0.397737 0.260754 0.348047
110 1 0.576006 0.247375 0.169129
135 1 0.59871 0.331261 0.245296
205 1 0.482492 0.336723 0.330375
182 1 0.579597 0.259563 0.327529
113 1 0.662331 0.170201 0.154701
115 1 0.760472 0.168354 0.254672
116 1 0.673942 0.256052 0.256197
120 1 0.837313 0.256023 0.248439
139 1 0.757179 0.337763 0.248112
118 1 0.923645 0.246479 0.183522
117 1 0.841026 0.161111 0.172184
119 1 0.912693 0.163129 0.253021
122 1 0.073709 0.418977 0.16247
193 1 -0.00112881 0.341124 0.328123
128 1 0.157812 0.421133 0.248337
124 1 1.00173 0.437792 0.25088
198 1 0.235365 0.413833 0.353476
126 1 0.238752 0.430152 0.164973
132 1 0.309138 0.40898 0.255235
435 1 0.079083 0.509493 0.0936823
253 1 0.495078 0.167273 0.490988
130 1 0.416574 0.427128 0.15219
131 1 0.404128 0.346938 0.248515
136 1 0.486111 0.417723 0.247572
134 1 0.583657 0.416803 0.158476
140 1 0.677104 0.424471 0.272797
209 1 0.676383 0.324808 0.341449
266 1 0.0782117 0.408801 0.504154
213 1 0.829529 0.333027 0.330445
137 1 0.667979 0.314242 0.159806
141 1 0.824355 0.334465 0.154651
144 1 0.83648 0.413248 0.245182
142 1 0.918077 0.418672 0.166627
121 1 0.995267 0.344676 0.171023
143 1 0.907067 0.33159 0.257833
257 1 0.647879 0.15776 0.499435
89 1 0.662018 0.00313668 0.164852
146 1 0.0866057 0.0842881 0.315527
152 1 0.164361 0.0784735 0.401604
171 1 0.087071 0.163281 0.417194
148 1 1.00484 0.0864289 0.411517
150 1 0.239194 0.0757543 0.324015
173 1 0.168258 0.163616 0.327229
156 1 0.336165 0.0883139 0.413804
177 1 0.324612 0.161314 0.332564
175 1 0.244234 0.166001 0.415971
70 1 0.908464 0.397566 0.00406159
154 1 0.411031 0.0745897 0.320445
179 1 0.415848 0.161307 0.406146
160 1 0.499581 0.0810058 0.407975
515 1 0.412247 0.524912 0.239012
277 1 0.504772 0.338666 0.507517
158 1 0.573026 0.0827037 0.330644
183 1 0.577389 0.166734 0.403023
15 1 0.582714 -0.00848051 0.0833709
204 1 0.315521 0.409242 0.420113
206 1 0.579713 0.411796 0.316473
164 1 0.662593 0.0869617 0.416186
162 1 0.760293 0.0710877 0.336531
168 1 0.846402 0.0839287 0.426323
202 1 0.406159 0.416108 0.337411
517 1 0.504807 0.498045 0.160852
166 1 0.915018 0.0898305 0.33789
282 1 0.760121 0.422441 0.489171
281 1 0.642926 0.343627 0.492248
195 1 0.0834943 0.319884 0.421705
172 1 1.00846 0.241601 0.41796
265 1 0.993418 0.336401 0.492275
433 1 -0.00216744 0.493606 -0.00420879
199 1 0.23547 0.323621 0.420502
174 1 0.244354 0.246655 0.332839
176 1 0.1557 0.241691 0.425445
519 1 0.569149 0.502215 0.247316
203 1 0.415765 0.349815 0.417052
180 1 0.331086 0.264079 0.42438
583 1 0.238215 0.499231 0.422263
184 1 0.488804 0.252601 0.409894
185 1 0.673288 0.168989 0.343448
188 1 0.68128 0.250025 0.418391
254 1 0.579463 0.244726 0.481997
187 1 0.752495 0.154009 0.431082
211 1 0.76004 0.329817 0.421932
186 1 0.756191 0.254486 0.339907
215 1 0.914428 0.341267 0.400777
262 1 0.911017 0.261301 0.492783
189 1 0.822847 0.171632 0.338826
190 1 0.915564 0.250196 0.33583
191 1 0.911029 0.179661 0.417053
192 1 0.831029 0.251792 0.420327
194 1 0.081764 0.425848 0.330884
196 1 0.0129741 0.406291 0.410273
208 1 0.499937 0.417558 0.406416
167 1 0.920457 0.00750001 0.403012
200 1 0.155227 0.409975 0.428444
222 1 0.248215 0.0911801 0.498585
250 1 0.414281 0.231965 0.512033
161 1 0.663609 0.0044909 0.33358
11 1 0.420047 0.0155917 0.102622
270 1 0.245175 0.412473 0.505801
258 1 0.752163 0.244968 0.505461
249 1 0.325473 0.174892 0.499808
278 1 0.572987 0.435186 0.492234
217 1 -0.00197991 -0.000450311 0.493941
230 1 0.578774 0.0750001 0.482671
226 1 0.418341 0.078922 0.500904
437 1 0.141617 0.495435 -0.0026214
54 1 0.247856 0.4225 0.00106811
225 1 0.345952 0.000709632 0.490285
62 1 0.602846 0.431044 0.0160391
22 1 0.919289 0.088916 -0.00363055
50 1 0.070569 0.407928 0.0102358
286 1 0.907398 0.41445 0.497761
18 1 0.754242 0.0835996 -0.000674137
41 1 0.676456 0.164663 -0.00805945
29 1 0.165191 0.159818 -0.00650937
30 1 0.242871 0.256778 0.000816439
33 1 0.335787 0.173409 0.0125201
661 1 0.500438 0.50163 0.496167
224 1 0.174559 0.0718212 0.598214
317 1 0.149402 0.157585 0.671431
290 1 0.0795471 0.0844136 0.683075
367 1 0.251037 -0.00273403 0.91729
309 1 0.831689 -0.00828095 0.653565
321 1 0.344344 0.159935 0.671079
228 1 0.333169 0.0857417 0.565752
294 1 0.243665 0.0886131 0.679373
297 1 0.323609 -0.0013585 0.676412
232 1 0.504698 0.0844425 0.578892
251 1 0.421533 0.15602 0.591179
298 1 0.425015 0.0870229 0.67154
729 1 0.329266 0.50052 0.658095
815 1 0.905688 0.484185 0.917025
236 1 0.662623 0.0932494 0.588463
255 1 0.582168 0.169106 0.588804
240 1 0.849949 0.0790327 0.593333
259 1 0.757753 0.161292 0.589399
432 1 0.823695 0.410599 0.92709
220 1 1.00758 0.0820655 0.565492
263 1 0.932906 0.16539 0.601389
310 1 0.933525 0.0751714 0.659305
430 1 0.910808 0.40652 0.843646
243 1 0.0936524 0.151939 0.590056
314 1 0.0768071 0.24913 0.67117
244 1 0.98305 0.270313 0.592704
337 1 0.00423685 0.345429 0.674397
248 1 0.162006 0.253849 0.576419
246 1 0.244712 0.253165 0.500059
247 1 0.224038 0.166367 0.595562
271 1 0.246645 0.3299 0.580409
318 1 0.234015 0.25123 0.667863
252 1 0.332533 0.234704 0.58455
322 1 0.412792 0.235808 0.671158
325 1 0.499508 0.172789 0.65812
801 1 0.323398 0.504304 0.827509
256 1 0.507246 0.262916 0.583272
260 1 0.667917 0.243608 0.572515
349 1 0.49864 0.336021 0.679479
279 1 0.597613 0.33072 0.587112
326 1 0.586052 0.256661 0.668903
329 1 0.65575 0.171234 0.664823
813 1 0.8279 0.491818 0.83563
283 1 0.746067 0.337776 0.577714
330 1 0.75207 0.255104 0.657571
357 1 0.833042 0.324235 0.65945
274 1 0.422025 0.431947 0.484956
264 1 0.828534 0.239241 0.586031
287 1 0.911771 0.354757 0.600335
334 1 0.923453 0.263154 0.678465
341 1 0.15858 0.342968 0.669684
267 1 0.0721484 0.337554 0.587668
721 1 0.0105687 0.503459 0.655951
272 1 0.160062 0.411566 0.579403
345 1 0.330191 0.317261 0.660939
342 1 0.233583 0.420362 0.657814
238 1 0.919985 0.0977367 0.497395
227 1 0.414959 0.00521143 0.592662
275 1 0.407409 0.320583 0.58461
276 1 0.327808 0.40942 0.592795
346 1 0.400032 0.410845 0.67174
280 1 0.513035 0.398991 0.597991
350 1 0.598964 0.410003 0.661389
412 1 1.00324 0.392278 0.92629
284 1 0.662813 0.415172 0.572994
354 1 0.752141 0.400922 0.673832
739 1 0.756206 0.49527 0.732361
285 1 0.832657 0.322306 0.503572
743 1 0.922607 0.489139 0.751783
268 1 -0.00360721 0.417819 0.576031
373 1 0.501862 0.00663112 0.826702
288 1 0.825908 0.416035 0.579887
223 1 0.256601 0.0108138 0.565449
273 1 0.335362 0.320383 0.513744
296 1 0.161865 0.0846181 0.753564
313 1 0.00287661 0.161685 0.692327
315 1 0.0859094 0.155743 0.767847
385 1 0.991028 0.169146 0.834868
65 1 0.663874 0.326575 1.00214
300 1 0.327211 0.0892198 0.751037
366 1 0.24491 0.0860317 0.834835
807 1 0.596028 0.491623 0.920432
304 1 0.511683 0.0876867 0.745866
371 1 0.419356 -0.000115097 0.918245
302 1 0.584485 0.0760796 0.658454
235 1 0.750126 -0.00325258 0.579509
327 1 0.58795 0.168398 0.758361
401 1 0.682779 0.167231 0.832192
306 1 0.741935 0.0904598 0.669538
308 1 0.664849 0.092736 0.749383
312 1 0.851146 0.0779681 0.727036
292 1 -0.00340363 0.0730241 0.759186
333 1 0.835434 0.162734 0.658381
335 1 0.903281 0.166297 0.750943
375 1 0.582724 0.0172638 0.906201
382 1 0.904994 0.0789043 0.838992
389 1 0.170758 0.16733 0.846713
320 1 0.149956 0.24748 0.74448
316 1 0.005985 0.264616 0.760688
409 1 0.991209 0.328486 0.844257
386 1 0.08631 0.249996 0.834123
319 1 0.233923 0.169484 0.749422
324 1 0.331265 0.236337 0.744808
323 1 0.420714 0.150721 0.755966
347 1 0.401141 0.328242 0.752271
328 1 0.500127 0.230043 0.753308
351 1 0.589023 0.332016 0.746852
332 1 0.661253 0.243559 0.764584
421 1 0.487667 0.342434 0.824959
405 1 0.827169 0.160788 0.826262
331 1 0.756712 0.18129 0.736827
355 1 0.74517 0.323524 0.759388
336 1 0.834325 0.268273 0.760886
402 1 0.753198 0.245846 0.837128
359 1 0.925834 0.348207 0.749701
406 1 0.920754 0.246531 0.827214
339 1 0.0881854 0.350885 0.750062
338 1 0.0773743 0.426307 0.656629
344 1 0.171702 0.426159 0.755896
410 1 0.0829598 0.430996 0.839786
340 1 0.0169274 0.427504 0.753272
343 1 0.244671 0.317654 0.745417
301 1 0.497023 -0.0110523 0.668719
348 1 0.321246 0.410823 0.739902
245 1 0.171062 0.160298 0.499259
353 1 0.669927 0.32787 0.677156
425 1 0.65292 0.347537 0.846182
422 1 0.572449 0.422896 0.836372
352 1 0.495584 0.42538 0.745973
356 1 0.654625 0.424027 0.758185
218 1 0.100308 0.0916185 0.498968
793 1 0.982844 0.488218 0.850232
651 1 0.0788349 0.496649 0.573433
53 1 0.164893 0.337267 0.999901
426 1 0.755575 0.407354 0.851444
358 1 0.919886 0.430379 0.668465
360 1 0.830632 0.407546 0.755807
799 1 0.242391 0.503948 0.928797
659 1 0.419429 0.474741 0.584613
293 1 0.17846 -0.000428335 0.673707
37 1 0.495668 0.163702 0.986759
362 1 0.0910244 0.0783045 0.838784
368 1 0.159108 0.0716366 0.93522
364 1 1.00139 0.0862249 0.905481
411 1 0.085651 0.332006 0.927229
428 1 0.675257 0.417378 0.933237
427 1 0.72904 0.330372 0.918057
393 1 0.323205 0.167126 0.837976
391 1 0.243853 0.17434 0.923518
415 1 0.248114 0.330579 0.915103
370 1 0.404917 0.083174 0.838021
372 1 0.321144 0.0811176 0.916424
395 1 0.409076 0.162046 0.92914
377 1 0.677484 0.011875 0.822157
431 1 0.906586 0.332179 0.911756
376 1 0.491033 0.0773884 0.92058
374 1 0.581465 0.0902845 0.835502
380 1 0.677723 0.0847743 0.907969
397 1 0.48573 0.159375 0.842677
399 1 0.587787 0.165482 0.909079
424 1 0.485475 0.418803 0.903994
378 1 0.768102 0.0754681 0.822249
416 1 0.160037 0.426919 0.919516
417 1 0.323094 0.339827 0.831663
725 1 0.174246 0.503527 0.660335
420 1 0.330021 0.420308 0.911882
418 1 0.399398 0.420524 0.82514
384 1 0.835661 0.0663928 0.920889
414 1 0.24375 0.422604 0.83103
407 1 0.909664 0.175091 0.921378
387 1 0.07787 0.162952 0.914807
388 1 0.000678409 0.246445 0.91139
408 1 0.830917 0.243926 0.919193
390 1 0.245956 0.250204 0.828778
392 1 0.160152 0.252311 0.917266
403 1 0.762386 0.154829 0.912727
429 1 0.823348 0.325946 0.847382
394 1 0.399113 0.245122 0.824292
396 1 0.329592 0.239894 0.922784
419 1 0.408549 0.32904 0.902881
423 1 0.584159 0.358078 0.93757
400 1 0.478272 0.244048 0.920032
398 1 0.562493 0.266947 0.857752
404 1 0.658959 0.253021 0.916252
413 1 0.156934 0.335076 0.833811
42 1 0.742116 0.252673 0.9961
2 1 0.0561485 0.0752117 0.994842
26 1 0.0873386 0.23521 1.00854
57 1 0.332137 0.334935 0.993862
649 1 0.998458 0.491278 0.490148
38 1 0.580834 0.249699 0.987659
453 1 0.827471 0.510571 0.996763
14 1 0.603139 0.0724538 0.994147
269 1 0.158157 0.334166 0.496001
66 1 0.747216 0.416189 1.00353
241 1 0.992751 0.177731 0.506862
234 1 0.761614 0.0811194 0.508074
242 1 0.0772186 0.240862 0.507325
233 1 0.672366 0.0174918 0.497056
506 1 0.0813025 0.585735 0.164965
436 1 0.991489 0.57884 0.0865378
438 1 0.255004 0.594925 -0.00597529
165 1 0.843674 1.00512 0.331856
440 1 0.166539 0.581935 0.0739099
444 1 0.314427 0.584137 0.0952099
537 1 0.342901 0.666327 0.17149
541 1 0.499954 0.667948 0.171523
514 1 0.415333 0.594577 0.166703
577 1 0.0132298 0.49972 0.341983
628 1 0.00587527 0.913438 0.425377
448 1 0.492794 0.582243 0.0832179
518 1 0.577707 0.592971 0.15931
452 1 0.666381 0.576624 0.0790903
511 1 0.241174 0.497889 0.263136
451 1 0.744232 0.499485 0.0893422
646 1 0.928315 0.919449 0.336781
75 1 0.0709908 0.994544 0.252692
475 1 0.745622 0.678675 0.0749875
522 1 0.74349 0.581735 0.189243
585 1 0.327809 0.49616 0.334589
521 1 0.666763 0.49719 0.171513
455 1 0.908345 0.494539 0.0933553
456 1 0.806333 0.590102 0.0927532
479 1 0.904951 0.673988 0.0801048
549 1 0.824578 0.661091 0.173858
648 1 0.841949 0.929676 0.425979
459 1 0.0724758 0.662045 0.0677594
460 1 -0.0029956 0.752908 0.0913653
464 1 0.180572 0.752131 0.0829004
483 1 0.0731731 0.834198 0.0856171
478 1 0.904097 0.742133 0.00483788
463 1 0.257241 0.667595 0.0841018
487 1 0.263839 0.831155 0.0747239
534 1 0.242503 0.75114 0.169747
468 1 0.334615 0.743245 0.0944525
443 1 0.410215 0.516501 0.0880357
467 1 0.410103 0.660623 0.0806626
491 1 0.402441 0.826807 0.0938144
471 1 0.572469 0.660488 0.0863104
472 1 0.48091 0.75377 0.0900832
542 1 0.582398 0.746737 0.163308
73 1 1.00334 0.996889 0.168493
23 1 0.918887 0.991047 0.101535
476 1 0.65624 0.748017 0.088782
545 1 0.672625 0.657919 0.157657
499 1 0.738919 0.829933 0.0852445
546 1 0.75957 0.735983 0.171316
569 1 0.658225 0.832299 0.162528
529 1 0.0106339 0.675975 0.156168
480 1 0.825621 0.759967 0.0891644
503 1 0.906219 0.820071 0.101719
550 1 0.913947 0.744889 0.17214
553 1 0.993154 0.82154 0.169309
9 1 0.344646 1.00328 0.0172927
554 1 0.0732694 0.920466 0.164434
488 1 0.169014 0.906708 0.0766564
557 1 0.170665 0.838692 0.175546
561 1 0.330517 0.823673 0.180697
558 1 0.244659 0.906585 0.168293
718 1 0.92695 0.912453 0.499916
492 1 0.330689 0.921966 0.0867306
562 1 0.410827 0.910556 0.171615
462 1 0.26259 0.740586 0.00463778
565 1 0.499709 0.820747 0.172055
3 1 0.0772131 0.993477 0.09589
495 1 0.57791 0.840157 0.0788339
496 1 0.510453 0.914348 0.106504
458 1 0.0755592 0.743363 -0.00643102
640 1 0.518989 0.9141 0.415067
500 1 0.661064 0.919486 0.0786951
485 1 0.158826 0.829669 0.000531201
642 1 0.769262 0.910806 0.342913
573 1 0.829739 0.827722 0.178724
484 1 0.988581 0.900722 0.0985533
504 1 0.828265 0.908965 0.0830515
461 1 0.158203 0.667695 -0.00172164
508 1 0.00671226 0.583462 0.255136
578 1 0.0697231 0.580872 0.337448
581 1 0.156898 0.509636 0.34793
510 1 0.243136 0.591284 0.187136
512 1 0.162047 0.577316 0.258828
516 1 0.330192 0.593561 0.265162
520 1 0.492342 0.585418 0.243145
609 1 0.341146 0.669983 0.337588
524 1 0.640482 0.584722 0.242436
590 1 0.575866 0.581083 0.330127
543 1 0.584795 0.669116 0.242348
446 1 0.598312 0.577406 -0.0137775
644 1 0.676845 0.915778 0.415444
594 1 0.754235 0.579329 0.312842
547 1 0.746054 0.68241 0.271986
617 1 0.656734 0.662308 0.334683
513 1 0.321377 0.500785 0.169873
714 1 0.759187 0.927081 0.498717
528 1 0.841897 0.586199 0.254209
526 1 0.918223 0.592483 0.168032
635 1 0.417821 0.8473 0.417307
530 1 0.0913418 0.753382 0.164926
533 1 0.161879 0.665193 0.150775
531 1 0.0937609 0.668509 0.253769
602 1 0.07961 0.74338 0.333585
535 1 0.253171 0.68688 0.255956
536 1 0.170279 0.76115 0.263127
606 1 0.246754 0.741571 0.33653
559 1 0.265387 0.839665 0.26828
633 1 0.340858 0.828598 0.334094
538 1 0.413134 0.749293 0.170072
539 1 0.417534 0.671516 0.25741
540 1 0.328947 0.753202 0.262393
544 1 0.514043 0.741659 0.253231
567 1 0.588113 0.836347 0.250583
613 1 0.503094 0.667527 0.342532
548 1 0.656699 0.748216 0.248998
552 1 0.838772 0.749039 0.251767
551 1 0.922683 0.657926 0.248833
532 1 0.00846469 0.746389 0.238778
645 1 0.839893 0.835118 0.333092
625 1 0.0206979 0.837821 0.332452
575 1 0.925778 0.830445 0.261131
555 1 0.0778264 0.832793 0.240302
560 1 0.165792 0.917784 0.248099
19 1 0.740993 0.98932 0.084292
597 1 0.846497 0.502721 0.331853
626 1 0.0824718 0.922102 0.335338
79 1 0.246513 0.994863 0.23994
564 1 0.340407 0.91664 0.253164
604 1 0.00705516 0.7574 0.411544
694 1 0.919779 0.768512 0.492658
563 1 0.421043 0.840293 0.247055
647 1 0.921152 0.829301 0.407437
566 1 0.595858 0.91974 0.165259
637 1 0.495435 0.83742 0.330923
638 1 0.570974 0.922509 0.318277
568 1 0.505281 0.910397 0.243417
669 1 0.831689 0.500877 0.503088
570 1 0.751751 0.911683 0.157359
572 1 0.668129 0.91564 0.24394
571 1 0.750302 0.836672 0.253748
641 1 0.676417 0.83961 0.328239
574 1 0.912837 0.901253 0.174997
576 1 0.835588 0.922504 0.249919
556 1 1.00102 0.917735 0.25786
579 1 0.0821524 0.490036 0.42021
603 1 0.085914 0.669596 0.418575
582 1 0.257127 0.577707 0.345677
584 1 0.163688 0.58675 0.424152
95 1 0.912458 0.996689 0.24753
623 1 0.938161 0.676576 0.417608
525 1 0.827234 0.506556 0.180055
622 1 0.937461 0.745955 0.32763
588 1 0.340994 0.579863 0.422894
586 1 0.417166 0.587107 0.338673
592 1 0.500399 0.583481 0.415377
662 1 0.594214 0.566778 0.488073
587 1 0.424706 0.502274 0.409807
636 1 0.338609 0.921395 0.402184
632 1 0.171619 0.922107 0.415862
596 1 0.670865 0.579595 0.413989
634 1 0.415303 0.921972 0.332972
619 1 0.751549 0.675666 0.405894
445 1 0.48616 0.505881 -0.00865227
598 1 0.914799 0.587745 0.350039
580 1 0.00159669 0.576978 0.42304
600 1 0.835138 0.579048 0.412125
605 1 0.182771 0.659842 0.33369
629 1 0.166934 0.838253 0.325018
627 1 0.101038 0.827484 0.412706
608 1 0.162772 0.730354 0.417041
631 1 0.254721 0.8321 0.403299
607 1 0.26566 0.66618 0.415798
447 1 0.581001 0.519162 0.079249
610 1 0.426638 0.757457 0.343559
612 1 0.330065 0.751334 0.418215
611 1 0.412963 0.676749 0.408299
630 1 0.247763 0.918649 0.337512
639 1 0.603349 0.834745 0.417183
614 1 0.589013 0.746247 0.331422
615 1 0.580279 0.656608 0.421256
620 1 0.658154 0.736652 0.422667
616 1 0.518046 0.750892 0.411075
621 1 0.836582 0.661672 0.326124
643 1 0.74578 0.826669 0.42606
618 1 0.749055 0.762508 0.341162
624 1 0.849599 0.740383 0.397629
601 1 1.01451 0.6693 0.333038
595 1 0.749505 0.508274 0.406955
658 1 0.425671 0.58503 0.498317
502 1 0.911838 0.913593 0.0116784
686 1 0.577038 0.739881 0.498182
501 1 0.834607 0.825605 -0.00152874
657 1 0.31853 0.483797 0.486374
527 1 0.920068 0.512827 0.255102
693 1 0.844855 0.680705 0.488224
221 1 0.177828 1.00766 0.488354
83 1 0.417128 0.994546 0.252501
589 1 0.487888 0.499323 0.324298
151 1 0.257725 1.01113 0.415437
505 1 1.00606 0.509455 0.179374
93 1 0.825121 1.0181 0.159389
149 1 0.163647 0.992742 0.330193
509 1 0.155892 0.509174 0.161616
159 1 0.589128 0.98979 0.421606
593 1 0.663749 0.509622 0.329474
91 1 0.755477 0.993108 0.25068
439 1 0.237167 0.50684 0.0818185
155 1 0.43237 0.980685 0.419489
77 1 0.164538 1.00086 0.17135
681 1 0.342079 0.671305 0.495053
1 1 0.997978 0.987433 0.0153055
670 1 0.913565 0.588786 0.492646
674 1 0.0834818 0.7359 0.507783
654 1 0.259312 0.589935 0.498347
685 1 0.491701 0.666095 0.482715
678 1 0.249223 0.749454 0.495846
13 1 0.476024 0.991711 0.0220445
705 1 0.326213 0.841019 0.493935
697 1 0.0121807 0.83058 0.500111
710 1 0.586853 0.918662 0.505458
498 1 0.753675 0.905599 -0.00795678
698 1 0.101566 0.91687 0.500541
677 1 0.169883 0.661439 0.507581
717 1 0.842666 0.834317 0.482719
490 1 0.405929 0.90462 0.019448
441 1 0.331578 0.513571 0.00846883
486 1 0.255009 0.925884 0.00602721
481 1 0.998071 0.816133 0.0031096
473 1 0.661082 0.662952 0.00262658
470 1 0.580301 0.764281 -0.000121202
482 1 0.0824565 0.920685 0.0136437
667 1 0.75429 0.500376 0.590275
650 1 0.0958764 0.579568 0.498742
656 1 0.185283 0.581788 0.57587
726 1 0.275929 0.593536 0.67382
709 1 0.504423 0.829739 0.482573
660 1 0.34852 0.564161 0.574356
383 1 0.915414 0.990317 0.922887
733 1 0.496532 0.503942 0.672751
231 1 0.587184 1.00224 0.58257
664 1 0.502781 0.563009 0.58126
668 1 0.678647 0.580734 0.578417
734 1 0.576207 0.576913 0.66662
655 1 0.24982 0.493391 0.575994
844 1 0.00290462 0.905156 0.925956
672 1 0.847219 0.581443 0.597281
863 1 0.917748 0.81719 0.917299
381 1 0.844706 0.984678 0.834858
652 1 1.00714 0.578413 0.579332
727 1 0.249721 0.511956 0.741201
859 1 0.743291 0.82309 0.911747
803 1 0.409255 0.503254 0.927178
675 1 0.0701938 0.668485 0.582343
676 1 0.98793 0.749682 0.583343
731 1 0.408141 0.502602 0.746599
663 1 0.591907 0.499915 0.585221
379 1 0.762019 0.995252 0.903499
680 1 0.175016 0.737351 0.573268
679 1 0.272332 0.666474 0.580186
684 1 0.339237 0.760618 0.57202
703 1 0.255299 0.835923 0.577683
749 1 0.161343 0.662002 0.663661
299 1 0.415108 0.999701 0.752157
295 1 0.250673 0.996515 0.761512
653 1 0.161117 0.487476 0.496432
683 1 0.426248 0.659548 0.579851
688 1 0.496317 0.754114 0.5782
781 1 0.50438 0.85665 0.669492
757 1 0.483532 0.662557 0.674021
687 1 0.566558 0.663134 0.565403
692 1 0.660548 0.746474 0.580188
758 1 0.590559 0.74442 0.675237
711 1 0.587101 0.84591 0.585293
671 1 0.922403 0.495752 0.575382
307 1 0.77248 0.988281 0.751413
691 1 0.778466 0.655692 0.577191
696 1 0.853187 0.745686 0.587614
723 1 0.101853 0.497569 0.741037
695 1 0.921499 0.668598 0.562672
745 1 0.986054 0.667277 0.658753
797 1 0.171759 0.509209 0.839255
699 1 0.0810477 0.825803 0.579781
704 1 0.171843 0.93002 0.581215
770 1 0.0941372 0.915399 0.647518
305 1 0.676053 1.00488 0.680515
858 1 0.746257 0.914088 0.830991
774 1 0.24431 0.923479 0.654181
702 1 0.253912 0.917513 0.485874
707 1 0.426495 0.840625 0.596257
708 1 0.333435 0.926904 0.583946
712 1 0.488777 0.921575 0.590946
778 1 0.411597 0.921566 0.670403
365 1 0.168925 0.986381 0.830563
673 1 0.00541143 0.658993 0.494304
716 1 0.66763 0.925091 0.580116
782 1 0.583786 0.924344 0.666757
864 1 0.839677 0.911183 0.918754
811 1 0.742863 0.506097 0.897635
239 1 0.9239 1.01284 0.575312
494 1 0.59207 0.917069 0.986147
21 1 0.828853 0.995666 1.0079
715 1 0.764565 0.820414 0.573514
720 1 0.842483 0.913277 0.574829
795 1 0.0719373 0.511092 0.911806
805 1 0.508137 0.506064 0.849131
289 1 0.00471559 1.00319 0.665876
719 1 0.912135 0.833497 0.582378
700 1 0.0120684 0.909794 0.576481
790 1 0.918813 0.924307 0.641034
474 1 0.739939 0.754652 1.00481
466 1 0.417884 0.748436 0.999078
809 1 0.670794 0.497975 0.834313
722 1 0.100674 0.586231 0.649044
747 1 0.0726578 0.670295 0.740763
728 1 0.160435 0.589201 0.745549
732 1 0.33399 0.580857 0.752416
855 1 0.577006 0.848022 0.906333
730 1 0.412617 0.587871 0.664363
753 1 0.357233 0.678309 0.666874
736 1 0.502572 0.580853 0.758447
740 1 0.677246 0.58211 0.744027
759 1 0.57618 0.662755 0.748619
761 1 0.661142 0.655801 0.660887
738 1 0.744985 0.589248 0.66294
833 1 0.662292 0.665996 0.833406
810 1 0.755832 0.586893 0.831925
742 1 0.923145 0.582467 0.675787
724 1 0.00891554 0.56379 0.741663
744 1 0.833309 0.584009 0.744165
814 1 0.907034 0.57622 0.832749
765 1 0.841878 0.662553 0.671687
469 1 0.504717 0.676438 1.01534
746 1 0.0706749 0.741885 0.658484
748 1 1.00285 0.756618 0.74586
771 1 0.089362 0.815771 0.730678
817 1 1.00394 0.669659 0.825526
818 1 0.0866559 0.751151 0.828669
752 1 0.172603 0.744143 0.748154
751 1 0.249856 0.657163 0.752493
750 1 0.250751 0.734578 0.666101
756 1 0.348941 0.75102 0.75549
754 1 0.428923 0.754449 0.669922
755 1 0.42096 0.665869 0.760411
785 1 0.675657 0.83903 0.659612
760 1 0.497724 0.759143 0.760572
764 1 0.673765 0.73595 0.752525
830 1 0.582963 0.754244 0.837268
762 1 0.757095 0.754892 0.679399
763 1 0.761034 0.665972 0.750964
768 1 0.845494 0.757396 0.754157
787 1 0.756093 0.844936 0.738308
834 1 0.758435 0.742136 0.836945
766 1 0.929116 0.751067 0.677009
767 1 0.915061 0.673912 0.751671
857 1 0.678982 0.835039 0.828141
769 1 0.00689889 0.835127 0.660955
776 1 0.167255 0.898914 0.740265
841 1 1.01792 0.842402 0.81204
773 1 0.178464 0.81386 0.65239
775 1 0.248763 0.829415 0.730861
849 1 0.333676 0.827138 0.834894
777 1 0.338978 0.839616 0.663097
780 1 0.340336 0.926132 0.768478
779 1 0.424548 0.839078 0.741858
737 1 0.672742 0.504638 0.666508
783 1 0.60868 0.836043 0.740087
784 1 0.507749 0.931296 0.752165
788 1 0.675304 0.922188 0.748223
854 1 0.585355 0.913044 0.820393
361 1 1.00521 0.992125 0.837346
786 1 0.76152 0.915599 0.645926
789 1 0.843133 0.825528 0.662679
792 1 0.844217 0.911088 0.73821
860 1 0.663182 0.917749 0.910252
862 1 0.931997 0.91015 0.844862
791 1 0.93594 0.845509 0.746917
772 1 0.00927371 0.926467 0.735129
856 1 0.509214 0.933323 0.918386
735 1 0.579454 0.505852 0.767875
794 1 0.08699 0.585181 0.830995
821 1 0.160832 0.675291 0.85086
800 1 0.163359 0.588644 0.926454
311 1 0.918423 0.982519 0.751753
798 1 0.241068 0.585789 0.849652
850 1 0.422423 0.923406 0.835254
363 1 0.0883517 0.990212 0.902279
802 1 0.41163 0.586109 0.83418
825 1 0.32649 0.655688 0.838088
804 1 0.336087 0.5866 0.923776
806 1 0.592029 0.578532 0.847592
829 1 0.502544 0.663343 0.831064
808 1 0.508196 0.589375 0.920477
497 1 0.66828 0.831758 1.00561
837 1 0.840149 0.671433 0.836134
812 1 0.672953 0.582287 0.917274
846 1 0.254416 0.904956 0.837366
816 1 0.829794 0.586183 0.917326
796 1 1.00071 0.578811 0.905438
839 1 0.918886 0.664401 0.898673
454 1 0.934739 0.574152 0.996217
824 1 0.152293 0.747854 0.919596
845 1 0.182119 0.83014 0.831434
819 1 0.0808987 0.658169 0.920649
450 1 0.751924 0.590084 0.997955
822 1 0.261214 0.743959 0.839018
823 1 0.243308 0.679207 0.926262
847 1 0.256013 0.82404 0.911455
826 1 0.423755 0.738106 0.842263
827 1 0.425656 0.668746 0.917332
828 1 0.342963 0.745726 0.917528
852 1 0.332025 0.920982 0.928716
369 1 0.325337 0.992309 0.845631
832 1 0.509024 0.75438 0.908008
853 1 0.496544 0.841908 0.840468
831 1 0.582713 0.671648 0.922738
861 1 0.830756 0.839064 0.831534
836 1 0.652 0.757967 0.920504
835 1 0.747218 0.682022 0.923684
291 1 0.0967462 0.999552 0.763751
303 1 0.593638 1.01324 0.741208
840 1 0.824947 0.755845 0.920317
838 1 0.91726 0.758699 0.82374
820 1 0.998654 0.745842 0.908352
851 1 0.404645 0.840948 0.914856
493 1 0.485875 0.839571 0.983056
848 1 0.174649 0.910622 0.911618
843 1 0.087756 0.837127 0.913082
842 1 0.0847724 0.912111 0.83361
741 1 0.845825 0.497957 0.67304
434 1 0.0692204 0.583403 0.993509
465 1 0.339265 0.672898 0.996304
457 1 0.981205 0.67481 0.996073
219 1 0.0928829 1.01843 0.584468
449 1 0.675381 0.505084 1.0057
442 1 0.421523 0.588343 1.00312
489 1 0.339648 0.833066 0.993236
477 1 0.834696 0.662551 0.989808
229 1 0.504079 0.99051 0.516194
713 1 0.668521 0.842094 0.506979
690 1 0.755201 0.744184 0.503042
666 1 0.766527 0.590626 0.496193
689 1 0.68393 0.665539 0.499675
682 1 0.421682 0.758367 0.493926
701 1 0.172374 0.832236 0.507398
706 1 0.413205 0.919848 0.509637
5 1 0.166316 0.994572 1.00518
17 1 0.679154 0.999082 0.976997
