ITEM: TIMESTEP
24900
ITEM: NUMBER OF ATOMS
864
ITEM: BOX BOUNDS pp pp pp
0.0000000000000000e+00 3.1559999999999999e+01
0.0000000000000000e+00 3.1559999999999999e+01
0.0000000000000000e+00 3.1559999999999999e+01
ITEM: ATOMS id type xs ys zs
8 1 0.179973 0.0954655 0.0908568
74 1 0.0914785 0.0844215 0.172518
593 1 0.675235 0.495673 0.327807
101 1 0.165531 0.17441 0.167608
151 1 0.258539 0.000544702 0.413197
12 1 0.33498 0.083546 0.0857557
159 1 0.588858 -0.0109612 0.418918
89 1 0.667764 0.00693643 0.156181
451 1 0.754749 0.498924 0.0786278
215 1 0.912709 0.343981 0.416994
16 1 0.499874 0.0847838 0.0863616
20 1 0.662858 0.0920393 0.0787003
214 1 0.923015 0.410027 0.335364
85 1 0.505007 0.0180274 0.159144
24 1 0.827143 0.0902051 0.0651933
43 1 0.7376 0.160538 0.0828472
22 1 0.924017 0.103443 -0.00307718
4 1 0.986743 0.0938591 0.0811191
47 1 0.912588 0.170995 0.0918947
97 1 -0.00252908 0.180177 0.165208
525 1 0.856125 0.483601 0.161984
75 1 0.0843985 0.00934749 0.247885
27 1 0.0782536 0.170593 0.0899766
98 1 0.0866558 0.24889 0.17885
32 1 0.1772 0.238258 0.0696625
51 1 0.102851 0.336944 0.0815595
31 1 0.258277 0.160056 0.106147
105 1 0.3387 0.157418 0.172494
35 1 0.414251 0.16352 0.0807863
36 1 0.337747 0.243357 0.0779241
40 1 0.485566 0.2461 0.0644557
523 1 0.75313 0.487935 0.259341
39 1 0.575735 0.166477 0.0712436
63 1 0.568662 0.345833 0.0829453
3 1 0.0783413 0.0126052 0.0987897
505 1 0.00256286 0.485648 0.16757
44 1 0.650274 0.236796 0.0841164
114 1 0.742287 0.248065 0.150884
67 1 0.762302 0.333192 0.0831642
149 1 0.172535 -0.0014544 0.333557
28 1 0.0124759 0.270949 0.0655475
48 1 0.828586 0.241797 0.0959327
121 1 0.00852419 0.327656 0.174961
19 1 0.754774 -0.00208152 0.0912949
118 1 0.919273 0.255049 0.167109
579 1 0.0733376 0.498845 0.431423
73 1 -0.0162237 0.019325 0.159295
519 1 0.596413 0.491551 0.248559
52 1 0.0153959 0.400491 0.0703861
56 1 0.171575 0.424682 0.0952924
157 1 0.516232 -0.00700743 0.337572
145 1 0.983643 -0.00284421 0.334116
527 1 0.928996 0.488497 0.258836
55 1 0.251545 0.33623 0.0839085
163 1 0.754637 0.00496627 0.417731
443 1 0.395072 0.50648 0.0568096
59 1 0.424119 0.321091 0.0815726
60 1 0.329889 0.418065 0.0937845
64 1 0.480012 0.425549 0.0632841
130 1 0.427141 0.41114 0.159677
95 1 0.907233 0.00776761 0.25242
133 1 0.504944 0.312056 0.158477
134 1 0.589695 0.40885 0.160954
93 1 0.835621 -0.0127361 0.17204
68 1 0.668448 0.425699 0.0807715
138 1 0.749877 0.414962 0.170064
137 1 0.67001 0.32749 0.129025
167 1 0.906228 -0.00180305 0.424022
599 1 0.936251 0.475185 0.419664
71 1 0.920575 0.321655 0.0820215
72 1 0.859064 0.408206 0.0740094
141 1 0.843495 0.332376 0.153273
211 1 0.747955 0.337608 0.412013
196 1 0.0128828 0.399512 0.408481
577 1 0.00687913 0.499143 0.333517
146 1 0.110394 0.0825115 0.335006
99 1 0.0918107 0.167797 0.253208
433 1 0.00404963 0.494234 0.00217728
80 1 0.162206 0.0974632 0.248268
78 1 0.255012 0.0813645 0.171915
200 1 0.165026 0.432814 0.413843
212 1 0.670306 0.414589 0.416614
84 1 0.328816 0.0833907 0.271092
82 1 0.408211 0.0741166 0.1836
195 1 0.0809854 0.317767 0.421593
86 1 0.5799 0.0931214 0.165351
88 1 0.499004 0.0838099 0.25482
181 1 0.488743 0.182424 0.336257
90 1 0.752729 0.0725969 0.173549
216 1 0.828909 0.405808 0.428008
172 1 0.992468 0.248189 0.424593
203 1 0.420674 0.344445 0.427343
92 1 0.630298 0.0725587 0.257643
178 1 0.419602 0.265895 0.324838
94 1 0.909539 0.0934576 0.180986
76 1 1.00225 0.0923496 0.258298
96 1 0.834608 0.0933702 0.259692
189 1 0.82404 0.167626 0.331516
207 1 0.582426 0.329527 0.430724
104 1 0.174733 0.255102 0.25458
170 1 0.0837991 0.260672 0.331757
123 1 0.0956561 0.337288 0.254181
197 1 0.179287 0.343679 0.344311
103 1 0.266493 0.178591 0.239643
102 1 0.251566 0.265498 0.171027
127 1 0.254232 0.344341 0.252178
106 1 0.406694 0.250186 0.164529
107 1 0.420209 0.17636 0.249279
108 1 0.33673 0.265387 0.244827
109 1 0.490862 0.153615 0.162338
112 1 0.496732 0.251038 0.251398
110 1 0.564887 0.232605 0.151001
111 1 0.577304 0.168335 0.243712
205 1 0.508263 0.328322 0.339444
115 1 0.74263 0.148731 0.253239
113 1 0.673746 0.151574 0.172727
116 1 0.662157 0.249466 0.224196
186 1 0.755074 0.245947 0.326291
117 1 0.828673 0.164547 0.171898
119 1 0.902423 0.175792 0.254517
100 1 -0.0014891 0.257014 0.261199
120 1 0.824701 0.248235 0.240375
143 1 0.926217 0.322939 0.254012
193 1 -0.0153624 0.320475 0.34692
190 1 0.899937 0.25048 0.341277
122 1 0.0899687 0.413451 0.166966
194 1 0.0823678 0.411738 0.339003
125 1 0.174561 0.335495 0.18618
177 1 0.326841 0.182575 0.327204
128 1 0.170641 0.415616 0.258267
126 1 0.251155 0.425757 0.17823
132 1 0.329591 0.436749 0.256532
188 1 0.671814 0.25721 0.424174
77 1 0.177382 -0.0067868 0.176473
191 1 0.903925 0.164391 0.420759
209 1 0.669013 0.321906 0.327329
192 1 0.843031 0.256551 0.435156
129 1 0.323824 0.339732 0.170469
131 1 0.434512 0.338603 0.244292
136 1 0.512603 0.420465 0.247487
206 1 0.59349 0.404408 0.344009
135 1 0.576657 0.318807 0.254148
140 1 0.65555 0.404382 0.252077
185 1 0.65462 0.160452 0.327237
210 1 0.750857 0.400699 0.325949
139 1 0.747843 0.332968 0.24141
142 1 0.925812 0.396655 0.165969
213 1 0.823348 0.330791 0.338474
124 1 -0.00687104 0.405359 0.265992
144 1 0.844241 0.405978 0.258229
204 1 0.331656 0.4252 0.403964
23 1 0.896386 0.0111052 0.0874825
208 1 0.497511 0.414916 0.404346
180 1 0.341673 0.256105 0.422627
152 1 0.182982 0.0951802 0.416475
150 1 0.237123 0.087925 0.334989
201 1 0.348701 0.351878 0.338376
174 1 0.256652 0.25873 0.344792
199 1 0.266777 0.338446 0.418115
154 1 0.422202 0.0820787 0.340754
175 1 0.272063 0.165064 0.41452
156 1 0.340894 0.0774562 0.426304
179 1 0.41435 0.170708 0.410702
589 1 0.519549 0.48859 0.335237
158 1 0.565378 0.103169 0.342822
160 1 0.489777 0.0720792 0.414097
183 1 0.577677 0.176942 0.429319
198 1 0.245529 0.428356 0.343454
162 1 0.74817 0.0687674 0.32427
187 1 0.743718 0.171364 0.414046
164 1 0.678583 0.0882325 0.429759
202 1 0.428258 0.415737 0.316085
182 1 0.57246 0.254553 0.341549
166 1 0.907419 0.0764762 0.333312
148 1 0.981151 0.0763456 0.411909
168 1 0.822126 0.0871111 0.41663
184 1 0.477039 0.261488 0.414251
173 1 0.18101 0.177445 0.341644
171 1 0.0774947 0.162379 0.39514
169 1 0.981775 0.171183 0.340926
176 1 0.173421 0.257832 0.428778
595 1 0.754374 0.48819 0.415147
597 1 0.840596 0.481364 0.340679
278 1 0.581083 0.417817 0.497645
233 1 0.670208 -0.0102391 0.488695
46 1 0.928467 0.244654 -0.00744013
665 1 0.661136 0.489342 0.503989
241 1 -0.000587394 0.163221 0.482722
261 1 0.834534 0.165921 0.500961
5 1 0.154131 0.00926563 0.0239534
53 1 0.170475 0.319177 -0.00733019
2 1 0.0741774 0.0747345 0.0101491
65 1 0.659547 0.331056 0.025071
29 1 0.156264 0.16172 -0.00775233
33 1 0.331558 0.163321 0.00497978
245 1 0.164298 0.16332 0.498868
42 1 0.745463 0.248941 0.0208643
270 1 0.259436 0.419808 0.491374
230 1 0.565776 0.0687662 0.501489
6 1 0.242982 0.0947825 -0.00724103
218 1 0.079434 0.0681958 0.477809
14 1 0.574243 0.085771 0.00287632
258 1 0.749528 0.261225 0.510234
61 1 0.492539 0.330984 -0.00460728
274 1 0.413246 0.430227 0.491058
45 1 0.825316 0.18087 -0.00319146
69 1 0.838265 0.320889 -0.0103082
1 1 0.996049 -0.0150082 0.0023032
253 1 0.488567 0.156532 0.488455
234 1 0.750693 0.0857296 0.50923
54 1 0.245989 0.411992 0.00375099
224 1 0.163466 0.0910125 0.581417
220 1 -0.00936163 0.0850978 0.577937
412 1 0.00601135 0.418806 0.906902
228 1 0.351526 0.0918012 0.597359
247 1 0.271251 0.179969 0.589456
427 1 0.751978 0.332325 0.922702
238 1 0.909445 0.0861123 0.502666
383 1 0.897222 0.00278686 0.923952
379 1 0.738767 0.00773964 0.921258
251 1 0.427165 0.176944 0.597981
298 1 0.423498 0.0810688 0.673199
426 1 0.73878 0.415054 0.83114
232 1 0.501399 0.100326 0.594602
235 1 0.747776 0.00582075 0.581334
735 1 0.574767 0.488732 0.752944
237 1 0.833759 0.00689753 0.505217
805 1 0.497923 0.497883 0.835147
255 1 0.584678 0.164303 0.566244
302 1 0.592048 0.0731099 0.674723
432 1 0.841626 0.411039 0.916701
375 1 0.587367 -0.00203424 0.912089
236 1 0.670432 0.093404 0.5903
240 1 0.830422 0.0851431 0.577988
66 1 0.765689 0.412451 1.00607
307 1 0.750547 0.0131817 0.743684
265 1 0.000854703 0.323586 0.502546
242 1 0.0751681 0.2589 0.503405
243 1 0.0859978 0.174547 0.577809
655 1 0.252075 0.497792 0.567978
377 1 0.663829 -0.00190024 0.826475
248 1 0.166791 0.241708 0.589472
252 1 0.344601 0.25101 0.59115
289 1 0.00211577 0.0115571 0.671576
737 1 0.646247 0.492866 0.666457
322 1 0.421267 0.259328 0.664705
739 1 0.7383 0.492684 0.746392
256 1 0.498052 0.257187 0.578432
353 1 0.664583 0.337688 0.659851
25 1 0.010515 0.168851 0.992009
260 1 0.665517 0.258043 0.584901
259 1 0.749067 0.169828 0.589641
264 1 0.836873 0.251367 0.561016
731 1 0.409261 0.49537 0.756664
330 1 0.737008 0.259248 0.667734
357 1 0.820748 0.322824 0.664465
801 1 0.332113 0.486486 0.82461
263 1 0.911665 0.162087 0.584388
244 1 0.994644 0.247026 0.590494
287 1 0.900281 0.323648 0.597902
267 1 0.0888729 0.32928 0.586953
272 1 0.167811 0.423073 0.579651
425 1 0.659971 0.342372 0.853894
428 1 0.673529 0.411125 0.948945
373 1 0.511199 -0.00909885 0.832011
297 1 0.341453 0.00945912 0.679161
271 1 0.257772 0.358601 0.58601
276 1 0.34285 0.409658 0.589481
388 1 1.00401 0.252936 0.912688
275 1 0.420162 0.33355 0.575673
38 1 0.590473 0.255091 1.00037
279 1 0.585902 0.338242 0.582755
280 1 0.495031 0.419176 0.574821
284 1 0.659082 0.418942 0.589588
404 1 0.660496 0.261325 0.920033
303 1 0.574837 -0.00532075 0.739873
419 1 0.397823 0.33764 0.915925
283 1 0.75302 0.338374 0.585045
354 1 0.743 0.412021 0.660655
262 1 0.924978 0.251939 0.508687
268 1 0.00879406 0.413852 0.587287
288 1 0.838886 0.416968 0.60096
358 1 0.916453 0.399419 0.675315
290 1 0.0831373 0.0825905 0.670671
292 1 1.00191 0.0754374 0.759798
315 1 0.081293 0.170207 0.752538
362 1 0.0790859 0.0705698 0.847053
401 1 0.674695 0.183695 0.833703
321 1 0.347567 0.168645 0.675712
296 1 0.181973 0.0776147 0.75372
294 1 0.256571 0.0921169 0.66017
366 1 0.257863 0.0778651 0.845112
319 1 0.250026 0.173676 0.74041
300 1 0.321257 0.091232 0.747178
370 1 0.398779 0.0776428 0.82187
408 1 0.845462 0.252334 0.913963
329 1 0.652302 0.171497 0.650391
304 1 0.501703 0.0839962 0.758067
327 1 0.590679 0.170959 0.751891
374 1 0.59491 0.0884205 0.831036
402 1 0.742495 0.262665 0.845291
306 1 0.747173 0.0919361 0.658125
308 1 0.668548 0.0927243 0.743982
312 1 0.835017 0.0866657 0.73411
333 1 0.82975 0.187212 0.65354
378 1 0.730371 0.0896299 0.85118
285 1 0.841874 0.340477 0.504441
310 1 0.91323 0.0689752 0.665544
400 1 0.493753 0.261029 0.912123
382 1 0.910108 0.0820605 0.841581
313 1 1.00647 0.163302 0.681958
314 1 0.0877471 0.244759 0.665214
317 1 0.153366 0.169057 0.670922
320 1 0.165866 0.236204 0.746671
385 1 1.01574 0.167523 0.847768
318 1 0.256191 0.256683 0.658772
324 1 0.340306 0.253498 0.73783
343 1 0.249376 0.335642 0.743967
325 1 0.517359 0.170545 0.681286
323 1 0.420338 0.161071 0.747701
394 1 0.429421 0.231817 0.828253
328 1 0.494513 0.249546 0.739879
326 1 0.579887 0.27594 0.670231
398 1 0.578178 0.259581 0.845236
351 1 0.573404 0.335124 0.760284
332 1 0.662427 0.262441 0.7541
331 1 0.745935 0.167658 0.746001
336 1 0.841935 0.24037 0.746173
337 1 -0.00333518 0.320936 0.668853
335 1 0.914638 0.14957 0.740014
316 1 0.00245057 0.239526 0.750559
334 1 0.92712 0.239325 0.675571
429 1 0.835165 0.328015 0.840892
409 1 -0.00242268 0.319682 0.821902
406 1 0.921232 0.225379 0.82206
339 1 0.0896113 0.316495 0.746374
338 1 0.0829163 0.402127 0.67545
344 1 0.159969 0.407273 0.753743
811 1 0.760548 0.48846 0.925026
397 1 0.503174 0.163147 0.827279
345 1 0.331454 0.336168 0.664045
342 1 0.24584 0.41933 0.671216
741 1 0.82978 0.492156 0.684849
341 1 0.171442 0.333549 0.665129
417 1 0.327321 0.338264 0.821778
348 1 0.341911 0.405973 0.739396
424 1 0.486716 0.424263 0.919145
346 1 0.41765 0.422213 0.661606
347 1 0.415964 0.322808 0.759243
352 1 0.493596 0.409025 0.756833
418 1 0.417582 0.42595 0.832092
422 1 0.572714 0.412547 0.854517
349 1 0.488406 0.343522 0.659687
350 1 0.56942 0.417796 0.664829
421 1 0.490483 0.344874 0.842594
355 1 0.748777 0.326018 0.75712
356 1 0.657387 0.40172 0.761518
360 1 0.830507 0.40042 0.746037
725 1 0.166247 0.493931 0.670433
359 1 0.916274 0.319021 0.753832
340 1 -0.00196098 0.410981 0.752758
430 1 0.915878 0.416579 0.834763
399 1 0.582431 0.169139 0.907765
651 1 0.0917774 0.495894 0.599082
387 1 0.0945095 0.166357 0.913183
364 1 0.994599 0.0806717 0.923348
423 1 0.575223 0.333572 0.930461
368 1 0.164257 0.0805796 0.905947
389 1 0.157315 0.159629 0.82902
391 1 0.236295 0.172534 0.911727
395 1 0.420833 0.174425 0.918362
420 1 0.330065 0.42044 0.91604
414 1 0.242198 0.415986 0.833006
372 1 0.330744 0.0935044 0.926628
815 1 0.932535 0.494339 0.923812
376 1 0.509331 0.0763531 0.907279
380 1 0.650481 0.086595 0.931937
416 1 0.171558 0.407489 0.920091
384 1 0.828867 0.0899526 0.923067
403 1 0.754034 0.175336 0.916869
405 1 0.824525 0.169523 0.825478
407 1 0.915592 0.167141 0.91329
413 1 0.176645 0.33712 0.828814
386 1 0.085037 0.248853 0.835133
392 1 0.176912 0.254899 0.907593
411 1 0.0930435 0.340811 0.898051
431 1 0.935084 0.327212 0.909513
410 1 0.0848785 0.418005 0.822809
393 1 0.329943 0.169062 0.822711
390 1 0.252124 0.242483 0.822043
415 1 0.249398 0.328219 0.920888
396 1 0.330477 0.254794 0.903035
311 1 0.910922 0.00298726 0.759538
797 1 0.159533 0.497834 0.837721
266 1 0.0830853 0.409142 0.504042
286 1 0.928653 0.402125 0.513476
9 1 0.338503 0.00422521 0.98478
37 1 0.508318 0.166314 0.983941
669 1 0.828681 0.491809 0.508565
57 1 0.325454 0.324973 1.0119
363 1 0.0925223 0.0106399 0.92762
10 1 0.421069 0.0900142 0.994534
301 1 0.497942 0.000320688 0.671044
254 1 0.582945 0.258961 0.513133
381 1 0.821364 0.0288902 0.819192
50 1 0.0981177 0.432623 1.0038
62 1 0.586688 0.433861 1.00156
743 1 0.923318 0.501949 0.757169
281 1 0.665277 0.345927 0.502161
367 1 0.243309 -0.000227796 0.938347
293 1 0.162029 0.0156074 0.667065
305 1 0.66549 0.00239596 0.66115
13 1 0.495669 0.0015805 0.992487
273 1 0.337743 0.345482 0.503192
269 1 0.169878 0.317824 0.512921
246 1 0.263867 0.261019 0.496006
813 1 0.832227 0.499096 0.833223
309 1 0.823683 0.0074639 0.663332
249 1 0.347446 0.16916 0.515606
18 1 0.74272 0.078242 0.999832
222 1 0.254924 0.101692 0.50034
49 1 0.0266805 0.343166 0.984195
257 1 0.678135 0.178621 0.511807
282 1 0.745702 0.419757 0.503508
250 1 0.421778 0.24992 0.497467
41 1 0.668491 0.170382 0.989245
453 1 0.844625 0.496747 0.99854
30 1 0.254011 0.229071 1.00154
277 1 0.501121 0.33942 0.497031
58 1 0.403334 0.420336 0.989218
34 1 0.411468 0.257215 0.98536
226 1 0.417046 0.0646279 0.507875
70 1 0.936125 0.410019 1.00142
26 1 0.0897678 0.251714 0.997856
440 1 0.169233 0.594004 0.0780502
506 1 0.0769544 0.587035 0.168471
486 1 0.244554 0.924698 0.00618686
463 1 0.251075 0.668676 0.068535
444 1 0.320288 0.596572 0.0784535
648 1 0.842953 0.904187 0.41865
81 1 0.332357 0.998198 0.177211
510 1 0.242813 0.580672 0.153127
537 1 0.328215 0.692733 0.151689
467 1 0.406436 0.66963 0.0558326
448 1 0.50366 0.590549 0.0727713
646 1 0.926329 0.90889 0.321437
452 1 0.682421 0.585747 0.0843499
471 1 0.587628 0.656217 0.089936
507 1 0.0787202 0.483493 0.242767
628 1 0.992805 0.918223 0.420384
591 1 0.588905 0.494716 0.406697
685 1 0.498251 0.656748 0.512387
147 1 0.0826163 0.982015 0.410033
436 1 0.985706 0.583971 0.0970247
456 1 0.835853 0.572958 0.0913696
549 1 0.844594 0.667178 0.167864
455 1 0.926214 0.486327 0.082394
642 1 0.734324 0.919518 0.339158
526 1 0.920536 0.575137 0.178671
459 1 0.0829502 0.670785 0.0878738
460 1 0.994852 0.76704 0.0778411
530 1 0.0736963 0.750691 0.165656
533 1 0.172207 0.657978 0.170313
515 1 0.429019 0.498839 0.258205
464 1 0.158801 0.745339 0.0857354
487 1 0.246181 0.840283 0.083656
534 1 0.248006 0.761244 0.155401
468 1 0.332831 0.762887 0.0741731
491 1 0.416525 0.829137 0.0737962
472 1 0.48903 0.734912 0.0726201
165 1 0.831243 0.999777 0.343979
7 1 0.254208 0.993988 0.0908143
495 1 0.58111 0.822981 0.0796372
513 1 0.337338 0.51945 0.16914
581 1 0.163016 0.493245 0.324331
475 1 0.754516 0.675873 0.0916799
476 1 0.66479 0.755005 0.0795483
569 1 0.672328 0.820148 0.165922
499 1 0.742869 0.837708 0.0708249
545 1 0.664916 0.670341 0.159335
546 1 0.746486 0.746526 0.16902
479 1 0.904805 0.668276 0.0722975
480 1 0.828204 0.758376 0.0949827
550 1 0.925433 0.750171 0.157057
529 1 1.00251 0.675088 0.154454
483 1 0.0843165 0.828391 0.0825888
554 1 0.0949102 0.934041 0.162675
484 1 -0.0033053 0.925779 0.0950879
553 1 1.00239 0.837875 0.154759
155 1 0.427202 0.993924 0.419355
488 1 0.16988 0.912361 0.0765746
492 1 0.329751 0.918866 0.0853671
561 1 0.338611 0.834209 0.160862
557 1 0.164925 0.841651 0.158932
558 1 0.249243 0.918961 0.180491
643 1 0.752123 0.82904 0.426021
562 1 0.425604 0.906469 0.173519
496 1 0.481543 0.908026 0.0910379
566 1 0.590586 0.908513 0.168676
439 1 0.246324 0.513171 0.0769656
644 1 0.665142 0.901518 0.425645
500 1 0.663854 0.912915 0.0801917
504 1 0.825809 0.920171 0.0900435
573 1 0.841373 0.823316 0.178006
503 1 0.908148 0.849134 0.0924799
91 1 0.754756 0.989309 0.246597
229 1 0.502387 0.988993 0.494664
639 1 0.590793 0.825495 0.42956
512 1 0.161389 0.575352 0.246279
508 1 1.02454 0.585364 0.264192
161 1 0.648855 0.990765 0.325953
578 1 0.0850758 0.573179 0.346573
582 1 0.229464 0.589522 0.323481
514 1 0.398952 0.606437 0.16242
516 1 0.316239 0.60026 0.244356
586 1 0.411502 0.599082 0.331349
520 1 0.49544 0.58817 0.268631
518 1 0.588177 0.577976 0.18668
638 1 0.590946 0.892849 0.318797
543 1 0.593098 0.669951 0.241628
590 1 0.601137 0.585567 0.318999
524 1 0.67267 0.593434 0.248125
617 1 0.676551 0.664628 0.33197
522 1 0.75454 0.572324 0.169333
521 1 0.678001 0.502573 0.15629
547 1 0.758813 0.665874 0.244234
621 1 0.833673 0.670564 0.325823
528 1 0.835532 0.55504 0.248675
598 1 0.919735 0.573149 0.326651
531 1 0.0812602 0.672923 0.243879
536 1 0.164816 0.752307 0.240091
532 1 1.0012 0.757877 0.236215
602 1 0.0728436 0.758723 0.322591
535 1 0.247473 0.682863 0.24432
606 1 0.238802 0.747204 0.326069
541 1 0.497082 0.646232 0.186501
538 1 0.421589 0.752929 0.160094
540 1 0.335424 0.758288 0.246707
539 1 0.406976 0.680231 0.242706
544 1 0.490631 0.742087 0.25479
565 1 0.502276 0.832583 0.157641
542 1 0.562991 0.750444 0.156727
548 1 0.681735 0.751321 0.249958
567 1 0.565646 0.81595 0.244159
551 1 0.936073 0.666146 0.250889
552 1 0.835396 0.741798 0.248814
625 1 -0.0029133 0.835955 0.326272
555 1 0.0783692 0.840542 0.236246
560 1 0.164913 0.907041 0.249986
559 1 0.257446 0.837334 0.240747
630 1 0.254311 0.908506 0.326445
629 1 0.148884 0.837405 0.328896
563 1 0.412682 0.818237 0.250416
564 1 0.347622 0.904082 0.235368
634 1 0.413202 0.907909 0.341257
718 1 0.907087 0.921176 0.510419
568 1 0.491944 0.90691 0.274274
572 1 0.672496 0.913899 0.235776
637 1 0.503265 0.823312 0.336067
570 1 0.744488 0.909708 0.163459
571 1 0.756313 0.834187 0.25149
576 1 0.848975 0.916655 0.257305
574 1 0.923739 0.924505 0.168258
641 1 0.668988 0.823242 0.335285
645 1 0.813478 0.832265 0.336109
575 1 0.908639 0.827219 0.261816
556 1 1.01054 0.924764 0.2313
517 1 0.501557 0.519934 0.17204
640 1 0.507178 0.906117 0.411402
658 1 0.42978 0.579003 0.485501
509 1 0.164144 0.494532 0.172748
603 1 0.0784872 0.673498 0.423221
580 1 0.996557 0.589092 0.428411
583 1 0.23849 0.512647 0.411579
682 1 0.419034 0.748701 0.497134
83 1 0.430991 0.992055 0.252856
87 1 0.568001 0.992243 0.237139
584 1 0.168476 0.589282 0.414843
588 1 0.331459 0.591678 0.414046
690 1 0.759749 0.74989 0.496177
511 1 0.244944 0.507633 0.242098
592 1 0.491571 0.574978 0.403557
489 1 0.351233 0.84514 -0.0151501
615 1 0.577727 0.667897 0.412594
635 1 0.417087 0.828486 0.409234
596 1 0.683034 0.582805 0.405468
585 1 0.32323 0.514937 0.330464
633 1 0.328068 0.825232 0.335887
15 1 0.590943 0.9995 0.0803245
594 1 0.763219 0.577074 0.324342
619 1 0.759758 0.658365 0.41122
600 1 0.845516 0.552678 0.421486
632 1 0.177132 0.925802 0.414352
623 1 0.912752 0.665099 0.420934
601 1 0.0169582 0.656216 0.339513
627 1 0.0779615 0.854499 0.406048
11 1 0.416928 1.00918 0.0930781
605 1 0.1464 0.664512 0.3309
609 1 0.327423 0.670301 0.339667
608 1 0.146831 0.757385 0.414648
607 1 0.251116 0.668399 0.414257
587 1 0.413064 0.492362 0.397956
435 1 0.0811875 0.50581 0.0896583
613 1 0.501615 0.668655 0.339586
610 1 0.420095 0.744752 0.337187
611 1 0.415373 0.656213 0.421486
616 1 0.507395 0.74808 0.402967
612 1 0.32838 0.755182 0.422661
614 1 0.578336 0.735526 0.3201
689 1 0.691608 0.657453 0.500007
618 1 0.750789 0.741591 0.350019
624 1 0.843192 0.753441 0.414064
620 1 0.669473 0.743088 0.419988
710 1 0.588682 0.911464 0.503505
647 1 0.916387 0.838645 0.417945
604 1 0.00428423 0.763229 0.419585
622 1 0.937138 0.751039 0.332615
706 1 0.423264 0.903765 0.496294
636 1 0.327207 0.895544 0.41524
631 1 0.239128 0.821086 0.403539
626 1 0.0746309 0.918902 0.313503
446 1 0.597723 0.581972 -0.00238192
449 1 0.674046 0.509216 0.0107588
153 1 0.333465 0.982919 0.330639
713 1 0.670852 0.814948 0.507481
79 1 0.249662 0.996014 0.251157
447 1 0.57684 0.500735 0.0846228
434 1 0.0662082 0.580782 0.0117591
482 1 0.0871999 0.918255 -0.00106499
693 1 0.829124 0.669333 0.500788
694 1 0.914823 0.752732 0.497475
21 1 0.833442 0.99482 0.00331887
654 1 0.237901 0.581806 0.492981
661 1 0.503622 0.492228 0.485799
474 1 0.750817 0.754768 -0.00734154
477 1 0.824662 0.681675 0.00223501
17 1 0.67315 1.0034 0.0168464
438 1 0.247002 0.599032 -0.0126274
450 1 0.766553 0.572698 -0.000342197
462 1 0.237402 0.758465 0.00705068
678 1 0.241933 0.751306 0.490092
501 1 0.825988 0.840703 -0.00500618
709 1 0.497439 0.829424 0.494465
670 1 0.917547 0.585332 0.496361
457 1 1.00543 0.670559 0.00459231
701 1 0.155021 0.840478 0.50773
675 1 0.0817993 0.669924 0.611597
652 1 0.988437 0.585791 0.600324
745 1 1.00118 0.681472 0.678413
437 1 0.1768 0.504645 0.998663
656 1 0.163648 0.578136 0.5971
660 1 0.336233 0.567238 0.583721
749 1 0.163242 0.665168 0.668148
664 1 0.504896 0.576169 0.583642
683 1 0.421596 0.647947 0.584499
668 1 0.674696 0.573839 0.590877
687 1 0.584045 0.655478 0.580087
761 1 0.668159 0.653045 0.665157
863 1 0.909026 0.824566 0.905541
672 1 0.847595 0.588897 0.583055
738 1 0.764416 0.575581 0.673866
365 1 0.186028 0.988602 0.845772
742 1 0.90834 0.573524 0.675478
695 1 0.92848 0.67026 0.589367
223 1 0.261167 1.00031 0.596787
481 1 0.996526 0.848652 1.01312
680 1 0.157886 0.756781 0.587852
699 1 0.0820918 0.842757 0.58762
679 1 0.257689 0.651835 0.586186
750 1 0.247617 0.74991 0.666232
773 1 0.154111 0.831317 0.658413
442 1 0.405814 0.592473 0.988363
666 1 0.741187 0.558102 0.499202
684 1 0.32323 0.7346 0.584738
688 1 0.501047 0.74449 0.576657
781 1 0.514001 0.827723 0.67188
707 1 0.425088 0.8353 0.594247
754 1 0.424086 0.75886 0.66976
692 1 0.674661 0.737394 0.581876
711 1 0.578184 0.827864 0.574928
714 1 0.743916 0.918454 0.505326
691 1 0.760037 0.648442 0.583946
715 1 0.747432 0.829673 0.576512
671 1 0.918499 0.499743 0.576321
676 1 0.00730211 0.75494 0.585314
696 1 0.843213 0.735735 0.581798
766 1 0.916098 0.758061 0.66694
719 1 0.919473 0.838012 0.602553
371 1 0.430682 1.00571 0.904969
700 1 0.996269 0.918269 0.587575
770 1 0.0798217 0.933631 0.657235
723 1 0.0795294 0.49977 0.753384
704 1 0.165011 0.917957 0.572216
703 1 0.253087 0.833062 0.581799
708 1 0.34301 0.926533 0.594161
299 1 0.415804 0.983822 0.749797
219 1 0.085753 1.01385 0.571211
777 1 0.337776 0.831836 0.662788
712 1 0.512483 0.905694 0.580564
778 1 0.430478 0.917159 0.671229
716 1 0.657136 0.908671 0.587407
466 1 0.413579 0.754984 0.991551
478 1 0.905926 0.763125 1.01135
809 1 0.673071 0.501875 0.842201
239 1 0.922034 1.00756 0.574599
720 1 0.824239 0.925891 0.57935
461 1 0.159606 0.671396 0.998435
663 1 0.571686 0.494345 0.583634
790 1 0.917937 0.936377 0.66417
369 1 0.313733 0.98752 0.833038
729 1 0.336126 0.50318 0.669053
722 1 0.0817671 0.586132 0.672932
747 1 0.0811052 0.660963 0.746388
724 1 0.996167 0.586218 0.753176
753 1 0.321861 0.661528 0.670824
728 1 0.166161 0.585437 0.749364
726 1 0.244839 0.575755 0.678463
732 1 0.327242 0.587296 0.770794
751 1 0.243257 0.657221 0.750121
730 1 0.41946 0.590291 0.675766
755 1 0.429981 0.670616 0.739982
757 1 0.51446 0.670915 0.669187
864 1 0.826213 0.921596 0.919724
736 1 0.50453 0.585049 0.749359
734 1 0.583394 0.582175 0.671082
740 1 0.666572 0.573892 0.732015
744 1 0.834851 0.580953 0.767073
765 1 0.832039 0.664929 0.671865
810 1 0.758061 0.58478 0.828318
657 1 0.326428 0.501934 0.484102
291 1 0.0876391 1.00228 0.751145
721 1 0.979846 0.494631 0.662324
767 1 0.911962 0.67234 0.747445
746 1 0.0823916 0.757975 0.679875
818 1 0.0762436 0.743653 0.825903
752 1 0.169208 0.728051 0.754223
845 1 0.172935 0.834344 0.838918
775 1 0.239229 0.825504 0.736637
829 1 0.489294 0.657751 0.834413
756 1 0.339698 0.750647 0.735438
760 1 0.506303 0.743387 0.751414
779 1 0.426741 0.837064 0.748056
826 1 0.405847 0.769345 0.82883
758 1 0.587542 0.746331 0.65753
759 1 0.583565 0.661786 0.74708
783 1 0.590515 0.820763 0.747299
785 1 0.655973 0.82471 0.659792
830 1 0.590836 0.724776 0.839556
764 1 0.659945 0.742479 0.73084
762 1 0.756674 0.745198 0.667542
763 1 0.760695 0.673322 0.747763
834 1 0.754457 0.736463 0.842143
787 1 0.740311 0.83018 0.74304
768 1 0.838073 0.749604 0.745141
769 1 0.00682826 0.847511 0.669419
748 1 0.998992 0.753047 0.758409
789 1 0.830624 0.831562 0.650977
837 1 0.834249 0.67323 0.838322
231 1 0.599403 1.00982 0.584558
674 1 0.0837029 0.755804 0.505169
841 1 -0.0167877 0.844453 0.826233
771 1 0.0986631 0.82532 0.756362
842 1 0.0854383 0.927728 0.844751
493 1 0.512425 0.820325 0.986607
857 1 0.673218 0.820051 0.829394
776 1 0.171668 0.909922 0.756791
774 1 0.235821 0.90853 0.658302
846 1 0.249545 0.90093 0.821457
780 1 0.336155 0.914755 0.738752
784 1 0.508509 0.911131 0.750725
445 1 0.484132 0.508852 0.995197
854 1 0.592257 0.916706 0.824336
782 1 0.576237 0.913787 0.66675
788 1 0.66286 0.934271 0.739084
786 1 0.751028 0.922802 0.655712
649 1 0.997813 0.5122 0.507546
861 1 0.824773 0.83741 0.804286
858 1 0.760329 0.931584 0.830976
677 1 0.152804 0.656631 0.513823
862 1 0.898533 0.923586 0.827259
791 1 0.913584 0.848043 0.734869
772 1 -0.00848111 0.939786 0.742775
792 1 0.827914 0.928294 0.732265
794 1 0.0836001 0.583302 0.844254
800 1 0.164373 0.592133 0.927176
825 1 0.344513 0.679957 0.830762
823 1 0.237989 0.685691 0.90593
821 1 0.150006 0.665352 0.843943
798 1 0.237905 0.583672 0.829447
473 1 0.668729 0.659186 1.01439
673 1 1.00296 0.683905 0.502999
804 1 0.312394 0.599375 0.900353
802 1 0.418812 0.589683 0.831428
808 1 0.49408 0.585933 0.920295
227 1 0.418237 1.00304 0.598233
860 1 0.673072 0.91433 0.900123
793 1 0.00842009 0.502944 0.840276
833 1 0.669148 0.655089 0.8194
806 1 0.588058 0.572663 0.816543
835 1 0.745396 0.666654 0.925308
812 1 0.68133 0.586013 0.92422
816 1 0.840714 0.584935 0.912537
851 1 0.435593 0.835957 0.919932
502 1 0.906569 0.910386 1.0028
839 1 0.916325 0.681108 0.927597
850 1 0.418325 0.907294 0.828141
814 1 0.920563 0.560214 0.85265
796 1 1.00395 0.581143 0.917213
856 1 0.510987 0.924103 0.912336
727 1 0.250748 0.491947 0.757704
843 1 0.0662421 0.839312 0.912383
817 1 0.976853 0.673363 0.832103
819 1 0.0680647 0.681612 0.928564
848 1 0.166968 0.909796 0.922145
824 1 0.154447 0.753285 0.907867
822 1 0.25418 0.749439 0.82448
828 1 0.329632 0.760772 0.902745
847 1 0.252288 0.831079 0.933503
844 1 0.977556 0.914133 0.912351
849 1 0.324043 0.836444 0.82427
832 1 0.503739 0.737196 0.909307
827 1 0.412948 0.679202 0.913477
855 1 0.59636 0.840842 0.916925
853 1 0.513726 0.825247 0.838822
831 1 0.57688 0.651875 0.917483
859 1 0.75278 0.833456 0.909641
840 1 0.832962 0.754094 0.922627
836 1 0.665893 0.743184 0.922458
852 1 0.337062 0.913367 0.902539
820 1 0.992771 0.756949 0.914638
838 1 0.917804 0.759445 0.827021
458 1 0.0811243 0.753782 1.01088
361 1 0.992183 0.997386 0.837746
698 1 0.0773288 0.91336 0.504172
803 1 0.396976 0.515888 0.910085
295 1 0.247873 0.997708 0.741007
807 1 0.584377 0.508117 0.919972
799 1 0.248517 0.492663 0.905346
653 1 0.160347 0.511466 0.496918
733 1 0.500602 0.514928 0.677376
795 1 0.0877332 0.503749 0.917637
702 1 0.257505 0.92292 0.49984
659 1 0.426682 0.501565 0.585115
667 1 0.753255 0.497061 0.593811
681 1 0.337811 0.658229 0.504176
686 1 0.573779 0.743802 0.496512
485 1 0.168241 0.838304 0.999077
662 1 0.587188 0.588728 0.495441
497 1 0.663023 0.837502 1.0009
465 1 0.332498 0.667849 0.979033
498 1 0.736386 0.915451 0.989424
470 1 0.586407 0.739287 0.993561
490 1 0.432599 0.924041 0.980866
217 1 0.995577 0.993243 0.491238
494 1 0.604208 0.928862 1.00063
469 1 0.495094 0.676148 0.994881
650 1 0.0719239 0.591961 0.532493
717 1 0.835878 0.82544 0.509283
441 1 0.317973 0.518459 0.990595
697 1 0.981576 0.849353 0.499925
454 1 0.923058 0.585993 0.998287
705 1 0.337099 0.824648 0.507213
221 1 0.160492 0.994927 0.489068
225 1 0.341128 1.00121 0.517144
