ITEM: TIMESTEP
14000
ITEM: NUMBER OF ATOMS
500
ITEM: BOX BOUNDS pp pp pp
0.0000000000000000e+00 2.6299999999999997e+01
0.0000000000000000e+00 2.6299999999999997e+01
0.0000000000000000e+00 2.6299999999999997e+01
ITEM: ATOMS id type xs ys zs
23 1 0.115743 0.187074 0.0887457
52 1 0.0873432 0.0917599 0.208387
3 1 0.108354 0.00870605 0.0921369
71 1 0.004907 0.18021 0.179614
75 1 0.208282 0.177472 0.208572
8 1 0.206424 0.105487 0.100478
27 1 0.301468 0.204619 0.109401
56 1 0.31851 0.0974081 0.205752
25 1 0.220064 0.206917 0.000490662
29 1 0.399887 0.192474 0.028584
7 1 0.30032 0.00423064 0.0768247
79 1 0.410474 0.205489 0.206428
12 1 0.411898 0.0883127 0.117826
11 1 0.495421 0.00293798 0.0954041
31 1 0.494003 0.197776 0.110474
60 1 0.526669 0.110639 0.221018
16 1 0.582865 0.120545 0.0897225
15 1 0.718011 0.00177575 0.105154
83 1 0.611922 0.19788 0.192221
35 1 0.718022 0.202595 0.101932
64 1 0.705892 0.103547 0.193774
20 1 0.799931 0.0989182 0.0843408
13 1 0.610114 0.00250203 0.0221824
14 1 0.696547 0.103117 0.00617002
19 1 0.907384 0.00305203 0.0900028
4 1 0.993362 0.104093 0.068997
87 1 0.814863 0.193566 0.186846
39 1 0.885251 0.200221 0.0694463
68 1 0.901861 0.102444 0.177517
67 1 0.810266 0.0182869 0.200268
42 1 0.107192 0.396848 0.104905
72 1 0.118278 0.293638 0.193261
24 1 0.00304538 0.283749 0.103223
93 1 0.190511 0.406999 0.206073
254 1 0.196072 0.495872 0.101983
91 1 0.00756801 0.391832 0.211543
301 1 0.0856803 0.493511 0.197769
43 1 0.198716 0.408197 0.0125263
28 1 0.200752 0.286785 0.105076
44 1 0.303526 0.423439 0.108004
76 1 0.294396 0.312381 0.188507
32 1 0.388987 0.303301 0.0877308
95 1 0.386328 0.398901 0.1982
45 1 0.392774 0.404404 0.00699084
305 1 0.510751 0.499962 0.21757
46 1 0.49629 0.385477 0.0936688
80 1 0.495837 0.302758 0.193513
256 1 0.427632 0.497745 0.120401
36 1 0.599492 0.280017 0.0954782
47 1 0.597682 0.395797 0.0172787
307 1 0.699184 0.48101 0.20098
97 1 0.60552 0.374416 0.175779
48 1 0.708647 0.405529 0.0916939
84 1 0.714608 0.281793 0.208364
40 1 0.805708 0.295478 0.0986629
99 1 0.820351 0.396117 0.190016
50 1 0.903399 0.388375 0.0923174
88 1 0.896467 0.278524 0.18849
260 1 0.808263 0.489476 0.0858294
309 1 0.901817 0.498855 0.194889
252 1 0.995589 0.493471 0.101006
129 1 0.194232 0.109202 0.492747
73 1 0.0998116 0.190294 0.29706
102 1 0.103477 0.121748 0.402159
58 1 0.196605 0.0959962 0.296135
54 1 0.00739959 0.0803795 0.306461
111 1 0.00690517 0.202106 0.417558
113 1 0.219055 0.219978 0.404697
77 1 0.315509 0.193114 0.303659
104 1 0.318661 0.116788 0.400486
103 1 0.206828 0.0143646 0.39295
138 1 0.305342 0.205067 0.498087
128 1 0.298685 0.0256685 0.498147
62 1 0.422247 0.0826415 0.303356
115 1 0.401457 0.219867 0.414193
81 1 0.485671 0.20953 0.306678
106 1 0.495015 0.10074 0.40641
117 1 0.592312 0.204715 0.388682
133 1 0.586342 0.115954 0.485168
107 1 0.605676 0.00194696 0.400007
66 1 0.620295 0.0950378 0.313058
85 1 0.709365 0.186718 0.311119
108 1 0.719539 0.0831847 0.406048
119 1 0.78947 0.19619 0.43261
109 1 0.81146 0.00141728 0.402586
101 1 0.996101 0.00759646 0.400648
70 1 0.805406 0.113999 0.29631
110 1 0.895581 0.106403 0.409473
89 1 0.922054 0.176494 0.303662
69 1 0.898304 0.00666735 0.293969
377 1 0.181453 0.482055 0.495752
122 1 0.191645 0.387854 0.393801
92 1 0.108603 0.403748 0.307381
112 1 0.0912301 0.306525 0.394807
123 1 0.38056 0.404128 0.398165
94 1 0.293421 0.413649 0.294919
114 1 0.300129 0.310596 0.417997
82 1 0.386927 0.308993 0.317678
78 1 0.20863 0.300237 0.291653
352 1 0.285998 0.499038 0.400221
116 1 0.494287 0.306498 0.413267
96 1 0.487357 0.388384 0.306391
353 1 0.495325 0.478918 0.391256
306 1 0.40282 0.495604 0.310164
145 1 0.797773 0.300766 0.495003
86 1 0.601445 0.282344 0.284033
124 1 0.602137 0.40021 0.385629
98 1 0.697268 0.38121 0.286249
118 1 0.678289 0.294698 0.402317
125 1 0.788064 0.395665 0.390086
149 1 0.707111 0.39524 0.484695
308 1 0.615969 0.499257 0.287112
302 1 0.998634 0.496712 0.315017
121 1 0.997181 0.389132 0.390828
310 1 0.810542 0.49505 0.29732
90 1 0.817602 0.273841 0.300006
100 1 0.893156 0.385803 0.312251
120 1 0.900898 0.281322 0.419733
74 1 0.993533 0.278289 0.304415
355 1 0.895928 0.495463 0.392507
380 1 0.805342 0.47892 0.485773
376 1 0.990006 0.494237 0.480705
152 1 0.116151 0.0906499 0.597014
173 1 0.11414 0.212519 0.701817
151 1 0.00556618 4.23235e-05 0.602103
171 1 0.00275879 0.215868 0.610902
154 1 0.0142279 0.0952617 0.696626
153 1 0.119792 0.000955476 0.697261
136 1 0.0950198 0.201327 0.512029
127 1 0.022153 0.107635 0.512909
158 1 0.204399 0.104323 0.703702
175 1 0.203395 0.191442 0.592888
156 1 0.282554 0.0896923 0.6109
177 1 0.287194 0.216495 0.700797
159 1 0.390069 0.000398207 0.606877
162 1 0.40161 0.112878 0.700581
179 1 0.400541 0.20927 0.59203
160 1 0.498203 0.105971 0.597032
181 1 0.513463 0.198294 0.688762
183 1 0.591595 0.213905 0.596444
166 1 0.591032 0.0875355 0.693539
163 1 0.594284 0.000367546 0.597271
140 1 0.499217 0.202241 0.500666
131 1 0.400724 0.113015 0.506585
164 1 0.68085 0.111659 0.59288
185 1 0.696172 0.189777 0.691715
187 1 0.79703 0.198822 0.603233
167 1 0.79526 0.013837 0.622671
142 1 0.692461 0.222481 0.50451
135 1 0.794414 0.101522 0.523117
170 1 0.805887 0.111211 0.710513
168 1 0.916803 0.103377 0.612785
189 1 0.908297 0.187847 0.701236
144 1 0.898949 0.194001 0.519109
134 1 0.892304 0.00318407 0.519756
139 1 0.195623 0.304998 0.500372
172 1 0.0934841 0.31272 0.607274
192 1 0.111278 0.408658 0.706426
193 1 0.188418 0.40941 0.612013
174 1 0.00896723 0.318612 0.717767
146 1 0.0829159 0.395515 0.512773
178 1 0.204675 0.306723 0.678167
176 1 0.298531 0.307597 0.585437
194 1 0.300583 0.415055 0.686715
182 1 0.398793 0.293116 0.696098
147 1 0.294196 0.40864 0.507514
141 1 0.395878 0.324468 0.504492
195 1 0.408845 0.414424 0.611948
180 1 0.48734 0.304625 0.593193
196 1 0.496367 0.386475 0.711915
197 1 0.572349 0.405206 0.612838
148 1 0.492265 0.433837 0.51244
143 1 0.581977 0.326035 0.505841
379 1 0.598362 0.495815 0.504874
408 1 0.607034 0.498704 0.71037
186 1 0.60139 0.292223 0.70531
184 1 0.696015 0.304582 0.595151
198 1 0.706302 0.397723 0.689495
190 1 0.78445 0.298366 0.682355
199 1 0.793726 0.408853 0.601647
407 1 0.693536 0.491193 0.595791
410 1 0.777784 0.498513 0.694111
137 1 0.994313 0.292746 0.504112
191 1 0.985061 0.398026 0.604199
188 1 0.889516 0.297425 0.611073
200 1 0.896644 0.378151 0.702873
409 1 0.894504 0.494834 0.615995
150 1 0.910738 0.385477 0.503583
1 1 0.0163219 0.00125332 0.993975
21 1 0.00274307 0.206445 0.990008
202 1 0.111484 0.0988513 0.797526
223 1 0.112273 0.203234 0.90471
221 1 0.0102809 0.19639 0.795939
2 1 0.104591 0.0982718 0.989088
201 1 0.0142852 0.00174389 0.792989
205 1 0.198751 0.00533081 0.802763
208 1 0.209227 0.112503 0.883271
225 1 0.209022 0.214158 0.82004
206 1 0.300184 0.0985569 0.78483
227 1 0.307746 0.212614 0.910928
229 1 0.395578 0.209808 0.791263
6 1 0.317363 0.0996483 0.993875
5 1 0.203147 0.0190125 0.990637
212 1 0.400269 0.119963 0.883308
210 1 0.502236 0.0973417 0.797093
231 1 0.504218 0.200759 0.901366
233 1 0.591645 0.188922 0.799768
10 1 0.489782 0.0907346 0.997709
37 1 0.790123 0.216653 0.99115
215 1 0.703462 0.000836668 0.928402
216 1 0.600644 0.0810197 0.91024
214 1 0.699617 0.109984 0.808747
235 1 0.697028 0.212866 0.897762
220 1 0.78785 0.0946318 0.911608
33 1 0.604067 0.19047 0.991046
213 1 0.601638 0.00502648 0.792922
18 1 0.893531 0.0899191 0.992371
237 1 0.812647 0.20004 0.8053
204 1 0.996379 0.0724839 0.893928
218 1 0.905473 0.0819199 0.794582
239 1 0.923776 0.181821 0.897211
224 1 0.00685313 0.295442 0.896063
22 1 0.117904 0.301417 0.992438
242 1 0.0773744 0.398963 0.882499
228 1 0.19509 0.327743 0.893378
222 1 0.110966 0.301294 0.784374
41 1 0.00337255 0.403214 0.998886
243 1 0.201393 0.416215 0.802266
245 1 0.392931 0.403053 0.795754
244 1 0.295505 0.412789 0.898981
226 1 0.307666 0.318721 0.793625
232 1 0.388115 0.306767 0.897774
26 1 0.294116 0.321261 0.998222
458 1 0.584554 0.488617 0.90904
455 1 0.527411 0.498488 0.800899
30 1 0.488149 0.306449 0.991302
230 1 0.514105 0.281105 0.80271
246 1 0.493785 0.400817 0.890712
34 1 0.687887 0.293864 0.998296
234 1 0.699294 0.277247 0.786883
248 1 0.701854 0.391332 0.895555
236 1 0.60543 0.305865 0.886081
249 1 0.79087 0.391065 0.797001
247 1 0.613119 0.393142 0.794644
257 1 0.698343 0.48342 0.987173
460 1 0.806361 0.477592 0.911334
38 1 0.911287 0.292974 0.984068
49 1 0.80599 0.388184 0.998849
241 1 0.970022 0.409594 0.793594
238 1 0.900091 0.287534 0.803758
250 1 0.913627 0.38729 0.901832
240 1 0.801586 0.313857 0.895871
259 1 0.902237 0.489824 0.998407
263 1 0.0675434 0.599412 0.101393
312 1 0.094698 0.693355 0.187967
268 1 0.193044 0.696804 0.0968399
264 1 0.00177852 0.702828 0.0985793
315 1 0.190118 0.587321 0.198609
262 1 0.0909279 0.691875 0.0156389
251 1 0.092673 0.515801 0.00349765
267 1 0.280504 0.599826 0.107656
316 1 0.299903 0.704226 0.20362
319 1 0.388998 0.610475 0.186407
272 1 0.39543 0.703079 0.0865559
253 1 0.295561 0.50293 0.00287312
265 1 0.203444 0.595881 0.0111507
303 1 0.312288 0.513442 0.205187
271 1 0.498447 0.613748 0.107546
320 1 0.503398 0.716401 0.197054
269 1 0.404477 0.587479 0.000811808
273 1 0.592627 0.606493 0.0152535
270 1 0.498859 0.688508 0.00111943
255 1 0.505811 0.500971 0.0118186
276 1 0.603844 0.69329 0.109412
323 1 0.611175 0.594999 0.209043
275 1 0.696729 0.573194 0.0846496
324 1 0.711975 0.681844 0.191798
327 1 0.793887 0.577394 0.185096
258 1 0.600855 0.505714 0.114771
274 1 0.699668 0.687777 0.013762
311 1 0.986933 0.595316 0.195589
280 1 0.804752 0.70112 0.0914074
279 1 0.907408 0.594654 0.0861939
328 1 0.904114 0.708048 0.183569
278 1 0.910519 0.697375 0.00513835
51 1 0.00664241 0.997174 0.172338
285 1 0.192239 0.802885 0.00888063
283 1 0.0978646 0.805088 0.110042
332 1 0.0934785 0.904266 0.204781
288 1 0.1885 0.914418 0.0929696
284 1 0.00179796 0.903217 0.0938329
335 1 0.195781 0.799978 0.187045
287 1 0.30212 0.788891 0.102912
336 1 0.302175 0.906399 0.191521
55 1 0.219123 0.990419 0.191019
290 1 0.513257 0.898636 0.0184511
292 1 0.413185 0.905203 0.105277
339 1 0.411035 0.804776 0.215842
291 1 0.515952 0.798133 0.0852073
340 1 0.521072 0.885394 0.186711
289 1 0.400559 0.814176 0.00686011
59 1 0.419455 0.995072 0.201798
343 1 0.616733 0.783754 0.199632
296 1 0.614536 0.904699 0.104417
295 1 0.707651 0.800408 0.100328
344 1 0.702377 0.902844 0.194245
293 1 0.616926 0.786219 0.00189083
294 1 0.711616 0.903765 0.0080678
63 1 0.606075 0.997886 0.194928
17 1 0.81091 0.990176 0.0034815
300 1 0.813421 0.906474 0.0977791
331 1 0.989745 0.793398 0.212151
347 1 0.80287 0.812165 0.19093
299 1 0.915066 0.805403 0.0992734
348 1 0.898732 0.912157 0.212582
281 1 0.98969 0.807394 0.000301272
304 1 0.193743 0.510118 0.291267
313 1 0.104655 0.597226 0.297569
357 1 0.0961361 0.702141 0.40638
318 1 0.195984 0.698637 0.304562
381 1 0.0856639 0.597654 0.47626
351 1 0.109982 0.502434 0.390997
378 1 0.386435 0.502937 0.498833
358 1 0.202658 0.600148 0.382351
317 1 0.311746 0.594549 0.305908
359 1 0.309037 0.68892 0.402343
322 1 0.397375 0.69924 0.293207
386 1 0.389246 0.685237 0.494258
383 1 0.304043 0.601358 0.496962
384 1 0.205457 0.69435 0.489909
360 1 0.417537 0.587941 0.397087
321 1 0.482141 0.599093 0.292763
361 1 0.490639 0.695991 0.408206
362 1 0.595223 0.580361 0.385395
326 1 0.597222 0.697766 0.299283
325 1 0.708475 0.600692 0.306213
363 1 0.681821 0.698597 0.403441
354 1 0.714391 0.504765 0.388178
387 1 0.70118 0.597893 0.486993
356 1 0.975988 0.597866 0.398449
330 1 0.817994 0.703694 0.283692
314 1 0.985849 0.685386 0.292785
364 1 0.801216 0.595332 0.412803
365 1 0.877073 0.69484 0.394775
329 1 0.884017 0.594584 0.285684
53 1 0.109541 0.9931 0.298628
126 1 0.0997407 0.995988 0.470422
366 1 0.00832338 0.792534 0.388754
333 1 0.100463 0.768186 0.287836
367 1 0.107182 0.889575 0.387143
338 1 0.198462 0.892751 0.294451
392 1 0.00141861 0.900279 0.478561
394 1 0.212943 0.907485 0.481994
105 1 0.378042 0.992735 0.410151
57 1 0.313422 0.999825 0.2975
393 1 0.316566 0.814905 0.49534
337 1 0.303956 0.801836 0.291487
370 1 0.391041 0.784292 0.388534
369 1 0.290505 0.900025 0.391743
368 1 0.207594 0.799034 0.381303
342 1 0.391493 0.902503 0.306448
61 1 0.506847 0.983523 0.294873
341 1 0.504874 0.790465 0.308959
372 1 0.590879 0.797704 0.410172
371 1 0.516897 0.891945 0.389673
130 1 0.491038 0.984801 0.477001
65 1 0.70783 0.99257 0.290704
373 1 0.711608 0.915562 0.396565
345 1 0.706422 0.794527 0.296951
374 1 0.789151 0.800384 0.420795
346 1 0.619546 0.899252 0.304335
397 1 0.676325 0.807301 0.496427
334 1 0.998473 0.890011 0.285817
349 1 0.903315 0.801885 0.308679
350 1 0.802014 0.88366 0.314735
375 1 0.903512 0.899023 0.388494
399 1 0.900589 0.801285 0.493266
412 1 0.104566 0.705138 0.573994
413 1 0.100685 0.621569 0.694212
418 1 0.197864 0.713857 0.703929
415 1 0.183744 0.611267 0.600807
411 1 0.00875769 0.603212 0.595351
404 1 0.196968 0.515581 0.701301
401 1 0.0935649 0.505342 0.602924
416 1 0.303421 0.701675 0.589401
417 1 0.305859 0.618631 0.707977
403 1 0.279073 0.505852 0.598525
406 1 0.390237 0.519953 0.716966
419 1 0.401998 0.611789 0.613592
422 1 0.40882 0.705294 0.711578
420 1 0.490632 0.691745 0.599019
421 1 0.502705 0.608231 0.716082
426 1 0.593361 0.703241 0.696207
423 1 0.587238 0.589392 0.602362
385 1 0.484613 0.606663 0.51244
388 1 0.597406 0.702558 0.525028
405 1 0.488811 0.513962 0.626242
424 1 0.701374 0.731462 0.602083
425 1 0.704193 0.629065 0.690506
430 1 0.795552 0.724607 0.711546
390 1 0.79278 0.706086 0.516444
414 1 0.987246 0.700743 0.698859
427 1 0.801297 0.584282 0.587031
428 1 0.885367 0.704671 0.59608
429 1 0.879673 0.611975 0.701618
389 1 0.901445 0.572645 0.505847
402 1 0.995232 0.516476 0.712621
382 1 0.981581 0.688006 0.502955
432 1 0.103846 0.907109 0.60912
433 1 0.0881174 0.799251 0.673021
434 1 0.0114374 0.904485 0.704835
391 1 0.104987 0.811771 0.504907
438 1 0.205005 0.896806 0.68208
435 1 0.207432 0.788876 0.60444
436 1 0.301462 0.893606 0.591533
437 1 0.293348 0.796927 0.699859
442 1 0.384534 0.899998 0.707928
439 1 0.396843 0.796012 0.603816
157 1 0.305412 0.986872 0.69881
155 1 0.208229 0.988022 0.584632
440 1 0.493695 0.88785 0.600744
441 1 0.489184 0.805693 0.703971
446 1 0.58795 0.897195 0.70671
443 1 0.586543 0.803841 0.613019
161 1 0.47975 0.985496 0.709826
396 1 0.404932 0.891011 0.505221
395 1 0.492525 0.773824 0.503491
132 1 0.715992 0.996728 0.508312
165 1 0.70634 0.990725 0.71776
444 1 0.704825 0.911 0.618096
445 1 0.677415 0.801591 0.717129
450 1 0.799808 0.897847 0.706793
400 1 0.79563 0.899294 0.516265
398 1 0.607038 0.909829 0.512072
169 1 0.892561 0.996564 0.701884
431 1 0.999074 0.813445 0.587642
447 1 0.80739 0.808249 0.609093
448 1 0.903035 0.896611 0.592629
449 1 0.898863 0.804694 0.703792
451 1 0.0881956 0.506004 0.788925
454 1 0.181868 0.511298 0.897606
462 1 0.093796 0.703136 0.795387
463 1 0.0844871 0.598497 0.899389
464 1 0.00331753 0.699697 0.91882
465 1 0.194658 0.617389 0.805757
468 1 0.17663 0.687043 0.923974
453 1 0.294078 0.530998 0.794812
466 1 0.303606 0.70132 0.816557
467 1 0.298239 0.60509 0.910084
266 1 0.292588 0.694805 0.999717
469 1 0.411936 0.595073 0.812434
472 1 0.411129 0.704961 0.902095
470 1 0.496675 0.715816 0.79689
471 1 0.514937 0.611109 0.888842
456 1 0.402043 0.506299 0.900949
457 1 0.687746 0.51079 0.80247
476 1 0.600926 0.711221 0.898344
473 1 0.61275 0.612113 0.787645
474 1 0.704298 0.698962 0.819174
475 1 0.67775 0.607759 0.914123
477 1 0.788631 0.602334 0.805018
480 1 0.79454 0.707484 0.924056
277 1 0.794444 0.588852 0.975218
459 1 0.879561 0.514201 0.787451
452 1 0.989939 0.501512 0.88378
461 1 0.985648 0.603476 0.805434
478 1 0.880247 0.695788 0.795796
479 1 0.890631 0.610202 0.89839
261 1 0.989083 0.598176 0.977
484 1 0.021818 0.890453 0.876329
282 1 0.0967496 0.893583 0.998634
488 1 0.189995 0.886654 0.912671
482 1 0.112821 0.885076 0.800951
481 1 0.00110361 0.786408 0.806104
483 1 0.0956983 0.791446 0.917581
203 1 0.109938 0.989268 0.888515
487 1 0.298786 0.792073 0.910362
485 1 0.214475 0.791792 0.810418
489 1 0.385749 0.811222 0.8014
492 1 0.39212 0.90196 0.895218
486 1 0.279251 0.897037 0.795033
209 1 0.384541 0.999393 0.818509
207 1 0.284235 0.982109 0.89681
286 1 0.292329 0.893276 0.993096
211 1 0.499917 0.995839 0.888022
9 1 0.410824 0.978188 0.994888
490 1 0.500298 0.901126 0.803233
496 1 0.597114 0.908585 0.921249
493 1 0.598663 0.821882 0.834065
491 1 0.490235 0.808644 0.920501
494 1 0.70632 0.923066 0.815238
495 1 0.707335 0.814826 0.906055
499 1 0.889088 0.798041 0.897493
219 1 0.905339 0.990404 0.894867
498 1 0.914738 0.909748 0.791357
497 1 0.80206 0.816501 0.813694
500 1 0.806373 0.914315 0.903781
217 1 0.813176 0.997125 0.80298
297 1 0.804269 0.818508 0.997367
298 1 0.906854 0.910904 0.98995
