ITEM: TIMESTEP
14700
ITEM: NUMBER OF ATOMS
864
ITEM: BOX BOUNDS pp pp pp
0.0000000000000000e+00 3.1559999999999999e+01
0.0000000000000000e+00 3.1559999999999999e+01
0.0000000000000000e+00 3.1559999999999999e+01
ITEM: ATOMS id type xs ys zs
216 1 0.846738 0.424873 0.407195
11 1 0.415654 -0.0125538 0.0855101
91 1 0.749029 0.022558 0.25149
8 1 0.152002 0.103841 0.0870477
12 1 0.34101 0.0814106 0.096817
31 1 0.271687 0.178095 0.0836884
237 1 0.832575 -8.35908e-05 0.501656
213 1 0.836443 0.329704 0.344772
75 1 0.105254 0.0024948 0.258631
35 1 0.406816 0.155102 0.0809192
15 1 0.583801 0.0119039 0.073812
7 1 0.246127 0.00505069 0.0910865
16 1 0.494966 0.0852003 0.0811714
39 1 0.581022 0.163041 0.0912633
20 1 0.674154 0.0883642 0.0823249
505 1 0.0011878 0.492232 0.158735
87 1 0.574273 -0.00780402 0.254031
65 1 0.638328 0.328505 -0.00646621
24 1 0.844506 0.0881376 0.0886025
43 1 0.748888 0.179848 0.0794102
196 1 0.99741 0.430086 0.411235
211 1 0.750391 0.325306 0.410081
4 1 0.991346 0.092353 0.0773848
47 1 0.917746 0.176724 0.0818284
97 1 -0.00260317 0.167527 0.176352
94 1 0.924533 0.0866435 0.156388
210 1 0.74091 0.411399 0.334462
507 1 0.101572 0.506591 0.256139
27 1 0.0820424 0.182314 0.0838186
51 1 0.0929797 0.322653 0.0835871
23 1 0.899161 0.00412566 0.0889457
585 1 0.351752 0.486743 0.343118
32 1 0.178581 0.248412 0.077034
36 1 0.341527 0.251795 0.104628
55 1 0.258323 0.320911 0.0916482
129 1 0.337975 0.339122 0.185767
40 1 0.491705 0.238348 0.0918003
110 1 0.578969 0.248684 0.179029
44 1 0.659227 0.249456 0.0874707
63 1 0.579064 0.331383 0.0890821
45 1 0.817581 0.157452 -0.00869769
48 1 0.823659 0.255874 0.0555668
67 1 0.737085 0.327086 0.0901315
114 1 0.749252 0.254565 0.168886
587 1 0.42034 0.477997 0.428328
28 1 0.995253 0.25325 0.0854272
71 1 0.915478 0.341223 0.0772107
118 1 0.90671 0.245542 0.153589
455 1 0.915752 0.494578 0.0700816
435 1 0.0883892 0.505007 0.0810336
451 1 0.7486 0.505895 0.083366
163 1 0.749252 0.00190545 0.417454
77 1 0.169949 0.0138434 0.162532
56 1 0.175712 0.410634 0.0963527
581 1 0.169788 0.499579 0.342106
125 1 0.180909 0.331502 0.163651
14 1 0.590809 0.0886926 0.00296621
81 1 0.327276 -0.00626314 0.168077
19 1 0.728529 0.000462685 0.0907964
3 1 0.0763469 0.0184784 0.0888657
60 1 0.337997 0.411603 0.0916032
59 1 0.419547 0.337374 0.0984007
17 1 0.662012 -0.0161937 -0.00594944
64 1 0.531035 0.431915 0.0752505
149 1 0.160591 0.00395573 0.3452
147 1 0.0859612 0.0050426 0.428386
68 1 0.648788 0.41169 0.100156
72 1 0.816665 0.411061 0.0823964
583 1 0.247091 0.502896 0.413411
249 1 0.339657 0.184607 0.516551
165 1 0.838628 0.000401097 0.322967
52 1 0.00382236 0.412559 0.0676686
207 1 0.576391 0.324631 0.41878
74 1 0.0840653 0.0878544 0.172758
80 1 0.164073 0.0903784 0.252749
76 1 -0.0190529 0.0892077 0.255115
99 1 0.0924682 0.17185 0.247524
222 1 0.263764 0.08991 0.517577
78 1 0.256935 0.0872461 0.170744
246 1 0.239593 0.236651 0.470124
84 1 0.333536 0.0833145 0.25661
82 1 0.416789 0.079968 0.182244
206 1 0.573187 0.425518 0.329975
154 1 0.421913 0.0872546 0.34871
109 1 0.496957 0.16705 0.170425
88 1 0.493917 0.0708357 0.262294
181 1 0.504279 0.16267 0.344894
86 1 0.575999 0.0895086 0.183386
158 1 0.582985 0.0822987 0.336042
92 1 0.655052 0.0898675 0.255031
212 1 0.667371 0.415953 0.419257
90 1 0.757732 0.0890169 0.164713
162 1 0.743767 0.0908347 0.351672
200 1 0.161346 0.421928 0.415533
96 1 0.839672 0.0935466 0.255852
119 1 0.906395 0.17749 0.243469
98 1 0.0789408 0.246299 0.168163
123 1 0.0870096 0.334897 0.238122
101 1 0.175588 0.180169 0.165911
102 1 0.256478 0.242231 0.169987
105 1 0.356529 0.160645 0.17568
103 1 0.246442 0.159432 0.259898
104 1 0.171106 0.25386 0.2588
108 1 0.332854 0.249197 0.251139
106 1 0.420066 0.249444 0.167795
133 1 0.490974 0.333939 0.189857
107 1 0.423637 0.166635 0.263746
131 1 0.416085 0.330854 0.259107
111 1 0.567981 0.168417 0.266736
112 1 0.495539 0.256244 0.256983
113 1 0.651922 0.168389 0.183737
117 1 0.833936 0.170205 0.173694
115 1 0.744561 0.163005 0.263175
116 1 0.670108 0.259185 0.242243
139 1 0.740205 0.343455 0.242428
141 1 0.826006 0.336748 0.155837
121 1 1.00307 0.331741 0.175039
120 1 0.817001 0.26106 0.257749
100 1 -0.00544822 0.249744 0.242242
245 1 0.174585 0.165247 0.513985
122 1 0.0792703 0.418735 0.154821
194 1 0.0658502 0.421532 0.328039
128 1 0.158842 0.4178 0.236952
127 1 0.253053 0.320218 0.246138
126 1 0.263984 0.413946 0.171667
198 1 0.259726 0.41051 0.332228
208 1 0.512722 0.416121 0.420897
132 1 0.336473 0.417323 0.263087
145 1 1.01641 -0.0121183 0.335499
130 1 0.424255 0.410349 0.17181
136 1 0.481264 0.417183 0.261975
202 1 0.408324 0.404802 0.341741
521 1 0.65621 0.499288 0.167124
137 1 0.645249 0.342838 0.176388
135 1 0.578861 0.345543 0.262163
209 1 0.662578 0.335976 0.334149
134 1 0.56126 0.412887 0.179026
138 1 0.741601 0.423802 0.168538
140 1 0.666468 0.43036 0.255173
144 1 0.828651 0.41021 0.248399
142 1 0.927188 0.409834 0.162431
143 1 0.912532 0.327275 0.249463
124 1 -0.000440201 0.430759 0.239626
214 1 0.918241 0.431046 0.337717
191 1 0.920652 0.179076 0.417548
190 1 0.91792 0.257376 0.334009
146 1 0.0819593 0.084725 0.32423
152 1 0.165406 0.0854737 0.436226
171 1 0.0923835 0.156967 0.419294
148 1 0.997252 0.0888268 0.430036
193 1 0.00816302 0.329772 0.319446
150 1 0.241968 0.0923307 0.338608
156 1 0.326893 0.088227 0.426762
175 1 0.246671 0.148243 0.426227
192 1 0.839423 0.250462 0.418358
93 1 0.828417 0.00611426 0.177436
160 1 0.493981 0.0724184 0.433166
179 1 0.424211 0.164458 0.424143
183 1 0.576757 0.168648 0.424623
215 1 0.93134 0.339994 0.393229
204 1 0.3251 0.414467 0.416099
185 1 0.650723 0.163406 0.341258
164 1 0.664087 0.0995708 0.426304
168 1 0.825534 0.0831395 0.415449
195 1 0.0690315 0.338941 0.410527
189 1 0.844712 0.171496 0.341329
169 1 -0.00531624 0.173625 0.328918
166 1 0.916547 0.0925942 0.346022
173 1 0.164798 0.169899 0.334228
170 1 0.0809155 0.24845 0.323632
172 1 -0.00226464 0.259105 0.407545
176 1 0.158005 0.258943 0.392594
177 1 0.339204 0.156783 0.330462
199 1 0.240226 0.329148 0.408931
174 1 0.251534 0.240489 0.33768
187 1 0.755014 0.168583 0.428291
178 1 0.41789 0.241211 0.34304
197 1 0.150166 0.343644 0.337423
203 1 0.403296 0.317603 0.414693
201 1 0.328692 0.325187 0.339112
180 1 0.331934 0.229562 0.411292
182 1 0.582144 0.254789 0.332037
205 1 0.491924 0.323528 0.349323
184 1 0.499778 0.245208 0.416768
515 1 0.411536 0.520535 0.261973
188 1 0.663826 0.245782 0.42399
186 1 0.729933 0.256957 0.341241
261 1 0.82563 0.170462 0.511636
270 1 0.242801 0.420699 0.508105
234 1 0.752596 0.0790978 0.493147
443 1 0.430877 0.488684 0.0816572
517 1 0.522127 0.508095 0.145356
513 1 0.341775 0.490802 0.171991
73 1 1.00368 0.0176288 0.164513
577 1 0.000315593 0.511251 0.330494
286 1 0.921935 0.425134 0.498107
42 1 0.73467 0.259174 0.00296913
266 1 0.082807 0.424528 0.48959
41 1 0.668067 0.171902 0.00397357
89 1 0.663133 0.0216893 0.172064
525 1 0.830772 0.493664 0.15816
34 1 0.414359 0.236577 -0.00668133
285 1 0.836453 0.343212 0.482703
265 1 0.00892432 0.344806 0.508293
21 1 0.844997 -0.0103506 -0.00109029
53 1 0.172578 0.338805 -0.00995544
10 1 0.432852 0.0762755 -0.0109174
58 1 0.422037 0.419682 0.0058894
229 1 0.51065 -0.0038638 0.511058
33 1 0.344002 0.150011 -0.011599
269 1 0.166371 0.340959 0.496713
30 1 0.256594 0.251516 -0.00246511
5 1 0.156098 0.00767283 0.0138394
290 1 0.0711299 0.0905063 0.673409
432 1 0.838353 0.418691 0.906147
412 1 0.999658 0.401791 0.903622
224 1 0.17764 0.0745174 0.580799
228 1 0.338097 0.0817025 0.59486
659 1 0.416753 0.48809 0.570951
251 1 0.420157 0.173899 0.5756
657 1 0.321541 0.499467 0.492713
232 1 0.4887 0.0852475 0.584365
255 1 0.580393 0.154959 0.59685
236 1 0.666043 0.090403 0.576299
430 1 0.917902 0.400305 0.837299
25 1 0.999373 0.179569 1.00296
257 1 0.670908 0.167137 0.511455
220 1 -0.0115229 0.0940473 0.569616
240 1 0.819233 0.0728099 0.580849
428 1 0.670319 0.412581 0.909029
46 1 0.923073 0.26639 0.994786
243 1 0.0730122 0.182413 0.584188
313 1 0.984096 0.160673 0.657823
282 1 0.758954 0.421356 0.491776
665 1 0.656904 0.510131 0.498101
248 1 0.171625 0.254386 0.594262
247 1 0.251707 0.167893 0.596715
345 1 0.333437 0.34389 0.668902
291 1 0.0888724 -0.0035397 0.761639
277 1 0.49721 0.334346 0.493484
252 1 0.328133 0.249396 0.597395
275 1 0.409158 0.32456 0.59187
54 1 0.255024 0.400081 1.00283
256 1 0.517439 0.244095 0.589486
349 1 0.495919 0.334193 0.671164
260 1 0.657117 0.256951 0.583951
259 1 0.749409 0.184539 0.595286
330 1 0.735454 0.261506 0.664883
264 1 0.838411 0.269243 0.568461
235 1 0.740513 -0.0177219 0.582916
725 1 0.166044 0.488887 0.672105
244 1 0.999175 0.261541 0.587275
263 1 0.910712 0.16679 0.577823
278 1 0.581712 0.4198 0.509969
333 1 0.835149 0.158175 0.661794
299 1 0.420644 -0.0234212 0.756963
50 1 0.0867753 0.403436 0.997377
426 1 0.756121 0.416799 0.825278
274 1 0.405686 0.397936 0.50697
267 1 0.0865609 0.330739 0.577361
268 1 1.01139 0.412324 0.577826
272 1 0.154366 0.415348 0.571128
383 1 0.907886 -0.00183277 0.910553
793 1 -0.00600734 0.504099 0.833918
271 1 0.241818 0.337891 0.574267
239 1 0.91611 -0.0109148 0.574456
342 1 0.244934 0.410971 0.66733
276 1 0.330501 0.412545 0.587251
280 1 0.487183 0.407491 0.576514
346 1 0.409024 0.427413 0.679599
225 1 0.332828 -0.00138097 0.491002
424 1 0.507411 0.416116 0.925981
57 1 0.351119 0.327288 1.01593
279 1 0.571089 0.338374 0.590013
350 1 0.572174 0.407468 0.67032
743 1 0.915613 0.497899 0.738457
361 1 0.996249 -0.0024052 0.829849
284 1 0.666058 0.429494 0.584163
283 1 0.738765 0.330885 0.577921
288 1 0.838632 0.423659 0.579519
799 1 0.25073 0.497839 0.928213
254 1 0.585805 0.256422 0.50738
287 1 0.915865 0.334877 0.580176
358 1 0.917488 0.416319 0.656483
29 1 0.165931 0.167799 0.997918
797 1 0.171398 0.508941 0.824538
362 1 0.0727121 0.100143 0.817698
419 1 0.432794 0.331143 0.918681
294 1 0.246587 0.0880257 0.667058
295 1 0.236672 0.00629036 0.751087
296 1 0.173553 0.0868362 0.76697
300 1 0.326013 0.075884 0.752153
795 1 0.0738195 0.487795 0.9144
298 1 0.416941 0.0696819 0.677695
2 1 0.0708728 0.100556 0.993525
323 1 0.414595 0.170026 0.748193
304 1 0.500732 0.0644762 0.752329
397 1 0.498283 0.153761 0.827508
302 1 0.596238 0.0785444 0.680463
325 1 0.500449 0.149464 0.673972
327 1 0.583115 0.151765 0.756879
401 1 0.677867 0.159929 0.822231
308 1 0.673038 0.0704528 0.741723
306 1 0.743057 0.0761485 0.661979
378 1 0.761949 0.078671 0.829001
329 1 0.662501 0.166425 0.665543
310 1 0.909828 0.0558453 0.656646
312 1 0.846328 0.0792322 0.748978
292 1 -0.0130684 0.0788298 0.75211
317 1 0.163283 0.150501 0.666405
315 1 0.0817243 0.183142 0.732126
314 1 0.0851922 0.262888 0.657838
320 1 0.182955 0.257133 0.754001
316 1 0.995099 0.256702 0.74206
321 1 0.328603 0.170831 0.680454
318 1 0.246184 0.262706 0.6692
319 1 0.251428 0.182403 0.740659
390 1 0.264902 0.266106 0.82948
324 1 0.340224 0.258206 0.744252
322 1 0.431392 0.246818 0.661832
347 1 0.415284 0.332867 0.74856
328 1 0.502686 0.239915 0.753064
326 1 0.592151 0.262821 0.662961
332 1 0.660304 0.249412 0.753383
398 1 0.574789 0.249286 0.835302
331 1 0.760588 0.168708 0.739613
336 1 0.83748 0.257707 0.74461
402 1 0.742152 0.25059 0.831026
335 1 0.90821 0.173183 0.74923
334 1 0.911302 0.250206 0.658928
406 1 0.914626 0.257895 0.815952
359 1 0.917192 0.342498 0.739549
49 1 0.00876956 0.330166 1.00492
341 1 0.155218 0.355616 0.662567
339 1 0.0838745 0.330011 0.753641
338 1 0.0797592 0.428698 0.661452
344 1 0.152357 0.41318 0.74774
340 1 0.994709 0.415807 0.759696
655 1 0.240341 0.504254 0.574604
343 1 0.254651 0.346046 0.757578
348 1 0.321268 0.442149 0.761583
418 1 0.419471 0.413901 0.839498
352 1 0.488468 0.41043 0.749565
250 1 0.418634 0.253359 0.50238
420 1 0.335481 0.4215 0.917439
351 1 0.579936 0.338013 0.760597
425 1 0.666757 0.329077 0.837077
422 1 0.577282 0.427886 0.841682
421 1 0.495781 0.331642 0.827958
353 1 0.662827 0.347014 0.679218
355 1 0.741806 0.333779 0.754982
356 1 0.658815 0.427206 0.758356
354 1 0.747271 0.407596 0.655382
414 1 0.246897 0.438769 0.834229
416 1 0.1667 0.421502 0.906335
357 1 0.833835 0.346267 0.654493
360 1 0.847758 0.410684 0.759778
337 1 0.00780546 0.338284 0.668933
389 1 0.174671 0.178678 0.828426
368 1 0.164707 0.0687177 0.918715
729 1 0.334267 0.492643 0.65633
366 1 0.246584 0.0852396 0.832128
391 1 0.250704 0.168738 0.904809
408 1 0.849125 0.236485 0.914062
413 1 0.176335 0.335913 0.836543
370 1 0.430715 0.0636246 0.829387
372 1 0.320854 0.0710676 0.905562
376 1 0.510123 0.0673757 0.909645
309 1 0.835873 -0.0211345 0.654195
388 1 0.0170617 0.238865 0.914432
374 1 0.582882 0.0552986 0.832687
380 1 0.66659 0.0776048 0.921241
410 1 0.0836622 0.424102 0.835952
411 1 0.0830496 0.329847 0.90592
262 1 0.924183 0.261004 0.488466
431 1 0.935664 0.317414 0.909741
403 1 0.738849 0.169277 0.912739
384 1 0.834594 0.084167 0.906083
427 1 0.73472 0.32114 0.92314
382 1 0.91575 0.0970676 0.835082
364 1 -0.00682343 0.0801603 0.899108
407 1 0.933687 0.1687 0.915808
386 1 0.0969776 0.251744 0.835757
387 1 0.0982654 0.156821 0.908799
409 1 0.00643114 0.312249 0.830573
385 1 1.00053 0.179807 0.829322
393 1 0.346722 0.175177 0.825922
415 1 0.274577 0.334514 0.916798
396 1 0.329025 0.246591 0.912813
392 1 0.183525 0.255219 0.91509
405 1 0.826577 0.168854 0.820242
417 1 0.342078 0.348286 0.831662
395 1 0.407489 0.146196 0.90367
394 1 0.406805 0.260887 0.835673
404 1 0.646209 0.246766 0.928139
400 1 0.481154 0.239424 0.906855
399 1 0.584216 0.160155 0.904853
423 1 0.56537 0.322784 0.913835
429 1 0.815525 0.32201 0.853451
721 1 0.0152163 0.512261 0.658427
242 1 0.0940253 0.248921 0.483197
453 1 0.830006 0.499003 0.992989
26 1 0.0902858 0.247779 0.994072
62 1 0.593195 0.420159 0.996154
258 1 0.737048 0.267431 0.497877
297 1 0.336047 0.00170521 0.668063
365 1 0.160708 -0.0113259 0.847458
809 1 0.674791 0.513968 0.826887
727 1 0.248514 0.499418 0.742475
741 1 0.828056 0.504375 0.671537
811 1 0.747774 0.487292 0.913958
813 1 0.843363 0.501895 0.828585
281 1 0.668706 0.350543 0.503149
667 1 0.75137 0.498799 0.579234
13 1 0.502324 -0.0132046 1.01317
815 1 0.917797 0.499681 0.913362
227 1 0.419463 -0.00497194 0.589019
737 1 0.669039 0.486859 0.675512
37 1 0.494102 0.156322 0.980384
241 1 1.00922 0.184381 0.500265
6 1 0.237905 0.0888529 1.00986
70 1 0.919848 0.415864 0.987835
218 1 0.082425 0.0884328 0.509841
69 1 0.831449 0.335035 0.979121
38 1 0.57541 0.234064 0.999225
22 1 0.901478 0.0999648 0.991027
226 1 0.397808 0.0760019 0.494512
18 1 0.756329 0.0635737 1.00281
661 1 0.503127 0.493674 0.503728
273 1 0.322519 0.33573 0.492388
61 1 0.498228 0.316527 1.01565
230 1 0.580864 0.0809737 0.506403
238 1 0.911782 0.0829194 0.495968
66 1 0.745071 0.405749 0.994058
253 1 0.502861 0.167126 0.500139
440 1 0.174112 0.591604 0.085567
653 1 0.156792 0.503088 0.5016
717 1 0.826577 0.832126 0.49347
510 1 0.258927 0.580054 0.166882
501 1 0.847519 0.828006 0.00395727
444 1 0.342399 0.569248 0.0758184
514 1 0.424252 0.586984 0.164548
448 1 0.483288 0.588386 0.0762945
537 1 0.330015 0.657179 0.14858
698 1 0.0881623 0.920225 0.4944
518 1 0.582218 0.588764 0.187349
647 1 0.908645 0.826128 0.422184
493 1 0.502339 0.841004 -0.00702667
452 1 0.675834 0.589559 0.0685044
456 1 0.841928 0.567159 0.0788702
522 1 0.743986 0.581794 0.167839
648 1 0.834392 0.915583 0.410717
436 1 0.999863 0.580568 0.0966479
526 1 0.913889 0.586433 0.164179
625 1 0.019229 0.838407 0.34193
628 1 0.00104414 0.900261 0.417954
459 1 0.0861325 0.654862 0.0950502
460 1 0.0103522 0.744388 0.0787309
529 1 0.993696 0.669315 0.185118
689 1 0.65426 0.67215 0.510199
161 1 0.660783 1.00515 0.335669
464 1 0.176726 0.753231 0.081141
463 1 0.247026 0.668775 0.0829674
534 1 0.244706 0.752935 0.176421
468 1 0.316117 0.747565 0.0910081
487 1 0.249144 0.841979 0.0912874
561 1 0.327346 0.822262 0.169444
593 1 0.660234 0.499699 0.349404
589 1 0.483606 0.507454 0.348922
467 1 0.414337 0.677633 0.0791545
472 1 0.505517 0.748235 0.0908534
541 1 0.507626 0.668881 0.182616
538 1 0.414284 0.739395 0.172342
565 1 0.499373 0.829202 0.160234
471 1 0.57875 0.649567 0.0926801
495 1 0.571067 0.837439 0.0907553
542 1 0.580622 0.753045 0.17062
476 1 0.652375 0.754538 0.0828728
475 1 0.768784 0.65307 0.07835
546 1 0.752528 0.752376 0.151494
569 1 0.660639 0.831326 0.163748
479 1 0.9217 0.669248 0.0652481
480 1 0.838209 0.758713 0.0877019
550 1 0.92799 0.750186 0.152734
503 1 0.903365 0.840508 0.0928777
549 1 0.83548 0.669027 0.160222
597 1 0.840843 0.502174 0.337841
483 1 0.0728717 0.845276 0.101284
484 1 -0.00872637 0.920266 0.0885841
494 1 0.581228 0.914918 0.01271
9 1 0.345964 1.00546 -0.00848458
83 1 0.40603 1.00459 0.259513
557 1 0.158292 0.834025 0.16369
488 1 0.169727 0.926463 0.0943232
492 1 0.327517 0.918291 0.0992738
677 1 0.168704 0.671309 0.49774
491 1 0.397815 0.825386 0.0799987
562 1 0.407982 0.89809 0.169394
496 1 0.487379 0.912757 0.0794584
697 1 0.0179966 0.840347 0.502633
599 1 0.925807 0.511474 0.414563
566 1 0.570991 0.92444 0.159857
167 1 0.90808 1.01046 0.41447
498 1 0.759011 0.915992 -0.00139595
499 1 0.749637 0.848301 0.0974728
500 1 0.666111 0.924661 0.0983246
570 1 0.748064 0.921421 0.182639
497 1 0.669809 0.855037 0.00392733
504 1 0.823913 0.917588 0.0907824
574 1 0.899422 0.912635 0.166415
673 1 -0.000628873 0.675104 0.509228
506 1 0.0767574 0.570189 0.179717
512 1 0.172238 0.58344 0.243981
531 1 0.0852199 0.67177 0.244208
533 1 0.176928 0.673843 0.17051
153 1 0.339878 1.01014 0.340622
609 1 0.329932 0.668857 0.34912
605 1 0.164722 0.677 0.330392
535 1 0.261237 0.660668 0.251269
582 1 0.237782 0.587997 0.342102
644 1 0.663709 0.92024 0.412518
516 1 0.321206 0.578196 0.268824
586 1 0.417398 0.595341 0.346407
545 1 0.672863 0.670449 0.162818
520 1 0.488961 0.586252 0.249889
524 1 0.660974 0.570522 0.258791
151 1 0.257757 1.01349 0.412822
639 1 0.579136 0.818536 0.403893
469 1 0.488717 0.671552 -0.00219821
547 1 0.741309 0.674454 0.238878
528 1 0.82872 0.590752 0.246204
686 1 0.579294 0.740813 0.504911
622 1 0.924924 0.762057 0.335753
490 1 0.420602 0.914197 -0.00357565
508 1 -0.00505766 0.578079 0.254722
551 1 0.92035 0.680751 0.252315
530 1 0.0922305 0.749414 0.164812
555 1 0.0917824 0.836615 0.259933
532 1 0.00776527 0.758297 0.250245
536 1 0.167272 0.764063 0.253704
540 1 0.330372 0.746528 0.239213
559 1 0.240603 0.839137 0.256217
606 1 0.267299 0.744791 0.335186
539 1 0.401784 0.663595 0.247216
563 1 0.415581 0.811998 0.247969
543 1 0.592395 0.675672 0.244177
613 1 0.495404 0.677979 0.347995
544 1 0.48992 0.746488 0.254767
567 1 0.608402 0.844923 0.258795
548 1 0.668249 0.754642 0.242773
571 1 0.732867 0.83905 0.257392
618 1 0.755925 0.73834 0.341146
573 1 0.831597 0.835727 0.189237
601 1 0.999945 0.669539 0.318368
552 1 0.824447 0.747264 0.255455
575 1 0.929756 0.845455 0.254138
621 1 0.835616 0.673955 0.335312
635 1 0.429848 0.836102 0.409714
553 1 -0.0117057 0.843749 0.16186
554 1 0.0891775 0.933663 0.165404
640 1 0.504849 0.908945 0.411622
636 1 0.321525 0.922065 0.417787
560 1 0.166885 0.914414 0.238965
558 1 0.248392 0.914249 0.171618
630 1 0.243647 0.930339 0.337106
79 1 0.252194 1.01214 0.252832
564 1 0.328958 0.894767 0.241993
634 1 0.393637 0.915121 0.344336
95 1 0.921551 1.01183 0.256706
638 1 0.577206 0.917661 0.33469
641 1 0.663228 0.816291 0.340957
568 1 0.485806 0.921414 0.249893
217 1 -0.000967235 1.00455 0.508234
637 1 0.497861 0.838318 0.323433
642 1 0.747785 0.933388 0.336494
572 1 0.66344 0.935427 0.248084
576 1 0.849899 0.922265 0.261104
477 1 0.831163 0.672476 -0.00699144
627 1 0.0799745 0.820965 0.418036
556 1 0.0122594 0.915369 0.243658
646 1 0.928668 0.910337 0.33529
591 1 0.574677 0.504882 0.414751
578 1 0.0854107 0.59724 0.335684
584 1 0.16036 0.58352 0.415416
465 1 0.340048 0.671469 0.00425627
607 1 0.256428 0.650586 0.421336
588 1 0.32933 0.569839 0.406135
592 1 0.487709 0.587948 0.437716
611 1 0.413859 0.664339 0.433621
626 1 0.0929681 0.916089 0.343737
620 1 0.664965 0.731394 0.41259
632 1 0.180753 0.909794 0.41923
590 1 0.569839 0.589115 0.322517
596 1 0.659937 0.584873 0.413917
619 1 0.741102 0.656737 0.42306
604 1 -0.00992757 0.749901 0.422255
474 1 0.751537 0.769752 0.0167386
594 1 0.751764 0.587674 0.340769
624 1 0.832175 0.746887 0.425689
615 1 0.581783 0.649013 0.419579
643 1 0.744312 0.836253 0.419075
580 1 1.00525 0.592259 0.407814
600 1 0.836587 0.591469 0.403234
598 1 0.913313 0.586394 0.329389
645 1 0.837072 0.833463 0.324304
602 1 0.092164 0.759608 0.330693
629 1 0.176345 0.838042 0.339077
603 1 0.0876613 0.671413 0.411934
608 1 0.18103 0.734049 0.415898
595 1 0.749952 0.516998 0.411164
633 1 0.321654 0.827257 0.322775
631 1 0.253183 0.832229 0.431317
623 1 0.915594 0.674523 0.405036
612 1 0.338317 0.77347 0.414448
610 1 0.407826 0.753501 0.34145
616 1 0.500897 0.75342 0.418588
614 1 0.582118 0.729805 0.332017
617 1 0.666596 0.658141 0.341127
527 1 0.910948 0.486402 0.240759
579 1 0.0786384 0.504598 0.404868
155 1 0.42512 0.991348 0.41711
159 1 0.589126 1.00222 0.427219
523 1 0.768538 0.497849 0.253743
650 1 0.0899986 0.59397 0.499927
509 1 0.16601 0.504795 0.156575
157 1 0.49792 0.995996 0.342718
519 1 0.57584 0.494031 0.248536
511 1 0.245273 0.498813 0.24743
439 1 0.250117 0.498739 0.08093
447 1 0.60483 0.504742 0.0607454
85 1 0.495705 1.00902 0.165613
1 1 -0.0235448 1.01012 -5.04641e-05
669 1 0.839971 0.497638 0.495826
502 1 0.921782 0.9116 0.00672704
713 1 0.661287 0.8264 0.490019
457 1 0.00379345 0.656226 -0.00530885
441 1 0.332334 0.48752 -0.00326871
481 1 0.998414 0.836366 -0.00249906
714 1 0.739095 0.91839 0.485331
466 1 0.4132 0.752278 0.000319997
470 1 0.57449 0.760771 -0.000987529
450 1 0.75107 0.573217 -0.0103552
681 1 0.339747 0.653992 0.502988
462 1 0.244708 0.761746 -0.00298987
485 1 0.140231 0.83021 0.0093863
473 1 0.690607 0.682003 0.00361248
685 1 0.50507 0.669341 0.514219
690 1 0.733854 0.741484 0.505987
675 1 0.090325 0.667915 0.576678
652 1 0.00466553 0.583415 0.576847
231 1 0.575773 1.01072 0.594409
656 1 0.168809 0.581763 0.590946
679 1 0.251406 0.658239 0.571338
726 1 0.247657 0.593451 0.668283
660 1 0.341411 0.5704 0.584539
749 1 0.179472 0.671372 0.65469
753 1 0.328261 0.652854 0.679001
730 1 0.414901 0.565076 0.669887
664 1 0.483422 0.576717 0.581088
709 1 0.503402 0.824872 0.497852
666 1 0.747497 0.5751 0.504993
668 1 0.674834 0.571318 0.60064
687 1 0.591065 0.667392 0.599911
761 1 0.673118 0.664272 0.66272
682 1 0.41078 0.752388 0.500165
672 1 0.841054 0.577882 0.564956
723 1 0.0702675 0.506914 0.751135
678 1 0.250657 0.75223 0.506172
746 1 0.0762808 0.743717 0.670754
676 1 0.00879235 0.753451 0.578398
699 1 0.0819836 0.830236 0.581688
745 1 1.00384 0.657725 0.650781
680 1 0.162512 0.748345 0.576874
750 1 0.255803 0.743493 0.647765
684 1 0.33424 0.742479 0.573977
733 1 0.491332 0.500205 0.669274
683 1 0.408255 0.672356 0.570627
688 1 0.501679 0.750293 0.586337
731 1 0.415212 0.504775 0.757214
289 1 0.0115234 0.998381 0.666935
377 1 0.674805 1.00302 0.827699
692 1 0.658214 0.752721 0.583879
671 1 0.934725 0.492733 0.580317
301 1 0.50523 0.997951 0.66758
691 1 0.742194 0.653228 0.579891
696 1 0.816083 0.738859 0.582712
715 1 0.746827 0.831864 0.576482
762 1 0.74091 0.759932 0.667198
674 1 0.0781165 0.750564 0.492493
695 1 0.916384 0.658274 0.583946
719 1 0.911887 0.828691 0.567516
765 1 0.816319 0.662831 0.653471
766 1 0.918543 0.743067 0.647382
710 1 0.57877 0.907603 0.484112
704 1 0.174905 0.911987 0.564132
770 1 0.0843373 0.915221 0.656225
700 1 -0.00537237 0.920758 0.585434
769 1 -0.0106246 0.828844 0.654713
369 1 0.347195 0.988854 0.828827
773 1 0.177111 0.82753 0.674602
703 1 0.261749 0.835237 0.58417
862 1 0.913174 0.910208 0.822236
774 1 0.240706 0.923442 0.670089
670 1 0.923166 0.601307 0.492719
707 1 0.41774 0.832396 0.582734
708 1 0.344655 0.913637 0.576841
712 1 0.499378 0.901174 0.571376
663 1 0.575078 0.494866 0.587589
781 1 0.501024 0.844385 0.66532
778 1 0.416477 0.905308 0.663577
489 1 0.323343 0.831939 1.01009
739 1 0.754705 0.489017 0.74801
711 1 0.587474 0.832742 0.571788
782 1 0.584225 0.909624 0.664689
789 1 0.835741 0.824289 0.654708
716 1 0.646908 0.924907 0.563217
786 1 0.756326 0.903198 0.662694
720 1 0.83542 0.910583 0.569259
305 1 0.663699 0.982866 0.660061
654 1 0.228889 0.578772 0.487002
801 1 0.336 0.505323 0.845199
790 1 0.925424 0.911609 0.662449
303 1 0.59345 0.975593 0.744188
722 1 0.0937996 0.586047 0.667115
724 1 0.989609 0.586734 0.758117
311 1 0.928491 0.988768 0.744045
728 1 0.169008 0.583516 0.735934
751 1 0.240941 0.67339 0.754178
757 1 0.482333 0.662916 0.664564
732 1 0.330652 0.58265 0.748275
755 1 0.421094 0.662424 0.756755
736 1 0.510184 0.578904 0.752575
461 1 0.184998 0.66603 0.991891
734 1 0.597741 0.579913 0.668089
759 1 0.584336 0.675249 0.733333
738 1 0.757662 0.579724 0.664726
740 1 0.68297 0.587602 0.748714
833 1 0.672678 0.668823 0.845002
307 1 0.751058 0.990453 0.74957
744 1 0.833552 0.580222 0.750673
742 1 0.915703 0.565046 0.64997
814 1 0.913192 0.587789 0.83166
747 1 0.0812815 0.658816 0.753846
748 1 -0.00843031 0.739522 0.746157
817 1 1.00042 0.653738 0.833704
818 1 0.082627 0.741604 0.81747
752 1 0.164334 0.744637 0.737434
756 1 0.326302 0.746912 0.732859
754 1 0.412032 0.749141 0.664344
760 1 0.506951 0.751763 0.749708
779 1 0.408257 0.825778 0.754411
758 1 0.581909 0.769993 0.654194
764 1 0.678989 0.743968 0.754761
830 1 0.599597 0.759381 0.842457
857 1 0.691447 0.834749 0.840426
785 1 0.661596 0.841462 0.649535
763 1 0.75887 0.668519 0.73639
787 1 0.76389 0.824737 0.750003
837 1 0.838393 0.659847 0.832147
767 1 0.917061 0.667496 0.718758
768 1 0.833588 0.735657 0.734814
861 1 0.833927 0.832977 0.848965
791 1 0.910253 0.823316 0.726756
771 1 0.0859924 0.824268 0.749201
842 1 0.0753196 0.919167 0.833802
772 1 0.00333973 0.920245 0.747582
776 1 0.161748 0.917883 0.763841
841 1 0.00418221 0.832752 0.815071
775 1 0.262753 0.845051 0.739829
777 1 0.333086 0.831725 0.670486
780 1 0.338118 0.919881 0.750088
784 1 0.498408 0.902503 0.756968
807 1 0.5931 0.500205 0.917494
864 1 0.850959 0.914851 0.914881
783 1 0.593533 0.826798 0.747901
381 1 0.838019 0.998669 0.818628
856 1 0.499207 0.908408 0.915729
788 1 0.676736 0.903919 0.750918
858 1 0.765762 0.92414 0.839792
293 1 0.162977 1.00626 0.669584
792 1 0.843992 0.909973 0.742925
371 1 0.426203 0.988011 0.901664
854 1 0.595461 0.905416 0.837377
706 1 0.419397 0.922759 0.492871
860 1 0.67019 0.918143 0.90975
794 1 0.0933512 0.591106 0.839626
800 1 0.179114 0.584631 0.90894
819 1 0.0753592 0.671749 0.907507
705 1 0.342085 0.840281 0.49212
825 1 0.34205 0.69269 0.824942
845 1 0.174369 0.833402 0.824105
798 1 0.249556 0.590072 0.826365
823 1 0.253746 0.677468 0.913418
853 1 0.505735 0.833884 0.84822
802 1 0.408584 0.586085 0.838986
804 1 0.322153 0.588749 0.912558
437 1 0.174434 0.472187 0.994346
806 1 0.589376 0.579757 0.836587
808 1 0.507683 0.59197 0.914582
812 1 0.6614 0.592463 0.93006
810 1 0.750148 0.596525 0.833112
846 1 0.268735 0.918037 0.831909
850 1 0.413489 0.899338 0.843085
851 1 0.422526 0.835529 0.924881
486 1 0.253104 0.92016 1.01853
839 1 0.923449 0.661871 0.915211
816 1 0.826968 0.578465 0.904287
796 1 1.00839 0.571316 0.916029
843 1 0.0898921 0.830037 0.897173
820 1 0.998217 0.750358 0.890332
822 1 0.254462 0.760184 0.822993
821 1 0.16673 0.673107 0.839159
824 1 0.160398 0.746496 0.919661
828 1 0.325024 0.761754 0.927027
848 1 0.164796 0.898007 0.931446
832 1 0.494426 0.747916 0.918614
829 1 0.513244 0.671301 0.839635
826 1 0.431286 0.752716 0.84003
827 1 0.403 0.667105 0.920188
849 1 0.338492 0.826714 0.84329
855 1 0.610327 0.828383 0.914231
836 1 0.683272 0.746154 0.923435
831 1 0.597204 0.672698 0.920242
844 1 0.995741 0.911144 0.8995
433 1 1.01131 0.499093 1.00377
859 1 0.744643 0.840062 0.934615
840 1 0.841347 0.750445 0.907525
834 1 0.759066 0.741962 0.838868
835 1 0.753772 0.668147 0.911662
847 1 0.250159 0.832919 0.909192
852 1 0.330192 0.909942 0.918005
863 1 0.924898 0.830207 0.91593
838 1 0.909014 0.752148 0.823024
651 1 0.0852329 0.493766 0.575568
735 1 0.569637 0.490515 0.752247
219 1 0.0877647 1.0094 0.578851
379 1 0.768318 1.00022 0.914006
445 1 0.505726 0.515046 0.99793
434 1 0.105309 0.575677 0.996775
373 1 0.51131 0.970273 0.836591
701 1 0.156008 0.820384 0.491728
221 1 0.17106 0.998432 0.490739
442 1 0.416327 0.589581 1.00498
367 1 0.251364 0.975769 0.935183
438 1 0.261448 0.583827 0.996722
702 1 0.257903 0.919963 0.501575
693 1 0.820166 0.65925 0.493933
805 1 0.4996 0.500488 0.848258
233 1 0.667225 1.00572 0.492739
803 1 0.420575 0.510793 0.922782
375 1 0.587125 0.999462 0.921792
223 1 0.252601 0.991881 0.587503
363 1 0.0838456 0.988288 0.936763
482 1 0.0803904 0.934629 1.03012
718 1 0.926235 0.928023 0.482842
658 1 0.403283 0.56801 0.49608
454 1 0.912215 0.585117 0.996097
449 1 0.675086 0.496683 0.983415
458 1 0.0763148 0.744399 0.991105
694 1 0.903917 0.736267 0.501341
478 1 0.929331 0.750189 0.98584
662 1 0.582494 0.591233 0.52298
446 1 0.579876 0.601071 1.002
649 1 0.0139128 0.508406 0.496528
