ITEM: TIMESTEP
700
ITEM: NUMBER OF ATOMS
864
ITEM: BOX BOUNDS pp pp pp
0.0000000000000000e+00 3.1559999999999999e+01
0.0000000000000000e+00 3.1559999999999999e+01
0.0000000000000000e+00 3.1559999999999999e+01
ITEM: ATOMS id type xs ys zs
505 1 1.00217 0.497552 0.17087
66 1 0.753278 0.408825 -0.00237948
216 1 0.833823 0.42009 0.403529
4 1 1.01128 0.0830805 0.0763444
215 1 0.920904 0.332647 0.407858
79 1 0.256174 0.000475606 0.238324
214 1 0.916444 0.421287 0.332884
8 1 0.163659 0.086919 0.0991378
213 1 0.837768 0.336675 0.34249
593 1 0.659634 0.500757 0.344315
212 1 0.66341 0.411603 0.413096
12 1 0.325182 0.0829171 0.0818067
165 1 0.827132 0.00403573 0.335625
517 1 0.509208 0.48928 0.178269
211 1 0.756386 0.341285 0.412053
16 1 0.513165 0.0750713 0.0733914
210 1 0.751025 0.417286 0.332918
65 1 0.660406 0.334308 -0.00330585
209 1 0.678015 0.334767 0.329306
20 1 0.664328 0.081924 0.0754153
208 1 0.500262 0.406367 0.431742
579 1 0.0982609 0.489711 0.429886
207 1 0.581201 0.320831 0.423057
24 1 0.843476 0.0813345 0.0845273
30 1 0.243427 0.262082 0.0057286
77 1 0.178054 -0.011624 0.166642
27 1 0.0826443 0.15159 0.0761625
28 1 0.988398 0.260293 0.0885634
443 1 0.412106 0.498211 0.0932078
515 1 0.409526 0.500766 0.253143
31 1 0.232652 0.167764 0.0737709
32 1 0.154962 0.258886 0.0910154
455 1 0.917627 0.498894 0.077861
62 1 0.587363 0.41715 0.0107135
35 1 0.432528 0.164899 0.0783694
36 1 0.321406 0.25434 0.0910965
75 1 0.0910848 0.00269681 0.248169
226 1 0.423844 0.0964925 0.50567
39 1 0.584174 0.171296 0.0861724
40 1 0.498623 0.249282 0.0971772
53 1 0.167836 0.334437 0.00230227
155 1 0.410811 0.00026616 0.413002
43 1 0.749679 0.173875 0.0828089
44 1 0.672406 0.25918 0.0841673
95 1 0.91197 -0.0118717 0.246358
286 1 0.912989 0.408211 0.483476
47 1 0.909963 0.178972 0.067421
48 1 0.828753 0.249424 0.0632917
161 1 0.660281 -0.00793408 0.330803
519 1 0.590056 0.488965 0.255672
51 1 0.0752897 0.339892 0.083041
52 1 1.00071 0.419863 0.0774952
447 1 0.588336 0.490779 0.0966704
577 1 0.00861137 0.488235 0.333032
55 1 0.238294 0.340147 0.0835511
56 1 0.153484 0.414689 0.0853343
3 1 0.0891103 -0.000645658 0.0897102
241 1 0.986135 0.162912 0.502864
59 1 0.422455 0.316094 0.0793661
60 1 0.336703 0.41554 0.0816932
238 1 0.918225 0.0812237 0.494758
583 1 0.256145 0.500463 0.411888
63 1 0.583854 0.325126 0.0862569
64 1 0.504971 0.417674 0.0948232
58 1 0.430199 0.405995 0.0180232
184 1 0.512589 0.245337 0.413069
67 1 0.756853 0.332925 0.0817119
68 1 0.671729 0.40511 0.0817475
183 1 0.582745 0.157026 0.419045
258 1 0.747458 0.259517 0.49814
71 1 0.902998 0.342138 0.0784734
72 1 0.818934 0.424513 0.0882828
206 1 0.582024 0.40563 0.332934
74 1 0.0744446 0.0785503 0.164279
205 1 0.508525 0.336841 0.34519
76 1 -0.00829096 0.0762697 0.244091
204 1 0.340936 0.414157 0.415387
78 1 0.247545 0.0964737 0.155872
203 1 0.425032 0.327595 0.4268
80 1 0.166597 0.0863526 0.235693
202 1 0.411519 0.412936 0.324562
82 1 0.415185 0.0858516 0.166255
201 1 0.345776 0.327715 0.337306
84 1 0.335672 0.0891443 0.236135
200 1 0.178958 0.406789 0.418816
86 1 0.590646 0.0801047 0.158227
189 1 0.823505 0.164706 0.357284
88 1 0.502387 0.0721748 0.260565
199 1 0.254714 0.326842 0.403841
90 1 0.745358 0.0748864 0.15434
198 1 0.257159 0.419852 0.330599
92 1 0.662595 0.0853379 0.23768
197 1 0.155136 0.334932 0.324446
94 1 0.920989 0.0869092 0.163749
186 1 0.757658 0.243077 0.335435
96 1 0.835529 0.089025 0.248232
97 1 0.990622 0.169335 0.136458
98 1 0.0667149 0.247374 0.167827
99 1 0.0660486 0.156852 0.241836
100 1 1.01225 0.251368 0.261516
101 1 0.156146 0.1784 0.159301
102 1 0.249424 0.253282 0.16245
103 1 0.253713 0.170487 0.245862
104 1 0.168875 0.246686 0.252232
105 1 0.34011 0.170587 0.150914
106 1 0.407157 0.2521 0.171492
107 1 0.423348 0.166604 0.238531
108 1 0.33307 0.238682 0.250115
109 1 0.507418 0.157045 0.157886
110 1 0.599208 0.267701 0.168237
111 1 0.592472 0.182828 0.234303
112 1 0.513196 0.250586 0.250232
113 1 0.672703 0.157268 0.160227
114 1 0.744736 0.236792 0.16928
115 1 0.744767 0.152603 0.248187
116 1 0.680408 0.247022 0.258249
117 1 0.840135 0.18253 0.168405
118 1 0.908478 0.263169 0.159952
119 1 0.926943 0.165816 0.24451
120 1 0.835066 0.242533 0.254398
121 1 0.991672 0.3424 0.164382
122 1 0.0793491 0.429066 0.165963
123 1 0.0873412 0.348726 0.237696
124 1 0.991459 0.414236 0.25866
125 1 0.178619 0.333328 0.181596
126 1 0.256457 0.415497 0.167358
127 1 0.255803 0.332962 0.259891
128 1 0.168948 0.411857 0.254327
129 1 0.332965 0.337294 0.16802
130 1 0.419972 0.412653 0.179066
131 1 0.422405 0.325863 0.241875
132 1 0.338705 0.404671 0.255816
133 1 0.509129 0.337925 0.166179
134 1 0.592679 0.411796 0.162693
135 1 0.590099 0.336652 0.255682
136 1 0.509245 0.409208 0.253586
137 1 0.683468 0.337443 0.16367
138 1 0.757588 0.410176 0.182405
139 1 0.756741 0.325421 0.25822
140 1 0.668479 0.403556 0.246834
141 1 0.815977 0.325025 0.175355
142 1 0.903554 0.419646 0.165922
143 1 0.920745 0.336862 0.247567
144 1 0.835511 0.408891 0.250368
188 1 0.67151 0.261751 0.413402
146 1 0.0910562 0.0791621 0.337374
187 1 0.741331 0.179731 0.420181
148 1 1.0038 0.0848376 0.404521
196 1 0.00753828 0.406209 0.419109
150 1 0.255696 0.0806869 0.328425
591 1 0.588056 0.488818 0.42272
152 1 0.171953 0.0843461 0.416938
195 1 0.0848339 0.334459 0.427684
154 1 0.411279 0.0941803 0.330822
194 1 0.0896724 0.419997 0.351144
156 1 0.340764 0.0852276 0.424314
193 1 0.00813503 0.328435 0.341588
158 1 0.587054 0.0883816 0.329515
192 1 0.826949 0.246012 0.430924
160 1 0.497099 0.0888135 0.413956
191 1 0.913115 0.158907 0.41553
162 1 0.736232 0.0848574 0.331358
185 1 0.670808 0.172869 0.332798
164 1 0.661567 0.0773796 0.414771
190 1 0.910799 0.244919 0.339593
166 1 0.904792 0.0893265 0.327924
439 1 0.240761 0.495799 0.0852569
168 1 0.830639 0.0898223 0.420074
169 1 -0.00314965 0.174595 0.335656
170 1 0.0893696 0.257606 0.333032
171 1 0.0838038 0.174365 0.420106
172 1 0.994653 0.246811 0.407551
173 1 0.169692 0.174676 0.335133
174 1 0.253303 0.25093 0.330573
175 1 0.246071 0.170198 0.425282
176 1 0.157329 0.256274 0.423039
177 1 0.327635 0.158725 0.350298
178 1 0.43303 0.251875 0.328101
179 1 0.420951 0.171382 0.414675
180 1 0.335848 0.247938 0.42027
181 1 0.50119 0.165955 0.336384
182 1 0.584071 0.260902 0.333777
509 1 0.160085 0.498353 0.176479
523 1 0.750255 0.496329 0.256643
81 1 0.328194 0.00301944 0.160373
513 1 0.338319 0.490647 0.176846
91 1 0.749303 0.00894248 0.246129
507 1 0.0938092 0.493297 0.256409
218 1 0.0729323 0.0847555 0.494191
222 1 0.261492 0.0918245 0.497057
83 1 0.414747 6.41622e-05 0.255843
449 1 0.666132 0.496877 -0.0015723
587 1 0.423318 0.500215 0.415686
7 1 0.248258 -0.00514044 0.0823618
159 1 0.588176 -0.0066903 0.41702
229 1 0.499901 -0.00228222 0.495551
649 1 0.00162242 0.493219 0.494058
589 1 0.505292 0.493376 0.341583
249 1 0.331621 0.173986 0.502713
26 1 0.0830048 0.254062 0.00537577
453 1 0.830433 0.50274 0.00314869
41 1 0.670937 0.172997 -0.00775102
50 1 0.0861088 0.431025 -0.00166491
61 1 0.50813 0.322436 0.00638973
657 1 0.328143 0.492905 0.492239
278 1 0.583114 0.409866 0.503568
54 1 0.252097 0.412106 0.00904458
445 1 0.502135 0.502834 0.0132945
282 1 0.759908 0.424374 0.4864
33 1 0.3376 0.175862 0.0121251
221 1 0.1562 -0.00137549 0.492006
270 1 0.25343 0.415343 0.494357
29 1 0.15964 0.187932 -0.00572119
246 1 0.244326 0.257052 0.505145
34 1 0.417968 0.242975 -0.00975343
261 1 0.833127 0.156732 0.502681
665 1 0.66835 0.500795 0.497199
46 1 0.917741 0.260177 -0.00738644
262 1 0.919051 0.243219 0.50213
805 1 0.49647 0.492711 0.835297
70 1 0.912601 0.417563 1.00204
250 1 0.421504 0.249624 0.511396
220 1 0.988946 0.0837367 0.584289
17 1 0.66628 -0.00703874 1.00124
663 1 0.588599 0.491813 0.578283
22 1 0.922444 0.0884273 1.01027
224 1 0.163124 0.075982 0.581416
432 1 0.817483 0.421568 0.910103
371 1 0.409804 0.00363341 0.914083
431 1 0.917598 0.350459 0.915124
228 1 0.336032 0.0872935 0.589031
373 1 0.505943 0.00366397 0.831194
18 1 0.766041 0.086582 1.00358
428 1 0.662222 0.42242 0.914557
232 1 0.500923 0.0829659 0.591716
219 1 0.0795865 -0.00214381 0.577112
739 1 0.73942 0.501358 0.755316
741 1 0.832941 0.495532 0.668822
236 1 0.666164 0.0795772 0.601638
231 1 0.590857 -0.00760967 0.595846
9 1 0.339253 0.00909854 1.01342
383 1 0.928774 0.00100161 0.927356
240 1 0.834915 0.0843462 0.587073
733 1 0.492848 0.487023 0.662555
311 1 0.921205 -0.000217469 0.74184
243 1 0.0839793 0.168486 0.576856
244 1 0.99639 0.2511 0.584252
227 1 0.413367 0.0119086 0.575923
21 1 0.847517 0.00349318 0.996112
247 1 0.253073 0.169027 0.581476
248 1 0.162743 0.243951 0.57761
307 1 0.749194 -0.00738184 0.759032
10 1 0.416458 0.0876272 1.01016
251 1 0.418622 0.165218 0.581524
252 1 0.332164 0.253832 0.581625
803 1 0.418261 0.490809 0.938147
6 1 0.245189 0.0859802 1.01121
255 1 0.583415 0.157584 0.578823
256 1 0.522812 0.246557 0.588768
667 1 0.757425 0.491337 0.577189
731 1 0.408197 0.480316 0.763324
259 1 0.758698 0.187641 0.575072
260 1 0.671216 0.25741 0.582901
369 1 0.332618 0.00334858 0.826439
408 1 0.85379 0.258668 0.900655
263 1 0.91425 0.164391 0.58967
264 1 0.83722 0.261007 0.582289
14 1 0.583953 0.0754093 0.991488
381 1 0.845858 0.0140127 0.830298
267 1 0.0775948 0.319274 0.590105
268 1 0.986603 0.413013 0.579172
285 1 0.827926 0.340257 0.49684
380 1 0.674278 0.086882 0.929308
271 1 0.247796 0.340885 0.586935
272 1 0.170955 0.426531 0.585537
361 1 -0.000681227 0.00311219 0.833985
387 1 0.0859282 0.166884 0.925573
275 1 0.407375 0.337073 0.587184
276 1 0.326318 0.423935 0.578791
407 1 0.924673 0.16935 0.917838
404 1 0.673234 0.257012 0.909111
279 1 0.58914 0.335757 0.582263
280 1 0.493196 0.405648 0.573183
403 1 0.754976 0.166422 0.913475
400 1 0.50007 0.251749 0.903108
283 1 0.744764 0.338915 0.58629
284 1 0.66944 0.413621 0.579005
399 1 0.583061 0.159977 0.915916
376 1 0.499866 0.0691381 0.909037
287 1 0.911779 0.335452 0.573879
288 1 0.849009 0.436144 0.56868
69 1 0.83363 0.329434 0.989112
290 1 0.0724833 0.0862147 0.665527
427 1 0.750022 0.335041 0.91018
292 1 0.00793147 0.0823065 0.755921
424 1 0.502564 0.404271 0.926059
362 1 0.0899 0.0811076 0.838911
291 1 0.0844039 -0.000875812 0.759053
294 1 0.244675 0.0837081 0.653265
396 1 0.313268 0.239899 0.915408
296 1 0.169116 0.0837835 0.748835
423 1 0.587563 0.326711 0.924526
366 1 0.250439 0.0801697 0.847988
420 1 0.343748 0.405362 0.929067
298 1 0.423707 0.0925791 0.661612
419 1 0.42089 0.332348 0.9185
300 1 0.326418 0.0785517 0.740558
416 1 0.170998 0.409081 0.929745
370 1 0.415782 0.0916062 0.822403
801 1 0.321371 0.490268 0.834779
302 1 0.596996 0.0904977 0.69266
729 1 0.324352 0.483643 0.673659
304 1 0.497909 0.0917974 0.756344
295 1 0.246213 0.00616821 0.742163
374 1 0.57936 0.0882966 0.838131
384 1 0.862815 0.0810785 0.916969
306 1 0.750823 0.0985726 0.666971
388 1 1.00292 0.257521 0.926899
308 1 0.683035 0.0896448 0.771274
372 1 0.325646 0.0884098 0.922401
378 1 0.766134 0.084275 0.840491
395 1 0.421288 0.160423 0.92524
310 1 0.917163 0.0811067 0.667997
392 1 0.163316 0.254183 0.912687
312 1 0.830705 0.0847296 0.74364
391 1 0.243785 0.157555 0.91962
382 1 0.923315 0.0840784 0.827217
313 1 -0.00389915 0.168139 0.663332
314 1 0.0896446 0.244899 0.662938
315 1 0.081122 0.162525 0.747842
316 1 0.0101078 0.237662 0.746533
385 1 0.0025216 0.156492 0.838437
386 1 0.0826795 0.238595 0.826701
317 1 0.157572 0.158072 0.663555
318 1 0.242477 0.250442 0.657069
319 1 0.249074 0.176453 0.746356
320 1 0.160728 0.257583 0.755023
389 1 0.178544 0.161655 0.825656
390 1 0.245622 0.269593 0.835188
321 1 0.317224 0.166285 0.667444
322 1 0.405033 0.254497 0.675469
323 1 0.40225 0.160494 0.745827
324 1 0.329769 0.26446 0.74873
393 1 0.324276 0.160183 0.819668
394 1 0.402644 0.24334 0.839091
325 1 0.515191 0.164063 0.669603
326 1 0.586684 0.260158 0.68479
327 1 0.593719 0.172812 0.752291
328 1 0.491889 0.24496 0.7534
397 1 0.500509 0.162091 0.838848
398 1 0.579678 0.257531 0.828661
329 1 0.676221 0.180133 0.676168
330 1 0.760675 0.253988 0.673486
331 1 0.752989 0.166415 0.75218
332 1 0.672223 0.263036 0.754194
401 1 0.666734 0.162336 0.844749
402 1 0.756783 0.263429 0.839049
333 1 0.835211 0.177828 0.662114
334 1 0.917674 0.260646 0.667089
335 1 0.928967 0.171456 0.737915
336 1 0.847684 0.239591 0.748086
405 1 0.839454 0.168192 0.8269
406 1 0.928188 0.243806 0.828602
337 1 0.00784753 0.342431 0.670873
338 1 0.0773922 0.421042 0.655347
339 1 0.0852989 0.330126 0.758331
340 1 0.00939074 0.416036 0.746843
409 1 0.0149599 0.331062 0.841412
410 1 0.0857761 0.41287 0.830717
341 1 0.155353 0.341716 0.66276
342 1 0.2352 0.417606 0.667294
343 1 0.241487 0.338204 0.74941
344 1 0.148639 0.420573 0.744054
413 1 0.155216 0.339957 0.852223
414 1 0.2427 0.414824 0.839334
345 1 0.323899 0.343085 0.66425
346 1 0.42358 0.399561 0.674244
347 1 0.417235 0.325428 0.750973
348 1 0.32166 0.404417 0.762683
417 1 0.340418 0.324743 0.843422
418 1 0.411201 0.409657 0.840706
349 1 0.498898 0.320817 0.670726
350 1 0.571452 0.410008 0.674365
351 1 0.58391 0.347678 0.755563
352 1 0.489787 0.420105 0.752622
421 1 0.497778 0.333069 0.831706
422 1 0.58501 0.415276 0.846774
353 1 0.670176 0.323671 0.665015
354 1 0.747124 0.421892 0.676703
355 1 0.758344 0.333517 0.74296
356 1 0.660377 0.418366 0.748612
425 1 0.661115 0.338226 0.835561
426 1 0.73829 0.429161 0.837691
357 1 0.834929 0.352776 0.655681
358 1 0.920635 0.428613 0.678367
359 1 0.926097 0.331581 0.77267
360 1 0.835358 0.422012 0.757958
429 1 0.838179 0.344182 0.834871
430 1 0.936411 0.425745 0.824706
415 1 0.2582 0.33816 0.912701
364 1 1.00829 0.0747084 0.914426
412 1 0.0105681 0.435869 0.906311
368 1 0.164192 0.0898537 0.928571
411 1 0.0816707 0.334907 0.924146
273 1 0.336741 0.329951 0.493363
365 1 0.172124 -0.00365459 0.83375
727 1 0.238726 0.503963 0.746829
223 1 0.259489 0.00957641 0.574166
49 1 1.00015 0.34622 0.990466
807 1 0.570305 0.492872 0.936666
242 1 0.074404 0.245858 0.503772
266 1 0.0776624 0.404785 0.520815
265 1 0.99596 0.326686 0.4974
38 1 0.577524 0.240343 1.00645
37 1 0.504641 0.157451 0.995603
254 1 0.582257 0.249272 0.494671
230 1 0.595378 0.0720249 0.508291
661 1 0.507023 0.506529 0.493391
57 1 0.329119 0.331422 1.00558
45 1 0.834987 0.166077 0.983293
274 1 0.412445 0.421065 0.490225
257 1 0.670753 0.168356 0.506022
433 1 0.998623 0.510004 0.996648
269 1 0.153614 0.336387 0.50779
277 1 0.501417 0.327267 0.502959
234 1 0.74064 0.0810923 0.508075
253 1 0.51338 0.162687 0.498661
2 1 0.0860849 0.0785955 0.996976
281 1 0.67752 0.347976 0.49674
245 1 0.171805 0.162298 0.501156
42 1 0.747268 0.25365 0.993299
25 1 0.997648 0.171349 1.00892
648 1 0.829181 0.914113 0.410055
525 1 0.833961 0.493577 0.169116
646 1 0.913716 0.916991 0.327238
436 1 0.992005 0.575215 0.091342
461 1 0.162627 0.670721 0.00498721
153 1 0.334919 1.00298 0.332078
689 1 0.662851 0.664778 0.507419
440 1 0.162985 0.594971 0.0848215
437 1 0.168294 0.506717 0.0047123
599 1 0.928954 0.496058 0.405611
644 1 0.664267 0.912635 0.422525
444 1 0.329127 0.587113 0.0826297
642 1 0.744425 0.913518 0.331353
469 1 0.501008 0.66339 0.00781253
673 1 0.992789 0.683305 0.493314
448 1 0.49665 0.568509 0.096553
581 1 0.170724 0.489208 0.333091
693 1 0.817771 0.669029 0.494386
640 1 0.516574 0.918205 0.420266
452 1 0.660532 0.583637 0.0796409
638 1 0.585852 0.914784 0.324226
585 1 0.343463 0.49849 0.33849
636 1 0.332034 0.913789 0.415596
456 1 0.840834 0.589581 0.0801034
19 1 0.766124 1.00288 0.0673842
597 1 0.827025 0.509679 0.340147
459 1 0.0893738 0.666379 0.0824676
460 1 1.00144 0.754006 0.0954844
451 1 0.742657 0.495262 0.0775981
483 1 0.086998 0.830721 0.0945549
446 1 0.569592 0.579703 0.0135906
482 1 0.0885651 0.918094 0.00646588
463 1 0.241673 0.670833 0.0846328
464 1 0.170338 0.75755 0.0893911
450 1 0.732891 0.580965 -0.00506065
487 1 0.242705 0.836213 0.0880707
15 1 0.581843 0.995955 0.0892144
462 1 0.25464 0.759209 -0.00547093
467 1 0.415018 0.657603 0.0845224
468 1 0.332266 0.743653 0.0824004
438 1 0.250612 0.579801 -0.000444994
491 1 0.419028 0.840665 0.078709
157 1 0.508619 0.998333 0.33758
595 1 0.746644 0.508441 0.423061
471 1 0.573501 0.659452 0.093943
472 1 0.507668 0.755033 0.0766973
73 1 -0.00568771 0.998662 0.1644
495 1 0.593622 0.838738 0.0847296
486 1 0.264545 0.914199 -0.0014677
465 1 0.328937 0.672383 -0.00158114
475 1 0.752546 0.655774 0.0790939
476 1 0.657708 0.750501 0.0823078
466 1 0.422722 0.748577 0.00221264
499 1 0.749313 0.841485 0.0694364
89 1 0.680061 0.994184 0.144022
435 1 0.0867725 0.501384 0.0881405
479 1 0.91049 0.679625 0.0976743
480 1 0.817954 0.743889 0.0757438
614 1 0.576538 0.744287 0.338103
503 1 0.901931 0.83035 0.0835742
681 1 0.330774 0.670232 0.502504
484 1 0.0142632 0.912231 0.0858322
145 1 0.998995 0.997448 0.333787
488 1 0.168042 0.914411 0.0892054
641 1 0.65139 0.831293 0.32622
492 1 0.326616 0.92077 0.0876879
620 1 0.659701 0.750292 0.421379
496 1 0.498755 0.915639 0.0831223
151 1 0.248644 0.990184 0.408278
500 1 0.667849 0.919946 0.074247
613 1 0.51131 0.662621 0.335238
504 1 0.839128 0.922282 0.0771817
635 1 0.425807 0.834356 0.421754
506 1 0.071238 0.58317 0.167222
634 1 0.416873 0.914905 0.346393
508 1 1.00078 0.576277 0.25106
442 1 0.407406 0.573233 0.0140047
510 1 0.254295 0.586937 0.179388
633 1 0.342948 0.829464 0.329212
512 1 0.16346 0.576643 0.265392
632 1 0.161538 0.92207 0.410341
514 1 0.415437 0.579797 0.169196
11 1 0.431121 0.996283 0.0774487
516 1 0.339683 0.580226 0.243756
630 1 0.260456 0.914057 0.331083
518 1 0.587303 0.577268 0.172704
619 1 0.741514 0.671571 0.416485
520 1 0.496942 0.578516 0.258887
628 1 0.981835 0.911148 0.417451
522 1 0.751812 0.575029 0.155958
637 1 0.506899 0.846562 0.332668
524 1 0.667602 0.581052 0.251907
626 1 0.0876884 0.9281 0.32041
526 1 0.911415 0.572955 0.171157
618 1 0.739174 0.748262 0.331245
528 1 0.815674 0.578231 0.240811
529 1 -0.00303795 0.662944 0.157469
530 1 0.0756016 0.746277 0.181669
531 1 0.0800218 0.658054 0.251375
532 1 0.98679 0.739771 0.25387
553 1 1.00343 0.831578 0.165271
555 1 0.0728405 0.842943 0.250813
533 1 0.161967 0.671713 0.172767
534 1 0.246087 0.754644 0.157909
535 1 0.260643 0.687596 0.246811
536 1 0.158784 0.763614 0.251152
557 1 0.163348 0.839244 0.165583
559 1 0.245446 0.823123 0.236014
537 1 0.328368 0.671953 0.164398
538 1 0.419372 0.744763 0.156162
539 1 0.404651 0.670615 0.248068
540 1 0.345918 0.761312 0.248262
561 1 0.340933 0.837922 0.163131
563 1 0.427484 0.847654 0.251641
541 1 0.493611 0.654251 0.182056
542 1 0.573449 0.755533 0.160757
543 1 0.578831 0.674745 0.249101
544 1 0.491351 0.763598 0.246087
565 1 0.50077 0.828432 0.164243
567 1 0.57905 0.837903 0.244899
545 1 0.664336 0.655686 0.160621
546 1 0.736166 0.75363 0.154381
547 1 0.746824 0.666448 0.244934
548 1 0.669193 0.750461 0.239701
569 1 0.672037 0.843839 0.166633
571 1 0.749337 0.824835 0.247735
549 1 0.821761 0.67168 0.167331
550 1 0.911031 0.7529 0.171824
551 1 0.91648 0.663461 0.254542
552 1 0.829975 0.744751 0.246869
573 1 0.824428 0.831509 0.154791
575 1 0.912617 0.831959 0.252466
554 1 0.0823802 0.910908 0.170421
556 1 0.998515 0.910352 0.243178
558 1 0.250195 0.905191 0.167891
560 1 0.176532 0.906155 0.252874
562 1 0.422085 0.923765 0.162045
564 1 0.340344 0.925612 0.243063
566 1 0.586815 0.918849 0.160685
568 1 0.5003 0.928096 0.251127
570 1 0.756213 0.922121 0.171894
572 1 0.671078 0.916704 0.250114
574 1 0.912112 0.913585 0.163402
576 1 0.822153 0.909728 0.256543
647 1 0.907854 0.834202 0.42305
578 1 0.0817222 0.576869 0.341478
645 1 0.818132 0.829565 0.341515
580 1 0.0151888 0.589152 0.429127
624 1 0.826453 0.741135 0.41063
582 1 0.258043 0.585685 0.323348
616 1 0.502425 0.743285 0.434485
584 1 0.17168 0.569582 0.420101
621 1 0.845058 0.658001 0.333475
586 1 0.415447 0.582792 0.33951
612 1 0.338134 0.745042 0.420409
588 1 0.330133 0.586023 0.414592
617 1 0.656676 0.671754 0.321504
590 1 0.58714 0.57685 0.329598
639 1 0.581647 0.831743 0.415327
592 1 0.506025 0.587644 0.409168
643 1 0.741874 0.823206 0.412198
594 1 0.7392 0.591531 0.342323
623 1 0.920191 0.670371 0.407738
596 1 0.664393 0.596986 0.423421
615 1 0.587236 0.659918 0.411577
598 1 0.935295 0.583026 0.331234
622 1 0.915456 0.757648 0.334249
600 1 0.845072 0.594485 0.417234
601 1 1.00319 0.669505 0.340403
602 1 0.0801348 0.756142 0.329234
603 1 0.0896907 0.672584 0.411438
604 1 0.999348 0.761013 0.410632
625 1 -0.00064539 0.832765 0.328901
627 1 0.080052 0.831505 0.420248
605 1 0.163543 0.675062 0.334923
606 1 0.259502 0.755452 0.335322
607 1 0.25167 0.669877 0.412484
608 1 0.166953 0.762285 0.413079
629 1 0.172033 0.840731 0.326332
631 1 0.25073 0.829287 0.412928
609 1 0.329457 0.667544 0.325362
610 1 0.428616 0.746392 0.329256
611 1 0.41434 0.656375 0.424368
457 1 0.989808 0.673784 0.0216409
485 1 0.169564 0.834906 -2.95249e-05
167 1 0.90707 0.993746 0.406899
233 1 0.669244 0.986276 0.509907
698 1 0.0728353 0.913209 0.492751
670 1 0.924934 0.586504 0.493912
511 1 0.251175 0.494575 0.256217
225 1 0.328577 1.0023 0.490657
706 1 0.42276 0.924824 0.500693
674 1 0.0794944 0.758125 0.496166
682 1 0.406791 0.755548 0.507586
521 1 0.669439 0.490624 0.173334
147 1 0.0681418 1.01005 0.417015
149 1 0.17936 0.999392 0.323265
93 1 0.828368 0.999608 0.16209
650 1 0.103999 0.583526 0.501601
85 1 0.495388 1.00546 0.166925
163 1 0.740252 0.997883 0.408244
441 1 0.326828 0.496815 0.00651958
470 1 0.585127 0.75163 0.000329753
714 1 0.754306 0.914084 0.50627
23 1 0.925363 1.00085 0.0870966
527 1 0.903973 0.496528 0.253803
87 1 0.58795 1.00054 0.245848
678 1 0.243037 0.751816 0.487778
701 1 0.166945 0.842951 0.487878
434 1 0.0752046 0.57923 0.00645747
473 1 0.662812 0.667718 0.00779698
658 1 0.405789 0.578261 0.502832
718 1 0.896972 0.92058 0.488886
685 1 0.491619 0.66548 0.516723
702 1 0.257093 0.913704 0.50005
454 1 0.908755 0.573751 -0.00505016
669 1 0.840833 0.514839 0.489913
481 1 -0.0113293 0.825803 -0.00675157
697 1 0.997887 0.825559 0.499395
677 1 0.175987 0.658241 0.488389
864 1 0.833508 0.927903 0.909655
5 1 0.170134 1.00061 1.00427
860 1 0.670002 0.904362 0.904106
652 1 0.00939391 0.591859 0.560928
856 1 0.499627 0.920409 0.904863
377 1 0.653939 1.00086 0.831253
852 1 0.34393 0.903548 0.908528
656 1 0.178473 0.591541 0.580852
848 1 0.162083 0.926949 0.918508
666 1 0.746802 0.581651 0.494707
379 1 0.754074 1.01296 0.922178
660 1 0.337358 0.580421 0.585466
844 1 0.00441235 0.919021 0.926124
743 1 0.916307 0.511859 0.75214
309 1 0.810844 1.00075 0.665428
664 1 0.487979 0.584267 0.576261
690 1 0.735864 0.753421 0.505476
494 1 0.577597 0.918438 1.00438
723 1 0.0911334 0.506713 0.744539
668 1 0.662332 0.571506 0.570779
863 1 0.918609 0.845382 0.911872
478 1 0.912518 0.756686 0.984513
840 1 0.825889 0.745766 0.909612
672 1 0.830738 0.584727 0.596176
671 1 0.93301 0.511929 0.57005
651 1 0.0774256 0.507009 0.581537
675 1 0.0962532 0.67912 0.568413
676 1 1.00357 0.754754 0.586109
303 1 0.594519 0.994875 0.737726
699 1 0.0796738 0.819146 0.576418
235 1 0.74953 0.998686 0.581733
653 1 0.182603 0.496398 0.502009
679 1 0.252599 0.67457 0.572288
680 1 0.176295 0.751234 0.566558
662 1 0.570846 0.588672 0.491152
703 1 0.23771 0.836121 0.578283
721 1 -0.00615028 0.506046 0.656811
367 1 0.257013 0.99516 0.923267
683 1 0.404674 0.673564 0.58282
684 1 0.326869 0.749127 0.578869
458 1 0.0830495 0.756015 1.01566
707 1 0.42707 0.839453 0.565456
13 1 0.497783 0.997572 0.991534
735 1 0.579743 0.497994 0.755995
687 1 0.584384 0.662878 0.588856
688 1 0.505416 0.756777 0.575129
717 1 0.82921 0.827688 0.499029
711 1 0.594635 0.835429 0.596857
299 1 0.422859 1.00192 0.736607
293 1 0.164951 1.00667 0.664305
691 1 0.749739 0.653627 0.576092
692 1 0.66486 0.751288 0.599364
737 1 0.665487 0.504635 0.664702
715 1 0.748635 0.830751 0.589525
824 1 0.181192 0.749316 0.920455
705 1 0.322335 0.829728 0.493194
695 1 0.92036 0.671796 0.582115
696 1 0.823736 0.74128 0.582336
823 1 0.252966 0.658886 0.919741
719 1 0.909676 0.827804 0.576975
843 1 0.0903731 0.817825 0.924269
700 1 0.993204 0.911564 0.571984
812 1 0.643094 0.577848 0.931221
704 1 0.161528 0.932944 0.572147
847 1 0.250581 0.836411 0.916148
708 1 0.327763 0.914755 0.574911
808 1 0.496706 0.577199 0.926578
712 1 0.504199 0.933855 0.578583
799 1 0.252345 0.495229 0.913589
716 1 0.677121 0.917566 0.597664
816 1 0.824577 0.580804 0.927816
720 1 0.822873 0.910406 0.594632
820 1 0.999976 0.74909 0.915198
722 1 0.0811534 0.587093 0.656171
474 1 0.73077 0.75253 0.988862
724 1 1.00886 0.584078 0.745484
793 1 0.0103043 0.506701 0.818366
794 1 0.082027 0.591399 0.838398
839 1 0.92669 0.664725 0.924481
726 1 0.260383 0.583201 0.671327
804 1 0.33186 0.573025 0.908747
728 1 0.171966 0.592969 0.756823
859 1 0.747655 0.822609 0.894353
798 1 0.256326 0.590107 0.834701
836 1 0.648793 0.754348 0.916287
730 1 0.430085 0.568876 0.666307
862 1 0.926429 0.924303 0.843327
732 1 0.338269 0.582934 0.750874
827 1 0.422411 0.652615 0.933688
802 1 0.420089 0.570871 0.843705
835 1 0.748067 0.659469 0.918843
734 1 0.578137 0.574514 0.66094
855 1 0.583217 0.840902 0.918997
736 1 0.497772 0.573897 0.764246
832 1 0.497176 0.738818 0.922427
806 1 0.57449 0.575448 0.846856
800 1 0.168913 0.595266 0.907711
738 1 0.7453 0.593297 0.678456
831 1 0.581667 0.669597 0.933606
740 1 0.657255 0.57954 0.750158
819 1 0.0858996 0.679703 0.914226
810 1 0.727387 0.575945 0.840981
851 1 0.412869 0.818812 0.914332
742 1 0.922129 0.59453 0.669543
828 1 0.325362 0.757174 0.908251
744 1 0.828411 0.582277 0.743528
796 1 1.00664 0.583272 0.921155
814 1 0.924629 0.582047 0.844366
745 1 0.00737748 0.667992 0.664776
746 1 0.100147 0.753745 0.667381
747 1 0.101376 0.66654 0.742987
748 1 -0.00127973 0.749014 0.74864
769 1 -0.00649929 0.832534 0.663428
771 1 0.0838549 0.841356 0.741936
817 1 1.00276 0.665956 0.841218
818 1 0.0920683 0.739492 0.822839
841 1 0.00118522 0.828018 0.827672
749 1 0.17141 0.661689 0.656965
750 1 0.253091 0.763611 0.667286
751 1 0.261038 0.680777 0.744343
752 1 0.17273 0.751849 0.745874
773 1 0.157763 0.84681 0.663949
775 1 0.240666 0.836873 0.744
821 1 0.173698 0.67438 0.845279
822 1 0.254365 0.75241 0.81982
845 1 0.166213 0.830732 0.840809
753 1 0.34355 0.661157 0.674452
754 1 0.423949 0.749614 0.660272
755 1 0.4123 0.663127 0.757557
756 1 0.341102 0.755651 0.743362
777 1 0.338764 0.829322 0.656357
779 1 0.41915 0.840924 0.730492
825 1 0.331787 0.665105 0.833742
826 1 0.418595 0.745027 0.832542
849 1 0.345244 0.838636 0.826873
757 1 0.496759 0.657793 0.663085
758 1 0.574877 0.746349 0.670148
759 1 0.577821 0.665943 0.742434
760 1 0.500079 0.738578 0.74954
781 1 0.500824 0.831559 0.653763
783 1 0.576527 0.831462 0.745411
829 1 0.485793 0.654842 0.833424
830 1 0.555722 0.747814 0.842771
853 1 0.493572 0.839886 0.821777
761 1 0.660566 0.662257 0.666191
762 1 0.751078 0.726445 0.664309
763 1 0.736995 0.669578 0.758256
764 1 0.659618 0.747125 0.745789
785 1 0.672762 0.827435 0.677403
787 1 0.746236 0.828939 0.767806
833 1 0.641307 0.668434 0.83844
834 1 0.741656 0.738064 0.83546
857 1 0.654544 0.815834 0.824614
765 1 0.837701 0.658994 0.673056
766 1 0.910286 0.757941 0.658411
767 1 0.914932 0.665484 0.752254
768 1 0.825388 0.741703 0.753905
789 1 0.822396 0.821899 0.665052
791 1 0.922483 0.836457 0.746924
837 1 0.822601 0.646585 0.833845
838 1 0.908766 0.742977 0.836439
861 1 0.843713 0.821092 0.825421
770 1 0.0806004 0.918941 0.667866
772 1 1.00103 0.925801 0.753333
842 1 0.0672017 0.917989 0.826864
774 1 0.249451 0.916781 0.654675
776 1 0.17289 0.920383 0.755941
846 1 0.258113 0.916275 0.825024
778 1 0.420798 0.927692 0.652204
780 1 0.319543 0.907054 0.738423
850 1 0.425266 0.940281 0.826499
782 1 0.595612 0.905002 0.675475
784 1 0.496365 0.915252 0.749218
854 1 0.57917 0.908661 0.816927
786 1 0.749215 0.89864 0.681281
788 1 0.671856 0.919979 0.759831
858 1 0.757017 0.924018 0.838757
790 1 0.89523 0.912371 0.669885
792 1 0.84054 0.929483 0.764561
497 1 0.655958 0.835096 0.996791
797 1 0.171851 0.504614 0.83288
659 1 0.407008 0.483676 0.579514
815 1 0.905327 0.490137 0.917529
375 1 0.580948 0.992886 0.913133
725 1 0.173442 0.510949 0.66852
363 1 0.0970505 1.00442 0.909855
795 1 0.097013 0.499345 0.915716
809 1 0.662257 0.498305 0.83516
301 1 0.510848 0.995879 0.667443
239 1 0.898369 0.995273 0.595683
289 1 0.998152 1.0015 0.652837
655 1 0.250775 0.501214 0.588276
297 1 0.334119 0.994763 0.668447
305 1 0.677261 1.00153 0.678417
813 1 0.828988 0.500925 0.829755
811 1 0.751911 0.497401 0.931994
477 1 0.838747 0.658369 1.00137
501 1 0.824019 0.835751 0.981039
686 1 0.593132 0.755627 0.505631
654 1 0.25403 0.584845 0.492014
498 1 0.74508 0.911997 0.989001
489 1 0.34406 0.831758 1.00123
237 1 0.82699 0.996868 0.492058
694 1 0.900703 0.742327 0.499096
493 1 0.484968 0.830488 0.998482
710 1 0.592412 0.924555 0.504256
1 1 0.00613526 0.996095 1.00216
713 1 0.665077 0.838682 0.508996
490 1 0.420108 0.914095 0.992273
502 1 0.923301 0.914436 0.999435
709 1 0.512242 0.836591 0.499218
217 1 0.988757 1.00364 0.49409
