ITEM: TIMESTEP
35200
ITEM: NUMBER OF ATOMS
864
ITEM: BOX BOUNDS pp pp pp
0.0000000000000000e+00 3.1559999999999999e+01
0.0000000000000000e+00 3.1559999999999999e+01
0.0000000000000000e+00 3.1559999999999999e+01
ITEM: ATOMS id type xs ys zs
27 1 0.0836363 0.157811 0.0861187
8 1 0.171152 0.0724195 0.097665
101 1 0.169786 0.155902 0.15376
149 1 0.159274 -0.0011554 0.330568
4 1 0.994728 0.0700254 0.080095
97 1 0.00434497 0.164804 0.154746
23 1 0.908513 -0.00680291 0.0976799
270 1 0.256657 0.427434 0.499268
12 1 0.328369 0.0595345 0.0768306
78 1 0.24899 0.0718406 0.17272
597 1 0.83268 0.487641 0.332495
16 1 0.506487 0.0775124 0.0874693
87 1 0.580002 -0.00828298 0.275522
11 1 0.417137 -0.00367694 0.0741321
193 1 0.00330339 0.353886 0.320926
155 1 0.413473 0.00759436 0.430589
439 1 0.260052 0.496149 0.0763015
20 1 0.664409 0.0904593 0.0906514
3 1 0.0911083 0.0045352 0.0946095
147 1 0.0679596 0.000388751 0.417282
43 1 0.755011 0.174409 0.0945747
90 1 0.743813 0.0771903 0.181701
216 1 0.813465 0.420757 0.414563
222 1 0.239168 0.0729871 0.501233
24 1 0.831402 0.071731 0.103726
47 1 0.915798 0.163153 0.0840729
117 1 0.823658 0.158124 0.181442
79 1 0.249383 -0.00585538 0.266569
30 1 0.244996 0.255574 -0.00188529
98 1 0.0773446 0.245651 0.16269
32 1 0.169799 0.240058 0.0783738
28 1 0.00725626 0.240358 0.0712696
19 1 0.742006 0.00637929 0.101534
31 1 0.255435 0.144093 0.0897205
55 1 0.256012 0.318372 0.0906375
105 1 0.351271 0.160303 0.163437
102 1 0.245457 0.242825 0.161574
35 1 0.418892 0.15158 0.0804039
505 1 0.995556 0.498711 0.160364
36 1 0.329903 0.241055 0.0842253
59 1 0.401387 0.32502 0.0837417
40 1 0.496381 0.25163 0.0863609
455 1 0.909299 0.487637 0.0868402
39 1 0.565214 0.17116 0.0829729
113 1 0.664956 0.181331 0.174809
63 1 0.572886 0.334046 0.0663116
286 1 0.920345 0.427654 0.499955
44 1 0.654094 0.242161 0.0759432
67 1 0.742659 0.318011 0.0831948
114 1 0.755505 0.241449 0.18698
48 1 0.83073 0.239152 0.0815979
22 1 0.909184 0.0757936 0.0132763
118 1 0.916238 0.228308 0.166601
141 1 0.827077 0.319306 0.154836
71 1 0.925172 0.305094 0.0930336
51 1 0.090918 0.331442 0.0883954
285 1 0.836765 0.337928 0.498743
56 1 0.171418 0.410027 0.0899993
519 1 0.575144 0.492785 0.239168
215 1 0.919074 0.334319 0.420691
521 1 0.652829 0.493943 0.165968
60 1 0.334239 0.418089 0.0659082
126 1 0.260944 0.403285 0.163392
507 1 0.101434 0.490857 0.240426
130 1 0.400378 0.412517 0.181157
153 1 0.340711 -0.00397895 0.34158
212 1 0.674445 0.414817 0.408108
213 1 0.838347 0.333221 0.340496
64 1 0.477958 0.414967 0.0834675
73 1 0.00310207 -0.000869095 0.171944
68 1 0.662115 0.402553 0.0788072
138 1 0.739846 0.40029 0.161924
451 1 0.734405 0.494061 0.0886083
1 1 0.988603 -0.0134031 -0.000744342
206 1 0.586387 0.418019 0.333853
52 1 0.98857 0.411293 0.0781566
192 1 0.830147 0.254022 0.422311
72 1 0.826475 0.401561 0.0720248
142 1 0.911994 0.394643 0.172648
208 1 0.507179 0.427784 0.403621
74 1 0.085429 0.0806368 0.17037
18 1 0.76534 0.0809926 0.0196966
76 1 -0.006928 0.0824733 0.255251
447 1 0.586033 0.480915 0.0827753
80 1 0.165091 0.0758525 0.246444
84 1 0.326477 0.0964263 0.248578
207 1 0.600155 0.329838 0.434726
435 1 0.076027 0.499259 0.0827049
82 1 0.41096 0.0729589 0.167683
88 1 0.511099 0.0873856 0.257137
154 1 0.411778 0.0879035 0.341404
509 1 0.181267 0.499343 0.157904
109 1 0.489853 0.16074 0.168342
86 1 0.577238 0.100859 0.175792
92 1 0.657719 0.0740584 0.259588
517 1 0.497229 0.50268 0.166158
96 1 0.831028 0.0809431 0.27704
203 1 0.42746 0.339312 0.414021
94 1 0.911625 0.0718603 0.180203
119 1 0.926388 0.167291 0.261203
166 1 0.923604 0.0777902 0.334075
99 1 0.078423 0.166314 0.24175
104 1 0.156584 0.237286 0.245534
123 1 0.0948474 0.326675 0.269762
125 1 0.158068 0.3334 0.178588
173 1 0.168177 0.153136 0.336935
103 1 0.238672 0.161874 0.257594
127 1 0.259264 0.312439 0.233892
177 1 0.336649 0.16501 0.33925
106 1 0.417163 0.255243 0.187098
133 1 0.486661 0.338231 0.162591
107 1 0.429951 0.160662 0.260385
108 1 0.316791 0.219067 0.249769
112 1 0.490552 0.254351 0.265682
178 1 0.408132 0.257693 0.347936
181 1 0.504368 0.1698 0.342088
185 1 0.661578 0.160826 0.324771
111 1 0.573246 0.173041 0.259972
110 1 0.564762 0.255336 0.166964
209 1 0.670347 0.343551 0.32139
115 1 0.743971 0.162957 0.26264
116 1 0.664156 0.252974 0.259725
186 1 0.762951 0.245606 0.322557
139 1 0.75508 0.327166 0.253326
137 1 0.649192 0.326118 0.162057
100 1 -0.00485185 0.250494 0.249875
120 1 0.839007 0.243214 0.248429
190 1 0.920664 0.247508 0.332718
189 1 0.840365 0.165885 0.330682
122 1 0.0836676 0.405833 0.166333
128 1 0.194737 0.426213 0.262087
194 1 0.102671 0.417507 0.330501
197 1 0.175091 0.341289 0.34221
132 1 0.324648 0.424261 0.257254
199 1 0.250376 0.341569 0.428398
198 1 0.256428 0.420097 0.348279
129 1 0.33456 0.331486 0.164438
187 1 0.758437 0.161665 0.415817
180 1 0.330524 0.249781 0.433826
201 1 0.32154 0.334189 0.331806
131 1 0.409606 0.32661 0.26337
204 1 0.334324 0.428181 0.416287
202 1 0.41277 0.424038 0.327448
269 1 0.152062 0.335453 0.475064
188 1 0.676122 0.247042 0.415412
134 1 0.559301 0.409532 0.166667
135 1 0.588212 0.341007 0.246502
136 1 0.486023 0.411644 0.246512
210 1 0.75382 0.414258 0.319902
140 1 0.661708 0.425945 0.259095
525 1 0.82195 0.463931 0.157337
179 1 0.41429 0.162919 0.415375
214 1 0.917907 0.418848 0.327469
121 1 0.0114328 0.33126 0.164583
143 1 0.912303 0.32137 0.253944
144 1 0.839142 0.40454 0.254691
124 1 -0.00317267 0.40846 0.237079
205 1 0.500798 0.344492 0.330287
146 1 0.0846913 0.0806692 0.342968
148 1 0.00344915 0.0911114 0.416618
211 1 0.751859 0.332443 0.42043
152 1 0.17405 0.0745233 0.415333
150 1 0.267978 0.082571 0.338063
513 1 0.323898 0.495685 0.168213
176 1 0.173812 0.246363 0.41438
184 1 0.508787 0.257061 0.413559
156 1 0.329444 0.0787998 0.424299
160 1 0.502264 0.0844853 0.435364
195 1 0.0846317 0.332152 0.394943
163 1 0.760734 -0.000876572 0.422001
175 1 0.259781 0.168433 0.433966
200 1 0.165771 0.427775 0.411853
158 1 0.592609 0.0818392 0.343709
183 1 0.577613 0.172145 0.432489
174 1 0.243664 0.238578 0.341141
182 1 0.588758 0.260305 0.338567
162 1 0.737913 0.0838586 0.345373
164 1 0.673363 0.0774133 0.424201
196 1 0.998111 0.401796 0.409423
168 1 0.846846 0.0835065 0.435299
191 1 0.932176 0.175841 0.412628
172 1 0.00287832 0.2582 0.433902
169 1 0.0121551 0.164653 0.323888
170 1 0.0872505 0.233333 0.328017
171 1 0.0875714 0.166114 0.412676
54 1 0.23867 0.415774 0.000464383
274 1 0.425221 0.432433 0.48909
167 1 0.925306 -0.000571686 0.420111
2 1 0.0769003 0.0759961 0.00472744
523 1 0.755135 0.483463 0.244778
527 1 0.913385 0.490744 0.24808
157 1 0.511324 -0.00242123 0.355469
453 1 0.848917 0.487706 0.00775738
15 1 0.587508 0.0182699 0.0921547
17 1 0.66057 0.0139415 0.011651
26 1 0.076936 0.263706 -0.00511077
85 1 0.513614 0.0112169 0.176964
433 1 0.992598 0.504147 -0.00525784
257 1 0.676745 0.16115 0.507125
258 1 0.748223 0.251314 0.492489
266 1 0.0779168 0.427948 0.492592
250 1 0.423656 0.257531 0.494836
10 1 0.406762 0.0901674 -0.00923652
253 1 0.496095 0.170241 0.501443
41 1 0.679905 0.162501 0.00422819
57 1 0.330519 0.319888 0.0142118
218 1 0.0907695 0.0869432 0.495949
665 1 0.652361 0.50134 0.489829
69 1 0.849111 0.317886 0.00893242
238 1 0.926754 0.0800148 0.503462
50 1 0.0891635 0.403642 0.0108658
38 1 0.565775 0.241029 0.00377079
281 1 0.677078 0.33532 0.500017
33 1 0.325685 0.153772 0.0058028
245 1 0.164409 0.159587 0.488795
224 1 0.174138 0.0834919 0.592723
220 1 0.981331 0.0817002 0.590585
290 1 0.0885482 0.0862228 0.659238
294 1 0.252097 0.0908853 0.654862
247 1 0.238739 0.171831 0.567501
317 1 0.17746 0.181449 0.649317
228 1 0.336821 0.0951824 0.596527
325 1 0.506146 0.153066 0.678852
307 1 0.769545 0.00580485 0.757625
232 1 0.498111 0.0897242 0.577397
302 1 0.60382 0.0845996 0.665072
255 1 0.595362 0.156309 0.587618
329 1 0.682598 0.164624 0.663344
301 1 0.507877 -0.00485267 0.655576
363 1 0.0771854 0.00740695 0.909509
236 1 0.677574 0.0845015 0.579287
306 1 0.763154 0.0842781 0.661475
241 1 0.00891862 0.168736 0.505204
259 1 0.760244 0.169707 0.571095
379 1 0.75241 0.00974995 0.913142
240 1 0.844102 0.075659 0.574865
227 1 0.39512 0.00638253 0.579893
70 1 0.915799 0.407439 0.999081
243 1 0.0917309 0.175299 0.583482
248 1 0.169225 0.256194 0.57687
267 1 0.0845648 0.333203 0.571438
244 1 0.999699 0.262523 0.580751
313 1 0.00776392 0.167631 0.660898
252 1 0.322549 0.259425 0.576643
45 1 0.84023 0.162894 1.00346
365 1 0.162598 0.00220233 0.824583
14 1 0.581227 0.0953151 1.01477
251 1 0.410855 0.167709 0.592189
322 1 0.415017 0.258003 0.685288
275 1 0.412114 0.333914 0.583224
6 1 0.245267 0.07532 0.996425
254 1 0.576537 0.246482 0.516297
256 1 0.485854 0.254277 0.578341
326 1 0.589421 0.245214 0.660879
279 1 0.585833 0.331898 0.581481
651 1 0.09678 0.504384 0.577597
260 1 0.68316 0.242859 0.582493
283 1 0.749652 0.327442 0.574351
330 1 0.762056 0.245744 0.659536
305 1 0.683716 0.0108947 0.660324
264 1 0.848278 0.24493 0.600113
263 1 0.921178 0.169009 0.585982
334 1 0.929353 0.273415 0.658728
369 1 0.328409 0.000401385 0.820083
741 1 0.831083 0.482639 0.678295
268 1 0.00949129 0.434526 0.56484
272 1 0.163545 0.410162 0.570867
34 1 0.422527 0.242528 1.00152
813 1 0.838779 0.500777 0.830987
226 1 0.40569 0.090442 0.508842
271 1 0.247742 0.354101 0.570074
276 1 0.338771 0.426486 0.578954
429 1 0.829911 0.340392 0.846852
739 1 0.751882 0.494445 0.764001
280 1 0.49691 0.434869 0.586094
381 1 0.847314 0.00654591 0.828426
231 1 0.582459 0.0040969 0.582095
349 1 0.497251 0.345567 0.664153
811 1 0.738307 0.49113 0.918209
375 1 0.593412 0.0152748 0.919689
235 1 0.761115 0.00767544 0.574713
367 1 0.241896 0.00261464 0.904623
371 1 0.408943 0.00295548 0.894394
284 1 0.663842 0.409247 0.571872
424 1 0.501406 0.431345 0.910922
288 1 0.831847 0.432741 0.577128
287 1 0.913501 0.342496 0.575357
358 1 0.920838 0.420397 0.663358
357 1 0.841762 0.335258 0.653101
219 1 0.0897289 -0.00468933 0.576265
315 1 0.0892137 0.183988 0.743933
296 1 0.147967 0.0922411 0.750617
292 1 0.0134004 0.101492 0.75098
321 1 0.325415 0.18392 0.656987
300 1 0.332203 0.0837375 0.747674
319 1 0.232343 0.176508 0.74295
432 1 0.852812 0.422283 0.919121
389 1 0.159428 0.168537 0.827631
298 1 0.415899 0.0807654 0.669633
304 1 0.506574 0.0791298 0.762794
327 1 0.58745 0.155809 0.756816
397 1 0.503574 0.161793 0.835426
374 1 0.592821 0.081375 0.826646
401 1 0.659758 0.17159 0.830828
308 1 0.68545 0.0822136 0.7472
378 1 0.749635 0.0839044 0.835133
809 1 0.66534 0.485419 0.83605
430 1 0.919251 0.424817 0.825716
312 1 0.830501 0.0868402 0.760544
310 1 0.905629 0.0724381 0.665943
314 1 0.0913996 0.260803 0.64799
320 1 0.166141 0.262062 0.732789
316 1 0.00472615 0.246297 0.729212
339 1 0.087618 0.339493 0.735743
385 1 0.985673 0.169082 0.83994
318 1 0.238606 0.272201 0.653495
343 1 0.23814 0.347394 0.729537
393 1 0.325945 0.170012 0.82485
324 1 0.321246 0.269512 0.758597
323 1 0.422778 0.170955 0.74512
328 1 0.492424 0.268526 0.749851
394 1 0.420835 0.245509 0.825952
332 1 0.652786 0.252991 0.754488
351 1 0.583389 0.343338 0.755568
353 1 0.653312 0.321368 0.675454
398 1 0.578247 0.244054 0.840999
331 1 0.744441 0.171109 0.757506
355 1 0.743988 0.331986 0.757804
402 1 0.746039 0.246433 0.831392
333 1 0.833281 0.161603 0.675586
405 1 0.825897 0.171248 0.838009
335 1 0.921801 0.153992 0.739577
336 1 0.824919 0.257205 0.74511
338 1 0.087913 0.425949 0.661987
341 1 0.162807 0.347192 0.655589
344 1 0.153562 0.427457 0.749548
13 1 0.492127 0.0085863 0.993612
426 1 0.749379 0.415832 0.850589
345 1 0.336756 0.33576 0.667369
428 1 0.657517 0.403733 0.927395
342 1 0.255847 0.426485 0.654424
346 1 0.408416 0.41502 0.659592
347 1 0.407928 0.351353 0.759608
348 1 0.322623 0.417493 0.743198
418 1 0.417702 0.420574 0.842365
352 1 0.490705 0.431761 0.749092
350 1 0.583467 0.407958 0.671448
356 1 0.669999 0.419477 0.753961
425 1 0.664928 0.337943 0.836674
354 1 0.747672 0.398712 0.665752
377 1 0.677955 0.00768716 0.836701
337 1 0.0130536 0.346674 0.656506
360 1 0.821536 0.413947 0.755968
340 1 0.0139989 0.437471 0.747757
359 1 0.929505 0.340545 0.754653
735 1 0.573 0.491386 0.745128
362 1 0.0805502 0.0791445 0.830212
387 1 0.0824909 0.162595 0.919165
422 1 0.581736 0.423863 0.841218
420 1 0.335265 0.418306 0.912381
368 1 0.164529 0.0878528 0.91595
366 1 0.242135 0.0742397 0.812796
372 1 0.331033 0.0975781 0.909044
391 1 0.24887 0.163645 0.912073
291 1 0.0770058 0.00635663 0.744356
361 1 0.994562 0.00558089 0.81918
370 1 0.417432 0.0952821 0.823383
376 1 0.502252 0.0789056 0.903857
395 1 0.410217 0.170421 0.904718
282 1 0.750977 0.422445 0.502173
380 1 0.681899 0.0940429 0.911249
411 1 0.0826534 0.337364 0.909198
416 1 0.163702 0.424207 0.910882
46 1 0.91962 0.246358 0.995894
384 1 0.829929 0.0831563 0.928976
415 1 0.247262 0.327272 0.909903
414 1 0.23518 0.425276 0.827193
407 1 0.911181 0.17832 0.918852
382 1 0.903086 0.0988665 0.838053
364 1 0.998635 0.0852097 0.90546
737 1 0.651923 0.493291 0.66166
409 1 0.0112165 0.339896 0.815904
388 1 0.00740798 0.254209 0.914483
386 1 0.0788892 0.253855 0.825657
390 1 0.234196 0.248106 0.832203
392 1 0.168166 0.247082 0.912956
417 1 0.321884 0.346032 0.842867
297 1 0.328311 -0.0121941 0.67478
419 1 0.400443 0.328014 0.912434
396 1 0.331891 0.238309 0.934619
400 1 0.494945 0.256184 0.917779
801 1 0.325281 0.500398 0.826188
423 1 0.581202 0.322456 0.918221
399 1 0.586448 0.157046 0.912081
421 1 0.508089 0.333233 0.843052
277 1 0.495006 0.334937 0.499754
427 1 0.757805 0.337633 0.925386
403 1 0.740884 0.174373 0.908888
408 1 0.827437 0.252338 0.918601
404 1 0.662785 0.246144 0.921501
431 1 0.937792 0.338308 0.910003
406 1 0.917876 0.255262 0.826911
25 1 0.995031 0.167066 0.995227
413 1 0.155718 0.328812 0.836434
412 1 0.0116971 0.427769 0.927449
410 1 0.0855852 0.429054 0.835841
230 1 0.597663 0.088466 0.503078
299 1 0.416093 0.00784277 0.751921
29 1 0.155189 0.169945 0.996588
293 1 0.157577 0.00151238 0.66758
242 1 0.0914746 0.255966 0.495579
303 1 0.606019 0.00592274 0.746389
62 1 0.572455 0.420075 0.997249
42 1 0.750152 0.243077 0.993431
249 1 0.342036 0.17535 0.511912
66 1 0.741336 0.417261 1.00296
37 1 0.491994 0.159647 0.998155
437 1 0.165896 0.494499 1.00419
262 1 0.919057 0.24834 0.500205
58 1 0.414382 0.421558 0.982376
61 1 0.490199 0.3387 0.986103
261 1 0.842099 0.168206 0.506109
65 1 0.661206 0.326698 0.994166
265 1 0.00305799 0.344744 0.499385
273 1 0.338212 0.333416 0.491881
49 1 1.00006 0.331637 0.993686
53 1 0.169156 0.331065 0.989154
233 1 0.67058 0.00692995 0.503351
217 1 0.00722552 -0.00322371 0.513228
278 1 0.571131 0.415273 0.505647
246 1 0.238877 0.260022 0.495546
9 1 0.343035 0.0010825 0.978715
234 1 0.754742 0.0838187 0.498113
440 1 0.170708 0.581775 0.0706202
511 1 0.247423 0.51511 0.250116
463 1 0.257639 0.667863 0.0698424
444 1 0.339856 0.592633 0.0741739
510 1 0.249114 0.595259 0.151222
225 1 0.320041 0.992383 0.501591
579 1 0.0727704 0.511172 0.390504
83 1 0.427204 1.0002 0.273445
467 1 0.424256 0.673994 0.0748638
161 1 0.670158 1.00356 0.34725
448 1 0.499919 0.594066 0.0938261
452 1 0.664784 0.601267 0.0913809
471 1 0.583984 0.670726 0.0805872
145 1 0.992392 0.992069 0.33041
522 1 0.73893 0.56686 0.170857
456 1 0.837379 0.585842 0.0971419
475 1 0.764533 0.667694 0.0988677
662 1 0.575663 0.605271 0.483169
454 1 0.908567 0.569797 0.000493452
81 1 0.321536 1.00387 0.180393
436 1 0.99664 0.576868 0.0730625
650 1 0.0820067 0.578052 0.492898
459 1 0.0667889 0.659162 0.0713183
464 1 0.169018 0.759851 0.0800648
581 1 0.163158 0.520775 0.334233
534 1 0.236137 0.749214 0.175696
445 1 0.505026 0.503195 -0.00116927
468 1 0.35027 0.752861 0.0929119
491 1 0.415182 0.839812 0.0848769
585 1 0.324816 0.516957 0.330547
472 1 0.493295 0.758412 0.0731326
476 1 0.690636 0.751769 0.0876094
577 1 0.00331446 0.506115 0.316641
565 1 0.506866 0.838342 0.157171
714 1 0.748463 0.925741 0.500647
546 1 0.746051 0.756812 0.183097
480 1 0.836801 0.751983 0.101652
479 1 0.910928 0.669578 0.0929961
460 1 0.996947 0.738779 0.0796085
165 1 0.844747 0.992301 0.350684
503 1 0.916614 0.817147 0.0849478
549 1 0.851143 0.681208 0.179347
593 1 0.676529 0.495591 0.335188
557 1 0.17416 0.841376 0.153573
483 1 0.068618 0.837451 0.0761863
488 1 0.181145 0.904076 0.0542129
554 1 0.0867589 0.924417 0.171656
587 1 0.416216 0.513933 0.400259
487 1 0.265602 0.81172 0.0746812
469 1 0.49431 0.675857 0.00117192
159 1 0.590802 0.990869 0.428232
661 1 0.493033 0.511993 0.493583
492 1 0.336286 0.912736 0.0866814
562 1 0.428518 0.9141 0.170484
95 1 0.91646 0.989004 0.250015
599 1 0.919303 0.500702 0.399742
93 1 0.822094 0.988667 0.179874
477 1 0.828167 0.651293 0.00518183
496 1 0.491379 0.921828 0.0812826
495 1 0.584891 0.838314 0.0722673
500 1 0.662921 0.91084 0.0889407
499 1 0.759832 0.82813 0.086679
504 1 0.84065 0.913869 0.0970664
553 1 0.00883655 0.836388 0.166871
484 1 1.00006 0.91903 0.0993872
574 1 0.905331 0.908425 0.174287
583 1 0.247774 0.510025 0.420162
151 1 0.251298 1.00384 0.419509
506 1 0.0685817 0.59522 0.161762
498 1 0.74686 0.931303 0.0126978
578 1 0.077964 0.594593 0.327622
537 1 0.3179 0.679248 0.164013
670 1 0.917352 0.586317 0.493314
512 1 0.154901 0.591478 0.248254
582 1 0.249825 0.59445 0.331231
605 1 0.166904 0.673366 0.338387
657 1 0.332732 0.508356 0.495852
514 1 0.4161 0.582051 0.173424
516 1 0.329437 0.587143 0.237216
539 1 0.431338 0.674691 0.23939
586 1 0.392631 0.601284 0.334277
613 1 0.485573 0.670608 0.335164
518 1 0.581685 0.598246 0.171727
520 1 0.495327 0.583505 0.254454
524 1 0.665794 0.566608 0.251119
446 1 0.570626 0.584396 0.0118484
547 1 0.752121 0.663365 0.264968
594 1 0.758099 0.575082 0.338493
545 1 0.680886 0.664419 0.1689
526 1 0.922543 0.575861 0.165497
508 1 1.00138 0.594741 0.253474
647 1 0.917479 0.826689 0.427109
686 1 0.589494 0.759596 0.507689
528 1 0.839655 0.580156 0.25024
530 1 0.0886393 0.752732 0.154975
531 1 0.0844396 0.686775 0.24739
529 1 -0.000563039 0.670448 0.175178
602 1 0.0872578 0.748099 0.345179
533 1 0.157733 0.670446 0.15482
536 1 0.167652 0.74729 0.259435
535 1 0.248665 0.663198 0.251276
540 1 0.334662 0.758936 0.240177
538 1 0.417333 0.775881 0.181731
561 1 0.331818 0.843192 0.167205
609 1 0.32714 0.681009 0.310384
544 1 0.503593 0.761266 0.233123
563 1 0.413489 0.856463 0.256427
542 1 0.599845 0.756881 0.174583
541 1 0.508237 0.680643 0.161493
543 1 0.578075 0.667182 0.249805
567 1 0.590636 0.838885 0.249245
548 1 0.678893 0.763445 0.254892
618 1 0.760057 0.735695 0.34941
552 1 0.835215 0.750309 0.272403
621 1 0.846638 0.668634 0.346104
551 1 0.917833 0.659194 0.259635
532 1 0.0122907 0.761592 0.262657
550 1 0.933796 0.752787 0.171721
622 1 0.922994 0.759879 0.331257
601 1 0.00158343 0.677084 0.328106
555 1 0.100587 0.829954 0.232788
560 1 0.177271 0.918575 0.242234
595 1 0.741403 0.505402 0.417403
558 1 0.247632 0.918322 0.152254
559 1 0.247138 0.820644 0.253323
564 1 0.326559 0.910578 0.26087
630 1 0.242785 0.919379 0.345005
634 1 0.436382 0.918019 0.352155
91 1 0.742383 0.995288 0.273005
628 1 1.00794 0.914055 0.416742
568 1 0.508826 0.905478 0.251135
641 1 0.675257 0.823291 0.347862
638 1 0.574015 0.90971 0.343963
566 1 0.590875 0.907228 0.165506
569 1 0.681732 0.8372 0.16933
571 1 0.751606 0.839649 0.258329
573 1 0.831267 0.826695 0.170072
572 1 0.667065 0.915174 0.268172
570 1 0.746789 0.91006 0.16957
576 1 0.832932 0.914606 0.27636
77 1 0.168327 0.995136 0.168607
625 1 0.999839 0.834084 0.340627
575 1 0.914378 0.838029 0.254276
556 1 -0.00721767 0.913371 0.253175
646 1 0.911111 0.907268 0.346166
478 1 0.898367 0.745295 -0.00350521
580 1 1.00872 0.587259 0.413259
673 1 0.0097907 0.665546 0.499166
645 1 0.821421 0.832545 0.342689
642 1 0.752298 0.913729 0.34379
626 1 0.0784341 0.914265 0.32144
584 1 0.185423 0.589845 0.41113
588 1 0.335755 0.592825 0.418995
591 1 0.586002 0.498887 0.404409
640 1 0.49772 0.915056 0.431995
592 1 0.50725 0.575906 0.400293
443 1 0.407781 0.496185 0.0734751
611 1 0.410235 0.674483 0.422645
636 1 0.34084 0.916548 0.420954
590 1 0.591715 0.571782 0.32661
617 1 0.657557 0.653166 0.318634
615 1 0.573602 0.675137 0.402419
648 1 0.834565 0.905961 0.427673
649 1 0.999357 0.504116 0.496847
596 1 0.660517 0.595315 0.413723
633 1 0.33505 0.844869 0.343223
639 1 0.577026 0.833944 0.416868
598 1 0.916363 0.581188 0.329183
600 1 0.835796 0.569467 0.401727
632 1 0.160438 0.910723 0.401668
470 1 0.600501 0.745177 0.00218783
603 1 0.083225 0.665963 0.413465
604 1 0.00539565 0.745681 0.417696
608 1 0.169477 0.759746 0.411627
623 1 0.925714 0.6632 0.419486
606 1 0.25615 0.75327 0.33208
607 1 0.243812 0.677375 0.416226
631 1 0.248628 0.839443 0.410027
612 1 0.32817 0.747346 0.423956
610 1 0.406915 0.752812 0.340241
616 1 0.503495 0.754154 0.411879
629 1 0.151771 0.832355 0.324306
627 1 0.0771736 0.82907 0.420731
614 1 0.594235 0.758165 0.333287
637 1 0.50168 0.821036 0.320852
644 1 0.670017 0.899919 0.415669
635 1 0.419153 0.83687 0.419495
619 1 0.756821 0.648961 0.415188
620 1 0.679101 0.747723 0.416895
643 1 0.758635 0.835315 0.42164
624 1 0.839813 0.751423 0.424442
89 1 0.659302 1.0031 0.170029
434 1 0.0821535 0.573703 0.00548147
689 1 0.671655 0.668889 0.50073
450 1 0.758516 0.570336 0.0126576
21 1 0.834005 0.999498 0.013403
75 1 0.0806844 1.00171 0.256029
515 1 0.410047 0.506104 0.258097
7 1 0.237783 0.994899 0.0838821
589 1 0.510445 0.492143 0.326987
221 1 0.158235 0.98032 0.48284
497 1 0.675414 0.837771 0.00348071
701 1 0.154909 0.830543 0.491494
690 1 0.757198 0.748664 0.489969
482 1 0.0787412 0.912425 -0.00344525
685 1 0.496916 0.677443 0.493929
682 1 0.418622 0.757963 0.492579
658 1 0.431499 0.593849 0.487908
474 1 0.766328 0.759593 0.00480566
494 1 0.575272 0.942693 0.00815555
666 1 0.739855 0.571768 0.494559
718 1 0.922551 0.924731 0.49206
501 1 0.8301 0.839196 0.00878706
438 1 0.26018 0.589481 0.00268315
669 1 0.834448 0.508481 0.483752
656 1 0.171398 0.587139 0.575868
660 1 0.331403 0.581882 0.580832
493 1 0.512706 0.846134 1.00436
698 1 0.0690096 0.910605 0.505386
5 1 0.162004 0.995103 1.01019
664 1 0.504364 0.580825 0.577481
687 1 0.577142 0.659252 0.572174
757 1 0.520137 0.67249 0.669961
761 1 0.66384 0.663932 0.663801
668 1 0.657835 0.581927 0.57285
691 1 0.737521 0.653134 0.582697
738 1 0.737316 0.558653 0.680303
797 1 0.151855 0.519614 0.838389
795 1 0.086087 0.519384 0.918903
652 1 0.00385742 0.587335 0.576645
672 1 0.839054 0.562024 0.583634
706 1 0.40836 0.918904 0.491577
675 1 0.081837 0.665514 0.581033
699 1 0.0711852 0.829343 0.598235
676 1 0.00377058 0.743965 0.586025
749 1 0.1655 0.657928 0.663318
746 1 0.0889827 0.746814 0.671767
680 1 0.154955 0.757677 0.594079
773 1 0.170573 0.827197 0.68609
679 1 0.246011 0.666393 0.58141
703 1 0.242501 0.82736 0.596696
705 1 0.338076 0.83329 0.490402
295 1 0.240205 0.982492 0.750233
683 1 0.426293 0.667832 0.585149
684 1 0.338909 0.738538 0.574939
693 1 0.826701 0.641553 0.509154
743 1 0.921593 0.505157 0.755972
688 1 0.494567 0.755511 0.582229
711 1 0.5754 0.822147 0.578291
785 1 0.662272 0.826021 0.648957
692 1 0.663595 0.735332 0.58681
762 1 0.746932 0.743886 0.657906
715 1 0.75066 0.825437 0.580891
461 1 0.170607 0.660947 0.994544
727 1 0.249517 0.500007 0.748391
696 1 0.823714 0.73678 0.575237
695 1 0.911318 0.646239 0.582841
793 1 0.0119435 0.505669 0.842345
700 1 0.998183 0.912344 0.594843
704 1 0.150865 0.908696 0.595234
489 1 0.343274 0.827771 0.996
774 1 0.235404 0.911407 0.666111
223 1 0.251064 0.986027 0.570279
671 1 0.915005 0.49628 0.576169
713 1 0.664979 0.828239 0.519465
707 1 0.410752 0.829132 0.589781
708 1 0.3289 0.907363 0.586021
778 1 0.413282 0.904967 0.667115
712 1 0.496071 0.90623 0.58662
678 1 0.236066 0.76156 0.509847
782 1 0.598098 0.93253 0.668292
681 1 0.343029 0.666639 0.50926
716 1 0.666249 0.923549 0.574094
786 1 0.747006 0.916314 0.652319
720 1 0.847181 0.920961 0.585192
789 1 0.827024 0.819706 0.662362
719 1 0.913192 0.831025 0.579437
790 1 0.89992 0.910146 0.67504
769 1 0.99131 0.82825 0.665781
694 1 0.910262 0.735866 0.50746
373 1 0.505696 0.994302 0.836155
731 1 0.410478 0.494136 0.753847
722 1 0.0839099 0.585265 0.659716
794 1 0.0815991 0.594329 0.836383
747 1 0.0857171 0.658164 0.744902
817 1 1.00197 0.674731 0.824557
821 1 0.160238 0.654712 0.849943
851 1 0.425617 0.826443 0.911475
726 1 0.252527 0.578001 0.667462
728 1 0.175765 0.58847 0.742512
732 1 0.341721 0.583858 0.731914
725 1 0.16558 0.498035 0.664952
730 1 0.421652 0.577943 0.662489
736 1 0.489722 0.58013 0.757573
802 1 0.403603 0.582505 0.826418
466 1 0.415915 0.758378 1.0055
734 1 0.583284 0.584548 0.668327
759 1 0.586884 0.669906 0.745544
740 1 0.656219 0.581178 0.746548
765 1 0.829877 0.662261 0.654348
744 1 0.837822 0.585769 0.749987
763 1 0.751832 0.670625 0.751332
742 1 0.910413 0.57601 0.667667
807 1 0.582467 0.513714 0.915714
655 1 0.250663 0.502103 0.584606
724 1 1.00532 0.595531 0.751145
745 1 -0.00645843 0.660325 0.664165
767 1 0.91316 0.666679 0.740199
717 1 0.827256 0.845656 0.508621
752 1 0.171037 0.742824 0.75575
748 1 0.990089 0.761286 0.753297
818 1 0.0777923 0.753612 0.839963
753 1 0.341987 0.662148 0.660818
751 1 0.260718 0.663249 0.748467
750 1 0.228127 0.743093 0.667711
756 1 0.336235 0.741984 0.745316
754 1 0.421225 0.738633 0.669551
777 1 0.331224 0.814922 0.668958
755 1 0.422494 0.662026 0.747302
779 1 0.418613 0.827781 0.745662
781 1 0.512152 0.830832 0.674385
760 1 0.507197 0.743722 0.751427
758 1 0.590969 0.762898 0.682297
783 1 0.605372 0.851249 0.739383
764 1 0.676439 0.749146 0.744121
837 1 0.827309 0.668003 0.828082
768 1 0.827623 0.747326 0.746101
766 1 0.923222 0.742402 0.66726
841 1 0.987441 0.841129 0.832977
838 1 0.909101 0.742543 0.827256
791 1 0.902266 0.832689 0.75709
770 1 0.0784222 0.911385 0.676325
856 1 0.520664 0.916126 0.917223
771 1 0.0835202 0.835963 0.75244
776 1 0.161016 0.911158 0.747925
723 1 0.0764374 0.52031 0.749219
462 1 0.255504 0.746071 0.993731
775 1 0.258307 0.807159 0.748875
846 1 0.252544 0.90298 0.831102
845 1 0.157196 0.829483 0.827014
852 1 0.346926 0.915492 0.89409
780 1 0.336965 0.915719 0.743269
784 1 0.51143 0.931851 0.749888
850 1 0.442955 0.911667 0.825508
844 1 0.997873 0.930616 0.903429
721 1 0.00741848 0.511936 0.668952
854 1 0.597825 0.912182 0.844403
733 1 0.492158 0.505398 0.675567
787 1 0.74403 0.840844 0.743649
788 1 0.691754 0.934479 0.742716
792 1 0.830646 0.913875 0.75556
862 1 0.909164 0.930839 0.834519
772 1 0.994336 0.914589 0.756507
663 1 0.588496 0.511833 0.574242
799 1 0.245624 0.492462 0.922999
855 1 0.588683 0.838661 0.925904
798 1 0.249925 0.575043 0.822614
800 1 0.182016 0.580199 0.928542
847 1 0.237777 0.809006 0.898447
804 1 0.329464 0.566037 0.910429
808 1 0.501392 0.585257 0.924966
829 1 0.501026 0.657602 0.827888
859 1 0.753845 0.844539 0.923753
311 1 0.904822 0.992759 0.74201
853 1 0.5233 0.841182 0.826567
806 1 0.584741 0.60604 0.832549
812 1 0.666942 0.583256 0.932364
833 1 0.67094 0.670458 0.82642
810 1 0.737861 0.585309 0.837264
816 1 0.819895 0.56521 0.910761
697 1 0.99109 0.821503 0.510826
796 1 0.989938 0.588334 0.916778
814 1 0.928494 0.595285 0.826303
839 1 0.891986 0.64885 0.923154
486 1 0.283283 0.906949 0.987597
843 1 0.0694212 0.831384 0.917093
819 1 0.072118 0.656659 0.923886
824 1 0.14881 0.739354 0.916621
820 1 0.962887 0.747952 0.916645
825 1 0.332003 0.660889 0.836128
822 1 0.243461 0.725039 0.831913
823 1 0.251616 0.651413 0.91293
849 1 0.335539 0.825169 0.830689
826 1 0.430961 0.736939 0.81963
827 1 0.420797 0.664937 0.901434
828 1 0.342784 0.745585 0.914571
832 1 0.518374 0.760316 0.919688
830 1 0.586593 0.7546 0.819099
857 1 0.676077 0.841081 0.827753
831 1 0.594591 0.679703 0.914805
864 1 0.832715 0.924807 0.933826
834 1 0.744699 0.751019 0.833864
861 1 0.826871 0.839115 0.83362
840 1 0.837022 0.739426 0.903233
836 1 0.673991 0.755965 0.918799
835 1 0.752608 0.669357 0.904674
858 1 0.743811 0.925875 0.842443
863 1 0.911392 0.837837 0.914566
710 1 0.586865 0.915987 0.502829
815 1 0.921374 0.515466 0.903993
848 1 0.149143 0.909867 0.912095
842 1 0.0784301 0.915776 0.828369
860 1 0.660898 0.929025 0.928158
667 1 0.751569 0.50024 0.578917
465 1 0.33554 0.66588 0.983104
229 1 0.490165 0.992495 0.515696
441 1 0.335036 0.501628 0.994961
659 1 0.420656 0.514767 0.574233
239 1 0.917555 0.989691 0.594754
458 1 0.0749171 0.748805 0.997439
677 1 0.176802 0.670082 0.501906
803 1 0.421211 0.507551 0.924754
309 1 0.824128 0.99481 0.663158
729 1 0.327842 0.509087 0.654444
289 1 0.000603132 0.998984 0.681102
383 1 0.913125 0.999383 0.918186
805 1 0.495106 0.524176 0.844951
490 1 0.422838 0.91628 0.97374
654 1 0.263118 0.587005 0.499787
237 1 0.850785 0.995764 0.501818
457 1 0.979733 0.676057 0.990373
473 1 0.69172 0.673625 0.994286
449 1 0.645465 0.498814 0.994749
674 1 0.0913422 0.743342 0.507683
481 1 0.990816 0.821086 0.981906
485 1 0.161658 0.823093 0.981276
709 1 0.489867 0.835746 0.506416
442 1 0.42277 0.594487 0.995779
653 1 0.175038 0.505491 0.490819
502 1 0.923556 0.910327 0.995411
702 1 0.247326 0.891367 0.501147
