ITEM: TIMESTEP
14000
ITEM: NUMBER OF ATOMS
2916
ITEM: BOX BOUNDS pp pp pp
0.0000000000000000e+00 4.7339999999999996e+01
0.0000000000000000e+00 4.7339999999999996e+01
0.0000000000000000e+00 4.7339999999999996e+01
ITEM: ATOMS id type xs ys zs
8 1 0.104139 0.0554479 0.0619598
164 1 0.052562 0.0508097 0.104804
167 1 0.10665 0.00425795 0.115194
5 1 0.108169 0.00297972 0.00395465
4 1 0.00814226 0.0537729 0.0534159
23 1 0.102425 0.108646 0.00241417
12 1 0.222496 0.0586632 0.0606813
168 1 0.163264 0.0569651 0.110472
7 1 0.155809 0.00724131 0.05834
25 1 0.167963 0.106692 0.045701
171 1 0.215956 0.00424602 0.116008
16 1 0.325273 0.0533806 0.0521591
172 1 0.270062 0.0596576 0.120919
193 1 0.33344 0.108359 0.117761
175 1 0.325761 0.00342403 0.109317
11 1 0.271466 0.00572025 0.0577477
10 1 0.277182 0.0639144 0.00359638
176 1 0.378898 0.0544772 0.11138
18 1 0.441524 0.0490657 0.0500928
197 1 0.430385 0.106761 0.113651
33 1 0.388593 0.105193 0.0577612
1478 1 0.485669 0.105972 0.0588363
1621 1 0.497847 0.059119 0.11052
14 1 0.386198 0.057243 0.00353614
185 1 0.1079 0.111636 0.109493
21 1 0.0535929 0.11347 0.0514897
26 1 0.105679 0.166579 0.0679592
182 1 0.0519249 0.169044 0.116223
39 1 0.0538394 0.218779 0.0471711
189 1 0.212296 0.111819 0.109203
30 1 0.225736 0.167875 0.0572534
186 1 0.167376 0.168038 0.101841
24 1 0.151908 0.163065 0.00873815
29 1 0.272845 0.113275 0.0669457
34 1 0.33459 0.166994 0.0626287
190 1 0.26847 0.168654 0.116689
28 1 0.277437 0.171188 0.00301553
31 1 0.329854 0.114625 0.00544393
36 1 0.434158 0.169364 0.0559966
194 1 0.384096 0.173067 0.120046
35 1 0.441689 0.112403 0.00380094
32 1 0.389306 0.166538 0.00136061
203 1 0.117404 0.229037 0.108701
44 1 0.108414 0.279448 0.0316609
200 1 0.0602034 0.27388 0.0981584
221 1 0.11693 0.325106 0.108448
57 1 0.0554646 0.327268 0.0500441
40 1 0.00476871 0.275875 0.0388443
207 1 0.220088 0.223001 0.112197
43 1 0.167894 0.224043 0.0530199
48 1 0.221122 0.274036 0.0434654
204 1 0.174291 0.27694 0.106495
61 1 0.161862 0.327243 0.051746
225 1 0.222581 0.333128 0.115509
211 1 0.326361 0.225701 0.117869
47 1 0.277249 0.230068 0.0549097
52 1 0.33703 0.280423 0.0570201
208 1 0.276422 0.281801 0.10843
51 1 0.388925 0.228925 0.0625785
215 1 0.444085 0.224314 0.107823
54 1 0.435898 0.280818 0.0623347
1495 1 0.498522 0.29159 0.00871545
1657 1 0.497631 0.269921 0.114706
62 1 0.111096 0.384014 0.0469422
218 1 0.0617625 0.384537 0.109137
58 1 0.00830745 0.388036 0.0504814
66 1 0.225501 0.388379 0.0571497
222 1 0.166755 0.385027 0.102495
243 1 0.211296 0.438311 0.106119
229 1 0.331816 0.33413 0.107264
65 1 0.279385 0.333524 0.0598795
70 1 0.333951 0.388721 0.0662982
226 1 0.275127 0.391007 0.108864
67 1 0.326791 0.343246 0.00929523
85 1 0.329867 0.439303 0.00487918
64 1 0.274269 0.393083 0.0101401
71 1 0.446783 0.339359 0.0057174
68 1 0.386991 0.394033 0.0102518
1514 1 0.497445 0.344994 0.0666259
69 1 0.395187 0.338716 0.0548875
233 1 0.444902 0.3446 0.115053
72 1 0.445137 0.392428 0.0661632
230 1 0.380426 0.386549 0.116552
1675 1 0.494856 0.406687 0.117502
1513 1 0.496362 0.390515 0.00777098
76 1 0.00814153 0.493951 0.0576917
75 1 0.0642889 0.448909 0.0518912
239 1 0.12145 0.451852 0.115742
80 1 0.115584 0.5107 0.0542121
236 1 0.0665954 0.504589 0.114268
79 1 0.166359 0.445985 0.051399
84 1 0.212403 0.506804 0.0548231
240 1 0.167241 0.503577 0.115684
83 1 0.264888 0.450362 0.0595615
247 1 0.32219 0.448553 0.120569
88 1 0.334507 0.491705 0.0615577
244 1 0.277789 0.50106 0.117319
101 1 0.266006 0.550895 0.0472377
82 1 0.274205 0.495788 0.00313383
251 1 0.440691 0.453735 0.117719
87 1 0.390016 0.445595 0.0693492
90 1 0.452012 0.503842 0.0659322
248 1 0.388413 0.510259 0.114138
105 1 0.386325 0.544783 0.0554833
1532 1 0.497502 0.453093 0.0491194
89 1 0.439552 0.450155 0.00871839
86 1 0.377948 0.493094 0.00326494
257 1 0.114619 0.558091 0.101968
93 1 0.0534914 0.557248 0.0506268
98 1 0.11224 0.618885 0.0609053
254 1 0.0598214 0.619225 0.121178
94 1 0.00667678 0.613766 0.0481368
271 1 0.00161759 0.661212 0.111866
253 1 0.00709637 0.565709 0.114468
261 1 0.223832 0.559599 0.11642
97 1 0.167089 0.560057 0.0527085
102 1 0.212029 0.615941 0.0509177
258 1 0.164277 0.617336 0.110214
106 1 0.32765 0.604618 0.0517029
262 1 0.275592 0.606045 0.100364
283 1 0.332538 0.665947 0.106076
269 1 0.438248 0.560294 0.107552
108 1 0.444744 0.600269 0.0507685
266 1 0.385842 0.611698 0.120619
287 1 0.441832 0.657942 0.117149
123 1 0.389284 0.663544 0.0629982
125 1 0.444298 0.660051 0.00107757
1711 1 0.486873 0.602963 0.110011
104 1 0.39597 0.602095 0.00181392
111 1 0.0615052 0.674745 0.0409785
275 1 0.117042 0.675962 0.10598
116 1 0.110283 0.732129 0.056921
272 1 0.0577027 0.725802 0.103256
129 1 0.050523 0.776357 0.0542154
112 1 0.00564528 0.71218 0.0505862
279 1 0.218093 0.671787 0.113851
115 1 0.172919 0.67765 0.0481748
120 1 0.227147 0.72507 0.0462428
276 1 0.164317 0.730041 0.105959
119 1 0.267685 0.667333 0.0543241
124 1 0.332777 0.717738 0.0528197
280 1 0.27685 0.731913 0.105945
139 1 0.330302 0.770443 0.00426952
126 1 0.440594 0.709536 0.0666997
284 1 0.388409 0.713868 0.110792
305 1 0.442435 0.772364 0.112663
122 1 0.388981 0.725893 0.00708368
143 1 0.444639 0.775615 0.00902147
1586 1 0.494289 0.76233 0.0628315
1568 1 0.491864 0.667592 0.0543687
1567 1 0.495024 0.716687 0.00736843
307 1 0.00855727 0.887398 0.112702
293 1 0.115625 0.786833 0.112747
290 1 0.0604445 0.827647 0.105742
134 1 0.105648 0.821338 0.0488774
147 1 0.0657786 0.878539 0.0531404
311 1 0.115721 0.882059 0.114825
130 1 0.00491417 0.837989 0.0482952
297 1 0.231963 0.788923 0.116578
133 1 0.166188 0.780527 0.0525831
138 1 0.219853 0.838436 0.0524475
294 1 0.175547 0.837697 0.117793
301 1 0.330901 0.780758 0.105509
137 1 0.273147 0.785351 0.0460315
142 1 0.332098 0.830426 0.0403025
298 1 0.28606 0.834469 0.0981472
141 1 0.382653 0.782313 0.0564456
144 1 0.441731 0.833646 0.0610344
302 1 0.386982 0.831864 0.109235
159 1 0.378655 0.886903 0.0608472
323 1 0.44386 0.876712 0.119764
140 1 0.397888 0.83446 0.000205653
1585 1 0.491237 0.843101 0.00801293
3 1 0.0537357 0.996125 0.0546477
163 1 0.0043908 0.991806 0.114699
152 1 0.108343 0.940858 0.0672424
308 1 0.0543694 0.942282 0.112388
146 1 0.0607444 0.945643 0.00513919
315 1 0.226581 0.89556 0.104816
151 1 0.157611 0.890926 0.0551178
156 1 0.225207 0.941453 0.0519905
312 1 0.172342 0.94376 0.112065
155 1 0.277798 0.895079 0.0473386
319 1 0.32226 0.891048 0.111253
160 1 0.327497 0.949224 0.0512631
316 1 0.273486 0.950413 0.110453
157 1 0.336698 0.889885 0.00596605
1603 1 0.491634 0.952286 0.00279824
161 1 0.433781 0.904093 0.0120001
15 1 0.379258 0.998726 0.0563612
320 1 0.38201 0.950203 0.118957
162 1 0.441056 0.943664 0.069873
1604 1 0.499535 0.898556 0.0612753
1765 1 0.497649 0.945444 0.115647
170 1 0.102772 0.0530477 0.16659
326 1 0.0531026 0.0524505 0.224772
183 1 0.047274 0.10835 0.153821
166 1 0.00349258 0.0424213 0.166032
174 1 0.210545 0.0607135 0.166917
330 1 0.161015 0.0440369 0.229978
333 1 0.22478 0.000873243 0.214373
187 1 0.153751 0.101063 0.170082
178 1 0.325277 0.059195 0.171214
334 1 0.280162 0.0586415 0.219618
173 1 0.2805 0.00460713 0.166148
179 1 0.435669 0.00217595 0.126097
180 1 0.445333 0.0599022 0.163709
338 1 0.384008 0.0478612 0.233425
359 1 0.442743 0.1043 0.221858
195 1 0.377847 0.110751 0.173239
177 1 0.382463 0.00104225 0.180344
1622 1 0.49078 0.00197194 0.168837
347 1 0.100342 0.11124 0.216878
188 1 0.102741 0.155918 0.16755
344 1 0.0422349 0.172132 0.222612
201 1 0.0469074 0.222143 0.161115
365 1 0.103528 0.214242 0.21578
343 1 0.00369687 0.117354 0.20611
351 1 0.219628 0.125718 0.227147
192 1 0.208707 0.174837 0.160913
348 1 0.159522 0.165412 0.221444
369 1 0.217711 0.215316 0.230538
355 1 0.328102 0.119788 0.215267
191 1 0.265985 0.113032 0.165148
196 1 0.326531 0.168675 0.16664
352 1 0.275611 0.170361 0.225207
209 1 0.269249 0.216552 0.17027
1658 1 0.496478 0.215481 0.170912
198 1 0.442447 0.168688 0.166403
356 1 0.383097 0.176241 0.21646
202 1 0.00290104 0.277383 0.154437
379 1 0.0031778 0.323111 0.223764
206 1 0.103744 0.273259 0.165794
362 1 0.0534338 0.275535 0.216648
383 1 0.104874 0.332337 0.224927
205 1 0.164677 0.224507 0.164319
210 1 0.229017 0.279639 0.172345
366 1 0.156491 0.282391 0.222231
223 1 0.155228 0.328323 0.166263
373 1 0.321217 0.225163 0.221105
214 1 0.325594 0.281255 0.166869
370 1 0.273332 0.275083 0.227162
227 1 0.273449 0.330729 0.164705
212 1 0.385836 0.279287 0.125071
213 1 0.385352 0.228944 0.172082
377 1 0.443713 0.227933 0.221675
216 1 0.441839 0.280943 0.169509
374 1 0.387841 0.278256 0.224643
231 1 0.393073 0.331252 0.173708
395 1 0.447095 0.330529 0.221964
220 1 0.0157129 0.392801 0.168544
219 1 0.0626395 0.335538 0.167411
224 1 0.111432 0.394582 0.166544
380 1 0.0610999 0.38815 0.225315
387 1 0.209408 0.341476 0.221272
228 1 0.220948 0.387509 0.164074
384 1 0.158443 0.388097 0.222663
391 1 0.332313 0.339501 0.210452
232 1 0.322297 0.395267 0.165448
388 1 0.282514 0.388807 0.234606
245 1 0.265617 0.440755 0.161801
1837 1 0.497702 0.397779 0.226546
234 1 0.445613 0.396302 0.166232
392 1 0.377584 0.385048 0.228905
413 1 0.426797 0.443597 0.219592
1676 1 0.493808 0.340898 0.164756
237 1 0.0599666 0.450641 0.156795
401 1 0.0997392 0.446135 0.222007
398 1 0.0442035 0.502566 0.236738
242 1 0.112162 0.505532 0.165789
419 1 0.0956025 0.553992 0.229838
397 1 0.00422538 0.444589 0.226814
405 1 0.218153 0.451228 0.218482
241 1 0.170355 0.448329 0.165509
246 1 0.219068 0.517814 0.169338
402 1 0.159268 0.510013 0.222419
409 1 0.323547 0.445772 0.223703
250 1 0.321305 0.502652 0.174932
406 1 0.272041 0.504831 0.224054
1694 1 0.498319 0.454766 0.179711
249 1 0.377901 0.448058 0.168195
252 1 0.432824 0.505244 0.174077
410 1 0.381811 0.494573 0.239086
1855 1 0.498241 0.508653 0.222579
1693 1 0.481287 0.509481 0.127515
255 1 0.053209 0.5562 0.170481
260 1 0.115475 0.620635 0.17679
416 1 0.0515609 0.611931 0.226719
256 1 0.00252957 0.606899 0.171989
433 1 0.00233226 0.660547 0.227629
259 1 0.162558 0.563895 0.167194
423 1 0.214365 0.562928 0.235577
264 1 0.222807 0.61301 0.165023
420 1 0.154906 0.604287 0.230615
441 1 0.21983 0.658251 0.226395
277 1 0.159756 0.66632 0.165163
265 1 0.332575 0.564636 0.126372
427 1 0.334268 0.55561 0.218046
263 1 0.277467 0.560204 0.170027
268 1 0.326945 0.617054 0.176092
424 1 0.276424 0.598366 0.233004
281 1 0.27171 0.664297 0.168643
1730 1 0.494704 0.659781 0.167939
1712 1 0.49718 0.562411 0.171273
431 1 0.447453 0.559956 0.223972
267 1 0.390607 0.56155 0.176305
270 1 0.441558 0.61123 0.172618
428 1 0.381114 0.618875 0.228079
437 1 0.115626 0.668556 0.228982
273 1 0.0560691 0.670012 0.166748
278 1 0.104366 0.73141 0.162221
434 1 0.0498791 0.723457 0.226814
455 1 0.112093 0.777203 0.228604
274 1 0.00457987 0.719437 0.16822
282 1 0.209446 0.722464 0.165229
438 1 0.170283 0.720117 0.227448
459 1 0.225719 0.772948 0.222111
445 1 0.334719 0.671016 0.223005
286 1 0.324556 0.720042 0.163882
442 1 0.275006 0.720695 0.221839
1748 1 0.491859 0.772837 0.155369
449 1 0.445894 0.668105 0.22602
285 1 0.384417 0.674811 0.172917
288 1 0.443498 0.721868 0.173965
446 1 0.386224 0.723881 0.225981
303 1 0.384907 0.777683 0.159255
1891 1 0.497234 0.716137 0.220511
292 1 0.00271206 0.842952 0.175794
291 1 0.0491967 0.783561 0.174735
452 1 0.0575117 0.83979 0.229477
296 1 0.104598 0.831718 0.172557
309 1 0.0630656 0.884296 0.167551
295 1 0.166217 0.781058 0.167222
300 1 0.222021 0.833701 0.178047
456 1 0.166356 0.831654 0.22901
463 1 0.332931 0.77853 0.224925
299 1 0.273233 0.778796 0.169085
304 1 0.330873 0.827832 0.16009
460 1 0.276856 0.834359 0.22411
464 1 0.374651 0.839238 0.220069
317 1 0.268689 0.885229 0.167293
467 1 0.444219 0.779821 0.229475
306 1 0.445202 0.820419 0.169432
485 1 0.449817 0.875535 0.219698
321 1 0.387356 0.888755 0.167202
1766 1 0.495285 0.878916 0.16913
310 1 0.00337137 0.93541 0.164533
329 1 0.105099 0.996965 0.219754
165 1 0.0618121 0.990812 0.168412
473 1 0.120831 0.892723 0.225803
314 1 0.114607 0.94484 0.16367
470 1 0.0568203 0.941917 0.219632
325 1 0.00798184 0.995737 0.225269
169 1 0.158592 0.99629 0.168115
313 1 0.177876 0.89176 0.165295
477 1 0.227788 0.88894 0.228829
318 1 0.231478 0.949326 0.167632
474 1 0.175826 0.948977 0.226607
481 1 0.324593 0.892568 0.224087
337 1 0.326487 0.988665 0.226429
322 1 0.321203 0.934577 0.169776
478 1 0.27146 0.939915 0.225162
341 1 0.441044 0.989524 0.219293
482 1 0.38972 0.939732 0.224483
324 1 0.45021 0.936347 0.176594
328 1 0.00641363 0.0491567 0.281948
332 1 0.107577 0.0532341 0.266892
488 1 0.0537947 0.0479666 0.339285
327 1 0.0592139 0.00129964 0.284071
505 1 0.00324074 0.106245 0.338947
345 1 0.0435178 0.107743 0.274127
336 1 0.226528 0.0517782 0.272667
492 1 0.155711 0.0641012 0.322488
495 1 0.225303 0.00161577 0.331433
331 1 0.165894 0.000575934 0.284495
513 1 0.217228 0.104059 0.325784
340 1 0.326406 0.0514094 0.278537
496 1 0.273097 0.0541794 0.327098
353 1 0.275682 0.111077 0.275338
499 1 0.327008 0.00409937 0.343933
1802 1 0.498762 0.10751 0.268752
1945 1 0.49881 0.056771 0.341645
342 1 0.446303 0.03932 0.275986
500 1 0.3842 0.0532349 0.317311
357 1 0.385624 0.109383 0.264333
521 1 0.425198 0.110221 0.326506
509 1 0.098313 0.111167 0.326109
350 1 0.0985457 0.163349 0.272554
506 1 0.0621896 0.175346 0.343891
346 1 0.00269139 0.171932 0.276485
349 1 0.158143 0.116534 0.273284
354 1 0.215444 0.169949 0.287472
510 1 0.142701 0.16713 0.322786
367 1 0.15624 0.217323 0.270461
516 1 0.208251 0.171461 0.35727
517 1 0.336149 0.114667 0.324561
358 1 0.335448 0.170933 0.277003
514 1 0.270176 0.155602 0.33194
360 1 0.445588 0.176914 0.277789
518 1 0.388332 0.174983 0.324721
539 1 0.448948 0.218613 0.330552
364 1 0.000616742 0.268816 0.282885
363 1 0.0567902 0.223486 0.270564
527 1 0.106388 0.23853 0.338632
368 1 0.105902 0.284732 0.277626
524 1 0.0563215 0.292 0.328983
545 1 0.119653 0.326624 0.338223
526 1 0.0076382 0.274361 0.373252
531 1 0.225987 0.231699 0.323921
372 1 0.218472 0.280053 0.267646
528 1 0.167553 0.271583 0.317938
549 1 0.213807 0.323946 0.336166
385 1 0.167939 0.329509 0.280084
535 1 0.327114 0.231787 0.336094
371 1 0.278413 0.231855 0.285424
376 1 0.333497 0.295666 0.264845
532 1 0.28068 0.288267 0.339321
375 1 0.385071 0.232102 0.276996
378 1 0.444078 0.279624 0.273623
536 1 0.386056 0.278859 0.333426
393 1 0.39548 0.331755 0.273135
557 1 0.440846 0.328428 0.326507
1981 1 0.498874 0.28102 0.331165
382 1 0.00396581 0.388478 0.276952
381 1 0.0578471 0.336387 0.278628
386 1 0.11827 0.37646 0.285724
542 1 0.0523863 0.381135 0.335821
563 1 0.107069 0.434526 0.337462
399 1 0.0580208 0.442875 0.293765
390 1 0.217914 0.390941 0.274294
546 1 0.172414 0.392513 0.329264
553 1 0.340335 0.333448 0.325618
389 1 0.262375 0.341925 0.276126
394 1 0.332026 0.379237 0.279318
550 1 0.278599 0.379158 0.333184
407 1 0.275764 0.441838 0.282001
571 1 0.329466 0.441835 0.333923
1999 1 0.497914 0.393409 0.335942
1838 1 0.493751 0.334985 0.28465
396 1 0.442319 0.394187 0.2759
554 1 0.391039 0.384883 0.33124
411 1 0.385505 0.43396 0.282518
560 1 0.0519808 0.506088 0.341875
404 1 0.101532 0.500361 0.285686
581 1 0.104502 0.549828 0.33566
567 1 0.223029 0.444897 0.331246
403 1 0.162563 0.444864 0.266748
408 1 0.224367 0.505155 0.278564
564 1 0.159223 0.499276 0.341615
421 1 0.155005 0.550246 0.281159
585 1 0.237031 0.554796 0.346166
412 1 0.323843 0.504074 0.27783
568 1 0.280271 0.489619 0.347796
589 1 0.330571 0.554868 0.328645
575 1 0.443221 0.448716 0.332357
414 1 0.446618 0.496245 0.274316
572 1 0.385439 0.506922 0.329473
1856 1 0.496794 0.444656 0.279469
417 1 0.0469052 0.564878 0.280152
422 1 0.104338 0.616526 0.29091
578 1 0.0479863 0.630175 0.338663
435 1 0.0521962 0.665941 0.278704
577 1 0.00513202 0.558732 0.337544
426 1 0.223838 0.619408 0.290365
582 1 0.155245 0.606375 0.33337
439 1 0.160772 0.656586 0.287884
425 1 0.272953 0.557542 0.286249
430 1 0.335284 0.616226 0.286745
586 1 0.285298 0.612493 0.337641
443 1 0.284236 0.661568 0.278914
429 1 0.388506 0.561778 0.272603
593 1 0.442843 0.556667 0.328767
590 1 0.398534 0.612011 0.334052
447 1 0.397232 0.663138 0.27907
432 1 0.44696 0.609292 0.284162
599 1 0.113072 0.672313 0.339258
440 1 0.0981445 0.724778 0.273039
596 1 0.0520637 0.737197 0.323863
603 1 0.224289 0.679986 0.340147
444 1 0.228403 0.713012 0.279005
600 1 0.169499 0.719849 0.344201
457 1 0.172441 0.771929 0.275841
621 1 0.226365 0.773526 0.340029
607 1 0.337552 0.669918 0.329391
448 1 0.332066 0.721626 0.274372
604 1 0.286359 0.723959 0.333589
461 1 0.273836 0.774664 0.284826
625 1 0.336454 0.777144 0.332129
611 1 0.441897 0.670216 0.333342
450 1 0.444544 0.718958 0.279562
608 1 0.38691 0.719524 0.330509
629 1 0.436908 0.77239 0.331826
2053 1 0.495208 0.72278 0.333339
617 1 0.123706 0.782278 0.331844
453 1 0.0519516 0.784025 0.274164
458 1 0.115692 0.835666 0.284406
614 1 0.0590242 0.832422 0.328368
454 1 0.00388301 0.834341 0.278054
462 1 0.22112 0.827314 0.278469
618 1 0.177327 0.828342 0.330695
475 1 0.170926 0.883254 0.284107
466 1 0.330022 0.833033 0.27315
622 1 0.278543 0.831728 0.326697
465 1 0.381195 0.784238 0.27789
468 1 0.44268 0.83258 0.283928
626 1 0.396509 0.836845 0.340472
647 1 0.451199 0.884973 0.333295
483 1 0.391482 0.885965 0.275442
472 1 0.000582727 0.947294 0.284037
491 1 0.11192 0.998255 0.335681
635 1 0.108336 0.894587 0.334935
471 1 0.0610885 0.897971 0.271815
476 1 0.11293 0.946729 0.28083
632 1 0.0589275 0.9461 0.336863
631 1 0.00801337 0.89392 0.330079
639 1 0.22074 0.894653 0.336249
480 1 0.226427 0.943574 0.28385
636 1 0.168943 0.941171 0.332617
335 1 0.276423 0.996534 0.271341
643 1 0.342281 0.889079 0.332787
479 1 0.279738 0.892521 0.285139
484 1 0.331441 0.942192 0.278433
640 1 0.276297 0.952226 0.331753
503 1 0.441121 0.999946 0.333495
339 1 0.385976 0.989736 0.272659
486 1 0.45509 0.940024 0.277111
644 1 0.394856 0.937298 0.343309
490 1 0.00352382 0.0586176 0.391735
733 1 0.108615 0.050246 0.49765
649 1 0.00217704 0.000629318 0.443802
494 1 0.117631 0.0519952 0.383289
650 1 0.0615415 0.0533608 0.439158
507 1 0.0655483 0.105361 0.385908
660 1 0.111011 0.110088 0.449067
653 1 0.220662 0.00377874 0.448609
498 1 0.216946 0.0539616 0.385917
652 1 0.159876 0.055466 0.442811
511 1 0.168404 0.109004 0.377611
662 1 0.215108 0.104124 0.446851
655 1 0.337267 0.00317745 0.452405
502 1 0.334532 0.0543828 0.397454
654 1 0.274209 0.0549266 0.446852
515 1 0.263685 0.100058 0.38749
737 1 0.332127 0.0703402 0.499571
657 1 0.452515 0.000136167 0.445812
504 1 0.437372 0.058273 0.383814
656 1 0.389045 0.0533135 0.441241
666 1 0.441235 0.101675 0.44527
738 1 0.44956 0.0540505 0.491692
742 1 0.108837 0.170009 0.491467
512 1 0.122683 0.162682 0.394672
659 1 0.0597563 0.158101 0.435167
748 1 0.0526402 0.221255 0.487493
661 1 0.174608 0.17801 0.437303
671 1 0.233914 0.220672 0.443404
744 1 0.222104 0.169042 0.4992
664 1 0.33967 0.124706 0.450707
520 1 0.333577 0.165466 0.383529
663 1 0.261344 0.156335 0.424449
673 1 0.325722 0.20874 0.435768
533 1 0.274101 0.208435 0.384783
754 1 0.405439 0.218619 0.497219
519 1 0.387944 0.115021 0.390623
747 1 0.449973 0.168493 0.488843
665 1 0.39742 0.177864 0.440788
522 1 0.447461 0.157073 0.384143
537 1 0.39491 0.221795 0.37967
675 1 0.451614 0.221603 0.441183
745 1 0.393758 0.113841 0.494271
2116 1 0.499055 0.161934 0.431124
2197 1 0.498102 0.114216 0.49836
669 1 0.117929 0.226176 0.440132
525 1 0.0561675 0.225762 0.390017
530 1 0.11656 0.282202 0.390897
668 1 0.0501884 0.2767 0.443966
543 1 0.0500293 0.326345 0.395288
678 1 0.105252 0.331057 0.437815
751 1 0.115196 0.278465 0.491956
757 1 0.0548757 0.328156 0.496831
529 1 0.162949 0.223205 0.376466
534 1 0.22368 0.269411 0.38433
670 1 0.173329 0.272629 0.434826
547 1 0.166338 0.326703 0.39207
680 1 0.228556 0.331859 0.44845
755 1 0.338675 0.275134 0.496919
538 1 0.324367 0.266707 0.39805
672 1 0.274805 0.277529 0.455687
682 1 0.319392 0.330358 0.4409
763 1 0.381052 0.331439 0.486668
540 1 0.450708 0.278683 0.381586
674 1 0.396297 0.266486 0.436358
756 1 0.446498 0.278306 0.484613
548 1 0.114697 0.38713 0.389792
677 1 0.0565874 0.386128 0.443533
561 1 0.0676148 0.440079 0.394423
687 1 0.115225 0.437131 0.442878
760 1 0.110431 0.3924 0.492283
758 1 0.00107401 0.390456 0.49782
759 1 0.167132 0.339913 0.495909
762 1 0.215934 0.390366 0.497397
552 1 0.208745 0.379288 0.387809
679 1 0.169968 0.383892 0.442925
565 1 0.163736 0.438642 0.383121
768 1 0.169141 0.440763 0.493771
551 1 0.269748 0.336448 0.385709
556 1 0.325705 0.381614 0.387625
681 1 0.272627 0.398227 0.448782
569 1 0.261697 0.43236 0.386708
691 1 0.328545 0.442209 0.436537
765 1 0.436329 0.386953 0.499411
2000 1 0.492838 0.339162 0.380589
555 1 0.394254 0.348013 0.392335
684 1 0.442371 0.334872 0.447659
558 1 0.44422 0.39242 0.406134
683 1 0.388983 0.394866 0.444746
573 1 0.39869 0.443322 0.388185
2134 1 0.498948 0.394949 0.448813
566 1 0.111245 0.507353 0.397229
686 1 0.0527428 0.497791 0.438432
694 1 0.0033467 0.549495 0.451293
769 1 0.107724 0.507297 0.494767
766 1 0.0620642 0.449468 0.496075
689 1 0.222798 0.454539 0.451855
570 1 0.214267 0.493778 0.385722
688 1 0.167287 0.506673 0.438341
771 1 0.226753 0.514546 0.489732
770 1 0.278989 0.455128 0.494747
574 1 0.341291 0.497088 0.387522
690 1 0.278184 0.502816 0.438604
700 1 0.335076 0.554744 0.444415
781 1 0.393953 0.5503 0.498692
693 1 0.450596 0.454479 0.445941
576 1 0.433479 0.502361 0.386218
692 1 0.382846 0.504429 0.44438
702 1 0.442038 0.550259 0.440782
2233 1 0.498246 0.555053 0.498696
772 1 0.390566 0.447064 0.489321
774 1 0.44586 0.498738 0.497842
696 1 0.110968 0.565669 0.44068
579 1 0.0476749 0.561073 0.391701
584 1 0.107723 0.613488 0.385404
695 1 0.0494401 0.617429 0.443725
705 1 0.109624 0.666421 0.443878
784 1 0.0427581 0.663921 0.494155
775 1 0.0578622 0.562174 0.49834
778 1 0.103771 0.618595 0.492445
780 1 0.221767 0.603972 0.48501
777 1 0.16265 0.558527 0.494943
583 1 0.166578 0.556963 0.382475
698 1 0.229362 0.555632 0.435368
697 1 0.164 0.611894 0.432418
588 1 0.223425 0.612061 0.388806
707 1 0.218147 0.663523 0.440623
601 1 0.167085 0.661628 0.383543
782 1 0.336853 0.611622 0.494696
709 1 0.33361 0.664411 0.446339
587 1 0.287813 0.562814 0.394293
592 1 0.344416 0.61121 0.389725
699 1 0.282331 0.614982 0.444585
605 1 0.281048 0.666269 0.386951
779 1 0.284601 0.560492 0.494755
591 1 0.388186 0.555941 0.394438
594 1 0.447064 0.598707 0.385853
701 1 0.388461 0.60866 0.442149
711 1 0.43915 0.666091 0.451055
2152 1 0.495402 0.605504 0.452391
790 1 0.382339 0.66057 0.498242
783 1 0.44328 0.604446 0.497017
598 1 0.00462104 0.732148 0.378045
597 1 0.0429381 0.675939 0.396543
704 1 0.0534168 0.72406 0.449954
602 1 0.107174 0.724075 0.396338
714 1 0.114501 0.772978 0.448911
789 1 0.224246 0.733078 0.492221
706 1 0.171123 0.712268 0.442358
606 1 0.225779 0.727824 0.395411
788 1 0.276131 0.670338 0.497798
791 1 0.332164 0.717525 0.495123
718 1 0.34483 0.7726 0.448903
708 1 0.282317 0.718649 0.441216
610 1 0.331424 0.721088 0.389159
797 1 0.282548 0.7763 0.49527
2161 1 0.496768 0.721658 0.450637
720 1 0.444918 0.774183 0.444764
612 1 0.443547 0.718511 0.385333
710 1 0.391769 0.723069 0.445288
627 1 0.383975 0.774456 0.390232
609 1 0.390347 0.672801 0.398455
2054 1 0.491423 0.668883 0.397161
2242 1 0.495769 0.669009 0.499578
633 1 0.0579699 0.886778 0.391595
620 1 0.115757 0.836029 0.392861
713 1 0.0672907 0.832913 0.441832
615 1 0.0568533 0.7823 0.383191
616 1 0.0107894 0.833349 0.382815
721 1 0.0041755 0.886583 0.437992
624 1 0.223367 0.839473 0.391865
619 1 0.170578 0.784705 0.38644
715 1 0.164878 0.844924 0.444408
716 1 0.219384 0.795069 0.450249
798 1 0.228884 0.850581 0.49931
727 1 0.32596 0.881916 0.452951
628 1 0.340536 0.834097 0.387459
717 1 0.284316 0.832169 0.441722
623 1 0.292621 0.78272 0.385345
808 1 0.394746 0.88612 0.49872
729 1 0.446905 0.878853 0.444346
630 1 0.45566 0.82118 0.388385
719 1 0.397724 0.826928 0.445063
2170 1 0.49273 0.828958 0.451467
2251 1 0.499693 0.77859 0.499835
805 1 0.113781 0.953246 0.499445
634 1 0.00395041 0.946387 0.39811
723 1 0.109697 0.893338 0.451142
638 1 0.116044 0.944174 0.381707
722 1 0.0616397 0.946241 0.441059
489 1 0.0574776 0.99802 0.395711
651 1 0.113242 0.997313 0.44325
725 1 0.224551 0.899372 0.444391
642 1 0.230864 0.952508 0.392527
724 1 0.169349 0.947135 0.443287
637 1 0.176631 0.89527 0.390173
493 1 0.169734 0.997564 0.379966
804 1 0.167662 0.899196 0.490848
641 1 0.276438 0.88979 0.386879
497 1 0.282889 0.997805 0.394013
646 1 0.335432 0.939287 0.393191
726 1 0.276476 0.950048 0.443338
809 1 0.326417 0.947034 0.499026
810 1 0.449453 0.939491 0.493701
501 1 0.380218 0.997438 0.394247
648 1 0.445886 0.944562 0.39974
728 1 0.390813 0.941394 0.444533
645 1 0.389705 0.891877 0.398405
812 1 0.053764 0.0581839 0.550054
818 1 0.110239 0.060694 0.615008
813 1 0.0592622 0.00759192 0.611628
815 1 0.11331 0.00280211 0.559738
833 1 0.111443 0.109535 0.558775
814 1 0.0122084 0.0570842 0.612428
730 1 0.0457354 0.000969436 0.502297
739 1 0.0620094 0.110599 0.504809
816 1 0.166736 0.0610546 0.543365
819 1 0.221977 0.0119438 0.555285
835 1 0.162012 0.110797 0.610281
822 1 0.224445 0.0607275 0.611585
735 1 0.22686 0.0615338 0.505611
817 1 0.166228 0.0110529 0.615303
820 1 0.277042 0.0653737 0.552076
826 1 0.339203 0.057594 0.615914
823 1 0.345381 0.00318423 0.550966
841 1 0.330343 0.111057 0.562929
821 1 0.279936 0.0115401 0.606877
734 1 0.279799 0.0109823 0.504593
824 1 0.394111 0.0611694 0.547189
828 1 0.45159 0.0577193 0.606461
827 1 0.448621 0.00486925 0.559895
825 1 0.399329 0.00388356 0.610753
831 1 0.0572331 0.119618 0.611689
830 1 0.0507493 0.163703 0.549457
836 1 0.108001 0.17374 0.621921
851 1 0.104916 0.215021 0.546117
829 1 0.00137416 0.112545 0.561479
847 1 0.00465431 0.218437 0.555892
837 1 0.227407 0.113859 0.555529
834 1 0.1664 0.160714 0.554599
840 1 0.218616 0.167356 0.610855
855 1 0.226254 0.217556 0.557651
853 1 0.168885 0.218877 0.595377
750 1 0.166595 0.217298 0.501543
741 1 0.160148 0.114882 0.500079
839 1 0.274655 0.117819 0.612844
838 1 0.282561 0.167007 0.562553
844 1 0.331373 0.171757 0.611089
746 1 0.334285 0.171592 0.506658
743 1 0.27594 0.12145 0.50294
845 1 0.443765 0.112882 0.545296
843 1 0.387168 0.124161 0.598089
842 1 0.399023 0.170351 0.543501
846 1 0.448755 0.16512 0.604642
861 1 0.393573 0.217758 0.611305
2306 1 0.49519 0.210229 0.612935
2287 1 0.499169 0.166388 0.550395
849 1 0.0540384 0.224313 0.604425
848 1 0.0517476 0.277299 0.549872
854 1 0.110236 0.267741 0.601131
869 1 0.107632 0.332665 0.548979
867 1 0.0503452 0.326779 0.602217
852 1 0.165493 0.276629 0.547405
858 1 0.210773 0.274925 0.600048
871 1 0.164158 0.331421 0.595222
873 1 0.219159 0.331974 0.547175
753 1 0.221318 0.277246 0.501067
857 1 0.28274 0.228777 0.606773
859 1 0.343821 0.227726 0.557783
856 1 0.280145 0.278998 0.546835
862 1 0.337528 0.268197 0.611131
877 1 0.330278 0.332938 0.570428
875 1 0.274649 0.325929 0.609607
752 1 0.280826 0.224634 0.502939
863 1 0.457977 0.225216 0.54993
860 1 0.404601 0.270943 0.542923
864 1 0.459494 0.265143 0.613576
879 1 0.397907 0.327637 0.611469
881 1 0.446563 0.32961 0.552584
866 1 0.0500011 0.388636 0.553041
872 1 0.10585 0.377637 0.609245
887 1 0.102839 0.43249 0.554846
885 1 0.0535966 0.443109 0.609561
870 1 0.160413 0.386541 0.555859
889 1 0.165511 0.438905 0.609789
876 1 0.2254 0.389575 0.601817
874 1 0.279903 0.394196 0.548859
880 1 0.332341 0.394899 0.61068
764 1 0.337394 0.383429 0.515733
761 1 0.284101 0.335581 0.504382
878 1 0.389995 0.377933 0.566458
882 1 0.445026 0.384793 0.614541
2342 1 0.495147 0.43458 0.599956
2224 1 0.489968 0.443953 0.507672
884 1 0.0608137 0.510032 0.559434
890 1 0.113352 0.48626 0.61491
883 1 0.00494746 0.449939 0.549623
901 1 0.00452831 0.553784 0.560606
886 1 0.00992406 0.500694 0.61712
767 1 0.00584085 0.502708 0.507149
891 1 0.213896 0.454633 0.551437
888 1 0.158765 0.499359 0.553364
894 1 0.216333 0.4991 0.606827
909 1 0.216664 0.554216 0.54966
907 1 0.167916 0.548422 0.606287
895 1 0.333531 0.447379 0.550269
893 1 0.270855 0.444722 0.608632
892 1 0.275962 0.504017 0.556356
898 1 0.33349 0.495996 0.60667
913 1 0.325554 0.554559 0.554905
773 1 0.333919 0.500506 0.500817
899 1 0.435234 0.44612 0.554987
897 1 0.382296 0.444477 0.608529
896 1 0.391324 0.501881 0.557606
900 1 0.443065 0.496828 0.614107
2341 1 0.486929 0.495034 0.55404
903 1 0.058884 0.560269 0.61331
905 1 0.106938 0.560716 0.5572
902 1 0.0442708 0.62182 0.560996
908 1 0.102618 0.618217 0.601654
906 1 0.166251 0.600024 0.551433
912 1 0.216228 0.613735 0.607719
927 1 0.227969 0.664916 0.548775
786 1 0.163301 0.662772 0.507646
911 1 0.268278 0.555867 0.609677
910 1 0.273624 0.610639 0.545475
916 1 0.327604 0.61163 0.599932
931 1 0.330073 0.662275 0.545379
929 1 0.273172 0.658196 0.61031
915 1 0.392213 0.557143 0.606299
917 1 0.457635 0.558546 0.560729
914 1 0.381928 0.601824 0.555842
918 1 0.451035 0.610524 0.612114
923 1 0.0937947 0.668365 0.548443
921 1 0.0549187 0.672082 0.608431
920 1 0.0484358 0.725697 0.558403
926 1 0.111982 0.712607 0.606219
939 1 0.0588828 0.77423 0.611426
941 1 0.11109 0.77372 0.556262
787 1 0.11169 0.720141 0.501356
925 1 0.169782 0.668679 0.605917
924 1 0.165345 0.721057 0.555008
930 1 0.224891 0.716521 0.608838
945 1 0.22033 0.775503 0.55245
928 1 0.28137 0.719166 0.545538
934 1 0.334111 0.727158 0.613524
949 1 0.335365 0.77733 0.54936
799 1 0.389723 0.773817 0.501169
792 1 0.437359 0.720694 0.502457
935 1 0.452817 0.676449 0.557055
933 1 0.395214 0.671678 0.601921
932 1 0.380403 0.72044 0.55173
936 1 0.45286 0.721611 0.612734
951 1 0.386467 0.772963 0.619707
953 1 0.440995 0.773386 0.555354
794 1 0.00830319 0.83826 0.507343
938 1 0.0627735 0.829865 0.557545
944 1 0.120703 0.83561 0.615501
957 1 0.0577119 0.883189 0.609472
793 1 0.0622627 0.781633 0.508961
796 1 0.109366 0.831707 0.505984
940 1 0.00415442 0.828486 0.61811
943 1 0.180792 0.778107 0.607916
942 1 0.169715 0.845172 0.551781
948 1 0.22763 0.841911 0.608874
795 1 0.170401 0.792143 0.500795
947 1 0.286683 0.781775 0.611392
946 1 0.270593 0.839046 0.551378
952 1 0.336533 0.834397 0.60201
800 1 0.338126 0.833142 0.504376
950 1 0.392009 0.82837 0.553474