ITEM: TIMESTEP
8000
ITEM: NUMBER OF ATOMS
1372
ITEM: BOX BOUNDS pp pp pp
0.0000000000000000e+00 3.6820000000000000e+01
0.0000000000000000e+00 3.6820000000000000e+01
0.0000000000000000e+00 3.6820000000000000e+01
ITEM: ATOMS id type xs ys zs
8 1 0.134256 0.0686887 0.049994
100 1 0.0655781 0.0791331 0.137823
117 1 0.146043 0.142422 0.1449
93 1 0.290729 0.852149 0.0140919
12 1 0.299938 0.0773382 0.0761405
104 1 0.214899 0.0779045 0.116083
121 1 0.296243 0.141663 0.146099
21 1 0.23086 0.158861 0.0770068
925 1 0.514647 0.514292 0.303846
926 1 0.494234 0.430867 0.362866
14 1 0.424878 0.0766225 0.0644478
108 1 0.366478 0.0743452 0.155049
111 1 0.43717 0.999955 0.149702
11 1 0.360157 -0.00189934 0.0831027
125 1 0.426776 0.146487 0.145034
25 1 0.366575 0.15891 0.0645232
242 1 -0.00974964 0.502704 0.355397
169 1 -0.0102653 0.722615 0.135055
17 1 0.0685946 0.137615 0.0630323
22 1 0.137169 0.210313 0.0771534
114 1 0.0672827 0.201682 0.138737
828 1 0.515014 0.432274 0.214434
60 1 0.00457625 0.649477 0.0535573
26 1 0.296539 0.225511 0.0772569
118 1 0.2196 0.209263 0.148794
281 1 -0.00765944 0.835964 0.287922
28 1 0.420891 0.228538 0.0640841
122 1 0.363054 0.2245 0.157865
758 1 0.48948 0.721771 0.0700479
368 1 0.141935 0.499374 0.504622
31 1 0.0677904 0.283651 0.071516
131 1 0.140461 0.279356 0.147375
36 1 0.144673 0.354539 0.0816807
45 1 0.0787136 0.422829 0.0838965
128 1 0.0759108 0.348394 0.144276
988 1 0.515296 0.217372 0.421552
135 1 0.297554 0.294573 0.141433
35 1 0.210438 0.278189 0.0836795
40 1 0.298849 0.358689 0.0600707
132 1 0.226808 0.348663 0.138
392 1 0.419614 0.93941 0.498907
228 1 -0.0151455 0.357053 0.352581
1051 1 0.500146 0.426171 0.492103
39 1 0.359722 0.291906 0.081868
139 1 0.432225 0.287529 0.134661
42 1 0.4331 0.36894 0.0769633
136 1 0.362895 0.366942 0.144856
186 1 -0.00537011 0.92846 0.208671
323 1 -0.00857984 0.567283 0.429298
145 1 0.155527 0.428814 0.145543
50 1 0.145258 0.496419 0.081336
142 1 0.0704121 0.492014 0.151115
49 1 0.215038 0.431868 0.0743458
149 1 0.284211 0.430363 0.148409
54 1 0.283982 0.493781 0.0700842
146 1 0.210347 0.503424 0.15254
30 1 0.0671376 0.34908 0.00971472
153 1 0.427891 0.436669 0.154363
53 1 0.359836 0.432262 0.0763366
56 1 0.438085 0.498501 0.0666886
150 1 0.350198 0.512493 0.139367
67 1 0.361953 0.554477 0.0641989
301 1 0.437857 -0.0160762 0.42052
59 1 0.0705815 0.569138 0.0593231
159 1 0.136627 0.571698 0.145757
64 1 0.13955 0.642894 0.0786639
156 1 0.0620887 0.647226 0.137561
173 1 0.136242 0.708196 0.150898
346 1 0.205201 1.01016 0.489392
63 1 0.220898 0.573838 0.0784278
163 1 0.288398 0.577183 0.142254
68 1 0.276627 0.642785 0.0671216
160 1 0.206854 0.638637 0.145081
77 1 0.21083 0.713056 0.0565554
177 1 0.275098 0.701055 0.135104
814 1 0.502553 0.283928 0.209754
41 1 0.432256 0.295547 -0.00177792
33 1 0.140931 0.285607 0.00444713
167 1 0.436994 0.58227 0.143605
70 1 0.440209 0.641966 0.0675841
164 1 0.370599 0.641051 0.145174
81 1 0.359803 0.699018 0.075304
181 1 0.429963 0.708744 0.152531
86 1 0.0693127 0.915041 0.0124571
785 1 0.493997 0.0737037 0.13874
158 1 -0.00328404 0.641797 0.216118
342 1 0.348087 0.936178 0.427846
73 1 0.0662852 0.718085 0.0714731
78 1 0.137329 0.786949 0.0816717
170 1 0.0701214 0.780414 0.144548
82 1 0.289871 0.782508 0.0818717
174 1 0.210112 0.774384 0.140518
191 1 0.290143 0.852337 0.142725
91 1 0.221587 0.865368 0.0772489
270 1 -0.0119928 0.779127 0.362122
294 1 0.415517 0.924761 0.360524
1009 1 0.494124 0.645602 0.438616
84 1 0.411105 0.793447 0.074486
178 1 0.36082 0.784372 0.154143
95 1 0.356372 0.870226 0.0754488
364 1 0.425017 0.345782 0.499059
688 1 0.495649 1.00797 0.0711026
3 1 0.0700551 0.000747584 0.0730743
103 1 0.153476 1.01836 0.123503
702 1 0.502313 0.148593 0.07523
391 1 0.28462 0.934283 0.498446
187 1 0.149567 0.856942 0.141255
87 1 0.0712355 0.855226 0.085564
92 1 0.141116 0.92599 0.0792996
184 1 0.0690367 0.929132 0.146022
7 1 0.214646 -0.0014559 0.0627431
107 1 0.287528 0.00291646 0.144081
96 1 0.292299 0.92706 0.0861613
188 1 0.216009 0.934955 0.142896
24 1 0.348389 0.22219 -0.00563575
195 1 0.430643 0.863188 0.144523
98 1 0.440554 0.931848 0.0787512
192 1 0.355209 0.934923 0.158689
34 1 0.213756 0.367081 0.0115335
141 1 0.000953116 0.422328 0.156046
106 1 0.142844 0.071666 0.211144
198 1 0.0649993 0.0613755 0.282284
201 1 0.142359 0.993324 0.281615
115 1 0.0664679 0.131377 0.211602
110 1 0.292187 0.0677769 0.223684
202 1 0.210786 0.0691177 0.288574
105 1 0.209503 0.00933827 0.198649
119 1 0.218001 0.138496 0.225187
219 1 0.301586 0.144538 0.289166
112 1 0.421312 0.0721389 0.231308
206 1 0.3674 0.0675786 0.305789
223 1 0.413292 0.149627 0.290454
109 1 0.365163 1.00528 0.220518
123 1 0.356081 0.157654 0.214019
215 1 0.133604 0.136965 0.27942
120 1 0.146354 0.211332 0.209889
212 1 0.0759945 0.221158 0.287795
129 1 0.0740373 0.286942 0.214553
229 1 0.14901 0.280264 0.283471
124 1 0.282784 0.230219 0.209927
216 1 0.218183 0.208309 0.281368
233 1 0.284919 0.282929 0.293598
133 1 0.213612 0.285787 0.202396
126 1 0.43408 0.216424 0.215744
220 1 0.359 0.224288 0.283141
341 1 0.285905 0.859875 0.431638
74 1 -0.00556324 0.785612 0.0570815
292 1 0.276482 0.9389 0.363007
134 1 0.154349 0.348042 0.211134
226 1 0.0712828 0.343608 0.288455
138 1 0.279705 0.35278 0.215903
230 1 0.21786 0.360173 0.287788
5 1 0.137472 0.984173 0.00971663
237 1 0.438701 0.296364 0.294767
137 1 0.357584 0.291628 0.214404
140 1 0.423762 0.360406 0.211801
234 1 0.357997 0.33974 0.293019
69 1 0.431612 0.56998 -0.00568022
243 1 0.154067 0.417331 0.289801
143 1 0.0863716 0.432984 0.207794
148 1 0.159016 0.493569 0.223781
240 1 0.0812663 0.496522 0.281268
257 1 0.151521 0.57533 0.299889
157 1 0.0775894 0.573815 0.209381
247 1 0.300253 0.416853 0.288125
147 1 0.229207 0.435356 0.220022
152 1 0.289423 0.497059 0.217482
244 1 0.219753 0.48524 0.295501
340 1 0.21631 0.93223 0.429708
151 1 0.358475 0.42587 0.21042
251 1 0.432581 0.439179 0.286432
154 1 0.443046 0.504191 0.21886
248 1 0.362929 0.499927 0.289118
265 1 0.427066 0.57498 0.284651
361 1 0.127378 0.356981 0.486031
162 1 0.13161 0.64496 0.210033
254 1 0.0745295 0.64979 0.283878
271 1 0.146488 0.710917 0.272518
161 1 0.205677 0.571575 0.218705
261 1 0.288417 0.565306 0.280419
166 1 0.272752 0.641594 0.216916
258 1 0.212235 0.645262 0.298547
275 1 0.274453 0.714443 0.290068
175 1 0.20448 0.717298 0.209407
165 1 0.355941 0.570833 0.212701
168 1 0.427585 0.642988 0.220477
262 1 0.349401 0.640543 0.284804
351 1 0.049668 0.137678 0.499243
171 1 0.0607645 0.71249 0.206155
176 1 0.14521 0.784677 0.207137
268 1 0.0644661 0.771861 0.285605
185 1 0.0605152 0.845929 0.2115
180 1 0.281555 0.780409 0.20733
272 1 0.208817 0.793891 0.294175
189 1 0.206173 0.861305 0.219649
279 1 0.418719 0.709313 0.298865
179 1 0.358807 0.714556 0.215399
182 1 0.427849 0.784087 0.210901
276 1 0.348093 0.785256 0.280872
293 1 0.418282 0.849698 0.284085
193 1 0.347565 0.862032 0.213265
940 1 0.494729 0.581611 0.366961
101 1 0.0689611 0.00225098 0.201787
285 1 0.145689 0.8586 0.289556
190 1 0.136727 0.923876 0.209074
282 1 0.0627399 0.920691 0.277954
334 1 0.303063 0.716466 0.434359
205 1 0.269806 0.998317 0.284038
289 1 0.288872 0.862229 0.281825
194 1 0.28385 0.933882 0.216412
286 1 0.220279 0.919531 0.293756
94 1 0.36242 0.932239 -0.000925857
209 1 0.437832 0.994276 0.296984
339 1 0.149955 0.849431 0.423699
196 1 0.437419 0.928373 0.214832
290 1 0.35296 0.951515 0.293769
199 1 0.0694575 0.984549 0.343649
204 1 0.148524 0.0742101 0.362686
296 1 0.0692298 0.0710276 0.417599
297 1 0.131719 -0.00623187 0.419313
304 1 0.139578 0.150053 0.425241
213 1 0.0723094 0.137204 0.350325
299 1 0.278803 0.00450435 0.431441
203 1 0.205899 -0.00633171 0.360772
208 1 0.283955 0.0698395 0.366796
298 1 0.203922 0.0820168 0.432141
939 1 0.503203 0.650531 0.300239
329 1 0.421952 0.574343 0.424981
328 1 0.358779 0.643796 0.43307
283 1 0.073644 0.860517 0.351887
207 1 0.361214 0.00272776 0.369477
210 1 0.442447 0.0644666 0.354021
300 1 0.340923 0.0889548 0.441029
288 1 0.139823 0.925621 0.356985
308 1 0.443792 0.14934 0.424717
338 1 0.0694893 0.921631 0.428616
813 1 0.514704 0.364656 0.149803
336 1 0.411031 0.716233 0.440215
287 1 0.219911 0.853252 0.363743
218 1 0.150971 0.214015 0.355766
303 1 0.0612531 0.213049 0.426129
311 1 0.140651 0.283662 0.424675
227 1 0.0757204 0.274266 0.359577
278 1 0.287228 0.788328 0.344953
217 1 0.211884 0.1402 0.351683
306 1 0.271079 0.150818 0.432964
222 1 0.280803 0.212696 0.361601
305 1 0.205257 0.220037 0.43737
231 1 0.220574 0.285015 0.361424
333 1 0.226736 0.784682 0.420337
313 1 0.28207 0.280127 0.432383
263 1 0.352027 0.578657 0.350783
842 1 0.502157 0.576994 0.229833
799 1 0.504124 0.211591 0.137596
221 1 0.358173 0.139281 0.372495
224 1 0.425146 0.205284 0.353569
307 1 0.346393 0.209567 0.441304
269 1 0.0597431 0.713208 0.363311
332 1 0.156917 0.728169 0.431127
277 1 0.353343 0.728208 0.356967
266 1 0.427437 0.645852 0.362159
232 1 0.136034 0.344909 0.355629
310 1 0.057534 0.357896 0.414333
318 1 0.11933 0.430587 0.421664
326 1 0.223724 0.649048 0.426001
236 1 0.282916 0.354631 0.362935
312 1 0.215563 0.352961 0.434027
245 1 0.202681 0.419085 0.370517
995 1 0.497276 0.356668 0.432415
274 1 0.129642 0.773568 0.346378
315 1 0.426188 0.281822 0.430744
235 1 0.366569 0.279796 0.364068
238 1 0.427215 0.359983 0.366075
314 1 0.346506 0.359425 0.430684
249 1 0.369052 0.42768 0.366878
322 1 0.426184 0.438102 0.439455
331 1 0.0665925 0.791092 0.419036
241 1 0.0668997 0.422938 0.347848
246 1 0.151524 0.515297 0.367247
317 1 0.0655557 0.503076 0.421888
325 1 0.144815 0.574048 0.44635
255 1 0.0728281 0.572536 0.362523
280 1 0.425489 0.798283 0.356296
343 1 0.417486 0.865917 0.423198
320 1 0.281321 0.434061 0.421883
327 1 0.286634 0.581798 0.439116
319 1 0.214238 0.50531 0.428102
250 1 0.293971 0.502255 0.351999
259 1 0.232547 0.581736 0.361722
252 1 0.427465 0.504675 0.365225
321 1 0.349553 0.507896 0.429748
291 1 0.346697 0.8701 0.36337
324 1 0.0705057 0.638949 0.442269
260 1 0.134925 0.653353 0.371797
335 1 0.356878 0.794129 0.425137
273 1 0.221042 0.716739 0.368208
264 1 0.289428 0.643456 0.352442
827 1 0.496397 0.502252 0.142908
800 1 0.490925 0.143625 0.21953
1023 1 0.500373 0.919868 0.417005
358 1 0.067097 0.283495 0.49709
183 1 -0.0100527 0.850225 0.138329
344 1 0.0671383 0.00740174 0.490408
360 1 0.197235 0.273028 0.50591
19 1 0.162874 0.152772 0.0102644
47 1 0.14763 0.437417 0.00373498
350 1 0.430683 0.0742693 0.496484
1002 1 0.496406 0.496905 0.428691
349 1 0.277412 0.075996 0.495212
80 1 0.366485 0.775446 0.00308654
13 1 0.420236 0.996913 0.00519411
856 1 0.501082 0.716189 0.209646
16 1 0.0738911 0.212331 0.00190328
348 1 0.34961 0.00196284 0.496005
353 1 0.207292 0.143814 0.509437
90 1 0.197952 0.922987 0.0055346
356 1 0.26979 0.22126 0.503436
76 1 0.207974 0.79508 0.0076458
83 1 0.437749 0.723416 -0.00889542
10 1 0.349451 0.0772855 -0.000863449
89 1 0.130628 0.855554 0.01459
72 1 0.0778692 0.773482 0.000971769
367 1 0.219884 0.442874 0.489474
365 1 0.0715882 0.427747 0.50488
20 1 0.220309 0.214655 0.00423594
355 1 0.352804 0.142884 0.509601
384 1 0.28824 0.791964 0.50851
382 1 0.15924 0.786656 0.502632
347 1 0.13224 0.0782951 0.490512
369 1 0.343106 0.432364 0.490937
387 1 0.00687628 0.938971 0.495843
379 1 0.0728997 0.717498 0.487071
1037 1 0.496018 0.136052 0.497329
370 1 0.281348 0.51569 0.499522
52 1 0.37177 0.495817 -0.0160918
44 1 0.0674483 0.505301 -0.00624614
2 1 0.0561598 0.0698847 0.00788927
61 1 0.149127 0.579644 0.000349472
75 1 0.151942 0.715643 -0.0205355
375 1 0.164834 0.65284 0.504774
394 1 0.0640469 0.0830974 0.570211
400 1 0.152182 0.067369 0.636181
409 1 0.0770924 0.140166 0.648609
1317 1 0.501365 0.513055 0.842342
397 1 0.144641 -0.00657301 0.569146
395 1 0.0721887 1.01045 0.64011
687 1 0.499127 0.079146 1.01164
536 1 0.00386902 0.484356 0.799892
398 1 0.210958 0.0673024 0.559598
404 1 0.291652 0.0649407 0.656725
413 1 0.217842 0.144404 0.642713
415 1 0.278203 0.12988 0.572805
401 1 0.29103 0.00832945 0.564267
402 1 0.359742 0.0696144 0.566588
406 1 0.429741 0.0788211 0.63531
417 1 0.350731 0.137511 0.643174
403 1 0.380513 0.0108849 0.648373
51 1 0.285843 0.423853 1.00208
1121 1 0.498859 0.505392 0.56183
411 1 0.136394 0.139792 0.575539
408 1 0.0658978 0.214836 0.56454
414 1 0.137899 0.210394 0.640927
425 1 0.133568 0.273594 0.566595
423 1 0.0712697 0.284311 0.64076
508 1 -0.000160141 0.210745 0.789341
412 1 0.214972 0.206526 0.575307
418 1 0.289198 0.204329 0.644337
494 1 0.0128196 0.0523708 0.775702
419 1 0.428844 0.147385 0.568133
416 1 0.355899 0.214893 0.571371
420 1 0.415724 0.200502 0.640283
433 1 0.430608 0.279419 0.566074
1346 1 0.495525 0.711568 0.924333
422 1 0.0802325 0.352852 0.567379
428 1 0.144065 0.359411 0.64125
439 1 0.148832 0.427363 0.556658
1164 1 0.496498 0.861322 0.652003
1219 1 0.48533 0.506627 0.713977
389 1 0.149267 0.925761 0.494653
427 1 0.211491 0.286309 0.642069
429 1 0.273411 0.285789 0.566096
426 1 0.198981 0.350311 0.564441
432 1 0.27974 0.356058 0.612626
443 1 0.276065 0.43763 0.564246
431 1 0.349854 0.287262 0.630433
430 1 0.357725 0.357489 0.559643
434 1 0.432494 0.351679 0.617076
445 1 0.363516 0.432952 0.630146
447 1 0.429955 0.431317 0.552155
1247 1 0.498096 0.783641 0.709798
550 1 0.00979594 0.633851 0.791539
685 1 0.433365 0.861175 0.86362
683 1 0.359092 0.864563 0.941682
682 1 0.365764 0.923333 0.870791
48 1 0.217338 0.507633 1.00594
686 1 0.436744 0.929773 0.929752
437 1 0.0565896 0.41273 0.645835
436 1 0.0706568 0.488463 0.580422
442 1 0.143804 0.48756 0.644034
451 1 0.0749575 0.560887 0.643048
441 1 0.212061 0.42814 0.636385
440 1 0.207153 0.504959 0.5763
446 1 0.289556 0.493623 0.634325
455 1 0.210595 0.570634 0.647972
97 1 0.433692 0.869613 1.00575
444 1 0.348066 0.501033 0.556618
448 1 0.419962 0.506821 0.641011
603 1 0.00914655 0.135943 0.86421
578 1 0.0134608 0.931806 0.785178
453 1 0.141363 0.577369 0.565911
450 1 0.0654857 0.640465 0.575685
456 1 0.134655 0.638072 0.638266
465 1 0.0712331 0.707286 0.641584
467 1 0.143294 0.71811 0.569825
424 1 -0.00784442 0.351007 0.640492
547 1 -0.000828361 0.556994 0.715081
65 1 0.299957 0.570379 1.00461
79 1 0.297583 0.71294 1.00053
457 1 0.280333 0.570999 0.577457
454 1 0.218526 0.640302 0.579932
460 1 0.275091 0.644368 0.649791
469 1 0.208106 0.712383 0.643681
1261 1 0.498066 0.927968 0.714989
459 1 0.354629 0.571517 0.643014
461 1 0.430202 0.572206 0.568791
458 1 0.366352 0.648699 0.575105
462 1 0.436664 0.635844 0.63977
473 1 0.363041 0.709729 0.650982
1233 1 0.514082 0.646142 0.717386
38 1 0.367752 0.367011 0.99951
464 1 0.0689374 0.785366 0.557181
470 1 0.129097 0.789716 0.627003
479 1 0.0676279 0.859829 0.64838
481 1 0.145662 0.869734 0.577627
381 1 0.231459 0.718905 0.511199
651 1 0.211228 0.56395 0.928933
471 1 0.295219 0.720635 0.577549
468 1 0.210183 0.784835 0.588931
474 1 0.2955 0.791796 0.647593
475 1 0.437421 0.719517 0.56747
472 1 0.358579 0.799776 0.568496
476 1 0.433855 0.783005 0.648603
599 1 0.358591 -0.00243113 0.930909
671 1 0.426931 0.716911 0.846709
390 1 0.35708 0.863625 0.494603
478 1 0.0679583 0.932007 0.561825
484 1 0.14484 0.938068 0.639358
449 1 0.00451408 0.554805 0.571488
657 1 0.424882 0.576022 0.848774
483 1 0.222856 0.869771 0.638352
485 1 0.287446 0.873189 0.566713
399 1 0.223158 0.00344128 0.635844
482 1 0.215865 0.929894 0.562866
488 1 0.30721 0.938136 0.646439
396 1 -0.003955 0.0795066 0.644057
405 1 0.44152 0.00198082 0.574614
1079 1 0.496124 0.0736884 0.563311
487 1 0.361074 0.861332 0.637508
489 1 0.433688 0.873931 0.574321
486 1 0.357605 0.934213 0.560502
490 1 0.434813 0.925725 0.64428
601 1 0.433931 -0.00178427 0.86105
477 1 -0.00136493 0.859852 0.572322
1149 1 0.493198 0.799543 0.569114
492 1 0.0757791 0.0647364 0.709525
498 1 0.146344 0.0824786 0.785215
509 1 0.152872 0.148853 0.719271
507 1 0.0759986 0.138364 0.789647
480 1 0.00424909 0.93005 0.632935
496 1 0.215467 0.0729787 0.71585
502 1 0.286204 0.083625 0.799233
511 1 0.208707 0.14937 0.795616
513 1 0.284667 0.137868 0.721848
499 1 0.295146 1.01487 0.729004
500 1 0.364618 0.0764367 0.712489
504 1 0.433607 0.0758782 0.7926
517 1 0.432057 0.144784 0.718333
515 1 0.368188 0.139282 0.79079
1220 1 0.49877 0.433001 0.779193
1107 1 0.50387 0.362641 0.552628
506 1 0.0759113 0.213688 0.718175
512 1 0.139246 0.219369 0.787862
523 1 0.149032 0.291973 0.724988
1150 1 0.505125 0.709011 0.64584
1205 1 0.489918 0.370724 0.706201
519 1 0.000604636 0.277701 0.711261
510 1 0.22296 0.210075 0.718331
516 1 0.278046 0.221177 0.7904
527 1 0.288288 0.271627 0.702756
525 1 0.216619 0.283268 0.786572
589 1 0.0204908 0.987025 0.854305
514 1 0.355311 0.205218 0.724321
518 1 0.419262 0.219674 0.790837
531 1 0.420823 0.286593 0.701628
529 1 0.355423 0.290181 0.787326
679 1 0.226949 0.86147 0.940513
521 1 0.0636644 0.284019 0.797844
520 1 0.0682668 0.341493 0.717239
526 1 0.147178 0.364241 0.79017
537 1 0.128584 0.418118 0.717421
524 1 0.222309 0.35861 0.712432
530 1 0.282454 0.361138 0.784769
539 1 0.210269 0.426874 0.793158
541 1 0.284776 0.43206 0.707694
654 1 0.359619 0.643046 0.860392
528 1 0.349063 0.350798 0.698984
532 1 0.43777 0.337097 0.789128
1191 1 0.484522 0.220281 0.708844
1276 1 0.500255 -0.00281151 0.928667
652 1 0.14223 0.640834 0.928655
535 1 0.0729851 0.415342 0.795404
534 1 0.0834803 0.496331 0.718171
540 1 0.148988 0.489283 0.793936
551 1 0.142124 0.561964 0.729822
549 1 0.0742514 0.55753 0.798639
452 1 0.0102599 0.640888 0.651659
538 1 0.207903 0.495649 0.711549
544 1 0.28035 0.491697 0.775503
553 1 0.218036 0.573914 0.794859
545 1 0.409893 0.420268 0.716036
543 1 0.349606 0.413846 0.787576
542 1 0.358446 0.496332 0.709585
546 1 0.422899 0.500711 0.779989
548 1 0.072339 0.616922 0.723231
554 1 0.141623 0.645031 0.800439
668 1 0.366842 0.793756 0.857571
555 1 0.286092 0.561124 0.704055
552 1 0.198593 0.636247 0.706887
558 1 0.285108 0.630381 0.778391
569 1 0.281757 0.70599 0.706658
557 1 0.359448 0.568521 0.781454
559 1 0.429098 0.581152 0.723011
556 1 0.346193 0.634636 0.710719
560 1 0.43221 0.642058 0.789486
571 1 0.352836 0.698368 0.777632
573 1 0.433543 0.696493 0.713259
595 1 0.203085 0.986632 0.932856
678 1 0.223768 0.922988 0.857029
565 1 0.141181 0.709578 0.701976
563 1 0.0711782 0.718899 0.799453
562 1 0.0740922 0.784883 0.714427
568 1 0.152714 0.770669 0.780874
577 1 0.0729572 0.856189 0.78519
579 1 0.140683 0.849084 0.708683
567 1 0.220946 0.710825 0.783671
566 1 0.218987 0.789897 0.70556
572 1 0.28768 0.787311 0.781148
581 1 0.217204 0.847152 0.777815
570 1 0.362824 0.786631 0.706271
574 1 0.422904 0.773938 0.77485
585 1 0.366876 0.856179 0.793797
493 1 0.082892 0.996081 0.784241
495 1 0.151477 1.00513 0.717586
576 1 0.0893956 0.938428 0.710918
582 1 0.154852 0.924153 0.771248
497 1 0.22 0.998649 0.781145
583 1 0.312165 0.868133 0.724936
580 1 0.223892 0.936561 0.707136
586 1 0.292459 0.941214 0.802916
503 1 0.433493 1.01316 0.730204
501 1 0.358545 1.02656 0.793573
587 1 0.424342 0.858469 0.708089
584 1 0.375876 0.9443 0.728141
588 1 0.446173 0.925944 0.789619
684 1 0.289541 0.925326 0.93347
1135 1 0.503723 0.646909 0.560628
590 1 0.0867554 0.0539223 0.859984
596 1 0.139349 0.0701946 0.945532
607 1 0.135381 0.12411 0.866596
660 1 0.071085 0.78324 0.857811
594 1 0.206414 0.0634718 0.85513
600 1 0.282478 0.069088 0.928441
609 1 0.213703 0.133331 0.918082
611 1 0.291372 0.153676 0.859067
598 1 0.368981 0.0733636 0.879752
602 1 0.439365 0.0707388 0.940707
613 1 0.363824 0.159436 0.928619
615 1 0.437803 0.150522 0.861319
672 1 0.432251 0.798741 0.926154
373 1 -0.00617528 0.648287 0.493972
663 1 0.156508 0.715089 0.868272
1262 1 0.496454 0.841411 0.772901
605 1 0.077771 0.137997 0.939027
604 1 0.0827925 0.209319 0.87436
610 1 0.151776 0.213888 0.941886
621 1 0.142269 0.289393 0.866316
619 1 0.0665775 0.278724 0.946875
371 1 0.426508 0.505016 0.492802
608 1 0.215884 0.213035 0.861356
614 1 0.28555 0.220323 0.926312
648 1 -0.0148259 0.639574 0.906976
664 1 0.224019 0.778406 0.856998
677 1 0.15149 0.849201 0.864977
655 1 0.368509 0.569456 0.924917
612 1 0.35739 0.217293 0.862135
616 1 0.431185 0.227304 0.924634
627 1 0.36093 0.293153 0.916314
646 1 0.0717191 0.648996 0.862536
650 1 0.233464 0.640784 0.856468
681 1 0.289389 0.851806 0.869739
618 1 0.0754441 0.348648 0.864755
624 1 0.150751 0.361505 0.939695
635 1 0.14 0.426069 0.870638
670 1 0.284504 0.782406 0.932534
623 1 0.216589 0.285191 0.930936
625 1 0.27863 0.290266 0.854822
622 1 0.215463 0.355179 0.861002
628 1 0.293476 0.357907 0.928903
629 1 0.43786 0.290638 0.860994
626 1 0.364535 0.35694 0.850727
630 1 0.433268 0.36087 0.932112
597 1 0.278533 0.999358 0.876504
62 1 0.216127 0.636954 0.995476
669 1 0.3607 0.703994 0.933522
656 1 0.287045 0.636961 0.930444
633 1 0.0697735 0.413378 0.935134
632 1 0.077234 0.489609 0.868444
638 1 0.145451 0.502848 0.932067
649 1 0.149821 0.568708 0.856393
667 1 0.299983 0.715029 0.860168
666 1 0.142736 0.797198 0.940172
658 1 0.438152 0.639411 0.93403
639 1 0.286641 0.422347 0.863372
637 1 0.21032 0.426487 0.932654
636 1 0.211824 0.496237 0.867709
642 1 0.290392 0.499292 0.928631
653 1 0.286718 0.562068 0.856112
680 1 0.131637 0.917368 0.93584
593 1 0.134713 0.973114 0.86447
665 1 0.231116 0.708039 0.924277
674 1 0.0699054 0.909524 0.858381
643 1 0.430552 0.427095 0.845758
641 1 0.365431 0.422375 0.920813
644 1 0.434407 0.494915 0.917184
640 1 0.353491 0.500379 0.860649
591 1 0.0700602 0.993801 0.94089
675 1 0.0619839 0.844521 0.927298
647 1 0.0676953 0.56443 0.92249
661 1 0.0707896 0.724043 0.923826
533 1 0.0019424 0.418271 0.723881
561 1 0.00255086 0.718824 0.707489
66 1 0.366021 0.644343 1.00932
463 1 0.00372769 0.708249 0.560941
1122 1 0.491053 0.431731 0.624155
1275 1 0.504456 0.0792609 0.860929
377 1 0.280831 0.644779 0.504382
55 1 0.422389 0.426628 1.00454
363 1 0.278953 0.356335 0.494237
357 1 0.427812 0.210609 0.492655
378 1 0.425452 0.652773 0.504795
386 1 0.0655959 0.854544 0.490712
58 1 0.0766474 0.633733 0.992567
23 1 0.289463 0.148909 0.998725
729 1 0.487493 0.493006 0.988578
37 1 0.270361 0.29367 1.0024
9 1 0.289912 0.00485349 1.00322
6 1 0.214892 0.0752224 1.00905
354 1 0.121634 0.210946 0.487524
362 1 0.347334 0.28989 0.49861
27 1 0.432325 0.157963 0.996313
372 1 0.0572706 0.561 0.496127
388 1 0.218605 0.853396 0.495863
376 1 0.351086 0.586803 0.510191
385 1 0.426754 0.80034 0.496662
374 1 0.213297 0.575547 0.502642
383 1 0.354699 0.723594 0.505294
692 1 0.571919 0.0733189 0.0800785
788 1 0.649978 0.077606 0.16045
705 1 0.629556 0.145009 0.0764742
1028 1 0.869476 0.851378 0.440758
691 1 0.633322 -0.00698664 0.0870801
352 1 0.997639 0.206978 0.493687
986 1 0.860947 -0.0167165 0.435117
696 1 0.693135 0.0692811 0.0860871
792 1 0.770311 0.0727608 0.137256
791 1 0.716118 1.00524 0.145015
805 1 0.710975 0.148869 0.141917
295 1 0.997473 0.992402 0.411062
695 1 0.779164 0.996968 0.0489104
700 1 0.852798 0.0740193 0.0735658
796 1 0.924981 0.0649922 0.140404
699 1 0.924605 -0.00591574 0.0694795
795 1 0.857112 -0.00171194 0.13578
267 1 0.997523 0.717326 0.296993
197 1 0.98956 0.990263 0.272818
801 1 0.566988 0.142645 0.159099
706 1 0.568688 0.220428 0.0773581
802 1 0.648254 0.220521 0.154356
719 1 0.641644 0.285989 0.0855867
709 1 0.783593 0.150084 0.0831864
710 1 0.718283 0.219618 0.0705982
806 1 0.779547 0.224209 0.14672
819 1 0.712918 0.291741 0.164082
723 1 0.794124 0.280971 0.0661009
912 1 0.495513 0.298908 0.362947
713 1 0.935452 0.146802 0.0754552
809 1 0.846751 0.137564 0.149573
714 1 0.859299 0.219913 0.0839709
810 1 0.918938 0.213374 0.147192
823 1 0.861548 0.291701 0.147384
29 1 0.989561 0.279928 0.00904939
316 1 1.00445 0.425707 0.433075
815 1 0.566427 0.285006 0.149069
720 1 0.56957 0.360962 0.0851103
816 1 0.641186 0.360146 0.163263
980 1 0.862039 0.910111 0.36275
214 1 1.00765 0.210739 0.349234
724 1 0.715446 0.35574 0.0857146
820 1 0.788206 0.364655 0.134318
727 1 0.930814 0.283015 0.0792234
728 1 0.858758 0.352768 0.0798515
824 1 0.927683 0.35978 0.145391
689 1 0.578589 -0.00697505 0.00212991
1029 1 0.930376 0.923515 0.427262
380 1 0.997087 0.778482 0.49851
99 1 0.989929 0.997083 0.145127
733 1 0.636292 0.429548 0.0671028
829 1 0.569494 0.446873 0.138151
734 1 0.561507 0.497895 0.0527934
830 1 0.646406 0.504937 0.126269
843 1 0.573919 0.560815 0.13461
730 1 0.501395 0.427295 0.0655919
718 1 0.647278 0.343704 0.0158834
833 1 0.703246 0.434449 0.143195
737 1 0.792511 0.431549 0.0749244
738 1 0.724544 0.497721 0.0700696
834 1 0.782928 0.499274 0.143467
847 1 0.705044 0.57293 0.1465
4 1 0.994345 0.0777817 0.0724714
741 1 0.919065 0.430197 0.0718964
837 1 0.848725 0.432043 0.149882
742 1 0.86987 0.515894 0.073304
838 1 0.925337 0.518766 0.142748
851 1 0.840755 0.576167 0.150197
755 1 0.934434 0.589691 0.0694711
88 1 0.99683 0.918376 0.0606362
1039 1 0.565636 0.215316 0.501404
747 1 0.645312 0.574224 0.0642209
748 1 0.577693 0.637117 0.0732583
844 1 0.642049 0.647081 0.136229
1076 1 0.715869 0.928533 0.503402
708 1 0.787073 0.211493 0.00308153
751 1 0.792835 0.565917 0.0695082
752 1 0.713043 0.634363 0.0666032
848 1 0.781292 0.651119 0.140419
861 1 0.711618 0.720388 0.156498
869 1 0.502096 0.927735 0.148276
200 1 0.990659 0.0620373 0.34909
884 1 0.515728 0.00288353 0.348399
756 1 0.858253 0.648669 0.066342
852 1 0.928521 0.651622 0.148331
302 1 0.997122 0.134166 0.411752
309 1 0.987938 0.279775 0.427714
761 1 0.64185 0.721428 0.0685319
857 1 0.556134 0.707546 0.127581
762 1 0.572602 0.788507 0.0809312
858 1 0.640206 0.796925 0.141885
775 1 0.633164 0.866376 0.0824648
898 1 0.51566 0.156368 0.353863
337 1 0.998836 0.855544 0.428446
765 1 0.769622 0.715916 0.0703056
766 1 0.704384 0.791219 0.0710552
862 1 0.789903 0.782416 0.131871
875 1 0.707127 0.864086 0.154909
774 1 0.641981 0.925504 0.00656566
345 1 0.98601 0.0650263 0.493587
18 1 1.00525 0.214798 0.068137
769 1 0.925181 0.712849 0.0691247
865 1 0.853536 0.711913 0.15281
770 1 0.866981 0.77945 0.0715664
866 1 0.930354 0.786514 0.144034
1072 1 0.491067 0.866348 0.487729
984 1 0.71492 0.991877 0.439947
975 1 0.786755 0.848007 0.363377
787 1 0.565543 -0.00735804 0.146911
1052 1 0.638059 0.425068 0.511382
976 1 0.702145 0.915397 0.355716
871 1 0.570232 0.85347 0.159618
776 1 0.56364 0.929504 0.0688228
872 1 0.650838 0.933809 0.16091
911 1 0.498218 0.360634 0.285342
284 1 0.99413 0.913972 0.352452
779 1 0.790028 0.854322 0.0694484
780 1 0.703525 0.930535 0.0793049
876 1 0.777521 0.928868 0.130668
130 1 0.999307 0.349969 0.203485
225 1 1.00142 0.288672 0.278582
783 1 0.923666 0.8579 0.0651926
879 1 0.861513 0.85208 0.142506
784 1 0.847642 0.927114 0.075158
880 1 0.933431 0.929104 0.135931
1027 1 0.784482 0.910695 0.42652
790 1 0.576852 0.0801747 0.219582
886 1 0.654809 0.0703609 0.276108
789 1 0.642903 1.0056 0.216347
794 1 0.721026 0.0686851 0.220604
890 1 0.786891 0.0889677 0.295239
807 1 0.782955 0.149795 0.214755
903 1 0.723695 0.148278 0.288105
793 1 0.779607 0.988867 0.207184
889 1 0.733282 0.000241992 0.301256
1038 1 0.637612 0.148332 0.501652
798 1 0.830547 0.0699011 0.212336
894 1 0.914451 0.0713201 0.291943
893 1 0.837717 0.0044865 0.292945
907 1 0.862292 0.149101 0.282142
778 1 0.787055 0.929639 -0.00220608
803 1 0.651643 0.154265 0.220354
899 1 0.574826 0.155286 0.277668
804 1 0.570061 0.216978 0.21437
900 1 0.65048 0.219551 0.287241
913 1 0.566614 0.287913 0.286268
808 1 0.715769 0.216169 0.212124
904 1 0.792426 0.209642 0.282474
821 1 0.784171 0.292864 0.214032
811 1 0.920913 0.138213 0.206982
812 1 0.861388 0.214115 0.21302
908 1 0.930009 0.221225 0.279701
921 1 0.850141 0.291816 0.276544
772 1 0.499787 0.847494 0.0811319
777 1 0.718733 0.854347 0.00484823
887 1 0.644538 1.00454 0.337079
817 1 0.636218 0.28164 0.223341
818 1 0.56604 0.359319 0.229293
914 1 0.631517 0.362911 0.290125
831 1 0.626462 0.443143 0.211211
917 1 0.712739 0.293499 0.28019
822 1 0.714648 0.361107 0.222169
918 1 0.786601 0.363802 0.293935
835 1 0.783656 0.436277 0.219714
931 1 0.701229 0.430378 0.283683
825 1 0.929772 0.286211 0.213766
826 1 0.851494 0.363737 0.21773
922 1 0.927925 0.377541 0.276174
839 1 0.924404 0.439064 0.2183
935 1 0.855253 0.436419 0.288796
972 1 0.571433 0.922099 0.352
953 1 0.489218 0.776431 0.285388
927 1 0.562632 0.438926 0.303462
832 1 0.570035 0.505983 0.214342
928 1 0.635976 0.509412 0.288258
845 1 0.636215 0.573152 0.212962
836 1 0.704863 0.495056 0.218872
932 1 0.785172 0.499811 0.287793
945 1 0.708096 0.572525 0.288421
840 1 0.860555 0.504616 0.214632
936 1 0.93001 0.509821 0.284441
949 1 0.854932 0.569186 0.292925
853 1 0.92121 0.581435 0.207848
971 1 0.63512 0.849353 0.364011
113 1 0.992804 0.144206 0.148422
1050 1 0.85941 0.351227 0.486489
941 1 0.568927 0.576295 0.284674
846 1 0.573378 0.641218 0.217566
942 1 0.636404 0.641153 0.293464
859 1 0.646036 0.717422 0.219317
955 1 0.571541 0.711294 0.284734
849 1 0.778299 0.559776 0.213118
850 1 0.718034 0.650772 0.21786
946 1 0.789767 0.640088 0.281434
959 1 0.71753 0.714855 0.28831
854 1 0.845341 0.646722 0.21472
950 1 0.932236 0.627771 0.289214
1024 1 0.570964 0.85789 0.425041
1025 1 0.639238 0.932777 0.423943
860 1 0.577099 0.782312 0.216715
956 1 0.641239 0.776437 0.290568
873 1 0.644536 0.856906 0.218433
863 1 0.78315 0.724766 0.219062
864 1 0.707766 0.790569 0.221303
960 1 0.792954 0.785227 0.296565
973 1 0.719684 0.853305 0.286699
877 1 0.788381 0.835308 0.211055
963 1 0.849699 0.711392 0.279251
867 1 0.9238 0.699603 0.228643
868 1 0.855855 0.777952 0.23047
964 1 0.927493 0.776103 0.288254
977 1 0.859993 0.85696 0.278742
881 1 0.927022 0.859631 0.217206
967 1 0.48765 0.922335 0.300099
969 1 0.583314 0.857064 0.283891
885 1 0.570585 0.0104973 0.277649
874 1 0.563972 0.923056 0.21892
970 1 0.645059 0.930531 0.278886
878 1 0.718218 0.923278 0.225193
974 1 0.792251 0.923261 0.277094
32 1 0.995786 0.356334 0.0696681
797 1 0.910002 1.00383 0.214451
882 1 0.858752 0.923639 0.203476
978 1 0.914571 0.933256 0.280407
982 1 0.568346 0.991341 0.415685
888 1 0.579461 0.0753128 0.35028
983 1 0.632522 0.0821733 0.436068
901 1 0.640984 0.147399 0.354191
989 1 0.568219 0.149997 0.430511
891 1 0.778696 0.00343244 0.376623
892 1 0.713114 0.0787921 0.366371
985 1 0.780907 0.0775255 0.436133