ITEM: TIMESTEP
7500
ITEM: NUMBER OF ATOMS
864
ITEM: BOX BOUNDS pp pp pp
0.0000000000000000e+00 3.1559999999999999e+01
0.0000000000000000e+00 3.1559999999999999e+01
0.0000000000000000e+00 3.1559999999999999e+01
ITEM: ATOMS id type xs ys zs
8 1 0.162541 0.0743999 0.0847478
4 1 0.988649 0.0831967 0.0883652
74 1 0.0661236 0.0817535 0.177285
31 1 0.247901 0.164635 0.0815538
12 1 0.341592 0.0888704 0.0836928
599 1 0.922654 0.496124 0.428923
78 1 0.246183 0.0822297 0.16646
262 1 0.918927 0.250717 0.496244
109 1 0.50541 0.164573 0.182382
35 1 0.423459 0.167488 0.102591
82 1 0.408722 0.0950769 0.185184
218 1 0.0948484 0.0670851 0.498464
16 1 0.495089 0.0920881 0.0846706
20 1 0.668539 0.100324 0.0859463
86 1 0.585608 0.0932041 0.186878
113 1 0.66678 0.16711 0.176392
597 1 0.840638 0.496285 0.327921
43 1 0.780845 0.179093 0.0745003
37 1 0.485427 0.159317 0.00202679
79 1 0.251049 0.00243008 0.244136
3 1 0.0649953 0.00248374 0.0930329
24 1 0.835383 0.0901586 0.0956071
47 1 0.909913 0.171333 0.0850577
117 1 0.828257 0.178178 0.177812
439 1 0.239916 0.485222 0.0693163
27 1 0.0834822 0.159251 0.0851993
451 1 0.757027 0.496696 0.0797581
28 1 -0.000241565 0.25154 0.0834391
98 1 0.0840985 0.249098 0.175284
32 1 0.162008 0.246035 0.0899788
97 1 0.995734 0.172636 0.170708
125 1 0.167062 0.32299 0.186019
102 1 0.246771 0.250981 0.16031
226 1 0.402164 0.105554 0.500891
36 1 0.334904 0.24317 0.0734042
40 1 0.495265 0.252683 0.0939058
106 1 0.423467 0.258699 0.162716
46 1 0.909844 0.261976 0.0193076
39 1 0.587128 0.167305 0.0843422
110 1 0.58045 0.244638 0.168854
133 1 0.505407 0.339052 0.17724
581 1 0.155295 0.498792 0.32663
44 1 0.662023 0.240225 0.0774339
114 1 0.740972 0.25072 0.154463
19 1 0.758635 0.0157845 0.0834821
48 1 0.835195 0.265857 0.0960685
145 1 0.00689924 0.010458 0.334462
51 1 0.082124 0.33043 0.0852583
56 1 0.173037 0.392201 0.0898384
121 1 0.99964 0.335799 0.159068
122 1 0.0859672 0.406781 0.170772
55 1 0.247268 0.319541 0.0829001
21 1 0.835659 0.0139835 0.00923937
93 1 0.818591 0.00269746 0.176024
59 1 0.408671 0.32704 0.0845763
60 1 0.326703 0.40901 0.0872379
63 1 0.58232 0.334534 0.0645778
64 1 0.505203 0.412359 0.0780098
137 1 0.658012 0.337382 0.156607
67 1 0.741409 0.331403 0.079597
68 1 0.671185 0.410756 0.0868761
138 1 0.735034 0.420241 0.173051
72 1 0.827477 0.422312 0.0630225
25 1 -0.00328472 0.165384 -0.000663955
141 1 0.818419 0.344902 0.15998
52 1 0.990455 0.428382 0.0768155
71 1 0.918503 0.340281 0.0913835
142 1 0.911447 0.423173 0.163923
509 1 0.168503 0.495527 0.1601
193 1 -0.000246291 0.338837 0.349213
80 1 0.156832 0.0823853 0.238874
99 1 0.0834179 0.165067 0.245648
146 1 0.0860628 0.0877022 0.327887
87 1 0.591252 -0.00112916 0.264778
150 1 0.252256 0.0762081 0.331326
105 1 0.326116 0.161629 0.157906
103 1 0.251126 0.159883 0.24447
285 1 0.835354 0.337103 0.49758
84 1 0.331922 0.0828419 0.251687
154 1 0.41826 0.0782028 0.338663
107 1 0.42195 0.167915 0.269564
88 1 0.508323 0.0770814 0.270314
158 1 0.585192 0.0805312 0.363878
185 1 0.679639 0.160491 0.350429
250 1 0.404061 0.248805 0.49245
237 1 0.855503 0.00908276 0.496051
92 1 0.669435 0.0916415 0.265398
90 1 0.757828 0.0999442 0.161086
23 1 0.910789 0.0051225 0.093182
76 1 0.995934 0.0962704 0.256873
94 1 0.91475 0.0915972 0.180318
96 1 0.83425 0.0809844 0.251917
166 1 0.918535 0.0834316 0.341069
169 1 0.004296 0.178471 0.339955
104 1 0.16639 0.234977 0.26574
101 1 0.167235 0.167761 0.158889
170 1 0.0727203 0.263889 0.340313
173 1 0.17723 0.157241 0.345793
127 1 0.247744 0.310827 0.250503
108 1 0.349653 0.252302 0.248559
201 1 0.343424 0.33629 0.316568
174 1 0.254356 0.242139 0.341261
129 1 0.334489 0.338883 0.175544
178 1 0.427475 0.261702 0.341785
131 1 0.423694 0.337588 0.245724
111 1 0.59516 0.179115 0.26775
112 1 0.499039 0.249652 0.260363
182 1 0.597893 0.257747 0.348179
115 1 0.751973 0.168779 0.259996
116 1 0.660286 0.272562 0.247083
186 1 0.738069 0.255873 0.323777
119 1 0.916332 0.167759 0.253336
100 1 0.995916 0.264747 0.261806
118 1 0.913819 0.252724 0.164276
120 1 0.834344 0.24027 0.257935
190 1 0.908221 0.235223 0.347225
214 1 0.924332 0.410293 0.331533
123 1 0.0715761 0.335897 0.247391
124 1 0.998835 0.429435 0.248796
196 1 0.998569 0.421825 0.427056
126 1 0.247012 0.410246 0.183383
128 1 0.158797 0.417323 0.253553
132 1 0.336222 0.425698 0.254283
198 1 0.247418 0.414478 0.333422
593 1 0.673743 0.485182 0.328118
216 1 0.839181 0.432182 0.423138
130 1 0.420576 0.409099 0.149265
205 1 0.485195 0.35386 0.34397
136 1 0.492324 0.420866 0.256632
579 1 0.0863089 0.492548 0.421806
134 1 0.584209 0.426184 0.165443
135 1 0.578856 0.345045 0.261007
140 1 0.662422 0.414019 0.250804
139 1 0.759627 0.34164 0.267879
213 1 0.841006 0.329312 0.340727
211 1 0.754969 0.327587 0.410453
143 1 0.91875 0.33813 0.23681
144 1 0.84149 0.41186 0.247476
577 1 0.993329 0.491164 0.341356
89 1 0.687848 0.00887632 0.174534
171 1 0.0953567 0.159783 0.419153
148 1 0.0108537 0.0859723 0.416159
151 1 0.253821 -0.000777765 0.414202
447 1 0.596266 0.494149 0.0726708
517 1 0.49512 0.503654 0.158275
152 1 0.167025 0.0734936 0.417723
177 1 0.329972 0.16008 0.332008
249 1 0.322131 0.174246 0.499094
77 1 0.166481 0.00739999 0.167779
209 1 0.659468 0.345219 0.34325
156 1 0.326785 0.0786131 0.411864
181 1 0.51196 0.167884 0.335589
161 1 0.666293 0.0126806 0.349837
91 1 0.750502 0.00331683 0.277086
160 1 0.49103 0.08817 0.414388
164 1 0.666973 0.0881419 0.447651
210 1 0.755446 0.418432 0.344631
525 1 0.826713 0.492227 0.15433
206 1 0.567878 0.428929 0.34434
189 1 0.83461 0.161339 0.339781
162 1 0.757815 0.0879917 0.342593
168 1 0.847225 0.0872554 0.422655
212 1 0.655027 0.427737 0.431737
191 1 0.925574 0.16536 0.428243
207 1 0.579991 0.34977 0.42138
277 1 0.478781 0.330598 0.489745
176 1 0.176704 0.24987 0.413398
195 1 0.0850359 0.348941 0.425936
175 1 0.245394 0.159994 0.42451
184 1 0.520045 0.24885 0.415516
180 1 0.333598 0.253588 0.40776
179 1 0.428484 0.180724 0.40944
183 1 0.595674 0.172846 0.432414
188 1 0.677453 0.25647 0.421058
192 1 0.829842 0.249457 0.420982
187 1 0.75541 0.16441 0.428897
523 1 0.749848 0.487784 0.259289
511 1 0.231477 0.49078 0.247769
215 1 0.919305 0.333854 0.425086
172 1 0.0118307 0.25546 0.427498
194 1 0.0811128 0.424413 0.335146
200 1 0.168059 0.414804 0.412378
221 1 0.18635 5.79058e-05 0.498466
199 1 0.244508 0.334744 0.411561
204 1 0.32797 0.421418 0.412647
197 1 0.16775 0.325388 0.334152
85 1 0.513942 0.0143823 0.16202
203 1 0.402625 0.339665 0.414586
202 1 0.412018 0.424368 0.330517
208 1 0.487749 0.41772 0.437833
5 1 0.156575 0.00464325 0.00547188
149 1 0.167604 0.00485146 0.334963
435 1 0.0929276 0.486023 0.0871881
513 1 0.311936 0.495417 0.165605
2 1 0.0867827 0.0837876 -0.002417
246 1 0.246008 0.25383 0.497818
15 1 0.605453 0.00193776 0.0813601
270 1 0.253201 0.417919 0.493742
17 1 0.68777 0.011735 0.00512579
38 1 0.581733 0.246871 0.00170762
273 1 0.320524 0.334019 0.484408
242 1 0.0965025 0.246886 0.493476
265 1 0.989169 0.340897 0.493797
14 1 0.595943 0.0808968 0.00329927
26 1 0.0841924 0.236339 0.00821173
274 1 0.398541 0.411052 0.499707
34 1 0.414213 0.243044 0.00368253
245 1 0.1637 0.162573 0.495252
58 1 0.412448 0.408882 0.0129187
233 1 0.676412 -0.00240719 0.497692
29 1 0.172125 0.158496 0.00404365
224 1 0.163293 0.0912931 0.577474
220 1 0.0217098 0.0661284 0.578729
373 1 0.501677 0.00470817 0.835574
228 1 0.333581 0.0794565 0.579151
294 1 0.2616 0.0865305 0.676094
230 1 0.590578 0.0923893 0.513346
431 1 0.906303 0.32541 0.909438
251 1 0.420994 0.192072 0.593379
298 1 0.413076 0.0919114 0.656339
232 1 0.492124 0.104047 0.593634
797 1 0.168615 0.497197 0.831496
236 1 0.664854 0.0750253 0.590388
803 1 0.402441 0.496506 0.914023
286 1 0.910432 0.411808 0.499172
325 1 0.502643 0.169448 0.665179
240 1 0.842057 0.0850858 0.590634
735 1 0.568861 0.488819 0.742691
310 1 0.908967 0.0710418 0.668434
739 1 0.750019 0.494983 0.750242
375 1 0.585297 0.000313072 0.917677
432 1 0.837806 0.408463 0.925111
234 1 0.76617 0.0726823 0.513708
243 1 0.0855542 0.170278 0.587288
57 1 0.329782 0.331566 1.0023
248 1 0.168378 0.242899 0.577417
247 1 0.247527 0.165778 0.599705
252 1 0.320961 0.256091 0.575029
321 1 0.337364 0.168649 0.663703
271 1 0.240257 0.331085 0.588403
299 1 0.4262 0.0135939 0.761953
729 1 0.318623 0.500777 0.659537
256 1 0.505638 0.257754 0.566906
275 1 0.410028 0.320051 0.587507
731 1 0.410202 0.481064 0.735442
813 1 0.822373 0.499226 0.825631
255 1 0.591921 0.172022 0.585298
326 1 0.579119 0.256204 0.645278
260 1 0.668462 0.245281 0.593378
353 1 0.668297 0.344469 0.658283
69 1 0.831743 0.331107 0.99936
297 1 0.342521 0.0055921 0.654431
259 1 0.751009 0.177077 0.595621
283 1 0.753995 0.339267 0.586463
357 1 0.852825 0.356352 0.672606
54 1 0.252565 0.413906 0.995484
445 1 0.483913 0.49337 0.997939
263 1 0.927504 0.16109 0.59496
264 1 0.838764 0.246636 0.569731
223 1 0.237775 0.00302655 0.587493
244 1 0.00423654 0.241002 0.583047
287 1 0.914761 0.332602 0.572121
383 1 0.914076 0.00669521 0.921567
267 1 0.0773075 0.354769 0.577866
338 1 0.0842956 0.418378 0.662201
268 1 0.988603 0.416115 0.582217
272 1 0.168843 0.436251 0.596544
276 1 0.318993 0.401462 0.590274
428 1 0.670188 0.422265 0.918091
62 1 0.587006 0.432999 0.986824
280 1 0.493515 0.436006 0.572682
349 1 0.494239 0.330068 0.655559
66 1 0.737196 0.429541 0.998946
801 1 0.338234 0.492844 0.822968
416 1 0.170637 0.407451 0.931011
279 1 0.58721 0.348002 0.559636
284 1 0.658803 0.446868 0.581145
412 1 0.00466197 0.419321 0.912345
350 1 0.565795 0.416513 0.645602
379 1 0.773502 0.00937403 0.914333
354 1 0.757232 0.416058 0.665186
406 1 0.910758 0.255123 0.826171
289 1 0.0120148 -0.00354071 0.663306
288 1 0.834654 0.418125 0.577009
337 1 0.00831534 0.317477 0.651485
290 1 0.0871894 0.0638599 0.667385
315 1 0.0889424 0.158351 0.752274
296 1 0.17435 0.0838648 0.738282
292 1 0.0028148 0.0785842 0.756326
313 1 0.00696093 0.136185 0.660626
385 1 0.00785906 0.157395 0.841391
319 1 0.258804 0.159342 0.752752
422 1 0.584498 0.427721 0.845053
388 1 0.0026034 0.259601 0.929338
300 1 0.332929 0.0635695 0.744774
323 1 0.423557 0.161849 0.743577
370 1 0.406488 0.0870738 0.835514
302 1 0.589927 0.0838712 0.674163
329 1 0.675897 0.170599 0.666436
304 1 0.511981 0.0876961 0.754408
374 1 0.586569 0.0842668 0.832621
397 1 0.500867 0.15977 0.828979
401 1 0.669646 0.178594 0.823719
65 1 0.664909 0.331921 0.986414
308 1 0.673465 0.0790916 0.749203
306 1 0.749837 0.0910863 0.664778
331 1 0.743108 0.155182 0.756801
333 1 0.841778 0.165355 0.669356
410 1 0.0955951 0.410725 0.839214
312 1 0.826541 0.0711897 0.742949
335 1 0.912013 0.149101 0.752032
314 1 0.0798508 0.249655 0.681611
386 1 0.0761375 0.243164 0.843146
317 1 0.163945 0.168025 0.658614
320 1 0.17092 0.241843 0.749457
318 1 0.258109 0.250418 0.676082
324 1 0.346073 0.23697 0.755266
393 1 0.333384 0.166028 0.835835
322 1 0.414643 0.249506 0.679475
347 1 0.418876 0.331766 0.744128
327 1 0.591978 0.17245 0.748003
328 1 0.505517 0.25933 0.740373
332 1 0.665561 0.268857 0.741546
330 1 0.751633 0.253746 0.669882
355 1 0.755857 0.343611 0.745574
336 1 0.840703 0.255343 0.74024
334 1 0.920434 0.246152 0.657435
409 1 0.992113 0.341452 0.835094
316 1 0.99243 0.223615 0.752934
359 1 0.935027 0.320802 0.739189
341 1 0.149558 0.32972 0.669826
339 1 0.0665407 0.322677 0.752292
344 1 0.168174 0.42014 0.741325
340 1 0.00527673 0.410627 0.744398
345 1 0.328335 0.324692 0.675893
343 1 0.251967 0.343325 0.751541
342 1 0.247094 0.407243 0.664159
421 1 0.50196 0.344087 0.834502
346 1 0.410082 0.418071 0.645667
348 1 0.330584 0.411679 0.744085
418 1 0.418485 0.413105 0.827396
352 1 0.501749 0.405858 0.739592
351 1 0.587001 0.344923 0.732428
305 1 0.666708 0.00983882 0.672483
426 1 0.7516 0.421347 0.834856
356 1 0.663228 0.421508 0.751299
360 1 0.828181 0.424401 0.749366
6 1 0.263221 0.075381 0.996811
430 1 0.916096 0.418306 0.846498
282 1 0.757146 0.414452 0.493851
358 1 0.93046 0.43056 0.679037
278 1 0.567261 0.438666 0.501178
362 1 0.076198 0.0775176 0.838463
364 1 0.994281 0.079261 0.916819
50 1 0.0794416 0.422085 0.994172
366 1 0.249162 0.0740945 0.821758
368 1 0.180649 0.0626975 0.91072
391 1 0.25394 0.158592 0.906501
405 1 0.824253 0.183425 0.827495
420 1 0.350051 0.40547 0.91643
372 1 0.339142 0.0697027 0.919463
395 1 0.423786 0.169365 0.913239
376 1 0.513971 0.0969225 0.923447
424 1 0.482796 0.416905 0.922765
399 1 0.584646 0.17007 0.913673
727 1 0.250982 0.492573 0.748799
417 1 0.340871 0.33761 0.819547
378 1 0.759885 0.0780388 0.83428
380 1 0.676766 0.0807374 0.913892
384 1 0.840033 0.0960837 0.913273
61 1 0.496015 0.31148 0.999135
382 1 0.911802 0.0714194 0.840248
407 1 0.913132 0.177705 0.913652
389 1 0.172801 0.161208 0.836426
411 1 0.100041 0.325077 0.928072
387 1 0.0938153 0.139759 0.917707
392 1 0.16361 0.238014 0.916963
408 1 0.822182 0.261563 0.902304
390 1 0.237814 0.251525 0.826764
437 1 0.173744 0.49504 0.985876
394 1 0.415034 0.243462 0.83384
419 1 0.416973 0.326197 0.913436
396 1 0.34284 0.24142 0.917414
400 1 0.502392 0.240755 0.912035
414 1 0.239488 0.412242 0.833099
413 1 0.158727 0.318159 0.825378
41 1 0.668332 0.160408 0.991591
425 1 0.659673 0.331255 0.823406
241 1 0.0164885 0.166648 0.505647
423 1 0.57605 0.334594 0.916134
398 1 0.576009 0.254359 0.824239
415 1 0.248047 0.325792 0.902854
427 1 0.750571 0.325296 0.908013
404 1 0.665456 0.253069 0.913058
402 1 0.748221 0.258126 0.810069
403 1 0.751146 0.161423 0.91092
429 1 0.833507 0.333911 0.832814
301 1 0.498069 0.00519297 0.673148
741 1 0.83909 0.484685 0.673872
49 1 0.00742948 0.335108 0.997673
303 1 0.58408 0.00694379 0.739405
257 1 0.67953 0.176783 0.509755
229 1 0.488514 0.0261487 0.509869
799 1 0.262716 0.489679 0.906458
266 1 0.0909569 0.426788 0.509011
723 1 0.0930202 0.502693 0.75799
70 1 0.92684 0.418937 0.987905
453 1 0.822232 0.502162 0.979225
671 1 0.925359 0.500765 0.587706
261 1 0.84424 0.151553 0.501737
18 1 0.766231 0.094063 0.996109
30 1 0.254148 0.250803 0.983606
53 1 0.177281 0.334066 0.999154
238 1 0.932319 0.081523 0.518467
33 1 0.354018 0.146418 0.99249
269 1 0.172849 0.336125 0.507701
258 1 0.750511 0.259695 0.515865
254 1 0.605348 0.249201 0.502411
253 1 0.509114 0.154206 0.500847
42 1 0.740987 0.245942 0.979816
281 1 0.680127 0.337862 0.508786
222 1 0.246052 0.0933487 0.506763
22 1 0.918111 0.0954695 0.989037
45 1 0.841443 0.185037 0.991513
10 1 0.423372 0.0614736 0.98545
441 1 0.327615 0.496578 0.991775
506 1 0.0877092 0.579456 0.160562
459 1 0.0920387 0.677858 0.0778455
163 1 0.7619 0.986359 0.423185
646 1 0.91279 0.912674 0.332052
457 1 0.0114777 0.657923 0.00836115
440 1 0.177847 0.581167 0.0904306
515 1 0.408403 0.505275 0.234751
510 1 0.246032 0.580158 0.170507
444 1 0.323385 0.58129 0.0857078
465 1 0.336013 0.679746 0.014645
433 1 0.00694763 0.509568 0.00458064
448 1 0.491974 0.567457 0.0750697
452 1 0.668393 0.590512 0.0777249
677 1 0.166549 0.670776 0.495223
73 1 0.9856 0.993217 0.170306
478 1 0.922424 0.730709 0.00059368
650 1 0.0896386 0.589702 0.485204
522 1 0.74838 0.592385 0.150959
456 1 0.832537 0.582949 0.0753383
436 1 0.995651 0.577826 0.0837933
589 1 0.490517 0.508257 0.327146
462 1 0.24389 0.743239 0.00732606
526 1 0.918772 0.586861 0.155225
460 1 0.993658 0.734971 0.0982772
483 1 0.0661958 0.825403 0.0834368
530 1 0.0790428 0.755722 0.177259
464 1 0.173667 0.742011 0.0918196
167 1 0.921299 0.99383 0.408629
463 1 0.255626 0.661844 0.0974247
11 1 0.415232 0.995381 0.0801895
487 1 0.257433 0.825633 0.093428
468 1 0.340684 0.752134 0.0921344
467 1 0.437038 0.669017 0.0779964
491 1 0.429923 0.855326 0.0818581
472 1 0.527181 0.761651 0.086823
155 1 0.413509 0.996232 0.433151
653 1 0.18964 0.506388 0.498187
471 1 0.581743 0.649442 0.0803194
476 1 0.650923 0.74462 0.0762069
549 1 0.841432 0.663088 0.155241
475 1 0.751508 0.661366 0.0817488
499 1 0.740333 0.817612 0.0866137
545 1 0.655574 0.664496 0.158581
546 1 0.747169 0.737453 0.161556
479 1 0.920884 0.655908 0.082665
480 1 0.8507 0.741341 0.0804396
455 1 0.907744 0.498631 0.0571234
488 1 0.161761 0.930494 0.0900892
484 1 0.991797 0.915026 0.0942952
95 1 0.914711 1.00075 0.259943
519 1 0.584598 0.49492 0.246732
492 1 0.336281 0.909293 0.0685321
718 1 0.916604 0.897364 0.493734
489 1 0.324752 0.824656 0.00689544
714 1 0.76601 0.904638 0.493729
496 1 0.515741 0.918439 0.0821416
75 1 0.0881436 0.995577 0.244522
81 1 0.332946 0.999914 0.16656
495 1 0.599808 0.83816 0.0820926
566 1 0.595908 0.940363 0.174463
147 1 0.0841468 0.991739 0.408216
573 1 0.822635 0.842672 0.161637
500 1 0.687239 0.920286 0.104319
504 1 0.806405 0.910839 0.0803143
153 1 0.337528 1.00189 0.320732
507 1 0.0804369 0.499102 0.250587
503 1 0.919827 0.826215 0.0919678
574 1 0.903674 0.918466 0.164366
443 1 0.403968 0.505669 0.0809932
529 1 0.0125297 0.66237 0.176457
578 1 0.0818839 0.579599 0.33177
512 1 0.157025 0.577821 0.260556
531 1 0.0899965 0.669293 0.243978
689 1 0.665227 0.664395 0.497026
535 1 0.243966 0.654895 0.255307
516 1 0.325559 0.570106 0.243034
533 1 0.160372 0.664359 0.163433
582 1 0.248162 0.5752 0.330445
648 1 0.842861 0.903343 0.418214
514 1 0.404039 0.597188 0.155582
609 1 0.331611 0.67224 0.313581
83 1 0.4222 0.999629 0.258914
518 1 0.587938 0.588589 0.176702
520 1 0.492731 0.573672 0.248656
590 1 0.574089 0.578398 0.33055
485 1 0.159994 0.822837 0.0240753
698 1 0.0891581 0.915901 0.498214
524 1 0.678705 0.559178 0.239582
621 1 0.829003 0.647144 0.332959
547 1 0.740314 0.657178 0.255328
527 1 0.920694 0.508682 0.245274
157 1 0.503224 0.994656 0.356608
508 1 0.0142585 0.57954 0.244123
528 1 0.808651 0.582341 0.233136
502 1 0.901925 0.919992 0.0272276
536 1 0.16862 0.748311 0.243739
532 1 0.997521 0.750906 0.234598
555 1 0.0802985 0.847984 0.245612
557 1 0.158986 0.831304 0.151427
601 1 -0.00111262 0.669979 0.320425
605 1 0.160136 0.67366 0.332549
534 1 0.247395 0.743234 0.173834
559 1 0.255556 0.831143 0.237243
537 1 0.331757 0.674697 0.178979
538 1 0.445346 0.76728 0.149701
539 1 0.417925 0.669055 0.236981
540 1 0.350337 0.761544 0.239984
542 1 0.588865 0.766601 0.18338
541 1 0.51143 0.687204 0.1757
543 1 0.582705 0.676876 0.258371
544 1 0.513701 0.768128 0.254641
567 1 0.597695 0.860373 0.253038
565 1 0.508658 0.849825 0.182713
548 1 0.679523 0.747482 0.248955
617 1 0.661619 0.666863 0.325675
569 1 0.673684 0.83135 0.174173
571 1 0.769479 0.825731 0.251673
552 1 0.83314 0.736337 0.239873
550 1 0.909728 0.741023 0.16316
551 1 0.922795 0.658633 0.244002
647 1 0.914047 0.814994 0.414518
554 1 0.0879419 0.915033 0.160421
560 1 0.16616 0.910055 0.23706
558 1 0.245913 0.919542 0.169409
564 1 0.329288 0.918702 0.253626
694 1 0.921819 0.73668 0.49889
562 1 0.431989 0.940432 0.176273
561 1 0.34674 0.849527 0.17297
563 1 0.419073 0.834827 0.254156
702 1 0.240938 0.898424 0.496428
568 1 0.512565 0.926412 0.258841
644 1 0.675516 0.918607 0.418534
638 1 0.590149 0.916704 0.355056
572 1 0.672929 0.929281 0.270759
622 1 0.909631 0.731367 0.333368
570 1 0.748349 0.915052 0.187321
641 1 0.675168 0.837982 0.329176
553 1 0.995971 0.829239 0.174703
575 1 0.890801 0.831815 0.239042
576 1 0.822224 0.920823 0.260842
556 1 0.98387 0.913308 0.24843
642 1 0.758568 0.912922 0.346338
630 1 0.246891 0.924643 0.327704
643 1 0.748476 0.826895 0.416683
584 1 0.164288 0.581414 0.41148
603 1 0.0805982 0.658966 0.403891
662 1 0.57941 0.591047 0.494334
681 1 0.337345 0.682439 0.500877
607 1 0.251812 0.681873 0.399364
626 1 0.078813 0.905924 0.333138
640 1 0.510364 0.917584 0.421954
645 1 0.831789 0.81546 0.346626
613 1 0.499552 0.664076 0.318386
588 1 0.32611 0.595803 0.412494
586 1 0.401432 0.604186 0.33173
611 1 0.41593 0.673955 0.423747
624 1 0.828096 0.736079 0.426638
592 1 0.493181 0.579922 0.399488
615 1 0.580542 0.680177 0.407651
634 1 0.426961 0.919711 0.334119
594 1 0.747211 0.57589 0.328579
596 1 0.656235 0.584225 0.414118
636 1 0.325839 0.902707 0.416193
600 1 0.836379 0.575703 0.415471
623 1 0.910176 0.649575 0.418726
580 1 0.00507273 0.575788 0.410168
598 1 0.923226 0.58202 0.33265
632 1 0.162843 0.913673 0.406832
1 1 -0.00549469 0.992585 0.013332
619 1 0.742187 0.661773 0.4119
625 1 0.976083 0.831166 0.327498
604 1 0.00116588 0.733426 0.408169
602 1 0.0767755 0.758321 0.318862
627 1 0.075852 0.827996 0.415315
608 1 0.161346 0.745368 0.412503
629 1 0.162016 0.839893 0.322203
631 1 0.23632 0.831899 0.395971
606 1 0.256742 0.750879 0.310054
628 1 0.997417 0.906392 0.412282
633 1 0.342902 0.828848 0.332257
610 1 0.423782 0.753049 0.341069
635 1 0.431864 0.8365 0.420816
612 1 0.317402 0.765404 0.415624
637 1 0.515744 0.840908 0.336929
616 1 0.488948 0.750441 0.420395
639 1 0.580399 0.816837 0.429511
614 1 0.596194 0.756813 0.339828
585 1 0.3425 0.509963 0.336978
458 1 0.0828219 0.75236 -0.000661068
620 1 0.668085 0.747524 0.425968
618 1 0.74852 0.737367 0.332206
583 1 0.25241 0.506639 0.415774
165 1 0.8359 0.997956 0.344319
591 1 0.584085 0.505425 0.41389
587 1 0.409574 0.505756 0.427143
595 1 0.746356 0.502498 0.413406
685 1 0.503733 0.672126 0.497008
505 1 1.0005 0.506179 0.163365
657 1 0.31808 0.504248 0.494558
217 1 0.993375 0.993249 0.495987
481 1 0.985198 0.827544 0.0139817
159 1 0.585099 0.996707 0.432229
654 1 0.248606 0.591497 0.493952
521 1 0.677746 0.507851 0.151948
7 1 0.253082 0.991057 0.0809491
438 1 0.24859 0.575704 0.013329
661 1 0.489575 0.517045 0.498906
482 1 0.0798462 0.91871 0.0205418
666 1 0.754356 0.590736 0.485598
658 1 0.412781 0.592333 0.491947
461 1 0.175005 0.65954 0.00177838
501 1 0.846621 0.82597 0.00433167
674 1 0.0726343 0.737686 0.48358
449 1 0.669515 0.510622 0.0025983
678 1 0.245264 0.747474 0.495087
434 1 0.107357 0.580153 0.000964582
497 1 0.676088 0.823343 0.00247842
493 1 0.501732 0.846386 0.00721199
713 1 0.656079 0.839852 0.499182
652 1 0.00114319 0.579383 0.596884
682 1 0.418209 0.767062 0.504814
365 1 0.160868 0.985277 0.836578
670 1 0.915015 0.568776 0.51566
656 1 0.168226 0.582082 0.560106
660 1 0.338913 0.594247 0.570627
726 1 0.250689 0.60383 0.660969
649 1 0.00485947 0.508398 0.500039
730 1 0.410686 0.587753 0.652626
683 1 0.415483 0.677013 0.581151
664 1 0.489899 0.596072 0.575635
668 1 0.66357 0.597616 0.587219
687 1 0.562865 0.664986 0.581984
734 1 0.559602 0.588193 0.662087
231 1 0.579342 0.998915 0.57961
693 1 0.83458 0.652479 0.502901
863 1 0.927968 0.84146 0.921104
691 1 0.757589 0.655766 0.574807
795 1 0.0767561 0.509458 0.922475
709 1 0.506228 0.822643 0.519156
733 1 0.489778 0.509064 0.650673
672 1 0.845029 0.582149 0.590231
742 1 0.917156 0.582633 0.686123
295 1 0.242412 0.993007 0.736986
291 1 0.0961312 0.998362 0.745615
725 1 0.166627 0.507789 0.680481
675 1 0.0847974 0.66163 0.577711
680 1 0.167674 0.745939 0.574393
676 1 0.00509645 0.737147 0.57492
749 1 0.151547 0.667522 0.658219
679 1 0.255486 0.672606 0.575405
750 1 0.242525 0.736881 0.663166
684 1 0.337674 0.745371 0.585181
781 1 0.509873 0.843311 0.673565
777 1 0.321992 0.831697 0.670722
707 1 0.414858 0.835411 0.584909
753 1 0.342196 0.672804 0.665724
688 1 0.498512 0.749985 0.601617
711 1 0.581852 0.842711 0.592433
692 1 0.663699 0.728707 0.58089
762 1 0.755047 0.740443 0.6427
696 1 0.830289 0.751012 0.576921
673 1 0.999367 0.648082 0.507143
695 1 0.912872 0.673996 0.599258
367 1 0.256058 0.987677 0.910362
766 1 0.915435 0.760332 0.668659
699 1 0.0796633 0.842983 0.588831
700 1 0.998719 0.918326 0.567831
770 1 0.0821501 0.912001 0.685572
381 1 0.838836 0.984737 0.839506
703 1 0.232329 0.824588 0.589086
704 1 0.170598 0.91367 0.575143
774 1 0.253077 0.915788 0.655245
841 1 0.995445 0.848273 0.834966
708 1 0.322839 0.915834 0.571132
712 1 0.498122 0.924303 0.583941
778 1 0.416574 0.925544 0.653886
706 1 0.401726 0.909798 0.499199
782 1 0.580241 0.919864 0.662959
716 1 0.665253 0.91454 0.583922
690 1 0.743222 0.756915 0.510514
13 1 0.511106 0.98968 1.00022
715 1 0.748622 0.836317 0.58727
720 1 0.835366 0.904312 0.574464
844 1 0.99236 0.923711 0.920341
862 1 0.924054 0.925108 0.845113
815 1 0.917469 0.512631 0.927925
719 1 0.923251 0.828803 0.586715
651 1 0.0845645 0.51057 0.587958
477 1 0.831735 0.659853 0.989645
722 1 0.0883457 0.578691 0.675782
747 1 0.075714 0.670192 0.757659
724 1 1.00123 0.585627 0.763478
669 1 0.831792 0.507632 0.511659
454 1 0.912123 0.6008 1.00091
293 1 0.162175 0.986511 0.665216
728 1 0.161282 0.605698 0.760728
732 1 0.332459 0.590302 0.732967
821 1 0.163103 0.668187 0.848339
751 1 0.247811 0.670245 0.746458
864 1 0.845721 0.925393 0.925103
655 1 0.245578 0.505656 0.586369
757 1 0.482945 0.661773 0.674505
755 1 0.408692 0.662113 0.747905
736 1 0.488083 0.568505 0.745118
663 1 0.581582 0.512445 0.582268
361 1 0.00754768 0.994013 0.817357
701 1 0.150611 0.818186 0.499591
759 1 0.578722 0.672113 0.747994
858 1 0.748881 0.92183 0.827688
470 1 0.562594 0.755892 0.989152
738 1 0.745569 0.58208 0.668232
740 1 0.664358 0.601624 0.749135
810 1 0.743107 0.588096 0.840109
761 1 0.679513 0.669913 0.665437
820 1 0.988928 0.749212 0.923611
744 1 0.822683 0.577237 0.751079
767 1 0.923826 0.686127 0.755818
837 1 0.840544 0.665699 0.826147
814 1 0.915349 0.572117 0.836528
809 1 0.663678 0.506028 0.826153
745 1 0.992298 0.667858 0.668026
746 1 0.0803575 0.742642 0.660308
748 1 0.0149964 0.76331 0.763359
771 1 0.0953918 0.825546 0.744559
752 1 0.172616 0.738991 0.750034
756 1 0.326884 0.745692 0.740884
822 1 0.255249 0.754195 0.837069
775 1 0.246488 0.817957 0.743421
754 1 0.421198 0.759922 0.672725
779 1 0.404658 0.845441 0.740163
760 1 0.49781 0.759511 0.759036
853 1 0.497557 0.840832 0.833256
758 1 0.583624 0.752773 0.65657
785 1 0.679758 0.814134 0.668856
783 1 0.585079 0.833513 0.739541
830 1 0.582104 0.755035 0.826296
833 1 0.651099 0.672789 0.833428
764 1 0.664741 0.74233 0.743955
861 1 0.841907 0.857041 0.828371
763 1 0.750236 0.662922 0.748305
789 1 0.819039 0.830814 0.674021
834 1 0.757926 0.743664 0.830189
765 1 0.838242 0.655496 0.676375
768 1 0.830112 0.7521 0.746375
838 1 0.921926 0.764349 0.839447
791 1 0.924999 0.830666 0.755762
845 1 0.162865 0.814511 0.82729
773 1 0.154579 0.824866 0.664171
772 1 0.987853 0.910522 0.742629
311 1 0.918725 0.994636 0.758482
857 1 0.667763 0.836687 0.83571
776 1 0.166813 0.913972 0.750329
849 1 0.329259 0.834203 0.834154
780 1 0.330654 0.918888 0.732872
784 1 0.495622 0.924444 0.743797
850 1 0.419025 0.916361 0.825923
807 1 0.551428 0.507424 0.912448
721 1 0.0133465 0.504224 0.67685
788 1 0.66252 0.916084 0.740784
235 1 0.751426 0.987197 0.580298
787 1 0.751386 0.830004 0.766691
786 1 0.748553 0.906176 0.674833
860 1 0.677075 0.924707 0.913059
852 1 0.337439 0.899214 0.9243
790 1 0.92324 0.913106 0.658151
769 1 0.00350064 0.822996 0.674803
792 1 0.833426 0.917984 0.747081
743 1 0.913874 0.502116 0.756433
817 1 0.994537 0.674648 0.839416
794 1 0.0778382 0.591324 0.841527
800 1 0.169434 0.576351 0.907265
854 1 0.580559 0.918685 0.83243
498 1 0.755398 0.922193 0.986751
371 1 0.413314 0.994857 0.896012
825 1 0.328283 0.661268 0.829222
798 1 0.254881 0.579326 0.824168
804 1 0.331617 0.593148 0.928789
823 1 0.248463 0.669542 0.921346
473 1 0.648972 0.670265 0.987238
848 1 0.157929 0.91084 0.927469
802 1 0.390711 0.581351 0.826981
856 1 0.495516 0.915888 0.912959
363 1 0.0771712 0.988012 0.93156
808 1 0.486324 0.59211 0.889569
219 1 0.0954044 0.991941 0.583661
806 1 0.579456 0.582289 0.819232
855 1 0.573347 0.839033 0.912819
667 1 0.753287 0.507948 0.59223
812 1 0.656706 0.585334 0.908175
816 1 0.819989 0.589374 0.90586
793 1 0.996221 0.510601 0.834975
851 1 0.408227 0.821414 0.912857
796 1 0.995111 0.588408 0.922502
839 1 0.905038 0.667464 0.915116
847 1 0.256493 0.831371 0.92293
818 1 0.073885 0.743734 0.850387
819 1 0.0759632 0.670508 0.927639
824 1 0.168764 0.760483 0.9215
828 1 0.326634 0.747973 0.925484
843 1 0.0639046 0.830001 0.927173
829 1 0.492467 0.666321 0.814191
826 1 0.397639 0.735888 0.819412
827 1 0.419832 0.666706 0.91953
842 1 0.0889069 0.911868 0.831734
835 1 0.747306 0.671661 0.91937
831 1 0.581399 0.65345 0.906934
832 1 0.499339 0.747995 0.899557
859 1 0.75794 0.834924 0.924986
846 1 0.246922 0.914243 0.817704
836 1 0.655659 0.756224 0.911824
840 1 0.842557 0.76319 0.913928
469 1 0.505618 0.650848 0.994095
805 1 0.477584 0.505517 0.828427
705 1 0.321141 0.825831 0.511319
737 1 0.654717 0.503725 0.683534
710 1 0.568757 0.915066 0.506408
474 1 0.757969 0.748198 0.991778
377 1 0.664731 0.999433 0.820893
369 1 0.337323 0.989624 0.826684
811 1 0.744227 0.504091 0.908441
659 1 0.411071 0.506727 0.571728
309 1 0.826549 0.990658 0.637953
239 1 0.922085 0.994011 0.588758
227 1 0.398623 0.987763 0.564925
450 1 0.745797 0.586183 0.98579
307 1 0.751581 0.996553 0.743358
225 1 0.317951 0.993853 0.5067
494 1 0.59107 0.910266 0.995196
9 1 0.326427 0.982229 0.993097
466 1 0.442363 0.739582 0.991113
442 1 0.423818 0.583425 0.992464
697 1 0.00215236 0.824639 0.501487
490 1 0.424697 0.918239 0.99207
665 1 0.673179 0.522436 0.503917
686 1 0.591937 0.749846 0.51762
486 1 0.251884 0.907993 0.9967
717 1 0.828177 0.822599 0.498694
446 1 0.581206 0.565374 0.998357
