ITEM: TIMESTEP
1000
ITEM: NUMBER OF ATOMS
864
ITEM: BOX BOUNDS pp pp pp
0.0000000000000000e+00 3.1559999999999999e+01
0.0000000000000000e+00 3.1559999999999999e+01
0.0000000000000000e+00 3.1559999999999999e+01
ITEM: ATOMS id type xs ys zs
8 1 0.164844 0.0862492 0.0958379
27 1 0.0740361 0.147796 0.0691405
74 1 0.0762484 0.0937125 0.161525
31 1 0.252281 0.161811 0.0974878
29 1 0.170981 0.158832 0.0143575
7 1 0.259954 0.0142584 0.0839595
12 1 0.342251 0.0835819 0.0822185
11 1 0.422406 0.00893401 0.0725625
81 1 0.33634 0.0121078 0.165426
82 1 0.43865 0.0872029 0.15439
16 1 0.513275 0.0679068 0.0735839
86 1 0.579523 0.0953243 0.154319
20 1 0.675676 0.0927924 0.0878423
24 1 0.831468 0.081345 0.0869185
4 1 0.987099 0.0785295 0.0806002
23 1 0.918876 0.00122708 0.0827534
47 1 0.899669 0.158319 0.0782377
28 1 0.00808219 0.244333 0.0799232
32 1 0.165181 0.230964 0.0894464
98 1 0.0781273 0.254419 0.157899
102 1 0.258803 0.255431 0.158163
30 1 0.240768 0.244828 0.021711
35 1 0.423682 0.171047 0.0827494
36 1 0.338205 0.257452 0.0829942
106 1 0.41887 0.254277 0.163878
34 1 0.418739 0.254367 0.00510087
33 1 0.341896 0.1756 0.016413
39 1 0.595476 0.17177 0.067985
40 1 0.504812 0.240523 0.0633954
63 1 0.582273 0.320785 0.0632526
109 1 0.503774 0.184468 0.160507
110 1 0.594941 0.247272 0.151294
133 1 0.519374 0.317593 0.154091
43 1 0.762117 0.175479 0.0886288
44 1 0.679403 0.244753 0.0862748
67 1 0.754288 0.319291 0.079867
42 1 0.753872 0.24496 0.000544341
41 1 0.676293 0.169663 0.00824405
48 1 0.847008 0.255482 0.0922887
46 1 0.912329 0.241798 0.00445446
49 1 0.991417 0.325367 0.0108406
51 1 0.0870737 0.336204 0.0764069
52 1 0.0130095 0.410781 0.0663851
56 1 0.164134 0.419316 0.0760385
121 1 0.00365085 0.34823 0.162177
122 1 0.0895733 0.415876 0.165364
125 1 0.166466 0.338793 0.164452
53 1 0.16081 0.341654 6.01002e-05
55 1 0.235821 0.339371 0.0841099
509 1 0.173164 0.498482 0.158212
57 1 0.330174 0.340074 0.00237213
54 1 0.262125 0.419216 0.02418
443 1 0.419086 0.498465 0.0954393
58 1 0.427383 0.418211 0.00627219
59 1 0.427092 0.338712 0.0808036
60 1 0.343002 0.414073 0.0940269
64 1 0.516108 0.412533 0.0748117
68 1 0.657599 0.411116 0.0828195
134 1 0.580702 0.421114 0.158678
137 1 0.662206 0.339199 0.165759
62 1 0.595178 0.422993 0.000918812
72 1 0.832971 0.414992 0.0836328
138 1 0.743255 0.416146 0.163364
66 1 0.740745 0.405984 0.0212702
455 1 0.923588 0.480987 0.0759084
71 1 0.925839 0.336911 0.085823
70 1 0.904694 0.410076 0.00231668
77 1 0.152641 0.00336603 0.18197
80 1 0.1637 0.0782931 0.257992
101 1 0.156514 0.161867 0.176771
146 1 0.0854622 0.0833882 0.328407
79 1 0.2551 0.000319876 0.25229
78 1 0.245184 0.0735218 0.183517
157 1 0.496313 0.00192198 0.327897
153 1 0.333341 0.000297388 0.317464
84 1 0.33601 0.0816837 0.243345
105 1 0.333406 0.159527 0.170994
107 1 0.423268 0.162949 0.255704
154 1 0.405538 0.0766318 0.330224
177 1 0.334232 0.150073 0.33316
185 1 0.655868 0.16075 0.326665
88 1 0.506894 0.103184 0.239883
92 1 0.666433 0.0895956 0.245193
158 1 0.578217 0.0820972 0.325914
87 1 0.599963 0.014177 0.244282
161 1 0.663375 0.00937427 0.331086
90 1 0.763024 0.0682093 0.176615
117 1 0.832198 0.164177 0.174838
73 1 0.986531 0.00444647 0.17147
76 1 0.98973 0.0784718 0.240728
94 1 0.904032 0.0819455 0.172974
96 1 0.842292 0.0799913 0.260492
119 1 0.915591 0.16469 0.249581
99 1 0.0739905 0.171444 0.254169
123 1 0.0886867 0.329371 0.250226
197 1 0.157277 0.329259 0.333016
173 1 0.156007 0.167482 0.318011
103 1 0.235593 0.168432 0.254397
104 1 0.169556 0.260253 0.248406
108 1 0.325687 0.241262 0.255943
174 1 0.26297 0.249547 0.333297
129 1 0.339342 0.33252 0.174829
111 1 0.589353 0.169968 0.256333
112 1 0.514855 0.246929 0.263162
116 1 0.662617 0.247824 0.259961
135 1 0.583897 0.325585 0.245166
113 1 0.679127 0.176317 0.169338
114 1 0.755962 0.257542 0.168343
115 1 0.758149 0.168374 0.254868
120 1 0.826061 0.249425 0.260247
97 1 0.998778 0.169093 0.17264
100 1 0.992217 0.261115 0.256089
118 1 0.914696 0.256014 0.176835
169 1 0.992562 0.167185 0.329656
124 1 0.0157413 0.42538 0.267551
126 1 0.246006 0.421378 0.169545
127 1 0.243144 0.345212 0.255782
128 1 0.167543 0.426748 0.251014
201 1 0.329603 0.33588 0.322027
198 1 0.260346 0.425544 0.314154
581 1 0.178366 0.492575 0.331699
515 1 0.41362 0.497299 0.241965
130 1 0.425381 0.413408 0.168623
131 1 0.436116 0.334983 0.251429
132 1 0.334944 0.41123 0.248153
202 1 0.412943 0.426458 0.320643
519 1 0.582435 0.499468 0.240517
517 1 0.503596 0.491928 0.172272
136 1 0.50298 0.41553 0.253343
140 1 0.663626 0.420287 0.254303
213 1 0.832486 0.351349 0.3137
139 1 0.739806 0.352548 0.251513
141 1 0.822362 0.343893 0.185615
144 1 0.828622 0.431572 0.249222
505 1 0.990615 0.486028 0.167353
142 1 0.911272 0.407884 0.172051
143 1 0.938572 0.351209 0.260168
218 1 0.0944462 0.0994831 0.494833
147 1 0.074683 0.00727375 0.412513
148 1 0.00655955 0.0893912 0.423932
151 1 0.254859 0.000342874 0.421216
150 1 0.252101 0.0828405 0.335378
152 1 0.167142 0.0928413 0.397761
156 1 0.328561 0.0745791 0.413282
175 1 0.257592 0.153428 0.4168
155 1 0.407372 0.00268261 0.41415
160 1 0.489379 0.074697 0.42416
181 1 0.494307 0.152666 0.354356
253 1 0.496982 0.164172 0.48085
183 1 0.591495 0.157603 0.40826
164 1 0.66599 0.0778142 0.410258
165 1 0.816506 0.00854886 0.339215
162 1 0.755353 0.0939709 0.336215
168 1 0.825527 0.0783021 0.427173
261 1 0.828703 0.161935 0.496977
234 1 0.743853 0.0771514 0.496665
145 1 0.998566 0.0205773 0.334073
189 1 0.837676 0.164403 0.344652
166 1 0.923199 0.0918219 0.338944
167 1 0.919957 0.00846167 0.412119
217 1 0.998272 0.0151715 0.490731
195 1 0.102542 0.324459 0.432538
170 1 0.0802585 0.258916 0.340719
171 1 0.0803094 0.169853 0.402602
242 1 0.0835262 0.218986 0.498807
246 1 0.237292 0.256258 0.494362
199 1 0.234463 0.325304 0.413102
176 1 0.170134 0.228779 0.405556
180 1 0.323271 0.248077 0.414949
184 1 0.496929 0.242157 0.408332
277 1 0.496367 0.332234 0.496915
203 1 0.401737 0.328378 0.412961
178 1 0.407508 0.248661 0.338399
179 1 0.408232 0.173749 0.419032
250 1 0.425006 0.251585 0.493724
254 1 0.591644 0.242488 0.492695
182 1 0.589807 0.263102 0.346221
211 1 0.75879 0.332189 0.419817
187 1 0.747316 0.166737 0.412544
186 1 0.753389 0.259893 0.336713
188 1 0.668288 0.244581 0.421225
192 1 0.833094 0.250544 0.41774
258 1 0.750503 0.233433 0.496017
215 1 0.910855 0.328032 0.411501
262 1 0.915065 0.248075 0.494205
190 1 0.891792 0.252182 0.335498
191 1 0.927178 0.166967 0.420535
172 1 0.99802 0.249168 0.413003
285 1 0.833555 0.325607 0.49924
265 1 0.00533146 0.336756 0.48819
193 1 0.00270987 0.336251 0.343609
196 1 0.0190644 0.419321 0.41344
194 1 0.0928229 0.417883 0.339518
649 1 0.010116 0.494105 0.497478
266 1 0.0881938 0.411452 0.499653
204 1 0.326975 0.408894 0.406538
200 1 0.171332 0.42429 0.412716
583 1 0.268065 0.494056 0.418773
587 1 0.395877 0.497078 0.412581
208 1 0.481531 0.436856 0.424172
205 1 0.4869 0.346091 0.353154
274 1 0.402389 0.398496 0.491717
212 1 0.661908 0.42724 0.414636
209 1 0.657085 0.336186 0.339443
207 1 0.580175 0.352321 0.426058
206 1 0.591283 0.420793 0.337442
216 1 0.831141 0.426214 0.414814
210 1 0.756066 0.422922 0.344046
282 1 0.752247 0.413389 0.488659
214 1 0.937476 0.429621 0.346257
286 1 0.922332 0.408449 0.487423
669 1 0.835909 0.49654 0.493409
220 1 0.0192457 0.082104 0.585686
224 1 0.165011 0.0640165 0.571101
243 1 0.0935525 0.154925 0.590771
219 1 0.0817876 0.00056255 0.565623
241 1 0.000465749 0.156714 0.511234
247 1 0.24851 0.149593 0.59046
223 1 0.259563 0.00461914 0.589353
245 1 0.171215 0.155785 0.510885
222 1 0.257873 0.0802702 0.500626
225 1 0.332549 0.00258596 0.509483
228 1 0.340062 0.0862522 0.595964
232 1 0.486694 0.0968666 0.585794
227 1 0.407423 0.00472513 0.598066
226 1 0.405956 0.0806668 0.51131
230 1 0.578922 0.0857453 0.508234
236 1 0.661205 0.0767035 0.580205
231 1 0.586382 0.00492626 0.602508
302 1 0.571228 0.0951424 0.664911
329 1 0.658652 0.166484 0.650342
229 1 0.506304 0.0071065 0.527204
235 1 0.748919 0.000957439 0.58456
240 1 0.83081 0.0867475 0.597576
259 1 0.75508 0.15324 0.571954
333 1 0.821372 0.166393 0.664443
257 1 0.667393 0.15828 0.50242
237 1 0.828676 0.00621171 0.517989
263 1 0.908582 0.164294 0.589191
239 1 0.932658 0.0067989 0.587593
238 1 0.906544 0.084803 0.517834
314 1 0.076832 0.253105 0.647801
248 1 0.171969 0.25551 0.573223
252 1 0.316169 0.248248 0.584473
271 1 0.248605 0.332694 0.590327
318 1 0.242431 0.25026 0.66265
249 1 0.330008 0.167801 0.501761
273 1 0.33229 0.313242 0.500395
251 1 0.409694 0.184818 0.580815
256 1 0.494282 0.265715 0.586876
321 1 0.335822 0.175148 0.665406
255 1 0.5698 0.170965 0.578246
260 1 0.66297 0.245802 0.576404
326 1 0.575179 0.241093 0.659583
353 1 0.658053 0.32267 0.666474
283 1 0.754401 0.331011 0.575648
330 1 0.749264 0.243923 0.655983
281 1 0.676359 0.332155 0.502465
244 1 0.993883 0.235409 0.589174
264 1 0.836627 0.249315 0.584894
287 1 0.921458 0.333275 0.575022
334 1 0.9012 0.250822 0.66229
337 1 0.997413 0.321445 0.662604
267 1 0.0867418 0.334508 0.57134
268 1 0.00563852 0.414299 0.57579
338 1 0.0866492 0.403995 0.658306
721 1 0.00350066 0.498406 0.661581
651 1 0.0751236 0.485168 0.580508
657 1 0.329272 0.495458 0.502567
272 1 0.179562 0.42477 0.581358
269 1 0.175569 0.344426 0.501952
270 1 0.258324 0.402011 0.501798
653 1 0.169969 0.499462 0.512114
659 1 0.40904 0.491793 0.578603
275 1 0.407649 0.342317 0.5851
276 1 0.335462 0.410821 0.589574
280 1 0.492749 0.409662 0.578726
279 1 0.576166 0.340104 0.582932
284 1 0.66062 0.422043 0.579852
350 1 0.569927 0.4198 0.659815
278 1 0.569156 0.440018 0.501533
354 1 0.732812 0.405984 0.650847
357 1 0.827108 0.338317 0.654914
667 1 0.738882 0.48693 0.578479
671 1 0.923555 0.490863 0.572061
288 1 0.83681 0.420093 0.570317
358 1 0.911203 0.423873 0.657734
289 1 0.00276583 0.0068942 0.667997
290 1 0.0836584 0.0801015 0.675061
362 1 0.0781393 0.0906228 0.821863
296 1 0.162074 0.0824544 0.756675
317 1 0.161793 0.162379 0.679756
293 1 0.168048 3.22332e-05 0.677481
297 1 0.331397 0.0060298 0.673054
294 1 0.252731 0.0888256 0.672413
366 1 0.247269 0.0882443 0.823879
300 1 0.321393 0.0905928 0.760976
319 1 0.238845 0.163758 0.743319
301 1 0.49477 0.0085815 0.674646
298 1 0.407178 0.0779259 0.686428
304 1 0.481447 0.0895731 0.748865
325 1 0.495332 0.164645 0.668255
303 1 0.568534 0.0264428 0.750023
308 1 0.655208 0.0946116 0.73464
397 1 0.501792 0.164624 0.827716
381 1 0.82831 0.00109527 0.827994
305 1 0.674121 0.00281334 0.673349
306 1 0.749823 0.0688618 0.672474
378 1 0.744096 0.0805273 0.815181
311 1 0.922406 0.00814988 0.747174
309 1 0.838635 0.00557773 0.667051
292 1 0.998428 0.0847645 0.756763
310 1 0.934771 0.0872865 0.669152
312 1 0.834474 0.0825658 0.743371
382 1 0.919274 0.0751069 0.828775
335 1 0.916237 0.164807 0.744417
313 1 0.00602773 0.17231 0.671592
315 1 0.0790207 0.170081 0.754269
320 1 0.155416 0.250341 0.75265
339 1 0.0607543 0.323742 0.747778
341 1 0.154344 0.328238 0.675529
343 1 0.246933 0.32403 0.753543
322 1 0.411861 0.268003 0.670285
323 1 0.401024 0.178586 0.761198
324 1 0.333519 0.259883 0.758514
328 1 0.496202 0.248062 0.754789
327 1 0.577116 0.181153 0.748479
351 1 0.57167 0.327948 0.748393
425 1 0.65952 0.33307 0.812917
331 1 0.74113 0.173058 0.744131
332 1 0.666947 0.254184 0.750749
402 1 0.755136 0.241737 0.829279
336 1 0.826913 0.25243 0.745681
355 1 0.746565 0.326527 0.746002
429 1 0.826396 0.32941 0.829067
316 1 0.994506 0.252861 0.73964
405 1 0.840947 0.17392 0.813924
359 1 0.91037 0.323308 0.739671
723 1 0.0845293 0.495271 0.728307
410 1 0.0813163 0.415854 0.81936
793 1 0.0019103 0.49966 0.832737
342 1 0.248757 0.429887 0.673538
344 1 0.16933 0.419135 0.743798
345 1 0.328202 0.342771 0.668855
348 1 0.327663 0.407973 0.746132
801 1 0.329694 0.490984 0.822288
731 1 0.417798 0.492991 0.753367
346 1 0.413145 0.408638 0.668225
347 1 0.410985 0.343003 0.744591
418 1 0.420476 0.42391 0.830986
349 1 0.498525 0.335702 0.670296
352 1 0.496889 0.425961 0.759336
421 1 0.491012 0.337173 0.827729
733 1 0.487356 0.489883 0.66987
422 1 0.592667 0.43132 0.829851
356 1 0.656269 0.418952 0.725607
741 1 0.805287 0.474929 0.667222
739 1 0.738824 0.483945 0.748875
743 1 0.910351 0.49401 0.766868
340 1 0.998143 0.415034 0.751436
360 1 0.843451 0.41139 0.752693
363 1 0.075584 0.00884832 0.904805
387 1 0.0860639 0.165366 0.913233
364 1 0.00586132 0.0823218 0.920804
368 1 0.164248 0.077783 0.910886
2 1 0.0840823 0.0654054 0.994731
367 1 0.240622 0.00267112 0.899708
372 1 0.329481 0.0862467 0.928396
393 1 0.331644 0.163753 0.853801
6 1 0.253214 0.0787136 0.998024
376 1 0.497472 0.0838648 0.915445
369 1 0.344329 0.00612326 0.84033
370 1 0.414749 0.0977693 0.835138
10 1 0.406804 0.0792421 0.997677
373 1 0.501203 0.00762074 0.841876
375 1 0.582186 0.00417827 0.91634
374 1 0.595635 0.0845686 0.833791
401 1 0.665303 0.162615 0.843543
14 1 0.587798 0.0833196 0.991382
37 1 0.503046 0.156352 0.994733
377 1 0.676305 0.0092948 0.841224
380 1 0.672165 0.0799816 0.917126
403 1 0.755962 0.165412 0.907562
17 1 0.674351 0.000387937 0.998522
45 1 0.824295 0.151185 0.994315
18 1 0.754563 0.0700028 0.995462
384 1 0.842825 0.0845533 0.903961
407 1 0.913319 0.161152 0.912614
385 1 0.990192 0.158062 0.835429
25 1 0.995151 0.159969 0.988334
383 1 0.918148 0.000715938 0.911074
22 1 0.918226 0.0832297 0.989999
392 1 0.163517 0.254049 0.919
386 1 0.0775508 0.243841 0.834586
26 1 0.0790857 0.246308 0.997838
391 1 0.243607 0.168183 0.929483
389 1 0.168983 0.175766 0.839987
390 1 0.26715 0.26042 0.84584
395 1 0.424541 0.174357 0.917529
396 1 0.344681 0.263364 0.923837
394 1 0.4084 0.25187 0.844155
65 1 0.666288 0.325129 0.985605
38 1 0.58438 0.244809 0.98613
398 1 0.587226 0.243138 0.841204
400 1 0.500322 0.258072 0.907393
399 1 0.597959 0.170355 0.922915
427 1 0.760941 0.322827 0.90234
404 1 0.67888 0.246331 0.913721
69 1 0.830536 0.326419 0.995245
388 1 0.999087 0.255884 0.924058
408 1 0.834171 0.235233 0.917381
406 1 0.917807 0.252297 0.840793
409 1 0.998607 0.332896 0.837372
797 1 0.163165 0.494762 0.847869
50 1 0.089137 0.427643 0.99557
412 1 0.013127 0.413477 0.913225
411 1 0.0730163 0.333724 0.928695
413 1 0.16226 0.336526 0.834676
416 1 0.172769 0.422693 0.927322
415 1 0.25623 0.34931 0.924945
414 1 0.250404 0.424194 0.834136
420 1 0.336559 0.430222 0.933372
419 1 0.419404 0.345754 0.919288
417 1 0.339406 0.354111 0.84325
424 1 0.507262 0.417566 0.919089
423 1 0.579981 0.340294 0.907284
61 1 0.501624 0.336919 0.981132
432 1 0.829153 0.414641 0.923039
428 1 0.66903 0.40097 0.918981
813 1 0.827921 0.495495 0.839388
426 1 0.750787 0.414554 0.84099
431 1 0.923682 0.340317 0.927299
815 1 0.928342 0.493338 0.910689
430 1 0.910278 0.403641 0.8437
436 1 0.00299118 0.591059 0.0824447
459 1 0.0954853 0.663902 0.100327
506 1 0.0859197 0.580603 0.157333
435 1 0.0792944 0.510839 0.0744874
440 1 0.179966 0.584145 0.0962015
444 1 0.332535 0.58601 0.0818426
439 1 0.260584 0.501498 0.0883822
510 1 0.257273 0.594189 0.164727
448 1 0.490385 0.568242 0.0824837
467 1 0.410697 0.64729 0.0778999
514 1 0.417967 0.588404 0.161646
441 1 0.339012 0.503321 0.0251314
469 1 0.501747 0.656449 0.00880042
452 1 0.666065 0.59787 0.104194
447 1 0.59848 0.500562 0.0765346
471 1 0.58028 0.66552 0.0867648
518 1 0.569503 0.581206 0.154233
475 1 0.760387 0.650347 0.0866079
451 1 0.768741 0.502494 0.0781716
456 1 0.841282 0.589674 0.0967111
477 1 0.843975 0.655687 0.00314723
454 1 0.926736 0.585679 0.00842264
530 1 0.0936695 0.756457 0.163191
465 1 0.331463 0.667838 0.00259241
463 1 0.247241 0.672019 0.0754779
464 1 0.17392 0.758195 0.0786063
468 1 0.332479 0.761294 0.0750756
533 1 0.171858 0.670522 0.166313
534 1 0.259068 0.747944 0.163009
537 1 0.325429 0.669457 0.150548
538 1 0.41397 0.747407 0.165876
541 1 0.487396 0.673068 0.156651
466 1 0.427372 0.745245 0.0128878
472 1 0.503937 0.749306 0.0795321
542 1 0.582943 0.750321 0.164752
470 1 0.597585 0.745824 0.0144541
497 1 0.67566 0.832695 0.00594029
476 1 0.671239 0.746609 0.0986483
499 1 0.764607 0.830169 0.0868146
546 1 0.774074 0.74674 0.153226
474 1 0.762033 0.738274 0.00571059
460 1 0.998009 0.749793 0.0704217
479 1 0.923146 0.669355 0.0972879
480 1 0.853664 0.752313 0.0825468
483 1 0.0862 0.833524 0.0681947
3 1 0.0825683 0.996574 0.0815933
553 1 0.000975185 0.835253 0.154857
557 1 0.16005 0.84572 0.151625
554 1 0.0808992 0.916918 0.154724
482 1 0.0876795 0.914237 0.00100335
487 1 0.240421 0.834984 0.0702716
5 1 0.167116 0.999528 0.0203395
488 1 0.17639 0.915853 0.070832
492 1 0.302579 0.923014 0.0804417
561 1 0.314814 0.848237 0.153648
491 1 0.408789 0.839597 0.0903833
496 1 0.487863 0.911834 0.0780657
562 1 0.408411 0.927548 0.155374
15 1 0.59256 0.997018 0.0828364
495 1 0.594756 0.839886 0.0780226
85 1 0.511773 0.994615 0.159992
565 1 0.500724 0.835308 0.151845
493 1 0.505397 0.835645 0.00357856
89 1 0.674822 0.99425 0.16515
19 1 0.762268 0.991397 0.0830563
500 1 0.6716 0.922157 0.0848087
569 1 0.67648 0.83728 0.155856
570 1 0.753977 0.910341 0.160154
498 1 0.759975 0.910009 0.000256409
503 1 0.926815 0.833335 0.0905614
484 1 0.994342 0.921238 0.0853781
504 1 0.844579 0.912363 0.0797517
93 1 0.855204 0.987041 0.161664
507 1 0.0874914 0.512165 0.239774
577 1 0.00109287 0.514965 0.321603
508 1 0.0107103 0.595096 0.241232
531 1 0.0885866 0.664767 0.251581
511 1 0.248959 0.509388 0.241343
512 1 0.173094 0.578272 0.229688
516 1 0.323179 0.586847 0.247914
582 1 0.230025 0.587085 0.327713
585 1 0.32938 0.508095 0.326679
513 1 0.338131 0.516593 0.168702
589 1 0.495005 0.502446 0.329702
520 1 0.49514 0.581443 0.240249
613 1 0.491407 0.656586 0.330629
586 1 0.423728 0.578549 0.332295
521 1 0.657984 0.513802 0.167504
524 1 0.662132 0.591852 0.257105
545 1 0.658604 0.666547 0.187291
593 1 0.660641 0.514106 0.328322
523 1 0.734095 0.504157 0.246094
522 1 0.753145 0.574699 0.170535
525 1 0.855937 0.502592 0.170164
597 1 0.840809 0.505501 0.331701
526 1 0.934516 0.589444 0.170212
528 1 0.833516 0.593273 0.248935
527 1 0.91339 0.501266 0.257451
529 1 0.010771 0.68437 0.166879
532 1 0.0120126 0.75229 0.25134
555 1 0.0813074 0.832212 0.245852
535 1 0.250528 0.668013 0.242203
536 1 0.17416 0.753088 0.239991
559 1 0.246049 0.832127 0.242221
540 1 0.333329 0.754483 0.244773
605 1 0.170495 0.682691 0.327815
606 1 0.259654 0.758037 0.321237
539 1 0.404291 0.669211 0.237643
544 1 0.49515 0.758549 0.231831
610 1 0.418833 0.750756 0.315204
543 1 0.56999 0.667275 0.245145
548 1 0.654503 0.753186 0.244433
547 1 0.743223 0.685347 0.244841
571 1 0.743385 0.827616 0.241432
549 1 0.840395 0.672139 0.180163
550 1 0.920735 0.755724 0.168269
551 1 0.917281 0.670467 0.248874
552 1 0.839547 0.761961 0.254458
621 1 0.835133 0.680072 0.325911
75 1 0.0837764 0.992317 0.256374
556 1 0.00291668 0.911507 0.256275
560 1 0.160722 0.906278 0.262967
630 1 0.247084 0.910447 0.330999
558 1 0.240382 0.930981 0.176168
564 1 0.330469 0.914908 0.255487
634 1 0.424658 0.919226 0.324972
83 1 0.428288 0.997755 0.242059
563 1 0.415254 0.843139 0.226394
637 1 0.489156 0.840114 0.323985
633 1 0.338535 0.835627 0.324763
638 1 0.581014 0.930495 0.332848
567 1 0.585073 0.847393 0.260749
566 1 0.585488 0.917496 0.173864
568 1 0.503471 0.912335 0.233254
91 1 0.748095 0.987428 0.25177
572 1 0.666849 0.911259 0.267175
576 1 0.826918 0.919408 0.255741
573 1 0.845185 0.835224 0.168454
575 1 0.929143 0.838103 0.255252
574 1 0.930248 0.904612 0.177639
95 1 0.91819 0.992727 0.260594
578 1 0.102074 0.59172 0.333365
603 1 0.10243 0.654181 0.414091
579 1 0.0923574 0.510796 0.409195
650 1 0.0954199 0.568521 0.491816
681 1 0.330312 0.661404 0.498315
584 1 0.181218 0.571432 0.422609
607 1 0.254265 0.662743 0.413011
609 1 0.325786 0.64758 0.333545
654 1 0.252283 0.592972 0.499931
611 1 0.424808 0.654937 0.421741
588 1 0.333965 0.57964 0.426148
592 1 0.4948 0.569608 0.414429
591 1 0.578766 0.502836 0.410501
590 1 0.581697 0.591534 0.346199
665 1 0.658079 0.505938 0.491528
595 1 0.737367 0.514255 0.416984
594 1 0.754035 0.597869 0.336029
596 1 0.671222 0.604353 0.411314
599 1 0.920519 0.506547 0.421515
623 1 0.920211 0.658608 0.435588
580 1 0.997147 0.578574 0.417327
598 1 0.904473 0.599344 0.337401
600 1 0.834232 0.594157 0.425425
601 1 0.994646 0.65543 0.333761
602 1 0.0871866 0.740662 0.338521
604 1 0.0148383 0.746809 0.425806
625 1 0.0148853 0.829735 0.350489
608 1 0.18273 0.755549 0.418366
629 1 0.174072 0.825438 0.348628
678 1 0.252533 0.746555 0.498412
677 1 0.17392 0.672074 0.487853
612 1 0.340983 0.735353 0.416284
616 1 0.499376 0.757919 0.416993
682 1 0.417249 0.750477 0.496127
615 1 0.571469 0.678741 0.427064
614 1 0.575091 0.769841 0.336596
617 1 0.654282 0.691637 0.343965
620 1 0.665663 0.760749 0.436371
686 1 0.567222 0.768047 0.498727
689 1 0.665862 0.669509 0.489994
618 1 0.740481 0.772386 0.333692
619 1 0.763687 0.67907 0.42046
647 1 0.928369 0.824196 0.42575
645 1 0.838617 0.825176 0.348658
624 1 0.850031 0.739328 0.437954
622 1 0.935203 0.74752 0.350449
717 1 0.844518 0.831975 0.496084
628 1 0.000135405 0.923445 0.425551
626 1 0.0852855 0.911803 0.344858
627 1 0.0944464 0.842927 0.422647
221 1 0.160669 0.988042 0.484779
636 1 0.328965 0.932409 0.40786
632 1 0.175473 0.912546 0.41426
631 1 0.263221 0.836462 0.420329
149 1 0.174625 0.993584 0.340732
701 1 0.176434 0.834519 0.499936
640 1 0.499071 0.914909 0.427475
635 1 0.414452 0.83754 0.420231
706 1 0.409586 0.92756 0.497174
159 1 0.575687 0.993206 0.432263
644 1 0.656323 0.919666 0.424091
639 1 0.570249 0.838266 0.41575
641 1 0.649078 0.836571 0.345152
642 1 0.749398 0.902536 0.342626
163 1 0.737165 0.987681 0.421017
643 1 0.751124 0.837382 0.418298
648 1 0.833409 0.928467 0.429465
646 1 0.928935 0.907266 0.346809
718 1 0.915543 0.915345 0.496059
652 1 0.00405244 0.575946 0.559346
656 1 0.156537 0.570324 0.579318
722 1 0.0754798 0.588373 0.646109
749 1 0.153829 0.654281 0.666273
673 1 0.0154069 0.663814 0.50853
655 1 0.254248 0.504868 0.584364
660 1 0.326453 0.5938 0.580194
726 1 0.243006 0.582971 0.656324
725 1 0.171301 0.506598 0.656216
664 1 0.48788 0.581043 0.58259
661 1 0.487653 0.50688 0.509123
730 1 0.416221 0.581736 0.65855
658 1 0.408854 0.582063 0.504054
737 1 0.655032 0.503945 0.655623
734 1 0.574257 0.583507 0.660963
663 1 0.580447 0.500913 0.580931
662 1 0.584739 0.588211 0.501274
668 1 0.677659 0.580822 0.57681
672 1 0.820744 0.572667 0.581832
761 1 0.668276 0.662099 0.662738
666 1 0.750379 0.583349 0.500998
693 1 0.825232 0.663786 0.519615
695 1 0.91835 0.633198 0.58703
745 1 0.995313 0.666071 0.664942
765 1 0.836215 0.664865 0.649679
670 1 0.909027 0.571864 0.50289
674 1 0.0955739 0.755277 0.505188
675 1 0.10041 0.673118 0.581181
676 1 0.00271785 0.749651 0.578245
697 1 0.00823108 0.828396 0.5045
679 1 0.237455 0.668245 0.579443
680 1 0.186482 0.754053 0.585861
684 1 0.320558 0.752329 0.591935
683 1 0.41343 0.668265 0.595257
707 1 0.402626 0.823263 0.59408
688 1 0.499143 0.763855 0.583813
754 1 0.410736 0.754535 0.664117
757 1 0.499209 0.682294 0.666462
685 1 0.485481 0.680315 0.506827
705 1 0.340322 0.831828 0.503054
687 1 0.591902 0.670845 0.579848
692 1 0.663211 0.761947 0.572189
691 1 0.744152 0.680986 0.587269
789 1 0.827948 0.825646 0.654599
690 1 0.758047 0.743979 0.501441
696 1 0.856927 0.74155 0.582846
719 1 0.92594 0.826791 0.578532
766 1 0.922549 0.749409 0.663901
694 1 0.933155 0.732927 0.506353
699 1 0.0947565 0.83767 0.588325
700 1 0.00334619 0.931335 0.57724
770 1 0.081556 0.92367 0.665353
698 1 0.0911093 0.904738 0.507299
703 1 0.25305 0.841959 0.588296
704 1 0.17342 0.931505 0.587547
773 1 0.179371 0.83502 0.665124
702 1 0.25013 0.92223 0.501791
709 1 0.479236 0.851401 0.509747
708 1 0.337089 0.911082 0.586644
233 1 0.655365 0.98818 0.51875
711 1 0.587349 0.840404 0.604301
712 1 0.506582 0.924698 0.606276
710 1 0.565737 0.919758 0.514732
713 1 0.64484 0.847439 0.50414
715 1 0.758961 0.840206 0.583151
716 1 0.667374 0.91123 0.598865
714 1 0.751576 0.911072 0.502056
720 1 0.843302 0.913774 0.581658
790 1 0.927144 0.899005 0.66443
794 1 0.0883352 0.569586 0.830003
728 1 0.153645 0.571178 0.743177
747 1 0.0740932 0.656742 0.757064
821 1 0.165022 0.662758 0.828985
729 1 0.324662 0.501302 0.669256
732 1 0.325348 0.587088 0.749236
751 1 0.23535 0.636916 0.756403
753 1 0.325289 0.660692 0.667761
727 1 0.2358 0.509839 0.75401
802 1 0.422467 0.584119 0.82928
736 1 0.490848 0.581362 0.734566
755 1 0.40773 0.666527 0.740957
805 1 0.50098 0.505509 0.829288
735 1 0.573139 0.503532 0.748668
806 1 0.581632 0.580809 0.82298
740 1 0.65023 0.578126 0.74101
759 1 0.571745 0.665806 0.744196
809 1 0.668827 0.500601 0.833209
738 1 0.744119 0.58386 0.668401
810 1 0.735073 0.579382 0.827431
744 1 0.824599 0.578968 0.747503
837 1 0.81634 0.665129 0.830456
724 1 0.987042 0.576985 0.739607
742 1 0.899676 0.56282 0.66949
817 1 0.992593 0.646079 0.819412
767 1 0.915591 0.65573 0.741104
746 1 0.0831071 0.742851 0.673924
771 1 0.101565 0.83248 0.751781
818 1 0.0759686 0.745694 0.830549
750 1 0.248386 0.753085 0.670811
752 1 0.171931 0.746482 0.756391
756 1 0.311482 0.729062 0.757645
777 1 0.320299 0.828659 0.692569
779 1 0.413956 0.832542 0.745835
826 1 0.41181 0.739992 0.831546
849 1 0.343654 0.815965 0.831022
760 1 0.485205 0.747753 0.757548
758 1 0.589717 0.750637 0.675272
781 1 0.501338 0.831164 0.681929
783 1 0.575656 0.832809 0.75106
830 1 0.57968 0.74062 0.82947
762 1 0.730451 0.750199 0.670745
763 1 0.743523 0.670888 0.748273
764 1 0.668468 0.749307 0.758975
787 1 0.757276 0.831181 0.745059
748 1 0.997506 0.747137 0.75152
768 1 0.834501 0.745749 0.754819
791 1 0.918306 0.827343 0.745063
838 1 0.921367 0.735123 0.831388
291 1 0.0762348 0.987028 0.762005
365 1 0.160891 0.995471 0.822526
769 1 0.0178895 0.838888 0.676595
776 1 0.162898 0.912616 0.753908
295 1 0.254568 0.994197 0.771605
775 1 0.242745 0.836663 0.76076
774 1 0.253627 0.926291 0.686867
299 1 0.404043 0.995605 0.749132
778 1 0.416246 0.920666 0.668622
780 1 0.335835 0.911021 0.760846
784 1 0.488516 0.929578 0.751965
785 1 0.665861 0.835011 0.684795
857 1 0.656928 0.83863 0.828692
782 1 0.583427 0.928531 0.672764
854 1 0.578041 0.921447 0.832256
307 1 0.757775 0.990377 0.749294
786 1 0.742954 0.917501 0.677785
788 1 0.671106 0.914806 0.762179
861 1 0.842097 0.835376 0.83325
772 1 0.997053 0.907478 0.752337
792 1 0.842574 0.912979 0.74199
862 1 0.919734 0.920211 0.830045
361 1 0.99503 0.997197 0.82336
795 1 0.0871367 0.508541 0.914092
433 1 0.0098508 0.503369 0.988174
819 1 0.0806613 0.6627 0.915118
457 1 0.000752644 0.6628 0.988721
434 1 0.0982199 0.584569 0.996483
799 1 0.260335 0.504302 0.929853
437 1 0.175515 0.509141 0.988869
798 1 0.256094 0.582076 0.843895
823 1 0.255984 0.661062 0.918011
800 1 0.168364 0.583733 0.905063
438 1 0.248971 0.593325 0.999051
461 1 0.168953 0.663843 0.977858
803 1 0.418836 0.502142 0.913318
804 1 0.334358 0.580827 0.91363
808 1 0.488419 0.587795 0.922537
825 1 0.337336 0.652144 0.836171
445 1 0.499079 0.502046 0.996244
442 1 0.403475 0.574343 0.994706
831 1 0.587772 0.658197 0.911734
829 1 0.500808 0.657063 0.837598
807 1 0.580005 0.514926 0.919931
446 1 0.58171 0.586308 0.99812
450 1 0.759499 0.572166 0.998395
811 1 0.759299 0.503646 0.9141
816 1 0.826413 0.591105 0.910917
812 1 0.670574 0.570266 0.90599
833 1 0.671393 0.665563 0.835714
473 1 0.671642 0.652648 0.994557
449 1 0.671209 0.503877 0.996034
453 1 0.85879 0.50616 0.99838
839 1 0.913283 0.666395 0.918483
814 1 0.911724 0.574263 0.835261
796 1 0.997563 0.587063 0.905998
458 1 0.0773555 0.744959 0.989773
824 1 0.160627 0.745504 0.906102
843 1 0.0765565 0.831091 0.9223
841 1 0.00651593 0.823974 0.834614
845 1 0.163959 0.830294 0.860323
847 1 0.25922 0.820775 0.913485
822 1 0.251878 0.727194 0.836474
462 1 0.234404 0.755496 0.984368
489 1 0.337843 0.829057 0.9961
828 1 0.334572 0.752935 0.923003
853 1 0.496025 0.825615 0.835175
827 1 0.419767 0.67924 0.921583
851 1 0.436195 0.820418 0.924517
836 1 0.656511 0.748854 0.910696
832 1 0.51669 0.746484 0.942958
840 1 0.82118 0.747964 0.913398
501 1 0.831963 0.813077 0.997505
835 1 0.745027 0.670053 0.918332
834 1 0.747303 0.760009 0.836098
478 1 0.914383 0.734682 0.991797
863 1 0.906455 0.817329 0.918617
481 1 0.987765 0.815787 0.980861
820 1 0.991126 0.735026 0.906213
848 1 0.156781 0.933034 0.916945
844 1 0.000790581 0.908938 0.918965
842 1 0.084392 0.914578 0.834136
1 1 0.0142762 0.990869 0.996893
485 1 0.163947 0.8412 0.974359
9 1 0.332184 0.990599 0.990146
852 1 0.327114 0.904914 0.906772
846 1 0.241932 0.905827 0.83998
486 1 0.244202 0.921796 0.981055
856 1 0.498689 0.921186 0.921845
490 1 0.419101 0.91905 0.992823
850 1 0.419313 0.90911 0.838369
13 1 0.49719 0.998073 0.990763
371 1 0.420268 0.991321 0.915278
855 1 0.583756 0.836544 0.919894
494 1 0.587461 0.910056 0.999301
860 1 0.666677 0.92235 0.921091
379 1 0.754893 0.998269 0.916276
859 1 0.745554 0.840369 0.91453
858 1 0.757452 0.901804 0.833654
21 1 0.828745 0.992081 0.985898
864 1 0.845549 0.913618 0.90984
502 1 0.921998 0.916832 0.999297
