ITEM: TIMESTEP
4500
ITEM: NUMBER OF ATOMS
864
ITEM: BOX BOUNDS pp pp pp
-3.6645584913807401e+00 3.5224558491363538e+01
-3.6645584913807401e+00 3.5224558491363538e+01
-3.6645584913807401e+00 3.5224558491363538e+01
ITEM: ATOMS id type xs ys zs
733 1 0.11104 0.428606 0.249166
852 1 0.617715 0.321518 0.0856797
310 1 0.0671932 0.261654 0.416583
251 1 0.733373 0.277237 0.257612
524 1 0.798491 0.218256 0.497935
115 1 0.651341 0.498122 0.231886
331 1 0.61497 0.181997 0.322037
132 1 0.157685 0.0759681 0.345053
306 1 0.465995 0.400258 0.344038
581 1 0.322687 0.28899 0.067895
510 1 0.537244 0.133263 0.21254
694 1 0.857315 0.373776 0.383353
729 1 0.0880992 0.277249 0.120317
150 1 0.0681316 0.373302 0.172464
666 1 0.307865 0.449773 0.207165
822 1 0.755835 0.371056 0.0350686
639 1 0.382831 0.245638 0.156551
731 1 0.525356 0.254482 0.203134
561 1 0.73584 0.20868 0.341998
538 1 0.523156 0.304595 0.370733
158 1 0.00623177 0.0776201 0.0142526
49 1 0.0246569 0.326171 0.0159785
4 1 0.645074 0.405475 0.254161
232 1 0.982159 0.227708 0.226669
428 1 0.979132 0.178036 0.363365
25 1 0.0924116 0.113114 0.0457146
315 1 0.689775 0.138712 0.325385
468 1 0.632522 0.135723 0.493044
715 1 0.545698 0.0960367 0.341933
812 1 0.856672 0.0583357 0.459882
799 1 0.71992 0.409079 0.169453
486 1 0.614549 0.423121 0.468715
20 1 0.510267 0.124803 0.0626238
347 1 0.469378 0.389175 0.0815928
137 1 0.22835 0.446235 0.379311
706 1 0.577353 0.31062 -0.000916325
704 1 0.812025 0.0416679 0.154252
793 1 0.877246 0.128212 0.287033
351 1 0.354462 0.0559439 0.0224154
644 1 0.610889 0.00853808 0.0698417
850 1 0.740344 0.187173 0.130976
372 1 0.91636 0.0542688 0.0101672
493 1 0.857665 0.325817 0.136436
832 1 0.994426 0.423559 0.0399417
707 1 0.957052 0.355201 0.422442
794 1 0.313362 0.0487152 0.125243
834 1 0.0622681 0.279953 0.245707
658 1 0.679321 0.169693 0.0197724
827 1 0.0345359 0.119593 0.186244
242 1 0.771615 0.105692 0.0906454
429 1 0.644713 0.161169 0.14625
826 1 0.213444 0.291393 0.113018
589 1 0.145361 0.21507 0.0263929
75 1 0.0979356 0.190989 0.175784
369 1 0.206506 0.106737 0.0110638
340 1 0.444779 0.135569 0.152457
431 1 0.395311 0.45731 0.190315
286 1 0.476028 0.0441846 0.066582
277 1 0.930834 0.151138 0.182636
13 1 0.696094 0.0884807 0.408667
517 1 0.462474 0.125705 0.398109
126 1 0.00391834 0.00866419 0.164355
221 1 0.082576 0.034441 0.399549
19 1 0.78386 0.455014 0.356492
573 1 0.827348 0.401469 0.255187
119 1 0.255275 0.132268 0.282894
839 1 0.482875 0.199187 0.00144208
808 1 0.709733 0.305 0.150032
863 1 0.760659 0.100697 0.232381
475 1 0.898025 0.27809 0.440485
677 1 0.618745 0.0978073 0.295665
366 1 0.0723512 0.147088 0.275044
714 1 0.19677 0.0560013 0.133796
165 1 0.921913 0.357011 -0.00175699
598 1 0.925998 0.378462 0.249675
146 1 0.211727 0.470773 0.266791
767 1 0.905558 0.415459 0.154484
148 1 0.174494 0.154589 0.0807783
690 1 0.387785 0.351919 0.0821508
645 1 0.695557 0.321451 0.00841665
191 1 0.218279 0.325029 0.00344766
196 1 0.451096 0.268814 0.100208
235 1 0.402037 0.105304 0.259292
335 1 0.108653 0.38473 0.366653
116 1 0.497986 0.156487 0.489368
459 1 0.53455 0.333718 0.464744
426 1 0.0351742 0.443293 0.339557
651 1 0.552026 0.288663 0.298382
595 1 0.429466 0.461518 0.0206653
686 1 0.987656 0.350846 0.106754
436 1 0.604739 0.204931 0.217242
439 1 0.156774 0.441062 0.431276
9 1 0.670225 0.455829 0.107713
720 1 0.225268 0.498367 0.447291
623 1 0.520728 0.321829 0.135823
227 1 0.150069 0.221354 0.380787
308 1 0.667321 0.090412 0.229063
215 1 0.479688 0.41454 0.180537
466 1 0.696968 0.335416 0.330551
736 1 0.289678 0.38341 0.379661
155 1 0.156136 0.143109 0.22481
540 1 0.811103 0.433955 0.153757
750 1 0.279946 0.227612 0.379549
256 1 0.232143 0.384293 0.313356
58 1 0.419109 0.0186086 0.196634
678 1 0.401168 0.277448 0.00374506
624 1 0.730471 0.16299 0.461357
120 1 0.136488 0.456711 0.343892
184 1 0.400463 0.259993 0.349364
463 1 0.27322 0.348313 0.18311
114 1 0.382982 0.118193 0.351365
368 1 0.287678 0.363466 0.0842475
617 1 0.56385 0.468592 0.407992
15 1 0.975646 0.179926 0.455117
211 1 0.761587 0.084116 0.469397
487 1 0.842796 0.0538907 0.241867
99 1 0.558594 0.0598274 0.0230293
64 1 0.285732 0.107224 0.0657782
324 1 0.320354 0.302969 0.341635
481 1 0.168975 0.0203736 0.015855
406 1 0.670856 0.0761461 0.0609286
192 1 0.888816 0.482583 0.438969
640 1 0.36889 0.402445 0.342212
98 1 0.999373 0.0606176 0.357651
592 1 0.786966 0.475843 0.0515937
72 1 0.866283 0.245681 0.365527
435 1 0.0530558 0.383117 0.43004
582 1 0.575428 0.399162 0.0657156
744 1 0.317538 0.153535 0.126981
682 1 0.911459 0.244149 0.0415754
683 1 0.210919 0.0609705 0.228232
187 1 0.583358 0.0832785 0.150642
78 1 0.598846 0.29225 0.41816
607 1 0.595376 0.479618 0.311642
830 1 0.826452 0.237863 0.181433
583 1 0.458823 0.344055 0.415941
22 1 0.570648 0.345628 0.232787
166 1 0.625915 0.477798 0.0260297
294 1 0.0420003 0.222262 0.318534
551 1 0.417964 0.179154 0.448406
539 1 0.220289 0.333557 0.381961
182 1 0.677782 0.231981 0.0885574
18 1 0.464152 0.298387 0.275239
355 1 0.631328 0.264268 0.316924
295 1 0.263144 0.233758 0.0521677
553 1 0.642186 0.193937 0.420377
446 1 0.762087 0.283352 0.0731067
149 1 0.587444 0.390429 0.36948
450 1 0.488101 0.136773 0.290682
31 1 0.581314 0.229361 0.0600108
792 1 0.788046 0.325354 0.201027
233 1 0.950741 0.270206 0.142861
452 1 0.0212235 0.361261 0.306091
381 1 0.881675 0.298265 0.294041
88 1 0.134592 0.496807 0.115359
341 1 0.0609402 0.111982 0.492182
631 1 1.00473 0.0228607 0.475292
405 1 0.690158 0.266961 0.395684
513 1 0.219548 0.217937 0.184347
210 1 0.703891 0.474212 0.422477
362 1 0.351283 0.361119 0.447525
754 1 0.120597 0.307361 0.0396492
301 1 0.400389 0.365041 0.260451
824 1 0.306563 0.281637 0.443724
628 1 0.0306709 0.429143 0.251161
492 1 0.453023 0.212917 0.233216
218 1 0.510366 0.201836 0.11732
730 1 0.80241 0.0805827 0.388322
789 1 0.949823 0.0276926 0.235456
574 1 0.507106 0.307036 0.0497838
73 1 0.919478 0.485016 0.235726
860 1 0.494572 0.0515771 0.154923
444 1 0.0968869 0.0174808 0.176081
568 1 0.877228 0.0364401 0.316266
835 1 0.707373 0.112027 0.159725
853 1 0.154198 0.319561 0.453329
183 1 0.845943 0.192758 0.0604836
454 1 0.669441 0.408345 0.0255586
248 1 0.117401 0.0474752 0.267962
144 1 0.684987 0.372734 0.421812
817 1 0.2913 0.039554 0.266689
208 1 0.884426 0.445002 0.31711
805 1 0.286499 0.12604 0.385136
422 1 0.369856 0.45151 0.447896
569 1 0.402082 0.273758 0.454271
83 1 0.989167 0.472095 0.41842
447 1 0.155684 0.41147 0.169314
857 1 0.601611 0.0744316 0.426028
420 1 0.761187 0.31891 0.446386
363 1 0.383226 0.0826374 0.478706
469 1 0.491885 0.245794 0.451977
535 1 0.919182 0.0246408 0.119661
112 1 0.497264 0.443678 0.271292
619 1 0.176442 0.290397 0.244894
185 1 0.697146 0.197236 0.214271
423 1 0.539214 0.00948376 0.370402
509 1 0.217974 0.241589 0.457461
609 1 0.972429 0.117193 0.277251
629 1 0.246441 -0.00618586 0.0871469
625 1 0.248735 0.136747 0.188492
199 1 0.314313 0.214827 0.278399
515 1 0.782221 0.289861 0.356337
449 1 0.521106 0.490989 0.0280476
329 1 0.228715 0.0420529 0.434465
662 1 0.487118 0.0637567 0.254794
434 1 0.177644 0.155736 0.443468
748 1 0.878352 0.127813 0.385296
841 1 0.315967 0.212987 0.502057
854 1 0.220558 0.386339 0.477872
91 1 0.0949241 0.19965 0.474037
65 1 0.495664 0.476194 0.120227
855 1 0.757975 0.0202662 0.0671231
309 1 0.0439186 0.484663 0.485537
16 1 0.98989 0.358433 0.501247
356 1 0.434696 0.359564 0.0041292
478 1 0.846832 0.381728 0.479934
602 1 0.797557 0.0699138 0.00534318
780 1 0.448684 0.401775 0.488872
798 1 0.582457 0.160178 0.00398151
325 1 0.104933 0.409186 0.0368914
93 1 0.646112 0.310077 0.491314
352 1 0.18567 0.205295 0.637871
432 1 0.0375599 0.110028 0.939641
278 1 0.944702 0.114712 0.929477
673 1 0.0694375 0.102249 0.735107
490 1 0.673229 0.0332442 0.690237
172 1 0.633542 0.200218 0.592565
555 1 0.234462 0.157076 0.527355
771 1 0.604766 0.00567703 0.747413
671 1 0.76383 -0.000324841 0.939256
399 1 0.800572 0.354456 0.946946
29 1 0.321444 0.0445979 0.790736
615 1 0.595368 0.188819 0.679223
311 1 0.617283 0.314006 0.827733
471 1 0.422282 0.127921 0.552155
770 1 0.206426 0.368127 0.837125
105 1 0.291527 0.0538869 0.873627
223 1 0.964079 0.358431 0.73885
40 1 0.773442 0.473045 0.54004
224 1 0.484486 0.139745 0.636019
337 1 0.650299 0.0262858 0.500857
212 1 0.896665 0.015711 0.537304
217 1 0.328859 0.200344 0.987349
742 1 0.452124 0.0254163 0.583995
214 1 0.0851211 0.161738 0.851849
143 1 0.541193 0.0422192 0.941225
314 1 0.913946 0.424622 0.708934
777 1 0.196646 0.324808 0.622507
425 1 0.846187 0.223285 0.779266
418 1 0.0676835 0.228097 0.637928
806 1 0.0651879 0.323068 0.501833
84 1 0.475784 0.370739 0.605903
35 1 0.57625 0.014615 0.662669
699 1 0.902678 0.142394 0.852493
856 1 0.0917342 0.374046 0.808221
317 1 0.60594 0.33124 0.581993
193 1 0.792574 0.386601 0.668423
565 1 0.387549 0.385723 0.704344
702 1 0.154069 -0.000594926 0.551142
719 1 0.347955 0.251231 0.869983
505 1 0.659777 0.426467 0.672159
546 1 0.989198 0.292035 0.913549
61 1 0.14686 0.250364 0.574043
665 1 0.991314 0.353408 0.815765
117 1 0.856377 0.438951 0.970138
821 1 0.91108 0.329741 0.634244
107 1 0.908335 0.0785118 0.600387
44 1 0.885742 0.25454 0.551461
239 1 0.501433 0.272896 0.703839
276 1 0.74564 0.469532 0.642414
457 1 0.913347 0.420977 0.543665
370 1 0.795204 0.0813408 0.882854
339 1 0.109671 0.308291 0.626879
128 1 0.27959 0.169641 0.907039
414 1 0.230651 0.285481 0.537423
134 1 0.905741 0.306404 0.799122
296 1 0.435155 0.39715 0.900408
376 1 0.0518933 0.032546 0.545013
497 1 0.166587 0.407794 0.557307
632 1 0.937313 0.224159 0.725994
410 1 0.975552 0.269147 0.514579
550 1 0.321954 0.162462 0.605004
346 1 0.447325 0.224212 0.572783
757 1 0.186751 0.288114 0.794615
427 1 0.0633023 0.378918 0.620763
800 1 0.238448 0.37787 0.918569
831 1 0.591878 0.218577 0.833509
825 1 0.334464 0.404352 0.896148
525 1 0.70743 0.364823 0.605661
735 1 0.81781 0.0440728 0.657286
68 1 0.745903 0.290422 0.913367
709 1 0.230592 0.486578 0.766327
638 1 0.364483 0.364226 0.80024
197 1 0.492904 0.296326 0.935897
529 1 0.434439 0.308696 0.523409
57 1 0.014174 0.302976 0.60985
236 1 0.498297 0.180415 0.915423
476 1 0.367647 0.497423 0.652683
474 1 0.916947 0.241608 0.867161
862 1 0.118665 0.00988565 0.942601
374 1 0.892858 0.100259 0.686106
605 1 0.719967 0.0870094 0.923994
205 1 0.284873 0.268379 0.62093
437 1 0.775634 0.259152 0.592272
724 1 0.0573062 0.472452 0.59887
758 1 0.551952 0.0540884 0.51738
273 1 0.417534 0.0177026 0.682113
159 1 0.468604 0.0123247 0.899172
302 1 0.143076 0.383444 0.945566
392 1 0.381914 0.0620016 0.876292
663 1 0.646665 0.472051 0.57826
258 1 0.76961 0.346048 0.551574
698 1 0.6753 0.11918 0.629403
596 1 0.478767 0.0909115 0.986897
365 1 0.929183 0.464865 0.882462
519 1 0.594896 0.120765 0.80123
343 1 0.836061 0.133085 0.743549
202 1 0.624101 0.148295 0.897831
345 1 0.806707 0.146043 0.647921
577 1 0.855864 0.123615 0.536587
69 1 0.289289 0.119901 0.979251
263 1 0.4986 0.487117 0.893019
809 1 0.703558 0.185567 0.752703
332 1 0.424133 0.135315 0.914417
816 1 0.752756 0.205392 0.683846
740 1 0.22395 0.0467437 0.942661
738 1 0.165341 0.055666 0.785478
304 1 0.121256 0.451297 0.887215
385 1 0.290112 0.290592 0.809688
433 1 0.324298 0.0391938 0.682742
204 1 0.371148 0.452663 0.563853
544 1 0.0507068 0.373896 0.911739
23 1 0.964513 0.00289937 0.616985
135 1 0.608909 0.270816 0.740957
30 1 0.931881 0.489949 0.627721
701 1 0.951064 0.464321 0.785749
473 1 0.621356 0.0492783 0.587492
753 1 0.819711 0.18998 0.890229
101 1 0.8572 0.295138 0.702548
274 1 0.496242 0.231022 0.822214
162 1 0.976561 0.150451 0.622815
759 1 0.0251445 0.182639 0.694698
10 1 0.688764 0.197691 0.850899
749 1 0.0500182 0.0978072 0.624955
322 1 0.94895 0.115284 0.521069
849 1 0.527766 0.244652 0.620219
41 1 0.272067 0.402683 0.788833
443 1 0.377354 0.244733 0.63127
170 1 0.88843 0.169748 0.967878
727 1 0.254901 0.291907 0.925283
113 1 0.703031 0.338774 0.817504
567 1 0.44849 0.311166 0.856518
424 1 0.614939 0.410366 0.779059
594 1 0.749636 0.176256 0.558391
397 1 0.726258 0.450913 0.9586
611 1 0.522121 0.386102 0.963446
491 1 0.562191 0.408567 0.846661
779 1 0.583742 0.409711 0.600987
47 1 0.0760251 0.0434283 0.855445
472 1 0.721197 0.0430607 0.778594
440 1 0.132707 0.139422 0.660617
648 1 0.0251713 0.419081 0.700697
87 1 0.472044 0.422628 0.715227
327 1 0.27017 0.133987 0.713459
55 1 0.67661 0.432567 0.846869
106 1 0.598572 0.502602 0.819349
110 1 0.338202 0.292563 0.545245
765 1 0.0261387 0.19052 0.546121
307 1 0.697133 0.410195 0.519967
288 1 0.197227 0.107044 0.86579
564 1 0.248732 0.421688 0.583876
188 1 0.955383 0.132309 0.777096
728 1 0.635632 0.115527 0.712654
599 1 0.833919 0.385658 0.861194
646 1 0.00264129 0.0956409 0.85013
364 1 0.052625 0.464835 0.78789
268 1 0.320632 0.484334 0.951502
216 1 0.802453 0.453478 0.796665
501 1 0.651592 0.065178 0.836687
503 1 0.391477 0.104436 0.64857
726 1 0.258551 0.391327 0.679892
412 1 0.643033 0.261666 0.948599
353 1 0.922155 0.354277 0.88319
200 1 0.449883 0.0910391 0.804186
556 1 0.329113 0.292812 0.731548
803 1 0.401152 0.467993 0.827214
138 1 0.623365 0.368399 0.928522
391 1 0.120935 0.275094 0.71892
284 1 0.205689 0.498131 0.577315
571 1 0.748819 0.391449 0.748285
409 1 0.174899 0.208433 0.858769
549 1 0.756822 0.240143 0.818503
786 1 0.81016 0.0368491 0.750568
783 1 0.566018 0.136051 0.605294
361 1 0.346454 0.152163 0.83544
261 1 0.984708 0.399103 0.627227
456 1 0.0895299 0.26898 0.865114
300 1 0.00657527 0.20019 0.924093
814 1 0.730897 0.288269 0.72773
51 1 0.749712 0.140732 0.812581
445 1 0.234232 0.299036 0.698781
122 1 0.987636 0.0121374 0.78706
395 1 0.148395 0.116722 0.565803
318 1 0.23006 0.103057 0.637396
823 1 0.701835 0.495955 0.760789
254 1 0.739476 0.100341 0.704887
97 1 0.400537 0.221379 0.780404
590 1 0.837723 0.457629 0.625126
667 1 0.350191 0.321449 0.939854
484 1 0.0280174 0.295163 0.729282
768 1 0.638201 0.480694 0.915631
3 1 0.51465 0.14682 0.724437
807 1 0.643842 0.0828737 0.978432
74 1 0.293003 0.0565596 0.57765
109 1 0.00720341 0.24335 0.804304
313 1 0.140217 0.203 0.773369
741 1 0.379712 0.11148 0.74767
151 1 0.202217 0.174433 0.960928
547 1 0.75756 0.0495842 0.577626
650 1 0.8731 0.219215 0.649333
500 1 0.240076 0.214385 0.785583
226 1 0.632733 0.272103 0.655547
851 1 0.51519 0.355558 0.773644
801 1 0.878088 0.271329 0.950668
511 1 0.172929 0.258418 0.944401
586 1 0.293158 0.458146 0.504998
734 1 0.343334 0.391612 0.99144
680 1 0.57745 0.218581 0.507481
847 1 0.793059 0.209369 0.974648
252 1 0.382751 0.741305 0.252923
430 1 0.053223 0.719348 0.378271
461 1 0.695385 0.989583 0.355198
507 1 0.220867 0.783019 0.188967
264 1 0.546338 0.531911 0.4963
371 1 0.149655 0.894954 0.0728286
774 1 0.563778 0.515499 0.218494
764 1 0.427079 0.800292 0.180923
419 1 0.292395 0.696194 0.358423
293 1 0.21216 0.952563 0.442669
829 1 0.574945 0.577246 0.380829
279 1 0.0555304 0.830963 0.423288
390 1 0.85823 0.753967 0.179224
761 1 0.790236 0.592003 0.0817695
176 1 0.0208964 0.949393 0.429369
470 1 0.841208 0.725663 0.330906
77 1 0.932765 0.548762 0.100556
489 1 0.929078 0.8161 0.475684
787 1 0.523254 0.785909 0.105551
616 1 0.493184 0.550971 0.418754
404 1 0.954831 0.739288 0.338964
344 1 0.200705 0.720997 0.122814
1 1 0.0967594 0.899002 0.157277
167 1 0.115069 0.595112 0.219952
393 1 0.255576 0.809218 0.477331
79 1 0.264027 0.789344 0.0514113
271 1 0.894396 0.606762 0.201596
336 1 0.252263 0.618345 0.0775231
179 1 0.211088 0.625152 0.405905
784 1 0.860174 0.823498 0.00580758
247 1 0.401961 0.856672 0.465317
270 1 0.741104 0.816967 0.190839
606 1 0.546746 0.845221 0.407268
174 1 0.256671 0.553217 0.295622
359 1 0.313252 0.624942 0.297313
692 1 0.0317579 0.96301 -0.000824409
504 1 0.659612 0.705874 0.481894
775 1 0.599578 0.80884 0.0149878
358 1 0.0930657 0.573164 0.129148
413 1 0.974427 0.707652 0.113625
320 1 0.602825 0.949165 0.240914
303 1 0.0938223 0.658568 0.0549522
483 1 0.655067 0.924431 0.160869
48 1 0.358797 0.963496 0.163655
438 1 0.880219 0.718574 0.430552
94 1 0.7256 0.680354 0.15928
712 1 0.196302 0.862644 0.142491
776 1 0.846482 0.681155 0.236666
593 1 0.0489503 0.745222 0.0234584
257 1 0.949462 0.977154 0.351359
240 1 0.842774 0.540465 0.249105
81 1 0.896978 0.946309 0.468464
280 1 0.869987 0.504087 0.0412022
407 1 0.491592 0.877099 0.28918
275 1 0.432014 0.709533 0.0471781
732 1 0.811279 0.745336 0.469675
125 1 0.396806 0.828465 0.372492
587 1 0.241815 0.55129 0.0120613
689 1 0.68544 0.822405 0.338234
342 1 0.900618 0.940396 0.173903
790 1 0.655417 0.621818 0.448934
563 1 0.461992 0.536444 0.199501
647 1 0.691527 0.881493 0.233831
92 1 0.412177 0.592545 0.270672
554 1 0.688034 0.672523 0.304425
618 1 0.869372 0.869976 0.302163
541 1 0.715458 0.531167 0.497893
591 1 0.600105 0.544423 0.0901175
56 1 0.974737 0.688398 0.432285
82 1 0.110324 0.769081 0.18147
389 1 0.682349 0.627306 0.105836
45 1 0.821547 0.868242 0.146529
718 1 0.206021 0.70967 0.389012
697 1 0.624686 0.782315 0.420876
846 1 0.123885 0.681488 0.328179
259 1 0.39976 0.910743 0.249398
230 1 0.573854 0.837751 0.282534
635 1 0.761231 0.79246 0.390314
769 1 0.845731 0.533142 0.130043
441 1 0.367438 0.645381 0.0272324
118 1 0.0873612 0.962256 0.497394
840 1 0.836964 0.94833 0.237388
828 1 0.13262 0.952745 0.40179
576 1 0.437712 0.849441 0.101778
59 1 0.463861 0.608272 0.348676
488 1 0.575379 0.948082 0.461788
558 1 0.111618 0.591213 0.323387
177 1 0.52695 0.716162 0.428733
545 1 0.259572 0.523336 0.119826
36 1 0.751989 0.992833 0.205661
526 1 0.651539 0.577624 0.186582
584 1 0.740979 0.761708 0.301735
838 1 0.837401 0.959693 0.105069
562 1 0.454805 0.620644 0.467694
453 1 0.928371 0.867406 0.107878
228 1 0.886083 0.743111 0.0802602
21 1 0.676619 0.753026 0.190482
530 1 0.158858 0.522935 0.0338424
421 1 0.739638 0.920067 0.131212
600 1 0.344697 0.975418 0.0731349
53 1 0.670302 0.672382 0.0069747
603 1 0.286598 0.741268 0.240027
349 1 0.259252 0.676362 0.1947
523 1 0.347967 0.5599 0.466743
804 1 0.727682 0.551568 0.264709
238 1 0.985357 0.571858 0.178972
588 1 0.283114 0.866229 0.113412
791 1 0.442457 0.803589 0.273801
398 1 0.107434 0.811531 0.351147
416 1 0.791026 0.854368 0.0539855
377 1 0.515453 0.778728 0.231127
265 1 0.390881 0.665029 0.410361
845 1 0.285872 0.982599 0.365414
688 1 0.518208 0.726263 0.310544
139 1 0.0202071 0.83244 0.135727
164 1 0.770385 0.857872 0.288339
506 1 0.973958 0.826388 0.0449152
675 1 0.983808 0.656826 0.337778
80 1 0.076328 0.56804 0.486435
163 1 0.0326497 0.634933 0.235305
290 1 0.0707682 0.518624 0.332805
548 1 0.393671 0.52161 0.107804
448 1 0.00879547 0.821772 0.303696
864 1 0.633144 0.526296 0.451882
739 1 0.324317 0.830186 0.229075
522 1 0.178997 0.785876 0.0568252
495 1 0.478876 0.963207 0.220337
71 1 0.756149 0.648281 0.252142
63 1 0.325915 0.556825 0.219666
198 1 0.0547026 0.519333 0.191701
142 1 0.470811 0.673517 0.243055
152 1 0.352818 0.816881 0.0237847
285 1 0.387247 0.730581 0.350275
209 1 0.539691 0.706353 0.160764
168 1 0.612755 0.918128 0.388884
642 1 0.793757 0.669502 0.388142
652 1 0.151061 0.527256 0.399046
681 1 0.0319172 0.871085 0.214017
181 1 0.603723 0.801911 0.177122
700 1 0.791881 0.509604 0.447688
169 1 0.0208547 0.719298 0.282293
100 1 0.211334 0.858781 0.230599
281 1 0.862169 0.622028 0.0132368
656 1 0.217893 0.840331 0.325895
659 1 0.438519 0.968116 0.128982
716 1 0.74566 0.534541 0.146251
133 1 0.346209 0.772216 0.139603
542 1 0.803933 0.955781 0.00368112
96 1 0.933272 0.734826 0.235797
201 1 0.174069 0.755153 0.303114
552 1 0.627253 0.609661 0.286762
401 1 0.356529 0.601451 0.124443
442 1 0.135331 0.683161 0.213384
173 1 0.503373 0.925715 0.0589331
289 1 0.0233455 0.607767 0.0732759
766 1 0.574871 0.866077 0.084288
622 1 0.910509 0.972974 0.0393832
8 1 0.675567 0.853516 0.0823542
669 1 0.58809 0.948476 0.00416911
249 1 0.0425589 0.892398 0.0715745
89 1 0.631188 0.763149 0.293179
627 1 0.329013 0.506379 0.0468794
66 1 0.659884 0.863128 0.442671
60 1 0.302409 0.517281 0.368781
641 1 0.044357 0.969826 0.267417
260 1 0.490112 0.590471 0.120678
747 1 0.0996595 0.796488 0.0826135
111 1 0.45089 0.759302 0.478498
396 1 0.0518861 0.577476 0.394928
67 1 0.139323 0.528903 0.273781
241 1 0.557248 0.612381 0.188416
676 1 0.889114 0.663318 0.124574
400 1 0.376515 0.995744 0.263437
664 1 0.128049 0.641815 0.457472
566 1 0.290511 0.943556 0.247784
39 1 0.453573 0.561399 0.0258382
189 1 0.204322 0.589407 0.148732
717 1 0.507569 0.504909 0.341733
482 1 0.298793 0.711561 0.07229
367 1 0.705616 0.585699 0.351106
695 1 0.767797 0.969404 0.303731
222 1 0.945981 0.555506 0.32889
604 1 0.533562 0.591025 0.289954
225 1 0.961257 0.928004 0.26196
543 1 0.647348 0.710948 0.0935631
145 1 0.335096 0.765282 0.435614
464 1 0.223628 0.951904 0.180317
415 1 0.853731 0.874636 0.471245
626 1 0.150501 0.959326 0.238565
195 1 0.137023 0.85387 0.27421
129 1 0.426654 0.703958 0.149407
175 1 0.593435 0.688125 0.248712
70 1 0.81412 0.605018 0.176785
6 1 0.705866 0.712032 0.396026
312 1 0.753839 0.753272 0.121816
649 1 0.199619 0.861938 0.414435
778 1 0.190478 0.627343 0.00810565
178 1 0.792765 1.00187 0.425451
32 1 0.351937 0.653133 0.215001
660 1 0.688577 0.956001 0.438056
810 1 0.0325857 0.712677 0.186445
579 1 0.965472 0.884697 0.43173
532 1 0.223857 0.648339 0.306087
245 1 0.0291867 0.91998 0.34099
292 1 0.319442 0.804885 0.329068
255 1 0.554713 0.966948 0.128463
220 1 0.457946 0.84481 0.00465122
378 1 0.139866 0.761696 0.444715
465 1 0.697844 0.967938 0.00528993
333 1 0.78504 0.603234 0.455274
283 1 0.90581 0.596394 0.458429
460 1 0.371531 0.679995 0.489973
282 1 0.20032 0.509332 0.191341
781 1 0.799751 0.692903 0.0773398
147 1 0.245384 0.918742 0.00783984
520 1 0.966283 0.518871 0.0150656
601 1 0.399307 0.914946 0.0134393
636 1 0.745739 0.644077 0.0175083
350 1 0.683577 0.766826 0.0135839
737 1 0.0558763 0.696664 0.482947
387 1 0.498206 0.649452 0.0168789
171 1 0.579265 0.596098 0.0102628
674 1 0.121762 0.914135 0.57579
14 1 0.548773 0.644134 0.510588
104 1 0.981901 0.560885 0.83677
833 1 0.22785 0.681001 0.878438
608 1 0.730763 0.775374 0.600452
321 1 0.285642 0.718595 0.94732
305 1 0.0917707 0.769114 0.644271
848 1 0.459822 0.678385 0.578629
380 1 0.43932 0.803458 0.835036
612 1 0.0958387 0.961302 0.659922
323 1 0.707031 0.779491 0.704936
455 1 0.929226 0.694858 0.551141
528 1 0.646934 0.743482 0.612893
815 1 0.40316 0.635803 0.706107
797 1 0.804834 0.647667 0.922111
62 1 0.555339 0.588318 0.763559
818 1 0.841337 0.970665 0.705651
752 1 0.657093 0.64436 0.604169
403 1 0.573335 0.536592 0.60734
50 1 0.708415 0.915759 0.834842
820 1 0.449262 0.776607 0.579842
334 1 0.186652 0.655228 0.712436
657 1 0.77299 0.651524 0.831877
614 1 0.721257 0.54119 0.969332
458 1 0.445684 0.921368 0.625734
194 1 0.527352 0.941778 0.712027
795 1 0.365426 0.907344 0.906126
11 1 0.976068 0.891129 0.942706
28 1 0.0689562 0.860033 0.985116
557 1 0.912199 0.53416 0.938436
710 1 0.240726 0.518277 0.681129
85 1 0.257586 0.879572 0.596413
722 1 0.252757 0.618737 0.940262
161 1 0.513957 0.717246 0.863753
498 1 0.376602 0.989906 0.953277
157 1 0.804513 0.968699 0.859656
394 1 0.896366 0.670099 0.643149
813 1 0.493743 0.858151 0.590226
518 1 0.458854 0.559495 0.83212
246 1 0.585501 0.691008 0.706334
691 1 0.305201 0.659396 0.692917
819 1 0.466002 0.995886 0.801388
711 1 0.939458 0.822667 0.869867
219 1 0.929621 0.54826 0.564633
684 1 0.0111882 0.518549 0.677923
597 1 0.975853 0.710216 0.941826
379 1 0.940622 0.592472 0.728752
124 1 0.368719 0.695324 0.596832
383 1 0.334962 0.975733 0.6204
136 1 0.601308 0.49427 0.729818
672 1 0.27362 0.960785 0.707711
763 1 0.716501 0.851953 0.987545
76 1 0.469229 0.919946 0.880895
127 1 0.485345 0.837844 0.679627
514 1 0.542984 0.936094 0.60952
585 1 0.704845 0.761191 0.88244
154 1 0.66151 0.515557 0.670335
668 1 0.818314 0.964417 0.524899
751 1 0.316367 0.519831 0.780279
291 1 0.223289 0.734983 0.653623
634 1 0.0961268 0.640537 0.627364
782 1 0.39011 0.546168 0.965943
408 1 0.0683108 0.698707 0.744283
502 1 0.948283 0.864459 0.713891
206 1 0.791786 0.595794 0.561401
7 1 0.613428 0.764259 0.761761
725 1 0.525124 0.941593 0.942974
661 1 0.184934 0.583527 0.636338
837 1 0.13951 0.738055 0.706287
496 1 0.479108 0.642605 0.781453
705 1 0.582084 0.880301 0.930984
708 1 0.102858 0.828274 0.551341
451 1 0.920924 0.674905 0.862179
499 1 0.767864 0.890897 0.917986
298 1 0.278385 0.716126 0.80592
802 1 0.362892 0.715637 0.820892
262 1 0.692411 0.864984 0.522936
477 1 0.891723 0.583337 0.832872
533 1 0.612335 0.706704 0.864235
250 1 0.223253 0.582844 0.50916
37 1 0.573075 0.795414 0.603565
572 1 0.134232 0.611463 0.543644
613 1 0.0123339 0.617255 0.633405
156 1 0.924455 0.622547 0.937789
485 1 0.745962 0.706606 0.535795
685 1 0.864723 0.584492 0.647008
33 1 0.859755 0.887881 0.781222
253 1 0.574285 0.684272 0.613
861 1 0.624257 0.869018 0.617882
231 1 0.0508559 0.560206 0.576483
693 1 0.493116 0.840012 0.770042
508 1 0.816604 0.753552 0.572023
360 1 0.537928 0.800724 0.835906
536 1 0.498978 0.588842 0.946137
108 1 0.693561 0.553439 0.877836
643 1 0.391848 0.818756 0.923078
17 1 0.06923 0.852435 0.678236
479 1 0.854673 0.8608 0.656694
269 1 0.93486 0.757172 0.636604
696 1 0.264234 0.978247 0.809584
746 1 0.630326 0.802697 0.913495
811 1 0.783357 0.869463 0.582921
203 1 0.90031 1.00367 0.763526
743 1 0.501538 0.632569 0.673447
375 1 0.705367 0.636327 0.910423
121 1 0.00277474 0.832911 0.567723
773 1 0.774554 0.695573 0.624734
655 1 0.905185 0.669036 0.749114
86 1 0.16003 0.820821 0.660914
858 1 0.582405 1.0007 0.849706
330 1 0.0673503 0.952419 0.871221
386 1 0.00332352 0.927963 0.656482
354 1 0.397123 0.907896 0.707415
186 1 0.0794939 0.930744 0.785005
713 1 0.660628 0.92257 0.715806
141 1 0.304607 0.721882 0.54031
788 1 0.704588 0.855631 0.667583
755 1 0.0653891 0.613455 0.960371
244 1 0.722987 0.962392 0.570243
190 1 0.76854 0.949453 0.665569
54 1 0.827655 0.771395 0.852629
521 1 0.913844 0.967004 0.846218
844 1 0.984165 0.689064 0.780191
462 1 0.0105128 0.735148 0.679598
234 1 0.492214 0.931257 0.539329
180 1 0.0894081 0.547148 0.829311
843 1 0.379237 0.918289 0.537326
537 1 0.778414 0.566151 0.665891
760 1 0.981551 0.649053 0.997115
531 1 0.584229 0.6679 0.788721
633 1 0.87663 0.894421 0.929002
328 1 0.826532 0.769901 0.658227
373 1 0.415156 0.888488 0.803482
494 1 0.996688 0.801922 0.954739
859 1 0.35116 0.590519 0.844306
516 1 0.92898 0.757358 0.996073
316 1 0.849597 0.965 0.618358
5 1 0.739262 0.956154 0.750529
480 1 0.17078 0.702837 0.783099
26 1 0.310684 0.799634 0.768556
842 1 0.0936238 0.79929 0.890582
243 1 0.997721 0.82482 0.781977
621 1 0.481476 0.517001 0.698054
382 1 0.778458 0.855809 0.808987
527 1 0.13435 0.727083 0.542823
836 1 0.682471 0.668279 0.71401
570 1 0.368983 0.982739 0.831065
384 1 0.69297 0.825421 0.784358
27 1 0.835548 0.666517 0.523373
417 1 0.0435638 0.495323 0.906864
534 1 0.611734 0.607607 0.678326
319 1 0.386485 0.744343 0.673886
620 1 0.287268 0.510355 0.598897
207 1 0.345071 0.633982 0.935528
610 1 0.980351 0.922721 0.771179
687 1 0.29964 0.640511 0.551626
703 1 0.176978 0.811285 0.799881
299 1 0.796233 0.511286 0.739433
796 1 0.138639 0.721302 0.886879
772 1 0.823605 0.669316 0.69236
140 1 0.0777546 0.596647 0.730265
52 1 0.473021 0.527605 0.55911
357 1 0.192866 0.82855 0.897978
560 1 0.637925 0.79983 0.522098
266 1 0.198101 0.936451 0.64191
670 1 0.243387 0.635546 0.792447
131 1 0.243853 0.861056 0.79287
745 1 0.204207 0.925334 0.916819
42 1 0.303309 0.862109 0.959535
43 1 0.609726 0.966098 0.547242
103 1 0.113844 0.684407 0.967056
388 1 0.646214 0.561665 0.538122
160 1 0.244401 0.574675 0.858444
153 1 0.428719 0.642491 0.851559
229 1 0.76462 0.795054 0.947028
756 1 0.143675 0.779461 0.957018
287 1 0.307832 0.777451 0.617438
653 1 0.836402 0.524674 0.876517
723 1 0.47583 0.756947 0.746378
90 1 0.310045 0.871953 0.71467
575 1 0.0819808 0.795425 0.802403
785 1 0.915512 0.935614 0.674734
237 1 0.323559 0.91661 0.799394
130 1 0.166077 0.869372 0.981545
267 1 0.996318 0.992478 0.913392
123 1 0.885533 0.819935 0.577917
467 1 0.0441634 0.717987 0.865292
326 1 0.36403 0.58707 0.63138
762 1 0.561996 0.728336 0.961489
213 1 0.515277 0.784038 0.92133
512 1 0.6599 0.582491 0.77357
34 1 0.711788 0.706395 0.799064
95 1 0.983953 0.595612 0.502327
38 1 0.57635 0.841228 0.690736
24 1 0.823888 0.60284 0.746375
102 1 0.987344 0.931189 0.505854
630 1 0.657644 0.989848 0.903887
411 1 0.13291 0.498303 0.521127
46 1 0.0372629 0.625795 0.830499
272 1 0.226962 0.760967 0.570042
580 1 0.568118 0.852515 0.535702
12 1 0.180737 0.933568 0.744723
654 1 0.181459 0.836909 0.508738
402 1 0.620336 0.91074 0.793471
578 1 0.300375 0.899415 0.512653
338 1 0.531425 0.727126 0.543818
297 1 0.525757 0.624025 0.844735
2 1 0.88074 0.520161 0.753036
679 1 0.919364 0.915975 0.562518
637 1 0.386793 0.609776 0.537827
721 1 0.349461 0.825456 0.549023
559 1 0.493443 0.826822 0.506902
348 1 0.812013 0.544796 0.960856
