ITEM: TIMESTEP
200
ITEM: NUMBER OF ATOMS
864
ITEM: BOX BOUNDS pp pp pp
0.0000000000000000e+00 3.1559999999999999e+01
0.0000000000000000e+00 3.1559999999999999e+01
0.0000000000000000e+00 3.1559999999999999e+01
ITEM: ATOMS id type xs ys zs
527 1 0.909077 0.498654 0.253383
519 1 0.576619 0.496088 0.244653
7 1 0.256096 -0.00575674 0.0816091
4 1 -0.00604864 0.0792346 0.082128
216 1 0.820787 0.421039 0.431624
583 1 0.247345 0.498631 0.402103
215 1 0.898385 0.338341 0.414352
8 1 0.164221 0.0873293 0.0765848
665 1 0.673537 0.508212 0.499781
282 1 0.748129 0.422759 0.505083
587 1 0.41062 0.495993 0.418097
12 1 0.335992 0.0785595 0.0821624
214 1 0.90175 0.418927 0.345825
22 1 0.91902 0.0884865 -0.00397059
505 1 0.00297448 0.498057 0.170358
16 1 0.499565 0.0854894 0.0834938
453 1 0.832428 0.490476 0.0136836
513 1 0.333112 0.503922 0.165947
281 1 0.660884 0.32866 0.505644
20 1 0.663594 0.0918134 0.0815138
273 1 0.336679 0.33135 0.490967
254 1 0.587062 0.244205 0.507041
213 1 0.821118 0.32409 0.332659
24 1 0.837634 0.0814397 0.0893905
269 1 0.165067 0.328352 0.498677
286 1 0.915718 0.427084 0.498522
27 1 0.0828598 0.178575 0.090954
28 1 0.993738 0.24606 0.0880219
595 1 0.739778 0.51111 0.420255
285 1 0.833604 0.332063 0.504879
31 1 0.24518 0.164662 0.0785956
32 1 0.160171 0.261701 0.0769379
23 1 0.919164 -0.00512073 0.0806445
278 1 0.581409 0.422237 0.492668
35 1 0.410747 0.168367 0.0813693
36 1 0.32514 0.240203 0.0892969
277 1 0.505312 0.328305 0.501
577 1 0.00313268 0.512491 0.333861
39 1 0.576426 0.16006 0.0764342
40 1 0.491654 0.242206 0.0835588
53 1 0.162504 0.341562 -0.0149266
443 1 0.421955 0.500616 0.0708517
43 1 0.748939 0.15961 0.0816596
44 1 0.67131 0.244731 0.0781869
581 1 0.170577 0.505624 0.328283
45 1 0.829334 0.161947 0.00210869
47 1 0.908123 0.164119 0.0759525
48 1 0.82286 0.240102 0.0838731
525 1 0.828992 0.497767 0.179585
197 1 0.165713 0.329683 0.328727
51 1 0.0814971 0.342603 0.0821404
52 1 0.993391 0.408547 0.0945317
265 1 -0.0149077 0.328118 0.489785
447 1 0.590804 0.513371 0.0803425
55 1 0.239769 0.325097 0.101716
56 1 0.158543 0.423508 0.0833283
196 1 1.00387 0.410673 0.405925
195 1 0.0823032 0.339708 0.422354
59 1 0.420844 0.333992 0.0894355
60 1 0.338032 0.417237 0.0878007
435 1 0.0857431 0.503951 0.0889978
194 1 0.0867736 0.424138 0.344194
63 1 0.593523 0.320561 0.0762881
64 1 0.519753 0.431542 0.0840483
509 1 0.163886 0.507 0.176776
523 1 0.740267 0.493766 0.251171
67 1 0.750263 0.337585 0.0896352
68 1 0.658139 0.416685 0.085221
155 1 0.416807 0.00379945 0.41142
193 1 0.998329 0.323175 0.335307
71 1 0.909837 0.321383 0.0987613
72 1 0.828746 0.414917 0.0986888
50 1 0.0780294 0.422695 -0.00752623
74 1 0.0839478 0.0881761 0.1579
212 1 0.659674 0.420305 0.42143
76 1 -0.00292806 0.0908013 0.250143
211 1 0.748234 0.330371 0.426464
78 1 0.260211 0.0932216 0.16957
210 1 0.742046 0.413256 0.341716
80 1 0.165527 0.0817434 0.244962
209 1 0.667557 0.326996 0.325961
82 1 0.419106 0.078358 0.168056
208 1 0.49534 0.415185 0.420748
84 1 0.33531 0.0785857 0.245617
207 1 0.583571 0.333605 0.422587
86 1 0.594305 0.0975722 0.169673
192 1 0.817898 0.248383 0.41174
88 1 0.502259 0.0775672 0.251775
206 1 0.581216 0.412635 0.339195
90 1 0.743352 0.0870574 0.165467
205 1 0.491667 0.325046 0.325397
92 1 0.665134 0.0827535 0.258233
153 1 0.332848 -0.00149404 0.327616
94 1 0.915933 0.0773606 0.168427
49 1 1.00014 0.337527 -0.00360149
96 1 0.824909 0.0824109 0.250228
97 1 0.99905 0.158927 0.162285
98 1 0.0868188 0.267888 0.169658
99 1 0.0818981 0.155225 0.242259
100 1 1.0067 0.228085 0.242658
101 1 0.171965 0.167367 0.160047
102 1 0.253096 0.248528 0.180629
103 1 0.260376 0.161386 0.251272
104 1 0.16021 0.239675 0.247313
105 1 0.335992 0.165605 0.161075
106 1 0.417301 0.24581 0.169074
107 1 0.416177 0.156738 0.242901
108 1 0.338667 0.241544 0.247957
109 1 0.500734 0.162404 0.170625
110 1 0.58422 0.248532 0.160649
111 1 0.591732 0.169512 0.247524
112 1 0.505718 0.25132 0.243669
113 1 0.67208 0.16933 0.159199
114 1 0.74195 0.257625 0.159788
115 1 0.746284 0.158293 0.239824
116 1 0.674348 0.248472 0.249811
117 1 0.837105 0.154317 0.165025
118 1 0.91269 0.248815 0.177115
119 1 0.906127 0.161043 0.249334
120 1 0.823736 0.242351 0.236962
121 1 -0.00984159 0.326348 0.181055
122 1 0.0767566 0.413535 0.167894
123 1 0.0744778 0.336078 0.26118
124 1 0.996265 0.419296 0.261545
125 1 0.167046 0.343513 0.180327
126 1 0.252201 0.426933 0.168624
127 1 0.258154 0.33667 0.256234
128 1 0.178205 0.416781 0.255491
129 1 0.334563 0.326523 0.16811
130 1 0.421988 0.415732 0.165658
131 1 0.410657 0.325475 0.23921
132 1 0.330777 0.422035 0.242607
133 1 0.504292 0.325547 0.155061
134 1 0.576537 0.411568 0.176626
135 1 0.579874 0.32904 0.251407
136 1 0.494392 0.405605 0.254235
137 1 0.667945 0.334532 0.161324
138 1 0.747757 0.416256 0.178864
139 1 0.747652 0.334012 0.257137
140 1 0.660769 0.411684 0.250428
141 1 0.821597 0.334365 0.176495
142 1 0.9263 0.416032 0.178841
143 1 0.91348 0.326839 0.254171
144 1 0.833316 0.407619 0.264063
204 1 0.330133 0.411001 0.413903
146 1 0.0736178 0.0789964 0.333106
203 1 0.420437 0.323267 0.416769
148 1 -0.0145747 0.0885519 0.421158
202 1 0.416566 0.412831 0.333998
150 1 0.242617 0.0761098 0.324855
191 1 0.908154 0.17613 0.421389
152 1 0.171289 0.0773685 0.419061
201 1 0.334147 0.335219 0.325696
154 1 0.419938 0.0817138 0.328746
190 1 0.910987 0.242354 0.338023
156 1 0.327417 0.0878527 0.42871
515 1 0.419582 0.497077 0.245023
158 1 0.580893 0.0876518 0.337949
200 1 0.171192 0.416102 0.410045
160 1 0.500197 0.0843864 0.416134
199 1 0.24746 0.331284 0.410529
162 1 0.749028 0.0892375 0.331762
250 1 0.426518 0.249765 0.503081
164 1 0.658394 0.0880765 0.405519
189 1 0.827579 0.162397 0.333156
166 1 0.918042 0.0746047 0.326418
198 1 0.249061 0.416273 0.334437
168 1 0.839552 0.0838423 0.408262
169 1 0.996464 0.165358 0.330631
170 1 0.0906562 0.239827 0.3404
171 1 0.0828507 0.154834 0.41495
172 1 0.994899 0.243614 0.411552
173 1 0.166537 0.15647 0.335488
174 1 0.249506 0.245219 0.329863
175 1 0.243881 0.163696 0.408854
176 1 0.169304 0.246772 0.415534
177 1 0.333845 0.157417 0.333939
178 1 0.423814 0.237761 0.323199
179 1 0.417605 0.163939 0.416996
180 1 0.337589 0.238754 0.409641
181 1 0.503493 0.17213 0.332446
182 1 0.592628 0.250366 0.333839
183 1 0.582808 0.166007 0.410674
184 1 0.504844 0.249805 0.417954
185 1 0.660994 0.160108 0.330245
186 1 0.751131 0.239245 0.324194
187 1 0.749998 0.169299 0.407955
188 1 0.666689 0.251296 0.418114
151 1 0.251306 -0.000927584 0.421449
441 1 0.331973 0.503715 0.00213063
161 1 0.651214 0.000707955 0.340068
157 1 0.504351 -0.00656885 0.331171
159 1 0.580319 -0.000526227 0.431751
451 1 0.746123 0.492934 0.0924722
439 1 0.255256 0.508401 0.0779559
95 1 0.923813 0.00466809 0.248467
149 1 0.166211 -0.00656647 0.33314
77 1 0.156025 0.00165683 0.164996
145 1 -0.00542064 -0.0169399 0.343746
238 1 0.914215 0.0781534 0.504592
69 1 0.834686 0.325597 0.00761002
245 1 0.164413 0.162569 0.505206
70 1 0.914263 0.413418 0.0164028
62 1 0.592376 0.410784 -0.00481287
445 1 0.506256 0.505147 0.00175797
229 1 0.50019 0.0122148 0.507369
54 1 0.25369 0.405872 0.00272878
261 1 0.840456 0.16867 0.504298
18 1 0.747334 0.0743432 0.00627382
274 1 0.4218 0.412606 0.500474
266 1 0.0774097 0.418265 0.499915
270 1 0.246198 0.409116 0.500562
253 1 0.503747 0.170643 0.518773
25 1 1.00092 0.159484 -0.000536447
6 1 0.251227 0.0802046 0.00111476
58 1 0.424794 0.41281 -0.00266942
262 1 0.915589 0.246872 0.503435
37 1 0.491767 0.162052 0.00393864
13 1 0.507338 -0.00576544 0.0024114
29 1 0.161924 0.177242 0.00412412
432 1 0.833029 0.426323 0.924386
797 1 0.169556 0.499634 0.833729
801 1 0.339046 0.501353 0.822922
220 1 0.00324371 0.0834571 0.587982
431 1 0.909297 0.330783 0.918233
725 1 0.161319 0.494616 0.660294
799 1 0.249412 0.489513 0.923103
224 1 0.158687 0.0857831 0.592452
428 1 0.668605 0.404347 0.913511
301 1 0.504056 0.00824863 0.669141
427 1 0.748123 0.339698 0.916889
228 1 0.33301 0.0760597 0.590725
424 1 0.499617 0.420143 0.913267
219 1 0.0853994 0.00321142 0.587505
423 1 0.580505 0.32986 0.91164
232 1 0.515552 0.0778879 0.588707
241 1 -0.00740772 0.165211 0.495372
295 1 0.253055 0.0125191 0.755719
731 1 0.408 0.498336 0.736279
236 1 0.6755 0.0853271 0.582438
420 1 0.336272 0.417395 0.920522
793 1 -0.00730229 0.493014 0.829944
419 1 0.426942 0.338361 0.915792
240 1 0.836455 0.078374 0.591482
66 1 0.754723 0.414343 1.00638
741 1 0.833747 0.51448 0.662647
243 1 0.0782883 0.172633 0.588805
244 1 0.998836 0.24603 0.57898
223 1 0.245044 0.0104266 0.599939
218 1 0.0843158 0.0715256 0.495577
247 1 0.24843 0.16922 0.577835
248 1 0.164695 0.249655 0.576438
735 1 0.581882 0.5039 0.750618
671 1 0.915784 0.503401 0.588031
251 1 0.420828 0.170365 0.589828
252 1 0.337292 0.255535 0.58101
235 1 0.754509 0.00685497 0.584412
230 1 0.578527 0.0882324 0.492614
255 1 0.594365 0.166746 0.57597
256 1 0.506955 0.257337 0.58063
225 1 0.337503 0.00210417 0.501356
361 1 0.991969 0.0040179 0.833782
259 1 0.762257 0.164775 0.577607
260 1 0.672289 0.238703 0.577829
811 1 0.752175 0.496118 0.913106
813 1 0.834524 0.488607 0.826191
263 1 0.908396 0.169071 0.584938
264 1 0.826675 0.255292 0.582808
41 1 0.657147 0.163755 1.00207
795 1 0.0767553 0.496703 0.911242
267 1 0.0684344 0.334313 0.575609
268 1 0.997325 0.421933 0.574317
303 1 0.587346 0.00728815 0.747814
291 1 0.0736567 -0.00841036 0.75894
271 1 0.249446 0.327041 0.58092
272 1 0.173009 0.415511 0.579748
227 1 0.41996 0.000227854 0.589272
33 1 0.330023 0.172476 1.00716
275 1 0.418834 0.329848 0.584478
276 1 0.340528 0.412525 0.577849
231 1 0.59468 -0.00466933 0.58154
395 1 0.422816 0.159518 0.920786
279 1 0.589006 0.338766 0.584287
280 1 0.497366 0.409733 0.574392
392 1 0.159707 0.248199 0.928967
391 1 0.254714 0.168835 0.915176
283 1 0.741908 0.331996 0.5746
284 1 0.670513 0.424225 0.578186
727 1 0.247193 0.499329 0.741971
1 1 -0.00702463 0.00144075 0.995621
287 1 0.915351 0.32988 0.580792
288 1 0.831811 0.417076 0.573093
416 1 0.164368 0.415298 0.906837
290 1 0.0817496 0.0848554 0.668465
388 1 1.00726 0.251346 0.920586
292 1 0.990375 0.0848232 0.752806
415 1 0.260388 0.326543 0.913606
362 1 0.0842809 0.0749321 0.823569
293 1 0.16122 0.00946256 0.666109
294 1 0.254481 0.0892847 0.671506
387 1 0.0899432 0.170917 0.908412
296 1 0.169002 0.0889399 0.747949
2 1 0.0734505 0.084872 1.0104
366 1 0.248348 0.0804384 0.839197
412 1 0.977293 0.430558 0.926487
298 1 0.422809 0.0921761 0.665507
384 1 0.833796 0.0909586 0.916029
300 1 0.34563 0.0935137 0.754246
396 1 0.333482 0.250024 0.919288
370 1 0.420493 0.0780351 0.839827
411 1 0.0748233 0.338708 0.912897
302 1 0.594901 0.071361 0.658874
408 1 0.830783 0.25276 0.923009
304 1 0.495711 0.0894644 0.758223
407 1 0.928157 0.182432 0.920889
374 1 0.577406 0.0875172 0.829849
379 1 0.765676 8.18448e-05 0.921573
306 1 0.764546 0.0878347 0.669144
733 1 0.5016 0.490754 0.658322
308 1 0.675859 0.0782745 0.755712
297 1 0.345858 0.00692452 0.67393
378 1 0.751452 0.076846 0.839008
380 1 0.677318 0.0781111 0.92397
310 1 0.922885 0.0912746 0.662863
404 1 0.67007 0.249349 0.910907
312 1 0.841711 0.0960246 0.750878
376 1 0.498378 0.0826369 0.920872
382 1 0.91075 0.0911073 0.83737
313 1 -0.00277052 0.178414 0.673666
314 1 0.0749017 0.254548 0.665021
315 1 0.0855094 0.161714 0.748746
316 1 1.01114 0.254196 0.756379
385 1 0.00745688 0.167845 0.83771
386 1 0.0983624 0.253483 0.839979
317 1 0.165368 0.178715 0.662051
318 1 0.253318 0.255184 0.665926
319 1 0.254077 0.17351 0.751616
320 1 0.169182 0.246879 0.748709
389 1 0.172164 0.161994 0.83036
390 1 0.253377 0.247335 0.838292
321 1 0.33894 0.157957 0.670913
322 1 0.424438 0.254129 0.663665
323 1 0.421034 0.170803 0.75071
324 1 0.346639 0.245572 0.744359
393 1 0.330022 0.164936 0.833189
394 1 0.419396 0.252926 0.836238
325 1 0.508292 0.169523 0.677684
326 1 0.599604 0.245184 0.667685
327 1 0.590378 0.159496 0.746694
328 1 0.510727 0.254646 0.740038
397 1 0.505756 0.173619 0.830397
398 1 0.583465 0.243096 0.845444
329 1 0.67833 0.16688 0.661215
330 1 0.760769 0.253158 0.66311
331 1 0.749643 0.164247 0.751279
332 1 0.672974 0.235621 0.746936
401 1 0.671894 0.156393 0.83098
402 1 0.748166 0.255966 0.827152
333 1 0.846912 0.173582 0.673759
334 1 0.916434 0.254837 0.663452
335 1 0.925773 0.175618 0.758662
336 1 0.825818 0.243971 0.747521
405 1 0.827149 0.167173 0.834454
406 1 0.920942 0.251304 0.836103
337 1 0.999936 0.332339 0.674125
338 1 0.0826935 0.40643 0.652922
339 1 0.0884229 0.332857 0.749348
340 1 0.994494 0.421944 0.743167
409 1 1.00264 0.34239 0.835553
410 1 0.0831984 0.421366 0.824054
341 1 0.165768 0.326408 0.658383
342 1 0.253048 0.413104 0.658636
343 1 0.252992 0.337602 0.738802
344 1 0.176749 0.415686 0.746578
413 1 0.169916 0.330808 0.824576
414 1 0.258381 0.413701 0.833119
345 1 0.336485 0.338436 0.660637
346 1 0.419963 0.412307 0.657346
347 1 0.424064 0.325393 0.748566
348 1 0.332802 0.415543 0.752716
417 1 0.336389 0.326557 0.820117
418 1 0.413617 0.426435 0.841236
349 1 0.518905 0.336893 0.663536
350 1 0.588517 0.421997 0.671053
351 1 0.59242 0.334348 0.760132
352 1 0.497123 0.416545 0.743855
421 1 0.501684 0.341812 0.828255
422 1 0.579814 0.4245 0.835485
353 1 0.668173 0.334247 0.658779
354 1 0.742661 0.415685 0.668616
355 1 0.752384 0.325832 0.746396
356 1 0.665832 0.415811 0.748666
425 1 0.675446 0.333249 0.836686
426 1 0.756647 0.411124 0.829259
357 1 0.830243 0.331609 0.671025
358 1 0.913066 0.422997 0.670917
359 1 0.92346 0.32591 0.755273
360 1 0.832861 0.411337 0.745644
429 1 0.834287 0.333394 0.828683
430 1 0.916793 0.415684 0.834457
10 1 0.413247 0.0874902 1.0141
364 1 -0.0136697 0.092952 0.913311
403 1 0.746642 0.162445 0.922141
368 1 0.16961 0.095791 0.92555
400 1 0.500835 0.254185 0.920488
372 1 0.332122 0.0829284 0.915152
399 1 0.574781 0.160917 0.92211
655 1 0.250851 0.49767 0.578636
377 1 0.657361 -0.00142066 0.840942
363 1 0.0738902 0.00682364 0.913308
30 1 0.247245 0.242619 1.0019
34 1 0.417575 0.253888 0.994758
14 1 0.575092 0.0783778 1.00721
663 1 0.577996 0.498363 0.581066
659 1 0.423436 0.498138 0.577265
309 1 0.839479 -0.00382346 0.66867
365 1 0.164385 0.00413196 0.843254
729 1 0.32936 0.495351 0.653995
383 1 0.907406 0.0116379 0.921186
26 1 0.0790686 0.256189 1.00842
657 1 0.33349 0.493981 0.488645
38 1 0.582385 0.254632 0.9959
258 1 0.749165 0.244475 0.498322
257 1 0.672492 0.158786 0.482583
42 1 0.750736 0.253699 0.994358
46 1 0.917647 0.25533 1.00728
61 1 0.506797 0.341687 1.00484
246 1 0.256122 0.239755 0.490842
234 1 0.755789 0.0918766 0.485335
57 1 0.328255 0.324673 1.01364
242 1 0.0816946 0.24297 0.484929
226 1 0.407485 0.084453 0.512194
65 1 0.672449 0.341531 1.01141
222 1 0.244719 0.0874332 0.508382
249 1 0.343919 0.16846 0.50454
233 1 0.671742 0.00675612 0.503162
221 1 0.173742 0.00118872 0.505383
648 1 0.840031 0.915823 0.422604
165 1 0.829483 0.996557 0.329871
646 1 0.918358 0.909577 0.328
436 1 0.00409978 0.588044 0.0903697
718 1 0.920541 0.918567 0.511594
163 1 0.740548 0.999943 0.409556
89 1 0.660751 1.00854 0.1637
440 1 0.17463 0.588644 0.0750448
85 1 0.500983 1.00004 0.169823
438 1 0.247423 0.585132 -0.00561349
644 1 0.657922 0.920416 0.41534
444 1 0.336251 0.585793 0.074244
81 1 0.33484 0.994195 0.163284
521 1 0.662419 0.49492 0.170744
642 1 0.762367 0.914409 0.346444
448 1 0.488125 0.595448 0.0827448
640 1 0.498968 0.926427 0.423144
147 1 0.0800449 0.995377 0.4155
237 1 0.828009 1.00021 0.486955
452 1 0.672681 0.580912 0.0854628
638 1 0.577316 0.917574 0.336939
93 1 0.827537 1.00265 0.169921
636 1 0.338046 0.925181 0.411151
456 1 0.8267 0.577402 0.0907446
433 1 -0.00927099 0.504925 0.01626
465 1 0.332742 0.668554 -0.00839692
459 1 0.07925 0.66988 0.0792637
460 1 1.00583 0.761483 0.0835524
73 1 1.00364 1.00521 0.166804
483 1 0.0886118 0.84286 0.081407
87 1 0.5823 0.996524 0.242267
167 1 0.910136 0.999727 0.406559
463 1 0.264016 0.671545 0.0754438
464 1 0.160097 0.74174 0.0860026
449 1 0.666767 0.488781 -0.00928292
487 1 0.240109 0.821462 0.0922395
585 1 0.33771 0.488116 0.337678
681 1 0.341185 0.673395 0.502442
467 1 0.415553 0.676195 0.0882318
468 1 0.336001 0.762934 0.0820169
649 1 0.00621033 0.507476 0.494996
491 1 0.430426 0.819735 0.0813955
589 1 0.498433 0.491159 0.337823
91 1 0.749542 1.00793 0.237663
471 1 0.580156 0.659231 0.0873339
472 1 0.499567 0.74016 0.0774545
11 1 0.430049 0.997813 0.0762902
495 1 0.587027 0.830182 0.0890628
455 1 0.909224 0.497159 0.0958735
714 1 0.741327 0.927592 0.500653
475 1 0.746627 0.658672 0.0826437
476 1 0.673336 0.753802 0.081737
83 1 0.414949 0.996628 0.255122
499 1 0.749565 0.831065 0.0877332
511 1 0.254357 0.502577 0.245971
507 1 0.0786185 0.503271 0.255476
479 1 0.922037 0.662545 0.078456
480 1 0.829902 0.753813 0.0782998
593 1 0.660024 0.500835 0.331526
503 1 0.902134 0.836402 0.0795106
79 1 0.254256 0.997267 0.240886
484 1 0.997333 0.91486 0.074645
21 1 0.835843 1.00527 0.00107234
488 1 0.167247 0.913365 0.0826587
474 1 0.749953 0.750801 0.00461695
492 1 0.34778 0.90047 0.0941041
15 1 0.590252 1.00393 0.0807204
496 1 0.504017 0.899031 0.0793409
75 1 0.0756656 1.00627 0.25622
500 1 0.663044 0.91919 0.0921534
599 1 0.919627 0.500493 0.414123
504 1 0.823183 0.906326 0.0780378
634 1 0.418052 0.921389 0.337593
506 1 0.0886206 0.585294 0.171167
632 1 0.168837 0.923751 0.414375
508 1 -0.00430575 0.57653 0.24457
650 1 0.0880597 0.591846 0.498618
510 1 0.253717 0.589381 0.169706
517 1 0.501626 0.497865 0.16519
512 1 0.170577 0.584637 0.252285
630 1 0.251946 0.924014 0.338345
514 1 0.42518 0.589422 0.172927
628 1 0.990778 0.912189 0.422
516 1 0.33492 0.581275 0.254624
626 1 0.0839468 0.913696 0.325945
518 1 0.580563 0.582967 0.167794
597 1 0.821296 0.502675 0.337765
520 1 0.501868 0.585915 0.260616
641 1 0.660172 0.838061 0.34447
522 1 0.747663 0.576601 0.169284
647 1 0.915308 0.825874 0.413407
524 1 0.658527 0.588758 0.241943
591 1 0.579963 0.493083 0.407893
526 1 0.916774 0.586241 0.165392
620 1 0.670065 0.744238 0.408406
528 1 0.831215 0.579522 0.249703
529 1 1.00723 0.668278 0.163715
530 1 0.0798842 0.748034 0.170962
531 1 0.0884538 0.666996 0.255119
532 1 -0.00544566 0.748355 0.241672
553 1 -0.0112465 0.836772 0.159396
555 1 0.0799689 0.840804 0.247343
533 1 0.170536 0.658782 0.168926
534 1 0.25516 0.744539 0.177696
535 1 0.261853 0.662561 0.251445
536 1 0.167984 0.749729 0.245053
557 1 0.157193 0.82686 0.16669
559 1 0.249006 0.840675 0.24575
537 1 0.337675 0.668229 0.169759
538 1 0.414098 0.758494 0.172333
539 1 0.423303 0.66664 0.262634
540 1 0.344418 0.753744 0.253881
561 1 0.330538 0.825144 0.180148
563 1 0.424052 0.84404 0.263103
541 1 0.503264 0.665281 0.169622
542 1 0.585344 0.74879 0.157285
543 1 0.580263 0.676344 0.24588
544 1 0.508142 0.758055 0.257093
565 1 0.503697 0.82465 0.169043
567 1 0.5907 0.827934 0.259988
545 1 0.660836 0.674008 0.161418
546 1 0.751938 0.752141 0.157632
547 1 0.740973 0.674202 0.238166
548 1 0.66019 0.749142 0.256403
569 1 0.664097 0.832599 0.166705
571 1 0.751772 0.837403 0.252779
549 1 0.839003 0.668555 0.15983
550 1 0.913726 0.748536 0.158136
551 1 0.916592 0.667837 0.244105
552 1 0.82177 0.739609 0.247299
573 1 0.829568 0.826079 0.163899
575 1 0.908756 0.827964 0.248639
554 1 0.075878 0.924364 0.172228
556 1 0.996342 0.910086 0.247754
558 1 0.248371 0.917738 0.161166
560 1 0.170585 0.924265 0.24634
562 1 0.424289 0.921613 0.162845
564 1 0.330218 0.922612 0.25366
566 1 0.589881 0.908166 0.179136
568 1 0.508303 0.911119 0.245425
570 1 0.746274 0.916485 0.170474
572 1 0.675588 0.911579 0.265321
574 1 0.908115 0.908193 0.16955
576 1 0.831145 0.910588 0.245731
619 1 0.747406 0.663781 0.410139
578 1 0.0874562 0.588492 0.33765
645 1 0.838469 0.832581 0.331686
580 1 1.00398 0.594401 0.417199
624 1 0.831813 0.752546 0.405599
582 1 0.261085 0.581296 0.332883
623 1 0.914242 0.663807 0.410399
584 1 0.176114 0.593167 0.419795
622 1 0.918824 0.749701 0.327375
586 1 0.418103 0.572857 0.332069
621 1 0.831399 0.660579 0.333756
588 1 0.340628 0.583069 0.417338
643 1 0.7562 0.82892 0.41848
590 1 0.583308 0.585718 0.338412
579 1 0.0918533 0.506846 0.407055
592 1 0.491534 0.576636 0.406491
618 1 0.747343 0.756628 0.326358
594 1 0.743078 0.584595 0.325687
19 1 0.746555 1.01192 0.089105
596 1 0.662613 0.586483 0.415181
482 1 0.0730484 0.915355 -0.00516201
598 1 0.917526 0.583348 0.325711
3 1 0.0837993 0.99459 0.0832034
600 1 0.827708 0.581616 0.423036
601 1 0.993371 0.663867 0.324928
602 1 0.078757 0.7518 0.319559
603 1 0.0860263 0.669364 0.40852
604 1 -0.00730248 0.732237 0.419689
625 1 -0.00533412 0.829051 0.326913
627 1 0.0821507 0.824997 0.408915
605 1 0.177521 0.664003 0.32673
606 1 0.255943 0.747297 0.336002
607 1 0.252726 0.668214 0.409634
608 1 0.169365 0.750425 0.401388
629 1 0.17211 0.831174 0.322368
631 1 0.246592 0.841582 0.419518
609 1 0.344384 0.660863 0.337684
610 1 0.412955 0.764619 0.333156
611 1 0.418681 0.668564 0.424816
612 1 0.333957 0.743942 0.411065
633 1 0.330217 0.831099 0.334696
635 1 0.406735 0.831277 0.421387
613 1 0.497337 0.675466 0.338419
614 1 0.586148 0.756065 0.333744
615 1 0.569051 0.674316 0.417157
616 1 0.489155 0.754748 0.428526
637 1 0.498859 0.83802 0.349824
639 1 0.579745 0.83451 0.420163
617 1 0.665235 0.672353 0.327066
477 1 0.824413 0.664752 0.00161893
658 1 0.421675 0.584824 0.505569
673 1 0.00207359 0.669976 0.505654
686 1 0.576506 0.757102 0.495397
9 1 0.332143 0.979819 0.00414501
713 1 0.66663 0.827187 0.495675
666 1 0.732014 0.599759 0.512955
494 1 0.595174 0.915995 0.00717786
217 1 1.00301 0.998792 0.510672
697 1 0.008996 0.843397 0.507581
481 1 -0.00498683 0.834723 -0.0118945
689 1 0.647715 0.673962 0.490885
677 1 0.174378 0.676167 0.503562
685 1 0.498884 0.667358 0.500866
493 1 0.505021 0.829631 -0.00650648
490 1 0.425426 0.911275 0.00102742
462 1 0.246389 0.755116 -0.00627244
485 1 0.156049 0.824782 -0.00612115
497 1 0.670553 0.835032 0.00269264
469 1 0.491886 0.667595 -0.00754687
450 1 0.740934 0.579132 0.00147822
442 1 0.414167 0.593486 -0.00113642
864 1 0.835106 0.912156 0.911067
17 1 0.673451 0.992383 1.00645
381 1 0.839257 1.00501 0.8314
652 1 0.997886 0.585612 0.579493
860 1 0.655613 0.919414 0.915851
661 1 0.498267 0.497533 0.495067
856 1 0.518638 0.911315 0.922903
656 1 0.169438 0.577885 0.58056
852 1 0.331712 0.908842 0.918401
690 1 0.739991 0.740639 0.490301
667 1 0.755939 0.50799 0.583836
660 1 0.338609 0.577184 0.578983
848 1 0.157432 0.901724 0.917286
674 1 0.0921207 0.759837 0.500059
844 1 -0.0120873 0.928975 0.916991
664 1 0.500775 0.574813 0.578405
367 1 0.253265 0.998973 0.914412
705 1 0.33524 0.846974 0.503372
863 1 0.912171 0.831207 0.914481
668 1 0.65449 0.57464 0.583689
311 1 0.921952 0.999516 0.743169
701 1 0.172548 0.829099 0.495044
815 1 0.909851 0.507314 0.899649
672 1 0.842628 0.588404 0.579053
662 1 0.574421 0.581516 0.483994
289 1 9.41683e-05 1.00496 0.669428
675 1 0.0860319 0.671977 0.583601
676 1 0.00737316 0.750952 0.57346
737 1 0.67053 0.500948 0.656483
699 1 0.0921307 0.841453 0.583928
698 1 0.0925501 0.921655 0.514874
307 1 0.758473 0.990416 0.752659
679 1 0.256668 0.671511 0.583541
680 1 0.173249 0.751116 0.578639
299 1 0.425212 1.00036 0.76286
703 1 0.242967 0.83036 0.575803
369 1 0.334562 1.00297 0.830961
375 1 0.579827 1.00795 0.914354
683 1 0.42232 0.66917 0.591185
684 1 0.331676 0.75319 0.589891
371 1 0.419924 1.00119 0.92909
707 1 0.4206 0.845469 0.597869
373 1 0.503506 0.994425 0.832435
807 1 0.589686 0.493937 0.912955
687 1 0.574022 0.659123 0.576333
688 1 0.506481 0.74937 0.580796
809 1 0.661701 0.502363 0.823053
711 1 0.576938 0.840802 0.584917
678 1 0.264111 0.754396 0.490802
743 1 0.912841 0.497453 0.754669
691 1 0.744427 0.677645 0.582479
692 1 0.651948 0.744351 0.579
723 1 0.0888413 0.490831 0.740991
715 1 0.739734 0.833251 0.576789
457 1 1.00724 0.662281 0.984253
739 1 0.75537 0.500754 0.74683
695 1 0.918982 0.673144 0.582656
696 1 0.82549 0.757778 0.582227
803 1 0.420053 0.50214 0.917983
719 1 0.920647 0.839691 0.58477
820 1 0.999939 0.755978 0.913215
700 1 0.0133547 0.921374 0.595322
446 1 0.571598 0.586539 1.00286
704 1 0.171257 0.927409 0.593307
823 1 0.245139 0.668598 0.926754
708 1 0.33237 0.928151 0.58845
489 1 0.324859 0.835044 1.0002
712 1 0.502202 0.927529 0.584976
694 1 0.912538 0.745078 0.496002
716 1 0.673718 0.919521 0.583672
843 1 0.0726029 0.83222 0.916142
720 1 0.818615 0.915311 0.587147
819 1 0.0944481 0.658089 0.907763
722 1 0.0817742 0.582696 0.655679
840 1 0.825428 0.747574 0.91143
724 1 -0.00256237 0.588192 0.745007
839 1 0.909214 0.667688 0.919294
794 1 0.082412 0.583879 0.824907
816 1 0.825187 0.581622 0.930191
726 1 0.242544 0.574956 0.664125
824 1 0.157871 0.742195 0.916467
728 1 0.170887 0.592155 0.737279
702 1 0.254645 0.924477 0.499076
798 1 0.258381 0.579261 0.824468
859 1 0.745599 0.830958 0.914922
730 1 0.419144 0.574474 0.659612
836 1 0.660728 0.744818 0.923926
732 1 0.336053 0.580386 0.732819
486 1 0.246278 0.903685 1.00615
802 1 0.417019 0.579886 0.81755
835 1 0.745962 0.670264 0.92307
734 1 0.573832 0.578895 0.663381
458 1 0.0846264 0.744508 0.999108
736 1 0.491881 0.572471 0.737291
239 1 0.914045 1.00046 0.591484
806 1 0.582205 0.585317 0.835766
855 1 0.582862 0.823513 0.920441
738 1 0.751532 0.590329 0.664556
305 1 0.680313 0.998249 0.663169
740 1 0.68084 0.582454 0.749053
832 1 0.484223 0.744808 0.921626
810 1 0.750552 0.5901 0.840996
831 1 0.57515 0.663596 0.920929
742 1 0.927224 0.593139 0.6625
651 1 0.0814437 0.492234 0.580949
744 1 0.827983 0.58463 0.752132
851 1 0.419565 0.839135 0.92082
814 1 0.921923 0.587998 0.824621
745 1 0.00455586 0.669582 0.671581
746 1 0.0912328 0.763558 0.661688
747 1 0.0913656 0.671833 0.749711
748 1 1.00664 0.751035 0.752486
769 1 1.00948 0.835616 0.674287
771 1 0.0938227 0.841426 0.758514
817 1 1.00878 0.670267 0.829303
818 1 0.0849317 0.754363 0.835741
841 1 1.001 0.835941 0.836522
749 1 0.170416 0.675626 0.657465
750 1 0.24844 0.75899 0.668621
751 1 0.254767 0.667797 0.73662
752 1 0.156991 0.752553 0.745229
773 1 0.164032 0.844211 0.670877
775 1 0.243321 0.835698 0.752506
821 1 0.17197 0.673418 0.828029
822 1 0.252238 0.749272 0.824936
845 1 0.164501 0.828752 0.838633
753 1 0.336971 0.6614 0.656567
754 1 0.419507 0.752406 0.666207
755 1 0.410473 0.664057 0.741178
756 1 0.340236 0.747556 0.744971
777 1 0.322196 0.842326 0.667906
779 1 0.421348 0.838457 0.750482
825 1 0.327961 0.663822 0.834937
826 1 0.411295 0.743755 0.827129
849 1 0.337848 0.830717 0.834198
757 1 0.50214 0.662348 0.668473
758 1 0.573528 0.750597 0.672982
759 1 0.588312 0.667835 0.745106
760 1 0.497111 0.744243 0.752247
781 1 0.505348 0.837817 0.673271
783 1 0.587394 0.837707 0.746539
829 1 0.496347 0.661565 0.834166
830 1 0.586228 0.749866 0.827479
853 1 0.50339 0.832999 0.841026
761 1 0.661666 0.663612 0.663394
762 1 0.743678 0.752051 0.66837
763 1 0.753883 0.665525 0.746404
764 1 0.668105 0.741636 0.744111
785 1 0.658625 0.832433 0.663267
787 1 0.744834 0.831254 0.750914
833 1 0.662171 0.67168 0.832558
834 1 0.755738 0.745676 0.832458
857 1 0.6672 0.828632 0.838917
765 1 0.84149 0.672534 0.66175
766 1 0.927687 0.759089 0.669428
767 1 0.923033 0.675092 0.749818
768 1 0.831042 0.75679 0.747458
789 1 0.835955 0.833198 0.669311
791 1 0.91945 0.835856 0.754258
837 1 0.834389 0.666387 0.838028
838 1 0.915666 0.752416 0.835088
861 1 0.832004 0.834396 0.83368
770 1 0.0809869 0.922119 0.674577
772 1 -0.0108698 0.9091 0.753985
842 1 0.0685929 0.91942 0.841568
774 1 0.251017 0.920647 0.677973
776 1 0.16754 0.91922 0.764551
846 1 0.244305 0.915219 0.84569
778 1 0.418861 0.919069 0.670437
780 1 0.335595 0.928268 0.75229
850 1 0.411802 0.917366 0.840079
782 1 0.577316 0.920567 0.66551
784 1 0.502232 0.919551 0.749657
854 1 0.580272 0.914819 0.836745
786 1 0.744388 0.909175 0.672892
788 1 0.654714 0.921244 0.751687
858 1 0.748917 0.924663 0.844043
790 1 0.916227 0.917547 0.668102
792 1 0.840465 0.905518 0.754775
862 1 0.920493 0.92295 0.836322
828 1 0.333854 0.742689 0.915861
796 1 0.990814 0.578645 0.915046
812 1 0.672285 0.577155 0.913256
800 1 0.175189 0.588751 0.909301
721 1 0.999973 0.502169 0.666502
804 1 0.336808 0.57807 0.921597
827 1 0.414132 0.654797 0.907676
808 1 0.501757 0.578481 0.914431
847 1 0.245629 0.834772 0.913426
805 1 0.492892 0.500652 0.836698
437 1 0.162826 0.498568 0.993713
454 1 0.920427 0.589592 1.00535
434 1 0.0823973 0.582855 0.992964
466 1 0.413745 0.749396 0.995867
706 1 0.42257 0.927825 0.504861
717 1 0.826154 0.826513 0.502069
710 1 0.585716 0.920448 0.501872
470 1 0.583709 0.745781 1.00464
461 1 0.166403 0.667532 1.00595
709 1 0.495208 0.840953 0.517414
693 1 0.824929 0.666812 0.504927
473 1 0.66918 0.661275 0.99979
478 1 0.927623 0.74861 1.00025
502 1 0.902873 0.912555 0.997034
670 1 0.911319 0.598023 0.495019
654 1 0.260706 0.595431 0.499943
498 1 0.747796 0.912273 0.996941
669 1 0.836449 0.501456 0.503915
501 1 0.83027 0.83149 0.997498
5 1 0.171473 1.00447 0.989693
682 1 0.417618 0.750069 0.512439
653 1 0.165066 0.493529 0.502935
