ITEM: TIMESTEP
0
ITEM: NUMBER OF ATOMS
864
ITEM: BOX BOUNDS pp pp pp
0.0000000000000000e+00 3.1559999999999999e+01
0.0000000000000000e+00 3.1559999999999999e+01
0.0000000000000000e+00 3.1559999999999999e+01
ITEM: ATOMS id type xs ys zs
1 1 0 0 0
2 1 0.0833333 0.0833333 0
3 1 0.0833333 0 0.0833333
4 1 0 0.0833333 0.0833333
5 1 0.166667 0 0
6 1 0.25 0.0833333 0
7 1 0.25 0 0.0833333
8 1 0.166667 0.0833333 0.0833333
9 1 0.333333 0 0
10 1 0.416667 0.0833333 0
11 1 0.416667 0 0.0833333
12 1 0.333333 0.0833333 0.0833333
13 1 0.5 0 0
14 1 0.583333 0.0833333 0
15 1 0.583333 0 0.0833333
16 1 0.5 0.0833333 0.0833333
17 1 0.666667 0 0
18 1 0.75 0.0833333 0
19 1 0.75 0 0.0833333
20 1 0.666667 0.0833333 0.0833333
21 1 0.833333 0 0
22 1 0.916667 0.0833333 0
23 1 0.916667 0 0.0833333
24 1 0.833333 0.0833333 0.0833333
25 1 0 0.166667 0
26 1 0.0833333 0.25 0
27 1 0.0833333 0.166667 0.0833333
28 1 0 0.25 0.0833333
29 1 0.166667 0.166667 0
30 1 0.25 0.25 0
31 1 0.25 0.166667 0.0833333
32 1 0.166667 0.25 0.0833333
33 1 0.333333 0.166667 0
34 1 0.416667 0.25 0
35 1 0.416667 0.166667 0.0833333
36 1 0.333333 0.25 0.0833333
37 1 0.5 0.166667 0
38 1 0.583333 0.25 0
39 1 0.583333 0.166667 0.0833333
40 1 0.5 0.25 0.0833333
41 1 0.666667 0.166667 0
42 1 0.75 0.25 0
43 1 0.75 0.166667 0.0833333
44 1 0.666667 0.25 0.0833333
45 1 0.833333 0.166667 0
46 1 0.916667 0.25 0
47 1 0.916667 0.166667 0.0833333
48 1 0.833333 0.25 0.0833333
49 1 0 0.333333 0
50 1 0.0833333 0.416667 0
51 1 0.0833333 0.333333 0.0833333
52 1 0 0.416667 0.0833333
53 1 0.166667 0.333333 0
54 1 0.25 0.416667 0
55 1 0.25 0.333333 0.0833333
56 1 0.166667 0.416667 0.0833333
57 1 0.333333 0.333333 0
58 1 0.416667 0.416667 0
59 1 0.416667 0.333333 0.0833333
60 1 0.333333 0.416667 0.0833333
61 1 0.5 0.333333 0
62 1 0.583333 0.416667 0
63 1 0.583333 0.333333 0.0833333
64 1 0.5 0.416667 0.0833333
65 1 0.666667 0.333333 0
66 1 0.75 0.416667 0
67 1 0.75 0.333333 0.0833333
68 1 0.666667 0.416667 0.0833333
69 1 0.833333 0.333333 0
70 1 0.916667 0.416667 0
71 1 0.916667 0.333333 0.0833333
72 1 0.833333 0.416667 0.0833333
73 1 0 0 0.166667
74 1 0.0833333 0.0833333 0.166667
75 1 0.0833333 0 0.25
76 1 0 0.0833333 0.25
77 1 0.166667 0 0.166667
78 1 0.25 0.0833333 0.166667
79 1 0.25 0 0.25
80 1 0.166667 0.0833333 0.25
81 1 0.333333 0 0.166667
82 1 0.416667 0.0833333 0.166667
83 1 0.416667 0 0.25
84 1 0.333333 0.0833333 0.25
85 1 0.5 0 0.166667
86 1 0.583333 0.0833333 0.166667
87 1 0.583333 0 0.25
88 1 0.5 0.0833333 0.25
89 1 0.666667 0 0.166667
90 1 0.75 0.0833333 0.166667
91 1 0.75 0 0.25
92 1 0.666667 0.0833333 0.25
93 1 0.833333 0 0.166667
94 1 0.916667 0.0833333 0.166667
95 1 0.916667 0 0.25
96 1 0.833333 0.0833333 0.25
97 1 0 0.166667 0.166667
98 1 0.0833333 0.25 0.166667
99 1 0.0833333 0.166667 0.25
100 1 0 0.25 0.25
101 1 0.166667 0.166667 0.166667
102 1 0.25 0.25 0.166667
103 1 0.25 0.166667 0.25
104 1 0.166667 0.25 0.25
105 1 0.333333 0.166667 0.166667
106 1 0.416667 0.25 0.166667
107 1 0.416667 0.166667 0.25
108 1 0.333333 0.25 0.25
109 1 0.5 0.166667 0.166667
110 1 0.583333 0.25 0.166667
111 1 0.583333 0.166667 0.25
112 1 0.5 0.25 0.25
113 1 0.666667 0.166667 0.166667
114 1 0.75 0.25 0.166667
115 1 0.75 0.166667 0.25
116 1 0.666667 0.25 0.25
117 1 0.833333 0.166667 0.166667
118 1 0.916667 0.25 0.166667
119 1 0.916667 0.166667 0.25
120 1 0.833333 0.25 0.25
121 1 0 0.333333 0.166667
122 1 0.0833333 0.416667 0.166667
123 1 0.0833333 0.333333 0.25
124 1 0 0.416667 0.25
125 1 0.166667 0.333333 0.166667
126 1 0.25 0.416667 0.166667
127 1 0.25 0.333333 0.25
128 1 0.166667 0.416667 0.25
129 1 0.333333 0.333333 0.166667
130 1 0.416667 0.416667 0.166667
131 1 0.416667 0.333333 0.25
132 1 0.333333 0.416667 0.25
133 1 0.5 0.333333 0.166667
134 1 0.583333 0.416667 0.166667
135 1 0.583333 0.333333 0.25
136 1 0.5 0.416667 0.25
137 1 0.666667 0.333333 0.166667
138 1 0.75 0.416667 0.166667
139 1 0.75 0.333333 0.25
140 1 0.666667 0.416667 0.25
141 1 0.833333 0.333333 0.166667
142 1 0.916667 0.416667 0.166667
143 1 0.916667 0.333333 0.25
144 1 0.833333 0.416667 0.25
145 1 0 0 0.333333
146 1 0.0833333 0.0833333 0.333333
147 1 0.0833333 0 0.416667
148 1 0 0.0833333 0.416667
149 1 0.166667 0 0.333333
150 1 0.25 0.0833333 0.333333
151 1 0.25 0 0.416667
152 1 0.166667 0.0833333 0.416667
153 1 0.333333 0 0.333333
154 1 0.416667 0.0833333 0.333333
155 1 0.416667 0 0.416667
156 1 0.333333 0.0833333 0.416667
157 1 0.5 0 0.333333
158 1 0.583333 0.0833333 0.333333
159 1 0.583333 0 0.416667
160 1 0.5 0.0833333 0.416667
161 1 0.666667 0 0.333333
162 1 0.75 0.0833333 0.333333
163 1 0.75 0 0.416667
164 1 0.666667 0.0833333 0.416667
165 1 0.833333 0 0.333333
166 1 0.916667 0.0833333 0.333333
167 1 0.916667 0 0.416667
168 1 0.833333 0.0833333 0.416667
169 1 0 0.166667 0.333333
170 1 0.0833333 0.25 0.333333
171 1 0.0833333 0.166667 0.416667
172 1 0 0.25 0.416667
173 1 0.166667 0.166667 0.333333
174 1 0.25 0.25 0.333333
175 1 0.25 0.166667 0.416667
176 1 0.166667 0.25 0.416667
177 1 0.333333 0.166667 0.333333
178 1 0.416667 0.25 0.333333
179 1 0.416667 0.166667 0.416667
180 1 0.333333 0.25 0.416667
181 1 0.5 0.166667 0.333333
182 1 0.583333 0.25 0.333333
183 1 0.583333 0.166667 0.416667
184 1 0.5 0.25 0.416667
185 1 0.666667 0.166667 0.333333
186 1 0.75 0.25 0.333333
187 1 0.75 0.166667 0.416667
188 1 0.666667 0.25 0.416667
189 1 0.833333 0.166667 0.333333
190 1 0.916667 0.25 0.333333
191 1 0.916667 0.166667 0.416667
192 1 0.833333 0.25 0.416667
193 1 0 0.333333 0.333333
194 1 0.0833333 0.416667 0.333333
195 1 0.0833333 0.333333 0.416667
196 1 0 0.416667 0.416667
197 1 0.166667 0.333333 0.333333
198 1 0.25 0.416667 0.333333
199 1 0.25 0.333333 0.416667
200 1 0.166667 0.416667 0.416667
201 1 0.333333 0.333333 0.333333
202 1 0.416667 0.416667 0.333333
203 1 0.416667 0.333333 0.416667
204 1 0.333333 0.416667 0.416667
205 1 0.5 0.333333 0.333333
206 1 0.583333 0.416667 0.333333
207 1 0.583333 0.333333 0.416667
208 1 0.5 0.416667 0.416667
209 1 0.666667 0.333333 0.333333
210 1 0.75 0.416667 0.333333
211 1 0.75 0.333333 0.416667
212 1 0.666667 0.416667 0.416667
213 1 0.833333 0.333333 0.333333
214 1 0.916667 0.416667 0.333333
215 1 0.916667 0.333333 0.416667
216 1 0.833333 0.416667 0.416667
217 1 0 0 0.5
218 1 0.0833333 0.0833333 0.5
219 1 0.0833333 0 0.583333
220 1 0 0.0833333 0.583333
221 1 0.166667 0 0.5
222 1 0.25 0.0833333 0.5
223 1 0.25 0 0.583333
224 1 0.166667 0.0833333 0.583333
225 1 0.333333 0 0.5
226 1 0.416667 0.0833333 0.5
227 1 0.416667 0 0.583333
228 1 0.333333 0.0833333 0.583333
229 1 0.5 0 0.5
230 1 0.583333 0.0833333 0.5
231 1 0.583333 0 0.583333
232 1 0.5 0.0833333 0.583333
233 1 0.666667 0 0.5
234 1 0.75 0.0833333 0.5
235 1 0.75 0 0.583333
236 1 0.666667 0.0833333 0.583333
237 1 0.833333 0 0.5
238 1 0.916667 0.0833333 0.5
239 1 0.916667 0 0.583333
240 1 0.833333 0.0833333 0.583333
241 1 0 0.166667 0.5
242 1 0.0833333 0.25 0.5
243 1 0.0833333 0.166667 0.583333
244 1 0 0.25 0.583333
245 1 0.166667 0.166667 0.5
246 1 0.25 0.25 0.5
247 1 0.25 0.166667 0.583333
248 1 0.166667 0.25 0.583333
249 1 0.333333 0.166667 0.5
250 1 0.416667 0.25 0.5
251 1 0.416667 0.166667 0.583333
252 1 0.333333 0.25 0.583333
253 1 0.5 0.166667 0.5
254 1 0.583333 0.25 0.5
255 1 0.583333 0.166667 0.583333
256 1 0.5 0.25 0.583333
257 1 0.666667 0.166667 0.5
258 1 0.75 0.25 0.5
259 1 0.75 0.166667 0.583333
260 1 0.666667 0.25 0.583333
261 1 0.833333 0.166667 0.5
262 1 0.916667 0.25 0.5
263 1 0.916667 0.166667 0.583333
264 1 0.833333 0.25 0.583333
265 1 0 0.333333 0.5
266 1 0.0833333 0.416667 0.5
267 1 0.0833333 0.333333 0.583333
268 1 0 0.416667 0.583333
269 1 0.166667 0.333333 0.5
270 1 0.25 0.416667 0.5
271 1 0.25 0.333333 0.583333
272 1 0.166667 0.416667 0.583333
273 1 0.333333 0.333333 0.5
274 1 0.416667 0.416667 0.5
275 1 0.416667 0.333333 0.583333
276 1 0.333333 0.416667 0.583333
277 1 0.5 0.333333 0.5
278 1 0.583333 0.416667 0.5
279 1 0.583333 0.333333 0.583333
280 1 0.5 0.416667 0.583333
281 1 0.666667 0.333333 0.5
282 1 0.75 0.416667 0.5
283 1 0.75 0.333333 0.583333
284 1 0.666667 0.416667 0.583333
285 1 0.833333 0.333333 0.5
286 1 0.916667 0.416667 0.5
287 1 0.916667 0.333333 0.583333
288 1 0.833333 0.416667 0.583333
289 1 0 0 0.666667
290 1 0.0833333 0.0833333 0.666667
291 1 0.0833333 0 0.75
292 1 0 0.0833333 0.75
361 1 0 0 0.833333
362 1 0.0833333 0.0833333 0.833333
293 1 0.166667 0 0.666667
294 1 0.25 0.0833333 0.666667
295 1 0.25 0 0.75
296 1 0.166667 0.0833333 0.75
365 1 0.166667 0 0.833333
366 1 0.25 0.0833333 0.833333
297 1 0.333333 0 0.666667
298 1 0.416667 0.0833333 0.666667
299 1 0.416667 0 0.75
300 1 0.333333 0.0833333 0.75
369 1 0.333333 0 0.833333
370 1 0.416667 0.0833333 0.833333
301 1 0.5 0 0.666667
302 1 0.583333 0.0833333 0.666667
303 1 0.583333 0 0.75
304 1 0.5 0.0833333 0.75
373 1 0.5 0 0.833333
374 1 0.583333 0.0833333 0.833333
305 1 0.666667 0 0.666667
306 1 0.75 0.0833333 0.666667
307 1 0.75 0 0.75
308 1 0.666667 0.0833333 0.75
377 1 0.666667 0 0.833333
378 1 0.75 0.0833333 0.833333
309 1 0.833333 0 0.666667
310 1 0.916667 0.0833333 0.666667
311 1 0.916667 0 0.75
312 1 0.833333 0.0833333 0.75
381 1 0.833333 0 0.833333
382 1 0.916667 0.0833333 0.833333
313 1 0 0.166667 0.666667
314 1 0.0833333 0.25 0.666667
315 1 0.0833333 0.166667 0.75
316 1 0 0.25 0.75
385 1 0 0.166667 0.833333
386 1 0.0833333 0.25 0.833333
317 1 0.166667 0.166667 0.666667
318 1 0.25 0.25 0.666667
319 1 0.25 0.166667 0.75
320 1 0.166667 0.25 0.75
389 1 0.166667 0.166667 0.833333
390 1 0.25 0.25 0.833333
321 1 0.333333 0.166667 0.666667
322 1 0.416667 0.25 0.666667
323 1 0.416667 0.166667 0.75
324 1 0.333333 0.25 0.75
393 1 0.333333 0.166667 0.833333
394 1 0.416667 0.25 0.833333
325 1 0.5 0.166667 0.666667
326 1 0.583333 0.25 0.666667
327 1 0.583333 0.166667 0.75
328 1 0.5 0.25 0.75
397 1 0.5 0.166667 0.833333
398 1 0.583333 0.25 0.833333
329 1 0.666667 0.166667 0.666667
330 1 0.75 0.25 0.666667
331 1 0.75 0.166667 0.75
332 1 0.666667 0.25 0.75
401 1 0.666667 0.166667 0.833333
402 1 0.75 0.25 0.833333
333 1 0.833333 0.166667 0.666667
334 1 0.916667 0.25 0.666667
335 1 0.916667 0.166667 0.75
336 1 0.833333 0.25 0.75
405 1 0.833333 0.166667 0.833333
406 1 0.916667 0.25 0.833333
337 1 0 0.333333 0.666667
338 1 0.0833333 0.416667 0.666667
339 1 0.0833333 0.333333 0.75
340 1 0 0.416667 0.75
409 1 0 0.333333 0.833333
410 1 0.0833333 0.416667 0.833333
341 1 0.166667 0.333333 0.666667
342 1 0.25 0.416667 0.666667
343 1 0.25 0.333333 0.75
344 1 0.166667 0.416667 0.75
413 1 0.166667 0.333333 0.833333
414 1 0.25 0.416667 0.833333
345 1 0.333333 0.333333 0.666667
346 1 0.416667 0.416667 0.666667
347 1 0.416667 0.333333 0.75
348 1 0.333333 0.416667 0.75
417 1 0.333333 0.333333 0.833333
418 1 0.416667 0.416667 0.833333
349 1 0.5 0.333333 0.666667
350 1 0.583333 0.416667 0.666667
351 1 0.583333 0.333333 0.75
352 1 0.5 0.416667 0.75
421 1 0.5 0.333333 0.833333
422 1 0.583333 0.416667 0.833333
353 1 0.666667 0.333333 0.666667
354 1 0.75 0.416667 0.666667
355 1 0.75 0.333333 0.75
356 1 0.666667 0.416667 0.75
425 1 0.666667 0.333333 0.833333
426 1 0.75 0.416667 0.833333
357 1 0.833333 0.333333 0.666667
358 1 0.916667 0.416667 0.666667
359 1 0.916667 0.333333 0.75
360 1 0.833333 0.416667 0.75
429 1 0.833333 0.333333 0.833333
430 1 0.916667 0.416667 0.833333
363 1 0.0833333 0 0.916667
364 1 0 0.0833333 0.916667
367 1 0.25 0 0.916667
368 1 0.166667 0.0833333 0.916667
371 1 0.416667 0 0.916667
372 1 0.333333 0.0833333 0.916667
375 1 0.583333 0 0.916667
376 1 0.5 0.0833333 0.916667
379 1 0.75 0 0.916667
380 1 0.666667 0.0833333 0.916667
383 1 0.916667 0 0.916667
384 1 0.833333 0.0833333 0.916667
387 1 0.0833333 0.166667 0.916667
388 1 0 0.25 0.916667
391 1 0.25 0.166667 0.916667
392 1 0.166667 0.25 0.916667
395 1 0.416667 0.166667 0.916667
396 1 0.333333 0.25 0.916667
399 1 0.583333 0.166667 0.916667
400 1 0.5 0.25 0.916667
403 1 0.75 0.166667 0.916667
404 1 0.666667 0.25 0.916667
407 1 0.916667 0.166667 0.916667
408 1 0.833333 0.25 0.916667
411 1 0.0833333 0.333333 0.916667
412 1 0 0.416667 0.916667
415 1 0.25 0.333333 0.916667
416 1 0.166667 0.416667 0.916667
419 1 0.416667 0.333333 0.916667
420 1 0.333333 0.416667 0.916667
423 1 0.583333 0.333333 0.916667
424 1 0.5 0.416667 0.916667
427 1 0.75 0.333333 0.916667
428 1 0.666667 0.416667 0.916667
431 1 0.916667 0.333333 0.916667
432 1 0.833333 0.416667 0.916667
433 1 0 0.5 0
434 1 0.0833333 0.583333 0
435 1 0.0833333 0.5 0.0833333
436 1 0 0.583333 0.0833333
437 1 0.166667 0.5 0
438 1 0.25 0.583333 0
439 1 0.25 0.5 0.0833333
440 1 0.166667 0.583333 0.0833333
441 1 0.333333 0.5 0
442 1 0.416667 0.583333 0
443 1 0.416667 0.5 0.0833333
444 1 0.333333 0.583333 0.0833333
445 1 0.5 0.5 0
446 1 0.583333 0.583333 0
447 1 0.583333 0.5 0.0833333
448 1 0.5 0.583333 0.0833333
449 1 0.666667 0.5 0
450 1 0.75 0.583333 0
451 1 0.75 0.5 0.0833333
452 1 0.666667 0.583333 0.0833333
453 1 0.833333 0.5 0
454 1 0.916667 0.583333 0
455 1 0.916667 0.5 0.0833333
456 1 0.833333 0.583333 0.0833333
457 1 0 0.666667 0
458 1 0.0833333 0.75 0
459 1 0.0833333 0.666667 0.0833333
460 1 0 0.75 0.0833333
481 1 0 0.833333 0
483 1 0.0833333 0.833333 0.0833333
461 1 0.166667 0.666667 0
462 1 0.25 0.75 0
463 1 0.25 0.666667 0.0833333
464 1 0.166667 0.75 0.0833333
485 1 0.166667 0.833333 0
487 1 0.25 0.833333 0.0833333
465 1 0.333333 0.666667 0
466 1 0.416667 0.75 0
467 1 0.416667 0.666667 0.0833333
468 1 0.333333 0.75 0.0833333
489 1 0.333333 0.833333 0
491 1 0.416667 0.833333 0.0833333
469 1 0.5 0.666667 0
470 1 0.583333 0.75 0
471 1 0.583333 0.666667 0.0833333
472 1 0.5 0.75 0.0833333
493 1 0.5 0.833333 0
495 1 0.583333 0.833333 0.0833333
473 1 0.666667 0.666667 0
474 1 0.75 0.75 0
475 1 0.75 0.666667 0.0833333
476 1 0.666667 0.75 0.0833333
497 1 0.666667 0.833333 0
499 1 0.75 0.833333 0.0833333
477 1 0.833333 0.666667 0
478 1 0.916667 0.75 0
479 1 0.916667 0.666667 0.0833333
480 1 0.833333 0.75 0.0833333
501 1 0.833333 0.833333 0
503 1 0.916667 0.833333 0.0833333
482 1 0.0833333 0.916667 0
484 1 0 0.916667 0.0833333
486 1 0.25 0.916667 0
488 1 0.166667 0.916667 0.0833333
490 1 0.416667 0.916667 0
492 1 0.333333 0.916667 0.0833333
494 1 0.583333 0.916667 0
496 1 0.5 0.916667 0.0833333
498 1 0.75 0.916667 0
500 1 0.666667 0.916667 0.0833333
502 1 0.916667 0.916667 0
504 1 0.833333 0.916667 0.0833333
505 1 0 0.5 0.166667
506 1 0.0833333 0.583333 0.166667
507 1 0.0833333 0.5 0.25
508 1 0 0.583333 0.25
509 1 0.166667 0.5 0.166667
510 1 0.25 0.583333 0.166667
511 1 0.25 0.5 0.25
512 1 0.166667 0.583333 0.25
513 1 0.333333 0.5 0.166667
514 1 0.416667 0.583333 0.166667
515 1 0.416667 0.5 0.25
516 1 0.333333 0.583333 0.25
517 1 0.5 0.5 0.166667
518 1 0.583333 0.583333 0.166667
519 1 0.583333 0.5 0.25
520 1 0.5 0.583333 0.25
521 1 0.666667 0.5 0.166667
522 1 0.75 0.583333 0.166667
523 1 0.75 0.5 0.25
524 1 0.666667 0.583333 0.25
525 1 0.833333 0.5 0.166667
526 1 0.916667 0.583333 0.166667
527 1 0.916667 0.5 0.25
528 1 0.833333 0.583333 0.25
529 1 0 0.666667 0.166667
530 1 0.0833333 0.75 0.166667
531 1 0.0833333 0.666667 0.25
532 1 0 0.75 0.25
553 1 0 0.833333 0.166667
555 1 0.0833333 0.833333 0.25
533 1 0.166667 0.666667 0.166667
534 1 0.25 0.75 0.166667
535 1 0.25 0.666667 0.25
536 1 0.166667 0.75 0.25
557 1 0.166667 0.833333 0.166667
559 1 0.25 0.833333 0.25
537 1 0.333333 0.666667 0.166667
538 1 0.416667 0.75 0.166667
539 1 0.416667 0.666667 0.25
540 1 0.333333 0.75 0.25
561 1 0.333333 0.833333 0.166667
563 1 0.416667 0.833333 0.25
541 1 0.5 0.666667 0.166667
542 1 0.583333 0.75 0.166667
543 1 0.583333 0.666667 0.25
544 1 0.5 0.75 0.25
565 1 0.5 0.833333 0.166667
567 1 0.583333 0.833333 0.25
545 1 0.666667 0.666667 0.166667
546 1 0.75 0.75 0.166667
547 1 0.75 0.666667 0.25
548 1 0.666667 0.75 0.25
569 1 0.666667 0.833333 0.166667
571 1 0.75 0.833333 0.25
549 1 0.833333 0.666667 0.166667
550 1 0.916667 0.75 0.166667
551 1 0.916667 0.666667 0.25
552 1 0.833333 0.75 0.25
573 1 0.833333 0.833333 0.166667
575 1 0.916667 0.833333 0.25
554 1 0.0833333 0.916667 0.166667
556 1 0 0.916667 0.25
558 1 0.25 0.916667 0.166667
560 1 0.166667 0.916667 0.25
562 1 0.416667 0.916667 0.166667
564 1 0.333333 0.916667 0.25
566 1 0.583333 0.916667 0.166667
568 1 0.5 0.916667 0.25
570 1 0.75 0.916667 0.166667
572 1 0.666667 0.916667 0.25
574 1 0.916667 0.916667 0.166667
576 1 0.833333 0.916667 0.25
577 1 0 0.5 0.333333
578 1 0.0833333 0.583333 0.333333
579 1 0.0833333 0.5 0.416667
580 1 0 0.583333 0.416667
581 1 0.166667 0.5 0.333333
582 1 0.25 0.583333 0.333333
583 1 0.25 0.5 0.416667
584 1 0.166667 0.583333 0.416667
585 1 0.333333 0.5 0.333333
586 1 0.416667 0.583333 0.333333
587 1 0.416667 0.5 0.416667
588 1 0.333333 0.583333 0.416667
589 1 0.5 0.5 0.333333
590 1 0.583333 0.583333 0.333333
591 1 0.583333 0.5 0.416667
592 1 0.5 0.583333 0.416667
593 1 0.666667 0.5 0.333333
594 1 0.75 0.583333 0.333333
595 1 0.75 0.5 0.416667
596 1 0.666667 0.583333 0.416667
597 1 0.833333 0.5 0.333333
598 1 0.916667 0.583333 0.333333
599 1 0.916667 0.5 0.416667
600 1 0.833333 0.583333 0.416667
601 1 0 0.666667 0.333333
602 1 0.0833333 0.75 0.333333
603 1 0.0833333 0.666667 0.416667
604 1 0 0.75 0.416667
625 1 0 0.833333 0.333333
627 1 0.0833333 0.833333 0.416667
605 1 0.166667 0.666667 0.333333
606 1 0.25 0.75 0.333333
607 1 0.25 0.666667 0.416667
608 1 0.166667 0.75 0.416667
629 1 0.166667 0.833333 0.333333
631 1 0.25 0.833333 0.416667
609 1 0.333333 0.666667 0.333333
610 1 0.416667 0.75 0.333333
611 1 0.416667 0.666667 0.416667
612 1 0.333333 0.75 0.416667
633 1 0.333333 0.833333 0.333333
635 1 0.416667 0.833333 0.416667
613 1 0.5 0.666667 0.333333
614 1 0.583333 0.75 0.333333
615 1 0.583333 0.666667 0.416667
616 1 0.5 0.75 0.416667
637 1 0.5 0.833333 0.333333
639 1 0.583333 0.833333 0.416667
617 1 0.666667 0.666667 0.333333
618 1 0.75 0.75 0.333333
619 1 0.75 0.666667 0.416667
620 1 0.666667 0.75 0.416667
641 1 0.666667 0.833333 0.333333
643 1 0.75 0.833333 0.416667
621 1 0.833333 0.666667 0.333333
622 1 0.916667 0.75 0.333333
623 1 0.916667 0.666667 0.416667
624 1 0.833333 0.75 0.416667
645 1 0.833333 0.833333 0.333333
647 1 0.916667 0.833333 0.416667
626 1 0.0833333 0.916667 0.333333
628 1 0 0.916667 0.416667
630 1 0.25 0.916667 0.333333
632 1 0.166667 0.916667 0.416667
634 1 0.416667 0.916667 0.333333
636 1 0.333333 0.916667 0.416667
638 1 0.583333 0.916667 0.333333
640 1 0.5 0.916667 0.416667
642 1 0.75 0.916667 0.333333
644 1 0.666667 0.916667 0.416667
646 1 0.916667 0.916667 0.333333
648 1 0.833333 0.916667 0.416667
649 1 0 0.5 0.5
650 1 0.0833333 0.583333 0.5
651 1 0.0833333 0.5 0.583333
652 1 0 0.583333 0.583333
653 1 0.166667 0.5 0.5
654 1 0.25 0.583333 0.5
655 1 0.25 0.5 0.583333
656 1 0.166667 0.583333 0.583333
657 1 0.333333 0.5 0.5
658 1 0.416667 0.583333 0.5
659 1 0.416667 0.5 0.583333
660 1 0.333333 0.583333 0.583333
661 1 0.5 0.5 0.5
662 1 0.583333 0.583333 0.5
663 1 0.583333 0.5 0.583333
664 1 0.5 0.583333 0.583333
665 1 0.666667 0.5 0.5
666 1 0.75 0.583333 0.5
667 1 0.75 0.5 0.583333
668 1 0.666667 0.583333 0.583333
669 1 0.833333 0.5 0.5
670 1 0.916667 0.583333 0.5
671 1 0.916667 0.5 0.583333
672 1 0.833333 0.583333 0.583333
673 1 0 0.666667 0.5
674 1 0.0833333 0.75 0.5
675 1 0.0833333 0.666667 0.583333
676 1 0 0.75 0.583333
697 1 0 0.833333 0.5
699 1 0.0833333 0.833333 0.583333
677 1 0.166667 0.666667 0.5
678 1 0.25 0.75 0.5
679 1 0.25 0.666667 0.583333
680 1 0.166667 0.75 0.583333
701 1 0.166667 0.833333 0.5
703 1 0.25 0.833333 0.583333
681 1 0.333333 0.666667 0.5
682 1 0.416667 0.75 0.5
683 1 0.416667 0.666667 0.583333
684 1 0.333333 0.75 0.583333
705 1 0.333333 0.833333 0.5
707 1 0.416667 0.833333 0.583333
685 1 0.5 0.666667 0.5
686 1 0.583333 0.75 0.5
687 1 0.583333 0.666667 0.583333
688 1 0.5 0.75 0.583333
709 1 0.5 0.833333 0.5
711 1 0.583333 0.833333 0.583333
689 1 0.666667 0.666667 0.5
690 1 0.75 0.75 0.5
691 1 0.75 0.666667 0.583333
692 1 0.666667 0.75 0.583333
713 1 0.666667 0.833333 0.5
715 1 0.75 0.833333 0.583333
693 1 0.833333 0.666667 0.5
694 1 0.916667 0.75 0.5
695 1 0.916667 0.666667 0.583333
696 1 0.833333 0.75 0.583333
717 1 0.833333 0.833333 0.5
719 1 0.916667 0.833333 0.583333
698 1 0.0833333 0.916667 0.5
700 1 0 0.916667 0.583333
702 1 0.25 0.916667 0.5
704 1 0.166667 0.916667 0.583333
706 1 0.416667 0.916667 0.5
708 1 0.333333 0.916667 0.583333
710 1 0.583333 0.916667 0.5
712 1 0.5 0.916667 0.583333
714 1 0.75 0.916667 0.5
716 1 0.666667 0.916667 0.583333
718 1 0.916667 0.916667 0.5
720 1 0.833333 0.916667 0.583333
721 1 0 0.5 0.666667
722 1 0.0833333 0.583333 0.666667
723 1 0.0833333 0.5 0.75
724 1 0 0.583333 0.75
793 1 0 0.5 0.833333
794 1 0.0833333 0.583333 0.833333
725 1 0.166667 0.5 0.666667
726 1 0.25 0.583333 0.666667
727 1 0.25 0.5 0.75
728 1 0.166667 0.583333 0.75
797 1 0.166667 0.5 0.833333
798 1 0.25 0.583333 0.833333
729 1 0.333333 0.5 0.666667
730 1 0.416667 0.583333 0.666667
731 1 0.416667 0.5 0.75
732 1 0.333333 0.583333 0.75
801 1 0.333333 0.5 0.833333
802 1 0.416667 0.583333 0.833333
733 1 0.5 0.5 0.666667
734 1 0.583333 0.583333 0.666667
735 1 0.583333 0.5 0.75
736 1 0.5 0.583333 0.75
805 1 0.5 0.5 0.833333
806 1 0.583333 0.583333 0.833333
737 1 0.666667 0.5 0.666667
738 1 0.75 0.583333 0.666667
739 1 0.75 0.5 0.75
740 1 0.666667 0.583333 0.75
809 1 0.666667 0.5 0.833333
810 1 0.75 0.583333 0.833333
741 1 0.833333 0.5 0.666667
742 1 0.916667 0.583333 0.666667
743 1 0.916667 0.5 0.75
744 1 0.833333 0.583333 0.75
813 1 0.833333 0.5 0.833333
814 1 0.916667 0.583333 0.833333
745 1 0 0.666667 0.666667
746 1 0.0833333 0.75 0.666667
747 1 0.0833333 0.666667 0.75
748 1 0 0.75 0.75
769 1 0 0.833333 0.666667
771 1 0.0833333 0.833333 0.75
817 1 0 0.666667 0.833333
818 1 0.0833333 0.75 0.833333
841 1 0 0.833333 0.833333
749 1 0.166667 0.666667 0.666667
750 1 0.25 0.75 0.666667
751 1 0.25 0.666667 0.75
752 1 0.166667 0.75 0.75
773 1 0.166667 0.833333 0.666667
775 1 0.25 0.833333 0.75
821 1 0.166667 0.666667 0.833333
822 1 0.25 0.75 0.833333
845 1 0.166667 0.833333 0.833333
753 1 0.333333 0.666667 0.666667
754 1 0.416667 0.75 0.666667
755 1 0.416667 0.666667 0.75
756 1 0.333333 0.75 0.75
777 1 0.333333 0.833333 0.666667
779 1 0.416667 0.833333 0.75
825 1 0.333333 0.666667 0.833333
826 1 0.416667 0.75 0.833333
849 1 0.333333 0.833333 0.833333
757 1 0.5 0.666667 0.666667
758 1 0.583333 0.75 0.666667
759 1 0.583333 0.666667 0.75
760 1 0.5 0.75 0.75
781 1 0.5 0.833333 0.666667
783 1 0.583333 0.833333 0.75
829 1 0.5 0.666667 0.833333
830 1 0.583333 0.75 0.833333
853 1 0.5 0.833333 0.833333
761 1 0.666667 0.666667 0.666667
762 1 0.75 0.75 0.666667
763 1 0.75 0.666667 0.75
764 1 0.666667 0.75 0.75
785 1 0.666667 0.833333 0.666667
787 1 0.75 0.833333 0.75
833 1 0.666667 0.666667 0.833333
834 1 0.75 0.75 0.833333
857 1 0.666667 0.833333 0.833333
765 1 0.833333 0.666667 0.666667
766 1 0.916667 0.75 0.666667
767 1 0.916667 0.666667 0.75
768 1 0.833333 0.75 0.75
789 1 0.833333 0.833333 0.666667
791 1 0.916667 0.833333 0.75
837 1 0.833333 0.666667 0.833333
838 1 0.916667 0.75 0.833333
861 1 0.833333 0.833333 0.833333
770 1 0.0833333 0.916667 0.666667
772 1 0 0.916667 0.75
842 1 0.0833333 0.916667 0.833333
774 1 0.25 0.916667 0.666667
776 1 0.166667 0.916667 0.75
846 1 0.25 0.916667 0.833333
778 1 0.416667 0.916667 0.666667
780 1 0.333333 0.916667 0.75
850 1 0.416667 0.916667 0.833333
782 1 0.583333 0.916667 0.666667
784 1 0.5 0.916667 0.75
854 1 0.583333 0.916667 0.833333
786 1 0.75 0.916667 0.666667
788 1 0.666667 0.916667 0.75
858 1 0.75 0.916667 0.833333
790 1 0.916667 0.916667 0.666667
792 1 0.833333 0.916667 0.75
862 1 0.916667 0.916667 0.833333
795 1 0.0833333 0.5 0.916667
796 1 0 0.583333 0.916667
799 1 0.25 0.5 0.916667
800 1 0.166667 0.583333 0.916667
803 1 0.416667 0.5 0.916667
804 1 0.333333 0.583333 0.916667
807 1 0.583333 0.5 0.916667
808 1 0.5 0.583333 0.916667
811 1 0.75 0.5 0.916667
812 1 0.666667 0.583333 0.916667
815 1 0.916667 0.5 0.916667
816 1 0.833333 0.583333 0.916667
819 1 0.0833333 0.666667 0.916667
820 1 0 0.75 0.916667
843 1 0.0833333 0.833333 0.916667
823 1 0.25 0.666667 0.916667
824 1 0.166667 0.75 0.916667
847 1 0.25 0.833333 0.916667
827 1 0.416667 0.666667 0.916667
828 1 0.333333 0.75 0.916667
851 1 0.416667 0.833333 0.916667
831 1 0.583333 0.666667 0.916667
832 1 0.5 0.75 0.916667
855 1 0.583333 0.833333 0.916667
835 1 0.75 0.666667 0.916667
836 1 0.666667 0.75 0.916667
859 1 0.75 0.833333 0.916667
839 1 0.916667 0.666667 0.916667
840 1 0.833333 0.75 0.916667
863 1 0.916667 0.833333 0.916667
844 1 0 0.916667 0.916667
848 1 0.166667 0.916667 0.916667
852 1 0.333333 0.916667 0.916667
856 1 0.5 0.916667 0.916667
860 1 0.666667 0.916667 0.916667
864 1 0.833333 0.916667 0.916667
ITEM: TIMESTEP
500
ITEM: NUMBER OF ATOMS
864
ITEM: BOX BOUNDS pp pp pp
-1.4497093383661248e+00 3.3009709338364246e+01
-1.4497093383661248e+00 3.3009709338364246e+01
-1.4497093383661248e+00 3.3009709338364246e+01
ITEM: ATOMS id type xs ys zs
249 1 0.334352 0.18712 0.501669
91 1 0.749895 0.0377463 0.262114
238 1 0.925222 0.0832715 0.484887
4 1 0.0179198 0.0524546 0.0505046
591 1 0.584069 0.503198 0.403996
65 1 0.654917 0.337893 0.0226978
216 1 0.830514 0.396946 0.413054
8 1 0.165439 0.0916396 0.0801738
245 1 0.171309 0.165922 0.492368
509 1 0.186541 0.488021 0.196325
215 1 0.920944 0.321081 0.413372
12 1 0.340623 0.0590417 0.0882284
585 1 0.332007 0.485468 0.376283
593 1 0.673196 0.488435 0.339434
214 1 0.921156 0.406965 0.329667
16 1 0.469839 0.0698088 0.0852489
445 1 0.511892 0.499936 0.00356631
589 1 0.49622 0.49866 0.336245
213 1 0.822799 0.331548 0.330282
20 1 0.659762 0.0886742 0.0919073
212 1 0.663607 0.424782 0.419344
46 1 0.906961 0.264894 0.0593901
211 1 0.736768 0.330399 0.412924
24 1 0.843056 0.0913789 0.0791663
217 1 0.999529 0.00723192 0.496583
282 1 0.749975 0.407628 0.481562
27 1 0.0755574 0.152738 0.0906336
28 1 0.00453944 0.244165 0.095207
73 1 0.0153585 0.011622 0.155286
523 1 0.754382 0.479247 0.268495
31 1 0.254713 0.174744 0.0343822
32 1 0.150283 0.240773 0.0661881
147 1 0.0799471 0.00201024 0.431582
254 1 0.61112 0.274059 0.496134
35 1 0.419947 0.186485 0.0660113
36 1 0.349996 0.232733 0.00412534
151 1 0.221323 0.00772621 0.406423
10 1 0.416214 0.0655697 -0.000895956
39 1 0.575235 0.168032 0.0839119
40 1 0.530407 0.258026 0.0734202
89 1 0.660077 0.0165588 0.158834
49 1 0.995854 0.306697 0.0146556
43 1 0.770227 0.165847 0.0443355
44 1 0.671591 0.267629 0.0767219
18 1 0.727545 0.0872857 0.0181489
230 1 0.597102 0.0911893 0.489307
47 1 0.941086 0.152614 0.102279
48 1 0.805049 0.263311 0.0917949
277 1 0.514392 0.353309 0.504804
657 1 0.341063 0.487832 0.486379
51 1 0.0796928 0.316573 0.0764521
52 1 0.0418556 0.410906 0.0662919
527 1 0.939714 0.497679 0.277622
451 1 0.75332 0.480269 0.0774179
55 1 0.258439 0.333268 0.0816135
56 1 0.16707 0.414094 0.0907569
2 1 0.089694 0.100493 0.00401872
198 1 0.218872 0.409587 0.360366
59 1 0.389161 0.328298 0.0488183
60 1 0.326707 0.434726 0.0754875
197 1 0.160173 0.326759 0.328447
196 1 0.00214986 0.402533 0.432702
63 1 0.588153 0.331611 0.107792
64 1 0.527534 0.411674 0.072921
455 1 0.928024 0.488784 0.0926046
195 1 0.074792 0.329641 0.431938
67 1 0.74615 0.365449 0.0941577
68 1 0.658806 0.40519 0.119925
15 1 0.554957 -0.000809452 0.0913563
194 1 0.0927109 0.405024 0.32969
71 1 0.936214 0.356321 0.113314
72 1 0.848505 0.420597 0.112065
210 1 0.749725 0.395513 0.333122
74 1 0.0858301 0.082789 0.171509
435 1 0.0849364 0.48881 0.116538
76 1 0.0141075 0.0706744 0.266719
587 1 0.434951 0.492974 0.41136
78 1 0.248037 0.0813315 0.14404
70 1 0.925641 0.397547 0.0291559
80 1 0.16332 0.0910765 0.246184
209 1 0.653855 0.348942 0.292324
82 1 0.414023 0.0639954 0.175384
208 1 0.501649 0.414259 0.421473
84 1 0.326866 0.0779857 0.257904
226 1 0.43762 0.0763825 0.499825
86 1 0.591949 0.103818 0.163274
37 1 0.510305 0.153872 0.0135701
88 1 0.505395 0.0857381 0.245993
207 1 0.596185 0.337262 0.403678
90 1 0.782548 0.0862409 0.171193
206 1 0.5881 0.426351 0.320219
92 1 0.659375 0.0952662 0.251785
157 1 0.511803 0.00923614 0.351573
94 1 0.939096 0.0743132 0.174422
205 1 0.491162 0.340137 0.341868
96 1 0.857277 0.0717357 0.257736
97 1 0.0121707 0.165236 0.177678
98 1 0.0938361 0.234079 0.182201
99 1 0.0910357 0.167309 0.257358
100 1 1.00662 0.263466 0.262164
101 1 0.167399 0.160745 0.164798
102 1 0.234229 0.265832 0.163264
103 1 0.269449 0.161054 0.21413
104 1 0.168777 0.264531 0.24882
105 1 0.330954 0.175574 0.132372
106 1 0.421088 0.218745 0.16574
107 1 0.415441 0.145737 0.241739
108 1 0.341417 0.234632 0.243796
109 1 0.502053 0.154842 0.17345
110 1 0.591971 0.227394 0.164871
111 1 0.582671 0.167814 0.251922
112 1 0.505906 0.252824 0.215631
113 1 0.689096 0.172707 0.158827
114 1 0.737848 0.27616 0.179509
115 1 0.752211 0.155968 0.244169
116 1 0.655185 0.23884 0.243646
117 1 0.853818 0.15703 0.189906
118 1 0.921482 0.241603 0.171693
119 1 0.935472 0.153844 0.259313
120 1 0.825263 0.24637 0.25745
121 1 0.0124547 0.306765 0.173043
122 1 0.0693707 0.410729 0.172932
123 1 0.0957352 0.326308 0.254022
124 1 0.00499962 0.421805 0.254054
125 1 0.154023 0.334997 0.159341
126 1 0.254206 0.420535 0.155599
127 1 0.271208 0.340539 0.234616
128 1 0.16982 0.393099 0.242796
129 1 0.33918 0.342577 0.148928
130 1 0.412796 0.429411 0.16922
131 1 0.427374 0.310678 0.267983
132 1 0.338906 0.410758 0.253066
133 1 0.462484 0.328766 0.156005
134 1 0.565395 0.422498 0.163859
135 1 0.549152 0.342334 0.245679
136 1 0.482156 0.414677 0.258155
137 1 0.63705 0.321606 0.188173
138 1 0.750807 0.44103 0.180047
139 1 0.751784 0.351278 0.238076
140 1 0.657051 0.447855 0.226459
141 1 0.840684 0.32725 0.179313
142 1 0.917568 0.426098 0.188514
143 1 0.912802 0.311216 0.27128
144 1 0.848096 0.403049 0.257653
204 1 0.343826 0.389574 0.433466
146 1 0.101623 0.0813605 0.323548
45 1 0.864245 0.180057 0.00674726
148 1 0.0245941 0.0893795 0.42463
203 1 0.407125 0.310413 0.452859
150 1 0.242827 0.0826477 0.326505
222 1 0.246917 0.0750349 0.486658
152 1 0.147643 0.0849348 0.423066
202 1 0.414689 0.411871 0.346474
154 1 0.429309 0.0883544 0.335193
14 1 0.587047 0.0567657 0.0247923
156 1 0.325347 0.0674498 0.414923
201 1 0.333521 0.333633 0.330308