ITEM: TIMESTEP
16500
ITEM: NUMBER OF ATOMS
864
ITEM: BOX BOUNDS pp pp pp
0.0000000000000000e+00 3.1559999999999999e+01
0.0000000000000000e+00 3.1559999999999999e+01
0.0000000000000000e+00 3.1559999999999999e+01
ITEM: ATOMS id type xs ys zs
74 1 0.0848871 0.0955253 0.15331
101 1 0.164391 0.171965 0.172565
455 1 0.91793 0.486993 0.0819035
273 1 0.346967 0.316708 0.506206
8 1 0.16526 0.0833353 0.0901987
78 1 0.263394 0.0935985 0.173553
12 1 0.334024 0.0872464 0.088535
82 1 0.408927 0.0869458 0.169831
35 1 0.424236 0.161199 0.0798343
16 1 0.519591 0.0791935 0.0770344
86 1 0.586286 0.0731654 0.164639
113 1 0.661412 0.161343 0.166753
20 1 0.665113 0.0767942 0.0750209
90 1 0.744115 0.0795565 0.175127
24 1 0.818133 0.0825404 0.0746612
449 1 0.677268 0.514459 -0.00641121
4 1 -0.0135782 0.0838301 0.0851293
94 1 0.897703 0.0857384 0.148214
7 1 0.245379 0.00831483 0.097887
278 1 0.592344 0.420921 0.478753
27 1 0.0774241 0.166483 0.076393
28 1 1.00447 0.252999 0.0834349
51 1 0.0816641 0.330261 0.0838283
32 1 0.172822 0.245491 0.0815878
31 1 0.259079 0.169178 0.0741699
55 1 0.248755 0.320688 0.0898351
36 1 0.346811 0.23852 0.0851831
249 1 0.338678 0.167198 0.50127
40 1 0.519258 0.259912 0.072031
59 1 0.418165 0.338542 0.0923638
282 1 0.743789 0.429028 0.506061
39 1 0.583373 0.167398 0.0764678
63 1 0.590854 0.338598 0.073236
44 1 0.670426 0.249353 0.069599
149 1 0.154513 0.00401114 0.320443
43 1 0.742666 0.167958 0.0874973
48 1 0.831314 0.22822 0.0762136
117 1 0.833206 0.173832 0.156603
47 1 0.92163 0.168037 0.0763846
97 1 0.987625 0.170684 0.163561
11 1 0.414455 -0.00296176 0.0907609
515 1 0.410056 0.500981 0.246603
52 1 1.00289 0.402966 0.0792877
597 1 0.815828 0.50586 0.324295
56 1 0.163077 0.409654 0.0726158
126 1 0.246498 0.408813 0.172742
216 1 0.825393 0.414741 0.421118
513 1 0.330175 0.494262 0.166544
60 1 0.329343 0.407521 0.0884547
213 1 0.823221 0.331565 0.333336
133 1 0.504201 0.332655 0.163949
214 1 0.908144 0.414559 0.329725
163 1 0.743 0.0119699 0.420126
519 1 0.572476 0.495709 0.241443
595 1 0.745927 0.498896 0.412821
222 1 0.254813 0.0814134 0.504964
64 1 0.497959 0.425732 0.0774367
134 1 0.574939 0.423401 0.162423
68 1 0.674351 0.425014 0.0876989
3 1 0.078108 -0.0119408 0.0802627
67 1 0.750238 0.325697 0.0860011
511 1 0.245125 0.489944 0.242306
157 1 0.500075 -0.0219482 0.328915
71 1 0.92166 0.319868 0.0783208
72 1 0.852976 0.404286 0.0762642
141 1 0.824131 0.327851 0.168046
579 1 0.0878198 0.501669 0.418839
147 1 0.0802485 -0.00416918 0.421465
211 1 0.734736 0.333722 0.411996
80 1 0.161776 0.0844251 0.230916
99 1 0.0680139 0.169591 0.241108
105 1 0.344583 0.174452 0.17577
150 1 0.257708 0.0832336 0.33374
103 1 0.253458 0.167035 0.245645
84 1 0.330813 0.0827964 0.258557
107 1 0.416261 0.159438 0.250075
154 1 0.41219 0.0857289 0.332176
669 1 0.835941 0.499941 0.508142
439 1 0.257461 0.492237 0.0768592
88 1 0.501713 0.0859615 0.253344
109 1 0.516264 0.152252 0.159315
111 1 0.582198 0.169025 0.250194
158 1 0.576893 0.0907558 0.328348
241 1 -0.00960263 0.177516 0.496104
92 1 0.659887 0.0717932 0.244414
96 1 0.826588 0.0909816 0.249655
210 1 0.747207 0.413376 0.32438
523 1 0.754756 0.505572 0.235029
274 1 0.420304 0.431491 0.507031
254 1 0.577433 0.234116 0.486859
76 1 1.00706 0.078937 0.233989
119 1 0.912461 0.179737 0.244287
166 1 0.908739 0.0944005 0.327157
98 1 0.0901951 0.245482 0.162786
104 1 0.16764 0.254093 0.246583
100 1 0.987835 0.252328 0.244107
123 1 0.0674007 0.334442 0.232201
169 1 0.99131 0.177252 0.322969
102 1 0.257142 0.238944 0.16191
108 1 0.327491 0.248966 0.259197
125 1 0.163704 0.324624 0.160054
129 1 0.334632 0.333447 0.17813
127 1 0.243878 0.329393 0.254419
106 1 0.426511 0.244455 0.154129
131 1 0.420023 0.326731 0.25213
112 1 0.505541 0.254344 0.240698
201 1 0.32902 0.328908 0.336153
110 1 0.591702 0.256957 0.165647
137 1 0.665943 0.336615 0.157445
135 1 0.582242 0.348167 0.25347
205 1 0.501515 0.335823 0.329122
189 1 0.831422 0.166013 0.331877
116 1 0.655882 0.259115 0.247029
114 1 0.746015 0.249311 0.168495
115 1 0.748666 0.16273 0.251302
120 1 0.831761 0.252727 0.256626
118 1 0.917892 0.248947 0.164887
190 1 0.914921 0.245264 0.328183
121 1 1 0.321872 0.166231
122 1 0.069896 0.411283 0.157488
194 1 0.0987637 0.420545 0.334153
197 1 0.165271 0.329252 0.328487
128 1 0.161096 0.4025 0.233429
132 1 0.329627 0.411831 0.257413
95 1 0.917403 0.0138998 0.244358
130 1 0.411447 0.40983 0.176401
202 1 0.408274 0.40786 0.345988
136 1 0.484702 0.416734 0.262599
140 1 0.669724 0.421783 0.244792
139 1 0.742406 0.327873 0.244612
138 1 0.75394 0.418735 0.160407
144 1 0.828314 0.413131 0.245269
451 1 0.75204 0.508263 0.0776041
124 1 1.0009 0.426326 0.254913
142 1 0.918706 0.420471 0.173932
143 1 0.906036 0.332042 0.253429
146 1 0.0746727 0.101648 0.33301
148 1 0.995102 0.0957609 0.40401
62 1 0.592291 0.426982 0.00833239
145 1 0.994723 0.000471988 0.335945
152 1 0.158773 0.0915879 0.394444
175 1 0.258396 0.167995 0.410036
206 1 0.587141 0.421277 0.334078
177 1 0.332327 0.173806 0.332938
156 1 0.33392 0.0846915 0.421692
179 1 0.415549 0.154939 0.426297
58 1 0.397569 0.420742 -0.00047763
509 1 0.171615 0.490466 0.154749
185 1 0.663677 0.153527 0.327334
160 1 0.517451 0.0632665 0.414279
164 1 0.662442 0.0871193 0.410283
181 1 0.4941 0.159829 0.340927
162 1 0.750773 0.0796216 0.32628
168 1 0.830733 0.092096 0.412901
208 1 0.502827 0.417634 0.409977
41 1 0.680001 0.16715 -0.0110148
212 1 0.671095 0.419352 0.402166
585 1 0.308776 0.483822 0.33729
204 1 0.318495 0.416585 0.431914
195 1 0.080572 0.333241 0.406899
173 1 0.161651 0.161656 0.319532
170 1 0.0805828 0.246117 0.334741
171 1 0.0869941 0.164268 0.422748
198 1 0.224651 0.410221 0.318808
174 1 0.233379 0.243333 0.337205
200 1 0.164468 0.419142 0.433675
199 1 0.245551 0.331751 0.415292
176 1 0.155404 0.24027 0.407012
203 1 0.414559 0.337457 0.431852
180 1 0.346654 0.250724 0.404224
178 1 0.433534 0.242302 0.329823
193 1 1.00491 0.333891 0.324631
191 1 0.912586 0.170755 0.419494
207 1 0.586393 0.340712 0.403144
209 1 0.651027 0.325687 0.327708
184 1 0.505409 0.254263 0.424072
183 1 0.580374 0.155239 0.414966
182 1 0.577564 0.233007 0.328947
186 1 0.745508 0.256071 0.33542
192 1 0.824096 0.249525 0.421452
188 1 0.660817 0.237484 0.40547
187 1 0.747398 0.160188 0.402523
196 1 -0.0107755 0.417559 0.41155
215 1 0.904427 0.320697 0.406816
172 1 -0.00535489 0.242987 0.411237
286 1 0.911981 0.412681 0.489574
246 1 0.246582 0.249986 0.498612
525 1 0.838239 0.497657 0.161742
266 1 0.0780771 0.402791 0.503014
517 1 0.48806 0.484617 0.161608
89 1 0.670983 -0.00645383 0.160178
277 1 0.509714 0.342492 0.495075
229 1 0.499417 -0.00157256 0.494901
527 1 0.911336 0.502882 0.265405
265 1 0.994996 0.334473 0.489891
83 1 0.422143 -0.00358684 0.260035
443 1 0.409478 0.493717 0.0808336
281 1 0.660255 0.34968 0.492808
437 1 0.157283 0.505395 0.0145765
34 1 0.432244 0.240905 -0.00117032
257 1 0.661987 0.170311 0.486947
46 1 0.913648 0.247978 -0.00814635
22 1 0.915691 0.0787346 0.0042132
57 1 0.332606 0.319816 0.00662741
221 1 0.18555 -0.0127766 0.507324
262 1 0.909113 0.248707 0.497606
441 1 0.33444 0.49994 -0.00379618
234 1 0.752071 0.0981633 0.496906
245 1 0.173001 0.167788 0.491109
242 1 0.080431 0.25243 0.494611
269 1 0.165059 0.331476 0.481498
2 1 0.0755107 0.0846988 0.000798821
29 1 0.170684 0.171411 0.00604751
66 1 0.749607 0.421779 0.0168065
218 1 0.0928208 0.0836619 0.497592
25 1 -0.0090506 0.171875 -0.00741498
243 1 0.0791396 0.166188 0.575403
253 1 0.489043 0.166789 0.498822
725 1 0.176875 0.4947 0.685795
224 1 0.179052 0.0864787 0.575358
228 1 0.345724 0.0776345 0.583685
803 1 0.424403 0.504441 0.912114
247 1 0.254426 0.157813 0.587311
232 1 0.49694 0.0873671 0.58237
251 1 0.420857 0.171307 0.584355
431 1 0.924506 0.328495 0.913944
303 1 0.585026 0.0023691 0.753379
735 1 0.574731 0.498761 0.758036
255 1 0.595922 0.158724 0.579177
289 1 1.00962 -0.00511155 0.654162
727 1 0.259031 0.489545 0.752545
236 1 0.674374 0.0933584 0.585787
306 1 0.757087 0.0953809 0.666293
69 1 0.829866 0.3307 1.00032
311 1 0.920719 0.00846259 0.745654
220 1 1.00017 0.0766774 0.580049
240 1 0.817605 0.0798923 0.582174
310 1 0.912993 0.077252 0.650178
30 1 0.254427 0.240899 0.996358
244 1 1.01431 0.258882 0.585329
337 1 1.02327 0.341378 0.663099
737 1 0.667698 0.494679 0.662241
248 1 0.162441 0.244696 0.573722
341 1 0.182909 0.337741 0.662178
252 1 0.32281 0.238162 0.595471
321 1 0.339467 0.146366 0.66517
275 1 0.419934 0.345234 0.588744
729 1 0.32627 0.510933 0.664831
256 1 0.505568 0.255229 0.57241
260 1 0.659609 0.264831 0.576706
325 1 0.515513 0.177912 0.668022
305 1 0.653619 0.00114133 0.670823
258 1 0.741683 0.262087 0.502273
259 1 0.750597 0.181514 0.586755
283 1 0.73475 0.34596 0.576677
330 1 0.754115 0.255302 0.660987
333 1 0.835965 0.171678 0.658051
263 1 0.924383 0.167645 0.583311
264 1 0.831022 0.255975 0.571678
357 1 0.822273 0.337715 0.663306
287 1 0.917555 0.333831 0.57543
33 1 0.346025 0.163751 0.995362
432 1 0.845658 0.417034 0.91489
267 1 0.0990018 0.333517 0.582011
272 1 0.16395 0.418253 0.591367
338 1 0.0935776 0.421316 0.675555
667 1 0.747666 0.504602 0.576977
271 1 0.253074 0.321909 0.576873
276 1 0.336334 0.41418 0.585402
363 1 0.0835385 0.00321833 0.931567
427 1 0.753641 0.332412 0.917359
346 1 0.42206 0.421188 0.676859
426 1 0.753405 0.421921 0.841885
721 1 0.00362776 0.506824 0.673889
280 1 0.497911 0.429721 0.586809
279 1 0.578752 0.338342 0.579977
671 1 0.925783 0.518173 0.579084
10 1 0.408764 0.0734372 1.00641
284 1 0.656759 0.425496 0.589958
354 1 0.761608 0.432139 0.664763
6 1 0.25357 0.0853112 1.00296
801 1 0.340337 0.505266 0.846609
288 1 0.83822 0.412264 0.577469
268 1 -0.0107359 0.408782 0.581162
358 1 0.923149 0.412628 0.657663
423 1 0.589979 0.333719 0.930776
424 1 0.488379 0.420034 0.928672
290 1 0.0861627 0.0996124 0.660292
315 1 0.0922385 0.169814 0.750975
362 1 0.0881442 0.0785663 0.838379
296 1 0.169646 0.0902165 0.732126
294 1 0.259103 0.0648941 0.660338
317 1 0.168868 0.17155 0.644966
300 1 0.320189 0.0816094 0.766617
319 1 0.255269 0.175301 0.751754
389 1 0.156492 0.173666 0.835321
298 1 0.430057 0.0887349 0.678323
304 1 0.492897 0.0567166 0.749012
428 1 0.688208 0.418313 0.928795
302 1 0.594279 0.0906947 0.661364
327 1 0.5819 0.181448 0.762522
422 1 0.580707 0.402522 0.849073
379 1 0.747528 -0.00369781 0.91201
308 1 0.666088 0.0854358 0.741507
312 1 0.831994 0.077502 0.738333
231 1 0.583478 0.00326549 0.584866
292 1 0.0184252 0.0911824 0.748576
335 1 0.904733 0.166637 0.74628
50 1 0.0683807 0.421039 0.997888
314 1 0.0830034 0.24842 0.666694
386 1 0.0699164 0.243377 0.844859
413 1 0.168265 0.32623 0.834356
316 1 0.989949 0.255333 0.755059
318 1 0.236931 0.250932 0.658395
320 1 0.159798 0.264655 0.737123
390 1 0.254372 0.244573 0.832652
343 1 0.259368 0.332798 0.745644
322 1 0.431221 0.243892 0.660122
324 1 0.340403 0.233684 0.71567
393 1 0.338127 0.169817 0.833142
323 1 0.423773 0.170393 0.744626
345 1 0.332733 0.318724 0.655252
417 1 0.341889 0.333295 0.838422
329 1 0.659547 0.172052 0.681765
326 1 0.591851 0.249545 0.677869
353 1 0.668761 0.345614 0.673519
328 1 0.500531 0.272212 0.754205
401 1 0.660895 0.171036 0.831376
331 1 0.764508 0.174445 0.752112
332 1 0.678268 0.25643 0.738297
402 1 0.738123 0.246049 0.832527
385 1 0.992789 0.172898 0.825983
313 1 -0.00595578 0.179704 0.665892
336 1 0.837158 0.253908 0.738876
334 1 0.914964 0.261219 0.654238
406 1 0.913285 0.255894 0.838279
409 1 -0.0019435 0.338139 0.839281
419 1 0.41571 0.33425 0.92549
339 1 0.0855107 0.338148 0.756413
340 1 0.00582095 0.418357 0.736362
410 1 0.100998 0.418835 0.834957
342 1 0.250906 0.424173 0.652772
420 1 0.33207 0.402689 0.924656
344 1 0.171078 0.40092 0.747534
414 1 0.246884 0.39766 0.843342
348 1 0.331929 0.414478 0.755609
347 1 0.402587 0.327679 0.736812
352 1 0.506949 0.404279 0.755156
418 1 0.413583 0.420638 0.846619
349 1 0.500739 0.335747 0.662541
350 1 0.57143 0.423712 0.673046
425 1 0.67055 0.340627 0.843105
421 1 0.501474 0.336341 0.862133
351 1 0.590258 0.332564 0.741116
355 1 0.746404 0.340919 0.75312
356 1 0.662762 0.422481 0.772664
360 1 0.827997 0.429647 0.755757
359 1 0.915476 0.349606 0.754057
430 1 0.938002 0.437568 0.826483
429 1 0.823025 0.338048 0.836985
235 1 0.744197 0.00244327 0.585591
368 1 0.154054 0.0994417 0.928751
387 1 0.0840208 0.162374 0.911698
364 1 0.996928 0.0736123 0.915676
70 1 0.933568 0.427435 0.985199
739 1 0.743741 0.508848 0.758381
366 1 0.228969 0.0911322 0.82058
372 1 0.326964 0.0823545 0.893402
65 1 0.671834 0.343975 0.998355
370 1 0.413116 0.0709928 0.824846
397 1 0.489707 0.17112 0.828903
376 1 0.479029 0.0770803 0.917724
374 1 0.592623 0.0766482 0.828289
380 1 0.669833 0.0769689 0.900776
219 1 0.0970689 0.00600087 0.588926
807 1 0.590842 0.4938 0.915592
378 1 0.745669 0.0843746 0.827158
415 1 0.254113 0.318193 0.910838
403 1 0.755804 0.155523 0.907874
384 1 0.834392 0.0737247 0.924661
665 1 0.661884 0.492544 0.49492
382 1 0.914517 0.0800949 0.837193
659 1 0.410331 0.509567 0.592653
416 1 0.161997 0.4223 0.926336
37 1 0.506724 0.158489 0.994689
392 1 0.169375 0.247505 0.914501
388 1 0.995754 0.238205 0.917365
405 1 0.834453 0.165877 0.837229
411 1 0.079883 0.339485 0.917893
230 1 0.58002 0.0817901 0.4967
407 1 0.908729 0.152192 0.923602
391 1 0.247273 0.161618 0.910793
394 1 0.425066 0.257277 0.833897
400 1 0.495832 0.236594 0.918979
396 1 0.337956 0.242453 0.916876
395 1 0.415826 0.168692 0.91317
412 1 0.00796929 0.430627 0.906195
404 1 0.669017 0.238291 0.912137
398 1 0.583776 0.268185 0.823757
399 1 0.587806 0.162742 0.908781
408 1 0.838618 0.241994 0.91646
309 1 0.832272 0.00616666 0.654049
233 1 0.672364 0.0184682 0.492451
285 1 0.830369 0.343106 0.497761
805 1 0.504308 0.485899 0.848381
45 1 0.829691 0.156709 1.00484
367 1 0.242146 0.0126448 0.903367
723 1 0.107177 0.504588 0.761968
9 1 0.305249 -0.0155499 0.99585
291 1 0.0932528 0.00728366 0.739131
293 1 0.177822 -0.00803138 0.666991
261 1 0.839468 0.162785 0.49499
14 1 0.584502 0.0851871 0.996851
53 1 0.166477 0.323343 1.0085
18 1 0.752245 0.0766297 0.99162
5 1 0.177591 0.00604341 1.02019
238 1 0.9191 0.0906686 0.499796
61 1 0.506503 0.328838 0.999181
26 1 0.088136 0.231137 0.991308
250 1 0.431268 0.250756 0.499175
54 1 0.25002 0.412184 0.998822
49 1 -0.00120354 0.31767 0.998542
453 1 0.83347 0.491761 0.999512
226 1 0.416634 0.0660828 0.493236
38 1 0.589806 0.246355 0.995144
270 1 0.252538 0.417697 0.507077
42 1 0.756975 0.244892 0.99142
237 1 0.822977 0.0082034 0.49989
436 1 -0.00374002 0.596844 0.0936695
459 1 0.0710594 0.676657 0.0935849
489 1 0.326845 0.82975 -0.0116417
159 1 0.585497 0.994005 0.408288
440 1 0.155058 0.586905 0.0839901
444 1 0.333419 0.574856 0.0863337
463 1 0.243314 0.644871 0.0927024
589 1 0.482646 0.496517 0.32691
481 1 1.00249 0.832768 -0.00338562
433 1 1.0106 0.509355 0.00410282
161 1 0.665809 0.998163 0.3271
448 1 0.495243 0.572146 0.0829361
153 1 0.334676 1.00314 0.341015
81 1 0.329347 1.00695 0.182057
581 1 0.15493 0.510024 0.317591
23 1 0.923095 1.00007 0.091283
452 1 0.665871 0.58927 0.0807707
475 1 0.748668 0.676986 0.062372
456 1 0.849596 0.571562 0.0710388
545 1 0.668398 0.673471 0.168605
522 1 0.752254 0.58859 0.14634
670 1 0.922073 0.589151 0.494182
710 1 0.602501 0.943145 0.508033
479 1 0.925252 0.679294 0.105184
483 1 0.0887938 0.837506 0.0930824
75 1 0.0832249 1.0006 0.249006
530 1 0.0831457 0.751164 0.182114
557 1 0.1683 0.840825 0.163009
450 1 0.767259 0.582376 -0.00351547
464 1 0.154661 0.7478 0.1065
155 1 0.41988 0.992451 0.407772
561 1 0.323668 0.834454 0.171598
467 1 0.415011 0.650313 0.0864666
468 1 0.330496 0.753788 0.0896072
491 1 0.409098 0.842948 0.0920968
507 1 0.0886342 0.485885 0.224276
472 1 0.501775 0.739152 0.0838026
471 1 0.58264 0.660452 0.0935772
502 1 0.920403 0.921155 0.010564
521 1 0.678852 0.506979 0.158218
434 1 0.078107 0.591737 0.00167766
476 1 0.660035 0.753547 0.0721682
569 1 0.665028 0.829544 0.158146
546 1 0.755597 0.746724 0.153429
466 1 0.410538 0.744993 0.0135604
460 1 1.01879 0.765926 0.0888245
480 1 0.836148 0.764308 0.0826104
554 1 0.0829429 0.909113 0.176771
497 1 0.668397 0.831205 -0.00877413
462 1 0.24299 0.736882 0.0280644
79 1 0.236733 0.998927 0.246089
487 1 0.251562 0.828979 0.0832239
488 1 0.15297 0.917578 0.0886667
558 1 0.245302 0.920912 0.157269
577 1 -0.00368244 0.499149 0.335223
625 1 -0.00592689 0.832075 0.347277
165 1 0.827603 1.00975 0.329463
73 1 0.0121574 0.997374 0.171137
492 1 0.328766 0.930624 0.0949809
562 1 0.419294 0.926732 0.169212
435 1 0.0707845 0.501119 0.0807496
495 1 0.57852 0.834288 0.0756401
647 1 0.920652 0.826894 0.436616
496 1 0.501386 0.904696 0.0842121
566 1 0.578609 0.916638 0.154438
628 1 0.0129989 0.906347 0.428832
499 1 0.757008 0.829696 0.0761372
500 1 0.654364 0.919523 0.0829665
570 1 0.749 0.905938 0.157308
504 1 0.835646 0.907022 0.086614
503 1 0.923554 0.833352 0.0783473
484 1 -0.00229994 0.910005 0.0825752
447 1 0.587779 0.503708 0.0770507
573 1 0.849313 0.84989 0.173359
506 1 0.091137 0.591878 0.180669
512 1 0.166824 0.589796 0.248514
529 1 0.00413233 0.671121 0.174033
508 1 0.997695 0.573926 0.252515
19 1 0.753861 0.980768 0.0758212
510 1 0.23318 0.575114 0.164256
477 1 0.841036 0.67592 0.0161471
644 1 0.657751 0.920331 0.412702
682 1 0.428107 0.760963 0.511591
514 1 0.410106 0.586047 0.172978
516 1 0.327708 0.571238 0.256493
520 1 0.483364 0.587504 0.251392
87 1 0.571518 0.998643 0.244324
518 1 0.585159 0.580409 0.166339
590 1 0.580089 0.573095 0.312367
648 1 0.833096 0.923604 0.421933
549 1 0.830391 0.64868 0.159439
524 1 0.673724 0.586391 0.247683
594 1 0.749329 0.599765 0.331414
547 1 0.751902 0.669437 0.251587
645 1 0.847495 0.835805 0.348357
639 1 0.602446 0.833796 0.417688
526 1 0.923308 0.569797 0.160139
528 1 0.828504 0.592814 0.250866
551 1 0.926972 0.671208 0.243123
533 1 0.163341 0.66868 0.173905
531 1 0.0817688 0.670276 0.257732
602 1 0.0909889 0.754821 0.327408
536 1 0.176657 0.773235 0.240888
534 1 0.237513 0.746866 0.153076
535 1 0.259627 0.656841 0.234245
559 1 0.262568 0.837629 0.251636
541 1 0.499424 0.653498 0.163478
537 1 0.336709 0.663384 0.166199
538 1 0.412899 0.752832 0.159418
539 1 0.407405 0.674632 0.254226
540 1 0.335504 0.756548 0.247672
565 1 0.487897 0.836422 0.169987
543 1 0.589245 0.671276 0.249463
542 1 0.581229 0.753896 0.174103
544 1 0.48926 0.749098 0.235133
641 1 0.676468 0.842218 0.329185
548 1 0.657243 0.751664 0.249716
552 1 0.84235 0.753276 0.256358
550 1 0.918755 0.760984 0.175104
532 1 0.0028539 0.756213 0.255258
622 1 0.913406 0.74569 0.340235
553 1 1.0119 0.832407 0.178437
555 1 0.0816018 0.83896 0.266462
556 1 -0.00325823 0.923282 0.258692
626 1 0.0845743 0.91962 0.344931
482 1 0.0776716 0.923895 -0.00059517
629 1 0.172452 0.83531 0.333922
560 1 0.175667 0.916295 0.250878
630 1 0.247583 0.92017 0.337888
631 1 0.259154 0.822083 0.422907
623 1 0.921905 0.664618 0.413422
633 1 0.339417 0.836289 0.351546
563 1 0.416201 0.830932 0.253059
564 1 0.330314 0.918822 0.264721
634 1 0.416752 0.914128 0.343448
621 1 0.838093 0.658009 0.334088
624 1 0.837178 0.745942 0.42826
567 1 0.587966 0.842906 0.24075
568 1 0.494291 0.903599 0.246948
638 1 0.578329 0.905892 0.326564
572 1 0.658879 0.926352 0.234781
637 1 0.503468 0.825289 0.336089
642 1 0.752797 0.925648 0.331622
571 1 0.745566 0.832092 0.248898
576 1 0.84511 0.915187 0.2689
646 1 0.916438 0.926638 0.354342
575 1 0.923908 0.84082 0.25959
574 1 0.929998 0.919318 0.162225
578 1 0.0885716 0.594225 0.332466
93 1 0.826874 0.982348 0.152992
582 1 0.243883 0.577323 0.335825
584 1 0.171334 0.580212 0.414731
461 1 0.17382 0.659339 -0.00329363
618 1 0.765696 0.746993 0.336249
586 1 0.40334 0.586382 0.333624
588 1 0.338607 0.586507 0.417343
611 1 0.414956 0.666755 0.421974
613 1 0.49912 0.67073 0.319447
592 1 0.498098 0.602784 0.408485
615 1 0.594868 0.662758 0.412231
596 1 0.667429 0.576034 0.416807
635 1 0.425722 0.824046 0.41795
617 1 0.669203 0.663832 0.342287
599 1 0.913002 0.502282 0.415607
580 1 1.00512 0.592537 0.418664
600 1 0.822473 0.583529 0.420041
598 1 0.914438 0.589994 0.318744
636 1 0.335065 0.916253 0.425998
619 1 0.748614 0.667897 0.428869
616 1 0.505365 0.743764 0.41709
601 1 1.00258 0.668031 0.333305
603 1 0.0879531 0.670655 0.416509
608 1 0.174458 0.737662 0.43294
627 1 0.0816915 0.829314 0.410203
640 1 0.508163 0.902726 0.410122
632 1 0.164506 0.914927 0.421603
605 1 0.177546 0.669489 0.329674
606 1 0.268589 0.753396 0.331073
607 1 0.245119 0.660672 0.422094
643 1 0.747463 0.834733 0.409484
609 1 0.329593 0.657788 0.320849
610 1 0.417317 0.757188 0.332053
612 1 0.333029 0.752361 0.424644
604 1 -0.00643336 0.753065 0.416854
614 1 0.578801 0.737309 0.331948
620 1 0.671813 0.752366 0.422555
709 1 0.519617 0.816897 0.501758
17 1 0.666941 0.995457 -0.00386027
718 1 0.911621 0.923304 0.494806
591 1 0.57372 0.513059 0.407612
15 1 0.568157 0.990633 0.0783515
458 1 0.0848974 0.733526 -0.00218306
587 1 0.411436 0.497115 0.422921
77 1 0.155636 0.991694 0.161998
505 1 1.00288 0.502216 0.163866
593 1 0.67607 0.492192 0.329954
85 1 0.489908 1.01855 0.15974
91 1 0.76337 0.978512 0.242862
457 1 -0.00426121 0.671461 0.00578681
151 1 0.262348 1.00844 0.41
583 1 0.240989 0.505327 0.431403
167 1 0.906443 1.00814 0.427563
657 1 0.332148 0.501519 0.512484
673 1 0.99528 0.673022 0.494024
661 1 0.501918 0.502294 0.510966
438 1 0.251497 0.570845 0.00236041
666 1 0.749544 0.583417 0.502629
685 1 0.493151 0.671185 0.503463
674 1 0.0835813 0.757338 0.49397
217 1 0.999317 1.00461 0.498311
485 1 0.164123 0.818536 0.00916673
714 1 0.744791 0.914412 0.499282
649 1 0.0084831 0.49344 0.506636
493 1 0.487857 0.832887 0.00874969
478 1 0.907548 0.758091 -0.00371768
469 1 0.50176 0.648756 -0.000130876
486 1 0.244242 0.90913 0.0107479
13 1 0.489686 0.998718 -0.00817357
21 1 0.83602 1.00182 0.00116973
656 1 0.160754 0.573521 0.569157
675 1 0.0749993 0.661467 0.592176
465 1 0.334914 0.66018 1.02055
660 1 0.331188 0.594531 0.589187
726 1 0.225704 0.595885 0.686332
373 1 0.501381 0.984878 0.84226
749 1 0.146283 0.66882 0.680367
654 1 0.248867 0.589527 0.498758
664 1 0.496923 0.589911 0.583308
730 1 0.404218 0.59775 0.662564
733 1 0.501815 0.495005 0.682292
668 1 0.666442 0.587094 0.584208
813 1 0.846346 0.490974 0.835503
734 1 0.565291 0.578168 0.665855
369 1 0.336173 0.991912 0.826772
738 1 0.745196 0.569159 0.670834
672 1 0.825036 0.583673 0.579837
652 1 1.01757 0.572221 0.592789
742 1 0.926209 0.59139 0.668549
793 1 0.0100737 0.502595 0.815296
307 1 0.741668 1.00673 0.746161
680 1 0.163242 0.746645 0.581876
745 1 1.00761 0.673609 0.677014
746 1 0.0868529 0.757512 0.66513
769 1 0.00805409 0.838612 0.664009
753 1 0.323731 0.666122 0.695097
679 1 0.251329 0.657268 0.606883
750 1 0.229113 0.738794 0.686977
684 1 0.330803 0.749225 0.594771
683 1 0.406237 0.664583 0.586144
754 1 0.421061 0.745135 0.664112
687 1 0.581237 0.667084 0.588095
688 1 0.500197 0.752997 0.582388
662 1 0.591238 0.598104 0.497788
758 1 0.576648 0.744189 0.663342
295 1 0.254385 0.995292 0.756263
691 1 0.750612 0.656959 0.593504
692 1 0.675323 0.739875 0.587663
696 1 0.841159 0.744402 0.590366
715 1 0.751039 0.841077 0.596362
676 1 0.994148 0.740846 0.589871
695 1 0.902685 0.656684 0.582988
741 1 0.842085 0.509587 0.655774
381 1 0.827494 0.995639 0.834221
699 1 0.0887252 0.838943 0.573655
704 1 0.165591 0.912643 0.592424
681 1 0.335433 0.668435 0.497216
703 1 0.256226 0.830912 0.586361
708 1 0.337807 0.898759 0.579561
239 1 0.91285 1.0097 0.567884
223 1 0.257867 0.99543 0.582046
707 1 0.426534 0.835976 0.589871
809 1 0.664143 0.504712 0.835415
663 1 0.588031 0.513585 0.573191
731 1 0.399791 0.502624 0.756285
693 1 0.830055 0.674052 0.505445
227 1 0.420867 1.00534 0.583815
711 1 0.590947 0.812477 0.583929
712 1 0.513502 0.908385 0.582798
365 1 0.166333 0.997007 0.825366
795 1 0.0796278 0.514127 0.916884
844 1 -0.000838046 0.919843 0.910066
716 1 0.669637 0.912077 0.580236
786 1 0.737383 0.924838 0.672088
799 1 0.250711 0.491632 0.923753
864 1 0.81693 0.918534 0.919443
797 1 0.184763 0.498186 0.835074
700 1 0.00767762 0.914178 0.580075
719 1 0.909969 0.839174 0.581282
720 1 0.836858 0.918344 0.591309
651 1 0.0861124 0.491904 0.590786
371 1 0.412889 0.993482 0.903038
722 1 0.0986965 0.576463 0.664421
747 1 0.0835578 0.687559 0.769833
794 1 0.0651537 0.592493 0.836936
839 1 0.911586 0.685294 0.915198
863 1 0.910348 0.845031 0.922424
728 1 0.164762 0.596667 0.768806
751 1 0.2389 0.668159 0.772184
732 1 0.324786 0.594759 0.765357
862 1 0.919279 0.921887 0.831895
838 1 0.923491 0.759247 0.839543
736 1 0.495726 0.582917 0.754956
757 1 0.502872 0.664687 0.659066
802 1 0.413418 0.582397 0.830526
653 1 0.156753 0.489009 0.511043
859 1 0.747911 0.846224 0.895842
702 1 0.253366 0.912331 0.485448
740 1 0.653352 0.571304 0.743134
829 1 0.503603 0.674865 0.8347
806 1 0.573984 0.579831 0.846001
765 1 0.827033 0.663072 0.671395
744 1 0.836099 0.58992 0.751588
650 1 0.0817167 0.569996 0.499637
724 1 0.0247657 0.589846 0.739254
814 1 0.925995 0.582817 0.835187
767 1 0.920595 0.658269 0.76111
301 1 0.49903 0.988487 0.654913
773 1 0.153208 0.830831 0.654298
752 1 0.171114 0.770488 0.767671
756 1 0.331311 0.751006 0.760481
822 1 0.259363 0.743181 0.837809
775 1 0.262632 0.840257 0.743303
755 1 0.421086 0.656972 0.748875
777 1 0.32582 0.831483 0.665912
826 1 0.415227 0.755582 0.842272
760 1 0.499888 0.747501 0.747596
853 1 0.499438 0.822936 0.838888
779 1 0.424479 0.828151 0.747187
759 1 0.570675 0.66615 0.741265
764 1 0.67312 0.7523 0.739987
781 1 0.504132 0.842402 0.661914
783 1 0.584978 0.822142 0.737082
830 1 0.579716 0.752927 0.827024
761 1 0.66638 0.658985 0.66469
762 1 0.755378 0.749481 0.66895
763 1 0.74747 0.660311 0.745286
789 1 0.829237 0.835574 0.670413
834 1 0.75691 0.750646 0.825874
748 1 0.00403679 0.758424 0.738944
768 1 0.835604 0.7598 0.75663
766 1 0.919631 0.757731 0.673347
817 1 0.996058 0.668738 0.845128
857 1 0.664935 0.832617 0.821747
856 1 0.500601 0.918538 0.932645
770 1 0.0937026 0.925192 0.666759
655 1 0.250116 0.522393 0.593468
771 1 0.0881431 0.836307 0.755386
772 1 0.00510167 0.917369 0.744903
776 1 0.166257 0.91328 0.749743
774 1 0.244469 0.907819 0.673686
845 1 0.160588 0.847672 0.846345
846 1 0.241428 0.917968 0.84316
860 1 0.659648 0.904244 0.917493
778 1 0.41238 0.908697 0.675695
780 1 0.340125 0.91446 0.753028
850 1 0.426251 0.907539 0.835221
375 1 0.58949 0.999009 0.928917
820 1 0.00310293 0.747089 0.926959
784 1 0.509862 0.922591 0.746935
782 1 0.579971 0.91739 0.659991
785 1 0.671549 0.836197 0.669999
854 1 0.576856 0.905357 0.838101
788 1 0.652626 0.918743 0.750881
299 1 0.411287 0.987428 0.750481
858 1 0.741625 0.925416 0.822922
787 1 0.748006 0.842103 0.75332
861 1 0.837822 0.838899 0.837465
792 1 0.81551 0.926437 0.746726
791 1 0.916994 0.83944 0.748352
790 1 0.919465 0.921339 0.670158
841 1 1.00351 0.833015 0.827047
819 1 0.0846657 0.657178 0.919939
821 1 0.166404 0.676552 0.842421
796 1 -0.00934361 0.596694 0.92273
658 1 0.410176 0.584795 0.500762
798 1 0.269236 0.573121 0.83939
800 1 0.169752 0.582432 0.915054
825 1 0.346125 0.674786 0.827729
804 1 0.328119 0.592618 0.923864
808 1 0.492735 0.591978 0.916276
827 1 0.406178 0.670846 0.925801
815 1 0.925153 0.510716 0.926014
717 1 0.832483 0.835739 0.506947
833 1 0.65504 0.659612 0.832359
842 1 0.0925655 0.922248 0.831088
810 1 0.75006 0.572408 0.836522
812 1 0.672939 0.587606 0.91192
816 1 0.843314 0.583473 0.907668
852 1 0.315432 0.919995 0.911947
377 1 0.663934 0.997907 0.827914
848 1 0.163888 0.922454 0.931468
818 1 0.0845159 0.767515 0.848636
824 1 0.159684 0.741052 0.924054
843 1 0.0927086 0.834949 0.925701
837 1 0.82879 0.660999 0.836172
849 1 0.33152 0.83453 0.83675
823 1 0.253946 0.663989 0.923315
828 1 0.325794 0.745594 0.913256
847 1 0.248891 0.824653 0.905466
361 1 0.992007 1.00124 0.822737
851 1 0.40396 0.838475 0.918986
840 1 0.83372 0.762202 0.917001
855 1 0.568922 0.838117 0.924857
831 1 0.581814 0.659889 0.912532
832 1 0.486565 0.750366 0.933225
836 1 0.664907 0.758633 0.897077
383 1 0.91361 0.991625 0.915598
835 1 0.766226 0.672465 0.926267
743 1 0.91727 0.491023 0.736272
297 1 0.344876 0.997687 0.666754
811 1 0.763082 0.497868 0.915006
705 1 0.337773 0.8194 0.501178
225 1 0.325917 1.00463 0.505065
701 1 0.172389 0.822604 0.493723
490 1 0.40858 0.911311 1.00773
498 1 0.747523 0.914308 1.00361
689 1 0.681646 0.662106 0.512282
713 1 0.674676 0.830473 0.502738
686 1 0.585431 0.72798 0.49826
442 1 0.418055 0.581304 1.00777
501 1 0.829809 0.835482 1.0016
474 1 0.751655 0.760114 0.982028
473 1 0.67652 0.660815 0.99166
706 1 0.418224 0.920009 0.499
445 1 0.510135 0.505918 1.00585
470 1 0.582568 0.735591 0.990661
694 1 0.918662 0.751125 0.509152
446 1 0.589971 0.580371 0.998652
677 1 0.158245 0.658684 0.503415
678 1 0.256924 0.734519 0.511096
494 1 0.578615 0.912126 1.00712
454 1 0.934609 0.58647 1.01073
1 1 -0.000310794 1.00742 1.00131
690 1 0.757821 0.763513 0.503948
697 1 0.99626 0.827494 0.518839
698 1 0.103875 0.918021 0.507711
