ITEM: TIMESTEP
6000
ITEM: NUMBER OF ATOMS
2048
ITEM: BOX BOUNDS pp pp pp
0.0000000000000000e+00 4.2079999999999998e+01
0.0000000000000000e+00 4.2079999999999998e+01
0.0000000000000000e+00 4.2079999999999998e+01
ITEM: ATOMS id type xs ys zs
3 1 0.0603126 0.00626974 0.0762228
1 1 0.00531627 0.00549502 0.00521583
2 1 0.0693746 0.0695203 0.00811673
8 1 0.132233 0.0574223 0.0703099
41 1 0.243407 0.109779 0.00602633
12 1 0.241971 0.06064 0.0688336
37 1 0.139832 0.114778 0.0134845
43 1 0.316849 0.124283 0.074867
16 1 0.373456 0.0585652 0.0624238
11 1 0.307672 0.00895518 0.0698228
141 1 0.368514 0.00539347 0.122119
45 1 0.365947 0.122976 0.0090111
10 1 0.314504 0.0647956 0.00419061
47 1 0.435465 0.124939 0.0649171
15 1 0.444561 0.00808729 0.061557
20 1 0.503807 0.0606221 0.0558363
146 1 0.567437 0.0688405 0.114668
19 1 0.570602 0.00120244 0.0608951
24 1 0.628539 0.0717798 0.0637883
150 1 0.690358 0.0657331 0.124496
23 1 0.679379 0.0121384 0.0637627
153 1 0.742426 0.00361658 0.110461
22 1 0.692664 0.0692151 0.00329626
149 1 0.627709 0.0108592 0.123979
28 1 0.755302 0.0683959 0.0593209
59 1 0.817539 0.123857 0.0611232
154 1 0.807216 0.0610396 0.117989
189 1 0.871529 0.117063 0.118097
27 1 0.807545 0.00227915 0.0524453
4 1 0.987638 0.0733231 0.0570981
32 1 0.877034 0.0689997 0.0537664
31 1 0.941396 0.00407282 0.0511524
129 1 0.988748 0.00732484 0.122076
35 1 0.0590703 0.125296 0.0692738
40 1 0.110329 0.181463 0.0586278
197 1 0.10672 0.246834 0.124248
67 1 0.0578171 0.244133 0.0584223
162 1 0.0429769 0.192587 0.121054
39 1 0.189092 0.137068 0.08801
71 1 0.198952 0.247441 0.0566749
44 1 0.253295 0.184426 0.0625613
75 1 0.310738 0.247115 0.0490131
48 1 0.372214 0.178471 0.0591258
52 1 0.49137 0.186235 0.0630735
77 1 0.380762 0.247943 0.00907683
46 1 0.437088 0.187877 0.00347609
51 1 0.567261 0.134673 0.072645
83 1 0.568717 0.249635 0.0562965
178 1 0.580948 0.200051 0.122227
209 1 0.508558 0.239504 0.114597
53 1 0.613434 0.132031 0.00276005
50 1 0.545698 0.184424 0.00376892
85 1 0.620449 0.244365 0.00641668
56 1 0.632026 0.187145 0.0679955
55 1 0.690284 0.132028 0.0597615
87 1 0.689217 0.247886 0.0646567
182 1 0.7009 0.191736 0.120964
60 1 0.755021 0.193605 0.0579292
186 1 0.813912 0.186772 0.116841
185 1 0.75569 0.12933 0.11951
58 1 0.817522 0.197736 0.00144685
57 1 0.753308 0.136507 0.000728278
63 1 0.926552 0.129272 0.0506503
36 1 0.994875 0.17912 0.0541515
64 1 0.88059 0.187488 0.0562719
95 1 0.94197 0.241909 0.0596577
161 1 0.978771 0.12906 0.124226
225 1 0.000907466 0.374649 0.122977
99 1 0.0729137 0.363029 0.0688853
66 1 0.0730375 0.310474 0.00863245
70 1 0.180556 0.318046 0.0111684
72 1 0.131965 0.298117 0.0681849
103 1 0.183148 0.370987 0.0703135
233 1 0.242578 0.358617 0.124267
76 1 0.250695 0.314564 0.0541736
80 1 0.359905 0.316664 0.0621368
201 1 0.259226 0.254382 0.123108
79 1 0.438011 0.258858 0.0678145
206 1 0.431847 0.318687 0.122115
241 1 0.499595 0.367549 0.119998
81 1 0.479185 0.253192 0.000259049
78 1 0.421136 0.322428 0.0102561
84 1 0.505245 0.307369 0.0639993
210 1 0.568901 0.312168 0.119857
115 1 0.561637 0.36999 0.0623114
88 1 0.629348 0.318608 0.0539333
214 1 0.689189 0.314553 0.119786
92 1 0.747899 0.316841 0.0549123
117 1 0.630019 0.373783 0.000527156
91 1 0.814862 0.263658 0.0689461
96 1 0.871387 0.327712 0.0626263
68 1 0.993715 0.309571 0.0598786
221 1 0.880386 0.263224 0.123134
94 1 0.93409 0.31167 0.00140266
226 1 0.0640497 0.425557 0.12088
100 1 0.00473386 0.438352 0.0607269
98 1 0.0651769 0.439638 0.00514242
1027 1 0.0592551 0.492564 0.0639888
101 1 0.127321 0.377627 0.00140392
102 1 0.189008 0.445464 0.00857853
104 1 0.132039 0.433336 0.0740008
108 1 0.231308 0.429941 0.0733617
1035 1 0.31677 0.495291 0.0621926
107 1 0.29936 0.380686 0.064081
112 1 0.372518 0.423151 0.0642186
106 1 0.303138 0.440416 0.00495822
111 1 0.441165 0.381332 0.0619929
116 1 0.497748 0.442905 0.0592907
1039 1 0.428224 0.494995 0.0503858
245 1 0.62191 0.38558 0.120509
114 1 0.559274 0.434888 0.00205715
1169 1 0.505635 0.494844 0.123213
113 1 0.503585 0.375764 0.00211982
1041 1 0.509409 0.498498 0.00167447
119 1 0.681315 0.375154 0.0598405
1173 1 0.627873 0.495483 0.118082
120 1 0.632916 0.438741 0.0557477
124 1 0.73839 0.437499 0.0620185
1047 1 0.684308 0.498066 0.0637656
118 1 0.68579 0.443359 0.00168619
1181 1 0.863222 0.495781 0.112277
249 1 0.755378 0.376361 0.114891
123 1 0.805986 0.382243 0.0554976
128 1 0.872769 0.436223 0.0581129
250 1 0.80541 0.445187 0.11575
122 1 0.814214 0.442382 0.000884181
127 1 0.942798 0.37639 0.0632422
254 1 0.933807 0.442956 0.113078
126 1 0.94773 0.440361 0.0120542
130 1 0.0605733 0.0678373 0.125858
257 1 0.00338932 0.000164042 0.247959
136 1 0.118212 0.0737846 0.185132
131 1 0.040159 0.015103 0.176698
133 1 0.12662 0.00268385 0.130284
134 1 0.184338 0.0584155 0.130915
167 1 0.192417 0.122734 0.186114
297 1 0.242142 0.121357 0.247055
140 1 0.247661 0.0540078 0.185702
261 1 0.133617 3.36199e-05 0.244444
139 1 0.310077 0.00322612 0.188816
169 1 0.256897 0.118831 0.125729
138 1 0.313358 0.067179 0.136782
144 1 0.36626 0.0606279 0.193007
171 1 0.317548 0.121277 0.193787
269 1 0.364199 0.00106271 0.249997
177 1 0.499804 0.124487 0.129125
173 1 0.382831 0.123791 0.140331
143 1 0.423196 0.00412976 0.185528
142 1 0.438571 0.0616528 0.130246
148 1 0.498032 0.0585821 0.188343
175 1 0.437953 0.113428 0.197102
270 1 0.433969 0.0524407 0.249942
145 1 0.505612 0.0065921 0.125217
274 1 0.567096 0.0688599 0.24742
152 1 0.620525 0.0709954 0.173185
273 1 0.50259 0.010336 0.249354
147 1 0.563606 0.0148185 0.185442
183 1 0.68807 0.119567 0.185893
156 1 0.748986 0.0677156 0.189676
151 1 0.683316 0.0148307 0.180809
281 1 0.747254 3.01785e-05 0.246768
155 1 0.812216 0.00755292 0.174717
313 1 0.753753 0.121555 0.242782
160 1 0.868995 0.0644377 0.188035
187 1 0.811554 0.123965 0.18307
282 1 0.801951 0.0523645 0.244839
158 1 0.920789 0.0593277 0.125617
132 1 0.983119 0.075706 0.181532
286 1 0.939516 0.0621853 0.249003
163 1 0.0567488 0.125829 0.190929
195 1 0.0585361 0.247347 0.195628
165 1 0.119392 0.139773 0.127787
168 1 0.115157 0.188339 0.193789
166 1 0.18007 0.202662 0.130786
172 1 0.235631 0.20444 0.184351
205 1 0.368214 0.236089 0.125304
170 1 0.30264 0.187007 0.13553
176 1 0.372795 0.171163 0.200686
203 1 0.312973 0.241958 0.194801
174 1 0.435556 0.19261 0.12568
180 1 0.487934 0.184675 0.185602
207 1 0.44021 0.238758 0.183642
179 1 0.552484 0.127678 0.185493
211 1 0.565826 0.243658 0.179578
341 1 0.62435 0.248131 0.242781
337 1 0.505788 0.248674 0.243849
306 1 0.557866 0.181485 0.248944
181 1 0.631017 0.131356 0.134061
184 1 0.629978 0.195076 0.186891
310 1 0.683524 0.183791 0.248021
188 1 0.74426 0.1761 0.189837
215 1 0.693964 0.246153 0.179442
314 1 0.813288 0.195017 0.243149
192 1 0.862507 0.187285 0.181721
191 1 0.923897 0.130584 0.184692
190 1 0.92655 0.191009 0.130373
164 1 0.984598 0.179886 0.201172
194 1 0.0626629 0.31764 0.13215
229 1 0.122496 0.368643 0.130822
200 1 0.112559 0.315193 0.198811
227 1 0.0655368 0.372503 0.192564
199 1 0.178276 0.257382 0.20953
198 1 0.186204 0.288562 0.130491
204 1 0.242855 0.298635 0.203899
231 1 0.188178 0.359726 0.186562
202 1 0.310174 0.316276 0.129566
235 1 0.303992 0.367093 0.188934
208 1 0.383374 0.309102 0.188277
334 1 0.443698 0.309607 0.245833
212 1 0.500208 0.304901 0.175446
216 1 0.6214 0.307625 0.186645
338 1 0.567905 0.307098 0.248694
243 1 0.566737 0.369886 0.185231
213 1 0.635786 0.257807 0.125844
342 1 0.684528 0.309681 0.234636
345 1 0.749197 0.254544 0.238582
373 1 0.627397 0.371584 0.243259
217 1 0.754999 0.257458 0.125674
218 1 0.822272 0.318607 0.130777
219 1 0.817214 0.253874 0.183107
220 1 0.753764 0.31482 0.180497
346 1 0.808815 0.326119 0.248753
193 1 0.985772 0.257474 0.128876
223 1 0.933938 0.253031 0.192465
196 1 0.993086 0.308201 0.189894
222 1 0.939053 0.31936 0.129011
224 1 0.881448 0.329199 0.193356
1153 1 0.00184524 0.491657 0.130821
228 1 0.00506124 0.444067 0.196542
1155 1 0.0640951 0.49535 0.188292
1161 1 0.240972 0.498928 0.128896
230 1 0.193337 0.436425 0.143617
1157 1 0.130762 0.494173 0.126052
232 1 0.128144 0.437562 0.19581
1159 1 0.196584 0.497446 0.198881
237 1 0.373625 0.375083 0.130282
234 1 0.31498 0.440616 0.133928
236 1 0.258463 0.439705 0.197168
240 1 0.36398 0.429046 0.202629
1167 1 0.432384 0.499136 0.186446
238 1 0.436181 0.435695 0.131672
239 1 0.428625 0.382943 0.188319
244 1 0.498542 0.436987 0.184646
1165 1 0.379482 0.496303 0.125435
1171 1 0.564993 0.483711 0.183864
242 1 0.554122 0.426591 0.125132
370 1 0.572049 0.426886 0.247076
1301 1 0.626004 0.490468 0.240033
246 1 0.692797 0.430982 0.126639
248 1 0.628117 0.432653 0.180905
247 1 0.693665 0.378993 0.187998
374 1 0.688727 0.431084 0.248016
1175 1 0.685792 0.499952 0.178809
1179 1 0.803125 0.495219 0.180382
1305 1 0.752761 0.496331 0.246888
252 1 0.759159 0.433013 0.191385
251 1 0.820736 0.375417 0.186136
256 1 0.867478 0.446276 0.192106
255 1 0.943192 0.390612 0.191522
253 1 0.878455 0.384062 0.128317
258 1 0.0603305 0.0543669 0.251996
293 1 0.114425 0.121829 0.253722
289 1 0.000467005 0.113645 0.259925
260 1 0.0012305 0.0658429 0.324501
291 1 0.0648765 0.122878 0.311373
263 1 0.196167 0.00105308 0.301158
262 1 0.191901 0.0631207 0.252173
264 1 0.125852 0.0571695 0.309606
295 1 0.179108 0.118858 0.310469
268 1 0.24069 0.0710132 0.327451
266 1 0.299935 0.0642472 0.265426
299 1 0.308503 0.12123 0.322078
301 1 0.368144 0.118289 0.262933
394 1 0.30782 0.0569384 0.370252
272 1 0.375649 0.0591879 0.317455
276 1 0.4993 0.0562769 0.323196
303 1 0.43697 0.112142 0.324002
305 1 0.500156 0.113232 0.25541
280 1 0.622633 0.0688829 0.319233
307 1 0.55234 0.116901 0.317142
275 1 0.571069 0.0105275 0.305398
409 1 0.748668 0.000978758 0.372397
278 1 0.691031 0.0655887 0.250909
406 1 0.681157 0.0684796 0.371366
279 1 0.691178 0.00838088 0.307062
284 1 0.764588 0.0722763 0.314581
410 1 0.814815 0.0606649 0.366295
288 1 0.88175 0.0581953 0.309811
319 1 0.936714 0.117647 0.308812
290 1 0.0495632 0.189394 0.260368
325 1 0.103656 0.248588 0.25949
296 1 0.11553 0.181734 0.310276
418 1 0.0548128 0.186061 0.367223
453 1 0.120867 0.248549 0.373105
421 1 0.124002 0.13254 0.371154
294 1 0.176047 0.178732 0.255563
327 1 0.189453 0.24004 0.310751
300 1 0.242966 0.174711 0.30725
329 1 0.250833 0.235769 0.260584
298 1 0.312894 0.175836 0.259441
304 1 0.373684 0.183594 0.31738
331 1 0.316576 0.244138 0.308841
457 1 0.256644 0.247904 0.364958
302 1 0.436074 0.182778 0.250662
333 1 0.376179 0.248799 0.253489
308 1 0.492568 0.177677 0.305101
335 1 0.44065 0.233882 0.322537
309 1 0.623875 0.129678 0.250008
312 1 0.6204 0.190143 0.304283
434 1 0.561723 0.202828 0.371811
311 1 0.684284 0.126384 0.30213
438 1 0.678017 0.18598 0.362896
441 1 0.746989 0.13357 0.365889
316 1 0.748418 0.180588 0.303388
349 1 0.87172 0.249846 0.253029
315 1 0.816376 0.134362 0.297269
445 1 0.859378 0.133441 0.365901
317 1 0.88111 0.131574 0.252091
318 1 0.932249 0.195404 0.253765
292 1 0.989513 0.194856 0.320598
320 1 0.877661 0.194985 0.321201
417 1 0.996548 0.127381 0.374229
322 1 0.0557606 0.312167 0.25108
353 1 0.00569996 0.368871 0.254628
323 1 0.0547458 0.253513 0.32224
328 1 0.114837 0.312198 0.317269
361 1 0.246243 0.367357 0.253857
326 1 0.183835 0.314979 0.264119
454 1 0.192673 0.302797 0.374877
359 1 0.179759 0.37065 0.316605
489 1 0.249132 0.374876 0.367732
330 1 0.316288 0.297288 0.251747
332 1 0.253175 0.308134 0.307398
458 1 0.306273 0.318563 0.373019
365 1 0.379561 0.362558 0.251993
336 1 0.386288 0.301896 0.322055
367 1 0.439662 0.372505 0.305712
369 1 0.50583 0.364788 0.251848
501 1 0.62307 0.37482 0.364863
469 1 0.623568 0.25205 0.36752
340 1 0.503117 0.30821 0.314073
339 1 0.562661 0.250911 0.30447
344 1 0.622644 0.303587 0.30496
371 1 0.572798 0.369555 0.302365
466 1 0.561565 0.309683 0.373805
343 1 0.687422 0.253486 0.311908
470 1 0.682181 0.319428 0.361572
348 1 0.748242 0.313445 0.299919
473 1 0.747262 0.251401 0.361025
347 1 0.814042 0.252131 0.314038
474 1 0.805165 0.316739 0.363983
351 1 0.932126 0.250893 0.314672
321 1 0.998409 0.251575 0.257125
324 1 0.998084 0.310286 0.316632
350 1 0.928897 0.318264 0.250961
352 1 0.87724 0.324315 0.317212
449 1 0.995553 0.254116 0.374143
355 1 0.0615434 0.375832 0.321454
354 1 0.0574503 0.440271 0.253077
356 1 0.00415204 0.43477 0.307697
482 1 0.0668422 0.443961 0.368168
357 1 0.126169 0.375916 0.252199
358 1 0.192868 0.430326 0.252581
360 1 0.12666 0.447453 0.306219
364 1 0.248422 0.445088 0.317015
363 1 0.31683 0.385998 0.31891
362 1 0.31262 0.442815 0.264213
1293 1 0.376712 0.495296 0.255395
366 1 0.438073 0.436291 0.257435
368 1 0.38383 0.445758 0.318854
1295 1 0.447075 0.497388 0.311712
1425 1 0.507067 0.497605 0.371778
372 1 0.503873 0.419978 0.309303
1299 1 0.562445 0.47928 0.31232
1297 1 0.509081 0.486078 0.250748
1429 1 0.61591 0.499264 0.374872
377 1 0.748173 0.381454 0.257235
376 1 0.634514 0.43849 0.30963
502 1 0.691454 0.44091 0.372735
375 1 0.68491 0.377667 0.303695
380 1 0.749547 0.433779 0.314036
378 1 0.811989 0.442949 0.250536
379 1 0.809091 0.377839 0.30743
506 1 0.813413 0.436754 0.367867
384 1 0.872347 0.436743 0.317602
381 1 0.876853 0.388494 0.252535
382 1 0.93706 0.449171 0.253913
1311 1 0.93409 0.493327 0.325003
383 1 0.942168 0.378608 0.31971
386 1 0.0652481 0.0616105 0.377101
419 1 0.0588257 0.124786 0.432085
387 1 0.0715016 0.00147943 0.440296
514 1 0.0609957 0.0588946 0.494331
518 1 0.185936 0.0593406 0.497042
392 1 0.126729 0.0670851 0.443727
390 1 0.176811 0.0642138 0.380363
396 1 0.244411 0.066994 0.429017
429 1 0.365146 0.119133 0.385306
400 1 0.367566 0.053611 0.434034
427 1 0.305101 0.12134 0.442889
398 1 0.444319 0.0621839 0.384967
404 1 0.496554 0.0617043 0.443157
431 1 0.429234 0.116612 0.451497
405 1 0.623466 0.00151056 0.38154
403 1 0.565017 0.000649939 0.443402
402 1 0.562884 0.0630277 0.383991
435 1 0.562101 0.122586 0.438645
407 1 0.681669 0.00304217 0.438431
408 1 0.625574 0.0674486 0.437026
412 1 0.742886 0.0679479 0.418922
534 1 0.688932 0.0646375 0.490745
569 1 0.747179 0.121274 0.488559
538 1 0.805955 0.0671446 0.498515
411 1 0.801972 0.00747298 0.44079
443 1 0.812646 0.121845 0.436711
413 1 0.881715 0.0052546 0.378022
414 1 0.936182 0.0581789 0.375752
416 1 0.884028 0.0636963 0.432878
388 1 0.998612 0.0590009 0.428682
541 1 0.879145 0.00614024 0.496983
415 1 0.939827 0.000233695 0.444669
542 1 0.942037 0.0644876 0.492506
573 1 0.883063 0.119021 0.493821
546 1 0.0653284 0.196696 0.499776
424 1 0.117818 0.178889 0.439645
451 1 0.0718545 0.249786 0.439126
545 1 0.00405235 0.127883 0.498804
577 1 0.0020293 0.249837 0.496267
422 1 0.188259 0.19569 0.38066
423 1 0.176718 0.129439 0.437136
425 1 0.246719 0.127086 0.378956
428 1 0.246834 0.176152 0.44101
455 1 0.176469 0.24047 0.440955
554 1 0.303325 0.190989 0.494286
426 1 0.309339 0.194366 0.380022
432 1 0.373738 0.187062 0.443185
430 1 0.430051 0.177414 0.383363
465 1 0.496205 0.240583 0.381657
463 1 0.432132 0.239908 0.44283
597 1 0.623634 0.242417 0.498227
467 1 0.570325 0.244861 0.438329
433 1 0.501078 0.1251 0.380566
436 1 0.503219 0.184994 0.438214
437 1 0.608435 0.133539 0.375075
440 1 0.623573 0.184357 0.435284
565 1 0.628265 0.125315 0.495546
439 1 0.680488 0.129852 0.431605
566 1 0.684814 0.184057 0.485943
601 1 0.75542 0.245581 0.498266
475 1 0.807018 0.245768 0.438388
444 1 0.750959 0.185888 0.432983
442 1 0.804224 0.195749 0.375412
448 1 0.871105 0.180115 0.433628
446 1 0.928397 0.197404 0.380333
420 1 0.999405 0.193676 0.430073
447 1 0.941561 0.129209 0.425114
605 1 0.87511 0.234241 0.499972
450 1 0.0614127 0.314857 0.389349
483 1 0.0608543 0.371472 0.436618
578 1 0.0588879 0.31143 0.495219
456 1 0.126685 0.305436 0.435324
487 1 0.188616 0.36682 0.431848
460 1 0.244555 0.314057 0.43343
585 1 0.247891 0.258199 0.491895
459 1 0.321904 0.260262 0.445366
586 1 0.313332 0.321097 0.49423
493 1 0.379707 0.374746 0.377656
461 1 0.380359 0.252469 0.384733
462 1 0.436816 0.313853 0.384337
464 1 0.377784 0.329033 0.44498
497 1 0.496404 0.370525 0.377594
590 1 0.448097 0.314117 0.494963
594 1 0.551351 0.305358 0.497238
499 1 0.562745 0.372781 0.428369
468 1 0.504313 0.303939 0.435875
476 1 0.746957 0.311563 0.431509
471 1 0.686626 0.252069 0.432086
472 1 0.626307 0.306803 0.4295
633 1 0.743284 0.369978 0.495455
507 1 0.817079 0.365556 0.439105
477 1 0.86192 0.25594 0.379137
478 1 0.935776 0.308348 0.375174
480 1 0.880318 0.306888 0.435604
479 1 0.937514 0.256012 0.441105
452 1 0.994105 0.308134 0.43963
637 1 0.876676 0.368321 0.498315
484 1 0.00878907 0.435269 0.44171
488 1 0.123454 0.433317 0.439506
1411 1 0.0601105 0.499314 0.443595
1541 1 0.123748 0.494851 0.496624
492 1 0.247006 0.438275 0.435363
486 1 0.186193 0.447331 0.376364
485 1 0.125883 0.377199 0.37671
1415 1 0.187089 0.492639 0.448436
617 1 0.241385 0.384952 0.498366
491 1 0.298686 0.376795 0.432431
490 1 0.314799 0.445651 0.377861
1421 1 0.37365 0.498468 0.380187
1417 1 0.252909 0.496032 0.383583
1419 1 0.319402 0.493271 0.438289
618 1 0.312015 0.433953 0.497569
1423 1 0.436512 0.495941 0.432935
495 1 0.453613 0.376507 0.449955
496 1 0.385285 0.425544 0.447615
494 1 0.437247 0.439803 0.381628
500 1 0.503947 0.439545 0.44619
498 1 0.564629 0.43198 0.378678
1431 1 0.70598 0.492656 0.434955
505 1 0.745926 0.384163 0.376683
503 1 0.676038 0.37885 0.439723
504 1 0.626384 0.454066 0.441116
508 1 0.754126 0.428048 0.435643
634 1 0.795639 0.449281 0.499531
1437 1 0.880378 0.492836 0.379004
512 1 0.878821 0.42774 0.441776
510 1 0.943719 0.431247 0.38304
511 1 0.946824 0.375094 0.438041
509 1 0.877846 0.381388 0.37595
481 1 0.99898 0.376341 0.377597
1439 1 0.940342 0.497912 0.430916
1537 1 0.992335 0.488988 0.496959
642 1 0.0609525 0.065654 0.623432
520 1 0.1186 0.0716954 0.562632
516 1 0.0041183 0.0690907 0.55191
646 1 0.195445 0.0639954 0.62155
524 1 0.2474 0.0673934 0.563405
553 1 0.240744 0.122695 0.500454
650 1 0.311826 0.0753149 0.616602
528 1 0.374684 0.0699528 0.562723
523 1 0.314028 0.00477433 0.571977
525 1 0.363549 0.00720838 0.501651
522 1 0.300877 0.0678481 0.501951
532 1 0.495397 0.0671149 0.561868
526 1 0.4344 0.0626018 0.503784
531 1 0.557791 0.00990193 0.568066
563 1 0.55432 0.123248 0.558464
529 1 0.503185 0.00481448 0.507738
561 1 0.504304 0.12308 0.504413
530 1 0.568544 0.0654898 0.502502
536 1 0.62729 0.064144 0.560178
662 1 0.688782 0.0607987 0.619984
693 1 0.635428 0.122736 0.62284
535 1 0.688956 0.00416218 0.552705
540 1 0.752908 0.0656115 0.559433
697 1 0.750049 0.122485 0.617521
571 1 0.809261 0.120136 0.55363
666 1 0.809946 0.0613191 0.621012
544 1 0.885996 0.0630819 0.555883
547 1 0.0581364 0.12536 0.566512
552 1 0.109072 0.202471 0.573203
548 1 0.00071764 0.194457 0.564727
549 1 0.121703 0.13523 0.511069
551 1 0.186034 0.12878 0.566875
556 1 0.247531 0.195257 0.556072
550 1 0.184555 0.182799 0.500421
581 1 0.126795 0.245212 0.509927
555 1 0.310479 0.135363 0.557849
681 1 0.253019 0.136643 0.611425
587 1 0.313169 0.247827 0.556748
682 1 0.317923 0.186333 0.624432
557 1 0.373704 0.13609 0.508545
560 1 0.391319 0.193174 0.573869
559 1 0.436213 0.125397 0.572275
558 1 0.44646 0.186029 0.509019
689 1 0.502437 0.133825 0.623162
564 1 0.509711 0.181366 0.56313
595 1 0.562395 0.244207 0.565787
568 1 0.62239 0.191763 0.560344
690 1 0.56883 0.185114 0.624117
562 1 0.568514 0.17695 0.502609
593 1 0.503092 0.238416 0.503281
567 1 0.695609 0.126779 0.55631
694 1 0.687938 0.186381 0.617241
599 1 0.688067 0.245081 0.554995
572 1 0.75468 0.193971 0.561602
603 1 0.814042 0.249956 0.567341
701 1 0.869811 0.126416 0.624367
570 1 0.811097 0.177786 0.501105
576 1 0.875437 0.177605 0.553703
575 1 0.945618 0.133786 0.567234
607 1 0.932778 0.237764 0.57154
574 1 0.940116 0.183744 0.506705
579 1 0.062399 0.259732 0.566309
611 1 0.0607158 0.373913 0.570244
583 1 0.189369 0.258357 0.569009
584 1 0.125024 0.3106 0.574638
588 1 0.240266 0.313754 0.55921
615 1 0.179635 0.373021 0.564616
582 1 0.179147 0.314441 0.500651
714 1 0.312731 0.297343 0.622694
749 1 0.372635 0.359001 0.62344
589 1 0.380248 0.255516 0.503778
592 1 0.387011 0.305311 0.564845
591 1 0.442363 0.25396 0.562737
623 1 0.445617 0.370272 0.568153
621 1 0.384612 0.371554 0.51138
725 1 0.619763 0.253635 0.624027
753 1 0.501848 0.367785 0.62364
596 1 0.506853 0.304132 0.557788
722 1 0.570804 0.312424 0.622118
600 1 0.623363 0.304502 0.558032
629 1 0.60756 0.374558 0.500104
631 1 0.684895 0.368499 0.556598
598 1 0.675858 0.310716 0.500444
729 1 0.753175 0.256199 0.621999
604 1 0.750197 0.311079 0.563556
608 1 0.874968 0.30534 0.564955
761 1 0.751677 0.372647 0.614171
730 1 0.819235 0.318664 0.613271
602 1 0.815055 0.304825 0.505155
705 1 0.988218 0.257938 0.623827
580 1 0.999581 0.314958 0.561969
639 1 0.931759 0.366103 0.561716
606 1 0.937077 0.301587 0.505554
610 1 0.0591834 0.437156 0.502388
613 1 0.116681 0.375539 0.503248
612 1 0.00501103 0.439961 0.56123
738 1 0.0635893 0.441712 0.623288
616 1 0.115034 0.436315 0.563494
609 1 0.000680417 0.379671 0.505915
614 1 0.179515 0.432828 0.505975
620 1 0.249221 0.435236 0.561412
742 1 0.184022 0.444163 0.610168
1543 1 0.191541 0.498903 0.554997
1545 1 0.242752 0.49353 0.50116
619 1 0.31085 0.377313 0.560733
624 1 0.373273 0.432151 0.557154
1547 1 0.31206 0.496634 0.561756
1677 1 0.373619 0.497267 0.619286
1551 1 0.439878 0.496176 0.57621
622 1 0.438236 0.432077 0.509353
1549 1 0.382622 0.492908 0.506796
1555 1 0.562298 0.491687 0.573521
625 1 0.502345 0.378428 0.509812
627 1 0.562284 0.377933 0.56661
628 1 0.502319 0.437511 0.56697
626 1 0.55919 0.446111 0.513293
1557 1 0.62611 0.498209 0.514638
632 1 0.629065 0.433843 0.566809
636 1 0.741597 0.437178 0.575344
630 1 0.692424 0.44216 0.50372
635 1 0.819008 0.395131 0.557755
765 1 0.871233 0.38684 0.61331
640 1 0.874516 0.448706 0.546554
762 1 0.81988 0.449407 0.624747
638 1 0.940501 0.428589 0.511096
1567 1 0.941668 0.496587 0.566291
766 1 0.945314 0.427637 0.612435
643 1 0.0530162 0.00927507 0.684149
770 1 0.0681533 0.065832 0.748699
677 1 0.127482 0.123115 0.627874
648 1 0.13599 0.06539 0.682799
647 1 0.200916 0.0045057 0.680888
651 1 0.320241 0.00824151 0.67541
652 1 0.255827 0.0735808 0.680397
778 1 0.310833 0.0517634 0.745484
654 1 0.440998 0.0601322 0.628739
685 1 0.382267 0.124619 0.637151
813 1 0.379371 0.120537 0.745541
656 1 0.377273 0.0571984 0.689717
687 1 0.448674 0.123751 0.694648
653 1 0.375248 0.00380603 0.627725
655 1 0.438025 0.00701144 0.69444
658 1 0.579329 0.0633352 0.640366
660 1 0.50531 0.0622875 0.703235
691 1 0.569515 0.123023 0.69881
657 1 0.502262 0.00768311 0.634482
664 1 0.63589 0.0705082 0.70086
695 1 0.698236 0.117536 0.68738
668 1 0.748043 0.058383 0.693413
667 1 0.815832 0.00511432 0.681752
672 1 0.8669 0.0696399 0.687657
673 1 0.998547 0.12044 0.634402
670 1 0.929353 0.0640207 0.631716
644 1 0.990332 0.059312 0.693252
798 1 0.928151 0.0630696 0.748179
674 1 0.0562908 0.199923 0.633368
675 1 0.0672743 0.138795 0.693785
678 1 0.183909 0.192617 0.626671
713 1 0.24591 0.249925 0.627797
679 1 0.186556 0.131105 0.68126
680 1 0.13584 0.191263 0.699265
684 1 0.24885 0.178399 0.678492
683 1 0.317586 0.131637 0.687897
809 1 0.254505 0.125692 0.745026
688 1 0.372748 0.191195 0.699249
715 1 0.314423 0.244272 0.683796
810 1 0.3069 0.195589 0.744988
686 1 0.443045 0.179679 0.637406
717 1 0.380317 0.248684 0.631772
719 1 0.44134 0.239562 0.698977
721 1 0.504231 0.246943 0.625086
692 1 0.510102 0.184578 0.69339
723 1 0.572898 0.234009 0.69308
696 1 0.634332 0.174728 0.685759
700 1 0.745164 0.190472 0.686162
727 1 0.689746 0.241661 0.67736
822 1 0.681426 0.18645 0.746735
699 1 0.811749 0.128542 0.686824
825 1 0.750702 0.125279 0.74606
698 1 0.80944 0.195542 0.638187
826 1 0.807049 0.18818 0.74725
704 1 0.872177 0.184554 0.695668
703 1 0.935423 0.131439 0.68317
702 1 0.926182 0.18837 0.631782
676 1 0.993495 0.197982 0.672262
735 1 0.934896 0.249712 0.698204
830 1 0.940634 0.179231 0.745901
706 1 0.0595971 0.311948 0.634741
707 1 0.0627937 0.254763 0.691612
833 1 8.11371e-05 0.252222 0.747642
739 1 0.0615114 0.37389 0.700724
709 1 0.131223 0.255382 0.631711
710 1 0.185191 0.314251 0.634673
712 1 0.127444 0.314572 0.699468
711 1 0.187536 0.253418 0.695676
838 1 0.195743 0.315385 0.749528
745 1 0.255683 0.370325 0.626525
716 1 0.261349 0.31385 0.683846
720 1 0.365252 0.309622 0.684668
718 1 0.43758 0.298482 0.626521
751 1 0.440653 0.363046 0.694187
724 1 0.510581 0.316357 0.687141
755 1 0.570739 0.371599 0.694905
881 1 0.507645 0.370589 0.744056
726 1 0.682536 0.311995 0.62533
728 1 0.62716 0.307644 0.678189
854 1 0.696337 0.312072 0.728205
885 1 0.637381 0.372471 0.745796
731 1 0.807837 0.254974 0.686923
732 1 0.751325 0.317726 0.674478
858 1 0.808625 0.310408 0.743308
736 1 0.871242 0.315018 0.69362
733 1 0.876394 0.267243 0.63233
708 1 0.996406 0.314422 0.696672
734 1 0.946923 0.324357 0.631348
862 1 0.930727 0.324913 0.748415
737 1 0.00978288 0.375891 0.635992
741 1 0.119675 0.375326 0.631876
744 1 0.120255 0.436096 0.68831
740 1 0.00697993 0.439447 0.691506
865 1 0.00630342 0.383704 0.749996
1801 1 0.247386 0.489493 0.749952
1671 1 0.190414 0.49054 0.686006
743 1 0.185396 0.375565 0.686599
748 1 0.24878 0.433629 0.684399
1675 1 0.318476 0.490711 0.696653
747 1 0.313865 0.379608 0.683865
746 1 0.322085 0.430045 0.625421
1681 1 0.497454 0.494527 0.627698
1805 1 0.378365 0.497668 0.74654
1809 1 0.499111 0.496 0.745767
1679 1 0.431216 0.491766 0.689355
750 1 0.437322 0.428549 0.626776
752 1 0.381365 0.419319 0.68954
878 1 0.436789 0.433102 0.749065
757 1 0.619471 0.375142 0.625871
756 1 0.503445 0.42697 0.680584
754 1 0.563997 0.437932 0.6337
882 1 0.565089 0.437083 0.746977
758 1 0.680857 0.450317 0.625458
759 1 0.695893 0.375151 0.675051
760 1 0.629809 0.445415 0.6811
764 1 0.749354 0.445072 0.678712
886 1 0.694642 0.442956 0.747572
889 1 0.749115 0.377191 0.740157
763 1 0.807774 0.379285 0.680412
890 1 0.80483 0.433119 0.746984
767 1 0.942179 0.386494 0.685786
768 1 0.887511 0.44687 0.677468
772 1 0.00603497 0.05829 0.813043
929 1 0.00302752 0.118534 0.874233
898 1 0.0644686 0.052204 0.864823
805 1 0.134056 0.114079 0.752787
776 1 0.127811 0.0509848 0.806478
774 1 0.204419 0.0480844 0.750056
933 1 0.142997 0.11183 0.870722
807 1 0.18654 0.124174 0.808817
902 1 0.202885 0.058973 0.867588
780 1 0.255524 0.0608411 0.811007
784 1 0.372247 0.0486313 0.816772
811 1 0.319031 0.114433 0.810843
785 1 0.49802 0.00145944 0.764333
782 1 0.437938 0.0602751 0.761612
788 1 0.487296 0.0644508 0.819186
913 1 0.501287 0.00263278 0.869484
787 1 0.565736 0.00222137 0.817862
786 1 0.559632 0.0605775 0.769967
819 1 0.554085 0.121926 0.825232
790 1 0.694979 0.0662609 0.752181
792 1 0.629893 0.0636221 0.82194
918 1 0.693258 0.0675511 0.872568
791 1 0.690384 0.000262791 0.805141
796 1 0.751433 0.0619162 0.81079
794 1 0.809983 0.06336 0.75709
800 1 0.873227 0.065594 0.811763
797 1 0.862631 0.00617067 0.75501
922 1 0.806409 0.0589189 0.873578
799 1 0.938151 0.00537138 0.798059
926 1 0.932035 0.0472815 0.873854
957 1 0.879726 0.120882 0.869623
802 1 0.060911 0.183604 0.757373
803 1 0.0739473 0.125428 0.812709
930 1 0.0607666 0.185761 0.87421
806 1 0.211934 0.187126 0.759863
808 1 0.134005 0.195545 0.819395
839 1 0.195278 0.248088 0.81561
812 1 0.263657 0.179721 0.818915
816 1 0.368614 0.188553 0.809584
845 1 0.377928 0.246989 0.762895
814 1 0.44031 0.180963 0.753295
815 1 0.432031 0.135515 0.819538
847 1 0.433515 0.238232 0.828347
853 1 0.617619 0.2416 0.760252
821 1 0.619543 0.125797 0.767728
817 1 0.502901 0.125087 0.755038
820 1 0.504476 0.188654 0.820484
818 1 0.563519 0.18379 0.762876
824 1 0.618403 0.188432 0.826061
823 1 0.684503 0.13509 0.82241
828 1 0.744476 0.18692 0.814506
855 1 0.68124 0.246007 0.815341
827 1 0.81086 0.134263 0.822434
829 1 0.870704 0.131051 0.758174
861 1 0.872516 0.248683 0.75055
859 1 0.804811 0.248526 0.814037
954 1 0.810468 0.200095 0.871905
801 1 0.993761 0.125621 0.750962
831 1 0.944006 0.125151 0.814915
832 1 0.885478 0.194348 0.81419
804 1 0.993595 0.182279 0.820199
834 1 0.0682769 0.315952 0.763719
869 1 0.123998 0.370562 0.757877
835 1 0.0750509 0.252522 0.82146
836 1 0.00954043 0.312924 0.8213
837 1 0.131703 0.251546 0.759313
840 1 0.133162 0.314151 0.823318
844 1 0.243481 0.318448 0.815022
871 1 0.185066 0.368416 0.815561
841 1 0.251075 0.25569 0.754985
842 1 0.313948 0.317102 0.752997
877 1 0.374039 0.374963 0.760541
843 1 0.304073 0.258583 0.814979
848 1 0.372132 0.313814 0.817506
1005 1 0.370078 0.373712 0.870042
846 1 0.43229 0.30983 0.76304
974 1 0.430782 0.311552 0.865773
852 1 0.498641 0.311497 0.815549
849 1 0.511495 0.254409 0.752511
851 1 0.558724 0.253794 0.819308
850 1 0.563165 0.312008 0.759567
856 1 0.623293 0.309382 0.823902
978 1 0.556384 0.320577 0.874508
857 1 0.746315 0.251352 0.751909
860 1 0.745292 0.298032 0.818732
887 1 0.696741 0.372629 0.810619
893 1 0.857969 0.370165 0.753356
864 1 0.868038 0.317975 0.809659
891 1 0.799811 0.367067 0.812992
989 1 0.876204 0.265551 0.866818
863 1 0.944114 0.257787 0.803851
895 1 0.947808 0.369189 0.815392
1793 1 0.00465688 0.499658 0.759182
993 1 0.00271059 0.37641 0.874818
867 1 0.0679965 0.37997 0.819121
866 1 0.0684439 0.445245 0.759108
868 1 0.00430717 0.446286 0.821605
1797 1 0.138697 0.498154 0.759575
873 1 0.246693 0.376693 0.753287
872 1 0.135545 0.438188 0.826176
870 1 0.188382 0.429554 0.76263
876 1 0.249323 0.438052 0.817777
874 1 0.306372 0.43696 0.751647
875 1 0.313603 0.383187 0.818285
1002 1 0.311724 0.44687 0.874817
1006 1 0.431345 0.43961 0.87229
879 1 0.436975 0.379827 0.819494
880 1 0.376709 0.445675 0.812397
1009 1 0.495854 0.382782 0.873508
1941 1 0.623707 0.49597 0.873248
884 1 0.503975 0.449141 0.815929
883 1 0.56487 0.381073 0.80901
1010 1 0.568231 0.441271 0.866494
1811 1 0.576126 0.491001 0.807775
1815 1 0.688989 0.499284 0.813537
1014 1 0.695984 0.438778 0.869022
888 1 0.638966 0.428849 0.820935
1819 1 0.819221 0.490775 0.806887
892 1 0.752031 0.432412 0.809063
896 1 0.868186 0.418651 0.821525
1823 1 0.920991 0.492273 0.822933
894 1 0.921315 0.433706 0.757742
899 1 0.0836053 0.00399459 0.943787
900 1 0.00477436 0.0609934 0.930498
904 1 0.123806 0.0716226 0.937587
931 1 0.0642101 0.116574 0.93406
903 1 0.186026 0.00278665 0.934305