ITEM: TIMESTEP
5850
ITEM: NUMBER OF ATOMS
864
ITEM: BOX BOUNDS pp pp pp
0.0000000000000000e+00 3.1559999999999999e+01
0.0000000000000000e+00 3.1559999999999999e+01
0.0000000000000000e+00 3.1559999999999999e+01
ITEM: ATOMS id type xs ys zs
4 1 0.991411 0.0681887 0.0727611
274 1 0.412547 0.413261 0.494877
8 1 0.17005 0.0787515 0.0901162
78 1 0.247592 0.101181 0.158138
31 1 0.241883 0.178419 0.0887672
196 1 0.00811753 0.418021 0.416985
12 1 0.324451 0.0882546 0.0864743
16 1 0.479713 0.084857 0.0934066
11 1 0.415491 -0.00619997 0.0737675
216 1 0.844765 0.41643 0.428727
39 1 0.577658 0.146518 0.0750045
86 1 0.583683 0.0892516 0.162099
193 1 0.00445388 0.333686 0.331722
211 1 0.747146 0.328688 0.413019
20 1 0.678323 0.0871433 0.088792
90 1 0.766284 0.0641036 0.170264
43 1 0.763099 0.164477 0.0881022
113 1 0.661511 0.176098 0.163086
117 1 0.852805 0.166817 0.157826
24 1 0.828733 0.0785076 0.0765223
47 1 0.929604 0.183733 0.0873701
208 1 0.501797 0.439829 0.417146
285 1 0.833642 0.337405 0.499265
27 1 0.0875258 0.140774 0.0797255
51 1 0.0790391 0.339753 0.0829689
507 1 0.103374 0.509526 0.274774
32 1 0.158969 0.244162 0.0869672
36 1 0.333881 0.248185 0.0752988
55 1 0.259065 0.336444 0.0842725
101 1 0.152868 0.156547 0.168599
513 1 0.3409 0.509792 0.18133
35 1 0.421779 0.175227 0.085385
165 1 0.826507 0.00302143 0.331884
155 1 0.413743 0.0199832 0.41922
66 1 0.743074 0.417401 -0.0188707
40 1 0.508364 0.244442 0.0962144
63 1 0.577897 0.337379 0.0901882
44 1 0.680939 0.259782 0.0873133
114 1 0.762556 0.240724 0.163899
67 1 0.755457 0.334956 0.0745059
254 1 0.58312 0.263657 0.493091
62 1 0.577287 0.41969 -0.00224378
28 1 0.0042965 0.252507 0.0575758
48 1 0.841232 0.254416 0.068858
71 1 0.937379 0.324587 0.0900277
161 1 0.670046 0.0142918 0.3294
527 1 0.93692 0.496272 0.261214
141 1 0.834974 0.332592 0.167128
207 1 0.585789 0.333694 0.402613
595 1 0.759123 0.512799 0.406744
56 1 0.172454 0.412832 0.0879958
52 1 0.0074093 0.417341 0.101638
443 1 0.424671 0.516508 0.0827928
153 1 0.333722 0.0276914 0.339611
59 1 0.426357 0.312017 0.0975272
60 1 0.356716 0.42128 0.0899105
38 1 0.574854 0.230461 -0.00545334
70 1 0.921545 0.398588 -0.00651337
237 1 0.83256 -0.014245 0.50106
64 1 0.48495 0.414313 0.0804044
7 1 0.254847 0.00938743 0.0773164
212 1 0.67272 0.424239 0.410881
205 1 0.502921 0.34056 0.330925
68 1 0.669428 0.398489 0.0694074
455 1 0.925223 0.502946 0.100946
253 1 0.50111 0.167467 0.511213
439 1 0.267952 0.480529 0.0865173
72 1 0.846839 0.399649 0.0841302
451 1 0.760602 0.481533 0.0852593
142 1 0.924645 0.421019 0.178525
74 1 0.0817959 0.0769891 0.172052
99 1 0.0782895 0.164036 0.248366
230 1 0.588197 0.096671 0.5027
519 1 0.574101 0.509597 0.254948
80 1 0.173324 0.0890424 0.244707
103 1 0.255741 0.163452 0.258133
150 1 0.245874 0.0934909 0.338128
206 1 0.582542 0.424068 0.343885
77 1 0.17659 0.000692676 0.171345
82 1 0.400043 0.075629 0.166985
105 1 0.334662 0.171421 0.179218
109 1 0.487382 0.157211 0.17436
84 1 0.328394 0.0840282 0.249526
88 1 0.496831 0.075798 0.243221
107 1 0.421911 0.152961 0.255829
203 1 0.425901 0.326198 0.414326
158 1 0.588976 0.0848756 0.31206
111 1 0.592145 0.165447 0.247036
92 1 0.667712 0.0784494 0.227189
115 1 0.739637 0.158613 0.235326
97 1 0.993474 0.163136 0.17425
76 1 0.989388 0.0787447 0.260781
96 1 0.854702 0.0775568 0.252221
94 1 0.912202 0.0815167 0.16241
119 1 0.913764 0.184412 0.249513
125 1 0.162495 0.340697 0.174076
121 1 0.991033 0.338732 0.173388
98 1 0.0768408 0.251372 0.1564
100 1 0.992623 0.261067 0.252035
170 1 0.0792173 0.240826 0.325981
104 1 0.173727 0.253783 0.250687
197 1 0.180711 0.331368 0.331761
102 1 0.237135 0.257001 0.163241
174 1 0.24604 0.242638 0.338929
106 1 0.418015 0.239668 0.181371
108 1 0.325893 0.248063 0.249801
112 1 0.508214 0.247311 0.250327
110 1 0.589207 0.256719 0.169287
137 1 0.657656 0.349395 0.170055
182 1 0.585229 0.252307 0.328406
181 1 0.503914 0.168701 0.342052
209 1 0.676358 0.342506 0.331899
116 1 0.669439 0.239987 0.260124
139 1 0.746848 0.324728 0.236755
118 1 0.918006 0.254413 0.169546
120 1 0.832554 0.256165 0.246089
143 1 0.924051 0.339129 0.257784
122 1 0.0963204 0.420107 0.171384
202 1 0.420118 0.426785 0.340767
123 1 0.071248 0.329293 0.248138
124 1 0.015063 0.41681 0.24302
194 1 0.0949746 0.393644 0.33493
128 1 0.170064 0.41768 0.256241
126 1 0.259972 0.412483 0.16659
127 1 0.257997 0.342879 0.253941
198 1 0.247535 0.413795 0.332802
129 1 0.326622 0.331929 0.183426
133 1 0.497303 0.33617 0.191708
131 1 0.421243 0.33548 0.265833
132 1 0.336826 0.437358 0.265833
130 1 0.420658 0.425538 0.178609
134 1 0.584327 0.429029 0.173026
135 1 0.593177 0.331195 0.261609
136 1 0.493768 0.419625 0.259376
140 1 0.658136 0.425213 0.261532
138 1 0.750825 0.412772 0.18157
210 1 0.749823 0.436383 0.334398
286 1 0.922766 0.415252 0.49804
597 1 0.844465 0.486503 0.32791
144 1 0.839723 0.42251 0.245244
214 1 0.935308 0.418548 0.332172
147 1 0.078141 -0.00313812 0.431508
146 1 0.0887628 0.074607 0.332179
169 1 0.982643 0.163452 0.328315
148 1 0.00786729 0.0968267 0.419464
262 1 0.91932 0.257057 0.49159
83 1 0.409557 0.0120641 0.26667
201 1 0.338527 0.342505 0.332712
152 1 0.16337 0.0842326 0.426862
156 1 0.330688 0.10437 0.432876
200 1 0.164398 0.430865 0.42251
191 1 0.89514 0.167367 0.43264
154 1 0.415539 0.09835 0.345538
160 1 0.510298 0.0896704 0.42163
145 1 0.00348768 0.0138314 0.352329
215 1 0.909345 0.33258 0.410518
164 1 0.67166 0.0757439 0.421727
192 1 0.824873 0.25544 0.417265
189 1 0.832067 0.177426 0.331197
162 1 0.751516 0.0835771 0.303536
168 1 0.822715 0.0936757 0.398192
166 1 0.913067 0.0885791 0.352946
213 1 0.827557 0.340512 0.335658
187 1 0.73465 0.165342 0.413111
171 1 0.0900237 0.17174 0.417146
172 1 0.00354088 0.236486 0.409095
173 1 0.167355 0.168427 0.323428
75 1 0.0916986 -0.004409 0.261189
199 1 0.236584 0.34211 0.432413
195 1 0.0927322 0.342714 0.4352
204 1 0.336399 0.419166 0.406921
190 1 0.914723 0.257431 0.336505
177 1 0.336933 0.171968 0.337341
176 1 0.168448 0.259371 0.424877
175 1 0.247452 0.169256 0.430286
179 1 0.423785 0.17164 0.427098
180 1 0.328207 0.253015 0.41954
178 1 0.429316 0.238654 0.323947
185 1 0.666052 0.160917 0.324156
186 1 0.75773 0.253162 0.315897
183 1 0.595153 0.168405 0.398673
184 1 0.511176 0.255734 0.420555
188 1 0.662058 0.252265 0.407633
238 1 0.915109 0.0807876 0.505309
521 1 0.674522 0.491126 0.159479
34 1 0.412989 0.252319 -0.00182493
241 1 0.986613 0.171245 0.50534
157 1 0.501019 0.0166581 0.3469
273 1 0.332614 0.335074 0.490645
15 1 0.572163 -0.00169135 0.0913103
57 1 0.341786 0.339591 0.00851813
591 1 0.597591 0.507868 0.433437
437 1 0.160696 0.491863 -0.000651467
277 1 0.509656 0.33016 0.497964
265 1 0.00292005 0.32382 0.487898
525 1 0.838004 0.500988 0.169289
159 1 0.585858 0.0154365 0.412922
149 1 0.172926 0.000571278 0.346722
509 1 0.177005 0.485229 0.168796
583 1 0.260716 0.508625 0.404821
19 1 0.759482 -0.00865843 0.0753791
6 1 0.233233 0.0913776 -0.00298534
278 1 0.583397 0.407696 0.488672
242 1 0.0802767 0.248496 0.498942
17 1 0.664138 0.00268336 0.00645512
282 1 0.73548 0.414512 0.498347
53 1 0.167351 0.321189 0.00464059
50 1 0.0888207 0.407574 0.000308982
29 1 0.162569 0.177434 0.00496629
45 1 0.853022 0.161746 -0.000204632
61 1 0.510166 0.32884 0.00577608
41 1 0.670265 0.175826 0.0109428
229 1 0.494128 -0.0014842 0.497408
224 1 0.175076 0.0784769 0.585382
239 1 0.911254 0.00392415 0.594832
49 1 -0.00831212 0.324035 0.981896
228 1 0.342563 0.0873855 0.581932
317 1 0.180845 0.161987 0.66169
301 1 0.49866 0.00323626 0.669533
14 1 0.567557 0.0704467 0.993158
251 1 0.426466 0.188393 0.579701
232 1 0.499199 0.0947076 0.583608
367 1 0.239143 -0.00573583 0.911745
298 1 0.418428 0.100432 0.657258
5 1 0.171805 0.00723795 1.00921
46 1 0.903027 0.251064 0.980533
302 1 0.585585 0.0942207 0.663776
236 1 0.654943 0.092642 0.582804
255 1 0.580819 0.171492 0.585409
329 1 0.669772 0.177142 0.66729
430 1 0.911486 0.413107 0.826906
306 1 0.763635 0.0749913 0.662301
240 1 0.833347 0.0867086 0.580521
379 1 0.740752 0.0252002 0.907815
220 1 1.00528 0.0877887 0.582308
263 1 0.908435 0.163228 0.577824
333 1 0.824244 0.172616 0.657714
741 1 0.841954 0.513662 0.672508
243 1 0.0860223 0.16976 0.597162
248 1 0.158561 0.246125 0.590532
341 1 0.178574 0.340977 0.67249
247 1 0.251489 0.184638 0.581031
252 1 0.332852 0.251513 0.584927
318 1 0.263346 0.26101 0.66226
322 1 0.432838 0.260559 0.678703
345 1 0.339857 0.329157 0.669344
275 1 0.41556 0.346164 0.584194
256 1 0.508412 0.260021 0.583024
279 1 0.595531 0.329718 0.584039
260 1 0.670873 0.25095 0.591091
353 1 0.664067 0.336621 0.669252
18 1 0.750377 0.0972267 1.00254
259 1 0.741114 0.159168 0.591206
264 1 0.843994 0.256374 0.584659
283 1 0.764747 0.345031 0.583346
330 1 0.752808 0.259894 0.665223
357 1 0.848772 0.337778 0.675398
244 1 1.01198 0.245769 0.577124
287 1 0.921685 0.332202 0.573594
334 1 0.916161 0.235446 0.668047
337 1 0.995684 0.327612 0.665108
267 1 0.0834886 0.339747 0.59204
338 1 0.0779383 0.423553 0.667986
268 1 0.993652 0.428427 0.578397
727 1 0.247278 0.486966 0.746388
271 1 0.256269 0.326407 0.57552
272 1 0.159735 0.422286 0.581262
667 1 0.771634 0.482784 0.587597
276 1 0.322665 0.414268 0.571494
280 1 0.505687 0.414683 0.57266
346 1 0.41491 0.419377 0.662802
797 1 0.153648 0.483978 0.840393
284 1 0.664897 0.401566 0.585653
30 1 0.26004 0.262618 0.982359
795 1 0.0873258 0.487112 0.920851
813 1 0.826724 0.502562 0.843441
805 1 0.500471 0.49178 0.834414
354 1 0.749026 0.411087 0.666255
377 1 0.661647 -0.00430816 0.810204
723 1 0.0743096 0.495266 0.756464
288 1 0.855345 0.417442 0.573669
358 1 0.916344 0.43123 0.662241
432 1 0.825245 0.417289 0.909639
222 1 0.248572 0.0984631 0.50857
290 1 0.079453 0.0709203 0.669749
296 1 0.165004 0.0814299 0.72459
811 1 0.734633 0.497211 0.913073
425 1 0.674623 0.342375 0.819656
294 1 0.255747 0.0896075 0.6598
366 1 0.229871 0.0823282 0.835481
389 1 0.153849 0.165244 0.817796
428 1 0.655253 0.414385 0.910136
10 1 0.416195 0.0782221 1.0029
300 1 0.332732 0.0867282 0.745137
304 1 0.501166 0.080906 0.739604
397 1 0.491502 0.155013 0.813121
225 1 0.326761 0.0199272 0.508605
327 1 0.583092 0.176069 0.746139
663 1 0.577397 0.49756 0.569441
421 1 0.49218 0.323746 0.82681
401 1 0.665928 0.157728 0.83087
297 1 0.334497 0.000615534 0.678299
308 1 0.656729 0.0913568 0.738381
378 1 0.739561 0.0742539 0.814888
313 1 0.986388 0.157384 0.661911
292 1 1.00001 0.0688317 0.744117
312 1 0.840003 0.0757841 0.751239
310 1 0.906295 0.0764268 0.661303
335 1 0.91834 0.160579 0.748196
314 1 0.0833778 0.244191 0.675421
315 1 0.0850408 0.151312 0.74004
386 1 0.0923692 0.247671 0.829808
320 1 0.17895 0.255243 0.739312
319 1 0.254297 0.170794 0.746839
321 1 0.349127 0.182836 0.665674
324 1 0.328365 0.261281 0.753397
343 1 0.243912 0.338478 0.751965
390 1 0.26215 0.248966 0.839866
325 1 0.501513 0.174137 0.658079
323 1 0.409493 0.171371 0.756864
326 1 0.580953 0.253241 0.664196
328 1 0.508771 0.254097 0.74598
332 1 0.671416 0.245279 0.746752
398 1 0.577476 0.240014 0.836156
331 1 0.742881 0.163274 0.734759
402 1 0.744222 0.231024 0.829281
336 1 0.825917 0.245928 0.757356
316 1 0.00648494 0.232003 0.756673
409 1 1.00778 0.315226 0.82734
422 1 0.585279 0.416546 0.825982
339 1 0.0859652 0.321044 0.751981
413 1 0.16554 0.337561 0.837948
344 1 0.157698 0.409703 0.757309
340 1 0.986398 0.421575 0.740343
418 1 0.418864 0.423405 0.823879
410 1 0.0721485 0.403525 0.812154
342 1 0.242635 0.423555 0.653486
348 1 0.340828 0.409637 0.750664
414 1 0.251619 0.418373 0.836087
424 1 0.483075 0.40455 0.911149
404 1 0.647575 0.239869 0.910829
347 1 0.428902 0.343252 0.740548
352 1 0.502762 0.415627 0.750322
350 1 0.589656 0.415901 0.657174
349 1 0.495352 0.347851 0.656997
351 1 0.581998 0.337913 0.745624
356 1 0.671352 0.437205 0.744866
395 1 0.41071 0.153551 0.90057
355 1 0.74865 0.338755 0.736021
426 1 0.742379 0.414453 0.837896
360 1 0.832551 0.418779 0.744116
42 1 0.761909 0.237233 0.99683
270 1 0.245023 0.430222 0.496645
359 1 0.924132 0.324095 0.752388
249 1 0.336826 0.176593 0.508269
289 1 0.992615 -0.013964 0.67145
362 1 0.080648 0.0777637 0.815469
364 1 0.00262674 0.0816819 0.912262
415 1 0.255865 0.334411 0.898786
257 1 0.66429 0.187904 0.504478
368 1 0.1507 0.0765758 0.914087
372 1 0.316844 0.0816626 0.909674
419 1 0.410663 0.329453 0.916987
245 1 0.169206 0.168571 0.513371
429 1 0.829396 0.335479 0.82119
370 1 0.424522 0.072929 0.821451
376 1 0.49144 0.0748868 0.906015
388 1 0.00659365 0.243826 0.912277
427 1 0.742438 0.31994 0.909236
405 1 0.812323 0.150259 0.820831
374 1 0.579596 0.0891755 0.814628
399 1 0.568254 0.155525 0.897833
400 1 0.479848 0.235157 0.900885
403 1 0.73995 0.151283 0.90436
380 1 0.647379 0.0802551 0.914151
384 1 0.845016 0.0686825 0.900757
420 1 0.334161 0.423042 0.913917
412 1 0.99414 0.40296 0.901309
385 1 -0.0049202 0.148375 0.826483
382 1 0.922437 0.0584693 0.83465
407 1 0.915612 0.146285 0.910404
423 1 0.589014 0.341504 0.906387
416 1 0.172968 0.399071 0.934046
406 1 0.92201 0.235561 0.827674
431 1 0.894975 0.327919 0.906736
387 1 0.0960239 0.190356 0.913882
392 1 0.173254 0.260575 0.912612
411 1 0.0804585 0.329813 0.917706
391 1 0.227905 0.170505 0.904861
396 1 0.344057 0.238773 0.914667
417 1 0.336188 0.345922 0.826643
393 1 0.317085 0.154467 0.8296
394 1 0.406677 0.271035 0.81208
408 1 0.825064 0.2319 0.912648
26 1 0.0922342 0.247642 0.993441
809 1 0.64364 0.498291 0.831556
33 1 0.305743 0.164221 0.995714
235 1 0.745539 0.0105751 0.579975
815 1 0.90431 0.494032 0.922601
234 1 0.755399 0.0834162 0.492411
269 1 0.170074 0.331745 0.515397
246 1 0.254599 0.248224 0.500098
218 1 0.0850032 0.0952876 0.508361
799 1 0.239612 0.491052 0.910574
371 1 0.401452 -0.00169075 0.912754
733 1 0.516634 0.501757 0.660879
223 1 0.251797 0.000450624 0.587323
303 1 0.580864 0.00983799 0.736034
721 1 0.998248 0.515529 0.675657
793 1 0.997065 0.488952 0.837175
807 1 0.58552 0.496625 0.920209
231 1 0.580966 -0.00104496 0.591503
227 1 0.42177 0.00460715 0.603335
299 1 0.405445 -0.000417179 0.751241
37 1 0.48847 0.156898 0.976514
669 1 0.824735 0.500268 0.494837
250 1 0.418112 0.266971 0.499532
2 1 0.0849312 0.0742183 0.992015
58 1 0.403166 0.41702 0.997715
281 1 0.668539 0.333645 0.49754
261 1 0.823483 0.179344 0.513553
25 1 0.0140269 0.162203 0.979489
233 1 0.658024 0.00327513 0.5016
65 1 0.66803 0.325492 0.988581
266 1 0.0882203 0.421505 0.512057
54 1 0.265678 0.41672 0.994639
13 1 0.497459 -0.0189079 0.990371
258 1 0.741911 0.252876 0.509939
22 1 0.908819 0.0624119 0.986138
226 1 0.423049 0.0975019 0.503948
69 1 0.821167 0.338483 0.98834
433 1 0.992787 0.486225 1.00602
440 1 0.187162 0.572332 0.0920442
434 1 0.0854326 0.593786 0.00745965
459 1 0.0998374 0.664743 0.0878708
444 1 0.334058 0.576163 0.0900625
533 1 0.194231 0.6662 0.157181
648 1 0.831796 0.913809 0.415571
510 1 0.251644 0.578078 0.180924
647 1 0.924764 0.830113 0.420275
511 1 0.261559 0.508965 0.265643
657 1 0.332252 0.497157 0.500291
514 1 0.415847 0.585753 0.162222
448 1 0.50392 0.601877 0.0970149
163 1 0.752187 0.988877 0.413951
452 1 0.681582 0.576884 0.0893355
518 1 0.5907 0.583791 0.170286
585 1 0.341886 0.506311 0.339108
475 1 0.732697 0.677456 0.0855536
545 1 0.649159 0.672503 0.162145
673 1 0.99684 0.658876 0.502759
93 1 0.846365 0.97933 0.156999
436 1 0.00525736 0.576615 0.0814022
456 1 0.83035 0.567206 0.0804948
479 1 0.919485 0.647206 0.0779775
529 1 0.0111414 0.651604 0.15888
450 1 0.750022 0.590051 0.000939626
460 1 0.999607 0.736372 0.088281
530 1 0.0845515 0.739551 0.173371
463 1 0.256513 0.654598 0.0718802
464 1 0.173092 0.753208 0.0830695
468 1 0.343398 0.751546 0.0846235
487 1 0.261683 0.828291 0.0850286
534 1 0.257595 0.749299 0.17676
561 1 0.335904 0.830357 0.178408
537 1 0.325217 0.668995 0.16281
467 1 0.402063 0.662571 0.0864637
538 1 0.411067 0.740813 0.170928
472 1 0.492686 0.747021 0.0937294
491 1 0.421641 0.829484 0.0800351
565 1 0.486736 0.841264 0.17061
471 1 0.57757 0.685909 0.0845129
476 1 0.652745 0.768021 0.0698193
495 1 0.564258 0.835086 0.0793831
81 1 0.314272 1.00521 0.168615
466 1 0.420087 0.746849 -0.019805
546 1 0.736174 0.749337 0.174854
499 1 0.748208 0.820784 0.0920463
549 1 0.83702 0.671355 0.14605
569 1 0.663563 0.830462 0.15881
474 1 0.749296 0.756701 -0.0118232
151 1 0.244231 1.01285 0.426803
480 1 0.829221 0.755953 0.0795589
550 1 0.919954 0.747549 0.174989
553 1 0.00294071 0.824165 0.188635
483 1 0.0807653 0.827092 0.0973085
484 1 0.0111332 0.90582 0.102026
593 1 0.656507 0.509766 0.339748
554 1 0.101983 0.907956 0.182644
73 1 0.981026 0.997638 0.173085
488 1 0.16686 0.917971 0.0800679
492 1 0.313542 0.920818 0.0784261
558 1 0.251787 0.917332 0.184094
445 1 0.493336 0.502482 0.00586713
496 1 0.49988 0.916307 0.0648066
587 1 0.412316 0.510518 0.416402
566 1 0.58107 0.918627 0.15819
500 1 0.653897 0.899761 0.0729509
89 1 0.677795 0.988775 0.14281
570 1 0.750572 0.912541 0.153987
523 1 0.757883 0.499329 0.253891
454 1 0.910767 0.578352 -0.00139335
85 1 0.488084 0.987804 0.170782
504 1 0.825543 0.913425 0.0679814
503 1 0.922506 0.833183 0.0845281
573 1 0.835461 0.825885 0.169586
574 1 0.925546 0.894015 0.169915
477 1 0.827817 0.664904 0.00302676
506 1 0.116135 0.596586 0.172319
512 1 0.180398 0.582234 0.258332
578 1 0.0945529 0.594971 0.34947
458 1 0.0918496 0.746812 -0.000288583
643 1 0.741108 0.840512 0.418947
582 1 0.264232 0.599314 0.33529
535 1 0.253764 0.672622 0.252938
485 1 0.167519 0.83829 -0.00266784
449 1 0.660856 0.492339 0.00452943
516 1 0.341305 0.58474 0.262005
520 1 0.499897 0.589184 0.256127
642 1 0.75085 0.910829 0.32803
644 1 0.66038 0.929249 0.415376
522 1 0.759694 0.585101 0.180024
524 1 0.670639 0.595601 0.260208
547 1 0.734508 0.681394 0.257778
87 1 0.58819 0.992799 0.229482
526 1 0.907868 0.591703 0.170558
528 1 0.839167 0.579537 0.264257
508 1 0.012135 0.579002 0.269508
531 1 0.0936712 0.65403 0.255683
536 1 0.157074 0.740934 0.252035
532 1 1.01391 0.730803 0.24549
602 1 0.0933172 0.75492 0.324255
559 1 0.265705 0.834853 0.259946
540 1 0.333084 0.751379 0.255518
557 1 0.182841 0.828854 0.167024
629 1 0.175752 0.830229 0.344134
541 1 0.503663 0.678784 0.178217
539 1 0.422982 0.668679 0.253364
610 1 0.42923 0.75131 0.339227
544 1 0.507617 0.763186 0.259119
542 1 0.58855 0.756337 0.172602
543 1 0.586181 0.678552 0.265858
641 1 0.653616 0.855501 0.330609
548 1 0.6356 0.765427 0.267091
552 1 0.825958 0.756713 0.248173
551 1 0.925819 0.658886 0.247841
575 1 0.907754 0.832847 0.252782
515 1 0.432026 0.509085 0.253065
555 1 0.0960004 0.831063 0.242902
556 1 0.00481293 0.928759 0.253462
560 1 0.180645 0.919181 0.261412
564 1 0.34812 0.914842 0.239469
489 1 0.332677 0.8247 0.00074094
581 1 0.185277 0.505479 0.334785
562 1 0.404927 0.919575 0.151689
563 1 0.420115 0.831416 0.258565
634 1 0.404857 0.927125 0.354652
637 1 0.494793 0.85024 0.332489
568 1 0.483039 0.934267 0.258155
567 1 0.570899 0.858207 0.243732
572 1 0.66626 0.918297 0.231706
470 1 0.591089 0.759023 -0.0128209
571 1 0.729928 0.839121 0.245351
599 1 0.933807 0.504819 0.420708
478 1 0.906492 0.74159 0.0107987
646 1 0.921756 0.907172 0.337411
645 1 0.8369 0.821862 0.330335
576 1 0.825099 0.912106 0.255827
625 1 0.00916347 0.844698 0.32171
640 1 0.498175 0.918515 0.420308
638 1 0.568858 0.92622 0.346939
605 1 0.177164 0.664385 0.343868
603 1 0.0925591 0.68246 0.415336
635 1 0.422433 0.830932 0.428158
670 1 0.916032 0.584579 0.497735
505 1 0.00825736 0.51019 0.169101
584 1 0.17717 0.591247 0.413025
588 1 0.342829 0.593644 0.425615
217 1 0.996438 1.01334 0.491187
586 1 0.422539 0.587731 0.332506
613 1 0.504831 0.653918 0.344609
590 1 0.589236 0.586574 0.336467
592 1 0.502262 0.584608 0.435445
636 1 0.330469 0.920807 0.424865
481 1 1.00741 0.823234 0.0115844
95 1 0.906531 0.978022 0.254038
630 1 0.25919 0.917271 0.347392
596 1 0.680471 0.584367 0.425659
594 1 0.759703 0.596709 0.334365
600 1 0.830923 0.592017 0.423257
486 1 0.253371 0.920902 -0.019119
628 1 0.00165228 0.910955 0.413385
621 1 0.834274 0.676176 0.315556
580 1 0.00917184 0.583867 0.425088
598 1 0.923196 0.572238 0.338931
435 1 0.0963636 0.515065 0.0890599
626 1 0.0969259 0.924218 0.338204
601 1 1.00772 0.658903 0.34238
627 1 0.0988502 0.835329 0.406146
608 1 0.184945 0.745487 0.413042
609 1 0.3481 0.662946 0.344314
607 1 0.26323 0.674221 0.41916
606 1 0.259239 0.752112 0.328999
631 1 0.254427 0.837226 0.430209
611 1 0.414721 0.665214 0.431045
612 1 0.336929 0.754358 0.432778
633 1 0.356162 0.828672 0.348183
614 1 0.576475 0.746113 0.348097
639 1 0.590398 0.829655 0.418591
615 1 0.579139 0.677725 0.430083
616 1 0.499709 0.763839 0.424935
632 1 0.161213 0.920343 0.435416
620 1 0.667633 0.755342 0.415101
618 1 0.735527 0.778347 0.334941
617 1 0.654809 0.673213 0.351808
619 1 0.743407 0.66752 0.421683
604 1 0.00535563 0.750839 0.399244
622 1 0.919365 0.742096 0.334178
623 1 0.920836 0.656634 0.412174
624 1 0.825852 0.752915 0.408646
23 1 0.928032 0.989904 0.0753851
579 1 0.0806742 0.497029 0.412811
589 1 0.513649 0.520354 0.336204
3 1 0.078489 0.996833 0.0784049
447 1 0.583323 0.504804 0.0895171
517 1 0.501691 0.514688 0.161385
457 1 1.00098 0.666669 0.010387
577 1 0.0174361 0.507186 0.338851
91 1 0.744792 0.987449 0.238379
167 1 0.915729 0.995132 0.416606
79 1 0.252504 1.00803 0.261077
498 1 0.736076 0.922372 -0.0160377
689 1 0.665204 0.675096 0.504454
690 1 0.753491 0.768372 0.493989
694 1 0.935107 0.740376 0.496778
438 1 0.252335 0.579457 -0.00579542
441 1 0.345829 0.500951 -0.00231135
446 1 0.591383 0.5824 0.0191772
654 1 0.256703 0.584642 0.500816
677 1 0.17573 0.676449 0.494298
502 1 0.911639 0.902046 0.00674871
710 1 0.581397 0.926569 0.504031
490 1 0.402148 0.906138 0.000183497
656 1 0.169727 0.596577 0.591626
650 1 0.0914298 0.586476 0.502824
722 1 0.0785206 0.58435 0.672655
686 1 0.593057 0.763949 0.498945
864 1 0.826272 0.916236 0.91645
863 1 0.909472 0.843797 0.911757
660 1 0.333031 0.588885 0.58159
726 1 0.244468 0.576183 0.669509
21 1 0.828671 0.990847 0.992323
730 1 0.4227 0.581091 0.639805
709 1 0.509027 0.841857 0.502648
713 1 0.661218 0.843168 0.503361
664 1 0.514548 0.578211 0.587657
668 1 0.654829 0.59349 0.56931
365 1 0.165524 0.985453 0.832278
687 1 0.587245 0.685594 0.575309
442 1 0.415422 0.584975 1.00297
672 1 0.822279 0.578139 0.584118
691 1 0.75279 0.665849 0.584153
375 1 0.57828 0.989497 0.914086
652 1 0.00551557 0.570746 0.577294
695 1 0.912077 0.661612 0.572318
649 1 1.01475 0.501041 0.492192
675 1 0.0770462 0.661102 0.570291
676 1 0.0133417 0.749196 0.590567
769 1 -0.0153055 0.834257 0.677274
745 1 1.00117 0.65828 0.681169
746 1 0.0589908 0.749353 0.682173
729 1 0.333002 0.504204 0.643282
679 1 0.239295 0.676822 0.583003
680 1 0.160615 0.756253 0.58675
697 1 0.0172671 0.818683 0.484793
653 1 0.176847 0.516657 0.491948
659 1 0.423196 0.492499 0.581121
683 1 0.416452 0.682439 0.59863
684 1 0.329582 0.764787 0.596422
707 1 0.415438 0.849729 0.586508
753 1 0.323687 0.673936 0.666412
801 1 0.339315 0.492274 0.834373
688 1 0.50037 0.753771 0.593857
758 1 0.594695 0.753462 0.672352
711 1 0.578878 0.835047 0.593132
757 1 0.498857 0.671608 0.673507
655 1 0.244498 0.512705 0.579181
692 1 0.675449 0.74338 0.583152
696 1 0.830836 0.743391 0.582286
715 1 0.741151 0.842799 0.589888
698 1 0.0766246 0.912804 0.507506
307 1 0.759764 0.995281 0.740081
766 1 0.914401 0.730783 0.666918
765 1 0.834785 0.657284 0.659496
305 1 0.671581 1.01217 0.66112
719 1 0.927183 0.816121 0.574809
706 1 0.401689 0.931901 0.505418
699 1 0.0709764 0.836204 0.580584
678 1 0.254365 0.754558 0.507011
700 1 0.988178 0.910457 0.586063
704 1 0.165252 0.918715 0.582571
703 1 0.239736 0.845332 0.584516
311 1 0.90617 0.997409 0.7421
708 1 0.331098 0.93823 0.600993
712 1 0.499918 0.923934 0.583135
778 1 0.426675 0.917724 0.67015
716 1 0.669112 0.933709 0.584621
781 1 0.493706 0.834988 0.658284
782 1 0.568239 0.918081 0.686874
739 1 0.759015 0.499343 0.752654
842 1 0.0882891 0.911415 0.831644
735 1 0.577494 0.500509 0.752768
861 1 0.83413 0.826525 0.826987
720 1 0.825063 0.917844 0.576993
786 1 0.755441 0.906891 0.675086
674 1 0.0907984 0.754031 0.500822
789 1 0.838563 0.839595 0.637525
743 1 0.910493 0.503677 0.757544
462 1 0.258748 0.741431 1.00279
841 1 0.99621 0.826881 0.827828
794 1 0.0639575 0.59053 0.844484
728 1 0.168286 0.575556 0.768594
843 1 0.0859282 0.829098 0.9217
724 1 0.991928 0.586825 0.759722
671 1 0.911889 0.514414 0.587145
798 1 0.250792 0.558743 0.825889
732 1 0.33368 0.572011 0.734184
736 1 0.477398 0.590076 0.748366
802 1 0.429718 0.583672 0.853475
825 1 0.327967 0.659487 0.823156
860 1 0.67053 0.930966 0.894618
734 1 0.583582 0.57724 0.665265
761 1 0.653526 0.655351 0.673294
829 1 0.489024 0.659195 0.821653
494 1 0.584962 0.92204 0.990792
738 1 0.755965 0.579631 0.667207
740 1 0.662656 0.568552 0.745787
744 1 0.826629 0.584493 0.755244
854 1 0.585639 0.913785 0.824671
742 1 0.914451 0.586883 0.683091
814 1 0.907389 0.575674 0.845682
817 1 0.986549 0.662125 0.848048
749 1 0.156272 0.670378 0.670355
747 1 0.0771864 0.665877 0.752273
771 1 0.0742741 0.830308 0.76463
818 1 0.0767604 0.740404 0.840658
821 1 0.152941 0.666406 0.833157
845 1 0.156753 0.825854 0.832547
750 1 0.23402 0.742354 0.680735
777 1 0.316814 0.828464 0.682247
751 1 0.252645 0.667166 0.746199
752 1 0.151854 0.751318 0.753373
755 1 0.410927 0.674718 0.740092
756 1 0.33352 0.753074 0.75596
754 1 0.41073 0.756987 0.671279
826 1 0.420081 0.755811 0.829842
759 1 0.578408 0.663102 0.74857
760 1 0.502294 0.749452 0.745173
764 1 0.671935 0.747003 0.746144
830 1 0.584222 0.737487 0.825257
763 1 0.752756 0.659198 0.743296
762 1 0.752596 0.7531 0.654594
768 1 0.826133 0.76345 0.738629
787 1 0.745622 0.833353 0.75649
748 1 0.987181 0.742874 0.765814
767 1 0.906766 0.663609 0.758024
773 1 0.15404 0.830866 0.663571
770 1 0.0769459 0.919879 0.655804
844 1 0.00912846 0.90114 0.908865
9 1 0.324721 1.00098 0.996847
775 1 0.240292 0.831089 0.75079
776 1 0.15987 0.905669 0.755548
774 1 0.24293 0.921081 0.677806
846 1 0.252562 0.90388 0.825147
725 1 0.157895 0.49969 0.6787
780 1 0.339626 0.90994 0.743617
779 1 0.418881 0.839555 0.752113
784 1 0.492283 0.915761 0.753058
783 1 0.575294 0.829111 0.745968
785 1 0.658358 0.83358 0.671289
788 1 0.663028 0.910071 0.74874
858 1 0.758991 0.912198 0.831641
792 1 0.833745 0.912414 0.747864
714 1 0.753788 0.910888 0.501064
791 1 0.912483 0.831311 0.747988
772 1 0.994868 0.905125 0.749737
862 1 0.915489 0.913416 0.821041
790 1 0.907131 0.907866 0.662726
731 1 0.421704 0.488535 0.750369
803 1 0.419408 0.496254 0.914148
293 1 0.158787 0.992323 0.66555
800 1 0.165739 0.568065 0.91418
850 1 0.4095 0.913916 0.825825
804 1 0.32014 0.577721 0.91596
856 1 0.490618 0.912341 0.905697
823 1 0.241993 0.655439 0.894622
827 1 0.40219 0.669347 0.90857
855 1 0.575879 0.823482 0.913308
806 1 0.573903 0.572574 0.835157
808 1 0.515097 0.585716 0.928747
833 1 0.650168 0.647804 0.819989
831 1 0.582342 0.673028 0.908731
838 1 0.909896 0.743821 0.841593
651 1 0.0923424 0.508789 0.577177
810 1 0.745075 0.575123 0.832093
812 1 0.664242 0.578155 0.921905
816 1 0.82499 0.573855 0.917345
835 1 0.750021 0.671379 0.918004
848 1 0.172007 0.895597 0.907542
837 1 0.830851 0.66555 0.84127
852 1 0.33037 0.904512 0.913646
796 1 0.998416 0.564868 0.936024
839 1 0.922718 0.673889 0.933345
685 1 0.502234 0.663223 0.501014
819 1 0.083327 0.661262 0.919098
824 1 0.17022 0.746598 0.904078
820 1 0.994646 0.756852 0.924861
682 1 0.419147 0.755215 0.511369
840 1 0.836657 0.750305 0.924369
822 1 0.254314 0.739035 0.825764
847 1 0.243253 0.822854 0.924593
849 1 0.333977 0.8383 0.832467
851 1 0.413839 0.830932 0.9145
828 1 0.325524 0.757191 0.902992
361 1 1.00702 0.991987 0.820392
853 1 0.510196 0.828182 0.834637
832 1 0.490443 0.744199 0.900154
836 1 0.662655 0.755152 0.909611
834 1 0.754718 0.742877 0.843767
857 1 0.657257 0.827158 0.836076
859 1 0.751149 0.819932 0.905812
221 1 0.160639 1.00043 0.506692
717 1 0.842248 0.830477 0.505209
702 1 0.257182 0.921138 0.500438
701 1 0.158952 0.833837 0.508104
309 1 0.830308 0.988678 0.660979
291 1 0.0699122 0.988978 0.739674
363 1 0.098021 0.981211 0.923851
219 1 0.0869676 1.01103 0.577415
381 1 0.835802 0.984975 0.83695
295 1 0.255642 1.00023 0.751031
383 1 0.922991 0.973662 0.92472
373 1 0.50337 1.00872 0.822301
737 1 0.679577 0.501293 0.65524
369 1 0.324889 0.990407 0.83655
661 1 0.48884 0.500362 0.496904
693 1 0.82717 0.683186 0.488929
705 1 0.332074 0.845616 0.50565
501 1 0.81265 0.843371 0.992556
658 1 0.4219 0.576342 0.503956
482 1 0.0686029 0.908941 1.01912
493 1 0.494982 0.829425 0.989241
666 1 0.7477 0.591183 0.498348
497 1 0.666861 0.831342 0.983075
465 1 0.331216 0.656934 0.995799
453 1 0.816668 0.499152 0.991371
473 1 0.657387 0.677647 0.994808
718 1 0.909768 0.912475 0.495948
1 1 0.00792389 0.988748 0.991423
681 1 0.333524 0.66373 0.506985
469 1 0.506608 0.6712 1.00282
665 1 0.673806 0.501349 0.515932
662 1 0.579983 0.586343 0.498583
461 1 0.177748 0.666931 0.985346
