ITEM: TIMESTEP
15750
ITEM: NUMBER OF ATOMS
864
ITEM: BOX BOUNDS pp pp pp
0.0000000000000000e+00 3.1559999999999999e+01
0.0000000000000000e+00 3.1559999999999999e+01
0.0000000000000000e+00 3.1559999999999999e+01
ITEM: ATOMS id type xs ys zs
8 1 0.159247 0.0787739 0.0813042
74 1 0.0674619 0.0799781 0.167067
65 1 0.682621 0.351622 0.00723594
50 1 0.0813298 0.428943 0.0136264
12 1 0.319701 0.0981927 0.0830497
31 1 0.24005 0.164163 0.088564
78 1 0.241433 0.0808679 0.162814
215 1 0.921666 0.346954 0.431084
9 1 0.343764 0.00330463 0.012686
82 1 0.408015 0.0840901 0.162899
16 1 0.499205 0.0791854 0.0791547
216 1 0.84584 0.416864 0.424596
20 1 0.675419 0.0853619 0.100657
43 1 0.767352 0.166356 0.0975387
90 1 0.755123 0.0837865 0.172998
147 1 0.0764904 0.000511039 0.424375
53 1 0.16608 0.352961 0.0287867
24 1 0.815029 0.0797701 0.0800937
4 1 0.987037 0.0828257 0.0889003
94 1 0.899348 0.0657687 0.168363
47 1 0.903783 0.163631 0.0980962
593 1 0.682438 0.494701 0.319492
27 1 0.0660978 0.150964 0.0640789
98 1 0.0746069 0.237299 0.159737
97 1 0.987053 0.156882 0.170472
517 1 0.48718 0.492559 0.167789
32 1 0.156315 0.239901 0.0733188
55 1 0.243019 0.342848 0.0999492
102 1 0.255195 0.257623 0.167389
159 1 0.58569 0.0132235 0.406235
35 1 0.412217 0.167462 0.0697746
579 1 0.0913396 0.494104 0.423554
36 1 0.320272 0.252367 0.0728552
105 1 0.327172 0.183308 0.171938
106 1 0.399975 0.257907 0.1468
109 1 0.485929 0.165548 0.158267
39 1 0.596258 0.169053 0.0920977
40 1 0.495557 0.245544 0.084595
44 1 0.677433 0.25617 0.101462
113 1 0.677699 0.162196 0.179178
48 1 0.828591 0.258233 0.0748449
67 1 0.757645 0.344514 0.0957304
41 1 0.678905 0.174913 0.0135455
54 1 0.239959 0.436294 0.0159085
28 1 0.983511 0.242291 0.0814987
118 1 0.917697 0.236258 0.175344
71 1 0.912323 0.342872 0.0777094
253 1 0.50582 0.159293 0.499837
51 1 0.0665836 0.331361 0.082965
122 1 0.0560403 0.428632 0.171825
56 1 0.164782 0.43414 0.112658
121 1 0.996147 0.34051 0.172505
60 1 0.330843 0.427113 0.0864328
265 1 0.0105916 0.345114 0.491835
129 1 0.337237 0.341691 0.153945
126 1 0.256353 0.427779 0.17222
59 1 0.414499 0.339713 0.0738963
130 1 0.411326 0.411664 0.16516
63 1 0.584371 0.326491 0.0953598
196 1 0.0054525 0.430703 0.419755
64 1 0.512194 0.413974 0.072117
261 1 0.838334 0.174214 0.494465
68 1 0.664291 0.420509 0.0910798
21 1 0.812385 0.00616512 0.00108061
72 1 0.833702 0.425446 0.0832865
52 1 0.993423 0.419812 0.0860435
142 1 0.90969 0.429323 0.184337
76 1 0.995442 0.0804947 0.250271
99 1 0.076413 0.163201 0.255471
81 1 0.334664 0.0139218 0.132389
80 1 0.153709 0.0784367 0.242324
103 1 0.239864 0.170978 0.243655
150 1 0.246212 0.0801958 0.330089
84 1 0.32801 0.0824315 0.252308
88 1 0.495089 0.0760846 0.251286
154 1 0.404661 0.0863737 0.326709
233 1 0.658273 0.000893134 0.499722
86 1 0.585281 0.0849146 0.174822
111 1 0.590998 0.171972 0.252883
92 1 0.677173 0.0790593 0.250738
158 1 0.585665 0.0898763 0.315475
96 1 0.829837 0.0733966 0.251195
115 1 0.761835 0.176365 0.256647
189 1 0.835162 0.168524 0.3468
117 1 0.846674 0.157392 0.198355
166 1 0.910293 0.08316 0.336161
119 1 0.930004 0.175452 0.260871
101 1 0.151097 0.168512 0.178532
123 1 0.0839715 0.354669 0.250814
104 1 0.163412 0.254137 0.242892
100 1 0.99548 0.249611 0.256154
108 1 0.349239 0.25653 0.252083
173 1 0.151947 0.157625 0.327675
174 1 0.248367 0.251368 0.325406
177 1 0.324597 0.164755 0.321377
107 1 0.409668 0.161569 0.246721
185 1 0.681931 0.164488 0.327661
110 1 0.586285 0.245875 0.166809
112 1 0.50386 0.25251 0.239717
116 1 0.672983 0.242561 0.244397
137 1 0.683733 0.333351 0.174769
114 1 0.766066 0.268658 0.183105
186 1 0.740262 0.253652 0.33185
139 1 0.746843 0.336795 0.266481
120 1 0.843849 0.245341 0.264745
143 1 0.917688 0.341329 0.263447
125 1 0.154974 0.327598 0.150184
124 1 0.995197 0.416729 0.257604
128 1 0.170395 0.42088 0.246385
197 1 0.161662 0.333922 0.32656
212 1 0.661763 0.43548 0.412829
127 1 0.260818 0.335362 0.251348
587 1 0.399622 0.499497 0.416987
198 1 0.237671 0.411893 0.330582
131 1 0.428442 0.325675 0.239073
132 1 0.326194 0.418068 0.252525
202 1 0.423401 0.420066 0.320303
201 1 0.342187 0.341142 0.329944
134 1 0.583292 0.441807 0.167168
133 1 0.495304 0.331803 0.15591
205 1 0.511958 0.329406 0.323178
136 1 0.488555 0.409517 0.246052
135 1 0.581226 0.341554 0.225325
155 1 0.40608 0.0126177 0.395612
210 1 0.754651 0.421905 0.337273
138 1 0.751061 0.42154 0.177071
140 1 0.662238 0.416488 0.248221
214 1 0.914219 0.421997 0.338037
213 1 0.833445 0.33321 0.342009
141 1 0.848401 0.327743 0.183389
144 1 0.830009 0.421586 0.265713
146 1 0.0726971 0.0742906 0.336988
507 1 0.0759157 0.496458 0.244582
152 1 0.169675 0.077857 0.409484
443 1 0.419678 0.495446 0.0831843
200 1 0.164329 0.418938 0.431105
91 1 0.754976 0.00463678 0.264267
211 1 0.743569 0.333703 0.413408
194 1 0.0876891 0.421837 0.340967
156 1 0.329608 0.0990996 0.397286
160 1 0.496946 0.0965128 0.394755
179 1 0.413157 0.160862 0.415227
149 1 0.157273 0.00249493 0.334921
206 1 0.578002 0.431567 0.339701
153 1 0.31701 0.00767014 0.332758
208 1 0.511681 0.406035 0.415978
230 1 0.584006 0.0821635 0.487802
164 1 0.679194 0.0771251 0.403071
162 1 0.773018 0.0845376 0.338321
168 1 0.828347 0.0751672 0.426474
26 1 0.0665941 0.237702 0.00106822
192 1 0.83898 0.253987 0.422763
209 1 0.663764 0.337132 0.326026
148 1 0.998338 0.0883349 0.41469
191 1 0.922927 0.166347 0.409027
169 1 0.00251597 0.155684 0.338338
195 1 0.0937447 0.335415 0.409526
171 1 0.0814308 0.147837 0.414197
170 1 0.0800711 0.255581 0.327293
172 1 0.00619776 0.249511 0.420069
583 1 0.262507 0.498186 0.421689
49 1 0.98415 0.32375 0.00673077
175 1 0.241402 0.163465 0.410833
176 1 0.144735 0.23657 0.418518
180 1 0.333638 0.250561 0.40863
199 1 0.230339 0.32429 0.400578
193 1 0.00411211 0.331993 0.338167
181 1 0.509001 0.179158 0.333143
203 1 0.418968 0.336525 0.403045
178 1 0.424459 0.248092 0.334769
182 1 0.586525 0.253958 0.327154
207 1 0.594524 0.328579 0.413715
183 1 0.577158 0.166957 0.422126
184 1 0.505502 0.255583 0.420248
188 1 0.667582 0.255601 0.419906
204 1 0.345356 0.406638 0.411167
187 1 0.74699 0.161114 0.426035
190 1 0.9085 0.250762 0.34079
7 1 0.241027 0.00343998 0.0635293
513 1 0.347995 0.492551 0.163743
165 1 0.840031 0.0026745 0.337128
589 1 0.488169 0.498816 0.342853
451 1 0.7469 0.497895 0.0854877
246 1 0.236281 0.254929 0.496658
282 1 0.768814 0.404106 0.493764
42 1 0.747069 0.257116 0.0043442
37 1 0.513273 0.163103 0.00695524
85 1 0.500227 0.0121248 0.169699
595 1 0.754457 0.491412 0.419957
83 1 0.409338 0.0128785 0.253239
38 1 0.595643 0.250409 0.00748467
3 1 0.0680536 0.0103187 0.0801691
661 1 0.511324 0.496446 0.497448
70 1 0.920403 0.438217 0.00634564
61 1 0.499454 0.320638 0.00768526
225 1 0.346078 0.0141391 0.482843
45 1 0.822281 0.163794 0.00453881
278 1 0.586981 0.404182 0.492997
22 1 0.903532 0.0731692 0.00819112
273 1 0.321273 0.333095 0.487733
269 1 0.184655 0.34366 0.495102
57 1 0.317458 0.350399 0.0152557
281 1 0.668603 0.334838 0.490513
274 1 0.42879 0.413752 0.487304
224 1 0.161232 0.0899658 0.589746
739 1 0.753394 0.487359 0.75017
429 1 0.84076 0.334302 0.826802
317 1 0.164712 0.168842 0.686491
6 1 0.24193 0.0743357 0.994158
228 1 0.331071 0.0927762 0.578778
430 1 0.927184 0.412241 0.83372
247 1 0.241932 0.167329 0.575683
294 1 0.252854 0.0905727 0.671106
321 1 0.343633 0.181034 0.67611
671 1 0.92551 0.488937 0.599566
251 1 0.42005 0.169417 0.582102
805 1 0.483187 0.497249 0.83283
325 1 0.505832 0.169389 0.674518
412 1 0.00537865 0.423918 0.931017
741 1 0.830659 0.484901 0.656511
232 1 0.508125 0.090898 0.586239
255 1 0.587181 0.177641 0.57995
236 1 0.659332 0.0833684 0.575301
663 1 0.599728 0.497285 0.57644
242 1 0.0759097 0.247832 0.506031
306 1 0.750621 0.0844374 0.665965
657 1 0.344358 0.485555 0.512376
266 1 0.0875195 0.415323 0.505985
797 1 0.168185 0.494828 0.841906
220 1 0.995666 0.071745 0.586643
240 1 0.840173 0.0882632 0.569084
263 1 0.91048 0.1645 0.584202
313 1 0.998876 0.154388 0.68175
416 1 0.152592 0.411864 0.924967
333 1 0.827921 0.16093 0.657718
243 1 0.060216 0.163431 0.59087
314 1 0.0810481 0.243767 0.676733
244 1 0.991081 0.248569 0.589951
341 1 0.158767 0.321669 0.678461
406 1 0.893775 0.232533 0.836289
5 1 0.147655 0.00264867 1.00002
248 1 0.16689 0.239984 0.582173
271 1 0.244588 0.317358 0.585427
318 1 0.234855 0.253571 0.675743
727 1 0.249476 0.488625 0.747946
262 1 0.936036 0.263027 0.502034
651 1 0.0866026 0.493382 0.590297
293 1 0.200385 0.00287443 0.666084
252 1 0.339517 0.245537 0.584093
322 1 0.432892 0.25463 0.65994
275 1 0.429143 0.341493 0.573312
256 1 0.508816 0.241106 0.590942
279 1 0.587778 0.328752 0.603749
349 1 0.503194 0.342773 0.671037
277 1 0.509341 0.32401 0.505338
259 1 0.745085 0.150959 0.571152
260 1 0.671748 0.250627 0.579308
283 1 0.751393 0.328369 0.573315
353 1 0.67232 0.334038 0.66775
729 1 0.32404 0.501044 0.668115
264 1 0.830755 0.245368 0.574582
334 1 0.922524 0.245602 0.673416
449 1 0.653631 0.499708 0.996894
267 1 0.0853065 0.318114 0.594837
268 1 0.0152481 0.410785 0.598567
33 1 0.332346 0.170678 0.992851
272 1 0.182064 0.396366 0.600086
342 1 0.252817 0.40934 0.676004
285 1 0.842627 0.324778 0.505847
431 1 0.912072 0.33559 0.924065
432 1 0.828903 0.4224 0.907206
276 1 0.328982 0.40724 0.586943
66 1 0.748144 0.42634 1.00102
18 1 0.74113 0.0811547 0.993055
280 1 0.510393 0.43148 0.589714
350 1 0.582991 0.4183 0.667737
58 1 0.413299 0.418426 0.992724
284 1 0.656441 0.406469 0.578397
354 1 0.748416 0.402525 0.659518
254 1 0.589645 0.255751 0.511814
381 1 0.825881 0.00833584 0.824575
377 1 0.667166 0.000518269 0.830993
288 1 0.833353 0.411109 0.579935
287 1 0.919805 0.332081 0.586423
290 1 0.0862296 0.0952762 0.681615
296 1 0.167061 0.0792849 0.750783
315 1 0.079108 0.180293 0.784699
362 1 0.0844953 0.0815195 0.834184
300 1 0.331181 0.0837822 0.737332
291 1 0.0764898 0.000305585 0.764666
423 1 0.591362 0.335746 0.924307
298 1 0.415928 0.0885923 0.666453
323 1 0.4277 0.177066 0.754524
370 1 0.405016 0.0793853 0.851785
304 1 0.482366 0.0802238 0.750713
302 1 0.580341 0.0811473 0.669852
428 1 0.665781 0.42648 0.913607
329 1 0.660136 0.161842 0.668516
308 1 0.668042 0.0903957 0.749789
378 1 0.748673 0.0720331 0.822039
331 1 0.74968 0.166384 0.738944
292 1 0.99646 0.0659767 0.748522
310 1 0.919366 0.0830563 0.652136
312 1 0.833757 0.080968 0.7355
335 1 0.906766 0.161242 0.746112
382 1 0.898265 0.0833378 0.834015
320 1 0.156156 0.244376 0.773125
339 1 0.0801275 0.32559 0.749948
319 1 0.24826 0.174989 0.760864
343 1 0.243613 0.32931 0.754104
417 1 0.330408 0.337555 0.831444
324 1 0.332778 0.248566 0.761478
347 1 0.418796 0.318235 0.752157
328 1 0.51065 0.257826 0.741296
345 1 0.334641 0.316495 0.669253
327 1 0.580025 0.164642 0.753254
326 1 0.589615 0.245351 0.671348
332 1 0.673941 0.260914 0.748728
351 1 0.592593 0.342459 0.758394
425 1 0.676752 0.33366 0.842565
330 1 0.754865 0.25007 0.655293
355 1 0.749199 0.362866 0.751894
336 1 0.832056 0.24291 0.737262
357 1 0.835787 0.323015 0.673355
402 1 0.74784 0.250952 0.813487
316 1 0.996924 0.240294 0.767002
409 1 0.998878 0.341666 0.853921
337 1 0.99144 0.325909 0.670258
359 1 0.920128 0.328095 0.750104
385 1 0.982982 0.143357 0.824665
338 1 0.0894398 0.407492 0.676807
340 1 0.998617 0.423779 0.739263
410 1 0.0919906 0.405564 0.81981
344 1 0.174222 0.413449 0.752941
231 1 0.568742 0.0109062 0.587142
348 1 0.346951 0.41442 0.749187
311 1 0.920054 0.00205207 0.726431
408 1 0.824826 0.237699 0.917703
653 1 0.171692 0.489074 0.512395
346 1 0.422172 0.402186 0.665025
352 1 0.500466 0.403112 0.758593
422 1 0.585465 0.407852 0.836604
356 1 0.652433 0.418782 0.743345
725 1 0.176653 0.490952 0.67472
2 1 0.0647919 0.0766999 0.992756
426 1 0.747774 0.418359 0.839943
219 1 0.0918863 0.00769268 0.595624
360 1 0.836559 0.419143 0.748122
424 1 0.49144 0.419874 0.914417
358 1 0.912787 0.404809 0.65996
389 1 0.171686 0.1651 0.837085
368 1 0.157377 0.0725174 0.916379
387 1 0.0728689 0.162989 0.909273
404 1 0.671847 0.259677 0.915905
366 1 0.2542 0.0862706 0.826613
372 1 0.323038 0.0590878 0.916812
393 1 0.334621 0.162439 0.838571
427 1 0.755574 0.327056 0.916826
30 1 0.240255 0.248094 0.990064
418 1 0.419207 0.408769 0.83407
217 1 0.0112668 0.0032052 0.506124
395 1 0.429906 0.165915 0.91071
376 1 0.506389 0.0839293 0.920293
397 1 0.493568 0.152127 0.825943
399 1 0.60512 0.174992 0.931419
374 1 0.592388 0.0884387 0.82811
400 1 0.520868 0.234544 0.924348
421 1 0.500545 0.328455 0.838215
380 1 0.659409 0.0858944 0.906641
401 1 0.660373 0.176059 0.817883
403 1 0.728289 0.17367 0.912002
384 1 0.828858 0.0781363 0.931973
286 1 0.937541 0.420208 0.511769
815 1 0.916277 0.500213 0.921418
398 1 0.590189 0.262104 0.833841
364 1 0.985436 0.073571 0.911495
407 1 0.90485 0.144777 0.919795
420 1 0.324903 0.415644 0.913597
386 1 0.0719356 0.269041 0.853019
413 1 0.173287 0.327748 0.836213
388 1 0.983057 0.249373 0.919017
392 1 0.155057 0.251287 0.917593
414 1 0.251852 0.419983 0.839196
390 1 0.266057 0.248171 0.842455
415 1 0.230625 0.345367 0.940609
391 1 0.240813 0.154495 0.92462
396 1 0.33694 0.242686 0.909946
394 1 0.431018 0.239765 0.84799
419 1 0.417655 0.331183 0.920144
801 1 0.335067 0.491782 0.826855
405 1 0.819463 0.15596 0.84551
411 1 0.089041 0.332397 0.95419
309 1 0.838959 0.0014806 0.66498
245 1 0.160728 0.162127 0.50562
737 1 0.68273 0.497669 0.656728
667 1 0.751754 0.479195 0.575913
793 1 0.0112419 0.485245 0.828075
227 1 0.425116 0.0155071 0.592655
307 1 0.758098 0.000523747 0.743639
813 1 0.82557 0.496961 0.831739
811 1 0.749101 0.499964 0.923877
803 1 0.402296 0.49206 0.909527
735 1 0.570454 0.49188 0.769472
303 1 0.58702 0.00613098 0.755117
250 1 0.419352 0.261652 0.503561
218 1 0.0829451 0.0840824 0.514113
238 1 0.917463 0.0855956 0.500081
62 1 0.580429 0.420316 0.992741
226 1 0.425446 0.0837251 0.501809
34 1 0.409455 0.24943 0.991645
234 1 0.744401 0.0660823 0.503385
270 1 0.255142 0.413324 0.504946
241 1 0.0023619 0.161228 0.502181
69 1 0.823234 0.351143 0.995621
257 1 0.660363 0.169023 0.501171
14 1 0.598826 0.0809925 0.995707
258 1 0.751084 0.254105 0.50298
25 1 0.975949 0.156616 0.993734
10 1 0.402332 0.092599 0.985499
249 1 0.336142 0.167248 0.505375
222 1 0.243129 0.093454 0.501772
229 1 0.49388 0.00381635 0.498755
46 1 0.903422 0.257954 0.992378
29 1 0.148356 0.158855 0.983449
459 1 0.0755187 0.658479 0.0911913
533 1 0.1651 0.687956 0.16593
436 1 0.989213 0.59167 0.0801809
19 1 0.765563 0.988445 0.08921
440 1 0.158686 0.590024 0.10339
444 1 0.339701 0.577224 0.0870031
510 1 0.236376 0.595411 0.172142
717 1 0.833933 0.833407 0.49864
537 1 0.334416 0.658315 0.159331
462 1 0.240316 0.739261 0.00998713
467 1 0.418228 0.668956 0.0860359
434 1 0.0837169 0.588514 0.00229583
448 1 0.48845 0.576955 0.0947279
452 1 0.655529 0.585626 0.0705019
77 1 0.162707 0.997379 0.158986
521 1 0.679242 0.502859 0.176413
456 1 0.841484 0.587262 0.0827203
89 1 0.673456 0.995807 0.166996
529 1 0.00371403 0.673519 0.163781
438 1 0.247922 0.580429 0.00720716
479 1 0.919763 0.668085 0.0703808
647 1 0.937799 0.829773 0.420449
464 1 0.153636 0.749282 0.0783856
483 1 0.0803615 0.842133 0.0709166
530 1 0.0878355 0.75627 0.163138
463 1 0.245739 0.663136 0.0876242
557 1 0.170936 0.84758 0.159218
487 1 0.253405 0.837173 0.0809101
468 1 0.330906 0.749245 0.0821238
437 1 0.170035 0.507595 0.0175797
472 1 0.505233 0.736638 0.0800427
491 1 0.437284 0.841431 0.0834426
585 1 0.330297 0.508864 0.314825
471 1 0.584287 0.664576 0.073175
476 1 0.662547 0.745444 0.0809627
495 1 0.584152 0.820473 0.0909816
569 1 0.663674 0.820154 0.17414
545 1 0.675634 0.666379 0.159731
475 1 0.741429 0.671679 0.0721023
499 1 0.746645 0.820615 0.0919531
480 1 0.839395 0.753964 0.0744026
460 1 0.00753221 0.750435 0.0738594
553 1 0.993274 0.833664 0.148009
573 1 0.828677 0.830831 0.176761
550 1 0.921879 0.749586 0.157373
503 1 0.911332 0.840165 0.0778568
453 1 0.830104 0.518041 0.00344975
554 1 0.0793872 0.919138 0.148994
488 1 0.172596 0.925932 0.0833361
466 1 0.431025 0.745491 0.00482714
439 1 0.245827 0.520891 0.10004
558 1 0.252273 0.930996 0.172591
714 1 0.750051 0.91174 0.491117
523 1 0.758811 0.506071 0.248035
492 1 0.335781 0.925387 0.0861454
562 1 0.415142 0.926034 0.164659
591 1 0.605252 0.520249 0.412784
645 1 0.853169 0.824959 0.337864
489 1 0.346521 0.824983 0.00782886
599 1 0.92253 0.50576 0.406897
496 1 0.514065 0.92438 0.110279
500 1 0.678762 0.908794 0.0925966
161 1 0.666524 0.996901 0.33578
151 1 0.255722 1.00151 0.420661
167 1 0.924423 0.996714 0.436211
570 1 0.744556 0.915189 0.175019
504 1 0.829528 0.905154 0.098439
163 1 0.751788 0.987613 0.408208
511 1 0.260418 0.50938 0.242663
509 1 0.168602 0.510535 0.187027
484 1 0.998438 0.914669 0.0721793
93 1 0.82397 0.991973 0.181707
574 1 0.909708 0.911374 0.169031
145 1 0.00071875 0.994045 0.332652
506 1 0.0764239 0.595732 0.175453
531 1 0.0813034 0.680901 0.247582
512 1 0.159683 0.601533 0.260074
643 1 0.746267 0.827554 0.414103
648 1 0.831436 0.902535 0.405609
582 1 0.247076 0.587919 0.340105
535 1 0.246907 0.687016 0.250946
514 1 0.415412 0.577017 0.166184
516 1 0.327359 0.58912 0.245009
705 1 0.335246 0.83359 0.495102
518 1 0.612152 0.580695 0.173292
686 1 0.59285 0.757201 0.498155
520 1 0.508127 0.579236 0.248133
590 1 0.581319 0.581711 0.340408
485 1 0.160093 0.828906 0.00125292
522 1 0.746574 0.582634 0.137807
644 1 0.663526 0.927532 0.426456
524 1 0.674346 0.593907 0.262441
526 1 0.912874 0.604489 0.16523
528 1 0.837198 0.58423 0.242652
508 1 0.00550422 0.593346 0.25398
551 1 0.931763 0.680451 0.246987
621 1 0.842393 0.67549 0.348197
505 1 0.986274 0.511979 0.172822
536 1 0.157988 0.756812 0.249706
532 1 0.00371238 0.75527 0.247375
602 1 0.0900077 0.749969 0.331731
534 1 0.244729 0.759248 0.161746
559 1 0.259151 0.851246 0.24124
606 1 0.239186 0.768513 0.334372
540 1 0.35621 0.752936 0.237742
561 1 0.354439 0.838826 0.172853
633 1 0.342829 0.830101 0.325608
538 1 0.415724 0.751688 0.149917
539 1 0.405873 0.656902 0.246837
544 1 0.527716 0.744801 0.255639
563 1 0.432986 0.828537 0.252489
541 1 0.511816 0.676499 0.171247
542 1 0.592536 0.74259 0.164033
543 1 0.590535 0.657604 0.24262
548 1 0.661161 0.745467 0.252519
567 1 0.588552 0.830984 0.245288
641 1 0.660971 0.839271 0.342213
546 1 0.747553 0.746991 0.169508
617 1 0.662296 0.662933 0.338354
547 1 0.753609 0.668343 0.24182
571 1 0.735835 0.825682 0.257017
618 1 0.739273 0.751418 0.334197
549 1 0.840643 0.683792 0.173241
601 1 -0.00062853 0.654452 0.344208
552 1 0.830953 0.757482 0.26385
555 1 0.0785774 0.836427 0.245196
556 1 0.999783 0.910698 0.239222
502 1 0.902708 0.927849 0.0023662
626 1 0.0815972 0.928693 0.327487
638 1 0.587889 0.924308 0.327917
629 1 0.157867 0.843224 0.34847
560 1 0.160895 0.914893 0.233501
564 1 0.343362 0.931949 0.253022
713 1 0.660289 0.841674 0.50014
15 1 0.585553 0.998954 0.0670867
73 1 0.984167 0.998131 0.164458
565 1 0.511668 0.821989 0.177673
568 1 0.501724 0.922448 0.23685
566 1 0.603072 0.914167 0.176687
639 1 0.583865 0.844838 0.425008
572 1 0.667658 0.92431 0.252632
635 1 0.422257 0.83883 0.408383
576 1 0.833982 0.910388 0.264492
642 1 0.742308 0.90389 0.337113
640 1 0.499743 0.920163 0.425425
575 1 0.919423 0.827075 0.247012
628 1 0.0118899 0.910083 0.409492
646 1 0.914574 0.911951 0.344943
637 1 0.515177 0.831998 0.342722
578 1 0.0881923 0.589556 0.328007
605 1 0.176351 0.676307 0.331623
603 1 0.0849159 0.656918 0.413888
584 1 0.160343 0.576724 0.411886
580 1 0.0125921 0.583442 0.421879
634 1 0.425123 0.916755 0.321926
588 1 0.326942 0.588978 0.412697
586 1 0.402657 0.593992 0.339799
592 1 0.497648 0.584133 0.425873
498 1 0.745142 0.898798 -0.000423146
611 1 0.420958 0.66713 0.421563
455 1 0.917976 0.51561 0.0855187
630 1 0.239363 0.91456 0.332449
594 1 0.763447 0.601515 0.328756
627 1 0.0819607 0.828744 0.425864
596 1 0.691461 0.577233 0.423811
718 1 0.9267 0.909448 0.498269
598 1 0.917299 0.592751 0.325106
600 1 0.836476 0.581859 0.423101
631 1 0.243661 0.834988 0.418006
636 1 0.332567 0.919109 0.403664
625 1 0.00579204 0.831707 0.321534
604 1 0.00676363 0.736736 0.409007
608 1 0.160128 0.74798 0.415586
607 1 0.25762 0.675712 0.423476
609 1 0.340912 0.679271 0.332614
612 1 0.334504 0.756026 0.416013
597 1 0.831294 0.50488 0.341301
610 1 0.418191 0.751896 0.337702
613 1 0.486833 0.653819 0.344017
614 1 0.582971 0.739973 0.343272
616 1 0.514876 0.750465 0.423153
615 1 0.586779 0.668107 0.429513
157 1 0.507736 0.996566 0.331252
619 1 0.744834 0.669536 0.419287
620 1 0.66777 0.755907 0.415404
624 1 0.859635 0.761451 0.427214
622 1 0.924319 0.744155 0.340239
623 1 0.93006 0.65901 0.421923
665 1 0.670427 0.502637 0.50018
632 1 0.163301 0.925287 0.418177
465 1 0.338555 0.658831 0.00185597
87 1 0.583612 0.995344 0.247168
23 1 0.907617 0.993203 0.0874829
698 1 0.0863406 0.911792 0.499811
706 1 0.407761 0.915218 0.479703
577 1 0.0042285 0.504083 0.331792
527 1 0.919264 0.502839 0.266327
709 1 0.487271 0.823382 0.488909
11 1 0.421676 0.996415 0.0770613
525 1 0.833684 0.502969 0.161489
673 1 0.0145938 0.668822 0.494541
75 1 0.0830745 0.993239 0.237787
654 1 0.25143 0.581424 0.492745
490 1 0.423277 0.916767 0.00778067
95 1 0.909133 0.994856 0.258184
447 1 0.568677 0.509401 0.0760429
494 1 0.578504 0.906768 0.0114962
519 1 0.595289 0.505286 0.259424
79 1 0.240616 0.994805 0.252557
435 1 0.0735791 0.512882 0.0880717
515 1 0.420631 0.513855 0.25615
581 1 0.170182 0.509034 0.317362
702 1 0.258742 0.910178 0.494039
649 1 0.00321773 0.507417 0.499354
457 1 0.00646351 0.665866 -4.0269e-05
470 1 0.570425 0.752718 0.00299964
461 1 0.167172 0.662806 0.00663003
674 1 0.0738602 0.748431 0.498545
677 1 0.171563 0.675674 0.497734
658 1 0.412043 0.586861 0.489595
694 1 0.935991 0.750487 0.497463
681 1 0.331905 0.670581 0.496696
669 1 0.855408 0.502526 0.496496
1 1 0.989994 0.994522 0.00109377
795 1 0.0983532 0.503246 0.927591
652 1 0.0127679 0.589162 0.57725
371 1 0.418836 0.991977 0.922222
862 1 0.907067 0.916007 0.825204
693 1 0.828586 0.6666 0.502659
656 1 0.16197 0.578377 0.604134
679 1 0.247743 0.670535 0.570461
726 1 0.248351 0.583228 0.665593
749 1 0.173555 0.670098 0.674584
474 1 0.747639 0.759237 0.994102
446 1 0.575034 0.580898 0.984785
660 1 0.330778 0.587324 0.575855
683 1 0.417433 0.666877 0.589557
664 1 0.498703 0.578429 0.580768
299 1 0.409558 0.979657 0.746174
361 1 0.981873 0.990685 0.821464
844 1 0.995235 0.915184 0.914374
363 1 0.0763892 0.990698 0.911278
734 1 0.587655 0.587305 0.660963
659 1 0.41685 0.50428 0.604844
668 1 0.66766 0.573363 0.568248
738 1 0.745086 0.579764 0.671484
17 1 0.670538 0.985155 0.996211
486 1 0.268496 0.907541 0.998537
383 1 0.893459 0.983451 0.913976
672 1 0.836932 0.577408 0.593345
367 1 0.239993 0.985341 0.921162
477 1 0.824644 0.66828 0.986307
235 1 0.752453 0.996757 0.583463
745 1 0.00681161 0.658913 0.668486
675 1 0.100191 0.66754 0.600507
680 1 0.174714 0.74863 0.587591
676 1 0.00376196 0.743096 0.591013
746 1 0.0829546 0.754832 0.666973
442 1 0.41328 0.574683 0.984228
750 1 0.258032 0.755991 0.671594
807 1 0.573194 0.501715 0.908658
684 1 0.334852 0.743335 0.596954
754 1 0.42952 0.75085 0.66149
473 1 0.671261 0.668306 0.991011
687 1 0.590272 0.666354 0.564023
688 1 0.500467 0.750516 0.567869
692 1 0.662187 0.768694 0.585941
670 1 0.923037 0.586103 0.498683
691 1 0.751125 0.662366 0.59195
696 1 0.832746 0.750265 0.577687
761 1 0.666232 0.669909 0.651116
762 1 0.749108 0.762221 0.66798
295 1 0.248883 0.992454 0.764272
695 1 0.927795 0.663772 0.576596
699 1 0.080346 0.8253 0.585568
704 1 0.159176 0.90989 0.574676
733 1 0.511743 0.50978 0.678314
703 1 0.251978 0.826356 0.583683
708 1 0.338423 0.90044 0.582529
373 1 0.499741 0.992672 0.818119
678 1 0.253717 0.759833 0.504098
777 1 0.332903 0.83083 0.674472
707 1 0.411675 0.820761 0.583658
778 1 0.414541 0.915601 0.65445
712 1 0.480772 0.912743 0.569256
781 1 0.498293 0.835493 0.660734
711 1 0.565767 0.834827 0.575858
716 1 0.648283 0.92743 0.573346
782 1 0.574117 0.908284 0.6515
785 1 0.660806 0.84397 0.657355
715 1 0.752941 0.838629 0.571619
720 1 0.83624 0.910863 0.566521
786 1 0.747546 0.909092 0.663267
719 1 0.926669 0.825971 0.582753
700 1 0.0110187 0.91054 0.588549
433 1 0.00348905 0.516827 0.99436
301 1 0.500127 0.995123 0.665526
722 1 0.0858688 0.574234 0.674421
794 1 0.0809536 0.573721 0.838818
728 1 0.168505 0.573531 0.744358
724 1 0.00519026 0.577423 0.756013
239 1 0.927962 0.981158 0.571932
450 1 0.744411 0.587444 0.998224
751 1 0.247743 0.667771 0.759637
753 1 0.332048 0.670989 0.672841
732 1 0.337125 0.588083 0.747242
825 1 0.334376 0.668727 0.840006
730 1 0.423812 0.59512 0.670204
755 1 0.413471 0.674281 0.743915
829 1 0.498155 0.675452 0.830388
802 1 0.411635 0.592053 0.834335
365 1 0.170337 0.993251 0.837607
369 1 0.339617 0.977664 0.839042
736 1 0.499776 0.584288 0.763751
740 1 0.658718 0.571346 0.743729
744 1 0.833013 0.595354 0.765162
763 1 0.740025 0.672219 0.738665
837 1 0.835131 0.676941 0.828976
742 1 0.928526 0.588807 0.661171
814 1 0.917945 0.581325 0.826521
859 1 0.748237 0.833657 0.908278
731 1 0.408148 0.505924 0.732545
769 1 0.00676419 0.83684 0.670158
747 1 0.0841472 0.657855 0.745698
817 1 0.00711742 0.661179 0.824234
821 1 0.169356 0.655621 0.834013
771 1 0.0973353 0.834098 0.742912
748 1 0.00288074 0.752912 0.751199
818 1 0.0885346 0.743036 0.821196
752 1 0.167792 0.758635 0.74752
756 1 0.335235 0.741887 0.758736
822 1 0.250762 0.742075 0.841746
826 1 0.421017 0.750211 0.835737
758 1 0.591656 0.754261 0.656887
757 1 0.513199 0.676104 0.653624
833 1 0.657242 0.663516 0.836572
760 1 0.510577 0.750904 0.751621
759 1 0.585255 0.673328 0.740237
783 1 0.568295 0.824656 0.735612
830 1 0.581095 0.743043 0.830149
764 1 0.664067 0.758116 0.733159
834 1 0.736898 0.761285 0.822202
766 1 0.925573 0.740788 0.663025
767 1 0.929903 0.670759 0.752379
765 1 0.825878 0.68013 0.673293
768 1 0.847567 0.763391 0.748144
838 1 0.918748 0.75491 0.842182
864 1 0.826398 0.900221 0.927401
770 1 0.0986115 0.922479 0.656888
776 1 0.164316 0.920569 0.750767
773 1 0.179524 0.823723 0.664811
305 1 0.675985 0.992545 0.665186
775 1 0.249297 0.820476 0.757804
845 1 0.165582 0.848589 0.825753
774 1 0.240744 0.911181 0.65597
780 1 0.319221 0.916453 0.748681
856 1 0.499814 0.909755 0.905773
779 1 0.430013 0.831919 0.746306
860 1 0.666231 0.914689 0.906164
853 1 0.50274 0.833739 0.833174
784 1 0.500984 0.919299 0.736702
788 1 0.663459 0.913678 0.744362
831 1 0.584181 0.667279 0.915105
858 1 0.764436 0.919808 0.826074
723 1 0.0880616 0.502124 0.752221
857 1 0.653691 0.835105 0.819347
787 1 0.747455 0.831766 0.747203
792 1 0.835377 0.91305 0.75086
854 1 0.582732 0.917504 0.819513
789 1 0.829679 0.830635 0.668355
790 1 0.905667 0.919879 0.651833
772 1 0.0236371 0.90942 0.746175
861 1 0.830789 0.829743 0.837993
791 1 0.915602 0.845 0.739635
863 1 0.906837 0.835666 0.921482
839 1 0.916023 0.671377 0.918476
832 1 0.512015 0.757215 0.909486
852 1 0.323953 0.905396 0.915444
796 1 0.978558 0.583447 0.913868
836 1 0.660532 0.743157 0.899481
846 1 0.253457 0.913103 0.834865
840 1 0.817096 0.749443 0.914425
798 1 0.246647 0.57421 0.831183
800 1 0.17005 0.581852 0.928346
804 1 0.333837 0.581761 0.906572
808 1 0.492476 0.594764 0.904545
827 1 0.410784 0.670569 0.919038
806 1 0.576991 0.582945 0.833366
855 1 0.582905 0.839064 0.902954
835 1 0.741681 0.668051 0.903166
721 1 0.00774363 0.506252 0.662155
812 1 0.677047 0.584123 0.913925
810 1 0.737133 0.566962 0.818006
850 1 0.409757 0.90521 0.826034
842 1 0.0705874 0.91654 0.840196
454 1 0.915524 0.592737 0.991732
289 1 0.0049348 0.994746 0.654625
816 1 0.823082 0.586688 0.885792
849 1 0.325238 0.821161 0.851046
848 1 0.155627 0.913012 0.919011
819 1 0.0879184 0.658946 0.900173
841 1 0.995251 0.836483 0.818361
843 1 0.0794287 0.831813 0.901129
820 1 0.991477 0.756024 0.917027
824 1 0.158348 0.746983 0.921578
823 1 0.257214 0.669012 0.912604
847 1 0.23606 0.813091 0.925409
851 1 0.412065 0.834643 0.920411
828 1 0.332655 0.752842 0.927138
743 1 0.920515 0.503768 0.728893
297 1 0.339012 0.997171 0.65469
493 1 0.501742 0.843836 0.998405
697 1 0.00298649 0.836085 0.503968
666 1 0.761952 0.56933 0.507566
379 1 0.748024 0.996682 0.914459
497 1 0.655809 0.826566 0.994832
441 1 0.323924 0.509879 0.990328
221 1 0.188204 0.996444 0.507108
809 1 0.657163 0.503479 0.830788
655 1 0.248626 0.502646 0.58864
375 1 0.581631 0.991316 0.920506
223 1 0.267461 0.997093 0.57389
799 1 0.234844 0.5 0.924524
689 1 0.676994 0.661723 0.507323
478 1 0.906086 0.739575 0.986058
710 1 0.567932 0.922986 0.501834
662 1 0.583385 0.575394 0.503786
237 1 0.832126 0.997713 0.503836
458 1 0.0773918 0.752112 0.985255
482 1 0.0789495 0.924816 0.999037
13 1 0.498846 0.988573 0.997852
701 1 0.169206 0.830962 0.510819
481 1 0.00229757 0.838299 0.995092
469 1 0.49696 0.670775 0.994435
445 1 0.502659 0.5078 0.984105
650 1 0.106242 0.576722 0.505814
685 1 0.503212 0.657382 0.507083
501 1 0.833829 0.824247 0.992193
690 1 0.742623 0.751339 0.51097
682 1 0.411453 0.753425 0.500352
