ITEM: TIMESTEP
18000
ITEM: NUMBER OF ATOMS
4000
ITEM: BOX BOUNDS pp pp pp
0.0000000000000000e+00 5.2599999999999994e+01
0.0000000000000000e+00 5.2599999999999994e+01
0.0000000000000000e+00 5.2599999999999994e+01
ITEM: ATOMS id type xs ys zs
202 1 0.0482831 0.0491687 0.0986792
4 1 0.00306611 0.0441792 0.0490672
2 1 0.0460073 0.0504411 0.000338919
8 1 0.0996918 0.0552648 0.0549248
3 1 0.0530309 1.12767e-05 0.0456769
241 1 0.000698813 0.0948056 0.0957648
9 1 0.198798 0.00426521 1.88338e-05
6 1 0.156744 0.0512309 0.00703439
7 1 0.146911 0.00784423 0.05407
5 1 0.103474 0.0053036 0.00174029
12 1 0.203874 0.0453552 0.0495811
49 1 0.211194 0.0979803 0.000271811
16 1 0.303114 0.0502947 0.0442901
20 1 0.391651 0.0601219 0.0543547
15 1 0.350237 0.00961747 0.0480812
214 1 0.34804 0.045106 0.0984817
24 1 0.492379 0.054695 0.0495753
19 1 0.440791 0.0185019 0.0454427
218 1 0.446568 0.0564732 0.0980024
63 1 0.546521 0.0975511 0.0563349
222 1 0.542147 0.0486215 0.0983215
28 1 0.599874 0.0453768 0.050094
23 1 0.550885 0.00245294 0.0503812
22 1 0.549643 0.0452306 0.00326319
32 1 0.699841 0.0521276 0.0381497
226 1 0.644408 0.0538796 0.0971491
269 1 0.699564 0.0981675 0.0907085
26 1 0.64831 0.0510383 0.0044905
229 1 0.690472 0.00904095 0.088465
65 1 0.604998 0.0954672 0.0028781
230 1 0.748459 0.0611082 0.0994061
71 1 0.74911 0.0988361 0.0480308
31 1 0.749903 0.00814311 0.0582672
29 1 0.705512 0.00353053 0.00200309
36 1 0.802496 0.0454292 0.0524275
33 1 0.804884 0.00263111 0.00649358
34 1 0.850415 0.0574973 0.00622846
273 1 0.802586 0.098185 0.0895784
35 1 0.854335 0.00622674 0.0615459
40 1 0.900019 0.0510695 0.050331
238 1 0.950507 0.0518016 0.0964701
237 1 0.90423 0.000101001 0.0967842
38 1 0.954199 0.0492041 0.00189496
43 1 0.0501993 0.10081 0.0559047
44 1 0.00140251 0.153378 0.05727
48 1 0.0929622 0.148423 0.0574981
45 1 0.0939046 0.104303 0.00789023
42 1 0.049221 0.15572 0.00512156
41 1 0.00325083 0.105098 0.00521546
47 1 0.156446 0.101028 0.054143
52 1 0.1947 0.15077 0.0609576
51 1 0.242152 0.100475 0.0564651
56 1 0.294369 0.148363 0.0555846
50 1 0.249059 0.157931 0.00669405
293 1 0.290648 0.19934 0.0995645
53 1 0.298095 0.100882 0.00292016
93 1 0.298439 0.199201 0.00600096
55 1 0.343572 0.104594 0.0538218
60 1 0.39473 0.14471 0.0536103
95 1 0.344087 0.188176 0.0539122
54 1 0.343188 0.14875 0.00131916
57 1 0.39286 0.10095 0.00118788
97 1 0.387168 0.192776 0.00326991
59 1 0.445746 0.103909 0.049543
99 1 0.449246 0.199853 0.0448894
64 1 0.496065 0.156826 0.0581527
68 1 0.59281 0.141853 0.0626563
61 1 0.500885 0.102172 0.00693623
305 1 0.592687 0.197316 0.0968105
67 1 0.649409 0.104154 0.0525541
72 1 0.694948 0.150234 0.0582188
69 1 0.698398 0.110193 0.00343015
66 1 0.643602 0.152944 0.000431087
70 1 0.75124 0.147608 0.00158156
76 1 0.800574 0.146382 0.0506001
75 1 0.856973 0.100257 0.0526858
74 1 0.852642 0.152798 0.00966429
73 1 0.803403 0.103395 0.00804867
79 1 0.952617 0.103664 0.0524136
80 1 0.902536 0.146219 0.0568987
119 1 0.947904 0.197887 0.0619179
78 1 0.957088 0.150121 0.00501171
117 1 0.905368 0.195285 0.00770907
77 1 0.905623 0.100009 0.00759549
83 1 0.0508788 0.201081 0.054555
123 1 0.050329 0.299113 0.0510495
87 1 0.147325 0.204255 0.061937
88 1 0.106131 0.253177 0.0577505
92 1 0.194201 0.254018 0.0556107
89 1 0.189763 0.200776 0.0133461
129 1 0.188645 0.298559 0.00706217
86 1 0.141207 0.247162 0.00530269
91 1 0.238065 0.204941 0.0503512
96 1 0.294813 0.246324 0.0491114
290 1 0.246377 0.265442 0.0942533
100 1 0.394698 0.244564 0.0432315
135 1 0.352806 0.29895 0.0479694
94 1 0.347383 0.249239 0.00273079
294 1 0.341997 0.247598 0.0972444
337 1 0.399551 0.290249 0.0928166
133 1 0.304591 0.298121 0.00551712
139 1 0.452979 0.297785 0.0522567
297 1 0.40055 0.201695 0.0895405
104 1 0.509494 0.250135 0.0429272
103 1 0.549186 0.200822 0.0530481
302 1 0.545663 0.251285 0.0965999
341 1 0.501577 0.298446 0.0989149
102 1 0.555802 0.265738 0.0017584
107 1 0.648619 0.20074 0.0470434
108 1 0.600989 0.249728 0.0511594
306 1 0.658943 0.242499 0.0954243
147 1 0.660527 0.295155 0.0458191
345 1 0.602484 0.292046 0.097217
109 1 0.693927 0.202073 0.00593022
111 1 0.743245 0.202526 0.0511981
112 1 0.702506 0.250156 0.0433417
310 1 0.754312 0.24443 0.0996427
113 1 0.791568 0.207033 0.00822471
349 1 0.712793 0.293357 0.0922468
116 1 0.802533 0.256755 0.0509356
115 1 0.854284 0.202175 0.0511181
120 1 0.892951 0.260228 0.0561463
114 1 0.854981 0.257109 0.00702052
84 1 0.999644 0.248647 0.060355
118 1 0.948535 0.248922 0.00948879
81 1 0.996673 0.204839 0.0157191
128 1 0.0961612 0.34813 0.0491279
121 1 0.00365627 0.316023 0.00450985
127 1 0.146608 0.302309 0.0541002
132 1 0.197248 0.35205 0.0479229
369 1 0.196048 0.395366 0.0954074
169 1 0.19768 0.399666 0.00180661
131 1 0.252109 0.304979 0.0448662
330 1 0.24601 0.345991 0.0966426
171 1 0.242451 0.398753 0.0515972
333 1 0.295516 0.305992 0.0964521
130 1 0.253361 0.350334 0.00194422
136 1 0.300946 0.356369 0.0451631
373 1 0.310259 0.399455 0.0995112
134 1 0.361278 0.351398 0.00169534
140 1 0.413318 0.342921 0.0478125
179 1 0.458636 0.39266 0.0455756
377 1 0.400471 0.39503 0.0946575
338 1 0.460441 0.35381 0.0986143
138 1 0.455534 0.339666 0.000178439
143 1 0.549797 0.303977 0.0530503
144 1 0.504787 0.350284 0.0439758
342 1 0.548269 0.346812 0.0975783
381 1 0.514165 0.398539 0.0934234
148 1 0.601525 0.345523 0.0599416
187 1 0.6509 0.387497 0.0487107
385 1 0.609984 0.395541 0.0995877
152 1 0.713582 0.356752 0.0460294
151 1 0.755918 0.302879 0.0474057
153 1 0.799428 0.303784 0.00298238
155 1 0.852736 0.308605 0.0468267
156 1 0.803928 0.349862 0.0575186
195 1 0.845287 0.397513 0.0537924
160 1 0.899625 0.351502 0.0526115
154 1 0.844458 0.356165 0.00456419
157 1 0.898589 0.300787 0.00171958
193 1 0.805231 0.399924 0.0011046
124 1 0.998939 0.35549 0.0539654
159 1 0.94988 0.309922 0.046377
321 1 0.99763 0.301727 0.0980448
358 1 0.953942 0.354988 0.0961049
197 1 0.901195 0.399997 0.00223289
163 1 0.043726 0.401715 0.0514922
365 1 0.0984956 0.404811 0.0970653
168 1 0.0943967 0.449485 0.0444465
162 1 0.0449232 0.454222 0.00127757
2009 1 0.193951 0.499621 0.00294347
167 1 0.149335 0.401806 0.048449
172 1 0.199086 0.451839 0.0482983
366 1 0.143946 0.451737 0.0891775
2209 1 0.192475 0.497482 0.0950226
2005 1 0.102197 0.497447 0.00329932
176 1 0.299081 0.43778 0.0512451
370 1 0.253792 0.451946 0.0981217
175 1 0.352744 0.4012 0.0531957
2015 1 0.346953 0.495383 0.0515534
174 1 0.351322 0.456798 0.0039685
177 1 0.399803 0.406005 0.00802889
180 1 0.415555 0.447825 0.0533583
184 1 0.495364 0.453477 0.0466453
183 1 0.549791 0.401773 0.0388218
382 1 0.552881 0.45582 0.0799134
182 1 0.538918 0.460977 0.000129757
188 1 0.607682 0.445721 0.0443982
2225 1 0.602653 0.495688 0.0980136
386 1 0.656588 0.441218 0.0929287
2229 1 0.696801 0.495665 0.0923311
191 1 0.759285 0.402604 0.0534549
192 1 0.707028 0.447533 0.0451796
390 1 0.754774 0.448102 0.0986874
389 1 0.707534 0.402569 0.0981925
2031 1 0.753952 0.491362 0.0541607
2237 1 0.891414 0.499675 0.0963667
196 1 0.808743 0.45536 0.0508428
200 1 0.894479 0.446279 0.0554098
394 1 0.850077 0.450575 0.0979246
194 1 0.852963 0.452761 0.00200085
164 1 0.999625 0.456972 0.0594199
199 1 0.948809 0.404477 0.0583912
198 1 0.948881 0.448935 0.0134864
205 1 0.0975466 0.00865309 0.102815
243 1 0.045551 0.0960023 0.147822
208 1 0.09813 0.0506196 0.151045
204 1 0.00752696 0.0458791 0.148781
201 1 0.00716491 0.00102567 0.100819
206 1 0.151439 0.0440829 0.107447
212 1 0.191905 0.0517733 0.158702
210 1 0.254139 0.0520135 0.103139
251 1 0.256786 0.088942 0.16128
209 1 0.203632 0.00299185 0.105599
253 1 0.300534 0.0914471 0.108469
216 1 0.305826 0.0437277 0.15764
255 1 0.346744 0.0961196 0.15343
219 1 0.448022 0.00215686 0.14637
220 1 0.403704 0.0431087 0.157426
224 1 0.494003 0.0493217 0.145075
259 1 0.4465 0.0987812 0.149978
261 1 0.495237 0.0984046 0.104694
457 1 0.401048 0.0969213 0.198846
217 1 0.40088 0.00473729 0.103047
228 1 0.594022 0.046353 0.148681
263 1 0.542407 0.0919926 0.14936
422 1 0.554441 0.0441074 0.197259
265 1 0.589991 0.0946654 0.100937
461 1 0.5036 0.0975723 0.194247
223 1 0.545294 0.00341495 0.146911
267 1 0.654225 0.0992214 0.14061
227 1 0.6397 0.00101623 0.141687
465 1 0.610024 0.0940864 0.185286
426 1 0.649755 0.044313 0.194351
469 1 0.697638 0.0990929 0.196212
231 1 0.748087 0.00659667 0.140045
232 1 0.70592 0.0494715 0.140906
271 1 0.751483 0.0998968 0.155656
234 1 0.856921 0.053052 0.101802
236 1 0.810146 0.0504668 0.148476
434 1 0.851759 0.0378274 0.197831
240 1 0.89805 0.0550684 0.148959
233 1 0.810991 0.0059534 0.105111
239 1 0.951741 0.00957313 0.141415
401 1 0.999261 0.00154787 0.196905
477 1 0.902546 0.099312 0.19731
279 1 0.957239 0.0938678 0.154596
242 1 0.0467025 0.144817 0.106258
248 1 0.0971506 0.150112 0.159475
245 1 0.10207 0.105119 0.108603
246 1 0.146984 0.150934 0.105285
247 1 0.148807 0.104811 0.153304
252 1 0.190766 0.153575 0.15575
249 1 0.206808 0.100372 0.120179
250 1 0.243507 0.153192 0.111618
256 1 0.298842 0.140299 0.155375
450 1 0.247276 0.142455 0.199979
254 1 0.342943 0.146713 0.107067
260 1 0.395919 0.149303 0.148849
295 1 0.348916 0.195002 0.147791
454 1 0.3559 0.145747 0.198528
257 1 0.387708 0.102557 0.102244
258 1 0.44222 0.148029 0.101677
299 1 0.446169 0.195979 0.155159
301 1 0.494894 0.197606 0.106374
264 1 0.494495 0.149949 0.154464
501 1 0.498578 0.198136 0.197288
262 1 0.544046 0.148072 0.107326
303 1 0.550077 0.198439 0.151941
462 1 0.551989 0.146045 0.192185
266 1 0.647518 0.153182 0.102233
268 1 0.60326 0.149655 0.145369
466 1 0.649737 0.143422 0.187624
309 1 0.704244 0.195897 0.104146
270 1 0.755326 0.14931 0.101005
272 1 0.703883 0.144684 0.144613
470 1 0.754341 0.14239 0.199839
311 1 0.757831 0.198795 0.150029
509 1 0.707184 0.188908 0.196439
313 1 0.807994 0.194712 0.101725
274 1 0.854641 0.147051 0.106959
275 1 0.849003 0.101323 0.15143
277 1 0.89608 0.102167 0.104703
276 1 0.807766 0.151724 0.154973
317 1 0.894899 0.199959 0.111143
474 1 0.852925 0.148038 0.197074
278 1 0.947921 0.154011 0.108247
280 1 0.903782 0.148148 0.153594
244 1 0.998208 0.144665 0.151343
285 1 0.0933219 0.204189 0.1078
282 1 0.0521119 0.252104 0.102085
283 1 0.0428309 0.203411 0.157031
288 1 0.0937406 0.256899 0.149808
284 1 0.000454564 0.256406 0.156171
287 1 0.148069 0.205441 0.145986
286 1 0.145949 0.251905 0.10552
292 1 0.195368 0.255714 0.152933
489 1 0.191551 0.207088 0.19919
289 1 0.201798 0.210028 0.106916
291 1 0.251784 0.201404 0.152728
490 1 0.246901 0.250558 0.197695
296 1 0.29979 0.249844 0.143372
300 1 0.399456 0.251865 0.145405
335 1 0.347447 0.288325 0.14498
533 1 0.300919 0.292308 0.195843
298 1 0.447933 0.246216 0.10185
498 1 0.444913 0.251351 0.198522
339 1 0.458551 0.297692 0.14118
304 1 0.500834 0.249191 0.144759
343 1 0.549523 0.288286 0.152058
308 1 0.598056 0.24855 0.162367
545 1 0.599784 0.299558 0.198204
307 1 0.646138 0.201285 0.150486
347 1 0.659119 0.292843 0.137978
506 1 0.658099 0.246823 0.196242
312 1 0.703304 0.243471 0.147354
351 1 0.748051 0.298506 0.144515
510 1 0.757453 0.252414 0.197126
315 1 0.851748 0.201106 0.155855
513 1 0.806686 0.209543 0.196294
316 1 0.804884 0.254478 0.150864
314 1 0.850589 0.250838 0.106481
281 1 0.993536 0.201568 0.108302
318 1 0.9458 0.252077 0.102042
319 1 0.950301 0.202305 0.154566
320 1 0.907978 0.248626 0.158982
323 1 0.0443823 0.307046 0.158955
322 1 0.0442015 0.361176 0.101964
325 1 0.0906043 0.303956 0.106822
328 1 0.0970301 0.356279 0.144122
522 1 0.0354817 0.358866 0.199836
329 1 0.191325 0.300595 0.102378
326 1 0.148195 0.359327 0.100819
327 1 0.147052 0.306902 0.152369
526 1 0.144348 0.35986 0.196172
332 1 0.198524 0.352394 0.146581
331 1 0.244252 0.305289 0.14053
530 1 0.253542 0.350389 0.198616
371 1 0.256745 0.397042 0.146929
336 1 0.299128 0.345039 0.15151
573 1 0.297969 0.394021 0.19813
569 1 0.205748 0.397635 0.197544
334 1 0.348917 0.348194 0.10458
537 1 0.395081 0.303873 0.188932
534 1 0.345064 0.340186 0.197027
340 1 0.408384 0.346619 0.138688
577 1 0.402612 0.392719 0.195649
538 1 0.457534 0.353105 0.191184
344 1 0.501243 0.354325 0.140582
581 1 0.505047 0.396731 0.197345
383 1 0.557047 0.395181 0.145365
541 1 0.502194 0.301425 0.198998
542 1 0.550405 0.349671 0.182417
348 1 0.601764 0.339836 0.14407
346 1 0.653844 0.343942 0.10304
387 1 0.652212 0.39533 0.146832
350 1 0.751353 0.350257 0.108748
353 1 0.799495 0.302638 0.105715
352 1 0.702041 0.343273 0.148443
356 1 0.799521 0.354647 0.152858
589 1 0.705346 0.398156 0.192172
550 1 0.754357 0.351562 0.197265
354 1 0.85151 0.343619 0.10274
355 1 0.850193 0.300597 0.152491
360 1 0.896611 0.35703 0.151323
357 1 0.905358 0.305412 0.103454
324 1 0.992454 0.353375 0.146208
359 1 0.948586 0.307618 0.148667
558 1 0.948486 0.354988 0.198248
397 1 0.904944 0.391484 0.100867
399 1 0.949661 0.399227 0.155143
557 1 0.904355 0.309447 0.197852
521 1 0.99139 0.309957 0.199205
363 1 0.044699 0.406557 0.150731
362 1 0.0455578 0.447169 0.104401
562 1 0.0453864 0.449829 0.196309
368 1 0.106474 0.451254 0.141332
367 1 0.152336 0.406317 0.148078
372 1 0.197505 0.44977 0.139789
566 1 0.147459 0.452665 0.197803
376 1 0.294931 0.453207 0.145198
374 1 0.351629 0.453078 0.103153
375 1 0.345858 0.40055 0.148736
380 1 0.399502 0.448407 0.15042
574 1 0.349633 0.44934 0.19692
2413 1 0.300683 0.498262 0.198652
2219 1 0.455528 0.497 0.150849
379 1 0.452426 0.402422 0.144928
2417 1 0.408685 0.493543 0.190959
378 1 0.453515 0.450496 0.100908
578 1 0.455003 0.43956 0.196818
2421 1 0.506321 0.492754 0.190819
384 1 0.505447 0.444744 0.142565
582 1 0.549216 0.452764 0.191684
2227 1 0.644591 0.491949 0.144596
388 1 0.600071 0.451293 0.145003
586 1 0.65109 0.448964 0.19374
585 1 0.605344 0.403901 0.196155
391 1 0.751641 0.404343 0.143994
2429 1 0.703698 0.493767 0.198738
392 1 0.709704 0.451001 0.143684
590 1 0.75677 0.449956 0.193899
2235 1 0.859648 0.492555 0.154795
393 1 0.805269 0.404407 0.103833
395 1 0.849693 0.40833 0.150662
396 1 0.808677 0.453613 0.146006
398 1 0.942694 0.452161 0.106384
361 1 0.996311 0.405684 0.101901
364 1 0.994675 0.450523 0.152392
400 1 0.902327 0.448549 0.15935
561 1 0.999688 0.408702 0.199219
441 1 0.00208411 0.0909564 0.208977
402 1 0.0480766 0.0513719 0.209632
443 1 0.0416219 0.098554 0.26356
408 1 0.0940673 0.0533748 0.254532
406 1 0.147336 0.0486443 0.205313
412 1 0.197557 0.0336787 0.257987
453 1 0.291012 0.0911964 0.212531
410 1 0.250802 0.0412611 0.208581
416 1 0.292645 0.0532653 0.263633
451 1 0.243244 0.097657 0.252178
417 1 0.397501 0.00195456 0.204905
414 1 0.351747 0.053207 0.204594
614 1 0.346065 0.0409945 0.297359
420 1 0.398452 0.0542447 0.250662
418 1 0.447171 0.047926 0.202335
424 1 0.499724 0.0555854 0.252458
459 1 0.449142 0.0963187 0.247456
419 1 0.448387 0.00989815 0.250047
621 1 0.492536 0.00462854 0.297789
423 1 0.553219 0.00457451 0.255464
622 1 0.551654 0.0617159 0.294595
428 1 0.614008 0.0651934 0.249495
626 1 0.651571 0.0442226 0.297544
432 1 0.689335 0.0394337 0.246503
431 1 0.7433 0.00297952 0.247069
430 1 0.7453 0.0483551 0.202681
471 1 0.73837 0.0882664 0.249367
436 1 0.799356 0.0446724 0.24313
435 1 0.851328 0.00341045 0.255107
473 1 0.802751 0.0980316 0.204477
475 1 0.847539 0.0934477 0.248725
404 1 0.992959 0.0482461 0.258098
440 1 0.901383 0.0530787 0.243638
438 1 0.948972 0.0531077 0.202275
479 1 0.951288 0.0952763 0.256465
601 1 0.99801 0.00216231 0.299998
442 1 0.0428771 0.145892 0.207311
448 1 0.0966668 0.151493 0.251184
685 1 0.0995005 0.197339 0.297461
445 1 0.0886442 0.101941 0.200541
444 1 0.00171255 0.142339 0.252538
446 1 0.143787 0.16093 0.203067
447 1 0.14504 0.108754 0.246277
452 1 0.198475 0.157225 0.248797
645 1 0.105546 0.107787 0.299862
449 1 0.191928 0.101726 0.202872
646 1 0.152656 0.153894 0.297869
649 1 0.196596 0.100913 0.299506
491 1 0.25014 0.194575 0.255099
456 1 0.297982 0.147154 0.245
493 1 0.29868 0.19451 0.200833
455 1 0.35012 0.107428 0.250147
495 1 0.350059 0.186934 0.244749
458 1 0.450136 0.14603 0.202702
460 1 0.403323 0.149617 0.248791
499 1 0.448237 0.199889 0.253112
658 1 0.4527 0.147471 0.296254
697 1 0.400789 0.198571 0.298942
505 1 0.596495 0.189795 0.204429
463 1 0.552602 0.101148 0.235315
661 1 0.50143 0.101823 0.297587
464 1 0.502903 0.148547 0.254974
662 1 0.555457 0.153068 0.293305
503 1 0.552171 0.19784 0.252251
467 1 0.661372 0.101185 0.245495
468 1 0.606225 0.139713 0.240941
666 1 0.647194 0.153054 0.294377
705 1 0.603843 0.199659 0.292061
472 1 0.70714 0.143135 0.253578
670 1 0.752441 0.1518 0.296125
673 1 0.797473 0.10094 0.29605
476 1 0.806166 0.147772 0.249302
515 1 0.849622 0.197581 0.242
480 1 0.895227 0.144853 0.249949
713 1 0.801217 0.196151 0.294126
481 1 0.996916 0.196204 0.209337
478 1 0.950396 0.141932 0.205337
519 1 0.949321 0.186666 0.257337
517 1 0.904911 0.194392 0.201518
717 1 0.902372 0.198897 0.296347
485 1 0.095137 0.202516 0.200485
482 1 0.0518437 0.249432 0.20437
483 1 0.0536291 0.209676 0.252101
488 1 0.0957867 0.257375 0.248815
484 1 0.00583094 0.249467 0.257123
529 1 0.197304 0.295448 0.200765
487 1 0.143439 0.202782 0.254281
486 1 0.143747 0.255173 0.210877
492 1 0.196587 0.24882 0.25033
689 1 0.197554 0.203848 0.297518
693 1 0.29356 0.202351 0.298086
496 1 0.298696 0.24359 0.250674
494 1 0.352598 0.252319 0.200274
694 1 0.347888 0.239947 0.292499
500 1 0.399296 0.24721 0.250243
733 1 0.300236 0.293654 0.297102
737 1 0.397925 0.295756 0.296418
497 1 0.400786 0.204005 0.201781
701 1 0.497263 0.200852 0.294505
504 1 0.49808 0.248677 0.248233
698 1 0.455271 0.250886 0.296909
502 1 0.552148 0.24345 0.200549
543 1 0.549862 0.290227 0.245106
508 1 0.60663 0.254272 0.24887
507 1 0.659755 0.200043 0.245002
706 1 0.658289 0.243559 0.298512
511 1 0.752562 0.202589 0.242677
512 1 0.704114 0.255119 0.258003
710 1 0.754045 0.243555 0.295919
514 1 0.864572 0.244662 0.203795
516 1 0.806122 0.254858 0.248912
714 1 0.842509 0.250734 0.297132
520 1 0.897491 0.254149 0.25746
518 1 0.944741 0.241846 0.211361
559 1 0.949798 0.297083 0.258838
523 1 0.0460482 0.308247 0.251251
525 1 0.0907002 0.311959 0.202697
563 1 0.0453693 0.39317 0.255637
527 1 0.151135 0.306771 0.256187
528 1 0.107558 0.353507 0.253117
765 1 0.10291 0.398975 0.299922
532 1 0.200208 0.355061 0.239932
531 1 0.245715 0.301334 0.248832
536 1 0.293869 0.349865 0.247872
730 1 0.254387 0.347421 0.298062
535 1 0.348307 0.304595 0.25028
575 1 0.347673 0.394789 0.239796
773 1 0.301196 0.395649 0.299161
734 1 0.347898 0.351099 0.289686
777 1 0.396748 0.391332 0.29657
539 1 0.455317 0.300256 0.245141
540 1 0.401314 0.345293 0.243451
738 1 0.453333 0.343013 0.298765
579 1 0.446035 0.386841 0.249365
781 1 0.497842 0.397088 0.297852
544 1 0.50191 0.346083 0.246505
742 1 0.547937 0.353234 0.289149
583 1 0.555234 0.397455 0.244107
546 1 0.6549 0.358145 0.201833
547 1 0.653581 0.300363 0.24422
548 1 0.608472 0.351598 0.245025
746 1 0.645412 0.35242 0.299358
745 1 0.605712 0.303426 0.294096
552 1 0.697276 0.35154 0.253327
785 1 0.605251 0.399963 0.291496
549 1 0.70224 0.30346 0.202882
551 1 0.738204 0.304553 0.256227
556 1 0.795462 0.352733 0.246224
591 1 0.746722 0.399606 0.254545
593 1 0.803228 0.397285 0.201517
554 1 0.85069 0.350592 0.201486
553 1 0.804125 0.300339 0.203213
555 1 0.852401 0.313057 0.25077
595 1 0.857212 0.394698 0.249434
560 1 0.906909 0.337577 0.258259
524 1 0.994659 0.345066 0.255482
599 1 0.950761 0.398374 0.247622
597 1 0.903037 0.399865 0.204848
797 1 0.903787 0.398152 0.298958
761 1 0.996993 0.395101 0.297459
2403 1 0.0395708 0.494004 0.251754
565 1 0.095335 0.400681 0.207937
762 1 0.0429957 0.439592 0.299439
568 1 0.0957699 0.452431 0.250074
2609 1 0.195691 0.48891 0.297789
2407 1 0.151831 0.495576 0.241821
567 1 0.150296 0.402657 0.247137
570 1 0.248447 0.443412 0.200595
571 1 0.256382 0.400226 0.257223
572 1 0.202056 0.447124 0.244214
576 1 0.297677 0.44909 0.246596
2411 1 0.255278 0.494046 0.247808
2415 1 0.350652 0.494276 0.243411
774 1 0.352443 0.443546 0.2922
2419 1 0.447241 0.494686 0.238457
580 1 0.408174 0.438372 0.251137
2617 1 0.404373 0.494959 0.298815
2423 1 0.549016 0.492931 0.249855
584 1 0.50143 0.451407 0.249873
2427 1 0.655682 0.492632 0.243582
588 1 0.600428 0.455595 0.246381
587 1 0.650119 0.407371 0.249843
786 1 0.646125 0.454739 0.297115
789 1 0.697153 0.408883 0.299001
592 1 0.703726 0.449603 0.251627
596 1 0.790581 0.451994 0.258483
594 1 0.858416 0.447993 0.209823
2435 1 0.847055 0.497663 0.250285
600 1 0.912141 0.452069 0.249475
564 1 0.994678 0.449851 0.257707
598 1 0.952526 0.459663 0.200224
605 1 0.0945808 0.00482037 0.300263
603 1 0.0429441 0.00238562 0.364142
602 1 0.04537 0.0444454 0.303321
608 1 0.0990978 0.049694 0.34572
643 1 0.0474118 0.0929425 0.348568
606 1 0.152969 0.050106 0.310402
647 1 0.149822 0.098889 0.354577
612 1 0.194592 0.0435202 0.352144
610 1 0.240761 0.0471415 0.305798
651 1 0.2484 0.0949722 0.355615
657 1 0.399525 0.0953295 0.300244
616 1 0.313482 0.054323 0.355687
620 1 0.398761 0.0585309 0.348258
615 1 0.355925 0.00384845 0.350454
619 1 0.448692 0.00737155 0.35032
617 1 0.403401 0.0115796 0.305268
618 1 0.450933 0.0550449 0.306193
624 1 0.496469 0.0560932 0.350108
821 1 0.492957 0.00326889 0.397368
825 1 0.591609 0.00124131 0.393117
628 1 0.590635 0.0455365 0.342941
822 1 0.550559 0.0580202 0.391972
623 1 0.539792 0.00860832 0.346938
632 1 0.68816 0.0440187 0.354728
826 1 0.636581 0.0508032 0.392342
630 1 0.747054 0.0369736 0.301423
669 1 0.700169 0.0953259 0.306315
671 1 0.751207 0.0924431 0.342411
830 1 0.748072 0.0510943 0.397845
636 1 0.797454 0.0477041 0.357069
635 1 0.853607 0.00151324 0.351958
634 1 0.848705 0.0499421 0.305418
640 1 0.893264 0.0515612 0.35431
675 1 0.849474 0.0981859 0.352358
637 1 0.896505 0.00329179 0.302702
633 1 0.801982 0.00596133 0.301182
837 1 0.901319 0.0082259 0.3991
604 1 0.997987 0.049905 0.351349
641 1 0.9949 0.0939249 0.305943
638 1 0.951429 0.0469491 0.305345
679 1 0.937706 0.0936857 0.35567
642 1 0.0516963 0.147762 0.305209
644 1 0.000627121 0.147991 0.342209
841 1 0.00189258 0.112378 0.396438
648 1 0.101118 0.14957 0.349051
687 1 0.152074 0.193944 0.355526
885 1 0.101225 0.196655 0.398856
652 1 0.203861 0.15141 0.361646
650 1 0.250277 0.151139 0.304972
656 1 0.290181 0.145896 0.349206
691 1 0.246473 0.196548 0.355733
654 1 0.360169 0.143501 0.304207
653 1 0.311637 0.102647 0.308048
655 1 0.353651 0.109656 0.366364
695 1 0.347714 0.194927 0.338318
660 1 0.40097 0.148603 0.352896
659 1 0.452638 0.106104 0.347702
858 1 0.448224 0.150957 0.39614
865 1 0.593392 0.101784 0.391454
664 1 0.5002 0.15143 0.333506
663 1 0.541192 0.100473 0.343533
862 1 0.549623 0.153885 0.384417
668 1 0.597501 0.154305 0.342474
665 1 0.605748 0.102948 0.303317
667 1 0.647643 0.100207 0.349878
869 1 0.697262 0.102828 0.393561
866 1 0.651648 0.147572 0.392906
672 1 0.695937 0.151431 0.344025
707 1 0.650195 0.193784 0.349679
709 1 0.704973 0.198533 0.303761
909 1 0.70302 0.194621 0.392486
711 1 0.749727 0.19486 0.347547
676 1 0.798496 0.145137 0.347087
913 1 0.797569 0.198771 0.39917
677 1 0.894901 0.106316 0.300738
674 1 0.845595 0.150301 0.306549
680 1 0.897828 0.151365 0.34943
715 1 0.853625 0.198238 0.349604
874 1 0.851594 0.150136 0.394775
873 1 0.809129 0.100098 0.397633
681 1 0.997827 0.19891 0.300563
678 1 0.945351 0.141272 0.304027
719 1 0.946107 0.19783 0.346729
878 1 0.949042 0.148431 0.393062
881 1 0.995753 0.192293 0.395298
683 1 0.0425691 0.203677 0.344237
682 1 0.058095 0.250727 0.305583
684 1 0.000128446 0.251011 0.359906
723 1 0.0461861 0.298538 0.347355
925 1 0.0949127 0.296658 0.394317
686 1 0.147953 0.251236 0.302345
688 1 0.101955 0.245501 0.350721
692 1 0.199454 0.248537 0.349047
886 1 0.154672 0.25431 0.390176
690 1 0.249629 0.248858 0.306112
890 1 0.25129 0.251253 0.395886
696 1 0.296665 0.247856 0.345411
933 1 0.30336 0.294416 0.399782
700 1 0.399836 0.248701 0.344587
894 1 0.353092 0.245176 0.395524
735 1 0.342956 0.286081 0.342168
893 1 0.301882 0.203799 0.394667
897 1 0.40348 0.206694 0.397662
699 1 0.450492 0.205429 0.344817
898 1 0.449782 0.252965 0.399958
739 1 0.455611 0.292279 0.350946
741 1 0.501025 0.292957 0.306269
703 1 0.55361 0.201963 0.346522
704 1 0.502031 0.243059 0.345156
702 1 0.554765 0.248718 0.300503
902 1 0.545807 0.246707 0.399963
708 1 0.598355 0.248623 0.343475
743 1 0.550788 0.290129 0.352158
906 1 0.645683 0.252879 0.395933
949 1 0.698974 0.299619 0.393117
712 1 0.705118 0.242859 0.350486
716 1 0.799633 0.244577 0.34618
751 1 0.75134 0.289784 0.349128
914 1 0.848671 0.245782 0.394437
720 1 0.898188 0.247488 0.359118
757 1 0.896346 0.298607 0.308125
953 1 0.801769 0.290387 0.399852
718 1 0.947586 0.25064 0.308511
759 1 0.942191 0.298213 0.35711
722 1 0.0522949 0.348944 0.302268
724 1 0.00263501 0.348896 0.344751
763 1 0.0471575 0.393826 0.357407
725 1 0.102503 0.304948 0.302016
728 1 0.102103 0.348315 0.356442
726 1 0.153095 0.354756 0.305807
727 1 0.147967 0.301466 0.348415
767 1 0.148421 0.397299 0.364703
729 1 0.204859 0.305833 0.303281
929 1 0.210118 0.30168 0.398586
732 1 0.2035 0.358786 0.341171
731 1 0.252993 0.308669 0.349263
771 1 0.255694 0.398513 0.343419
969 1 0.203039 0.399767 0.399051
930 1 0.253643 0.356852 0.38817
736 1 0.305674 0.34784 0.342112
740 1 0.39575 0.352111 0.344904
775 1 0.351782 0.394572 0.34555
934 1 0.351453 0.344011 0.399683
977 1 0.404282 0.393779 0.393282
779 1 0.448421 0.384007 0.346775
937 1 0.401445 0.303145 0.392344
744 1 0.501199 0.349484 0.338506
748 1 0.598757 0.356839 0.352491
783 1 0.542508 0.398788 0.345499
747 1 0.637322 0.303181 0.35593
749 1 0.690578 0.302151 0.307167
946 1 0.649196 0.349949 0.39605
752 1 0.698739 0.350149 0.351901
989 1 0.707832 0.39945 0.392269
750 1 0.746819 0.352125 0.307351
950 1 0.755965 0.352322 0.391737
753 1 0.807555 0.302062 0.303963
756 1 0.801074 0.36078 0.349209
755 1 0.857871 0.304716 0.356709
754 1 0.850642 0.349379 0.307825
760 1 0.898122 0.356339 0.351809
793 1 0.804458 0.396887 0.301191
721 1 0.995869 0.303012 0.305654
758 1 0.94696 0.346671 0.311002
958 1 0.950996 0.357221 0.394893
921 1 0.992484 0.302552 0.394114
962 1 0.0474929 0.447517 0.398715
764 1 0.00399826 0.460667 0.352558
768 1 0.0921094 0.446543 0.350371
2607 1 0.15423 0.498979 0.343713
766 1 0.147265 0.446241 0.305171
966 1 0.143884 0.454858 0.392441
770 1 0.252894 0.448834 0.301565
2611 1 0.24628 0.498121 0.342484
2813 1 0.298988 0.495582 0.39842
769 1 0.206316 0.406846 0.301897
772 1 0.201666 0.45305 0.352101
970 1 0.255202 0.450702 0.390878
973 1 0.30375 0.401594 0.38972
2615 1 0.351089 0.494422 0.351342
974 1 0.344559 0.449414 0.398082
776 1 0.307944 0.448119 0.344903
2621 1 0.497133 0.498468 0.300808
2619 1 0.447649 0.49269 0.341863
978 1 0.443386 0.447429 0.3937
780 1 0.403299 0.434408 0.346377
778 1 0.451152 0.44206 0.303904
784 1 0.498231 0.444297 0.347837
2623 1 0.54702 0.498168 0.355197
782 1 0.555912 0.445483 0.301571
981 1 0.500389 0.405451 0.396472
982 1 0.558669 0.444988 0.399723
788 1 0.59994 0.444373 0.348229
2825 1 0.597052 0.49898 0.397295
986 1 0.652004 0.447168 0.398641
787 1 0.650532 0.403348 0.344933
2829 1 0.708397 0.496965 0.398117
792 1 0.702172 0.451468 0.351195
790 1 0.743238 0.457587 0.3025
791 1 0.747724 0.400954 0.338885
990 1 0.751548 0.44818 0.391612
796 1 0.796257 0.44832 0.343412
2637 1 0.894985 0.494977 0.301438
994 1 0.855243 0.460643 0.392037
2635 1 0.841886 0.495264 0.335705
795 1 0.850757 0.400849 0.356331
794 1 0.848669 0.441313 0.30321
997 1 0.900882 0.400486 0.395747
798 1 0.951891 0.456014 0.303983
799 1 0.952821 0.403173 0.346544
800 1 0.908091 0.447844 0.345652
998 1 0.952531 0.457189 0.392892
961 1 0.996522 0.40373 0.395444
801 1 0.000988039 0.00722131 0.40802
802 1 0.0547374 0.0595275 0.409123
808 1 0.099514 0.057806 0.463448
804 1 0.00255367 0.0485836 0.453847
1005 1 0.0990875 0.00065259 0.498002
805 1 0.100416 0.000666878 0.402364
807 1 0.150815 0.00382834 0.452142
806 1 0.151383 0.0500171 0.410668
847 1 0.15502 0.0949943 0.455354
810 1 0.251721 0.0436846 0.400989
853 1 0.293802 0.0960544 0.401002
849 1 0.208822 0.0988902 0.404297
812 1 0.208565 0.0517282 0.460767
816 1 0.299525 0.0512686 0.452423
811 1 0.249693 0.0049289 0.46221
814 1 0.358586 0.0548633 0.403031
855 1 0.342859 0.0999521 0.450821
1014 1 0.353303 0.0507139 0.498211
817 1 0.404826 0.000867321 0.401964
819 1 0.456589 0.00114813 0.449009
820 1 0.402924 0.0560252 0.453484
818 1 0.453494 0.0516885 0.40542
823 1 0.545093 0.00280809 0.443279
824 1 0.505333 0.0570893 0.445387
828 1 0.596834 0.043947 0.450885
1065 1 0.604554 0.0922642 0.495517
829 1 0.695602 0.00565219 0.409357
831 1 0.750751 0.00226754 0.445337
832 1 0.701271 0.0545604 0.446097
835 1 0.85508 0.00661754 0.447487
836 1 0.801542 0.0440669 0.446918
834 1 0.847897 0.0503583 0.402766
1073 1 0.803313 0.0988551 0.499904
839 1 0.947159 0.00434346 0.445461
838 1 0.949632 0.0530892 0.403252
840 1 0.902296 0.0505695 0.457386
842 1 0.0512442 0.151466 0.405756
843 1 0.0499238 0.104747 0.454872
883 1 0.0564247 0.197061 0.458325
844 1 0.00281083 0.153319 0.451041
1081 1 0.000988055 0.198791 0.4999
845 1 0.108678 0.104328 0.402432
846 1 0.157377 0.151264 0.410217
848 1 0.100627 0.152655 0.44922
1046 1 0.153281 0.154929 0.497362
852 1 0.203254 0.145423 0.452832
850 1 0.25698 0.148795 0.409633
851 1 0.257727 0.100091 0.454309
1050 1 0.254763 0.154339 0.492417
1097 1 0.398712 0.195092 0.498969
854 1 0.350963 0.157369 0.401595
856 1 0.307098 0.152012 0.452241
857 1 0.400627 0.102042 0.404553
861 1 0.497898 0.107136 0.40153
859 1 0.457621 0.111509 0.455673
860 1 0.401612 0.148145 0.445376
1057 1 0.402592 0.107586 0.494982
1061 1 0.506768 0.100633 0.495603
1101 1 0.51275 0.19699 0.499786
1062 1 0.556565 0.151255 0.494148
905 1 0.59517 0.198015 0.401039
863 1 0.552159 0.102557 0.446821
864 1 0.506369 0.15349 0.447439
867 1 0.648145 0.103108 0.448872
868 1 0.600885 0.147249 0.444353
872 1 0.696379 0.148425 0.44244
1069 1 0.698354 0.105859 0.496039
1070 1 0.755148 0.146499 0.49988
870 1 0.750475 0.149439 0.401879
871 1 0.756753 0.104035 0.449775
877 1 0.898501 0.102844 0.409231
876 1 0.80663 0.150523 0.449535
875 1 0.852022 0.101781 0.458757
880 1 0.894167 0.152235 0.455039
1074 1 0.838044 0.157948 0.49897
879 1 0.958602 0.106384 0.446197