ITEM: TIMESTEP
9000
ITEM: NUMBER OF ATOMS
6912
ITEM: BOX BOUNDS pp pp pp
0.0000000000000000e+00 6.3119999999999997e+01
0.0000000000000000e+00 6.3119999999999997e+01
0.0000000000000000e+00 6.3119999999999997e+01
ITEM: ATOMS id type xs ys zs
290 1 0.0379597 0.0468952 0.0830142
8 1 0.0760453 0.0421567 0.0330518
3 1 0.0390084 0.00242311 0.0458843
2 1 0.0283065 0.0400371 0.00343409
55 1 0.121929 0.0773578 0.037249
6 1 0.122857 0.0358749 0.000491806
341 1 0.0850385 0.0746922 0.0784961
7 1 0.121482 0.0039564 0.0439796
12 1 0.174002 0.047645 0.0430762
11 1 0.211162 0.00195298 0.0382189
297 1 0.171632 0.0013453 0.0781531
15 1 0.292982 0.000331098 0.032329
16 1 0.254523 0.045065 0.0335341
20 1 0.332092 0.0488692 0.0316512
302 1 0.288678 0.0391566 0.0799249
353 1 0.327556 0.0785678 0.0797481
305 1 0.332578 0.00434833 0.0800368
306 1 0.366811 0.0428288 0.082463
19 1 0.36774 6.89136e-05 0.0420438
24 1 0.41851 0.0402847 0.0445908
71 1 0.45541 0.0808643 0.0365343
23 1 0.462616 0.00207213 0.0460171
28 1 0.501803 0.0436986 0.0373334
32 1 0.579928 0.0360365 0.0438185
26 1 0.541325 0.0401129 0.000642268
27 1 0.533634 0.00213311 0.0444708
79 1 0.632269 0.0813008 0.0410886
31 1 0.620953 0.000463762 0.0483533
318 1 0.628053 0.0426061 0.0819577
33 1 0.666427 0.00627937 0.00451263
30 1 0.623786 0.0398409 0.00113315
77 1 0.591031 0.0829611 0.00351371
37 1 0.747353 0.00153047 0.00105948
36 1 0.67128 0.0404902 0.0455708
40 1 0.738289 0.0423605 0.03956
39 1 0.798313 0.00175253 0.0399416
44 1 0.833144 0.0416848 0.0338176
87 1 0.786296 0.0814805 0.0461138
38 1 0.784474 0.0464926 0.00261026
377 1 0.835525 0.0796908 0.0797264
91 1 0.874217 0.0784054 0.0403341
43 1 0.878051 0.00682301 0.0426735
4 1 0.993836 0.0354811 0.0424481
48 1 0.920353 0.0362334 0.0499083
95 1 0.962636 0.0817325 0.0435316
93 1 0.922584 0.0796708 0.0068317
46 1 0.960082 0.0300178 0.000584178
51 1 0.0333407 0.0850274 0.0343817
56 1 0.0802205 0.131249 0.0455384
338 1 0.0387617 0.120984 0.0790323
342 1 0.119053 0.126787 0.0782271
60 1 0.164382 0.119554 0.0394082
393 1 0.164749 0.165372 0.0750978
105 1 0.162807 0.157815 9.9062e-05
54 1 0.11335 0.131154 0.00471378
59 1 0.211643 0.0857814 0.0463495
64 1 0.248659 0.126404 0.0463857
107 1 0.207703 0.164125 0.0319692
58 1 0.202448 0.119478 0.00185636
63 1 0.286443 0.0838573 0.0388123
111 1 0.28877 0.163735 0.0437132
68 1 0.331326 0.12847 0.040079
350 1 0.290479 0.119626 0.0800717
113 1 0.330779 0.163169 0.00116326
67 1 0.374441 0.0852584 0.0461556
115 1 0.375846 0.161975 0.0497114
66 1 0.376489 0.121737 0.000417039
72 1 0.422911 0.11968 0.0391731
70 1 0.460764 0.123126 0.00320918
75 1 0.544755 0.0839491 0.0365725
76 1 0.50059 0.11624 0.0398285
362 1 0.547022 0.127539 0.0768581
80 1 0.577827 0.128834 0.0284077
84 1 0.663386 0.124391 0.0425968
365 1 0.588349 0.0868936 0.0747908
366 1 0.618213 0.133078 0.0722419
78 1 0.625726 0.12693 0.000603151
83 1 0.701937 0.0913128 0.0276373
131 1 0.708212 0.165968 0.0410819
88 1 0.749197 0.12488 0.041402
370 1 0.711963 0.127599 0.0832915
373 1 0.746085 0.0848302 0.0791067
82 1 0.711369 0.13344 0.000244539
374 1 0.79805 0.117668 0.0813121
92 1 0.834514 0.129834 0.0389268
139 1 0.871507 0.165111 0.0388871
378 1 0.874523 0.122905 0.0822187
96 1 0.915519 0.127879 0.0453094
381 1 0.914347 0.0838112 0.0795086
141 1 0.914115 0.164795 0.00344748
52 1 0.996232 0.124215 0.038981
337 1 0.999901 0.0842392 0.0826096
382 1 0.957966 0.128777 0.0820249
94 1 0.949067 0.125625 0.00403875
385 1 0.00360133 0.167523 0.0801188
99 1 0.0445906 0.170487 0.0463197
104 1 0.0818522 0.207689 0.0428162
101 1 0.0799713 0.169968 0.000552021
145 1 0.00467677 0.247992 0.00373386
98 1 0.0412155 0.206633 0.0064585
103 1 0.121528 0.169022 0.0420088
390 1 0.126629 0.213163 0.0793477
102 1 0.127864 0.202904 0.00188245
108 1 0.167265 0.212628 0.0473044
155 1 0.210332 0.246415 0.0313009
112 1 0.2453 0.202186 0.0462093
398 1 0.293386 0.214628 0.0739265
110 1 0.299544 0.204986 0.0141941
114 1 0.377909 0.201386 0.00457926
116 1 0.34002 0.204892 0.0470892
402 1 0.38094 0.207086 0.0819053
163 1 0.379475 0.245538 0.0414537
120 1 0.416385 0.209816 0.0382583
161 1 0.339144 0.244864 0.000664116
119 1 0.454624 0.168546 0.0514424
167 1 0.456034 0.248309 0.0408357
124 1 0.492289 0.205725 0.0467859
121 1 0.487587 0.167653 0.006199
123 1 0.531077 0.167893 0.0355862
410 1 0.540295 0.20571 0.0797803
128 1 0.582328 0.207454 0.0406101
171 1 0.540247 0.243812 0.039089
413 1 0.583051 0.170579 0.0799169
127 1 0.624682 0.171422 0.032335
175 1 0.626846 0.243737 0.0398679
414 1 0.624821 0.203272 0.0739258
132 1 0.667117 0.209275 0.036219
417 1 0.667038 0.170855 0.0792762
179 1 0.711298 0.246569 0.0383806
418 1 0.719069 0.212581 0.0800638
135 1 0.797716 0.172867 0.0383025
421 1 0.760135 0.171865 0.0789838
136 1 0.760116 0.211162 0.0407683
134 1 0.798605 0.213692 0.00354324
422 1 0.797917 0.210568 0.0806843
133 1 0.755215 0.172569 0.00416628
140 1 0.839634 0.211341 0.0389032
144 1 0.914809 0.204404 0.0421242
100 1 0.998835 0.205273 0.0447
429 1 0.919952 0.167128 0.0822381
143 1 0.959253 0.172113 0.0365158
430 1 0.958451 0.209061 0.0818994
477 1 0.919584 0.249902 0.0695093
147 1 0.0446122 0.251586 0.0421221
148 1 0.0107426 0.292916 0.0413564
434 1 0.0434689 0.296763 0.080721
146 1 0.0464172 0.294502 0.00161739
151 1 0.127737 0.256876 0.0371479
152 1 0.0853632 0.297255 0.0363472
438 1 0.123074 0.292984 0.0805226
437 1 0.0849352 0.252945 0.0776623
201 1 0.165729 0.332012 0.00303442
156 1 0.169631 0.291935 0.0400516
160 1 0.247732 0.293391 0.044815
159 1 0.282712 0.257867 0.0387283
164 1 0.331382 0.287302 0.0357007
207 1 0.28994 0.322515 0.0368358
211 1 0.369489 0.33158 0.046162
168 1 0.41276 0.293933 0.0390693
450 1 0.373454 0.287862 0.0783627
172 1 0.492606 0.287377 0.0420434
501 1 0.417205 0.330916 0.0727725
166 1 0.45173 0.289903 0.00251145
217 1 0.494701 0.326487 0.00312536
176 1 0.579023 0.290505 0.0294891
509 1 0.578905 0.32696 0.0767087
219 1 0.540643 0.330659 0.0348711
458 1 0.535198 0.286247 0.074575
461 1 0.583495 0.250463 0.0746196
462 1 0.624525 0.293446 0.0688711
174 1 0.627321 0.287247 0.00635686
180 1 0.669692 0.293958 0.0433119
466 1 0.709819 0.286317 0.0805481
227 1 0.713123 0.328015 0.0513866
177 1 0.670128 0.252742 0.000158943
178 1 0.715151 0.291978 0.00404707
469 1 0.755718 0.256691 0.0826878
183 1 0.794099 0.254882 0.0350023
184 1 0.754011 0.29172 0.0473955
470 1 0.800825 0.299276 0.0736367
229 1 0.754753 0.331259 0.00157459
187 1 0.874374 0.254831 0.0352127
188 1 0.838898 0.296778 0.0378071
474 1 0.878207 0.287618 0.0827468
186 1 0.874179 0.293537 0.000618554
191 1 0.965285 0.25205 0.0387865
192 1 0.923265 0.295217 0.0405842
190 1 0.965991 0.293979 0.00254144
195 1 0.0474326 0.340954 0.03132
243 1 0.0427386 0.414978 0.0483755
482 1 0.0360653 0.374838 0.0813096
199 1 0.123608 0.337206 0.0339304
200 1 0.08437 0.382894 0.0342064
247 1 0.122852 0.414003 0.0460996
204 1 0.163126 0.376309 0.0393729
485 1 0.0850457 0.338142 0.0738691
486 1 0.120681 0.375352 0.0778758
537 1 0.165043 0.41171 0.0819922
198 1 0.125714 0.381162 0.000218793
203 1 0.208497 0.333994 0.0397163
251 1 0.20539 0.410513 0.0448358
490 1 0.205877 0.372498 0.0829385
208 1 0.25177 0.372903 0.0427393
212 1 0.325631 0.372371 0.0456746
216 1 0.411105 0.372087 0.0422289
259 1 0.366286 0.409503 0.041414
213 1 0.414251 0.334434 0.00273487
210 1 0.371746 0.366611 0.00510626
261 1 0.408434 0.407416 0.000800513
215 1 0.456141 0.333457 0.0390627
502 1 0.458804 0.379652 0.0776037
220 1 0.495767 0.37585 0.0339406
505 1 0.496558 0.333928 0.077289
224 1 0.579589 0.375189 0.0406165
557 1 0.581302 0.41623 0.0799212
506 1 0.537079 0.374493 0.0788199
223 1 0.630861 0.341813 0.0394194
513 1 0.665921 0.333338 0.0803687
510 1 0.625244 0.37747 0.0802707
222 1 0.630794 0.379051 0.000528888
228 1 0.67409 0.377949 0.0387344
232 1 0.747497 0.372761 0.0477461
514 1 0.705615 0.378105 0.0807214
231 1 0.794789 0.339909 0.0399621
236 1 0.833162 0.38065 0.0414546
230 1 0.794344 0.379434 0.00196973
285 1 0.914902 0.415017 0.000196061
521 1 0.839762 0.33806 0.0787102
235 1 0.880413 0.340018 0.0423221
283 1 0.87783 0.416249 0.0434569
522 1 0.88094 0.377014 0.0750176
239 1 0.959049 0.333838 0.0458483
240 1 0.92357 0.376806 0.040212
196 1 0.998452 0.381056 0.0345061
526 1 0.962063 0.379293 0.0799484
525 1 0.917559 0.340448 0.07838
244 1 0.00579019 0.464527 0.0489013
3459 1 0.0511644 0.497369 0.0344125
245 1 0.0774328 0.422662 0.000752498
248 1 0.0872253 0.45542 0.0399194
252 1 0.164595 0.458698 0.0444794
249 1 0.1635 0.418378 0.00320636
246 1 0.131199 0.461765 0.00501862
538 1 0.214553 0.454431 0.0765215
3467 1 0.201903 0.496574 0.042713
250 1 0.206955 0.454273 0.0082746
545 1 0.329668 0.426132 0.0822448
256 1 0.254559 0.459145 0.0403825
255 1 0.291735 0.416779 0.0416718
260 1 0.330479 0.456758 0.0409634
541 1 0.252651 0.419548 0.080135
542 1 0.291809 0.465199 0.0802031
254 1 0.287391 0.454627 0.00425459
264 1 0.41657 0.460415 0.0358546
258 1 0.370591 0.453539 0.0051027
3475 1 0.37352 0.495384 0.0470192
3769 1 0.498071 0.495382 0.0802897
263 1 0.450344 0.417663 0.0362627
3479 1 0.451293 0.496393 0.0494758
262 1 0.45665 0.463418 0.000915155
267 1 0.545798 0.417151 0.0377592
268 1 0.501543 0.460686 0.0367511
554 1 0.543167 0.463592 0.0770832
553 1 0.505416 0.417007 0.0706259
266 1 0.547408 0.467266 0.0049239
269 1 0.589079 0.41728 0.00252034
561 1 0.664113 0.418888 0.0790076
271 1 0.623276 0.419347 0.0435897
272 1 0.586003 0.455708 0.0464444
3777 1 0.664984 0.492869 0.0832195
3487 1 0.627216 0.497944 0.0441163
273 1 0.660565 0.421992 0.00434438
275 1 0.709938 0.418619 0.0421984
276 1 0.671369 0.455029 0.0400653
562 1 0.710831 0.458769 0.0788901
280 1 0.746098 0.464738 0.0335755
565 1 0.751136 0.418689 0.0746066
279 1 0.792836 0.421538 0.0417449
3781 1 0.750158 0.499384 0.0821706
566 1 0.796224 0.456279 0.0813321
3495 1 0.79885 0.499699 0.046634
281 1 0.830542 0.423776 0.00372311
282 1 0.887953 0.456878 0.00436163
3497 1 0.834371 0.497727 0.00411614
284 1 0.837668 0.458893 0.042232
288 1 0.911733 0.460629 0.0466478
3499 1 0.875176 0.498005 0.0476252
573 1 0.922847 0.419093 0.0815688
287 1 0.955681 0.427107 0.0425315
286 1 0.959354 0.469578 0.00333882
241 1 0.997065 0.428318 0.00603654
293 1 0.0786808 0.00799834 0.0864083
291 1 0.0436831 0.00271799 0.126959
339 1 0.0442296 0.0818337 0.126276
292 1 0.00599935 0.0439383 0.128546
295 1 0.127495 0.00586356 0.133169
294 1 0.133056 0.0347626 0.0879481
296 1 0.085086 0.044667 0.12852
300 1 0.165801 0.0400096 0.133087
298 1 0.213113 0.0388147 0.0860043
349 1 0.248923 0.0811684 0.0837898
299 1 0.217069 0.00374859 0.12896
304 1 0.245172 0.0464501 0.128915
347 1 0.204818 0.0792371 0.124949
593 1 0.324261 1.9221e-05 0.166632
303 1 0.285064 0.00267696 0.129152
308 1 0.326282 0.0412903 0.121467
351 1 0.287883 0.0791511 0.120737
597 1 0.414771 0.00547566 0.164034
312 1 0.412505 0.0354787 0.117567
355 1 0.370557 0.0790486 0.127316
594 1 0.374188 0.0396615 0.164356
645 1 0.413847 0.0800283 0.161425
310 1 0.45132 0.0449676 0.0846952
359 1 0.453477 0.0828272 0.123132
311 1 0.463262 0.00123885 0.131285
605 1 0.580809 0.00199811 0.162635
314 1 0.543014 0.0417712 0.0850742
316 1 0.506139 0.048602 0.129625
361 1 0.502214 0.0818713 0.084523
363 1 0.554141 0.0810303 0.124511
313 1 0.501827 0.00892585 0.0872863
320 1 0.594389 0.0410342 0.127617
322 1 0.71595 0.0384111 0.0862563
321 1 0.668105 0.00501163 0.0863203
369 1 0.667955 0.0817594 0.0872226
324 1 0.66759 0.042159 0.123548
371 1 0.7106 0.0814104 0.119929
610 1 0.708648 0.0433304 0.166664
657 1 0.66927 0.079787 0.156416
326 1 0.791763 0.0433935 0.0890571
328 1 0.75114 0.0438608 0.123595
614 1 0.792271 0.0430721 0.165324
375 1 0.797355 0.0821983 0.119698
332 1 0.830794 0.0419883 0.124198
325 1 0.752799 0.000935738 0.0856804
617 1 0.83168 0.00540006 0.163948
327 1 0.794689 0.00384057 0.12328
330 1 0.875125 0.0402102 0.0864909
379 1 0.876565 0.080975 0.129342
329 1 0.835916 0.00902875 0.0837556
331 1 0.876916 0.000940487 0.129246
334 1 0.964574 0.0460118 0.0875628
289 1 0.999969 0.000612218 0.0877143
335 1 0.966792 0.00931094 0.130532
336 1 0.920902 0.0436415 0.126434
669 1 0.91709 0.0833006 0.165658
333 1 0.920136 0.00332832 0.0890598
389 1 0.0706618 0.164042 0.0895924
344 1 0.0783254 0.121709 0.119966
625 1 0.00638394 0.0876962 0.164259
343 1 0.12325 0.0844241 0.120336
348 1 0.161496 0.128766 0.128371
630 1 0.113209 0.134189 0.160427
346 1 0.206353 0.128925 0.0850691
345 1 0.168177 0.0911307 0.0924747
352 1 0.243942 0.122359 0.123558
395 1 0.205316 0.161838 0.124137
397 1 0.251308 0.165885 0.0837835
356 1 0.328587 0.114346 0.121855
638 1 0.284807 0.121719 0.160083
399 1 0.291152 0.161852 0.124591
401 1 0.328115 0.157795 0.0874099
689 1 0.331943 0.158674 0.162291
354 1 0.37559 0.120976 0.0875198
403 1 0.373437 0.162343 0.116468
360 1 0.411534 0.119595 0.126931
405 1 0.419397 0.160541 0.0877274
409 1 0.499417 0.158425 0.0848858
358 1 0.454777 0.122391 0.088771
357 1 0.418042 0.0851245 0.0838586
646 1 0.454955 0.120121 0.159355
693 1 0.416738 0.165833 0.163967
364 1 0.504692 0.120868 0.121887
368 1 0.581112 0.124326 0.118047
411 1 0.544651 0.166392 0.121543
649 1 0.504772 0.0891076 0.165825
650 1 0.544049 0.124657 0.165493
701 1 0.578303 0.164855 0.164225
367 1 0.624178 0.0854303 0.126852
654 1 0.627084 0.131855 0.156731
372 1 0.661072 0.124809 0.112665
705 1 0.667143 0.159913 0.160863
658 1 0.711086 0.125281 0.160136
661 1 0.747069 0.0842592 0.164425
376 1 0.758867 0.118786 0.125665
425 1 0.832681 0.163104 0.083603
662 1 0.793971 0.12183 0.164738
380 1 0.835457 0.130913 0.12081
427 1 0.878581 0.160282 0.123296
666 1 0.864347 0.12477 0.164577
383 1 0.966363 0.0889741 0.130911
384 1 0.918918 0.123194 0.125591
340 1 0.999102 0.127945 0.120795
431 1 0.959352 0.165741 0.121657
717 1 0.918713 0.159261 0.16493
677 1 0.0746285 0.172391 0.164255
386 1 0.0330727 0.216681 0.0869056
387 1 0.0337935 0.17308 0.127583
392 1 0.078063 0.211248 0.117125
391 1 0.119301 0.170071 0.120947
396 1 0.162798 0.208471 0.121226
439 1 0.119649 0.249145 0.120476
678 1 0.115343 0.208562 0.162944
441 1 0.179266 0.245921 0.084097
445 1 0.245448 0.23999 0.0858921
394 1 0.207984 0.199101 0.0857399
682 1 0.209819 0.20781 0.159182
400 1 0.25395 0.199077 0.126419
447 1 0.293971 0.244515 0.121263
737 1 0.329529 0.248574 0.162995
733 1 0.252102 0.242213 0.164627
686 1 0.296564 0.203957 0.165297
449 1 0.34008 0.246524 0.0866749
404 1 0.335905 0.198764 0.127771
451 1 0.379271 0.248253 0.136936
406 1 0.455459 0.215653 0.0859766
408 1 0.417107 0.210301 0.127932
407 1 0.459695 0.169268 0.127222
455 1 0.461744 0.247473 0.129994
412 1 0.499866 0.207854 0.12198
457 1 0.502708 0.242906 0.0843078
459 1 0.53591 0.248371 0.128015
697 1 0.501157 0.166766 0.163233
415 1 0.627425 0.17108 0.118452
416 1 0.5842 0.209675 0.120955
702 1 0.631882 0.205635 0.161882
463 1 0.625375 0.240363 0.115493
465 1 0.666735 0.24093 0.0834614
420 1 0.675462 0.203792 0.12668
419 1 0.721829 0.171813 0.123638
424 1 0.760352 0.215263 0.122026
423 1 0.796344 0.166783 0.121528
709 1 0.756944 0.173988 0.165222
710 1 0.795382 0.210381 0.166588
428 1 0.83398 0.208343 0.119854
426 1 0.871962 0.208886 0.0837004
714 1 0.876566 0.2109 0.159389
388 1 0.999019 0.214338 0.129975
432 1 0.916905 0.200263 0.119435
435 1 0.0406853 0.262313 0.121906
440 1 0.0822078 0.299137 0.121642
444 1 0.165659 0.288918 0.128113
489 1 0.163997 0.328659 0.086285
725 1 0.0834709 0.257652 0.165756
726 1 0.11694 0.295285 0.16167
442 1 0.214011 0.289421 0.0862743
443 1 0.213669 0.250977 0.127876
448 1 0.247724 0.288713 0.127463
730 1 0.205405 0.288124 0.166481
493 1 0.256949 0.330443 0.0852908
446 1 0.291149 0.289232 0.0890045
495 1 0.288598 0.329352 0.125354
734 1 0.289477 0.285338 0.159501
785 1 0.327162 0.332083 0.163299
497 1 0.33373 0.332759 0.0891376
452 1 0.335853 0.289575 0.125795
738 1 0.368466 0.296611 0.164692
456 1 0.413453 0.298803 0.127528
453 1 0.419734 0.256713 0.0941938
454 1 0.457701 0.295933 0.085474
460 1 0.499322 0.291982 0.123605
742 1 0.457687 0.293442 0.160622
464 1 0.577686 0.286447 0.114811
793 1 0.503374 0.330225 0.165068
746 1 0.53934 0.290644 0.165713
753 1 0.662356 0.252023 0.15587
750 1 0.619318 0.282994 0.158575
468 1 0.660269 0.287285 0.112229
797 1 0.58538 0.326986 0.166613
467 1 0.70548 0.256176 0.124692
472 1 0.749265 0.293896 0.127527
754 1 0.707613 0.29574 0.162631
471 1 0.795765 0.256578 0.130803
517 1 0.752182 0.329754 0.0858188
519 1 0.789379 0.330391 0.126769
757 1 0.756687 0.250098 0.165198
473 1 0.833563 0.257958 0.0869762
476 1 0.84041 0.298922 0.127268
475 1 0.881734 0.25085 0.120861
480 1 0.910333 0.295107 0.128086
761 1 0.836954 0.257221 0.163787
478 1 0.950455 0.296454 0.0882118
481 1 0.997713 0.330192 0.08924
433 1 0.994848 0.252263 0.0848097
436 1 0.995638 0.297187 0.126018
479 1 0.956003 0.256276 0.127754
766 1 0.949795 0.300675 0.166307
483 1 0.0439551 0.336239 0.124923
533 1 0.0812833 0.414082 0.087705
488 1 0.0829535 0.376636 0.126648
487 1 0.122133 0.340056 0.122172
773 1 0.0846534 0.334933 0.165326
774 1 0.119671 0.372961 0.165757
535 1 0.121183 0.413703 0.121731
777 1 0.163131 0.335716 0.15792
491 1 0.211475 0.334022 0.125578
492 1 0.172333 0.378795 0.122913
778 1 0.210404 0.38039 0.162311
496 1 0.252099 0.37929 0.128109
494 1 0.288987 0.372912 0.0857913
782 1 0.293545 0.378235 0.16468
499 1 0.377987 0.337794 0.123832
498 1 0.371288 0.372069 0.0846024
500 1 0.337116 0.371525 0.126075
549 1 0.408077 0.414477 0.0852149
833 1 0.334991 0.412787 0.165112
837 1 0.412593 0.415469 0.160059
789 1 0.41967 0.336482 0.163654
504 1 0.419597 0.368028 0.118803
503 1 0.4585 0.336711 0.119736
551 1 0.451567 0.416004 0.12132
790 1 0.449459 0.374478 0.163861
841 1 0.495486 0.413132 0.163609
507 1 0.535537 0.337384 0.123183
508 1 0.500475 0.377981 0.122669
794 1 0.536134 0.38232 0.165311
512 1 0.579056 0.378768 0.126002
511 1 0.617469 0.334074 0.112864
516 1 0.659994 0.379625 0.12661
559 1 0.61988 0.416289 0.124081
801 1 0.660414 0.336485 0.161415
798 1 0.621294 0.379202 0.165857
515 1 0.705573 0.333723 0.118167
805 1 0.741301 0.33941 0.161325
520 1 0.745381 0.375794 0.124248
518 1 0.789762 0.37088 0.0846084
524 1 0.825789 0.370596 0.128792
569 1 0.827092 0.405794 0.0896563
806 1 0.795092 0.38526 0.165538
523 1 0.880748 0.349286 0.120579
571 1 0.87306 0.412646 0.129566
527 1 0.952899 0.338186 0.123903
484 1 0.995334 0.372822 0.127657
528 1 0.922395 0.379349 0.117557
575 1 0.962098 0.415729 0.122828
530 1 0.041341 0.463334 0.0938923
531 1 0.039376 0.417614 0.120905
536 1 0.0830001 0.458014 0.132083
532 1 0.00690034 0.461234 0.129643
817 1 0.0115918 0.42227 0.163684
534 1 0.123578 0.458026 0.0854605
540 1 0.165662 0.451335 0.127471
3751 1 0.131847 0.499306 0.126994
539 1 0.212508 0.421478 0.12398
544 1 0.248281 0.461823 0.116756
543 1 0.293133 0.41882 0.126187
829 1 0.250286 0.420951 0.164443
830 1 0.294503 0.455827 0.165342
548 1 0.331026 0.461796 0.126306
546 1 0.376269 0.462719 0.0873034
547 1 0.371037 0.419421 0.124672
552 1 0.414716 0.457512 0.12626
3763 1 0.371848 0.495547 0.127167
550 1 0.451423 0.455988 0.0847224
556 1 0.495642 0.453632 0.120068
838 1 0.454957 0.459741 0.159755
3767 1 0.4565 0.498388 0.119999
4057 1 0.50279 0.49436 0.163981
555 1 0.537162 0.418493 0.122954
560 1 0.579338 0.462613 0.118492
842 1 0.543622 0.453795 0.165036
3771 1 0.540742 0.496105 0.12442
558 1 0.622531 0.460143 0.0847228
564 1 0.664631 0.45763 0.118953
846 1 0.620902 0.460279 0.165037
3779 1 0.708259 0.498299 0.119036
563 1 0.710236 0.419837 0.120121
850 1 0.707734 0.460812 0.163672
568 1 0.748655 0.456862 0.119835
853 1 0.749534 0.418444 0.165113
4065 1 0.668492 0.493843 0.158736
3783 1 0.797891 0.499599 0.120388
567 1 0.789722 0.420749 0.120095
854 1 0.791531 0.456584 0.158313
4069 1 0.756102 0.498258 0.157088
3785 1 0.836825 0.496959 0.0860582
572 1 0.836491 0.452514 0.123851
570 1 0.878465 0.463257 0.0893645
858 1 0.881449 0.46265 0.15689
4073 1 0.833707 0.494335 0.161254
529 1 0.99937 0.425117 0.0878099
574 1 0.964487 0.466946 0.0890875
861 1 0.920191 0.416929 0.159171
576 1 0.925646 0.462946 0.122905
862 1 0.962579 0.450639 0.165858
578 1 0.046131 0.0482035 0.170891
580 1 0.00252168 0.0463299 0.213044
866 1 0.0439544 0.0420638 0.24653
579 1 0.0455924 0.00216112 0.214019
577 1 0.00891206 0.00737315 0.168704
869 1 0.0819095 0.00282177 0.248838
581 1 0.0775225 0.005197 0.169061
582 1 0.124314 0.0437151 0.167548
584 1 0.0853093 0.0432263 0.208305
588 1 0.160542 0.0435676 0.210411
631 1 0.124632 0.0809494 0.213562
870 1 0.127302 0.0424243 0.248551
585 1 0.165159 0.00107713 0.173115
586 1 0.204924 0.045801 0.171971
925 1 0.247888 0.0831358 0.244704
587 1 0.211192 0.00317844 0.215621
877 1 0.252152 0.000112362 0.245624
590 1 0.287652 0.0404232 0.169236
592 1 0.250584 0.0349851 0.211619
596 1 0.325809 0.0374304 0.209183
600 1 0.406803 0.0376896 0.204321
929 1 0.334533 0.0829153 0.242181
641 1 0.337955 0.0815395 0.17874
599 1 0.463802 0.00179019 0.209141
598 1 0.456301 0.0430433 0.176044
886 1 0.461418 0.0479579 0.247196
603 1 0.546051 0.0046837 0.213171
601 1 0.500465 0.00541106 0.171004
602 1 0.545142 0.0452649 0.171092
604 1 0.505423 0.0441834 0.212584
608 1 0.577843 0.04797 0.214573
606 1 0.622571 0.0447914 0.175875
612 1 0.673901 0.0413353 0.2015
659 1 0.71155 0.0797322 0.210545
898 1 0.708087 0.0372902 0.248131
945 1 0.670733 0.0781413 0.245763
897 1 0.6684 0.00127291 0.24428
615 1 0.793665 0.00556654 0.215687
616 1 0.751781 0.0425257 0.214272
620 1 0.831412 0.0453643 0.209479
665 1 0.832353 0.080973 0.167774
619 1 0.877226 0.00148638 0.209474
618 1 0.868377 0.0435953 0.171359
624 1 0.915281 0.0504363 0.208397
906 1 0.872969 0.0456356 0.246515
905 1 0.836195 0.00317801 0.249287
622 1 0.963819 0.0446733 0.170085
623 1 0.954103 0.00851086 0.211282
865 1 0.998899 0.00351201 0.247187
673 1 0.0019827 0.158264 0.169581
627 1 0.0526991 0.0845861 0.208535
626 1 0.0464172 0.12997 0.174711
628 1 0.0137388 0.12401 0.218113
629 1 0.0871579 0.0872461 0.166766
633 1 0.158982 0.0911847 0.170864
632 1 0.087441 0.120887 0.211608
636 1 0.164626 0.130601 0.208336
918 1 0.119278 0.132347 0.249375
637 1 0.246665 0.0839713 0.169906
634 1 0.202935 0.12536 0.171009
685 1 0.247581 0.16075 0.170339
635 1 0.201861 0.0843072 0.21625
640 1 0.247399 0.127723 0.213345
639 1 0.28811 0.0851288 0.210384
687 1 0.290338 0.15761 0.204743
644 1 0.32779 0.126109 0.214947
642 1 0.375539 0.126315 0.169402
933 1 0.415226 0.0887627 0.247767
643 1 0.38155 0.0859543 0.204598
977 1 0.33337 0.16538 0.249345
647 1 0.457643 0.0907402 0.205187
648 1 0.419189 0.128426 0.207446
981 1 0.41828 0.163944 0.243252
934 1 0.459675 0.123393 0.246295
652 1 0.499609 0.127716 0.200665
651 1 0.540237 0.0888227 0.211731
656 1 0.581784 0.122345 0.212302
653 1 0.587697 0.089094 0.173303
655 1 0.628356 0.086511 0.210718
942 1 0.626366 0.130285 0.246875
703 1 0.624673 0.160058 0.204037
660 1 0.669595 0.122814 0.197548
707 1 0.712076 0.161876 0.204563
946 1 0.705968 0.125002 0.248103
993 1 0.66897 0.166352 0.238646
663 1 0.791753 0.0901381 0.208598
664 1 0.752172 0.12689 0.210846
950 1 0.792708 0.125384 0.246527
949 1 0.754236 0.0838712 0.247427
668 1 0.836334 0.133922 0.212983
667 1 0.868078 0.0890542 0.205817
672 1 0.914315 0.121988 0.206261
957 1 0.913764 0.0925875 0.249838
670 1 0.961002 0.122106 0.17352
671 1 0.959897 0.0841539 0.211417
719 1 0.965042 0.158958 0.210985
675 1 0.0442376 0.169693 0.209229
674 1 0.0388655 0.214371 0.167159
680 1 0.0810124 0.219058 0.207834
676 1 0.00129156 0.204734 0.202622
679 1 0.115869 0.170546 0.199506
681 1 0.165145 0.175585 0.167685
729 1 0.16407 0.245793 0.170107
966 1 0.12389 0.215959 0.248998
684 1 0.156415 0.211811 0.207866
683 1 0.206401 0.175034 0.206864
970 1 0.202241 0.214025 0.243262
688 1 0.251155 0.206436 0.200863
692 1 0.326133 0.202978 0.215291
735 1 0.292294 0.24481 0.202412
1025 1 0.32774 0.244573 0.249628
691 1 0.375549 0.169127 0.209552
690 1 0.37324 0.20685 0.167409
739 1 0.370813 0.246379 0.201829
978 1 0.371079 0.210064 0.248379
694 1 0.468699 0.209797 0.168514
696 1 0.420729 0.2067 0.203719
695 1 0.458106 0.167496 0.210184
743 1 0.459392 0.24713 0.208577
745 1 0.501093 0.248318 0.1779
700 1 0.504246 0.207213 0.215383
698 1 0.536907 0.208114 0.16752
699 1 0.539316 0.167415 0.211471
986 1 0.548362 0.204466 0.247547
747 1 0.542053 0.243067 0.21025
704 1 0.587543 0.205551 0.208893
751 1 0.626584 0.248291 0.202434
989 1 0.587812 0.169853 0.249265
1037 1 0.588263 0.249015 0.242266
990 1 0.628498 0.211584 0.245358
706 1 0.715006 0.213262 0.16985
708 1 0.672773 0.21447 0.205053
994 1 0.706982 0.211383 0.249403
712 1 0.750186 0.212536 0.212129
711 1 0.796881 0.176211 0.207433
997 1 0.75146 0.167638 0.244641
998 1 0.793392 0.212015 0.243672
715 1 0.880382 0.167551 0.207389
713 1 0.836813 0.172951 0.167451
716 1 0.845133 0.211049 0.206594
718 1 0.958102 0.201067 0.168022
720 1 0.916723 0.207179 0.211397
765 1 0.917518 0.248711 0.171667
767 1 0.956551 0.23973 0.212742
1006 1 0.959517 0.1983 0.246757
1009 1 0.999429 0.242562 0.248827
723 1 0.0448201 0.255792 0.209875
722 1 0.0396244 0.29355 0.166982
1061 1 0.0827141 0.328549 0.249581
1013 1 0.0818838 0.257299 0.247589
727 1 0.12321 0.256339 0.207907
728 1 0.0851839 0.303858 0.206664
732 1 0.16266 0.289673 0.200563
1017 1 0.165436 0.25742 0.24028
1014 1 0.119493 0.292101 0.247373
731 1 0.206522 0.252575 0.205697
1018 1 0.207108 0.294834 0.244141
781 1 0.253096 0.324444 0.168505
736 1 0.258467 0.286959 0.205692
1022 1 0.294147 0.288622 0.24894
783 1 0.297269 0.329123 0.210774
1021 1 0.255491 0.252749 0.248096
1069 1 0.251621 0.328473 0.242075
740 1 0.334544 0.29072 0.208732
1026 1 0.378447 0.288268 0.240277
1077 1 0.415613 0.323472 0.240577
741 1 0.423738 0.251169 0.167832
744 1 0.418923 0.287674 0.20223
791 1 0.459008 0.327275 0.203105
748 1 0.49777 0.287307 0.209721
1030 1 0.460973 0.291898 0.248625
1029 1 0.418975 0.254803 0.246943
749 1 0.578966 0.251609 0.168216
795 1 0.545724 0.331526 0.212976
752 1 0.581711 0.286809 0.205336
1033 1 0.508183 0.252501 0.248749
756 1 0.664894 0.29383 0.204341
799 1 0.623725 0.333095 0.204264
1038 1 0.621526 0.293006 0.246644
1089 1 0.660991 0.332936 0.24922
755 1 0.706058 0.256164 0.199718
803 1 0.697664 0.333284 0.2068
760 1 0.746375 0.304521 0.199454
1041 1 0.668544 0.250749 0.243903
1042 1 0.70602 0.295315 0.245432
758 1 0.793858 0.298987 0.168237
759 1 0.798005 0.261683 0.206707
1045 1 0.750851 0.254238 0.245582
1046 1 0.790582 0.299768 0.247607
763 1 0.874179 0.254811 0.210379
764 1 0.833773 0.299174 0.211844
762 1 0.879507 0.299034 0.174927
1050 1 0.87786 0.297044 0.248833
721 1 0.997703 0.257057 0.169746
769 1 0.99975 0.329526 0.174029
724 1 0.994576 0.294515 0.210741
768 1 0.918827 0.292496 0.206896
1054 1 0.955129 0.289889 0.245266
770 1 0.0416167 0.372079 0.167276
821 1 0.0780473 0.411794 0.167388
771 1 0.0430727 0.337095 0.210147
776 1 0.081087 0.375137 0.214896
819 1 0.0411193 0.412839 0.209706
775 1 0.125956 0.343882 0.213378
823 1 0.127561 0.415271 0.211396
779 1 0.206808 0.33495 0.199194
780 1 0.167082 0.371938 0.19896
1066 1 0.212955 0.371902 0.242675
1113 1 0.172804 0.408208 0.243629
784 1 0.251914 0.379578 0.197676
788 1 0.330859 0.368967 0.212137
1070 1 0.285745 0.369008 0.249688
1121 1 0.332516 0.414028 0.249436
786 1 0.3708 0.371151 0.173139
787 1 0.370808 0.33697 0.215904
835 1 0.376039 0.414449 0.21369
792 1 0.415533 0.373828 0.208168
1078 1 0.453927 0.367374 0.249096
796 1 0.496163 0.377033 0.209664
1082 1 0.546001 0.378665 0.246887
1085 1 0.587957 0.342329 0.247697
800 1 0.584054 0.37613 0.205046
804 1 0.664093 0.377305 0.203892
802 1 0.701868 0.384059 0.172307
808 1 0.745374 0.379432 0.212624
1093 1 0.742205 0.33997 0.249157
807 1 0.787696 0.338312 0.209726
809 1 0.833642 0.340448 0.171729
811 1 0.875766 0.339668 0.20956
813 1 0.909998 0.343082 0.169781
812 1 0.839995 0.383905 0.218988
810 1 0.868558 0.375864 0.173947
1097 1 0.835265 0.336332 0.249657
814 1 0.956559 0.380319 0.168664
816 1 0.919845 0.377129 0.213717
815 1 0.958199 0.33662 0.20893
772 1 0.998009 0.379576 0.206707
1102 1 0.958017 0.37399 0.24749
818 1 0.0465723 0.460798 0.168322
1106 1 0.0392903 0.459359 0.241503
820 1 0.00349435 0.460691 0.200308
4321 1 9.54953e-05 0.495499 0.246068
4041 1 0.164854 0.497884 0.17299
822 1 0.12206 0.460218 0.171043
824 1 0.0852054 0.455039 0.209814
828 1 0.166368 0.462393 0.214401
825 1 0.171566 0.417214 0.170663
826 1 0.207135 0.45728 0.172769
827 1 0.214123 0.41868 0.208304
4043 1 0.207365 0.497066 0.210976
4333 1 0.245501 0.496619 0.245894
831 1 0.289956 0.421255 0.20689
832 1 0.253581 0.461874 0.203533
1118 1 0.288859 0.45868 0.248818
836 1 0.33151 0.455835 0.211065
834 1 0.373429 0.455719 0.173362
840 1 0.411717 0.461272 0.217636
4053 1 0.407556 0.497435 0.169621
839 1 0.450696 0.420538 0.198344
844 1 0.489788 0.457558 0.204337
4055 1 0.449356 0.498773 0.208056
845 1 0.577662 0.416982 0.167374
843 1 0.541293 0.417697 0.210341
848 1 0.580657 0.455097 0.202643
4059 1 0.53938 0.488552 0.210103
4063 1 0.624522 0.49806 0.203403
849 1 0.6643 0.42538 0.168358
847 1 0.621604 0.423441 0.207275
1134 1 0.623546 0.454338 0.24849
4357 1 0.749985 0.494125 0.248882
1137 1 0.669306 0.419531 0.242296
852 1 0.668353 0.468818 0.208309
851 1 0.712808 0.422125 0.206303
4067 1 0.71355 0.498669 0.208045
857 1 0.83255 0.423034 0.171579
855 1 0.798519 0.419487 0.213869
1141 1 0.754553 0.418497 0.246151
856 1 0.759406 0.454011 0.20718
4071 1 0.794368 0.492422 0.210164
4361 1 0.839512 0.497945 0.248622
859 1 0.884329 0.419875 0.214223
860 1 0.846441 0.462914 0.205074
1145 1 0.844694 0.429738 0.247745
864 1 0.925411 0.457299 0.208731
863 1 0.966966 0.42329 0.210592
1150 1 0.962996 0.459345 0.249888
4077 1 0.92319 0.493962 0.16724
915 1 0.0339956 0.0809682 0.301945
872 1 0.0789906 0.0415923 0.296165
868 1 0.00455278 0.0374076 0.291804
921 1 0.159302 0.082366 0.254342
871 1 0.126454 0.000351963 0.292693
917 1 0.0848003 0.0824155 0.256808
876 1 0.165826 0.0460062 0.293447
875 1 0.20838 0.00455111 0.285396
874 1 0.206788 0.0495112 0.254283
923 1 0.207724 0.0777981 0.299631
1213 1 0.249426 0.0807783 0.332797
1165 1 0.251439 0.0039788 0.323269
878 1 0.28967 0.0456257 0.255702