ITEM: TIMESTEP
14500
ITEM: NUMBER OF ATOMS
864
ITEM: BOX BOUNDS pp pp pp
0.0000000000000000e+00 3.1559999999999999e+01
0.0000000000000000e+00 3.1559999999999999e+01
0.0000000000000000e+00 3.1559999999999999e+01
ITEM: ATOMS id type xs ys zs
27 1 0.0957704 0.154883 0.0861409
4 1 0.00377227 0.0860045 0.0757654
437 1 0.175001 0.497567 0.00294682
441 1 0.315731 0.480949 0.000515953
8 1 0.192774 0.0905646 0.0813042
31 1 0.257629 0.168427 0.0851046
77 1 0.159721 0.00575911 0.16661
12 1 0.339696 0.0921578 0.0751964
16 1 0.487274 0.0930156 0.0802622
93 1 0.827447 0.00376579 0.155634
82 1 0.408989 0.077817 0.165414
109 1 0.509367 0.167901 0.163796
86 1 0.592935 0.0824113 0.166695
39 1 0.582638 0.159927 0.0761722
61 1 0.494529 0.336745 0.00469295
215 1 0.912798 0.330545 0.434056
153 1 0.344311 0.00310412 0.335647
66 1 0.741403 0.411828 0.00374731
20 1 0.676041 0.0797931 0.0961699
24 1 0.816842 0.0825145 0.0909563
507 1 0.120907 0.497285 0.251078
47 1 0.897712 0.164841 0.0725324
98 1 0.0741763 0.246684 0.160825
97 1 0.00213335 0.160419 0.169306
599 1 0.9142 0.492901 0.425285
32 1 0.178147 0.242318 0.0698476
36 1 0.333336 0.253694 0.0950053
83 1 0.41201 0.00219375 0.240065
35 1 0.421008 0.175584 0.094162
106 1 0.41114 0.252517 0.173029
509 1 0.181622 0.498893 0.165173
62 1 0.575068 0.410765 0.00386201
40 1 0.494104 0.252469 0.0708754
110 1 0.579221 0.24628 0.166802
505 1 0.0247199 0.489973 0.17483
15 1 0.585934 0.00376042 0.0802336
44 1 0.666374 0.234788 0.0803399
43 1 0.74584 0.164856 0.0993936
67 1 0.745141 0.331267 0.0880325
113 1 0.664845 0.176549 0.167843
50 1 0.0912914 0.419079 0.00445872
48 1 0.837133 0.251253 0.0645053
28 1 0.974474 0.251192 0.0844826
246 1 0.272041 0.253341 0.492165
157 1 0.507422 0.00533034 0.314166
51 1 0.101663 0.321093 0.0755533
56 1 0.172099 0.420294 0.0744306
122 1 0.101258 0.403014 0.148895
249 1 0.354867 0.162722 0.48337
214 1 0.918588 0.433106 0.330304
125 1 0.186683 0.326064 0.161829
55 1 0.256289 0.335137 0.0783305
59 1 0.412163 0.336591 0.0810981
129 1 0.328997 0.345228 0.161588
133 1 0.494619 0.320113 0.170224
60 1 0.34579 0.422233 0.0801002
130 1 0.426831 0.432178 0.158203
521 1 0.64912 0.494269 0.163171
63 1 0.585796 0.323407 0.0757855
64 1 0.495425 0.41686 0.0769612
68 1 0.645903 0.411877 0.0829045
196 1 0.00458854 0.408698 0.393546
138 1 0.727259 0.414413 0.167263
91 1 0.750532 0.00170139 0.248963
71 1 0.918251 0.345129 0.0921199
72 1 0.827175 0.405817 0.0901366
52 1 0.00940369 0.41627 0.0947757
18 1 0.759729 0.090044 0.00114431
455 1 0.911981 0.495438 0.0908524
285 1 0.822223 0.318777 0.494725
234 1 0.754782 0.0780412 0.497211
74 1 0.0916796 0.0826428 0.171622
146 1 0.0876964 0.0746521 0.332552
99 1 0.0890684 0.16123 0.254812
169 1 0.00637667 0.161374 0.349835
78 1 0.264735 0.0815378 0.169549
80 1 0.18167 0.0751074 0.248912
103 1 0.251074 0.169075 0.261428
105 1 0.332623 0.167274 0.159635
277 1 0.488518 0.334123 0.496365
79 1 0.261356 0.00101275 0.256775
177 1 0.349925 0.169584 0.331617
84 1 0.331721 0.0801302 0.261976
81 1 0.33441 0.00291435 0.149502
88 1 0.510696 0.0685193 0.233604
92 1 0.666258 0.0990089 0.256861
111 1 0.57393 0.151179 0.254793
26 1 0.067067 0.23899 0.0139224
3 1 0.0895653 0.00524163 0.0873438
451 1 0.747078 0.491664 0.0905848
90 1 0.74872 0.0895062 0.188677
115 1 0.757669 0.181333 0.262225
162 1 0.751887 0.0897637 0.325079
258 1 0.738204 0.24986 0.49257
76 1 0.0111154 0.0871994 0.246854
96 1 0.83714 0.0681146 0.259268
94 1 0.912656 0.0925914 0.160845
166 1 0.918767 0.103643 0.328919
147 1 0.0884041 0.00329202 0.417618
121 1 0.999108 0.32564 0.165367
100 1 0.985092 0.240753 0.253217
101 1 0.172765 0.153688 0.176431
104 1 0.1656 0.248837 0.250704
102 1 0.254575 0.24719 0.166197
107 1 0.411237 0.16248 0.240907
108 1 0.339981 0.245897 0.252594
178 1 0.421882 0.251716 0.337576
112 1 0.503578 0.232618 0.253659
182 1 0.565428 0.259788 0.350297
185 1 0.666976 0.178126 0.344094
116 1 0.663465 0.23843 0.259003
117 1 0.822764 0.178298 0.168151
141 1 0.828878 0.343388 0.184721
114 1 0.748563 0.259121 0.167848
120 1 0.835644 0.256013 0.251374
118 1 0.90646 0.271828 0.162481
119 1 0.902046 0.170806 0.249456
49 1 0.00567843 0.347916 0.0130302
123 1 0.09089 0.347414 0.236204
194 1 0.1152 0.423523 0.336517
124 1 0.999481 0.422753 0.265527
197 1 0.163324 0.323679 0.325891
213 1 0.825718 0.339069 0.340577
127 1 0.269353 0.332045 0.251066
128 1 0.179347 0.413806 0.246902
126 1 0.261761 0.418849 0.164037
216 1 0.833768 0.405467 0.415706
265 1 0.0159639 0.33274 0.494522
131 1 0.423233 0.336889 0.248581
132 1 0.347445 0.435331 0.251579
202 1 0.425479 0.434642 0.34568
136 1 0.494012 0.425114 0.254626
210 1 0.739433 0.416777 0.340512
134 1 0.559174 0.404074 0.169914
135 1 0.573908 0.325884 0.247229
140 1 0.647312 0.415112 0.252442
137 1 0.666083 0.330349 0.163367
139 1 0.737759 0.333488 0.249703
144 1 0.816191 0.424429 0.257701
23 1 0.917018 0.0115019 0.0821226
73 1 0.989123 0.00611225 0.170426
142 1 0.922915 0.415814 0.179185
143 1 0.91922 0.344845 0.27018
171 1 0.0929572 0.146598 0.411211
173 1 0.168133 0.158841 0.330159
195 1 0.0958423 0.330365 0.417276
152 1 0.167536 0.0766788 0.410943
150 1 0.254722 0.0641296 0.359249
156 1 0.351748 0.0768766 0.418629
212 1 0.647767 0.423509 0.416778
204 1 0.339179 0.429608 0.411319
206 1 0.57578 0.403565 0.334148
154 1 0.419607 0.0752285 0.324246
190 1 0.907106 0.256419 0.327554
158 1 0.595092 0.0553861 0.342624
160 1 0.503039 0.0719616 0.403795
164 1 0.678059 0.0778787 0.410572
187 1 0.737097 0.168416 0.421844
168 1 0.839903 0.0726165 0.404159
200 1 0.17973 0.411885 0.416103
148 1 0.0020178 0.0736515 0.438413
191 1 0.917456 0.164235 0.420599
198 1 0.249315 0.415764 0.331851
176 1 0.157046 0.242001 0.416437
170 1 0.0838754 0.247814 0.339845
193 1 0.998171 0.312246 0.336078
172 1 0.00418753 0.246001 0.430549
175 1 0.260687 0.168533 0.400925
174 1 0.245127 0.254634 0.328443
199 1 0.266117 0.330407 0.408324
192 1 0.831043 0.251417 0.411209
201 1 0.345273 0.347378 0.326881
205 1 0.496046 0.336583 0.338877
179 1 0.430239 0.148221 0.407469
203 1 0.42509 0.356698 0.413667
180 1 0.329853 0.255352 0.401058
208 1 0.49996 0.42944 0.42262
207 1 0.581144 0.338191 0.417982
181 1 0.516595 0.155875 0.339897
184 1 0.499589 0.257633 0.428441
183 1 0.578905 0.176747 0.42113
188 1 0.652406 0.250616 0.437752
209 1 0.659769 0.331231 0.345311
186 1 0.742683 0.255838 0.34969
189 1 0.830148 0.169784 0.34388
211 1 0.739196 0.334407 0.4151
282 1 0.731918 0.418695 0.481189
42 1 0.742855 0.247928 0.00200329
14 1 0.584167 0.0866492 0.00396822
34 1 0.407133 0.232164 0.00700781
273 1 0.339058 0.352657 0.491429
261 1 0.820766 0.164149 0.480269
41 1 0.67203 0.149783 0.00711912
253 1 0.499801 0.171399 0.486864
230 1 0.572896 0.0845179 0.492127
233 1 0.668024 0.00752559 0.49619
250 1 0.410676 0.259702 0.489231
229 1 0.500159 0.00433123 0.490301
449 1 0.661148 0.495379 0.00647567
270 1 0.263851 0.430368 0.49854
274 1 0.424434 0.42504 0.493673
57 1 0.335677 0.32404 0.00510103
21 1 0.827291 0.00485945 0.00435743
237 1 0.837437 0.000259639 0.492006
222 1 0.258152 0.0811217 0.489339
433 1 0.999436 0.492622 0.0034708
669 1 0.82548 0.496188 0.499186
13 1 0.513814 0.014165 0.0128077
70 1 0.90344 0.415508 0.00479358
243 1 0.0951049 0.161087 0.577195
224 1 0.190045 0.085322 0.575559
220 1 0.992937 0.0773585 0.58219
54 1 0.245539 0.398511 0.993454
431 1 0.916476 0.339735 0.924278
667 1 0.74962 0.489069 0.580397
247 1 0.272464 0.166428 0.574715
294 1 0.247034 0.0923345 0.665764
10 1 0.411923 0.0691059 0.998016
739 1 0.739604 0.487301 0.749664
228 1 0.342782 0.0702148 0.573309
232 1 0.504416 0.0752487 0.581966
367 1 0.242563 0.00587373 0.903403
321 1 0.32587 0.160265 0.669797
813 1 0.829523 0.496768 0.825683
302 1 0.583582 0.0881528 0.662586
432 1 0.828428 0.409476 0.923143
255 1 0.574594 0.168882 0.573515
46 1 0.910971 0.250571 0.986743
236 1 0.665472 0.0693296 0.58463
259 1 0.733008 0.165081 0.572689
240 1 0.828055 0.102105 0.586669
306 1 0.74738 0.0725678 0.679297
333 1 0.826461 0.177037 0.65418
310 1 0.904949 0.0900132 0.67259
313 1 0.0139742 0.173257 0.668357
218 1 0.0958571 0.0719427 0.503498
663 1 0.590993 0.497375 0.582049
248 1 0.1732 0.243246 0.575365
373 1 0.509687 0.0171394 0.835088
271 1 0.278404 0.357394 0.580553
318 1 0.247653 0.24245 0.660107
238 1 0.905736 0.0927227 0.504384
252 1 0.336078 0.264454 0.587296
251 1 0.396871 0.166481 0.579747
256 1 0.480543 0.244389 0.584916
279 1 0.572969 0.350104 0.586483
353 1 0.648875 0.337147 0.664599
349 1 0.495566 0.322984 0.669297
38 1 0.582297 0.24491 0.987413
741 1 0.826749 0.499336 0.661924
811 1 0.741987 0.480667 0.929712
260 1 0.654535 0.251498 0.573669
283 1 0.741367 0.319412 0.572597
803 1 0.406718 0.497934 0.905047
263 1 0.924297 0.172006 0.588911
264 1 0.821518 0.239003 0.565781
244 1 0.00743165 0.246143 0.587718
267 1 0.0738027 0.327894 0.57981
272 1 0.170023 0.421301 0.580919
30 1 0.256546 0.247924 0.990412
297 1 0.349362 0.00757618 0.663898
797 1 0.162447 0.497119 0.846593
363 1 0.0685814 0.000312894 0.89885
22 1 0.917009 0.0901699 0.99704
276 1 0.353099 0.438066 0.569782
275 1 0.422505 0.338298 0.587389
383 1 0.912777 0.00816015 0.916424
280 1 0.496268 0.423957 0.585465
284 1 0.666901 0.417686 0.592417
242 1 0.087658 0.248078 0.50642
65 1 0.664856 0.326391 0.996924
288 1 0.810554 0.409337 0.571913
425 1 0.653679 0.33557 0.836106
289 1 0.995975 0.00947508 0.668855
287 1 0.906948 0.32128 0.586991
268 1 0.979391 0.395303 0.564976
358 1 0.901842 0.424568 0.640932
743 1 0.923056 0.479653 0.749889
290 1 0.0830948 0.0824841 0.654707
427 1 0.746611 0.328324 0.9057
315 1 0.0812668 0.163839 0.749562
296 1 0.163504 0.0891104 0.743985
319 1 0.251455 0.166106 0.746071
426 1 0.742328 0.420409 0.835526
411 1 0.0827558 0.32996 0.915905
298 1 0.417688 0.0938126 0.664806
300 1 0.327423 0.0792299 0.74302
323 1 0.409486 0.167813 0.746206
370 1 0.413036 0.0815781 0.828547
329 1 0.657182 0.170754 0.654602
413 1 0.16065 0.331136 0.824531
304 1 0.494931 0.0968821 0.74254
308 1 0.654714 0.084295 0.744767
378 1 0.73048 0.0893442 0.827722
331 1 0.73707 0.153051 0.739497
401 1 0.66361 0.174771 0.847714
312 1 0.826026 0.0817117 0.764231
292 1 0.99881 0.0893101 0.734645
335 1 0.888788 0.160895 0.755789
382 1 0.911738 0.0860956 0.84828
314 1 0.0830182 0.258669 0.665697
339 1 0.0757787 0.323308 0.75029
320 1 0.189326 0.252237 0.747026
316 1 0.997517 0.239515 0.753343
341 1 0.179969 0.328009 0.640339
317 1 0.158141 0.159346 0.656616
343 1 0.259384 0.339518 0.744185
390 1 0.261206 0.24691 0.838218
345 1 0.346973 0.336147 0.672106
325 1 0.48813 0.159984 0.65213
324 1 0.33062 0.256551 0.751324
322 1 0.409059 0.24827 0.664373
347 1 0.422385 0.340303 0.752402
393 1 0.338625 0.165647 0.816207
327 1 0.584955 0.169841 0.751275
328 1 0.496671 0.234252 0.738609
326 1 0.572525 0.247899 0.660158
332 1 0.655925 0.245587 0.745012
330 1 0.734472 0.24853 0.665113
402 1 0.744118 0.265354 0.81988
357 1 0.816979 0.317768 0.652891
336 1 0.81495 0.246164 0.736771
334 1 0.911701 0.243952 0.680792
359 1 0.890438 0.337294 0.735817
338 1 0.0768404 0.403607 0.673758
340 1 0.998268 0.397104 0.751787
344 1 0.167995 0.414544 0.750575
379 1 0.738141 0.0068238 0.908281
342 1 0.26277 0.418848 0.662898
348 1 0.339274 0.425476 0.749935
414 1 0.251209 0.401946 0.830182
303 1 0.573067 0.000361012 0.741089
412 1 0.00692083 0.412474 0.925058
346 1 0.431524 0.42853 0.675756
422 1 0.579411 0.42526 0.836927
350 1 0.569758 0.420436 0.666099
352 1 0.500356 0.413113 0.751131
351 1 0.572409 0.32205 0.756437
428 1 0.657785 0.413049 0.916295
416 1 0.158237 0.400233 0.908809
406 1 0.896423 0.254407 0.8215
355 1 0.749455 0.344296 0.745445
356 1 0.659361 0.412628 0.750943
354 1 0.757011 0.408683 0.660602
360 1 0.825796 0.42241 0.754435
6 1 0.244257 0.0794058 0.995328
337 1 0.98983 0.330771 0.659302
430 1 0.925469 0.398077 0.836432
429 1 0.828346 0.353842 0.828998
362 1 0.0732804 0.10002 0.828818
307 1 0.737731 0.000691077 0.765098
361 1 0.980545 0.000819959 0.833848
69 1 0.813023 0.327621 0.996106
366 1 0.236303 0.0780418 0.821071
389 1 0.166207 0.168916 0.823668
368 1 0.150584 0.078092 0.902254
424 1 0.503321 0.42603 0.914207
37 1 0.4848 0.165773 0.997427
372 1 0.334803 0.0737813 0.914482
376 1 0.496758 0.084979 0.927812
418 1 0.422736 0.420898 0.829579
374 1 0.582142 0.0956011 0.840331
397 1 0.498287 0.161525 0.830275
399 1 0.561528 0.175202 0.91326
380 1 0.65757 0.0849518 0.918293
815 1 0.915298 0.48664 0.921002
409 1 0.00564542 0.3256 0.821883
403 1 0.750563 0.163017 0.918194
419 1 0.425276 0.346056 0.922446
407 1 0.906546 0.17802 0.908596
384 1 0.82402 0.080721 0.91157
364 1 0.0101863 0.086891 0.909409
721 1 0.993312 0.470385 0.653908
388 1 0.00757807 0.254607 0.907413
386 1 0.0860855 0.23919 0.82754
385 1 0.983476 0.161765 0.816753
387 1 0.0852996 0.175772 0.915022
391 1 0.25117 0.153419 0.894933
415 1 0.256961 0.320568 0.913883
392 1 0.166783 0.250526 0.904794
420 1 0.327628 0.399004 0.921899
395 1 0.413558 0.162737 0.906774
396 1 0.345689 0.243144 0.923268
394 1 0.421938 0.254118 0.828004
417 1 0.3413 0.32352 0.84089
400 1 0.489053 0.253848 0.920055
423 1 0.576935 0.336634 0.917471
398 1 0.581819 0.249358 0.838173
410 1 0.0718847 0.421711 0.827821
421 1 0.502802 0.331914 0.8332
408 1 0.814978 0.252507 0.894839
404 1 0.664732 0.248271 0.917474
405 1 0.818651 0.164604 0.823822
241 1 0.998865 0.159822 0.511058
723 1 0.0592021 0.488145 0.745597
795 1 0.0770969 0.489763 0.90867
45 1 0.834623 0.166217 0.992286
235 1 0.75904 0.00728232 0.585271
793 1 0.990306 0.490278 0.834919
801 1 0.335345 0.492115 0.833321
309 1 0.838919 0.00909303 0.67349
799 1 0.248061 0.489556 0.913498
293 1 0.164559 0.00302479 0.67231
239 1 0.904993 0.0129022 0.569543
299 1 0.427622 0.00850329 0.750929
725 1 0.159652 0.490194 0.681838
291 1 0.0699057 0.00881193 0.757977
453 1 0.830031 0.493305 0.997378
5 1 0.159603 0.00772626 0.984215
254 1 0.565845 0.257806 0.518563
649 1 0.00040694 0.489472 0.500711
278 1 0.585684 0.423376 0.505516
257 1 0.654814 0.146471 0.508169
226 1 0.433564 0.0829139 0.501994
2 1 0.0758561 0.0934581 0.988269
58 1 0.427475 0.438059 0.988186
33 1 0.32307 0.155127 0.98632
1 1 0.990049 0.00769045 0.99993
245 1 0.175364 0.158835 0.500981
269 1 0.189218 0.325476 0.511142
262 1 0.917443 0.238348 0.502677
25 1 0.987214 0.174828 0.994872
53 1 0.165686 0.318809 0.990651
266 1 0.0953637 0.416843 0.510538
29 1 0.177623 0.166432 0.981471
281 1 0.639166 0.330301 0.501125
286 1 0.906509 0.418099 0.502698
440 1 0.166911 0.583427 0.0754864
673 1 0.0259924 0.667675 0.491697
587 1 0.4139 0.508478 0.422047
444 1 0.328151 0.605842 0.0773755
454 1 0.905561 0.576525 0.00974722
477 1 0.826422 0.66385 0.00739737
448 1 0.494676 0.590321 0.100435
467 1 0.415263 0.674785 0.0788875
595 1 0.746285 0.508187 0.408096
145 1 0.00325725 0.996569 0.343571
518 1 0.596066 0.59552 0.174468
452 1 0.671274 0.575309 0.0871087
597 1 0.834804 0.505776 0.331725
717 1 0.857812 0.816054 0.493668
456 1 0.823279 0.569793 0.0794409
522 1 0.74009 0.579215 0.177183
475 1 0.748383 0.659725 0.0861073
549 1 0.840302 0.659836 0.163775
585 1 0.341875 0.511795 0.333466
545 1 0.671969 0.678237 0.171952
443 1 0.421993 0.503894 0.0808223
436 1 0.00620704 0.569802 0.0882659
526 1 0.921995 0.578164 0.166581
479 1 0.915537 0.660487 0.0866016
19 1 0.737456 0.993465 0.0862831
459 1 0.0852158 0.664668 0.0996894
530 1 0.0866696 0.76561 0.172961
460 1 0.996631 0.751803 0.0863771
483 1 0.0750632 0.848076 0.0916195
463 1 0.23072 0.677445 0.0786377
464 1 0.157861 0.761124 0.0787991
534 1 0.239676 0.765138 0.158522
705 1 0.334962 0.827624 0.494087
159 1 0.579765 0.991071 0.422636
468 1 0.329981 0.747053 0.0751259
491 1 0.393509 0.832208 0.0845308
541 1 0.518769 0.681459 0.166781
538 1 0.415741 0.750899 0.159648
87 1 0.59847 0.996031 0.247874
471 1 0.582185 0.663646 0.072181
472 1 0.501707 0.757701 0.0650013
542 1 0.590332 0.763877 0.157245
476 1 0.674529 0.753413 0.0863494
569 1 0.667894 0.835409 0.159215
11 1 0.423487 0.999802 0.0729513
546 1 0.758435 0.750114 0.181582
529 1 0.00150452 0.657007 0.171716
480 1 0.825927 0.747332 0.093722
581 1 0.181708 0.511987 0.331209
554 1 0.0852433 0.931819 0.176756
155 1 0.430088 0.990944 0.410088
488 1 0.161771 0.924147 0.072246
487 1 0.239544 0.850656 0.0748323
513 1 0.345646 0.518003 0.166067
442 1 0.418644 0.576372 0.000827697
648 1 0.842269 0.908351 0.432904
492 1 0.335591 0.917059 0.0864356
519 1 0.572809 0.50237 0.26138
562 1 0.416045 0.914912 0.180192
561 1 0.314855 0.832963 0.160493
565 1 0.491101 0.831644 0.140306
495 1 0.572808 0.837259 0.0631182
496 1 0.501018 0.919972 0.0837424
500 1 0.661545 0.917382 0.0735357
566 1 0.581286 0.911226 0.158434
161 1 0.678579 0.996953 0.332679
499 1 0.742798 0.840353 0.0770092
504 1 0.828154 0.91849 0.0876855
570 1 0.750029 0.920238 0.162224
511 1 0.266841 0.500149 0.250889
167 1 0.922097 0.984272 0.434301
503 1 0.899822 0.827698 0.0912629
484 1 0.00328493 0.922289 0.088234
574 1 0.907834 0.932852 0.161901
665 1 0.671914 0.502514 0.497714
506 1 0.0937107 0.573618 0.167784
512 1 0.18272 0.58792 0.253736
531 1 0.10066 0.64833 0.246703
578 1 0.0908608 0.57947 0.322598
510 1 0.241654 0.598355 0.164406
582 1 0.267057 0.587489 0.336541
535 1 0.258953 0.664699 0.254668
537 1 0.32276 0.680518 0.167405
149 1 0.176094 0.995275 0.34305
516 1 0.345424 0.58846 0.25193
514 1 0.41604 0.609818 0.165433
586 1 0.433147 0.59752 0.331655
539 1 0.42562 0.678467 0.254746
647 1 0.931388 0.812216 0.410692
520 1 0.521694 0.607849 0.254463
590 1 0.599239 0.581947 0.340663
543 1 0.591663 0.68183 0.25134
524 1 0.662295 0.588017 0.258546
528 1 0.831696 0.581872 0.262705
594 1 0.738432 0.595217 0.329309
547 1 0.748169 0.666831 0.248534
577 1 0.0134879 0.503924 0.337463
508 1 0.0117537 0.568753 0.237456
598 1 0.928498 0.578277 0.328338
601 1 0.0109514 0.653056 0.314077
517 1 0.508625 0.510621 0.164505
533 1 0.169698 0.680793 0.169459
625 1 0.016202 0.824655 0.345629
536 1 0.164899 0.74613 0.249821
605 1 0.166273 0.658856 0.331371
559 1 0.254453 0.832727 0.259069
606 1 0.235951 0.744663 0.337757
629 1 0.178213 0.836481 0.333952
540 1 0.322608 0.750779 0.257513
544 1 0.497308 0.755908 0.245634
610 1 0.426105 0.752815 0.332984
613 1 0.505349 0.680588 0.334853
567 1 0.580188 0.839616 0.25241
614 1 0.584871 0.762637 0.348285
548 1 0.65653 0.763438 0.249532
617 1 0.65665 0.669164 0.333789
618 1 0.747352 0.748584 0.329285
552 1 0.837797 0.752984 0.249533
550 1 0.91643 0.746077 0.176077
532 1 0.00623722 0.745886 0.238298
621 1 0.823467 0.674697 0.319697
551 1 0.919149 0.65403 0.253742
622 1 0.941598 0.749954 0.323621
589 1 0.495362 0.514596 0.323487
553 1 0.990039 0.838494 0.158008
557 1 0.15308 0.840551 0.173561
555 1 0.0945837 0.846777 0.261757
556 1 0.999197 0.919287 0.252999
626 1 0.0937365 0.926689 0.341377
558 1 0.229691 0.91219 0.162994
560 1 0.178507 0.923146 0.26056
630 1 0.269781 0.913763 0.339776
564 1 0.320667 0.917309 0.226834
634 1 0.417019 0.922943 0.327286
563 1 0.410876 0.837727 0.24707
568 1 0.512029 0.912396 0.244265
481 1 0.00132539 0.836233 0.00444125
641 1 0.656264 0.835425 0.339191
572 1 0.6716 0.911519 0.259087
638 1 0.59351 0.921143 0.332263
573 1 0.842811 0.842407 0.177417
571 1 0.753498 0.833069 0.268657
576 1 0.843848 0.903497 0.265651
645 1 0.848333 0.826556 0.339461
575 1 0.923642 0.834472 0.250163
646 1 0.941676 0.908075 0.360846
584 1 0.161713 0.583033 0.436801
603 1 0.0833946 0.644811 0.400285
457 1 0.00568767 0.661168 0.0144326
523 1 0.739191 0.507724 0.247986
609 1 0.336447 0.676263 0.352631
607 1 0.248427 0.65128 0.416638
588 1 0.34442 0.59049 0.408383
75 1 0.0902365 0.997678 0.254461
7 1 0.246264 0.992385 0.077276
592 1 0.50462 0.592046 0.412752
447 1 0.585785 0.517667 0.0810645
615 1 0.589035 0.66055 0.417941
596 1 0.670414 0.593296 0.424502
591 1 0.575834 0.507838 0.41192
600 1 0.833362 0.581167 0.413851
642 1 0.751342 0.909622 0.355042
579 1 0.0857904 0.50768 0.422675
631 1 0.244454 0.812575 0.412543
580 1 0.990682 0.587437 0.418717
623 1 0.909127 0.668286 0.394612
445 1 0.51112 0.511836 0.0147523
637 1 0.500663 0.834911 0.328584
628 1 0.0235451 0.921117 0.435045
627 1 0.100683 0.827706 0.414191
602 1 0.0939532 0.750757 0.329926
608 1 0.165871 0.73566 0.431242
639 1 0.584359 0.847276 0.43568
611 1 0.416552 0.676262 0.41485
612 1 0.331762 0.754942 0.418265
616 1 0.512966 0.760512 0.430863
632 1 0.168154 0.916539 0.429785
640 1 0.497819 0.913041 0.411339
620 1 0.651225 0.753239 0.415114
633 1 0.333576 0.827968 0.341839
636 1 0.337805 0.912916 0.418657
619 1 0.747422 0.678323 0.410392
643 1 0.755892 0.824278 0.412184
635 1 0.415847 0.832197 0.417734
644 1 0.669057 0.922367 0.426003
604 1 0.0173606 0.747969 0.419175
624 1 0.836689 0.743126 0.412734
478 1 0.926218 0.746432 0.00239475
89 1 0.676475 0.989924 0.168538
593 1 0.661538 0.504202 0.334686
163 1 0.744631 0.998457 0.423135
439 1 0.258118 0.50954 0.0859285
527 1 0.912773 0.506848 0.249767
515 1 0.429039 0.523377 0.233226
95 1 0.923982 0.996151 0.263218
583 1 0.251499 0.517659 0.422376
165 1 0.832995 0.985918 0.329033
151 1 0.259019 0.973087 0.421467
497 1 0.662526 0.83517 0.00486404
85 1 0.492929 0.990824 0.156053
435 1 0.0932493 0.50503 0.0898412
525 1 0.83441 0.502422 0.167464
470 1 0.592684 0.750258 0.00220019
498 1 0.753257 0.918621 0.00140649
658 1 0.42668 0.588912 0.496756
706 1 0.417216 0.916785 0.48818
681 1 0.337374 0.662444 0.497961
434 1 0.0752744 0.567078 0.0028644
674 1 0.0829 0.758259 0.491374
682 1 0.413978 0.753092 0.492509
653 1 0.176035 0.500782 0.496121
494 1 0.577296 0.921575 0.00172577
666 1 0.745952 0.585872 0.483254
670 1 0.909293 0.601849 0.498782
458 1 0.0776794 0.740186 0.00108133
9 1 0.331365 0.993065 0.00261607
438 1 0.253054 0.58973 0.00646644
652 1 9.47508e-05 0.588067 0.586889
675 1 0.0781654 0.666654 0.577168
656 1 0.169305 0.599765 0.59314
749 1 0.174696 0.676149 0.672416
217 1 0.991235 0.986934 0.510412
726 1 0.266657 0.593424 0.678624
679 1 0.252993 0.662231 0.57871
660 1 0.345776 0.576848 0.59392
683 1 0.422627 0.667595 0.611216
730 1 0.418297 0.572832 0.673241
227 1 0.420511 0.999445 0.573983
664 1 0.49762 0.588683 0.580425
687 1 0.574335 0.671343 0.590003
668 1 0.66295 0.578641 0.589753
807 1 0.583043 0.50319 0.925619
713 1 0.680169 0.831339 0.520681
672 1 0.827092 0.571837 0.568781
765 1 0.819271 0.654248 0.666461
365 1 0.167794 0.995936 0.826417
742 1 0.912647 0.559919 0.666918
864 1 0.828333 0.911658 0.911926
659 1 0.429553 0.501256 0.585017
676 1 0.00611038 0.754707 0.579438
699 1 0.0897977 0.819159 0.590992
745 1 0.000103711 0.670446 0.668997
769 1 0.000259844 0.830101 0.660311
680 1 0.167896 0.741597 0.59028
703 1 0.269433 0.839655 0.588943
684 1 0.332035 0.743232 0.578617
773 1 0.175956 0.844403 0.665078
655 1 0.252218 0.504188 0.595049
688 1 0.49927 0.746429 0.60708
781 1 0.501242 0.833327 0.67417
305 1 0.671554 0.993509 0.666238
758 1 0.581478 0.750583 0.671485
692 1 0.664168 0.738602 0.576802
691 1 0.743956 0.645059 0.579534
715 1 0.776402 0.830611 0.589672
762 1 0.743627 0.737683 0.667591
696 1 0.828014 0.740093 0.601352
221 1 0.177629 0.99423 0.503604
695 1 0.904744 0.660388 0.596413
789 1 0.841392 0.838857 0.680451
766 1 0.910133 0.745494 0.670008
719 1 0.921424 0.833295 0.601085
770 1 0.0714277 0.933665 0.672574
700 1 0.0073104 0.899432 0.579018
701 1 0.181258 0.837084 0.521146
704 1 0.165707 0.919924 0.59916
708 1 0.352636 0.901604 0.593059
686 1 0.571017 0.756122 0.52181
707 1 0.421757 0.812803 0.586237
778 1 0.425736 0.916135 0.668259
729 1 0.335544 0.508389 0.671633
369 1 0.321509 0.988971 0.813692
712 1 0.508306 0.915997 0.57986
711 1 0.589257 0.834085 0.59864
716 1 0.680189 0.917539 0.588686
782 1 0.592881 0.91728 0.666507
702 1 0.256161 0.912588 0.511666
720 1 0.844001 0.921647 0.595993
733 1 0.498909 0.508882 0.675573
786 1 0.754088 0.916285 0.665143
805 1 0.503885 0.513286 0.834586
219 1 0.0817819 0.982238 0.573329
718 1 0.920577 0.916451 0.52209
490 1 0.414642 0.931541 0.994241
737 1 0.664094 0.50589 0.66637
790 1 0.923181 0.916776 0.67206
698 1 0.0941927 0.906833 0.509112
727 1 0.257146 0.502646 0.742855
722 1 0.0754621 0.587133 0.676784
728 1 0.168502 0.572637 0.756402
747 1 0.0760218 0.666186 0.747916
753 1 0.343688 0.671566 0.680178
650 1 0.0706676 0.569709 0.504218
798 1 0.246836 0.581319 0.836483
735 1 0.579574 0.509332 0.753365
654 1 0.255385 0.588785 0.511907
757 1 0.507755 0.664734 0.677553
732 1 0.342859 0.575796 0.769214
736 1 0.492509 0.590073 0.76849
755 1 0.422607 0.664941 0.749063
761 1 0.65809 0.663844 0.654548
734 1 0.57308 0.587168 0.664894
740 1 0.665981 0.581424 0.747427
806 1 0.577508 0.593964 0.823714
738 1 0.744014 0.581985 0.672896
724 1 0.98376 0.580831 0.746225
744 1 0.828104 0.584317 0.741277
767 1 0.904112 0.653707 0.731983
814 1 0.899903 0.572428 0.820045
693 1 0.815482 0.667892 0.501523
817 1 0.995153 0.653183 0.832917
746 1 0.08466 0.750597 0.677956
818 1 0.0718132 0.751826 0.81875
841 1 0.991355 0.819166 0.834141
750 1 0.256788 0.758257 0.664913
752 1 0.16732 0.76594 0.758985
751 1 0.263585 0.681739 0.739701
756 1 0.334315 0.75315 0.753091
845 1 0.169455 0.839261 0.833141
821 1 0.17141 0.657032 0.814048
754 1 0.415657 0.744449 0.674454
777 1 0.346649 0.836076 0.672215
826 1 0.421703 0.748285 0.817846
779 1 0.427801 0.82833 0.750563
759 1 0.589953 0.660731 0.744609
760 1 0.524898 0.751289 0.768594
764 1 0.656775 0.757171 0.753132
785 1 0.678412 0.835534 0.66339
833 1 0.67949 0.685178 0.848042
857 1 0.666224 0.845479 0.854296
763 1 0.739808 0.669635 0.76197
787 1 0.75216 0.82506 0.74353
837 1 0.832415 0.678453 0.831502
768 1 0.826568 0.750168 0.749743
861 1 0.838188 0.839159 0.823647
748 1 0.991006 0.734346 0.74701
838 1 0.909429 0.737666 0.846509
771 1 0.0796893 0.837374 0.734109
772 1 0.00716585 0.927915 0.748594
377 1 0.652772 0.991218 0.828422
774 1 0.261759 0.919632 0.669422
775 1 0.253795 0.841301 0.753636
776 1 0.17122 0.931553 0.74032
780 1 0.345167 0.923246 0.730795
465 1 0.332502 0.671753 0.983167
850 1 0.437683 0.921454 0.818613
784 1 0.506546 0.907142 0.741409
859 1 0.752137 0.842142 0.917278
783 1 0.586803 0.840138 0.749292
854 1 0.580046 0.914835 0.829356
835 1 0.753082 0.683093 0.919748
788 1 0.680845 0.90927 0.750765
858 1 0.751365 0.920502 0.832135
846 1 0.246725 0.90986 0.834059
791 1 0.916983 0.834223 0.749126
792 1 0.822222 0.927684 0.751741
862 1 0.916989 0.91672 0.830435
860 1 0.661926 0.930798 0.916801
731 1 0.418588 0.506528 0.768561
794 1 0.0821838 0.572001 0.81682
796 1 0.00126917 0.580525 0.924964
685 1 0.511931 0.677509 0.500475
375 1 0.579396 0.999538 0.923665
462 1 0.240709 0.759151 0.988764
800 1 0.174248 0.571245 0.929622
823 1 0.242468 0.663199 0.906336
804 1 0.328205 0.578165 0.924778
825 1 0.323296 0.65985 0.832785
802 1 0.415936 0.583416 0.844362
829 1 0.501903 0.665421 0.842781
856 1 0.499255 0.920786 0.906094
831 1 0.582846 0.666999 0.919121
855 1 0.577094 0.837892 0.929599
808 1 0.4941 0.572994 0.92062
812 1 0.668772 0.577314 0.915089
840 1 0.834104 0.746853 0.919247
830 1 0.586735 0.74731 0.847835
863 1 0.928236 0.827003 0.925792
852 1 0.312667 0.916969 0.921072
848 1 0.152013 0.921656 0.902492
810 1 0.753202 0.58403 0.829208
466 1 0.406971 0.756953 0.997631
844 1 0.993352 0.919258 0.913252
834 1 0.758212 0.768664 0.841588
816 1 0.832998 0.595665 0.923173
839 1 0.925734 0.662236 0.943206
819 1 0.0897619 0.645337 0.895364
820 1 2.9297e-05 0.73754 0.902362
843 1 0.0890102 0.808595 0.919226
851 1 0.416796 0.846882 0.913108
824 1 0.157304 0.732172 0.891513
847 1 0.234247 0.837075 0.915909
822 1 0.252954 0.752055 0.833645
828 1 0.32854 0.782751 0.911685
853 1 0.518827 0.831828 0.835805
832 1 0.479602 0.748741 0.913041
827 1 0.405763 0.67913 0.900204
849 1 0.345569 0.863282 0.833611
842 1 0.0692554 0.889572 0.842284
836 1 0.670913 0.759035 0.919145
225 1 0.334449 0.98989 0.500292
231 1 0.58448 0.991043 0.582296
714 1 0.758629 0.921462 0.506413
295 1 0.247208 0.997167 0.744631
710 1 0.596225 0.913461 0.510766
678 1 0.250558 0.749895 0.505342
301 1 0.503066 0.998035 0.661392
651 1 0.0827148 0.504025 0.602885
657 1 0.341372 0.519181 0.501391
661 1 0.503854 0.505234 0.508958
381 1 0.837999 0.99683 0.827215
671 1 0.921399 0.509879 0.565636
469 1 0.494515 0.662135 0.988674
223 1 0.259066 0.988344 0.585918
371 1 0.411019 0.993727 0.897494
311 1 0.910553 0.993161 0.747735
809 1 0.662086 0.500665 0.836858
690 1 0.746781 0.74158 0.506647
486 1 0.229928 0.915608 0.980834
662 1 0.584961 0.59634 0.509812
474 1 0.75833 0.755824 0.999295
450 1 0.740044 0.586735 0.984871
502 1 0.92141 0.912467 0.997712
446 1 0.58887 0.58556 0.994799
489 1 0.320388 0.835347 0.999038
677 1 0.173394 0.670279 0.50996
461 1 0.157276 0.66083 0.983501
697 1 0.990487 0.828826 0.504211
689 1 0.653721 0.670385 0.501838
709 1 0.48947 0.827069 0.515393
501 1 0.840019 0.821629 0.990729
485 1 0.151606 0.840885 0.999944
493 1 0.485149 0.838515 0.999392
694 1 0.924612 0.730422 0.519505
17 1 0.66574 0.996599 0.998502
482 1 0.0742161 0.934143 0.992909
473 1 0.668905 0.673698 0.998191
