ITEM: TIMESTEP
29600
ITEM: NUMBER OF ATOMS
864
ITEM: BOX BOUNDS pp pp pp
0.0000000000000000e+00 3.1559999999999999e+01
0.0000000000000000e+00 3.1559999999999999e+01
0.0000000000000000e+00 3.1559999999999999e+01
ITEM: ATOMS id type xs ys zs
27 1 0.0759909 0.135128 0.074319
213 1 0.833822 0.326877 0.322118
4 1 0.995935 0.0641065 0.0735757
241 1 0.994121 0.161576 0.493573
196 1 0.00984775 0.421811 0.418237
151 1 0.261307 0.0163519 0.413042
8 1 0.166704 0.0742108 0.0743741
31 1 0.238781 0.166497 0.0803513
214 1 0.913465 0.421975 0.343514
215 1 0.916664 0.339583 0.403469
12 1 0.337615 0.0724695 0.0794265
16 1 0.492394 0.0878286 0.0764759
20 1 0.663189 0.0934736 0.0764699
216 1 0.835285 0.42383 0.433312
226 1 0.408563 0.0723277 0.490864
22 1 0.912699 0.0843342 0.0173671
24 1 0.815633 0.081083 0.0780321
94 1 0.920427 0.0912344 0.164794
593 1 0.674284 0.492828 0.335634
591 1 0.581114 0.491781 0.426626
98 1 0.0821208 0.229816 0.16861
28 1 0.00422532 0.258474 0.0954631
91 1 0.759699 0.00951477 0.252007
32 1 0.161165 0.246827 0.0785616
36 1 0.335964 0.232271 0.0981138
101 1 0.182566 0.150685 0.164801
35 1 0.408481 0.163271 0.0839089
40 1 0.498709 0.257674 0.0836119
59 1 0.411506 0.350166 0.0852718
77 1 0.155103 8.20904e-05 0.160135
577 1 0.00377159 0.494227 0.34361
75 1 0.0972595 0.00200249 0.254319
39 1 0.580589 0.174418 0.0835731
44 1 0.65344 0.261621 0.0696135
43 1 0.746813 0.159933 0.0998114
48 1 0.840596 0.262207 0.0971734
67 1 0.750729 0.345392 0.093039
447 1 0.584005 0.495043 0.0763645
589 1 0.505433 0.497197 0.32365
97 1 0.996046 0.160085 0.149512
147 1 0.0834075 0.00602699 0.427818
47 1 0.917015 0.175186 0.0844933
118 1 0.921915 0.251344 0.179563
51 1 0.0926187 0.32576 0.0871123
52 1 0.0225317 0.418281 0.0958881
55 1 0.24042 0.327871 0.0902651
56 1 0.175027 0.425956 0.0924625
129 1 0.323426 0.334096 0.163372
126 1 0.250245 0.433598 0.182268
285 1 0.853225 0.326812 0.493585
60 1 0.301955 0.417189 0.0928647
130 1 0.410154 0.420425 0.187474
64 1 0.488286 0.426547 0.0953385
63 1 0.559956 0.353768 0.0760852
45 1 0.808095 0.173786 0.0109901
134 1 0.583841 0.410898 0.173046
211 1 0.733654 0.330947 0.425253
165 1 0.821161 0.0160055 0.339511
68 1 0.659961 0.41668 0.0832443
253 1 0.504654 0.142935 0.488649
72 1 0.85318 0.425963 0.0726658
25 1 0.989014 0.15585 0.0103417
210 1 0.758363 0.415973 0.331773
270 1 0.241709 0.413245 0.493035
11 1 0.424079 0.00746561 0.0718033
207 1 0.561513 0.335555 0.418037
250 1 0.419935 0.246038 0.491386
121 1 0.00166867 0.345377 0.18262
71 1 0.926966 0.333719 0.0789897
142 1 0.933695 0.421404 0.169453
2 1 0.0911394 0.0573244 0.00240025
205 1 0.509844 0.334966 0.327614
74 1 0.0754553 0.076123 0.160381
146 1 0.0908694 0.0861697 0.338117
80 1 0.165152 0.0856996 0.254194
78 1 0.246744 0.0611642 0.154504
84 1 0.333187 0.0629798 0.246616
212 1 0.652142 0.412023 0.414401
89 1 0.666379 0.00139759 0.167527
230 1 0.598334 0.0923241 0.491636
206 1 0.57877 0.419317 0.324257
105 1 0.307447 0.153076 0.162078
82 1 0.416774 0.0772801 0.164118
88 1 0.522543 0.0790214 0.243546
107 1 0.40339 0.172013 0.238321
109 1 0.491323 0.163471 0.168898
86 1 0.585737 0.0926159 0.158189
92 1 0.66512 0.0842804 0.235726
113 1 0.667964 0.178488 0.165241
19 1 0.737122 0.00414404 0.0906185
203 1 0.411086 0.3275 0.411074
85 1 0.508175 0.00547124 0.150547
90 1 0.752872 0.0786117 0.169549
115 1 0.751389 0.173711 0.243063
162 1 0.744119 0.0881041 0.321497
96 1 0.830293 0.093185 0.245383
76 1 0.99555 0.0742699 0.268748
119 1 0.925545 0.16031 0.242343
99 1 0.068584 0.149149 0.243999
104 1 0.157845 0.237023 0.246923
170 1 0.0897131 0.2388 0.334294
103 1 0.253317 0.158318 0.252956
102 1 0.242098 0.244852 0.163144
127 1 0.245381 0.322415 0.257193
108 1 0.322465 0.24477 0.251313
106 1 0.422557 0.254739 0.156648
112 1 0.483385 0.262589 0.25188
133 1 0.490714 0.336591 0.169292
110 1 0.58644 0.264335 0.165539
111 1 0.569561 0.180221 0.246392
135 1 0.59613 0.327767 0.254551
114 1 0.74558 0.269022 0.162832
116 1 0.670021 0.248147 0.260322
185 1 0.671199 0.164981 0.328918
117 1 0.833959 0.169299 0.159527
100 1 0.0166043 0.258794 0.248589
193 1 0.999198 0.34229 0.340247
120 1 0.836011 0.253463 0.250619
190 1 0.91795 0.257635 0.329315
189 1 0.827736 0.163671 0.330142
122 1 0.094097 0.408073 0.173319
197 1 0.173435 0.318248 0.341795
123 1 0.0859046 0.325695 0.266168
128 1 0.165633 0.410084 0.249197
194 1 0.0982401 0.420355 0.323209
204 1 0.33873 0.413903 0.432635
125 1 0.155794 0.317387 0.173474
198 1 0.246882 0.412234 0.34934
201 1 0.328215 0.333699 0.347494
132 1 0.320089 0.42503 0.25982
208 1 0.498859 0.416939 0.416287
131 1 0.397542 0.332899 0.246723
202 1 0.411456 0.416106 0.327553
587 1 0.426884 0.497941 0.410481
199 1 0.243259 0.328957 0.430596
137 1 0.671724 0.338508 0.172959
136 1 0.495786 0.405076 0.246506
139 1 0.755759 0.324614 0.254328
54 1 0.23652 0.407372 0.00464004
140 1 0.679226 0.423362 0.243238
138 1 0.757241 0.429582 0.161578
141 1 0.8395 0.338051 0.174896
124 1 0.00991291 0.422549 0.261839
144 1 0.841925 0.421027 0.249522
143 1 0.918891 0.34971 0.250541
171 1 0.0852776 0.167432 0.41516
169 1 0.989969 0.183304 0.32716
148 1 0.994247 0.0902076 0.413586
152 1 0.175863 0.0730159 0.416881
30 1 0.239674 0.244103 0.0016885
150 1 0.247638 0.0842275 0.334758
177 1 0.347439 0.163018 0.338083
451 1 0.759493 0.492002 0.0746003
161 1 0.676108 0.00913291 0.325264
192 1 0.832392 0.254084 0.415067
200 1 0.159936 0.431718 0.409452
154 1 0.42145 0.0721546 0.330932
156 1 0.335286 0.0858442 0.408481
46 1 0.91533 0.241697 0.000804981
160 1 0.51045 0.0755554 0.407489
158 1 0.598916 0.0801644 0.329829
525 1 0.84557 0.490638 0.16296
191 1 0.906347 0.168551 0.416238
164 1 0.678265 0.0838023 0.414913
187 1 0.750882 0.169892 0.428243
168 1 0.828141 0.0893352 0.419061
277 1 0.491666 0.33929 0.499274
521 1 0.659842 0.49521 0.159018
166 1 0.909321 0.0892911 0.335481
242 1 0.0668756 0.239871 0.498439
173 1 0.17087 0.17092 0.329431
195 1 0.0925632 0.335608 0.409742
172 1 0.00162482 0.259834 0.408505
176 1 0.169308 0.248155 0.431068
174 1 0.252932 0.248344 0.33773
175 1 0.255177 0.170223 0.416147
180 1 0.34144 0.242271 0.418483
34 1 0.401767 0.241834 0.00459659
186 1 0.752446 0.237055 0.338075
178 1 0.412751 0.242723 0.327611
179 1 0.411951 0.156477 0.419419
184 1 0.505543 0.247355 0.425047
585 1 0.335915 0.49903 0.337967
209 1 0.675984 0.351006 0.326154
15 1 0.594349 0.00150076 0.0888001
181 1 0.487416 0.161341 0.332498
182 1 0.574376 0.246723 0.33059
183 1 0.585212 0.156733 0.409854
188 1 0.659193 0.253091 0.417329
265 1 0.00429863 0.328098 0.486838
455 1 0.940727 0.497113 0.0773584
37 1 0.497588 0.168589 0.00181986
262 1 0.918602 0.250874 0.492943
42 1 0.751963 0.268298 0.00563571
527 1 0.923061 0.493468 0.262768
57 1 0.3241 0.330761 0.00984036
595 1 0.75141 0.489535 0.424535
286 1 0.925836 0.40563 0.487291
234 1 0.74064 0.0823633 0.497089
26 1 0.0789177 0.24188 0.00430683
41 1 0.672591 0.173708 0.0110871
10 1 0.41202 0.0917929 0.00141067
281 1 0.666287 0.328523 0.499465
257 1 0.663712 0.182613 0.496481
69 1 0.838879 0.332755 0.0108009
661 1 0.493642 0.497535 0.49907
249 1 0.327359 0.162537 0.498421
13 1 0.502997 0.00265803 0.0104829
14 1 0.575852 0.0935592 0.0129294
243 1 0.0895899 0.165343 0.57548
432 1 0.843811 0.417045 0.91468
220 1 0.985517 0.0681318 0.580001
313 1 0.00823769 0.153002 0.639001
53 1 0.155389 0.316703 0.999065
224 1 0.164524 0.0751316 0.578526
289 1 0.995675 0.00502433 0.660318
294 1 0.240779 0.0685128 0.671108
739 1 0.747261 0.495203 0.734529
228 1 0.338927 0.0813628 0.57626
298 1 0.421177 0.0905938 0.654199
232 1 0.494816 0.0857022 0.575071
325 1 0.497712 0.16808 0.663112
375 1 0.565703 0.00145214 0.907036
236 1 0.656413 0.0829042 0.589157
259 1 0.729067 0.175081 0.595712
412 1 0.988765 0.401056 0.919285
240 1 0.806358 0.0913676 0.589056
263 1 0.912735 0.183972 0.573083
333 1 0.827364 0.178677 0.647515
310 1 0.919394 0.096784 0.669396
291 1 0.0865451 0.000831953 0.755201
267 1 0.0917228 0.321282 0.583193
248 1 0.169143 0.234923 0.586498
244 1 0.00319031 0.250046 0.586586
238 1 0.909785 0.0834226 0.504315
247 1 0.243084 0.154346 0.6065
271 1 0.248208 0.334382 0.581908
252 1 0.349765 0.258845 0.584046
251 1 0.415348 0.164605 0.578898
256 1 0.493993 0.247955 0.578824
361 1 0.00165431 0.00354515 0.830915
363 1 0.0698533 0.00440152 0.915676
255 1 0.583072 0.174064 0.575187
279 1 0.584587 0.339923 0.585733
260 1 0.667767 0.25432 0.582425
330 1 0.747972 0.253264 0.67821
264 1 0.834532 0.255922 0.574882
287 1 0.919125 0.329837 0.583107
334 1 0.927838 0.243302 0.663835
809 1 0.654563 0.495247 0.828339
278 1 0.579949 0.419362 0.518112
272 1 0.177702 0.417044 0.5787
276 1 0.330988 0.409497 0.576228
235 1 0.734004 0.00698203 0.594072
275 1 0.415538 0.338028 0.583269
815 1 0.917583 0.497335 0.910815
245 1 0.180394 0.152877 0.503175
299 1 0.40964 0.00191105 0.737813
280 1 0.49845 0.422056 0.59782
350 1 0.594754 0.405569 0.668816
743 1 0.920603 0.488367 0.749703
283 1 0.739474 0.33414 0.573191
284 1 0.665279 0.423684 0.58844
288 1 0.844231 0.406427 0.575938
246 1 0.257532 0.245767 0.508576
274 1 0.410706 0.428258 0.505334
379 1 0.740403 0.00519849 0.908815
733 1 0.515984 0.490049 0.677397
268 1 0.0056498 0.392953 0.57432
303 1 0.580432 0.00693947 0.758975
426 1 0.749535 0.422845 0.828263
222 1 0.250003 0.0706143 0.509543
290 1 0.0857293 0.0735158 0.668771
292 1 0.00775892 0.0837889 0.748557
315 1 0.0757561 0.157523 0.737995
385 1 0.98852 0.153156 0.833513
296 1 0.156905 0.0789924 0.755564
319 1 0.256108 0.174216 0.73346
300 1 0.331956 0.0835806 0.740725
61 1 0.502128 0.330939 0.985973
370 1 0.413364 0.0807545 0.836412
369 1 0.339812 0.00530679 0.819759
329 1 0.646072 0.167539 0.672046
304 1 0.490375 0.07988 0.739703
302 1 0.576781 0.0927997 0.664171
374 1 0.578872 0.0866347 0.83422
308 1 0.658034 0.0804377 0.751268
306 1 0.729283 0.0847633 0.673607
62 1 0.568834 0.42305 0.991298
331 1 0.748584 0.16475 0.739944
405 1 0.823247 0.16426 0.84942
378 1 0.733421 0.0847406 0.837075
801 1 0.307822 0.493032 0.840205
312 1 0.826133 0.0848719 0.74534
335 1 0.904917 0.162742 0.761061
382 1 0.900987 0.0771522 0.840227
314 1 0.0671967 0.244502 0.671938
341 1 0.173756 0.333672 0.672729
337 1 0.994846 0.32668 0.667036
316 1 0.996092 0.247412 0.749322
413 1 0.157246 0.320821 0.824234
386 1 0.0674686 0.230139 0.836132
339 1 0.0873833 0.318499 0.74755
317 1 0.155932 0.162951 0.658509
320 1 0.160189 0.249877 0.739798
318 1 0.258627 0.244352 0.646351
324 1 0.326981 0.251171 0.738196
343 1 0.254461 0.341005 0.753297
323 1 0.412139 0.163136 0.742224
321 1 0.341419 0.165549 0.650308
322 1 0.423115 0.257299 0.671629
345 1 0.329206 0.328036 0.666312
394 1 0.404975 0.262562 0.826845
326 1 0.565554 0.24921 0.669682
328 1 0.488889 0.248407 0.753635
327 1 0.571451 0.167875 0.750527
351 1 0.591791 0.314412 0.753031
332 1 0.661811 0.240488 0.741719
402 1 0.737283 0.25341 0.824861
336 1 0.84308 0.241174 0.746399
355 1 0.741871 0.336164 0.762327
357 1 0.846024 0.325319 0.675056
425 1 0.653043 0.325328 0.834439
409 1 0.98854 0.327675 0.836437
359 1 0.919342 0.335279 0.749685
406 1 0.903974 0.25019 0.830248
429 1 0.834661 0.337961 0.831837
422 1 0.576431 0.416711 0.831743
338 1 0.0861329 0.407432 0.660024
410 1 0.0833873 0.404867 0.825856
340 1 0.0170823 0.424224 0.740097
344 1 0.160809 0.424693 0.744508
342 1 0.256873 0.411671 0.666772
797 1 0.152494 0.497873 0.83026
347 1 0.407735 0.342092 0.750994
348 1 0.325164 0.418585 0.763902
346 1 0.410031 0.414917 0.659078
418 1 0.410763 0.421625 0.836991
421 1 0.481777 0.347119 0.828213
424 1 0.484092 0.420165 0.913904
417 1 0.321173 0.345428 0.844749
349 1 0.5021 0.341395 0.675499
352 1 0.488292 0.419837 0.757279
356 1 0.66256 0.429226 0.754446
659 1 0.414524 0.499292 0.582016
353 1 0.670229 0.326605 0.666874
354 1 0.766908 0.389491 0.664117
360 1 0.836243 0.413887 0.741887
731 1 0.408981 0.499113 0.74889
411 1 0.0757719 0.31916 0.897442
430 1 0.924785 0.423519 0.828215
358 1 0.932331 0.418823 0.654148
428 1 0.661393 0.416667 0.898928
793 1 0.00480492 0.49599 0.833312
362 1 0.0821291 0.0862777 0.841932
364 1 0.988509 0.0764399 0.912023
387 1 0.0729169 0.162672 0.923703
366 1 0.234364 0.0867052 0.833008
368 1 0.164171 0.0698494 0.921683
372 1 0.338217 0.0788074 0.921883
389 1 0.149495 0.166064 0.821645
261 1 0.81972 0.169985 0.514615
416 1 0.155579 0.400186 0.917918
414 1 0.234277 0.411138 0.842621
376 1 0.505236 0.092639 0.910769
401 1 0.652656 0.170539 0.855454
729 1 0.331107 0.493111 0.658885
305 1 0.651585 0.00351528 0.662
380 1 0.664744 0.086768 0.937486
651 1 0.0787387 0.499424 0.604073
420 1 0.315545 0.415295 0.926403
6 1 0.249523 0.082336 0.999616
408 1 0.814278 0.243728 0.91759
384 1 0.826763 0.0925321 0.932251
297 1 0.335795 0.0142175 0.664104
392 1 0.157317 0.239598 0.903933
388 1 0.993506 0.248234 0.918897
18 1 0.750171 0.0860873 0.999612
390 1 0.258336 0.242257 0.828679
66 1 0.758922 0.419471 0.981219
391 1 0.255361 0.176261 0.912837
396 1 0.326318 0.268459 0.930953
415 1 0.22823 0.314854 0.922479
741 1 0.83443 0.498263 0.665974
266 1 0.0950356 0.420332 0.50528
393 1 0.338815 0.168499 0.821248
397 1 0.478791 0.16922 0.824229
419 1 0.408739 0.338443 0.93602
395 1 0.413965 0.151661 0.918184
398 1 0.580484 0.251303 0.843596
400 1 0.485769 0.242695 0.920241
423 1 0.576479 0.344519 0.913118
399 1 0.577206 0.165532 0.924727
403 1 0.730936 0.173252 0.919169
427 1 0.750217 0.339607 0.91071
404 1 0.657157 0.25928 0.931156
431 1 0.898982 0.32416 0.931694
301 1 0.509037 0.00694013 0.672566
407 1 0.912708 0.16122 0.929837
50 1 0.0867374 0.407469 0.99477
811 1 0.760087 0.493529 0.90887
367 1 0.260869 0.00403672 0.896511
669 1 0.842175 0.491555 0.509725
29 1 0.155105 0.155287 0.998026
237 1 0.820152 0.0142475 0.505443
795 1 0.0822918 0.486871 0.924605
49 1 0.00967983 0.340128 0.999336
665 1 0.647054 0.499396 0.508646
218 1 0.0643008 0.0795727 0.504996
273 1 0.333341 0.330077 0.502625
70 1 0.919877 0.421516 0.992687
258 1 0.754992 0.247594 0.503764
33 1 0.323414 0.169607 0.999422
649 1 0.00904769 0.481749 0.51762
58 1 0.400329 0.422903 0.999576
17 1 0.66875 0.00146944 0.999813
254 1 0.583355 0.260966 0.514218
38 1 0.579786 0.250761 0.991377
282 1 0.738351 0.430126 0.512323
9 1 0.341201 0.000852476 0.991256
65 1 0.653261 0.347199 0.992802
269 1 0.16299 0.32947 0.501334
440 1 0.151802 0.585635 0.0803739
436 1 0.999846 0.588567 0.0848802
509 1 0.162788 0.515546 0.177607
529 1 0.994888 0.656462 0.167205
510 1 0.24268 0.600359 0.182975
581 1 0.171167 0.515145 0.342559
444 1 0.322928 0.591264 0.11489
448 1 0.49946 0.569445 0.0787987
467 1 0.434367 0.645594 0.0915155
149 1 0.164511 0.993645 0.342448
452 1 0.666698 0.57613 0.0791039
471 1 0.590803 0.674443 0.0916056
545 1 0.676241 0.6633 0.157878
446 1 0.584219 0.582523 0.00398591
522 1 0.754924 0.561105 0.159931
677 1 0.159421 0.673175 0.496585
456 1 0.847195 0.565636 0.0728194
526 1 0.923837 0.569867 0.160995
438 1 0.258911 0.585659 0.0120386
459 1 0.0797278 0.680285 0.079419
483 1 0.085658 0.828965 0.0830939
530 1 0.0729841 0.749163 0.153405
553 1 0.99323 0.833398 0.168655
95 1 0.926762 0.997556 0.249353
463 1 0.260989 0.682907 0.0892736
464 1 0.176622 0.755869 0.0810162
534 1 0.264172 0.75684 0.168602
487 1 0.264924 0.836953 0.078779
557 1 0.153518 0.833072 0.177838
533 1 0.170373 0.685489 0.155882
468 1 0.364817 0.735254 0.0809362
538 1 0.429599 0.739374 0.165784
472 1 0.508257 0.751511 0.0735503
491 1 0.424856 0.843201 0.0849417
511 1 0.236747 0.505082 0.264445
640 1 0.502465 0.926609 0.401404
541 1 0.511391 0.658578 0.168288
542 1 0.56864 0.760363 0.161495
476 1 0.679462 0.741942 0.0912474
495 1 0.602443 0.825496 0.0795777
475 1 0.755551 0.663121 0.0743353
465 1 0.352626 0.668044 0.00294648
499 1 0.7619 0.837963 0.0818078
546 1 0.760512 0.731871 0.171974
573 1 0.835612 0.836867 0.161948
549 1 0.858605 0.650242 0.175407
460 1 0.997695 0.753616 0.0831615
479 1 0.910876 0.654621 0.083735
480 1 0.832619 0.737993 0.0923342
503 1 0.920021 0.839059 0.0836377
550 1 0.920876 0.74959 0.162249
3 1 0.085531 0.976467 0.0885325
484 1 0.00267963 0.904798 0.0839004
488 1 0.173367 0.895325 0.0923279
492 1 0.349387 0.922071 0.0977621
599 1 0.925289 0.500071 0.423999
496 1 0.513388 0.911695 0.0784143
83 1 0.442283 0.997114 0.247487
628 1 0.00385737 0.883572 0.406401
167 1 0.903342 0.996383 0.433991
500 1 0.678225 0.915358 0.0903942
570 1 0.764593 0.927925 0.168323
674 1 0.0787468 0.761923 0.49329
437 1 0.166817 0.504481 0.00722312
155 1 0.416988 0.998249 0.39997
79 1 0.233451 0.999083 0.249773
504 1 0.841113 0.907183 0.0836939
506 1 0.0813905 0.596104 0.163226
512 1 0.166587 0.599296 0.259989
578 1 0.0813207 0.589842 0.331174
632 1 0.17856 0.916041 0.416648
163 1 0.752307 0.996296 0.422115
461 1 0.169644 0.664238 0.0045167
516 1 0.34094 0.586856 0.253952
535 1 0.266577 0.680279 0.258619
229 1 0.497147 0.999563 0.4961
537 1 0.344335 0.66788 0.186731
153 1 0.341322 0.987697 0.325071
514 1 0.426274 0.576714 0.174018
520 1 0.507441 0.582671 0.251772
539 1 0.422721 0.668371 0.24671
586 1 0.402912 0.593833 0.339694
518 1 0.58923 0.578083 0.158917
590 1 0.598113 0.57645 0.327645
613 1 0.500856 0.659724 0.338052
543 1 0.596121 0.666175 0.262639
597 1 0.852667 0.515155 0.343749
524 1 0.658082 0.580544 0.235521
594 1 0.755785 0.5802 0.340634
87 1 0.598567 0.985288 0.249878
528 1 0.832354 0.573742 0.256147
508 1 0.000764184 0.589318 0.256623
551 1 0.928514 0.671675 0.263486
604 1 0.994207 0.760837 0.410523
531 1 0.095747 0.696762 0.233789
601 1 0.00506851 0.675528 0.327972
555 1 0.0836333 0.837381 0.262142
561 1 0.348982 0.823131 0.157154
536 1 0.168452 0.768126 0.267078
559 1 0.259554 0.84066 0.248805
540 1 0.336079 0.756362 0.26182
565 1 0.5049 0.841972 0.157117
563 1 0.435221 0.816882 0.249433
633 1 0.328952 0.835515 0.336841
569 1 0.68223 0.838447 0.16396
544 1 0.511449 0.72747 0.260142
567 1 0.598875 0.819712 0.255946
641 1 0.67048 0.830277 0.337344
547 1 0.747501 0.655701 0.246891
621 1 0.836982 0.648253 0.334321
548 1 0.670556 0.74248 0.244094
552 1 0.841193 0.72958 0.247989
571 1 0.757717 0.842934 0.245628
618 1 0.761929 0.744835 0.325271
532 1 0.00748173 0.748665 0.242748
622 1 0.912126 0.755788 0.338309
575 1 0.915601 0.82687 0.250821
710 1 0.570243 0.930039 0.491533
554 1 0.0907409 0.916616 0.169371
626 1 0.0887172 0.910326 0.342086
556 1 0.00923435 0.905023 0.245378
625 1 0.997205 0.822439 0.315608
505 1 0.00586502 0.501171 0.172154
558 1 0.241796 0.923166 0.170036
560 1 0.162715 0.912657 0.252332
564 1 0.338028 0.905365 0.243773
583 1 0.25024 0.50868 0.423891
562 1 0.432587 0.919386 0.179482
568 1 0.523758 0.919503 0.245032
623 1 0.908158 0.665915 0.426352
566 1 0.604546 0.902008 0.168805
685 1 0.50158 0.67351 0.494022
642 1 0.750484 0.924292 0.327694
645 1 0.83695 0.840955 0.320719
572 1 0.671208 0.912376 0.257421
576 1 0.830676 0.928419 0.252426
93 1 0.844417 0.996825 0.165243
574 1 0.911539 0.910133 0.180791
646 1 0.92009 0.912101 0.338692
517 1 0.515318 0.504265 0.177114
580 1 0.00428798 0.595538 0.422638
584 1 0.140661 0.594852 0.415859
145 1 0.000566478 0.994846 0.362371
619 1 0.749417 0.668165 0.421512
582 1 0.260765 0.584335 0.333895
643 1 0.752214 0.833033 0.402192
609 1 0.337325 0.667172 0.334933
654 1 0.24078 0.588649 0.490269
607 1 0.239643 0.653338 0.404163
217 1 0.992012 0.995275 0.496785
588 1 0.334099 0.587451 0.429484
611 1 0.415846 0.67616 0.416656
644 1 0.670986 0.921641 0.41366
592 1 0.50411 0.578258 0.409108
615 1 0.581528 0.65889 0.414088
596 1 0.655945 0.572571 0.423264
630 1 0.260142 0.921572 0.325123
620 1 0.672709 0.742712 0.415788
617 1 0.684828 0.66832 0.324138
600 1 0.844983 0.577093 0.419624
624 1 0.832229 0.740777 0.410577
648 1 0.83846 0.920256 0.406228
598 1 0.930492 0.583404 0.346193
682 1 0.422345 0.752483 0.488035
157 1 0.513906 0.994655 0.326084
639 1 0.572663 0.848794 0.419572
647 1 0.90189 0.828218 0.42535
602 1 0.0789824 0.744303 0.333122
605 1 0.168151 0.682437 0.337618
629 1 0.182181 0.841411 0.345931
603 1 0.0696252 0.678319 0.422154
627 1 0.0834597 0.821851 0.394675
634 1 0.435576 0.910509 0.306013
638 1 0.592477 0.904546 0.327381
606 1 0.253395 0.757334 0.343003
608 1 0.162225 0.758756 0.42082
631 1 0.256968 0.835298 0.428874
610 1 0.419479 0.743107 0.332709
635 1 0.422576 0.844408 0.409668
612 1 0.345131 0.76072 0.409728
616 1 0.496871 0.755139 0.406361
637 1 0.52078 0.827504 0.337237
614 1 0.589737 0.744722 0.350543
636 1 0.332432 0.921889 0.427413
7 1 0.251073 0.986742 0.0786979
507 1 0.0881268 0.508003 0.261274
435 1 0.0879359 0.508719 0.0872657
81 1 0.343623 0.99012 0.17672
579 1 0.0794096 0.502652 0.421434
498 1 0.759027 0.919428 0.00753665
443 1 0.401205 0.509389 0.0953925
666 1 0.747501 0.571855 0.494065
686 1 0.595472 0.746315 0.497563
73 1 0.998252 0.989294 0.163312
23 1 0.92091 0.983497 0.075504
523 1 0.751465 0.50449 0.267746
233 1 0.670079 0.993534 0.4988
159 1 0.59313 0.995754 0.40113
513 1 0.339064 0.502099 0.183607
439 1 0.250333 0.513667 0.0923732
519 1 0.599433 0.503296 0.24794
698 1 0.0771844 0.909509 0.482657
515 1 0.420057 0.510301 0.254077
681 1 0.332438 0.674403 0.490606
442 1 0.407838 0.579144 0.00855757
717 1 0.821444 0.825199 0.496186
21 1 0.836144 0.991017 0.0040106
474 1 0.748234 0.74843 0.0121655
493 1 0.498764 0.839311 0.00464033
490 1 0.41712 0.923766 0.00981004
486 1 0.26808 0.91073 0.00536433
473 1 0.682826 0.660833 0.00432971
489 1 0.354132 0.841058 0.000983511
501 1 0.840816 0.822269 0.00570494
705 1 0.346274 0.835996 0.496831
690 1 0.741931 0.744107 0.499142
678 1 0.247005 0.737436 0.480083
470 1 0.603178 0.749146 0.00974929
494 1 0.578127 0.929166 0.00175291
466 1 0.435145 0.750845 0.000344422
497 1 0.677815 0.84913 0.00378356
706 1 0.415442 0.928056 0.488444
657 1 0.325867 0.506728 0.492935
225 1 0.324414 0.998914 0.497311
462 1 0.266048 0.745587 0.00627727
656 1 0.166619 0.593869 0.575464
722 1 0.0934826 0.590057 0.671963
307 1 0.732209 0.999875 0.738757
679 1 0.241509 0.678521 0.585104
660 1 0.337737 0.595525 0.564585
753 1 0.32864 0.687995 0.660109
803 1 0.392676 0.503106 0.907579
311 1 0.928197 0.99797 0.749591
664 1 0.501537 0.574953 0.586354
683 1 0.424463 0.674819 0.573453
293 1 0.144823 0.986936 0.656503
365 1 0.167324 0.994659 0.847969
668 1 0.663308 0.581634 0.585205
687 1 0.577133 0.666099 0.575217
449 1 0.680164 0.504763 0.988178
723 1 0.0861583 0.503748 0.740947
477 1 0.830105 0.667923 0.979636
738 1 0.751877 0.589949 0.664473
231 1 0.587021 0.993691 0.575937
667 1 0.750217 0.506343 0.591569
652 1 0.996778 0.58689 0.587158
672 1 0.840561 0.58626 0.602927
841 1 0.000211927 0.841205 0.83269
239 1 0.916485 0.985995 0.583298
675 1 0.0759859 0.680423 0.576442
676 1 0.00661097 0.757526 0.585984
746 1 0.0819732 0.76084 0.656085
773 1 0.159772 0.841207 0.670878
680 1 0.17023 0.766678 0.571017
703 1 0.26293 0.835076 0.564711
684 1 0.348739 0.750258 0.571219
754 1 0.414291 0.752235 0.665216
688 1 0.501921 0.755094 0.586629
781 1 0.5005 0.83149 0.665999
707 1 0.420852 0.842613 0.579092
777 1 0.342373 0.833389 0.670682
714 1 0.748783 0.923495 0.506564
219 1 0.0846688 0.992795 0.570335
713 1 0.663048 0.84725 0.505609
799 1 0.234799 0.504593 0.920222
711 1 0.586174 0.830804 0.581803
692 1 0.666206 0.760093 0.57758
691 1 0.742631 0.668222 0.593316
696 1 0.83069 0.746093 0.579111
655 1 0.25916 0.51049 0.570458
765 1 0.824197 0.667476 0.678309
762 1 0.737445 0.760644 0.666351
695 1 0.928757 0.66713 0.585683
719 1 0.910901 0.828983 0.578445
766 1 0.910023 0.743961 0.668118
381 1 0.829622 0.984758 0.842721
699 1 0.0824538 0.83272 0.582576
371 1 0.423151 0.997324 0.919879
704 1 0.162712 0.911346 0.592918
708 1 0.338728 0.916349 0.587849
774 1 0.247177 0.918517 0.674128
844 1 0.0112054 0.917233 0.910737
864 1 0.829955 0.905979 0.930117
727 1 0.244295 0.502103 0.759445
373 1 0.501066 0.999888 0.829404
862 1 0.916911 0.923554 0.83907
694 1 0.899325 0.746527 0.500802
433 1 0.00197049 0.502909 0.996357
712 1 0.491141 0.9243 0.573263
782 1 0.57384 0.920987 0.648933
785 1 0.667028 0.834764 0.663765
716 1 0.660693 0.91013 0.588473
861 1 0.840661 0.826287 0.833525
670 1 0.918184 0.580243 0.501599
715 1 0.749474 0.844838 0.57891
789 1 0.834693 0.820944 0.659447
227 1 0.411018 0.99605 0.575941
383 1 0.904939 0.993533 0.925113
769 1 0.98982 0.82902 0.671503
700 1 0.998019 0.905483 0.576565
720 1 0.835088 0.917011 0.594181
805 1 0.502194 0.526142 0.834186
689 1 0.657396 0.655643 0.502995
726 1 0.257194 0.591687 0.653966
749 1 0.154889 0.679799 0.665345
728 1 0.177808 0.586702 0.739768
751 1 0.259941 0.668298 0.751353
732 1 0.3374 0.581205 0.733918
821 1 0.166358 0.67098 0.824654
721 1 0.00559414 0.507859 0.675779
858 1 0.755392 0.910276 0.83095
730 1 0.41161 0.59595 0.652518
755 1 0.401605 0.665136 0.756678
802 1 0.404322 0.58775 0.841458
734 1 0.579547 0.595012 0.666711
757 1 0.502592 0.676569 0.665444
736 1 0.4964 0.583667 0.734494
377 1 0.652076 0.999699 0.839354
860 1 0.668753 0.922144 0.925757
761 1 0.661922 0.672771 0.662054
740 1 0.659425 0.604334 0.749229
309 1 0.82749 0.98463 0.676959
724 1 0.996292 0.590389 0.757855
744 1 0.841738 0.582481 0.748019
837 1 0.843709 0.665365 0.834624
742 1 0.924264 0.600839 0.671291
767 1 0.916052 0.665178 0.756682
814 1 0.915505 0.572775 0.830216
817 1 0.00498981 0.680396 0.835412
854 1 0.586048 0.917975 0.831257
747 1 0.0829877 0.668077 0.753247
818 1 0.0846764 0.762271 0.831039
752 1 0.166913 0.750307 0.745842
771 1 0.0837492 0.827159 0.750981
750 1 0.245449 0.770385 0.65362
775 1 0.241952 0.8346 0.745446
822 1 0.244974 0.748612 0.829968
756 1 0.327986 0.746345 0.753591
779 1 0.431871 0.852328 0.755028
760 1 0.481455 0.75139 0.749289
825 1 0.317045 0.67529 0.837957
849 1 0.338539 0.834474 0.825088
759 1 0.577537 0.667515 0.755858
758 1 0.582582 0.746967 0.670131
783 1 0.576133 0.838861 0.737611
764 1 0.663018 0.754704 0.745196
763 1 0.7457 0.676929 0.747123
768 1 0.825272 0.763339 0.739584
834 1 0.752741 0.756695 0.821466
745 1 0.0118015 0.683764 0.672462
748 1 0.999461 0.76834 0.761534
671 1 0.92854 0.506399 0.599639
770 1 0.0731848 0.91017 0.665983
772 1 0.00646992 0.921835 0.756125
813 1 0.837939 0.502518 0.825494
776 1 0.162822 0.91909 0.750618
780 1 0.336182 0.921919 0.751009
855 1 0.583896 0.841425 0.934988
845 1 0.17078 0.839067 0.836214
846 1 0.239655 0.925343 0.833316
295 1 0.236034 0.999261 0.763308
778 1 0.432151 0.927362 0.66385
454 1 0.931896 0.583453 0.990559
850 1 0.428709 0.92498 0.833584
856 1 0.49293 0.915641 0.923384
693 1 0.833252 0.647456 0.508904
784 1 0.50351 0.919455 0.756113
788 1 0.640544 0.918361 0.743185
725 1 0.19221 0.508095 0.661628
786 1 0.741681 0.918088 0.67105
787 1 0.743715 0.838208 0.754303
790 1 0.929562 0.92075 0.670366
792 1 0.822172 0.902293 0.750631
791 1 0.908773 0.84467 0.74691
842 1 0.0944653 0.912536 0.826745
223 1 0.244514 0.993616 0.592808
857 1 0.654081 0.840274 0.841051
794 1 0.0815076 0.584079 0.820512
819 1 0.0933522 0.665957 0.918084
800 1 0.166821 0.578698 0.915324
458 1 0.0965679 0.755445 0.996041
798 1 0.246197 0.587906 0.844029
702 1 0.254529 0.920843 0.503545
457 1 0.0023597 0.668213 0.986375
827 1 0.42711 0.668365 0.919444
804 1 0.333575 0.595375 0.91818
838 1 0.919677 0.753732 0.837224
836 1 0.667423 0.745093 0.919674
829 1 0.490336 0.657791 0.819228
806 1 0.591299 0.589334 0.825983
808 1 0.502302 0.591862 0.922535
831 1 0.587182 0.656937 0.918106
840 1 0.816837 0.753843 0.911236
812 1 0.670117 0.585127 0.911809
810 1 0.758916 0.594039 0.822559
833 1 0.664384 0.66582 0.829994
835 1 0.743995 0.666695 0.912665
859 1 0.749223 0.836493 0.919427
848 1 0.18376 0.911197 0.922047
816 1 0.832656 0.566004 0.908868
796 1 0.000311623 0.574977 0.901564
852 1 0.347019 0.919598 0.917713
843 1 0.0930043 0.831171 0.914366
830 1 0.574117 0.753234 0.825697
820 1 0.0080644 0.751987 0.916359
839 1 0.921395 0.675544 0.901025
863 1 0.903872 0.819094 0.910631
823 1 0.255857 0.662742 0.924973
847 1 0.251738 0.834522 0.906045
824 1 0.170104 0.753218 0.905211
851 1 0.421505 0.834021 0.911621
826 1 0.409397 0.752864 0.832309
828 1 0.332484 0.750498 0.912055
853 1 0.507888 0.831478 0.843504
832 1 0.519824 0.743048 0.924655
662 1 0.576862 0.580362 0.500219
697 1 0.990643 0.833181 0.502377
807 1 0.578222 0.502892 0.917951
1 1 0.989496 0.992085 0.993947
445 1 0.495433 0.507718 0.988976
653 1 0.165844 0.507841 0.514585
737 1 0.660736 0.508895 0.672945
650 1 0.0783095 0.583471 0.508507
735 1 0.585065 0.510025 0.750351
663 1 0.581363 0.503185 0.585286
478 1 0.91084 0.738536 0.980589
221 1 0.172384 0.988059 0.505354
658 1 0.429596 0.581961 0.504322
673 1 0.998275 0.672095 0.5017
5 1 0.178144 0.988266 0.990895
453 1 0.832498 0.505078 0.993597
469 1 0.515862 0.657216 0.997159
481 1 0.999493 0.819457 0.994154
485 1 0.191669 0.825009 0.996302
482 1 0.0945483 0.913702 0.993645
441 1 0.323473 0.505376 0.997343
709 1 0.495972 0.830905 0.501647
450 1 0.758856 0.58979 0.992337
502 1 0.928026 0.897316 0.995902
718 1 0.911692 0.912123 0.500277
701 1 0.168335 0.84534 0.505131
434 1 0.0768707 0.576526 0.988877
