ITEM: TIMESTEP
6500
ITEM: NUMBER OF ATOMS
2048
ITEM: BOX BOUNDS pp pp pp
0.0000000000000000e+00 4.2079999999999998e+01
0.0000000000000000e+00 4.2079999999999998e+01
0.0000000000000000e+00 4.2079999999999998e+01
ITEM: ATOMS id type xs ys zs
23 1 0.694821 0.00778696 0.0490487
1169 1 0.504208 0.49589 0.137752
1553 1 0.513484 0.488404 0.495456
8 1 0.121738 0.0694713 0.0671181
633 1 0.751218 0.372104 0.498059
12 1 0.259858 0.0672631 0.0649782
131 1 0.065612 0.000977518 0.1917
43 1 0.317932 0.13265 0.0537802
16 1 0.377788 0.0723185 0.0590725
481 1 0.0161007 0.387526 0.367451
93 1 0.882177 0.255949 0.000609209
285 1 0.860733 0.00777742 0.25256
149 1 0.627142 0.00470904 0.112528
47 1 0.439883 0.130217 0.0566192
509 1 0.877425 0.37691 0.368839
20 1 0.500257 0.0618043 0.0652065
146 1 0.56316 0.0729403 0.12262
11 1 0.321081 0.00947579 0.0689505
24 1 0.618599 0.0594524 0.0587326
150 1 0.686154 0.0627397 0.118854
511 1 0.94136 0.379821 0.417949
1439 1 0.94146 0.498827 0.426781
1427 1 0.567423 0.49574 0.43014
1435 1 0.814759 0.49536 0.426135
28 1 0.745653 0.0600258 0.0561322
59 1 0.810976 0.12822 0.0613619
154 1 0.818881 0.0755841 0.12169
189 1 0.882327 0.136631 0.110998
510 1 0.942668 0.437773 0.367349
4 1 0.0034598 0.0673232 0.0677935
32 1 0.863404 0.0722199 0.0586141
610 1 0.0660191 0.44033 0.49716
1423 1 0.435013 0.490702 0.431697
35 1 0.059614 0.132525 0.0744045
40 1 0.135477 0.190114 0.0701984
197 1 0.13216 0.243111 0.129354
67 1 0.0694519 0.246561 0.0653136
162 1 0.0601324 0.176623 0.134738
39 1 0.19701 0.12419 0.0657029
71 1 0.196916 0.25387 0.0593234
44 1 0.248117 0.190983 0.0665536
75 1 0.303334 0.254006 0.0667852
48 1 0.369001 0.192877 0.0602641
52 1 0.495637 0.188281 0.0695172
1557 1 0.614599 0.495322 0.494249
590 1 0.434901 0.312688 0.494128
51 1 0.556839 0.132346 0.060021
83 1 0.559592 0.2515 0.0580428
178 1 0.564346 0.179706 0.121261
209 1 0.492222 0.254914 0.12001
122 1 0.819025 0.44172 0.00774661
129 1 0.999942 0.00702554 0.123137
155 1 0.811706 0.0152013 0.185828
56 1 0.627774 0.189681 0.059897
55 1 0.695287 0.129291 0.0643141
87 1 0.700039 0.244689 0.0659834
182 1 0.687087 0.184347 0.124341
60 1 0.754799 0.187183 0.0509258
186 1 0.813492 0.178122 0.127406
185 1 0.744496 0.122508 0.129817
1305 1 0.757065 0.49211 0.243809
147 1 0.579095 0.0114224 0.177765
63 1 0.937368 0.128264 0.0564277
36 1 6.75794e-05 0.178401 0.0618715
64 1 0.874628 0.19802 0.0588128
95 1 0.943125 0.241328 0.0513672
161 1 0.991506 0.117255 0.137228
225 1 0.0149355 0.36994 0.125819
99 1 0.0699739 0.366912 0.0583916
1039 1 0.432007 0.490911 0.0687525
137 1 0.24882 0.00223431 0.124435
72 1 0.135709 0.30583 0.0631193
103 1 0.185749 0.373193 0.0733146
233 1 0.257507 0.369685 0.125425
76 1 0.243681 0.313155 0.0666241
80 1 0.371012 0.311727 0.0648297
201 1 0.243517 0.24189 0.133916
79 1 0.430474 0.242864 0.0673427
206 1 0.42969 0.318469 0.122515
241 1 0.509158 0.369406 0.124702
153 1 0.750845 0.00745686 0.125156
618 1 0.308482 0.436782 0.485368
84 1 0.498232 0.305073 0.0564114
210 1 0.567752 0.305256 0.122863
115 1 0.562419 0.362506 0.056146
88 1 0.637854 0.310049 0.0758216
214 1 0.701002 0.305908 0.122603
92 1 0.748291 0.31747 0.0602822
271 1 0.440068 0.00560204 0.31974
91 1 0.816313 0.256045 0.0517204
96 1 0.874511 0.312566 0.0673893
68 1 0.00767846 0.305717 0.0547654
221 1 0.880629 0.248403 0.1203
281 1 0.757644 0.00810488 0.245935
226 1 0.0675695 0.426834 0.118033
100 1 0.990098 0.425068 0.0607186
3 1 0.0639291 0.000134244 0.064687
512 1 0.883184 0.429868 0.434723
121 1 0.739956 0.387189 0.00276108
573 1 0.873972 0.117405 0.496942
104 1 0.119372 0.433498 0.0584063
108 1 0.248632 0.430819 0.0590027
118 1 0.68472 0.445071 0.000591423
107 1 0.31384 0.37261 0.0612367
112 1 0.374423 0.43938 0.0469446
15 1 0.429575 0.0126663 0.0710807
111 1 0.446803 0.382551 0.0654772
116 1 0.504858 0.443508 0.0679039
2 1 0.0633621 0.0735825 0.00351837
245 1 0.623584 0.372729 0.133691
151 1 0.684217 0.00492446 0.187385
287 1 0.932419 0.00350549 0.309424
1425 1 0.512744 0.49892 0.36347
1181 1 0.883955 0.488981 0.133857
119 1 0.686974 0.372196 0.0614745
1437 1 0.875071 0.498682 0.367319
120 1 0.623584 0.444047 0.0613544
124 1 0.747533 0.44051 0.065087
508 1 0.744308 0.436971 0.438587
69 1 0.136846 0.249152 0.00470044
504 1 0.619515 0.438035 0.426447
249 1 0.754451 0.368884 0.128179
123 1 0.806358 0.380021 0.0682682
128 1 0.873525 0.43845 0.0653221
250 1 0.817364 0.431332 0.128508
279 1 0.699933 0.00197974 0.317166
127 1 0.947232 0.3547 0.064833
254 1 0.938734 0.426979 0.123542
86 1 0.683596 0.311784 0.00410847
130 1 0.0581681 0.0704458 0.125106
503 1 0.680897 0.381408 0.432882
136 1 0.116148 0.055313 0.182254
102 1 0.184575 0.433347 0.00639182
397 1 0.380173 0.00352437 0.377601
134 1 0.185866 0.0655999 0.12742
167 1 0.18862 0.11828 0.199592
297 1 0.251368 0.120027 0.258588
140 1 0.244826 0.0538908 0.187755
505 1 0.737668 0.375963 0.367538
1433 1 0.757038 0.492416 0.363789
169 1 0.247457 0.126812 0.136137
138 1 0.306393 0.0656832 0.128624
144 1 0.364528 0.0592071 0.195286
171 1 0.309805 0.111978 0.187701
139 1 0.315446 0.000412968 0.181941
177 1 0.501871 0.118588 0.127657
173 1 0.366898 0.126794 0.116142
1153 1 0.0081662 0.493615 0.115039
142 1 0.4364 0.0773727 0.122225
148 1 0.498824 0.0529988 0.185721
175 1 0.448887 0.125758 0.197919
270 1 0.432649 0.0578246 0.249185
7 1 0.185194 0.000882701 0.052207
274 1 0.564832 0.0640625 0.244762
152 1 0.629545 0.073986 0.175231
413 1 0.879592 0.000668232 0.380315
498 1 0.561202 0.427966 0.361317
183 1 0.689387 0.130565 0.19574
156 1 0.748292 0.0619798 0.185153
500 1 0.50829 0.425072 0.439671
494 1 0.433723 0.434027 0.365659
496 1 0.375212 0.43273 0.431964
313 1 0.747378 0.123462 0.255382
160 1 0.872775 0.0657615 0.191145
187 1 0.805758 0.12421 0.189912
282 1 0.80934 0.0669273 0.271736
158 1 0.933461 0.0677047 0.140333
132 1 0.990899 0.0545559 0.194786
286 1 0.927464 0.0757462 0.258491
163 1 0.0616536 0.118736 0.192212
195 1 0.0601122 0.25105 0.205667
165 1 0.124985 0.123865 0.127404
168 1 0.119777 0.196529 0.196579
166 1 0.180818 0.180217 0.139625
172 1 0.257029 0.177506 0.196922
205 1 0.364458 0.246634 0.128814
170 1 0.309311 0.185636 0.133223
176 1 0.382416 0.176839 0.187352
203 1 0.304536 0.242865 0.2032
174 1 0.44405 0.182935 0.131126
180 1 0.498459 0.194129 0.184056
207 1 0.438533 0.245355 0.180559
179 1 0.573144 0.126097 0.191384
211 1 0.56425 0.238543 0.183245
341 1 0.625394 0.246765 0.242833
337 1 0.50501 0.252358 0.259035
306 1 0.563828 0.192175 0.244098
181 1 0.630424 0.128948 0.113917
184 1 0.624944 0.185478 0.183174
310 1 0.686325 0.191105 0.245479
188 1 0.7443 0.187473 0.185174
215 1 0.691669 0.254221 0.184028
314 1 0.814825 0.189411 0.241275
192 1 0.873529 0.17861 0.193936
191 1 0.941829 0.123281 0.19958
190 1 0.937224 0.191314 0.136562
164 1 0.00547847 0.176452 0.192923
194 1 0.0655073 0.295961 0.129535
229 1 0.120148 0.365764 0.125966
200 1 0.125088 0.304475 0.184501
227 1 0.0647681 0.366043 0.192584
199 1 0.19046 0.260486 0.197762
198 1 0.188893 0.304954 0.121823
204 1 0.242462 0.315843 0.188634
231 1 0.187612 0.382123 0.186329
202 1 0.316793 0.313291 0.12388
235 1 0.321071 0.37464 0.180073
208 1 0.374044 0.296017 0.194179
334 1 0.43835 0.311006 0.25182
212 1 0.490565 0.308878 0.188707
216 1 0.617986 0.312514 0.185209
338 1 0.563517 0.313391 0.246962
243 1 0.55492 0.372059 0.191798
213 1 0.629976 0.252872 0.128727
342 1 0.680359 0.302818 0.247277
345 1 0.752227 0.251039 0.248775
373 1 0.623168 0.371087 0.248977
217 1 0.761811 0.246457 0.123252
218 1 0.809692 0.313338 0.125437
219 1 0.811058 0.238515 0.185469
220 1 0.751269 0.308733 0.184699
346 1 0.803958 0.312063 0.255054
193 1 0.00856913 0.233875 0.122899
223 1 0.953855 0.237799 0.204146
196 1 0.00608857 0.305902 0.193504
222 1 0.949979 0.293866 0.113081
224 1 0.870236 0.300115 0.181575
97 1 0.99672 0.37021 0.00179237
228 1 0.00703737 0.441007 0.183244
495 1 0.441196 0.385043 0.446351
143 1 0.434783 0.00752516 0.183897
230 1 0.180935 0.438909 0.130409
145 1 0.500924 0.000177551 0.123554
232 1 0.121352 0.425156 0.179921
490 1 0.314283 0.446713 0.382921
237 1 0.373302 0.383859 0.111602
234 1 0.312262 0.443931 0.12757
236 1 0.254189 0.434919 0.179134
240 1 0.37791 0.435952 0.181146
1031 1 0.200356 0.498142 0.0598447
238 1 0.446574 0.434198 0.125312
239 1 0.430571 0.367983 0.19055
244 1 0.491706 0.424691 0.19774
1411 1 0.0661467 0.498202 0.434721
491 1 0.310206 0.369948 0.432284
242 1 0.56298 0.435984 0.13205
370 1 0.562134 0.435903 0.242079
159 1 0.930554 0.00186468 0.185355
246 1 0.687022 0.426302 0.12712
248 1 0.626986 0.425309 0.198343
247 1 0.68055 0.361268 0.189939
374 1 0.689506 0.432355 0.249919
606 1 0.93411 0.328726 0.487875
485 1 0.131138 0.385621 0.377193
486 1 0.190671 0.448239 0.372565
252 1 0.749294 0.422012 0.18956
251 1 0.80681 0.366423 0.191095
256 1 0.881111 0.419892 0.194049
255 1 0.946955 0.35778 0.181875
253 1 0.87809 0.366712 0.128478
258 1 0.0688122 0.054432 0.248758
293 1 0.117247 0.117255 0.254213
289 1 0.00573778 0.111288 0.255199
260 1 0.0109268 0.0614326 0.314161
291 1 0.067505 0.123096 0.312945
492 1 0.243781 0.452708 0.435742
262 1 0.183934 0.0601657 0.253646
264 1 0.118638 0.0518401 0.317081
295 1 0.192949 0.114488 0.324531
268 1 0.247992 0.0439737 0.315782
266 1 0.297609 0.056714 0.246716
299 1 0.314884 0.11412 0.309193
301 1 0.377518 0.129656 0.257319
394 1 0.317547 0.0528685 0.388308
272 1 0.374981 0.0620378 0.311027
276 1 0.50724 0.0566565 0.319101
303 1 0.436571 0.124617 0.312264
305 1 0.510452 0.131485 0.24282
280 1 0.638327 0.0627317 0.317885
307 1 0.583844 0.125294 0.317091
275 1 0.573469 0.0162998 0.322476
499 1 0.562693 0.359622 0.442087
278 1 0.692095 0.0605575 0.243894
406 1 0.688862 0.0600894 0.390098
488 1 0.126208 0.447083 0.447203
284 1 0.738777 0.0720821 0.321418
410 1 0.826715 0.0623365 0.384653
288 1 0.884366 0.0626678 0.317379
319 1 0.937331 0.126574 0.316844
290 1 0.0542261 0.17804 0.253934
325 1 0.115617 0.252538 0.259953
296 1 0.121955 0.186462 0.303438
418 1 0.0649859 0.190967 0.376454
453 1 0.133015 0.256615 0.376236
421 1 0.114779 0.122385 0.379979
294 1 0.182405 0.179139 0.255025
327 1 0.184749 0.239873 0.315423
300 1 0.246544 0.179772 0.3227
329 1 0.254034 0.238377 0.256685
298 1 0.310088 0.18179 0.258359
304 1 0.374299 0.188129 0.315064
331 1 0.306024 0.240913 0.31642
457 1 0.242879 0.24321 0.371867
302 1 0.449455 0.198382 0.249932
333 1 0.375892 0.253039 0.252067
308 1 0.506841 0.175947 0.30633
335 1 0.430421 0.248521 0.311284
309 1 0.635898 0.121152 0.252666
312 1 0.627837 0.195087 0.304159
434 1 0.573937 0.191151 0.366692
311 1 0.685752 0.137684 0.331844
438 1 0.700353 0.188203 0.387939
441 1 0.753638 0.132544 0.383875
316 1 0.761503 0.184749 0.307059
349 1 0.883001 0.261372 0.243692
315 1 0.813451 0.123168 0.328756
445 1 0.875369 0.128021 0.377373
317 1 0.858996 0.123113 0.256452
318 1 0.951658 0.176333 0.263491
292 1 0.997166 0.180309 0.327461
320 1 0.879938 0.195512 0.297499
417 1 0.00687819 0.117952 0.381838
322 1 0.0657636 0.319357 0.262877
353 1 0.0103752 0.378138 0.250497
323 1 0.0592151 0.234457 0.312231
328 1 0.131885 0.316075 0.313019
361 1 0.244301 0.374321 0.249089
326 1 0.190452 0.311117 0.262923
454 1 0.197063 0.311906 0.367809
359 1 0.19313 0.382142 0.314973
489 1 0.254973 0.393063 0.375539
330 1 0.306389 0.317528 0.238291
332 1 0.253706 0.302391 0.308949
458 1 0.314905 0.295278 0.379919
365 1 0.372253 0.363706 0.252589
336 1 0.374279 0.303042 0.316678
367 1 0.438092 0.375144 0.315716
369 1 0.500245 0.372329 0.256567
501 1 0.623793 0.365289 0.379565
469 1 0.630157 0.245072 0.366875
340 1 0.503768 0.305506 0.323218
339 1 0.564877 0.245218 0.303381
344 1 0.621814 0.304037 0.306565
371 1 0.558732 0.369023 0.304597
466 1 0.569296 0.309542 0.370527
343 1 0.691137 0.244619 0.307703
470 1 0.682215 0.310679 0.378654
348 1 0.747276 0.309473 0.316456
473 1 0.745628 0.247203 0.361762
347 1 0.808039 0.25291 0.307425
474 1 0.812687 0.328845 0.369644
351 1 0.934149 0.249374 0.31226
321 1 0.000402592 0.245931 0.267761
324 1 0.00318848 0.307712 0.316751
350 1 0.94659 0.313376 0.240365
352 1 0.879163 0.307596 0.304648
449 1 0.999095 0.248129 0.381018
355 1 0.072571 0.383954 0.305378
354 1 0.0887811 0.441273 0.245918
356 1 0.00310057 0.442902 0.30525
482 1 0.0790168 0.441216 0.376239
357 1 0.130065 0.369347 0.249514
358 1 0.173532 0.440262 0.236589
360 1 0.131664 0.44401 0.314447
364 1 0.256704 0.441859 0.309842
363 1 0.308275 0.356462 0.315288
362 1 0.310137 0.433791 0.242492
157 1 0.871136 0.00724006 0.122554
366 1 0.432164 0.421864 0.248589
368 1 0.369294 0.434592 0.311425
484 1 0.00242199 0.439736 0.426836
1431 1 0.682999 0.491271 0.424555
372 1 0.502905 0.431013 0.307467
622 1 0.445318 0.443001 0.49974
1055 1 0.938854 0.493199 0.0699141
1051 1 0.816858 0.493387 0.0624489
377 1 0.739411 0.367467 0.253106
376 1 0.624744 0.433484 0.308304
502 1 0.689382 0.439437 0.362394
375 1 0.680628 0.360307 0.312524
380 1 0.754941 0.43574 0.299419
378 1 0.823747 0.45061 0.242716
379 1 0.808393 0.37141 0.304054
506 1 0.811733 0.431711 0.368367
384 1 0.871079 0.428783 0.31053
381 1 0.877011 0.361578 0.248563
382 1 0.943316 0.423033 0.240376
452 1 0.00625102 0.321767 0.428667
383 1 0.945346 0.372359 0.31174
386 1 0.0567905 0.0532529 0.381689
419 1 0.0681541 0.119443 0.443205
405 1 0.635501 0.00437933 0.390393
456 1 0.123952 0.323368 0.433053
487 1 0.189599 0.373331 0.432788
392 1 0.122286 0.0578639 0.44416
390 1 0.177969 0.0422349 0.383658
396 1 0.256042 0.060356 0.441849
429 1 0.374551 0.113324 0.37724
400 1 0.372966 0.0568956 0.449261
427 1 0.3144 0.113481 0.441483
398 1 0.437113 0.0621543 0.386253
404 1 0.500716 0.0763105 0.45529
431 1 0.431125 0.12038 0.44293
468 1 0.50292 0.296684 0.439102
479 1 0.936843 0.250454 0.434139
402 1 0.558229 0.0589743 0.384786
435 1 0.564639 0.123519 0.442779
480 1 0.870064 0.326242 0.436915
408 1 0.626875 0.063303 0.44785
412 1 0.758108 0.0626206 0.44309
1047 1 0.693908 0.497743 0.0639984
483 1 0.0691743 0.381999 0.434924
497 1 0.493781 0.386309 0.376943
478 1 0.936917 0.313731 0.367838
443 1 0.810763 0.133406 0.441153
464 1 0.368875 0.311943 0.441013
414 1 0.954339 0.0579377 0.373334
416 1 0.884019 0.0677851 0.438978
388 1 0.995498 0.0599985 0.443711
462 1 0.439264 0.324282 0.385109
461 1 0.378532 0.239566 0.385358
493 1 0.372428 0.372778 0.37389
1299 1 0.565463 0.491748 0.307339
450 1 0.0698699 0.319097 0.364445
424 1 0.119352 0.193193 0.430752
451 1 0.0629669 0.261177 0.439799
459 1 0.307445 0.227589 0.434662
471 1 0.692001 0.267459 0.445351
422 1 0.174754 0.178914 0.363241
423 1 0.184456 0.114708 0.421173
425 1 0.261205 0.108977 0.375407
428 1 0.248558 0.173391 0.429213
455 1 0.181813 0.251258 0.436319
460 1 0.24471 0.311228 0.439246
426 1 0.310165 0.175201 0.373788
432 1 0.372742 0.175011 0.441667
430 1 0.446733 0.186887 0.35771
465 1 0.513204 0.24804 0.372678
463 1 0.437192 0.240304 0.441107
476 1 0.760506 0.317192 0.422682
467 1 0.56329 0.240285 0.441052
433 1 0.508833 0.116433 0.381155
436 1 0.500267 0.178671 0.444575
437 1 0.623057 0.114641 0.387218
440 1 0.633094 0.194459 0.438505
477 1 0.868513 0.24331 0.369489
439 1 0.694319 0.126124 0.443643
507 1 0.813556 0.383922 0.449578
472 1 0.623462 0.307878 0.444508
475 1 0.815497 0.268006 0.453983
444 1 0.74925 0.200639 0.454626
442 1 0.803254 0.196087 0.384911
448 1 0.875747 0.197464 0.441176
446 1 0.939616 0.182597 0.37767
420 1 0.00987752 0.185816 0.42825
447 1 0.92612 0.137485 0.441529
1171 1 0.555287 0.497409 0.198619
614 1 0.190502 0.445366 0.495942
1289 1 0.251516 0.493591 0.253543
37 1 0.131681 0.131841 0.00295118
1421 1 0.380277 0.494215 0.367232
409 1 0.747033 0.00108754 0.390182
1295 1 0.435387 0.489028 0.310102
273 1 0.513672 0.00609561 0.253298
5 1 0.125793 0.0141891 0.00279739
401 1 0.502133 0.000726213 0.38187
589 1 0.361879 0.247909 0.492951
1309 1 0.883332 0.49793 0.232719
605 1 0.886054 0.260397 0.498491
1175 1 0.691881 0.49268 0.193364
1173 1 0.622625 0.484926 0.134533
1565 1 0.870803 0.490263 0.496815
546 1 0.069592 0.192972 0.496431
1281 1 0.00536371 0.499493 0.246629
1183 1 0.94735 0.48755 0.183935
1293 1 0.376019 0.486469 0.244281
1179 1 0.8176 0.495967 0.176683
550 1 0.185243 0.179593 0.485966
609 1 0.00729119 0.3866 0.494717
1297 1 0.493195 0.484602 0.248643
1167 1 0.439149 0.489353 0.184252
1429 1 0.618888 0.494563 0.369779
31 1 0.929865 0.00535667 0.0602996
133 1 0.13972 0.00275506 0.123273
109 1 0.381849 0.365429 0.00490013
113 1 0.499536 0.379384 0.00309792
126 1 0.928081 0.415724 0.0105891
569 1 0.753059 0.124577 0.497043
518 1 0.180584 0.057538 0.496726
50 1 0.561695 0.184879 0.002253
613 1 0.133769 0.372035 0.49981
42 1 0.306745 0.200786 0.00464027
117 1 0.632497 0.38405 0.00685625
585 1 0.242479 0.238892 0.491344
538 1 0.817592 0.0614487 0.496461
14 1 0.436141 0.065427 0.0045124
77 1 0.373699 0.264681 0.00185448
545 1 0.9997 0.1287 0.49136
46 1 0.434492 0.197012 0.00818089
549 1 0.130075 0.126516 0.496944
586 1 0.298865 0.306662 0.497622
638 1 0.946406 0.437914 0.485402
82 1 0.551905 0.305381 0.0011597
61 1 0.860658 0.131616 0.00259096
9 1 0.258273 0.00228259 0.00499285
49 1 0.50317 0.123702 0.00709275
582 1 0.187763 0.309784 0.496112
10 1 0.313156 0.0593981 0.00477735
629 1 0.625735 0.370908 0.496469
542 1 0.937304 0.0687925 0.497241
642 1 0.059807 0.0689217 0.622372
520 1 0.124942 0.0514616 0.561767
516 1 0.999522 0.0799766 0.558057
646 1 0.183047 0.0560545 0.627371
524 1 0.249644 0.0618317 0.572899
526 1 0.434813 0.0544893 0.505701
650 1 0.307401 0.0618179 0.631409
528 1 0.378542 0.04993 0.566293
598 1 0.685895 0.313498 0.508599
1022 1 0.941532 0.442921 0.873135
793 1 0.747477 0.0152789 0.739632
532 1 0.501643 0.0642221 0.569221
1805 1 0.367594 0.495705 0.76036
915 1 0.551779 0.00204774 0.931586
563 1 0.557975 0.125031 0.568544
534 1 0.691719 0.0567997 0.502971
562 1 0.570223 0.181006 0.501432
594 1 0.559009 0.306951 0.510853
536 1 0.621378 0.068807 0.570146
662 1 0.686395 0.0581303 0.620511
693 1 0.639366 0.11914 0.629584
1023 1 0.920624 0.371102 0.943937
540 1 0.750923 0.071805 0.568819
697 1 0.751933 0.123491 0.635269
571 1 0.820403 0.117196 0.556499
666 1 0.823325 0.0506176 0.614838
544 1 0.882426 0.0633027 0.557368
547 1 0.0592641 0.135389 0.555766
552 1 0.133614 0.186745 0.555938
548 1 0.00502917 0.202578 0.558419
795 1 0.810543 0.00421777 0.806536
551 1 0.186548 0.116535 0.563471
556 1 0.252562 0.189196 0.570984
1037 1 0.362159 0.499402 0.995784
923 1 0.808091 0.0107685 0.937461
555 1 0.306697 0.119445 0.559161
681 1 0.252377 0.123361 0.631227
587 1 0.307182 0.244974 0.55425
682 1 0.317238 0.18457 0.631216
85 1 0.622286 0.24578 0.998001
560 1 0.364921 0.181792 0.565025
559 1 0.435106 0.120394 0.574892
531 1 0.565893 0.00166039 0.568715
689 1 0.499411 0.138108 0.630296
564 1 0.504385 0.191531 0.571284
595 1 0.552693 0.253906 0.571653
568 1 0.629244 0.188931 0.576033
690 1 0.566607 0.185613 0.623578
529 1 0.496174 0.000684943 0.503073
1947 1 0.808684 0.497371 0.944571
567 1 0.696259 0.126101 0.556694
694 1 0.700491 0.196347 0.615929
599 1 0.689133 0.26047 0.567903
572 1 0.761581 0.183157 0.557359
603 1 0.814071 0.253603 0.565535
701 1 0.870044 0.121427 0.620838
601 1 0.755898 0.257183 0.5115
576 1 0.879396 0.201252 0.564895
575 1 0.937815 0.136346 0.559234
607 1 0.942066 0.25333 0.55808
1673 1 0.252058 0.497541 0.632749
579 1 0.0786977 0.244962 0.55957
611 1 0.0669184 0.38028 0.551005
583 1 0.188604 0.246032 0.565786
584 1 0.128463 0.31738 0.564937
588 1 0.243921 0.320716 0.563944
615 1 0.188931 0.381765 0.570969
527 1 0.443287 0.00384506 0.568396
714 1 0.313266 0.308146 0.624047
749 1 0.368801 0.385487 0.618348
781 1 0.382753 0.00326206 0.749763
592 1 0.372789 0.317939 0.566229
591 1 0.421508 0.251998 0.554732
623 1 0.432698 0.382035 0.562869
25 1 0.755005 0.000700574 0.994075
725 1 0.626189 0.255511 0.619712
753 1 0.500688 0.373396 0.616386
596 1 0.480005 0.316368 0.563894
722 1 0.5625 0.315461 0.623394
600 1 0.624514 0.322084 0.563651
1681 1 0.490882 0.495415 0.621633
631 1 0.69132 0.379555 0.564568
626 1 0.563693 0.422094 0.503153
729 1 0.750049 0.262399 0.619256
604 1 0.75385 0.329435 0.566146
608 1 0.874689 0.316172 0.566521
761 1 0.757083 0.372341 0.65165
730 1 0.81783 0.320188 0.634203
45 1 0.379447 0.131271 0.999921
705 1 0.00428578 0.261572 0.623707
580 1 0.00204294 0.312029 0.560018
639 1 0.938903 0.373312 0.56804
905 1 0.250361 0.00398877 0.880933
38 1 0.194422 0.192744 0.996606
897 1 0.99739 0.0124941 0.872094
612 1 0.00376965 0.436597 0.554909
738 1 0.0571674 0.446715 0.615554
616 1 0.132868 0.441037 0.553605
1551 1 0.427843 0.49282 0.560206
34 1 0.0781492 0.192427 0.996723
620 1 0.249658 0.446339 0.564996
742 1 0.185835 0.445692 0.626379
1019 1 0.806713 0.39113 0.943311
1018 1 0.810765 0.445962 0.87841
619 1 0.307751 0.367699 0.558122
624 1 0.368868 0.440561 0.550716
917 1 0.626808 0.000658258 0.860147
574 1 0.944817 0.195118 0.503525
70 1 0.195724 0.313904 0.999882
927 1 0.929133 0.00306772 0.934127
641 1 0.00919888 0.00205674 0.624197
1024 1 0.880635 0.446138 0.940113
1807 1 0.438599 0.497973 0.808614
627 1 0.558033 0.376182 0.566107
628 1 0.490381 0.436361 0.564333
645 1 0.113994 0.000871705 0.627262
66 1 0.0709566 0.299346 0.99343
632 1 0.616543 0.43711 0.565049
636 1 0.748848 0.45197 0.563672
1927 1 0.189039 0.496496 0.951708
635 1 0.807925 0.391071 0.560965
765 1 0.871376 0.379949 0.622409
640 1 0.880982 0.445095 0.565266
762 1 0.806316 0.431549 0.630822
58 1 0.811543 0.196912 0.996603
22 1 0.685354 0.0702344 0.986902
766 1 0.948852 0.437103 0.622471
1017 1 0.748541 0.389961 0.870007
770 1 0.0678895 0.066939 0.741351
677 1 0.126584 0.125052 0.613328
648 1 0.116167 0.0657128 0.677854
1803 1 0.307575 0.498454 0.81968
671 1 0.943793 0.00570777 0.684577
652 1 0.244379 0.0667692 0.689801
778 1 0.31096 0.0499581 0.747997
654 1 0.439444 0.0582528 0.634395
685 1 0.364681 0.114559 0.621755
813 1 0.380883 0.122798 0.75959
656 1 0.376907 0.0707849 0.69312
687 1 0.440294 0.124251 0.686606
65 1 0.00888428 0.234833 0.998237
597 1 0.622874 0.248287 0.516625
658 1 0.558451 0.0749127 0.632965
660 1 0.504212 0.0654694 0.688306
691 1 0.55557 0.134306 0.694656
771 1 0.0596537 0.00972618 0.808597
664 1 0.622722 0.0718556 0.68568
695 1 0.688175 0.136508 0.685861
668 1 0.746871 0.062502 0.677241
1020 1 0.73451 0.440761 0.935202
672 1 0.874369 0.0677099 0.692546
673 1 0.00381311 0.136304 0.619985
670 1 0.937424 0.058046 0.622332
644 1 0.991175 0.0771203 0.680481
798 1 0.929568 0.0550571 0.746506
674 1 0.0739099 0.197244 0.617079
675 1 0.0542611 0.140366 0.69096
678 1 0.186788 0.188755 0.630516
713 1 0.248446 0.249289 0.62837
679 1 0.178831 0.11659 0.680038
680 1 0.116811 0.197806 0.68799
684 1 0.246264 0.191546 0.677932
683 1 0.31082 0.118423 0.695526
809 1 0.238641 0.135506 0.742799
688 1 0.380473 0.177926 0.684503
715 1 0.312742 0.247837 0.684279
810 1 0.328421 0.188608 0.739274
686 1 0.434851 0.185304 0.619514
717 1 0.370797 0.24724 0.618786
719 1 0.425948 0.243741 0.687297
721 1 0.490739 0.262126 0.623861
692 1 0.488856 0.197156 0.684852
723 1 0.552145 0.247837 0.690908
696 1 0.622504 0.193637 0.687293
700 1 0.750111 0.204463 0.683194
727 1 0.687259 0.253341 0.690606
822 1 0.680722 0.192483 0.753811
699 1 0.807134 0.125982 0.694827
825 1 0.743886 0.129671 0.756518
698 1 0.80993 0.194347 0.624663
826 1 0.803976 0.189074 0.74874
704 1 0.880471 0.191326 0.691498
703 1 0.925379 0.12707 0.678579
702 1 0.92812 0.190911 0.625927
676 1 0.999791 0.200252 0.68197
735 1 0.941932 0.247237 0.691418
830 1 0.934543 0.189199 0.753415
706 1 0.0664243 0.322779 0.6181
707 1 0.0632317 0.261812 0.677711
833 1 0.00727739 0.263973 0.737682
739 1 0.0561459 0.377516 0.684152
709 1 0.123149 0.257613 0.623334
710 1 0.178659 0.322405 0.626711
712 1 0.130323 0.333837 0.695228
711 1 0.174682 0.250218 0.681873
838 1 0.191671 0.316281 0.751328
745 1 0.255177 0.384666 0.6292
716 1 0.255145 0.31927 0.6754
720 1 0.366925 0.306343 0.681434
718 1 0.42785 0.30787 0.624271
751 1 0.41801 0.373193 0.680295
724 1 0.496654 0.321391 0.684532
755 1 0.560988 0.387724 0.690934
881 1 0.490668 0.379598 0.744199
726 1 0.693809 0.316753 0.632421
728 1 0.612643 0.32159 0.686698
854 1 0.689244 0.313441 0.751586
885 1 0.627359 0.386295 0.753706
731 1 0.818675 0.253066 0.689479
732 1 0.751953 0.300853 0.699871
858 1 0.804871 0.31743 0.750933
736 1 0.879962 0.319955 0.697775
733 1 0.867364 0.259209 0.618788
708 1 0.995601 0.32575 0.686727
734 1 0.936147 0.309867 0.629628
862 1 0.950873 0.317401 0.753477
737 1 0.0083688 0.376566 0.621209
741 1 0.119558 0.39266 0.628386
744 1 0.117321 0.433569 0.692208
740 1 0.998669 0.442375 0.683661
865 1 0.992001 0.390067 0.748343
101 1 0.134939 0.365391 0.994391
1015 1 0.687578 0.374647 0.930239
743 1 0.187923 0.38645 0.684643
748 1 0.24631 0.446815 0.688155
18 1 0.564165 0.0616693 0.997966
747 1 0.307769 0.378988 0.687441
746 1 0.315684 0.438616 0.633442
522 1 0.321428 0.0500706 0.512856
53 1 0.62436 0.125053 0.998732
1012 1 0.496532 0.44335 0.926879
647 1 0.17498 0.00480302 0.6851
750 1 0.434561 0.429125 0.629942
752 1 0.375944 0.438075 0.701617
878 1 0.427364 0.431185 0.756066
757 1 0.614871 0.380639 0.616676
756 1 0.492585 0.431687 0.686615
754 1 0.554374 0.433817 0.61889
882 1 0.567202 0.448796 0.746567
758 1 0.693281 0.427793 0.629931
759 1 0.689374 0.368694 0.695451
760 1 0.622363 0.43208 0.682434
764 1 0.74185 0.43787 0.702476
886 1 0.682894 0.446946 0.753166
889 1 0.754092 0.375982 0.756349
763 1 0.829503 0.384731 0.696613
890 1 0.817401 0.436642 0.756139
767 1 0.934579 0.381103 0.670496
768 1 0.883348 0.447307 0.6788
772 1 0.00324853 0.0765468 0.808588
929 1 0.00659128 0.123992 0.874583
898 1 0.0685192 0.0644249 0.872144
805 1 0.131193 0.125659 0.746077
776 1 0.117381 0.0603867 0.812604
774 1 0.183949 0.0668283 0.75956
933 1 0.1224 0.135787 0.870076
807 1 0.196713 0.138987 0.811661
902 1 0.191038 0.066746 0.882804
780 1 0.25139 0.0673216 0.811423
784 1 0.378066 0.0622004 0.809912
811 1 0.307373 0.132885 0.789151
1016 1 0.620568 0.439606 0.940469
782 1 0.449026 0.0563523 0.741813
788 1 0.498162 0.0534508 0.808445
1939 1 0.559522 0.495156 0.940019
1011 1 0.554178 0.370749 0.944145
786 1 0.561254 0.0441044 0.754388
819 1 0.57736 0.117858 0.802891
790 1 0.689432 0.0707297 0.744989
792 1 0.633879 0.0613627 0.811999
918 1 0.689811 0.0673089 0.875949
1013 1 0.625305 0.376521 0.877158
796 1 0.738916 0.0613514 0.813014
794 1 0.81736 0.0641203 0.755717
800 1 0.875745 0.0693604 0.811342
998 1 0.186471 0.44695 0.877717
922 1 0.799967 0.0592185 0.865612
125 1 0.86535 0.366275 0.995925
926 1 0.936541 0.0642266 0.87699
957 1 0.880051 0.135291 0.87431
802 1 0.0597837 0.203143 0.750138
803 1 0.0687188 0.12852 0.799633
930 1 0.0596244 0.189684 0.868399
806 1 0.183886 0.192977 0.736974
808 1 0.123349 0.191755 0.798174
839 1 0.181978 0.247701 0.80168
812 1 0.251229 0.200719 0.802501
816 1 0.374499 0.19095 0.81267
845 1 0.379975 0.251209 0.755292
814 1 0.445695 0.183812 0.749357
815 1 0.444788 0.123208 0.808901
847 1 0.435092 0.259496 0.811144
853 1 0.618482 0.250703 0.745422
821 1 0.626901 0.125264 0.747865
817 1 0.506925 0.111484 0.752224
820 1 0.512724 0.17602 0.811112
818 1 0.561715 0.191022 0.746088
824 1 0.622766 0.18702 0.809015
823 1 0.68132 0.12776 0.816256
828 1 0.747171 0.193234 0.809031
855 1 0.681967 0.254648 0.82147
827 1 0.806607 0.12267 0.802671
829 1 0.873946 0.127151 0.752391
861 1 0.878566 0.259905 0.74993
859 1 0.801617 0.255141 0.80774
954 1 0.813698 0.190609 0.870407
801 1 0.996431 0.134144 0.745149
831 1 0.94229 0.121387 0.816709
832 1 0.866871 0.194532 0.809402
804 1 0.00247283 0.198065 0.799303
834 1 0.0480463 0.332255 0.752033
869 1 0.128816 0.381541 0.757433
835 1 0.0730407 0.253939 0.825713
836 1 0.995072 0.322096 0.816863
837 1 0.108854 0.273731 0.747263
840 1 0.12985 0.321435 0.819664
844 1 0.242529 0.315819 0.812486
871 1 0.18976 0.385095 0.817967
841 1 0.244262 0.256099 0.739237
842 1 0.298843 0.318883 0.753328
877 1 0.362006 0.376775 0.75149
843 1 0.310983 0.252741 0.80269
848 1 0.36906 0.323423 0.807652
1005 1 0.371734 0.373852 0.880405
846 1 0.434077 0.319324 0.735899
974 1 0.437701 0.313274 0.870404
852 1 0.500055 0.326253 0.810814
849 1 0.496849 0.264033 0.76099
851 1 0.574389 0.253101 0.821766
850 1 0.560172 0.316259 0.746637
856 1 0.617186 0.316025 0.801851
978 1 0.562316 0.313287 0.872362
857 1 0.742742 0.244872 0.751892
860 1 0.740832 0.311544 0.819618
887 1 0.676008 0.383299 0.815793
893 1 0.877259 0.378318 0.757499
864 1 0.874903 0.323185 0.811971
891 1 0.816085 0.38544 0.820264
989 1 0.884588 0.248494 0.870568
863 1 0.941882 0.259 0.808038
895 1 0.934246 0.379213 0.821945
997 1 0.120866 0.392759 0.876464
993 1 0.993951 0.372821 0.888393
867 1 0.0676002 0.37997 0.81359
866 1 0.0577239 0.437247 0.746103
868 1 0.00849246 0.437383 0.81217
54 1 0.679517 0.186264 0.995709
873 1 0.244859 0.380841 0.745297
872 1 0.121012 0.44727 0.808305
870 1 0.203106 0.448055 0.760689
876 1 0.252842 0.439576 0.817575
874 1 0.30062 0.440718 0.752609
875 1 0.308961 0.373143 0.813214
1002 1 0.319248 0.437484 0.886903
1006 1 0.426015 0.440946 0.872992
879 1 0.432704 0.371697 0.81301
880 1 0.368019 0.435161 0.818742
1009 1 0.493312 0.375309 0.876985
1004 1 0.252878 0.442755 0.934696
884 1 0.496035 0.431195 0.812482
883 1 0.554622 0.37365 0.797101
1010 1 0.560777 0.43669 0.869242
593 1 0.494059 0.240972 0.50021
581 1 0.133499 0.245806 0.501524
1014 1 0.676807 0.437503 0.877608
888 1 0.623902 0.44712 0.808542
999 1 0.183417 0.385118 0.934826
892 1 0.752506 0.444458 0.817344
896 1 0.894069 0.447981 0.811928
994 1 0.0515883 0.44685 0.883988
894 1 0.934551 0.443096 0.733312
1677 1 0.376556 0.492533 0.633606
900 1 0.00157391 0.0622404 0.941106
904 1 0.126989 0.0663027 0.938207
931 1 0.0600947 0.119522 0.932225
789 1 0.631384 0.00474556 0.740111
935 1 0.188367 0.126642 0.939215
554 1 0.310202 0.177645 0.50168
90 1 0.798873 0.320627 0.994873
906 1 0.309587 0.0743609 0.867723
908 1 0.258597 0.0647016 0.931172
912 1 0.365699 0.0714159 0.928063
937 1 0.247756 0.134294 0.873518
530 1 0.562325 0.06768 0.511363
925 1 0.865494 0.0130519 0.876886
910 1 0.440053 0.0689632 0.867728
996 1 0.989798 0.42747 0.950387