ITEM: TIMESTEP
2250
ITEM: NUMBER OF ATOMS
864
ITEM: BOX BOUNDS pp pp pp
0.0000000000000000e+00 3.1559999999999999e+01
0.0000000000000000e+00 3.1559999999999999e+01
0.0000000000000000e+00 3.1559999999999999e+01
ITEM: ATOMS id type xs ys zs
74 1 0.0867747 0.0804799 0.181385
8 1 0.192283 0.0872692 0.0849301
101 1 0.166175 0.16746 0.166759
27 1 0.0782643 0.160899 0.0852713
151 1 0.240018 0.00170872 0.417648
31 1 0.262268 0.169062 0.0873991
105 1 0.331721 0.181201 0.174631
216 1 0.818827 0.415954 0.419962
78 1 0.234975 0.0915639 0.186096
46 1 0.919358 0.263537 7.00961e-05
12 1 0.319203 0.0790573 0.0878177
35 1 0.417012 0.167305 0.0820144
109 1 0.510545 0.162614 0.167919
16 1 0.494275 0.0833224 0.0794745
86 1 0.589072 0.0858562 0.169123
211 1 0.74216 0.320493 0.415766
20 1 0.681195 0.0706885 0.0733328
43 1 0.759741 0.15535 0.0790386
210 1 0.749579 0.411178 0.332766
90 1 0.745106 0.071339 0.155769
212 1 0.668317 0.400989 0.435253
24 1 0.834945 0.0785314 0.0759951
4 1 -0.00172744 0.079931 0.0794435
266 1 0.0793405 0.423628 0.511729
32 1 0.17407 0.256403 0.0828754
98 1 0.0799346 0.260865 0.162886
36 1 0.337557 0.24556 0.0841329
102 1 0.235828 0.261302 0.177837
129 1 0.336539 0.333234 0.177615
55 1 0.256693 0.344586 0.0899503
106 1 0.419857 0.248505 0.164565
133 1 0.513146 0.329583 0.166436
3 1 0.0863466 0.0193305 0.0869392
39 1 0.571679 0.169355 0.0715121
40 1 0.488848 0.240551 0.0676738
44 1 0.660156 0.254911 0.0792829
63 1 0.588416 0.341517 0.0804713
48 1 0.83132 0.242086 0.0840118
67 1 0.749648 0.338919 0.0822365
47 1 0.917036 0.161778 0.0697933
28 1 -0.00617425 0.245279 0.0793081
121 1 0.988368 0.324515 0.171256
591 1 0.593455 0.488897 0.410951
51 1 0.0736886 0.32227 0.0827979
56 1 0.164918 0.419571 0.100616
208 1 0.490033 0.419094 0.414029
58 1 0.412028 0.416592 0.00470503
125 1 0.159969 0.326801 0.163263
126 1 0.253881 0.432318 0.164497
83 1 0.417866 0.0164882 0.267113
59 1 0.412132 0.329713 0.085963
60 1 0.336498 0.422228 0.0892443
130 1 0.423927 0.417701 0.166915
26 1 0.0818351 0.247268 0.00218552
161 1 0.668768 -0.0164122 0.33452
25 1 1.00407 0.16815 -0.00304818
37 1 0.488026 0.156847 -0.0066135
64 1 0.498843 0.414443 0.0761743
81 1 0.331544 -0.00844111 0.16281
68 1 0.682887 0.423876 0.09162
225 1 0.337916 0.00214822 0.485783
91 1 0.75216 -0.0100395 0.255462
71 1 0.914043 0.330439 0.087114
221 1 0.153541 -0.00437023 0.500019
72 1 0.833255 0.40487 0.0986725
52 1 1.00047 0.405105 0.0938146
281 1 0.676373 0.315389 0.509333
146 1 0.0779493 0.0976119 0.341521
80 1 0.157478 0.083612 0.262641
577 1 1.00302 0.495018 0.341241
203 1 0.426508 0.328277 0.420288
150 1 0.24679 0.0957712 0.340544
84 1 0.335034 0.0841766 0.257479
177 1 0.333936 0.171993 0.33894
82 1 0.398893 0.0861167 0.166859
181 1 0.510265 0.175489 0.318124
107 1 0.427128 0.173457 0.247674
154 1 0.433625 0.100284 0.328759
199 1 0.248814 0.347624 0.403547
88 1 0.51 0.0819623 0.237479
111 1 0.604755 0.16795 0.243349
113 1 0.662502 0.162603 0.139466
92 1 0.683191 0.0887695 0.248613
115 1 0.760124 0.161427 0.249844
189 1 0.818494 0.163733 0.337622
200 1 0.178472 0.436379 0.418103
94 1 0.90542 0.078673 0.162877
11 1 0.408394 -0.00105891 0.0811576
96 1 0.836709 0.0783577 0.250879
76 1 0.988156 0.0942848 0.252836
65 1 0.669506 0.337761 0.00538104
99 1 0.0829194 0.168562 0.250754
100 1 0.992413 0.256607 0.253484
123 1 0.0806643 0.336843 0.240234
104 1 0.155125 0.251418 0.251653
173 1 0.158353 0.171617 0.340783
103 1 0.255824 0.176078 0.258931
127 1 0.24313 0.357677 0.243495
201 1 0.321202 0.357962 0.330148
108 1 0.340097 0.254141 0.262822
131 1 0.427892 0.346257 0.249325
112 1 0.502437 0.253858 0.246931
205 1 0.513717 0.327871 0.333474
110 1 0.579627 0.242898 0.167967
116 1 0.677952 0.252825 0.24553
135 1 0.587939 0.337046 0.24423
114 1 0.749332 0.242502 0.159563
141 1 0.831123 0.32737 0.184658
139 1 0.763776 0.338027 0.26378
97 1 1.00635 0.161203 0.15668
117 1 0.831816 0.150146 0.16111
119 1 0.900698 0.164041 0.261889
120 1 0.826276 0.252753 0.261141
118 1 0.914009 0.244384 0.155844
143 1 0.916026 0.332563 0.258402
122 1 0.0848666 0.423061 0.156931
128 1 0.162276 0.427962 0.231338
124 1 1.00844 0.432106 0.245587
204 1 0.350511 0.437657 0.403346
163 1 0.764604 -0.0122499 0.435922
197 1 0.154712 0.349537 0.310715
198 1 0.247472 0.437309 0.327604
132 1 0.337281 0.425986 0.251909
136 1 0.511639 0.422714 0.244637
202 1 0.427605 0.422807 0.328382
134 1 0.585539 0.418753 0.159908
153 1 0.335648 0.0114134 0.337145
206 1 0.58798 0.424484 0.330362
435 1 0.0718611 0.502207 0.0749373
138 1 0.763556 0.423766 0.17495
137 1 0.655624 0.325902 0.161176
213 1 0.838508 0.315561 0.340503
140 1 0.670771 0.418826 0.245312
195 1 0.0929244 0.342542 0.40444
194 1 0.0896783 0.43432 0.334974
144 1 0.827089 0.420743 0.260478
214 1 0.910743 0.401406 0.339903
142 1 0.920599 0.426614 0.169728
443 1 0.416651 0.511425 0.0839736
10 1 0.410404 0.0920921 0.0106566
148 1 -0.000881958 0.081422 0.425334
53 1 0.180632 0.330378 0.0110102
79 1 0.252809 0.0107642 0.263762
152 1 0.158872 0.0789807 0.432276
156 1 0.321131 0.0912163 0.422209
41 1 0.671009 0.165633 0.00168297
595 1 0.736191 0.493384 0.424887
160 1 0.507032 0.0970103 0.413535
179 1 0.425819 0.185788 0.426286
185 1 0.670582 0.154518 0.334729
158 1 0.590815 0.0839111 0.333419
183 1 0.595451 0.153947 0.408541
261 1 0.833318 0.154874 0.48969
77 1 0.166 0.011699 0.170414
164 1 0.681455 0.0727402 0.417581
187 1 0.740355 0.159251 0.418949
162 1 0.76181 0.0761917 0.33041
168 1 0.834207 0.070313 0.415334
2 1 0.0986043 0.0880309 -0.00629789
166 1 0.917978 0.0689148 0.325999
254 1 0.597135 0.243507 0.498641
149 1 0.159187 0.00186796 0.331639
193 1 0.00605571 0.340184 0.337327
171 1 0.0743173 0.17896 0.412058
169 1 0.99813 0.173432 0.332302
170 1 0.0823775 0.262549 0.323561
172 1 -0.000947981 0.252051 0.412131
176 1 0.160549 0.262801 0.419219
174 1 0.244 0.27039 0.319168
175 1 0.244933 0.179745 0.407366
451 1 0.756753 0.495987 0.0825883
180 1 0.329168 0.267445 0.399153
184 1 0.510353 0.249091 0.424767
178 1 0.420054 0.242053 0.339056
85 1 0.487525 0.00830659 0.161896
182 1 0.587393 0.239226 0.320686
209 1 0.660018 0.330668 0.321332
207 1 0.579322 0.342064 0.415521
196 1 0.99027 0.414977 0.409375
192 1 0.828825 0.233107 0.413124
523 1 0.751321 0.505281 0.262601
186 1 0.73848 0.24664 0.33687
188 1 0.657242 0.244776 0.410531
215 1 0.923058 0.320979 0.416761
190 1 0.920906 0.252951 0.3419
191 1 0.913267 0.160689 0.405257
455 1 0.904363 0.49664 0.0854297
585 1 0.337792 0.507316 0.327302
155 1 0.424415 0.0251717 0.407411
521 1 0.664897 0.515028 0.177744
269 1 0.161101 0.357686 0.488783
447 1 0.585117 0.494642 0.0803165
449 1 0.671358 0.4859 -0.00422986
15 1 0.575503 0.00838924 0.0873757
57 1 0.335376 0.327405 1.95197e-05
265 1 0.00509366 0.329936 0.490733
246 1 0.250616 0.270427 0.493124
286 1 0.917722 0.418373 0.493451
262 1 0.912715 0.230625 0.48162
226 1 0.413104 0.0821069 0.507047
42 1 0.740886 0.250699 -0.00383484
70 1 0.925 0.418899 0.00654706
50 1 0.0934736 0.400479 0.00072775
29 1 0.164711 0.169581 0.00966249
242 1 0.0875083 0.259426 0.498815
274 1 0.424385 0.425281 0.507694
273 1 0.327159 0.347422 0.487808
17 1 0.657768 0.0062529 -0.00395506
249 1 0.333749 0.186433 0.497982
437 1 0.169105 0.493038 0.00615719
5 1 0.169897 -0.00289721 0.0182198
285 1 0.841372 0.325754 0.497657
258 1 0.763937 0.247849 0.498661
22 1 0.917238 0.0787199 0.00367664
278 1 0.584943 0.423411 0.505522
245 1 0.159404 0.164814 0.483341
270 1 0.249039 0.420248 0.511891
224 1 0.156122 0.0797996 0.574111
290 1 0.0758193 0.0954679 0.674914
294 1 0.236734 0.0856674 0.666156
795 1 0.0955979 0.48787 0.929641
737 1 0.663451 0.50057 0.668098
228 1 0.335431 0.108807 0.569537
659 1 0.415744 0.493777 0.585404
432 1 0.841137 0.413441 0.908286
797 1 0.17162 0.501034 0.830564
298 1 0.404467 0.0718635 0.660605
232 1 0.494447 0.0781785 0.586153
236 1 0.671066 0.0764497 0.57946
431 1 0.930809 0.334262 0.922651
369 1 0.320954 -0.0223654 0.836041
815 1 0.924528 0.501103 0.92259
306 1 0.760321 0.0800035 0.660101
741 1 0.829686 0.498958 0.676712
54 1 0.252866 0.416761 1.00429
220 1 1.00268 0.071902 0.591466
240 1 0.839638 0.0750165 0.577699
727 1 0.251468 0.49859 0.759817
310 1 0.91214 0.0809599 0.66174
38 1 0.595091 0.253845 0.993874
243 1 0.0742643 0.176926 0.558834
267 1 0.0861732 0.338469 0.579107
248 1 0.1612 0.25199 0.57146
244 1 0.988084 0.254621 0.575228
313 1 0.993744 0.168062 0.659416
314 1 0.0865698 0.260131 0.653917
371 1 0.417962 0.00563984 0.913457
247 1 0.241547 0.179501 0.578554
271 1 0.251395 0.338243 0.582657
318 1 0.244605 0.258348 0.671353
277 1 0.497964 0.340789 0.500349
251 1 0.423407 0.167866 0.609365
373 1 0.48917 0.00568059 0.836132
252 1 0.327023 0.260546 0.585487
256 1 0.51597 0.24964 0.579275
230 1 0.572651 0.0783759 0.511578
255 1 0.586821 0.16841 0.584661
260 1 0.676598 0.243698 0.585841
326 1 0.588742 0.242768 0.653298
363 1 0.0957178 0.00614072 0.921915
259 1 0.761151 0.167123 0.575124
333 1 0.834067 0.155739 0.667391
330 1 0.750771 0.238146 0.665987
329 1 0.677592 0.159931 0.661856
263 1 0.910358 0.161349 0.588232
264 1 0.851922 0.257217 0.584723
272 1 0.16614 0.43078 0.579541
61 1 0.477033 0.334232 0.988862
268 1 1.0063 0.410178 0.595048
299 1 0.415383 0.00281078 0.745682
342 1 0.246413 0.42772 0.658469
275 1 0.414963 0.342325 0.590247
276 1 0.331455 0.415614 0.572586
280 1 0.511141 0.415474 0.591308
433 1 0.996518 0.496718 0.997924
279 1 0.590906 0.333759 0.578531
284 1 0.670126 0.412765 0.578937
350 1 0.599901 0.398654 0.669728
735 1 0.578201 0.49416 0.734074
430 1 0.933956 0.423887 0.83199
283 1 0.761247 0.321776 0.589543
288 1 0.824297 0.409713 0.584955
357 1 0.83364 0.332384 0.675996
223 1 0.260012 -0.000541019 0.589843
62 1 0.577645 0.405528 0.987696
801 1 0.344405 0.504652 0.835639
287 1 0.915552 0.341383 0.587242
733 1 0.495257 0.501696 0.658602
375 1 0.58292 0.00871198 0.916098
362 1 0.0980846 0.0839674 0.837851
292 1 1.01612 0.0787851 0.765633
315 1 0.0976338 0.169183 0.745113
385 1 1.01103 0.16185 0.844505
296 1 0.156374 0.0710936 0.740707
319 1 0.250203 0.170566 0.741187
366 1 0.236877 0.0636792 0.826616
428 1 0.659925 0.429121 0.91225
739 1 0.756508 0.490484 0.757331
300 1 0.320675 0.0717924 0.751178
304 1 0.503378 0.0796709 0.756759
397 1 0.507668 0.16987 0.830166
793 1 -0.000552091 0.508762 0.84165
302 1 0.588869 0.0816879 0.652759
667 1 0.744642 0.510421 0.595825
308 1 0.672764 0.0781797 0.73564
378 1 0.749579 0.0855485 0.8377
331 1 0.748356 0.147065 0.744332
401 1 0.668739 0.164674 0.827958
405 1 0.831327 0.180885 0.842731
45 1 0.838466 0.176458 1.00059
309 1 0.824387 -0.00803208 0.656118
312 1 0.851154 0.101932 0.767085
335 1 0.918353 0.178882 0.746809
386 1 0.0949691 0.238713 0.830751
317 1 0.153492 0.176775 0.649297
337 1 0.000219316 0.332111 0.678994
339 1 0.0962063 0.33792 0.749023
320 1 0.164827 0.254844 0.744418
324 1 0.336193 0.253822 0.740356
341 1 0.158124 0.339221 0.65289
321 1 0.322788 0.182091 0.656966
393 1 0.330143 0.160756 0.818657
322 1 0.423008 0.264578 0.657298
323 1 0.415955 0.16359 0.74519
394 1 0.411545 0.236408 0.835033
328 1 0.49027 0.257542 0.7626
421 1 0.497909 0.342748 0.841928
325 1 0.511429 0.166389 0.677064
327 1 0.583258 0.160967 0.757403
398 1 0.576565 0.255154 0.834859
351 1 0.586087 0.322672 0.752534
332 1 0.661919 0.246643 0.751874
336 1 0.842404 0.250458 0.748427
355 1 0.744589 0.316871 0.736484
402 1 0.741921 0.250408 0.826356
429 1 0.828507 0.318707 0.832421
316 1 0.0240356 0.247502 0.744442
334 1 0.915334 0.266969 0.66582
422 1 0.597682 0.422309 0.815851
338 1 0.0835531 0.418596 0.669374
311 1 0.900176 0.00883249 0.749677
343 1 0.241588 0.334917 0.742444
344 1 0.179142 0.416428 0.74303
348 1 0.342831 0.421262 0.751214
414 1 0.247558 0.413341 0.823598
345 1 0.328119 0.338528 0.674542
349 1 0.506851 0.326316 0.664993
424 1 0.492677 0.419971 0.925076
346 1 0.417659 0.409086 0.671289
347 1 0.416232 0.330267 0.759976
353 1 0.674962 0.322132 0.669979
423 1 0.584827 0.335869 0.905429
352 1 0.511641 0.412829 0.750474
356 1 0.679136 0.421083 0.746801
354 1 0.738528 0.413668 0.658988
425 1 0.670452 0.325601 0.818531
426 1 0.757801 0.410162 0.836784
360 1 0.842954 0.411694 0.758043
358 1 0.920071 0.417892 0.666494
359 1 0.91299 0.327273 0.757968
340 1 1.0112 0.413322 0.751907
409 1 -0.00656203 0.326375 0.836939
219 1 0.0880019 0.000165497 0.588968
307 1 0.764317 0.00269292 0.748815
387 1 0.0909277 0.155739 0.912003
303 1 0.587666 -0.00250209 0.733967
368 1 0.177968 0.0853123 0.91372
391 1 0.253345 0.17161 0.905208
372 1 0.32443 0.0662791 0.901597
370 1 0.418725 0.0775914 0.819523
395 1 0.413954 0.15532 0.913829
412 1 0.00830841 0.423846 0.909698
374 1 0.58088 0.0715286 0.81633
376 1 0.505238 0.0875909 0.908204
410 1 0.085642 0.418464 0.832225
419 1 0.39882 0.336005 0.909551
380 1 0.669723 0.0771607 0.918236
403 1 0.756207 0.162573 0.927882
241 1 0.980386 0.156097 0.502274
418 1 0.422827 0.419673 0.835998
417 1 0.321013 0.326435 0.821951
407 1 0.921621 0.172385 0.922079
384 1 0.841228 0.0873267 0.915687
382 1 0.921686 0.0906816 0.836869
364 1 0.00626163 0.0746873 0.924545
805 1 0.503132 0.487343 0.83823
415 1 0.249854 0.33259 0.91228
392 1 0.164513 0.241156 0.912707
411 1 0.0850837 0.325846 0.910967
388 1 1.01211 0.247038 0.917673
420 1 0.32284 0.416059 0.899415
390 1 0.246211 0.251023 0.81097
389 1 0.180953 0.151537 0.82598
413 1 0.162422 0.32759 0.840603
218 1 0.0826867 0.0783404 0.505116
396 1 0.326974 0.243742 0.910391
400 1 0.506539 0.253257 0.92098
408 1 0.831548 0.246442 0.917375
404 1 0.675789 0.241777 0.910217
399 1 0.590703 0.165921 0.904671
416 1 0.184491 0.418108 0.912468
406 1 0.925765 0.239744 0.835138
235 1 0.740248 -0.00715226 0.575658
427 1 0.746885 0.329748 0.90844
301 1 0.501899 -0.0135373 0.674352
69 1 0.836574 0.344404 1.00152
49 1 1.00528 0.323845 1.00322
6 1 0.252578 0.0908455 0.997525
665 1 0.663503 0.500085 0.514776
669 1 0.821999 0.498448 0.501621
66 1 0.750721 0.417515 0.975787
238 1 0.916277 0.0633688 0.500006
18 1 0.758978 0.0704153 0.99235
30 1 0.255604 0.250967 1.00038
33 1 0.336838 0.173031 0.998705
222 1 0.238758 0.0864335 0.498315
34 1 0.411538 0.238897 0.992485
445 1 0.506109 0.513208 1.00032
234 1 0.750538 0.0672703 0.502043
661 1 0.505351 0.495166 0.512556
257 1 0.671888 0.162831 0.505522
13 1 0.49264 0.0109682 0.999277
250 1 0.417279 0.250933 0.522128
282 1 0.749337 0.398614 0.498143
657 1 0.339241 0.498328 0.495573
9 1 0.322241 -0.00408746 1.0054
14 1 0.588693 0.097193 0.996448
253 1 0.498942 0.157008 0.508485
440 1 0.168608 0.588387 0.0768261
217 1 -0.0033972 0.986477 0.501475
463 1 0.243012 0.665112 0.0763643
95 1 0.921681 0.990013 0.24544
490 1 0.418644 0.921515 6.39589e-05
444 1 0.31669 0.577848 0.0745421
467 1 0.405176 0.665049 0.0790228
514 1 0.424651 0.593883 0.164762
448 1 0.503495 0.574441 0.0911061
541 1 0.499798 0.675081 0.175646
87 1 0.583029 1.00349 0.261868
452 1 0.674065 0.567636 0.0797331
518 1 0.584363 0.603618 0.171073
89 1 0.657745 1.00325 0.179707
646 1 0.909225 0.917877 0.321999
647 1 0.905158 0.822264 0.424897
475 1 0.742795 0.650802 0.0869922
456 1 0.825192 0.579928 0.0901024
522 1 0.74862 0.588105 0.173246
549 1 0.822974 0.675493 0.176416
519 1 0.591609 0.49372 0.251937
527 1 0.919941 0.497962 0.256846
436 1 0.986187 0.572472 0.0800526
479 1 0.899773 0.667684 0.0772172
698 1 0.0878886 0.915005 0.497948
459 1 0.0919127 0.674524 0.068123
718 1 0.919257 0.918968 0.488528
483 1 0.0849569 0.817983 0.081009
533 1 0.150815 0.675068 0.163542
147 1 0.080514 0.996232 0.406041
464 1 0.168516 0.758766 0.0794241
468 1 0.321057 0.749991 0.0839501
487 1 0.253554 0.827583 0.0896949
557 1 0.161715 0.829406 0.170379
446 1 0.586191 0.577107 0.000732796
472 1 0.484118 0.744571 0.0887743
538 1 0.407743 0.747238 0.165786
681 1 0.35942 0.653075 0.501797
471 1 0.601382 0.651606 0.0827898
476 1 0.660447 0.761316 0.0883871
442 1 0.415012 0.585846 0.00896387
546 1 0.745617 0.743215 0.170067
480 1 0.828072 0.748895 0.0924662
589 1 0.507454 0.501308 0.32209
460 1 0.992239 0.734509 0.0819924
573 1 0.821621 0.830679 0.167158
503 1 0.917058 0.833472 0.0803561
75 1 0.085453 0.989185 0.252545
550 1 0.910269 0.749711 0.158024
587 1 0.427827 0.508346 0.401321
484 1 0.995705 0.917658 0.0739651
165 1 0.834453 0.997295 0.329762
685 1 0.496575 0.663845 0.493178
488 1 0.159503 0.920344 0.0931887
492 1 0.338328 0.920569 0.072539
93 1 0.823809 0.991923 0.1658
505 1 0.999797 0.509182 0.167553
491 1 0.422633 0.83867 0.0715444
562 1 0.412737 0.918978 0.157993
1 1 0.00470302 0.997252 0.00150751
513 1 0.342968 0.499331 0.169429
509 1 0.177643 0.513923 0.162381
643 1 0.738049 0.834537 0.422114
495 1 0.563679 0.836554 0.0946865
496 1 0.492221 0.924697 0.0920436
565 1 0.467655 0.837358 0.173027
473 1 0.668561 0.660731 0.00421908
500 1 0.65447 0.919314 0.0726565
499 1 0.75247 0.830221 0.0805904
570 1 0.738484 0.923152 0.167353
23 1 0.913246 0.999068 0.077283
157 1 0.5113 1.00552 0.340953
504 1 0.837088 0.915556 0.0819306
574 1 0.910454 0.915762 0.161803
644 1 0.666711 0.925112 0.424764
623 1 0.902169 0.67436 0.422286
648 1 0.837411 0.902957 0.416796
621 1 0.828354 0.683021 0.331123
506 1 0.0786832 0.579911 0.153402
531 1 0.0892676 0.665985 0.268377
622 1 0.911912 0.750989 0.336531
537 1 0.326124 0.65597 0.165858
512 1 0.153995 0.588893 0.246715
510 1 0.242698 0.58838 0.165574
582 1 0.246125 0.583356 0.343041
516 1 0.331248 0.582812 0.256026
535 1 0.251949 0.655306 0.261287
604 1 1.01164 0.764857 0.425279
520 1 0.501638 0.575671 0.240197
524 1 0.667274 0.582556 0.250539
640 1 0.501793 0.913063 0.411161
547 1 0.743896 0.681812 0.254732
617 1 0.669785 0.660991 0.345164
636 1 0.316812 0.920602 0.414849
526 1 0.908252 0.586954 0.172183
528 1 0.824544 0.597547 0.254487
508 1 0.00907806 0.601054 0.251598
529 1 0.996035 0.648765 0.16445
530 1 0.0777107 0.74306 0.154294
534 1 0.240456 0.740085 0.168517
561 1 0.349132 0.835373 0.154015
536 1 0.158411 0.754756 0.239612
606 1 0.251288 0.744748 0.328431
539 1 0.408144 0.669825 0.247649
540 1 0.329118 0.748256 0.239102
609 1 0.334466 0.666751 0.31558
544 1 0.495234 0.762944 0.251948
613 1 0.502833 0.673198 0.303946
542 1 0.569467 0.754886 0.176985
545 1 0.667739 0.670032 0.168452
543 1 0.5989 0.675895 0.247292
567 1 0.574805 0.83138 0.254031
645 1 0.828387 0.826955 0.339694
548 1 0.676199 0.759116 0.25002
641 1 0.669546 0.843971 0.330146
618 1 0.74141 0.758784 0.34329
552 1 0.831061 0.758785 0.248279
532 1 0.00438216 0.754968 0.248595
551 1 0.924255 0.67822 0.24936
554 1 0.0780045 0.909543 0.161599
553 1 0.00786776 0.832905 0.162649
555 1 0.0890865 0.835524 0.261721
556 1 0.012704 0.904282 0.267181
626 1 0.0954795 0.912346 0.335211
629 1 0.178254 0.821221 0.334888
558 1 0.2387 0.930946 0.174292
559 1 0.250762 0.830131 0.239515
560 1 0.164311 0.912762 0.243277
583 1 0.263571 0.496106 0.413003
634 1 0.418712 0.934401 0.34395
637 1 0.484285 0.839034 0.330304
563 1 0.403728 0.846006 0.24855
564 1 0.340357 0.934352 0.266743
568 1 0.484808 0.927067 0.236054
638 1 0.582127 0.920958 0.336387
566 1 0.576015 0.921119 0.167806
458 1 0.0855373 0.766905 -0.00517778
642 1 0.751766 0.920755 0.347049
572 1 0.667029 0.916805 0.25227
569 1 0.644172 0.835745 0.171364
571 1 0.744351 0.836965 0.241523
439 1 0.250978 0.495266 0.0747774
576 1 0.817656 0.914294 0.254252
575 1 0.912331 0.836643 0.243773
578 1 0.0792066 0.587773 0.347174
601 1 0.00494895 0.6719 0.344657
603 1 0.0889597 0.664353 0.420653
605 1 0.16315 0.661876 0.339091
584 1 0.167498 0.579219 0.434051
588 1 0.34392 0.587645 0.411115
73 1 1.01286 1.00146 0.177261
167 1 0.919874 0.990325 0.414564
517 1 0.504562 0.488666 0.172045
631 1 0.258069 0.825865 0.413192
586 1 0.414969 0.590627 0.318556
628 1 1.00196 0.918759 0.384044
619 1 0.759186 0.658414 0.422962
620 1 0.672065 0.747287 0.426376
590 1 0.599383 0.579327 0.341367
615 1 0.596538 0.674098 0.424583
624 1 0.819571 0.754638 0.423355
592 1 0.512003 0.599098 0.40756
639 1 0.595029 0.818661 0.419032
450 1 0.757942 0.580315 -0.000661916
614 1 0.595304 0.740093 0.325782
594 1 0.759157 0.576217 0.342968
596 1 0.669433 0.591516 0.427438
7 1 0.248669 0.993959 0.0836185
598 1 0.912081 0.604488 0.339071
600 1 0.834964 0.579036 0.426705
580 1 0.990338 0.588224 0.42271
630 1 0.24313 0.91617 0.327062
602 1 0.088138 0.755675 0.335277
625 1 -0.0039044 0.822281 0.333428
627 1 0.0837319 0.835313 0.422056
633 1 0.337073 0.833083 0.33634
607 1 0.26793 0.667576 0.429476
608 1 0.164858 0.745318 0.418727
612 1 0.331775 0.744448 0.398486
597 1 0.838225 0.495104 0.34066
632 1 0.171841 0.917881 0.42364
610 1 0.410557 0.756793 0.318422
635 1 0.414912 0.832327 0.412602
611 1 0.427213 0.661461 0.393745
616 1 0.50305 0.748957 0.411599
525 1 0.827079 0.503587 0.170069
511 1 0.251284 0.514231 0.245011
19 1 0.750659 0.988489 0.0786329
593 1 0.670804 0.489509 0.326328
515 1 0.417053 0.515456 0.237732
507 1 0.0778658 0.50793 0.235505
705 1 0.33763 0.822388 0.495111
145 1 -0.000245677 1.00756 0.315965
579 1 0.0868456 0.501482 0.423394
159 1 0.582958 1.00386 0.421737
599 1 0.92236 0.503547 0.42174
581 1 0.171427 0.514177 0.339783
658 1 0.425777 0.571029 0.491643
474 1 0.739304 0.744556 0.00365805
486 1 0.244475 0.908657 0.0108385
682 1 0.411316 0.746427 0.482513
662 1 0.56737 0.582928 0.507395
498 1 0.74859 0.908984 -0.00566554
478 1 0.91742 0.734949 -0.000826792
482 1 0.0835387 0.925732 0.00820523
678 1 0.252537 0.747024 0.50668
497 1 0.648966 0.830586 0.00517324
501 1 0.836146 0.823382 -0.00105917
462 1 0.255628 0.750045 -0.00450161
494 1 0.569448 0.927896 -0.0051367
709 1 0.485486 0.841136 0.494529
470 1 0.573452 0.731789 0.00690985
229 1 0.482076 0.997334 0.496965
434 1 0.0666355 0.580208 0.00381802
469 1 0.493764 0.662606 0.0157227
713 1 0.661045 0.831577 0.507182
706 1 0.402482 0.918884 0.484877
675 1 0.0803592 0.669772 0.59232
674 1 0.0879069 0.75178 0.501691
745 1 0.00473703 0.657926 0.664501
671 1 0.92604 0.489153 0.584404
655 1 0.244718 0.504133 0.57337
656 1 0.160287 0.587187 0.590413
383 1 0.924519 1.00684 0.915415
813 1 0.841149 0.499498 0.82608
660 1 0.336635 0.581192 0.584334
664 1 0.492402 0.593956 0.579886
731 1 0.425294 0.49951 0.752456
663 1 0.580406 0.496315 0.59666
687 1 0.582269 0.671298 0.579024
710 1 0.583378 0.903956 0.486989
809 1 0.67436 0.512635 0.832613
668 1 0.663109 0.588428 0.576494
672 1 0.83877 0.573719 0.584612
738 1 0.748779 0.580539 0.670097
291 1 0.091726 0.98489 0.749003
652 1 0.999841 0.583381 0.591158
227 1 0.425852 0.997258 0.586962
723 1 0.0781218 0.504746 0.759323
676 1 -0.00160582 0.764064 0.570961
680 1 0.168931 0.741213 0.590514
746 1 0.0764893 0.755519 0.650732
651 1 0.0779853 0.50043 0.599745
743 1 0.923224 0.505136 0.762875
679 1 0.262567 0.659956 0.581242
703 1 0.255483 0.837263 0.575184
684 1 0.342453 0.752869 0.573274
749 1 0.173247 0.662488 0.667591
677 1 0.16651 0.663418 0.502185
683 1 0.415426 0.670023 0.587691
754 1 0.414158 0.75387 0.673383
686 1 0.572916 0.76803 0.513065
688 1 0.495338 0.749221 0.58223
692 1 0.662201 0.756073 0.593845
758 1 0.570603 0.739489 0.665971
689 1 0.674491 0.676192 0.505337
691 1 0.765918 0.649281 0.589552
673 1 -0.00917469 0.668264 0.49482
695 1 0.91971 0.662992 0.58381
696 1 0.834565 0.74087 0.585991
699 1 0.0918164 0.832268 0.571373
704 1 0.168417 0.915446 0.578101
297 1 0.337101 0.991632 0.664806
700 1 0.0210132 0.91547 0.592363
770 1 0.10299 0.916672 0.667151
666 1 0.74725 0.579862 0.504938
799 1 0.254631 0.49414 0.911877
811 1 0.750243 0.505787 0.90238
807 1 0.584011 0.498511 0.899103
649 1 -0.00414784 0.500588 0.505718
707 1 0.426383 0.829736 0.584923
708 1 0.347215 0.909328 0.580396
697 1 1.00871 0.851908 0.496879
711 1 0.586278 0.845705 0.592011
712 1 0.503767 0.908151 0.589825
361 1 -0.0061743 1.00454 0.835765
715 1 0.740501 0.828497 0.587611
716 1 0.667232 0.911573 0.57195
785 1 0.660375 0.830818 0.669775
844 1 0.0060207 0.927238 0.922272
719 1 0.914657 0.849709 0.585118
720 1 0.826757 0.914734 0.594389
790 1 0.922134 0.914755 0.679532
860 1 0.663031 0.917928 0.925622
722 1 0.0872485 0.589441 0.679193
794 1 0.0830844 0.580598 0.843272
817 1 -0.00876492 0.675966 0.836385
747 1 0.0864045 0.673053 0.753502
726 1 0.260277 0.587831 0.689139
728 1 0.151834 0.584344 0.764443
798 1 0.255327 0.583287 0.822315
732 1 0.348159 0.575623 0.751085
753 1 0.331155 0.670935 0.665457
730 1 0.422376 0.580757 0.665959
736 1 0.499476 0.586906 0.737579
454 1 0.914723 0.582729 1.0094
802 1 0.418846 0.581192 0.841293
654 1 0.256044 0.584042 0.508898
650 1 0.0741768 0.58947 0.498833
734 1 0.585238 0.584534 0.664661
806 1 0.584738 0.576439 0.824844
740 1 0.669655 0.582579 0.745966
864 1 0.823537 0.902476 0.911184
744 1 0.841067 0.589454 0.746248
765 1 0.833552 0.670723 0.672519
803 1 0.402937 0.506067 0.925869
233 1 0.657691 0.997093 0.505949
742 1 0.922961 0.590857 0.673288
377 1 0.669289 1.0013 0.81686
724 1 -0.00428158 0.580681 0.766497
767 1 0.920755 0.683521 0.741483
694 1 0.912496 0.742229 0.510021
748 1 0.0146568 0.744909 0.738342
818 1 0.0810139 0.753571 0.842393
751 1 0.254841 0.673347 0.758774
750 1 0.242196 0.743688 0.66524
752 1 0.171218 0.743996 0.74981
756 1 0.322423 0.758308 0.746721
757 1 0.498863 0.661838 0.656202
755 1 0.420124 0.664894 0.748234
777 1 0.344696 0.834717 0.656433
779 1 0.409318 0.825897 0.762984
760 1 0.494039 0.753651 0.76088
781 1 0.489724 0.83014 0.677123
759 1 0.587115 0.660277 0.754881
783 1 0.570969 0.847616 0.765074
833 1 0.682714 0.660056 0.834482
764 1 0.66316 0.755777 0.738176
761 1 0.683187 0.665235 0.669323
837 1 0.826516 0.680539 0.841272
763 1 0.748774 0.655595 0.753715
762 1 0.7556 0.736056 0.665624
768 1 0.833785 0.746195 0.74645
857 1 0.651824 0.848125 0.838542
766 1 0.926187 0.75088 0.651855
841 1 3.94468e-05 0.834472 0.846579
769 1 -0.00759203 0.839913 0.665854
791 1 0.922734 0.818657 0.749089
856 1 0.498554 0.910384 0.908409
854 1 0.583875 0.936671 0.839051
771 1 0.0971368 0.830314 0.737795
852 1 0.325736 0.922882 0.925206
775 1 0.255956 0.843383 0.732011
773 1 0.181162 0.821867 0.653722
774 1 0.252714 0.920914 0.653896
776 1 0.177659 0.917293 0.741496
379 1 0.747719 0.987866 0.915564
778 1 0.425793 0.920338 0.681077
780 1 0.335988 0.91205 0.747894
850 1 0.412102 0.92215 0.840714
782 1 0.577343 0.912402 0.675168
784 1 0.491285 0.923588 0.767184
788 1 0.660158 0.913478 0.749153
787 1 0.755923 0.823324 0.73459
786 1 0.731012 0.923314 0.666783
858 1 0.745042 0.909082 0.813983
792 1 0.838982 0.917024 0.748655
721 1 0.994091 0.503914 0.68414
293 1 0.176303 1.00443 0.658241
789 1 0.832408 0.821356 0.663926
772 1 1.00084 0.90965 0.761943
862 1 0.916659 0.929013 0.833348
453 1 0.835187 0.491647 0.979528
800 1 0.16662 0.578847 0.914805
821 1 0.160295 0.674464 0.85217
477 1 0.821666 0.656807 1.00987
861 1 0.839501 0.839327 0.816572
835 1 0.752934 0.667226 0.92176
820 1 0.990708 0.749625 0.919388
825 1 0.329416 0.676175 0.832871
804 1 0.334143 0.587537 0.907075
808 1 0.506104 0.582505 0.913171
829 1 0.490276 0.651703 0.834152
838 1 0.908255 0.75566 0.8356
830 1 0.581148 0.759343 0.836918
848 1 0.15999 0.921143 0.918115
810 1 0.756734 0.576386 0.826583
812 1 0.673758 0.576859 0.931358
816 1 0.82961 0.582624 0.911585
863 1 0.908657 0.82467 0.920368
842 1 0.087578 0.912051 0.822514
853 1 0.498445 0.839285 0.839554
839 1 0.909236 0.660715 0.922291
796 1 0.994181 0.580518 0.925112
814 1 0.916938 0.59492 0.842584
840 1 0.828286 0.757943 0.909049
819 1 0.0795841 0.653145 0.91777
824 1 0.175309 0.756128 0.923005
845 1 0.171355 0.831091 0.814521
843 1 0.0856251 0.84371 0.931921
846 1 0.245885 0.909531 0.84918
849 1 0.336753 0.838499 0.839166
822 1 0.242304 0.749144 0.829787
823 1 0.253049 0.672901 0.909742
847 1 0.240596 0.830847 0.921189
828 1 0.325896 0.756853 0.907036
826 1 0.420861 0.740586 0.844844
851 1 0.40638 0.836883 0.920785
827 1 0.414413 0.657274 0.915293
832 1 0.489137 0.737111 0.935992
834 1 0.735759 0.754932 0.830255
859 1 0.72279 0.815603 0.922661
855 1 0.568612 0.829828 0.927027
836 1 0.650075 0.726182 0.919515
831 1 0.577845 0.654926 0.935467
381 1 0.827283 0.991515 0.852497
457 1 0.999201 0.67228 0.993135
693 1 0.833597 0.667382 0.50422
305 1 0.657949 0.99795 0.661624
365 1 0.1664 0.980353 0.828046
367 1 0.238619 1.00194 0.929613
729 1 0.334551 0.499885 0.681064
295 1 0.242642 0.987662 0.747467
725 1 0.168982 0.516041 0.684221
231 1 0.565473 0.990384 0.579659
239 1 0.925456 0.963302 0.585676
289 1 1.00134 0.992639 0.66946
493 1 0.493794 0.834416 0.993433
714 1 0.766869 0.902136 0.508081
466 1 0.39654 0.748418 0.999587
702 1 0.250437 0.933071 0.507099
653 1 0.154251 0.511196 0.510505
461 1 0.168642 0.659285 0.987621
465 1 0.332282 0.653091 0.992847
717 1 0.836601 0.823509 0.5065
701 1 0.179009 0.830896 0.496078
21 1 0.836942 0.995589 0.992194
237 1 0.840485 0.987459 0.510552
502 1 0.902322 0.908318 0.994941
481 1 0.992681 0.832116 1.00484
670 1 0.91122 0.584723 0.507347
690 1 0.748926 0.754356 0.507603
438 1 0.251751 0.575509 0.984291
485 1 0.167294 0.837844 1.01689
489 1 0.330492 0.839923 0.998463
441 1 0.332198 0.505405 1.00394
