ITEM: TIMESTEP
8500
ITEM: NUMBER OF ATOMS
1372
ITEM: BOX BOUNDS pp pp pp
0.0000000000000000e+00 3.6820000000000000e+01
0.0000000000000000e+00 3.6820000000000000e+01
0.0000000000000000e+00 3.6820000000000000e+01
ITEM: ATOMS id type xs ys zs
8 1 0.148232 0.0631969 0.0649154
100 1 0.0680815 0.0669377 0.145167
117 1 0.138028 0.148275 0.111816
17 1 0.0683565 0.143632 0.0471884
346 1 0.215027 1.00448 0.493899
103 1 0.139797 1.00624 0.131091
12 1 0.27969 0.0663242 0.0701583
104 1 0.218944 0.062578 0.134657
121 1 0.293502 0.131622 0.14427
107 1 0.278732 0.989999 0.145625
46 1 0.008264 0.496078 0.0804771
88 1 -0.00289335 0.925077 0.0683093
14 1 0.429455 0.0637751 0.0700403
108 1 0.364011 0.0771092 0.15111
111 1 0.428368 0.99755 0.143339
60 1 0.00567737 0.634996 0.079693
291 1 0.348433 0.848422 0.366944
1002 1 0.495374 0.498967 0.425214
22 1 0.144575 0.219876 0.0645024
114 1 0.0775067 0.209091 0.131349
225 1 -0.00730253 0.273726 0.279579
31 1 0.0656746 0.269432 0.0557618
131 1 0.121365 0.292801 0.136362
270 1 0.000430932 0.786137 0.361451
799 1 0.502579 0.210435 0.141011
343 1 0.433303 0.85584 0.433472
21 1 0.229177 0.143124 0.0777712
26 1 0.285247 0.211591 0.0788106
118 1 0.20302 0.228949 0.143718
35 1 0.211118 0.288312 0.0745202
89 1 0.144753 0.859257 -0.0063514
130 1 0.00426503 0.352151 0.206409
125 1 0.44441 0.132069 0.14967
25 1 0.354985 0.129303 0.0784057
28 1 0.427001 0.204116 0.0726229
122 1 0.357257 0.202921 0.142519
36 1 0.137192 0.361502 0.0698627
45 1 0.0783242 0.434144 0.057292
128 1 0.0638268 0.368346 0.125807
145 1 0.143563 0.426565 0.137501
361 1 0.148906 0.354945 0.500986
158 1 -0.00316013 0.640347 0.213909
2 1 0.0810865 0.0745664 -0.010779
135 1 0.281787 0.288444 0.150819
40 1 0.293893 0.365789 0.0740991
132 1 0.208383 0.36529 0.145474
381 1 0.209932 0.709481 0.496779
309 1 -0.0030936 0.276915 0.419854
702 1 0.50256 0.143498 0.0746688
39 1 0.355494 0.286042 0.0643249
139 1 0.41714 0.278798 0.132338
42 1 0.424292 0.367691 0.0783882
136 1 0.359502 0.353298 0.138992
883 1 0.5053 0.0673809 0.279473
855 1 0.490371 0.794583 0.152021
294 1 0.427201 0.923421 0.367632
50 1 0.149852 0.491948 0.0710178
142 1 0.0772611 0.487399 0.141357
59 1 0.0808898 0.558146 0.0684047
159 1 0.146008 0.573367 0.146693
342 1 0.35611 0.921549 0.431767
155 1 -0.00521927 0.565718 0.142747
367 1 0.218215 0.43219 0.490581
49 1 0.212857 0.419699 0.0614118
149 1 0.279384 0.421428 0.144744
54 1 0.280209 0.490978 0.0490334
146 1 0.212999 0.490515 0.149439
214 1 -0.00590893 0.206299 0.340987
80 1 0.347146 0.793032 -0.00935461
153 1 0.413878 0.434542 0.153105
53 1 0.36388 0.432298 0.0631445
56 1 0.431014 0.488839 0.0748827
150 1 0.347661 0.486144 0.143477
67 1 0.355382 0.577633 0.0654858
301 1 0.43727 1.00214 0.421419
9 1 0.289375 1.00849 -0.00297738
19 1 0.139565 0.144531 -0.00320518
911 1 0.497207 0.344938 0.278528
203 1 0.215479 1.01705 0.345247
340 1 0.205617 0.938956 0.42898
64 1 0.152768 0.648163 0.0842924
156 1 0.0691087 0.650221 0.154667
173 1 0.145561 0.724538 0.154529
63 1 0.216606 0.570333 0.0704434
163 1 0.281337 0.558001 0.151784
68 1 0.288403 0.648025 0.0698999
160 1 0.222985 0.643879 0.145444
77 1 0.212875 0.709944 0.0843186
177 1 0.28143 0.710813 0.149615
167 1 0.417754 0.570305 0.12993
70 1 0.422536 0.654132 0.0741911
164 1 0.352874 0.643878 0.144345
81 1 0.355227 0.727837 0.0736537
181 1 0.417071 0.730034 0.146078
355 1 0.352355 0.138482 0.494381
73 1 0.0734807 0.709261 0.0868687
78 1 0.147931 0.776232 0.0795318
170 1 0.0801138 0.788202 0.145646
87 1 0.0832709 0.856063 0.0808783
94 1 0.353286 0.93415 0.0144608
253 1 0.00227735 0.575974 0.28027
856 1 0.483994 0.707325 0.211204
82 1 0.271777 0.794542 0.0840751
174 1 0.210934 0.778495 0.159411
191 1 0.282814 0.86337 0.147331
688 1 0.50414 0.991312 0.0796994
65 1 0.287818 0.570841 0.00010233
292 1 0.283641 0.923706 0.354518
30 1 0.0743772 0.361935 0.000278284
84 1 0.417741 0.788554 0.0569019
178 1 0.337859 0.783448 0.150872
354 1 0.145736 0.199504 0.505404
183 1 -0.000385269 0.849095 0.152192
912 1 0.508712 0.288221 0.365286
3 1 0.0695875 1.00319 0.0623958
187 1 0.142031 0.856364 0.153524
92 1 0.143508 0.928217 0.0696899
184 1 0.0711684 0.936837 0.138445
97 1 0.422695 0.866926 -6.25879e-05
91 1 0.20992 0.857621 0.0761741
7 1 0.212402 0.998199 0.0645427
96 1 0.280227 0.926707 0.0675782
188 1 0.207543 0.930257 0.133406
44 1 0.0703466 0.504799 -0.0113511
11 1 0.35863 1.00302 0.0722194
341 1 0.268758 0.865193 0.417033
95 1 0.34368 0.844451 0.0621734
195 1 0.407278 0.847242 0.148521
98 1 0.429491 0.926655 0.0826931
192 1 0.356917 0.918415 0.131123
841 1 0.484418 0.640613 0.15194
116 1 0.0157184 0.185832 0.201326
106 1 0.143791 0.064724 0.209096
198 1 0.0811219 0.0839906 0.288729
115 1 0.0910974 0.140355 0.205851
215 1 0.155208 0.154812 0.283198
110 1 0.287145 0.0653847 0.222311
202 1 0.204495 0.0676691 0.27198
105 1 0.212209 -0.000565074 0.215917
119 1 0.210438 0.141423 0.196456
357 1 0.422764 0.217378 0.504769
112 1 0.427544 0.0663462 0.22728
206 1 0.354946 0.0761679 0.284944
109 1 0.352728 0.996309 0.22212
24 1 0.353492 0.214627 -0.001517
338 1 0.0740481 0.933901 0.427225
120 1 0.142428 0.222373 0.214266
212 1 0.0736491 0.206768 0.290035
129 1 0.0581792 0.267202 0.217584
229 1 0.134513 0.304414 0.299447
288 1 0.138659 0.93393 0.355278
219 1 0.275421 0.132717 0.278146
124 1 0.285213 0.207757 0.216547
216 1 0.21556 0.225042 0.294231
233 1 0.29393 0.276512 0.30353
223 1 0.437854 0.134553 0.296596
123 1 0.356717 0.142631 0.215238
126 1 0.423818 0.209522 0.203342
220 1 0.359722 0.204329 0.287058
283 1 0.064182 0.859344 0.357617
297 1 0.138166 0.0074779 0.421315
134 1 0.13239 0.349489 0.215781
226 1 0.0648132 0.352231 0.279274
243 1 0.143196 0.437044 0.290568
954 1 0.504677 0.709836 0.363537
758 1 0.493621 0.711122 0.0771903
133 1 0.210654 0.287458 0.227286
138 1 0.27929 0.346831 0.235185
230 1 0.221965 0.365388 0.307235
247 1 0.287031 0.424576 0.291369
237 1 0.423649 0.279812 0.281999
137 1 0.349291 0.280158 0.219889
140 1 0.430797 0.36398 0.213606
234 1 0.35861 0.346988 0.286488
151 1 0.349642 0.422284 0.2244
6 1 0.213343 0.0807359 0.00106529
199 1 0.0746423 0.0122964 0.361821
143 1 0.0846939 0.430503 0.215767
148 1 0.137544 0.498939 0.217451
240 1 0.0642766 0.5013 0.284574
147 1 0.221802 0.429391 0.217238
152 1 0.281058 0.494937 0.227106
244 1 0.217572 0.512441 0.286881
261 1 0.291977 0.569611 0.277799
251 1 0.432335 0.424983 0.281003
154 1 0.431594 0.515619 0.217689
248 1 0.358924 0.509636 0.284719
165 1 0.352467 0.559198 0.208618
257 1 0.139953 0.579202 0.271095
157 1 0.0667169 0.569781 0.205406
162 1 0.15002 0.63927 0.20464
254 1 0.0652353 0.643532 0.28211
171 1 0.0803107 0.711615 0.221897
161 1 0.216867 0.572222 0.21421
166 1 0.285787 0.645283 0.214657
258 1 0.216986 0.639021 0.297706
275 1 0.280054 0.720923 0.281701
265 1 0.420232 0.578528 0.292856
168 1 0.419296 0.634527 0.222205
262 1 0.344054 0.645093 0.285314
279 1 0.425524 0.719532 0.28897
179 1 0.354665 0.722013 0.216082
271 1 0.149183 0.708957 0.296369
176 1 0.138466 0.791363 0.224884
268 1 0.0715987 0.794306 0.288917
185 1 0.0702685 0.868794 0.218774
285 1 0.145824 0.861405 0.288653
175 1 0.20443 0.700296 0.230251
180 1 0.277626 0.80142 0.219839
272 1 0.211096 0.782818 0.286257
383 1 0.362413 0.717076 0.511771
182 1 0.415129 0.786372 0.219695
276 1 0.34551 0.785363 0.295282
293 1 0.422083 0.848396 0.299367
326 1 0.209434 0.640346 0.426163
201 1 0.140177 -0.00287743 0.278953
101 1 0.076456 0.998718 0.21909
190 1 0.146244 0.933852 0.213351
282 1 0.0726254 0.927214 0.287654
189 1 0.202022 0.86869 0.218796
205 1 0.281271 -0.00243785 0.288263
289 1 0.268232 0.855244 0.289972
194 1 0.272488 0.928559 0.227641
286 1 0.206995 0.945034 0.289183
193 1 0.357023 0.85991 0.235873
209 1 0.430794 0.99972 0.28315
196 1 0.419115 0.927476 0.212191
290 1 0.363712 0.923587 0.290342
715 1 0.49959 0.357112 -0.00394983
260 1 0.135522 0.629818 0.351036
730 1 0.511878 0.4342 0.0607333
204 1 0.137371 0.0836385 0.360003
296 1 0.0751043 0.0756652 0.441151
213 1 0.0647847 0.1466 0.361131
325 1 0.146197 0.573226 0.421517
269 1 0.0725025 0.714058 0.357867
299 1 0.29143 0.989268 0.422857
208 1 0.287575 0.0768225 0.354883
298 1 0.218066 0.0660869 0.430638
217 1 0.213931 0.143398 0.349212
264 1 0.282423 0.638341 0.36765
331 1 0.0687705 0.781196 0.435793
207 1 0.357765 0.000882003 0.359359
210 1 0.43645 0.0677159 0.356317
300 1 0.37177 0.0720134 0.421912
221 1 0.368423 0.1461 0.360275
274 1 0.140263 0.783606 0.355088
332 1 0.143713 0.712302 0.42395
304 1 0.147645 0.145839 0.423168
218 1 0.146614 0.216204 0.348364
303 1 0.0819309 0.199852 0.433637
227 1 0.0598785 0.27337 0.35792
339 1 0.127061 0.858802 0.433513
335 1 0.348068 0.789053 0.432296
363 1 0.281358 0.344311 0.484915
306 1 0.292967 0.142439 0.427394
222 1 0.287248 0.200348 0.358742
305 1 0.221272 0.209535 0.429849
231 1 0.217907 0.289419 0.353966
313 1 0.296264 0.272651 0.43647
308 1 0.429436 0.136422 0.433401
224 1 0.437139 0.217828 0.353506
307 1 0.371203 0.224914 0.434283
315 1 0.43088 0.290464 0.433406
235 1 0.368094 0.286691 0.366898
280 1 0.433529 0.776657 0.370228
259 1 0.205162 0.570094 0.354563
350 1 0.436631 0.0729581 0.505023
311 1 0.137222 0.290665 0.416235
232 1 0.132369 0.370943 0.370294
310 1 0.0745338 0.382228 0.438692
318 1 0.140117 0.445682 0.440226
241 1 0.06846 0.43835 0.351432
37 1 0.290744 0.288176 -0.00191977
277 1 0.355679 0.725913 0.367426
236 1 0.290717 0.364638 0.369632
312 1 0.21285 0.354203 0.421566
245 1 0.216993 0.440576 0.351665
255 1 0.0691221 0.569327 0.349233
284 1 0.0154023 0.939539 0.35613
324 1 0.0661176 0.653979 0.426535
336 1 0.432419 0.707456 0.438215
238 1 0.431756 0.35387 0.351754
314 1 0.360297 0.364165 0.425967
249 1 0.359833 0.432148 0.333648
329 1 0.433259 0.564894 0.425594
287 1 0.197626 0.864412 0.361502
246 1 0.133367 0.506443 0.361471
317 1 0.0671849 0.504107 0.423493
266 1 0.427987 0.647929 0.364533
327 1 0.27797 0.570168 0.430215
263 1 0.35604 0.583093 0.361733
320 1 0.297916 0.440696 0.428128
319 1 0.211767 0.497528 0.429877
250 1 0.293311 0.501485 0.347425
273 1 0.224985 0.714459 0.362437
334 1 0.280756 0.716258 0.434548
322 1 0.421106 0.429668 0.416364
252 1 0.432402 0.50078 0.34702
321 1 0.36987 0.506318 0.422355
333 1 0.211263 0.793031 0.436415
278 1 0.276805 0.796209 0.365525
328 1 0.356468 0.650934 0.438182
772 1 0.498846 0.864395 0.0726313
376 1 0.358523 0.572837 0.502586
76 1 0.20259 0.786347 -0.011528
1016 1 0.506825 0.784199 0.450747
38 1 0.351503 0.360723 -0.00657688
356 1 0.291127 0.200953 0.49753
364 1 0.434788 0.347098 0.495843
52 1 0.354895 0.499384 -0.00634794
351 1 0.0672149 0.135416 0.507008
349 1 0.286999 0.0643774 0.487974
353 1 0.219007 0.133089 0.503162
337 1 0.00143687 0.858175 0.430452
55 1 0.428629 0.422211 -0.00451557
51 1 0.27927 0.429259 -0.0135287
172 1 0.0138705 0.786147 0.221376
69 1 0.429179 0.566429 0.0118972
79 1 0.281946 0.721732 0.00511226
365 1 0.0635214 0.441159 0.504077
197 1 0.00791412 0.00945986 0.295839
295 1 0.00139856 -0.00635195 0.439599
953 1 0.50377 0.785039 0.292986
366 1 -0.0128247 0.49924 0.489946
74 1 0.0113182 0.782452 0.0784951
267 1 0.00124076 0.72071 0.281793
102 1 0.00166094 0.0692224 0.21443
785 1 0.494093 0.06218 0.140625
141 1 0.00159969 0.429929 0.157672
800 1 0.500708 0.144681 0.222835
939 1 0.497726 0.636855 0.280686
13 1 0.421616 0.986031 -0.0106446
1044 1 0.510551 0.295135 0.484707
348 1 0.357446 -0.00945955 0.493128
359 1 0.00331002 0.35975 0.499944
57 1 0.00426037 0.58064 -0.000110681
58 1 0.0788777 0.643428 -0.00525559
369 1 0.366167 0.418058 0.497192
347 1 0.148057 0.0644855 0.495694
61 1 0.148117 0.582233 0.00716494
71 1 -0.000302577 0.708993 0.0195352
72 1 0.0810014 0.787627 0.00218782
358 1 0.0741866 0.277191 0.48874
62 1 0.219607 0.652096 0.0100179
386 1 0.069606 0.85881 0.499399
5 1 0.146098 1.00282 -0.00886641
360 1 0.206865 0.283308 0.487979
345 1 -0.000682659 0.0642705 0.502649
389 1 0.13477 0.939983 0.496355
20 1 0.210966 0.206001 0.00804405
379 1 0.0663816 0.710041 0.504091
701 1 0.493829 0.210811 0.00582048
370 1 0.295488 0.500939 0.50094
372 1 0.0726785 0.584762 0.48663
27 1 0.424136 0.140076 0.00832142
729 1 0.509059 0.499286 -0.000649498
382 1 0.139154 0.792982 0.498374
394 1 0.0676244 0.0747424 0.571923
400 1 0.136272 0.0759596 0.644472
409 1 0.0655411 0.152963 0.649504
395 1 0.067266 -0.00227962 0.627658
411 1 0.141138 0.141657 0.576161
407 1 -0.00289679 0.147466 0.568082
398 1 0.212802 0.0680706 0.568606
404 1 0.279648 0.068977 0.635859
413 1 0.210319 0.143909 0.644744
415 1 0.282929 0.131183 0.568509
401 1 0.292212 0.00712022 0.569416
399 1 0.196155 0.00315407 0.636037
402 1 0.367831 0.0771841 0.574813
406 1 0.414529 0.0733711 0.650237
417 1 0.350234 0.147335 0.632422
403 1 0.357455 -0.0106425 0.641232
405 1 0.431997 -0.00553522 0.572607
687 1 0.503864 0.0573274 1.01451
408 1 0.0688185 0.20226 0.563565
414 1 0.143374 0.215529 0.64202
425 1 0.146395 0.285096 0.555717
423 1 0.0754335 0.280898 0.632639
575 1 0.00291547 0.841738 0.715339
412 1 0.215342 0.215755 0.563317
418 1 0.285657 0.214074 0.640577
1094 1 0.504355 0.149339 0.644854
1247 1 0.513414 0.786228 0.718292
421 1 -0.00177217 0.287735 0.568277
419 1 0.437325 0.154216 0.569973
416 1 0.355266 0.211391 0.563034
420 1 0.42475 0.211322 0.642416
433 1 0.437648 0.293788 0.572977
431 1 0.359809 0.289015 0.643034
561 1 -0.00128526 0.716328 0.734203
547 1 -0.0113948 0.569061 0.706724
422 1 0.0772653 0.363045 0.573699
428 1 0.131708 0.349727 0.657214
439 1 0.146924 0.441994 0.558134
437 1 0.0825866 0.436358 0.637774
1205 1 0.496509 0.355862 0.717996
1248 1 0.501177 0.72643 0.795123
427 1 0.206427 0.285533 0.63322
429 1 0.274314 0.280297 0.54648
426 1 0.20938 0.355174 0.57105
432 1 0.282381 0.34134 0.640634
441 1 0.225809 0.420768 0.647151
1275 1 0.498306 0.0643541 0.852859
430 1 0.357382 0.357217 0.568726
434 1 0.423106 0.363992 0.64693
436 1 0.0695663 0.505285 0.56721
442 1 0.155997 0.503592 0.640599
451 1 0.0768897 0.5748 0.652209
378 1 0.433816 0.630049 0.498143
390 1 0.362612 0.849848 0.4935
41 1 0.431752 0.296322 1.01336
443 1 0.292432 0.428589 0.557414
440 1 0.23085 0.503306 0.580191
446 1 0.291442 0.498037 0.652978
455 1 0.216072 0.568311 0.659601
457 1 0.277009 0.581114 0.581813
1233 1 0.511891 0.649492 0.71961
676 1 0.00248112 0.929548 0.93353
445 1 0.337949 0.423623 0.637783
447 1 0.432168 0.420397 0.56021
444 1 0.35649 0.495 0.576971
448 1 0.434307 0.496608 0.658123
459 1 0.352364 0.573312 0.635591
601 1 0.432894 0.991074 0.847237
599 1 0.353544 1.00418 0.930601
453 1 0.153768 0.572475 0.579087
450 1 0.0774804 0.636573 0.564913
456 1 0.15334 0.643481 0.645641
465 1 0.0773846 0.714932 0.63347
686 1 0.430919 0.926928 0.919988
1303 1 0.497764 0.359456 0.867632
1108 1 0.493921 0.285411 0.637426
519 1 -0.00294009 0.293729 0.720401
454 1 0.208658 0.64779 0.564295
460 1 0.285364 0.651376 0.641706
469 1 0.217579 0.713716 0.628868
533 1 -0.00412832 0.434722 0.709554
1192 1 0.505251 0.139273 0.794568
461 1 0.422238 0.573359 0.570064
458 1 0.356587 0.640538 0.567563
462 1 0.419935 0.644194 0.649905
473 1 0.361327 0.714109 0.64562
1072 1 0.50284 0.847859 0.528078
467 1 0.137894 0.723992 0.556993
466 1 0.0059656 0.773788 0.655421
464 1 0.0521314 0.787452 0.57207
470 1 0.147261 0.786107 0.645419
344 1 0.0676888 -0.00237186 0.509988
1121 1 0.512776 0.502252 0.571089
471 1 0.286621 0.716117 0.567693
468 1 0.207934 0.797169 0.556271
474 1 0.280572 0.788543 0.643054
384 1 0.279369 0.79451 0.498979
620 1 -0.0141637 0.356607 0.932961
475 1 0.43294 0.700892 0.570892
472 1 0.346059 0.78533 0.579292
476 1 0.427789 0.771232 0.641228
682 1 0.359125 0.927235 0.85091
397 1 0.148503 0.013441 0.568755
479 1 0.0679362 0.850143 0.642099
481 1 0.138628 0.857028 0.570272
478 1 0.0634608 0.920416 0.562749
484 1 0.140963 0.925094 0.627667
683 1 0.348733 0.867024 0.925948
483 1 0.216216 0.85477 0.631801
485 1 0.291236 0.856211 0.572225
482 1 0.217904 0.939103 0.566755
488 1 0.282207 0.925549 0.63232
29 1 -0.0122082 0.291166 0.996005
685 1 0.440256 0.855413 0.866374
487 1 0.366062 0.856274 0.6511
489 1 0.423468 0.861304 0.583742
486 1 0.360658 0.924273 0.565124
490 1 0.444723 0.92645 0.659285
631 1 0.00067046 0.439592 0.857928
1220 1 0.495656 0.433637 0.798617
492 1 0.0653788 0.0705588 0.70412
498 1 0.138738 0.0619737 0.777104
507 1 0.066762 0.147289 0.77357
495 1 0.142119 -0.0195435 0.716452
496 1 0.217808 0.0751717 0.705263
502 1 0.283541 0.0797341 0.785808
513 1 0.285223 0.146952 0.706178
499 1 0.30025 0.000544683 0.706143
597 1 0.2751 0.991903 0.852162
500 1 0.344577 0.0761375 0.707658
504 1 0.435932 0.0675985 0.778886
515 1 0.366882 0.146297 0.773749
503 1 0.428959 0.00461178 0.708921
501 1 0.359678 -0.000743787 0.792028
509 1 0.1463 0.145664 0.71839
506 1 0.0650698 0.218358 0.719331
512 1 0.132844 0.218646 0.7833
684 1 0.283891 0.936748 0.931573
521 1 0.0720688 0.290676 0.799132
678 1 0.210188 0.925825 0.857049
511 1 0.222255 0.150998 0.7793
510 1 0.222359 0.217074 0.717684
516 1 0.287588 0.217379 0.785917
527 1 0.294231 0.280155 0.721514
525 1 0.220876 0.296406 0.7882
517 1 0.431939 0.147319 0.707381
514 1 0.361786 0.218649 0.70777
518 1 0.434895 0.214981 0.784297
410 1 0.00768881 0.229116 0.646035
1093 1 0.499814 0.233439 0.558601
523 1 0.152156 0.284282 0.715979
520 1 0.0648463 0.363673 0.714767
526 1 0.131192 0.367235 0.78762
537 1 0.139786 0.431904 0.712962
535 1 0.059595 0.43156 0.782837
524 1 0.217924 0.357137 0.723342
530 1 0.28721 0.355567 0.79057
539 1 0.21253 0.433066 0.779884
595 1 0.206319 0.994561 0.923729
531 1 0.438298 0.286983 0.711639
529 1 0.358706 0.272252 0.799486
528 1 0.357396 0.35112 0.731691
532 1 0.430205 0.353303 0.800339
545 1 0.436527 0.421336 0.726807
543 1 0.354882 0.429927 0.783389
679 1 0.205847 0.863301 0.91315
534 1 0.0690285 0.501268 0.705766
540 1 0.147725 0.507053 0.792167
551 1 0.144802 0.581476 0.718312
549 1 0.0726033 0.566596 0.778015
541 1 0.284091 0.429888 0.719954
538 1 0.220074 0.508966 0.727542
544 1 0.299512 0.50572 0.782963
555 1 0.296835 0.571021 0.711583
1318 1 0.478528 0.429975 0.921814
661 1 0.0748095 0.707302 0.925933
542 1 0.353515 0.495089 0.713408
546 1 0.416395 0.499097 0.776265
557 1 0.363449 0.578546 0.793439
591 1 0.0734469 -0.00577663 0.92079
548 1 0.0765534 0.649918 0.70742
554 1 0.140247 0.635499 0.798514
565 1 0.144662 0.719693 0.716058
553 1 0.216104 0.570932 0.79294
552 1 0.213596 0.648572 0.720121
558 1 0.280506 0.636025 0.782922
569 1 0.286392 0.708271 0.720455
567 1 0.220704 0.719544 0.778348
559 1 0.415779 0.579661 0.714255
556 1 0.359928 0.658158 0.724865
560 1 0.434883 0.64049 0.774042
571 1 0.374502 0.713746 0.792369
573 1 0.439522 0.727791 0.721344
675 1 0.0738991 0.855625 0.9231
563 1 0.0711617 0.711445 0.799339
562 1 0.0776457 0.785625 0.718672
568 1 0.146737 0.769301 0.784932
577 1 0.0546433 0.861638 0.795717
579 1 0.150827 0.877524 0.701981
1317 1 0.48068 0.508858 0.855928
566 1 0.214929 0.781962 0.711609
572 1 0.282745 0.793495 0.785345
581 1 0.206554 0.859434 0.773672
666 1 0.135864 0.786432 0.926581
570 1 0.355185 0.776049 0.714592
574 1 0.434872 0.795792 0.795427
585 1 0.364811 0.852769 0.779112
587 1 0.430689 0.846807 0.71311
674 1 0.0642507 0.922591 0.855895
1290 1 0.500487 0.133006 0.954478
493 1 0.0649861 0.992576 0.773332
576 1 0.0665262 0.925735 0.702025
582 1 0.13911 0.921924 0.782576
424 1 -0.000449834 0.359911 0.638015
497 1 0.21179 -0.00928049 0.775441
583 1 0.277548 0.861932 0.700487
580 1 0.218911 0.936951 0.6928
586 1 0.28636 0.929919 0.781274
677 1 0.138133 0.845708 0.850314
584 1 0.353664 0.926689 0.70638
588 1 0.429204 0.928831 0.777699
663 1 0.147298 0.709986 0.860617
564 1 -0.00526323 0.777683 0.80106
590 1 0.0703355 0.0716694 0.845761
596 1 0.150859 0.0735745 0.916681
607 1 0.144735 0.136842 0.845114
605 1 0.0799651 0.135636 0.909614
594 1 0.211736 0.0620542 0.838999
600 1 0.269466 0.0685267 0.927557
609 1 0.208954 0.150308 0.937645
598 1 0.368809 0.0617886 0.868721
602 1 0.44504 0.0592565 0.929164
592 1 8.92359e-05 0.0763364 0.930855
660 1 0.0657689 0.775908 0.861771
604 1 0.0742033 0.211644 0.855943
610 1 0.149495 0.211997 0.920844
619 1 0.0718035 0.29508 0.919076
611 1 0.289113 0.145605 0.849978
608 1 0.20572 0.206808 0.853799
614 1 0.290234 0.216536 0.936063
86 1 0.077841 0.928062 0.992549
613 1 0.373843 0.128835 0.934503
615 1 0.442372 0.135851 0.865772
612 1 0.364339 0.204855 0.853372
616 1 0.422481 0.210703 0.926991
34 1 0.215017 0.356942 1.00466
1360 1 0.500748 0.860662 0.941491
621 1 0.150508 0.288859 0.85299
618 1 0.0664281 0.36391 0.859577
624 1 0.15148 0.355694 0.928747
635 1 0.143159 0.437645 0.852971
633 1 0.06518 0.435507 0.931759
623 1 0.210058 0.279918 0.930933
625 1 0.289349 0.29136 0.856749
622 1 0.216549 0.366168 0.856021
628 1 0.265987 0.356961 0.93006
639 1 0.297853 0.431692 0.859511
637 1 0.215553 0.426341 0.924485
593 1 0.135987 -0.00274234 0.847896
627 1 0.363159 0.295119 0.916952
629 1 0.432583 0.273001 0.855821
626 1 0.353117 0.361888 0.860225
630 1 0.417952 0.359173 0.929125
643 1 0.416722 0.426475 0.847208
641 1 0.361598 0.433359 0.92542
658 1 0.420861 0.65179 0.931198
632 1 0.0736945 0.501784 0.870757
638 1 0.143762 0.494591 0.925299
649 1 0.148844 0.573084 0.878281
647 1 0.0742623 0.578868 0.934111
664 1 0.210896 0.78003 0.842601
651 1 0.232709 0.574963 0.929832
636 1 0.222671 0.50316 0.853387
642 1 0.286706 0.493185 0.92902
653 1 0.297822 0.571932 0.860549
680 1 0.137651 0.920096 0.917645
667 1 0.292141 0.719452 0.840634
655 1 0.352469 0.581656 0.938708
644 1 0.43302 0.515292 0.931595
640 1 0.374395 0.500654 0.872668
670 1 0.27941 0.802473 0.921631
671 1 0.426648 0.710957 0.862825
652 1 0.156008 0.653603 0.94121
646 1 0.0740125 0.639786 0.861904
669 1 0.343889 0.727882 0.926548
603 1 0.00319783 0.137681 0.83506
650 1 0.213011 0.638587 0.863529
681 1 0.288615 0.867693 0.85126
656 1 0.291688 0.643431 0.939667
665 1 0.231402 0.719039 0.928215
672 1 0.414876 0.783687 0.923569
668 1 0.357363 0.786078 0.850033
657 1 0.416219 0.583008 0.865151
654 1 0.354525 0.652764 0.849212
1346 1 0.502653 0.715649 0.942421
659 1 0.00419504 0.706143 0.862717
494 1 -0.0092195 0.054271 0.779452
1234 1 0.494974 0.571681 0.77658
606 1 -0.00783483 0.215051 0.911027
452 1 -0.00132427 0.634423 0.642791
1080 1 0.505519 0.00280801 0.652079
47 1 0.148377 0.429695 0.989584
1163 1 0.494878 0.915834 0.582135
508 1 0.00297748 0.214336 0.791175
385 1 0.424462 0.780111 0.518519
662 1 0.0108113 0.785467 0.930239
1345 1 0.49732 0.783951 0.870199
634 1 0.000986331 0.503223 0.924355
48 1 0.206008 0.501275 0.996182
83 1 0.421338 0.71729 0.999528
391 1 0.287634 0.931731 0.507678
66 1 0.361202 0.652181 1.00482
16 1 0.0682398 0.218773 0.976066
33 1 0.146159 0.290944 0.994393
90 1 0.208308 0.930696 0.995259
23 1 0.285088 0.135021 0.99544
392 1 0.439457 0.915838 0.507827
362 1 0.364574 0.286409 0.50324
1030 1 0.514081 0.00923208 0.501168
368 1 0.144154 0.52044 0.505646
10 1 0.366616 0.0651007 1.00696
388 1 0.211514 0.873736 0.490266
371 1 0.428205 0.493325 0.503291
75 1 0.137485 0.716445 1.0049
374 1 0.220602 0.565153 0.502657
377 1 0.283427 0.644943 0.493662
93 1 0.268685 0.859391 0.997316
757 1 0.490057 0.791617 1.00179
375 1 0.152416 0.63104 0.492213
692 1 0.575635 0.0600365 0.0713231
788 1 0.631057 0.0680742 0.144187
716 1 0.497556 0.282329 0.0772455
18 1 0.991365 0.20076 0.0739343
696 1 0.703329 0.0668438 0.0694277
792 1 0.776261 0.0776849 0.149131
791 1 0.702946 -0.0125006 0.130764
330 1 0.995724 0.708832 0.423143
700 1 0.844692 0.0738333 0.0696607
796 1 0.933078 0.0544576 0.152829
809 1 0.855387 0.134602 0.138685
1039 1 0.569472 0.222198 0.500516
705 1 0.630481 0.132772 0.0682968
801 1 0.572947 0.137133 0.145785
706 1 0.572117 0.216728 0.0666748
802 1 0.636604 0.199843 0.13166
239 1 0.990768 0.437215 0.273889
815 1 0.579503 0.279446 0.147456
228 1 1.00926 0.361598 0.361633
926 1 0.490091 0.425175 0.35956
736 1 0.792098 0.495768 0.00580936
827 1 0.509444 0.49756 0.146898
805 1 0.713381 0.143957 0.130664
709 1 0.786679 0.142502 0.0684109
710 1 0.711669 0.215134 0.068364
806 1 0.783506 0.214423 0.135422
723 1 0.786346 0.283763 0.0646887
169 1 1.00532 0.718063 0.156046
869 1 0.493242 0.918853 0.153793
713 1 0.919095 0.13497 0.0705573
714 1 0.867572 0.215169 0.0760002
810 1 0.937284 0.19647 0.1413
895 1 0.939635 1.00219 0.368009
727 1 0.925686 0.285348 0.0799121
1009 1 0.514569 0.645393 0.437101
988 1 0.49004 0.203502 0.438717
719 1 0.645969 0.284545 0.0747508
720 1 0.581596 0.358346 0.0597948
816 1 0.642488 0.358322 0.14571
186 1 1.00232 0.934877 0.215432
1029 1 0.931047 0.932675 0.433364
1058 1 0.504014 0.564363 0.500437
819 1 0.713144 0.278357 0.135127
724 1 0.714789 0.360037 0.0689294
820 1 0.783268 0.349698 0.144264
281 1 0.999233 0.851982 0.283975
884 1 0.510513 1.00939 0.354437
1059 1 0.646693 0.566014 0.509788
823 1 0.862259 0.293637 0.146118
728 1 0.842164 0.355258 0.0631233
824 1 0.924963 0.356414 0.152035
980 1 0.857578 0.938386 0.350729
764 1 0.797764 0.773561 -0.00404198
1023 1 0.498593 0.935432 0.438064
733 1 0.648653 0.427803 0.0815777
829 1 0.581066 0.434174 0.147037
734 1 0.572424 0.495427 0.073275
830 1 0.662497 0.502483 0.148558
843 1 0.573886 0.569119 0.146951
718 1 0.642388 0.363471 -0.00981821
833 1 0.718914 0.42397 0.143554
737 1 0.782305 0.424307 0.0715534
738 1 0.716165 0.503723 0.0686762
834 1 0.797345 0.516929 0.143467
847 1 0.726567 0.569714 0.134105
751 1 0.782909 0.564893 0.0639526
1064 1 0.843034 0.648534 0.502559
741 1 0.920415 0.425965 0.0770296
837 1 0.84736 0.428154 0.148154
742 1 0.859879 0.501848 0.0740156
838 1 0.934516 0.495885 0.143604
127 1 1.00931 0.277713 0.140013
747 1 0.641563 0.584514 0.0652122
748 1 0.578145 0.652443 0.0743096
844 1 0.649714 0.634778 0.143992
857 1 0.572115 0.721598 0.15306
897 1 0.502622 0.224664 0.279168
986 1 0.858576 0.00832859 0.424714
752 1 0.712096 0.638181 0.0561963
848 1 0.780722 0.631998 0.141858
765 1 0.782773 0.701198 0.0734033
940 1 0.504014 0.590845 0.360006
316 1 1.0022 0.440348 0.418419
851 1 0.867231 0.578533 0.14296
755 1 0.92959 0.581507 0.0744873
756 1 0.861041 0.642034 0.0700939
852 1 0.93479 0.648016 0.145444
769 1 0.933104 0.704196 0.0780963
865 1 0.849255 0.69813 0.13718
744 1 0.51028 0.57945 0.0803007
761 1 0.647156 0.720258 0.0629023
762 1 0.560559 0.781912 0.0717949
858 1 0.642229 0.784974 0.124399
871 1 0.565196 0.85042 0.138482
771 1 0.504578 0.940394 0.00867045
32 1 1.00064 0.346292 0.0732318
842 1 0.508262 0.567126 0.211007
861 1 0.714669 0.705092 0.136582
766 1 0.723792 0.770684 0.0668527
862 1 0.78508 0.782748 0.15235
779 1 0.797173 0.8455 0.0777226
323 1 0.997164 0.583853 0.424646
813 1 0.509484 0.365407 0.128501
770 1 0.867972 0.778215 0.0762147
866 1 0.933023 0.789674 0.151569
783 1 0.935008 0.846448 0.0735129
879 1 0.86779 0.854071 0.13629
1011 1 0.637116 0.628647 0.435401
944 1 0.584773 0.652996 0.348831
691 1 0.637439 0.00369227 0.0635873
1046 1 0.585829 0.343348 0.49977
1027 1 0.792445 0.935003 0.420839
775 1 0.646009 0.844431 0.06914
957 1 0.65543 0.715833 0.360612
787 1 0.566045 0.98912 0.143054
776 1 0.576778 0.926325 0.0716695
872 1 0.648554 0.911482 0.135567
695 1 0.786968 1.00342 0.069614
875 1 0.719165 0.860627 0.125569
780 1 0.723139 0.936002 0.0504222
876 1 0.788859 0.929915 0.139956
699 1 0.920079 1.01309 0.0673323
795 1 0.861938 0.993168 0.15174
976 1 0.70972 0.92698 0.361023
99 1 0.99843 0.995805 0.132503
784 1 0.849316 0.921607 0.0722288
880 1 0.932826 0.931609 0.123732
790 1 0.5663 0.0627149 0.207721
886 1 0.636342 0.0764487 0.283633
789 1 0.64102 -0.00808255 0.215593
885 1 0.572624 -0.0073236 0.281571
794 1 0.706063 0.0796891 0.212102
890 1 0.781805 0.0771728 0.285552
798 1 0.849848 0.0705868 0.219229
894 1 0.91604 0.0713285 0.299215
893 1 0.841595 0.00408116 0.284047
811 1 0.925958 0.123412 0.214123
797 1 0.930084 0.995625 0.239222
1010 1 0.57066 0.569482 0.425114
1018 1 0.655691 0.795273 0.433504
803 1 0.641534 0.137526 0.212657
899 1 0.571426 0.146255 0.27746
804 1 0.568107 0.205389 0.210339
900 1 0.635522 0.208647 0.288666
817 1 0.653935 0.284279 0.212169
984 1 0.722443 -0.00662564 0.432582
807 1 0.792884 0.136899 0.214028
903 1 0.726358 0.14276 0.279263
808 1 0.708876 0.208727 0.220525
904 1 0.79408 0.216784 0.28577
907 1 0.85975 0.142654 0.277361
812 1 0.855657 0.207977 0.201948
908 1 0.917567 0.210141 0.285081
825 1 0.923282 0.267083 0.204614
913 1 0.574973 0.289299 0.271566
818 1 0.579905 0.354779 0.216273
914 1 0.659576 0.362158 0.292185
821 1 0.781891 0.294302 0.220444
917 1 0.710308 0.286564 0.301472
822 1 0.709854 0.355519 0.21215
918 1 0.777264 0.364451 0.276587
921 1 0.854116 0.28967 0.278579
826 1 0.8605 0.357978 0.215001
922 1 0.941938 0.355852 0.266349
831 1 0.646093 0.431176 0.224143
927 1 0.573006 0.423054 0.287631
832 1 0.571586 0.504267 0.223816
928 1 0.641434 0.496743 0.30668
958 1 0.57043 0.784426 0.369012
1020 1 0.789103 0.802014 0.431928
835 1 0.779657 0.440108 0.213375
931 1 0.724765 0.42919 0.295552
836 1 0.708654 0.505124 0.231334
932 1 0.790804 0.506361 0.285677
849 1 0.785857 0.570754 0.219216
839 1 0.923667 0.431016 0.204235
935 1 0.863668 0.427053 0.275316
840 1 0.855484 0.511632 0.213393
936 1 0.931292 0.515725 0.284076
949 1 0.855639 0.569798 0.282204
1017 1 0.582845 0.711269 0.432654
144 1 1.0061 0.504181 0.207952
979 1 0.921744 0.851619 0.34859
845 1 0.648032 0.571294 0.228791
941 1 0.575593 0.579608 0.291766
846 1 0.577277 0.632679 0.212312
942 1 0.650658 0.644188 0.279655
955 1 0.552318 0.70997 0.269492
945 1 0.723161 0.578701 0.298783
850 1 0.71894 0.627399 0.218511
946 1 0.789773 0.646873 0.277901
959 1 0.718115 0.734039 0.281635
853 1 0.932285 0.574066 0.215406
854 1 0.85332 0.639959 0.20854
950 1 0.925822 0.646323 0.283651
963 1 0.853465 0.716743 0.287836
867 1 0.92793 0.714057 0.218277
1057 1 0.843304 0.501285 0.506382
1078 1 0.865833 0.94026 0.487369
859 1 0.636714 0.715967 0.212381
860 1 0.555833 0.785929 0.214179
956 1 0.630587 0.772105 0.288545
873 1 0.648706 0.856203 0.20865
969 1 0.564081 0.852508 0.284659
863 1 0.784076 0.712753 0.216646
864 1 0.699043 0.782565 0.200555
960 1 0.795241 0.790127 0.282243
973 1 0.718571 0.846876 0.282351
877 1 0.791346 0.861673 0.209067