ITEM: TIMESTEP
24300
ITEM: NUMBER OF ATOMS
864
ITEM: BOX BOUNDS pp pp pp
0.0000000000000000e+00 3.1559999999999999e+01
0.0000000000000000e+00 3.1559999999999999e+01
0.0000000000000000e+00 3.1559999999999999e+01
ITEM: ATOMS id type xs ys zs
8 1 0.149411 0.0859258 0.0908611
74 1 0.0742885 0.0834562 0.185141
151 1 0.232163 0.000216663 0.428943
101 1 0.17103 0.18415 0.177334
22 1 0.919415 0.0908251 -0.00283196
12 1 0.325707 0.0701137 0.0846817
15 1 0.590176 0.0097427 0.0813828
453 1 0.838787 0.483081 -0.00268322
597 1 0.819998 0.483374 0.356727
215 1 0.908377 0.327384 0.424668
16 1 0.50333 0.0909336 0.089117
20 1 0.662829 0.100113 0.095882
214 1 0.911674 0.408884 0.338303
521 1 0.678179 0.488684 0.170485
24 1 0.84001 0.0992426 0.0826247
43 1 0.75259 0.158311 0.0811051
593 1 0.671607 0.476315 0.345471
4 1 1.00353 0.0824919 0.0792974
47 1 0.920759 0.170025 0.0916497
97 1 -0.00329532 0.180509 0.188779
245 1 0.175555 0.171431 0.499468
147 1 0.0862694 -0.00295487 0.414828
27 1 0.0860543 0.178957 0.0954589
98 1 0.0816187 0.2505 0.182689
32 1 0.159945 0.253916 0.100428
51 1 0.0871959 0.339339 0.109303
31 1 0.240285 0.173271 0.0903597
105 1 0.321931 0.176403 0.172939
35 1 0.41444 0.171821 0.0837466
36 1 0.313877 0.251051 0.083724
40 1 0.504351 0.255632 0.0838482
145 1 0.999054 0.000658088 0.329526
39 1 0.583874 0.168903 0.0869932
63 1 0.589387 0.337941 0.0831953
79 1 0.24507 0.00100982 0.25771
159 1 0.588016 0.0266758 0.417276
44 1 0.672062 0.248295 0.0973552
114 1 0.759507 0.265293 0.159944
67 1 0.739281 0.339591 0.0720567
85 1 0.514096 0.00896948 0.1605
28 1 0.015014 0.249744 0.0854678
48 1 0.827166 0.255735 0.072189
121 1 0.998931 0.340163 0.166164
81 1 0.33255 -0.00705822 0.170693
118 1 0.915443 0.267422 0.162912
95 1 0.904494 0.00972898 0.242064
254 1 0.584854 0.224903 0.491996
595 1 0.740161 0.472941 0.427072
52 1 -0.000144912 0.420144 0.0833954
56 1 0.159562 0.422738 0.0808226
577 1 1.00933 0.506049 0.334845
87 1 0.592367 -0.00159196 0.241825
591 1 0.590806 0.49553 0.416725
55 1 0.249433 0.351579 0.0964906
519 1 0.594843 0.491466 0.27658
11 1 0.427629 0.011153 0.0713874
59 1 0.410782 0.330439 0.0745479
60 1 0.344416 0.418503 0.0761802
64 1 0.515895 0.418953 0.0750497
130 1 0.438337 0.418306 0.162631
523 1 0.757253 0.488351 0.258439
133 1 0.498383 0.32592 0.157962
134 1 0.571572 0.430535 0.17832
41 1 0.665779 0.157578 -0.00381136
68 1 0.655311 0.417765 0.0813111
138 1 0.756736 0.416972 0.169
137 1 0.66202 0.350931 0.172725
73 1 0.989306 0.00071024 0.161939
246 1 0.254759 0.24748 0.49801
71 1 0.918978 0.33836 0.0780749
72 1 0.833697 0.407815 0.0720548
141 1 0.835712 0.338324 0.168167
211 1 0.748095 0.308652 0.419132
196 1 0.995158 0.43011 0.417285
75 1 0.0817026 0.00666549 0.258847
146 1 0.0986845 0.107375 0.339338
99 1 0.0835756 0.174392 0.249999
149 1 0.168167 -0.00254902 0.339769
80 1 0.171094 0.0920535 0.263219
78 1 0.264736 0.0772275 0.170698
200 1 0.168076 0.426636 0.423705
212 1 0.667985 0.380841 0.419405
84 1 0.331079 0.0771874 0.255838
82 1 0.410581 0.0936579 0.163641
195 1 0.0771979 0.339633 0.431108
86 1 0.590428 0.088639 0.176145
88 1 0.497543 0.0985547 0.246923
181 1 0.488995 0.16799 0.318167
90 1 0.747385 0.0858464 0.169812
216 1 0.826406 0.400314 0.421806
172 1 0.987741 0.24066 0.42925
451 1 0.76206 0.4923 0.086774
92 1 0.665342 0.088493 0.246656
229 1 0.496363 0.00620929 0.485994
94 1 0.918768 0.0904633 0.164999
76 1 -0.00376204 0.0921428 0.264804
96 1 0.843156 0.0942216 0.254672
189 1 0.827839 0.174499 0.337711
207 1 0.573607 0.3181 0.418102
104 1 0.16505 0.267181 0.254817
170 1 0.090372 0.255075 0.330629
123 1 0.0772116 0.345323 0.2604
197 1 0.177209 0.338688 0.338397
103 1 0.25636 0.176115 0.255041
102 1 0.251334 0.259423 0.18333
127 1 0.252743 0.329909 0.260071
106 1 0.41352 0.252524 0.149651
107 1 0.418782 0.178886 0.234279
108 1 0.348171 0.260604 0.240374
109 1 0.495477 0.180318 0.167396
112 1 0.493812 0.257937 0.253856
110 1 0.589706 0.241523 0.167808
111 1 0.593597 0.184071 0.259956
205 1 0.491599 0.335313 0.348358
115 1 0.747568 0.175003 0.24661
113 1 0.666668 0.166861 0.175743
116 1 0.681392 0.256081 0.23074
186 1 0.752382 0.243212 0.335438
117 1 0.839959 0.188395 0.163975
119 1 0.916488 0.178728 0.261059
100 1 1.00752 0.260373 0.257345
120 1 0.846545 0.261545 0.24866
143 1 0.91965 0.335106 0.254186
193 1 0.993348 0.316684 0.343437
190 1 0.910023 0.255226 0.347314
122 1 0.0676675 0.433499 0.166729
194 1 0.0744355 0.40518 0.344945
125 1 0.167246 0.338867 0.17459
19 1 0.75723 0.0201642 0.070867
128 1 0.154154 0.410221 0.248328
126 1 0.245493 0.414677 0.18321
132 1 0.332724 0.405642 0.244698
188 1 0.663811 0.232896 0.42463
77 1 0.160611 0.0127466 0.175198
191 1 0.910817 0.155873 0.420137
209 1 0.661582 0.330076 0.30573
192 1 0.839443 0.242207 0.438509
129 1 0.341176 0.347466 0.153468
131 1 0.413275 0.333038 0.243913
136 1 0.486037 0.419299 0.26441
206 1 0.576745 0.405981 0.345411
135 1 0.572837 0.342038 0.241244
140 1 0.664837 0.418 0.256928
185 1 0.674697 0.178103 0.330096
210 1 0.746515 0.397784 0.347726
139 1 0.774023 0.333822 0.261538
142 1 0.929971 0.421608 0.173072
213 1 0.842006 0.331357 0.341794
124 1 0.997004 0.421189 0.26447
144 1 0.832916 0.413527 0.249883
204 1 0.330188 0.428548 0.417973
7 1 0.243 -0.00576146 0.0983607
208 1 0.488939 0.411616 0.420202
161 1 0.666808 0.00377896 0.332258
152 1 0.163649 0.0946158 0.42924
150 1 0.242258 0.0954467 0.343746
509 1 0.164235 0.498468 0.172223
513 1 0.332796 0.482763 0.167566
439 1 0.249111 0.504933 0.0789574
154 1 0.418052 0.0830045 0.317988
66 1 0.746092 0.418656 -0.0167871
156 1 0.337202 0.0763318 0.411336
179 1 0.41686 0.173565 0.408027
443 1 0.425764 0.493757 0.0767393
158 1 0.584998 0.0873989 0.326026
160 1 0.495872 0.0809917 0.391889
183 1 0.574244 0.158697 0.413634
198 1 0.259928 0.421599 0.336292
162 1 0.760875 0.0920753 0.321255
187 1 0.752789 0.168582 0.425496
164 1 0.684632 0.0856187 0.409353
202 1 0.405783 0.41967 0.333581
182 1 0.572035 0.269197 0.325356
166 1 0.916322 0.0749041 0.329241
148 1 -0.00731013 0.0932581 0.422851
168 1 0.828165 0.0824712 0.408463
184 1 0.493875 0.24608 0.42946
173 1 0.18366 0.185907 0.343
171 1 0.0812447 0.185463 0.413325
169 1 -0.00273054 0.178844 0.340223
176 1 0.166797 0.254748 0.423048
175 1 0.267659 0.164213 0.414407
174 1 0.26649 0.249557 0.344355
199 1 0.262214 0.335675 0.418941
201 1 0.341346 0.339687 0.331292
180 1 0.339958 0.252875 0.421102
177 1 0.355259 0.17868 0.324314
178 1 0.421222 0.262423 0.333812
203 1 0.420371 0.322825 0.428717
226 1 0.409171 0.0794554 0.503426
218 1 0.0812411 0.0835844 0.503941
29 1 0.161015 0.162318 0.0220175
274 1 0.400391 0.423807 0.487736
50 1 0.0712902 0.409155 0.00935354
2 1 0.0706539 0.0788788 -0.00384251
265 1 -0.00680612 0.343372 0.495993
253 1 0.485988 0.165093 0.503182
53 1 0.175399 0.349492 0.00304931
234 1 0.751919 0.0685831 0.496709
14 1 0.573993 0.086441 0.0116753
278 1 0.593987 0.413587 0.48811
30 1 0.242474 0.254369 0.00713583
57 1 0.313992 0.338182 -0.00385493
437 1 0.152087 0.491441 0.00303775
33 1 0.330099 0.180201 -0.00252988
224 1 0.156978 0.0673902 0.593877
220 1 0.996649 0.0760181 0.600848
412 1 1.00349 0.410213 0.921554
228 1 0.345168 0.0648712 0.598415
247 1 0.250395 0.157371 0.576029
427 1 0.74966 0.339202 0.910804
739 1 0.75182 0.503699 0.753775
653 1 0.163297 0.497151 0.522496
26 1 0.100433 0.265882 0.997608
251 1 0.418003 0.150145 0.580965
298 1 0.431859 0.0719484 0.65524
426 1 0.751856 0.414001 0.832466
232 1 0.502582 0.067131 0.572723
69 1 0.832925 0.334683 0.987416
241 1 1.00153 0.153437 0.522228
725 1 0.171983 0.502211 0.653825
815 1 0.92867 0.501788 0.907056
255 1 0.579949 0.145682 0.59848
302 1 0.595028 0.0680101 0.681539
432 1 0.83541 0.414409 0.91135
281 1 0.660345 0.315355 0.504915
236 1 0.673973 0.0701061 0.582684
240 1 0.839552 0.0663832 0.59542
721 1 0.983312 0.485403 0.669886
286 1 0.911771 0.413543 0.500535
367 1 0.251414 0.00452265 0.922503
258 1 0.74208 0.240557 0.50905
243 1 0.0830566 0.154052 0.595535
295 1 0.252039 -0.00127076 0.752958
257 1 0.668772 0.146172 0.505198
248 1 0.166039 0.245399 0.579059
252 1 0.328619 0.233911 0.571126
38 1 0.575906 0.262428 1.00035
807 1 0.585822 0.49728 0.905787
322 1 0.420463 0.242423 0.637292
37 1 0.488727 0.164954 0.99384
256 1 0.513194 0.248457 0.583016
353 1 0.644471 0.315158 0.660367
795 1 0.0804578 0.510289 0.91916
260 1 0.653129 0.223216 0.583028
259 1 0.745607 0.157635 0.581047
264 1 0.828569 0.245451 0.585228
6 1 0.255646 0.0980432 1.00524
330 1 0.724209 0.250827 0.665588
357 1 0.830515 0.335608 0.659214
10 1 0.408527 0.0930155 0.998433
263 1 0.903212 0.165871 0.595598
244 1 -0.00882373 0.24702 0.575441
287 1 0.910139 0.321897 0.572409
267 1 0.0830236 0.32395 0.591208
272 1 0.173774 0.406165 0.58311
425 1 0.675525 0.335298 0.823188
428 1 0.660475 0.40398 0.914573
249 1 0.331553 0.156917 0.491258
282 1 0.740079 0.398775 0.507535
271 1 0.256938 0.329105 0.580143
276 1 0.343891 0.408756 0.578918
388 1 0.0219079 0.25196 0.912362
275 1 0.417489 0.336457 0.586519
365 1 0.151712 0.0021034 0.828247
279 1 0.580029 0.351871 0.575036
280 1 0.504555 0.428432 0.57176
284 1 0.664767 0.422008 0.577577
404 1 0.650929 0.23869 0.909707
809 1 0.668428 0.484871 0.844427
419 1 0.428989 0.32549 0.9096
283 1 0.734928 0.332781 0.591994
354 1 0.749594 0.426731 0.666465
801 1 0.33802 0.506404 0.822938
268 1 0.00650347 0.396964 0.590788
288 1 0.828354 0.410748 0.585193
358 1 0.920521 0.392374 0.667457
290 1 0.0684148 0.060755 0.676211
292 1 0.98599 0.080941 0.747392
315 1 0.0728156 0.152495 0.736242
362 1 0.0748504 0.0805308 0.826989
401 1 0.661525 0.162768 0.822072
321 1 0.338931 0.158459 0.657189
296 1 0.161027 0.095675 0.74371
294 1 0.262135 0.078404 0.682966
366 1 0.26007 0.0984226 0.828788
319 1 0.250236 0.168415 0.750391
300 1 0.337599 0.0742555 0.758657
370 1 0.414077 0.0828203 0.837321
408 1 0.82623 0.249071 0.904714
329 1 0.676413 0.159877 0.667562
304 1 0.495423 0.0850171 0.754954
327 1 0.575403 0.153314 0.75054
374 1 0.583372 0.0928757 0.833739
402 1 0.744536 0.246568 0.828282
306 1 0.755037 0.0673409 0.653652
308 1 0.673825 0.0652674 0.767004
312 1 0.825318 0.0874109 0.746807
333 1 0.8085 0.172683 0.660935
378 1 0.751979 0.0705008 0.832004
651 1 0.0621774 0.488897 0.59276
310 1 0.90912 0.0722996 0.676565
400 1 0.521257 0.240777 0.911743
382 1 0.917469 0.0898154 0.829783
313 1 0.986926 0.162465 0.658842
314 1 0.0901373 0.231849 0.661021
317 1 0.174365 0.154846 0.652987
320 1 0.169186 0.245541 0.733099
385 1 1.01297 0.166529 0.819635
318 1 0.24762 0.252504 0.66255
324 1 0.339388 0.247941 0.736124
343 1 0.262181 0.334777 0.740754
325 1 0.490014 0.17039 0.657023
323 1 0.409379 0.153566 0.739111
394 1 0.420269 0.261028 0.817303
328 1 0.502556 0.243076 0.744848
326 1 0.58215 0.234622 0.669592
398 1 0.57715 0.241114 0.823565
351 1 0.578036 0.341051 0.755019
332 1 0.652434 0.260377 0.750461
331 1 0.740897 0.159007 0.754402
336 1 0.813799 0.246479 0.745609
337 1 0.998023 0.320701 0.670442
335 1 0.904942 0.157181 0.738137
316 1 0.995637 0.24465 0.752509
334 1 0.912209 0.243792 0.670297
429 1 0.83919 0.336326 0.830356
409 1 0.000218691 0.323343 0.835169
406 1 0.923932 0.24851 0.830294
339 1 0.0833945 0.324512 0.744633
338 1 0.091093 0.417394 0.679322
344 1 0.173091 0.405962 0.744011
433 1 1.01103 0.504783 1.01375
397 1 0.495836 0.16568 0.827122
345 1 0.33255 0.329407 0.654289
342 1 0.257893 0.40624 0.651282
375 1 0.577837 0.0234768 0.925943
341 1 0.176599 0.329675 0.666404
417 1 0.340767 0.34304 0.8264
348 1 0.339901 0.424206 0.737851
424 1 0.513784 0.420174 0.906313
346 1 0.434013 0.426287 0.64998
347 1 0.409077 0.347852 0.730053
352 1 0.499668 0.422491 0.736338
418 1 0.421286 0.422046 0.826627
422 1 0.575551 0.424776 0.822458
349 1 0.509899 0.336923 0.664127
350 1 0.593615 0.427488 0.664803
421 1 0.48436 0.338711 0.807558
355 1 0.753058 0.339847 0.744727
356 1 0.668545 0.406909 0.744254
360 1 0.829258 0.405611 0.763563
269 1 0.176405 0.33972 0.494524
359 1 0.919502 0.317801 0.751545
340 1 0.989979 0.418967 0.752083
430 1 0.917441 0.408084 0.82985
399 1 0.579066 0.144481 0.924948
25 1 0.00794294 0.176128 0.996751
387 1 0.0858874 0.166427 0.921194
364 1 -0.00542253 0.0876542 0.917653
423 1 0.583496 0.332136 0.872797
368 1 0.160104 0.0901354 0.917843
389 1 0.152123 0.168912 0.823408
391 1 0.22901 0.167722 0.906974
395 1 0.419932 0.175226 0.896743
420 1 0.339447 0.408812 0.914705
414 1 0.252812 0.418631 0.818758
372 1 0.334682 0.109735 0.913639
242 1 0.0881621 0.2563 0.505766
376 1 0.489687 0.0863668 0.92106
380 1 0.666592 0.0861613 0.914788
416 1 0.169121 0.427865 0.908584
384 1 0.828677 0.0923689 0.908775
403 1 0.73359 0.162868 0.899307
405 1 0.828599 0.17027 0.83375
407 1 0.926435 0.176294 0.906151
413 1 0.165746 0.330147 0.819167
386 1 0.084828 0.251696 0.828427
392 1 0.174142 0.265783 0.922149
411 1 0.0914593 0.3393 0.908529
431 1 0.92058 0.316797 0.914857
410 1 0.0916712 0.412216 0.828796
393 1 0.328453 0.19276 0.835741
390 1 0.243201 0.259993 0.847853
415 1 0.235987 0.355168 0.908922
396 1 0.329619 0.262001 0.912423
727 1 0.251175 0.484365 0.727274
811 1 0.751616 0.492582 0.911906
723 1 0.0723727 0.50417 0.752629
262 1 0.917034 0.240519 0.506999
46 1 0.906078 0.252474 1.01133
273 1 0.336765 0.324269 0.504432
371 1 0.403845 0.00748852 0.917906
13 1 0.50262 0.00489871 0.992197
49 1 0.00583093 0.329359 1.00079
743 1 0.89931 0.494107 0.75503
813 1 0.8349 0.481053 0.834148
667 1 0.765873 0.497191 0.578084
65 1 0.662773 0.317456 0.985759
793 1 1.00739 0.486149 0.837424
383 1 0.917206 0.00191671 0.917897
671 1 0.909959 0.489623 0.597056
797 1 0.168829 0.498646 0.824802
62 1 0.58708 0.406675 0.988447
377 1 0.670873 -0.0187299 0.84793
5 1 0.164699 0.00704437 1.00308
285 1 0.82345 0.328846 0.495842
223 1 0.248783 -0.000973372 0.592316
17 1 0.676974 -0.000983458 1.00879
61 1 0.507735 0.337793 0.985774
45 1 0.833521 0.157706 0.991494
58 1 0.423228 0.417599 0.995302
42 1 0.749811 0.239825 0.99406
238 1 0.914133 0.0812283 0.508746
18 1 0.744954 0.0857194 0.991164
221 1 0.155105 -0.00285245 0.498546
261 1 0.834171 0.147515 0.496775
21 1 0.830455 -0.00195165 0.983422
250 1 0.412818 0.252659 0.515549
230 1 0.586907 0.0715196 0.507613
270 1 0.25961 0.413584 0.505566
222 1 0.258565 0.070575 0.500345
34 1 0.413753 0.247865 0.992979
70 1 0.917245 0.412923 1.00135
266 1 0.095564 0.400316 0.514898
54 1 0.250268 0.434625 0.987721
277 1 0.501735 0.336182 0.509866
440 1 0.162647 0.57838 0.080795
506 1 0.0889945 0.578486 0.175825
3 1 0.0877859 0.994296 0.0872868
463 1 0.262978 0.653951 0.0786829
444 1 0.339495 0.580138 0.0802694
648 1 0.848789 0.919933 0.409426
447 1 0.5888 0.509911 0.09008
510 1 0.25061 0.570834 0.172699
537 1 0.337806 0.667857 0.156978
467 1 0.436133 0.67694 0.0916808
448 1 0.504674 0.576138 0.102009
646 1 0.922691 0.919355 0.330114
452 1 0.687516 0.566102 0.0780039
471 1 0.579441 0.649411 0.0792415
89 1 0.688333 1.00198 0.17423
628 1 -0.00188237 0.93327 0.408981
585 1 0.339284 0.50156 0.330613
507 1 0.0827317 0.499422 0.255629
581 1 0.164266 0.505791 0.3502
436 1 1.00687 0.590402 0.0937005
456 1 0.831153 0.55935 0.0795226
549 1 0.849729 0.682555 0.15913
155 1 0.413942 1.00279 0.416134
642 1 0.744848 0.911344 0.325762
526 1 0.922565 0.5973 0.17028
459 1 0.0879722 0.658799 0.0971903
460 1 0.00471908 0.731653 0.0751499
530 1 0.0888882 0.746156 0.1657
533 1 0.181729 0.664097 0.160058
455 1 0.928054 0.496874 0.0886765
464 1 0.178895 0.738201 0.0777111
487 1 0.235538 0.835534 0.0765472
534 1 0.236621 0.75455 0.175189
468 1 0.310988 0.74703 0.0865302
491 1 0.416676 0.854616 0.0841901
472 1 0.500514 0.758661 0.085499
589 1 0.502823 0.491497 0.345247
435 1 0.0873197 0.512892 0.0842026
495 1 0.588367 0.835689 0.0879205
165 1 0.835876 0.977584 0.324303
511 1 0.249459 0.503196 0.259842
475 1 0.763839 0.64297 0.0893405
476 1 0.669437 0.746585 0.0903832
569 1 0.66191 0.829927 0.167123
499 1 0.743944 0.820737 0.0876364
545 1 0.675298 0.65611 0.164216
546 1 0.759807 0.742325 0.167535
479 1 0.911594 0.65717 0.0793879
480 1 0.830876 0.738425 0.0732463
550 1 0.93192 0.760976 0.175641
529 1 6.06246e-07 0.676426 0.167975
483 1 0.0708628 0.822644 0.0670701
554 1 0.0874128 0.912271 0.167451
484 1 -0.00493232 0.9167 0.0795451
553 1 0.0226432 0.834125 0.179356
587 1 0.426444 0.498811 0.412998
488 1 0.160316 0.913821 0.0819461
492 1 0.319366 0.924947 0.0849274
561 1 0.330638 0.832814 0.146796
557 1 0.158608 0.829467 0.152859
558 1 0.244697 0.914493 0.184339
643 1 0.743114 0.837647 0.404673
562 1 0.422664 0.933448 0.158578
496 1 0.503403 0.920932 0.0770832
566 1 0.585007 0.914854 0.152968
515 1 0.409743 0.494611 0.252021
644 1 0.667215 0.925705 0.411521
500 1 0.69393 0.923921 0.0804539
504 1 0.828076 0.911195 0.0765622
573 1 0.843637 0.827183 0.158899
503 1 0.924843 0.836555 0.0836191
525 1 0.846043 0.493521 0.170138
157 1 0.501445 1.00785 0.309367
639 1 0.595239 0.839312 0.403681
512 1 0.170065 0.575672 0.244649
508 1 1.007 0.600675 0.253778
505 1 0.00194759 0.514628 0.168541
578 1 0.0833445 0.58336 0.340719
582 1 0.261988 0.586319 0.337345
514 1 0.421121 0.576102 0.19094
516 1 0.344413 0.601335 0.263462
586 1 0.432399 0.57764 0.322323
520 1 0.515993 0.575169 0.270149
518 1 0.584065 0.58974 0.168493
638 1 0.570732 0.93229 0.330321
543 1 0.570058 0.665899 0.272178
590 1 0.606699 0.582491 0.339452
524 1 0.656055 0.587609 0.245581
617 1 0.685064 0.680167 0.321673
522 1 0.739106 0.57349 0.173133
690 1 0.738335 0.76438 0.501142
547 1 0.770273 0.665119 0.246511
621 1 0.834796 0.675692 0.330569
528 1 0.843455 0.579731 0.241459
598 1 0.92383 0.59248 0.325393
531 1 0.0927567 0.664198 0.246795
536 1 0.18448 0.738845 0.271481
532 1 1.02274 0.749852 0.252337
602 1 0.0966733 0.743845 0.342897
535 1 0.255744 0.658407 0.251378
606 1 0.265453 0.74187 0.340328
541 1 0.497854 0.662333 0.182721
538 1 0.412339 0.762682 0.151399
540 1 0.333294 0.759708 0.230826
539 1 0.410548 0.68901 0.239033
544 1 0.49376 0.752461 0.247521
565 1 0.497903 0.846094 0.163524
542 1 0.575704 0.726887 0.176245
548 1 0.668965 0.745538 0.243006
567 1 0.571187 0.828934 0.244987
551 1 0.915692 0.669587 0.248518
552 1 0.84369 0.747726 0.244192
625 1 0.0229818 0.827975 0.319503
555 1 0.11228 0.820285 0.255797
560 1 0.159283 0.927429 0.256425
559 1 0.229533 0.831065 0.244634
630 1 0.236285 0.908622 0.337593
629 1 0.182108 0.815749 0.342491
563 1 0.404284 0.838523 0.23777
564 1 0.319569 0.915912 0.255539
634 1 0.419777 0.917168 0.339777
527 1 0.906073 0.494823 0.263407
568 1 0.496442 0.910349 0.25173
572 1 0.662125 0.922398 0.255051
637 1 0.488632 0.837311 0.334423
570 1 0.753243 0.911992 0.164266
571 1 0.751532 0.839146 0.241771
576 1 0.85597 0.910869 0.2415
574 1 0.915747 0.918991 0.150302
641 1 0.661154 0.831326 0.315517
645 1 0.835163 0.839804 0.33889
575 1 0.929753 0.843104 0.250594
556 1 -0.00513981 0.9356 0.250075
661 1 0.509529 0.506379 0.483961
640 1 0.498837 0.914245 0.418369
706 1 0.405454 0.920571 0.507666
485 1 0.163961 0.82811 -0.0052034
603 1 0.0742077 0.667293 0.422588
580 1 0.999083 0.59347 0.410666
153 1 0.32859 0.992979 0.33994
450 1 0.754708 0.561232 -0.004124
23 1 0.901619 1.00594 0.0772307
517 1 0.492687 0.501141 0.176051
584 1 0.147295 0.584714 0.429506
588 1 0.346015 0.60713 0.431766
167 1 0.917392 1.00681 0.409021
693 1 0.842021 0.672947 0.494032
592 1 0.5009 0.61296 0.420293
163 1 0.770391 0.993412 0.412337
615 1 0.607386 0.669993 0.405297
635 1 0.423751 0.83815 0.417672
596 1 0.674441 0.575534 0.428215
583 1 0.245934 0.50541 0.427183
633 1 0.325767 0.836402 0.331024
474 1 0.74788 0.751033 0.0078263
594 1 0.74627 0.588226 0.327252
619 1 0.742019 0.662357 0.419395
600 1 0.816359 0.58141 0.401
632 1 0.156604 0.911151 0.421257
623 1 0.914113 0.67305 0.406902
601 1 -0.00580546 0.676471 0.333625
627 1 0.0707285 0.831947 0.419243
91 1 0.762544 0.983213 0.245881
605 1 0.162683 0.658159 0.339139
609 1 0.352576 0.669057 0.347678
608 1 0.157563 0.753513 0.432402
607 1 0.237519 0.673241 0.424003
694 1 0.921522 0.759537 0.490717
470 1 0.59408 0.735055 0.0152675
613 1 0.47916 0.692513 0.336346
610 1 0.405933 0.773759 0.319239
611 1 0.416281 0.696063 0.425513
616 1 0.508402 0.752113 0.415148
612 1 0.325641 0.75872 0.425583
614 1 0.598221 0.753392 0.339436
93 1 0.824168 0.9976 0.161224
618 1 0.745641 0.762978 0.315416
624 1 0.832185 0.75145 0.429077
620 1 0.681544 0.754267 0.41044
685 1 0.498146 0.691819 0.498232
647 1 0.933947 0.847422 0.413876
604 1 -0.00108347 0.75199 0.405498
622 1 0.914767 0.770875 0.335705
670 1 0.911373 0.586786 0.470483
674 1 0.0613209 0.749768 0.511367
631 1 0.246099 0.834716 0.418704
626 1 0.0801924 0.917622 0.338207
636 1 0.336149 0.916443 0.425329
579 1 0.0798296 0.501178 0.438456
83 1 0.41838 1.00834 0.239033
710 1 0.570507 0.926222 0.483715
599 1 0.911545 0.49964 0.397849
473 1 0.671331 0.660446 0.0265413
465 1 0.343837 0.663942 0.0153713
666 1 0.765342 0.58634 0.505788
662 1 0.58676 0.591824 0.494011
237 1 0.845209 0.995169 0.501859
489 1 0.334719 0.823532 0.00845145
497 1 0.677562 0.845597 0.00823672
458 1 0.101217 0.743504 -0.0022332
9 1 0.326361 0.993586 0.00375762
718 1 0.917763 0.922881 0.498647
686 1 0.589761 0.772043 0.490841
494 1 0.581234 0.923239 -0.00754716
677 1 0.147892 0.6696 0.509384
669 1 0.839182 0.491321 0.48485
701 1 0.158077 0.83466 0.516995
717 1 0.842486 0.845046 0.493554
454 1 0.91835 0.579641 -0.0061147
709 1 0.506097 0.831186 0.494177
469 1 0.501531 0.660528 0.00664178
442 1 0.431532 0.579248 0.0123033
658 1 0.424677 0.579385 0.495421
657 1 0.327224 0.513603 0.484448
478 1 0.922612 0.746163 0.00367155
457 1 0.020008 0.664096 0.00331258
675 1 0.0766838 0.656871 0.586914
652 1 0.99705 0.577694 0.589476
745 1 1.00096 0.671236 0.664999
673 1 0.991792 0.664316 0.495191
656 1 0.158132 0.59079 0.584016
660 1 0.326278 0.587109 0.572574
749 1 0.169385 0.674114 0.658847
664 1 0.498383 0.601726 0.572957
683 1 0.412088 0.683406 0.592572
668 1 0.678266 0.59869 0.588142
687 1 0.586947 0.677866 0.571316
761 1 0.677421 0.677736 0.674718
863 1 0.923287 0.819376 0.915341
672 1 0.828391 0.578742 0.577627
738 1 0.756245 0.57258 0.668739
665 1 0.685684 0.497925 0.511758
742 1 0.901404 0.575754 0.656448
695 1 0.900501 0.672579 0.588279
799 1 0.266682 0.516015 0.8989
305 1 0.680243 0.987974 0.673439
680 1 0.158351 0.7624 0.598194
699 1 0.0796077 0.832351 0.597174
679 1 0.244478 0.674197 0.574649
750 1 0.257126 0.744284 0.66281
773 1 0.171833 0.84102 0.669175
1 1 -0.0156229 1.00241 1.00898
373 1 0.493857 1.0132 0.84018
684 1 0.330503 0.756736 0.582284
688 1 0.501323 0.774188 0.580398
781 1 0.500921 0.833721 0.668123
707 1 0.421979 0.844146 0.581364
754 1 0.419323 0.749268 0.67276
692 1 0.653825 0.754629 0.580253
711 1 0.582417 0.834381 0.589927
381 1 0.832152 1.00004 0.839734
691 1 0.755071 0.667836 0.576147
715 1 0.763318 0.842639 0.57453
678 1 0.241642 0.747869 0.49818
676 1 0.985793 0.750632 0.59125
696 1 0.827907 0.752727 0.567675
766 1 0.910547 0.764313 0.657246
719 1 0.913673 0.829561 0.578368
369 1 0.33331 1.00707 0.845434
700 1 0.987198 0.905592 0.576131
770 1 0.0877064 0.920776 0.669975
659 1 0.405514 0.498629 0.575797
704 1 0.173693 0.923408 0.577088
703 1 0.242958 0.831085 0.588221
708 1 0.318455 0.916318 0.581902
741 1 0.83044 0.494769 0.669983
805 1 0.49688 0.510215 0.825254
777 1 0.34576 0.836646 0.661047
712 1 0.500611 0.9162 0.561126
778 1 0.419754 0.924762 0.681583
716 1 0.670406 0.91469 0.588255
309 1 0.835605 0.996364 0.683082
461 1 0.175314 0.664614 1.00118
291 1 0.0836332 0.98972 0.750901
219 1 0.0601256 0.989287 0.590181
720 1 0.838553 0.91629 0.592595
737 1 0.66296 0.509021 0.651686
307 1 0.755908 0.995694 0.753598
790 1 0.90308 0.916321 0.673419
493 1 0.500709 0.844411 1.00834
735 1 0.577605 0.525373 0.753725
722 1 0.0687514 0.581355 0.6669
747 1 0.0967119 0.67094 0.737542
724 1 0.995447 0.579529 0.753447
753 1 0.338476 0.672045 0.67275
728 1 0.156636 0.575353 0.735888
726 1 0.245736 0.594546 0.663618
732 1 0.329389 0.578398 0.747012
751 1 0.24724 0.675351 0.733293
730 1 0.415585 0.585773 0.648216
755 1 0.411629 0.660706 0.740011
757 1 0.508279 0.668316 0.657211
864 1 0.838038 0.906792 0.905243
736 1 0.497543 0.596478 0.732711
734 1 0.591456 0.606265 0.646539
740 1 0.669114 0.577382 0.749421
744 1 0.823518 0.587323 0.764262
765 1 0.834164 0.673692 0.678863
810 1 0.743204 0.583218 0.846647
361 1 0.996133 1.0179 0.840111
654 1 0.239666 0.589004 0.505091
289 1 0.990625 0.99112 0.675176
767 1 0.925522 0.655813 0.739029
746 1 0.0780088 0.759368 0.676203
818 1 0.0757908 0.739047 0.817533
752 1 0.158225 0.763236 0.734834
845 1 0.163495 0.814884 0.830854
775 1 0.25352 0.829573 0.75717
829 1 0.500571 0.659786 0.844193
756 1 0.327584 0.754095 0.751623
760 1 0.508198 0.743472 0.744669
779 1 0.425093 0.813742 0.767559
826 1 0.424145 0.731471 0.823623
758 1 0.584988 0.741287 0.668746
759 1 0.586535 0.64092 0.757602
783 1 0.589991 0.835005 0.739332
785 1 0.667112 0.825953 0.668138
830 1 0.590185 0.744158 0.832292
764 1 0.662186 0.752915 0.75137
762 1 0.756012 0.749861 0.649982
763 1 0.747109 0.667312 0.76447
834 1 0.725926 0.745779 0.846909
787 1 0.736947 0.829095 0.758848
768 1 0.855733 0.745 0.751891
769 1 0.989842 0.843054 0.674873
748 1 0.973543 0.749605 0.739941
789 1 0.82886 0.827669 0.678722
837 1 0.834938 0.670547 0.84763
498 1 0.750135 0.927414 1.00284
297 1 0.331709 0.994708 0.678808
841 1 0.007818 0.835612 0.827606
771 1 0.0876764 0.837377 0.75932
842 1 0.0822373 0.917154 0.844947
311 1 0.912876 0.994489 0.764151
857 1 0.6523 0.853874 0.841383
776 1 0.1682 0.905498 0.761532
774 1 0.242008 0.924449 0.67441
846 1 0.250789 0.928912 0.827193
780 1 0.339568 0.899746 0.754011
784 1 0.482295 0.911299 0.773075
235 1 0.753233 0.99325 0.578226
854 1 0.574342 0.921099 0.842182
782 1 0.592376 0.92148 0.666695
788 1 0.669499 0.91746 0.75816
786 1 0.750263 0.91011 0.667657
379 1 0.742432 0.99303 0.917987
861 1 0.819988 0.822971 0.83474
858 1 0.746731 0.903771 0.839076
803 1 0.412006 0.49806 0.907751
862 1 0.916398 0.920958 0.83924
791 1 0.913238 0.836968 0.761677
772 1 -0.000611549 0.910686 0.766414
792 1 0.824986 0.91128 0.755148
794 1 0.0840183 0.575579 0.832376
800 1 0.168581 0.573464 0.906107
825 1 0.322936 0.67379 0.82082
823 1 0.239899 0.648364 0.913045
821 1 0.162144 0.665723 0.819851
798 1 0.234787 0.581089 0.810718
363 1 0.076984 1.00129 0.919984
293 1 0.164623 1.00461 0.671316
804 1 0.330225 0.602441 0.906691
802 1 0.415403 0.590828 0.827114
808 1 0.496618 0.58535 0.914815
681 1 0.324912 0.681262 0.506519
860 1 0.670652 0.912876 0.92634
466 1 0.419225 0.751083 1.00015
833 1 0.660883 0.664109 0.829956
806 1 0.593778 0.583302 0.851127
835 1 0.74442 0.665563 0.924182
812 1 0.67133 0.577293 0.935954
816 1 0.834337 0.568136 0.916144
851 1 0.43464 0.817513 0.908745
231 1 0.588094 0.989271 0.582359
839 1 0.902451 0.654958 0.91335
850 1 0.409386 0.920402 0.844167
814 1 0.905897 0.573993 0.83503
796 1 -0.00417312 0.588249 0.906224
856 1 0.494467 0.924981 0.919997
729 1 0.337227 0.494167 0.656326
843 1 0.0885538 0.83262 0.913146
817 1 0.986974 0.664708 0.82874
819 1 0.0827069 0.657354 0.908362
848 1 0.166045 0.910654 0.917048
824 1 0.161306 0.73735 0.911574
822 1 0.247601 0.74222 0.839474
828 1 0.346233 0.736533 0.919675
655 1 0.261772 0.492903 0.587723
844 1 1.00032 0.929167 0.90832
849 1 0.32993 0.815717 0.84213
832 1 0.514663 0.737918 0.900708
827 1 0.425919 0.664673 0.923858
855 1 0.587082 0.825013 0.945326
853 1 0.526633 0.822384 0.835064
831 1 0.608908 0.675091 0.923464
859 1 0.750776 0.825537 0.918573
840 1 0.829524 0.748375 0.914752
836 1 0.666629 0.762469 0.941023
852 1 0.327487 0.899162 0.916626
820 1 1.00523 0.734692 0.91124
838 1 0.906679 0.752796 0.838012
847 1 0.234329 0.832426 0.913528
217 1 -0.00175081 1.00231 0.489208
299 1 0.41843 1.00378 0.76372
434 1 0.0924219 0.585479 0.99205
301 1 0.506037 0.981925 0.653733
663 1 0.590517 0.512999 0.569532
239 1 0.915072 0.994322 0.593468
714 1 0.75844 0.921566 0.497895
227 1 0.41801 0.988293 0.579332
731 1 0.41919 0.512529 0.752586
303 1 0.581398 0.996862 0.772274
650 1 0.064292 0.586306 0.498666
733 1 0.503428 0.509744 0.650039
462 1 0.247998 0.742088 0.985429
702 1 0.235542 0.92019 0.49629
486 1 0.249179 0.912091 0.993582
225 1 0.325044 0.99216 0.49979
501 1 0.83827 0.817248 1.00434
682 1 0.415843 0.760935 0.503113
482 1 0.0714769 0.911581 0.99896
445 1 0.514859 0.493521 0.991227
441 1 0.34014 0.507142 0.986993
689 1 0.674433 0.676125 0.495016
438 1 0.241209 0.574119 0.993352
233 1 0.665712 0.984018 0.496724
705 1 0.327097 0.832839 0.507082
446 1 0.574489 0.587549 0.978978
481 1 -0.00710172 0.833121 0.991874
697 1 1.00464 0.834104 0.50152
649 1 0.981057 0.49771 0.49818
449 1 0.662436 0.484493 1.00402
490 1 0.406187 0.908851 0.987235
698 1 0.0796434 0.923346 0.499239
477 1 0.821871 0.664583 1.00242
502 1 0.913893 0.919513 0.988718
713 1 0.666984 0.85576 0.500977
