ITEM: TIMESTEP
20500
ITEM: NUMBER OF ATOMS
4000
ITEM: BOX BOUNDS pp pp pp
0.0000000000000000e+00 5.2599999999999994e+01
0.0000000000000000e+00 5.2599999999999994e+01
0.0000000000000000e+00 5.2599999999999994e+01
ITEM: ATOMS id type xs ys zs
4 1 0.998587 0.0471547 0.0426936
43 1 0.0418848 0.109761 0.0480918
14 1 0.350244 0.0467027 0.00315376
8 1 0.108853 0.0475053 0.0481888
47 1 0.158454 0.096928 0.0377535
2627 1 0.647891 0.496173 0.347582
431 1 0.744904 0.00170328 0.252146
2805 1 0.100858 0.492991 0.397256
12 1 0.202312 0.0478183 0.0533185
210 1 0.246579 0.0622708 0.102409
999 1 0.95538 0.40225 0.454543
2631 1 0.759464 0.497014 0.347431
16 1 0.310675 0.0487725 0.0547409
964 1 0.994231 0.450507 0.442069
214 1 0.350558 0.0492705 0.106446
1030 1 0.744272 0.0463761 0.49667
20 1 0.399952 0.0634707 0.047578
24 1 0.503216 0.0414182 0.04098
433 1 0.789828 0.00434364 0.203675
63 1 0.546706 0.0974493 0.0430283
39 1 0.943689 0.00704837 0.0517572
998 1 0.941003 0.446567 0.397928
28 1 0.596229 0.046626 0.0438669
226 1 0.63664 0.0422934 0.0936293
1000 1 0.90126 0.452164 0.459915
2027 1 0.649726 0.498319 0.0447569
32 1 0.703213 0.0512971 0.0434702
230 1 0.748413 0.0480698 0.0950233
71 1 0.752812 0.101929 0.0424168
36 1 0.807587 0.0536148 0.0482144
273 1 0.798686 0.101973 0.100318
996 1 0.794925 0.452458 0.449968
40 1 0.891426 0.0544854 0.0483473
994 1 0.850631 0.450506 0.402726
238 1 0.946695 0.0492803 0.104794
79 1 0.949924 0.0981665 0.0500111
989 1 0.701261 0.397432 0.399402
83 1 0.0406496 0.206592 0.0428982
242 1 0.0505139 0.15649 0.0960393
48 1 0.0985992 0.164639 0.0505185
87 1 0.147881 0.212783 0.0441571
246 1 0.144276 0.149101 0.104247
52 1 0.200063 0.155158 0.04406
639 1 0.95213 0.00395417 0.353674
213 1 0.303377 0.00075415 0.0942977
51 1 0.250339 0.0938603 0.0452135
56 1 0.295099 0.146883 0.0453411
91 1 0.247584 0.198133 0.0496597
293 1 0.292594 0.198596 0.0947547
250 1 0.250844 0.14041 0.0962519
2039 1 0.952462 0.489127 0.0538835
55 1 0.345638 0.108337 0.0382841
254 1 0.347608 0.14673 0.0980611
257 1 0.401469 0.108606 0.10858
601 1 0.00433498 0.000755366 0.304392
2833 1 0.802718 0.498052 0.395881
60 1 0.405909 0.144407 0.0565948
59 1 0.45246 0.0999957 0.050681
301 1 0.50528 0.194202 0.0958818
297 1 0.402178 0.198992 0.101316
64 1 0.497564 0.149876 0.049142
68 1 0.594916 0.153539 0.0503638
305 1 0.604132 0.200134 0.098142
262 1 0.555461 0.148401 0.101504
427 1 0.659997 0.00191731 0.245433
269 1 0.695853 0.0977849 0.0885431
67 1 0.647957 0.0975387 0.0488187
72 1 0.70108 0.148109 0.0495284
266 1 0.649498 0.154405 0.0893695
309 1 0.700388 0.200766 0.101599
76 1 0.802559 0.152266 0.0485189
270 1 0.740911 0.14988 0.0977114
111 1 0.743791 0.201036 0.0467634
615 1 0.349564 0.002175 0.362052
75 1 0.856851 0.105566 0.0419983
219 1 0.445344 0.00902312 0.139472
2403 1 0.0552116 0.497365 0.254263
44 1 0.990669 0.15695 0.0469916
80 1 0.907205 0.15131 0.0456335
417 1 0.387 0.00813826 0.199196
84 1 0.997241 0.251885 0.0508017
281 1 0.998321 0.203794 0.105608
88 1 0.0880401 0.250754 0.0587593
123 1 0.0531637 0.310359 0.0583842
439 1 0.949323 0.00381734 0.25513
2033 1 0.80296 0.498698 0.0032319
92 1 0.202709 0.247792 0.0479997
127 1 0.147182 0.294591 0.054213
289 1 0.183831 0.202303 0.0917126
415 1 0.34893 0.00764016 0.249619
96 1 0.299611 0.246358 0.0507492
290 1 0.247346 0.247338 0.0999354
2031 1 0.750062 0.494576 0.0504733
2427 1 0.657531 0.499572 0.245638
95 1 0.346196 0.188407 0.0526384
100 1 0.406717 0.238501 0.0542107
294 1 0.351243 0.239643 0.0971826
623 1 0.546529 0.00415737 0.34444
833 1 0.799581 0.00605338 0.398677
99 1 0.452983 0.19698 0.0518087
139 1 0.453883 0.290256 0.0493483
104 1 0.504183 0.245171 0.042965
103 1 0.548381 0.197653 0.0440711
108 1 0.611261 0.247005 0.0499495
635 1 0.852208 0.000819152 0.354074
821 1 0.500216 0.00301527 0.406293
94 1 0.350389 0.247928 0.00135019
627 1 0.645309 0.00854069 0.349063
107 1 0.657606 0.202285 0.0507072
112 1 0.697057 0.252835 0.0435561
2619 1 0.436104 0.488679 0.341325
116 1 0.792602 0.260087 0.0441187
151 1 0.739077 0.303998 0.0557365
2401 1 0.000513724 0.49081 0.207611
617 1 0.392215 0.0047275 0.305031
115 1 0.849312 0.20163 0.0581692
120 1 0.894645 0.244677 0.0595169
155 1 0.847413 0.297997 0.0518816
2209 1 0.198166 0.496026 0.09704
2023 1 0.549788 0.497929 0.0582259
829 1 0.697723 0.00468005 0.392108
119 1 0.947866 0.202431 0.0533319
237 1 0.894326 0.00452084 0.0956347
2003 1 0.0492568 0.492016 0.0530016
163 1 0.058113 0.390097 0.0572248
322 1 0.0547289 0.346794 0.112558
2011 1 0.239722 0.495882 0.0376956
629 1 0.699127 0.00650502 0.299524
128 1 0.106352 0.344806 0.0522641
167 1 0.15215 0.395316 0.0451964
2821 1 0.494852 0.494641 0.394593
611 1 0.249196 0.00808643 0.34589
132 1 0.194166 0.334247 0.0451184
131 1 0.254615 0.292463 0.0442764
136 1 0.306275 0.354439 0.0446025
58 1 0.446372 0.144509 0.00342555
1186 1 0.646985 0.450129 0.491989
621 1 0.496601 0.00535497 0.295136
135 1 0.359832 0.302138 0.0578817
333 1 0.295058 0.293329 0.10537
334 1 0.347707 0.34422 0.0991824
201 1 0.00406627 0.00489171 0.0946887
140 1 0.397722 0.349372 0.0473192
144 1 0.499485 0.352725 0.0613415
179 1 0.449722 0.403115 0.0445821
337 1 0.407008 0.292806 0.107017
338 1 0.446553 0.340663 0.0936458
401 1 0.996543 0.000212079 0.207877
817 1 0.397862 0.00155964 0.39852
143 1 0.554516 0.292595 0.0512032
148 1 0.605093 0.347536 0.054384
183 1 0.540481 0.401522 0.0538784
342 1 0.552591 0.351193 0.0966249
147 1 0.656917 0.297406 0.0480461
187 1 0.651972 0.401303 0.0471367
152 1 0.701931 0.352235 0.0566369
385 1 0.597306 0.396496 0.0994848
156 1 0.800411 0.351482 0.046039
350 1 0.748412 0.35097 0.105677
353 1 0.798322 0.304971 0.0973661
191 1 0.7515 0.398802 0.056594
195 1 0.843756 0.40675 0.0537456
2803 1 0.056215 0.497602 0.449016
159 1 0.946937 0.294063 0.047869
160 1 0.896549 0.349504 0.052836
124 1 0.990204 0.354398 0.0528696
199 1 0.940065 0.40253 0.0472162
811 1 0.253785 0.00342969 0.455468
168 1 0.090978 0.445529 0.0603811
172 1 0.209947 0.436095 0.0446892
366 1 0.150583 0.447067 0.0885204
993 1 0.79975 0.394549 0.390639
171 1 0.252206 0.387666 0.0388618
837 1 0.900935 0.0104465 0.401586
176 1 0.291665 0.448246 0.0442625
369 1 0.203523 0.396709 0.102982
370 1 0.254324 0.443078 0.0926328
175 1 0.349678 0.403003 0.0510757
180 1 0.393802 0.44685 0.0497815
2233 1 0.804462 0.489537 0.099831
184 1 0.49899 0.452927 0.0467069
992 1 0.694034 0.451902 0.445136
2829 1 0.694121 0.497249 0.398668
819 1 0.446272 0.00696867 0.449608
188 1 0.596779 0.454594 0.0470049
631 1 0.754229 0.00963484 0.347615
2239 1 0.956055 0.482117 0.156869
386 1 0.65406 0.451537 0.0994741
192 1 0.704293 0.445571 0.0543658
389 1 0.697325 0.403491 0.104692
988 1 0.597 0.459193 0.45091
1033 1 0.798541 0.00459694 0.499157
390 1 0.756353 0.444672 0.0966494
801 1 0.00409887 0.00213189 0.399671
196 1 0.801355 0.454565 0.045315
200 1 0.897318 0.446595 0.0513639
2221 1 0.485404 0.497365 0.108856
981 1 0.492555 0.398743 0.396495
164 1 0.999169 0.435741 0.0515352
2439 1 0.944843 0.493579 0.255397
2035 1 0.858365 0.497599 0.061134
90 1 0.25835 0.244431 0.000311109
245 1 0.102051 0.110227 0.0738613
984 1 0.486397 0.456992 0.450104
202 1 0.0498784 0.0500052 0.0854439
208 1 0.100714 0.0571515 0.13641
243 1 0.0553633 0.100002 0.130428
445 1 0.0980086 0.102635 0.18954
206 1 0.150671 0.0476844 0.0988252
212 1 0.196464 0.0505843 0.150433
406 1 0.149342 0.0504578 0.198689
1194 1 0.841471 0.448807 0.497846
982 1 0.549576 0.451516 0.39415
449 1 0.1999 0.0975189 0.198928
633 1 0.7976 0.00528284 0.299177
410 1 0.262659 0.0452276 0.199178
2237 1 0.906839 0.494499 0.111517
216 1 0.296144 0.0528111 0.145396
220 1 0.403293 0.0516639 0.141636
453 1 0.30427 0.110773 0.202907
203 1 0.0561508 0.012161 0.146051
2203 1 0.0575142 0.498005 0.151577
218 1 0.453468 0.0575206 0.102191
224 1 0.497717 0.0596445 0.151833
418 1 0.442075 0.0467797 0.198632
265 1 0.60061 0.10522 0.0920956
222 1 0.551765 0.0533476 0.0998278
422 1 0.546125 0.0681467 0.198775
419 1 0.445114 0.0101337 0.257976
228 1 0.594822 0.0514332 0.152509
426 1 0.652929 0.048101 0.189154
232 1 0.700211 0.0516932 0.139506
2407 1 0.145334 0.496841 0.252341
825 1 0.608076 0.0114237 0.403181
236 1 0.798566 0.0524766 0.160284
2213 1 0.298095 0.492893 0.0983961
2611 1 0.250235 0.496252 0.352235
976 1 0.306969 0.449187 0.447844
234 1 0.840963 0.0476431 0.106175
241 1 0.988268 0.0979577 0.103508
204 1 0.00433157 0.0528521 0.147756
240 1 0.90023 0.0486781 0.150839
827 1 0.653492 0.00274226 0.453979
244 1 0.998508 0.151146 0.153151
248 1 0.101732 0.152865 0.153252
283 1 0.0495943 0.19833 0.155853
285 1 0.101987 0.199931 0.1025
247 1 0.152531 0.0933771 0.148182
287 1 0.142437 0.20558 0.152044
249 1 0.196477 0.101036 0.100909
252 1 0.194186 0.164299 0.147346
251 1 0.244704 0.10161 0.157052
450 1 0.245982 0.1516 0.21295
291 1 0.25274 0.190065 0.15797
493 1 0.296439 0.199884 0.200327
255 1 0.349267 0.103597 0.149186
253 1 0.304754 0.0948244 0.0966059
256 1 0.293795 0.136939 0.146261
260 1 0.394402 0.155216 0.149979
261 1 0.5064 0.101822 0.09773
258 1 0.457373 0.145906 0.0990982
259 1 0.448921 0.099966 0.147539
264 1 0.495351 0.150235 0.153223
299 1 0.452447 0.196875 0.145512
457 1 0.401145 0.0987091 0.197876
263 1 0.548174 0.105507 0.147598
462 1 0.552668 0.145343 0.201396
268 1 0.604945 0.151274 0.146741
267 1 0.647831 0.0959941 0.139378
466 1 0.65714 0.147584 0.201535
272 1 0.693953 0.143055 0.14544
307 1 0.650197 0.195854 0.152146
271 1 0.750079 0.093698 0.137167
470 1 0.74378 0.150472 0.184211
276 1 0.792136 0.154121 0.136893
311 1 0.754018 0.206164 0.149819
274 1 0.845082 0.149925 0.10233
275 1 0.853696 0.09223 0.156845
280 1 0.901977 0.145878 0.161025
477 1 0.898167 0.097326 0.20547
474 1 0.851337 0.150447 0.201369
277 1 0.891282 0.105735 0.0974699
279 1 0.944929 0.103125 0.158382
278 1 0.951505 0.150191 0.103581
319 1 0.947282 0.201623 0.15681
282 1 0.0430319 0.257142 0.108017
288 1 0.0914902 0.24459 0.152347
323 1 0.049786 0.307931 0.16221
286 1 0.146154 0.249175 0.0998167
325 1 0.10353 0.301098 0.107216
327 1 0.150489 0.294309 0.153979
292 1 0.201038 0.242939 0.147933
331 1 0.252773 0.295119 0.147591
533 1 0.302758 0.294652 0.20632
296 1 0.30148 0.251506 0.157864
295 1 0.33544 0.197407 0.146435
335 1 0.35252 0.287723 0.149054
300 1 0.403406 0.244906 0.150353
537 1 0.400789 0.284752 0.197898
298 1 0.451435 0.246726 0.0966613
497 1 0.408144 0.199662 0.207725
501 1 0.496641 0.196779 0.196918
498 1 0.450124 0.246621 0.202903
541 1 0.503383 0.291912 0.2007
304 1 0.506034 0.24274 0.141345
302 1 0.55477 0.245599 0.0973695
303 1 0.556746 0.201065 0.146858
502 1 0.551746 0.2479 0.201038
306 1 0.66158 0.247921 0.10154
509 1 0.704381 0.195065 0.198604
308 1 0.601128 0.251179 0.147341
312 1 0.698822 0.254979 0.158163
347 1 0.645469 0.306543 0.148923
310 1 0.739391 0.257504 0.102464
313 1 0.793071 0.202683 0.0901857
316 1 0.800385 0.246978 0.154945
513 1 0.805906 0.192661 0.197248
314 1 0.845022 0.243994 0.105405
317 1 0.902221 0.190524 0.0999665
315 1 0.847721 0.196029 0.147451
517 1 0.895412 0.198422 0.197568
514 1 0.852804 0.245076 0.203632
355 1 0.853805 0.30785 0.14207
318 1 0.951524 0.252718 0.108003
284 1 0.999447 0.25296 0.16153
320 1 0.893807 0.257069 0.155718
359 1 0.944463 0.305732 0.142884
557 1 0.905097 0.305117 0.197151
321 1 0.00101582 0.306097 0.0972347
324 1 0.997497 0.346466 0.149538
363 1 0.0480271 0.392255 0.157618
328 1 0.107495 0.352604 0.15655
326 1 0.151214 0.343926 0.100897
329 1 0.199563 0.293487 0.105499
526 1 0.161029 0.354373 0.213762
332 1 0.205978 0.339413 0.149499
529 1 0.205391 0.307481 0.202108
330 1 0.257537 0.348758 0.0931282
530 1 0.265249 0.358948 0.202849
373 1 0.308293 0.392756 0.0989558
336 1 0.301961 0.336427 0.154306
340 1 0.40744 0.34368 0.152693
375 1 0.355343 0.388501 0.148584
377 1 0.410041 0.397008 0.0985781
339 1 0.458944 0.287426 0.148403
379 1 0.450526 0.396211 0.151251
538 1 0.44841 0.337049 0.208834
341 1 0.502517 0.291296 0.102395
343 1 0.545608 0.292984 0.148976
344 1 0.489378 0.341902 0.138748
348 1 0.590361 0.348323 0.154986
542 1 0.532144 0.355903 0.186885
349 1 0.699395 0.307318 0.105665
345 1 0.60271 0.296389 0.0965513
346 1 0.652881 0.347952 0.103235
352 1 0.698829 0.356458 0.147031
393 1 0.806447 0.40342 0.10396
351 1 0.744217 0.29424 0.164321
356 1 0.798518 0.352749 0.148647
391 1 0.753516 0.400318 0.160707
553 1 0.809656 0.301228 0.199685
354 1 0.846853 0.3546 0.0945394
397 1 0.899049 0.395429 0.0956971
395 1 0.849618 0.396748 0.155397
554 1 0.854195 0.354154 0.201714
357 1 0.90022 0.301041 0.0984912
360 1 0.905959 0.362207 0.145354
358 1 0.944791 0.347556 0.0924052
558 1 0.953473 0.357292 0.196775
361 1 0.996347 0.389526 0.101294
362 1 0.0404023 0.446404 0.102063
368 1 0.0928695 0.43991 0.139345
364 1 0.00904729 0.453835 0.161028
365 1 0.114814 0.394398 0.100125
367 1 0.16105 0.39928 0.149319
980 1 0.410046 0.451825 0.453286
566 1 0.157908 0.45134 0.193683
371 1 0.260431 0.390387 0.149827
372 1 0.206004 0.44938 0.140874
570 1 0.253961 0.439072 0.191111
1006 1 0.159678 0.0466741 0.493513
376 1 0.301465 0.447679 0.146853
374 1 0.348083 0.454958 0.0961988
380 1 0.397877 0.445997 0.145966
378 1 0.443574 0.447035 0.0947097
381 1 0.491071 0.402308 0.0999733
384 1 0.489103 0.453488 0.150499
2609 1 0.201957 0.495933 0.295698
7 1 0.159032 0.000255616 0.0474345
382 1 0.558175 0.447128 0.0961371
383 1 0.544213 0.403378 0.143548
388 1 0.597916 0.454679 0.149723
582 1 0.546937 0.45655 0.193573
585 1 0.585765 0.402242 0.198734
387 1 0.632726 0.398963 0.153963
392 1 0.69924 0.446085 0.150896
823 1 0.550489 0.000961801 0.454324
2225 1 0.607562 0.493027 0.102025
603 1 0.0503846 0.00315498 0.353273
970 1 0.255791 0.45137 0.40349
590 1 0.760478 0.453539 0.200478
394 1 0.858939 0.444446 0.100979
396 1 0.812042 0.45331 0.154877
400 1 0.899565 0.442962 0.15394
594 1 0.846465 0.445655 0.204758
1185 1 0.595818 0.401207 0.49092
398 1 0.946258 0.441916 0.102717
399 1 0.951209 0.405617 0.155713
561 1 0.000104275 0.408558 0.202129
407 1 0.156303 0.00878046 0.249175
966 1 0.160492 0.44968 0.405437
969 1 0.212597 0.399542 0.404892
402 1 0.049173 0.0506583 0.201358
443 1 0.0527486 0.0973733 0.243379
972 1 0.204174 0.449948 0.454209
2807 1 0.150621 0.49865 0.448473
408 1 0.100738 0.0546769 0.240906
447 1 0.151945 0.100072 0.254629
2811 1 0.259037 0.498497 0.45222
606 1 0.146229 0.0509343 0.295563
217 1 0.393474 0.00606629 0.0966457
412 1 0.199989 0.0632267 0.251331
2629 1 0.699936 0.496781 0.30643
416 1 0.294809 0.0555368 0.259756
414 1 0.335149 0.0525016 0.196299
614 1 0.348498 0.0595245 0.301397
653 1 0.298038 0.114058 0.303377
165 1 0.100672 0.396205 0.00330103
420 1 0.391268 0.0565302 0.247704
424 1 0.493543 0.0565297 0.245408
605 1 0.100845 0.00645825 0.293866
1150 1 0.751214 0.352711 0.499276
622 1 0.552037 0.050112 0.295984
428 1 0.604878 0.0497961 0.25058
2825 1 0.607626 0.49444 0.396573
626 1 0.656327 0.0563987 0.297587
432 1 0.702004 0.0598372 0.251141
157 1 0.901339 0.295451 0.00746818
962 1 0.0411219 0.455312 0.398261
430 1 0.740386 0.0512031 0.197271
436 1 0.790069 0.0569827 0.246742
630 1 0.750347 0.0486608 0.299376
434 1 0.846983 0.0467242 0.202282
473 1 0.804433 0.104911 0.203494
673 1 0.797358 0.106654 0.290724
968 1 0.107622 0.45282 0.447123
438 1 0.956979 0.0520044 0.196601
441 1 0.99619 0.100543 0.195126
440 1 0.898848 0.0448587 0.251554
404 1 0.999579 0.0620748 0.245196
479 1 0.947411 0.097334 0.246231
2037 1 0.894199 0.492046 0.00190206
442 1 0.0479999 0.14749 0.200078
481 1 0.00455888 0.199562 0.206159
642 1 0.0567726 0.148769 0.302097
483 1 0.0465937 0.203837 0.249491
446 1 0.151489 0.146822 0.193828
485 1 0.0934921 0.195831 0.205299
448 1 0.0964127 0.141458 0.253822
646 1 0.142878 0.149541 0.308113
487 1 0.14823 0.207058 0.248827
685 1 0.0967753 0.197161 0.301843
452 1 0.189846 0.151983 0.257896
451 1 0.247606 0.100252 0.250108
491 1 0.248407 0.203604 0.254179
650 1 0.237282 0.149782 0.297189
455 1 0.345757 0.10965 0.252705
454 1 0.355668 0.156959 0.202932
456 1 0.300404 0.159903 0.248809
495 1 0.34716 0.201553 0.257721
459 1 0.444532 0.0993026 0.254133
460 1 0.402626 0.146567 0.251957
458 1 0.445332 0.147982 0.19934
499 1 0.454052 0.187078 0.254397
658 1 0.450736 0.145897 0.302184
697 1 0.399827 0.1928 0.301842
461 1 0.489172 0.101443 0.197425
463 1 0.560202 0.0994123 0.252428
464 1 0.504275 0.143618 0.24703
468 1 0.607364 0.153203 0.252803
469 1 0.701083 0.101262 0.195601
465 1 0.601241 0.104951 0.205165
467 1 0.650465 0.103031 0.243539
472 1 0.705316 0.159155 0.255824
669 1 0.708353 0.105707 0.293298
471 1 0.746539 0.10404 0.244651
670 1 0.747212 0.150925 0.305543
476 1 0.794524 0.158594 0.245809
475 1 0.853911 0.100899 0.251382
674 1 0.853405 0.143766 0.300906
480 1 0.898397 0.147169 0.246447
677 1 0.907042 0.0969223 0.304813
444 1 0.000799932 0.144284 0.250597
478 1 0.952409 0.148997 0.201622
678 1 0.951585 0.147327 0.288214
482 1 0.0483244 0.2517 0.196606
484 1 0.994486 0.249904 0.251736
682 1 0.0462679 0.248343 0.295113
486 1 0.155427 0.260798 0.20832
488 1 0.0895804 0.252517 0.248905
525 1 0.10722 0.303425 0.203966
729 1 0.203037 0.306228 0.310312
686 1 0.145309 0.242721 0.29983
725 1 0.103971 0.301245 0.306378
489 1 0.199198 0.20024 0.203976
689 1 0.198559 0.20167 0.304911
492 1 0.203068 0.250207 0.25745
490 1 0.251861 0.242646 0.203551
690 1 0.246107 0.249694 0.298098
531 1 0.244104 0.300185 0.252481
496 1 0.301673 0.24854 0.254758
494 1 0.350815 0.244586 0.202934
694 1 0.358332 0.252852 0.298991
500 1 0.399027 0.246527 0.25455
737 1 0.407299 0.302395 0.292009
504 1 0.50527 0.239267 0.251116
503 1 0.553394 0.199085 0.243945
545 1 0.601953 0.302778 0.194806
543 1 0.558698 0.294538 0.252687
741 1 0.49739 0.303535 0.29559
505 1 0.608691 0.194014 0.19819
506 1 0.646576 0.249132 0.198825
507 1 0.649709 0.201216 0.258158
508 1 0.601582 0.241924 0.24547
512 1 0.695729 0.250405 0.246352
510 1 0.755582 0.249457 0.20597
511 1 0.747629 0.207846 0.249035
516 1 0.807995 0.249403 0.253602
713 1 0.798331 0.197369 0.300201
515 1 0.851533 0.199991 0.253489
714 1 0.847837 0.243391 0.30412
518 1 0.948216 0.250628 0.194574
519 1 0.944412 0.206546 0.245689
520 1 0.891812 0.251992 0.253573
521 1 0.995686 0.303921 0.204073
717 1 0.89766 0.198738 0.302397
757 1 0.891898 0.290199 0.310027
523 1 0.0511623 0.302834 0.246153
721 1 0.996545 0.305441 0.296722
522 1 0.0659877 0.354025 0.207228
528 1 0.103245 0.345734 0.260718
524 1 0.00210222 0.356521 0.248833
722 1 0.0556345 0.347378 0.306141
527 1 0.149563 0.299373 0.260126
567 1 0.148514 0.40098 0.255504
726 1 0.164396 0.35252 0.29299
532 1 0.217489 0.356327 0.249544
536 1 0.303115 0.354313 0.251956
730 1 0.253788 0.359271 0.298565
733 1 0.296428 0.301195 0.301019
534 1 0.34953 0.345183 0.198721
535 1 0.353732 0.298404 0.245146
540 1 0.396288 0.351055 0.243876
539 1 0.44908 0.290119 0.252644
544 1 0.497227 0.354662 0.247781
577 1 0.398202 0.401513 0.190701
579 1 0.448443 0.394898 0.239946
738 1 0.454951 0.354281 0.302344
742 1 0.547956 0.355698 0.287464
781 1 0.500964 0.397618 0.293332
548 1 0.60557 0.349643 0.249413
546 1 0.647428 0.352517 0.196007
547 1 0.64288 0.294275 0.245499
552 1 0.707712 0.350105 0.252623
549 1 0.692835 0.309463 0.198117
593 1 0.800839 0.398532 0.208266
550 1 0.755417 0.344857 0.20471
551 1 0.761601 0.291193 0.252084
556 1 0.803572 0.344947 0.255818
555 1 0.854104 0.302345 0.247347
595 1 0.856208 0.403041 0.268613
560 1 0.899593 0.348978 0.266816
754 1 0.848109 0.348059 0.307133
559 1 0.947561 0.304769 0.251691
599 1 0.949726 0.397379 0.257939
562 1 0.056063 0.444299 0.20674
563 1 0.0521848 0.393838 0.263307
568 1 0.099408 0.451438 0.261499
565 1 0.113067 0.399547 0.197537
572 1 0.196717 0.445788 0.244737
766 1 0.155666 0.447581 0.304407
765 1 0.105909 0.390136 0.304486
569 1 0.202453 0.405831 0.195776
573 1 0.308493 0.404215 0.196098
571 1 0.253998 0.40906 0.245316
773 1 0.297218 0.404573 0.294404
2005 1 0.0916164 0.493683 0.00170687
574 1 0.353827 0.454804 0.193818
576 1 0.300834 0.451129 0.23664
575 1 0.349705 0.404323 0.24466
774 1 0.344205 0.452496 0.295896
578 1 0.445144 0.456197 0.199161
580 1 0.403367 0.447678 0.258538
584 1 0.492188 0.451567 0.247513
924 1 0.997208 0.347965 0.448328
581 1 0.495488 0.414704 0.199018
583 1 0.542757 0.405846 0.244223
782 1 0.552604 0.450785 0.296512
961 1 0.000379194 0.403061 0.395678
587 1 0.646993 0.39676 0.249074
588 1 0.596908 0.448517 0.243114
586 1 0.65128 0.444387 0.198877
786 1 0.645811 0.452679 0.298172
2607 1 0.147865 0.499627 0.349515
589 1 0.699105 0.396044 0.202022
591 1 0.749967 0.400544 0.248192
592 1 0.705639 0.452702 0.243763
596 1 0.798643 0.450731 0.257189
921 1 0.00835739 0.30434 0.405535
797 1 0.90415 0.402883 0.304327
600 1 0.898913 0.447095 0.257247
794 1 0.85155 0.455509 0.303901
597 1 0.895786 0.397117 0.210791
564 1 0.000996561 0.444786 0.258734
598 1 0.948012 0.446129 0.208901
798 1 0.946998 0.454683 0.301525
960 1 0.904425 0.347646 0.447
602 1 0.0504095 0.0479112 0.29905
604 1 0.00547769 0.0549821 0.3462
995 1 0.843862 0.40257 0.44712
608 1 0.104039 0.0484507 0.349823
806 1 0.150154 0.0401556 0.407517
649 1 0.192239 0.105073 0.301446
612 1 0.200137 0.0510304 0.345773
610 1 0.243366 0.0510182 0.303624
616 1 0.29986 0.0551232 0.343525
814 1 0.345133 0.050951 0.404134
2229 1 0.700455 0.495229 0.0920029
2223 1 0.546314 0.496427 0.137921
956 1 0.803489 0.345842 0.447755
620 1 0.393154 0.0503565 0.351117
618 1 0.447801 0.0525522 0.307277
624 1 0.498025 0.0539014 0.344092
659 1 0.444287 0.100423 0.354143
657 1 0.395474 0.1024 0.302169
665 1 0.600598 0.0933233 0.299832
628 1 0.599817 0.0527141 0.34937
2405 1 0.104019 0.490258 0.19375
826 1 0.655367 0.0562586 0.398223
632 1 0.69769 0.0548219 0.350925
869 1 0.699252 0.107962 0.399861
835 1 0.849221 0.0178567 0.44491
830 1 0.750632 0.055517 0.400841
950 1 0.750012 0.33862 0.410766
2429 1 0.704008 0.495875 0.197816
634 1 0.849038 0.0543297 0.298589
636 1 0.800147 0.0542528 0.348703
640 1 0.899204 0.0515956 0.345572
952 1 0.69722 0.357025 0.461871
638 1 0.95198 0.0601018 0.301366
679 1 0.946816 0.0982479 0.358344
983 1 0.546904 0.407828 0.44509
641 1 0.000763857 0.102639 0.298356
681 1 0.00512875 0.194645 0.302615
643 1 0.0515706 0.103344 0.353329
648 1 0.0992664 0.150759 0.355211
683 1 0.0477287 0.197492 0.35567
645 1 0.0987912 0.0961242 0.303463
647 1 0.149153 0.0924688 0.354725
889 1 0.200765 0.200333 0.397022
687 1 0.144743 0.198945 0.351001
652 1 0.192127 0.153512 0.346975
651 1 0.246289 0.0968455 0.353637
853 1 0.302508 0.0994453 0.390399
850 1 0.255687 0.155487 0.398809
656 1 0.299955 0.159675 0.357149
654 1 0.35468 0.153041 0.309764
655 1 0.346655 0.104197 0.349852
854 1 0.345824 0.156933 0.405589
857 1 0.40056 0.0880898 0.404483
660 1 0.395991 0.145596 0.365358
858 1 0.452356 0.13881 0.401701
897 1 0.404625 0.195485 0.405743
699 1 0.441787 0.192377 0.352947
661 1 0.493507 0.0981824 0.295367
663 1 0.552555 0.0955292 0.348935
664 1 0.496098 0.143813 0.347008
662 1 0.550175 0.154552 0.301613
862 1 0.546037 0.147249 0.398308
901 1 0.502454 0.195487 0.405303
865 1 0.598363 0.0973085 0.400027
666 1 0.647895 0.143665 0.299568
709 1 0.70282 0.200527 0.309397
668 1 0.600461 0.14552 0.34434
667 1 0.652765 0.0984446 0.34978
672 1 0.703799 0.146552 0.355
866 1 0.647375 0.150979 0.399889
671 1 0.747002 0.103103 0.349233
870 1 0.754293 0.151551 0.402144
675 1 0.850773 0.102064 0.360304
676 1 0.79944 0.14673 0.350302
874 1 0.859504 0.146345 0.403781
877 1 0.900824 0.091914 0.408609
680 1 0.900482 0.140202 0.348462
644 1 0.997978 0.142978 0.348465
719 1 0.948037 0.192599 0.351941
882 1 0.0577663 0.248493 0.395641
723 1 0.0422168 0.291132 0.353831
688 1 0.10279 0.246619 0.352696
692 1 0.191757 0.252252 0.353109
925 1 0.110878 0.297245 0.40199
693 1 0.30201 0.194618 0.297408
691 1 0.243131 0.204309 0.346704
731 1 0.247561 0.295991 0.358696
929 1 0.197184 0.29804 0.400335
696 1 0.29823 0.245958 0.34598
695 1 0.349011 0.205366 0.356007
735 1 0.342489 0.293728 0.356757
893 1 0.305139 0.207472 0.411106
894 1 0.358684 0.24481 0.411907
700 1 0.397978 0.246042 0.355477
698 1 0.439702 0.241097 0.303113
941 1 0.49907 0.298925 0.394596
898 1 0.456889 0.247908 0.397036
701 1 0.498879 0.193284 0.29944
704 1 0.496092 0.254274 0.344298
703 1 0.544279 0.193809 0.34483
702 1 0.549676 0.250773 0.295429
945 1 0.594817 0.299809 0.396879
902 1 0.545242 0.244773 0.387956
705 1 0.599514 0.196186 0.302779
707 1 0.652715 0.18817 0.354746
708 1 0.598171 0.251868 0.345583
706 1 0.6556 0.255344 0.297251
905 1 0.600263 0.198977 0.401622
712 1 0.700026 0.2485 0.350914
949 1 0.691185 0.295015 0.407321
710 1 0.754875 0.252733 0.312741
711 1 0.753907 0.204858 0.350067
716 1 0.804664 0.244306 0.353872
749 1 0.711349 0.299013 0.295482
953 1 0.80072 0.293037 0.412017
913 1 0.800732 0.192043 0.399653
715 1 0.852779 0.189135 0.349848
957 1 0.905624 0.298155 0.403579
917 1 0.904318 0.20013 0.404908
684 1 0.000451878 0.242912 0.348022
720 1 0.896707 0.245338 0.354944
718 1 0.952272 0.246819 0.303363
918 1 0.949593 0.247063 0.400982
965 1 0.0877695 0.402455 0.405826
724 1 0.00297753 0.353607 0.350432
727 1 0.153831 0.306743 0.349554
728 1 0.109823 0.350499 0.360847
926 1 0.15424 0.347242 0.404374
933 1 0.304387 0.291722 0.401819
732 1 0.205817 0.355869 0.353455
736 1 0.29561 0.338806 0.359277
734 1 0.340114 0.350376 0.304531
973 1 0.309172 0.392918 0.414629
934 1 0.351152 0.348419 0.403046
937 1 0.394044 0.29942 0.396638
739 1 0.446231 0.298692 0.345429
740 1 0.399677 0.353336 0.348431
779 1 0.442364 0.399449 0.339162
744 1 0.50538 0.349509 0.344691
938 1 0.455586 0.345143 0.398911
785 1 0.60238 0.401285 0.292425
743 1 0.546544 0.297023 0.346052
783 1 0.546819 0.40042 0.351535
745 1 0.599715 0.303297 0.298459
746 1 0.655617 0.338527 0.293516
747 1 0.650556 0.302193 0.348154
789 1 0.696152 0.404349 0.291129
748 1 0.588862 0.351285 0.346341
751 1 0.751285 0.296869 0.36342
752 1 0.699429 0.355106 0.344508
750 1 0.758327 0.346125 0.302431
756 1 0.802944 0.334176 0.355818
753 1 0.81237 0.292625 0.309609
755 1 0.849293 0.287702 0.368611
760 1 0.902363 0.337553 0.353364
954 1 0.850294 0.344096 0.404274
758 1 0.949451 0.34241 0.304094
759 1 0.962097 0.29747 0.354897
958 1 0.953921 0.34526 0.400229
799 1 0.948477 0.390834 0.353371
762 1 0.0538756 0.457028 0.309149
761 1 0.999586 0.404792 0.305331
763 1 0.0545729 0.391591 0.349648
768 1 0.0992071 0.445295 0.357212
2409 1 0.199176 0.497189 0.196223
1197 1 0.892446 0.399685 0.49923
767 1 0.154394 0.396632 0.361456
769 1 0.203491 0.405768 0.311642
772 1 0.200615 0.456245 0.354026
991 1 0.749547 0.399409 0.44382
951 1 0.754265 0.28948 0.459473
770 1 0.251214 0.45094 0.302657
771 1 0.254784 0.400101 0.356749
776 1 0.302507 0.453586 0.34854
1169 1 0.191258 0.399717 0.491429
2201 1 0.994115 0.487093 0.108044
974 1 0.360853 0.452492 0.405479
775 1 0.339197 0.393462 0.35454
977 1 0.394606 0.395868 0.398203
978 1 0.443297 0.442535 0.387323
31 1 0.754879 0.00917362 0.0354381
777 1 0.39558 0.396675 0.293533
780 1 0.384656 0.437486 0.341838
778 1 0.453858 0.446428 0.300171
784 1 0.498527 0.449288 0.350949
788 1 0.600914 0.449865 0.345188
2437 1 0.9035 0.498677 0.205586
987 1 0.650267 0.40372 0.447758
986 1 0.653436 0.446465 0.386423
985 1 0.605815 0.395167 0.396715
787 1 0.646213 0.400741 0.34123
793 1 0.802976 0.399434 0.299811
791 1 0.749013 0.391498 0.346958
792 1 0.710833 0.446 0.351862
790 1 0.752195 0.444724 0.304728
990 1 0.756563 0.4457 0.396364
796 1 0.809528 0.449305 0.348613
142 1 0.547065 0.348886 0.00502934
997 1 0.89357 0.396974 0.403802
795 1 0.859348 0.39614 0.351536
764 1 0.98924 0.459691 0.348093
931 1 0.2475 0.295156 0.445163
800 1 0.902087 0.455562 0.347299
930 1 0.254371 0.353242 0.403782
802 1 0.0549634 0.0494434 0.394812
808 1 0.101244 0.042061 0.458458
843 1 0.0505549 0.099567 0.463792
847 1 0.159322 0.0980721 0.445394
812 1 0.207151 0.049239 0.451186
849 1 0.202256 0.109316 0.396747
810 1 0.250551 0.0448141 0.398612
851 1 0.253069 0.101189 0.446689
940 1 0.411718 0.340034 0.453562
946 1 0.643532 0.347129 0.401875
816 1 0.302444 0.0516387 0.452477
855 1 0.347804 0.098598 0.444734
818 1 0.448621 0.0444611 0.39977
861 1 0.499734 0.0994853 0.395607
820 1 0.393453 0.0433667 0.450767
859 1 0.443287 0.0959643 0.451462
822 1 0.546623 0.0483005 0.403701
824 1 0.498962 0.0629418 0.451178
828 1 0.601616 0.0458195 0.45571
863 1 0.556425 0.0943651 0.45546
3033 1 0.794485 0.494432 0.498939
919 1 0.953928 0.198613 0.44772
971 1 0.257253 0.401132 0.450949
915 1 0.853366 0.195876 0.458316
948 1 0.59142 0.343092 0.447568
832 1 0.698052 0.0554726 0.446602
141 1 0.503838 0.304182 0.00770525
834 1 0.851887 0.0493019 0.393877
836 1 0.793112 0.0485522 0.450092
875 1 0.851572 0.0917061 0.445321
838 1 0.953496 0.050765 0.402613
927 1 0.146988 0.296875 0.462681
804 1 0.00869927 0.0511073 0.453636
840 1 0.911678 0.0502198 0.457385
967 1 0.145336 0.400028 0.447755
842 1 0.0489553 0.141371 0.406942
881 1 0.991735 0.198029 0.397433
845 1 0.101719 0.0950254 0.4084
844 1 0.997886 0.149516 0.456145
848 1 0.10257 0.145326 0.456268
916 1 0.80787 0.250074 0.463261
846 1 0.155172 0.151137 0.401385
852 1 0.20629 0.144908 0.448216
887 1 0.152597 0.196017 0.453177
932 1 0.207252 0.352963 0.45222
856 1 0.2954 0.150712 0.451816
891 1 0.249557 0.196343 0.453782
944 1 0.501361 0.354712 0.443151
895 1 0.355437 0.195359 0.464597
959 1 0.950095 0.298194 0.448688
860 1 0.403446 0.150318 0.447542
864 1 0.50259 0.14381 0.458269
899 1 0.455091 0.196648 0.442508
221 1 0.508369 0.00473989 0.0905266
979 1 0.448728 0.398804 0.453893
903 1 0.549623 0.198325 0.453468
868 1 0.598132 0.154586 0.446245
867 1 0.652002 0.106137 0.452092
907 1 0.646333 0.200065 0.446791
942 1 0.543634 0.350644 0.399793
909 1 0.703298 0.200471 0.398242
872 1 0.698455 0.152206 0.449798
871 1 0.751617 0.111425 0.454447
911 1 0.751732 0.194496 0.447528
955 1 0.86323 0.293647 0.450788
873 1 0.79839 0.0938707 0.409613
876 1 0.806784 0.1476 0.458613
841 1 0.998058 0.102462 0.403463
878 1 0.946387 0.144296 0.401075
879 1 0.948011 0.103059 0.448617
880 1 0.903696 0.145878 0.455934
939 1 0.463813 0.302294 0.458893
920 1 0.900451 0.242098 0.447782
885 1 0.104713 0.194164 0.400715