ITEM: TIMESTEP
0
ITEM: NUMBER OF ATOMS
864
ITEM: BOX BOUNDS pp pp pp
0.0000000000000000e+00 3.1559999999999999e+01
0.0000000000000000e+00 3.1559999999999999e+01
0.0000000000000000e+00 3.1559999999999999e+01
ITEM: ATOMS id type xs ys zs
1 1 0 0 0
2 1 0.0833333 0.0833333 0
3 1 0.0833333 0 0.0833333
4 1 0 0.0833333 0.0833333
5 1 0.166667 0 0
6 1 0.25 0.0833333 0
7 1 0.25 0 0.0833333
8 1 0.166667 0.0833333 0.0833333
9 1 0.333333 0 0
10 1 0.416667 0.0833333 0
11 1 0.416667 0 0.0833333
12 1 0.333333 0.0833333 0.0833333
13 1 0.5 0 0
14 1 0.583333 0.0833333 0
15 1 0.583333 0 0.0833333
16 1 0.5 0.0833333 0.0833333
17 1 0.666667 0 0
18 1 0.75 0.0833333 0
19 1 0.75 0 0.0833333
20 1 0.666667 0.0833333 0.0833333
21 1 0.833333 0 0
22 1 0.916667 0.0833333 0
23 1 0.916667 0 0.0833333
24 1 0.833333 0.0833333 0.0833333
25 1 0 0.166667 0
26 1 0.0833333 0.25 0
27 1 0.0833333 0.166667 0.0833333
28 1 0 0.25 0.0833333
29 1 0.166667 0.166667 0
30 1 0.25 0.25 0
31 1 0.25 0.166667 0.0833333
32 1 0.166667 0.25 0.0833333
33 1 0.333333 0.166667 0
34 1 0.416667 0.25 0
35 1 0.416667 0.166667 0.0833333
36 1 0.333333 0.25 0.0833333
37 1 0.5 0.166667 0
38 1 0.583333 0.25 0
39 1 0.583333 0.166667 0.0833333
40 1 0.5 0.25 0.0833333
41 1 0.666667 0.166667 0
42 1 0.75 0.25 0
43 1 0.75 0.166667 0.0833333
44 1 0.666667 0.25 0.0833333
45 1 0.833333 0.166667 0
46 1 0.916667 0.25 0
47 1 0.916667 0.166667 0.0833333
48 1 0.833333 0.25 0.0833333
49 1 0 0.333333 0
50 1 0.0833333 0.416667 0
51 1 0.0833333 0.333333 0.0833333
52 1 0 0.416667 0.0833333
53 1 0.166667 0.333333 0
54 1 0.25 0.416667 0
55 1 0.25 0.333333 0.0833333
56 1 0.166667 0.416667 0.0833333
57 1 0.333333 0.333333 0
58 1 0.416667 0.416667 0
59 1 0.416667 0.333333 0.0833333
60 1 0.333333 0.416667 0.0833333
61 1 0.5 0.333333 0
62 1 0.583333 0.416667 0
63 1 0.583333 0.333333 0.0833333
64 1 0.5 0.416667 0.0833333
65 1 0.666667 0.333333 0
66 1 0.75 0.416667 0
67 1 0.75 0.333333 0.0833333
68 1 0.666667 0.416667 0.0833333
69 1 0.833333 0.333333 0
70 1 0.916667 0.416667 0
71 1 0.916667 0.333333 0.0833333
72 1 0.833333 0.416667 0.0833333
73 1 0 0 0.166667
74 1 0.0833333 0.0833333 0.166667
75 1 0.0833333 0 0.25
76 1 0 0.0833333 0.25
77 1 0.166667 0 0.166667
78 1 0.25 0.0833333 0.166667
79 1 0.25 0 0.25
80 1 0.166667 0.0833333 0.25
81 1 0.333333 0 0.166667
82 1 0.416667 0.0833333 0.166667
83 1 0.416667 0 0.25
84 1 0.333333 0.0833333 0.25
85 1 0.5 0 0.166667
86 1 0.583333 0.0833333 0.166667
87 1 0.583333 0 0.25
88 1 0.5 0.0833333 0.25
89 1 0.666667 0 0.166667
90 1 0.75 0.0833333 0.166667
91 1 0.75 0 0.25
92 1 0.666667 0.0833333 0.25
93 1 0.833333 0 0.166667
94 1 0.916667 0.0833333 0.166667
95 1 0.916667 0 0.25
96 1 0.833333 0.0833333 0.25
97 1 0 0.166667 0.166667
98 1 0.0833333 0.25 0.166667
99 1 0.0833333 0.166667 0.25
100 1 0 0.25 0.25
101 1 0.166667 0.166667 0.166667
102 1 0.25 0.25 0.166667
103 1 0.25 0.166667 0.25
104 1 0.166667 0.25 0.25
105 1 0.333333 0.166667 0.166667
106 1 0.416667 0.25 0.166667
107 1 0.416667 0.166667 0.25
108 1 0.333333 0.25 0.25
109 1 0.5 0.166667 0.166667
110 1 0.583333 0.25 0.166667
111 1 0.583333 0.166667 0.25
112 1 0.5 0.25 0.25
113 1 0.666667 0.166667 0.166667
114 1 0.75 0.25 0.166667
115 1 0.75 0.166667 0.25
116 1 0.666667 0.25 0.25
117 1 0.833333 0.166667 0.166667
118 1 0.916667 0.25 0.166667
119 1 0.916667 0.166667 0.25
120 1 0.833333 0.25 0.25
121 1 0 0.333333 0.166667
122 1 0.0833333 0.416667 0.166667
123 1 0.0833333 0.333333 0.25
124 1 0 0.416667 0.25
125 1 0.166667 0.333333 0.166667
126 1 0.25 0.416667 0.166667
127 1 0.25 0.333333 0.25
128 1 0.166667 0.416667 0.25
129 1 0.333333 0.333333 0.166667
130 1 0.416667 0.416667 0.166667
131 1 0.416667 0.333333 0.25
132 1 0.333333 0.416667 0.25
133 1 0.5 0.333333 0.166667
134 1 0.583333 0.416667 0.166667
135 1 0.583333 0.333333 0.25
136 1 0.5 0.416667 0.25
137 1 0.666667 0.333333 0.166667
138 1 0.75 0.416667 0.166667
139 1 0.75 0.333333 0.25
140 1 0.666667 0.416667 0.25
141 1 0.833333 0.333333 0.166667
142 1 0.916667 0.416667 0.166667
143 1 0.916667 0.333333 0.25
144 1 0.833333 0.416667 0.25
145 1 0 0 0.333333
146 1 0.0833333 0.0833333 0.333333
147 1 0.0833333 0 0.416667
148 1 0 0.0833333 0.416667
149 1 0.166667 0 0.333333
150 1 0.25 0.0833333 0.333333
151 1 0.25 0 0.416667
152 1 0.166667 0.0833333 0.416667
153 1 0.333333 0 0.333333
154 1 0.416667 0.0833333 0.333333
155 1 0.416667 0 0.416667
156 1 0.333333 0.0833333 0.416667
157 1 0.5 0 0.333333
158 1 0.583333 0.0833333 0.333333
159 1 0.583333 0 0.416667
160 1 0.5 0.0833333 0.416667
161 1 0.666667 0 0.333333
162 1 0.75 0.0833333 0.333333
163 1 0.75 0 0.416667
164 1 0.666667 0.0833333 0.416667
165 1 0.833333 0 0.333333
166 1 0.916667 0.0833333 0.333333
167 1 0.916667 0 0.416667
168 1 0.833333 0.0833333 0.416667
169 1 0 0.166667 0.333333
170 1 0.0833333 0.25 0.333333
171 1 0.0833333 0.166667 0.416667
172 1 0 0.25 0.416667
173 1 0.166667 0.166667 0.333333
174 1 0.25 0.25 0.333333
175 1 0.25 0.166667 0.416667
176 1 0.166667 0.25 0.416667
177 1 0.333333 0.166667 0.333333
178 1 0.416667 0.25 0.333333
179 1 0.416667 0.166667 0.416667
180 1 0.333333 0.25 0.416667
181 1 0.5 0.166667 0.333333
182 1 0.583333 0.25 0.333333
183 1 0.583333 0.166667 0.416667
184 1 0.5 0.25 0.416667
185 1 0.666667 0.166667 0.333333
186 1 0.75 0.25 0.333333
187 1 0.75 0.166667 0.416667
188 1 0.666667 0.25 0.416667
189 1 0.833333 0.166667 0.333333
190 1 0.916667 0.25 0.333333
191 1 0.916667 0.166667 0.416667
192 1 0.833333 0.25 0.416667
193 1 0 0.333333 0.333333
194 1 0.0833333 0.416667 0.333333
195 1 0.0833333 0.333333 0.416667
196 1 0 0.416667 0.416667
197 1 0.166667 0.333333 0.333333
198 1 0.25 0.416667 0.333333
199 1 0.25 0.333333 0.416667
200 1 0.166667 0.416667 0.416667
201 1 0.333333 0.333333 0.333333
202 1 0.416667 0.416667 0.333333
203 1 0.416667 0.333333 0.416667
204 1 0.333333 0.416667 0.416667
205 1 0.5 0.333333 0.333333
206 1 0.583333 0.416667 0.333333
207 1 0.583333 0.333333 0.416667
208 1 0.5 0.416667 0.416667
209 1 0.666667 0.333333 0.333333
210 1 0.75 0.416667 0.333333
211 1 0.75 0.333333 0.416667
212 1 0.666667 0.416667 0.416667
213 1 0.833333 0.333333 0.333333
214 1 0.916667 0.416667 0.333333
215 1 0.916667 0.333333 0.416667
216 1 0.833333 0.416667 0.416667
217 1 0 0 0.5
218 1 0.0833333 0.0833333 0.5
219 1 0.0833333 0 0.583333
220 1 0 0.0833333 0.583333
221 1 0.166667 0 0.5
222 1 0.25 0.0833333 0.5
223 1 0.25 0 0.583333
224 1 0.166667 0.0833333 0.583333
225 1 0.333333 0 0.5
226 1 0.416667 0.0833333 0.5
227 1 0.416667 0 0.583333
228 1 0.333333 0.0833333 0.583333
229 1 0.5 0 0.5
230 1 0.583333 0.0833333 0.5
231 1 0.583333 0 0.583333
232 1 0.5 0.0833333 0.583333
233 1 0.666667 0 0.5
234 1 0.75 0.0833333 0.5
235 1 0.75 0 0.583333
236 1 0.666667 0.0833333 0.583333
237 1 0.833333 0 0.5
238 1 0.916667 0.0833333 0.5
239 1 0.916667 0 0.583333
240 1 0.833333 0.0833333 0.583333
241 1 0 0.166667 0.5
242 1 0.0833333 0.25 0.5
243 1 0.0833333 0.166667 0.583333
244 1 0 0.25 0.583333
245 1 0.166667 0.166667 0.5
246 1 0.25 0.25 0.5
247 1 0.25 0.166667 0.583333
248 1 0.166667 0.25 0.583333
249 1 0.333333 0.166667 0.5
250 1 0.416667 0.25 0.5
251 1 0.416667 0.166667 0.583333
252 1 0.333333 0.25 0.583333
253 1 0.5 0.166667 0.5
254 1 0.583333 0.25 0.5
255 1 0.583333 0.166667 0.583333
256 1 0.5 0.25 0.583333
257 1 0.666667 0.166667 0.5
258 1 0.75 0.25 0.5
259 1 0.75 0.166667 0.583333
260 1 0.666667 0.25 0.583333
261 1 0.833333 0.166667 0.5
262 1 0.916667 0.25 0.5
263 1 0.916667 0.166667 0.583333
264 1 0.833333 0.25 0.583333
265 1 0 0.333333 0.5
266 1 0.0833333 0.416667 0.5
267 1 0.0833333 0.333333 0.583333
268 1 0 0.416667 0.583333
269 1 0.166667 0.333333 0.5
270 1 0.25 0.416667 0.5
271 1 0.25 0.333333 0.583333
272 1 0.166667 0.416667 0.583333
273 1 0.333333 0.333333 0.5
274 1 0.416667 0.416667 0.5
275 1 0.416667 0.333333 0.583333
276 1 0.333333 0.416667 0.583333
277 1 0.5 0.333333 0.5
278 1 0.583333 0.416667 0.5
279 1 0.583333 0.333333 0.583333
280 1 0.5 0.416667 0.583333
281 1 0.666667 0.333333 0.5
282 1 0.75 0.416667 0.5
283 1 0.75 0.333333 0.583333
284 1 0.666667 0.416667 0.583333
285 1 0.833333 0.333333 0.5
286 1 0.916667 0.416667 0.5
287 1 0.916667 0.333333 0.583333
288 1 0.833333 0.416667 0.583333
289 1 0 0 0.666667
290 1 0.0833333 0.0833333 0.666667
291 1 0.0833333 0 0.75
292 1 0 0.0833333 0.75
361 1 0 0 0.833333
362 1 0.0833333 0.0833333 0.833333
293 1 0.166667 0 0.666667
294 1 0.25 0.0833333 0.666667
295 1 0.25 0 0.75
296 1 0.166667 0.0833333 0.75
365 1 0.166667 0 0.833333
366 1 0.25 0.0833333 0.833333
297 1 0.333333 0 0.666667
298 1 0.416667 0.0833333 0.666667
299 1 0.416667 0 0.75
300 1 0.333333 0.0833333 0.75
369 1 0.333333 0 0.833333
370 1 0.416667 0.0833333 0.833333
301 1 0.5 0 0.666667
302 1 0.583333 0.0833333 0.666667
303 1 0.583333 0 0.75
304 1 0.5 0.0833333 0.75
373 1 0.5 0 0.833333
374 1 0.583333 0.0833333 0.833333
305 1 0.666667 0 0.666667
306 1 0.75 0.0833333 0.666667
307 1 0.75 0 0.75
308 1 0.666667 0.0833333 0.75
377 1 0.666667 0 0.833333
378 1 0.75 0.0833333 0.833333
309 1 0.833333 0 0.666667
310 1 0.916667 0.0833333 0.666667
311 1 0.916667 0 0.75
312 1 0.833333 0.0833333 0.75
381 1 0.833333 0 0.833333
382 1 0.916667 0.0833333 0.833333
313 1 0 0.166667 0.666667
314 1 0.0833333 0.25 0.666667
315 1 0.0833333 0.166667 0.75
316 1 0 0.25 0.75
385 1 0 0.166667 0.833333
386 1 0.0833333 0.25 0.833333
317 1 0.166667 0.166667 0.666667
318 1 0.25 0.25 0.666667
319 1 0.25 0.166667 0.75
320 1 0.166667 0.25 0.75
389 1 0.166667 0.166667 0.833333
390 1 0.25 0.25 0.833333
321 1 0.333333 0.166667 0.666667
322 1 0.416667 0.25 0.666667
323 1 0.416667 0.166667 0.75
324 1 0.333333 0.25 0.75
393 1 0.333333 0.166667 0.833333
394 1 0.416667 0.25 0.833333
325 1 0.5 0.166667 0.666667
326 1 0.583333 0.25 0.666667
327 1 0.583333 0.166667 0.75
328 1 0.5 0.25 0.75
397 1 0.5 0.166667 0.833333
398 1 0.583333 0.25 0.833333
329 1 0.666667 0.166667 0.666667
330 1 0.75 0.25 0.666667
331 1 0.75 0.166667 0.75
332 1 0.666667 0.25 0.75
401 1 0.666667 0.166667 0.833333
402 1 0.75 0.25 0.833333
333 1 0.833333 0.166667 0.666667
334 1 0.916667 0.25 0.666667
335 1 0.916667 0.166667 0.75
336 1 0.833333 0.25 0.75
405 1 0.833333 0.166667 0.833333
406 1 0.916667 0.25 0.833333
337 1 0 0.333333 0.666667
338 1 0.0833333 0.416667 0.666667
339 1 0.0833333 0.333333 0.75
340 1 0 0.416667 0.75
409 1 0 0.333333 0.833333
410 1 0.0833333 0.416667 0.833333
341 1 0.166667 0.333333 0.666667
342 1 0.25 0.416667 0.666667
343 1 0.25 0.333333 0.75
344 1 0.166667 0.416667 0.75
413 1 0.166667 0.333333 0.833333
414 1 0.25 0.416667 0.833333
345 1 0.333333 0.333333 0.666667
346 1 0.416667 0.416667 0.666667
347 1 0.416667 0.333333 0.75
348 1 0.333333 0.416667 0.75
417 1 0.333333 0.333333 0.833333
418 1 0.416667 0.416667 0.833333
349 1 0.5 0.333333 0.666667
350 1 0.583333 0.416667 0.666667
351 1 0.583333 0.333333 0.75
352 1 0.5 0.416667 0.75
421 1 0.5 0.333333 0.833333
422 1 0.583333 0.416667 0.833333
353 1 0.666667 0.333333 0.666667
354 1 0.75 0.416667 0.666667
355 1 0.75 0.333333 0.75
356 1 0.666667 0.416667 0.75
425 1 0.666667 0.333333 0.833333
426 1 0.75 0.416667 0.833333
357 1 0.833333 0.333333 0.666667
358 1 0.916667 0.416667 0.666667
359 1 0.916667 0.333333 0.75
360 1 0.833333 0.416667 0.75
429 1 0.833333 0.333333 0.833333
430 1 0.916667 0.416667 0.833333
363 1 0.0833333 0 0.916667
364 1 0 0.0833333 0.916667
367 1 0.25 0 0.916667
368 1 0.166667 0.0833333 0.916667
371 1 0.416667 0 0.916667
372 1 0.333333 0.0833333 0.916667
375 1 0.583333 0 0.916667
376 1 0.5 0.0833333 0.916667
379 1 0.75 0 0.916667
380 1 0.666667 0.0833333 0.916667
383 1 0.916667 0 0.916667
384 1 0.833333 0.0833333 0.916667
387 1 0.0833333 0.166667 0.916667
388 1 0 0.25 0.916667
391 1 0.25 0.166667 0.916667
392 1 0.166667 0.25 0.916667
395 1 0.416667 0.166667 0.916667
396 1 0.333333 0.25 0.916667
399 1 0.583333 0.166667 0.916667
400 1 0.5 0.25 0.916667
403 1 0.75 0.166667 0.916667
404 1 0.666667 0.25 0.916667
407 1 0.916667 0.166667 0.916667
408 1 0.833333 0.25 0.916667
411 1 0.0833333 0.333333 0.916667
412 1 0 0.416667 0.916667
415 1 0.25 0.333333 0.916667
416 1 0.166667 0.416667 0.916667
419 1 0.416667 0.333333 0.916667
420 1 0.333333 0.416667 0.916667
423 1 0.583333 0.333333 0.916667
424 1 0.5 0.416667 0.916667
427 1 0.75 0.333333 0.916667
428 1 0.666667 0.416667 0.916667
431 1 0.916667 0.333333 0.916667
432 1 0.833333 0.416667 0.916667
433 1 0 0.5 0
434 1 0.0833333 0.583333 0
435 1 0.0833333 0.5 0.0833333
436 1 0 0.583333 0.0833333
437 1 0.166667 0.5 0
438 1 0.25 0.583333 0
439 1 0.25 0.5 0.0833333
440 1 0.166667 0.583333 0.0833333
441 1 0.333333 0.5 0
442 1 0.416667 0.583333 0
443 1 0.416667 0.5 0.0833333
444 1 0.333333 0.583333 0.0833333
445 1 0.5 0.5 0
446 1 0.583333 0.583333 0
447 1 0.583333 0.5 0.0833333
448 1 0.5 0.583333 0.0833333
449 1 0.666667 0.5 0
450 1 0.75 0.583333 0
451 1 0.75 0.5 0.0833333
452 1 0.666667 0.583333 0.0833333
453 1 0.833333 0.5 0
454 1 0.916667 0.583333 0
455 1 0.916667 0.5 0.0833333
456 1 0.833333 0.583333 0.0833333
457 1 0 0.666667 0
458 1 0.0833333 0.75 0
459 1 0.0833333 0.666667 0.0833333
460 1 0 0.75 0.0833333
481 1 0 0.833333 0
483 1 0.0833333 0.833333 0.0833333
461 1 0.166667 0.666667 0
462 1 0.25 0.75 0
463 1 0.25 0.666667 0.0833333
464 1 0.166667 0.75 0.0833333
485 1 0.166667 0.833333 0
487 1 0.25 0.833333 0.0833333
465 1 0.333333 0.666667 0
466 1 0.416667 0.75 0
467 1 0.416667 0.666667 0.0833333
468 1 0.333333 0.75 0.0833333
489 1 0.333333 0.833333 0
491 1 0.416667 0.833333 0.0833333
469 1 0.5 0.666667 0
470 1 0.583333 0.75 0
471 1 0.583333 0.666667 0.0833333
472 1 0.5 0.75 0.0833333
493 1 0.5 0.833333 0
495 1 0.583333 0.833333 0.0833333
473 1 0.666667 0.666667 0
474 1 0.75 0.75 0
475 1 0.75 0.666667 0.0833333
476 1 0.666667 0.75 0.0833333
497 1 0.666667 0.833333 0
499 1 0.75 0.833333 0.0833333
477 1 0.833333 0.666667 0
478 1 0.916667 0.75 0
479 1 0.916667 0.666667 0.0833333
480 1 0.833333 0.75 0.0833333
501 1 0.833333 0.833333 0
503 1 0.916667 0.833333 0.0833333
482 1 0.0833333 0.916667 0
484 1 0 0.916667 0.0833333
486 1 0.25 0.916667 0
488 1 0.166667 0.916667 0.0833333
490 1 0.416667 0.916667 0
492 1 0.333333 0.916667 0.0833333
494 1 0.583333 0.916667 0
496 1 0.5 0.916667 0.0833333
498 1 0.75 0.916667 0
500 1 0.666667 0.916667 0.0833333
502 1 0.916667 0.916667 0
504 1 0.833333 0.916667 0.0833333
505 1 0 0.5 0.166667
506 1 0.0833333 0.583333 0.166667
507 1 0.0833333 0.5 0.25
508 1 0 0.583333 0.25
509 1 0.166667 0.5 0.166667
510 1 0.25 0.583333 0.166667
511 1 0.25 0.5 0.25
512 1 0.166667 0.583333 0.25
513 1 0.333333 0.5 0.166667
514 1 0.416667 0.583333 0.166667
515 1 0.416667 0.5 0.25
516 1 0.333333 0.583333 0.25
517 1 0.5 0.5 0.166667
518 1 0.583333 0.583333 0.166667
519 1 0.583333 0.5 0.25
520 1 0.5 0.583333 0.25
521 1 0.666667 0.5 0.166667
522 1 0.75 0.583333 0.166667
523 1 0.75 0.5 0.25
524 1 0.666667 0.583333 0.25
525 1 0.833333 0.5 0.166667
526 1 0.916667 0.583333 0.166667
527 1 0.916667 0.5 0.25
528 1 0.833333 0.583333 0.25
529 1 0 0.666667 0.166667
530 1 0.0833333 0.75 0.166667
531 1 0.0833333 0.666667 0.25
532 1 0 0.75 0.25
553 1 0 0.833333 0.166667
555 1 0.0833333 0.833333 0.25
533 1 0.166667 0.666667 0.166667
534 1 0.25 0.75 0.166667
535 1 0.25 0.666667 0.25
536 1 0.166667 0.75 0.25
557 1 0.166667 0.833333 0.166667
559 1 0.25 0.833333 0.25
537 1 0.333333 0.666667 0.166667
538 1 0.416667 0.75 0.166667
539 1 0.416667 0.666667 0.25
540 1 0.333333 0.75 0.25
561 1 0.333333 0.833333 0.166667
563 1 0.416667 0.833333 0.25
541 1 0.5 0.666667 0.166667
542 1 0.583333 0.75 0.166667
543 1 0.583333 0.666667 0.25
544 1 0.5 0.75 0.25
565 1 0.5 0.833333 0.166667
567 1 0.583333 0.833333 0.25
545 1 0.666667 0.666667 0.166667
546 1 0.75 0.75 0.166667
547 1 0.75 0.666667 0.25
548 1 0.666667 0.75 0.25
569 1 0.666667 0.833333 0.166667
571 1 0.75 0.833333 0.25
549 1 0.833333 0.666667 0.166667
550 1 0.916667 0.75 0.166667
551 1 0.916667 0.666667 0.25
552 1 0.833333 0.75 0.25
573 1 0.833333 0.833333 0.166667
575 1 0.916667 0.833333 0.25
554 1 0.0833333 0.916667 0.166667
556 1 0 0.916667 0.25
558 1 0.25 0.916667 0.166667
560 1 0.166667 0.916667 0.25
562 1 0.416667 0.916667 0.166667
564 1 0.333333 0.916667 0.25
566 1 0.583333 0.916667 0.166667
568 1 0.5 0.916667 0.25
570 1 0.75 0.916667 0.166667
572 1 0.666667 0.916667 0.25
574 1 0.916667 0.916667 0.166667
576 1 0.833333 0.916667 0.25
577 1 0 0.5 0.333333
578 1 0.0833333 0.583333 0.333333
579 1 0.0833333 0.5 0.416667
580 1 0 0.583333 0.416667
581 1 0.166667 0.5 0.333333
582 1 0.25 0.583333 0.333333
583 1 0.25 0.5 0.416667
584 1 0.166667 0.583333 0.416667
585 1 0.333333 0.5 0.333333
586 1 0.416667 0.583333 0.333333
587 1 0.416667 0.5 0.416667
588 1 0.333333 0.583333 0.416667
589 1 0.5 0.5 0.333333
590 1 0.583333 0.583333 0.333333
591 1 0.583333 0.5 0.416667
592 1 0.5 0.583333 0.416667
593 1 0.666667 0.5 0.333333
594 1 0.75 0.583333 0.333333
595 1 0.75 0.5 0.416667
596 1 0.666667 0.583333 0.416667
597 1 0.833333 0.5 0.333333
598 1 0.916667 0.583333 0.333333
599 1 0.916667 0.5 0.416667
600 1 0.833333 0.583333 0.416667
601 1 0 0.666667 0.333333
602 1 0.0833333 0.75 0.333333
603 1 0.0833333 0.666667 0.416667
604 1 0 0.75 0.416667
625 1 0 0.833333 0.333333
627 1 0.0833333 0.833333 0.416667
605 1 0.166667 0.666667 0.333333
606 1 0.25 0.75 0.333333
607 1 0.25 0.666667 0.416667
608 1 0.166667 0.75 0.416667
629 1 0.166667 0.833333 0.333333
631 1 0.25 0.833333 0.416667
609 1 0.333333 0.666667 0.333333
610 1 0.416667 0.75 0.333333
611 1 0.416667 0.666667 0.416667
612 1 0.333333 0.75 0.416667
633 1 0.333333 0.833333 0.333333
635 1 0.416667 0.833333 0.416667
613 1 0.5 0.666667 0.333333
614 1 0.583333 0.75 0.333333
615 1 0.583333 0.666667 0.416667
616 1 0.5 0.75 0.416667
637 1 0.5 0.833333 0.333333
639 1 0.583333 0.833333 0.416667
617 1 0.666667 0.666667 0.333333
618 1 0.75 0.75 0.333333
619 1 0.75 0.666667 0.416667
620 1 0.666667 0.75 0.416667
641 1 0.666667 0.833333 0.333333
643 1 0.75 0.833333 0.416667
621 1 0.833333 0.666667 0.333333
622 1 0.916667 0.75 0.333333
623 1 0.916667 0.666667 0.416667
624 1 0.833333 0.75 0.416667
645 1 0.833333 0.833333 0.333333
647 1 0.916667 0.833333 0.416667
626 1 0.0833333 0.916667 0.333333
628 1 0 0.916667 0.416667
630 1 0.25 0.916667 0.333333
632 1 0.166667 0.916667 0.416667
634 1 0.416667 0.916667 0.333333
636 1 0.333333 0.916667 0.416667
638 1 0.583333 0.916667 0.333333
640 1 0.5 0.916667 0.416667
642 1 0.75 0.916667 0.333333
644 1 0.666667 0.916667 0.416667
646 1 0.916667 0.916667 0.333333
648 1 0.833333 0.916667 0.416667
649 1 0 0.5 0.5
650 1 0.0833333 0.583333 0.5
651 1 0.0833333 0.5 0.583333
652 1 0 0.583333 0.583333
653 1 0.166667 0.5 0.5
654 1 0.25 0.583333 0.5
655 1 0.25 0.5 0.583333
656 1 0.166667 0.583333 0.583333
657 1 0.333333 0.5 0.5
658 1 0.416667 0.583333 0.5
659 1 0.416667 0.5 0.583333
660 1 0.333333 0.583333 0.583333
661 1 0.5 0.5 0.5
662 1 0.583333 0.583333 0.5
663 1 0.583333 0.5 0.583333
664 1 0.5 0.583333 0.583333
665 1 0.666667 0.5 0.5
666 1 0.75 0.583333 0.5
667 1 0.75 0.5 0.583333
668 1 0.666667 0.583333 0.583333
669 1 0.833333 0.5 0.5
670 1 0.916667 0.583333 0.5
671 1 0.916667 0.5 0.583333
672 1 0.833333 0.583333 0.583333
673 1 0 0.666667 0.5
674 1 0.0833333 0.75 0.5
675 1 0.0833333 0.666667 0.583333
676 1 0 0.75 0.583333
697 1 0 0.833333 0.5
699 1 0.0833333 0.833333 0.583333
677 1 0.166667 0.666667 0.5
678 1 0.25 0.75 0.5
679 1 0.25 0.666667 0.583333
680 1 0.166667 0.75 0.583333
701 1 0.166667 0.833333 0.5
703 1 0.25 0.833333 0.583333
681 1 0.333333 0.666667 0.5
682 1 0.416667 0.75 0.5
683 1 0.416667 0.666667 0.583333
684 1 0.333333 0.75 0.583333
705 1 0.333333 0.833333 0.5
707 1 0.416667 0.833333 0.583333
685 1 0.5 0.666667 0.5
686 1 0.583333 0.75 0.5
687 1 0.583333 0.666667 0.583333
688 1 0.5 0.75 0.583333
709 1 0.5 0.833333 0.5
711 1 0.583333 0.833333 0.583333
689 1 0.666667 0.666667 0.5
690 1 0.75 0.75 0.5
691 1 0.75 0.666667 0.583333
692 1 0.666667 0.75 0.583333
713 1 0.666667 0.833333 0.5
715 1 0.75 0.833333 0.583333
693 1 0.833333 0.666667 0.5
694 1 0.916667 0.75 0.5
695 1 0.916667 0.666667 0.583333
696 1 0.833333 0.75 0.583333
717 1 0.833333 0.833333 0.5
719 1 0.916667 0.833333 0.583333
698 1 0.0833333 0.916667 0.5
700 1 0 0.916667 0.583333
702 1 0.25 0.916667 0.5
704 1 0.166667 0.916667 0.583333
706 1 0.416667 0.916667 0.5
708 1 0.333333 0.916667 0.583333
710 1 0.583333 0.916667 0.5
712 1 0.5 0.916667 0.583333
714 1 0.75 0.916667 0.5
716 1 0.666667 0.916667 0.583333
718 1 0.916667 0.916667 0.5
720 1 0.833333 0.916667 0.583333
721 1 0 0.5 0.666667
722 1 0.0833333 0.583333 0.666667
723 1 0.0833333 0.5 0.75
724 1 0 0.583333 0.75
793 1 0 0.5 0.833333
794 1 0.0833333 0.583333 0.833333
725 1 0.166667 0.5 0.666667
726 1 0.25 0.583333 0.666667
727 1 0.25 0.5 0.75
728 1 0.166667 0.583333 0.75
797 1 0.166667 0.5 0.833333
798 1 0.25 0.583333 0.833333
729 1 0.333333 0.5 0.666667
730 1 0.416667 0.583333 0.666667
731 1 0.416667 0.5 0.75
732 1 0.333333 0.583333 0.75
801 1 0.333333 0.5 0.833333
802 1 0.416667 0.583333 0.833333
733 1 0.5 0.5 0.666667
734 1 0.583333 0.583333 0.666667
735 1 0.583333 0.5 0.75
736 1 0.5 0.583333 0.75
805 1 0.5 0.5 0.833333
806 1 0.583333 0.583333 0.833333
737 1 0.666667 0.5 0.666667
738 1 0.75 0.583333 0.666667
739 1 0.75 0.5 0.75
740 1 0.666667 0.583333 0.75
809 1 0.666667 0.5 0.833333
810 1 0.75 0.583333 0.833333
741 1 0.833333 0.5 0.666667
742 1 0.916667 0.583333 0.666667
743 1 0.916667 0.5 0.75
744 1 0.833333 0.583333 0.75
813 1 0.833333 0.5 0.833333
814 1 0.916667 0.583333 0.833333
745 1 0 0.666667 0.666667
746 1 0.0833333 0.75 0.666667
747 1 0.0833333 0.666667 0.75
748 1 0 0.75 0.75
769 1 0 0.833333 0.666667
771 1 0.0833333 0.833333 0.75
817 1 0 0.666667 0.833333
818 1 0.0833333 0.75 0.833333
841 1 0 0.833333 0.833333
749 1 0.166667 0.666667 0.666667
750 1 0.25 0.75 0.666667
751 1 0.25 0.666667 0.75
752 1 0.166667 0.75 0.75
773 1 0.166667 0.833333 0.666667
775 1 0.25 0.833333 0.75
821 1 0.166667 0.666667 0.833333
822 1 0.25 0.75 0.833333
845 1 0.166667 0.833333 0.833333
753 1 0.333333 0.666667 0.666667
754 1 0.416667 0.75 0.666667
755 1 0.416667 0.666667 0.75
756 1 0.333333 0.75 0.75
777 1 0.333333 0.833333 0.666667
779 1 0.416667 0.833333 0.75
825 1 0.333333 0.666667 0.833333
826 1 0.416667 0.75 0.833333
849 1 0.333333 0.833333 0.833333
757 1 0.5 0.666667 0.666667
758 1 0.583333 0.75 0.666667
759 1 0.583333 0.666667 0.75
760 1 0.5 0.75 0.75
781 1 0.5 0.833333 0.666667
783 1 0.583333 0.833333 0.75
829 1 0.5 0.666667 0.833333
830 1 0.583333 0.75 0.833333
853 1 0.5 0.833333 0.833333
761 1 0.666667 0.666667 0.666667
762 1 0.75 0.75 0.666667
763 1 0.75 0.666667 0.75
764 1 0.666667 0.75 0.75
785 1 0.666667 0.833333 0.666667
787 1 0.75 0.833333 0.75
833 1 0.666667 0.666667 0.833333
834 1 0.75 0.75 0.833333
857 1 0.666667 0.833333 0.833333
765 1 0.833333 0.666667 0.666667
766 1 0.916667 0.75 0.666667
767 1 0.916667 0.666667 0.75
768 1 0.833333 0.75 0.75
789 1 0.833333 0.833333 0.666667
791 1 0.916667 0.833333 0.75
837 1 0.833333 0.666667 0.833333
838 1 0.916667 0.75 0.833333
861 1 0.833333 0.833333 0.833333
770 1 0.0833333 0.916667 0.666667
772 1 0 0.916667 0.75
842 1 0.0833333 0.916667 0.833333
774 1 0.25 0.916667 0.666667
776 1 0.166667 0.916667 0.75
846 1 0.25 0.916667 0.833333
778 1 0.416667 0.916667 0.666667
780 1 0.333333 0.916667 0.75
850 1 0.416667 0.916667 0.833333
782 1 0.583333 0.916667 0.666667
784 1 0.5 0.916667 0.75
854 1 0.583333 0.916667 0.833333
786 1 0.75 0.916667 0.666667
788 1 0.666667 0.916667 0.75
858 1 0.75 0.916667 0.833333
790 1 0.916667 0.916667 0.666667
792 1 0.833333 0.916667 0.75
862 1 0.916667 0.916667 0.833333
795 1 0.0833333 0.5 0.916667
796 1 0 0.583333 0.916667
799 1 0.25 0.5 0.916667
800 1 0.166667 0.583333 0.916667
803 1 0.416667 0.5 0.916667
804 1 0.333333 0.583333 0.916667
807 1 0.583333 0.5 0.916667
808 1 0.5 0.583333 0.916667
811 1 0.75 0.5 0.916667
812 1 0.666667 0.583333 0.916667
815 1 0.916667 0.5 0.916667
816 1 0.833333 0.583333 0.916667
819 1 0.0833333 0.666667 0.916667
820 1 0 0.75 0.916667
843 1 0.0833333 0.833333 0.916667
823 1 0.25 0.666667 0.916667
824 1 0.166667 0.75 0.916667
847 1 0.25 0.833333 0.916667
827 1 0.416667 0.666667 0.916667
828 1 0.333333 0.75 0.916667
851 1 0.416667 0.833333 0.916667
831 1 0.583333 0.666667 0.916667
832 1 0.5 0.75 0.916667
855 1 0.583333 0.833333 0.916667
835 1 0.75 0.666667 0.916667
836 1 0.666667 0.75 0.916667
859 1 0.75 0.833333 0.916667
839 1 0.916667 0.666667 0.916667
840 1 0.833333 0.75 0.916667
863 1 0.916667 0.833333 0.916667
844 1 0 0.916667 0.916667
848 1 0.166667 0.916667 0.916667
852 1 0.333333 0.916667 0.916667
856 1 0.5 0.916667 0.916667
860 1 0.666667 0.916667 0.916667
864 1 0.833333 0.916667 0.916667
ITEM: TIMESTEP
500
ITEM: NUMBER OF ATOMS
864
ITEM: BOX BOUNDS pp pp pp
-3.7374026894701906e-01 3.1933740268945179e+01
-3.7374026894701906e-01 3.1933740268945179e+01
-3.7374026894701906e-01 3.1933740268945179e+01
ITEM: ATOMS id type xs ys zs
593 1 0.65847 0.491204 0.339247
22 1 0.909223 0.0841767 0.00259069
89 1 0.671957 0.0113196 0.167534
4 1 0.996259 0.0815876 0.0954468
5 1 0.161539 0.00221581 0.00335455
585 1 0.334647 0.496176 0.322578
216 1 0.83649 0.409563 0.421979
8 1 0.167264 0.0861998 0.0831276
277 1 0.494554 0.330674 0.499824
253 1 0.502339 0.164884 0.485556
215 1 0.921989 0.335715 0.417379
12 1 0.320626 0.0828479 0.0808722
230 1 0.579472 0.0838876 0.495726
11 1 0.412977 0.0108526 0.0878539
214 1 0.911607 0.418796 0.33457
16 1 0.494284 0.0877808 0.0801888
222 1 0.249241 0.084684 0.502608
30 1 0.236205 0.250904 -0.000569442
213 1 0.827846 0.340441 0.333899
20 1 0.673025 0.0908276 0.0871256
212 1 0.661216 0.408047 0.417759
151 1 0.258262 0.00660632 0.418038
211 1 0.753046 0.3273 0.411873
24 1 0.83293 0.080599 0.0878086
577 1 1.00204 0.500317 0.338649
14 1 0.584545 0.0970464 0.00412457
27 1 0.0809419 0.163165 0.0921259
28 1 0.00788066 0.253077 0.0879778
153 1 0.334578 0.00747254 0.32548
81 1 0.331843 -0.000736748 0.168047
31 1 0.243934 0.172152 0.0856221
32 1 0.164679 0.251128 0.0876474
595 1 0.745614 0.490143 0.421292
217 1 0.00792503 0.002891 0.498907
35 1 0.405843 0.159047 0.0938096
36 1 0.32772 0.245124 0.0850562
91 1 0.752432 -0.00314988 0.25278
441 1 0.332692 0.490974 -0.0018819
39 1 0.579377 0.165057 0.0843425
40 1 0.496699 0.257627 0.0911967
21 1 0.83339 7.30681e-05 0.00612183
159 1 0.583513 -0.000189933 0.415319
43 1 0.758622 0.171502 0.0823864
44 1 0.665598 0.248823 0.0902334
7 1 0.246234 -0.00442387 0.0829648
599 1 0.905329 0.501159 0.412345
47 1 0.91695 0.162948 0.0847088
48 1 0.837067 0.250243 0.0852268
25 1 0.996334 0.179386 -0.00139109
241 1 0.00186624 0.16282 0.50611
51 1 0.0828944 0.34631 0.0844083
52 1 0.0138107 0.427228 0.0751972
198 1 0.255988 0.420145 0.334627
65 1 0.666609 0.329568 0.00779584
55 1 0.235433 0.333502 0.0855989
56 1 0.165741 0.415581 0.0871205
26 1 0.0813373 0.250145 0.00990007
197 1 0.168944 0.343252 0.333754
59 1 0.413113 0.335944 0.0831099
60 1 0.329538 0.412586 0.081822
196 1 0.997518 0.416814 0.422684
195 1 0.0855831 0.340768 0.41496
63 1 0.584925 0.329821 0.0919632
64 1 0.498576 0.413552 0.0896372
286 1 0.911071 0.414221 0.503724
194 1 0.0809649 0.412777 0.330028
67 1 0.757706 0.335467 0.0782872
68 1 0.66295 0.407265 0.0805834
443 1 0.402179 0.492547 0.0828812
193 1 0.984938 0.339218 0.330001
71 1 0.928042 0.345991 0.0837239
72 1 0.839497 0.424777 0.0744879
210 1 0.759778 0.424814 0.337854
74 1 0.0842028 0.0811822 0.167658
447 1 0.578655 0.492974 0.0805971
76 1 0.00327439 0.0802151 0.26395
83 1 0.42377 -0.00181421 0.24785
78 1 0.240255 0.0763656 0.168631
15 1 0.580995 0.0055442 0.0739039
80 1 0.170948 0.0799662 0.255674
209 1 0.660566 0.326772 0.331998
82 1 0.41922 0.08555 0.168955
208 1 0.499625 0.415673 0.420123
84 1 0.330135 0.0856363 0.240506
523 1 0.751465 0.500287 0.248224
86 1 0.584886 0.089714 0.16045
249 1 0.33568 0.164386 0.501665
88 1 0.507257 0.0800396 0.250637
207 1 0.571488 0.334423 0.412748
90 1 0.75483 0.0859799 0.170883
206 1 0.574718 0.410595 0.338116
92 1 0.668833 0.0859764 0.240988
245 1 0.173339 0.167095 0.502971
94 1 0.91757 0.0721771 0.17061
205 1 0.496949 0.325614 0.334516
96 1 0.842208 0.0824077 0.244724
97 1 0.993983 0.176423 0.162322
98 1 0.0788032 0.249897 0.168053
99 1 0.0766001 0.161525 0.242554
100 1 0.986424 0.247602 0.258661
101 1 0.160602 0.171531 0.168264
102 1 0.247487 0.254067 0.175695
103 1 0.247943 0.164392 0.241908
104 1 0.162798 0.23523 0.253375
105 1 0.325005 0.171476 0.170806
106 1 0.406783 0.256073 0.159567
107 1 0.411995 0.165339 0.253589
108 1 0.326789 0.254155 0.252013
109 1 0.494536 0.168655 0.16724
110 1 0.575284 0.241746 0.174998
111 1 0.582722 0.163316 0.259607
112 1 0.492892 0.250219 0.251032
113 1 0.670993 0.170538 0.16745
114 1 0.754712 0.252982 0.162869
115 1 0.748532 0.167531 0.244248
116 1 0.662676 0.241227 0.259042
117 1 0.83819 0.175426 0.17126
118 1 0.914481 0.259614 0.159844
119 1 0.910951 0.172376 0.25675
120 1 0.82933 0.255219 0.251964
121 1 0.994892 0.339035 0.166303
122 1 0.0856129 0.414146 0.167418
123 1 0.0796294 0.325383 0.253918
124 1 0.000483324 0.417399 0.246255
125 1 0.160955 0.33044 0.175484
126 1 0.238655 0.419632 0.176034
127 1 0.24214 0.336496 0.251224
128 1 0.159867 0.41677 0.253566
129 1 0.3269 0.338012 0.162436
130 1 0.417818 0.419046 0.167944
131 1 0.418843 0.34587 0.259915
132 1 0.327809 0.412617 0.246827
133 1 0.48458 0.326392 0.169537
134 1 0.583798 0.412119 0.16775
135 1 0.579381 0.327129 0.252186
136 1 0.498666 0.417488 0.250415
137 1 0.668745 0.328032 0.175315
138 1 0.75829 0.422868 0.154834
139 1 0.744373 0.33257 0.250091
140 1 0.667527 0.415818 0.262451
141 1 0.838202 0.337511 0.157476
142 1 0.919254 0.429406 0.156102
143 1 0.913273 0.349404 0.242355
144 1 0.831659 0.415491 0.243513
204 1 0.333489 0.418343 0.427795
146 1 0.0792793 0.0829611 0.342426
281 1 0.667748 0.333042 0.496414
148 1 0.993862 0.0865851 0.421951
203 1 0.412025 0.333395 0.416774
150 1 0.252159 0.0777693 0.327659
1 1 0.986168 0.00420067 -0.00224104
152 1 0.170678 0.0788573 0.418167
202 1 0.422985 0.425172 0.339838
154 1 0.415323 0.0805819 0.329783
58 1 0.407306 0.411189 -0.00150156
156 1 0.341375 0.0794072 0.425697
201 1 0.334077 0.334741 0.337728