ITEM: TIMESTEP
2000
ITEM: NUMBER OF ATOMS
2048
ITEM: BOX BOUNDS pp pp pp
0.0000000000000000e+00 4.2079999999999998e+01
0.0000000000000000e+00 4.2079999999999998e+01
0.0000000000000000e+00 4.2079999999999998e+01
ITEM: ATOMS id type xs ys zs
35 1 0.0614847 0.120875 0.0597745
8 1 0.11479 0.0623932 0.063309
3 1 0.0569512 0.00299695 0.0649144
2 1 0.0621909 0.0640449 0.000745542
39 1 0.185613 0.111386 0.0505237
137 1 0.236879 0.000891097 0.123328
7 1 0.188536 0.0078162 0.0601653
134 1 0.183886 0.0628446 0.119569
41 1 0.247542 0.120464 0.00738117
12 1 0.250292 0.0613884 0.0613961
16 1 0.367463 0.0619236 0.0604179
43 1 0.306842 0.119196 0.0717648
11 1 0.315467 0.000183397 0.0546204
45 1 0.3615 0.124192 0.00596253
47 1 0.432732 0.123944 0.0481147
15 1 0.436396 0.0117702 0.0625723
145 1 0.505131 0.00767404 0.120184
20 1 0.507452 0.0578411 0.0480043
146 1 0.561162 0.0689364 0.115574
18 1 0.572966 0.0694177 0.00656208
24 1 0.634429 0.0625644 0.0600174
55 1 0.702553 0.119896 0.0579591
181 1 0.64338 0.118128 0.119228
28 1 0.757094 0.0497181 0.0646677
59 1 0.822405 0.112624 0.0580064
4 1 0.999336 0.0647124 0.0616585
32 1 0.884067 0.0529816 0.0569214
158 1 0.939683 0.0585706 0.119654
157 1 0.875311 0.00859633 0.123285
31 1 0.947621 0.00135047 0.0608422
40 1 0.122104 0.175592 0.0523556
162 1 0.0713595 0.187345 0.121675
193 1 0.017437 0.239593 0.121497
67 1 0.0689245 0.243293 0.0476906
33 1 0.000487919 0.130793 0.00635513
44 1 0.247428 0.182372 0.0646936
71 1 0.170938 0.246373 0.0594172
201 1 0.24418 0.240001 0.123565
73 1 0.240854 0.244464 0.0022303
166 1 0.182379 0.185902 0.115973
169 1 0.239456 0.126235 0.12244
38 1 0.1784 0.185354 0.00309922
48 1 0.364318 0.186595 0.0670169
170 1 0.307945 0.180932 0.123735
205 1 0.368884 0.247201 0.124921
42 1 0.307138 0.183266 0.000742169
77 1 0.364499 0.238016 0.0041281
79 1 0.425959 0.2471 0.0552304
52 1 0.487594 0.184814 0.0557646
51 1 0.566763 0.129208 0.0634948
83 1 0.555496 0.234438 0.0715404
177 1 0.502433 0.12577 0.116527
50 1 0.562669 0.177452 0.00148592
81 1 0.501649 0.237548 0.00604618
85 1 0.617711 0.233324 0.00870518
56 1 0.634101 0.175159 0.0631039
87 1 0.684434 0.24 0.0517322
213 1 0.625697 0.237066 0.118267
182 1 0.690719 0.181429 0.122186
60 1 0.75874 0.178661 0.0564943
217 1 0.757397 0.247721 0.116606
93 1 0.874967 0.249347 0.00616457
58 1 0.813912 0.195758 0.0023023
36 1 0.987807 0.184839 0.0661235
64 1 0.889511 0.190456 0.0596196
63 1 0.942314 0.125044 0.0684142
95 1 0.940516 0.247177 0.0596535
189 1 0.875679 0.133518 0.123182
72 1 0.118811 0.307473 0.0744141
66 1 0.0444295 0.309208 0.00354886
70 1 0.190359 0.307559 0.00343661
76 1 0.245594 0.314673 0.059658
75 1 0.306747 0.25041 0.061671
107 1 0.322137 0.369613 0.0636322
202 1 0.309754 0.308141 0.116491
109 1 0.368094 0.374391 0.000188756
74 1 0.316426 0.311449 0.00280382
80 1 0.38264 0.31643 0.0593176
206 1 0.433262 0.304296 0.123879
241 1 0.488884 0.357141 0.121244
84 1 0.4892 0.300711 0.0623036
111 1 0.433828 0.372707 0.0609974
88 1 0.620226 0.300723 0.0551162
115 1 0.566379 0.36169 0.0552895
210 1 0.566192 0.301972 0.119043
82 1 0.553807 0.300687 0.0106896
119 1 0.686679 0.3715 0.0651587
245 1 0.629079 0.358845 0.121285
249 1 0.745196 0.357578 0.115933
214 1 0.685156 0.296893 0.113027
117 1 0.634276 0.367612 0.00602091
86 1 0.689097 0.312662 0.00567827
92 1 0.756994 0.304475 0.057256
91 1 0.821534 0.260568 0.0701787
123 1 0.810384 0.367078 0.0666565
121 1 0.750488 0.372734 1.67011e-05
90 1 0.819469 0.311972 0.0043888
96 1 0.882179 0.315919 0.0686697
68 1 0.999755 0.312584 0.0725636
99 1 0.0521641 0.383225 0.0672234
104 1 0.1241 0.44125 0.0500547
229 1 0.121703 0.38235 0.112358
100 1 0.00126445 0.449292 0.0708572
103 1 0.182235 0.385473 0.0551693
1031 1 0.20291 0.496126 0.0624075
1035 1 0.308882 0.489787 0.0547562
108 1 0.251102 0.426676 0.0590273
112 1 0.372815 0.430469 0.0655526
234 1 0.310274 0.429369 0.114542
1169 1 0.492834 0.496332 0.117514
238 1 0.442771 0.427775 0.120169
1039 1 0.434152 0.493908 0.0642519
1165 1 0.377965 0.497638 0.120855
110 1 0.432776 0.429575 0.00394874
116 1 0.504125 0.422692 0.0637848
120 1 0.624804 0.437633 0.0733403
114 1 0.561488 0.436996 0.00692663
1045 1 0.616585 0.499598 0.00465586
124 1 0.737903 0.435882 0.0617778
1049 1 0.747135 0.491584 0.00215548
128 1 0.874418 0.418696 0.0722259
122 1 0.810885 0.439419 0.00298858
1181 1 0.865371 0.491702 0.123364
1051 1 0.807572 0.48852 0.0646309
125 1 0.872534 0.377228 0.00197508
1053 1 0.882079 0.496936 0.00109956
1055 1 0.935975 0.492032 0.0671192
225 1 0.995811 0.379318 0.124907
127 1 0.939173 0.376784 0.0645019
130 1 0.0707787 0.057193 0.126581
132 1 0.0014516 0.0660746 0.187242
163 1 0.0658133 0.124861 0.200823
258 1 0.0665408 0.0619207 0.249483
133 1 0.13654 0.00170683 0.136438
136 1 0.136584 0.0675327 0.194207
140 1 0.239691 0.0673354 0.191332
138 1 0.305013 0.0466369 0.125419
139 1 0.308209 0.000275637 0.190516
173 1 0.367197 0.120662 0.129208
144 1 0.36855 0.0622685 0.194098
171 1 0.304796 0.115682 0.184313
266 1 0.31277 0.0598251 0.248649
143 1 0.442333 0.0153901 0.189186
142 1 0.438761 0.0697585 0.125162
175 1 0.434891 0.116145 0.18912
141 1 0.383394 0.00191823 0.12951
147 1 0.572555 0.00513404 0.182387
148 1 0.506192 0.0622085 0.172454
152 1 0.624647 0.06608 0.180926
274 1 0.571985 0.0585063 0.249308
277 1 0.638175 0.00326708 0.235552
150 1 0.688971 0.0579105 0.129856
185 1 0.745348 0.120095 0.127251
278 1 0.686945 0.0670124 0.249566
154 1 0.810964 0.0665095 0.129652
155 1 0.810412 0.0104603 0.191688
156 1 0.753069 0.0608881 0.18707
187 1 0.807366 0.120405 0.192025
129 1 0.994035 0.0024271 0.131454
160 1 0.8794 0.065764 0.185397
286 1 0.930477 0.0617155 0.243887
165 1 0.123137 0.131144 0.146889
161 1 0.0176822 0.134002 0.126375
164 1 0.00572207 0.18224 0.192331
290 1 0.0629334 0.187942 0.249951
168 1 0.121598 0.193391 0.191711
289 1 0.00493515 0.126263 0.249682
195 1 0.0555873 0.24859 0.193216
167 1 0.191184 0.137795 0.185681
199 1 0.182433 0.247561 0.192011
329 1 0.24919 0.244019 0.239111
172 1 0.256413 0.181927 0.190938
298 1 0.319735 0.181325 0.248256
176 1 0.368954 0.181475 0.186627
203 1 0.304493 0.249738 0.175321
333 1 0.369605 0.247031 0.248357
174 1 0.433767 0.174753 0.126704
209 1 0.489554 0.243943 0.127499
301 1 0.378314 0.127256 0.246509
207 1 0.435905 0.244843 0.188797
178 1 0.561395 0.179427 0.128457
180 1 0.500398 0.182473 0.18805
179 1 0.569738 0.132373 0.197275
184 1 0.614879 0.195592 0.196269
211 1 0.554481 0.243761 0.180381
183 1 0.676295 0.134292 0.196916
188 1 0.741662 0.182882 0.183832
215 1 0.685499 0.249107 0.173638
345 1 0.745832 0.245854 0.247268
186 1 0.814209 0.182601 0.139593
314 1 0.814851 0.190705 0.24375
191 1 0.940035 0.127911 0.186622
190 1 0.944804 0.192504 0.134277
192 1 0.880594 0.182548 0.196858
223 1 0.946803 0.249648 0.200539
221 1 0.879917 0.247863 0.12996
349 1 0.880725 0.246284 0.246618
194 1 0.0603226 0.310552 0.125423
196 1 0.00384657 0.310003 0.181944
322 1 0.0579128 0.313452 0.24893
197 1 0.130106 0.257072 0.137146
198 1 0.181206 0.316254 0.136758
200 1 0.128556 0.307992 0.207305
204 1 0.246515 0.314428 0.188682
237 1 0.368292 0.364912 0.130964
330 1 0.306608 0.30573 0.23967
208 1 0.368187 0.307271 0.186656
334 1 0.426065 0.303835 0.24228
337 1 0.487895 0.256158 0.242429
239 1 0.429652 0.364135 0.186025
341 1 0.619155 0.258519 0.248885
212 1 0.505494 0.303888 0.182376
216 1 0.609596 0.31044 0.187524
243 1 0.559254 0.370196 0.170069
338 1 0.556573 0.307338 0.248671
373 1 0.625877 0.359793 0.241588
247 1 0.693207 0.350805 0.17574
342 1 0.689914 0.313028 0.247027
218 1 0.819632 0.308584 0.129038
220 1 0.755603 0.300237 0.176357
219 1 0.816925 0.257295 0.189584
253 1 0.868425 0.370529 0.132315
251 1 0.812661 0.362525 0.193663
222 1 0.942826 0.318031 0.12651
224 1 0.881247 0.318031 0.182712
381 1 0.880956 0.369631 0.247116
350 1 0.949419 0.322338 0.248648
227 1 0.0660735 0.378481 0.200574
226 1 0.0653609 0.43405 0.129629
230 1 0.191744 0.440958 0.138115
232 1 0.126947 0.449659 0.20288
231 1 0.185333 0.381206 0.196476
1161 1 0.255002 0.499436 0.126451
233 1 0.255983 0.381496 0.136931
236 1 0.253061 0.437466 0.200769
235 1 0.308108 0.377367 0.194749
240 1 0.371848 0.43079 0.172217
362 1 0.313682 0.433639 0.249832
365 1 0.375176 0.376374 0.241013
244 1 0.494071 0.424848 0.183381
366 1 0.433378 0.432927 0.236919
1293 1 0.378939 0.48792 0.234197
1297 1 0.49774 0.487897 0.248415
242 1 0.547094 0.440748 0.126639
1171 1 0.561629 0.499133 0.189497
370 1 0.577239 0.428342 0.242137
1305 1 0.743701 0.493135 0.24872
246 1 0.691973 0.425473 0.125667
248 1 0.63434 0.410377 0.181629
252 1 0.738671 0.433663 0.194148
1175 1 0.680835 0.491405 0.195177
1179 1 0.816707 0.487548 0.188413
1177 1 0.751303 0.494283 0.126395
250 1 0.810437 0.434772 0.129994
378 1 0.810039 0.43233 0.249172
255 1 0.946248 0.382559 0.194845
228 1 0.994396 0.451995 0.186568
256 1 0.884154 0.437388 0.18696
254 1 0.941209 0.439573 0.131366
259 1 0.0807052 0.00137148 0.322553
260 1 0.000826813 0.065517 0.318399
291 1 0.0708797 0.123805 0.322579
386 1 0.0620928 0.0624446 0.367937
257 1 0.00324678 0.00736768 0.255932
262 1 0.19028 0.0618679 0.25751
264 1 0.137528 0.0647142 0.317593
295 1 0.200438 0.118082 0.316378
268 1 0.252404 0.0562789 0.320926
270 1 0.452987 0.0591309 0.253747
397 1 0.387137 0.0123921 0.367199
272 1 0.381298 0.0592079 0.304138
303 1 0.432886 0.119843 0.309653
398 1 0.441251 0.0737714 0.373623
275 1 0.564582 0.000611544 0.315656
273 1 0.503437 0.00186637 0.254102
276 1 0.503975 0.0570665 0.317544
307 1 0.555219 0.122759 0.316793
280 1 0.628764 0.0575569 0.319193
311 1 0.688105 0.113991 0.317648
283 1 0.806875 0.00211116 0.308231
281 1 0.750904 0.00136466 0.250556
282 1 0.817364 0.0644613 0.256925
284 1 0.751454 0.0602484 0.318422
288 1 0.871885 0.0546115 0.315912
287 1 0.942795 0.011363 0.313609
319 1 0.929291 0.111265 0.312293
321 1 0.00152713 0.239155 0.255339
293 1 0.134806 0.128266 0.257659
294 1 0.18267 0.189815 0.256403
325 1 0.128183 0.247497 0.26409
296 1 0.133703 0.180375 0.321309
327 1 0.18036 0.246915 0.32229
422 1 0.194319 0.184365 0.371945
297 1 0.255565 0.126661 0.252594
299 1 0.325172 0.127128 0.31057
300 1 0.253641 0.188998 0.307605
331 1 0.317212 0.240389 0.314857
457 1 0.255858 0.246581 0.374833
425 1 0.256555 0.130409 0.366684
302 1 0.428901 0.19306 0.251386
304 1 0.394839 0.192235 0.322739
308 1 0.490393 0.183808 0.312567
305 1 0.500851 0.12516 0.256558
306 1 0.551423 0.196313 0.259163
434 1 0.557547 0.187105 0.363363
312 1 0.613594 0.205953 0.308941
433 1 0.502084 0.130208 0.373351
310 1 0.683804 0.194454 0.259796
313 1 0.746688 0.129894 0.254883
441 1 0.748154 0.132334 0.36968
309 1 0.629771 0.130169 0.255813
343 1 0.684598 0.240517 0.317496
473 1 0.740207 0.242403 0.370889
317 1 0.870371 0.125663 0.250101
315 1 0.820234 0.135989 0.311919
316 1 0.750818 0.187233 0.313825
347 1 0.81901 0.236812 0.317241
442 1 0.805654 0.192327 0.374864
292 1 0.998378 0.17745 0.311869
318 1 0.938214 0.176172 0.250395
320 1 0.877656 0.188072 0.310784
446 1 0.939513 0.188975 0.367137
351 1 0.939135 0.248956 0.310059
417 1 0.993653 0.128452 0.370249
323 1 0.0640167 0.257725 0.312789
328 1 0.117505 0.312487 0.314547
449 1 0.00720323 0.251387 0.365978
326 1 0.191693 0.306818 0.257182
361 1 0.245903 0.369433 0.250099
485 1 0.127245 0.369438 0.370485
359 1 0.193868 0.371086 0.310997
454 1 0.191184 0.312499 0.37226
332 1 0.258167 0.297146 0.307984
336 1 0.37355 0.309996 0.311581
363 1 0.308884 0.355786 0.307324
458 1 0.313495 0.302919 0.374282
335 1 0.441241 0.254848 0.312417
367 1 0.429655 0.372659 0.306221
462 1 0.441419 0.32406 0.37368
340 1 0.495762 0.324291 0.31464
493 1 0.38071 0.369289 0.371131
339 1 0.53485 0.254389 0.310045
344 1 0.62665 0.312805 0.307661
470 1 0.680131 0.307053 0.370374
375 1 0.689111 0.372077 0.315867
505 1 0.755356 0.374269 0.370087
346 1 0.814317 0.302891 0.2571
377 1 0.756419 0.366151 0.252048
348 1 0.751449 0.299244 0.311737
379 1 0.814436 0.374873 0.305027
352 1 0.868554 0.307585 0.320494
474 1 0.806002 0.309571 0.371654
324 1 0.992587 0.324664 0.324776
353 1 0.0026905 0.38615 0.251101
357 1 0.124516 0.376487 0.261851
354 1 0.0694978 0.447967 0.263936
355 1 0.0603399 0.381931 0.323816
356 1 0.00674821 0.443315 0.31625
358 1 0.185215 0.440065 0.259237
360 1 0.133353 0.443252 0.319877
486 1 0.20108 0.436406 0.374547
1289 1 0.25363 0.497181 0.25628
490 1 0.307083 0.431146 0.369758
364 1 0.255466 0.437275 0.310878
494 1 0.426618 0.434711 0.367686
368 1 0.375585 0.427417 0.303131
372 1 0.490289 0.444904 0.316193
1299 1 0.553167 0.495354 0.313154
369 1 0.504457 0.389022 0.25638
371 1 0.56981 0.375657 0.309839
376 1 0.618541 0.441602 0.312803
1303 1 0.689518 0.49867 0.32286
374 1 0.68269 0.423438 0.251783
502 1 0.670138 0.428325 0.370381
380 1 0.745174 0.427907 0.301754
1309 1 0.867784 0.496956 0.257552
1307 1 0.810252 0.488967 0.319004
384 1 0.871696 0.439143 0.316414
382 1 0.948449 0.441464 0.253457
383 1 0.933572 0.377931 0.318209
549 1 0.118943 0.121704 0.494349
419 1 0.0593291 0.115783 0.431763
545 1 0.00387736 0.120674 0.497827
514 1 0.0537934 0.0595777 0.486683
518 1 0.184908 0.0718102 0.496997
392 1 0.131689 0.0548996 0.429396
390 1 0.195759 0.0667373 0.377398
393 1 0.248442 0.00625849 0.382055
423 1 0.204595 0.123212 0.432891
395 1 0.322899 0.00697571 0.440305
394 1 0.312098 0.0614977 0.377945
396 1 0.253432 0.0630887 0.44328
400 1 0.37441 0.0685604 0.443923
427 1 0.315274 0.119359 0.43629
521 1 0.25612 0.00210639 0.498641
557 1 0.382606 0.124591 0.49679
399 1 0.428751 0.00368246 0.438404
429 1 0.377096 0.11721 0.379449
404 1 0.488061 0.0638896 0.433612
529 1 0.492908 0.00166339 0.497126
402 1 0.566742 0.0620634 0.376117
408 1 0.617173 0.0589033 0.438161
435 1 0.554001 0.120255 0.431593
437 1 0.623887 0.124184 0.376793
530 1 0.560443 0.0654593 0.490446
407 1 0.691844 0.00292968 0.43716
406 1 0.690901 0.0600747 0.382425
439 1 0.690135 0.117348 0.438057
534 1 0.680425 0.0587532 0.497672
410 1 0.809874 0.0732714 0.375261
412 1 0.757448 0.0641256 0.436295
416 1 0.867126 0.065563 0.437477
537 1 0.756539 0.000704083 0.491877
388 1 0.984766 0.0599261 0.439761
414 1 0.933414 0.0647649 0.382786
415 1 0.929385 0.000660643 0.442147
418 1 0.0633147 0.180457 0.375174
420 1 0.000622767 0.182791 0.439127
424 1 0.121396 0.181035 0.446997
453 1 0.120016 0.247468 0.377562
421 1 0.134111 0.130464 0.391254
455 1 0.184213 0.244944 0.440072
554 1 0.313391 0.184051 0.489514
426 1 0.316847 0.189194 0.379788
428 1 0.253041 0.192015 0.434395
553 1 0.252703 0.127819 0.499256
558 1 0.444974 0.188873 0.495478
432 1 0.381526 0.185314 0.430879
430 1 0.444084 0.190609 0.379144
431 1 0.440104 0.129525 0.437204
589 1 0.378856 0.247513 0.488959
469 1 0.622296 0.245394 0.376216
465 1 0.504358 0.245743 0.387279
436 1 0.510865 0.191041 0.440774
440 1 0.604287 0.182819 0.435829
565 1 0.61921 0.126879 0.494493
561 1 0.503817 0.126253 0.495936
471 1 0.683986 0.247229 0.439777
438 1 0.680492 0.179016 0.38127
444 1 0.749547 0.184737 0.43523
566 1 0.67208 0.189857 0.48578
475 1 0.817102 0.245179 0.444648
443 1 0.811652 0.131065 0.442186
445 1 0.864267 0.126864 0.375986
479 1 0.943242 0.244966 0.435056
447 1 0.939745 0.128899 0.436298
448 1 0.878072 0.185728 0.437368
605 1 0.875823 0.247439 0.496995
450 1 0.0635825 0.306432 0.380585
451 1 0.0600352 0.253381 0.441608
609 1 0.00479899 0.368714 0.489642
487 1 0.183317 0.372421 0.442268
460 1 0.24194 0.30957 0.433959
456 1 0.12867 0.311441 0.436596
585 1 0.249528 0.263871 0.499613
581 1 0.135043 0.250652 0.498108
489 1 0.252678 0.372995 0.380863
464 1 0.370488 0.312191 0.438735
459 1 0.308252 0.255177 0.434474
491 1 0.310966 0.367053 0.436816
586 1 0.312084 0.312327 0.494139
625 1 0.492719 0.37046 0.499953
468 1 0.496291 0.318355 0.433593
463 1 0.44121 0.256807 0.428751
461 1 0.381335 0.25195 0.378174
590 1 0.438102 0.311052 0.499949
501 1 0.613573 0.36627 0.378152
466 1 0.5673 0.299151 0.383786
467 1 0.563786 0.250263 0.445731
594 1 0.562559 0.316998 0.49377
503 1 0.687789 0.372524 0.431681
472 1 0.630881 0.309014 0.443413
598 1 0.687183 0.318628 0.498362
601 1 0.737435 0.257676 0.499694
509 1 0.873541 0.374455 0.376003
602 1 0.81326 0.316333 0.49424
477 1 0.873933 0.25438 0.386647
476 1 0.755134 0.308439 0.437954
478 1 0.931877 0.309958 0.379185
480 1 0.877331 0.316835 0.442317
452 1 0.9983 0.315343 0.430753
606 1 0.939422 0.306662 0.493556
481 1 0.00222225 0.384231 0.378739
1411 1 0.0647523 0.492281 0.443221
482 1 0.0672505 0.437694 0.384636
483 1 0.0667386 0.375639 0.433008
613 1 0.116254 0.39747 0.49098
1415 1 0.196369 0.49394 0.441145
488 1 0.137488 0.448341 0.426931
1545 1 0.260216 0.498127 0.491627
496 1 0.371761 0.438621 0.432742
492 1 0.256114 0.427863 0.438288
1417 1 0.255679 0.497889 0.375594
618 1 0.314358 0.429478 0.495437
1423 1 0.436104 0.492502 0.44044
495 1 0.430583 0.379865 0.44167
500 1 0.496987 0.442673 0.439938
497 1 0.492547 0.384278 0.378574
1429 1 0.624687 0.497255 0.378526
499 1 0.553318 0.378338 0.435866
504 1 0.618078 0.435508 0.437469
498 1 0.564661 0.44645 0.383481
508 1 0.740423 0.434224 0.435707
512 1 0.870394 0.437873 0.446189
1435 1 0.810655 0.4955 0.457747
507 1 0.814547 0.375542 0.438732
506 1 0.81762 0.435857 0.379054
484 1 0.996045 0.438945 0.448695
510 1 0.942352 0.432289 0.388886
1437 1 0.878288 0.489962 0.383847
511 1 0.933447 0.380066 0.445887
1439 1 0.936794 0.493225 0.441991
520 1 0.123303 0.0557207 0.553341
547 1 0.0554701 0.116224 0.573832
646 1 0.183947 0.0612006 0.619661
524 1 0.246885 0.0681797 0.553381
681 1 0.247827 0.116149 0.620858
677 1 0.12635 0.12303 0.61203
650 1 0.308743 0.0652114 0.619683
523 1 0.30788 0.00399231 0.569756
522 1 0.319012 0.0629029 0.509167
528 1 0.380059 0.079102 0.557778
654 1 0.436847 0.0577497 0.608834
532 1 0.498512 0.0618835 0.554316
525 1 0.384998 0.012722 0.502427
526 1 0.442981 0.0737149 0.501302
531 1 0.56132 0.00324035 0.54989
563 1 0.558811 0.11651 0.55321
693 1 0.62173 0.116402 0.612264
657 1 0.501057 0.00656951 0.620148
536 1 0.625425 0.052182 0.560792
540 1 0.745246 0.0590776 0.55753
665 1 0.748001 0.000681718 0.621559
662 1 0.682943 0.0581461 0.619662
697 1 0.742349 0.123617 0.616093
544 1 0.862133 0.0631479 0.562697
539 1 0.807132 0.000688165 0.55353
541 1 0.865144 0.00341432 0.500177
538 1 0.813512 0.0701489 0.501333
516 1 0.987153 0.0584119 0.567636
542 1 0.919053 0.0679142 0.503927
548 1 0.00496584 0.184112 0.564459
552 1 0.12212 0.185695 0.557705
546 1 0.0651482 0.198193 0.501127
551 1 0.189194 0.128471 0.561901
556 1 0.249761 0.188859 0.562145
583 1 0.187474 0.249286 0.572443
709 1 0.125289 0.242212 0.6224
550 1 0.192257 0.185841 0.506295
555 1 0.306796 0.128351 0.562385
682 1 0.306902 0.191012 0.621177
560 1 0.37239 0.178346 0.562417
587 1 0.32029 0.242336 0.545459
559 1 0.446651 0.126001 0.568112
591 1 0.430464 0.24482 0.563738
686 1 0.434101 0.187607 0.618145
564 1 0.500794 0.187442 0.555702
721 1 0.50355 0.246599 0.616842
568 1 0.62444 0.19613 0.563723
690 1 0.558855 0.187991 0.614604
562 1 0.568428 0.183728 0.508825
567 1 0.676362 0.135059 0.559254
572 1 0.742735 0.209292 0.564778
569 1 0.743715 0.12669 0.507107
571 1 0.806895 0.13184 0.563226
698 1 0.807859 0.196697 0.610628
576 1 0.874151 0.192177 0.563821
733 1 0.866512 0.246795 0.620096
573 1 0.871056 0.132806 0.501863
570 1 0.804702 0.193351 0.510309
575 1 0.931147 0.126504 0.563305
607 1 0.931809 0.248119 0.559217
701 1 0.876854 0.136581 0.623507
705 1 0.995483 0.24971 0.614483
574 1 0.941112 0.179034 0.501366
579 1 0.0609598 0.251866 0.565105
584 1 0.122162 0.315397 0.567722
580 1 0.0110471 0.310345 0.558706
706 1 0.0662915 0.307285 0.623859
577 1 0.00155694 0.250103 0.506679
578 1 0.0706052 0.320009 0.506838
713 1 0.247387 0.260035 0.621283
588 1 0.242025 0.314915 0.563416
745 1 0.249652 0.372371 0.622672
582 1 0.183075 0.312017 0.504682
592 1 0.370096 0.310056 0.549831
619 1 0.310631 0.371575 0.556096
717 1 0.362326 0.254006 0.61314
714 1 0.311762 0.317199 0.618517
621 1 0.366902 0.370615 0.501018
596 1 0.494184 0.320725 0.569632
623 1 0.438983 0.372987 0.565545
749 1 0.383107 0.362084 0.621106
595 1 0.575081 0.259955 0.561213
600 1 0.624671 0.324111 0.563268
627 1 0.558804 0.369761 0.557501
722 1 0.560196 0.318468 0.623359
597 1 0.62174 0.253665 0.505801
593 1 0.504084 0.257567 0.513009
599 1 0.686443 0.265586 0.558634
633 1 0.74947 0.368546 0.50434
603 1 0.811067 0.259921 0.561332
604 1 0.751005 0.317995 0.572423
608 1 0.869714 0.30855 0.558858
635 1 0.811481 0.372837 0.570105
639 1 0.947223 0.369084 0.570246
637 1 0.887483 0.362416 0.510257
611 1 0.0615306 0.378324 0.569274
616 1 0.124054 0.436405 0.562193
610 1 0.0504962 0.454401 0.512443
1541 1 0.13469 0.493874 0.502295
615 1 0.180374 0.377491 0.55979
742 1 0.194525 0.443814 0.624104
741 1 0.127505 0.381096 0.622285
617 1 0.240376 0.376143 0.501681
614 1 0.194357 0.446112 0.507805
620 1 0.260008 0.435364 0.572086
1549 1 0.367234 0.487998 0.501923
1677 1 0.366859 0.487651 0.617292
1551 1 0.426034 0.497976 0.566969
624 1 0.380569 0.426657 0.564138
753 1 0.496619 0.377255 0.624888
750 1 0.436356 0.427197 0.619193
1681 1 0.4938 0.499907 0.624119
622 1 0.440407 0.435088 0.507974
628 1 0.502517 0.430528 0.563047
754 1 0.558442 0.434119 0.617509
632 1 0.611343 0.429663 0.567969
626 1 0.558526 0.445453 0.500355
629 1 0.621729 0.382864 0.500573
1557 1 0.62175 0.492734 0.501473
631 1 0.688448 0.375542 0.566975
636 1 0.742204 0.444362 0.569645
1559 1 0.675685 0.490264 0.569809
1561 1 0.738374 0.498446 0.512578
630 1 0.685884 0.428721 0.502009
640 1 0.865583 0.441279 0.583019
634 1 0.800022 0.432108 0.510647
612 1 0.99992 0.436857 0.567796
1567 1 0.932132 0.493282 0.57301
638 1 0.932487 0.428584 0.516651
642 1 0.0695489 0.0479767 0.625315
643 1 0.0693032 0.0043196 0.688283
769 1 0.00425487 0.00172858 0.747729
675 1 0.0686457 0.111732 0.683171
770 1 0.0511942 0.0672065 0.742745
644 1 0.00436709 0.0624347 0.678202
805 1 0.107269 0.121051 0.747354
648 1 0.132474 0.0634425 0.700659
774 1 0.191112 0.071331 0.749227
679 1 0.188234 0.122028 0.685423
647 1 0.190274 0.0101683 0.692426
649 1 0.246573 0.00630445 0.638954
652 1 0.261044 0.0616817 0.699918
651 1 0.319004 0.0100292 0.686043
781 1 0.379282 0.00750973 0.743256
656 1 0.377757 0.0629937 0.673208
687 1 0.445351 0.120845 0.68385
782 1 0.436457 0.0648806 0.741862
655 1 0.437578 0.000804545 0.673147
789 1 0.618228 0.00216921 0.745743
658 1 0.556875 0.0623495 0.63863
689 1 0.501902 0.119937 0.627465
660 1 0.500394 0.0602669 0.687094
659 1 0.55608 0.000383034 0.685071
663 1 0.690669 0.00772457 0.689458
664 1 0.62652 0.0606174 0.678461
695 1 0.691331 0.115884 0.682708
790 1 0.683961 0.0681106 0.746819
667 1 0.811273 0.00657699 0.677216
666 1 0.806398 0.0765897 0.630522
668 1 0.750767 0.0645726 0.688753
672 1 0.868451 0.0679642 0.686233
794 1 0.810312 0.0715797 0.74638
641 1 0.995227 0.00545701 0.62587
670 1 0.923284 0.0639287 0.630684
671 1 0.935718 0.00048019 0.679347
798 1 0.944928 0.0510148 0.741994
797 1 0.87758 0.0120136 0.747105
674 1 0.0697481 0.177339 0.628312
802 1 0.0628076 0.187965 0.740137
676 1 0.00651508 0.184356 0.685569
833 1 0.00309868 0.248428 0.7458
678 1 0.18746 0.182103 0.628019
680 1 0.127238 0.17077 0.685063
684 1 0.245325 0.189268 0.680879
806 1 0.175468 0.193667 0.742259
809 1 0.244966 0.143343 0.746998
683 1 0.307168 0.129571 0.68068
715 1 0.315939 0.2493 0.681897
810 1 0.317901 0.184906 0.739715
688 1 0.370801 0.187593 0.689554
841 1 0.255849 0.242834 0.745056
685 1 0.381542 0.128693 0.631362
813 1 0.379544 0.128737 0.735991
814 1 0.439405 0.185145 0.744959
691 1 0.563568 0.133175 0.672941
817 1 0.500905 0.128269 0.748531
692 1 0.500015 0.185039 0.681235
723 1 0.563211 0.245096 0.680883
818 1 0.562729 0.185281 0.746328
696 1 0.63358 0.184195 0.684471
694 1 0.686852 0.180607 0.625892
700 1 0.740549 0.181047 0.677391
727 1 0.690056 0.243102 0.69535
857 1 0.745723 0.249004 0.747002
699 1 0.816737 0.142022 0.672123
731 1 0.809612 0.245806 0.683301
825 1 0.755441 0.135057 0.748428
673 1 0.995557 0.128386 0.631417
702 1 0.939822 0.196329 0.626734
703 1 0.937993 0.12812 0.694861
704 1 0.883722 0.191208 0.687837
801 1 0.990953 0.130333 0.745921
829 1 0.87526 0.133602 0.74283
707 1 0.0689789 0.254232 0.68533
712 1 0.11976 0.315392 0.686301
837 1 0.12402 0.258093 0.745894
737 1 0.00428056 0.365403 0.628317
710 1 0.189347 0.321668 0.627063
711 1 0.181399 0.251536 0.685166
743 1 0.195903 0.374905 0.690209
838 1 0.184463 0.313507 0.748176
716 1 0.250721 0.308268 0.687885
747 1 0.312411 0.361289 0.683407
873 1 0.265885 0.36382 0.747826
842 1 0.310877 0.295807 0.748734
877 1 0.367877 0.363799 0.748585
718 1 0.44457 0.299132 0.627455
719 1 0.435959 0.253527 0.687612
720 1 0.379699 0.305247 0.679852
751 1 0.445729 0.366314 0.683212
845 1 0.382471 0.254837 0.749428
724 1 0.513827 0.308164 0.685856
728 1 0.606071 0.312488 0.688014
885 1 0.618229 0.366815 0.749065
881 1 0.503432 0.368338 0.749364
726 1 0.680325 0.32074 0.627231
729 1 0.746985 0.261942 0.627686
725 1 0.641479 0.2541 0.626274
853 1 0.628838 0.254162 0.7464
759 1 0.679179 0.368521 0.687578
765 1 0.869003 0.374287 0.630997
861 1 0.868464 0.253434 0.747072
732 1 0.752087 0.308328 0.695117
730 1 0.812318 0.312828 0.630429
763 1 0.803333 0.370738 0.69184
893 1 0.873536 0.372358 0.74051
734 1 0.934357 0.30843 0.625975
735 1 0.936758 0.253358 0.69381
708 1 0.998018 0.307704 0.688063
736 1 0.87518 0.309153 0.684786
862 1 0.929186 0.315028 0.745307
738 1 0.0601251 0.44545 0.626762
739 1 0.0567199 0.376238 0.683571
866 1 0.053225 0.429157 0.743744
744 1 0.112208 0.434028 0.695692
870 1 0.189757 0.443289 0.738844
746 1 0.330694 0.422081 0.631597
748 1 0.250199 0.426027 0.68179
874 1 0.308164 0.433921 0.748909
1805 1 0.385142 0.491039 0.737324
752 1 0.379287 0.426571 0.694083
756 1 0.498086 0.430234 0.692958
878 1 0.433428 0.415767 0.748584
1679 1 0.429531 0.497848 0.673668
1809 1 0.496206 0.492692 0.745121
1685 1 0.619422 0.498164 0.629066
755 1 0.556092 0.377926 0.678526
760 1 0.614583 0.437907 0.684179
757 1 0.618259 0.376864 0.630303
1683 1 0.562764 0.499627 0.683982
1689 1 0.73893 0.499548 0.63309
1687 1 0.675679 0.497569 0.689088
758 1 0.688898 0.434993 0.640604
764 1 0.7415 0.426447 0.699527
886 1 0.672601 0.438679 0.744
1817 1 0.756425 0.498318 0.747496
761 1 0.752592 0.375865 0.635317
762 1 0.802481 0.438612 0.632198
768 1 0.872814 0.434898 0.68938
890 1 0.816479 0.427732 0.741437
1691 1 0.822642 0.49815 0.690893
766 1 0.938158 0.439404 0.625203
740 1 0.996939 0.441656 0.69186
767 1 0.950671 0.380948 0.678062
1793 1 0.993492 0.499768 0.747811
803 1 0.0572556 0.118292 0.816482
898 1 0.0629155 0.058148 0.871996
771 1 0.0620517 0.0129081 0.811938
776 1 0.128222 0.0682297 0.813294
777 1 0.246425 0.00448061 0.754306
775 1 0.187867 0.00455924 0.810386
778 1 0.315752 0.058537 0.752679
779 1 0.311244 0.00318391 0.810155
780 1 0.253978 0.0741873 0.805765
906 1 0.308918 0.0620587 0.869748
784 1 0.370064 0.0666166 0.811288
941 1 0.37389 0.119643 0.87044
788 1 0.486646 0.0584526 0.802181
910 1 0.440502 0.0616557 0.872527
913 1 0.501392 0.0109846 0.870136
786 1 0.551829 0.0700641 0.753773
792 1 0.624995 0.0594675 0.806509
819 1 0.558305 0.119553 0.817794
821 1 0.613617 0.118262 0.753151
949 1 0.62247 0.112171 0.871646
914 1 0.557197 0.0568522 0.866192
791 1 0.703338 0.0133228 0.823975
793 1 0.747597 0.0092253 0.752723
823 1 0.687907 0.118598 0.81488
918 1 0.69084 0.0698845 0.872378
795 1 0.809108 0.00711727 0.806909
796 1 0.757929 0.0664629 0.814216
772 1 0.99388 0.0655941 0.814633
800 1 0.882976 0.0642077 0.805542
926 1 0.927446 0.0636881 0.873167
929 1 0.0035622 0.129007 0.870024
808 1 0.123516 0.186142 0.81002
930 1 0.0630783 0.195377 0.868197
804 1 0.00863045 0.190297 0.805855
807 1 0.184541 0.131688 0.802945
839 1 0.191805 0.249662 0.813283
965 1 0.128849 0.245764 0.868123
933 1 0.125266 0.129998 0.868455
937 1 0.24543 0.129258 0.874888
969 1 0.250378 0.245438 0.874177
812 1 0.253026 0.195572 0.809083
811 1 0.308706 0.132535 0.799473
843 1 0.314208 0.244095 0.808791
973 1 0.366626 0.239353 0.872695
938 1 0.31075 0.178361 0.868899
815 1 0.440609 0.126186 0.812602
816 1 0.378077 0.177615 0.808847
847 1 0.434001 0.245778 0.811391
942 1 0.447581 0.186964 0.867698
849 1 0.499925 0.241445 0.750156
820 1 0.511184 0.182484 0.816398
851 1 0.568728 0.237027 0.813529
824 1 0.626956 0.187558 0.816828
822 1 0.677357 0.167607 0.753413
828 1 0.748829 0.179997 0.805236
827 1 0.820165 0.136581 0.806575
957 1 0.872863 0.128974 0.873265
826 1 0.809887 0.202333 0.751948
954 1 0.817141 0.197959 0.868973
831 1 0.934155 0.126198 0.814991
830 1 0.93567 0.199532 0.753525
832 1 0.883998 0.202965 0.812198
958 1 0.945987 0.185773 0.868786
834 1 0.0667538 0.312252 0.753442
869 1 0.122312 0.369155 0.754652
835 1 0.0699967 0.254552 0.817254
962 1 0.0602156 0.31306 0.868622
840 1 0.129553 0.310041 0.816295
871 1 0.175904 0.370601 0.818273
1001 1 0.247172 0.366985 0.867794
844 1 0.253535 0.306173 0.810041
848 1 0.362549 0.299356 0.818323
1005 1 0.376426 0.358295 0.873528
846 1 0.438913 0.317285 0.753027
977 1 0.498008 0.25286 0.873369
850 1 0.555383 0.307362 0.752477
852 1 0.50812 0.3091 0.816457
856 1 0.615876 0.31149 0.817739
854 1 0.687562 0.314377 0.753526
855 1 0.67945 0.252211 0.809931
860 1 0.749276 0.316659 0.82054
982 1 0.682963 0.31959 0.866998
985 1 0.745519 0.251333 0.866048
859 1 0.81036 0.25261 0.809763
858 1 0.812909 0.308978 0.751138
864 1 0.866695 0.317555 0.816408
836 1 0.995515 0.317619 0.801983
863 1 0.929472 0.262244 0.800976
961 1 0.997612 0.252297 0.852725
989 1 0.875051 0.254928 0.87394
990 1 0.942981 0.311086 0.873101
1925 1 0.124917 0.499369 0.85817
1797 1 0.115129 0.498836 0.756127
1795 1 0.0595594 0.495465 0.817883
867 1 0.05608 0.37561 0.807132
872 1 0.114012 0.429237 0.807687
1799 1 0.182762 0.491389 0.806548
876 1 0.239736 0.418514 0.805232
998 1 0.19596 0.431621 0.874406
1929 1 0.251739 0.491894 0.864054
875 1 0.317656 0.381756 0.808762
1002 1 0.300103 0.432872 0.867142
880 1 0.374728 0.441216 0.811242
1801 1 0.254264 0.491156 0.756762
1807 1 0.441696 0.488461 0.799326
879 1 0.430476 0.376044 0.815302
884 1 0.496618 0.427013 0.809765
883 1 0.558078 0.377276 0.810436