ITEM: TIMESTEP
33750
ITEM: NUMBER OF ATOMS
864
ITEM: BOX BOUNDS pp pp pp
0.0000000000000000e+00 3.1559999999999999e+01
0.0000000000000000e+00 3.1559999999999999e+01
0.0000000000000000e+00 3.1559999999999999e+01
ITEM: ATOMS id type xs ys zs
8 1 0.17711 0.105351 0.0757366
4 1 0.0209692 0.0836787 0.0851168
214 1 0.927797 0.402609 0.326661
31 1 0.254175 0.171255 0.0989355
234 1 0.749693 0.0820277 0.502992
585 1 0.336402 0.502156 0.337732
12 1 0.354849 0.0741984 0.0818663
82 1 0.424443 0.0866647 0.175208
54 1 0.260282 0.422084 0.00426448
507 1 0.0807401 0.506293 0.252601
196 1 -0.00182596 0.412124 0.40975
587 1 0.415077 0.497464 0.418014
16 1 0.497976 0.0965406 0.0902042
86 1 0.58898 0.095129 0.173077
39 1 0.584161 0.175159 0.0951354
527 1 0.914362 0.491638 0.250423
20 1 0.660585 0.0763975 0.0781245
43 1 0.758864 0.157329 0.0868447
285 1 0.836112 0.346924 0.493272
90 1 0.751404 0.0828808 0.167966
5 1 0.15811 0.0292159 0.00689362
215 1 0.91779 0.337419 0.421623
24 1 0.844509 0.0779806 0.08343
94 1 0.920994 0.087725 0.1623
589 1 0.506824 0.490269 0.332745
22 1 0.930476 0.0854482 0.00436486
87 1 0.597382 0.0120803 0.243919
27 1 0.0886868 0.177106 0.0782974
98 1 0.0912842 0.244484 0.169133
121 1 0.000963232 0.336006 0.159446
161 1 0.674343 0.00264666 0.332013
32 1 0.181564 0.246319 0.0685307
55 1 0.25135 0.33821 0.088472
36 1 0.319636 0.256126 0.0737929
105 1 0.33821 0.183272 0.162182
101 1 0.176049 0.167149 0.176229
591 1 0.580468 0.480659 0.412047
35 1 0.412538 0.172471 0.0836327
59 1 0.427989 0.345132 0.0980324
106 1 0.414299 0.253608 0.150421
218 1 0.0862479 0.0929374 0.498731
40 1 0.510483 0.258627 0.0859645
63 1 0.587535 0.332955 0.0927888
225 1 0.319572 0.00448309 0.489969
44 1 0.671713 0.251795 0.0789481
114 1 0.759316 0.25253 0.152152
47 1 0.918333 0.161402 0.0799631
28 1 0.993813 0.2555 0.0934951
48 1 0.852366 0.245048 0.0637427
97 1 1.0021 0.16265 0.159422
519 1 0.592929 0.492704 0.253665
51 1 0.0857116 0.331467 0.0929328
50 1 0.0786225 0.412081 -0.000265048
56 1 0.180049 0.427642 0.0761763
125 1 0.152035 0.338094 0.171381
273 1 0.335338 0.331174 0.500631
149 1 0.159516 0.0102117 0.325343
210 1 0.743708 0.411886 0.328242
129 1 0.324033 0.332166 0.171442
60 1 0.341393 0.422845 0.083917
595 1 0.745162 0.505595 0.415917
64 1 0.49134 0.429501 0.0890907
513 1 0.335534 0.495897 0.158146
653 1 0.176785 0.514912 0.486802
42 1 0.760996 0.241523 -0.00319655
167 1 0.913328 0.0103641 0.422351
68 1 0.676343 0.421049 0.0734181
67 1 0.743188 0.32374 0.0731882
138 1 0.743092 0.410277 0.162504
11 1 0.427488 -0.0134562 0.0795801
249 1 0.327255 0.178002 0.504516
71 1 0.921785 0.34288 0.0866029
52 1 0.992766 0.418021 0.0933673
72 1 0.835156 0.425519 0.0905967
599 1 0.925592 0.486069 0.403758
74 1 0.0900326 0.092671 0.16913
76 1 1.00082 0.0834169 0.248274
146 1 0.0608601 0.0740804 0.324173
445 1 0.497804 0.507149 -0.00923443
78 1 0.247483 0.0821943 0.171159
80 1 0.173255 0.088136 0.243745
103 1 0.251221 0.174098 0.250239
150 1 0.248751 0.100286 0.334688
89 1 0.675623 0.000211733 0.162094
84 1 0.338786 0.0763862 0.244763
154 1 0.40853 0.0899881 0.326121
216 1 0.833745 0.416404 0.40937
266 1 0.0868871 0.418014 0.497237
88 1 0.510971 0.0861782 0.241922
158 1 0.577727 0.0771267 0.325289
77 1 0.159712 0.001412 0.168211
193 1 -0.00793 0.317956 0.344761
237 1 0.821023 0.00356262 0.498173
209 1 0.663173 0.311659 0.33311
113 1 0.671088 0.174762 0.161989
92 1 0.667452 0.0928921 0.248443
115 1 0.762336 0.175956 0.23272
23 1 0.919897 0.00150899 0.0823336
96 1 0.836895 0.0983756 0.238797
207 1 0.58009 0.326592 0.410967
99 1 0.069377 0.163425 0.253884
104 1 0.156747 0.245192 0.261489
170 1 0.0676514 0.241841 0.331229
173 1 0.14929 0.161736 0.336563
102 1 0.238826 0.255304 0.169975
108 1 0.336069 0.242585 0.258231
127 1 0.24718 0.33569 0.243619
201 1 0.322934 0.328176 0.324318
174 1 0.249429 0.253302 0.323514
107 1 0.413863 0.17919 0.259072
131 1 0.419178 0.314472 0.242954
109 1 0.490229 0.17495 0.166496
110 1 0.59721 0.261801 0.178959
137 1 0.680024 0.323641 0.158986
111 1 0.589849 0.174776 0.266021
112 1 0.505839 0.24128 0.252039
135 1 0.581552 0.322191 0.26207
117 1 0.841588 0.164464 0.15796
116 1 0.688384 0.254259 0.243718
139 1 0.756027 0.335 0.247235
120 1 0.839365 0.254887 0.243018
118 1 0.920609 0.245188 0.166487
119 1 0.923133 0.165323 0.247218
100 1 1.00366 0.244294 0.232291
169 1 0.988842 0.16109 0.331838
143 1 0.916441 0.319691 0.246612
122 1 0.0844816 0.429297 0.160598
123 1 0.0810642 0.335975 0.269723
128 1 0.164351 0.422778 0.257421
124 1 -0.00165737 0.414998 0.226211
593 1 0.658115 0.487871 0.344017
126 1 0.243245 0.422572 0.162476
132 1 0.328944 0.43661 0.244888
130 1 0.439471 0.404653 0.184698
202 1 0.413063 0.404103 0.323553
208 1 0.501548 0.396009 0.412093
212 1 0.66848 0.410369 0.423908
133 1 0.503676 0.31906 0.179677
205 1 0.489465 0.322833 0.32935
134 1 0.578295 0.413153 0.173129
206 1 0.586802 0.404673 0.333536
136 1 0.505854 0.398961 0.261455
140 1 0.663451 0.399559 0.249165
7 1 0.24765 0.0121777 0.0869394
144 1 0.827823 0.40934 0.243664
213 1 0.843549 0.327507 0.331737
141 1 0.835024 0.32666 0.155178
142 1 0.911731 0.411703 0.17098
148 1 -0.00251884 0.0737064 0.423154
155 1 0.407007 0.00353427 0.436002
152 1 0.144318 0.0833828 0.406992
156 1 0.320993 0.0905911 0.424748
523 1 0.75374 0.49665 0.252239
160 1 0.497828 0.0812595 0.417194
179 1 0.40283 0.160478 0.413651
203 1 0.401557 0.335056 0.411953
49 1 -2.39317e-05 0.338785 -0.0107768
70 1 0.905266 0.410002 -0.00351691
194 1 0.0608759 0.422511 0.326789
183 1 0.581607 0.16025 0.410879
164 1 0.665032 0.0797979 0.408039
162 1 0.761481 0.0874808 0.317045
189 1 0.833366 0.168228 0.329753
185 1 0.673438 0.183961 0.324938
198 1 0.250787 0.410246 0.324714
199 1 0.256821 0.343269 0.415851
204 1 0.327357 0.41875 0.423811
191 1 0.909338 0.173009 0.413231
166 1 0.902618 0.0862214 0.329897
168 1 0.816201 0.0868132 0.414176
151 1 0.227374 0.0142227 0.424252
171 1 0.0800023 0.176731 0.423619
177 1 0.32764 0.174628 0.336563
197 1 0.165944 0.340743 0.327486
175 1 0.254103 0.174223 0.42281
176 1 0.174362 0.251525 0.407413
172 1 0.995018 0.249231 0.433057
181 1 0.489161 0.158089 0.335145
178 1 0.415106 0.245989 0.339956
180 1 0.321848 0.253935 0.410815
184 1 0.495599 0.24495 0.419993
195 1 0.0959277 0.329181 0.421028
182 1 0.565729 0.246676 0.335681
188 1 0.649523 0.243027 0.415879
211 1 0.761978 0.339978 0.413883
186 1 0.768264 0.252425 0.330221
192 1 0.828394 0.259758 0.424248
187 1 0.727093 0.162368 0.415776
200 1 0.158253 0.424743 0.418219
190 1 0.905872 0.24666 0.334476
163 1 0.733848 -0.00656477 0.42265
517 1 0.504556 0.513136 0.172887
81 1 0.350686 -0.000550162 0.165306
269 1 0.175076 0.337824 0.489231
79 1 0.247503 0.00917975 0.256375
579 1 0.0836775 0.50358 0.417955
451 1 0.756974 0.508408 0.0838249
62 1 0.584258 0.402708 0.00967734
33 1 0.338612 0.164114 0.00298653
34 1 0.421158 0.258537 0.0114995
286 1 0.921142 0.417591 0.485048
25 1 0.0024361 0.187662 0.00962445
226 1 0.407095 0.0865212 0.497379
649 1 -0.00130536 0.50454 0.494042
37 1 0.502607 0.168323 0.00353991
41 1 0.677395 0.158807 0.0116639
433 1 -0.00871108 0.48679 0.0135185
238 1 0.926219 0.0703912 0.501913
281 1 0.66055 0.33268 0.495445
258 1 0.744869 0.267525 0.485065
26 1 0.0770843 0.258528 -0.0102951
250 1 0.415549 0.244651 0.48902
242 1 0.0868642 0.253507 0.496181
265 1 1.00177 0.337877 0.49699
241 1 0.98841 0.153587 0.493656
57 1 0.330117 0.333974 0.00972577
290 1 0.088147 0.0751952 0.653962
224 1 0.166946 0.090759 0.585155
220 1 0.00798672 0.0780962 0.582228
243 1 0.0851111 0.170325 0.587447
813 1 0.816894 0.492984 0.840468
289 1 -0.00439447 -0.0145361 0.657255
725 1 0.153591 0.504696 0.671814
228 1 0.329973 0.0862272 0.579926
247 1 0.259898 0.168134 0.581133
294 1 0.256087 0.0822644 0.675254
232 1 0.504412 0.0886547 0.591678
251 1 0.419133 0.170149 0.581715
255 1 0.596261 0.168502 0.588
663 1 0.580187 0.489284 0.584162
295 1 0.260353 0.00550679 0.760612
302 1 0.589301 0.0806562 0.666891
66 1 0.755762 0.410691 1.00354
236 1 0.668524 0.0866422 0.578475
240 1 0.829469 0.0859693 0.571516
306 1 0.753481 0.0670332 0.676514
291 1 0.0862307 -0.00349758 0.744374
69 1 0.827217 0.339477 0.99476
412 1 0.0161929 0.402566 0.910626
313 1 0.00107546 0.153318 0.662974
310 1 0.9087 0.0602739 0.678887
383 1 0.918814 -0.00213127 0.923864
797 1 0.161987 0.493681 0.831239
267 1 0.0917132 0.340646 0.578992
244 1 0.989573 0.241314 0.56789
14 1 0.590987 0.0975461 0.998994
248 1 0.161612 0.255376 0.584832
252 1 0.337099 0.250734 0.577868
365 1 0.156269 -0.00302311 0.833708
795 1 0.0954662 0.484122 0.914335
341 1 0.171338 0.341722 0.654002
275 1 0.422542 0.325493 0.573867
345 1 0.336926 0.336238 0.657534
256 1 0.512132 0.242675 0.598126
260 1 0.654894 0.255484 0.587775
325 1 0.512105 0.160096 0.674912
363 1 0.0810016 -0.00490846 0.908291
259 1 0.74592 0.151681 0.584574
223 1 0.246481 0.0200995 0.575682
807 1 0.583574 0.478862 0.928969
263 1 0.912398 0.161117 0.582125
264 1 0.817585 0.255531 0.579854
287 1 0.929808 0.334278 0.580789
431 1 0.91301 0.348388 0.906718
741 1 0.830063 0.496451 0.668637
268 1 1.00567 0.423179 0.584563
338 1 0.0815924 0.422355 0.673778
429 1 0.820401 0.338168 0.813004
271 1 0.247383 0.341248 0.582963
272 1 0.172262 0.425734 0.577655
815 1 0.92036 0.494386 0.922359
276 1 0.335495 0.423365 0.594788
349 1 0.510929 0.327021 0.668604
227 1 0.416436 0.00996471 0.585811
279 1 0.578398 0.331951 0.590776
280 1 0.497366 0.411846 0.594792
284 1 0.662748 0.416565 0.58311
665 1 0.665126 0.492672 0.489668
793 1 -0.00375871 0.49937 0.826626
283 1 0.732293 0.326814 0.578496
288 1 0.828666 0.413338 0.583015
261 1 0.807614 0.181306 0.496049
30 1 0.254117 0.221767 0.994603
801 1 0.329656 0.498182 0.838457
727 1 0.256725 0.503087 0.74755
358 1 0.913062 0.425771 0.653109
737 1 0.660835 0.494121 0.682031
809 1 0.662066 0.494245 0.845477
426 1 0.740387 0.411028 0.833925
292 1 0.999154 0.0654909 0.741026
296 1 0.170506 0.0775154 0.73589
362 1 0.0763193 0.0958596 0.834414
389 1 0.169106 0.152397 0.83477
321 1 0.336404 0.169821 0.666377
274 1 0.431332 0.405143 0.496798
300 1 0.341401 0.0961895 0.75428
298 1 0.421888 0.100396 0.675128
323 1 0.409258 0.17664 0.744877
370 1 0.418068 0.0866946 0.840186
428 1 0.662333 0.409417 0.926351
304 1 0.50131 0.0810994 0.753382
327 1 0.591872 0.165184 0.758031
374 1 0.5844 0.0817801 0.819751
308 1 0.670187 0.0849399 0.752793
312 1 0.829092 0.0743494 0.765527
331 1 0.745474 0.173085 0.751336
723 1 0.0810088 0.508659 0.761786
314 1 0.0851009 0.244541 0.667419
315 1 0.0776064 0.165348 0.756098
386 1 0.0790875 0.262462 0.827667
316 1 0.990792 0.247102 0.74837
317 1 0.176057 0.167133 0.657647
318 1 0.260317 0.255539 0.656301
320 1 0.186716 0.24255 0.74168
319 1 0.262553 0.171169 0.760804
390 1 0.256268 0.238726 0.849292
417 1 0.326099 0.329871 0.828732
322 1 0.413483 0.26166 0.659259
324 1 0.337202 0.257701 0.738576
328 1 0.507137 0.22873 0.762006
397 1 0.493986 0.15228 0.832928
421 1 0.502653 0.334711 0.848019
326 1 0.578664 0.250277 0.678352
398 1 0.584177 0.250654 0.830541
332 1 0.660244 0.248301 0.757489
329 1 0.678484 0.147711 0.6682
401 1 0.663187 0.162325 0.830881
330 1 0.742675 0.252995 0.667365
402 1 0.746204 0.256082 0.821106
333 1 0.825324 0.154204 0.668815
334 1 0.897275 0.250688 0.652824
357 1 0.827211 0.329371 0.685539
335 1 0.912396 0.16363 0.745915
336 1 0.826642 0.232992 0.744708
409 1 0.999492 0.336085 0.825937
406 1 0.899965 0.267211 0.838905
337 1 0.000481799 0.341896 0.660086
339 1 0.0962709 0.324564 0.738333
344 1 0.170776 0.421147 0.745579
410 1 0.0913226 0.405061 0.828892
432 1 0.827908 0.41312 0.914457
305 1 0.665228 -0.00175306 0.652113
342 1 0.247859 0.424253 0.668369
343 1 0.250439 0.337576 0.743729
348 1 0.338504 0.412994 0.747641
422 1 0.576031 0.41411 0.83537
347 1 0.440849 0.319284 0.749425
346 1 0.412848 0.402698 0.6752
352 1 0.489258 0.416482 0.751433
353 1 0.649117 0.330853 0.67054
350 1 0.5714 0.421732 0.669582
351 1 0.578155 0.334452 0.763058
6 1 0.260691 0.0817692 1.00161
354 1 0.741926 0.400934 0.657897
355 1 0.729938 0.320905 0.742884
356 1 0.66229 0.414338 0.755742
360 1 0.828761 0.420998 0.756022
45 1 0.848699 0.162844 1.0011
430 1 0.910782 0.405835 0.819584
18 1 0.753347 0.0837129 1.00867
340 1 1.00189 0.421011 0.740476
359 1 0.910655 0.331009 0.738308
364 1 0.996463 0.11354 0.922823
368 1 0.168217 0.0710979 0.907812
424 1 0.486959 0.421935 0.92075
743 1 0.906875 0.499833 0.759957
257 1 0.677756 0.186226 0.506971
293 1 0.177449 0.0133415 0.652668
366 1 0.255851 0.0789472 0.842193
667 1 0.743184 0.503081 0.583076
277 1 0.504633 0.324315 0.505535
651 1 0.0773421 0.499371 0.574633
372 1 0.351775 0.0734292 0.924405
395 1 0.428337 0.164367 0.925886
393 1 0.348259 0.165289 0.835946
414 1 0.250228 0.418175 0.830461
733 1 0.490869 0.509216 0.674255
399 1 0.583221 0.164897 0.908785
376 1 0.508855 0.0843137 0.91537
423 1 0.583044 0.331308 0.918059
380 1 0.660378 0.0807278 0.91402
378 1 0.739902 0.0676066 0.847077
384 1 0.839083 0.0878868 0.927577
420 1 0.33422 0.422856 0.92773
405 1 0.829467 0.168995 0.839911
407 1 0.909252 0.185727 0.911947
382 1 0.94052 0.0891905 0.832913
411 1 0.0917595 0.337041 0.918386
388 1 0.000797098 0.263565 0.908836
385 1 1.01076 0.182568 0.837097
387 1 0.0877791 0.178235 0.905346
391 1 0.274254 0.156108 0.910213
392 1 0.166556 0.251573 0.915753
38 1 0.602581 0.242215 1.00503
254 1 0.577298 0.257952 0.490871
396 1 0.345441 0.240567 0.922756
419 1 0.397417 0.338205 0.912221
394 1 0.410266 0.246456 0.843369
413 1 0.172748 0.327243 0.838561
404 1 0.665172 0.252668 0.918462
400 1 0.499192 0.238403 0.919714
415 1 0.273762 0.321298 0.925733
403 1 0.749502 0.16449 0.913569
425 1 0.668592 0.326916 0.844995
427 1 0.749729 0.33604 0.926682
418 1 0.409358 0.420534 0.829791
416 1 0.186688 0.410361 0.924454
408 1 0.81854 0.259236 0.906594
379 1 0.75169 -0.00211945 0.922526
17 1 0.66911 0.000677776 0.99821
61 1 0.500962 0.327531 0.980986
262 1 0.896386 0.24548 0.505798
65 1 0.66288 0.330675 1.00823
245 1 0.166337 0.167859 0.498446
46 1 0.915732 0.267477 0.985376
278 1 0.585752 0.41608 0.495702
2 1 0.0805384 0.0992158 0.987472
253 1 0.502717 0.150945 0.497346
282 1 0.747203 0.419092 0.506135
246 1 0.240624 0.256218 0.507554
10 1 0.437027 0.0802077 1.00014
657 1 0.323954 0.500632 0.509183
58 1 0.416354 0.411559 0.997235
449 1 0.65042 0.500615 1.00666
53 1 0.181839 0.330313 0.996793
229 1 0.493028 0.0150263 0.510633
270 1 0.260508 0.416821 0.514092
230 1 0.593889 0.0913755 0.496405
29 1 0.161089 0.17046 0.984253
222 1 0.235606 0.0990565 0.502898
440 1 0.158935 0.590577 0.0620919
705 1 0.334912 0.820165 0.493762
437 1 0.167321 0.497359 -0.00377528
463 1 0.244536 0.658403 0.0922767
510 1 0.266088 0.58814 0.17787
9 1 0.343614 0.995068 -0.00162526
581 1 0.173083 0.505893 0.344557
444 1 0.337317 0.602946 0.0953835
514 1 0.422667 0.585478 0.179628
467 1 0.42286 0.671872 0.0866547
541 1 0.507442 0.671042 0.164065
577 1 0.996656 0.510104 0.3178
95 1 0.915829 0.986062 0.249604
448 1 0.495138 0.579732 0.0791052
545 1 0.677091 0.653082 0.168542
73 1 -0.00316639 1.001 0.170618
452 1 0.673791 0.573699 0.0828195
456 1 0.838457 0.594131 0.0831525
147 1 0.0724745 0.995547 0.428005
669 1 0.829059 0.487459 0.49468
435 1 0.0854275 0.502456 0.0792712
436 1 -0.00364891 0.582319 0.0855054
479 1 0.927924 0.663305 0.0842205
458 1 0.0930234 0.744105 -0.00909937
21 1 0.836017 1.005 0.00364069
693 1 0.824033 0.657107 0.495283
459 1 0.0894585 0.67071 0.0821136
530 1 0.0875791 0.733053 0.160416
464 1 0.177587 0.741567 0.0849082
483 1 0.0976916 0.810398 0.0753004
557 1 0.178553 0.828451 0.150225
533 1 0.175469 0.672787 0.17825
482 1 0.0653255 0.90922 -0.000499067
468 1 0.340609 0.756112 0.079909
472 1 0.508168 0.760856 0.0778117
491 1 0.41799 0.851873 0.0920701
561 1 0.33471 0.850089 0.17355
681 1 0.329116 0.655372 0.502691
471 1 0.580611 0.668691 0.0804782
718 1 0.914999 0.897432 0.514602
495 1 0.595577 0.83945 0.094623
569 1 0.679785 0.832885 0.175217
475 1 0.754476 0.670413 0.0867768
476 1 0.665562 0.758503 0.0957575
499 1 0.754899 0.829637 0.0871835
480 1 0.841334 0.747513 0.0868768
460 1 0.00293388 0.754126 0.0843792
503 1 0.923839 0.831457 0.0756811
91 1 0.752407 0.996339 0.255975
488 1 0.164703 0.917749 0.0875366
554 1 0.0796081 0.90368 0.157783
521 1 0.673518 0.490494 0.170798
648 1 0.831865 0.918985 0.420887
165 1 0.829586 1.00637 0.328518
487 1 0.260628 0.825436 0.0734015
492 1 0.336692 0.92447 0.0879446
83 1 0.417397 0.989565 0.250056
496 1 0.506726 0.919486 0.0816687
562 1 0.429177 0.915768 0.174927
566 1 0.58861 0.929587 0.167624
647 1 0.914113 0.833566 0.412428
690 1 0.738957 0.753823 0.492719
19 1 0.748756 0.99164 0.0789461
3 1 0.0855234 1.00368 0.0929144
666 1 0.750111 0.571284 0.507548
500 1 0.657603 0.931351 0.0768982
643 1 0.724915 0.839415 0.42282
504 1 0.833692 0.909738 0.086304
484 1 -0.00315391 0.921978 0.0881915
574 1 0.918505 0.918913 0.16872
446 1 0.577361 0.598577 0.00142719
506 1 0.0871814 0.592557 0.171903
639 1 0.554251 0.845716 0.421231
512 1 0.164057 0.568771 0.250502
516 1 0.342143 0.583097 0.260749
15 1 0.581788 1.00645 0.0896025
582 1 0.252805 0.59 0.326537
442 1 0.420368 0.59909 -0.00252808
520 1 0.509689 0.592216 0.255171
450 1 0.755685 0.580222 0.000621013
518 1 0.588903 0.576618 0.180845
590 1 0.589201 0.596949 0.339723
543 1 0.581042 0.66984 0.262384
522 1 0.759895 0.593565 0.17703
490 1 0.432782 0.912041 -0.0101588
524 1 0.668183 0.569335 0.271508
547 1 0.751433 0.67147 0.261593
650 1 0.0906763 0.577082 0.49356
529 1 0.00251524 0.664521 0.169459
549 1 0.851413 0.667313 0.165667
644 1 0.650207 0.922557 0.42056
526 1 0.91512 0.578702 0.165654
508 1 0.997264 0.587897 0.242737
528 1 0.849696 0.580806 0.247181
551 1 0.922025 0.668261 0.243922
531 1 0.0958421 0.673004 0.250667
536 1 0.172073 0.758907 0.242846
555 1 0.0854535 0.844675 0.251245
532 1 -0.0128921 0.755623 0.23941
537 1 0.358082 0.671936 0.175725
535 1 0.253469 0.681798 0.251954
534 1 0.274671 0.740766 0.161686
606 1 0.255016 0.748943 0.339186
540 1 0.33713 0.748692 0.249941
629 1 0.16559 0.816615 0.330059
609 1 0.328898 0.668059 0.334409
538 1 0.405784 0.772631 0.177928
565 1 0.494698 0.841056 0.166743
539 1 0.42626 0.667449 0.263325
563 1 0.40944 0.845769 0.260697
637 1 0.498739 0.83516 0.326673
544 1 0.498956 0.748913 0.236195
542 1 0.571314 0.7552 0.166466
614 1 0.569105 0.754592 0.331885
641 1 0.665141 0.840369 0.328728
548 1 0.655828 0.74402 0.237944
546 1 0.759334 0.763248 0.158454
573 1 0.840259 0.837612 0.172597
571 1 0.753591 0.840594 0.24347
550 1 0.915393 0.759378 0.171514
553 1 0.000600977 0.838047 0.163084
645 1 0.830549 0.8414 0.341133
552 1 0.845673 0.756144 0.250706
635 1 0.427349 0.840939 0.421754
560 1 0.155323 0.920645 0.240415
556 1 0.00435051 0.925106 0.25002
677 1 0.181398 0.679367 0.497183
559 1 0.259866 0.849488 0.26332
558 1 0.254812 0.935311 0.160152
630 1 0.252194 0.934523 0.351882
640 1 0.489248 0.929256 0.438279
564 1 0.324189 0.928964 0.255543
633 1 0.324513 0.831871 0.344646
634 1 0.405782 0.917003 0.339779
568 1 0.504111 0.916369 0.253685
567 1 0.580868 0.831838 0.242906
638 1 0.589956 0.92046 0.319847
572 1 0.661154 0.920157 0.242616
570 1 0.746286 0.917149 0.161548
642 1 0.748902 0.916109 0.347168
576 1 0.832867 0.914412 0.251672
646 1 0.905911 0.931636 0.349457
575 1 0.922891 0.846664 0.252657
439 1 0.248003 0.511017 0.0769754
636 1 0.331405 0.915678 0.424722
578 1 0.0801946 0.588456 0.325895
605 1 0.180174 0.668705 0.32285
580 1 0.991402 0.577101 0.407692
601 1 1.00567 0.670445 0.321271
603 1 0.0890021 0.663722 0.39836
584 1 0.17269 0.595987 0.416833
588 1 0.333492 0.586376 0.424115
607 1 0.253501 0.670686 0.40934
441 1 0.329508 0.507599 -0.0147199
626 1 0.0771908 0.894282 0.341876
586 1 0.420412 0.581248 0.345564
611 1 0.418151 0.664767 0.425199
613 1 0.505265 0.651932 0.35504
615 1 0.578941 0.66197 0.426252
592 1 0.504005 0.57399 0.423742
596 1 0.666018 0.583035 0.410464
447 1 0.57778 0.50281 0.0943889
597 1 0.848431 0.500732 0.327977
594 1 0.762091 0.587682 0.326737
619 1 0.754403 0.665625 0.405452
455 1 0.923103 0.496455 0.0952116
600 1 0.835937 0.566143 0.413687
598 1 0.915986 0.590456 0.33046
511 1 0.242008 0.498621 0.2472
153 1 0.335413 1.00669 0.350165
628 1 -0.0115047 0.919027 0.431767
602 1 0.0690572 0.757796 0.324061
604 1 -0.00697524 0.75478 0.426848
625 1 0.990444 0.835074 0.329097
631 1 0.239148 0.828213 0.41367
608 1 0.172081 0.736581 0.415898
612 1 0.354408 0.746503 0.417374
610 1 0.419488 0.759229 0.324138
627 1 0.0759407 0.828492 0.421144
617 1 0.673031 0.683918 0.340959
616 1 0.504456 0.743449 0.408686
620 1 0.637311 0.760801 0.40961
618 1 0.752417 0.75641 0.33114
478 1 0.906997 0.752592 0.00122303
505 1 -0.00383081 0.515169 0.172625
632 1 0.148881 0.915623 0.419331
621 1 0.831341 0.669748 0.324279
622 1 0.923301 0.750599 0.336433
624 1 0.829449 0.744997 0.407631
623 1 0.910239 0.660292 0.416111
674 1 0.0881028 0.732556 0.504601
714 1 0.749378 0.912387 0.498844
706 1 0.40934 0.927242 0.507441
157 1 0.486305 0.996749 0.348052
515 1 0.419043 0.493366 0.261937
698 1 0.0858239 0.908186 0.508512
701 1 0.15984 0.829106 0.50087
145 1 -0.00529437 0.99043 0.346159
159 1 0.57802 1.0103 0.427011
525 1 0.834014 0.495783 0.16567
75 1 0.0863166 1.01038 0.248703
583 1 0.255519 0.506676 0.407702
443 1 0.413389 0.519685 0.068699
93 1 0.846073 0.997542 0.17068
85 1 0.502218 1.00368 0.16348
509 1 0.16597 0.518522 0.152401
498 1 0.752691 0.907288 0.00868962
661 1 0.503695 0.495135 0.502582
454 1 0.91593 0.573006 0.0117849
13 1 0.504673 1.00011 0.0111778
497 1 0.660062 0.825557 0.000111251
654 1 0.253839 0.579459 0.499439
462 1 0.245668 0.737278 0.00412105
673 1 0.00559213 0.653126 0.492266
438 1 0.25581 0.589217 -0.00678373
477 1 0.840286 0.673294 -0.00180055
481 1 0.00653494 0.827933 -0.00794654
486 1 0.240905 0.945612 0.00253532
717 1 0.833815 0.825404 0.490035
722 1 0.0883423 0.585172 0.680568
675 1 0.0977016 0.653899 0.574104
465 1 0.333984 0.671651 0.995689
434 1 0.0801896 0.576025 0.986509
656 1 0.164859 0.57459 0.578553
726 1 0.22797 0.57924 0.674541
697 1 0.99657 0.832661 0.500891
803 1 0.405239 0.503784 0.916872
660 1 0.336006 0.582149 0.588922
664 1 0.491574 0.585312 0.589951
730 1 0.418504 0.591972 0.671433
757 1 0.48773 0.672489 0.669201
361 1 0.999276 0.993805 0.838784
721 1 1.00348 0.503407 0.673559
687 1 0.587618 0.656984 0.58784
861 1 0.830224 0.818568 0.839273
668 1 0.66164 0.569035 0.583032
761 1 0.658863 0.671664 0.668282
672 1 0.82796 0.582227 0.579022
231 1 0.577677 0.995431 0.588553
652 1 0.00719736 0.587199 0.582973
699 1 0.0640336 0.829751 0.576942
373 1 0.518222 1.00878 0.834513
680 1 0.170728 0.748304 0.583111
679 1 0.251367 0.650277 0.5867
750 1 0.249742 0.743802 0.661158
684 1 0.32632 0.738885 0.575516
753 1 0.339563 0.670487 0.666842
683 1 0.415627 0.668079 0.585058
707 1 0.416479 0.829673 0.574911
688 1 0.502419 0.737207 0.585866
781 1 0.49698 0.836508 0.652914
754 1 0.416664 0.763138 0.642763
692 1 0.662459 0.74425 0.582658
235 1 0.758625 1.01893 0.590059
758 1 0.584744 0.75056 0.653311
691 1 0.740033 0.65642 0.589609
762 1 0.757486 0.750494 0.664795
696 1 0.834837 0.754157 0.572049
785 1 0.674446 0.832002 0.65396
695 1 0.918272 0.664111 0.598206
676 1 -0.0108356 0.737469 0.560732
766 1 0.929504 0.74202 0.667688
719 1 0.915909 0.820901 0.589621
765 1 0.826357 0.658605 0.666923
371 1 0.422492 0.982696 0.92052
770 1 0.0860455 0.91174 0.66937
671 1 0.923884 0.50719 0.576167
474 1 0.755026 0.754149 0.996819
735 1 0.572705 0.503589 0.751886
469 1 0.502473 0.683828 0.994669
704 1 0.166662 0.911686 0.586694
703 1 0.252459 0.825339 0.581277
708 1 0.320885 0.909633 0.568806
307 1 0.7437 0.994471 0.76369
689 1 0.679367 0.652334 0.497733
863 1 0.920555 0.82586 0.926144
489 1 0.343229 0.840877 1.01385
712 1 0.497153 0.90644 0.565159
778 1 0.406781 0.909166 0.663577
860 1 0.672981 0.907075 0.926128
686 1 0.572465 0.744228 0.500243
711 1 0.580847 0.832331 0.57443
782 1 0.595588 0.905842 0.659448
805 1 0.480041 0.510755 0.842969
716 1 0.663406 0.90979 0.581983
715 1 0.754579 0.82351 0.579773
720 1 0.829545 0.914039 0.579921
789 1 0.843576 0.831696 0.662872
786 1 0.752419 0.918276 0.666221
299 1 0.396156 1.0077 0.720114
864 1 0.817961 0.905269 0.916627
493 1 0.506722 0.839028 0.99932
700 1 -0.00626976 0.912953 0.583023
502 1 0.902245 0.910423 1.00141
466 1 0.421945 0.767626 1.00567
381 1 0.834666 0.996004 0.853112
747 1 0.0851897 0.66755 0.738837
794 1 0.0804519 0.589309 0.828796
728 1 0.168891 0.577173 0.75782
732 1 0.319923 0.586579 0.735667
821 1 0.177283 0.658102 0.845073
751 1 0.244295 0.679553 0.764329
855 1 0.591749 0.82213 0.914848
736 1 0.482284 0.588434 0.758092
856 1 0.515469 0.904141 0.908051
734 1 0.573921 0.589342 0.67188
740 1 0.65493 0.595794 0.750527
738 1 0.740854 0.581481 0.67759
744 1 0.831707 0.575644 0.749873
810 1 0.746627 0.580933 0.814819
729 1 0.335488 0.50041 0.66343
745 1 0.00606345 0.674429 0.665771
724 1 0.0115368 0.593537 0.750864
742 1 0.916529 0.581519 0.670028
767 1 0.908229 0.660816 0.750738
814 1 0.902369 0.574017 0.830733
746 1 0.0929241 0.743159 0.655423
818 1 0.0908733 0.754884 0.828554
841 1 0.983345 0.827975 0.827933
771 1 0.0778742 0.838662 0.752462
773 1 0.158212 0.835868 0.657477
749 1 0.172816 0.666508 0.659645
752 1 0.164852 0.742224 0.747362
775 1 0.259726 0.832115 0.733346
756 1 0.33848 0.754761 0.751809
755 1 0.419784 0.6796 0.765232
760 1 0.499745 0.737931 0.765233
759 1 0.582314 0.66409 0.750855
764 1 0.662284 0.748051 0.739999
783 1 0.561708 0.825683 0.734072
763 1 0.752407 0.671679 0.752223
833 1 0.665598 0.668481 0.842442
834 1 0.743585 0.757984 0.829543
768 1 0.832679 0.741136 0.744715
748 1 0.00124339 0.735455 0.762795
791 1 0.909976 0.836331 0.753181
769 1 -0.00126694 0.816262 0.673649
485 1 0.184799 0.830431 1.0076
776 1 0.181656 0.914725 0.748784
774 1 0.255112 0.911329 0.655004
731 1 0.407164 0.497038 0.758499
777 1 0.333078 0.827481 0.662433
780 1 0.320234 0.914045 0.748883
779 1 0.416608 0.826442 0.743262
739 1 0.744648 0.488135 0.759515
659 1 0.415366 0.493975 0.592511
784 1 0.499034 0.931998 0.742234
854 1 0.582796 0.908775 0.814989
858 1 0.741774 0.908046 0.8392
788 1 0.671207 0.922567 0.741392
787 1 0.744373 0.826518 0.749873
377 1 0.653624 0.990684 0.835998
811 1 0.745471 0.502762 0.913985
369 1 0.344618 1.00523 0.834759
792 1 0.824565 0.910352 0.761663
862 1 0.909128 0.91262 0.835681
772 1 0.000276949 0.918561 0.750751
790 1 0.912619 0.918684 0.668249
817 1 0.991206 0.664076 0.833401
694 1 0.90482 0.743168 0.489403
796 1 0.99758 0.568666 0.904539
662 1 0.580506 0.587771 0.514255
800 1 0.169519 0.571209 0.91347
819 1 0.0886017 0.656303 0.910149
501 1 0.828783 0.835785 0.997276
798 1 0.254766 0.586472 0.829715
804 1 0.332636 0.588599 0.912653
823 1 0.263909 0.66468 0.915323
839 1 0.920195 0.652975 0.920829
802 1 0.388142 0.581164 0.817324
808 1 0.501276 0.588744 0.919976
827 1 0.407945 0.671138 0.909984
829 1 0.509702 0.660603 0.838475
297 1 0.327036 0.980551 0.646898
838 1 0.905498 0.732959 0.83081
806 1 0.58387 0.58073 0.842085
812 1 0.669215 0.592645 0.929744
844 1 0.995015 0.901471 0.915497
840 1 0.838178 0.751805 0.918851
837 1 0.829973 0.655365 0.824452
835 1 0.756525 0.669235 0.905482
850 1 0.426331 0.915148 0.821396
847 1 0.259056 0.853595 0.938411
473 1 0.665022 0.680296 0.994291
816 1 0.838037 0.59233 0.921329
859 1 0.744378 0.826093 0.918416
842 1 0.0811816 0.916992 0.830429
843 1 0.0781169 0.823432 0.914184
820 1 0.998833 0.741055 0.914683
845 1 0.159766 0.840409 0.838321
857 1 0.660417 0.84256 0.830665
822 1 0.247967 0.77393 0.825536
824 1 0.190144 0.748729 0.913635
846 1 0.241326 0.918199 0.839378
825 1 0.321926 0.677222 0.829774
832 1 0.487172 0.743589 0.907936
828 1 0.333314 0.771716 0.930078
849 1 0.336446 0.840537 0.831152
851 1 0.427381 0.839672 0.915257
826 1 0.408357 0.755082 0.836091
830 1 0.588667 0.754856 0.840436
853 1 0.511129 0.822307 0.829795
836 1 0.667257 0.752035 0.910118
831 1 0.585918 0.683161 0.915124
848 1 0.15275 0.923204 0.946323
655 1 0.24591 0.506712 0.582526
852 1 0.34261 0.91895 0.914606
375 1 0.57904 1.00508 0.928964
710 1 0.580686 0.918596 0.504175
301 1 0.496632 1.01748 0.662358
303 1 0.588073 1.00344 0.744785
453 1 0.836273 0.494291 0.998708
311 1 0.9286 0.995564 0.765539
309 1 0.830758 0.99148 0.68756
709 1 0.496528 0.82202 0.499132
239 1 0.917953 0.997161 0.582706
367 1 0.253036 1.00409 0.916465
219 1 0.0845074 0.993345 0.591934
799 1 0.251542 0.503616 0.902697
470 1 0.591445 0.753433 1.00828
678 1 0.268742 0.732047 0.4842
713 1 0.641268 0.839873 0.488995
457 1 0.0181371 0.655827 0.99695
1 1 -0.0009572 0.99193 0.997473
658 1 0.408076 0.575613 0.513511
682 1 0.417859 0.746566 0.506169
494 1 0.591143 0.91465 0.99475
221 1 0.153912 1.0098 0.502735
685 1 0.495311 0.658383 0.498936
461 1 0.169542 0.656222 0.968279
702 1 0.229413 0.916507 0.500382
217 1 -0.00231752 0.989864 0.505624
670 1 0.922441 0.585941 0.504428
233 1 0.671007 0.996771 0.516766
