ITEM: TIMESTEP
23200
ITEM: NUMBER OF ATOMS
864
ITEM: BOX BOUNDS pp pp pp
0.0000000000000000e+00 3.1559999999999999e+01
0.0000000000000000e+00 3.1559999999999999e+01
0.0000000000000000e+00 3.1559999999999999e+01
ITEM: ATOMS id type xs ys zs
74 1 0.0848047 0.0774534 0.16235
4 1 0.994201 0.0752838 0.0747343
193 1 0.988475 0.341516 0.337116
8 1 0.161086 0.0841528 0.0781118
12 1 0.325788 0.0779735 0.0810944
78 1 0.251472 0.0682964 0.165999
101 1 0.172109 0.159771 0.171004
26 1 0.0908968 0.249899 0.0146624
82 1 0.401625 0.0753981 0.175757
105 1 0.330991 0.155982 0.17184
216 1 0.820408 0.424889 0.414786
226 1 0.407425 0.0913771 0.495252
519 1 0.591501 0.49982 0.238952
16 1 0.482758 0.0862671 0.0820002
20 1 0.670484 0.0926662 0.0764112
86 1 0.584022 0.0901776 0.170776
109 1 0.483724 0.151303 0.176163
39 1 0.582479 0.156869 0.0773254
90 1 0.746447 0.0825957 0.161767
157 1 0.506366 0.00381703 0.329735
527 1 0.901435 0.48515 0.251397
24 1 0.835078 0.0765101 0.0886649
270 1 0.256148 0.418161 0.490971
27 1 0.0803405 0.16476 0.0796502
98 1 0.0771971 0.24173 0.163104
51 1 0.0782297 0.338934 0.0894748
28 1 0.994117 0.242168 0.0773035
121 1 0.999014 0.317508 0.156113
54 1 0.248858 0.422209 0.012986
31 1 0.258466 0.170234 0.0937597
32 1 0.171543 0.249059 0.0936493
87 1 0.578861 0.00919813 0.252154
62 1 0.588109 0.401098 -0.00135434
653 1 0.160565 0.488181 0.486738
36 1 0.343528 0.260892 0.0935294
35 1 0.407102 0.163829 0.0880093
106 1 0.413052 0.225446 0.173914
59 1 0.430807 0.322526 0.0829293
40 1 0.49817 0.232621 0.0861379
133 1 0.499224 0.30812 0.175723
13 1 0.491001 -0.0106657 0.0181846
44 1 0.660555 0.244252 0.0919927
137 1 0.667728 0.334955 0.156467
43 1 0.745818 0.166319 0.0843494
67 1 0.76389 0.326646 0.0857002
145 1 0.986 0.0156869 0.331837
147 1 0.0909675 0.0110687 0.412338
47 1 0.912552 0.161655 0.0733131
48 1 0.846652 0.242699 0.0898587
222 1 0.238636 0.080838 0.509561
71 1 0.906164 0.332849 0.0749829
141 1 0.837569 0.327354 0.170711
258 1 0.731782 0.237047 0.500473
122 1 0.0732621 0.416693 0.179273
52 1 0.98725 0.409359 0.0902745
273 1 0.348373 0.34428 0.506827
211 1 0.752956 0.33978 0.422157
56 1 0.166758 0.41472 0.0959925
55 1 0.237935 0.330955 0.085889
238 1 0.93034 0.0959084 0.490448
15 1 0.571776 0.015156 0.08958
60 1 0.333279 0.416143 0.0911519
130 1 0.415872 0.419751 0.163518
64 1 0.493173 0.405687 0.0732651
30 1 0.245555 0.255743 0.00443642
151 1 0.242882 0.0117673 0.421548
517 1 0.508488 0.488802 0.169796
63 1 0.570915 0.312918 0.0875876
68 1 0.67552 0.413188 0.0768591
505 1 0.998168 0.494085 0.165247
513 1 0.323207 0.489319 0.158645
72 1 0.822787 0.416202 0.0796197
138 1 0.752237 0.418106 0.161999
89 1 0.654619 0.00836104 0.166809
142 1 0.913664 0.421186 0.161657
149 1 0.176126 0.00643869 0.338975
159 1 0.587303 0.0115485 0.416647
76 1 0.0107635 0.0914264 0.252047
80 1 0.163549 0.0710769 0.248377
146 1 0.0971992 0.0775836 0.337358
212 1 0.638491 0.39927 0.405366
84 1 0.341944 0.0831938 0.267633
153 1 0.333995 0.00762187 0.343278
587 1 0.432535 0.502717 0.420597
507 1 0.0914256 0.49079 0.261532
107 1 0.411177 0.165004 0.268027
88 1 0.495098 0.0887293 0.256017
154 1 0.418646 0.0849196 0.342293
181 1 0.501475 0.163796 0.32787
113 1 0.678045 0.169013 0.170628
158 1 0.584938 0.0819146 0.335651
92 1 0.670035 0.0926125 0.25087
111 1 0.587391 0.157092 0.252966
115 1 0.749827 0.162186 0.250733
96 1 0.835832 0.07394 0.248965
221 1 0.167956 0.0104103 0.493944
94 1 0.916082 0.0771918 0.164525
117 1 0.831608 0.160123 0.162154
119 1 0.909753 0.154129 0.239826
169 1 0.0254553 0.177898 0.328481
593 1 0.664508 0.494075 0.342698
97 1 0.984787 0.160565 0.163144
99 1 0.0888091 0.159513 0.240271
100 1 0.986511 0.243289 0.247168
125 1 0.172587 0.325251 0.170607
102 1 0.25889 0.249968 0.179776
103 1 0.258645 0.169775 0.257702
104 1 0.173233 0.239939 0.251037
177 1 0.320198 0.17602 0.351702
108 1 0.333906 0.248714 0.255512
110 1 0.581052 0.223958 0.175724
112 1 0.49142 0.234164 0.252285
135 1 0.584058 0.330708 0.242792
116 1 0.661309 0.25039 0.247534
114 1 0.743974 0.253365 0.16246
186 1 0.752392 0.249335 0.333078
118 1 0.9181 0.247008 0.165696
120 1 0.834075 0.244873 0.243603
123 1 0.102086 0.322871 0.245633
128 1 0.165716 0.415292 0.252777
194 1 0.0747712 0.408429 0.336709
124 1 1.00333 0.419232 0.247459
203 1 0.419906 0.325355 0.412519
126 1 0.252328 0.408111 0.164471
127 1 0.249507 0.342607 0.242816
230 1 0.571026 0.0950174 0.489733
129 1 0.334307 0.329953 0.16578
131 1 0.410818 0.334109 0.236867
132 1 0.33049 0.427885 0.257394
136 1 0.50694 0.415224 0.248802
202 1 0.431781 0.42351 0.323556
134 1 0.577709 0.404413 0.166852
206 1 0.57955 0.411786 0.317197
205 1 0.504671 0.326274 0.32516
447 1 0.581731 0.480938 0.0871658
201 1 0.344714 0.343297 0.33725
210 1 0.737332 0.413338 0.325022
435 1 0.0880256 0.492499 0.0837429
139 1 0.749273 0.31883 0.257305
140 1 0.682225 0.41143 0.235633
144 1 0.831222 0.411347 0.240585
214 1 0.90344 0.420994 0.336707
143 1 0.914467 0.329836 0.250577
213 1 0.826802 0.332932 0.33349
19 1 0.749907 -0.00277566 0.0886388
152 1 0.171687 0.0847346 0.421278
148 1 -0.00157139 0.0985757 0.397792
599 1 0.912057 0.489693 0.428068
173 1 0.169346 0.165794 0.336739
150 1 0.250999 0.0950351 0.340671
175 1 0.243212 0.17577 0.420934
70 1 0.908769 0.418693 0.00192534
591 1 0.569899 0.486242 0.407857
156 1 0.320035 0.096494 0.422731
160 1 0.486657 0.0747946 0.41853
179 1 0.412702 0.168786 0.410375
204 1 0.352298 0.429669 0.420023
41 1 0.660612 0.18743 -0.00545268
183 1 0.579722 0.165721 0.408687
234 1 0.742943 0.0961461 0.499078
443 1 0.410145 0.505465 0.0852905
162 1 0.755153 0.0897036 0.327973
164 1 0.6728 0.0938725 0.409715
168 1 0.815799 0.0876563 0.410884
14 1 0.578407 0.0857416 -0.00413322
79 1 0.259598 0.00858133 0.266522
208 1 0.49585 0.401318 0.413897
285 1 0.830908 0.329006 0.506841
191 1 0.912716 0.176772 0.413226
166 1 0.907861 0.0822702 0.339042
195 1 0.0792326 0.32853 0.420719
171 1 0.104978 0.188548 0.421303
170 1 0.102057 0.251223 0.329407
172 1 0.0078415 0.253667 0.409815
176 1 0.171006 0.272437 0.408938
199 1 0.263036 0.339976 0.41252
174 1 0.256043 0.255874 0.326383
73 1 0.00508497 0.00392793 0.173713
178 1 0.413516 0.252646 0.328806
180 1 0.332346 0.249158 0.424324
184 1 0.493664 0.244512 0.406503
197 1 0.181711 0.333163 0.321639
167 1 0.908108 0.00348602 0.417058
525 1 0.835862 0.503534 0.157716
200 1 0.16069 0.40247 0.408516
207 1 0.575857 0.321132 0.417329
182 1 0.57936 0.242974 0.338817
185 1 0.666741 0.168549 0.329323
188 1 0.670202 0.250238 0.405488
209 1 0.663377 0.326637 0.324696
187 1 0.750831 0.171394 0.401748
192 1 0.817657 0.248666 0.428382
281 1 0.658548 0.34123 0.49703
198 1 0.249559 0.431391 0.336135
189 1 0.836656 0.173789 0.324825
190 1 0.91529 0.240955 0.333321
215 1 0.905411 0.326853 0.422406
196 1 -0.00273141 0.418216 0.419791
433 1 0.00152788 0.491294 0.0123972
17 1 0.661828 -0.000596523 0.0224851
29 1 0.174045 0.173239 0.00515232
269 1 0.168265 0.3373 0.505407
249 1 0.337572 0.171885 0.491185
266 1 0.0843241 0.414539 0.484258
33 1 0.313539 0.156475 0.00161526
277 1 0.494927 0.326141 0.490006
253 1 0.495689 0.175686 0.491378
9 1 0.337799 -0.00397474 0.00751443
57 1 0.322481 0.331501 -3.16313e-06
5 1 0.160946 -0.00170229 0.00853133
25 1 0.00612455 0.170769 0.00438756
282 1 0.741405 0.418771 0.49114
34 1 0.406066 0.239521 0.00321199
218 1 0.0815811 0.0940099 0.497027
42 1 0.753435 0.2443 0.00174118
217 1 0.00302523 0.00972239 0.475134
254 1 0.579518 0.239839 0.488308
65 1 0.668537 0.317226 0.0115773
278 1 0.578049 0.411758 0.487163
243 1 0.0920485 0.185947 0.587509
290 1 0.0784827 0.103974 0.654053
237 1 0.823695 0.016137 0.500828
274 1 0.420446 0.421812 0.520413
224 1 0.152689 0.0876447 0.584881
321 1 0.336888 0.168207 0.667237
661 1 0.503557 0.495116 0.498961
228 1 0.328119 0.0913481 0.579251
232 1 0.486726 0.0866967 0.589868
325 1 0.486533 0.169973 0.666469
739 1 0.750071 0.495914 0.749367
236 1 0.650104 0.106132 0.591891
302 1 0.575597 0.10185 0.668858
231 1 0.582128 0.0131616 0.581068
240 1 0.804683 0.0805788 0.605274
815 1 0.93691 0.493798 0.924037
365 1 0.15682 0.00275463 0.808502
306 1 0.726008 0.0902315 0.666464
333 1 0.823623 0.173689 0.648488
383 1 0.922409 0.000925807 0.903319
220 1 0.000388108 0.0858527 0.580547
263 1 0.910137 0.159489 0.583192
667 1 0.755141 0.495213 0.580467
430 1 0.935571 0.404648 0.827407
743 1 0.912069 0.483102 0.74184
729 1 0.339556 0.500619 0.675276
314 1 0.0998258 0.264973 0.661462
337 1 0.997681 0.334839 0.665264
247 1 0.248121 0.174073 0.594483
248 1 0.185683 0.255448 0.582083
318 1 0.260083 0.259425 0.669672
251 1 0.410138 0.172142 0.578101
252 1 0.335903 0.254524 0.591852
322 1 0.419645 0.253382 0.655835
256 1 0.496352 0.255035 0.575255
255 1 0.566935 0.180187 0.578524
260 1 0.648804 0.248067 0.570277
329 1 0.660202 0.178362 0.677003
326 1 0.56721 0.245848 0.65769
259 1 0.743944 0.172411 0.585155
264 1 0.823971 0.249353 0.57259
357 1 0.828429 0.330418 0.659121
239 1 0.913113 0.0227942 0.580097
244 1 1.00048 0.251317 0.586547
334 1 0.907346 0.249148 0.656252
267 1 0.0762405 0.357301 0.571322
268 1 0.987811 0.420701 0.573416
338 1 0.0920851 0.40003 0.670753
245 1 0.182784 0.179592 0.507379
250 1 0.412503 0.250813 0.502807
219 1 0.0742069 0.00560629 0.58848
271 1 0.264804 0.353907 0.584755
272 1 0.162283 0.419317 0.573759
341 1 0.183521 0.340518 0.666813
10 1 0.406094 0.0834896 1.00736
805 1 0.488357 0.491642 0.83976
22 1 0.90008 0.0640572 0.995619
793 1 -0.00713776 0.507427 0.817175
275 1 0.419268 0.335527 0.582829
276 1 0.335426 0.431983 0.586607
280 1 0.505339 0.407864 0.592712
279 1 0.573614 0.328205 0.589691
284 1 0.652003 0.417876 0.579742
283 1 0.740477 0.338057 0.566216
288 1 0.823674 0.409602 0.58508
418 1 0.402909 0.414026 0.835419
803 1 0.413679 0.502182 0.924729
813 1 0.840998 0.492715 0.836192
417 1 0.323722 0.337464 0.832114
287 1 0.921393 0.326688 0.573471
663 1 0.578146 0.488421 0.580773
424 1 0.498357 0.409511 0.93129
415 1 0.242218 0.336995 0.916729
2 1 0.0844715 0.0855967 0.997925
671 1 0.903647 0.498496 0.576604
362 1 0.0829189 0.0908625 0.829183
317 1 0.171151 0.174415 0.670196
294 1 0.269449 0.0735631 0.662013
296 1 0.169602 0.0758774 0.721237
319 1 0.249752 0.163592 0.746876
393 1 0.328734 0.16884 0.824517
262 1 0.92364 0.247959 0.499967
420 1 0.329734 0.415874 0.919156
300 1 0.345776 0.0860833 0.741686
298 1 0.417439 0.0818848 0.667732
304 1 0.494873 0.0949263 0.743028
323 1 0.417453 0.160708 0.746864
432 1 0.845473 0.421834 0.913433
374 1 0.579947 0.0880789 0.826007
308 1 0.663558 0.0877212 0.761292
422 1 0.57214 0.413097 0.84707
377 1 0.648988 -0.00519936 0.841125
331 1 0.734611 0.175547 0.749284
241 1 0.00187287 0.176327 0.507828
310 1 0.907888 0.0908583 0.670062
312 1 0.830954 0.0826173 0.753861
292 1 0.996341 0.0921356 0.732742
335 1 0.921179 0.17961 0.765496
315 1 0.0868751 0.153016 0.747645
339 1 0.0864124 0.32522 0.75126
409 1 1.00167 0.320848 0.847309
320 1 0.177832 0.256919 0.748296
324 1 0.322107 0.260546 0.747962
328 1 0.49596 0.261141 0.745992
397 1 0.488001 0.16253 0.840608
327 1 0.583197 0.176738 0.753072
332 1 0.646092 0.264606 0.756284
351 1 0.577279 0.348402 0.740729
425 1 0.6518 0.3307 0.836239
398 1 0.573434 0.252404 0.82989
330 1 0.738415 0.25436 0.660359
402 1 0.741678 0.267137 0.843518
355 1 0.729851 0.336912 0.743741
313 1 -0.0113388 0.171721 0.650777
336 1 0.837339 0.255912 0.743645
316 1 0.00982458 0.243503 0.742552
359 1 0.924755 0.330531 0.748138
651 1 0.081994 0.493738 0.574134
61 1 0.481908 0.322402 0.998294
344 1 0.168673 0.423135 0.747108
741 1 0.837318 0.489851 0.658556
229 1 0.490767 -0.00176634 0.498587
342 1 0.25199 0.416243 0.673552
343 1 0.249034 0.340656 0.748568
348 1 0.320714 0.422235 0.7571
345 1 0.34409 0.338463 0.665746
347 1 0.417528 0.341229 0.748143
346 1 0.426047 0.428646 0.657315
421 1 0.495752 0.338532 0.837512
353 1 0.656131 0.333555 0.659731
349 1 0.501436 0.338081 0.674185
352 1 0.50736 0.425056 0.753622
350 1 0.59664 0.424574 0.674742
429 1 0.822892 0.327168 0.851631
354 1 0.74684 0.42316 0.654164
356 1 0.65177 0.419497 0.767124
426 1 0.747749 0.410387 0.839902
340 1 -0.00473364 0.417236 0.741777
360 1 0.82808 0.390126 0.761074
358 1 0.913967 0.412879 0.657228
427 1 0.737089 0.330007 0.925952
225 1 0.32969 0.00526355 0.49849
364 1 0.000492189 0.0845522 0.912963
387 1 0.096639 0.177765 0.916634
309 1 0.818035 0.00330058 0.677221
366 1 0.262002 0.0838608 0.819415
389 1 0.17271 0.146281 0.827173
368 1 0.165269 0.0571812 0.909295
391 1 0.249487 0.155764 0.920594
6 1 0.251807 0.0782934 1.00111
370 1 0.420488 0.0729552 0.83871
372 1 0.333478 0.0844036 0.907136
361 1 0.987056 0.00914704 0.820377
66 1 0.744527 0.422459 0.989758
807 1 0.582617 0.495977 0.929738
376 1 0.497112 0.0858266 0.917641
380 1 0.655035 0.094858 0.921371
295 1 0.259809 0.0172117 0.748097
655 1 0.251122 0.499629 0.596794
378 1 0.746074 0.0918534 0.842195
384 1 0.827903 0.0602345 0.922167
401 1 0.663546 0.170682 0.833476
414 1 0.232937 0.42869 0.82803
382 1 0.906321 0.0940857 0.830352
385 1 1.00803 0.171423 0.834367
386 1 0.0837641 0.249687 0.83289
388 1 0.0132587 0.249141 0.927711
413 1 0.172554 0.340069 0.831313
412 1 0.0211727 0.425585 0.89888
390 1 0.242428 0.239081 0.836446
392 1 0.167504 0.255999 0.909601
395 1 0.411194 0.160365 0.915141
396 1 0.344399 0.253652 0.912108
394 1 0.412909 0.251001 0.823282
400 1 0.482436 0.244044 0.924556
428 1 0.659276 0.416947 0.915814
411 1 0.083161 0.328963 0.923128
307 1 0.74851 0.00579856 0.764388
399 1 0.581759 0.179375 0.912637
242 1 0.0836754 0.247329 0.504824
404 1 0.659757 0.255123 0.913124
403 1 0.742095 0.167185 0.912504
423 1 0.575286 0.328998 0.920312
405 1 0.819503 0.172765 0.843451
408 1 0.823476 0.24601 0.918321
407 1 0.911014 0.158794 0.924284
406 1 0.921463 0.243098 0.845812
431 1 0.905233 0.327911 0.920016
410 1 0.0892457 0.407416 0.815404
419 1 0.404806 0.341547 0.923449
416 1 0.15922 0.424056 0.922784
373 1 0.517207 0.00898639 0.839953
809 1 0.665486 0.506785 0.829404
69 1 0.830395 0.337073 0.994025
265 1 0.989453 0.324946 0.499777
735 1 0.586893 0.501331 0.758486
45 1 0.827634 0.152864 0.997558
53 1 0.157969 0.349904 0.995996
37 1 0.48902 0.172353 1.00135
246 1 0.253035 0.282682 0.507138
233 1 0.655344 0.0341921 0.500848
50 1 0.0722687 0.418191 0.99974
257 1 0.649742 0.166207 0.494834
1 1 0.0088282 0.00343053 0.993234
49 1 0.987573 0.339982 0.990986
286 1 0.907377 0.41022 0.506538
46 1 0.912174 0.24138 0.995516
58 1 0.406546 0.419227 0.997039
261 1 0.826695 0.158611 0.507615
38 1 0.577811 0.25922 0.995101
18 1 0.74587 0.0872874 0.992617
459 1 0.087664 0.66274 0.0904392
445 1 0.497909 0.490814 0.00343239
521 1 0.676805 0.512484 0.157322
694 1 0.912823 0.7635 0.492832
440 1 0.169051 0.581421 0.0808527
625 1 0.999409 0.845416 0.331919
509 1 0.162783 0.498813 0.168012
444 1 0.331184 0.58177 0.0886451
493 1 0.493705 0.833776 0.0102786
647 1 0.915881 0.846501 0.40742
11 1 0.39972 1.00058 0.0958602
448 1 0.489652 0.575382 0.0776504
452 1 0.663794 0.584381 0.0788254
646 1 0.920274 0.929521 0.337286
7 1 0.256802 0.999704 0.0820364
522 1 0.756636 0.596242 0.18258
456 1 0.832657 0.593052 0.0942104
77 1 0.158543 0.99825 0.158783
436 1 0.00962002 0.581691 0.0849167
648 1 0.837163 0.920549 0.420131
526 1 0.91026 0.576972 0.168489
658 1 0.414568 0.574564 0.495189
529 1 0.00753116 0.660033 0.156748
581 1 0.165673 0.499725 0.350927
464 1 0.168768 0.772379 0.0710346
483 1 0.0846822 0.831325 0.0824663
455 1 0.923006 0.504004 0.0800333
165 1 0.825697 0.9939 0.336381
463 1 0.251093 0.660634 0.101132
468 1 0.314371 0.740772 0.0784771
674 1 0.0801561 0.762591 0.502059
487 1 0.251625 0.841436 0.0913998
537 1 0.320992 0.675957 0.179263
467 1 0.414111 0.66786 0.10607
472 1 0.492471 0.756845 0.0948732
538 1 0.433888 0.748556 0.181084
585 1 0.350583 0.506075 0.342621
457 1 0.00746548 0.663726 0.00394753
471 1 0.591321 0.675596 0.0815287
541 1 0.514791 0.672768 0.183614
542 1 0.603633 0.748843 0.162206
476 1 0.673684 0.760729 0.075021
475 1 0.745628 0.679851 0.0908162
546 1 0.769595 0.756108 0.163918
673 1 0.000792758 0.68381 0.49877
479 1 0.910724 0.662055 0.0771857
480 1 0.837072 0.746422 0.0764791
460 1 0.00804431 0.754667 0.0792942
503 1 0.920715 0.825402 0.0854324
645 1 0.842446 0.842286 0.325747
641 1 0.655268 0.847436 0.348607
488 1 0.164782 0.91909 0.0859819
484 1 1.004 0.905681 0.069872
446 1 0.578001 0.576079 0.0075917
95 1 0.922937 1.00198 0.245453
492 1 0.336755 0.921544 0.104932
561 1 0.335302 0.821145 0.166327
558 1 0.252096 0.908606 0.18173
466 1 0.41122 0.74225 0.010048
595 1 0.752778 0.505389 0.415272
589 1 0.512012 0.497492 0.329405
491 1 0.411949 0.826895 0.0821953
495 1 0.570138 0.828134 0.0910253
496 1 0.499848 0.913132 0.104595
566 1 0.580213 0.911086 0.173476
469 1 0.50987 0.668974 0.00693156
500 1 0.655633 0.905959 0.0937114
499 1 0.754885 0.82739 0.0797829
570 1 0.729803 0.929538 0.169637
569 1 0.669306 0.835459 0.180762
573 1 0.844132 0.835507 0.165159
504 1 0.841353 0.9096 0.0808904
574 1 0.913207 0.924982 0.160322
630 1 0.262297 0.915651 0.338611
506 1 0.0845494 0.575365 0.167979
685 1 0.512352 0.66461 0.491108
531 1 0.0703285 0.659019 0.2575
533 1 0.163986 0.662329 0.161979
638 1 0.579123 0.931983 0.355363
510 1 0.240103 0.57475 0.166032
512 1 0.150831 0.595821 0.255939
516 1 0.332671 0.566735 0.236696
514 1 0.415845 0.573539 0.169997
586 1 0.42741 0.577854 0.339602
520 1 0.512673 0.575256 0.252167
518 1 0.576607 0.585192 0.158934
617 1 0.682381 0.669443 0.35142
590 1 0.588031 0.572008 0.336508
705 1 0.335532 0.823618 0.482693
524 1 0.668259 0.582841 0.251572
528 1 0.840001 0.586384 0.264465
639 1 0.585857 0.838313 0.433086
594 1 0.750935 0.588615 0.33445
644 1 0.657215 0.930223 0.443826
85 1 0.49805 0.994506 0.178291
508 1 1.00398 0.570441 0.246468
551 1 0.932781 0.659787 0.245993
598 1 0.934991 0.595244 0.336113
631 1 0.24446 0.820753 0.416249
557 1 0.169607 0.825523 0.180125
530 1 0.0757599 0.753166 0.159923
536 1 0.150157 0.738581 0.24412
602 1 0.0832257 0.756617 0.336649
553 1 0.00444443 0.836027 0.161549
534 1 0.240507 0.74919 0.156894
535 1 0.245452 0.689444 0.246289
606 1 0.264131 0.722895 0.351085
540 1 0.346969 0.760695 0.258148
539 1 0.426751 0.661458 0.243965
563 1 0.425397 0.830142 0.268242
613 1 0.50771 0.656014 0.334093
565 1 0.520289 0.805164 0.184154
543 1 0.590799 0.672014 0.265995
544 1 0.504417 0.754454 0.280382
548 1 0.678702 0.749657 0.25575
618 1 0.738743 0.764175 0.342066
545 1 0.672124 0.657045 0.178624
547 1 0.7475 0.666385 0.251406
552 1 0.835342 0.759464 0.250236
549 1 0.844369 0.680387 0.169992
550 1 0.935211 0.753046 0.160019
621 1 0.842492 0.655034 0.346954
532 1 0.00610528 0.768025 0.254777
622 1 0.919743 0.761845 0.333272
554 1 0.0855979 0.917375 0.162321
555 1 0.0921871 0.838918 0.255523
560 1 0.168273 0.93112 0.245523
559 1 0.244999 0.821616 0.258254
564 1 0.339761 0.891646 0.250652
515 1 0.413995 0.498222 0.248902
3 1 0.0750837 0.988591 0.0828992
562 1 0.426832 0.913824 0.182577
636 1 0.33556 0.911847 0.41767
634 1 0.416015 0.919899 0.340542
568 1 0.503401 0.907244 0.264408
567 1 0.590555 0.828976 0.262519
635 1 0.425461 0.835867 0.417302
642 1 0.748334 0.912968 0.327955
571 1 0.751653 0.826506 0.26146
572 1 0.658619 0.916795 0.251855
556 1 0.00421346 0.91112 0.251238
640 1 0.497788 0.914024 0.421554
576 1 0.843708 0.917775 0.250566
575 1 0.92776 0.839155 0.24241
632 1 0.171921 0.924855 0.40643
578 1 0.0888187 0.589413 0.346544
605 1 0.164582 0.671058 0.333552
580 1 0.992491 0.581065 0.423774
603 1 0.0880877 0.677053 0.426749
633 1 0.337681 0.829684 0.344122
637 1 0.501321 0.844702 0.342004
584 1 0.155689 0.577215 0.430647
582 1 0.2392 0.604224 0.326559
155 1 0.409907 0.995749 0.41303
702 1 0.241431 0.927064 0.498371
511 1 0.241775 0.506377 0.265125
588 1 0.334166 0.578703 0.41895
93 1 0.830323 0.998893 0.159385
626 1 0.0936918 0.935774 0.328767
23 1 0.928029 0.985398 0.0669776
592 1 0.515626 0.573122 0.424521
615 1 0.583155 0.663923 0.409926
434 1 0.0867683 0.592962 0.00104132
461 1 0.172999 0.675584 0.00512373
596 1 0.659715 0.581189 0.408019
600 1 0.842971 0.595304 0.42599
619 1 0.755064 0.677238 0.421477
161 1 0.660396 0.995271 0.337056
628 1 0.00964611 0.921586 0.395712
627 1 0.087777 0.853463 0.413211
608 1 0.169974 0.746915 0.412044
577 1 -0.0140468 0.505868 0.335742
607 1 0.253723 0.646878 0.427015
474 1 0.754683 0.740822 -0.0013526
609 1 0.342652 0.65396 0.311499
612 1 0.339693 0.745944 0.415418
438 1 0.251981 0.585077 -0.00367736
610 1 0.410773 0.744654 0.334215
611 1 0.41649 0.661876 0.40826
616 1 0.500965 0.744989 0.410017
629 1 0.172127 0.818894 0.331075
614 1 0.582103 0.747603 0.351024
620 1 0.677311 0.756483 0.428816
701 1 0.167291 0.841063 0.489887
597 1 0.845885 0.51556 0.333837
643 1 0.734368 0.842386 0.42535
678 1 0.25462 0.744648 0.484481
601 1 -0.00264793 0.673645 0.340001
465 1 0.337145 0.662349 0.00061537
623 1 0.915129 0.686994 0.419822
604 1 0.00815936 0.770168 0.417046
624 1 0.832999 0.768288 0.405807
470 1 0.589377 0.761031 0.00197804
439 1 0.246275 0.501297 0.0905939
453 1 0.84284 0.504051 0.00514235
81 1 0.327531 0.98815 0.188965
83 1 0.427607 0.994847 0.259907
523 1 0.761866 0.505987 0.25789
163 1 0.736441 0.992546 0.409873
451 1 0.745862 0.500048 0.0735456
583 1 0.257661 0.498034 0.41113
579 1 0.0715659 0.498596 0.431542
441 1 0.335883 0.501507 0.00379655
91 1 0.756527 0.997713 0.249601
75 1 0.0850564 0.991457 0.243111
717 1 0.827551 0.832976 0.488578
698 1 0.0922836 0.93986 0.490321
650 1 0.0832305 0.587525 0.509512
657 1 0.341014 0.501946 0.496882
489 1 0.32311 0.836356 0.0118723
677 1 0.17823 0.670781 0.496375
494 1 0.578292 0.913004 0.0150604
490 1 0.409032 0.912968 0.0192763
686 1 0.591059 0.740992 0.48892
654 1 0.251991 0.564026 0.501431
682 1 0.431517 0.735602 0.499717
689 1 0.669177 0.663766 0.484814
498 1 0.733108 0.911088 0.00691751
449 1 0.6695 0.504677 -0.00463557
681 1 0.339546 0.656136 0.489744
450 1 0.753808 0.592676 0.00126133
437 1 0.178953 0.501442 -0.00130079
665 1 0.664626 0.5051 0.483547
666 1 0.743315 0.581409 0.490864
656 1 0.163329 0.569265 0.575058
652 1 0.00493304 0.593738 0.58231
675 1 0.0824896 0.680573 0.566401
662 1 0.587844 0.582474 0.499833
811 1 0.749436 0.497697 0.908477
660 1 0.328949 0.576187 0.580757
727 1 0.247324 0.498639 0.746619
749 1 0.160556 0.684369 0.662919
679 1 0.248538 0.65205 0.575191
501 1 0.822913 0.820725 0.996641
706 1 0.412093 0.912661 0.503314
227 1 0.422834 0.992512 0.589987
664 1 0.504946 0.579963 0.571739
668 1 0.665863 0.573622 0.579545
864 1 0.842572 0.906265 0.922658
734 1 0.585648 0.567427 0.664539
723 1 0.0754782 0.516037 0.728111
691 1 0.737904 0.652525 0.577671
738 1 0.756827 0.586504 0.665066
765 1 0.826803 0.667579 0.651202
672 1 0.826101 0.57197 0.587384
676 1 0.991369 0.759329 0.578112
746 1 0.0851191 0.758912 0.647084
773 1 0.172873 0.835293 0.653181
369 1 0.340102 0.98511 0.837704
680 1 0.161348 0.746525 0.564629
684 1 0.332878 0.737933 0.5624
777 1 0.346683 0.835411 0.649916
703 1 0.238283 0.8526 0.568936
683 1 0.416244 0.652625 0.578099
781 1 0.505194 0.82789 0.654977
688 1 0.518846 0.736547 0.569185
687 1 0.599904 0.660642 0.590646
711 1 0.593371 0.823955 0.590163
692 1 0.669384 0.744127 0.582894
758 1 0.577948 0.742892 0.677918
715 1 0.751111 0.825848 0.588192
762 1 0.754571 0.743094 0.66365
761 1 0.664803 0.664205 0.676299
801 1 0.336489 0.493942 0.833296
695 1 0.916815 0.668694 0.59137
696 1 0.844274 0.753292 0.591989
789 1 0.830744 0.829012 0.660354
291 1 0.0807799 1.0058 0.734066
299 1 0.435213 0.986064 0.760069
858 1 0.744646 0.919337 0.8466
699 1 0.106671 0.850594 0.573841
700 1 0.986438 0.935814 0.592413
477 1 0.827838 0.658137 0.993649
704 1 0.168269 0.931238 0.570304
708 1 0.336207 0.916041 0.577876
725 1 0.165065 0.502022 0.665943
303 1 0.579353 0.991175 0.749653
669 1 0.823884 0.51434 0.498418
707 1 0.428658 0.824206 0.577626
712 1 0.494743 0.912821 0.586685
301 1 0.502275 0.997668 0.670968
485 1 0.161043 0.836729 0.984713
782 1 0.589829 0.907813 0.662614
860 1 0.662601 0.913728 0.919842
442 1 0.419676 0.582532 1.00203
716 1 0.660754 0.922241 0.581062
481 1 0.00576546 0.825979 0.988481
719 1 0.91043 0.846499 0.583123
720 1 0.825376 0.932539 0.603918
795 1 0.0950966 0.512369 0.923223
722 1 0.0850225 0.599797 0.652372
747 1 0.0766753 0.670758 0.735906
728 1 0.156314 0.59727 0.746346
724 1 0.98594 0.576019 0.7389
726 1 0.268703 0.583977 0.675158
753 1 0.335901 0.668626 0.655245
751 1 0.25986 0.683175 0.733954
732 1 0.33304 0.601898 0.755512
293 1 0.190602 0.982288 0.667852
730 1 0.396913 0.593349 0.663871
829 1 0.510041 0.66244 0.833031
755 1 0.435892 0.658411 0.756679
454 1 0.936163 0.586786 0.998756
305 1 0.659236 0.993451 0.671115
736 1 0.504801 0.578207 0.76129
759 1 0.585855 0.656725 0.753994
833 1 0.668534 0.659989 0.834823
379 1 0.736809 1.00696 0.920414
740 1 0.666692 0.578881 0.744108
810 1 0.73786 0.581806 0.817443
745 1 0.993205 0.666503 0.670634
744 1 0.834354 0.571943 0.748217
742 1 0.909332 0.573704 0.653199
814 1 0.921183 0.584841 0.833717
771 1 0.0920609 0.828101 0.742827
817 1 1.00135 0.660446 0.813854
818 1 0.0907543 0.752586 0.810154
752 1 0.171802 0.752424 0.736268
750 1 0.265029 0.745051 0.652742
849 1 0.342048 0.829136 0.835263
756 1 0.373976 0.750471 0.744415
845 1 0.179536 0.822104 0.819824
754 1 0.430861 0.739986 0.644204
779 1 0.426793 0.845099 0.756964
826 1 0.425718 0.737044 0.838491
760 1 0.501224 0.752559 0.747697
757 1 0.505261 0.646041 0.654473
764 1 0.667317 0.737628 0.749041
783 1 0.588611 0.828188 0.760447
857 1 0.668847 0.826458 0.823199
834 1 0.760491 0.749043 0.826258
763 1 0.761434 0.672926 0.74458
787 1 0.761389 0.824028 0.758688
768 1 0.838591 0.751686 0.730264
766 1 0.930675 0.763502 0.673434
767 1 0.901087 0.646127 0.72736
748 1 0.00265257 0.745866 0.748724
791 1 0.928531 0.833337 0.747022
770 1 0.0831127 0.924303 0.65
842 1 0.081348 0.903969 0.829667
772 1 -5.10555e-05 0.912174 0.747997
797 1 0.150342 0.510433 0.827599
21 1 0.816435 0.98192 0.996426
775 1 0.267445 0.814556 0.742849
776 1 0.174264 0.897249 0.738566
774 1 0.276474 0.914541 0.675323
778 1 0.429809 0.903934 0.674184
780 1 0.348172 0.917839 0.75342
502 1 0.929137 0.910096 0.985466
854 1 0.569194 0.911011 0.84498
784 1 0.516735 0.912657 0.746918
788 1 0.671374 0.916361 0.759988
649 1 0.993022 0.511088 0.511319
785 1 0.670225 0.831129 0.681034
786 1 0.750303 0.908329 0.678237
792 1 0.833516 0.912893 0.745769
790 1 0.917146 0.904468 0.671321
841 1 0.0182768 0.82879 0.817487
769 1 0.0213889 0.838777 0.648546
862 1 0.909493 0.903654 0.822567
733 1 0.499805 0.502479 0.675265
794 1 0.0828925 0.598399 0.829026
821 1 0.189407 0.664391 0.836296
800 1 0.16749 0.583614 0.927817
796 1 0.00249344 0.58573 0.907868
819 1 0.089621 0.679938 0.897364
486 1 0.240154 0.918252 0.997584
235 1 0.736552 1.00194 0.585896
823 1 0.25016 0.658113 0.921181
798 1 0.25876 0.586247 0.825275
825 1 0.344985 0.66645 0.850195
804 1 0.333501 0.585516 0.92371
802 1 0.41807 0.586391 0.844535
808 1 0.506688 0.588425 0.923994
827 1 0.429643 0.663732 0.922042
371 1 0.429969 0.993832 0.923428
806 1 0.585499 0.572619 0.83872
831 1 0.595037 0.662104 0.929275
812 1 0.669736 0.588674 0.925336
846 1 0.252062 0.926902 0.825644
847 1 0.25452 0.847883 0.901046
478 1 0.910967 0.750519 0.989334
363 1 0.0689759 0.991927 0.903962
856 1 0.491703 0.907491 0.930906
816 1 0.845951 0.574041 0.917996
820 1 0.00379887 0.746636 0.897709
721 1 0.0024147 0.507805 0.646414
822 1 0.270321 0.737838 0.827877
824 1 0.187584 0.753992 0.908448
852 1 0.333977 0.917291 0.918842
851 1 0.405089 0.827524 0.933472
828 1 0.326579 0.741318 0.91855
297 1 0.348001 0.995138 0.677661
850 1 0.426474 0.909521 0.839758
836 1 0.67761 0.752351 0.904252
830 1 0.586911 0.740216 0.835249
855 1 0.578774 0.837627 0.931502
832 1 0.493292 0.749569 0.924389
853 1 0.4927 0.822346 0.836602
693 1 0.836279 0.669427 0.503149
289 1 0.995614 0.996134 0.680855
859 1 0.75073 0.820624 0.917893
837 1 0.825566 0.648972 0.849842
840 1 0.836049 0.75868 0.912184
835 1 0.739583 0.664923 0.916081
863 1 0.927336 0.825779 0.909658
659 1 0.419258 0.510801 0.589199
838 1 0.914162 0.741556 0.838625
839 1 0.915501 0.665326 0.918065
861 1 0.829321 0.8379 0.841673
737 1 0.671028 0.504932 0.666253
843 1 0.07919 0.82567 0.907575
848 1 0.168684 0.920582 0.897429
844 1 0.986875 0.915644 0.893949
375 1 0.583224 0.991516 0.930843
482 1 0.0828049 0.918338 0.988893
367 1 0.247999 0.9895 0.908792
731 1 0.414788 0.514858 0.763897
497 1 0.682678 0.822024 0.992145
223 1 0.266279 1.00081 0.588441
381 1 0.826201 0.989 0.843483
709 1 0.501173 0.829657 0.505656
799 1 0.262385 0.497269 0.908836
718 1 0.917102 0.936649 0.511632
311 1 0.902692 0.997299 0.756576
710 1 0.565027 0.918622 0.495078
714 1 0.74453 0.923698 0.501124
697 1 0.00163695 0.857051 0.520889
473 1 0.675416 0.676546 1.00268
458 1 0.0902214 0.747952 0.987383
670 1 0.925771 0.601693 0.509163
713 1 0.660601 0.841378 0.509247
462 1 0.245552 0.753301 0.993701
690 1 0.750535 0.753473 0.500404
