ITEM: TIMESTEP
20800
ITEM: NUMBER OF ATOMS
864
ITEM: BOX BOUNDS pp pp pp
0.0000000000000000e+00 3.1559999999999999e+01
0.0000000000000000e+00 3.1559999999999999e+01
0.0000000000000000e+00 3.1559999999999999e+01
ITEM: ATOMS id type xs ys zs
8 1 0.177834 0.0905999 0.0825095
87 1 0.581504 0.0313233 0.241977
4 1 0.0057886 0.0887072 0.0820426
447 1 0.572581 0.502873 0.074702
12 1 0.332813 0.104068 0.0818062
31 1 0.257287 0.178711 0.0914548
78 1 0.266749 0.0785592 0.15405
155 1 0.417445 -0.000323004 0.412255
583 1 0.250328 0.492867 0.418639
16 1 0.484329 0.0971355 0.0704443
14 1 0.572063 0.106659 9.82762e-05
193 1 -0.000705448 0.331804 0.346267
20 1 0.648857 0.102126 0.0865039
43 1 0.757294 0.174423 0.0856925
513 1 0.338427 0.499761 0.167373
24 1 0.833692 0.0921115 0.0891351
47 1 0.91593 0.148713 0.0720296
439 1 0.233688 0.50882 0.103698
27 1 0.091553 0.176396 0.0759495
28 1 1.01291 0.242844 0.0756334
7 1 0.245574 -0.00684219 0.0761484
101 1 0.167114 0.162145 0.159215
32 1 0.18108 0.256913 0.0796604
55 1 0.251099 0.334489 0.0696479
595 1 0.756052 0.504811 0.431437
36 1 0.338002 0.268473 0.0882288
35 1 0.404832 0.182186 0.0716316
59 1 0.423216 0.344393 0.0853578
40 1 0.499986 0.255227 0.0738784
106 1 0.415548 0.255807 0.159176
133 1 0.505271 0.327959 0.172807
39 1 0.574382 0.173325 0.0775629
110 1 0.585507 0.256747 0.177563
44 1 0.67077 0.252223 0.0844158
67 1 0.755104 0.322504 0.0953166
114 1 0.756234 0.251684 0.162642
30 1 0.258324 0.250559 -0.00398729
222 1 0.233117 0.0832592 0.503487
48 1 0.839363 0.237317 0.0779061
117 1 0.834853 0.168906 0.174213
118 1 0.928879 0.225038 0.151934
579 1 0.0749032 0.49711 0.414016
599 1 0.913563 0.505508 0.410654
51 1 0.0844044 0.336929 0.0855351
215 1 0.915964 0.340327 0.410157
151 1 0.257358 -0.000794226 0.404677
661 1 0.507808 0.509317 0.512734
587 1 0.420071 0.500709 0.426635
73 1 0.993908 0.0091761 0.159655
56 1 0.166265 0.424682 0.0814447
60 1 0.343632 0.421554 0.0798262
19 1 0.739929 0.0136742 0.0913705
593 1 0.660856 0.49883 0.334726
64 1 0.50911 0.401515 0.0832597
130 1 0.409187 0.419274 0.173032
581 1 0.172846 0.487446 0.330246
63 1 0.588575 0.331371 0.084999
137 1 0.66645 0.330719 0.165054
68 1 0.669349 0.407348 0.0815759
589 1 0.50691 0.51178 0.328805
71 1 0.940085 0.330403 0.0663715
196 1 1.0061 0.419695 0.427898
577 1 1.00098 0.48622 0.333679
52 1 0.00079098 0.416463 0.0713834
72 1 0.837151 0.417802 0.0834963
149 1 0.159621 -0.00193423 0.335524
74 1 0.0896177 0.0806551 0.154193
76 1 -0.00932882 0.0848056 0.243581
97 1 1.00796 0.169167 0.162942
211 1 0.754751 0.340277 0.438952
80 1 0.160212 0.0855007 0.247527
103 1 0.248718 0.165944 0.234109
84 1 0.339377 0.0892783 0.234663
150 1 0.248979 0.0711303 0.319709
82 1 0.419049 0.0897974 0.16163
107 1 0.408396 0.172586 0.238291
154 1 0.412977 0.0670691 0.316802
216 1 0.820182 0.423589 0.416888
86 1 0.571422 0.101102 0.15467
88 1 0.485786 0.0821738 0.235077
90 1 0.742217 0.0865556 0.173906
208 1 0.505969 0.425757 0.415371
92 1 0.674167 0.0985284 0.256854
94 1 0.920529 0.0955697 0.166512
96 1 0.828202 0.0930133 0.256464
119 1 0.918198 0.176349 0.256482
99 1 0.0777591 0.162133 0.24507
98 1 0.0862302 0.255725 0.156086
100 1 0.00220225 0.239124 0.248111
123 1 0.0774734 0.334345 0.251603
170 1 0.0860918 0.248173 0.333647
102 1 0.253996 0.259074 0.169835
105 1 0.339849 0.187171 0.159054
104 1 0.161045 0.252232 0.238848
109 1 0.494149 0.185208 0.158724
108 1 0.342721 0.251011 0.258524
112 1 0.502739 0.240342 0.270057
111 1 0.56943 0.156099 0.250189
181 1 0.460337 0.15463 0.350658
135 1 0.582345 0.335244 0.244742
115 1 0.750985 0.173599 0.248356
113 1 0.659179 0.160043 0.166532
116 1 0.674683 0.249542 0.235453
139 1 0.747527 0.336242 0.24182
186 1 0.73481 0.256265 0.327541
120 1 0.850509 0.264065 0.24579
143 1 0.947372 0.326081 0.255181
189 1 0.8357 0.181589 0.344115
169 1 -0.000949857 0.155063 0.335811
122 1 0.0936618 0.418755 0.158512
125 1 0.16837 0.332607 0.16752
126 1 0.245995 0.41769 0.156978
89 1 0.656251 0.00944809 0.168247
129 1 0.327516 0.336634 0.164986
127 1 0.264209 0.328215 0.251507
128 1 0.159843 0.404285 0.247042
131 1 0.420081 0.332527 0.242466
132 1 0.328815 0.420699 0.247946
136 1 0.499562 0.406911 0.246911
212 1 0.661806 0.424959 0.424091
134 1 0.590195 0.414164 0.164052
206 1 0.592245 0.417329 0.330879
91 1 0.753913 0.0162022 0.245033
141 1 0.842571 0.32077 0.154481
140 1 0.674007 0.418355 0.231359
210 1 0.738867 0.425239 0.338531
138 1 0.756938 0.410441 0.155155
144 1 0.81922 0.423327 0.260091
214 1 0.916565 0.410525 0.327373
121 1 -0.00118204 0.338871 0.157711
124 1 0.000242709 0.412498 0.232657
142 1 0.917316 0.415489 0.159038
146 1 0.0851947 0.0879405 0.331807
152 1 0.182498 0.0900492 0.399153
148 1 -0.00220058 0.0736194 0.415382
171 1 0.0855446 0.154793 0.409424
165 1 0.83005 -0.0018322 0.323496
173 1 0.173856 0.168215 0.319126
156 1 0.334535 0.0863939 0.431512
69 1 0.829115 0.324604 0.0207129
202 1 0.416549 0.417052 0.335006
177 1 0.337097 0.155024 0.329972
179 1 0.413135 0.171664 0.447505
204 1 0.332859 0.420203 0.41509
160 1 0.511325 0.0690212 0.423538
158 1 0.578878 0.0926286 0.335857
183 1 0.578204 0.162771 0.419612
198 1 0.255151 0.415811 0.338798
597 1 0.837201 0.517931 0.334498
164 1 0.655132 0.0705655 0.410182
162 1 0.746807 0.0986943 0.333825
187 1 0.745057 0.173137 0.42742
168 1 0.847951 0.0770372 0.416079
166 1 0.914782 0.101663 0.330318
81 1 0.345004 0.00200602 0.138892
527 1 0.90866 0.496386 0.24411
66 1 0.751286 0.411806 0.0058957
172 1 0.0030985 0.238637 0.415249
176 1 0.161538 0.23975 0.42193
199 1 0.241796 0.317382 0.404443
175 1 0.263043 0.170295 0.411606
197 1 0.167313 0.320645 0.330834
174 1 0.265215 0.241577 0.325541
203 1 0.419919 0.341621 0.41026
201 1 0.333192 0.340895 0.332339
180 1 0.344006 0.247214 0.411052
178 1 0.412711 0.25166 0.328742
195 1 0.0880927 0.328674 0.421333
205 1 0.517486 0.333468 0.348052
207 1 0.589116 0.316994 0.421622
184 1 0.483278 0.236854 0.410488
182 1 0.610721 0.258096 0.323412
209 1 0.666782 0.34423 0.315277
213 1 0.816491 0.338081 0.336207
188 1 0.674219 0.250077 0.418285
185 1 0.658214 0.163143 0.341346
200 1 0.174359 0.404144 0.406966
194 1 0.0844046 0.411864 0.344394
192 1 0.842686 0.253647 0.452906
190 1 0.923703 0.246113 0.335496
191 1 0.918038 0.172693 0.439463
11 1 0.424744 -0.0100242 0.062627
5 1 0.161289 -0.00564871 -0.0056305
65 1 0.673928 0.325927 0.0048212
159 1 0.588684 -0.0157029 0.427048
249 1 0.321042 0.174739 0.513811
517 1 0.497916 0.51366 0.174131
79 1 0.259817 -0.00258831 0.250071
585 1 0.33872 0.498334 0.332428
511 1 0.243663 0.496483 0.251793
75 1 0.0894878 -0.00484135 0.228549
515 1 0.422148 0.494197 0.244191
254 1 0.585732 0.241861 0.508348
157 1 0.510493 -0.00830222 0.334295
153 1 0.339566 -0.00287438 0.33285
507 1 0.0798877 0.482606 0.259881
269 1 0.157296 0.337386 0.506522
218 1 0.0996981 0.0734415 0.498563
18 1 0.741342 0.0871252 0.0186826
53 1 0.17162 0.328571 -0.0079681
42 1 0.747286 0.250574 -0.0160352
45 1 0.82865 0.157219 -0.000829761
62 1 0.573465 0.39658 -0.0030473
54 1 0.251476 0.415951 -0.0106536
265 1 0.994597 0.333208 0.498832
234 1 0.750973 0.0843759 0.492222
230 1 0.588451 0.0686618 0.50144
270 1 0.248385 0.409393 0.489838
229 1 0.497316 0.000218281 0.495335
433 1 -0.00673627 0.513334 0.0121329
50 1 0.0872874 0.413707 0.000599347
238 1 0.923851 0.0791172 0.510855
220 1 1.00659 0.0817614 0.582734
317 1 0.168478 0.16698 0.659386
367 1 0.253708 0.000792514 0.921057
46 1 0.920556 0.253851 1.00367
224 1 0.164264 0.0682469 0.587604
247 1 0.251957 0.174531 0.58767
228 1 0.336854 0.0828574 0.578739
321 1 0.334761 0.169336 0.681926
61 1 0.499593 0.328467 0.997461
325 1 0.492133 0.163867 0.659089
34 1 0.413632 0.260749 0.996182
251 1 0.420038 0.170572 0.565556
232 1 0.500526 0.0701645 0.575834
255 1 0.587043 0.173184 0.590603
302 1 0.580401 0.0807986 0.658155
669 1 0.835697 0.502879 0.499445
430 1 0.918703 0.416526 0.825937
236 1 0.676116 0.0693397 0.575722
259 1 0.751879 0.162017 0.593704
329 1 0.667091 0.153693 0.683486
301 1 0.502756 -0.00258555 0.666681
303 1 0.590224 -0.00846679 0.753638
240 1 0.830639 0.0649816 0.578541
263 1 0.922502 0.15372 0.589059
431 1 0.905053 0.335788 0.933052
243 1 0.0897114 0.149638 0.579238
248 1 0.161229 0.249255 0.587384
244 1 1.00072 0.249473 0.605427
299 1 0.406173 0.00472578 0.742939
252 1 0.332187 0.254646 0.579142
318 1 0.255844 0.263739 0.659857
345 1 0.334638 0.339934 0.672523
289 1 -0.0104836 -0.00178235 0.683418
305 1 0.681981 0.00375693 0.668928
322 1 0.420059 0.247522 0.662692
273 1 0.327851 0.346912 0.478856
256 1 0.499433 0.246881 0.581372
326 1 0.583042 0.247434 0.66988
665 1 0.671465 0.499729 0.515418
260 1 0.668737 0.244884 0.593693
330 1 0.759688 0.24679 0.683833
283 1 0.752842 0.330108 0.567392
361 1 1.01075 -0.00125066 0.843138
264 1 0.852385 0.237299 0.598347
334 1 0.918276 0.25495 0.678011
297 1 0.327621 -0.00100227 0.664297
267 1 0.0708762 0.345642 0.582204
338 1 0.0849286 0.425385 0.652532
272 1 0.172427 0.417837 0.581805
271 1 0.234274 0.328991 0.570195
276 1 0.321269 0.415717 0.582014
342 1 0.246774 0.413304 0.661297
282 1 0.755063 0.42478 0.511179
22 1 0.909265 0.0820578 0.997297
275 1 0.415366 0.324315 0.583504
346 1 0.411418 0.41782 0.643393
349 1 0.50113 0.328228 0.682701
285 1 0.843123 0.355222 0.508538
280 1 0.502476 0.39862 0.587934
279 1 0.590494 0.320855 0.589223
284 1 0.660477 0.423432 0.583388
350 1 0.578879 0.402039 0.665354
649 1 1.01214 0.508015 0.508909
295 1 0.25679 -0.00262498 0.748795
655 1 0.24662 0.497833 0.583935
353 1 0.657348 0.33657 0.67775
288 1 0.831757 0.417656 0.599015
357 1 0.836246 0.332612 0.66406
223 1 0.25388 0.00770256 0.582296
337 1 0.0040873 0.348761 0.674035
287 1 0.91806 0.338797 0.594185
268 1 -0.0118022 0.420784 0.586902
358 1 0.915254 0.430137 0.675535
26 1 0.0799886 0.237598 0.984475
290 1 0.0747529 0.0838433 0.666943
296 1 0.155806 0.0827245 0.755569
292 1 0.00279106 0.0786028 0.759278
286 1 0.922904 0.430547 0.500091
369 1 0.341797 0.00245397 0.836382
294 1 0.260647 0.0877834 0.66426
300 1 0.325024 0.082969 0.746842
389 1 0.176692 0.158548 0.84132
298 1 0.415699 0.0835054 0.642074
323 1 0.433038 0.160982 0.743851
370 1 0.413889 0.0878276 0.82841
231 1 0.587233 0.00153558 0.593447
304 1 0.502119 0.0776287 0.737195
374 1 0.584683 0.0732951 0.833791
308 1 0.656807 0.0703103 0.746168
306 1 0.761534 0.0773862 0.6616
333 1 0.845221 0.155079 0.678701
312 1 0.822095 0.0875368 0.756196
310 1 0.917832 0.0736509 0.698671
382 1 0.901676 0.0818081 0.837889
432 1 0.839399 0.415113 0.902151
226 1 0.422957 0.0834156 0.496461
315 1 0.0920524 0.16692 0.744646
385 1 0.00112467 0.174895 0.822174
314 1 0.0889971 0.239572 0.668342
386 1 0.0979831 0.246756 0.831923
313 1 1.00934 0.162262 0.676795
316 1 0.00209471 0.248587 0.754218
319 1 0.243025 0.16489 0.747785
320 1 0.172083 0.25157 0.756811
324 1 0.343156 0.255638 0.742633
343 1 0.251218 0.33935 0.758214
328 1 0.503395 0.249813 0.760109
347 1 0.417724 0.340884 0.753544
394 1 0.414426 0.270639 0.835631
397 1 0.505474 0.16304 0.8386
421 1 0.503012 0.350012 0.834665
327 1 0.587738 0.162562 0.753606
425 1 0.663097 0.336608 0.825119
332 1 0.658778 0.252608 0.75122
331 1 0.760793 0.173642 0.754649
402 1 0.738939 0.243306 0.82655
335 1 0.920514 0.17026 0.754384
336 1 0.839428 0.250776 0.756634
406 1 0.917169 0.246048 0.833486
409 1 -0.000861508 0.340473 0.827507
339 1 0.0831689 0.331136 0.755062
344 1 0.163938 0.407009 0.736367
428 1 0.663567 0.408093 0.919639
10 1 0.422847 0.0947842 0.988389
341 1 0.152718 0.328507 0.663435
417 1 0.334607 0.338287 0.831124
348 1 0.338122 0.433908 0.740003
414 1 0.252471 0.430927 0.837585
373 1 0.484333 -0.00507581 0.84074
262 1 0.923148 0.270847 0.510978
418 1 0.413354 0.421725 0.845528
727 1 0.246342 0.510608 0.742999
422 1 0.581655 0.421888 0.844955
352 1 0.490768 0.42587 0.748304
351 1 0.578659 0.347179 0.755262
426 1 0.731217 0.417051 0.83587
277 1 0.508354 0.307361 0.494598
356 1 0.650239 0.422179 0.744987
355 1 0.759784 0.337301 0.755865
354 1 0.749382 0.400965 0.667469
360 1 0.826843 0.421233 0.75958
340 1 0.00562001 0.427404 0.745618
359 1 0.912996 0.336543 0.755963
404 1 0.661837 0.253731 0.913673
362 1 0.0961274 0.0798416 0.833811
364 1 0.00381436 0.0897945 0.902858
368 1 0.174263 0.0710376 0.916735
427 1 0.762978 0.334209 0.911807
366 1 0.251848 0.0747517 0.830782
411 1 0.0892061 0.328707 0.911169
393 1 0.33978 0.169152 0.823714
424 1 0.488354 0.419541 0.91912
242 1 0.0658444 0.245324 0.508265
372 1 0.3346 0.0909442 0.912592
376 1 0.495346 0.0753264 0.89712
408 1 0.835635 0.24776 0.919749
429 1 0.844 0.323367 0.845693
405 1 0.834435 0.167835 0.834578
380 1 0.673344 0.0909077 0.922543
378 1 0.738427 0.088433 0.834083
2 1 0.0787665 0.0851026 0.985447
410 1 0.0906521 0.415729 0.817567
412 1 0.00173926 0.426349 0.899798
416 1 0.164155 0.41186 0.914085
384 1 0.829185 0.076742 0.909257
420 1 0.327834 0.428873 0.91399
387 1 0.0835892 0.160063 0.908765
388 1 -0.00418392 0.260559 0.899057
390 1 0.26703 0.251572 0.831223
392 1 0.177907 0.253978 0.902988
391 1 0.259372 0.171083 0.914753
396 1 0.337782 0.253134 0.918148
401 1 0.655242 0.164001 0.840599
400 1 0.497954 0.249251 0.905305
395 1 0.415985 0.165631 0.910943
419 1 0.415564 0.340971 0.916091
407 1 0.921952 0.171617 0.918883
413 1 0.182236 0.34533 0.832988
415 1 0.265349 0.338416 0.91486
398 1 0.58113 0.248854 0.828402
423 1 0.583553 0.321478 0.901492
399 1 0.584386 0.170514 0.912549
403 1 0.739797 0.172776 0.909533
49 1 0.0109855 0.325903 0.978935
33 1 0.33549 0.16613 0.995543
25 1 -0.00814537 0.156012 1.00349
58 1 0.417024 0.416038 1.00215
250 1 0.414534 0.263894 0.497819
253 1 0.507569 0.154719 0.501527
233 1 0.681413 0.00294569 0.485829
37 1 0.497438 0.169403 0.990173
246 1 0.242259 0.255894 0.496133
41 1 0.669473 0.164016 0.999521
257 1 0.654997 0.164949 0.51585
281 1 0.657619 0.33795 0.505496
241 1 0.00472533 0.153279 0.493305
258 1 0.748995 0.242625 0.510598
70 1 0.920689 0.417371 1.00057
266 1 0.0879128 0.422242 0.49953
38 1 0.582473 0.238352 0.995018
57 1 0.333411 0.331953 0.99965
657 1 0.329998 0.494684 0.488127
29 1 0.161938 0.168461 0.98029
245 1 0.169402 0.179362 0.502162
441 1 0.351355 0.494303 1.00786
653 1 0.169773 0.493583 0.489953
274 1 0.435153 0.402428 0.507224
278 1 0.569631 0.416078 0.511679
445 1 0.495285 0.506243 1.00607
6 1 0.246034 0.0889845 0.995942
261 1 0.834984 0.16171 0.514043
225 1 0.328844 1.00559 0.490365
17 1 0.668132 1.00001 3.69286e-05
440 1 0.164491 0.588394 0.0911711
648 1 0.831428 0.912839 0.39613
444 1 0.341046 0.593906 0.0893995
514 1 0.418593 0.588346 0.176568
448 1 0.495273 0.58886 0.077333
452 1 0.662964 0.592824 0.0887708
646 1 0.920942 0.912783 0.310598
454 1 0.917486 0.585284 -0.00366372
647 1 0.92614 0.834824 0.403698
456 1 0.816483 0.580903 0.0892909
475 1 0.741829 0.669592 0.0796015
522 1 0.751753 0.584843 0.167411
221 1 0.175404 0.999835 0.493929
436 1 -0.00151085 0.576919 0.103563
526 1 0.911415 0.582938 0.180497
217 1 0.00906192 1.0123 0.499136
459 1 0.0839744 0.66008 0.0832652
464 1 0.173577 0.752711 0.0772662
93 1 0.837712 1.01416 0.163428
529 1 -0.00355538 0.654593 0.187233
530 1 0.0996519 0.75247 0.151949
463 1 0.249711 0.671752 0.0818854
534 1 0.247753 0.739354 0.174364
468 1 0.327788 0.751268 0.0935424
557 1 0.174707 0.837185 0.164616
467 1 0.414553 0.675158 0.0901353
538 1 0.430626 0.752845 0.169167
491 1 0.409206 0.83935 0.0953168
561 1 0.316149 0.83074 0.168761
471 1 0.577243 0.668455 0.0739597
541 1 0.505736 0.672919 0.178489
472 1 0.501103 0.762913 0.0862506
476 1 0.652991 0.757778 0.0730542
542 1 0.583141 0.75029 0.161738
545 1 0.672116 0.672302 0.163847
549 1 0.83405 0.656753 0.168472
546 1 0.742217 0.746771 0.164082
480 1 0.829457 0.739234 0.0856353
523 1 0.755692 0.500918 0.244575
460 1 1.00597 0.735017 0.092174
479 1 0.917089 0.655731 0.0904155
503 1 0.914274 0.82589 0.0923998
550 1 0.898389 0.757148 0.171972
450 1 0.745843 0.585435 0.00397942
685 1 0.511525 0.661958 0.501857
483 1 0.0939666 0.822121 0.0748201
554 1 0.0806703 0.919551 0.152275
553 1 1.00407 0.822883 0.153082
487 1 0.24349 0.837431 0.0801811
488 1 0.174097 0.920197 0.0818493
492 1 0.330319 0.91554 0.0813298
682 1 0.426892 0.748767 0.488068
658 1 0.424092 0.58423 0.50115
477 1 0.831594 0.660638 -0.00435166
496 1 0.489858 0.907982 0.0920235
565 1 0.490441 0.840298 0.169767
502 1 0.916715 0.92223 -0.0105348
495 1 0.589405 0.840837 0.0854967
500 1 0.673915 0.924854 0.0913353
569 1 0.667717 0.836936 0.172421
644 1 0.663018 0.906374 0.418257
566 1 0.565493 0.925417 0.151737
443 1 0.417474 0.504095 0.0965007
499 1 0.73985 0.833339 0.100257
570 1 0.742103 0.925008 0.180044
505 1 0.00021172 0.49125 0.156762
95 1 0.912827 1.01276 0.253569
147 1 0.0862693 0.992442 0.418752
484 1 0.996959 0.917996 0.0763134
504 1 0.827138 0.919997 0.0943076
574 1 0.928565 0.912058 0.172885
642 1 0.735392 0.918098 0.310527
506 1 0.0781793 0.575933 0.161648
578 1 0.0811008 0.571584 0.341365
453 1 0.835589 0.485637 -0.00331021
510 1 0.257974 0.587612 0.171228
455 1 0.904409 0.51317 0.0751986
512 1 0.169561 0.577939 0.259085
533 1 0.172042 0.662613 0.167706
677 1 0.169063 0.657133 0.495372
458 1 0.0862476 0.745695 0.00539427
516 1 0.343101 0.571888 0.251993
586 1 0.422894 0.572795 0.340096
451 1 0.757213 0.493976 0.0739188
539 1 0.428615 0.664367 0.24887
519 1 0.596421 0.493557 0.229371
473 1 0.667012 0.667036 -0.00321841
518 1 0.581802 0.584333 0.157453
520 1 0.51633 0.589524 0.252005
590 1 0.580327 0.583923 0.345441
591 1 0.586545 0.494908 0.415675
524 1 0.680172 0.58232 0.24953
528 1 0.82611 0.593532 0.252201
594 1 0.740981 0.576788 0.334587
83 1 0.407542 1.00281 0.227881
3 1 0.0690815 1.0003 0.0810072
77 1 0.181952 1.01565 0.164312
637 1 0.504294 0.837973 0.329566
508 1 -0.000823652 0.564246 0.251935
598 1 0.919644 0.599407 0.342407
531 1 0.0905432 0.66306 0.240027
605 1 0.164932 0.67507 0.339394
555 1 0.0876945 0.834535 0.244112
536 1 0.160667 0.746083 0.243602
625 1 1.00347 0.823544 0.316432
535 1 0.248851 0.665063 0.265772
559 1 0.254512 0.818437 0.260836
540 1 0.334936 0.737615 0.256361
537 1 0.337341 0.65785 0.185445
544 1 0.503831 0.752294 0.247595
543 1 0.600292 0.651742 0.250439
614 1 0.587882 0.763766 0.325988
567 1 0.580133 0.839902 0.246715
613 1 0.509183 0.667875 0.325984
547 1 0.743311 0.666942 0.257276
548 1 0.658291 0.744203 0.246391
552 1 0.815833 0.747542 0.259482
571 1 0.741571 0.830877 0.241471
617 1 0.666262 0.66811 0.332906
641 1 0.668794 0.834466 0.329387
601 1 0.98803 0.684435 0.32904
551 1 0.913072 0.678045 0.242305
532 1 1.02296 0.744307 0.2351
621 1 0.827178 0.663407 0.341108
681 1 0.346976 0.672869 0.501015
626 1 0.0792564 0.9118 0.319059
639 1 0.57505 0.827517 0.411347
558 1 0.250141 0.925377 0.159374
640 1 0.495431 0.915938 0.405469
560 1 0.164997 0.916379 0.248467
562 1 0.406864 0.909956 0.173794
85 1 0.486931 0.999257 0.161231
563 1 0.415419 0.823008 0.257796
564 1 0.330864 0.911874 0.256853
678 1 0.255759 0.75943 0.506061
568 1 0.493685 0.929955 0.245612
638 1 0.593458 0.917178 0.330422
521 1 0.683428 0.496359 0.154307
572 1 0.650751 0.925466 0.247126
576 1 0.843275 0.918465 0.240969
573 1 0.822701 0.833397 0.168082
673 1 0.990851 0.673162 0.486287
556 1 1.01116 0.904586 0.238445
575 1 0.928975 0.823983 0.24541
525 1 0.840812 0.492872 0.164567
624 1 0.840784 0.765684 0.413668
643 1 0.74732 0.844287 0.422351
634 1 0.409534 0.911292 0.342494
584 1 0.172312 0.583985 0.417984
580 1 -0.00842539 0.580151 0.411865
603 1 0.0695236 0.659359 0.421402
635 1 0.41005 0.830064 0.422408
630 1 0.247243 0.902586 0.323971
582 1 0.260324 0.572011 0.33646
607 1 0.256464 0.668563 0.423873
145 1 1.0157 1.00578 0.327836
615 1 0.586216 0.668878 0.423967
627 1 0.0766583 0.824825 0.417474
588 1 0.339257 0.584263 0.422384
592 1 0.517061 0.569202 0.42654
611 1 0.42999 0.650386 0.412558
628 1 1.0028 0.914683 0.403002
636 1 0.330165 0.915565 0.415092
596 1 0.664817 0.588377 0.419038
618 1 0.743494 0.743839 0.344163
622 1 0.898801 0.748924 0.318128
619 1 0.741553 0.663761 0.407704
620 1 0.651966 0.757393 0.409611
600 1 0.830115 0.58475 0.411506
623 1 0.904729 0.666482 0.429906
713 1 0.655395 0.839913 0.513431
632 1 0.166428 0.903191 0.415624
604 1 0.992361 0.760993 0.402778
602 1 0.0796616 0.751087 0.33064
608 1 0.171369 0.741712 0.430965
674 1 0.073947 0.743548 0.488332
629 1 0.169553 0.830018 0.323096
609 1 0.341694 0.644096 0.330896
631 1 0.265634 0.82726 0.419042
606 1 0.239724 0.745414 0.339975
633 1 0.33799 0.833219 0.337378
645 1 0.82589 0.827167 0.32628
612 1 0.342158 0.738456 0.40432
610 1 0.429786 0.743474 0.343352
616 1 0.508561 0.737267 0.423694
23 1 0.918237 1.01062 0.0807678
435 1 0.0859933 0.501966 0.0756903
21 1 0.812856 1.00522 0.00433038
654 1 0.251951 0.581688 0.489402
701 1 0.165213 0.843886 0.500895
167 1 0.926226 0.99186 0.390471
470 1 0.58478 0.750705 -0.00792633
509 1 0.157077 0.503306 0.175733
15 1 0.580603 1.01754 0.0775665
161 1 0.669643 1.01066 0.318161
449 1 0.66807 0.513572 0.00359722
163 1 0.751465 0.984289 0.406131
717 1 0.836196 0.845884 0.486748
490 1 0.403529 0.916246 -0.00458318
486 1 0.251866 0.909876 -0.00310902
650 1 0.0770925 0.582187 0.491239
494 1 0.577605 0.923329 0.0099536
694 1 0.917496 0.759304 0.49061
237 1 0.840314 0.987672 0.484022
434 1 0.0719193 0.585353 0.00818715
670 1 0.919392 0.572971 0.504582
466 1 0.422226 0.741962 0.00984687
461 1 0.15721 0.65934 -0.00115529
498 1 0.750301 0.917402 0.011601
446 1 0.583701 0.585021 -0.000933339
13 1 0.503382 1.01089 -0.00222134
702 1 0.262004 0.907782 0.509435
478 1 0.918046 0.743483 0.0318286
437 1 0.179675 0.495018 -0.00533786
689 1 0.666934 0.676959 0.514493
465 1 0.330222 0.664761 -0.00147348
469 1 0.506545 0.669188 0.0052786
497 1 0.66878 0.841473 -0.00255123
442 1 0.423707 0.583856 -0.00289997
485 1 0.170941 0.830116 -0.00683326
697 1 0.996222 0.83207 0.487314
675 1 0.0841244 0.674622 0.579111
656 1 0.153498 0.597379 0.577002
862 1 0.920297 0.908837 0.858413
864 1 0.822242 0.914601 0.924561
227 1 0.401478 0.996558 0.573725
660 1 0.326026 0.59558 0.574878
679 1 0.250286 0.675483 0.564873
726 1 0.238726 0.595908 0.640595
753 1 0.339873 0.664727 0.66126
731 1 0.413464 0.509365 0.743347
683 1 0.426701 0.67886 0.575767
664 1 0.497549 0.583265 0.586802
730 1 0.41116 0.582151 0.650032
375 1 0.577502 1.00875 0.920464
844 1 1.01221 0.917197 0.920114
739 1 0.734329 0.495848 0.767668
668 1 0.651369 0.591396 0.596507
691 1 0.748801 0.677879 0.595754
365 1 0.178608 0.994534 0.842859
738 1 0.742822 0.582783 0.658144
861 1 0.828493 0.837216 0.847951
672 1 0.840124 0.577309 0.589755
652 1 0.996353 0.588373 0.580932
745 1 -0.00257869 0.680383 0.664928
765 1 0.820512 0.663789 0.672783
291 1 0.0808265 0.991867 0.758587
746 1 0.0715484 0.758502 0.674351
293 1 0.151635 1.01011 0.681478
676 1 0.975788 0.749035 0.574946
699 1 0.0772535 0.811143 0.569335
769 1 -0.00836309 0.821297 0.672867
680 1 0.157855 0.743191 0.564626
684 1 0.336068 0.755231 0.565204
703 1 0.240749 0.845285 0.591179
813 1 0.829461 0.497025 0.836898
307 1 0.75193 0.999335 0.75761
688 1 0.499053 0.755441 0.59264
754 1 0.415781 0.75297 0.665337
707 1 0.421907 0.833508 0.567909
781 1 0.476933 0.848298 0.665642
379 1 0.742073 0.994682 0.920728
687 1 0.582192 0.669996 0.582059
711 1 0.57925 0.828623 0.589541
758 1 0.584488 0.746325 0.679926
692 1 0.658212 0.749131 0.597103
714 1 0.750778 0.911982 0.509012
363 1 0.0802204 1.00104 0.92558
801 1 0.337156 0.511565 0.829065
696 1 0.828634 0.74434 0.588914
695 1 0.91552 0.656028 0.574237
719 1 0.907874 0.847245 0.586413
704 1 0.18272 0.934846 0.579132
795 1 0.0974543 0.501264 0.927703
860 1 0.658977 0.91786 0.923534
743 1 0.932647 0.511197 0.760842
710 1 0.567362 0.912909 0.505155
807 1 0.586527 0.499626 0.920929
737 1 0.667558 0.505412 0.667001
708 1 0.326834 0.903043 0.572022
712 1 0.5024 0.913103 0.589831
797 1 0.175276 0.504669 0.81178
778 1 0.406262 0.924162 0.649315
782 1 0.586006 0.921982 0.652251
716 1 0.653922 0.934439 0.569795
859 1 0.751622 0.828763 0.916395
805 1 0.495572 0.508525 0.828474
723 1 0.0784382 0.499207 0.736212
733 1 0.490939 0.49154 0.665603
659 1 0.411968 0.506736 0.57173
715 1 0.752539 0.818605 0.579253
785 1 0.667099 0.838915 0.673011
720 1 0.834778 0.920049 0.573784
700 1 -0.000607324 0.908808 0.566981
725 1 0.166961 0.508935 0.673258
722 1 0.0787724 0.594391 0.664981
749 1 0.160954 0.674898 0.662708
815 1 0.922679 0.500173 0.922706
728 1 0.167175 0.588143 0.735076
732 1 0.323525 0.57808 0.733846
751 1 0.250158 0.659334 0.747126
802 1 0.415557 0.588074 0.841909
736 1 0.486 0.581312 0.748143
755 1 0.408513 0.672441 0.747948
825 1 0.328017 0.665855 0.845029
829 1 0.498714 0.662297 0.847959
858 1 0.74134 0.909097 0.836908
809 1 0.651069 0.49892 0.832929
734 1 0.570973 0.584458 0.676834
806 1 0.578097 0.583721 0.837316
757 1 0.496757 0.659204 0.668077
740 1 0.668546 0.579073 0.748906
744 1 0.822534 0.587072 0.752146
763 1 0.736832 0.67604 0.748894
810 1 0.749141 0.569199 0.850859
671 1 0.901371 0.494781 0.593058
742 1 0.917743 0.593556 0.679433
724 1 1.01275 0.598549 0.755796
767 1 0.930187 0.672054 0.750151
371 1 0.414366 0.998189 0.924051
747 1 0.102631 0.669144 0.751826
845 1 0.171777 0.823679 0.835461
752 1 0.177139 0.753784 0.741096
771 1 0.0981147 0.828689 0.745336
750 1 0.258151 0.73924 0.656751
777 1 0.342409 0.838154 0.662146
822 1 0.248858 0.745904 0.829937
756 1 0.336153 0.749651 0.749242
826 1 0.423029 0.748735 0.840848
853 1 0.497812 0.834465 0.843039
761 1 0.65153 0.668278 0.671343
759 1 0.58093 0.665422 0.764858
760 1 0.491541 0.758658 0.747678
783 1 0.563892 0.845929 0.74767
764 1 0.653246 0.751029 0.760459
762 1 0.749674 0.752835 0.674455
833 1 0.662855 0.662051 0.838909
834 1 0.750857 0.742817 0.826749
766 1 0.906176 0.738633 0.668757
768 1 0.831564 0.751068 0.763602
748 1 0.0159091 0.747687 0.767453
791 1 0.927283 0.836144 0.762575
770 1 0.0517276 0.919401 0.672939
857 1 0.662146 0.837136 0.826974
772 1 0.998914 0.921792 0.778433
773 1 0.145663 0.843359 0.647571
776 1 0.164595 0.922083 0.748832
855 1 0.586354 0.832914 0.915409
741 1 0.81413 0.501289 0.68723
849 1 0.336017 0.838676 0.835763
775 1 0.25532 0.820923 0.747322
774 1 0.243016 0.909732 0.670581
780 1 0.352882 0.911772 0.756266
779 1 0.414107 0.827778 0.759328
850 1 0.412655 0.919016 0.848316
784 1 0.476758 0.915372 0.748564
381 1 0.820824 0.989061 0.844708
854 1 0.566102 0.929306 0.832036
863 1 0.918471 0.810508 0.924969
786 1 0.752761 0.90453 0.657599
788 1 0.680154 0.926835 0.734678
787 1 0.746399 0.834796 0.754147
856 1 0.50377 0.929578 0.922244
789 1 0.826808 0.833887 0.680807
790 1 0.930897 0.912014 0.678029
792 1 0.820025 0.91493 0.760737
794 1 0.0928553 0.576958 0.845137
819 1 0.0788826 0.662103 0.918968
821 1 0.162517 0.654694 0.846
800 1 0.162522 0.584265 0.932858
796 1 -0.00165317 0.579408 0.92244
836 1 0.66681 0.744361 0.910601
840 1 0.82483 0.75525 0.928205
798 1 0.259125 0.580829 0.838595
823 1 0.242639 0.651973 0.937967
804 1 0.331054 0.583159 0.925066
377 1 0.663377 1.00132 0.840488
729 1 0.341085 0.491418 0.655148
841 1 0.00928072 0.824084 0.833938
808 1 0.504519 0.57979 0.924552
812 1 0.664479 0.573049 0.912276
838 1 0.905336 0.733299 0.833831
835 1 0.758962 0.673689 0.9234
830 1 0.560372 0.748786 0.841412
846 1 0.248349 0.912843 0.81176
814 1 0.932633 0.577872 0.842081
839 1 0.921779 0.670423 0.924075
837 1 0.838178 0.647542 0.843364
816 1 0.834984 0.56816 0.928868
852 1 0.321213 0.913266 0.918163
818 1 0.0937715 0.751983 0.854969
843 1 0.089377 0.841896 0.915436
824 1 0.177824 0.739453 0.923382
828 1 0.351536 0.754623 0.922083
847 1 0.254506 0.820015 0.9116
817 1 1.00454 0.662897 0.834691
848 1 0.180241 0.906149 0.912707
842 1 0.0985134 0.911543 0.831006
827 1 0.41614 0.663008 0.925241
851 1 0.418444 0.844878 0.925145
820 1 0.0112287 0.745964 0.934514
832 1 0.49043 0.762983 0.925733
831 1 0.582261 0.666689 0.920099
718 1 0.915755 0.912534 0.475621
239 1 0.935344 1.00085 0.589875
735 1 0.572068 0.507385 0.745392
803 1 0.4123 0.505324 0.911191
663 1 0.579382 0.494882 0.596321
383 1 0.917723 0.999529 0.912009
667 1 0.760148 0.489894 0.592001
311 1 0.900814 0.996337 0.771018
651 1 0.0938212 0.502335 0.579223
474 1 0.740947 0.752378 1.0095
462 1 0.258747 0.753688 1.00101
309 1 0.846845 0.979548 0.66846
706 1 0.411537 0.919633 0.491251
219 1 0.0754905 1.00005 0.587042
721 1 -0.00809345 0.510327 0.661802
811 1 0.747157 0.489451 0.926565
235 1 0.754942 0.991223 0.589025
799 1 0.2428 0.497757 0.912472
690 1 0.728233 0.753036 0.479655
793 1 0.00535887 0.49902 0.826813
489 1 0.335438 0.83544 1.01226
705 1 0.334163 0.832658 0.499038
501 1 0.826181 0.833563 1.02261
457 1 -0.0111017 0.668705 1.01174
662 1 0.591519 0.57836 0.496321
9 1 0.335878 1.00747 1.0016
686 1 0.572423 0.753379 0.505146
493 1 0.495987 0.839058 1.01194
482 1 0.0934267 0.917114 1.01057
709 1 0.490908 0.83549 0.492212
481 1 0.00661729 0.827558 1.00503
698 1 0.0920084 0.92552 0.512412
666 1 0.749511 0.58324 0.51176
1 1 -0.0066717 1.02049 1.00153
438 1 0.264525 0.552669 1.00019
693 1 0.82347 0.682753 0.489736
