ITEM: TIMESTEP
21000
ITEM: NUMBER OF ATOMS
500
ITEM: BOX BOUNDS pp pp pp
0.0000000000000000e+00 2.6299999999999997e+01
0.0000000000000000e+00 2.6299999999999997e+01
0.0000000000000000e+00 2.6299999999999997e+01
ITEM: ATOMS id type xs ys zs
23 1 0.0973939 0.178934 0.0913524
52 1 0.108326 0.100119 0.195089
75 1 0.207632 0.195753 0.197017
8 1 0.204981 0.0909753 0.104634
27 1 0.300233 0.188025 0.0867512
56 1 0.300564 0.0906527 0.189135
12 1 0.397832 0.0938019 0.0705793
79 1 0.391045 0.196197 0.185374
59 1 0.390199 0.0112149 0.172426
55 1 0.204983 0.00613656 0.19496
6 1 0.281805 0.0983097 0.00263812
31 1 0.494599 0.190497 0.0969493
60 1 0.484704 0.102635 0.197826
11 1 0.506811 0.00310789 0.101367
33 1 0.594239 0.20311 0.00382344
10 1 0.516071 0.0963509 0.00819097
16 1 0.616567 0.0972894 0.100773
83 1 0.604009 0.198736 0.192953
35 1 0.695727 0.202563 0.0715576
64 1 0.689001 0.101607 0.222001
20 1 0.787395 0.107558 0.101419
67 1 0.794511 0.0101529 0.204933
13 1 0.621465 0.000270825 0.0157822
71 1 0.999467 0.180601 0.199473
18 1 0.902055 0.0818204 0.00103875
87 1 0.804029 0.206598 0.213838
4 1 0.992072 0.100355 0.096003
39 1 0.895956 0.223284 0.105701
68 1 0.89612 0.0979709 0.200871
51 1 0.991398 0.0016787 0.194022
21 1 0.998851 0.19292 0.00212548
42 1 0.0997124 0.407508 0.109366
72 1 0.107567 0.319515 0.215135
28 1 0.190877 0.290419 0.102962
24 1 0.0160647 0.292393 0.112693
22 1 0.0835177 0.307853 0.00465595
26 1 0.296567 0.29537 0.0270363
93 1 0.209379 0.41595 0.202254
44 1 0.308405 0.404328 0.0818755
76 1 0.30098 0.303597 0.176196
95 1 0.394102 0.409125 0.194471
45 1 0.41415 0.391372 0.00198379
32 1 0.407799 0.301084 0.10037
46 1 0.495749 0.409634 0.0979298
80 1 0.511671 0.299773 0.192439
305 1 0.507308 0.489137 0.197515
49 1 0.796582 0.394664 0.00607452
307 1 0.698559 0.49757 0.193938
97 1 0.614471 0.401539 0.209968
36 1 0.601054 0.298699 0.09857
48 1 0.689535 0.40392 0.092752
84 1 0.702572 0.288572 0.21903
40 1 0.779761 0.290614 0.105838
260 1 0.793039 0.498341 0.101312
91 1 0.995997 0.398233 0.207292
99 1 0.803565 0.386771 0.196188
50 1 0.911477 0.37634 0.0996272
88 1 0.904363 0.290406 0.213063
259 1 0.897952 0.483594 0.00830691
309 1 0.879277 0.487939 0.19567
41 1 1 0.407255 0.000266931
53 1 0.113755 0.00777744 0.294409
73 1 0.097093 0.206559 0.271991
102 1 0.11149 0.0895435 0.400272
113 1 0.193677 0.193023 0.404141
54 1 0.0128163 0.0942517 0.287812
111 1 0.022895 0.188229 0.374047
127 1 0.0137095 0.0990679 0.499262
136 1 0.098934 0.210395 0.498354
57 1 0.312235 0.00552572 0.308589
58 1 0.205045 0.105786 0.291677
77 1 0.32073 0.186981 0.296234
104 1 0.284679 0.0800997 0.410836
115 1 0.383245 0.203523 0.416845
62 1 0.401193 0.102219 0.326602
81 1 0.495023 0.195489 0.292436
106 1 0.498653 0.0890418 0.403023
117 1 0.586774 0.19954 0.392046
66 1 0.59102 0.0976054 0.306307
61 1 0.489526 0.0146131 0.298718
140 1 0.490438 0.195936 0.499463
107 1 0.601515 0.0034563 0.406596
85 1 0.692856 0.192537 0.310672
108 1 0.696164 0.112837 0.40765
70 1 0.791103 0.0990116 0.300085
65 1 0.690466 0.00925683 0.315328
142 1 0.713722 0.193654 0.494695
133 1 0.601588 0.128817 0.483659
119 1 0.802288 0.195055 0.401216
110 1 0.90763 0.0881 0.389889
89 1 0.89433 0.198941 0.309754
144 1 0.912963 0.184525 0.485452
135 1 0.800562 0.0921208 0.49066
121 1 0.00767977 0.400267 0.412299
137 1 0.00668989 0.29675 0.497777
74 1 0.00800301 0.309937 0.300318
112 1 0.119413 0.307693 0.388667
92 1 0.116254 0.405277 0.303719
302 1 0.0118414 0.494626 0.291252
304 1 0.213038 0.498684 0.303549
306 1 0.386837 0.495988 0.307554
123 1 0.391876 0.398506 0.397109
114 1 0.298772 0.308883 0.400947
122 1 0.216963 0.409508 0.400194
78 1 0.210087 0.273056 0.293293
94 1 0.310179 0.395659 0.298022
82 1 0.398673 0.305741 0.288271
352 1 0.312851 0.49829 0.411575
124 1 0.584849 0.405294 0.406233
116 1 0.477193 0.296332 0.394566
96 1 0.491373 0.399774 0.291363
90 1 0.788346 0.304832 0.314083
354 1 0.682449 0.493529 0.410205
98 1 0.701012 0.401445 0.291627
118 1 0.694676 0.3046 0.403115
86 1 0.60235 0.296031 0.315214
308 1 0.604519 0.489547 0.308677
310 1 0.791188 0.489714 0.310911
120 1 0.922049 0.280548 0.39999
100 1 0.910856 0.396025 0.31383
125 1 0.80598 0.39374 0.40929
145 1 0.815914 0.293142 0.477185
152 1 0.108955 0.121044 0.609992
173 1 0.0856701 0.217213 0.706655
175 1 0.194624 0.216559 0.609599
126 1 0.111105 0.00532419 0.503813
154 1 0.00183845 0.104062 0.697193
155 1 0.195969 0.0242722 0.600035
158 1 0.200104 0.0996942 0.697542
156 1 0.315149 0.0883992 0.611636
177 1 0.292185 0.200254 0.704809
179 1 0.386764 0.192743 0.603027
162 1 0.390626 0.0997144 0.710028
129 1 0.206858 0.126659 0.520883
138 1 0.302598 0.196127 0.509811
157 1 0.304431 0.00443258 0.689472
160 1 0.500595 0.0807285 0.58941
181 1 0.48322 0.204641 0.704919
166 1 0.591534 0.104487 0.719257
131 1 0.403826 0.0808366 0.507483
161 1 0.512611 0.000261182 0.71872
183 1 0.602219 0.178085 0.600348
164 1 0.709905 0.122198 0.606286
185 1 0.726332 0.194596 0.70492
132 1 0.702183 0.0198493 0.504258
165 1 0.704981 0.0033548 0.704292
163 1 0.618163 0.0261484 0.604153
171 1 0.989084 0.190111 0.599996
187 1 0.816919 0.186395 0.592239
170 1 0.81653 0.0977784 0.687156
168 1 0.915725 0.0887648 0.593285
189 1 0.90788 0.195411 0.694628
167 1 0.804408 0.00628618 0.587897
172 1 0.0917855 0.304511 0.602137
192 1 0.11181 0.428068 0.695874
191 1 0.00677488 0.410271 0.587971
146 1 0.110062 0.393561 0.504582
139 1 0.19511 0.294994 0.510007
141 1 0.393602 0.305158 0.509716
178 1 0.204877 0.295526 0.717641
193 1 0.225595 0.41391 0.600106
176 1 0.302478 0.2953 0.603569
194 1 0.308961 0.415385 0.69633
147 1 0.313204 0.401301 0.504241
379 1 0.595564 0.490475 0.503818
182 1 0.409195 0.295965 0.700172
195 1 0.401175 0.399681 0.593664
180 1 0.494869 0.282386 0.587271
196 1 0.503592 0.388938 0.687866
197 1 0.593092 0.377884 0.594242
148 1 0.502341 0.386217 0.506202
405 1 0.496535 0.496515 0.617221
149 1 0.697453 0.383108 0.518095
186 1 0.610001 0.286364 0.693143
143 1 0.605599 0.28286 0.519858
184 1 0.727378 0.287497 0.608707
198 1 0.696503 0.392433 0.686782
199 1 0.794491 0.41507 0.605139
408 1 0.61579 0.495837 0.704134
407 1 0.676611 0.488641 0.60056
380 1 0.781942 0.488831 0.507349
174 1 0.980894 0.299988 0.665697
409 1 0.898746 0.490105 0.58435
190 1 0.817262 0.294515 0.705669
188 1 0.878194 0.298193 0.587079
200 1 0.895602 0.399365 0.685103
402 1 0.999566 0.491144 0.679303
150 1 0.901795 0.394275 0.502338
202 1 0.0943114 0.111968 0.790182
223 1 0.0925992 0.214381 0.90689
208 1 0.192354 0.0954597 0.901169
203 1 0.0976001 0.00536898 0.896421
205 1 0.190044 0.0215901 0.805098
25 1 0.191743 0.192807 0.994951
2 1 0.102275 0.085667 0.999195
207 1 0.295256 0.00439594 0.88851
225 1 0.217214 0.197689 0.811473
206 1 0.300676 0.0831614 0.789245
227 1 0.298291 0.203246 0.90419
212 1 0.384938 0.0904803 0.915104
229 1 0.391489 0.198282 0.809109
29 1 0.395154 0.190561 0.990887
210 1 0.47973 0.106229 0.805414
231 1 0.494161 0.199011 0.896264
233 1 0.596604 0.214509 0.799938
213 1 0.599687 0.000209441 0.823076
215 1 0.712627 0.00277671 0.898281
216 1 0.610212 0.112011 0.907391
214 1 0.709923 0.0935962 0.806626
235 1 0.720059 0.201172 0.890857
220 1 0.799109 0.0977141 0.889453
14 1 0.716451 0.0930903 0.993382
201 1 0.986296 0.00154846 0.792458
221 1 0.981895 0.196726 0.792704
204 1 0.992343 0.0948623 0.905792
237 1 0.825928 0.205758 0.802025
218 1 0.901051 0.0925362 0.788173
239 1 0.915947 0.200849 0.895409
37 1 0.808247 0.185098 0.980915
241 1 0.00544018 0.381386 0.780251
451 1 0.065632 0.498372 0.800476
43 1 0.187374 0.387754 0.984237
222 1 0.113407 0.302979 0.80333
242 1 0.0876024 0.396141 0.89531
243 1 0.188835 0.418273 0.809485
228 1 0.217261 0.310655 0.894094
232 1 0.398217 0.295634 0.906659
244 1 0.300182 0.416094 0.901483
226 1 0.319243 0.312166 0.795308
47 1 0.597761 0.408494 0.996972
30 1 0.494106 0.292025 0.990667
458 1 0.598498 0.494041 0.899687
236 1 0.589214 0.290966 0.903958
247 1 0.590638 0.384299 0.799033
246 1 0.500322 0.403788 0.895293
230 1 0.479861 0.304192 0.813402
245 1 0.410832 0.411131 0.808141
455 1 0.511426 0.494453 0.794455
457 1 0.706474 0.498331 0.792761
248 1 0.687952 0.396617 0.89235
234 1 0.691558 0.293539 0.797152
34 1 0.700335 0.301336 0.991885
257 1 0.714499 0.494007 0.976101
250 1 0.911902 0.401426 0.906021
238 1 0.908134 0.304725 0.803959
240 1 0.813105 0.305598 0.891962
249 1 0.801295 0.390873 0.7854
224 1 0.999379 0.302704 0.90915
460 1 0.814758 0.47288 0.893722
459 1 0.916421 0.496604 0.808133
38 1 0.899004 0.305352 0.998933
263 1 0.0853092 0.596355 0.113427
312 1 0.0917947 0.708846 0.198683
315 1 0.189056 0.599856 0.18735
268 1 0.192685 0.703569 0.0908629
301 1 0.100377 0.505514 0.199021
262 1 0.0796988 0.690042 0.00731525
267 1 0.289422 0.62062 0.10667
316 1 0.315067 0.691781 0.212668
256 1 0.393455 0.513164 0.0891836
303 1 0.307235 0.511551 0.197682
254 1 0.205706 0.505512 0.0954111
269 1 0.39826 0.620767 0.01463
319 1 0.405342 0.599133 0.218467
272 1 0.413536 0.700072 0.115974
271 1 0.505551 0.608474 0.105445
320 1 0.511041 0.716734 0.206574
270 1 0.495287 0.708662 0.0117818
258 1 0.599041 0.50153 0.092857
323 1 0.600503 0.606164 0.219828
276 1 0.604959 0.703979 0.114581
275 1 0.683775 0.602709 0.111618
324 1 0.689783 0.714289 0.214997
280 1 0.795628 0.693885 0.118719
327 1 0.787431 0.601353 0.190081
274 1 0.720081 0.69846 0.0121011
264 1 0.995507 0.709059 0.119896
311 1 0.981475 0.593427 0.200666
252 1 0.990561 0.500268 0.102228
278 1 0.889878 0.700038 0.0188607
279 1 0.884631 0.603384 0.108596
328 1 0.906563 0.692187 0.208492
261 1 0.98892 0.596992 0.0257254
277 1 0.812538 0.593266 0.00629527
283 1 0.107909 0.787204 0.0783465
332 1 0.100504 0.895783 0.194702
288 1 0.195732 0.899491 0.100582
284 1 0.000245216 0.901862 0.0894233
331 1 0.00457609 0.790705 0.216514
3 1 0.0970962 0.997419 0.110343
5 1 0.194519 0.997799 0.00158238
335 1 0.205489 0.795112 0.189693
287 1 0.288948 0.796452 0.0939533
336 1 0.314712 0.880961 0.198785
292 1 0.384945 0.899105 0.0853434
7 1 0.283115 0.994398 0.106263
290 1 0.493243 0.900934 0.00249926
339 1 0.408835 0.800196 0.217896
291 1 0.490757 0.810187 0.110191
340 1 0.477023 0.916415 0.186723
296 1 0.59738 0.89908 0.0865609
343 1 0.6126 0.834982 0.204449
295 1 0.697102 0.798814 0.113539
344 1 0.721886 0.907479 0.205291
347 1 0.792674 0.80054 0.198418
63 1 0.605791 0.980155 0.192477
293 1 0.615045 0.803221 0.00490573
15 1 0.723467 0.993474 0.0965903
294 1 0.703584 0.89806 0.0014388
300 1 0.808169 0.907346 0.105874
299 1 0.896064 0.797901 0.11507
348 1 0.891176 0.899204 0.20119
19 1 0.909161 0.996589 0.0965288
297 1 0.808162 0.810271 0.0156231
351 1 0.105693 0.501019 0.391671
313 1 0.101211 0.605501 0.292258
357 1 0.101578 0.700132 0.387344
358 1 0.191407 0.603381 0.396903
381 1 0.0986802 0.592954 0.489374
377 1 0.201269 0.50434 0.4856
318 1 0.206196 0.699029 0.281604
317 1 0.299111 0.592081 0.307859
359 1 0.292047 0.710985 0.388844
383 1 0.294172 0.604223 0.48558
322 1 0.420634 0.703655 0.315853
360 1 0.403873 0.613664 0.420186
321 1 0.501623 0.592999 0.315108
361 1 0.502755 0.700994 0.419324
362 1 0.589085 0.608587 0.394055
326 1 0.579005 0.717886 0.318338
353 1 0.489426 0.502414 0.402664
387 1 0.6847 0.59054 0.499152
325 1 0.70613 0.597006 0.299134
363 1 0.697938 0.69716 0.396152
364 1 0.799743 0.607741 0.403025
390 1 0.806727 0.71221 0.495804
389 1 0.894332 0.602657 0.497428
356 1 0.99675 0.6074 0.396592
314 1 0.998596 0.693128 0.299074
330 1 0.811927 0.698203 0.288657
365 1 0.899907 0.704269 0.404143
329 1 0.905631 0.58183 0.31134
355 1 0.895911 0.504248 0.41951
376 1 0.995198 0.513001 0.491653
391 1 0.105019 0.794265 0.485658
368 1 0.195829 0.79276 0.396372
333 1 0.124702 0.794449 0.294876
367 1 0.0985427 0.907793 0.3897
392 1 0.0119849 0.909652 0.497966
394 1 0.183201 0.889206 0.490795
393 1 0.296264 0.794626 0.484689
337 1 0.303341 0.809619 0.31002
338 1 0.210859 0.905988 0.28703
342 1 0.386597 0.906659 0.305114
370 1 0.392168 0.797493 0.403977
105 1 0.39889 0.996513 0.405024
369 1 0.298395 0.900914 0.409383
103 1 0.203723 0.987788 0.398817
371 1 0.498644 0.921962 0.397574
372 1 0.592036 0.831302 0.405231
341 1 0.505477 0.822661 0.296371
396 1 0.410947 0.898396 0.498052
395 1 0.506569 0.810024 0.491246
130 1 0.518248 0.989784 0.497105
400 1 0.765993 0.901758 0.495388
109 1 0.796832 0.992942 0.405698
346 1 0.604713 0.911033 0.299018
350 1 0.789432 0.891416 0.302093
345 1 0.680731 0.803374 0.302627
373 1 0.695699 0.903844 0.3996
374 1 0.795339 0.796855 0.39129
397 1 0.69823 0.785205 0.490935
375 1 0.893872 0.902023 0.399778
399 1 0.911805 0.80364 0.497067
349 1 0.884257 0.818738 0.292066
69 1 0.879113 0.991091 0.302115
334 1 0.999669 0.897805 0.288037
366 1 0.996869 0.812976 0.38714
101 1 0.999715 0.988451 0.385532
412 1 0.0921866 0.685265 0.607649
413 1 0.107508 0.581744 0.703637
418 1 0.175188 0.696406 0.701592
401 1 0.105224 0.507429 0.581857
384 1 0.194976 0.708271 0.508936
382 1 0.00279751 0.693142 0.505198
415 1 0.207779 0.595054 0.574184
416 1 0.300009 0.6918 0.587261
417 1 0.293355 0.610551 0.692082
422 1 0.394756 0.709162 0.709365
404 1 0.214329 0.50921 0.695079
386 1 0.399354 0.707322 0.510112
403 1 0.304461 0.510512 0.597424
419 1 0.406355 0.611793 0.584156
420 1 0.505555 0.700195 0.594191
421 1 0.507499 0.590948 0.70873
406 1 0.400905 0.530598 0.706793
385 1 0.5048 0.592742 0.524565
378 1 0.402979 0.502823 0.514249
426 1 0.613774 0.710906 0.694842
423 1 0.604963 0.605826 0.61368
424 1 0.691538 0.707416 0.594921
425 1 0.705813 0.602036 0.690664
430 1 0.797431 0.712412 0.694707
427 1 0.797131 0.607382 0.586504
410 1 0.795457 0.504337 0.700483
388 1 0.603796 0.68734 0.50082
411 1 0.991097 0.595847 0.6064
414 1 0.97333 0.697831 0.709883
428 1 0.89175 0.707519 0.588661
429 1 0.891195 0.602778 0.701441
153 1 0.102124 0.998716 0.70859
432 1 0.0989529 0.891123 0.597144
433 1 0.073547 0.791506 0.692344
435 1 0.193384 0.79097 0.622865
434 1 0.00438356 0.902623 0.703467
431 1 0.00635228 0.808746 0.587017
128 1 0.302454 0.987851 0.523184
438 1 0.200513 0.906801 0.702028
436 1 0.283194 0.887643 0.59411
437 1 0.29901 0.800319 0.697463
442 1 0.389463 0.887475 0.716826
439 1 0.414182 0.810649 0.611145
159 1 0.41291 0.982887 0.610199
440 1 0.509874 0.897158 0.590199
441 1 0.518946 0.809304 0.697149
443 1 0.598027 0.792994 0.601953
446 1 0.603214 0.904376 0.70722
444 1 0.704201 0.908796 0.611201
445 1 0.697293 0.810851 0.685994
447 1 0.7946 0.807193 0.585007
398 1 0.622284 0.9008 0.506598
151 1 0.996704 0.996707 0.590124
450 1 0.819177 0.89144 0.691518
448 1 0.889905 0.898763 0.579176
449 1 0.905442 0.804455 0.692933
169 1 0.902484 0.989551 0.675767
134 1 0.899934 0.991684 0.500914
251 1 0.0959605 0.503419 0.994932
454 1 0.197129 0.506356 0.903689
462 1 0.0954417 0.67993 0.80571
463 1 0.0881439 0.607932 0.909303
465 1 0.186299 0.589822 0.795289
468 1 0.197828 0.686705 0.899898
265 1 0.18277 0.598949 0.997648
253 1 0.285909 0.510401 0.996156
453 1 0.297989 0.51326 0.801854
266 1 0.283339 0.709147 0.998774
466 1 0.290236 0.701761 0.800085
467 1 0.297234 0.613345 0.89979
469 1 0.411875 0.623903 0.793389
472 1 0.404405 0.693957 0.893384
470 1 0.502025 0.716908 0.786738
471 1 0.513878 0.6188 0.874129
456 1 0.401499 0.534684 0.895375
255 1 0.48788 0.510589 0.983454
473 1 0.601999 0.604127 0.790859
476 1 0.608379 0.70593 0.926597
474 1 0.707319 0.690697 0.794851
475 1 0.696014 0.605502 0.899374
273 1 0.605463 0.586017 0.996881
452 1 0.991522 0.515045 0.910217
461 1 0.998172 0.608137 0.81234
464 1 0.970596 0.706334 0.90408
477 1 0.812969 0.592425 0.809522
480 1 0.812568 0.704267 0.911185
478 1 0.87504 0.705519 0.800441
479 1 0.891809 0.599708 0.906265
484 1 0.00788808 0.904577 0.905692
1 1 0.00714087 0.994272 0.999093
485 1 0.194262 0.80346 0.810868
488 1 0.195698 0.91902 0.889957
481 1 0.0014155 0.783612 0.800529
483 1 0.096142 0.786343 0.908739
482 1 0.0972748 0.899053 0.79958
282 1 0.100075 0.884084 0.998816
285 1 0.197767 0.811298 0.988972
286 1 0.289621 0.899345 0.985934
9 1 0.383148 0.983742 0.990706
486 1 0.288744 0.898033 0.791191
487 1 0.289502 0.801959 0.900187
489 1 0.389642 0.789765 0.799455
492 1 0.403999 0.893003 0.881744
289 1 0.400725 0.791882 0.997896
491 1 0.504802 0.804729 0.913529
490 1 0.509341 0.903157 0.817943
209 1 0.40156 0.994845 0.789708
211 1 0.493922 0.989358 0.909188
217 1 0.798953 0.977343 0.792319
500 1 0.799219 0.898776 0.908765
493 1 0.604308 0.804255 0.805493
495 1 0.710708 0.797707 0.896528
496 1 0.607577 0.892491 0.903101
497 1 0.794925 0.810262 0.788516
494 1 0.696649 0.894641 0.808192
219 1 0.903426 0.994199 0.903703
498 1 0.904804 0.902299 0.789698
499 1 0.904304 0.808352 0.886529
298 1 0.911618 0.898783 0.990132
17 1 0.813253 0.987941 0.99544
281 1 0.992641 0.798866 0.997375
