ITEM: TIMESTEP
12000
ITEM: NUMBER OF ATOMS
5324
ITEM: BOX BOUNDS pp pp pp
0.0000000000000000e+00 5.7859999999999999e+01
0.0000000000000000e+00 5.7859999999999999e+01
0.0000000000000000e+00 5.7859999999999999e+01
ITEM: ATOMS id type xs ys zs
47 1 0.0481058 0.094684 0.037404
244 1 0.0456859 0.0322483 0.0857464
291 1 0.0746933 0.0933267 0.0897255
4 1 0.00352425 0.047505 0.0359067
287 1 0.00826525 0.0799918 0.0821894
8 1 0.085967 0.0488842 0.0452391
3 1 0.0463121 0.0035645 0.0303539
51 1 0.126391 0.0888526 0.0458078
248 1 0.140899 0.0436537 0.0851735
295 1 0.179229 0.0947163 0.0848949
12 1 0.17434 0.0456845 0.0373751
251 1 0.177311 0.00137757 0.0737275
7 1 0.128326 0.00640104 0.0316133
55 1 0.224877 0.0928607 0.0499882
252 1 0.230777 0.043983 0.090437
16 1 0.270083 0.0552463 0.0488469
299 1 0.269939 0.0947817 0.099361
53 1 0.189752 0.0882724 0.00446061
11 1 0.231727 0.00854479 0.0391687
59 1 0.324029 0.0894069 0.0495251
256 1 0.311305 0.0519631 0.0995709
15 1 0.317168 0.0109763 0.0427532
255 1 0.27731 0.000455187 0.0866877
57 1 0.275861 0.0902359 0.000619146
263 1 0.452021 0.00287047 0.0886068
20 1 0.367127 0.0468798 0.0473901
63 1 0.417273 0.0934412 0.0435159
260 1 0.399844 0.0488941 0.091187
19 1 0.413201 0.00106607 0.0465486
259 1 0.36635 0.0051372 0.0943342
24 1 0.454812 0.0463123 0.0483785
67 1 0.50519 0.0915906 0.0433037
264 1 0.50002 0.051643 0.0870973
311 1 0.545312 0.0924886 0.0905677
267 1 0.543881 0.00317197 0.0898543
307 1 0.457537 0.0975432 0.086156
23 1 0.495883 0.000659725 0.0439719
25 1 0.53661 0.00194801 0.00465581
69 1 0.54541 0.0882035 0.00243262
28 1 0.548937 0.0438084 0.0439082
71 1 0.586773 0.087735 0.0457409
268 1 0.590987 0.0411154 0.0864022
315 1 0.622177 0.0920715 0.0908136
32 1 0.63452 0.048695 0.0562843
73 1 0.630831 0.0873816 0.00990206
272 1 0.68501 0.0331709 0.0952828
75 1 0.68767 0.0859934 0.0484589
30 1 0.686059 0.0450547 0.00677266
36 1 0.729328 0.040949 0.0491897
319 1 0.734814 0.09345 0.0914785
79 1 0.77176 0.090574 0.0394049
276 1 0.770109 0.0498416 0.0928092
279 1 0.816484 0.00599014 0.0906569
40 1 0.819565 0.0521148 0.0421855
280 1 0.862607 0.0450673 0.0892907
83 1 0.863777 0.0976937 0.0411964
323 1 0.818624 0.0903525 0.0869165
327 1 0.907877 0.0915878 0.0872713
39 1 0.87143 0.00539667 0.0354891
44 1 0.914292 0.049698 0.0357026
284 1 0.9567 0.0469124 0.0924197
87 1 0.959373 0.0848383 0.0387275
283 1 0.913789 0.00353669 0.0800342
243 1 0.994563 0.00173976 0.081644
43 1 0.962455 0.00521562 0.035848
91 1 0.0387903 0.189289 0.0443823
335 1 0.0863905 0.183094 0.0906067
52 1 0.084876 0.140636 0.0497037
48 1 0.00307719 0.137957 0.0407508
288 1 0.0430444 0.138848 0.0957319
95 1 0.139249 0.182451 0.0458913
292 1 0.137223 0.139589 0.0909342
56 1 0.180783 0.139362 0.0460276
50 1 0.137735 0.138145 0.00769749
339 1 0.187535 0.179601 0.0964801
99 1 0.230268 0.17912 0.0476377
296 1 0.223174 0.134639 0.0892575
343 1 0.27243 0.176501 0.0977357
54 1 0.22292 0.13865 0.00440745
60 1 0.276429 0.1295 0.0465059
103 1 0.323174 0.178152 0.0394316
300 1 0.318669 0.135356 0.0871471
58 1 0.324449 0.123952 0.000464137
303 1 0.372407 0.102102 0.0844027
64 1 0.369316 0.136942 0.0426714
347 1 0.365058 0.176835 0.0873887
107 1 0.407775 0.181538 0.0356112
304 1 0.412418 0.14403 0.0847554
62 1 0.402974 0.134374 0.000788144
68 1 0.455337 0.136939 0.0410833
351 1 0.456423 0.180044 0.0988658
111 1 0.500773 0.178456 0.0460734
308 1 0.500458 0.134384 0.0911067
72 1 0.543797 0.137373 0.051078
355 1 0.552011 0.18725 0.0934749
115 1 0.591042 0.175679 0.0485999
312 1 0.584392 0.136565 0.0992034
76 1 0.634717 0.133956 0.0493372
117 1 0.635302 0.181745 0.00219869
359 1 0.6394 0.178537 0.0917012
119 1 0.688165 0.191473 0.0381062
316 1 0.683617 0.143301 0.0751182
74 1 0.676235 0.122925 0.00909999
363 1 0.727628 0.190634 0.08761
80 1 0.727607 0.136784 0.044571
123 1 0.76948 0.186982 0.0389099
84 1 0.813996 0.13449 0.0423669
367 1 0.815072 0.188132 0.0950355
127 1 0.868702 0.179407 0.0416021
324 1 0.8676 0.137975 0.0789233
331 1 0.992748 0.179488 0.0931593
88 1 0.915836 0.135953 0.0446032
371 1 0.911371 0.177364 0.0833473
131 1 0.959127 0.181153 0.0403131
328 1 0.962387 0.1274 0.0842016
89 1 0.99881 0.186879 0.00048072
135 1 0.0498156 0.274926 0.0414445
92 1 7.82663e-06 0.22924 0.0385949
96 1 0.090026 0.224764 0.0435057
332 1 0.0433646 0.22886 0.0885788
375 1 0.00147731 0.2726 0.0837587
90 1 0.0554545 0.238111 0.000183245
141 1 0.178446 0.269396 0.00673878
379 1 0.0915744 0.273322 0.0924548
139 1 0.128722 0.277824 0.0475805
336 1 0.139564 0.233962 0.0845741
137 1 0.0983187 0.275759 0.00232137
94 1 0.134673 0.227572 0.00882648
100 1 0.188191 0.218446 0.0448486
383 1 0.185353 0.269465 0.0937958
143 1 0.231751 0.273762 0.0544781
340 1 0.232184 0.225193 0.0845394
98 1 0.234928 0.218725 0.00126609
104 1 0.28233 0.220736 0.0439353
147 1 0.320622 0.262828 0.0414119
344 1 0.320303 0.224988 0.0887078
391 1 0.359811 0.267571 0.0918206
149 1 0.358815 0.270573 0.00403273
108 1 0.36838 0.220677 0.0535934
151 1 0.413185 0.270833 0.0361863
348 1 0.412907 0.235028 0.091112
110 1 0.499448 0.218942 0.00624047
112 1 0.456583 0.225919 0.0546782
395 1 0.461492 0.270885 0.0951339
155 1 0.501357 0.26609 0.0524152
352 1 0.499608 0.226367 0.0965629
116 1 0.543144 0.219679 0.0463261
153 1 0.463836 0.264764 0.0070307
157 1 0.54641 0.267161 0.00595269
399 1 0.550802 0.268837 0.0990167
159 1 0.587372 0.261453 0.0487189
356 1 0.600193 0.218898 0.0959278
120 1 0.63386 0.228076 0.046289
403 1 0.63079 0.269491 0.0940664
161 1 0.631719 0.276144 9.83912e-05
163 1 0.681607 0.277446 0.0510308
360 1 0.68151 0.21737 0.0933958
407 1 0.725131 0.261671 0.091406
118 1 0.680077 0.239555 0.0047347
124 1 0.735506 0.23902 0.0404873
167 1 0.782365 0.272368 0.0509712
364 1 0.774957 0.233447 0.0899524
128 1 0.819462 0.227373 0.0457697
411 1 0.822779 0.261636 0.0925799
171 1 0.866816 0.278075 0.041638
368 1 0.873101 0.234882 0.0825883
169 1 0.818712 0.272454 0.001463
126 1 0.864869 0.226922 0.0083536
415 1 0.92139 0.271433 0.0830902
132 1 0.914747 0.218337 0.0353401
175 1 0.959067 0.271119 0.0414389
372 1 0.955664 0.223782 0.0927893
173 1 0.912332 0.272412 0.00290638
179 1 0.0520132 0.367864 0.0415039
376 1 0.05777 0.32596 0.0862347
140 1 0.0890835 0.319432 0.0364567
136 1 0.00791368 0.317639 0.0443183
419 1 0.00425184 0.361387 0.0841709
138 1 0.144268 0.319676 0.00240863
423 1 0.0971654 0.370091 0.085494
183 1 0.146127 0.364328 0.0441213
380 1 0.133363 0.318504 0.0882172
181 1 0.0966423 0.366072 0.000508296
144 1 0.185961 0.317268 0.0473995
187 1 0.236897 0.359207 0.0452415
384 1 0.234367 0.322976 0.0974683
427 1 0.19022 0.362556 0.0832971
185 1 0.19068 0.361438 0.00688859
142 1 0.233639 0.320772 0.00312309
148 1 0.283387 0.316251 0.0467349
431 1 0.283487 0.365359 0.0960676
191 1 0.32527 0.363549 0.0362329
388 1 0.321236 0.316355 0.0899518
152 1 0.36478 0.315487 0.0478169
435 1 0.367815 0.360029 0.0896393
195 1 0.414878 0.35542 0.0451647
392 1 0.407681 0.305242 0.0881954
196 1 0.365943 0.395193 0.04504
197 1 0.446802 0.362702 0.000988277
156 1 0.456151 0.313316 0.0469395
439 1 0.455984 0.362852 0.0911002
199 1 0.501043 0.357364 0.0432037
154 1 0.511131 0.313916 0.00115736
158 1 0.588859 0.32141 0.00236051
201 1 0.546224 0.364074 0.00282926
160 1 0.545941 0.319155 0.0525409
203 1 0.591207 0.358191 0.0590499
164 1 0.627679 0.310804 0.0526922
205 1 0.634969 0.357506 0.00507298
447 1 0.643106 0.356204 0.0934556
207 1 0.68676 0.350236 0.0467686
404 1 0.681505 0.314987 0.0975358
451 1 0.726216 0.359389 0.0867162
208 1 0.648621 0.399013 0.0508016
162 1 0.676953 0.311875 0.00112934
206 1 0.680132 0.399847 0.00179479
210 1 0.772158 0.397057 0.0079255
209 1 0.727497 0.355468 0.004598
168 1 0.733691 0.305806 0.045801
211 1 0.77933 0.355339 0.0489165
408 1 0.787321 0.310848 0.0953628
452 1 0.770384 0.39964 0.0941786
166 1 0.776407 0.312311 0.00744483
213 1 0.816196 0.353383 0.00141959
455 1 0.829412 0.35717 0.0873718
172 1 0.823761 0.315707 0.0461756
215 1 0.865955 0.356143 0.0421606
412 1 0.867545 0.300692 0.0954362
459 1 0.908436 0.354649 0.090217
170 1 0.866606 0.317513 0.00188434
176 1 0.921412 0.321545 0.0432081
219 1 0.959052 0.367113 0.0433083
416 1 0.95968 0.320185 0.0897205
174 1 0.957505 0.320077 0.00307946
222 1 0.0488864 0.450588 0.0488602
180 1 0.00180717 0.406735 0.0381798
463 1 0.00485752 0.450334 0.0963557
420 1 0.0498707 0.405778 0.0948304
221 1 0.00849318 0.459705 0.00141256
2664 1 0.00480177 0.49655 0.0541544
2905 1 0.0536484 0.499398 0.0927486
2663 1 0.0515734 0.49199 0.00777722
178 1 0.0483876 0.413833 0.00099835
2666 1 0.096615 0.491867 0.0459893
184 1 0.0965077 0.418878 0.0346339
465 1 0.0979039 0.456981 0.0896925
224 1 0.147529 0.456369 0.0433973
424 1 0.1422 0.410897 0.0875873
188 1 0.186696 0.409535 0.0436776
467 1 0.196943 0.456524 0.0889377
226 1 0.237264 0.456824 0.0413608
428 1 0.243359 0.401921 0.0846303
2668 1 0.191304 0.498278 0.0403549
2670 1 0.281132 0.499286 0.0470535
432 1 0.327681 0.403978 0.0977109
469 1 0.282918 0.453069 0.0905561
192 1 0.287481 0.409286 0.0424364
228 1 0.324771 0.457217 0.050637
2669 1 0.326119 0.499249 0.00115085
227 1 0.28205 0.461088 0.0038347
471 1 0.367163 0.45454 0.0962937
230 1 0.391664 0.44804 0.0459355
436 1 0.415003 0.404235 0.0901759
194 1 0.4199 0.412992 0.00564423
233 1 0.544043 0.454492 0.00104592
231 1 0.456134 0.461845 0.0051712
200 1 0.462201 0.402063 0.0470949
473 1 0.458502 0.451465 0.0936202
232 1 0.498262 0.451616 0.0523983
440 1 0.49723 0.409449 0.0936203
2676 1 0.546296 0.490646 0.0513339
444 1 0.601453 0.405255 0.0962964
202 1 0.591594 0.403431 0.00800414
204 1 0.552947 0.401904 0.0609564
475 1 0.548781 0.447998 0.0935047
234 1 0.600824 0.444707 0.0511902
2917 1 0.590718 0.494566 0.0888143
2675 1 0.586952 0.492742 0.00532242
477 1 0.642685 0.453654 0.0909599
236 1 0.686936 0.454373 0.0439852
448 1 0.687218 0.409187 0.0959988
212 1 0.723019 0.405172 0.0436265
235 1 0.638632 0.445048 0.00583855
2678 1 0.636955 0.49382 0.0505563
2680 1 0.736643 0.499075 0.0467971
479 1 0.735226 0.446552 0.086086
238 1 0.773101 0.450242 0.0467698
481 1 0.818032 0.447619 0.0954809
239 1 0.808162 0.444632 0.000608443
2921 1 0.776686 0.492418 0.0995866
237 1 0.7297 0.451826 0.00267336
216 1 0.828656 0.401853 0.0451552
240 1 0.870279 0.448036 0.0456846
456 1 0.865405 0.406038 0.0933876
2923 1 0.86518 0.498825 0.0952156
2682 1 0.823589 0.489142 0.0488408
2681 1 0.871377 0.494237 0.00673642
483 1 0.915082 0.452068 0.0956028
220 1 0.912013 0.405278 0.0466117
242 1 0.955959 0.460118 0.0483774
241 1 0.916 0.452086 0.00547961
289 1 0.039458 0.0885398 0.134334
486 1 0.0435376 0.0462752 0.185475
250 1 0.085215 0.0413043 0.126116
246 1 0.00162827 0.0373029 0.129704
489 1 0.0919157 0.00447297 0.18722
533 1 0.091264 0.0907985 0.174105
490 1 0.147225 0.0377867 0.182836
293 1 0.129875 0.0837463 0.137357
537 1 0.180479 0.0951526 0.185701
249 1 0.140222 0.00725021 0.132553
254 1 0.184085 0.0498789 0.131134
494 1 0.219293 0.0496001 0.181927
541 1 0.266614 0.0892949 0.185318
258 1 0.267929 0.0432841 0.135785
253 1 0.226859 0.00244691 0.131209
257 1 0.316136 0.00050692 0.135718
497 1 0.272968 0.00192549 0.182661
498 1 0.315927 0.050347 0.184253
301 1 0.312806 0.0934345 0.149064
545 1 0.357158 0.0951959 0.184047
501 1 0.362261 0.000267939 0.183004
262 1 0.365524 0.0516907 0.137805
305 1 0.406834 0.0968609 0.131517
502 1 0.412767 0.0392167 0.172477
266 1 0.446106 0.0520096 0.124172
549 1 0.45108 0.0816028 0.176016
265 1 0.496087 0.00899417 0.131567
506 1 0.496089 0.0446927 0.176981
553 1 0.54425 0.081656 0.183173
309 1 0.498191 0.0939185 0.134419
270 1 0.54574 0.039177 0.138158
313 1 0.587329 0.0854315 0.139935
510 1 0.593264 0.0371234 0.188369
557 1 0.63507 0.0880679 0.179348
274 1 0.634858 0.0413927 0.135729
317 1 0.676464 0.0896541 0.113683
514 1 0.678325 0.047924 0.173116
278 1 0.726228 0.045329 0.133978
561 1 0.72294 0.0874836 0.170881
277 1 0.769812 0.00684908 0.129663
321 1 0.770256 0.0907663 0.134221
518 1 0.775175 0.0499061 0.18793
517 1 0.73504 0.00426902 0.179705
521 1 0.817506 0.00184116 0.178623
525 1 0.906123 0.00148258 0.179418
282 1 0.818631 0.0537389 0.134026
565 1 0.820209 0.0978069 0.176974
325 1 0.865278 0.0868368 0.132681
522 1 0.863935 0.0462086 0.178884
281 1 0.866972 0.0025465 0.133687
286 1 0.914883 0.049126 0.14099
529 1 0.999614 0.0871742 0.181088
569 1 0.915229 0.0966295 0.172582
526 1 0.957183 0.048503 0.177504
329 1 0.956727 0.0962535 0.132547
333 1 0.0436109 0.183254 0.143016
530 1 0.0508713 0.136428 0.183895
577 1 0.084987 0.177332 0.183681
294 1 0.085989 0.140328 0.129425
573 1 0.00344781 0.187256 0.188174
290 1 0.00333606 0.137117 0.138353
337 1 0.135673 0.187063 0.140749
534 1 0.131912 0.138383 0.172011
298 1 0.175081 0.126029 0.132269
297 1 0.229783 0.103227 0.141655
581 1 0.184155 0.184799 0.186801
341 1 0.225696 0.183563 0.140969
538 1 0.225793 0.141065 0.179585
585 1 0.263817 0.188882 0.183498
302 1 0.275778 0.140228 0.140875
345 1 0.32626 0.173679 0.138368
542 1 0.3176 0.141679 0.183406
306 1 0.357688 0.129729 0.138541
589 1 0.365798 0.174365 0.179387
349 1 0.405896 0.173328 0.136033
546 1 0.404813 0.132091 0.182087
310 1 0.4516 0.135877 0.139557
593 1 0.449986 0.182085 0.179651
353 1 0.49722 0.172634 0.141362
550 1 0.49353 0.126916 0.189558
314 1 0.540648 0.133607 0.138498
597 1 0.535085 0.180014 0.187726
357 1 0.59245 0.173161 0.139941
554 1 0.583222 0.135183 0.182844
601 1 0.633075 0.167686 0.191653
318 1 0.63524 0.128661 0.134427
361 1 0.680724 0.170198 0.1393
558 1 0.678488 0.12673 0.1815
320 1 0.776586 0.134208 0.101176
322 1 0.728963 0.135806 0.133297
605 1 0.72974 0.177294 0.192611
365 1 0.769603 0.185322 0.132499
562 1 0.771884 0.1323 0.174707
609 1 0.813758 0.179861 0.171343
326 1 0.827253 0.135849 0.127092
369 1 0.861126 0.198186 0.127223
566 1 0.867457 0.139339 0.170365
330 1 0.90633 0.136571 0.128014
613 1 0.911595 0.183011 0.186208
373 1 0.951526 0.180424 0.1352
570 1 0.960204 0.141409 0.176769
377 1 0.0490297 0.269269 0.132718
574 1 0.0428234 0.231549 0.183009
617 1 0.00189368 0.273634 0.172382
334 1 0.00328184 0.228855 0.130609
338 1 0.0934085 0.223467 0.127629
621 1 0.0929674 0.266615 0.176278
381 1 0.139578 0.273261 0.137825
578 1 0.139579 0.230777 0.184713
342 1 0.185509 0.223507 0.136857
625 1 0.182795 0.276452 0.171482
385 1 0.22571 0.271732 0.130204
582 1 0.221199 0.23392 0.184016
346 1 0.271968 0.228185 0.14567
387 1 0.279726 0.266571 0.101468
629 1 0.276874 0.277934 0.188274
389 1 0.319203 0.27114 0.140308
586 1 0.32943 0.225976 0.178891
633 1 0.36217 0.273347 0.190006
350 1 0.369096 0.219773 0.130078
393 1 0.411779 0.280935 0.147101
590 1 0.402482 0.224351 0.183239
354 1 0.451989 0.224077 0.139649
637 1 0.451012 0.264132 0.187664
397 1 0.498467 0.263562 0.143188
594 1 0.5018 0.224855 0.190874
358 1 0.545134 0.212774 0.141414
641 1 0.545092 0.268507 0.191546
401 1 0.595339 0.255037 0.141269
598 1 0.583591 0.215247 0.188619
362 1 0.633632 0.208954 0.146389
645 1 0.643304 0.26382 0.178686
405 1 0.692404 0.26822 0.142401
602 1 0.681615 0.215183 0.179149
366 1 0.72098 0.220466 0.140082
649 1 0.72737 0.270482 0.187004
409 1 0.777238 0.273045 0.138282
606 1 0.768797 0.225481 0.18095
653 1 0.816743 0.269665 0.185859
370 1 0.813641 0.228222 0.141387
413 1 0.862759 0.260601 0.140205
610 1 0.867388 0.22176 0.189494
374 1 0.913294 0.227533 0.134586
657 1 0.911455 0.274493 0.182649
417 1 0.952922 0.27008 0.127678
614 1 0.960534 0.22232 0.173834
421 1 0.0476454 0.361109 0.136043
618 1 0.0466656 0.308547 0.185444
382 1 0.0897935 0.315834 0.138254
378 1 0.00768593 0.316284 0.130883
665 1 0.0949612 0.361409 0.175686
425 1 0.143975 0.36965 0.136368
622 1 0.133884 0.317688 0.187753
386 1 0.180562 0.31538 0.130817
669 1 0.185841 0.356787 0.179141
429 1 0.230545 0.369611 0.135892
626 1 0.232931 0.313816 0.17153
390 1 0.278931 0.315103 0.134885
673 1 0.276535 0.363822 0.180525
433 1 0.325732 0.366825 0.139547
630 1 0.325735 0.319898 0.176576
677 1 0.362067 0.368544 0.183871
394 1 0.362707 0.313847 0.133616
437 1 0.421871 0.345726 0.131086
634 1 0.40075 0.321173 0.192285
681 1 0.441201 0.363357 0.18759
396 1 0.506866 0.313133 0.100589
443 1 0.543763 0.352858 0.105846
398 1 0.464686 0.311567 0.138979
441 1 0.49413 0.362414 0.137415
638 1 0.501837 0.328469 0.18879
402 1 0.5441 0.310565 0.148166
400 1 0.589655 0.309746 0.100182
685 1 0.554968 0.362927 0.179772
445 1 0.605126 0.362337 0.134942
642 1 0.591882 0.307035 0.182836
406 1 0.635673 0.311187 0.142705
689 1 0.636174 0.357213 0.187703
449 1 0.685905 0.361583 0.135332
646 1 0.686952 0.316494 0.174005
693 1 0.727609 0.361103 0.182387
410 1 0.736089 0.313058 0.128001
453 1 0.771348 0.358824 0.141906
650 1 0.771758 0.31784 0.181117
697 1 0.821649 0.355314 0.183966
414 1 0.827492 0.307156 0.137259
457 1 0.864813 0.360424 0.134067
654 1 0.867002 0.311359 0.179923
701 1 0.914963 0.36136 0.185386
418 1 0.912339 0.313816 0.130442
661 1 0.998975 0.352604 0.174409
461 1 0.961095 0.35977 0.132655
658 1 0.95274 0.320624 0.178913
464 1 0.0541986 0.445904 0.13503
662 1 0.0510639 0.405485 0.181516
422 1 0.0058469 0.403466 0.138894
3147 1 0.048932 0.492589 0.179178
2906 1 0.00369979 0.489732 0.138348
2910 1 0.179607 0.495658 0.14287
426 1 0.10125 0.410543 0.136426
707 1 0.0917659 0.450659 0.177549
466 1 0.137614 0.457932 0.132762
666 1 0.141626 0.405547 0.18294
2908 1 0.0968874 0.499782 0.135485
3151 1 0.223746 0.499059 0.176594
430 1 0.185633 0.415747 0.129006
709 1 0.181906 0.450924 0.178976
468 1 0.23186 0.456817 0.138165
670 1 0.228917 0.409655 0.180941
434 1 0.280383 0.408924 0.138294
711 1 0.276672 0.457617 0.179775
674 1 0.320318 0.411869 0.189213
470 1 0.320626 0.450009 0.138634
2912 1 0.275648 0.498289 0.135359
438 1 0.369518 0.407281 0.13808
713 1 0.367526 0.44679 0.181768
472 1 0.40429 0.45879 0.137328
678 1 0.419396 0.416875 0.185403
2914 1 0.36559 0.498364 0.14221
2916 1 0.453978 0.49594 0.136722
3155 1 0.41073 0.497915 0.183837
715 1 0.462123 0.4565 0.181596
682 1 0.498477 0.408162 0.181103
442 1 0.455335 0.401574 0.142305
474 1 0.499877 0.459046 0.140274
3157 1 0.501125 0.498873 0.183717
2918 1 0.548051 0.497511 0.134525
446 1 0.546831 0.405413 0.132633
717 1 0.545901 0.446105 0.175143
476 1 0.59418 0.457645 0.135518
686 1 0.595185 0.406275 0.183781
719 1 0.635793 0.452587 0.179438
3159 1 0.58805 0.494661 0.185629
450 1 0.645496 0.407082 0.137705
478 1 0.681235 0.460942 0.134394
690 1 0.684511 0.408255 0.188225
454 1 0.727239 0.412671 0.141057
3161 1 0.671457 0.499421 0.180609
721 1 0.733569 0.448062 0.184459
480 1 0.777604 0.454375 0.14543
694 1 0.779912 0.406226 0.185239
458 1 0.815716 0.401498 0.137905
723 1 0.823423 0.449361 0.181547
482 1 0.868702 0.44307 0.133629
698 1 0.868229 0.401409 0.18606
2926 1 0.90883 0.498354 0.141764
3165 1 0.860899 0.494951 0.175989
705 1 0.995761 0.455886 0.18683
725 1 0.913586 0.451475 0.181118
460 1 0.95961 0.405218 0.100537
462 1 0.910841 0.40253 0.139064
484 1 0.954622 0.455544 0.133678
702 1 0.958782 0.401128 0.187605
487 1 0.045708 0.00471372 0.227454
531 1 0.0455267 0.0843088 0.230848
728 1 0.0489837 0.0477827 0.273832
492 1 0.0907306 0.0419256 0.227591
771 1 0.00426865 0.094586 0.271275
491 1 0.142195 0.00662661 0.232757
775 1 0.096 0.0887643 0.26887
535 1 0.138626 0.088913 0.227773
732 1 0.14181 0.0409357 0.285059
779 1 0.17943 0.0889174 0.275268
495 1 0.22827 0.00323612 0.222215
496 1 0.186646 0.0470766 0.230197
736 1 0.229812 0.05418 0.270623
500 1 0.27217 0.0451582 0.227771
539 1 0.217928 0.0917101 0.227365
735 1 0.182703 0.00392338 0.270145
783 1 0.275374 0.0989816 0.276709
740 1 0.312844 0.0479926 0.268249
543 1 0.317654 0.0978077 0.227608
787 1 0.362703 0.0872145 0.277041
504 1 0.360301 0.0498044 0.232725
739 1 0.275319 0.00412786 0.268336
743 1 0.356026 0.00111705 0.265639
547 1 0.407932 0.0818375 0.224382
744 1 0.404637 0.0371969 0.273164
791 1 0.445355 0.0862233 0.276877
508 1 0.447327 0.0391701 0.224569
507 1 0.498318 0.00320909 0.228445
551 1 0.497602 0.0799169 0.231296
748 1 0.491214 0.0399519 0.274051
795 1 0.538701 0.0792396 0.268295
512 1 0.541 0.0428948 0.227921
752 1 0.589945 0.0357742 0.271814
555 1 0.592251 0.0833418 0.226231
799 1 0.628481 0.0826483 0.268506
516 1 0.64038 0.042981 0.22503
559 1 0.679272 0.0859774 0.23383
756 1 0.674825 0.0382565 0.267965
520 1 0.725611 0.0482309 0.222228
803 1 0.730112 0.0961527 0.27655
760 1 0.765844 0.0466784 0.269075
563 1 0.781022 0.0972847 0.220623
519 1 0.777343 0.00137318 0.229714
523 1 0.858941 0.00782983 0.227103
807 1 0.819986 0.0863876 0.273844
524 1 0.819286 0.0514944 0.225986
567 1 0.86739 0.0942307 0.221167
764 1 0.872957 0.0476793 0.270592
528 1 0.905902 0.0459585 0.222714
763 1 0.81947 0.000377405 0.276277
527 1 0.951771 0.00441153 0.219497
811 1 0.910036 0.0933465 0.278329
488 1 0.995782 0.0479629 0.225239
768 1 0.960789 0.0418548 0.272816
571 1 0.947481 0.0902966 0.227782
767 1 0.91254 0.00171793 0.269605
575 1 0.0480252 0.185559 0.228367
772 1 0.0526339 0.132241 0.269178
819 1 0.0882709 0.17927 0.26961
532 1 0.00361594 0.131439 0.221048
536 1 0.0956194 0.127232 0.224584
579 1 0.137209 0.175571 0.219248
776 1 0.134956 0.132215 0.270619
540 1 0.178765 0.134817 0.230957
823 1 0.178648 0.176056 0.269604
583 1 0.228441 0.181244 0.233134
780 1 0.21808 0.135353 0.275078
544 1 0.267155 0.139512 0.222069
827 1 0.268127 0.179045 0.271135
587 1 0.305781 0.187663 0.221989
784 1 0.315563 0.14209 0.267058
548 1 0.364222 0.132488 0.229761
831 1 0.364981 0.187684 0.270216
591 1 0.403704 0.17936 0.226694
788 1 0.407996 0.137449 0.272495
552 1 0.44505 0.129854 0.23035
835 1 0.455865 0.179201 0.276764
595 1 0.493962 0.175098 0.227767
792 1 0.491042 0.136546 0.269778
839 1 0.536821 0.173932 0.271276
556 1 0.536765 0.12496 0.232012
599 1 0.583666 0.175418 0.231975
796 1 0.582811 0.125577 0.274552
560 1 0.633988 0.121475 0.230852
843 1 0.633025 0.169702 0.271827
603 1 0.678133 0.177631 0.229532
800 1 0.674706 0.129213 0.279221
564 1 0.724295 0.126658 0.223882
847 1 0.729584 0.174931 0.273083
607 1 0.776541 0.176237 0.227819
804 1 0.783385 0.130553 0.269888
851 1 0.82533 0.185442 0.278269
568 1 0.824581 0.141812 0.217933
611 1 0.864925 0.176692 0.221694
808 1 0.866072 0.132479 0.271169
572 1 0.910587 0.136886 0.226105
855 1 0.915699 0.18287 0.268274
815 1 0.994296 0.187448 0.26953
615 1 0.956245 0.185657 0.221193
812 1 0.952474 0.133489 0.277497
619 1 0.0494896 0.270901 0.229812
816 1 0.0564595 0.230766 0.27511
576 1 0.000894528 0.228035 0.227003
863 1 0.0901331 0.275538 0.273804
859 1 0.00452497 0.265634 0.282162
580 1 0.0919519 0.227181 0.224493
623 1 0.134144 0.275849 0.226523
820 1 0.132725 0.228464 0.267913
584 1 0.178005 0.229571 0.226541
867 1 0.175267 0.273726 0.274917
627 1 0.224637 0.277087 0.230293
824 1 0.226577 0.226722 0.271977
871 1 0.264762 0.280554 0.267652
588 1 0.266387 0.232704 0.227189
631 1 0.315222 0.275837 0.233568
828 1 0.31302 0.225173 0.270288
592 1 0.35244 0.226393 0.227789
875 1 0.364634 0.2798 0.274902
635 1 0.40895 0.271984 0.232151
832 1 0.403332 0.227373 0.27329
879 1 0.449673 0.264966 0.277366
596 1 0.45024 0.218517 0.230658
639 1 0.500554 0.270162 0.232761
836 1 0.500869 0.225744 0.273308
600 1 0.542055 0.221676 0.232496
883 1 0.552602 0.264856 0.271526
643 1 0.597661 0.263065 0.226989
840 1 0.5993 0.219116 0.268915
887 1 0.648051 0.273306 0.274222
604 1 0.640966 0.22137 0.222073
647 1 0.686153 0.265056 0.225472
844 1 0.69188 0.229002 0.272581
608 1 0.734062 0.221992 0.232663
891 1 0.733346 0.268667 0.284765
651 1 0.782266 0.266669 0.23204
848 1 0.774552 0.21992 0.272538
895 1 0.814592 0.276127 0.281214
612 1 0.817464 0.222368 0.214874
655 1 0.867003 0.267796 0.227136
852 1 0.870929 0.225655 0.267351
899 1 0.911876 0.278576 0.276589
616 1 0.91482 0.231873 0.222618
659 1 0.957591 0.269558 0.224684
856 1 0.949768 0.231977 0.270073
663 1 0.0427306 0.352807 0.224105
860 1 0.0453565 0.311273 0.274784
624 1 0.0891812 0.325182 0.232126
907 1 0.0817725 0.356432 0.280774
620 1 0.0056528 0.308624 0.227128
903 1 0.00506684 0.360718 0.274554
667 1 0.137152 0.368258 0.225309
864 1 0.136106 0.314568 0.265664
911 1 0.17623 0.363395 0.280433
628 1 0.179812 0.315098 0.222736
671 1 0.225745 0.356822 0.218797
868 1 0.212162 0.318838 0.26708
915 1 0.263771 0.365672 0.269297
632 1 0.27491 0.327592 0.228248
675 1 0.318783 0.363722 0.225465
872 1 0.317767 0.31964 0.274428
636 1 0.357084 0.322257 0.234143
919 1 0.360397 0.370476 0.272224
679 1 0.407304 0.36916 0.228121
876 1 0.401926 0.329331 0.272495
640 1 0.449011 0.315081 0.242337
923 1 0.456297 0.366434 0.26925
683 1 0.49474 0.371149 0.225791
880 1 0.506325 0.321189 0.267794
644 1 0.546224 0.319858 0.22738
927 1 0.546596 0.366535 0.270298
687 1 0.592042 0.362696 0.229917
884 1 0.598478 0.321768 0.271525
648 1 0.641151 0.315162 0.227083
931 1 0.638488 0.369445 0.272819
691 1 0.679875 0.365896 0.230778
888 1 0.687758 0.319901 0.277643
652 1 0.718378 0.31662 0.230963
935 1 0.731283 0.365839 0.270489
695 1 0.771484 0.356249 0.22794
892 1 0.771043 0.312917 0.275418
939 1 0.814284 0.369254 0.275402
656 1 0.820253 0.318592 0.231221
699 1 0.869157 0.355994 0.230474
896 1 0.86268 0.316519 0.273047
943 1 0.911059 0.358125 0.266798
660 1 0.915724 0.316533 0.223003
703 1 0.963397 0.358496 0.232228
900 1 0.966012 0.305175 0.26932
904 1 0.0466175 0.407667 0.27771
706 1 0.0475258 0.46122 0.229284
668 1 0.0873922 0.413861 0.230884
947 1 0.00180608 0.456285 0.265821
949 1 0.07919 0.457944 0.273893
664 1 0.00888078 0.404715 0.223743
708 1 0.142863 0.45842 0.227623
908 1 0.13529 0.411512 0.267541
951 1 0.176076 0.457287 0.275039
672 1 0.179607 0.406514 0.232009
3152 1 0.182116 0.499657 0.22517
710 1 0.228214 0.458858 0.219842
912 1 0.221179 0.418937 0.26653
676 1 0.265522 0.41107 0.230299
953 1 0.272156 0.463662 0.267689
916 1 0.311534 0.408814 0.265251
712 1 0.322203 0.456963 0.224897
955 1 0.362725 0.453494 0.268677
680 1 0.360664 0.410129 0.229635
3156 1 0.362389 0.499121 0.223457
920 1 0.412912 0.413006 0.270664
714 1 0.405927 0.461093 0.226912
684 1 0.453683 0.420479 0.233255
957 1 0.460299 0.45459 0.28138
716 1 0.502241 0.454037 0.227448
924 1 0.501391 0.41582 0.269853
3158 1 0.455799 0.495696 0.230435
3399 1 0.502215 0.495963 0.268113
959 1 0.558669 0.458004 0.278384
688 1 0.54859 0.408072 0.224008
718 1 0.593516 0.450645 0.225547
928 1 0.594134 0.409278 0.274634
692 1 0.63554 0.406652 0.226787
3162 1 0.630156 0.498299 0.227052
961 1 0.641393 0.449425 0.27213
932 1 0.685951 0.409579 0.26525
720 1 0.681781 0.456678 0.225698
3405 1 0.760961 0.499131 0.280362
696 1 0.730024 0.401943 0.226426
963 1 0.729575 0.45205 0.269067
936 1 0.778602 0.414988 0.267143
722 1 0.776099 0.457962 0.228093
965 1 0.81404 0.4606 0.275917
700 1 0.823851 0.400114 0.229983
940 1 0.862837 0.402576 0.271913
724 1 0.860923 0.452006 0.22664
967 1 0.900796 0.451438 0.272063
704 1 0.914552 0.405082 0.224616
726 1 0.952117 0.456152 0.230059
944 1 0.95483 0.401002 0.273967
3409 1 0.956503 0.495154 0.268118
773 1 0.0517045 0.0968099 0.316411
970 1 0.0498998 0.0494632 0.360411
1013 1 0.00318448 0.0902942 0.368283
730 1 0.000971858 0.0505317 0.315587
973 1 0.0932311 0.00310554 0.366523
734 1 0.0932594 0.0506786 0.315669
1017 1 0.0964588 0.0973228 0.356609
777 1 0.140423 0.0872005 0.323023
974 1 0.142428 0.037482 0.366304
1021 1 0.176452 0.0857765 0.369253
981 1 0.267417 0.00361345 0.354433
738 1 0.189732 0.0441084 0.31562
781 1 0.223449 0.099062 0.320223
978 1 0.226114 0.0473903 0.361804
1025 1 0.269832 0.08779 0.361054
742 1 0.265021 0.0467868 0.316134
785 1 0.306565 0.0950346 0.318208
982 1 0.308952 0.0440771 0.360975
746 1 0.352267 0.0432638 0.313106
1029 1 0.353876 0.0888578 0.359066
986 1 0.39928 0.0391968 0.365751
750 1 0.442959 0.0347365 0.318635
789 1 0.402585 0.0854485 0.322758
1033 1 0.44611 0.0827337 0.36441
793 1 0.490519 0.0810387 0.317831
990 1 0.501127 0.0360805 0.359906
754 1 0.540837 0.0403971 0.318464
1037 1 0.537213 0.0897828 0.362707
797 1 0.581782 0.0826877 0.316057
994 1 0.585073 0.0437469 0.359002
1041 1 0.633635 0.0860738 0.36359
758 1 0.635512 0.0453876 0.319628
762 1 0.718601 0.0326636 0.311408
801 1 0.682504 0.0836854 0.313209
998 1 0.681337 0.0441435 0.35892
1045 1 0.724728 0.0806127 0.357703
1001 1 0.727366 0.00350781 0.367455
805 1 0.77557 0.0857314 0.313666
1002 1 0.772175 0.0422942 0.359238
1049 1 0.817446 0.0866837 0.365616
766 1 0.824557 0.0452253 0.319478
809 1 0.861335 0.0926899 0.313491
1006 1 0.86707 0.0345192 0.364982
1053 1 0.906007 0.090294 0.357458
765 1 0.866506 0.00158035 0.313097
769 1 0.964814 0.000390306 0.315226
1009 1 0.921987 0.00400651 0.367981
770 1 0.912473 0.0431306 0.323872
1010 1 0.962463 0.0447312 0.368401
813 1 0.95657 0.0856064 0.312942
817 1 0.0488332 0.18519 0.318266
1014 1 0.0499236 0.136079 0.364114
1057 1 0.00661082 0.17733 0.362356
774 1 0.00212865 0.140351 0.317471
1061 1 0.104911 0.181526 0.365096
778 1 0.0953098 0.139193 0.314851
821 1 0.129403 0.192221 0.312619
1018 1 0.143581 0.136723 0.368791
782 1 0.176388 0.135803 0.318838
1065 1 0.181475 0.187575 0.359962
825 1 0.2248 0.180276 0.316339
1022 1 0.223407 0.140674 0.363374
786 1 0.265576 0.140113 0.315751
1069 1 0.268257 0.185017 0.358411
829 1 0.306101 0.187276 0.31608
1026 1 0.321125 0.142695 0.360707
1073 1 0.356518 0.18614 0.355104
790 1 0.358097 0.13444 0.311956
833 1 0.401686 0.185484 0.316477
1030 1 0.407359 0.132419 0.357095
794 1 0.450271 0.134444 0.31879
1077 1 0.44446 0.178042 0.364521
837 1 0.496807 0.175375 0.316968
1034 1 0.494065 0.131948 0.361562
798 1 0.541455 0.127502 0.313117
1079 1 0.494189 0.176732 0.394108
1081 1 0.547444 0.176861 0.360411
841 1 0.589137 0.175474 0.317145
1038 1 0.590884 0.12936 0.362744
802 1 0.625139 0.126057 0.315021
1085 1 0.640136 0.177112 0.351219
845 1 0.679573 0.182984 0.308054
1042 1 0.681872 0.128617 0.362607
806 1 0.724814 0.138424 0.319064
1087 1 0.687973 0.171632 0.399584
1089 1 0.732105 0.175707 0.368057
849 1 0.775879 0.170817 0.313172
1046 1 0.770656 0.134878 0.359974
1093 1 0.817145 0.186039 0.363432
810 1 0.821346 0.130775 0.317515
853 1 0.863599 0.180381 0.323008
1050 1 0.870004 0.132771 0.358781
814 1 0.905727 0.139595 0.316846
1097 1 0.911656 0.181664 0.367024