ITEM: TIMESTEP
4000
ITEM: NUMBER OF ATOMS
6912
ITEM: BOX BOUNDS pp pp pp
0.0000000000000000e+00 6.3119999999999997e+01
0.0000000000000000e+00 6.3119999999999997e+01
0.0000000000000000e+00 6.3119999999999997e+01
ITEM: ATOMS id type xs ys zs
4 1 0.00036303 0.038687 0.0486839
290 1 0.0457484 0.0451478 0.0759914
8 1 0.0822791 0.0472058 0.0420179
2 1 0.0352578 0.0416225 0.00172407
294 1 0.123874 0.0451605 0.0824192
7 1 0.130756 0.00883488 0.0362596
345 1 0.165011 0.0793165 0.079582
5 1 0.087811 0.00700786 0.000505245
12 1 0.169617 0.048629 0.0323744
11 1 0.213495 0.00181229 0.0315079
298 1 0.203784 0.0394296 0.0724252
349 1 0.248694 0.0796896 0.0809126
297 1 0.168104 0.00348305 0.0722402
16 1 0.252513 0.0424896 0.0362026
20 1 0.329968 0.0338933 0.0516336
63 1 0.2927 0.0762211 0.0454705
65 1 0.326449 0.0743637 0.00210205
24 1 0.41463 0.0394869 0.0339397
67 1 0.364754 0.0813739 0.0432166
18 1 0.371967 0.0461518 0.00156499
17 1 0.336361 0.00149234 0.00333936
28 1 0.499499 0.0453844 0.0473313
71 1 0.458933 0.0825644 0.0399521
310 1 0.453373 0.0374767 0.0833091
22 1 0.464576 0.0397797 0.00507981
26 1 0.545215 0.0387355 0.00735673
27 1 0.534663 0.00303062 0.0474468
32 1 0.588767 0.0353206 0.0480736
30 1 0.621818 0.033306 0.00402985
36 1 0.669725 0.0489235 0.0388385
40 1 0.747489 0.0450744 0.0417434
322 1 0.708807 0.0438894 0.0799231
35 1 0.701341 0.00437357 0.0401252
87 1 0.790713 0.0755364 0.0451306
44 1 0.825695 0.0361539 0.0406805
377 1 0.8294 0.077668 0.082152
326 1 0.790365 0.030792 0.0832747
91 1 0.876772 0.0786885 0.0487742
330 1 0.873125 0.0308159 0.0789679
48 1 0.914725 0.0397251 0.0461209
42 1 0.876814 0.0366887 0.00782521
49 1 0.990563 0.0767809 0.0166838
46 1 0.954356 0.0400058 0.00675078
51 1 0.0405755 0.0917706 0.0392173
50 1 0.0500077 0.133768 0.00503886
53 1 0.0786055 0.0878815 0.00263686
55 1 0.125123 0.0917371 0.0424936
56 1 0.0869154 0.132788 0.0432898
341 1 0.084781 0.0906255 0.0819552
54 1 0.127836 0.133059 0.00130401
60 1 0.171519 0.122549 0.0457458
59 1 0.211211 0.0852603 0.0383734
107 1 0.208114 0.166371 0.0355644
64 1 0.253639 0.12992 0.0480121
68 1 0.333242 0.120191 0.0433944
62 1 0.300042 0.120144 0.000285461
115 1 0.371199 0.160422 0.0374901
72 1 0.411865 0.121296 0.044164
405 1 0.408276 0.164192 0.0798835
117 1 0.412834 0.156457 0.00382638
66 1 0.373848 0.112678 0.00114909
119 1 0.458239 0.163363 0.0392968
76 1 0.497617 0.122586 0.0414019
361 1 0.492887 0.0882185 0.0825725
70 1 0.459635 0.124645 0.00743341
121 1 0.498921 0.166212 0.00229742
75 1 0.541036 0.0839321 0.0414399
74 1 0.543306 0.118901 0.00276709
123 1 0.541299 0.159171 0.0458863
413 1 0.581848 0.156247 0.0822283
73 1 0.504095 0.0850221 0.0021025
79 1 0.6298 0.0875604 0.0435502
80 1 0.587484 0.123178 0.0385824
78 1 0.627748 0.127083 0.00519764
84 1 0.672005 0.126577 0.0470449
83 1 0.711861 0.0873512 0.0387189
131 1 0.710962 0.163008 0.047647
370 1 0.718392 0.122983 0.0815295
129 1 0.670189 0.16346 0.00571035
88 1 0.761153 0.124952 0.0371189
92 1 0.826213 0.120228 0.0365409
374 1 0.792896 0.123196 0.0789871
139 1 0.882934 0.165815 0.0410837
96 1 0.914127 0.125514 0.0513422
378 1 0.87038 0.124665 0.0816622
93 1 0.915323 0.0874395 0.00852857
95 1 0.95184 0.0871886 0.0502966
52 1 0.99744 0.123696 0.0423512
94 1 0.957232 0.133865 0.00601001
99 1 0.0340439 0.166816 0.0564956
98 1 0.0454139 0.212123 0.00935665
100 1 0.00232914 0.217226 0.0414975
97 1 0.00471677 0.171303 0.0125732
103 1 0.128752 0.174433 0.0448689
104 1 0.0892173 0.206617 0.0528978
101 1 0.0851026 0.17229 0.00907817
108 1 0.169559 0.214049 0.0350785
394 1 0.208306 0.216165 0.0764907
397 1 0.248388 0.169019 0.0824393
105 1 0.169114 0.174005 0.00415172
111 1 0.295833 0.167332 0.0426838
112 1 0.252139 0.203151 0.0409371
159 1 0.289477 0.247042 0.0440343
116 1 0.32932 0.212014 0.0450336
398 1 0.287337 0.208113 0.0810986
157 1 0.25068 0.245624 0.00177384
120 1 0.412909 0.201467 0.0432311
402 1 0.373594 0.208092 0.0819559
165 1 0.410291 0.24687 0.00402467
124 1 0.496727 0.205912 0.0458749
118 1 0.454062 0.215007 0.00707932
128 1 0.576796 0.207242 0.0436792
171 1 0.53713 0.249778 0.0396618
457 1 0.503568 0.244626 0.0801567
173 1 0.578662 0.246078 0.00255991
122 1 0.53802 0.208298 0.00338378
127 1 0.620739 0.173225 0.0386343
175 1 0.621864 0.244355 0.0481899
132 1 0.662978 0.204354 0.0442545
125 1 0.585196 0.168139 0.00277921
465 1 0.671404 0.24905 0.0714255
418 1 0.703933 0.209959 0.0760284
130 1 0.708411 0.209629 0.00635611
135 1 0.792719 0.168819 0.0416988
136 1 0.751071 0.208887 0.0438947
422 1 0.791297 0.209573 0.0800878
183 1 0.800812 0.247666 0.0415673
134 1 0.792478 0.207193 0.00475169
140 1 0.845344 0.21132 0.0415037
138 1 0.881289 0.205262 0.0023064
137 1 0.835123 0.173265 0.00471198
143 1 0.957233 0.171828 0.0461404
142 1 0.957313 0.210545 0.00601939
144 1 0.917185 0.210687 0.0426079
147 1 0.0485022 0.253229 0.0490027
148 1 0.00524139 0.292886 0.0473584
145 1 0.00137317 0.260587 0.00472906
146 1 0.0429579 0.297395 0.00262281
151 1 0.125679 0.250606 0.0350562
152 1 0.0834185 0.29509 0.0481571
199 1 0.127754 0.331377 0.0460164
438 1 0.129499 0.284617 0.0770821
150 1 0.130374 0.290469 0.00153746
155 1 0.211561 0.252739 0.0367943
156 1 0.169757 0.299486 0.0373286
203 1 0.214651 0.332205 0.0456049
441 1 0.168698 0.253219 0.0731776
445 1 0.247855 0.253302 0.0817702
442 1 0.206286 0.289858 0.0807501
489 1 0.173355 0.331827 0.0820432
160 1 0.255345 0.293486 0.0389091
164 1 0.329145 0.288198 0.0399262
446 1 0.293227 0.290562 0.0783061
493 1 0.254279 0.332993 0.0805959
158 1 0.292023 0.284128 0.00418239
213 1 0.408944 0.322877 0.00516696
163 1 0.373359 0.250883 0.04634
211 1 0.369215 0.32782 0.0446059
162 1 0.369973 0.281929 0.000740944
168 1 0.417573 0.287072 0.0493549
167 1 0.457854 0.254204 0.0498377
172 1 0.497717 0.293055 0.0484554
215 1 0.454183 0.333008 0.0455411
217 1 0.495365 0.329389 0.0067189
166 1 0.456427 0.287597 0.010848
458 1 0.539042 0.291451 0.0824522
176 1 0.576323 0.290478 0.0385084
509 1 0.581083 0.329897 0.0794931
462 1 0.622202 0.288591 0.0752071
180 1 0.660102 0.291265 0.0421909
223 1 0.623434 0.32954 0.0382753
513 1 0.660725 0.327113 0.0821517
177 1 0.661809 0.254028 0.000232765
179 1 0.711588 0.254052 0.035898
466 1 0.706607 0.290289 0.0791971
184 1 0.746863 0.2957 0.0410263
227 1 0.698262 0.332704 0.0415353
182 1 0.796036 0.298272 0.00628145
469 1 0.75492 0.25434 0.0792118
470 1 0.792707 0.294145 0.071991
181 1 0.756172 0.252666 0.00756685
186 1 0.871015 0.291274 0.00235134
188 1 0.840037 0.297826 0.042554
187 1 0.879411 0.255758 0.0370265
474 1 0.878621 0.289791 0.0793799
192 1 0.915805 0.298102 0.0412942
473 1 0.837384 0.25704 0.0787962
185 1 0.836839 0.250959 4.6487e-05
191 1 0.957783 0.250097 0.0457799
239 1 0.967457 0.329935 0.0476803
478 1 0.961232 0.291894 0.0818281
189 1 0.924263 0.255087 0.00198323
195 1 0.044906 0.338695 0.0417376
200 1 0.0797498 0.382025 0.0416459
482 1 0.0459306 0.377553 0.0829786
194 1 0.0371599 0.384677 0.00710077
201 1 0.165568 0.337795 0.000374613
533 1 0.0870746 0.413534 0.0817113
486 1 0.126801 0.375763 0.0807933
198 1 0.124684 0.378736 0.00892202
197 1 0.08611 0.342195 0.00464527
204 1 0.173821 0.379913 0.0481088
208 1 0.246655 0.380146 0.0440702
249 1 0.170324 0.415689 0.0048215
205 1 0.246429 0.337671 0.0060001
202 1 0.210066 0.377159 0.0060836
206 1 0.286221 0.378597 0.00358066
207 1 0.288874 0.338061 0.0435472
212 1 0.32874 0.378613 0.0405427
494 1 0.288251 0.38496 0.0822249
209 1 0.330355 0.335793 0.00869353
216 1 0.412322 0.361745 0.0363529
259 1 0.370109 0.416257 0.0488619
220 1 0.495459 0.377894 0.0363576
505 1 0.499061 0.338559 0.0763802
214 1 0.453073 0.377788 4.53009e-05
219 1 0.537976 0.334355 0.0411769
267 1 0.541492 0.413385 0.0333979
224 1 0.580482 0.366202 0.0348025
506 1 0.548447 0.372784 0.0772037
557 1 0.588912 0.410486 0.0718174
228 1 0.66258 0.373314 0.0316897
510 1 0.625696 0.375029 0.0787753
232 1 0.744227 0.377568 0.0413291
517 1 0.742668 0.336564 0.0791869
514 1 0.696751 0.374797 0.0799039
226 1 0.709375 0.373992 0.000933898
231 1 0.784291 0.339289 0.0435448
236 1 0.829746 0.371533 0.0424161
569 1 0.830977 0.40996 0.0794411
521 1 0.829762 0.335955 0.0826108
518 1 0.783551 0.376522 0.0826414
233 1 0.832796 0.335049 0.00572886
230 1 0.789564 0.383655 0.000129561
235 1 0.876612 0.335073 0.0472388
573 1 0.913274 0.415476 0.080103
522 1 0.881938 0.378757 0.0774059
234 1 0.876632 0.378754 0.00591582
240 1 0.920076 0.377839 0.0385851
196 1 0.998158 0.375695 0.0520739
525 1 0.922234 0.34073 0.0773761
237 1 0.919133 0.333649 9.94435e-05
243 1 0.0458281 0.424306 0.0434937
3745 1 0.00306709 0.499732 0.0799842
529 1 0.0101805 0.42327 0.0817894
242 1 0.0440656 0.456949 0.00274033
247 1 0.128248 0.418435 0.0457082
248 1 0.0898903 0.462786 0.0495574
3463 1 0.133904 0.498127 0.0526815
245 1 0.0895752 0.421146 0.00513963
246 1 0.123686 0.462649 0.0076009
3461 1 0.0850988 0.497986 0.00275658
252 1 0.167678 0.458841 0.0464431
251 1 0.207887 0.422001 0.0426408
256 1 0.243239 0.468186 0.0393476
255 1 0.28591 0.417675 0.0404333
542 1 0.291572 0.462874 0.0709721
254 1 0.290194 0.463798 0.000474616
260 1 0.336387 0.463331 0.0441722
264 1 0.411978 0.459721 0.0396567
261 1 0.40708 0.416914 0.0030751
258 1 0.370265 0.453447 0.00457006
263 1 0.457294 0.419139 0.0459459
549 1 0.418551 0.417881 0.0816418
550 1 0.46394 0.460544 0.0828211
3769 1 0.499479 0.498022 0.0831951
268 1 0.500285 0.456702 0.036207
272 1 0.577298 0.46659 0.0338071
554 1 0.537662 0.460091 0.0722598
553 1 0.503062 0.417162 0.0784658
271 1 0.622886 0.419335 0.0303585
276 1 0.663559 0.469946 0.0492796
561 1 0.663508 0.422686 0.077533
558 1 0.615772 0.459989 0.075532
269 1 0.584084 0.417797 0.000540089
275 1 0.703837 0.417596 0.0399624
280 1 0.744837 0.456901 0.0473374
565 1 0.743265 0.417415 0.077479
274 1 0.712388 0.460858 0.000603526
278 1 0.78879 0.461627 0.00035168
279 1 0.785126 0.422234 0.0404051
566 1 0.790403 0.462899 0.0766849
3493 1 0.751451 0.498298 0.00449676
3785 1 0.828147 0.49898 0.0816089
284 1 0.833841 0.455017 0.0401391
283 1 0.877142 0.420069 0.041607
570 1 0.874235 0.469968 0.0778353
282 1 0.873114 0.464746 0.00480917
285 1 0.916721 0.420164 0.00214883
287 1 0.962028 0.421616 0.0367883
244 1 0.999441 0.460304 0.0367306
288 1 0.917598 0.466395 0.0415239
574 1 0.952982 0.453801 0.0825743
339 1 0.0458059 0.0809618 0.119971
292 1 0.00151238 0.0362371 0.116476
625 1 0.00512393 0.0806271 0.162121
578 1 0.0404576 0.0399619 0.163733
296 1 0.0877351 0.0359344 0.117489
582 1 0.122973 0.0452764 0.162232
629 1 0.0840289 0.0821269 0.164587
295 1 0.129297 0.00175632 0.124111
633 1 0.168687 0.0780526 0.163758
300 1 0.171842 0.0403186 0.116433
304 1 0.247771 0.04021 0.130598
347 1 0.212953 0.080565 0.119958
585 1 0.16765 0.00119763 0.165597
301 1 0.24299 0.00168475 0.0842939
299 1 0.210879 0.000342018 0.128658
303 1 0.296803 0.000845751 0.131978
302 1 0.290227 0.0315031 0.0871893
351 1 0.283954 0.0802214 0.118124
590 1 0.289182 0.0429788 0.166154
641 1 0.326168 0.0815969 0.163184
357 1 0.409943 0.0800109 0.0839108
308 1 0.334819 0.0359746 0.124927
306 1 0.372501 0.0303335 0.0850023
312 1 0.413727 0.0375229 0.121485
353 1 0.333896 0.0805808 0.0892278
355 1 0.371688 0.078461 0.129036
311 1 0.456436 0.00612249 0.125261
359 1 0.455162 0.0798727 0.120655
314 1 0.547732 0.049715 0.0862155
315 1 0.544612 0.00233083 0.127834
316 1 0.501469 0.0428378 0.13192
363 1 0.53556 0.0825505 0.125896
602 1 0.541844 0.0412869 0.162728
605 1 0.583003 0.00691901 0.165673
313 1 0.502938 0.00344175 0.0921016
317 1 0.588445 0.00382002 0.089156
320 1 0.583491 0.0488132 0.127255
318 1 0.638973 0.0486413 0.0845957
319 1 0.627498 0.0018847 0.130813
324 1 0.671813 0.039389 0.12975
328 1 0.745395 0.0380828 0.127807
371 1 0.715109 0.0741407 0.124319
375 1 0.793961 0.0719218 0.119771
373 1 0.753488 0.0808382 0.0857192
614 1 0.794649 0.0323 0.159308
665 1 0.826318 0.0799892 0.165007
661 1 0.756558 0.0786149 0.162814
381 1 0.913775 0.0771604 0.0946858
331 1 0.869311 0.00028839 0.128921
332 1 0.834745 0.0380934 0.123827
336 1 0.914314 0.0349462 0.128725
379 1 0.866758 0.0828277 0.124493
337 1 0.995719 0.0782403 0.0855263
334 1 0.951536 0.0377485 0.0838282
383 1 0.960645 0.0695572 0.128278
622 1 0.957666 0.0324661 0.165453
669 1 0.917987 0.0768213 0.16208
338 1 0.0363559 0.122583 0.0855859
344 1 0.0870069 0.12791 0.126808
343 1 0.123298 0.0889021 0.11685
342 1 0.131087 0.129089 0.0872288
346 1 0.211737 0.126686 0.086299
348 1 0.167805 0.124823 0.124832
634 1 0.209677 0.119619 0.163114
352 1 0.247066 0.125607 0.128337
681 1 0.170945 0.163648 0.162792
395 1 0.212333 0.165158 0.126154
350 1 0.291389 0.130942 0.0872474
638 1 0.290232 0.122038 0.165159
356 1 0.333393 0.129445 0.125435
354 1 0.367829 0.123667 0.0838713
360 1 0.409944 0.122138 0.125483
645 1 0.413317 0.0839393 0.163554
358 1 0.451603 0.124087 0.0847654
407 1 0.454891 0.154738 0.134077
364 1 0.493438 0.119077 0.128274
409 1 0.491755 0.160019 0.0840666
362 1 0.538166 0.123186 0.0909185
368 1 0.581781 0.120881 0.128361
411 1 0.534997 0.159705 0.130551
365 1 0.595485 0.0880249 0.0862888
366 1 0.637741 0.128116 0.085208
367 1 0.639378 0.0837878 0.1258
415 1 0.62383 0.164286 0.127237
654 1 0.628961 0.126566 0.164456
369 1 0.679355 0.0885879 0.0891069
417 1 0.676569 0.165601 0.0878834
372 1 0.672076 0.130237 0.126035
705 1 0.669608 0.165646 0.16253
658 1 0.721049 0.119461 0.162204
376 1 0.760904 0.128014 0.126572
423 1 0.798484 0.164214 0.130735
380 1 0.826254 0.12058 0.127894
709 1 0.75195 0.166278 0.165799
384 1 0.910359 0.123886 0.124325
427 1 0.869975 0.164317 0.124109
666 1 0.87325 0.122352 0.160217
429 1 0.916887 0.16514 0.0895298
382 1 0.957317 0.123083 0.0914868
340 1 0.999744 0.137093 0.125349
670 1 0.96215 0.127239 0.160142
431 1 0.950944 0.163595 0.124695
717 1 0.917212 0.162399 0.164739
386 1 0.0420697 0.216973 0.0901783
387 1 0.0430781 0.167007 0.127735
388 1 0.0045502 0.206868 0.130894
389 1 0.0861517 0.167668 0.0902534
390 1 0.133633 0.205891 0.0952609
392 1 0.0920335 0.216035 0.129285
391 1 0.12916 0.170761 0.131707
393 1 0.176454 0.168716 0.0844921
396 1 0.17813 0.215651 0.124346
400 1 0.237997 0.213474 0.119897
399 1 0.286656 0.174511 0.125741
447 1 0.28927 0.240597 0.118544
689 1 0.330072 0.172029 0.166632
453 1 0.416214 0.244514 0.094147
401 1 0.336328 0.168244 0.0894509
449 1 0.3377 0.248032 0.084714
403 1 0.376983 0.168371 0.12247
404 1 0.335695 0.211305 0.125373
406 1 0.452935 0.207735 0.0836513
408 1 0.421598 0.205719 0.124953
412 1 0.497342 0.201504 0.128097
455 1 0.46133 0.246814 0.125968
410 1 0.539313 0.197709 0.083649
461 1 0.582466 0.241663 0.0835676
416 1 0.583177 0.203375 0.120879
459 1 0.537939 0.248962 0.126052
698 1 0.538263 0.20796 0.165536
414 1 0.622318 0.204484 0.0835303
463 1 0.626002 0.246986 0.115959
702 1 0.624529 0.20189 0.165372
419 1 0.710149 0.168759 0.125818
420 1 0.670258 0.208665 0.123487
706 1 0.713088 0.210135 0.163089
424 1 0.749298 0.215032 0.118772
421 1 0.75129 0.169458 0.0853243
425 1 0.82869 0.170488 0.0838682
710 1 0.796595 0.213295 0.162754
477 1 0.913568 0.245868 0.0851233
426 1 0.872914 0.205687 0.0834578
428 1 0.834216 0.211762 0.121656
432 1 0.909154 0.205024 0.122809
714 1 0.873869 0.208734 0.166636
385 1 0.991926 0.17538 0.0872858
430 1 0.95116 0.205843 0.0898389
433 1 0.996232 0.246379 0.0905492
718 1 0.958275 0.202938 0.163476
481 1 0.00596291 0.332661 0.0868664
435 1 0.0532071 0.250672 0.135399
434 1 0.0465422 0.290439 0.090773
436 1 0.00661237 0.296467 0.128833
437 1 0.0887527 0.251726 0.0893109
440 1 0.0920354 0.291471 0.129136
439 1 0.133374 0.255685 0.124812
485 1 0.0884091 0.325531 0.0851062
487 1 0.131043 0.33144 0.12053
443 1 0.209879 0.263333 0.129095
444 1 0.173577 0.300147 0.129565
497 1 0.329189 0.332847 0.084564
733 1 0.254214 0.251748 0.164664
448 1 0.257156 0.289436 0.124807
452 1 0.318912 0.286699 0.126548
451 1 0.376298 0.252311 0.12486
450 1 0.380035 0.295479 0.0907558
738 1 0.378259 0.29657 0.165283
456 1 0.423419 0.289088 0.127509
454 1 0.456734 0.293027 0.0883352
742 1 0.461269 0.292302 0.166187
741 1 0.419558 0.253688 0.164818
460 1 0.501349 0.289 0.125831
464 1 0.579061 0.288927 0.120331
507 1 0.540096 0.330257 0.120959
511 1 0.616972 0.331085 0.121587
468 1 0.657677 0.295116 0.12668
750 1 0.619286 0.284546 0.1619
467 1 0.7019 0.251645 0.114412
757 1 0.748066 0.253975 0.159258
515 1 0.711347 0.328185 0.121119
754 1 0.702411 0.295918 0.164765
471 1 0.796169 0.255665 0.117673
472 1 0.750367 0.288945 0.119745
476 1 0.831176 0.296634 0.117745
758 1 0.791364 0.286784 0.160835
519 1 0.787905 0.332263 0.124328
475 1 0.873658 0.256404 0.127503
523 1 0.878991 0.330106 0.117234
809 1 0.835668 0.332844 0.166122
479 1 0.959734 0.253566 0.124961
480 1 0.91691 0.292055 0.122113
766 1 0.953522 0.282867 0.166352
483 1 0.042749 0.337965 0.1278
484 1 0.00556175 0.375615 0.123749
770 1 0.0469416 0.369961 0.166211
488 1 0.0863963 0.378231 0.121852
535 1 0.131263 0.410286 0.13364
490 1 0.211041 0.372622 0.0910827
491 1 0.208053 0.340864 0.132994
492 1 0.170945 0.373001 0.132496
495 1 0.28654 0.336703 0.120384
496 1 0.255431 0.379943 0.126568
500 1 0.326135 0.378541 0.120346
785 1 0.323102 0.338218 0.16525
501 1 0.415734 0.334437 0.0839092
498 1 0.363665 0.371987 0.0853619
499 1 0.358843 0.337517 0.127207
547 1 0.375436 0.414177 0.123112
789 1 0.415775 0.334372 0.157994
504 1 0.421423 0.377802 0.125731
503 1 0.461281 0.338739 0.124638
502 1 0.463368 0.373074 0.085633
790 1 0.463554 0.376293 0.166666
508 1 0.505895 0.376526 0.127951
512 1 0.579464 0.371639 0.122801
845 1 0.576359 0.408551 0.166094
797 1 0.57662 0.333821 0.161341
798 1 0.619733 0.371627 0.156933
801 1 0.6617 0.337217 0.161462
805 1 0.745593 0.334451 0.162538
516 1 0.667538 0.373886 0.123929
520 1 0.739585 0.3758 0.122913
802 1 0.702638 0.383612 0.162925
853 1 0.745784 0.411549 0.16206
567 1 0.7904 0.411912 0.117929
806 1 0.791965 0.374131 0.163354
524 1 0.843693 0.371815 0.119258
528 1 0.913416 0.36985 0.127782
857 1 0.835022 0.409316 0.160213
810 1 0.878283 0.370879 0.164659
527 1 0.959077 0.335212 0.127153
526 1 0.958449 0.378672 0.0891778
813 1 0.917624 0.334849 0.166461
814 1 0.957818 0.375609 0.161175
530 1 0.0466277 0.463046 0.0888047
531 1 0.0448251 0.418687 0.129349
818 1 0.0464891 0.463173 0.166285
817 1 0.0012037 0.420279 0.160528
534 1 0.129255 0.45947 0.0877817
3751 1 0.123692 0.49987 0.132047
536 1 0.0878456 0.458805 0.127174
537 1 0.178492 0.419123 0.0855702
540 1 0.168447 0.453318 0.13446
538 1 0.213566 0.463535 0.095104
539 1 0.210967 0.418381 0.131307
3753 1 0.168832 0.491851 0.0969135
829 1 0.246374 0.423625 0.16506
545 1 0.326574 0.423726 0.0871312
541 1 0.252374 0.421162 0.0876631
543 1 0.292336 0.424116 0.125867
544 1 0.252616 0.461763 0.127414
830 1 0.29098 0.460947 0.166607
546 1 0.379216 0.462058 0.0896587
3761 1 0.340328 0.498203 0.0859623
548 1 0.336695 0.460284 0.131581
834 1 0.377708 0.454831 0.163393
3765 1 0.423562 0.499199 0.0858416
837 1 0.419256 0.417265 0.160988
551 1 0.465079 0.418164 0.122282
552 1 0.424198 0.462539 0.125461
556 1 0.499069 0.454296 0.126015
4057 1 0.499543 0.493374 0.164662
555 1 0.542537 0.417292 0.116474
842 1 0.541749 0.45526 0.161456
560 1 0.577637 0.456948 0.11471
3775 1 0.620982 0.499232 0.128184
559 1 0.613664 0.417452 0.121612
849 1 0.658829 0.418365 0.162109
564 1 0.649924 0.457241 0.118974
846 1 0.617161 0.455543 0.161263
4065 1 0.660406 0.498019 0.165574
3779 1 0.70558 0.499967 0.129247
563 1 0.700346 0.420282 0.119866
562 1 0.707106 0.463041 0.0843224
850 1 0.702122 0.45789 0.165428
3781 1 0.748139 0.499285 0.0837342
3783 1 0.795824 0.49553 0.121753
568 1 0.75229 0.459236 0.12172
572 1 0.832213 0.459833 0.121107
854 1 0.789516 0.452859 0.165919
4073 1 0.829923 0.497751 0.163891
3787 1 0.873354 0.495602 0.12164
571 1 0.872839 0.426157 0.122815
861 1 0.913974 0.418455 0.162158
576 1 0.917233 0.462323 0.119011
575 1 0.952542 0.419508 0.124519
532 1 0.988715 0.46191 0.120049
862 1 0.952937 0.460967 0.160537
584 1 0.0811965 0.0460523 0.202533
627 1 0.0443964 0.0824381 0.213371
579 1 0.0451678 6.81401e-05 0.205873
870 1 0.119734 0.041381 0.248369
588 1 0.165722 0.04261 0.208855
631 1 0.125414 0.0799694 0.209024
583 1 0.119096 0.00217522 0.209313
587 1 0.208024 0.00676845 0.208728
586 1 0.206745 0.0421749 0.166781
635 1 0.207973 0.0762054 0.209446
925 1 0.247618 0.0827003 0.24735
593 1 0.331745 0.000247408 0.172875
592 1 0.253749 0.0385941 0.210665
637 1 0.251412 0.0799444 0.16825
596 1 0.327407 0.0431171 0.209562
639 1 0.289767 0.0813095 0.208957
878 1 0.289736 0.0417061 0.249854
591 1 0.290647 0.00125615 0.210033
881 1 0.332674 0.00139516 0.249971
594 1 0.36964 0.0385165 0.1674
643 1 0.3703 0.078425 0.206679
882 1 0.374959 0.0440208 0.247804
595 1 0.376173 0.00216802 0.206857
597 1 0.41575 0.00256953 0.166733
601 1 0.494112 0.00838645 0.169293
885 1 0.419064 0.000758172 0.248573
598 1 0.45586 0.0429998 0.171865
649 1 0.495838 0.0796219 0.168902
600 1 0.41715 0.0473604 0.209354
604 1 0.497609 0.0404475 0.2087
886 1 0.45617 0.0437704 0.247619
599 1 0.456713 0.00346454 0.209042
890 1 0.542863 0.0486817 0.241784
653 1 0.578662 0.0832538 0.167083
603 1 0.537783 0.00323326 0.211661
606 1 0.633299 0.0447897 0.167267
608 1 0.584986 0.0390021 0.206888
894 1 0.630454 0.0429675 0.247538
607 1 0.62961 0.00987897 0.208236
611 1 0.703929 0.00406932 0.208424
612 1 0.674427 0.0473102 0.212192
610 1 0.709107 0.0413827 0.168662
659 1 0.718218 0.0830627 0.209052
949 1 0.748022 0.0806087 0.249172
609 1 0.672053 0.00219702 0.167407
616 1 0.755399 0.0415357 0.207161
620 1 0.830562 0.0349786 0.20998
619 1 0.879947 0.0100116 0.207834
953 1 0.837217 0.079774 0.247658
618 1 0.870077 0.0387054 0.168984
667 1 0.869884 0.0810911 0.204454
624 1 0.92144 0.0454359 0.213777
580 1 0.995192 0.0398198 0.207544
671 1 0.96216 0.0830639 0.202368
865 1 0.998021 0.00403855 0.24272
626 1 0.0422834 0.120892 0.167069
628 1 0.00237778 0.129925 0.213808
675 1 0.0433636 0.165349 0.213584
913 1 0.00499786 0.0880493 0.249113
630 1 0.124513 0.113737 0.171112
917 1 0.0863132 0.0857074 0.246189
632 1 0.0846483 0.132021 0.20832
677 1 0.0870966 0.165981 0.172547
679 1 0.135151 0.162324 0.208122
918 1 0.126923 0.122904 0.24924
636 1 0.172567 0.122236 0.20529
969 1 0.167578 0.162762 0.246779
683 1 0.211702 0.1614 0.205466
640 1 0.249725 0.120773 0.20904
644 1 0.328909 0.122884 0.208237
973 1 0.25545 0.166309 0.249586
687 1 0.296026 0.165517 0.208429
642 1 0.369194 0.122351 0.168631
648 1 0.407644 0.124163 0.209155
693 1 0.417789 0.160878 0.173701
646 1 0.450822 0.118082 0.169639
647 1 0.454809 0.0846885 0.210089
697 1 0.49378 0.16444 0.169834
652 1 0.495667 0.124542 0.20759
937 1 0.495881 0.0846718 0.244332
651 1 0.545594 0.0885724 0.208523
650 1 0.538838 0.123376 0.171436
938 1 0.537318 0.124563 0.246427
699 1 0.53972 0.164005 0.210081
941 1 0.582716 0.084797 0.242635
656 1 0.586356 0.127467 0.202967
655 1 0.632225 0.0855845 0.204686
942 1 0.630401 0.124005 0.247416
657 1 0.679861 0.0847965 0.170645
945 1 0.671736 0.0893638 0.247891
660 1 0.679124 0.126664 0.203506
707 1 0.716727 0.162228 0.211378
993 1 0.671707 0.164141 0.247211
946 1 0.712753 0.125246 0.249862
662 1 0.793163 0.119028 0.168868
664 1 0.753962 0.125043 0.204662
663 1 0.789542 0.0845678 0.21297
950 1 0.79456 0.125498 0.245945
668 1 0.834859 0.122579 0.205649
954 1 0.871379 0.12733 0.242839
672 1 0.917213 0.119055 0.20966
961 1 0.0053417 0.171239 0.248045
674 1 0.0481672 0.212722 0.170956
676 1 0.00778414 0.211851 0.211375
678 1 0.133773 0.211571 0.175946
680 1 0.0903422 0.200099 0.206671
966 1 0.125628 0.206013 0.248743
682 1 0.207968 0.207927 0.171102
729 1 0.174139 0.249963 0.175508
685 1 0.246271 0.172723 0.169382
684 1 0.170692 0.205578 0.214182
970 1 0.214505 0.206724 0.249318
688 1 0.248249 0.211236 0.209877
731 1 0.209454 0.247397 0.214328
1021 1 0.250413 0.246069 0.246754
686 1 0.288578 0.20579 0.170108
735 1 0.289435 0.248765 0.206754
737 1 0.33164 0.246859 0.169089
974 1 0.293914 0.2105 0.249153
691 1 0.368447 0.169139 0.210403
692 1 0.336222 0.212894 0.207133
690 1 0.378841 0.209163 0.167297
978 1 0.383083 0.212664 0.249575
694 1 0.458626 0.205078 0.169577
695 1 0.448545 0.167291 0.211351
696 1 0.421963 0.212892 0.206026
745 1 0.499759 0.246208 0.168986
743 1 0.458378 0.248148 0.208303
1033 1 0.49081 0.246175 0.2484
701 1 0.580459 0.172349 0.170001
749 1 0.578704 0.244304 0.167248
700 1 0.505757 0.204576 0.207116
704 1 0.581035 0.20825 0.20681
747 1 0.538835 0.249047 0.205901
703 1 0.63269 0.167733 0.206742
751 1 0.624858 0.246168 0.202432
989 1 0.583821 0.168538 0.244611
990 1 0.624155 0.208722 0.243376
753 1 0.66831 0.243362 0.167001
708 1 0.673677 0.211097 0.207191
994 1 0.71185 0.205453 0.242756
755 1 0.711163 0.249174 0.208837
711 1 0.784065 0.170004 0.202913
712 1 0.751915 0.21129 0.194618
759 1 0.790251 0.248092 0.205703
997 1 0.75929 0.168245 0.248511
713 1 0.836501 0.167074 0.174278
715 1 0.883519 0.170463 0.204741
716 1 0.838529 0.211244 0.209496
763 1 0.881472 0.248046 0.205809
1002 1 0.872641 0.20329 0.249207
761 1 0.834778 0.248687 0.167523
719 1 0.957926 0.167725 0.206258
720 1 0.921512 0.204664 0.212557
673 1 0.999196 0.168175 0.174429
767 1 0.964211 0.249902 0.207442
765 1 0.922581 0.239205 0.171309
1053 1 0.924127 0.249779 0.243495
721 1 0.0069268 0.251604 0.178374
722 1 0.055079 0.293121 0.172195
723 1 0.0462241 0.253791 0.221594
725 1 0.0907345 0.251945 0.171196
727 1 0.124626 0.252738 0.214443
726 1 0.132931 0.289324 0.171195
728 1 0.0858376 0.300512 0.217043
775 1 0.129622 0.328652 0.206532
730 1 0.207046 0.296241 0.168075
732 1 0.170489 0.290952 0.214651
1018 1 0.210294 0.291157 0.249244
781 1 0.248273 0.33212 0.16811
736 1 0.247719 0.289169 0.210894
734 1 0.285758 0.29092 0.167781
740 1 0.331184 0.288099 0.207735
783 1 0.289008 0.326715 0.208387
1022 1 0.289154 0.287751 0.246175
1073 1 0.326472 0.328217 0.246093
739 1 0.380955 0.257125 0.209513
744 1 0.414932 0.303205 0.202712
787 1 0.366591 0.327538 0.210828
791 1 0.460741 0.330306 0.216794
748 1 0.499827 0.290525 0.211119
1029 1 0.419358 0.254404 0.247693
1030 1 0.456236 0.288642 0.247731
746 1 0.542069 0.285818 0.16791
1034 1 0.54733 0.283857 0.24283
752 1 0.579472 0.29116 0.195862
793 1 0.504008 0.332544 0.174611
795 1 0.542895 0.332119 0.212142
756 1 0.658177 0.288832 0.192643
799 1 0.619219 0.324474 0.208312
1038 1 0.614154 0.279007 0.243772
1089 1 0.65477 0.33132 0.243689
1041 1 0.665889 0.253476 0.248358
1085 1 0.586953 0.32709 0.249211
1042 1 0.70276 0.29006 0.241258
760 1 0.753242 0.291173 0.198289
1045 1 0.750081 0.251142 0.246252
807 1 0.793987 0.330903 0.20145
764 1 0.83422 0.292207 0.204895
762 1 0.874872 0.295362 0.168612
1050 1 0.874611 0.294297 0.24146
768 1 0.915117 0.288549 0.202812
1049 1 0.839235 0.253385 0.24528
724 1 0.995695 0.297386 0.202167
1054 1 0.958829 0.291377 0.248471
769 1 0.00655579 0.337064 0.169941
771 1 0.0437681 0.336789 0.211931
1058 1 0.0370764 0.378058 0.242942
772 1 0.00258858 0.379124 0.199045
774 1 0.125801 0.37177 0.168932
773 1 0.0902148 0.334908 0.167113
776 1 0.0875204 0.374816 0.205434
780 1 0.16621 0.380438 0.211313
1109 1 0.0880302 0.414014 0.247541
1113 1 0.164019 0.413431 0.249435
1061 1 0.084304 0.339449 0.249743
777 1 0.170566 0.334061 0.170946
825 1 0.178052 0.412372 0.173061
779 1 0.207179 0.339212 0.217282
778 1 0.220423 0.375061 0.170686
827 1 0.217534 0.411981 0.211457
784 1 0.258389 0.373692 0.214414
782 1 0.286621 0.376857 0.167918
1117 1 0.259938 0.412366 0.249029
786 1 0.374851 0.377326 0.168031
788 1 0.334134 0.369389 0.210918
792 1 0.416523 0.376831 0.214714
1121 1 0.339791 0.416541 0.246306
1074 1 0.375213 0.377875 0.246404
839 1 0.455582 0.414809 0.212828
796 1 0.495324 0.3725 0.212341
794 1 0.538214 0.376447 0.172658
1082 1 0.5518 0.371431 0.247954
1133 1 0.581815 0.416376 0.248608
800 1 0.58755 0.364932 0.201352
804 1 0.655916 0.374804 0.205727
847 1 0.616455 0.410699 0.204979
1137 1 0.658167 0.406796 0.248235
803 1 0.697638 0.335557 0.209757
1090 1 0.698051 0.371767 0.24349
1141 1 0.749077 0.416311 0.24307
808 1 0.751609 0.372859 0.207339
855 1 0.792799 0.410835 0.199038
812 1 0.832706 0.368036 0.206811
1094 1 0.787621 0.372993 0.246833
811 1 0.877297 0.336176 0.20712
816 1 0.916413 0.378895 0.202669
859 1 0.877623 0.414145 0.201747
1149 1 0.912446 0.413532 0.246154
815 1 0.95497 0.339634 0.200332
1105 1 0.999012 0.410912 0.247141
1057 1 0.999719 0.336491 0.24316
1101 1 0.920434 0.336334 0.242328
1102 1 0.959991 0.374137 0.243493
819 1 0.0420171 0.419185 0.206442
1106 1 0.0428568 0.454219 0.246656
821 1 0.08682 0.418801 0.168407
822 1 0.128846 0.461571 0.169254
823 1 0.126084 0.421088 0.208158
824 1 0.0866857 0.459325 0.208801
1110 1 0.121693 0.459281 0.248664
4039 1 0.135427 0.498765 0.213678
828 1 0.167578 0.453195 0.206434
826 1 0.206461 0.459998 0.171119
832 1 0.249532 0.457557 0.213936
4043 1 0.207683 0.497616 0.208587
833 1 0.33301 0.416996 0.170455
831 1 0.289697 0.419295 0.205861
836 1 0.332937 0.456229 0.208243
4047 1 0.300526 0.498517 0.211095
835 1 0.377027 0.425622 0.213859
840 1 0.423211 0.457501 0.200055
841 1 0.497118 0.419683 0.178064
838 1 0.461445 0.456153 0.16762
1126 1 0.45252 0.460707 0.244829
844 1 0.494986 0.457614 0.210998
843 1 0.539895 0.418775 0.210791
1129 1 0.502638 0.419991 0.24683
848 1 0.580486 0.457592 0.207378
1130 1 0.540736 0.465534 0.244456
4059 1 0.534089 0.497472 0.205464
1134 1 0.618776 0.459404 0.243775
852 1 0.659823 0.458656 0.213404
851 1 0.708587 0.41789 0.206955
856 1 0.747481 0.458597 0.207143
1138 1 0.702993 0.459325 0.246618
4069 1 0.747165 0.498399 0.168403
4067 1 0.705239 0.493399 0.202121
860 1 0.826517 0.45786 0.20405
1142 1 0.788003 0.45717 0.242844
4361 1 0.831595 0.497553 0.24639
1145 1 0.834733 0.418778 0.24366
858 1 0.873914 0.462423 0.169734
864 1 0.915215 0.457402 0.206514
820 1 0.996925 0.457165 0.201542
863 1 0.954897 0.418554 0.207843
1150 1 0.956034 0.465854 0.249816
4321 1 0.999379 0.498216 0.249863
4079 1 0.960621 0.498979 0.200843
869 1 0.0823514 0.0035069 0.252561
1153 1 0.0104264 0.00217669 0.322124
866 1 0.0461557 0.0404368 0.253775
915 1 0.0469791 0.0790353 0.292374
868 1 0.00557047 0.0446137 0.293643