ITEM: TIMESTEP
14250
ITEM: NUMBER OF ATOMS
864
ITEM: BOX BOUNDS pp pp pp
0.0000000000000000e+00 3.1559999999999999e+01
0.0000000000000000e+00 3.1559999999999999e+01
0.0000000000000000e+00 3.1559999999999999e+01
ITEM: ATOMS id type xs ys zs
74 1 0.0803678 0.0968476 0.159851
196 1 0.990288 0.415373 0.401568
217 1 0.985145 0.0115426 0.486657
8 1 0.162992 0.0831222 0.0776689
214 1 0.89884 0.408451 0.33798
78 1 0.250744 0.0986675 0.143866
2 1 0.0740261 0.0772794 0.00452398
12 1 0.342763 0.0808944 0.0832285
16 1 0.499769 0.0946444 0.0880645
226 1 0.424492 0.0947776 0.498417
65 1 0.665111 0.317921 0.00404412
86 1 0.587609 0.0843409 0.170869
20 1 0.651429 0.0824578 0.0857316
39 1 0.571726 0.174198 0.0735178
113 1 0.665404 0.167572 0.162257
54 1 0.263102 0.428004 0.00571693
90 1 0.748628 0.0893002 0.159433
24 1 0.842915 0.0834114 0.0900446
43 1 0.748203 0.159067 0.0795059
4 1 0.992497 0.0773423 0.0763047
505 1 0.00271137 0.484066 0.162502
47 1 0.91869 0.161538 0.0920355
250 1 0.414579 0.256186 0.484487
27 1 0.0612212 0.168545 0.0755791
51 1 0.0840707 0.343472 0.0933947
98 1 0.0855368 0.247166 0.158446
125 1 0.170765 0.323688 0.177647
58 1 0.41981 0.413148 0.00806704
31 1 0.257604 0.171726 0.0706041
101 1 0.166713 0.161711 0.153458
32 1 0.16427 0.252532 0.0813736
35 1 0.416071 0.183643 0.069624
36 1 0.334467 0.249614 0.102921
85 1 0.515034 0.00829819 0.165035
40 1 0.499875 0.254447 0.0884365
109 1 0.49434 0.180398 0.174656
44 1 0.674321 0.245655 0.0801355
63 1 0.580083 0.331599 0.0775227
11 1 0.42836 0.0172404 0.0671286
117 1 0.836734 0.16809 0.169536
147 1 0.092162 0.0056788 0.413238
114 1 0.743926 0.24972 0.160506
141 1 0.815851 0.347233 0.172262
121 1 0.998125 0.342925 0.168536
48 1 0.832129 0.240501 0.09213
28 1 0.99195 0.24743 0.0879893
118 1 0.913826 0.260258 0.164555
52 1 0.997247 0.41302 0.0725232
441 1 0.332336 0.498196 0.00154708
55 1 0.242858 0.345117 0.0884114
56 1 0.174835 0.421627 0.0813128
126 1 0.239851 0.424471 0.178333
50 1 0.0873818 0.421032 0.0141601
149 1 0.156221 0.00176406 0.323519
60 1 0.336495 0.418791 0.0954906
59 1 0.429403 0.341677 0.0913135
130 1 0.414839 0.44341 0.178073
64 1 0.489881 0.418517 0.0805576
133 1 0.510872 0.347155 0.160174
134 1 0.579453 0.444119 0.157286
68 1 0.665101 0.415532 0.0978252
67 1 0.761628 0.329903 0.0784381
138 1 0.744518 0.417202 0.160352
137 1 0.665972 0.334628 0.172383
71 1 0.911916 0.340695 0.0950501
72 1 0.830262 0.426349 0.0848774
142 1 0.903626 0.41571 0.163846
80 1 0.156175 0.0856554 0.244607
76 1 0.993451 0.0790303 0.238204
146 1 0.0780987 0.0796912 0.315746
218 1 0.0905003 0.0783206 0.488947
57 1 0.332546 0.340073 0.0090336
53 1 0.157726 0.336263 0.0168542
103 1 0.253035 0.164036 0.228606
84 1 0.329814 0.084296 0.249791
82 1 0.422768 0.0755933 0.165146
88 1 0.495003 0.0903349 0.244143
73 1 0.99624 7.62471e-05 0.156546
158 1 0.587223 0.085895 0.299348
111 1 0.578295 0.174849 0.246674
261 1 0.817288 0.170127 0.495041
92 1 0.681156 0.069139 0.237115
115 1 0.738837 0.172565 0.240382
96 1 0.832685 0.0834861 0.257718
216 1 0.827995 0.418493 0.42462
79 1 0.263217 0.00571769 0.242299
94 1 0.918624 0.0881442 0.161934
527 1 0.925543 0.499784 0.253119
119 1 0.921445 0.158201 0.250483
587 1 0.434836 0.497963 0.41245
99 1 0.0854136 0.171228 0.248138
123 1 0.0819792 0.33195 0.232664
170 1 0.0747421 0.251988 0.31875
104 1 0.179786 0.247078 0.257105
100 1 0.996123 0.265315 0.24352
102 1 0.240991 0.235119 0.146974
105 1 0.342442 0.152574 0.162066
106 1 0.417326 0.253451 0.172548
177 1 0.3239 0.182739 0.316939
108 1 0.330165 0.254798 0.231262
107 1 0.409023 0.164291 0.255018
112 1 0.498267 0.254787 0.250131
110 1 0.592004 0.251393 0.161011
135 1 0.584124 0.343929 0.24008
181 1 0.502582 0.16336 0.333993
189 1 0.805931 0.17143 0.317715
116 1 0.658327 0.249114 0.241993
139 1 0.744532 0.346479 0.253168
209 1 0.662598 0.3377 0.327819
193 1 0.983735 0.334641 0.33305
97 1 0.00286106 0.177546 0.174063
169 1 0.994986 0.17666 0.323626
120 1 0.835394 0.251057 0.237126
230 1 0.585537 0.0755394 0.497091
253 1 0.50792 0.160197 0.498684
3 1 0.0824075 0.00174079 0.0796411
122 1 0.0937856 0.43441 0.169417
128 1 0.15835 0.411721 0.248731
197 1 0.15198 0.335948 0.325739
249 1 0.338636 0.171291 0.494599
525 1 0.825505 0.495688 0.175551
127 1 0.256085 0.33747 0.253389
132 1 0.331876 0.430616 0.257802
49 1 0.993466 0.335459 0.0027823
129 1 0.332671 0.347239 0.175428
131 1 0.413011 0.338028 0.242744
136 1 0.506751 0.433991 0.243058
229 1 0.507644 0.00447369 0.486964
205 1 0.502284 0.341602 0.326361
210 1 0.754247 0.403132 0.345284
140 1 0.649152 0.433735 0.242417
144 1 0.817248 0.419218 0.25998
212 1 0.667503 0.427417 0.435592
143 1 0.90059 0.352394 0.248464
124 1 0.00387739 0.418393 0.255548
242 1 0.0721189 0.237224 0.480439
148 1 0.984034 0.0863714 0.413173
206 1 0.595368 0.421917 0.350681
281 1 0.654418 0.335865 0.499573
70 1 0.915104 0.424021 0.00877066
204 1 0.34393 0.419504 0.415626
152 1 0.172067 0.0825229 0.417488
150 1 0.248581 0.0840055 0.332975
156 1 0.34582 0.0827119 0.426939
154 1 0.412933 0.0853498 0.333262
160 1 0.49418 0.0791554 0.40287
81 1 0.329785 0.00770066 0.158132
208 1 0.497819 0.403701 0.42695
164 1 0.663853 0.0815912 0.412572
185 1 0.640518 0.162597 0.33339
162 1 0.739144 0.0899299 0.331897
168 1 0.821193 0.0856569 0.415699
202 1 0.413692 0.414703 0.328434
653 1 0.175776 0.497553 0.497781
451 1 0.749091 0.496009 0.0774455
166 1 0.90062 0.0792941 0.334189
199 1 0.254638 0.339245 0.409185
172 1 0.967041 0.235806 0.409555
171 1 0.0713365 0.148514 0.393447
173 1 0.176888 0.152155 0.327915
176 1 0.152867 0.249828 0.399008
175 1 0.250633 0.174823 0.418492
174 1 0.257752 0.261761 0.335224
184 1 0.504524 0.248515 0.406967
178 1 0.412137 0.246547 0.327468
203 1 0.407276 0.333845 0.405098
179 1 0.421027 0.167452 0.418614
180 1 0.338641 0.254857 0.407498
207 1 0.573789 0.337945 0.420366
183 1 0.587578 0.163266 0.431168
182 1 0.580323 0.259755 0.316804
188 1 0.663116 0.263458 0.40202
167 1 0.903679 0.0100739 0.413651
192 1 0.834604 0.233046 0.408032
211 1 0.760979 0.30977 0.417678
213 1 0.823918 0.327285 0.332731
187 1 0.743294 0.180094 0.405991
186 1 0.740533 0.258692 0.32174
190 1 0.917693 0.256204 0.317473
215 1 0.907437 0.326644 0.417154
191 1 0.898982 0.154095 0.413843
194 1 0.0801435 0.418463 0.339174
195 1 0.0657386 0.322765 0.399662
201 1 0.337734 0.34431 0.318917
200 1 0.159977 0.402066 0.413052
198 1 0.237864 0.410489 0.328914
69 1 0.842925 0.336506 0.00645007
245 1 0.160558 0.170363 0.469562
161 1 0.661163 0.00983374 0.326515
21 1 0.838898 0.0134244 0.00498979
26 1 0.0874094 0.266053 0.0116396
7 1 0.251364 0.00209818 0.0827802
439 1 0.252307 0.493437 0.096495
599 1 0.912509 0.492656 0.417821
95 1 0.909954 0.00821453 0.249042
234 1 0.743322 0.0819496 0.495635
153 1 0.341581 0.00254713 0.331941
273 1 0.338168 0.334656 0.499525
157 1 0.496306 0.0036889 0.317825
61 1 0.499622 0.336898 0.00140548
433 1 0.993003 0.499522 0.000216239
266 1 0.0852897 0.428363 0.495463
45 1 0.847407 0.161543 0.00952492
270 1 0.25073 0.415316 0.497186
657 1 0.345243 0.495125 0.499755
29 1 0.154205 0.179818 0.0139306
269 1 0.163383 0.325067 0.497399
30 1 0.257513 0.261408 0.00595794
265 1 0.993507 0.331693 0.482014
222 1 0.245554 0.0911421 0.491333
6 1 0.259544 0.0800009 0.0011741
278 1 0.579474 0.428739 0.495974
238 1 0.902484 0.087235 0.494102
282 1 0.74912 0.386664 0.495688
246 1 0.239692 0.252336 0.493579
25 1 0.987783 0.167792 0.00162369
262 1 0.911003 0.250026 0.521109
290 1 0.0875712 0.0653229 0.672034
224 1 0.15818 0.103641 0.568689
228 1 0.351474 0.0961822 0.587153
367 1 0.242361 0.00590367 0.906479
813 1 0.837743 0.480508 0.837821
232 1 0.505653 0.0866596 0.573196
251 1 0.432473 0.173743 0.582311
9 1 0.326532 0.00204286 0.997143
793 1 0.99242 0.498243 0.830831
18 1 0.7503 0.0871385 0.987022
227 1 0.418212 0.00406858 0.585036
302 1 0.563647 0.0846726 0.684709
236 1 0.665264 0.089207 0.583391
295 1 0.257057 0.00749522 0.739219
240 1 0.8316 0.0926714 0.581837
329 1 0.657968 0.171414 0.671862
671 1 0.92961 0.49746 0.575988
663 1 0.590209 0.493914 0.579579
220 1 0.997886 0.06861 0.572176
310 1 0.927009 0.0715961 0.65533
727 1 0.250376 0.499565 0.764195
243 1 0.0634069 0.144597 0.590454
248 1 0.152275 0.216023 0.575515
244 1 0.00787734 0.238401 0.57382
723 1 0.0924891 0.488592 0.73772
267 1 0.0821726 0.314733 0.563632
807 1 0.581323 0.495595 0.923318
795 1 0.0750862 0.497796 0.903037
247 1 0.253636 0.166144 0.588276
223 1 0.246622 0.0190447 0.575424
651 1 0.0978996 0.492862 0.597988
252 1 0.343749 0.2443 0.566282
256 1 0.50383 0.247323 0.583795
659 1 0.41276 0.4967 0.597037
255 1 0.590967 0.173337 0.571466
326 1 0.596759 0.258035 0.668572
241 1 0.989253 0.163232 0.501417
737 1 0.666405 0.488303 0.663209
260 1 0.665993 0.261146 0.589689
259 1 0.741215 0.172231 0.60566
264 1 0.838301 0.237644 0.599955
283 1 0.763049 0.334939 0.59365
285 1 0.840023 0.328226 0.501511
377 1 0.687026 0.000432143 0.832775
263 1 0.923503 0.160861 0.595642
287 1 0.914558 0.339286 0.588232
258 1 0.752018 0.245199 0.505806
811 1 0.748029 0.494368 0.917429
338 1 0.0851757 0.401134 0.662368
297 1 0.341038 0.00859765 0.673674
735 1 0.591343 0.499397 0.738093
38 1 0.576484 0.256938 0.988125
373 1 0.502623 0.00177392 0.824866
271 1 0.245138 0.324569 0.577122
272 1 0.163537 0.409277 0.578646
276 1 0.334354 0.414916 0.572822
428 1 0.664291 0.409979 0.9197
231 1 0.590887 0.0100048 0.588548
305 1 0.674447 0.00307705 0.68091
415 1 0.24852 0.347821 0.938455
426 1 0.74775 0.413362 0.842654
275 1 0.419938 0.343448 0.591964
729 1 0.32639 0.486435 0.669086
432 1 0.83806 0.412651 0.927759
279 1 0.589848 0.33905 0.587389
280 1 0.500401 0.415006 0.572254
284 1 0.664085 0.410896 0.576804
353 1 0.668556 0.338043 0.665585
725 1 0.176585 0.48823 0.667911
350 1 0.595868 0.413056 0.658306
801 1 0.325464 0.494998 0.835448
22 1 0.924776 0.0754161 0.994429
655 1 0.250826 0.491941 0.587692
371 1 0.421661 0.00683335 0.910089
420 1 0.327967 0.416633 0.915553
721 1 0.998214 0.488069 0.664092
437 1 0.15964 0.496022 0.994898
268 1 0.0084736 0.408613 0.582653
288 1 0.831088 0.422262 0.564637
419 1 0.41332 0.334485 0.911081
317 1 0.158938 0.15699 0.674741
313 1 0.998781 0.166733 0.674965
315 1 0.0702494 0.168015 0.767401
296 1 0.170688 0.0819819 0.763977
292 1 0.996039 0.0867661 0.764244
294 1 0.241675 0.0914816 0.673081
366 1 0.261727 0.0851427 0.8331
300 1 0.337752 0.091747 0.754321
319 1 0.251939 0.163496 0.754412
298 1 0.418941 0.0785187 0.682651
323 1 0.398235 0.181216 0.759963
304 1 0.487048 0.0911468 0.759843
393 1 0.317955 0.181883 0.844939
325 1 0.505237 0.167885 0.66357
308 1 0.674005 0.098021 0.75638
306 1 0.755055 0.0921315 0.683102
312 1 0.838429 0.0785094 0.758856
333 1 0.83584 0.171455 0.677805
405 1 0.834144 0.168502 0.84108
378 1 0.755895 0.0810314 0.826185
407 1 0.921449 0.163702 0.910514
14 1 0.580163 0.0924111 0.992139
335 1 0.91686 0.170958 0.766762
314 1 0.0653583 0.245672 0.661846
320 1 0.152866 0.245743 0.7477
339 1 0.0733277 0.333718 0.749854
341 1 0.15402 0.313127 0.642349
318 1 0.236564 0.237118 0.680905
324 1 0.322013 0.264935 0.745304
390 1 0.237983 0.262644 0.823357
321 1 0.342958 0.171167 0.661657
322 1 0.42586 0.250614 0.661817
394 1 0.421844 0.260754 0.817675
327 1 0.587859 0.164946 0.755758
328 1 0.526651 0.250666 0.742978
349 1 0.501989 0.350791 0.660628
332 1 0.664658 0.245253 0.753757
330 1 0.753497 0.253158 0.675737
331 1 0.757283 0.16841 0.751078
336 1 0.832734 0.253499 0.759619
355 1 0.752741 0.332382 0.755549
402 1 0.746057 0.262749 0.836942
316 1 0.0015951 0.242261 0.748258
334 1 0.925977 0.247547 0.663126
337 1 0.999674 0.345444 0.668644
359 1 0.923318 0.323381 0.750794
413 1 0.164173 0.334113 0.836985
340 1 0.00162935 0.421935 0.760769
344 1 0.159412 0.403677 0.743609
388 1 0.00193948 0.251538 0.917723
410 1 0.0826424 0.413085 0.830715
345 1 0.337316 0.324159 0.660301
342 1 0.253197 0.403711 0.659959
343 1 0.237294 0.33582 0.74098
348 1 0.31567 0.412012 0.743536
417 1 0.330074 0.347641 0.81604
414 1 0.221979 0.420849 0.834173
347 1 0.407339 0.343498 0.736907
346 1 0.416469 0.419209 0.667372
418 1 0.410307 0.423955 0.841332
421 1 0.51103 0.339623 0.820796
423 1 0.580573 0.338101 0.911984
351 1 0.594684 0.344435 0.749066
352 1 0.507705 0.427295 0.748612
356 1 0.679971 0.4133 0.764344
354 1 0.749621 0.4195 0.660328
429 1 0.835162 0.344579 0.835204
360 1 0.831835 0.413254 0.745553
357 1 0.831947 0.328574 0.675953
424 1 0.492664 0.411908 0.914206
358 1 0.909707 0.404959 0.670528
430 1 0.917763 0.412517 0.83946
362 1 0.0892646 0.0745743 0.830783
387 1 0.0877747 0.16693 0.932629
10 1 0.434125 0.10275 0.983478
364 1 0.00377804 0.0722145 0.914007
409 1 0.994982 0.327811 0.834824
368 1 0.168921 0.0946593 0.918539
391 1 0.241017 0.176382 0.921434
372 1 0.340104 0.0834671 0.918371
370 1 0.426061 0.0871617 0.847217
376 1 0.509678 0.0874871 0.905214
422 1 0.589568 0.420758 0.840432
369 1 0.34303 0.00624262 0.830202
401 1 0.665772 0.175071 0.833731
374 1 0.585547 0.087607 0.825361
380 1 0.682642 0.0881738 0.904992
397 1 0.497031 0.189335 0.816699
416 1 0.151107 0.415997 0.915695
384 1 0.841511 0.0852583 0.912254
13 1 0.511638 0.00459417 0.99672
412 1 0.988164 0.41838 0.91595
382 1 0.915569 0.0677984 0.83856
385 1 0.00187132 0.171519 0.846285
408 1 0.830106 0.259673 0.922545
411 1 0.0713453 0.348329 0.922417
386 1 0.0819446 0.261169 0.831423
389 1 0.157676 0.189607 0.852999
406 1 0.912199 0.258952 0.849826
392 1 0.172933 0.267754 0.926789
395 1 0.424726 0.170613 0.909006
431 1 0.919801 0.334157 0.929364
396 1 0.323431 0.266024 0.90732
398 1 0.578515 0.25369 0.835146
400 1 0.494315 0.257682 0.904829
399 1 0.581171 0.180341 0.907381
425 1 0.664623 0.334898 0.838505
427 1 0.754673 0.33589 0.932299
404 1 0.678356 0.26112 0.918304
403 1 0.759832 0.179079 0.91788
805 1 0.486105 0.489132 0.831915
731 1 0.395366 0.489581 0.759084
303 1 0.577733 0.00068569 0.744593
803 1 0.413953 0.490277 0.927638
293 1 0.174878 0.0157246 0.652761
219 1 0.0864245 0.0104228 0.576192
235 1 0.75208 0.00613045 0.580465
41 1 0.66284 0.164013 0.996326
667 1 0.756444 0.494453 0.590681
34 1 0.413702 0.263859 0.983372
741 1 0.845712 0.487772 0.649839
33 1 0.331084 0.180531 0.978996
375 1 0.605235 0.0137526 0.907185
37 1 0.503771 0.182419 0.989817
743 1 0.90588 0.498426 0.741157
225 1 0.343199 0.00633329 0.504156
62 1 0.581952 0.410511 0.998329
274 1 0.415785 0.417981 0.501706
254 1 0.592966 0.257291 0.507113
66 1 0.753995 0.416585 0.993903
257 1 0.675339 0.178212 0.502547
445 1 0.502018 0.495389 0.98912
17 1 0.674712 0.00471533 0.991822
286 1 0.9207 0.429263 0.500793
42 1 0.755008 0.250915 0.996119
46 1 0.914567 0.248108 0.996584
277 1 0.510857 0.329703 0.507474
440 1 0.177948 0.572352 0.0814759
628 1 0.012401 0.921365 0.430818
710 1 0.590835 0.914315 0.499548
463 1 0.241565 0.663777 0.0734652
501 1 0.842887 0.830858 0.00710396
537 1 0.33493 0.676567 0.17882
444 1 0.340446 0.576048 0.0842487
579 1 0.0905929 0.505024 0.43013
448 1 0.501822 0.587238 0.0755597
518 1 0.583505 0.590105 0.178858
593 1 0.65325 0.506544 0.335923
658 1 0.415045 0.589214 0.48822
458 1 0.0826849 0.740473 0.0146952
452 1 0.663413 0.581233 0.0790836
522 1 0.753442 0.574244 0.165733
507 1 0.102847 0.503922 0.250891
434 1 0.0720368 0.58526 0.00558369
436 1 0.996315 0.574923 0.095624
648 1 0.825435 0.911201 0.424932
456 1 0.831085 0.577375 0.0778662
479 1 0.912934 0.655662 0.0935813
526 1 0.909863 0.571746 0.16477
459 1 0.0806393 0.65264 0.090647
530 1 0.0939563 0.742493 0.184328
464 1 0.160147 0.730084 0.0946585
163 1 0.751006 0.993626 0.419706
468 1 0.324333 0.733872 0.0785953
487 1 0.257897 0.825058 0.0736048
534 1 0.260717 0.754244 0.181028
557 1 0.177661 0.823402 0.170452
467 1 0.421939 0.659124 0.0894805
491 1 0.39916 0.835162 0.0815561
472 1 0.479012 0.754819 0.0826222
565 1 0.488329 0.850483 0.157097
159 1 0.573465 0.99396 0.40274
15 1 0.587702 0.982822 0.0662696
471 1 0.579302 0.662743 0.0763102
476 1 0.663187 0.73163 0.0698929
145 1 0.992627 0.996371 0.340445
475 1 0.744627 0.654419 0.0855955
480 1 0.828594 0.73544 0.0687202
499 1 0.741661 0.811359 0.0782032
23 1 0.912817 0.989413 0.076159
460 1 0.00196262 0.743218 0.0971457
503 1 0.924165 0.818264 0.0836939
233 1 0.665428 0.998868 0.499264
515 1 0.414146 0.505555 0.261796
455 1 0.918854 0.501763 0.0915076
553 1 0.993532 0.837048 0.176092
483 1 0.0994586 0.828629 0.0922832
488 1 0.16161 0.906137 0.0835177
492 1 0.334268 0.92181 0.0739946
75 1 0.0709213 0.998198 0.245378
585 1 0.343464 0.509815 0.339689
496 1 0.504176 0.914544 0.0726464
523 1 0.730577 0.502315 0.252925
447 1 0.578711 0.514864 0.0793771
495 1 0.581378 0.841381 0.0746264
509 1 0.181335 0.506342 0.173122
646 1 0.915947 0.913627 0.347924
500 1 0.661603 0.909771 0.0669694
570 1 0.747718 0.906377 0.161677
504 1 0.844355 0.920788 0.0752314
569 1 0.663862 0.82232 0.16842
454 1 0.92496 0.592955 0.00286477
484 1 0.993078 0.905811 0.0944649
165 1 0.817957 0.990597 0.325701
506 1 0.100454 0.574928 0.174679
512 1 0.164957 0.592566 0.261988
508 1 0.00559077 0.571015 0.258991
510 1 0.269114 0.590346 0.166845
516 1 0.325057 0.577481 0.261953
609 1 0.335515 0.658346 0.330364
581 1 0.162101 0.501578 0.342178
535 1 0.247107 0.664723 0.251517
514 1 0.416856 0.586638 0.173734
519 1 0.574568 0.51558 0.254072
539 1 0.427608 0.667621 0.246529
586 1 0.425008 0.587299 0.334574
647 1 0.931717 0.831782 0.429395
520 1 0.503209 0.592525 0.250035
590 1 0.573194 0.594133 0.33796
435 1 0.0854233 0.502188 0.0826708
524 1 0.662884 0.592847 0.262635
594 1 0.745755 0.588123 0.343028
87 1 0.585534 0.986 0.238938
511 1 0.239799 0.513765 0.256122
528 1 0.818535 0.569995 0.256079
551 1 0.901242 0.674777 0.254895
644 1 0.66282 0.91748 0.404829
531 1 0.0756464 0.652681 0.263944
536 1 0.161858 0.767218 0.274096
533 1 0.163405 0.65566 0.175424
532 1 0.998679 0.740952 0.269449
606 1 0.255537 0.760379 0.347709
540 1 0.344739 0.744176 0.26663
559 1 0.245624 0.842882 0.248148
633 1 0.332828 0.830036 0.336074
538 1 0.419981 0.747559 0.169332
541 1 0.505219 0.664511 0.161258
610 1 0.421691 0.759511 0.343027
561 1 0.332199 0.830962 0.168346
563 1 0.429185 0.82793 0.255425
543 1 0.577571 0.667142 0.250154
613 1 0.508278 0.679851 0.334413
544 1 0.511443 0.753026 0.234716
542 1 0.594541 0.737389 0.169401
614 1 0.591038 0.758885 0.324627
546 1 0.734484 0.733434 0.160163
573 1 0.835325 0.835455 0.150659
545 1 0.667869 0.652081 0.175198
548 1 0.673186 0.741855 0.242259
547 1 0.746649 0.665177 0.250075
552 1 0.817849 0.749676 0.238668
645 1 0.833069 0.84304 0.322919
617 1 0.661478 0.677503 0.341851
529 1 0.993147 0.651655 0.182528
550 1 0.930064 0.740788 0.171745
549 1 0.832569 0.66642 0.167186
554 1 0.0831681 0.912694 0.158132
642 1 0.745096 0.902875 0.330466
555 1 0.0768998 0.844349 0.244724
626 1 0.0812553 0.929715 0.336782
556 1 0.997029 0.922037 0.254921
560 1 0.170995 0.916283 0.25492
558 1 0.252593 0.920598 0.155582
630 1 0.257605 0.928615 0.325221
564 1 0.341384 0.906011 0.249492
517 1 0.499837 0.512309 0.15749
562 1 0.405592 0.918593 0.165702
634 1 0.420798 0.920102 0.336845
718 1 0.921066 0.917411 0.492898
566 1 0.58262 0.908818 0.165932
567 1 0.581901 0.828313 0.238235
568 1 0.503069 0.915449 0.249721
572 1 0.659211 0.90572 0.24847
638 1 0.58868 0.913091 0.332826
19 1 0.753964 0.992271 0.092198
571 1 0.756318 0.837253 0.236543
83 1 0.413732 0.996036 0.250818
574 1 0.908904 0.920016 0.168172
575 1 0.926417 0.832032 0.260348
576 1 0.830485 0.920092 0.250951
625 1 0.0161306 0.838702 0.349386
478 1 0.916503 0.736258 0.0042217
443 1 0.426065 0.517836 0.0695714
578 1 0.0715771 0.581204 0.350011
5 1 0.169134 0.996799 0.0123103
603 1 0.079281 0.657081 0.42686
639 1 0.576846 0.827396 0.420188
605 1 0.168269 0.668922 0.338564
582 1 0.24392 0.59659 0.343028
584 1 0.163644 0.577122 0.425362
607 1 0.249636 0.662497 0.435681
221 1 0.176366 0.994869 0.496734
622 1 0.91438 0.757746 0.340848
91 1 0.737561 0.977148 0.250855
588 1 0.329079 0.577226 0.420845
611 1 0.402271 0.657043 0.411316
627 1 0.0814853 0.837121 0.428687
592 1 0.501363 0.583957 0.421188
615 1 0.584569 0.664164 0.424836
635 1 0.403532 0.835254 0.425364
77 1 0.170377 0.989363 0.184038
583 1 0.252884 0.501023 0.413316
596 1 0.676253 0.584384 0.423852
600 1 0.834834 0.589764 0.409201
619 1 0.750715 0.675789 0.426745
604 1 0.00481925 0.75607 0.425246
640 1 0.485645 0.916551 0.418234
580 1 0.987051 0.573215 0.424544
598 1 0.926824 0.58064 0.34061
623 1 0.904852 0.677894 0.417519
602 1 0.0786017 0.751222 0.3488
521 1 0.670316 0.520272 0.169651
636 1 0.344398 0.91698 0.412935
673 1 0.999993 0.662038 0.485424
589 1 0.503937 0.502066 0.330177
608 1 0.171157 0.763245 0.412361
631 1 0.247312 0.841428 0.422721
612 1 0.331224 0.743928 0.435995
637 1 0.509303 0.833615 0.338606
616 1 0.513106 0.749975 0.417605
632 1 0.167312 0.928799 0.407182
624 1 0.833695 0.769665 0.42598
629 1 0.157597 0.843585 0.345843
641 1 0.682295 0.81677 0.312424
618 1 0.75219 0.742477 0.341107
621 1 0.82282 0.664522 0.338828
620 1 0.6788 0.760445 0.409038
643 1 0.747281 0.841235 0.427666
601 1 0.993938 0.662925 0.345513
597 1 0.836591 0.501004 0.336589
595 1 0.74929 0.500657 0.409004
89 1 0.663749 0.977208 0.163822
577 1 0.00239895 0.505576 0.340806
151 1 0.256154 0.995876 0.424305
155 1 0.420927 0.99116 0.420605
93 1 0.829407 0.995868 0.167781
513 1 0.323915 0.500112 0.168427
449 1 0.667851 0.500322 0.00808948
591 1 0.577647 0.508092 0.416005
713 1 0.655688 0.831192 0.491139
474 1 0.73904 0.738249 0.0014802
678 1 0.238292 0.747973 0.496823
682 1 0.415437 0.742996 0.497929
237 1 0.837771 0.987266 0.49264
681 1 0.341337 0.658929 0.49864
486 1 0.251879 0.925293 0.0089743
674 1 0.101842 0.749129 0.497838
670 1 0.89649 0.592716 0.497432
669 1 0.829858 0.501548 0.494882
705 1 0.331247 0.824411 0.497761
481 1 0.998639 0.812859 0.0028381
675 1 0.0780615 0.677093 0.585716
722 1 0.0960027 0.59123 0.669329
656 1 0.176539 0.588332 0.594298
652 1 0.998629 0.58913 0.573483
473 1 0.666008 0.647578 0.997721
745 1 0.994635 0.67552 0.662041
698 1 0.09643 0.926057 0.513867
726 1 0.261688 0.581163 0.677453
701 1 0.173979 0.852515 0.506481
660 1 0.340053 0.571516 0.587608
664 1 0.473866 0.583032 0.584185
683 1 0.418058 0.673106 0.593085
668 1 0.675891 0.578616 0.576028
687 1 0.570517 0.653029 0.586716
691 1 0.749198 0.667637 0.594195
672 1 0.833449 0.59381 0.597519
738 1 0.741962 0.575032 0.665917
654 1 0.25613 0.575623 0.509543
695 1 0.918356 0.671607 0.585596
742 1 0.919798 0.601304 0.658964
649 1 0.00907707 0.503053 0.507359
680 1 0.170925 0.739279 0.587465
699 1 0.0971039 0.847268 0.588072
676 1 0.0119628 0.747144 0.578905
749 1 0.177884 0.662332 0.672097
746 1 0.0845378 0.741969 0.669682
679 1 0.255462 0.660466 0.593179
773 1 0.171839 0.825255 0.672354
703 1 0.256289 0.829978 0.578239
684 1 0.339475 0.749293 0.587707
688 1 0.506791 0.742486 0.584124
753 1 0.334685 0.661976 0.672105
777 1 0.321982 0.843623 0.66773
757 1 0.497572 0.656232 0.67244
758 1 0.582153 0.744095 0.656729
692 1 0.6658 0.749927 0.584874
711 1 0.58459 0.836214 0.575279
696 1 0.842011 0.753007 0.588035
762 1 0.741366 0.751674 0.681147
686 1 0.592804 0.745055 0.51014
719 1 0.934988 0.828744 0.577511
769 1 0.00817377 0.833065 0.669832
766 1 0.923923 0.752878 0.656891
700 1 0.00354157 0.918958 0.572266
462 1 0.249226 0.741703 0.989464
770 1 0.0922773 0.929813 0.659309
739 1 0.752422 0.507921 0.744928
704 1 0.175161 0.922515 0.587086
650 1 0.0955974 0.575315 0.515786
706 1 0.414408 0.926978 0.505664
365 1 0.172948 0.999846 0.828903
708 1 0.327319 0.919055 0.591883
707 1 0.413117 0.84522 0.5823
712 1 0.503739 0.925087 0.581677
307 1 0.767653 0.994975 0.748223
863 1 0.916269 0.820026 0.930169
666 1 0.760047 0.584414 0.502724
685 1 0.505048 0.664929 0.50085
309 1 0.84114 0.99421 0.669787
716 1 0.654934 0.926862 0.593816
715 1 0.757626 0.826862 0.600164
789 1 0.839387 0.845726 0.679611
720 1 0.824644 0.927974 0.587393
299 1 0.428704 0.992647 0.749299
790 1 0.921054 0.917391 0.668246
311 1 0.932232 0.990082 0.749068
799 1 0.243798 0.509323 0.914524
728 1 0.178559 0.587308 0.757914
724 1 0.994924 0.569656 0.747902
794 1 0.0745104 0.594129 0.840647
817 1 0.00150289 0.674618 0.832615
864 1 0.839114 0.906686 0.916077
732 1 0.337563 0.580069 0.760871
751 1 0.255363 0.68089 0.745024
497 1 0.666822 0.815368 0.998669
730 1 0.415231 0.565729 0.678924
802 1 0.411111 0.582771 0.840959
736 1 0.486263 0.576001 0.762417
825 1 0.334451 0.66454 0.837772
755 1 0.41687 0.668552 0.753302
490 1 0.418204 0.916477 0.994513
761 1 0.65899 0.67269 0.654821
734 1 0.599447 0.57973 0.666525
759 1 0.582198 0.663533 0.751826
806 1 0.579369 0.559537 0.838027
733 1 0.505643 0.504458 0.66793
833 1 0.638548 0.658419 0.840336
815 1 0.912548 0.503256 0.922366
740 1 0.670129 0.5996 0.748648
810 1 0.767685 0.569096 0.831964
859 1 0.748717 0.816332 0.92242
765 1 0.838388 0.676086 0.67921
744 1 0.833054 0.589866 0.7412
767 1 0.929018 0.66198 0.74613
814 1 0.914667 0.574965 0.833116
714 1 0.749273 0.909135 0.508224
747 1 0.0824758 0.666361 0.756277
752 1 0.163435 0.742898 0.755047
818 1 0.0844079 0.734576 0.840699
750 1 0.247376 0.753711 0.665596
756 1 0.339281 0.750268 0.74615
775 1 0.257193 0.830984 0.755983
845 1 0.173943 0.834756 0.828388
821 1 0.175537 0.667754 0.828862
754 1 0.427164 0.756578 0.65624
760 1 0.495775 0.750569 0.74799
779 1 0.412917 0.831359 0.754423
764 1 0.661621 0.741466 0.745337
783 1 0.592272 0.811389 0.751486
830 1 0.561237 0.751625 0.835543
785 1 0.67051 0.847277 0.666538
763 1 0.753712 0.658835 0.736595
837 1 0.830083 0.66192 0.825381
787 1 0.757572 0.841526 0.758798
748 1 0.99878 0.743484 0.7488
768 1 0.837456 0.75012 0.747785
838 1 0.912867 0.74735 0.824588
841 1 0.00823339 0.831719 0.829017
861 1 0.846719 0.822209 0.834223
771 1 0.0791613 0.818346 0.749389
842 1 0.0904613 0.905363 0.828723
442 1 0.410421 0.581982 0.98297
776 1 0.167802 0.90061 0.745054
774 1 0.242646 0.914382 0.678903
485 1 0.176558 0.831631 0.992956
853 1 0.482596 0.845992 0.83015
781 1 0.509177 0.835367 0.650494
778 1 0.424643 0.915852 0.67246
780 1 0.336752 0.920423 0.736857
809 1 0.67434 0.506624 0.824105
291 1 0.0899704 0.986524 0.74994
782 1 0.579065 0.922142 0.663663
470 1 0.578232 0.74811 0.998711
446 1 0.580481 0.584086 0.989029
784 1 0.516651 0.914468 0.750914
788 1 0.668767 0.913549 0.756052
786 1 0.741701 0.911856 0.672213
860 1 0.670739 0.922582 0.904819
858 1 0.757079 0.905963 0.845729
792 1 0.84045 0.919259 0.767951
379 1 0.766855 0.991567 0.930211
850 1 0.411267 0.919613 0.835979
862 1 0.918721 0.908395 0.83172
772 1 0.00941658 0.904595 0.741995
791 1 0.925214 0.835718 0.748607
849 1 0.332852 0.832024 0.831074
819 1 0.0840047 0.667449 0.919074
465 1 0.325365 0.663085 0.991524
800 1 0.167425 0.583708 0.91586
702 1 0.254141 0.913641 0.510875
856 1 0.510711 0.918829 0.901887
798 1 0.255553 0.584895 0.836103
823 1 0.237961 0.656007 0.915345
851 1 0.39399 0.833119 0.916721
665 1 0.684415 0.503849 0.508139
690 1 0.745022 0.749566 0.504901
804 1 0.329408 0.581461 0.913699
301 1 0.496227 0.985999 0.672421
854 1 0.590694 0.898125 0.831685
852 1 0.323906 0.929138 0.910228
694 1 0.924798 0.74143 0.504053
808 1 0.492642 0.568722 0.911209
846 1 0.261496 0.920554 0.81242
812 1 0.659342 0.57628 0.909712
844 1 0.00229316 0.911696 0.91458
820 1 0.994821 0.749979 0.918137
840 1 0.819933 0.733685 0.921743
816 1 0.846865 0.584445 0.92603
796 1 0.998489 0.580259 0.908756
839 1 0.927644 0.670172 0.914141
843 1 0.0930211 0.83597 0.917787
824 1 0.161753 0.742611 0.922194
693 1 0.831281 0.669417 0.520374
822 1 0.244629 0.750547 0.843712
847 1 0.260686 0.847222 0.912234
848 1 0.184803 0.912901 0.902025
829 1 0.501218 0.660012 0.833633
828 1 0.332692 0.745168 0.90724
827 1 0.426519 0.672874 0.908174
826 1 0.41308 0.750925 0.836452
832 1 0.486795 0.755467 0.918057
855 1 0.579919 0.826942 0.922562
831 1 0.579029 0.667997 0.917378
857 1 0.671449 0.836688 0.844914
836 1 0.65959 0.740754 0.917369
834 1 0.739068 0.74366 0.833563
835 1 0.747847 0.646529 0.901914
461 1 0.160594 0.66016 0.995069
361 1 0.000587973 0.990027 0.832669
689 1 0.674614 0.671554 0.509222
381 1 0.835317 0.99209 0.843618
239 1 0.914924 0.995788 0.579771
383 1 0.92701 0.988276 0.907528
717 1 0.846973 0.841952 0.519403
363 1 0.102856 0.996027 0.923801
709 1 0.4906 0.820413 0.503752
289 1 0.997416 0.995057 0.658262
797 1 0.158975 0.508244 0.832383
494 1 0.591733 0.913372 0.984911
697 1 0.0114194 0.839926 0.506574
489 1 0.333558 0.818076 0.996548
466 1 0.40843 0.732204 0.992268
477 1 0.822815 0.658082 0.998
482 1 0.0799379 0.90663 0.998903
450 1 0.755794 0.564238 0.995336
1 1 0.00253475 0.983596 0.998828
662 1 0.573073 0.588342 0.50365
661 1 0.490467 0.50791 0.50248
469 1 0.490648 0.659866 0.987243
438 1 0.254582 0.578783 0.996919
453 1 0.843132 0.505142 0.997803
677 1 0.173399 0.653354 0.510445
493 1 0.488046 0.838865 0.992435
457 1 0.000244406 0.668062 0.993481
498 1 0.754922 0.907879 0.996169
502 1 0.928215 0.907573 0.997211
