ITEM: TIMESTEP
14500
ITEM: NUMBER OF ATOMS
864
ITEM: BOX BOUNDS pp pp pp
0.0000000000000000e+00 3.1559999999999999e+01
0.0000000000000000e+00 3.1559999999999999e+01
0.0000000000000000e+00 3.1559999999999999e+01
ITEM: ATOMS id type xs ys zs
8 1 0.158217 0.0933481 0.082802
21 1 0.84755 0.00326885 0.00434972
258 1 0.74941 0.251979 0.500528
214 1 0.92161 0.409571 0.331332
12 1 0.343922 0.0713853 0.0792092
527 1 0.908278 0.493299 0.249373
196 1 0.978861 0.418666 0.428308
165 1 0.835071 0.00211113 0.33243
35 1 0.427593 0.161497 0.0885213
109 1 0.506278 0.166769 0.178002
661 1 0.497668 0.486497 0.494534
16 1 0.491334 0.0733022 0.0813784
39 1 0.584311 0.154625 0.0754716
20 1 0.654776 0.0757773 0.0804863
86 1 0.577317 0.075567 0.15053
24 1 0.829949 0.0747772 0.0987232
43 1 0.745241 0.155822 0.075125
90 1 0.745726 0.0937049 0.182239
22 1 0.931164 0.0812657 0.00329777
4 1 0.0113895 0.089372 0.0808891
94 1 0.924324 0.0899135 0.177771
211 1 0.750687 0.341531 0.416611
583 1 0.245537 0.488217 0.418248
27 1 0.0879369 0.172775 0.0848655
587 1 0.423635 0.485641 0.420875
98 1 0.0973426 0.248971 0.167316
579 1 0.0757771 0.496668 0.41447
32 1 0.182883 0.255623 0.0783973
31 1 0.24531 0.172245 0.0843309
55 1 0.257735 0.336883 0.0742882
101 1 0.174389 0.168078 0.17812
593 1 0.673191 0.497348 0.322543
36 1 0.332112 0.250209 0.0855792
40 1 0.508397 0.246485 0.0796107
59 1 0.408554 0.330584 0.0735375
505 1 0.996195 0.482909 0.169558
63 1 0.597552 0.321581 0.0789483
44 1 0.669141 0.238238 0.0726592
137 1 0.671591 0.323565 0.16856
1 1 0.0165024 0.0063154 0.00386968
117 1 0.835965 0.167471 0.164171
114 1 0.740651 0.239925 0.171701
48 1 0.824772 0.243664 0.081006
75 1 0.090873 0.0017337 0.249029
47 1 0.911809 0.172461 0.0880773
28 1 0.00346383 0.251841 0.0897795
118 1 0.918199 0.25051 0.165951
97 1 0.0182452 0.175062 0.173634
595 1 0.758197 0.496137 0.405944
51 1 0.0846546 0.326947 0.084831
122 1 0.068334 0.407734 0.157765
157 1 0.504998 0.00858923 0.341643
56 1 0.154633 0.416517 0.0727937
234 1 0.746498 0.0723378 0.493987
62 1 0.579455 0.402782 0.00431283
18 1 0.742153 0.0721915 0.00541454
60 1 0.322516 0.430501 0.0814418
130 1 0.417968 0.418083 0.171684
447 1 0.570006 0.483087 0.0696635
34 1 0.410567 0.239167 0.0114394
3 1 0.0769308 0.00103084 0.0954095
64 1 0.510901 0.39363 0.0888138
134 1 0.591372 0.395689 0.162554
68 1 0.670812 0.417461 0.0791737
266 1 0.07036 0.416304 0.500763
67 1 0.735287 0.319636 0.0825799
72 1 0.834854 0.413419 0.0894662
138 1 0.743283 0.407413 0.169797
443 1 0.430151 0.487295 0.0839817
121 1 0.00784864 0.324107 0.179345
71 1 0.907013 0.321885 0.0660144
52 1 0.0013207 0.421188 0.0674465
142 1 0.906635 0.403962 0.162845
525 1 0.816081 0.492489 0.171909
74 1 0.0861976 0.0882644 0.183121
146 1 0.0895611 0.0908744 0.337598
591 1 0.588904 0.488423 0.420626
210 1 0.763625 0.413475 0.331492
78 1 0.239512 0.0748439 0.148
80 1 0.175817 0.0845608 0.2525
84 1 0.337892 0.0922355 0.257288
103 1 0.252151 0.183884 0.273102
82 1 0.424708 0.0861565 0.169132
521 1 0.659771 0.48448 0.152703
88 1 0.517851 0.079796 0.246497
107 1 0.417712 0.17793 0.256493
105 1 0.308361 0.159389 0.167604
113 1 0.644515 0.148148 0.167299
111 1 0.590754 0.167991 0.25686
92 1 0.644876 0.0778013 0.240014
96 1 0.833663 0.0869425 0.261522
185 1 0.659481 0.163929 0.344015
115 1 0.730868 0.171292 0.256328
585 1 0.327993 0.488374 0.354561
76 1 0.0104248 0.083382 0.259834
166 1 0.907574 0.0955578 0.333308
216 1 0.843411 0.408804 0.413563
99 1 0.093642 0.165388 0.265404
123 1 0.0831744 0.337398 0.248019
169 1 0.010279 0.160117 0.337915
125 1 0.165881 0.333737 0.169572
104 1 0.157719 0.251698 0.261732
102 1 0.260531 0.249897 0.162415
106 1 0.414292 0.246928 0.161471
133 1 0.511468 0.325454 0.170216
129 1 0.333932 0.347865 0.169178
108 1 0.328937 0.25248 0.244525
131 1 0.410091 0.33249 0.245425
110 1 0.58529 0.242497 0.171426
112 1 0.517241 0.258216 0.254468
182 1 0.582578 0.249341 0.346468
205 1 0.51001 0.325554 0.337436
116 1 0.660781 0.241478 0.258415
186 1 0.753853 0.25081 0.323616
120 1 0.837825 0.238528 0.23977
213 1 0.834527 0.328362 0.33893
119 1 0.935056 0.172562 0.248171
100 1 0.0220175 0.243093 0.266378
190 1 0.916666 0.244063 0.330114
124 1 0.988614 0.41262 0.25207
517 1 0.498762 0.493058 0.166507
126 1 0.24472 0.413877 0.171871
128 1 0.169981 0.422439 0.253564
127 1 0.23703 0.329774 0.257867
167 1 0.921336 4.80976e-06 0.397929
207 1 0.596872 0.341543 0.413868
212 1 0.677207 0.420612 0.399692
93 1 0.833455 0.0126401 0.178537
132 1 0.33245 0.43151 0.257457
202 1 0.415756 0.409613 0.333665
136 1 0.504543 0.408276 0.248966
206 1 0.58368 0.419791 0.328574
135 1 0.583999 0.334776 0.252327
140 1 0.673763 0.41429 0.248958
45 1 0.835331 0.146243 0.00752287
141 1 0.827754 0.316548 0.159503
139 1 0.752539 0.334283 0.257863
144 1 0.838861 0.405614 0.236298
261 1 0.827673 0.170184 0.496474
73 1 0.99387 0.00145414 0.16539
143 1 0.920797 0.311757 0.252158
83 1 0.420175 0.0118329 0.250786
33 1 0.318038 0.177211 0.00198578
152 1 0.168022 0.0871457 0.41313
173 1 0.174282 0.1647 0.347626
200 1 0.154684 0.413769 0.429749
23 1 0.915359 0.0121095 0.0883625
7 1 0.247845 0.000968964 0.0785047
150 1 0.250978 0.0839569 0.347893
156 1 0.337111 0.0850176 0.424264
209 1 0.67498 0.338487 0.332647
154 1 0.429345 0.0774315 0.326341
589 1 0.499834 0.497493 0.343652
195 1 0.0721295 0.320924 0.416148
158 1 0.575522 0.0932238 0.338591
181 1 0.502622 0.176378 0.335627
160 1 0.4949 0.0976613 0.408844
164 1 0.669 0.0828638 0.418274
183 1 0.580659 0.177529 0.422066
194 1 0.0758482 0.417817 0.328474
162 1 0.745421 0.0848206 0.321704
168 1 0.832734 0.0955634 0.412941
148 1 0.998308 0.0783295 0.405756
238 1 0.928605 0.0594214 0.478401
203 1 0.422301 0.322641 0.417281
171 1 0.0938833 0.166113 0.412684
170 1 0.0896792 0.241986 0.343689
208 1 0.505007 0.412896 0.41021
204 1 0.331311 0.412348 0.422452
159 1 0.593415 0.012707 0.419805
174 1 0.250336 0.263341 0.356053
175 1 0.2661 0.181861 0.419642
176 1 0.156152 0.265117 0.427776
197 1 0.148879 0.339925 0.334925
178 1 0.41974 0.2631 0.331234
177 1 0.34606 0.162129 0.342355
180 1 0.327492 0.265852 0.428441
179 1 0.417074 0.183217 0.420401
184 1 0.507681 0.25334 0.432425
188 1 0.664491 0.26646 0.425972
189 1 0.823687 0.173364 0.320697
187 1 0.761452 0.175272 0.410445
192 1 0.845929 0.241936 0.419132
199 1 0.236584 0.339899 0.420523
215 1 0.915932 0.33157 0.417669
191 1 0.920023 0.160902 0.416443
172 1 0.99735 0.247403 0.407712
201 1 0.331038 0.337791 0.323357
198 1 0.232307 0.412037 0.336648
193 1 0.00407475 0.334803 0.331103
145 1 0.0101553 0.003587 0.325572
79 1 0.26317 0.0192031 0.238944
519 1 0.587681 0.485402 0.244741
439 1 0.231463 0.487263 0.0848807
581 1 0.16492 0.499551 0.338412
153 1 0.332555 0.00766008 0.3164
91 1 0.754584 0.00206317 0.25392
449 1 0.656139 0.493629 -0.000997923
649 1 0.994601 0.498987 0.499824
523 1 0.745769 0.496923 0.249773
149 1 0.167336 0.0121428 0.339108
665 1 0.673223 0.495518 0.501181
245 1 0.153393 0.177996 0.495849
237 1 0.835523 0.00305002 0.492629
257 1 0.673446 0.166522 0.481207
25 1 0.991504 0.166653 0.0131069
218 1 0.0827598 0.0724554 0.49827
222 1 0.23194 0.101018 0.492051
66 1 0.750037 0.406983 0.0013995
53 1 0.153867 0.339077 0.00508913
241 1 0.997088 0.165948 0.483638
253 1 0.496777 0.156541 0.496751
37 1 0.499936 0.160192 0.00475734
6 1 0.226269 0.0933827 0.0100648
2 1 0.0898187 0.0974843 0.00399369
270 1 0.241943 0.409763 0.500379
58 1 0.429709 0.420191 0.00491246
220 1 0.997792 0.0738394 0.573409
224 1 0.157942 0.0885964 0.575758
254 1 0.587315 0.239756 0.513136
243 1 0.082946 0.154912 0.583066
290 1 0.0793209 0.0909888 0.682453
228 1 0.326741 0.0779888 0.600297
289 1 0.00451595 0.0121359 0.670402
453 1 0.832138 0.486534 0.996683
373 1 0.500738 0.00251802 0.840953
9 1 0.332407 0.00905028 0.990463
251 1 0.42002 0.174164 0.580821
41 1 0.66486 0.154981 0.994722
223 1 0.252421 0.00208575 0.580522
232 1 0.504535 0.0808731 0.591133
255 1 0.600333 0.167207 0.591706
278 1 0.582899 0.419849 0.504789
733 1 0.487891 0.499015 0.66374
236 1 0.685263 0.091836 0.589309
306 1 0.749486 0.0833773 0.67009
259 1 0.760717 0.167047 0.585805
651 1 0.0854782 0.496249 0.571647
240 1 0.824945 0.0830252 0.580394
263 1 0.913441 0.142937 0.560746
226 1 0.418696 0.0748288 0.507338
293 1 0.168469 0.0129667 0.672141
314 1 0.0648571 0.245823 0.668413
248 1 0.147686 0.246202 0.588423
313 1 0.995463 0.162711 0.654674
247 1 0.244503 0.14689 0.585395
271 1 0.234712 0.334531 0.584375
252 1 0.318931 0.245019 0.571431
311 1 0.914339 0.00559312 0.750431
322 1 0.432317 0.237233 0.674681
286 1 0.911591 0.417774 0.506903
281 1 0.658908 0.340031 0.504175
256 1 0.506705 0.247242 0.595795
279 1 0.5856 0.324858 0.576716
349 1 0.493127 0.333674 0.666258
260 1 0.67726 0.257447 0.585502
49 1 0.0193975 0.342947 0.986397
38 1 0.587321 0.238681 0.993814
269 1 0.142034 0.337316 0.515101
244 1 0.984322 0.245182 0.586575
264 1 0.825117 0.246338 0.57976
334 1 0.898618 0.244359 0.655212
70 1 0.92922 0.412375 0.985382
249 1 0.329005 0.160217 0.504379
381 1 0.844055 0.00622781 0.842014
341 1 0.154404 0.320413 0.664768
267 1 0.06939 0.331483 0.592274
338 1 0.075567 0.416443 0.665888
272 1 0.160809 0.424891 0.58998
14 1 0.585247 0.0823954 0.999171
431 1 0.915736 0.326609 0.920567
342 1 0.239879 0.40368 0.667828
262 1 0.901656 0.250397 0.504001
275 1 0.418881 0.333657 0.588303
250 1 0.407405 0.260507 0.505553
276 1 0.32514 0.417704 0.590315
280 1 0.48085 0.422697 0.582914
50 1 0.0868544 0.423697 0.981398
239 1 0.912316 0.000619528 0.58992
10 1 0.413192 0.0959698 0.994004
350 1 0.577494 0.402263 0.654697
361 1 0.0100431 0.00806159 0.838088
815 1 0.916051 0.495416 0.924132
284 1 0.673484 0.413852 0.592736
283 1 0.75328 0.338842 0.585426
288 1 0.840297 0.423283 0.588834
287 1 0.908475 0.32767 0.585185
268 1 0.992322 0.411183 0.580737
669 1 0.839634 0.487651 0.502511
29 1 0.163041 0.181411 0.996239
426 1 0.76254 0.42553 0.834305
371 1 0.407366 0.0148617 0.911445
296 1 0.15926 0.0916637 0.75419
292 1 0.999682 0.086423 0.751449
432 1 0.829949 0.407145 0.918684
294 1 0.23577 0.0856923 0.669791
300 1 0.339967 0.0904248 0.748304
273 1 0.321604 0.34355 0.505158
325 1 0.51215 0.158805 0.674119
298 1 0.432031 0.0780766 0.668642
304 1 0.514177 0.0776196 0.757111
302 1 0.598048 0.0926234 0.664555
441 1 0.333461 0.487307 0.994511
329 1 0.682016 0.168263 0.672738
327 1 0.585718 0.171152 0.751122
397 1 0.513645 0.172311 0.835936
308 1 0.665941 0.0958315 0.750769
378 1 0.732659 0.0756771 0.824774
421 1 0.480852 0.340756 0.831919
396 1 0.336032 0.259231 0.912916
310 1 0.905115 0.0859379 0.680639
312 1 0.827732 0.0721145 0.763449
405 1 0.832718 0.148622 0.835251
394 1 0.416282 0.252784 0.823787
65 1 0.663686 0.335468 0.996452
317 1 0.15677 0.163854 0.668618
315 1 0.0663781 0.176261 0.751328
316 1 0.984042 0.240606 0.755314
320 1 0.165709 0.246446 0.741964
386 1 0.082922 0.245023 0.83435
321 1 0.33867 0.166861 0.662353
319 1 0.256042 0.177277 0.746745
318 1 0.232133 0.235995 0.648708
324 1 0.342712 0.245373 0.746232
343 1 0.251538 0.315874 0.742058
323 1 0.440043 0.166717 0.749404
347 1 0.414793 0.344955 0.73594
417 1 0.343081 0.342234 0.824151
326 1 0.580804 0.242152 0.671568
353 1 0.655128 0.342483 0.68478
328 1 0.507729 0.252208 0.740816
332 1 0.660862 0.251553 0.742424
351 1 0.576011 0.351212 0.760461
330 1 0.759321 0.241105 0.671361
331 1 0.757326 0.168965 0.756047
355 1 0.759136 0.326728 0.745184
336 1 0.846161 0.251362 0.752522
333 1 0.829414 0.15725 0.669069
335 1 0.923584 0.166878 0.756271
406 1 0.909299 0.253651 0.838321
412 1 0.00401351 0.42117 0.909943
339 1 0.0758407 0.325875 0.742207
340 1 -0.00132212 0.408837 0.759434
410 1 0.0898789 0.425981 0.828475
344 1 0.155552 0.400568 0.739267
409 1 0.990948 0.33493 0.832319
427 1 0.740913 0.338261 0.91849
414 1 0.246866 0.406015 0.827744
413 1 0.16045 0.320714 0.821219
418 1 0.413319 0.422864 0.819242
346 1 0.407088 0.425381 0.660087
345 1 0.319162 0.327416 0.652888
348 1 0.32446 0.421965 0.743075
352 1 0.508345 0.420804 0.738991
422 1 0.58157 0.428995 0.831231
357 1 0.837496 0.332329 0.670835
354 1 0.741204 0.408596 0.672399
356 1 0.663089 0.419529 0.751123
360 1 0.824371 0.405622 0.75231
295 1 0.260388 0.0122457 0.746193
358 1 0.915471 0.424342 0.672507
337 1 0.987512 0.33668 0.661443
359 1 0.916675 0.337293 0.751366
430 1 0.919685 0.413362 0.836294
369 1 0.341325 0.00630536 0.832675
399 1 0.584016 0.157916 0.903724
362 1 0.0822077 0.0912255 0.829996
364 1 0.0106007 0.0849969 0.912239
389 1 0.175356 0.175044 0.825467
368 1 0.172987 0.0962594 0.90107
404 1 0.670054 0.241773 0.910513
388 1 0.991776 0.260394 0.919882
366 1 0.264302 0.10431 0.815707
372 1 0.32238 0.0949544 0.902665
428 1 0.659875 0.417036 0.905279
425 1 0.662534 0.33175 0.82419
370 1 0.428862 0.081034 0.829089
395 1 0.417656 0.176447 0.921396
376 1 0.500257 0.0855903 0.914284
407 1 0.9131 0.153949 0.908292
230 1 0.587796 0.0874831 0.506363
423 1 0.582774 0.34955 0.912377
374 1 0.581639 0.0753834 0.837246
380 1 0.660039 0.0664197 0.912462
424 1 0.497316 0.416272 0.92089
400 1 0.512246 0.247523 0.913606
420 1 0.348524 0.417187 0.905859
401 1 0.665084 0.170665 0.832028
403 1 0.751131 0.155666 0.904237
363 1 0.0949715 0.00547321 0.913198
398 1 0.583474 0.258062 0.818724
408 1 0.80906 0.256016 0.909961
384 1 0.831466 0.072362 0.921054
382 1 0.932341 0.0856581 0.836726
416 1 0.160722 0.391963 0.903732
387 1 0.0861104 0.170072 0.904863
385 1 0.994626 0.173795 0.84347
411 1 0.0784563 0.326146 0.89987
402 1 0.737458 0.249328 0.823189
390 1 0.260352 0.256099 0.842106
392 1 0.175895 0.254381 0.917026
415 1 0.25817 0.344476 0.919513
391 1 0.249818 0.172555 0.914367
429 1 0.827565 0.330996 0.833323
419 1 0.410997 0.334554 0.916981
393 1 0.339935 0.180316 0.830236
813 1 0.843554 0.49 0.843839
274 1 0.410158 0.419363 0.505482
367 1 0.245289 0.0094604 0.892009
231 1 0.588091 0.0124156 0.592529
807 1 0.57821 0.494971 0.929946
383 1 0.924602 0.0095953 0.911819
799 1 0.242073 0.498879 0.915168
667 1 0.75043 0.500181 0.57835
303 1 0.591603 0.00887082 0.749542
277 1 0.497232 0.330465 0.505754
42 1 0.740823 0.238016 0.997715
26 1 0.0744089 0.236516 0.995059
54 1 0.247685 0.417439 0.988275
221 1 0.183976 0.00445999 0.500279
69 1 0.826844 0.327131 0.994594
282 1 0.739208 0.414215 0.512929
5 1 0.167087 0.00201095 0.996456
46 1 0.903997 0.237211 0.99696
30 1 0.243463 0.263166 0.997345
265 1 0.995899 0.326682 0.512317
242 1 0.0729057 0.246555 0.506906
233 1 0.678488 0.00323261 0.518293
61 1 0.492903 0.331099 0.998923
246 1 0.235622 0.245324 0.505935
285 1 0.828871 0.32793 0.50359
57 1 0.339758 0.350815 0.994967
440 1 0.158163 0.581603 0.0795728
459 1 0.0808598 0.672366 0.0794626
529 1 0.997431 0.67674 0.153494
506 1 0.0899673 0.591333 0.17587
533 1 0.18625 0.65441 0.175904
19 1 0.756632 0.993698 0.092807
463 1 0.246724 0.653153 0.0722983
163 1 0.735296 0.991667 0.413932
444 1 0.341955 0.580472 0.0897042
514 1 0.419889 0.569678 0.171008
448 1 0.49669 0.577321 0.0897757
537 1 0.339366 0.652898 0.166045
15 1 0.57681 0.991917 0.0849646
471 1 0.572532 0.668921 0.094594
518 1 0.5893 0.569749 0.176993
452 1 0.665215 0.580125 0.0889818
545 1 0.673999 0.673129 0.165903
490 1 0.418853 0.905037 0.0119452
456 1 0.832228 0.574968 0.0796505
475 1 0.75005 0.664064 0.0826535
522 1 0.747724 0.580336 0.164169
436 1 0.00129324 0.590134 0.0973328
479 1 0.916715 0.660782 0.0834771
526 1 0.905494 0.561249 0.16414
464 1 0.16329 0.752958 0.091084
557 1 0.166446 0.835326 0.163564
487 1 0.252944 0.811987 0.0843619
534 1 0.269612 0.733486 0.163969
450 1 0.752737 0.579695 0.0110555
89 1 0.670001 0.993325 0.16485
541 1 0.496481 0.663682 0.167585
468 1 0.338388 0.733248 0.0865539
467 1 0.424965 0.681425 0.0864334
538 1 0.420475 0.737467 0.181623
472 1 0.50546 0.752243 0.0833013
542 1 0.589646 0.747644 0.168665
476 1 0.654552 0.753618 0.0784105
546 1 0.768136 0.740622 0.165524
499 1 0.744772 0.814782 0.0889689
549 1 0.832427 0.644927 0.161995
155 1 0.416661 0.997601 0.411659
480 1 0.823689 0.754226 0.0647347
460 1 0.00181758 0.748538 0.0752119
553 1 0.984957 0.837671 0.159138
573 1 0.839837 0.825769 0.147571
550 1 0.921209 0.756998 0.15273
483 1 0.0753394 0.843124 0.0861444
554 1 0.0612602 0.91814 0.176717
482 1 0.0855886 0.915064 0.00555414
488 1 0.155058 0.917509 0.09003
492 1 0.333973 0.901284 0.0766147
493 1 0.495802 0.832973 0.00459051
486 1 0.240916 0.915297 0.00855993
682 1 0.408697 0.739263 0.483961
491 1 0.418018 0.815994 0.101757
562 1 0.408688 0.91364 0.174132
648 1 0.834705 0.922259 0.417894
513 1 0.329153 0.501745 0.16823
495 1 0.589284 0.838817 0.105696
496 1 0.484217 0.902214 0.0954506
565 1 0.491744 0.826863 0.166971
566 1 0.599717 0.924119 0.159453
701 1 0.174784 0.835901 0.481955
569 1 0.681497 0.824135 0.18452
500 1 0.675327 0.917519 0.0890657
570 1 0.768617 0.907224 0.155229
446 1 0.582333 0.587399 0.0132392
504 1 0.853934 0.909929 0.0822561
484 1 0.989301 0.925951 0.0815996
503 1 0.923604 0.836845 0.0617649
531 1 0.0784558 0.680986 0.231325
578 1 0.0782357 0.586169 0.343855
510 1 0.252177 0.566998 0.159461
512 1 0.17363 0.583502 0.255621
605 1 0.158126 0.663654 0.334465
582 1 0.25976 0.569478 0.335252
647 1 0.925413 0.84468 0.423143
516 1 0.334445 0.571193 0.256667
520 1 0.501402 0.575911 0.241026
586 1 0.418295 0.577277 0.347382
524 1 0.664087 0.579473 0.245376
590 1 0.580126 0.55543 0.319922
543 1 0.575766 0.662819 0.25376
599 1 0.907979 0.519642 0.42624
497 1 0.666935 0.84646 0.00548698
594 1 0.755679 0.581878 0.341381
528 1 0.834744 0.58129 0.258486
617 1 0.673501 0.653286 0.32709
508 1 0.997749 0.575199 0.251227
601 1 0.00326496 0.660131 0.317359
551 1 0.91471 0.657659 0.229895
621 1 0.844184 0.666998 0.331309
598 1 0.917768 0.592595 0.335609
530 1 0.0860655 0.767438 0.176013
536 1 0.180296 0.744223 0.252622
532 1 -0.000134089 0.760098 0.228545
629 1 0.182194 0.838104 0.331667
535 1 0.268365 0.654651 0.245676
559 1 0.261714 0.831453 0.253579
606 1 0.265536 0.741412 0.317729
540 1 0.339225 0.756843 0.2467
539 1 0.40616 0.659083 0.256355
561 1 0.333841 0.843228 0.166944
610 1 0.415574 0.750384 0.345381
613 1 0.504636 0.651262 0.332718
544 1 0.509683 0.74448 0.261253
614 1 0.588513 0.758294 0.321331
548 1 0.678324 0.733808 0.261628
547 1 0.75108 0.662275 0.234959
571 1 0.783485 0.826118 0.248877
618 1 0.767511 0.745962 0.331364
552 1 0.849615 0.732995 0.249373
575 1 0.894417 0.832999 0.231989
622 1 0.927078 0.733553 0.331842
147 1 0.0928544 0.994783 0.408661
625 1 0.993229 0.830207 0.336383
555 1 0.0918089 0.835987 0.251995
556 1 0.981548 0.907836 0.254588
560 1 0.174967 0.903359 0.252735
433 1 0.992803 0.512423 0.0036361
558 1 0.251982 0.912479 0.156327
507 1 0.0860734 0.501211 0.242379
564 1 0.33414 0.921756 0.254046
630 1 0.2605 0.928733 0.336219
698 1 0.0985594 0.918416 0.497492
563 1 0.421447 0.825893 0.253958
568 1 0.485832 0.925684 0.246856
509 1 0.165738 0.50481 0.159069
686 1 0.582625 0.746624 0.482489
567 1 0.579889 0.843935 0.234516
637 1 0.489177 0.834371 0.340629
434 1 0.0694736 0.586612 0.000232658
639 1 0.592209 0.826298 0.412082
87 1 0.578772 0.996874 0.234856
572 1 0.677327 0.925203 0.250087
638 1 0.586025 0.912875 0.319636
574 1 0.905203 0.92312 0.168532
576 1 0.836575 0.924141 0.259388
646 1 0.908705 0.916106 0.330791
603 1 0.0831666 0.67273 0.409559
77 1 0.167044 0.983654 0.174595
662 1 0.586618 0.579306 0.490815
494 1 0.561356 0.920736 0.0175419
584 1 0.15177 0.590001 0.425504
607 1 0.249743 0.653493 0.415038
85 1 0.500661 0.988643 0.152877
588 1 0.328535 0.576715 0.410385
641 1 0.670363 0.833742 0.318099
644 1 0.659823 0.910475 0.429619
592 1 0.505855 0.575515 0.416335
596 1 0.660954 0.58541 0.415592
640 1 0.499102 0.916394 0.412544
635 1 0.415988 0.838493 0.425883
485 1 0.164866 0.83558 0.0150144
498 1 0.76057 0.915947 0.0172008
619 1 0.741735 0.675283 0.40925
685 1 0.502516 0.668765 0.487315
580 1 0.995143 0.587533 0.423042
623 1 0.917705 0.660435 0.428769
600 1 0.826394 0.594364 0.427298
217 1 0.999249 0.987674 0.490517
602 1 0.0766253 0.750393 0.319136
604 1 0.00210041 0.766487 0.421149
608 1 0.174928 0.738964 0.415468
442 1 0.417213 0.57722 0.00984519
609 1 0.333025 0.664444 0.334592
681 1 0.330687 0.658104 0.490588
611 1 0.426994 0.665155 0.407074
612 1 0.325561 0.739114 0.413924
95 1 0.91577 0.996693 0.2552
151 1 0.256737 0.998937 0.413934
511 1 0.254223 0.502556 0.244378
616 1 0.50042 0.751645 0.411053
615 1 0.588234 0.660876 0.410509
633 1 0.339447 0.839989 0.336579
643 1 0.743649 0.841353 0.420106
620 1 0.674902 0.756876 0.40717
462 1 0.254468 0.736151 0.00512748
645 1 0.85536 0.823308 0.329961
624 1 0.843435 0.750547 0.412612
628 1 0.00741008 0.923006 0.408258
626 1 0.0724516 0.914425 0.323685
632 1 0.177798 0.931449 0.404441
627 1 0.089988 0.840695 0.411302
435 1 0.0721957 0.501807 0.0888261
636 1 0.341458 0.923645 0.425601
631 1 0.265301 0.840227 0.405281
634 1 0.420552 0.917071 0.333912
642 1 0.763873 0.903171 0.337747
455 1 0.908761 0.501387 0.0744148
161 1 0.666062 1.0004 0.329303
658 1 0.424911 0.586569 0.481822
597 1 0.831398 0.502787 0.32646
11 1 0.418943 0.987726 0.0847508
577 1 0.985949 0.500445 0.337699
515 1 0.428358 0.502657 0.264132
451 1 0.752895 0.5029 0.0778322
653 1 0.161332 0.49962 0.494902
81 1 0.33993 0.998131 0.165263
438 1 0.256036 0.558526 0.0112473
714 1 0.754699 0.917281 0.491771
709 1 0.529081 0.835169 0.499314
677 1 0.156035 0.667158 0.496843
458 1 0.081766 0.759579 0.0100128
469 1 0.495785 0.671893 0.0136314
654 1 0.240263 0.568927 0.475689
478 1 0.908036 0.733178 0.00194308
477 1 0.833445 0.652363 0.0110686
722 1 0.0927259 0.592681 0.662521
801 1 0.32041 0.511745 0.819564
718 1 0.904471 0.922731 0.501318
377 1 0.648791 0.989975 0.837393
656 1 0.158809 0.582858 0.561142
660 1 0.339425 0.594884 0.580586
437 1 0.160959 0.505622 1.00094
737 1 0.665668 0.501816 0.665759
683 1 0.421635 0.677373 0.574367
225 1 0.338805 0.996945 0.506174
664 1 0.503307 0.572289 0.563083
668 1 0.664051 0.586502 0.577705
738 1 0.749322 0.584844 0.665964
721 1 0.00722837 0.502559 0.662683
652 1 0.994786 0.605217 0.594366
672 1 0.826608 0.591341 0.580213
742 1 0.907338 0.58333 0.670933
379 1 0.74845 0.998304 0.908437
745 1 0.989606 0.680193 0.6687
219 1 0.0817215 0.998608 0.583828
844 1 0.0142756 0.932879 0.919349
675 1 0.0885089 0.659471 0.575362
699 1 0.0822904 0.843953 0.567189
680 1 0.166876 0.747192 0.577461
676 1 1.00016 0.744752 0.581053
769 1 0.018529 0.828536 0.671639
746 1 0.0846492 0.749573 0.653412
375 1 0.577906 0.996101 0.929766
679 1 0.250586 0.656015 0.578243
703 1 0.240075 0.83736 0.592648
684 1 0.325555 0.740644 0.572153
750 1 0.254353 0.744484 0.649148
809 1 0.663023 0.510833 0.827897
735 1 0.588936 0.510514 0.75249
707 1 0.415095 0.813204 0.560011
474 1 0.749449 0.764165 0.989352
754 1 0.410416 0.762885 0.667268
687 1 0.585893 0.6602 0.584898
688 1 0.509114 0.749944 0.568915
692 1 0.649765 0.753297 0.573169
711 1 0.585115 0.825713 0.598935
758 1 0.592014 0.744068 0.666019
717 1 0.842983 0.829751 0.50354
691 1 0.754722 0.682418 0.594653
696 1 0.836631 0.755407 0.606494
761 1 0.666064 0.661079 0.660099
695 1 0.905633 0.667603 0.585833
766 1 0.922622 0.761392 0.68048
719 1 0.932662 0.827042 0.59667
704 1 0.170598 0.922123 0.570402
700 1 0.000668785 0.919729 0.590972
708 1 0.334652 0.915321 0.589715
501 1 0.832626 0.837774 0.988277
862 1 0.919646 0.92392 0.846294
803 1 0.414646 0.509006 0.924153
778 1 0.417688 0.91713 0.661161
858 1 0.76376 0.921541 0.834576
712 1 0.500971 0.913627 0.580354
716 1 0.677246 0.91161 0.584581
864 1 0.834119 0.922563 0.917031
693 1 0.82331 0.676887 0.504449
859 1 0.743357 0.847791 0.913983
715 1 0.745586 0.836279 0.579633
811 1 0.742384 0.508684 0.930532
720 1 0.835463 0.909766 0.579354
789 1 0.841986 0.835699 0.674932
790 1 0.907459 0.920582 0.669242
729 1 0.351573 0.516516 0.657381
747 1 0.0801832 0.671244 0.738912
794 1 0.0837776 0.582903 0.835706
728 1 0.155623 0.594825 0.753082
817 1 0.994783 0.671017 0.816091
821 1 0.158927 0.669059 0.845383
726 1 0.253754 0.609019 0.692925
227 1 0.415023 0.999726 0.587043
749 1 0.174788 0.668783 0.645665
751 1 0.254885 0.691989 0.751189
753 1 0.341644 0.674363 0.66389
659 1 0.416265 0.512432 0.579854
732 1 0.337551 0.585571 0.745021
730 1 0.432352 0.601469 0.658054
736 1 0.488034 0.593553 0.759153
757 1 0.503924 0.685923 0.674727
466 1 0.41337 0.747555 0.989198
502 1 0.926422 0.932362 0.995393
678 1 0.240523 0.755407 0.503404
731 1 0.415535 0.508102 0.750252
734 1 0.56402 0.584686 0.665002
740 1 0.667583 0.579034 0.745208
671 1 0.926274 0.5095 0.590855
833 1 0.649819 0.651274 0.830469
806 1 0.573244 0.573735 0.84997
694 1 0.91572 0.745835 0.506426
666 1 0.742722 0.581124 0.500955
744 1 0.83679 0.57785 0.751734
854 1 0.570585 0.922008 0.841978
724 1 0.991797 0.582901 0.748601
814 1 0.917818 0.5942 0.83232
767 1 0.921927 0.669676 0.746023
771 1 0.0869042 0.86077 0.756148
748 1 0.00121393 0.762804 0.749205
752 1 0.16055 0.739348 0.744308
775 1 0.245747 0.817394 0.730366
845 1 0.168341 0.821801 0.828374
777 1 0.338357 0.84176 0.671121
756 1 0.338491 0.756981 0.762632
825 1 0.336198 0.666102 0.832285
755 1 0.40972 0.67216 0.75434
760 1 0.490009 0.76329 0.750175
781 1 0.500652 0.841133 0.662556
829 1 0.504814 0.667283 0.82706
759 1 0.591334 0.655487 0.745002
857 1 0.667383 0.844598 0.837788
783 1 0.568963 0.832338 0.750951
764 1 0.653317 0.743728 0.761905
765 1 0.828948 0.65917 0.678969
762 1 0.751062 0.746867 0.68624
763 1 0.749338 0.665705 0.763878
834 1 0.738432 0.752905 0.837575
768 1 0.826487 0.743703 0.766466
837 1 0.823241 0.673662 0.842673
770 1 0.0936601 0.921443 0.657873
772 1 0.99446 0.933952 0.743801
776 1 0.184617 0.917838 0.730467
773 1 0.153377 0.830062 0.669454
774 1 0.267092 0.934385 0.673754
780 1 0.34053 0.925695 0.756818
779 1 0.406533 0.845717 0.752897
797 1 0.160367 0.504174 0.830306
853 1 0.496978 0.846869 0.838966
784 1 0.510184 0.929175 0.744899
782 1 0.577815 0.919333 0.660733
785 1 0.656651 0.835499 0.677515
788 1 0.641333 0.920395 0.758047
786 1 0.744191 0.914867 0.678955
787 1 0.7631 0.837373 0.762978
861 1 0.84371 0.842566 0.83871
791 1 0.939697 0.842233 0.757748
792 1 0.841977 0.919934 0.756761
860 1 0.657607 0.924893 0.92172
819 1 0.0809771 0.67341 0.923682
798 1 0.2429 0.590328 0.832611
800 1 0.171774 0.574501 0.920967
804 1 0.327092 0.590084 0.905237
655 1 0.238023 0.511121 0.61043
481 1 0.00419551 0.837746 0.990071
727 1 0.23792 0.501474 0.733475
802 1 0.411027 0.576314 0.833467
808 1 0.497547 0.593215 0.923395
812 1 0.659834 0.57989 0.937386
851 1 0.414359 0.841613 0.916516
795 1 0.0808338 0.515158 0.915996
810 1 0.761739 0.580274 0.840773
850 1 0.422847 0.918652 0.826499
670 1 0.909241 0.584748 0.506378
796 1 0.00467811 0.600035 0.913239
816 1 0.828962 0.565435 0.923166
839 1 0.902912 0.67232 0.904665
309 1 0.83167 0.988622 0.685493
489 1 0.340628 0.836395 0.987315
841 1 0.00933172 0.842635 0.845084
13 1 0.478703 1.00063 0.997564
818 1 0.0743557 0.755506 0.829381
843 1 0.102103 0.829617 0.92007
824 1 0.172145 0.755078 0.929498
820 1 0.994618 0.742292 0.910953
235 1 0.771867 0.986209 0.589186
822 1 0.246441 0.749431 0.84094
823 1 0.257853 0.668634 0.913144
828 1 0.336356 0.736241 0.915061
723 1 0.0788237 0.513824 0.752538
827 1 0.426192 0.674789 0.910456
826 1 0.417579 0.7503 0.828167
832 1 0.507417 0.75356 0.914906
461 1 0.171967 0.648726 0.998602
855 1 0.587619 0.83993 0.934736
831 1 0.58085 0.665473 0.931486
830 1 0.584952 0.751445 0.833351
836 1 0.661759 0.760919 0.907663
847 1 0.251499 0.840156 0.919914
849 1 0.32535 0.835885 0.841128
848 1 0.176807 0.926591 0.917619
835 1 0.747203 0.659289 0.912784
856 1 0.504626 0.920613 0.920732
852 1 0.315367 0.923242 0.928727
863 1 0.919075 0.847083 0.932108
307 1 0.752384 0.994978 0.757315
838 1 0.923386 0.764448 0.831784
840 1 0.830105 0.756962 0.911724
842 1 0.0924515 0.918427 0.846667
846 1 0.248114 0.91273 0.823825
663 1 0.591002 0.5101 0.578088
299 1 0.420216 0.995706 0.745258
365 1 0.171435 0.996855 0.815074
650 1 0.0739244 0.591655 0.501615
465 1 0.33185 0.65376 0.998333
739 1 0.756349 0.500921 0.732378
743 1 0.915907 0.503204 0.742497
741 1 0.836268 0.505209 0.662036
297 1 0.343763 1.00051 0.67498
305 1 0.665486 0.993317 0.658136
793 1 0.0036599 0.507255 0.833965
291 1 0.0885124 0.980686 0.739794
805 1 0.484238 0.503911 0.837019
301 1 0.502187 0.987909 0.653127
725 1 0.148857 0.502558 0.669395
705 1 0.319722 0.837254 0.506068
706 1 0.418912 0.91696 0.514058
690 1 0.741826 0.766255 0.501333
673 1 0.00479257 0.665274 0.504098
17 1 0.675938 0.99753 0.99541
454 1 0.928663 0.592945 0.996193
445 1 0.491914 0.503804 0.996208
470 1 0.584035 0.747468 0.997247
697 1 0.000582803 0.843424 0.500217
702 1 0.252659 0.913986 0.501946
674 1 0.0696667 0.758223 0.502041
689 1 0.672037 0.660726 0.502072
710 1 0.592553 0.938071 0.519514
713 1 0.663918 0.835486 0.503826
473 1 0.681682 0.672721 0.99514
457 1 0.00369377 0.680173 0.995703
229 1 0.510343 0.991918 0.500874
657 1 0.329013 0.502519 0.504793
