ITEM: TIMESTEP
2300
ITEM: NUMBER OF ATOMS
864
ITEM: BOX BOUNDS pp pp pp
0.0000000000000000e+00 3.1559999999999999e+01
0.0000000000000000e+00 3.1559999999999999e+01
0.0000000000000000e+00 3.1559999999999999e+01
ITEM: ATOMS id type xs ys zs
8 1 0.15036 0.0785185 0.091865
74 1 0.0743753 0.0761868 0.166399
234 1 0.751516 0.0876626 0.51453
13 1 0.497884 0.00361123 -0.00610003
443 1 0.404272 0.503979 0.0781331
31 1 0.268521 0.160775 0.0764235
78 1 0.243364 0.0835708 0.167153
214 1 0.920453 0.414468 0.332998
505 1 0.00662881 0.506642 0.186014
12 1 0.338772 0.0657758 0.0764477
35 1 0.407713 0.177758 0.0753857
16 1 0.490592 0.107093 0.066919
109 1 0.485868 0.165062 0.153445
42 1 0.767683 0.260535 0.00726442
577 1 0.0048334 0.498241 0.349672
257 1 0.681544 0.176714 0.499896
20 1 0.66133 0.0885937 0.0726916
39 1 0.572348 0.177235 0.092137
30 1 0.238723 0.260525 0.00422722
155 1 0.429024 0.00540718 0.419114
90 1 0.768613 0.084567 0.163953
15 1 0.5788 0.000937282 0.0820073
229 1 0.516589 0.00925356 0.503181
274 1 0.422017 0.416448 0.503051
4 1 0.000865701 0.0732506 0.0728956
24 1 0.848255 0.0785425 0.0762468
47 1 0.9279 0.156087 0.0679937
54 1 0.239311 0.41888 -0.00409301
27 1 0.0829845 0.155938 0.0835381
28 1 0.997091 0.244576 0.0722975
32 1 0.149791 0.249341 0.078794
245 1 0.165033 0.169606 0.50564
45 1 0.827161 0.164911 -0.00175877
81 1 0.332529 -0.00692257 0.179786
515 1 0.4102 0.513613 0.246462
36 1 0.334656 0.257383 0.0763055
40 1 0.493607 0.258868 0.08375
218 1 0.0769326 0.0741121 0.507053
106 1 0.424232 0.26099 0.168147
110 1 0.581905 0.255012 0.163451
113 1 0.667996 0.169851 0.17117
509 1 0.176637 0.489764 0.178251
43 1 0.73542 0.172148 0.082307
117 1 0.838048 0.164134 0.164595
44 1 0.649406 0.249295 0.0893439
141 1 0.853648 0.323766 0.166488
114 1 0.754956 0.23886 0.157719
85 1 0.500821 0.000785155 0.161383
48 1 0.850038 0.238405 0.0796562
118 1 0.922981 0.243346 0.163822
71 1 0.944589 0.328264 0.0944245
14 1 0.578843 0.0904908 0.00296399
217 1 0.987032 -5.65403e-05 0.505699
51 1 0.0851171 0.337973 0.0990994
56 1 0.179447 0.416966 0.0882756
52 1 0.00671507 0.425189 0.108681
151 1 0.266656 -0.00820887 0.418904
599 1 0.915623 0.485938 0.420769
19 1 0.754588 -0.00229873 0.0862134
55 1 0.235075 0.331926 0.0925144
213 1 0.845739 0.330906 0.338972
157 1 0.505244 0.025694 0.34378
225 1 0.332616 0.00916184 0.497692
66 1 0.75864 0.39488 0.00254835
585 1 0.327672 0.498957 0.347082
59 1 0.407088 0.348316 0.0766626
60 1 0.31385 0.409627 0.0801922
130 1 0.408278 0.406779 0.177701
129 1 0.327866 0.314546 0.163434
216 1 0.832735 0.421649 0.40873
133 1 0.494496 0.334551 0.178477
211 1 0.758389 0.329259 0.420626
63 1 0.57756 0.336259 0.0888094
64 1 0.494055 0.423702 0.071363
134 1 0.581705 0.422179 0.162516
67 1 0.740097 0.330343 0.095214
68 1 0.658264 0.412806 0.0766707
210 1 0.765463 0.414481 0.325809
511 1 0.25808 0.508052 0.262107
72 1 0.848568 0.413138 0.0869611
579 1 0.0903988 0.503952 0.41565
89 1 0.669893 -0.0146011 0.17646
146 1 0.0830874 0.0815711 0.339767
173 1 0.169014 0.170132 0.331608
206 1 0.577046 0.404799 0.32684
207 1 0.581309 0.32515 0.41856
80 1 0.16932 0.0907153 0.246041
150 1 0.235599 0.0846 0.330173
82 1 0.414947 0.073409 0.154921
105 1 0.340066 0.168792 0.160942
84 1 0.327419 0.0944912 0.251661
86 1 0.568011 0.0867043 0.144591
88 1 0.489569 0.0974325 0.242315
158 1 0.588001 0.0941395 0.325196
212 1 0.67048 0.391564 0.406119
92 1 0.670317 0.0847846 0.243977
185 1 0.666735 0.168799 0.325879
96 1 0.839896 0.083188 0.252505
97 1 1.00783 0.162357 0.159077
76 1 1.00295 0.0765636 0.244895
94 1 0.931676 0.0707856 0.155695
169 1 1.0115 0.159878 0.335037
166 1 0.913634 0.0825081 0.323264
242 1 0.0867394 0.245858 0.514506
98 1 0.0819769 0.241076 0.165851
99 1 0.0722366 0.15991 0.242299
104 1 0.151855 0.247313 0.250413
101 1 0.151685 0.167335 0.16281
102 1 0.244849 0.227008 0.152883
103 1 0.238018 0.173282 0.254868
125 1 0.167579 0.311748 0.159465
108 1 0.317963 0.24753 0.24432
107 1 0.421162 0.177804 0.24821
131 1 0.397224 0.321938 0.252857
205 1 0.490629 0.327679 0.337053
111 1 0.569932 0.178306 0.250416
112 1 0.493073 0.26117 0.2549
135 1 0.588349 0.331194 0.239604
182 1 0.575543 0.256665 0.326047
115 1 0.763424 0.161018 0.250439
116 1 0.664463 0.251427 0.247275
120 1 0.826674 0.252702 0.250723
189 1 0.839871 0.16512 0.347692
119 1 0.918738 0.153689 0.245765
100 1 0.00702904 0.239184 0.246282
143 1 0.934633 0.3294 0.25637
190 1 0.927416 0.237297 0.334488
193 1 -0.00142313 0.332464 0.341241
121 1 0.00377085 0.342013 0.179951
123 1 0.073287 0.341693 0.265735
122 1 0.0914916 0.406441 0.187553
194 1 0.0819268 0.419507 0.347212
277 1 0.50528 0.317083 0.495591
127 1 0.232824 0.319883 0.24062
126 1 0.258251 0.41319 0.167061
128 1 0.178057 0.414276 0.258289
167 1 0.927397 0.00129414 0.410788
132 1 0.320705 0.408506 0.254701
209 1 0.665053 0.325733 0.333283
136 1 0.49812 0.418865 0.246972
137 1 0.66366 0.34051 0.161399
138 1 0.744391 0.423465 0.163863
139 1 0.74556 0.328326 0.247175
140 1 0.674767 0.416214 0.247252
144 1 0.836142 0.418514 0.252772
7 1 0.253239 0.00510806 0.0933022
215 1 0.916571 0.314275 0.425756
142 1 0.932518 0.428375 0.186591
124 1 0.00579671 0.424179 0.264555
195 1 0.0924998 0.332651 0.428714
196 1 0.986393 0.394657 0.416143
148 1 0.0015443 0.0815148 0.413778
171 1 0.084365 0.15911 0.424794
202 1 0.414328 0.415463 0.321051
152 1 0.165868 0.076859 0.412661
175 1 0.240101 0.170522 0.418779
187 1 0.758871 0.170854 0.40752
186 1 0.747292 0.257652 0.330821
208 1 0.502695 0.401486 0.40296
154 1 0.401747 0.0806883 0.325824
156 1 0.323555 0.0924581 0.407438
192 1 0.82715 0.255685 0.41047
160 1 0.508194 0.0963456 0.429462
164 1 0.678792 0.102134 0.41245
198 1 0.246082 0.423798 0.351491
200 1 0.157729 0.418159 0.423401
162 1 0.751013 0.091251 0.331026
75 1 0.097407 0.0126145 0.261489
204 1 0.335124 0.409548 0.426731
168 1 0.829646 0.0782775 0.407945
191 1 0.924456 0.159283 0.405765
170 1 0.0917932 0.249492 0.33749
176 1 0.166373 0.250206 0.419602
172 1 0.00567671 0.251127 0.403069
250 1 0.421196 0.24297 0.505782
174 1 0.240746 0.252075 0.338121
180 1 0.330292 0.251448 0.421861
197 1 0.166141 0.337026 0.335466
199 1 0.254305 0.339282 0.422321
201 1 0.310301 0.338806 0.332063
178 1 0.40415 0.248021 0.332947
179 1 0.412582 0.162247 0.410528
203 1 0.410991 0.329372 0.429178
177 1 0.314405 0.178354 0.341824
181 1 0.487784 0.169369 0.327325
188 1 0.670842 0.239492 0.405923
183 1 0.590534 0.170612 0.418957
184 1 0.495129 0.24161 0.405711
593 1 0.661953 0.490896 0.340832
34 1 0.408667 0.264143 -0.00168827
95 1 0.922998 0.00493243 0.247432
258 1 0.759507 0.244924 0.498268
9 1 0.329112 -0.0113873 -0.00741981
91 1 0.756199 0.00442046 0.244715
583 1 0.241813 0.505763 0.429912
230 1 0.595823 0.0981025 0.500549
38 1 0.567367 0.247507 -0.00332407
433 1 0.986092 0.511875 0.00730622
591 1 0.559999 0.489718 0.406133
87 1 0.5805 0.00936214 0.244715
233 1 0.673805 0.00413878 0.50007
49 1 0.0057537 0.342177 0.00497638
237 1 0.828641 0.0115528 0.494148
83 1 0.427171 0.00993835 0.246437
439 1 0.249221 0.517012 0.0991434
50 1 0.0870148 0.42734 0.00396028
649 1 0.994298 0.499063 0.495281
222 1 0.259673 0.0882751 0.499622
2 1 0.0985892 0.0648094 -0.0108854
278 1 0.584946 0.420158 0.499792
282 1 0.753793 0.417461 0.502678
58 1 0.40862 0.424309 -0.00796512
69 1 0.849144 0.330735 0.00208585
254 1 0.592005 0.233694 0.500755
449 1 0.66767 0.502793 0.00809179
249 1 0.32585 0.166602 0.498423
26 1 0.0826808 0.258182 0.00527689
261 1 0.832126 0.163711 0.490084
665 1 0.671908 0.49486 0.494263
18 1 0.753769 0.0889904 0.00854828
453 1 0.839462 0.490716 0.00648332
220 1 0.986429 0.0812569 0.584321
653 1 0.153372 0.512649 0.510366
243 1 0.0842197 0.149783 0.577587
224 1 0.173517 0.086591 0.583738
247 1 0.248622 0.166018 0.587768
793 1 0.991873 0.488529 0.840661
432 1 0.836382 0.415377 0.922239
21 1 0.825612 0.000683238 0.991652
228 1 0.348126 0.0906211 0.564122
232 1 0.508622 0.0831237 0.606543
373 1 0.511894 -0.00423022 0.832958
375 1 0.589172 0.00321329 0.925603
236 1 0.663022 0.0944897 0.605951
255 1 0.585094 0.157469 0.582246
739 1 0.744912 0.486602 0.751477
299 1 0.420499 0.00707271 0.733734
430 1 0.904728 0.4025 0.842155
231 1 0.58885 0.00717936 0.589003
329 1 0.671316 0.174569 0.685588
306 1 0.742573 0.0851612 0.67466
655 1 0.254504 0.494397 0.560351
262 1 0.91596 0.228917 0.502702
307 1 0.736185 0.0126332 0.762524
240 1 0.826871 0.0697526 0.584315
263 1 0.910874 0.176301 0.590377
310 1 0.898888 0.0739219 0.665916
265 1 0.993707 0.320743 0.498669
725 1 0.18327 0.506027 0.657827
301 1 0.519014 0.00812222 0.676254
314 1 0.0732907 0.243958 0.651939
248 1 0.175182 0.252204 0.588775
244 1 1.00054 0.247097 0.586603
267 1 0.0727222 0.334209 0.570667
815 1 0.914159 0.502488 0.922003
318 1 0.245051 0.251712 0.669444
371 1 0.411737 0.00918422 0.909519
271 1 0.233754 0.335013 0.594633
297 1 0.3473 -0.000412445 0.638586
251 1 0.414008 0.172979 0.591719
321 1 0.330052 0.180179 0.65921
252 1 0.331658 0.252454 0.58341
256 1 0.518301 0.253193 0.581172
813 1 0.837275 0.496269 0.834809
260 1 0.654393 0.252532 0.600041
293 1 0.170894 -0.011471 0.656894
723 1 0.0757821 0.50002 0.745436
259 1 0.743201 0.179733 0.594715
357 1 0.833299 0.331666 0.656872
735 1 0.58413 0.48325 0.742796
264 1 0.829211 0.239894 0.580151
334 1 0.916431 0.240555 0.673134
337 1 0.00119333 0.345013 0.653983
427 1 0.754574 0.335243 0.908681
377 1 0.663486 0.0116366 0.841431
268 1 0.995998 0.435222 0.583039
338 1 0.0749471 0.419925 0.679332
361 1 0.999175 -0.010731 0.836295
266 1 0.0597665 0.423627 0.493732
272 1 0.150431 0.413249 0.559667
341 1 0.149501 0.338656 0.654591
342 1 0.247901 0.404587 0.67477
423 1 0.573207 0.335131 0.921083
388 1 1.00495 0.241961 0.90153
276 1 0.341555 0.412697 0.575974
275 1 0.422026 0.336413 0.57394
280 1 0.50028 0.421761 0.57403
733 1 0.483082 0.50374 0.675044
279 1 0.595247 0.338966 0.590035
406 1 0.908154 0.24427 0.821699
223 1 0.259649 0.0073854 0.582149
412 1 0.0100336 0.424184 0.925925
283 1 0.748531 0.324088 0.578061
284 1 0.670044 0.425181 0.586527
288 1 0.843257 0.426486 0.573548
287 1 0.916233 0.305909 0.572558
416 1 0.169096 0.418489 0.913205
358 1 0.926362 0.414965 0.672429
303 1 0.594302 -0.0224481 0.767004
410 1 0.0837479 0.41261 0.845315
290 1 0.0850182 0.0799671 0.663365
296 1 0.167698 0.0773902 0.731752
292 1 -0.00172242 0.0751653 0.744088
313 1 0.994863 0.164312 0.659647
315 1 0.0808731 0.152568 0.747744
317 1 0.163522 0.170342 0.654056
294 1 0.255692 0.0844384 0.66259
319 1 0.260592 0.159163 0.739022
366 1 0.249378 0.089576 0.821967
298 1 0.420445 0.101176 0.673278
300 1 0.330477 0.0669071 0.732941
323 1 0.423726 0.177152 0.763784
797 1 0.159945 0.497253 0.832928
302 1 0.590642 0.0855784 0.684022
304 1 0.503267 0.0887424 0.760087
374 1 0.581384 0.0815583 0.830773
327 1 0.591091 0.178967 0.763515
308 1 0.662219 0.09031 0.757929
312 1 0.823877 0.0862807 0.75087
331 1 0.744118 0.170001 0.764244
426 1 0.756245 0.408148 0.839075
382 1 0.913892 0.0700036 0.830614
339 1 0.0718722 0.334044 0.743554
316 1 -0.000912683 0.254741 0.73273
320 1 0.158852 0.241488 0.739973
324 1 0.320049 0.246995 0.750956
343 1 0.23953 0.329657 0.752363
345 1 0.341977 0.312489 0.674036
322 1 0.438537 0.249302 0.663658
325 1 0.508316 0.170392 0.678231
328 1 0.488654 0.255221 0.769602
347 1 0.408099 0.330988 0.748297
326 1 0.573726 0.260822 0.673711
397 1 0.508265 0.163756 0.840476
332 1 0.662301 0.265584 0.75277
398 1 0.575087 0.263681 0.838781
333 1 0.826907 0.173187 0.664104
330 1 0.749682 0.255912 0.669131
402 1 0.73703 0.261497 0.82883
355 1 0.759106 0.342028 0.750478
336 1 0.838237 0.252924 0.736575
335 1 0.916683 0.149776 0.751775
344 1 0.159633 0.419844 0.739311
429 1 0.831709 0.319494 0.832841
340 1 0.998206 0.416589 0.756468
425 1 0.668328 0.351377 0.835865
348 1 0.328303 0.417652 0.74999
422 1 0.585372 0.422488 0.854212
346 1 0.427222 0.414102 0.657344
352 1 0.498558 0.418664 0.743425
795 1 0.101696 0.506097 0.923784
663 1 0.577387 0.496722 0.571302
349 1 0.506004 0.336688 0.649584
350 1 0.574095 0.416817 0.665793
351 1 0.585317 0.332759 0.764728
353 1 0.685081 0.346247 0.663905
431 1 0.921006 0.326434 0.911992
356 1 0.664612 0.418246 0.736362
41 1 0.666058 0.176132 1.00528
354 1 0.759483 0.409992 0.66988
428 1 0.680348 0.420495 0.938703
360 1 0.838798 0.416706 0.759147
359 1 0.922835 0.334042 0.750954
419 1 0.396136 0.335717 0.920748
424 1 0.492663 0.427236 0.916198
387 1 0.0852011 0.171528 0.894331
362 1 0.0858002 0.0623151 0.834196
364 1 0.00575893 0.0714039 0.922615
389 1 0.172675 0.157284 0.813766
368 1 0.169359 0.0757838 0.907284
391 1 0.224862 0.157811 0.912011
29 1 0.162871 0.163293 1.01399
393 1 0.342327 0.17086 0.824686
370 1 0.414795 0.0872965 0.829687
372 1 0.32661 0.0865098 0.926463
395 1 0.406974 0.170405 0.919876
418 1 0.401544 0.417593 0.839916
399 1 0.589191 0.17797 0.922096
376 1 0.504829 0.0896059 0.921116
408 1 0.835898 0.247322 0.91785
404 1 0.667412 0.248618 0.92314
401 1 0.661413 0.163531 0.841744
380 1 0.663323 0.0946695 0.927194
378 1 0.752244 0.089759 0.842232
384 1 0.82916 0.0906747 0.919888
403 1 0.746237 0.164484 0.917278
421 1 0.479412 0.340755 0.846707
417 1 0.326577 0.337713 0.826721
420 1 0.310694 0.418953 0.920827
407 1 0.919534 0.159471 0.922756
385 1 -0.00824321 0.157452 0.818705
405 1 0.831787 0.167241 0.833971
415 1 0.227322 0.334041 0.892033
409 1 0.00809813 0.318433 0.832211
411 1 0.0830117 0.334837 0.91941
386 1 0.0899303 0.24844 0.819527
413 1 0.150936 0.334664 0.8181
392 1 0.167704 0.250023 0.925805
390 1 0.239511 0.255092 0.826617
396 1 0.3144 0.257034 0.913303
394 1 0.404015 0.256084 0.842876
414 1 0.245008 0.427022 0.828779
400 1 0.498891 0.249634 0.912252
57 1 0.323407 0.340761 0.998247
737 1 0.668043 0.505579 0.666938
241 1 -0.00113936 0.157517 0.504397
381 1 0.833484 -0.00564362 0.835376
807 1 0.571912 0.508735 0.90088
270 1 0.244081 0.412868 0.501261
62 1 0.5873 0.427579 0.991145
10 1 0.417446 0.0912575 0.995738
731 1 0.395636 0.49436 0.753146
729 1 0.332296 0.482935 0.657632
379 1 0.754854 0.0162247 0.913704
22 1 0.920852 0.07374 0.99499
286 1 0.922166 0.417568 0.501877
246 1 0.255298 0.243538 0.506127
285 1 0.828357 0.331165 0.507587
226 1 0.433125 0.083297 0.495532
6 1 0.237984 0.0761051 0.995116
238 1 0.910564 0.0881525 0.49528
281 1 0.660812 0.31774 0.49711
33 1 0.316307 0.177102 0.986406
25 1 0.00491407 0.163953 0.98851
53 1 0.169753 0.330745 1.00592
37 1 0.482081 0.17254 0.984472
46 1 0.92348 0.246909 0.992499
273 1 0.32725 0.332629 0.506142
269 1 0.173043 0.32077 0.498656
253 1 0.492926 0.17062 0.509503
70 1 0.922864 0.412936 1.00021
61 1 0.497712 0.334159 1.00598
65 1 0.673659 0.326227 1.00789
436 1 -0.00374739 0.588864 0.088754
440 1 0.167486 0.585764 0.094624
79 1 0.247528 0.989227 0.26204
506 1 0.0852785 0.58024 0.179833
463 1 0.25188 0.670592 0.0784415
444 1 0.327742 0.57641 0.09559
448 1 0.485392 0.5903 0.0770331
461 1 0.151171 0.667115 0.0110113
514 1 0.412172 0.56816 0.167973
690 1 0.749336 0.758703 0.495077
452 1 0.675696 0.590003 0.0777935
545 1 0.667383 0.657724 0.168258
518 1 0.561459 0.577562 0.163396
628 1 0.996928 0.916078 0.421799
648 1 0.835763 0.919574 0.413097
456 1 0.847931 0.578965 0.0957905
475 1 0.750609 0.662436 0.0849386
549 1 0.83546 0.689687 0.15818
522 1 0.758491 0.592534 0.186843
529 1 0.0133435 0.66827 0.176677
479 1 0.920153 0.668967 0.0859959
526 1 0.921855 0.581676 0.170423
459 1 0.0881131 0.663975 0.100299
483 1 0.107995 0.827514 0.0822066
530 1 0.0985796 0.758995 0.171851
537 1 0.32775 0.667424 0.164464
464 1 0.180067 0.750337 0.0929543
468 1 0.341927 0.752043 0.0799918
467 1 0.414288 0.66208 0.07589
491 1 0.417799 0.835313 0.0767414
538 1 0.416386 0.753255 0.172502
472 1 0.499848 0.735271 0.0817602
541 1 0.490765 0.674621 0.166192
471 1 0.582189 0.65589 0.0781885
542 1 0.581499 0.757955 0.157896
476 1 0.670665 0.745889 0.0814358
495 1 0.5709 0.837234 0.0826853
480 1 0.828221 0.752867 0.0781652
460 1 1.01204 0.751198 0.090692
550 1 0.914487 0.758564 0.165827
503 1 0.909658 0.823648 0.0831201
488 1 0.172736 0.923074 0.0822352
447 1 0.581143 0.513389 0.0786472
487 1 0.252171 0.826309 0.0929003
706 1 0.417895 0.92005 0.502988
492 1 0.334543 0.93469 0.0861384
561 1 0.322417 0.832283 0.173107
565 1 0.494081 0.839247 0.159797
647 1 0.908504 0.834749 0.425749
153 1 0.34309 0.992087 0.325849
698 1 0.087362 0.920036 0.486532
694 1 0.899616 0.752786 0.51075
496 1 0.495308 0.914687 0.0796334
713 1 0.67894 0.843306 0.493348
500 1 0.666309 0.923877 0.0802424
499 1 0.742986 0.831384 0.0904407
504 1 0.832411 0.924549 0.0576461
643 1 0.758148 0.836941 0.411047
644 1 0.679674 0.913108 0.413483
484 1 0.00827564 0.912974 0.0876183
553 1 1.0094 0.839186 0.167572
147 1 0.0704998 1.00069 0.418195
533 1 0.170862 0.663712 0.169979
587 1 0.412948 0.485145 0.40769
531 1 0.0865116 0.666746 0.253592
508 1 -0.00349826 0.590784 0.254518
601 1 0.996483 0.663356 0.328213
510 1 0.247531 0.579686 0.179251
512 1 0.166914 0.577996 0.255991
605 1 0.166799 0.653717 0.334272
582 1 0.245348 0.589557 0.339983
516 1 0.334345 0.583835 0.256838
586 1 0.414262 0.588829 0.332086
520 1 0.487867 0.603925 0.250402
519 1 0.570469 0.506606 0.248917
613 1 0.508612 0.665436 0.343615
581 1 0.160512 0.511843 0.336904
517 1 0.493887 0.495924 0.153195
524 1 0.660799 0.573476 0.242465
617 1 0.662318 0.661078 0.337173
507 1 0.0892218 0.493994 0.259547
547 1 0.73883 0.675267 0.246566
457 1 0.00530857 0.677183 0.00452912
528 1 0.851904 0.580364 0.260423
598 1 0.917012 0.591497 0.358339
640 1 0.511876 0.931139 0.403308
557 1 0.191985 0.820114 0.18005
532 1 0.00363711 0.755357 0.25361
555 1 0.0907415 0.828974 0.253397
536 1 0.174807 0.741938 0.249295
629 1 0.158754 0.825802 0.337014
534 1 0.25671 0.737035 0.171895
535 1 0.254307 0.661051 0.247933
609 1 0.3308 0.658825 0.338865
559 1 0.261433 0.823915 0.264436
633 1 0.352846 0.825543 0.325988
539 1 0.40557 0.672508 0.258041
540 1 0.335603 0.74508 0.244366
544 1 0.507433 0.750681 0.251716
563 1 0.431451 0.831823 0.250467
543 1 0.586426 0.662138 0.236542
567 1 0.570598 0.848872 0.23932
548 1 0.667341 0.753511 0.217327
546 1 0.759254 0.749136 0.166083
552 1 0.835495 0.74796 0.249622
621 1 0.823094 0.667899 0.330071
551 1 0.92219 0.674376 0.246379
622 1 0.919486 0.751785 0.34092
575 1 0.918293 0.836954 0.252407
554 1 0.101784 0.893481 0.163882
3 1 0.0935622 0.988321 0.085162
560 1 0.16541 0.900963 0.247757
626 1 0.0804058 0.903578 0.334473
641 1 0.671291 0.838309 0.333983
630 1 0.254937 0.910835 0.334565
558 1 0.253907 0.917697 0.168948
562 1 0.41848 0.920933 0.179145
661 1 0.482055 0.502046 0.492137
639 1 0.607685 0.817646 0.421074
564 1 0.330328 0.905033 0.265272
451 1 0.755171 0.499319 0.0919741
638 1 0.58694 0.919631 0.328872
566 1 0.580335 0.92724 0.16599
569 1 0.659601 0.842425 0.151326
568 1 0.505174 0.938658 0.258287
572 1 0.661568 0.907145 0.246702
571 1 0.752957 0.831219 0.260421
642 1 0.748023 0.921212 0.321909
573 1 0.823895 0.84691 0.16901
570 1 0.742635 0.91491 0.157766
576 1 0.823357 0.921964 0.254018
646 1 0.917309 0.919753 0.337589
455 1 0.923541 0.505568 0.0934921
556 1 0.00958284 0.919249 0.24539
625 1 0.998881 0.84253 0.331234
574 1 0.912412 0.911792 0.169876
159 1 0.605129 1.01555 0.406249
636 1 0.344729 0.921359 0.41348
145 1 -0.00326394 0.995633 0.31293
578 1 0.0738405 0.583449 0.328566
580 1 0.00852094 0.573708 0.417691
584 1 0.148106 0.589002 0.428557
634 1 0.437097 0.923365 0.330663
588 1 0.33936 0.588838 0.425961
632 1 0.161388 0.913269 0.410785
435 1 0.081183 0.505902 0.0965254
592 1 0.504319 0.582732 0.411034
631 1 0.259469 0.828529 0.411142
590 1 0.598611 0.567228 0.34126
596 1 0.684769 0.585587 0.412601
73 1 0.0119115 0.992594 0.164126
594 1 0.746842 0.576094 0.329911
600 1 0.825037 0.588084 0.423933
77 1 0.169776 1.00351 0.171675
454 1 0.915304 0.590191 0.0103234
602 1 0.0892126 0.752533 0.318412
603 1 0.0780558 0.675354 0.42811
608 1 0.162659 0.732772 0.428588
604 1 0.992926 0.755957 0.412724
513 1 0.32589 0.501903 0.175139
606 1 0.249341 0.744924 0.349711
607 1 0.234166 0.657679 0.417486
612 1 0.33555 0.744749 0.413795
525 1 0.856055 0.499465 0.185379
597 1 0.840778 0.511413 0.34249
635 1 0.431951 0.833003 0.413002
610 1 0.434321 0.742692 0.334359
611 1 0.428106 0.669822 0.427957
616 1 0.499041 0.743526 0.436004
615 1 0.567527 0.663395 0.426093
614 1 0.594951 0.741182 0.311498
620 1 0.677878 0.743813 0.419674
637 1 0.515448 0.82563 0.342276
523 1 0.757793 0.500543 0.243674
618 1 0.747465 0.75502 0.327922
645 1 0.84617 0.830406 0.327098
619 1 0.749445 0.667038 0.405491
595 1 0.752314 0.488692 0.40437
624 1 0.827217 0.75662 0.415413
623 1 0.917494 0.680418 0.41871
11 1 0.426713 0.995322 0.079969
627 1 0.0725463 0.834529 0.419183
163 1 0.741915 1.00858 0.395062
149 1 0.169437 0.983113 0.331484
702 1 0.246299 0.916079 0.489376
23 1 0.927334 0.990717 0.0718165
490 1 0.414454 0.925962 -0.0141157
673 1 0.994499 0.677921 0.51396
717 1 0.837278 0.83292 0.513737
93 1 0.842919 1.00291 0.167835
589 1 0.491548 0.499296 0.326883
521 1 0.665204 0.493657 0.153335
165 1 0.837553 0.997561 0.322818
161 1 0.667363 0.997432 0.313731
466 1 0.417918 0.760105 -0.0147478
527 1 0.928575 0.505388 0.287721
441 1 0.322713 0.501015 -0.00746266
442 1 0.40931 0.583078 -0.0131709
697 1 0.989616 0.835941 0.491429
434 1 0.0724919 0.580677 0.00585977
478 1 0.927846 0.744386 0.00342547
709 1 0.503177 0.837365 0.493473
221 1 0.163427 1.00725 0.495227
710 1 0.588103 0.921423 0.489275
657 1 0.343484 0.492328 0.495377
662 1 0.574425 0.572299 0.501652
437 1 0.157913 0.50642 0.0173346
669 1 0.836928 0.503341 0.496217
477 1 0.834563 0.666717 0.0161376
481 1 0.00640731 0.830857 0.00140372
438 1 0.246627 0.582843 0.00793062
458 1 0.0851869 0.76089 0.0110555
670 1 0.925557 0.58471 0.481903
489 1 0.332354 0.832256 -0.00602038
705 1 0.342734 0.837099 0.496037
654 1 0.238736 0.590197 0.505283
470 1 0.569264 0.746472 0.00903617
482 1 0.0920571 0.910466 0.00561555
498 1 0.754378 0.918833 -0.000790892
678 1 0.250657 0.751191 0.492293
722 1 0.082888 0.587356 0.662926
675 1 0.078936 0.684443 0.595407
1 1 1.0157 0.999253 1.00061
656 1 0.170682 0.586301 0.587979
679 1 0.241131 0.678816 0.581848
363 1 0.0853272 0.990118 0.913824
861 1 0.837644 0.815597 0.840438
660 1 0.342039 0.591837 0.5856
659 1 0.419381 0.495465 0.58212
683 1 0.432721 0.674117 0.588212
730 1 0.395106 0.582908 0.680999
227 1 0.439248 1.00672 0.589664
664 1 0.492295 0.578737 0.592981
219 1 0.0606133 0.998754 0.582926
734 1 0.586671 0.566103 0.652667
841 1 0.0187644 0.829463 0.846553
668 1 0.660776 0.580616 0.574104
367 1 0.252429 0.994687 0.907659
691 1 0.747752 0.645467 0.599077
445 1 0.48645 0.5093 0.989117
667 1 0.747506 0.502983 0.588798
864 1 0.827179 0.908154 0.920461
652 1 1.00851 0.584937 0.589157
672 1 0.836549 0.583001 0.566565
695 1 0.906558 0.671327 0.573521
676 1 0.997951 0.769913 0.57773
680 1 0.164616 0.765331 0.583415
749 1 0.165556 0.678823 0.657522
799 1 0.22964 0.50329 0.911753
684 1 0.335404 0.74855 0.580064
753 1 0.330566 0.676786 0.658274
777 1 0.337071 0.831212 0.659555
809 1 0.672935 0.487683 0.831624
311 1 0.912525 1.0081 0.74864
757 1 0.512244 0.673134 0.663748
707 1 0.413521 0.844574 0.582958
687 1 0.600127 0.664707 0.590458
688 1 0.504688 0.746814 0.58388
485 1 0.187226 0.830821 1.01515
801 1 0.325337 0.498539 0.841535
692 1 0.671472 0.740803 0.59382
696 1 0.798034 0.758012 0.594224
762 1 0.742323 0.73835 0.692116
765 1 0.831917 0.661268 0.675636
766 1 0.92417 0.743556 0.668643
805 1 0.485435 0.485881 0.826444
699 1 0.087469 0.853044 0.581942
700 1 0.989317 0.90549 0.557508
770 1 0.0632746 0.919096 0.657026
811 1 0.754781 0.496674 0.93654
473 1 0.668196 0.667344 0.990269
703 1 0.264679 0.841148 0.571107
704 1 0.171575 0.926716 0.575445
773 1 0.164254 0.84305 0.666655
844 1 0.0173575 0.910323 0.915326
781 1 0.501089 0.834805 0.665678
685 1 0.50441 0.665069 0.508481
497 1 0.659459 0.828725 0.993621
383 1 0.933391 0.99134 0.930344
708 1 0.334266 0.918326 0.572571
741 1 0.840654 0.50224 0.680269
712 1 0.508298 0.927581 0.580167
711 1 0.585816 0.832339 0.587548
782 1 0.579966 0.92105 0.667684
715 1 0.745996 0.839957 0.580366
716 1 0.663064 0.921923 0.570787
651 1 0.078326 0.494275 0.579655
769 1 0.988207 0.836713 0.671523
719 1 0.913511 0.825477 0.590654
720 1 0.834359 0.910744 0.590463
790 1 0.919113 0.914023 0.667596
789 1 0.840682 0.833849 0.671699
671 1 0.922308 0.509889 0.581686
305 1 0.664719 1.00408 0.675746
747 1 0.0984392 0.676818 0.736244
728 1 0.176971 0.588693 0.741187
794 1 0.0873746 0.576553 0.832749
726 1 0.249526 0.594774 0.657012
732 1 0.322035 0.589246 0.748021
751 1 0.234927 0.676891 0.758506
798 1 0.236899 0.594476 0.834283
755 1 0.410274 0.666332 0.756071
736 1 0.488628 0.581099 0.744853
239 1 0.902304 0.9986 0.589313
829 1 0.48535 0.660851 0.825899
738 1 0.742764 0.572831 0.672272
740 1 0.655918 0.580617 0.755854
761 1 0.659263 0.648364 0.67758
810 1 0.74725 0.581996 0.85279
742 1 0.921822 0.604259 0.646456
727 1 0.254169 0.505176 0.74799
724 1 -0.00254913 0.583131 0.752384
744 1 0.825378 0.581828 0.762282
837 1 0.84445 0.654159 0.836129
767 1 0.919048 0.659583 0.740438
814 1 0.924435 0.575762 0.840966
746 1 0.0789645 0.775398 0.651111
752 1 0.173077 0.769092 0.742021
818 1 0.0953833 0.749476 0.820552
750 1 0.250116 0.760865 0.649358
756 1 0.333739 0.746046 0.742454
775 1 0.257924 0.849373 0.728768
821 1 0.161953 0.668806 0.84425
849 1 0.340225 0.836795 0.82926
754 1 0.409333 0.756554 0.673447
779 1 0.428169 0.83025 0.748849
760 1 0.488626 0.734892 0.746235
826 1 0.411649 0.747634 0.830513
758 1 0.594491 0.749251 0.675256
759 1 0.578278 0.655363 0.74544
783 1 0.588595 0.826836 0.75795
830 1 0.562518 0.746894 0.828085
857 1 0.658655 0.837872 0.830469
833 1 0.651591 0.654006 0.845308
764 1 0.659417 0.719299 0.764705
763 1 0.748572 0.648017 0.760471
834 1 0.751982 0.749556 0.827282
745 1 1.0094 0.665781 0.669196
817 1 0.0104527 0.664603 0.849997
768 1 0.831065 0.741735 0.750324
748 1 0.0097835 0.760791 0.735805
838 1 0.919267 0.736775 0.831648
309 1 0.818301 1.00669 0.673275
771 1 0.0858031 0.844685 0.740904
856 1 0.5031 0.929829 0.916572
855 1 0.582028 0.840645 0.906551
774 1 0.258962 0.918332 0.6574
776 1 0.162065 0.925926 0.746661
778 1 0.434309 0.925092 0.663895
853 1 0.499164 0.831689 0.826647
780 1 0.3494 0.911588 0.749388
850 1 0.437193 0.92647 0.822788
235 1 0.747311 0.992924 0.59315
785 1 0.658209 0.827462 0.665263
784 1 0.509711 0.918075 0.74343
854 1 0.578761 0.918013 0.844425
786 1 0.752088 0.910754 0.660292
858 1 0.743226 0.923476 0.831708
787 1 0.751805 0.837139 0.752203
788 1 0.674053 0.908557 0.748892
860 1 0.67619 0.924301 0.922697
851 1 0.43156 0.839567 0.905421
791 1 0.921189 0.81126 0.758506
792 1 0.833013 0.904748 0.758535
862 1 0.924146 0.921447 0.836072
772 1 0.996806 0.907762 0.74435
494 1 0.564212 0.921933 1.00074
796 1 0.0075876 0.578738 0.908815
819 1 0.0913996 0.682796 0.924129
295 1 0.261341 0.990172 0.739196
825 1 0.316036 0.67969 0.833163
800 1 0.156919 0.586533 0.92281
823 1 0.238754 0.663811 0.925747
804 1 0.31383 0.577981 0.91889
289 1 0.993309 1.00352 0.661793
291 1 0.0772857 1.00049 0.735821
802 1 0.408029 0.576803 0.833026
808 1 0.501254 0.585875 0.904534
845 1 0.165028 0.839503 0.822863
806 1 0.562018 0.574819 0.823079
852 1 0.339046 0.914999 0.906749
743 1 0.918342 0.503702 0.748251
812 1 0.663562 0.577785 0.921503
835 1 0.764601 0.672571 0.910598
846 1 0.271594 0.910823 0.829429
863 1 0.937245 0.825508 0.903549
836 1 0.657279 0.753375 0.910863
843 1 0.0989215 0.836041 0.925966
816 1 0.838788 0.576839 0.928875
839 1 0.916697 0.656337 0.921665
859 1 0.737374 0.839781 0.90911
848 1 0.180388 0.904348 0.906336
842 1 0.0899361 0.917079 0.829108
824 1 0.172471 0.755748 0.899217
822 1 0.258395 0.771352 0.821319
840 1 0.851548 0.744476 0.932842
847 1 0.256675 0.828986 0.918058
827 1 0.397961 0.656803 0.901446
828 1 0.335207 0.741983 0.919215
832 1 0.498456 0.736925 0.918362
820 1 0.0116617 0.754382 0.924623
803 1 0.405275 0.505088 0.921004
831 1 0.586469 0.666544 0.922514
365 1 0.185179 1.00101 0.814554
721 1 0.995444 0.499808 0.67062
686 1 0.585145 0.753033 0.502699
369 1 0.337303 1.00061 0.824742
446 1 0.58585 0.585023 0.992805
5 1 0.173236 0.988446 1.00021
701 1 0.168374 0.832777 0.493771
681 1 0.32355 0.675734 0.510099
469 1 0.494437 0.663212 0.997217
689 1 0.682742 0.66706 0.492039
502 1 0.92305 0.910423 0.998688
465 1 0.318404 0.659251 0.994136
674 1 0.0879762 0.755303 0.50442
682 1 0.430014 0.754029 0.516982
450 1 0.758239 0.588979 0.995168
501 1 0.814372 0.826335 1.00147
693 1 0.812219 0.670106 0.507279
462 1 0.251938 0.747784 0.996882
650 1 0.0707663 0.578191 0.50919
486 1 0.251437 0.916136 0.999771
474 1 0.742841 0.740752 0.990128
714 1 0.756731 0.929734 0.491276
658 1 0.420925 0.582175 0.516881
666 1 0.746152 0.571546 0.495574
493 1 0.498457 0.830733 0.989488
677 1 0.152504 0.666473 0.507839
718 1 0.90218 0.923761 0.500814
17 1 0.678637 1.00911 1.00807
