ITEM: TIMESTEP
19500
ITEM: NUMBER OF ATOMS
500
ITEM: BOX BOUNDS pp pp pp
0.0000000000000000e+00 2.6299999999999997e+01
0.0000000000000000e+00 2.6299999999999997e+01
0.0000000000000000e+00 2.6299999999999997e+01
ITEM: ATOMS id type xs ys zs
23 1 0.097036 0.185774 0.100949
52 1 0.0982337 0.0966342 0.206037
75 1 0.191102 0.203997 0.203199
140 1 0.496426 0.207901 0.492982
141 1 0.392635 0.299161 0.477272
63 1 0.599859 0.0194234 0.191257
8 1 0.197197 0.101842 0.112535
27 1 0.294139 0.204197 0.111237
56 1 0.308224 0.0940048 0.196305
12 1 0.400513 0.108064 0.100459
61 1 0.499809 0.000268647 0.298983
79 1 0.417083 0.20181 0.199936
31 1 0.503448 0.205042 0.1014
60 1 0.493054 0.103352 0.201542
16 1 0.58767 0.114234 0.0960282
143 1 0.597784 0.304245 0.48563
11 1 0.501678 0.00215869 0.10211
83 1 0.610281 0.199113 0.210481
35 1 0.687189 0.206425 0.107582
64 1 0.691834 0.103261 0.216668
105 1 0.409292 0.00557581 0.426401
20 1 0.789731 0.0898448 0.0970849
125 1 0.810025 0.402255 0.422532
121 1 0.999153 0.387361 0.38977
3 1 0.0962485 0.0103674 0.101024
4 1 0.993405 0.103682 0.106021
87 1 0.78038 0.191058 0.200937
71 1 0.996057 0.204994 0.204087
39 1 0.88893 0.19181 0.102432
68 1 0.891378 0.104676 0.205127
90 1 0.799953 0.285126 0.288221
25 1 0.185263 0.206955 0.00413486
307 1 0.710264 0.494246 0.213903
42 1 0.100898 0.396592 0.107763
72 1 0.100663 0.308437 0.200072
28 1 0.195102 0.300577 0.0983196
256 1 0.38662 0.486668 0.122058
351 1 0.0915525 0.492392 0.37873
93 1 0.192887 0.392424 0.21239
44 1 0.290919 0.403383 0.115813
76 1 0.308271 0.294088 0.212198
95 1 0.395392 0.38662 0.215026
103 1 0.211331 0.0154594 0.394891
74 1 0.00024229 0.289028 0.309017
148 1 0.483594 0.395269 0.482253
32 1 0.388201 0.305825 0.111122
46 1 0.503017 0.42144 0.106484
80 1 0.502647 0.305879 0.200301
97 1 0.607398 0.400103 0.22332
36 1 0.591667 0.303984 0.0907112
301 1 0.0903964 0.497812 0.208687
251 1 0.0940096 0.478119 0.0154989
352 1 0.31138 0.498329 0.385965
114 1 0.292457 0.289053 0.400592
48 1 0.694922 0.38593 0.104839
84 1 0.695341 0.306766 0.200915
40 1 0.776918 0.29701 0.0887202
86 1 0.59352 0.304801 0.302922
100 1 0.878609 0.398217 0.295733
258 1 0.612636 0.472646 0.107718
24 1 0.996774 0.313782 0.0975125
91 1 0.983932 0.398541 0.204705
99 1 0.799034 0.379725 0.199996
50 1 0.888246 0.396882 0.100808
88 1 0.888859 0.283003 0.19585
123 1 0.391232 0.391983 0.37994
73 1 0.104795 0.209179 0.295272
102 1 0.0863617 0.0920434 0.385641
54 1 0.996486 0.102884 0.287279
113 1 0.19236 0.19677 0.394204
58 1 0.193422 0.102992 0.304396
124 1 0.592666 0.403467 0.400879
77 1 0.314776 0.185006 0.298538
104 1 0.293048 0.114549 0.399559
122 1 0.199008 0.399873 0.404923
18 1 0.892067 0.0963092 0.00900626
82 1 0.409152 0.293919 0.302272
96 1 0.499386 0.396567 0.299352
115 1 0.416374 0.205047 0.391331
62 1 0.38223 0.0796375 0.320881
81 1 0.50373 0.19055 0.305191
106 1 0.492893 0.108104 0.399271
117 1 0.600098 0.176793 0.402145
304 1 0.200335 0.489661 0.309497
66 1 0.596933 0.0922194 0.287518
85 1 0.701443 0.196014 0.308414
108 1 0.709268 0.0867546 0.393243
70 1 0.811206 0.0978303 0.31003
119 1 0.814405 0.198618 0.422349
120 1 0.889491 0.301633 0.396357
94 1 0.288248 0.391291 0.304272
118 1 0.708378 0.292826 0.41593
116 1 0.5016 0.298366 0.393463
98 1 0.720234 0.396231 0.304016
111 1 0.987851 0.184838 0.397209
110 1 0.901944 0.0910152 0.39715
89 1 0.892175 0.200432 0.299763
112 1 0.0989932 0.296671 0.395498
92 1 0.11362 0.383818 0.310241
149 1 0.689258 0.406424 0.498994
303 1 0.298329 0.477253 0.219679
78 1 0.204211 0.290436 0.299739
302 1 0.989264 0.481768 0.289919
147 1 0.294682 0.394317 0.490428
308 1 0.616963 0.49522 0.305703
133 1 0.596958 0.0845874 0.487992
137 1 0.00223449 0.30375 0.482119
9 1 0.408099 0.00586403 0.0047292
378 1 0.391481 0.493714 0.487023
14 1 0.682588 0.0900944 0.0062159
260 1 0.776169 0.489846 0.107966
21 1 0.982253 0.213292 0.00934359
144 1 0.916403 0.190413 0.499616
53 1 0.0917232 0.000579907 0.294109
354 1 0.703493 0.494152 0.397859
305 1 0.52656 0.496664 0.202779
55 1 0.206795 0.00674092 0.200228
310 1 0.807192 0.498713 0.298854
51 1 0.0072418 0.0113561 0.198131
353 1 0.501591 0.49935 0.412727
15 1 0.702213 0.000594082 0.0862055
43 1 0.191382 0.399124 0.0205471
146 1 0.104683 0.41038 0.487716
30 1 0.471875 0.292932 0.0173352
127 1 0.996381 0.0825659 0.489785
131 1 0.393388 0.108646 0.497615
136 1 0.0862129 0.193565 0.490613
135 1 0.789714 0.0950036 0.49237
26 1 0.297968 0.303123 0.00986427
38 1 0.893492 0.304914 0.0211203
152 1 0.0942743 0.101921 0.593034
173 1 0.10417 0.212959 0.695057
158 1 0.201393 0.0989374 0.695228
175 1 0.212854 0.204016 0.607123
154 1 0.0133406 0.117426 0.71053
207 1 0.287794 0.00374428 0.907597
163 1 0.596722 0.00465693 0.606997
402 1 0.0125265 0.489352 0.723853
457 1 0.690676 0.49592 0.790133
156 1 0.290333 0.106556 0.600266
177 1 0.314631 0.211985 0.699992
179 1 0.428066 0.196346 0.593807
217 1 0.783624 0.00919981 0.800237
203 1 0.0932009 0.000386029 0.91301
455 1 0.497791 0.490729 0.774476
29 1 0.401721 0.194427 0.983861
162 1 0.433012 0.0984444 0.673067
406 1 0.394574 0.489459 0.691639
160 1 0.523054 0.105074 0.58107
181 1 0.492112 0.218732 0.714296
183 1 0.583606 0.213928 0.591046
166 1 0.617819 0.103871 0.701212
410 1 0.794044 0.483668 0.69237
142 1 0.715606 0.211176 0.512132
380 1 0.802561 0.499185 0.51314
164 1 0.676205 0.116742 0.580794
185 1 0.691055 0.214521 0.659511
187 1 0.811448 0.186988 0.581508
230 1 0.510494 0.296662 0.813222
171 1 0.998111 0.207569 0.595972
170 1 0.790715 0.101014 0.695744
168 1 0.909234 0.107765 0.598152
189 1 0.88578 0.189569 0.703138
10 1 0.492332 0.10067 0.995893
232 1 0.39805 0.290316 0.897238
172 1 0.0842781 0.298801 0.597351
192 1 0.101832 0.400432 0.678182
193 1 0.203734 0.411856 0.570381
178 1 0.213852 0.316438 0.690645
191 1 0.00288633 0.404008 0.597469
174 1 0.999288 0.292688 0.690825
459 1 0.902237 0.494092 0.778936
176 1 0.315109 0.301818 0.607621
194 1 0.293106 0.409132 0.687229
182 1 0.413527 0.319879 0.714756
246 1 0.510627 0.394215 0.902896
195 1 0.409108 0.393993 0.597159
180 1 0.500959 0.321677 0.574466
196 1 0.503117 0.407248 0.684171
186 1 0.588128 0.310399 0.700916
197 1 0.590552 0.417855 0.599275
184 1 0.664141 0.308918 0.590141
198 1 0.684021 0.39299 0.700645
199 1 0.80182 0.400187 0.592867
190 1 0.785443 0.288565 0.688649
245 1 0.390077 0.428695 0.814303
188 1 0.892031 0.287762 0.587185
200 1 0.904408 0.380692 0.688549
169 1 0.906077 0.011233 0.691347
257 1 0.697944 0.499918 0.990824
202 1 0.0982657 0.106561 0.807876
223 1 0.112702 0.20312 0.891804
225 1 0.205178 0.211199 0.80291
221 1 0.00247009 0.210083 0.797129
165 1 0.702695 0.00509943 0.70196
240 1 0.810659 0.294915 0.882909
208 1 0.187611 0.0920994 0.902255
206 1 0.298038 0.108332 0.801677
227 1 0.296584 0.203995 0.894261
205 1 0.212053 0.00450509 0.803629
2 1 0.0704883 0.0973686 0.9989
212 1 0.398756 0.100337 0.895785
229 1 0.399213 0.208581 0.801545
210 1 0.503628 0.104989 0.786806
231 1 0.507676 0.190407 0.873027
201 1 0.00591471 0.00287856 0.814403
33 1 0.610741 0.210143 0.992023
233 1 0.613753 0.198564 0.779154
216 1 0.587963 0.0890145 0.888415
214 1 0.688801 0.0888666 0.802987
235 1 0.695513 0.187034 0.889716
249 1 0.797935 0.399865 0.797614
238 1 0.900306 0.283621 0.79199
204 1 0.987528 0.107882 0.898645
220 1 0.776806 0.0875261 0.90757
237 1 0.792628 0.199732 0.792657
218 1 0.914728 0.0929227 0.795648
239 1 0.871728 0.186603 0.892759
250 1 0.893411 0.391905 0.889814
241 1 0.991827 0.387541 0.795494
224 1 0.985654 0.296883 0.893389
222 1 0.0993263 0.309863 0.794565
242 1 0.0804621 0.398383 0.910882
234 1 0.691086 0.29546 0.795027
157 1 0.309634 0.00567835 0.689469
244 1 0.300709 0.404235 0.911817
228 1 0.199297 0.309362 0.921422
226 1 0.299702 0.309472 0.792719
243 1 0.210206 0.403052 0.818249
248 1 0.721182 0.408962 0.8986
211 1 0.503176 9.23139e-05 0.898865
247 1 0.595715 0.407132 0.786042
236 1 0.598177 0.303939 0.905948
451 1 0.100666 0.499393 0.804069
458 1 0.587615 0.498027 0.902662
139 1 0.187308 0.301642 0.510457
41 1 0.980743 0.397552 0.999796
34 1 0.7029 0.310622 0.980368
128 1 0.295822 0.0204367 0.50371
6 1 0.284515 0.0973147 0.995007
138 1 0.30112 0.20554 0.506513
150 1 0.917016 0.404915 0.508231
407 1 0.690286 0.495505 0.606932
209 1 0.403644 8.93594e-05 0.819314
219 1 0.901195 0.00650692 0.905586
454 1 0.205958 0.485803 0.911097
151 1 0.998263 0.0135147 0.606637
460 1 0.812235 0.499528 0.891694
129 1 0.201863 0.101472 0.5095
17 1 0.803562 0.00106831 0.996883
47 1 0.607894 0.406799 0.988192
49 1 0.798379 0.411536 0.9953
45 1 0.400741 0.397482 0.994559
145 1 0.80599 0.309332 0.507959
22 1 0.0791116 0.292481 0.995251
37 1 0.773386 0.191269 0.994866
263 1 0.104048 0.614022 0.108397
312 1 0.108553 0.704802 0.196885
264 1 0.000252521 0.698842 0.101662
311 1 0.00113479 0.610146 0.213946
282 1 0.0972668 0.909342 0.00528414
109 1 0.817155 0.997328 0.401206
315 1 0.190993 0.579966 0.206293
268 1 0.221029 0.705789 0.120066
267 1 0.288977 0.577238 0.119664
316 1 0.311754 0.697014 0.205092
319 1 0.420554 0.573592 0.197673
272 1 0.397504 0.678204 0.117483
294 1 0.686936 0.89291 0.00281627
271 1 0.510853 0.608324 0.110865
320 1 0.509204 0.691381 0.220765
323 1 0.619876 0.607899 0.201289
276 1 0.603195 0.71085 0.107217
101 1 0.00351405 0.98684 0.400294
5 1 0.193927 0.995688 0.00922134
275 1 0.699858 0.61369 0.0854426
324 1 0.702432 0.71056 0.221857
19 1 0.902973 0.996396 0.108552
374 1 0.802021 0.801249 0.410538
327 1 0.800823 0.601343 0.202659
280 1 0.796101 0.699523 0.104088
279 1 0.876692 0.598397 0.106724
328 1 0.901077 0.707064 0.190969
69 1 0.897206 0.983732 0.290462
376 1 0.00573384 0.505516 0.498237
349 1 0.90788 0.802856 0.294096
283 1 0.0957398 0.799552 0.0968836
332 1 0.103553 0.908671 0.194749
284 1 0.00474967 0.894156 0.0970929
331 1 0.00382813 0.791998 0.20324
59 1 0.400811 0.9936 0.195632
288 1 0.211712 0.909905 0.119757
335 1 0.19594 0.811733 0.201328
287 1 0.330337 0.791179 0.108298
336 1 0.315864 0.895831 0.191812
292 1 0.409588 0.889754 0.114437
339 1 0.411923 0.781603 0.214163
375 1 0.891667 0.889546 0.385076
399 1 0.907739 0.800823 0.491147
291 1 0.506039 0.800835 0.115038
340 1 0.515432 0.898313 0.203613
296 1 0.60418 0.900887 0.109018
286 1 0.311762 0.887233 0.0153699
252 1 0.995558 0.511622 0.110309
343 1 0.600256 0.8008 0.206902
295 1 0.692766 0.801904 0.111233
344 1 0.705921 0.901729 0.198956
347 1 0.811193 0.795763 0.18439
65 1 0.707383 0.999146 0.293065
388 1 0.591512 0.688036 0.494805
373 1 0.710542 0.912705 0.39302
396 1 0.404921 0.871042 0.498094
300 1 0.800351 0.898359 0.10302
299 1 0.896052 0.783698 0.0788991
348 1 0.898348 0.882048 0.184109
57 1 0.293345 0.995987 0.298719
313 1 0.111618 0.611378 0.310965
357 1 0.126614 0.708891 0.40473
356 1 0.00816228 0.587081 0.396414
314 1 0.00391212 0.694023 0.311688
345 1 0.702134 0.81098 0.312217
255 1 0.498286 0.506078 0.0126005
358 1 0.21541 0.592249 0.395064
318 1 0.220957 0.696127 0.311173
317 1 0.313514 0.593282 0.282578
359 1 0.296729 0.70355 0.407849
322 1 0.394768 0.690843 0.308707
360 1 0.397667 0.593806 0.390464
262 1 0.10717 0.705343 4.68547e-05
393 1 0.295776 0.797652 0.496682
321 1 0.505802 0.586746 0.298844
361 1 0.489982 0.704678 0.396616
326 1 0.61125 0.708445 0.315039
362 1 0.597468 0.599978 0.389732
67 1 0.80071 0.981828 0.188511
350 1 0.795701 0.897707 0.282709
372 1 0.605724 0.805608 0.40301
309 1 0.895691 0.513453 0.194435
371 1 0.479051 0.89787 0.399479
382 1 0.0148256 0.701225 0.485899
325 1 0.724784 0.601916 0.304732
363 1 0.715927 0.696294 0.394836
341 1 0.506942 0.806434 0.303451
346 1 0.607224 0.890107 0.298397
289 1 0.415851 0.804941 0.0123892
364 1 0.817059 0.60215 0.390922
330 1 0.816595 0.700369 0.280979
365 1 0.894052 0.706502 0.377251
329 1 0.916403 0.598358 0.297062
290 1 0.497766 0.890878 0.0185936
334 1 0.00764579 0.905089 0.28286
342 1 0.396926 0.913521 0.294077
366 1 0.995226 0.80869 0.403603
333 1 0.0961343 0.806451 0.301337
367 1 0.102664 0.910269 0.393529
370 1 0.381161 0.807186 0.388138
368 1 0.208808 0.818115 0.392668
338 1 0.199374 0.915009 0.301637
337 1 0.293274 0.815745 0.287303
369 1 0.307507 0.917808 0.406951
306 1 0.413583 0.505665 0.297984
265 1 0.191879 0.625325 0.0139399
266 1 0.307643 0.686171 0.0191093
107 1 0.605996 0.989206 0.388253
381 1 0.102304 0.60279 0.484431
269 1 0.400574 0.579635 0.0297842
285 1 0.199939 0.801932 0.0262458
355 1 0.903378 0.500832 0.406054
377 1 0.20459 0.504682 0.485978
7 1 0.309756 0.992804 0.097822
254 1 0.183053 0.500464 0.112398
398 1 0.615925 0.88999 0.493227
385 1 0.493979 0.59985 0.491807
13 1 0.583572 0.994371 0.0125507
386 1 0.385403 0.709727 0.492429
394 1 0.217295 0.90649 0.49423
259 1 0.911378 0.512335 0.0165846
395 1 0.510443 0.790565 0.496039
270 1 0.487843 0.691937 0.0215802
298 1 0.899914 0.900889 0.00686261
297 1 0.785837 0.797657 0.00236685
383 1 0.307362 0.614655 0.493167
1 1 0.98853 0.999622 0.0129176
412 1 0.107818 0.70719 0.583787
413 1 0.101629 0.602937 0.677894
418 1 0.194783 0.704675 0.679341
415 1 0.214024 0.594804 0.579847
390 1 0.811962 0.702488 0.504045
401 1 0.100222 0.501856 0.593952
273 1 0.591917 0.58791 0.993072
379 1 0.604446 0.507961 0.500909
416 1 0.313837 0.701606 0.59611
417 1 0.282589 0.612413 0.681717
422 1 0.388686 0.698077 0.702212
419 1 0.408169 0.604066 0.582229
403 1 0.306409 0.500375 0.58142
397 1 0.697337 0.784965 0.500387
387 1 0.696483 0.604781 0.502212
420 1 0.49773 0.708867 0.600159
421 1 0.50085 0.615576 0.700997
426 1 0.604984 0.695948 0.695671
423 1 0.590082 0.603619 0.591186
500 1 0.794095 0.898494 0.925854
213 1 0.611707 0.984214 0.807308
424 1 0.708729 0.698873 0.59492
425 1 0.694078 0.607572 0.70273
430 1 0.797967 0.710966 0.69449
427 1 0.800869 0.598967 0.594032
155 1 0.207659 0.996101 0.601555
411 1 0.985906 0.606278 0.607571
408 1 0.603854 0.511311 0.695935
497 1 0.819893 0.807889 0.808644
414 1 0.998291 0.707627 0.696598
428 1 0.913052 0.729035 0.588838
429 1 0.894456 0.61265 0.699319
409 1 0.902748 0.502096 0.614897
499 1 0.892667 0.796178 0.908788
432 1 0.110822 0.90812 0.606886
433 1 0.104502 0.813733 0.704001
435 1 0.204641 0.820437 0.611856
438 1 0.222389 0.907931 0.707789
434 1 0.999431 0.905248 0.724008
431 1 0.0144242 0.807172 0.58925
384 1 0.205388 0.711999 0.513487
215 1 0.68295 0.992452 0.91478
436 1 0.308762 0.908474 0.602057
437 1 0.312211 0.80704 0.717462
439 1 0.39851 0.801642 0.617758
167 1 0.788326 0.996924 0.609339
498 1 0.897182 0.912824 0.800776
456 1 0.408512 0.511199 0.921399
442 1 0.39135 0.899942 0.726739
440 1 0.491864 0.885743 0.595339
441 1 0.502162 0.793115 0.699108
443 1 0.608725 0.793284 0.60744
400 1 0.790253 0.913254 0.50418
161 1 0.502031 0.98165 0.70065
446 1 0.596622 0.897619 0.696033
444 1 0.696078 0.899141 0.592448
445 1 0.712114 0.807637 0.692179
450 1 0.78426 0.9072 0.696876
153 1 0.0867368 0.991581 0.71394
391 1 0.117356 0.815433 0.501577
447 1 0.800314 0.815462 0.579258
448 1 0.908908 0.899947 0.599187
449 1 0.897503 0.816869 0.704542
494 1 0.714122 0.902967 0.807658
132 1 0.684079 0.997558 0.502332
462 1 0.108864 0.719065 0.78461
463 1 0.109427 0.572444 0.923269
468 1 0.187895 0.706065 0.897395
461 1 0.0128504 0.607929 0.79203
389 1 0.904946 0.615515 0.503312
481 1 0.996441 0.802631 0.808967
130 1 0.522159 0.976257 0.502042
496 1 0.583948 0.897795 0.915224
493 1 0.603014 0.790667 0.78241
465 1 0.181314 0.606472 0.790405
466 1 0.297489 0.6788 0.797364
467 1 0.280749 0.61095 0.908895
469 1 0.402346 0.585453 0.7912
495 1 0.680253 0.815363 0.890516
472 1 0.388785 0.679781 0.900159
470 1 0.484829 0.694656 0.795853
471 1 0.511167 0.589328 0.894618
489 1 0.390969 0.78855 0.814214
476 1 0.581382 0.688461 0.886539
473 1 0.600072 0.592059 0.790796
474 1 0.717577 0.704372 0.798294
475 1 0.69681 0.604148 0.887087
274 1 0.69125 0.702079 0.988206
491 1 0.480466 0.774329 0.906197
464 1 0.018766 0.695653 0.88243
477 1 0.79253 0.595856 0.799732
480 1 0.812597 0.695534 0.908549
478 1 0.894315 0.712901 0.784578
479 1 0.896141 0.608978 0.876651
488 1 0.213634 0.891644 0.927323
484 1 0.00296135 0.912689 0.899163
487 1 0.298833 0.783224 0.917284
490 1 0.500042 0.871176 0.806374
486 1 0.293439 0.892799 0.821914
482 1 0.124701 0.90496 0.812256
485 1 0.212145 0.798995 0.792986
483 1 0.108005 0.813724 0.896836
492 1 0.410598 0.884008 0.916601
452 1 0.992123 0.515751 0.902648
278 1 0.896028 0.687662 0.998137
404 1 0.191225 0.505712 0.693408
405 1 0.495078 0.501123 0.579179
453 1 0.293366 0.517376 0.783528
159 1 0.405566 0.996292 0.601503
392 1 0.0134777 0.899677 0.504527
126 1 0.10257 0.998655 0.509805
277 1 0.806019 0.584781 0.984859
281 1 0.996552 0.802209 0.984731
261 1 0.00214092 0.618256 0.999907
293 1 0.581386 0.791001 0.996319
134 1 0.891972 0.995073 0.506191
253 1 0.296285 0.517605 0.996547
