ITEM: TIMESTEP
3500
ITEM: NUMBER OF ATOMS
2048
ITEM: BOX BOUNDS pp pp pp
0.0000000000000000e+00 4.2079999999999998e+01
0.0000000000000000e+00 4.2079999999999998e+01
0.0000000000000000e+00 4.2079999999999998e+01
ITEM: ATOMS id type xs ys zs
35 1 0.0648251 0.12943 0.0619633
4 1 0.000477385 0.0634101 0.0561324
161 1 0.0120568 0.115587 0.131862
1175 1 0.685582 0.488916 0.185856
1415 1 0.183605 0.498802 0.430907
8 1 0.124061 0.0667482 0.0711953
134 1 0.187385 0.0623208 0.131344
285 1 0.884167 0.000133573 0.259693
110 1 0.441802 0.435348 0.00050517
12 1 0.249419 0.0483779 0.0654565
16 1 0.369704 0.0438082 0.067439
267 1 0.299784 0.00462429 0.315832
138 1 0.310955 0.057796 0.118895
1439 1 0.940756 0.496806 0.440527
512 1 0.87176 0.436992 0.435639
142 1 0.440423 0.0483339 0.13033
407 1 0.694815 0.00639234 0.439302
1431 1 0.694211 0.493244 0.437036
606 1 0.940802 0.314348 0.492785
20 1 0.497915 0.0612957 0.0678418
146 1 0.565458 0.0582266 0.128411
51 1 0.568869 0.138045 0.0711267
401 1 0.495592 0.00583015 0.389513
19 1 0.563862 0.00394133 0.0605161
1179 1 0.81373 0.497926 0.191134
24 1 0.629394 0.0568638 0.0607494
55 1 0.680914 0.136129 0.0714193
1425 1 0.492354 0.488217 0.370328
159 1 0.94508 0.0027107 0.192607
28 1 0.755827 0.0665711 0.0739049
59 1 0.819854 0.119329 0.0765712
1423 1 0.441064 0.496704 0.442197
154 1 0.820188 0.049513 0.142133
32 1 0.877217 0.0575249 0.0708921
158 1 0.936948 0.0598076 0.128061
151 1 0.684278 0.00291507 0.196938
162 1 0.0532661 0.191095 0.129938
67 1 0.0591561 0.250318 0.0642014
36 1 0.994841 0.180867 0.0679615
39 1 0.186527 0.11302 0.0640257
40 1 0.13197 0.174885 0.058721
44 1 0.250207 0.18965 0.0759924
166 1 0.202144 0.193991 0.134555
169 1 0.253794 0.11409 0.124154
43 1 0.307223 0.129624 0.0638808
170 1 0.3212 0.184946 0.124541
75 1 0.312679 0.239912 0.0534813
47 1 0.449709 0.133427 0.0618725
48 1 0.382016 0.182059 0.0544538
79 1 0.432426 0.245454 0.0653845
52 1 0.503517 0.190646 0.0642
83 1 0.565697 0.256651 0.0625043
56 1 0.615261 0.197071 0.0708873
178 1 0.558286 0.200493 0.130109
1169 1 0.509828 0.493726 0.134389
182 1 0.681574 0.19666 0.125247
185 1 0.74524 0.127046 0.121528
60 1 0.742413 0.177879 0.063422
217 1 0.740685 0.2454 0.123143
186 1 0.807894 0.182862 0.131304
86 1 0.681438 0.319593 0.00914063
1291 1 0.31349 0.496217 0.311594
64 1 0.878091 0.189529 0.0803503
63 1 0.945368 0.118971 0.0740001
189 1 0.881604 0.124228 0.124855
190 1 0.946843 0.180466 0.129752
601 1 0.754028 0.249722 0.495356
193 1 0.99681 0.253559 0.120159
194 1 0.0654664 0.324388 0.131398
197 1 0.127684 0.243178 0.118889
71 1 0.190544 0.244898 0.0646144
72 1 0.127534 0.305676 0.058788
76 1 0.248618 0.306514 0.059622
198 1 0.191371 0.310754 0.11969
107 1 0.307183 0.38217 0.0656277
80 1 0.373933 0.315943 0.0650822
206 1 0.426628 0.313148 0.130793
84 1 0.497537 0.306101 0.0626614
88 1 0.614726 0.316738 0.0670353
115 1 0.55962 0.376711 0.0700445
393 1 0.245137 0.00476746 0.379795
87 1 0.678372 0.250462 0.0648813
387 1 0.0589732 0.00774182 0.439022
92 1 0.740295 0.30288 0.0668197
91 1 0.801742 0.248923 0.0736062
1167 1 0.440156 0.495769 0.185279
95 1 0.94413 0.246957 0.0611933
96 1 0.871298 0.3184 0.0774684
68 1 0.00833935 0.317467 0.0675075
225 1 0.993961 0.381282 0.13006
127 1 0.942538 0.377446 0.0417156
222 1 0.939559 0.325839 0.127885
277 1 0.621545 0.00244788 0.248799
508 1 0.75317 0.436643 0.436708
99 1 0.0535744 0.380696 0.0732664
229 1 0.140567 0.378243 0.12124
226 1 0.0692787 0.443557 0.119883
104 1 0.132083 0.436312 0.0565465
103 1 0.184964 0.369028 0.0529344
230 1 0.189716 0.446075 0.123831
233 1 0.239729 0.38216 0.120341
506 1 0.819149 0.431552 0.364201
108 1 0.256521 0.440411 0.0646766
1051 1 0.806545 0.488071 0.0639232
1427 1 0.56691 0.499994 0.442514
111 1 0.440413 0.365534 0.0696456
112 1 0.381105 0.435466 0.0595424
237 1 0.37835 0.374088 0.113768
102 1 0.196611 0.441825 0.0118145
245 1 0.624832 0.370298 0.128703
116 1 0.508812 0.440569 0.0533286
120 1 0.632984 0.429583 0.0646596
1155 1 0.0669547 0.499771 0.175254
637 1 0.871665 0.382302 0.497626
145 1 0.504969 0.00474264 0.123643
119 1 0.688342 0.370419 0.0673703
1299 1 0.558766 0.492789 0.313009
23 1 0.688387 0.00208009 0.0586196
1295 1 0.434889 0.497231 0.301273
57 1 0.754284 0.132297 0.0089076
123 1 0.805409 0.370999 0.0751145
124 1 0.745535 0.435071 0.075142
502 1 0.701048 0.44107 0.372908
505 1 0.755194 0.384228 0.377858
100 1 0.992365 0.436192 0.0732276
128 1 0.875892 0.449512 0.0532719
54 1 0.67891 0.182408 0.00259258
254 1 0.928403 0.432613 0.119325
1297 1 0.501527 0.498092 0.256001
130 1 0.0706032 0.0515413 0.135223
258 1 0.0711561 0.0557022 0.24739
165 1 0.106628 0.128867 0.130073
289 1 0.00533056 0.117114 0.25213
7 1 0.179134 0.00865764 0.0706375
136 1 0.135311 0.0637415 0.192288
140 1 0.254256 0.0496494 0.192303
293 1 0.135533 0.127521 0.247558
144 1 0.378461 0.0497641 0.176646
266 1 0.320003 0.0503112 0.244159
297 1 0.255342 0.118844 0.239858
173 1 0.376224 0.117886 0.109367
270 1 0.42929 0.0587257 0.241404
1437 1 0.880967 0.499859 0.372381
148 1 0.500299 0.067696 0.180552
274 1 0.559775 0.0668681 0.248098
179 1 0.553753 0.122907 0.194266
395 1 0.320071 0.00217487 0.424863
152 1 0.622323 0.0674396 0.192438
150 1 0.689035 0.0585305 0.11644
156 1 0.741496 0.0653615 0.18106
309 1 0.618465 0.123734 0.253013
1307 1 0.82387 0.496554 0.314623
500 1 0.482239 0.431334 0.431197
499 1 0.557544 0.372022 0.428826
282 1 0.817314 0.0628608 0.252841
504 1 0.636236 0.421777 0.435512
495 1 0.430843 0.366264 0.443063
132 1 0.00242708 0.0642841 0.19476
160 1 0.882391 0.056332 0.197431
497 1 0.49431 0.373904 0.383732
163 1 0.0690893 0.116617 0.201075
164 1 0.00476168 0.174813 0.192793
290 1 0.0661044 0.193332 0.256217
168 1 0.127644 0.191241 0.182465
167 1 0.195389 0.125925 0.182278
294 1 0.199256 0.186374 0.237866
171 1 0.321199 0.103292 0.187125
172 1 0.266546 0.182503 0.190391
298 1 0.316779 0.189665 0.250349
176 1 0.382018 0.183148 0.193482
175 1 0.430756 0.11456 0.176424
174 1 0.438279 0.18631 0.129798
207 1 0.435569 0.249744 0.191284
181 1 0.620174 0.124886 0.136061
177 1 0.496231 0.124511 0.125794
213 1 0.629535 0.252391 0.139008
180 1 0.489415 0.178257 0.190194
184 1 0.618508 0.188592 0.188586
183 1 0.679185 0.120473 0.182234
310 1 0.683779 0.179816 0.255444
187 1 0.810071 0.120991 0.188127
188 1 0.740873 0.184741 0.185636
314 1 0.806086 0.186499 0.242502
313 1 0.743829 0.112858 0.248106
191 1 0.941127 0.117294 0.194001
192 1 0.876248 0.173127 0.195696
223 1 0.946725 0.248898 0.192514
318 1 0.947527 0.189894 0.241299
195 1 0.0493204 0.247422 0.190595
322 1 0.0598042 0.313067 0.239813
200 1 0.119942 0.299522 0.1843
321 1 0.0014973 0.250737 0.254978
325 1 0.12466 0.247945 0.249654
201 1 0.251269 0.251459 0.126384
199 1 0.191943 0.246228 0.18937
329 1 0.251022 0.252019 0.242915
204 1 0.247917 0.333586 0.183878
326 1 0.175504 0.308216 0.246823
205 1 0.36605 0.24882 0.110607
202 1 0.303614 0.312806 0.123699
203 1 0.312424 0.256845 0.187058
208 1 0.369581 0.313951 0.191698
239 1 0.438239 0.362908 0.20096
210 1 0.555358 0.302638 0.129341
209 1 0.490005 0.249314 0.130824
211 1 0.555128 0.247611 0.197113
212 1 0.498687 0.308413 0.18898
216 1 0.624152 0.303335 0.199123
214 1 0.684825 0.30887 0.139744
215 1 0.684101 0.247872 0.198419
247 1 0.686901 0.37759 0.191803
342 1 0.689087 0.313091 0.250735
249 1 0.748093 0.361545 0.129422
221 1 0.878736 0.255525 0.136607
218 1 0.808624 0.301576 0.126858
220 1 0.753799 0.304581 0.197957
219 1 0.819614 0.256451 0.193435
251 1 0.816131 0.37873 0.186918
196 1 0.00153863 0.322108 0.184136
224 1 0.881073 0.316513 0.195702
1177 1 0.751331 0.492737 0.125118
227 1 0.0733104 0.374078 0.187787
232 1 0.127292 0.44073 0.182482
228 1 0.00454726 0.443015 0.177263
354 1 0.0535083 0.437544 0.245038
231 1 0.179262 0.375396 0.197593
553 1 0.25313 0.137756 0.497726
361 1 0.244228 0.370137 0.251257
357 1 0.117691 0.393746 0.25245
358 1 0.192121 0.453475 0.243391
234 1 0.323867 0.440283 0.113283
236 1 0.250795 0.445707 0.174763
235 1 0.306815 0.386571 0.189779
118 1 0.696215 0.428675 0.00875545
238 1 0.437118 0.435414 0.112186
240 1 0.384108 0.430979 0.181457
244 1 0.514746 0.435877 0.196415
385 1 0.00440266 0.00777966 0.384694
369 1 0.495643 0.374624 0.255156
496 1 0.368473 0.448869 0.43067
241 1 0.499488 0.372912 0.127343
243 1 0.56292 0.365968 0.193732
373 1 0.627833 0.373918 0.26134
242 1 0.570569 0.434208 0.121433
490 1 0.31224 0.435927 0.369665
121 1 0.752572 0.363838 0.00066342
246 1 0.688102 0.42918 0.134098
248 1 0.619398 0.431235 0.187715
374 1 0.686253 0.440692 0.267826
253 1 0.868459 0.374186 0.131214
252 1 0.756866 0.438643 0.194354
250 1 0.805306 0.430294 0.131032
256 1 0.86877 0.432771 0.199476
89 1 0.75319 0.242006 0.015614
255 1 0.932186 0.388856 0.181981
30 1 0.928649 0.0607506 0.00451999
382 1 0.950215 0.445964 0.257469
489 1 0.247032 0.387246 0.368371
260 1 0.0104203 0.0646527 0.318039
386 1 0.0677105 0.0670346 0.374796
264 1 0.139477 0.0599886 0.305617
488 1 0.123196 0.436929 0.431149
492 1 0.244221 0.445692 0.451474
262 1 0.190871 0.0553299 0.251405
295 1 0.18977 0.136352 0.303156
390 1 0.186188 0.0705026 0.372078
301 1 0.381394 0.121451 0.243333
268 1 0.242289 0.0636326 0.30723
272 1 0.384902 0.069418 0.312762
299 1 0.307637 0.124668 0.312659
394 1 0.305694 0.0714532 0.37842
1413 1 0.114444 0.496563 0.385289
93 1 0.877354 0.244813 0.0228322
486 1 0.182276 0.438424 0.378128
303 1 0.43597 0.13702 0.316707
398 1 0.43855 0.0725139 0.375921
482 1 0.0639972 0.441225 0.378276
276 1 0.485992 0.0698527 0.309394
433 1 0.502585 0.12597 0.381861
484 1 0.00614124 0.444441 0.443368
437 1 0.620821 0.117721 0.376596
278 1 0.679073 0.0682563 0.251406
280 1 0.621243 0.0570355 0.321497
33 1 0.995883 0.132041 0.00796956
149 1 0.622344 0.000299807 0.130029
284 1 0.745687 0.0625419 0.319614
288 1 0.882217 0.0580292 0.314221
286 1 0.948476 0.0601188 0.26969
319 1 0.941383 0.137919 0.306539
414 1 0.937566 0.0595153 0.377103
445 1 0.886733 0.120597 0.370854
291 1 0.0621611 0.125583 0.305766
292 1 0.00466965 0.184105 0.312209
323 1 0.0576536 0.253607 0.305602
449 1 0.00111752 0.250268 0.366272
421 1 0.131491 0.124436 0.360835
296 1 0.11813 0.199134 0.319342
422 1 0.193412 0.192972 0.373173
300 1 0.247027 0.198697 0.315201
457 1 0.244365 0.259321 0.379205
453 1 0.126691 0.256441 0.373157
333 1 0.360467 0.257297 0.25984
461 1 0.374986 0.248143 0.377006
426 1 0.314756 0.193942 0.385316
302 1 0.436057 0.197404 0.259125
304 1 0.370743 0.186238 0.316908
335 1 0.440118 0.257133 0.320158
430 1 0.441559 0.194088 0.37962
337 1 0.491503 0.257961 0.252202
307 1 0.559713 0.116698 0.309481
308 1 0.495327 0.192034 0.32121
305 1 0.479485 0.122364 0.245211
306 1 0.554164 0.182655 0.254667
339 1 0.547933 0.263447 0.316189
341 1 0.619155 0.243339 0.262283
311 1 0.683754 0.120026 0.323615
312 1 0.622435 0.176841 0.313265
343 1 0.684758 0.240189 0.306265
469 1 0.629514 0.255634 0.371821
345 1 0.750777 0.241566 0.247839
317 1 0.879286 0.116471 0.256495
315 1 0.817197 0.121745 0.307954
316 1 0.753097 0.177666 0.30281
347 1 0.812635 0.248436 0.318792
349 1 0.882896 0.244567 0.246273
320 1 0.875977 0.189523 0.309672
446 1 0.939816 0.182646 0.375702
351 1 0.942682 0.249967 0.316003
328 1 0.128477 0.317354 0.31358
324 1 0.00538918 0.320496 0.311132
355 1 0.0659741 0.372735 0.318254
450 1 0.0569157 0.320479 0.383102
481 1 0.993931 0.390769 0.385334
327 1 0.186165 0.25391 0.309479
485 1 0.123883 0.380791 0.368493
454 1 0.188398 0.319223 0.375729
332 1 0.243084 0.31452 0.313975
330 1 0.30567 0.311262 0.248113
331 1 0.30209 0.258199 0.320592
336 1 0.369785 0.311208 0.327561
458 1 0.302196 0.325041 0.371762
493 1 0.368611 0.378072 0.377129
334 1 0.428601 0.308068 0.260248
340 1 0.49093 0.322993 0.31451
338 1 0.55815 0.312729 0.257737
371 1 0.563093 0.369596 0.322709
344 1 0.631296 0.310407 0.314656
470 1 0.69541 0.306464 0.368779
375 1 0.706613 0.378017 0.315028
381 1 0.871454 0.371056 0.248787
346 1 0.813925 0.306307 0.256441
377 1 0.752413 0.370278 0.247811
348 1 0.745193 0.297708 0.304338
379 1 0.817287 0.368604 0.316391
474 1 0.802874 0.315119 0.37301
350 1 0.95294 0.32138 0.249315
352 1 0.877636 0.312463 0.304581
383 1 0.930188 0.37864 0.311927
1301 1 0.623086 0.489718 0.252847
353 1 0.00987457 0.375756 0.256523
356 1 0.00266177 0.436772 0.315083
360 1 0.127616 0.446176 0.315752
359 1 0.183312 0.392981 0.301583
364 1 0.255234 0.436299 0.299506
1173 1 0.633662 0.494796 0.130643
362 1 0.323306 0.449318 0.245588
363 1 0.312528 0.377969 0.310035
368 1 0.370092 0.440724 0.317617
365 1 0.372265 0.371086 0.252071
366 1 0.426978 0.433172 0.245747
367 1 0.426476 0.372661 0.318442
494 1 0.429129 0.431133 0.372078
498 1 0.565761 0.449243 0.383009
370 1 0.558897 0.433524 0.258986
372 1 0.489264 0.432223 0.313101
376 1 0.627044 0.435057 0.323711
380 1 0.76295 0.447029 0.315248
69 1 0.114541 0.244011 0.00494437
1421 1 0.37035 0.499243 0.373541
378 1 0.816653 0.430474 0.256338
510 1 0.931037 0.444571 0.374313
384 1 0.880043 0.44312 0.308678
509 1 0.872643 0.370587 0.379985
550 1 0.188632 0.197311 0.496149
419 1 0.0660114 0.128774 0.419353
392 1 0.130509 0.0738098 0.434936
477 1 0.868725 0.254298 0.370971
74 1 0.311629 0.321007 0.00428503
1043 1 0.567492 0.492829 0.0618488
425 1 0.245528 0.131536 0.36966
396 1 0.249135 0.0782852 0.442145
1305 1 0.762005 0.49323 0.255345
85 1 0.618657 0.243161 0.000550799
400 1 0.371934 0.0641085 0.439024
427 1 0.309811 0.130882 0.440753
429 1 0.380602 0.123214 0.381496
1181 1 0.873727 0.496484 0.140601
479 1 0.940922 0.244483 0.429137
431 1 0.431229 0.14335 0.443268
275 1 0.550332 0.00202484 0.31792
404 1 0.491392 0.0711435 0.446848
402 1 0.562201 0.0582907 0.384364
435 1 0.563304 0.118839 0.443019
279 1 0.687654 0.00756532 0.300864
480 1 0.872694 0.308189 0.440862
441 1 0.755756 0.117184 0.376835
408 1 0.625462 0.0540246 0.440119
406 1 0.689672 0.0547727 0.3779
439 1 0.678225 0.123212 0.438069
549 1 0.135589 0.136463 0.49389
410 1 0.808635 0.0614644 0.364521
412 1 0.74778 0.0652686 0.436262
416 1 0.872365 0.0567899 0.432194
443 1 0.810664 0.133299 0.446268
417 1 0.993959 0.123385 0.368295
388 1 0.999843 0.0710797 0.43877
447 1 0.930214 0.11621 0.439265
3 1 0.06259 0.0083841 0.0580479
418 1 0.0667718 0.198527 0.372723
424 1 0.129013 0.188243 0.419724
451 1 0.0467082 0.24236 0.440719
62 1 0.929976 0.17932 0.0171099
507 1 0.811658 0.380335 0.442274
423 1 0.189284 0.135295 0.439978
455 1 0.186785 0.261597 0.440591
428 1 0.253098 0.190142 0.434494
1039 1 0.451832 0.49921 0.0575222
411 1 0.802787 0.00555074 0.431271
432 1 0.368463 0.194346 0.453404
459 1 0.310164 0.258971 0.432516
77 1 0.3661 0.252027 0.0006592
436 1 0.513483 0.185376 0.431564
434 1 0.570129 0.194031 0.365819
467 1 0.56382 0.248909 0.434049
281 1 0.753252 0.00780267 0.247185
22 1 0.687002 0.0698764 0.00208811
440 1 0.620008 0.184449 0.443405
471 1 0.690478 0.247865 0.429309
438 1 0.682604 0.188247 0.374182
473 1 0.74997 0.242484 0.368369
442 1 0.806735 0.18186 0.377074
444 1 0.743767 0.184434 0.445136
475 1 0.811988 0.243515 0.429801
420 1 0.00127247 0.179067 0.43295
448 1 0.878967 0.183494 0.432516
483 1 0.0630927 0.384946 0.430003
456 1 0.118911 0.311243 0.437598
452 1 0.00345521 0.322002 0.440632
487 1 0.18777 0.380322 0.435694
460 1 0.251268 0.323997 0.433208
602 1 0.816236 0.30587 0.497821
614 1 0.183509 0.442474 0.495157
464 1 0.358786 0.319154 0.432187
491 1 0.306542 0.382801 0.433877
478 1 0.940071 0.316288 0.378646
462 1 0.439027 0.315055 0.383531
463 1 0.445065 0.257245 0.441499
468 1 0.497308 0.319705 0.44986
465 1 0.500297 0.251443 0.379079
511 1 0.934616 0.373944 0.441711
503 1 0.68878 0.373066 0.434606
466 1 0.550313 0.311221 0.382658
501 1 0.626601 0.375344 0.375807
472 1 0.625031 0.315826 0.421731
476 1 0.756567 0.313077 0.433379
518 1 0.198607 0.0674735 0.499929
58 1 0.809815 0.183706 0.0193078
598 1 0.689813 0.313778 0.486769
137 1 0.248372 0.00095142 0.125527
545 1 0.988792 0.120002 0.496239
399 1 0.420929 0.00329789 0.426576
514 1 0.0643362 0.0755868 0.495133
114 1 0.573452 0.439134 0.000152484
582 1 0.181078 0.317917 0.493992
585 1 0.252587 0.259052 0.487162
14 1 0.43928 0.0546359 0.000801283
389 1 0.126892 0.0013812 0.374196
90 1 0.832296 0.310618 0.00216634
593 1 0.497499 0.257721 0.499414
521 1 0.268402 0.00111515 0.490961
594 1 0.565477 0.307265 0.490515
1035 1 0.31999 0.494519 0.0523109
605 1 0.871122 0.243958 0.490184
1045 1 0.632494 0.489438 0.00149214
61 1 0.872077 0.115506 0.0108628
153 1 0.741853 0.000691836 0.124634
263 1 0.190219 0.000987915 0.322383
574 1 0.934443 0.195998 0.494027
610 1 0.068456 0.440901 0.4927
522 1 0.318143 0.068053 0.494023
50 1 0.568447 0.187177 0.000757779
538 1 0.81378 0.0702262 0.494955
109 1 0.373548 0.375912 0.00342947
626 1 0.566457 0.428061 0.486315
117 1 0.617591 0.37428 0.00617608
613 1 0.122083 0.380472 0.489631
49 1 0.518543 0.108854 0.00415004
517 1 0.127167 0.0102665 0.494421
101 1 0.132178 0.377 0.00161301
586 1 0.308431 0.317054 0.497474
554 1 0.303436 0.196729 0.496111
5 1 0.127184 0.0109759 0.00410917
41 1 0.236667 0.122866 0.00664816
10 1 0.298958 0.0657386 0.0106556
597 1 0.634037 0.243406 0.498757
621 1 0.366711 0.380691 0.487375
546 1 0.0522814 0.17326 0.495977
26 1 0.811971 0.0429682 0.0031644
609 1 0.00541596 0.377012 0.497486
1557 1 0.627445 0.491044 0.499386
625 1 0.493475 0.385436 0.496279
45 1 0.374507 0.114036 0.00702415
581 1 0.125955 0.244623 0.491272
2 1 0.0670907 0.0687263 0.00329311
589 1 0.367672 0.263582 0.487896
37 1 0.12942 0.118127 0.00275592
618 1 0.306984 0.442168 0.49987
113 1 0.497755 0.376378 0.00117985
520 1 0.124819 0.0628414 0.562018
547 1 0.0621348 0.118311 0.561278
1023 1 0.944267 0.376919 0.92594
673 1 0.00619273 0.114199 0.617209
996 1 0.00415918 0.437599 0.929685
524 1 0.254535 0.0785156 0.557599
1807 1 0.441643 0.498219 0.815661
669 1 0.871282 0.000993361 0.622237
650 1 0.307024 0.0677641 0.616386
543 1 0.930617 0.00147432 0.558704
903 1 0.187773 0.00227953 0.933982
528 1 0.384541 0.0647191 0.566823
532 1 0.493107 0.0657424 0.56646
917 1 0.629005 0.00132457 0.865343
1673 1 0.254423 0.49846 0.620213
536 1 0.62052 0.0608198 0.570784
540 1 0.746369 0.0629452 0.575242
567 1 0.687649 0.124896 0.567606
915 1 0.564727 0.00149167 0.931772
571 1 0.811105 0.130075 0.571173
666 1 0.814151 0.0715983 0.635247
797 1 0.864926 0.00805136 0.746348
544 1 0.859325 0.0646693 0.559568
516 1 0.991 0.0505385 0.548557
1821 1 0.880028 0.499263 0.740631
575 1 0.939172 0.133336 0.554217
548 1 0.994047 0.184458 0.56226
552 1 0.121058 0.191921 0.561257
579 1 0.0615753 0.250066 0.564866
551 1 0.190167 0.133294 0.558703
583 1 0.191141 0.252427 0.553721
21 1 0.640953 0.000557687 0.993044
561 1 0.501446 0.127315 0.506426
556 1 0.250405 0.204531 0.569527
555 1 0.327297 0.129634 0.560968
587 1 0.309671 0.264164 0.553657
573 1 0.868935 0.123886 0.509344
560 1 0.366543 0.201386 0.55356
559 1 0.430782 0.138054 0.569107
591 1 0.437775 0.250886 0.564062
564 1 0.505158 0.20003 0.562373
122 1 0.809071 0.447419 0.993278
563 1 0.561697 0.121523 0.566083
721 1 0.499009 0.261951 0.628062
568 1 0.631694 0.187459 0.565041
595 1 0.56386 0.251591 0.560005
725 1 0.625058 0.236121 0.626007
697 1 0.751617 0.128246 0.637277
572 1 0.748056 0.194969 0.563906
599 1 0.683236 0.246193 0.56271
643 1 0.0632809 0.00939181 0.686026
698 1 0.816018 0.179825 0.625317
6 1 0.195243 0.055504 0.994839
576 1 0.875168 0.187362 0.557916
607 1 0.934135 0.252081 0.562693
899 1 0.0566511 0.00774763 0.934233
773 1 0.117389 0.00826964 0.752606
795 1 0.815355 0.00604513 0.817052
709 1 0.121779 0.245091 0.631392
706 1 0.0572893 0.313767 0.627256
1561 1 0.743141 0.495292 0.503213
584 1 0.124562 0.300865 0.56905
588 1 0.243454 0.313063 0.553646
515 1 0.0684261 0.0101968 0.554529
710 1 0.174821 0.319501 0.622746
592 1 0.370941 0.312 0.559019
619 1 0.320404 0.373844 0.559578
714 1 0.310983 0.323704 0.624762
630 1 0.690314 0.429074 0.505482
623 1 0.431075 0.369435 0.552348
749 1 0.375326 0.374659 0.622841
753 1 0.50513 0.373056 0.621097
718 1 0.43895 0.315613 0.624457
655 1 0.421771 0.000508649 0.689457
596 1 0.498451 0.322077 0.554706
600 1 0.624784 0.306936 0.559684
627 1 0.554989 0.370488 0.551435
722 1 0.560772 0.313592 0.617055
604 1 0.747723 0.307636 0.560219
757 1 0.62452 0.377292 0.613857
603 1 0.825113 0.244072 0.559307
635 1 0.809313 0.370206 0.56083
730 1 0.81793 0.306203 0.61645
580 1 0.995331 0.313333 0.563064
608 1 0.86976 0.314903 0.560812
639 1 0.935269 0.367032 0.553082
765 1 0.869361 0.37349 0.614512
537 1 0.756745 0.00994867 0.511371
1813 1 0.613439 0.497185 0.745143
1823 1 0.937568 0.497534 0.810267
611 1 0.0616238 0.375143 0.563813
616 1 0.127656 0.445602 0.5697
612 1 0.00124642 0.44512 0.560406
738 1 0.0655192 0.440406 0.614404
1024 1 0.877654 0.430741 0.932553
1559 1 0.683413 0.495029 0.572022
527 1 0.442426 0.00436819 0.577221
615 1 0.173514 0.371202 0.557175
1943 1 0.698631 0.495411 0.931675
1941 1 0.619347 0.495931 0.867304
620 1 0.249115 0.44118 0.569711
106 1 0.317974 0.432662 0.988926
1019 1 0.804415 0.379199 0.943713
534 1 0.687279 0.0565339 0.505752
1921 1 0.0040118 0.49835 0.865184
624 1 0.383669 0.443234 0.552996
628 1 0.496138 0.432704 0.567298
1020 1 0.749273 0.436633 0.941543
1947 1 0.820174 0.498181 0.930921
1017 1 0.743117 0.378755 0.889363
1037 1 0.383527 0.494946 0.994948
754 1 0.564164 0.437079 0.622398
632 1 0.615725 0.436381 0.560659
631 1 0.697006 0.366751 0.556379
758 1 0.689499 0.43931 0.636769
641 1 0.995545 0.00751631 0.622113
636 1 0.742132 0.43079 0.561736
762 1 0.806182 0.448177 0.61494
640 1 0.868423 0.444804 0.569785
766 1 0.935592 0.431226 0.620819
1014 1 0.686767 0.44337 0.868201
97 1 0.00856693 0.382823 0.994752
677 1 0.13158 0.130543 0.622719
642 1 0.070659 0.0617764 0.622596
770 1 0.0565414 0.0665929 0.743566
644 1 0.997167 0.0635528 0.684571
805 1 0.131924 0.12365 0.743584
648 1 0.131123 0.0629923 0.687661
801 1 0.998335 0.13328 0.744855
646 1 0.189041 0.0712161 0.61542
1695 1 0.938551 0.488503 0.68635
774 1 0.18681 0.0524446 0.755721
679 1 0.195148 0.120654 0.679713
652 1 0.252224 0.0607562 0.691492
645 1 0.139792 0.0091818 0.618726
656 1 0.378529 0.0749771 0.687132
683 1 0.316689 0.127368 0.680175
813 1 0.365312 0.139394 0.745403
654 1 0.438869 0.0691207 0.632388
687 1 0.444496 0.122114 0.687888
660 1 0.499251 0.0639988 0.696336
73 1 0.251492 0.253087 0.995619
658 1 0.555905 0.0602638 0.626274
664 1 0.624467 0.0512366 0.688194
691 1 0.562462 0.125861 0.686911
693 1 0.62187 0.12258 0.634235
662 1 0.687338 0.0526828 0.627383
695 1 0.684923 0.119314 0.681745
668 1 0.7478 0.0633824 0.698432
825 1 0.753077 0.128341 0.75594
1551 1 0.443255 0.499811 0.568665
699 1 0.817595 0.134724 0.689496
769 1 0.999752 0.00714382 0.742316
1012 1 0.509489 0.438626 0.942874
1016 1 0.624 0.44296 0.935195
672 1 0.878735 0.069939 0.681742
670 1 0.93347 0.0688629 0.609297
798 1 0.941498 0.0636733 0.7455
675 1 0.0725957 0.138575 0.692561
674 1 0.0580286 0.182693 0.627891
676 1 0.997782 0.197324 0.694084
707 1 0.0659029 0.250668 0.693211
681 1 0.2496 0.136317 0.609963
678 1 0.183826 0.197192 0.621974
680 1 0.136684 0.190911 0.690041
684 1 0.246501 0.200177 0.678469
806 1 0.19028 0.190046 0.747895
809 1 0.251464 0.122765 0.73812
682 1 0.310808 0.20762 0.622454
713 1 0.237857 0.268163 0.623736
810 1 0.306319 0.191139 0.740839
686 1 0.439494 0.192565 0.637171
689 1 0.495809 0.136133 0.626165
688 1 0.365431 0.192776 0.68079
685 1 0.375247 0.127481 0.626502
814 1 0.435377 0.196629 0.740117
817 1 0.484846 0.125278 0.755172
692 1 0.501273 0.190182 0.686757
690 1 0.562547 0.187767 0.620564
696 1 0.630682 0.188858 0.699396
694 1 0.683741 0.182894 0.630573
700 1 0.748995 0.189436 0.693274
727 1 0.679897 0.245771 0.68259
729 1 0.75307 0.244063 0.626542
822 1 0.694415 0.191227 0.756226
857 1 0.748561 0.246076 0.747134
731 1 0.809158 0.244968 0.687012
704 1 0.881376 0.179004 0.684666
826 1 0.818929 0.192587 0.745327
701 1 0.880512 0.126732 0.625255
702 1 0.938587 0.192161 0.612568
703 1 0.95125 0.135887 0.670776
735 1 0.935136 0.245109 0.684066
705 1 0.995537 0.250566 0.622603
712 1 0.118062 0.30695 0.685691
837 1 0.131877 0.25735 0.749148
737 1 0.999101 0.386212 0.629278
708 1 0.990163 0.31602 0.681843
739 1 0.050565 0.375172 0.692992
834 1 0.0558796 0.310946 0.748882
711 1 0.181702 0.263363 0.687602
743 1 0.178015 0.377792 0.675649
716 1 0.247223 0.3218 0.6934
873 1 0.245778 0.374191 0.749448
717 1 0.376753 0.255223 0.627917
715 1 0.306158 0.260934 0.689311
841 1 0.244435 0.257512 0.748098
747 1 0.315379 0.369884 0.696132
720 1 0.376939 0.314039 0.689918
719 1 0.431688 0.259748 0.689543
751 1 0.435018 0.37693 0.687255
845 1 0.373401 0.245139 0.751519
881 1 0.503204 0.373122 0.753239
846 1 0.44141 0.316251 0.745165
723 1 0.557662 0.250729 0.680382
724 1 0.50789 0.317301 0.689509
728 1 0.614486 0.302717 0.684637
853 1 0.619679 0.253245 0.746356
726 1 0.681012 0.32252 0.622346
759 1 0.693304 0.364609 0.689152
854 1 0.67686 0.315023 0.753253
889 1 0.762787 0.36819 0.741447
732 1 0.742425 0.301163 0.678499
736 1 0.879387 0.313156 0.673428
761 1 0.75814 0.368463 0.622126
858 1 0.810813 0.301446 0.757844
733 1 0.873232 0.238265 0.631738
734 1 0.928514 0.311716 0.609362
862 1 0.92505 0.304748 0.73766
767 1 0.932893 0.367233 0.678699
741 1 0.115615 0.378958 0.618091
866 1 0.0611322 0.435766 0.744678
744 1 0.129986 0.440822 0.683327
1008 1 0.378336 0.43954 0.925865
745 1 0.24889 0.372537 0.624426
742 1 0.185783 0.431669 0.614709
919 1 0.697267 0.00733825 0.939141
748 1 0.249898 0.431355 0.691862
746 1 0.316127 0.428524 0.628421
874 1 0.323115 0.433621 0.747474
1004 1 0.234856 0.437734 0.9333
750 1 0.431529 0.436851 0.624364
752 1 0.382841 0.444964 0.680304
756 1 0.496121 0.432378 0.675106
878 1 0.445261 0.433805 0.74711
53 1 0.623768 0.12891 0.997647
42 1 0.311817 0.189045 0.992276
1555 1 0.563015 0.494305 0.560499
755 1 0.568222 0.382915 0.683577
882 1 0.551505 0.440802 0.738884
885 1 0.619504 0.37467 0.74985
760 1 0.623294 0.439788 0.686499
886 1 0.685241 0.433976 0.746816
1001 1 0.246997 0.381078 0.885624
763 1 0.815669 0.361519 0.678887
764 1 0.749948 0.444771 0.696462
890 1 0.814657 0.430805 0.745373
1677 1 0.382846 0.49954 0.62309
768 1 0.869241 0.424907 0.680784
740 1 0.00345355 0.44489 0.674701
1819 1 0.812132 0.493154 0.802475
776 1 0.123309 0.0655855 0.812495
772 1 0.993728 0.0809736 0.813558
999 1 0.183594 0.373854 0.934969
780 1 0.248201 0.0545769 0.800311
998 1 0.171129 0.441641 0.875557
1935 1 0.44732 0.491105 0.942978
994 1 0.0826675 0.448253 0.87888
778 1 0.325019 0.0603756 0.752151
906 1 0.309247 0.0536727 0.867477
784 1 0.37385 0.0499081 0.82151
941 1 0.388811 0.122005 0.879556
782 1 0.429886 0.0547816 0.752128
788 1 0.494191 0.0636669 0.808473
1937 1 0.506257 0.491518 0.876796
786 1 0.549126 0.0637239 0.756203
821 1 0.634732 0.114848 0.745722
914 1 0.568563 0.0671561 0.859429
1000 1 0.137134 0.452477 0.958365
790 1 0.686578 0.0588033 0.756403
792 1 0.623751 0.0536434 0.803861
918 1 0.685487 0.062772 0.870881
794 1 0.813564 0.0725489 0.747737
796 1 0.748554 0.0638883 0.809033
800 1 0.873377 0.0723114 0.820521
1815 1 0.677556 0.498801 0.809219
829 1 0.884916 0.119356 0.753233
926 1 0.932897 0.0705365 0.881768
831 1 0.926357 0.13692 0.811649
802 1 0.070288 0.192424 0.763679
803 1 0.0692892 0.125655 0.804159
808 1 0.123141 0.187533 0.819128
930 1 0.0715525 0.184678 0.88398
807 1 0.18708 0.114912 0.81265
812 1 0.248331 0.190349 0.798296
811 1 0.31642 0.121205 0.815777
938 1 0.314807 0.188271 0.87072
815 1 0.416914 0.122486 0.806907
816 1 0.372106 0.190972 0.813011
847 1 0.431727 0.248785 0.808639
942 1 0.438217 0.191269 0.865098
820 1 0.5049 0.177293 0.813654
818 1 0.558097 0.195359 0.755977
819 1 0.561229 0.123689 0.799205
949 1 0.62791 0.125863 0.877942
823 1 0.678627 0.125568 0.806919
824 1 0.630908 0.188127 0.806665
855 1 0.695513 0.264858 0.814259
828 1 0.743964 0.19413 0.815683
827 1 0.815472 0.132717 0.809517
954 1 0.804225 0.183171 0.875425
859 1 0.797743 0.24991 0.82243
833 1 0.993337 0.246986 0.754032
861 1 0.874182 0.248999 0.74549
929 1 0.994553 0.127748 0.890778
804 1 0.00928344 0.181771 0.827961
830 1 0.935884 0.189649 0.745961
832 1 0.869054 0.196485 0.813165
869 1 0.119118 0.380887 0.735702
835 1 0.0620589 0.253976 0.818357
836 1 0.995351 0.308404 0.809818
993 1 0.00348134 0.368585 0.871973
838 1 0.182833 0.316131 0.751888
966 1 0.19064 0.31193 0.869312
839 1 0.179297 0.251643 0.815265
969 1 0.2539 0.248894 0.863584
840 1 0.120672 0.310627 0.814119
842 1 0.311686 0.315312 0.756373
843 1 0.310622 0.238846 0.807517
844 1 0.243899 0.318384 0.81346
1005 1 0.374127 0.367909 0.884806
849 1 0.491181 0.248825 0.760212
848 1 0.370071 0.317067 0.81138
851 1 0.566267 0.247673 0.812059
977 1 0.502197 0.240191 0.871414
850 1 0.555321 0.313856 0.753166
852 1 0.504522 0.31635 0.83644
883 1 0.556992 0.373611 0.812828
1013 1 0.636296 0.375087 0.881795
856 1 0.616049 0.314349 0.812654
860 1 0.753807 0.321634 0.815462
982 1 0.688742 0.315994 0.882067
985 1 0.73916 0.246839 0.876437
864 1 0.86537 0.318014 0.805821
986 1 0.796986 0.316546 0.877322
863 1 0.935997 0.254036 0.814713
961 1 0.999456 0.243132 0.882809
989 1 0.870312 0.255242 0.8671
990 1 0.926589 0.309367 0.881406
867 1 0.0583544 0.374385 0.80338
872 1 0.121828 0.432304 0.804337
868 1 0.996066 0.433578 0.810777
997 1 0.124714 0.373649 0.869663
1671 1 0.193488 0.493302 0.688503
870 1 0.177741 0.43838 0.744297
871 1 0.181273 0.381351 0.804648
1683 1 0.555839 0.495478 0.685087
876 1 0.239737 0.444954 0.810886
875 1 0.309286 0.37712 0.807044
1002 1 0.31327 0.439397 0.879771
877 1 0.376489 0.374541 0.751153
1006 1 0.434291 0.432314 0.873799
566 1 0.688898 0.183306 0.50319
880 1 0.378452 0.439859 0.800993
879 1 0.438952 0.365604 0.810615
1010 1 0.563625 0.432304 0.879572
1009 1 0.505218 0.379667 0.885353
884 1 0.502793 0.432434 0.820362
888 1 0.614597 0.432605 0.811045
1817 1 0.74295 0.499318 0.760517
887 1 0.687635 0.380527 0.814821
892 1 0.75128 0.436306 0.817673
1021 1 0.873388 0.382227 0.871153
1018 1 0.808771 0.436001 0.875395
893 1 0.858301 0.37313 0.751515
891 1 0.809238 0.373075 0.813991
896 1 0.874948 0.441019 0.796491
1022 1 0.937783 0.442196 0.876386
865 1 0.990721 0.367234 0.751334