ITEM: TIMESTEP
12250
ITEM: NUMBER OF ATOMS
864
ITEM: BOX BOUNDS pp pp pp
0.0000000000000000e+00 3.1559999999999999e+01
0.0000000000000000e+00 3.1559999999999999e+01
0.0000000000000000e+00 3.1559999999999999e+01
ITEM: ATOMS id type xs ys zs
4 1 1.00547 0.0740952 0.0855472
8 1 0.17652 0.0802593 0.090302
246 1 0.256465 0.241696 0.489304
27 1 0.0843896 0.191342 0.0819667
163 1 0.757543 0.00503021 0.408627
523 1 0.741135 0.503132 0.250173
277 1 0.492403 0.33096 0.514977
12 1 0.342605 0.0744444 0.0827275
35 1 0.425265 0.167702 0.0888792
82 1 0.427826 0.0880511 0.184017
105 1 0.335705 0.160372 0.155975
213 1 0.827967 0.325752 0.332115
16 1 0.493421 0.0807825 0.0981275
39 1 0.587289 0.159246 0.0889775
5 1 0.169224 0.0133699 0.00450199
20 1 0.668596 0.0807733 0.0847602
447 1 0.579696 0.488518 0.0697154
242 1 0.0680427 0.248829 0.501675
24 1 0.828336 0.0823644 0.086725
94 1 0.909255 0.0836978 0.166537
216 1 0.839234 0.409916 0.404648
509 1 0.174755 0.5054 0.161941
455 1 0.928616 0.496666 0.0896683
167 1 0.926434 -0.00639382 0.407191
517 1 0.499055 0.507406 0.164468
32 1 0.176226 0.251263 0.0788292
51 1 0.0969313 0.337837 0.0906873
595 1 0.746601 0.499974 0.413184
31 1 0.265194 0.176609 0.0716036
55 1 0.243841 0.340876 0.0782567
583 1 0.255372 0.5025 0.410579
36 1 0.358169 0.245251 0.0868453
106 1 0.429073 0.244483 0.16519
579 1 0.0826825 0.503167 0.414402
159 1 0.586594 -0.00363342 0.424461
40 1 0.50169 0.244243 0.0849501
63 1 0.570676 0.337715 0.0828055
109 1 0.51022 0.158794 0.167875
113 1 0.663573 0.171241 0.166813
110 1 0.575465 0.263426 0.172148
57 1 0.331057 0.313008 -0.00158096
44 1 0.655547 0.259798 0.0957231
43 1 0.72695 0.167496 0.078289
48 1 0.81832 0.239205 0.0864986
67 1 0.743961 0.325626 0.0659669
137 1 0.648601 0.349284 0.171079
28 1 -0.00969244 0.249552 0.0724401
47 1 0.909837 0.152504 0.0801945
147 1 0.0781058 0.000811517 0.39781
18 1 0.748244 0.061286 -0.00962175
52 1 1.00528 0.405966 0.0908815
56 1 0.174726 0.426667 0.0804171
591 1 0.587714 0.50912 0.42355
14 1 0.57098 0.079462 -0.0027754
77 1 0.17921 -0.00961844 0.176574
269 1 0.141378 0.330636 0.508606
60 1 0.325757 0.412688 0.0768126
59 1 0.411514 0.347907 0.0643965
64 1 0.487407 0.437438 0.0736564
134 1 0.574546 0.424327 0.156245
95 1 0.922601 0.00234817 0.244114
68 1 0.670501 0.398059 0.073639
79 1 0.255214 0.00217204 0.250856
73 1 0.00497541 0.00876903 0.171752
23 1 0.90882 -0.00191488 0.0774023
15 1 0.586586 -0.000851073 0.0824086
72 1 0.83436 0.394567 0.0735422
71 1 0.921697 0.334437 0.0887685
141 1 0.824128 0.323419 0.15201
74 1 0.0929714 0.100299 0.157178
99 1 0.090342 0.167704 0.237929
76 1 0.00333279 0.109031 0.252775
78 1 0.26681 0.0768418 0.164794
80 1 0.166505 0.0830685 0.242661
150 1 0.242231 0.0901627 0.320144
177 1 0.319517 0.157216 0.333328
84 1 0.341005 0.0842579 0.244582
88 1 0.508229 0.0792818 0.249629
214 1 0.922288 0.408865 0.312824
210 1 0.744646 0.40944 0.328236
154 1 0.414574 0.0716876 0.333858
86 1 0.593168 0.0831818 0.164143
158 1 0.588699 0.0929802 0.329738
92 1 0.674819 0.0986778 0.25682
111 1 0.574583 0.172248 0.251248
185 1 0.667849 0.171744 0.342073
181 1 0.50271 0.168183 0.333858
212 1 0.674589 0.419526 0.434821
90 1 0.739783 0.0910145 0.162137
115 1 0.744122 0.178193 0.249763
162 1 0.744651 0.0942449 0.343235
96 1 0.823406 0.0903637 0.245907
119 1 0.91692 0.173901 0.237214
3 1 0.100543 0.00675819 0.086936
98 1 0.0836965 0.253088 0.168288
104 1 0.164983 0.257723 0.238822
173 1 0.167676 0.168767 0.322943
101 1 0.170682 0.168462 0.155449
102 1 0.261646 0.255844 0.149541
103 1 0.248496 0.166613 0.234972
107 1 0.419766 0.163463 0.25518
178 1 0.38778 0.23903 0.326915
108 1 0.336186 0.247088 0.229443
131 1 0.423704 0.326285 0.241522
112 1 0.506348 0.245449 0.267697
116 1 0.664482 0.255089 0.262619
209 1 0.661671 0.355026 0.345239
182 1 0.580139 0.264076 0.337698
114 1 0.748434 0.249246 0.161689
120 1 0.818354 0.260362 0.24652
97 1 1.00137 0.15808 0.158322
100 1 1.0061 0.240731 0.242808
117 1 0.828712 0.166871 0.171502
118 1 0.917485 0.250745 0.157735
189 1 0.823481 0.166396 0.328094
121 1 1.00927 0.33461 0.159579
123 1 0.0801584 0.329339 0.24492
122 1 0.096955 0.411572 0.170003
124 1 0.0131287 0.407912 0.246911
129 1 0.330131 0.339817 0.160761
125 1 0.188133 0.327145 0.167929
127 1 0.254551 0.328049 0.255397
128 1 0.17378 0.413861 0.256607
126 1 0.255624 0.423716 0.1791
165 1 0.842955 -0.00892486 0.328289
521 1 0.649727 0.501744 0.169503
202 1 0.42141 0.406576 0.327724
130 1 0.408044 0.430794 0.151329
132 1 0.340671 0.412837 0.244353
38 1 0.583925 0.250781 0.00420528
249 1 0.325752 0.152809 0.509051
133 1 0.488165 0.351291 0.161901
581 1 0.169669 0.49934 0.338908
135 1 0.561933 0.339148 0.248646
136 1 0.496901 0.426541 0.249462
138 1 0.745937 0.403741 0.162991
151 1 0.232296 0.00329026 0.409063
139 1 0.731478 0.336967 0.247589
140 1 0.647821 0.41209 0.256224
144 1 0.826393 0.407648 0.25159
142 1 0.928019 0.415086 0.173347
143 1 0.909545 0.320302 0.234477
208 1 0.479575 0.395087 0.429559
146 1 0.0788481 0.103854 0.331959
171 1 0.0659793 0.175657 0.418189
152 1 0.151377 0.0962532 0.413042
148 1 -0.00165876 0.0861594 0.399604
519 1 0.58193 0.502077 0.258289
156 1 0.319087 0.0740226 0.430256
206 1 0.5774 0.422194 0.362
191 1 0.91591 0.163472 0.427379
197 1 0.163262 0.332382 0.330848
145 1 -0.00763909 -0.00454551 0.31831
160 1 0.510239 0.0933072 0.41828
164 1 0.660791 0.0871246 0.422927
183 1 0.581838 0.171549 0.416461
201 1 0.337172 0.335507 0.331904
215 1 0.924069 0.335705 0.405274
168 1 0.836725 0.091982 0.419719
190 1 0.912318 0.255957 0.321623
166 1 0.91015 0.0965906 0.302198
205 1 0.490583 0.335937 0.335913
194 1 0.0884455 0.418405 0.331995
91 1 0.736535 0.00108639 0.256959
169 1 -0.00302059 0.173514 0.328478
172 1 0.991319 0.248646 0.40632
170 1 0.0789477 0.255606 0.323606
198 1 0.260111 0.396123 0.339094
204 1 0.344404 0.409107 0.416449
196 1 -0.0114073 0.415882 0.408855
175 1 0.235255 0.177625 0.405862
176 1 0.166136 0.253666 0.405946
199 1 0.257956 0.315911 0.408836
174 1 0.266522 0.238941 0.322328
180 1 0.331356 0.229666 0.419829
195 1 0.0561687 0.318964 0.410544
203 1 0.410503 0.311075 0.415623
179 1 0.423425 0.164286 0.424692
184 1 0.499722 0.255499 0.412574
193 1 -0.0137317 0.322451 0.313782
200 1 0.15078 0.386699 0.423297
207 1 0.580928 0.334524 0.425159
188 1 0.673481 0.245949 0.426626
187 1 0.750008 0.167098 0.41958
186 1 0.736615 0.255373 0.345458
211 1 0.742772 0.332975 0.426282
192 1 0.824719 0.24482 0.421122
218 1 0.0840698 0.0926816 0.510053
70 1 0.91401 0.429296 0.00654604
266 1 0.0663231 0.418712 0.480164
585 1 0.342491 0.487114 0.339223
273 1 0.343268 0.320685 0.501489
250 1 0.414428 0.247249 0.507794
451 1 0.751933 0.486885 0.083769
261 1 0.828395 0.166731 0.514298
30 1 0.24372 0.25118 -0.00513747
161 1 0.672114 0.0084611 0.339631
669 1 0.836899 0.503296 0.497038
87 1 0.58462 -0.00192991 0.258052
75 1 0.0761898 0.0206597 0.256362
19 1 0.742513 0.00439236 0.0824114
577 1 1.0111 0.489712 0.330986
505 1 0.00512089 0.490226 0.164976
597 1 0.840648 0.492039 0.332059
525 1 0.827738 0.479418 0.161208
155 1 0.416492 0.0108235 0.420476
593 1 0.660538 0.488465 0.344965
511 1 0.265089 0.504425 0.267891
33 1 0.348201 0.155861 0.000310254
245 1 0.161869 0.178295 0.494644
241 1 0.998111 0.169323 0.512471
270 1 0.251181 0.39832 0.491577
222 1 0.234146 0.103473 0.490677
46 1 0.914022 0.245729 -0.00655075
2 1 0.0773288 0.0939598 0.0165536
6 1 0.256588 0.0802963 0.00785619
278 1 0.573337 0.422299 0.501518
453 1 0.839359 0.491574 0.0137154
661 1 0.486796 0.488899 0.505329
217 1 0.00458779 0.00984741 0.487372
285 1 0.838977 0.341479 0.495549
262 1 0.908812 0.256993 0.503025
657 1 0.323663 0.478789 0.499917
238 1 0.921866 0.0771356 0.496552
50 1 0.0807293 0.413929 0.00543661
61 1 0.502284 0.337001 0.00565608
49 1 -0.00313368 0.345648 -0.00412703
62 1 0.585242 0.416935 -0.0103492
653 1 0.160769 0.488971 0.490768
445 1 0.500242 0.513464 -0.0147311
25 1 0.984507 0.17058 0.0136931
286 1 0.913315 0.420816 0.515047
37 1 0.500495 0.170867 -0.0144892
226 1 0.414317 0.0816785 0.508832
220 1 0.00642545 0.0879626 0.585336
224 1 0.187069 0.101312 0.592626
243 1 0.0721047 0.1778 0.592626
290 1 0.0989938 0.0886744 0.667854
311 1 0.929748 0.00856241 0.749036
235 1 0.751364 0.00233798 0.593103
228 1 0.320736 0.0711616 0.586679
432 1 0.839767 0.410756 0.923965
363 1 0.0817134 0.0170064 0.921662
247 1 0.240294 0.183222 0.578786
449 1 0.670148 0.493039 1.00181
809 1 0.668516 0.49481 0.834168
251 1 0.405262 0.16293 0.57778
367 1 0.267796 -0.00242787 0.933307
232 1 0.493647 0.0863437 0.579039
254 1 0.590551 0.250317 0.494755
813 1 0.834246 0.490558 0.8365
255 1 0.589662 0.162951 0.582735
291 1 0.0858156 0.0120319 0.751085
302 1 0.586478 0.0815306 0.673209
45 1 0.824779 0.168042 1.01005
236 1 0.679018 0.0855334 0.597697
240 1 0.848531 0.0696084 0.584694
651 1 0.0860546 0.474497 0.579733
259 1 0.751109 0.174458 0.585592
263 1 0.917006 0.167176 0.595512
310 1 0.922389 0.0814044 0.662241
289 1 0.00132575 0.000589876 0.669489
244 1 -0.0245823 0.245203 0.591874
248 1 0.158258 0.250722 0.577644
341 1 0.168771 0.332082 0.669678
313 1 0.992425 0.170785 0.672312
655 1 0.252387 0.493077 0.572903
271 1 0.246725 0.320157 0.583823
252 1 0.326734 0.237882 0.583648
318 1 0.268221 0.245853 0.679204
257 1 0.669674 0.155924 0.501637
322 1 0.41282 0.233067 0.671164
256 1 0.503715 0.239419 0.589274
275 1 0.406 0.325579 0.590754
811 1 0.761868 0.494992 0.92418
279 1 0.584585 0.306353 0.589351
349 1 0.506099 0.331476 0.670091
260 1 0.657986 0.243511 0.593462
264 1 0.836928 0.258997 0.593134
334 1 0.921022 0.252191 0.675154
337 1 -0.012912 0.337882 0.666231
361 1 0.0145926 -0.00169937 0.837786
267 1 0.0714755 0.321898 0.584443
272 1 0.181561 0.413948 0.587627
412 1 1.00381 0.432399 0.921958
230 1 0.59119 0.0773184 0.503756
282 1 0.743294 0.419753 0.516925
276 1 0.323966 0.397082 0.582377
342 1 0.253117 0.416158 0.676754
369 1 0.325423 -0.000348228 0.848206
293 1 0.158225 -0.00769206 0.667964
379 1 0.754734 -0.0160983 0.909069
793 1 1.00184 0.505518 0.834058
807 1 0.596895 0.492722 0.909492
280 1 0.509473 0.416845 0.590862
350 1 0.587142 0.413333 0.667434
283 1 0.759935 0.33585 0.58897
357 1 0.832493 0.333068 0.668638
365 1 0.162498 -0.0166331 0.83751
284 1 0.664912 0.415075 0.585523
354 1 0.744262 0.407355 0.676638
301 1 0.501604 -0.0152626 0.681251
287 1 0.901533 0.337446 0.592844
268 1 0.993797 0.414398 0.588899
288 1 0.834183 0.427536 0.598255
58 1 0.407477 0.436502 1.00202
66 1 0.750755 0.413033 0.99982
292 1 0.997246 0.0911865 0.75356
296 1 0.1696 0.0857258 0.758962
315 1 0.0847979 0.164768 0.741306
317 1 0.165729 0.18784 0.665178
427 1 0.755186 0.323662 0.91079
321 1 0.331886 0.146378 0.669852
294 1 0.247131 0.0711913 0.682904
300 1 0.339642 0.074904 0.751392
425 1 0.657662 0.329599 0.829245
389 1 0.161869 0.17426 0.825625
366 1 0.234136 0.08617 0.844891
298 1 0.41053 0.0736406 0.657828
304 1 0.497961 0.0726325 0.740176
381 1 0.835898 -0.00365209 0.842637
428 1 0.6666 0.415981 0.915931
325 1 0.4917 0.166391 0.662595
413 1 0.160987 0.336951 0.846559
327 1 0.590863 0.155612 0.743473
306 1 0.765746 0.0848482 0.669337
308 1 0.673781 0.0750828 0.741483
331 1 0.748931 0.159029 0.749242
378 1 0.757531 0.0802335 0.827473
405 1 0.823243 0.166922 0.833536
333 1 0.8377 0.179079 0.668576
312 1 0.844868 0.0858743 0.757611
382 1 0.924426 0.0761153 0.840339
335 1 0.918162 0.159642 0.759908
314 1 0.0680917 0.246783 0.664965
339 1 0.0722727 0.336019 0.75032
320 1 0.16019 0.272606 0.763161
409 1 -0.00416645 0.311822 0.838066
386 1 0.0877101 0.250821 0.833535
385 1 1.02047 0.166721 0.832753
319 1 0.252016 0.167973 0.751626
343 1 0.258188 0.327703 0.757164
324 1 0.356309 0.241435 0.763949
345 1 0.333385 0.327198 0.668203
323 1 0.417347 0.146544 0.753513
347 1 0.419017 0.326471 0.731963
328 1 0.502383 0.238035 0.745166
326 1 0.576155 0.23252 0.669772
421 1 0.495161 0.336765 0.842643
398 1 0.590391 0.25229 0.82761
332 1 0.667144 0.246171 0.73756
351 1 0.577133 0.325206 0.747964
329 1 0.678621 0.160603 0.671468
330 1 0.74535 0.242487 0.668141
336 1 0.833084 0.243492 0.747155
429 1 0.826308 0.334225 0.836766
355 1 0.743829 0.331156 0.753351
316 1 -0.00710525 0.245324 0.761381
406 1 0.91184 0.25192 0.833697
423 1 0.578258 0.334783 0.923472
338 1 0.0896345 0.407445 0.668092
344 1 0.1572 0.408232 0.766706
340 1 1.00595 0.42748 0.746262
410 1 0.0830514 0.408433 0.832444
424 1 0.487852 0.429209 0.934546
417 1 0.334016 0.346376 0.839871
348 1 0.338339 0.409692 0.746971
253 1 0.512132 0.166259 0.493377
418 1 0.419747 0.402844 0.82261
346 1 0.422463 0.436662 0.673901
388 1 0.992548 0.224615 0.917007
234 1 0.750634 0.0844093 0.497369
422 1 0.576846 0.401489 0.827062
352 1 0.495706 0.416427 0.743699
356 1 0.670018 0.404636 0.758452
353 1 0.662473 0.325605 0.665612
426 1 0.754296 0.423624 0.841631
360 1 0.836109 0.404438 0.74359
431 1 0.92471 0.336159 0.917566
358 1 0.919888 0.426193 0.663602
359 1 0.92456 0.353931 0.754749
430 1 0.919542 0.43218 0.83272
741 1 0.81685 0.502724 0.681914
362 1 0.101099 0.0876692 0.838523
231 1 0.585776 -0.00766704 0.596317
368 1 0.166833 0.0830545 0.926404
372 1 0.328553 0.0951629 0.926519
393 1 0.326091 0.170635 0.840952
420 1 0.347206 0.428818 0.906009
419 1 0.425672 0.335367 0.930623
415 1 0.240923 0.338755 0.921657
370 1 0.415005 0.0915241 0.839234
743 1 0.902943 0.506015 0.754953
281 1 0.665759 0.332814 0.510089
407 1 0.900789 0.160953 0.925173
374 1 0.593132 0.0787857 0.818234
376 1 0.50251 0.0797749 0.901143
399 1 0.580991 0.153685 0.900443
403 1 0.753065 0.149599 0.911551
380 1 0.672254 0.0676843 0.903946
384 1 0.834167 0.0786557 0.930761
364 1 0.997944 0.0929863 0.915175
414 1 0.243748 0.419411 0.83668
416 1 0.155843 0.43183 0.927382
411 1 0.0784498 0.331806 0.920851
387 1 0.0941429 0.172527 0.909365
392 1 0.157576 0.242981 0.919115
390 1 0.244004 0.249926 0.840054
391 1 0.235183 0.166144 0.931454
394 1 0.415798 0.259416 0.842963
395 1 0.413595 0.170968 0.912138
400 1 0.508785 0.253881 0.91147
396 1 0.329415 0.257272 0.909111
401 1 0.676887 0.149908 0.829682
397 1 0.505031 0.151424 0.81183
404 1 0.667736 0.225602 0.901048
402 1 0.751372 0.243911 0.830617
408 1 0.837505 0.244825 0.918847
377 1 0.667039 -0.0069801 0.828415
735 1 0.596961 0.489705 0.747621
10 1 0.436691 0.0841862 1.00592
799 1 0.255305 0.506429 0.91517
53 1 0.170907 0.346637 1.00445
26 1 0.0903316 0.254516 0.997108
42 1 0.742286 0.247645 0.985755
34 1 0.423156 0.246852 0.992931
69 1 0.831363 0.322994 0.993603
29 1 0.157922 0.164417 1.00412
274 1 0.409181 0.412664 0.502991
65 1 0.668503 0.32286 0.983501
258 1 0.747551 0.251704 0.503949
41 1 0.670544 0.167218 0.98593
54 1 0.245553 0.419887 0.987198
265 1 0.982786 0.330798 0.496607
22 1 0.910843 0.0713065 1.00166
1 1 1.00349 0.00881197 1.00343
221 1 0.165506 0.00791283 0.506124
233 1 0.672326 0.00537971 0.515073
459 1 0.0818387 0.675374 0.0747339
506 1 0.0749175 0.592238 0.164608
440 1 0.170919 0.59106 0.0831608
533 1 0.156552 0.672047 0.157569
436 1 -0.000409291 0.585236 0.0819512
677 1 0.165991 0.651336 0.503802
454 1 0.935662 0.576143 -0.00308758
7 1 0.251395 0.999213 0.0802061
510 1 0.244029 0.577598 0.175961
698 1 0.0859695 0.927811 0.482839
444 1 0.342305 0.584721 0.0782941
448 1 0.504789 0.577103 0.0772646
514 1 0.413394 0.594458 0.160835
599 1 0.909132 0.49608 0.408562
518 1 0.581082 0.580274 0.172803
714 1 0.752071 0.914774 0.495959
513 1 0.335691 0.513092 0.164327
452 1 0.658934 0.57476 0.0825275
475 1 0.754587 0.654001 0.0817709
89 1 0.663394 0.998777 0.166807
456 1 0.832817 0.585218 0.0783103
479 1 0.913917 0.667638 0.0769095
153 1 0.338926 0.995965 0.343468
460 1 0.999043 0.749457 0.0963109
464 1 0.171346 0.744516 0.0841602
483 1 0.0846588 0.823172 0.0784602
557 1 0.168067 0.834842 0.145588
530 1 0.0845911 0.761819 0.16571
678 1 0.247715 0.766997 0.497605
463 1 0.24726 0.669789 0.0821467
487 1 0.258852 0.845648 0.0891072
467 1 0.426101 0.675168 0.0734922
468 1 0.336159 0.744644 0.0810374
472 1 0.498982 0.75009 0.0703235
471 1 0.572898 0.65604 0.0844928
495 1 0.58272 0.814597 0.0935401
542 1 0.578903 0.739935 0.168133
443 1 0.410154 0.508655 0.0798661
85 1 0.506259 0.997162 0.161416
439 1 0.257933 0.500406 0.0850971
476 1 0.659105 0.737483 0.0696985
93 1 0.828298 1.00182 0.168043
587 1 0.418311 0.499149 0.416531
480 1 0.835168 0.748013 0.0832725
550 1 0.908631 0.740986 0.176101
157 1 0.49791 1.01868 0.334477
462 1 0.248795 0.754225 0.00339907
670 1 0.920587 0.583969 0.505518
488 1 0.175744 0.924713 0.085263
492 1 0.343226 0.918745 0.0939332
648 1 0.826246 0.91948 0.415616
558 1 0.260709 0.905745 0.192243
83 1 0.424392 1.00816 0.253122
81 1 0.335661 0.991093 0.167108
507 1 0.0993595 0.50005 0.23992
491 1 0.416358 0.834368 0.0910989
565 1 0.496031 0.824732 0.15539
673 1 0.994048 0.665954 0.503268
561 1 0.339497 0.836798 0.164641
562 1 0.427021 0.916404 0.171251
496 1 0.518486 0.915101 0.0861742
500 1 0.667047 0.914126 0.0887858
457 1 -0.00310293 0.66581 0.00703265
566 1 0.585017 0.914486 0.169844
149 1 0.165659 1.01777 0.321716
498 1 0.744425 0.915016 -0.00315629
642 1 0.744538 0.9256 0.337928
499 1 0.739931 0.832117 0.0821609
570 1 0.73953 0.927053 0.173435
589 1 0.496595 0.49191 0.340893
503 1 0.920187 0.845205 0.0786661
484 1 1.00553 0.932096 0.0791523
504 1 0.816441 0.920983 0.0946132
573 1 0.818968 0.842391 0.169481
508 1 -0.0199967 0.582729 0.238801
578 1 0.0658547 0.57748 0.323039
461 1 0.169425 0.677508 0.00469032
512 1 0.159289 0.593594 0.25624
535 1 0.250375 0.66634 0.239735
605 1 0.16177 0.668691 0.33116
609 1 0.342161 0.667822 0.329055
516 1 0.332408 0.587172 0.252122
539 1 0.43132 0.658408 0.253966
586 1 0.421314 0.583942 0.331566
520 1 0.497469 0.561634 0.25701
590 1 0.571724 0.579586 0.347851
524 1 0.660203 0.576404 0.262929
543 1 0.569818 0.657172 0.263091
17 1 0.664121 0.988564 0.00333322
522 1 0.758825 0.571309 0.172236
528 1 0.827283 0.576492 0.258976
547 1 0.74556 0.669647 0.243945
644 1 0.672851 0.921503 0.418858
529 1 0.00290599 0.669932 0.167062
645 1 0.829827 0.840128 0.328386
526 1 0.903286 0.5817 0.166787
640 1 0.502711 0.928275 0.430831
553 1 1.00164 0.831652 0.157177
531 1 0.0800527 0.664193 0.256959
532 1 0.00459035 0.747685 0.246981
555 1 0.0693667 0.838525 0.243615
536 1 0.167537 0.759594 0.243371
534 1 0.244344 0.768651 0.159172
606 1 0.252486 0.745016 0.330893
537 1 0.330328 0.661823 0.159166
538 1 0.408656 0.746101 0.149769
540 1 0.351633 0.750557 0.243815
544 1 0.506145 0.747109 0.243467
610 1 0.421661 0.75554 0.330191
541 1 0.483646 0.673785 0.167387
637 1 0.502903 0.833728 0.333873
545 1 0.660894 0.648445 0.150529
567 1 0.594937 0.823917 0.258394
641 1 0.661716 0.845579 0.341694
548 1 0.653561 0.739598 0.251437
549 1 0.830316 0.667355 0.163404
546 1 0.740422 0.752905 0.161436
621 1 0.816269 0.667396 0.324069
618 1 0.744763 0.762756 0.336056
552 1 0.821381 0.745071 0.246816
571 1 0.743245 0.835469 0.260194
551 1 0.909078 0.668864 0.247685
575 1 0.915394 0.843185 0.248942
674 1 0.0633391 0.753874 0.478018
554 1 0.0759966 0.921602 0.152655
560 1 0.158174 0.897648 0.234336
486 1 0.264664 0.920394 0.00642935
626 1 0.0923564 0.926615 0.321825
559 1 0.268677 0.830235 0.268633
630 1 0.234195 0.924767 0.320572
647 1 0.921092 0.834195 0.404373
563 1 0.420958 0.82265 0.248443
564 1 0.350451 0.921228 0.257083
634 1 0.433927 0.921272 0.346475
568 1 0.496569 0.909829 0.244419
569 1 0.662939 0.83019 0.174407
638 1 0.571955 0.929779 0.33732
515 1 0.415142 0.493676 0.251556
572 1 0.663454 0.919867 0.245546
576 1 0.827797 0.916988 0.248979
650 1 0.0677326 0.584073 0.509687
556 1 0.992982 0.921656 0.242282
646 1 0.915919 0.914997 0.329916
574 1 0.921053 0.926014 0.163335
435 1 0.0900923 0.503789 0.0841477
580 1 -0.00194063 0.583553 0.41088
584 1 0.152473 0.584067 0.406781
601 1 0.989717 0.671598 0.329555
701 1 0.165257 0.828354 0.490217
635 1 0.427937 0.835434 0.420818
11 1 0.420336 1.00063 0.0889103
582 1 0.253035 0.580241 0.336772
607 1 0.242493 0.662612 0.403547
588 1 0.341073 0.597624 0.415892
611 1 0.412067 0.670716 0.433548
633 1 0.348317 0.844815 0.344495
625 1 1.0062 0.833702 0.332926
613 1 0.491284 0.673259 0.356173
592 1 0.497226 0.583811 0.429518
596 1 0.672366 0.579797 0.41814
615 1 0.581542 0.654717 0.426537
594 1 0.741154 0.572904 0.333024
600 1 0.8331 0.591551 0.406756
619 1 0.757931 0.677763 0.428855
623 1 0.915314 0.666903 0.41191
598 1 0.913373 0.572626 0.334456
624 1 0.833997 0.754266 0.408629
602 1 0.0739366 0.751034 0.330683
629 1 0.164283 0.831228 0.329107
603 1 0.082983 0.671867 0.407215
627 1 0.0988577 0.829145 0.408817
604 1 0.994557 0.752403 0.40515
643 1 0.746179 0.851104 0.408571
622 1 0.907942 0.747569 0.313713
608 1 0.176938 0.747169 0.411472
612 1 0.338316 0.75378 0.421662
632 1 0.161451 0.921863 0.404931
628 1 1.00623 0.91911 0.411602
631 1 0.235264 0.837221 0.406761
636 1 0.310312 0.923548 0.411035
614 1 0.574516 0.741262 0.3487
617 1 0.655966 0.659983 0.332584
616 1 0.497209 0.755242 0.432196
639 1 0.566633 0.836153 0.43643
469 1 0.497882 0.674439 -0.00653626
620 1 0.680056 0.739361 0.418036
527 1 0.917309 0.493493 0.237914
13 1 0.504101 0.999538 0.00384259
482 1 0.0802978 0.930124 -0.00219898
502 1 0.921748 0.916725 0.000338336
717 1 0.854526 0.834776 0.493547
694 1 0.922755 0.74614 0.504376
666 1 0.744257 0.574017 0.493576
705 1 0.327993 0.845089 0.48345
702 1 0.23111 0.915956 0.491897
501 1 0.825833 0.836827 0.00803411
478 1 0.91949 0.749881 -0.00618868
681 1 0.330623 0.686235 0.506598
9 1 0.358339 0.991806 0.00248458
485 1 0.163248 0.837218 0.0131734
706 1 0.401276 0.926337 0.491396
654 1 0.252034 0.57154 0.491015
689 1 0.65795 0.665256 0.496961
718 1 0.928101 0.931476 0.49512
713 1 0.677456 0.823792 0.501513
437 1 0.182398 0.508031 -0.00698249
493 1 0.516666 0.826007 -0.00216571
465 1 0.336645 0.670161 -0.00192931
686 1 0.58758 0.741207 0.497614
656 1 0.172991 0.568751 0.578853
490 1 0.432235 0.8978 0.999677
652 1 0.997347 0.580896 0.587088
727 1 0.255471 0.524192 0.745076
723 1 0.0816654 0.524779 0.730472
726 1 0.257921 0.579554 0.644056
679 1 0.257575 0.668981 0.586999
753 1 0.325158 0.656543 0.667764
441 1 0.324592 0.513143 0.999097
667 1 0.743271 0.491497 0.595135
660 1 0.330566 0.576567 0.570996
664 1 0.503246 0.582731 0.597881
730 1 0.423881 0.583021 0.672577
697 1 0.989984 0.844839 0.499708
668 1 0.683796 0.596768 0.580805
663 1 0.593863 0.504184 0.595018
734 1 0.58868 0.591213 0.667631
305 1 0.671508 0.996545 0.665725
691 1 0.749039 0.678146 0.559495
685 1 0.496069 0.673663 0.50516
299 1 0.415082 0.987152 0.753728
672 1 0.825656 0.576653 0.581887
375 1 0.576891 1.00872 0.912437
675 1 0.0752609 0.664102 0.579192
746 1 0.0837948 0.738913 0.659919
801 1 0.331684 0.508437 0.835367
773 1 0.159908 0.82475 0.663434
239 1 0.928898 1.00448 0.573461
680 1 0.151392 0.744324 0.5586
703 1 0.238144 0.829805 0.569132
750 1 0.2488 0.761781 0.660284
683 1 0.415027 0.651862 0.581181
684 1 0.33534 0.755734 0.593848
688 1 0.49178 0.752176 0.599754
687 1 0.573116 0.672228 0.588695
711 1 0.572161 0.821241 0.565121
757 1 0.506895 0.688519 0.675911
761 1 0.675728 0.670567 0.669466
781 1 0.483759 0.837001 0.653923
303 1 0.593419 0.997267 0.745639
692 1 0.674926 0.758594 0.594383
715 1 0.77607 0.848598 0.569337
815 1 0.918259 0.501764 0.923618
765 1 0.820196 0.657079 0.653973
710 1 0.580991 0.913867 0.508913
721 1 -0.00771735 0.506449 0.677981
295 1 0.250514 1.00291 0.759961
695 1 0.907483 0.650677 0.579842
745 1 -0.00954703 0.674639 0.670857
676 1 1.00566 0.75471 0.579942
696 1 0.83357 0.745185 0.580012
227 1 0.408041 0.999418 0.569823
862 1 0.915355 0.929486 0.840691
699 1 0.096774 0.834672 0.578451
731 1 0.408168 0.511227 0.760086
704 1 0.16839 0.91477 0.582579
777 1 0.323723 0.839679 0.679941
774 1 0.238559 0.916189 0.665168
708 1 0.307438 0.907022 0.581818
307 1 0.757811 0.998137 0.750632
383 1 0.927993 1.00469 0.926832
707 1 0.396351 0.850556 0.571548
778 1 0.414552 0.918222 0.667622
489 1 0.339532 0.824505 1.01066
712 1 0.498382 0.923101 0.585603
861 1 0.850223 0.835493 0.822522
864 1 0.830556 0.910737 0.921847
716 1 0.679794 0.915262 0.569774
720 1 0.861701 0.92437 0.581251
237 1 0.844536 1.00396 0.488457
709 1 0.484639 0.848431 0.511623
719 1 0.9301 0.828406 0.593058
700 1 0.0072164 0.92572 0.577096
722 1 0.0943143 0.583942 0.641722
749 1 0.163022 0.66825 0.645272
729 1 0.329963 0.495485 0.680499
795 1 0.079099 0.512064 0.918419
728 1 0.164175 0.592857 0.756783
732 1 0.331631 0.593823 0.757633
798 1 0.245525 0.584822 0.833131
860 1 0.676175 0.910513 0.918472
665 1 0.663731 0.507435 0.513795
736 1 0.505944 0.593587 0.75441
740 1 0.676659 0.584664 0.751933
806 1 0.593188 0.578233 0.82595
738 1 0.74242 0.584074 0.672461
744 1 0.828156 0.589537 0.758546
810 1 0.758366 0.585315 0.841555
371 1 0.428738 0.986627 0.926245
446 1 0.595634 0.568982 0.995383
223 1 0.245517 1.00159 0.591272
739 1 0.741456 0.497812 0.759615
742 1 0.918037 0.587444 0.668662
724 1 1.00128 0.590176 0.761404
814 1 0.916998 0.581978 0.834783
747 1 0.0747425 0.661386 0.727081
748 1 1.00623 0.749706 0.745521
818 1 0.0888986 0.750628 0.83866
825 1 0.327506 0.670952 0.822889
752 1 0.162626 0.732492 0.745093
821 1 0.181511 0.668451 0.838492
751 1 0.245919 0.664848 0.740159
822 1 0.252769 0.751719 0.832192
756 1 0.331978 0.752383 0.750916
755 1 0.418563 0.661975 0.750881
754 1 0.415493 0.742198 0.677816
760 1 0.497024 0.762398 0.753906
829 1 0.500169 0.677394 0.828145
853 1 0.512721 0.839519 0.837136
826 1 0.413157 0.742675 0.825017
759 1 0.587519 0.674568 0.748409
830 1 0.598995 0.754973 0.820689
758 1 0.582892 0.778914 0.665555
764 1 0.679666 0.753929 0.743096
857 1 0.680983 0.83783 0.837687
783 1 0.595344 0.833821 0.749265
833 1 0.664679 0.671797 0.837681
763 1 0.747537 0.667617 0.755325
762 1 0.759652 0.750184 0.660957
834 1 0.771076 0.745977 0.835401
768 1 0.833958 0.737788 0.741457
766 1 0.907696 0.740053 0.673911
769 1 0.0111842 0.829138 0.665801
767 1 0.912217 0.66044 0.758496
838 1 0.917133 0.750937 0.829724
837 1 0.837929 0.664689 0.837002
219 1 0.0823003 1.00865 0.582478
771 1 0.083971 0.82693 0.748206
770 1 0.0838203 0.918202 0.661827
776 1 0.156154 0.903286 0.749977
845 1 0.16817 0.85251 0.85116
775 1 0.235828 0.83533 0.75611
780 1 0.328808 0.903896 0.760353
846 1 0.253283 0.923995 0.842495
859 1 0.750642 0.827411 0.921979
849 1 0.335288 0.824924 0.844137
779 1 0.410216 0.839871 0.756669
850 1 0.425513 0.898357 0.853679
784 1 0.499171 0.906302 0.75914
782 1 0.572327 0.903997 0.667545
788 1 0.680947 0.914078 0.755092
854 1 0.586449 0.914269 0.833636
863 1 0.920873 0.84187 0.919581
785 1 0.675158 0.854275 0.653631
470 1 0.582778 0.746538 0.999368
789 1 0.839726 0.842183 0.655711
787 1 0.773327 0.83385 0.749502
786 1 0.764152 0.916791 0.660505
858 1 0.769401 0.920828 0.824912
792 1 0.857169 0.917118 0.745067
473 1 0.662421 0.658574 1.00603
790 1 0.927582 0.905061 0.660915
791 1 0.931523 0.827761 0.730841
772 1 -0.0108701 0.924366 0.752936
817 1 0.00196849 0.661446 0.833322
855 1 0.592081 0.835058 0.914839
856 1 0.508597 0.913334 0.923122
794 1 0.0833482 0.579568 0.839027
796 1 1.00572 0.595458 0.912572
671 1 0.908461 0.503881 0.602701
832 1 0.504672 0.747449 0.910043
827 1 0.423518 0.679336 0.912532
836 1 0.671441 0.755636 0.903512
828 1 0.335389 0.74901 0.921376
800 1 0.170003 0.603751 0.911631
804 1 0.338766 0.601437 0.916063
842 1 0.0824332 0.910936 0.821523
802 1 0.422158 0.602725 0.839013
808 1 0.519243 0.579693 0.908607
852 1 0.337866 0.902853 0.922013
848 1 0.160482 0.916702 0.930455
831 1 0.590917 0.665726 0.908765
847 1 0.244135 0.837982 0.932101
812 1 0.668573 0.581724 0.912432
816 1 0.833314 0.574794 0.917731
835 1 0.751628 0.676448 0.913812
839 1 0.914532 0.653346 0.921855
844 1 0.00368027 0.91529 0.91236
841 1 -0.00854614 0.845529 0.830213
819 1 0.0827967 0.679196 0.920184
843 1 0.0821545 0.834328 0.923609
820 1 0.993046 0.748505 0.903505
840 1 0.84711 0.764783 0.911207
851 1 0.429834 0.815687 0.916521
823 1 0.250356 0.682186 0.922086
824 1 0.161449 0.755439 0.920026
803 1 0.426403 0.515567 0.898896
733 1 0.514063 0.500104 0.689156
725 1 0.174277 0.504561 0.664732
373 1 0.511785 1.00086 0.817258
309 1 0.841149 1.01042 0.678556
737 1 0.669938 0.496351 0.674388
805 1 0.527286 0.492781 0.829611
450 1 0.74161 0.569494 1.00055
474 1 0.754168 0.75307 1.0089
659 1 0.413185 0.504938 0.598891
297 1 0.313288 0.99542 0.660704
797 1 0.168488 0.503649 0.846075
458 1 0.0750137 0.745517 0.997439
433 1 0.0114077 0.511117 1.00517
481 1 0.00558044 0.833142 1.01021
438 1 0.241871 0.598822 1.00138
682 1 0.410194 0.755455 0.518087
477 1 0.821382 0.671646 0.998854
649 1 0.993156 0.500975 0.495102
21 1 0.839365 0.990868 0.99558
229 1 0.492996 1.00545 0.497684
693 1 0.832757 0.649936 0.493929
225 1 0.314995 0.994154 0.498913
497 1 0.66656 0.836202 0.998634
434 1 0.0809162 0.593897 0.992887
442 1 0.427153 0.600951 0.981608
690 1 0.771945 0.76562 0.49296
494 1 0.586948 0.910272 1.00127
658 1 0.415597 0.563408 0.504179
662 1 0.577777 0.571257 0.509873
466 1 0.417343 0.757345 1.00564
