ITEM: TIMESTEP
38000
ITEM: NUMBER OF ATOMS
864
ITEM: BOX BOUNDS pp pp pp
0.0000000000000000e+00 3.1559999999999999e+01
0.0000000000000000e+00 3.1559999999999999e+01
0.0000000000000000e+00 3.1559999999999999e+01
ITEM: ATOMS id type xs ys zs
27 1 0.0989353 0.160928 0.0848498
8 1 0.16267 0.0749995 0.0828797
4 1 0.0290228 0.0734255 0.0981812
2 1 0.0835752 0.0623813 0.00748298
77 1 0.161738 0.00118988 0.160554
31 1 0.227641 0.164912 0.0894431
12 1 0.312252 0.0788233 0.0965446
9 1 0.331276 0.000481972 0.00379225
35 1 0.418891 0.159721 0.0762928
10 1 0.41701 0.0762172 0.00449938
33 1 0.336993 0.149748 0.00458303
11 1 0.400661 0.00776468 0.0860822
13 1 0.49578 9.25598e-05 0.00145294
16 1 0.50385 0.0638951 0.0762527
39 1 0.5767 0.155701 0.0791985
109 1 0.505847 0.136587 0.162269
86 1 0.595859 0.0696084 0.158508
20 1 0.666921 0.0855972 0.07888
24 1 0.823949 0.0763774 0.0848237
43 1 0.747052 0.158894 0.0917776
117 1 0.820088 0.153335 0.165705
45 1 0.833243 0.164848 0.0137239
41 1 0.67067 0.158908 0.00249259
18 1 0.748543 0.0814298 0.00969284
47 1 0.907911 0.156765 0.101457
94 1 0.919444 0.0800533 0.155554
1 1 0.982147 0.00804188 0.0054649
22 1 0.919848 0.0878264 0.00931322
51 1 0.0839415 0.330883 0.083465
28 1 0.0175427 0.247555 0.0818276
125 1 0.154969 0.331324 0.158117
98 1 0.0833729 0.249852 0.16547
26 1 0.0864549 0.248792 0.00151319
32 1 0.168133 0.247474 0.0901638
36 1 0.31466 0.245733 0.0804538
55 1 0.243746 0.329491 0.0746111
30 1 0.227751 0.251464 0.000139497
106 1 0.40463 0.232158 0.161516
40 1 0.492665 0.235837 0.0874879
59 1 0.410067 0.312877 0.0808871
61 1 0.509573 0.330532 0.00345526
44 1 0.652302 0.246466 0.0869786
63 1 0.57425 0.321411 0.089465
38 1 0.581242 0.238668 0.0134673
42 1 0.75383 0.235831 0.00952369
67 1 0.753242 0.32844 0.093805
48 1 0.849675 0.250753 0.0888524
97 1 0.999813 0.174465 0.155364
118 1 0.935484 0.263307 0.164592
46 1 0.928276 0.242294 0.00526641
69 1 0.836496 0.33191 0.00477761
435 1 0.0824097 0.49749 0.0771867
56 1 0.160298 0.414512 0.0833425
121 1 0.00468387 0.34998 0.165442
53 1 0.153714 0.336436 0.00573958
49 1 0.00903001 0.338654 0.012386
50 1 0.0755539 0.419477 0.000669486
129 1 0.332723 0.333422 0.150329
54 1 0.242811 0.421233 0.00193282
60 1 0.343025 0.412025 0.0745802
130 1 0.407025 0.415702 0.165978
64 1 0.488185 0.396547 0.0843731
445 1 0.495825 0.494977 0.00732509
449 1 0.654656 0.485539 0.0106377
447 1 0.573097 0.489533 0.0928799
68 1 0.662345 0.411531 0.105493
65 1 0.663737 0.336712 0.00126239
66 1 0.747277 0.412739 0.0120981
138 1 0.752163 0.433007 0.160995
72 1 0.831823 0.402011 0.0853553
451 1 0.744278 0.497546 0.0873078
455 1 0.908871 0.496138 0.0891829
52 1 0.994265 0.41755 0.0888791
71 1 0.922104 0.342616 0.0917095
525 1 0.836503 0.497558 0.158969
70 1 0.909284 0.41552 0.00866064
433 1 0.979901 0.496291 0.0190146
74 1 0.0943137 0.0938131 0.180246
146 1 0.0701658 0.0787661 0.326019
76 1 0.00348928 0.085123 0.226465
78 1 0.231469 0.0812296 0.184838
81 1 0.304754 0.000632037 0.186323
79 1 0.237424 0.00599682 0.276313
80 1 0.168124 0.0853015 0.278691
105 1 0.30155 0.156487 0.17173
84 1 0.318816 0.0849539 0.254387
82 1 0.40324 0.0812944 0.172908
154 1 0.40671 0.0947483 0.326926
88 1 0.480372 0.0890266 0.25381
107 1 0.399144 0.165354 0.247298
83 1 0.409356 0.00834784 0.254596
157 1 0.492338 0.0203607 0.33139
87 1 0.576479 0.00140888 0.262161
111 1 0.582366 0.149635 0.253764
85 1 0.506278 0.0243154 0.175219
90 1 0.741512 0.0792884 0.168266
113 1 0.668307 0.165092 0.16859
92 1 0.670717 0.0799379 0.247686
96 1 0.828823 0.0771826 0.25777
93 1 0.831089 0.00256436 0.169786
119 1 0.904364 0.15491 0.234022
169 1 0.991282 0.165042 0.31906
166 1 0.952696 0.071634 0.325773
95 1 0.912377 0.00651786 0.254106
99 1 0.0996845 0.17759 0.256414
100 1 0.00458582 0.248715 0.254349
123 1 0.0828888 0.332984 0.246345
170 1 0.0981478 0.260523 0.331581
101 1 0.173135 0.179546 0.180024
102 1 0.256007 0.259326 0.168427
104 1 0.168574 0.26665 0.248935
103 1 0.238065 0.170205 0.268987
108 1 0.328283 0.255538 0.25973
133 1 0.494681 0.320889 0.170052
131 1 0.405575 0.325594 0.241369
181 1 0.48987 0.166917 0.331074
112 1 0.474653 0.241689 0.244973
137 1 0.659152 0.318323 0.166901
110 1 0.578652 0.236527 0.183353
135 1 0.582176 0.320358 0.252257
182 1 0.564208 0.236959 0.325524
114 1 0.754374 0.254864 0.179816
115 1 0.756107 0.168409 0.257437
116 1 0.666853 0.238936 0.250555
209 1 0.675259 0.33308 0.327202
186 1 0.749283 0.257264 0.332026
141 1 0.834561 0.330787 0.167704
189 1 0.846184 0.168724 0.324709
120 1 0.849604 0.249368 0.252903
190 1 0.920181 0.248912 0.325055
122 1 0.0872521 0.415264 0.171645
124 1 0.00103673 0.427602 0.247639
193 1 0.00941713 0.340666 0.325606
194 1 0.0925343 0.413896 0.330431
126 1 0.252254 0.399488 0.170605
128 1 0.179253 0.431384 0.236896
127 1 0.253272 0.344628 0.25687
515 1 0.426061 0.496076 0.243264
132 1 0.336933 0.416377 0.249073
136 1 0.4899 0.404679 0.244739
134 1 0.582749 0.404621 0.179196
206 1 0.587259 0.420988 0.317577
517 1 0.505784 0.484207 0.178365
519 1 0.577189 0.495052 0.248983
139 1 0.758774 0.340881 0.24176
140 1 0.669457 0.406918 0.246945
210 1 0.746215 0.419672 0.32666
521 1 0.66811 0.499823 0.16783
214 1 0.936831 0.419169 0.327161
142 1 0.930104 0.422655 0.168913
213 1 0.833631 0.352126 0.325848
144 1 0.842556 0.432299 0.243203
143 1 0.908132 0.338864 0.250827
597 1 0.843461 0.499153 0.323638
152 1 0.131447 0.0712895 0.427782
173 1 0.161277 0.164078 0.348616
148 1 0.0113542 0.079601 0.420463
150 1 0.231804 0.0762829 0.364341
156 1 0.315514 0.0853752 0.427213
222 1 0.224437 0.0930172 0.490456
153 1 0.34301 0.00253293 0.339194
160 1 0.492514 0.091884 0.410032
155 1 0.421993 0.00775453 0.411962
226 1 0.426552 0.102181 0.498266
225 1 0.348591 0.0190451 0.497999
159 1 0.579608 0.00561733 0.424919
158 1 0.58875 0.0826706 0.337236
183 1 0.575214 0.166279 0.423442
187 1 0.757748 0.156935 0.388415
164 1 0.6708 0.0798307 0.416424
162 1 0.760925 0.0727799 0.336732
234 1 0.75989 0.0790081 0.498004
257 1 0.668028 0.162947 0.48607
238 1 0.925716 0.089845 0.491818
168 1 0.852869 0.0977467 0.410575
191 1 0.931903 0.161644 0.408538
167 1 0.928844 0.00228146 0.41754
165 1 0.840734 0.00525189 0.351301
242 1 0.0835636 0.257785 0.492162
245 1 0.13766 0.170484 0.491609
171 1 0.0731402 0.168688 0.406504
176 1 0.165732 0.260582 0.42329
175 1 0.226848 0.18038 0.424578
174 1 0.233162 0.259181 0.33667
177 1 0.313794 0.171357 0.337585
180 1 0.31904 0.250082 0.411392
249 1 0.32714 0.174819 0.496592
246 1 0.253366 0.258805 0.495874
179 1 0.400633 0.171684 0.409326
178 1 0.41001 0.263427 0.337914
184 1 0.484805 0.260683 0.425268
250 1 0.389878 0.257346 0.490656
254 1 0.596833 0.254325 0.482113
185 1 0.655659 0.176008 0.340096
207 1 0.579787 0.327843 0.409443
258 1 0.752728 0.247026 0.496135
188 1 0.680373 0.257523 0.407622
265 1 0.997668 0.329182 0.478503
215 1 0.91975 0.326887 0.399359
262 1 0.926397 0.243301 0.487006
172 1 0.999652 0.247918 0.407181
192 1 0.833871 0.246537 0.40331
285 1 0.835091 0.322334 0.485875
261 1 0.836433 0.172981 0.493228
577 1 0.0243813 0.499205 0.334802
266 1 0.0709556 0.428037 0.498021
195 1 0.097083 0.349221 0.417098
196 1 0.0063963 0.427728 0.41162
198 1 0.24741 0.423332 0.356269
197 1 0.181674 0.350777 0.335853
200 1 0.170548 0.421226 0.412683
199 1 0.24858 0.333662 0.415745
201 1 0.329485 0.345709 0.344155
581 1 0.167546 0.498925 0.337285
269 1 0.170406 0.333343 0.496651
273 1 0.332704 0.339794 0.493207
205 1 0.492982 0.335271 0.333857
208 1 0.49016 0.419741 0.42636
204 1 0.334047 0.430729 0.413486
202 1 0.425476 0.413836 0.333579
203 1 0.41109 0.339015 0.413099
587 1 0.416377 0.494597 0.410142
591 1 0.581265 0.489563 0.417072
212 1 0.663982 0.420481 0.404844
278 1 0.596853 0.414277 0.49255
665 1 0.672524 0.498271 0.489258
211 1 0.753099 0.341098 0.406916
282 1 0.76401 0.407947 0.499256
595 1 0.74893 0.485807 0.401397
599 1 0.923059 0.492328 0.4039
649 1 0.986456 0.496636 0.4962
216 1 0.837688 0.419611 0.413059
286 1 0.912787 0.398686 0.497719
290 1 0.0699766 0.0842461 0.653594
317 1 0.161427 0.159499 0.664569
224 1 0.160889 0.076438 0.577194
218 1 0.0798676 0.0738146 0.517882
228 1 0.327488 0.0810423 0.581111
223 1 0.245342 0.00079272 0.572505
232 1 0.498178 0.102573 0.579932
298 1 0.417313 0.0827939 0.655178
321 1 0.340858 0.163674 0.656271
301 1 0.496585 0.00916428 0.66107
229 1 0.495121 0.00530297 0.501673
302 1 0.581732 0.0954626 0.665479
236 1 0.663182 0.0878939 0.567552
231 1 0.576112 0.00278399 0.573209
230 1 0.577806 0.0911208 0.505577
233 1 0.658084 0.000461234 0.501609
259 1 0.754791 0.165341 0.575766
235 1 0.766491 0.00459755 0.567027
306 1 0.75512 0.0965641 0.660316
220 1 0.980804 0.0907514 0.584674
313 1 0.990958 0.164356 0.666627
240 1 0.848704 0.0958361 0.5823
239 1 0.915016 0.00615844 0.564953
243 1 0.0734086 0.18768 0.590702
244 1 0.000267157 0.257671 0.573371
248 1 0.161465 0.249544 0.581291
241 1 0.0185919 0.173758 0.503339
247 1 0.238587 0.17453 0.562291
318 1 0.242885 0.265693 0.662351
251 1 0.415661 0.178655 0.573773
252 1 0.333901 0.260134 0.588103
322 1 0.409584 0.254318 0.659837
275 1 0.418441 0.32636 0.581181
255 1 0.578288 0.17113 0.582234
256 1 0.500377 0.243281 0.60362
260 1 0.656301 0.250782 0.57923
253 1 0.501132 0.195553 0.512796
349 1 0.509492 0.332642 0.658768
326 1 0.590612 0.257655 0.665871
329 1 0.670168 0.174905 0.650688
283 1 0.75882 0.319385 0.576264
330 1 0.750488 0.244297 0.664365
333 1 0.830353 0.174421 0.664349
281 1 0.677456 0.325169 0.504531
264 1 0.838779 0.242229 0.581207
263 1 0.916103 0.173141 0.582559
287 1 0.922867 0.329225 0.581549
334 1 0.932033 0.257337 0.660168
357 1 0.838487 0.328124 0.651125
267 1 0.0747853 0.339579 0.559547
341 1 0.16246 0.344178 0.651663
272 1 0.159173 0.417247 0.575629
268 1 0.000200212 0.423315 0.588195
337 1 0.00313028 0.33631 0.653021
338 1 0.0902863 0.423893 0.662546
270 1 0.244472 0.426371 0.512598
271 1 0.251187 0.334622 0.573252
342 1 0.248364 0.414425 0.661361
345 1 0.326413 0.343737 0.655056
729 1 0.325514 0.496596 0.66261
725 1 0.170722 0.49779 0.665169
276 1 0.333758 0.414205 0.571089
274 1 0.422044 0.422712 0.507929
277 1 0.498259 0.343698 0.501921
279 1 0.583725 0.342789 0.576758
280 1 0.500779 0.419962 0.580882
284 1 0.660588 0.413981 0.583314
353 1 0.664263 0.337855 0.663785
661 1 0.501188 0.497437 0.500389
741 1 0.828928 0.490873 0.651571
354 1 0.75866 0.413292 0.649016
667 1 0.745134 0.498259 0.577044
671 1 0.922221 0.496443 0.589315
288 1 0.836475 0.406872 0.582463
358 1 0.91423 0.415185 0.660955
296 1 0.143621 0.0804826 0.725883
362 1 0.0853867 0.0801762 0.814947
294 1 0.244338 0.0774958 0.668931
366 1 0.260535 0.0933347 0.815904
300 1 0.336699 0.0752156 0.735629
325 1 0.479301 0.161659 0.668218
370 1 0.420725 0.100528 0.831623
369 1 0.341838 0.00779061 0.822868
303 1 0.589645 0.00487536 0.76149
304 1 0.513498 0.0827779 0.740058
397 1 0.522981 0.161932 0.825247
305 1 0.650663 0.0197061 0.67309
309 1 0.817094 0.00617447 0.670151
308 1 0.677976 0.0902022 0.746317
378 1 0.746053 0.0883824 0.830162
310 1 0.90721 0.0840442 0.668445
312 1 0.835275 0.090734 0.750832
292 1 0.999273 0.071241 0.745579
335 1 0.927158 0.159391 0.755905
311 1 0.905104 0.0115191 0.752999
289 1 0.980198 0.00371458 0.667419
381 1 0.83763 0.00625793 0.827145
314 1 0.0849876 0.253358 0.670356
315 1 0.0765546 0.166878 0.752976
386 1 0.0935354 0.254694 0.824523
320 1 0.172816 0.265283 0.740619
319 1 0.261662 0.172738 0.750619
417 1 0.328118 0.326758 0.830423
389 1 0.167231 0.166927 0.814908
390 1 0.245456 0.249037 0.833203
323 1 0.41948 0.171007 0.761138
324 1 0.336583 0.258139 0.74114
347 1 0.423623 0.318507 0.743419
394 1 0.406833 0.258702 0.827757
327 1 0.608043 0.169975 0.737947
328 1 0.508088 0.266315 0.747525
398 1 0.592643 0.257979 0.827383
429 1 0.823713 0.328607 0.832633
331 1 0.748731 0.17187 0.754134
332 1 0.67097 0.2569 0.745439
355 1 0.766056 0.33145 0.733917
425 1 0.679435 0.331503 0.830785
316 1 0.995996 0.264017 0.751836
336 1 0.847828 0.24023 0.760011
385 1 0.994741 0.176157 0.831712
339 1 0.0718088 0.335175 0.750873
340 1 0.00694563 0.414932 0.741168
723 1 0.0840989 0.488171 0.750459
343 1 0.242714 0.335876 0.744667
414 1 0.246706 0.408564 0.825722
344 1 0.167572 0.411494 0.745136
348 1 0.325833 0.414832 0.740574
727 1 0.249901 0.494019 0.751051
413 1 0.168477 0.339858 0.828793
346 1 0.421242 0.41517 0.678915
418 1 0.394304 0.410474 0.82443
731 1 0.408996 0.499663 0.769774
735 1 0.5882 0.497648 0.746374
805 1 0.511416 0.486983 0.830642
351 1 0.595324 0.3425 0.745969
352 1 0.50966 0.422062 0.750268
350 1 0.582542 0.421641 0.670981
422 1 0.603692 0.413095 0.830096
737 1 0.676035 0.489802 0.672373
356 1 0.686363 0.405001 0.745713
739 1 0.762658 0.492037 0.755997
793 1 0.983001 0.495399 0.83298
359 1 0.932794 0.342417 0.751588
360 1 0.842579 0.406449 0.755675
361 1 0.00375944 0.00152111 0.845392
387 1 0.0900406 0.16132 0.911288
363 1 0.0847488 0.00694974 0.911953
25 1 0.0231964 0.151894 0.990782
367 1 0.258333 0.0126869 0.903701
29 1 0.166911 0.152423 0.988374
368 1 0.170115 0.0838248 0.897407
372 1 0.329896 0.0984919 0.90244
6 1 0.235243 0.0736327 0.996127
371 1 0.398579 0.00305837 0.915139
373 1 0.494491 0.0138766 0.833717
376 1 0.491988 0.0853395 0.905928
374 1 0.59591 0.0825823 0.844624
14 1 0.573555 0.0793761 0.987151
37 1 0.502617 0.164426 0.999534
380 1 0.672848 0.0694282 0.922807
384 1 0.826511 0.0792371 0.918104
403 1 0.748997 0.153742 0.927396
382 1 0.915597 0.0904553 0.847824
364 1 0.998259 0.0808724 0.911009
407 1 0.906621 0.162718 0.926573
411 1 0.0907892 0.32736 0.919046
392 1 0.160359 0.24671 0.90554
388 1 0.00362296 0.235421 0.928669
391 1 0.239801 0.168886 0.904382
396 1 0.312992 0.257209 0.91949
395 1 0.416589 0.17746 0.920905
393 1 0.337319 0.178074 0.838072
419 1 0.407919 0.322761 0.921039
34 1 0.423309 0.24447 0.996525
423 1 0.589335 0.326013 0.917842
399 1 0.583595 0.167897 0.915831
400 1 0.50175 0.268495 0.905583
427 1 0.742042 0.325357 0.925787
401 1 0.666687 0.173294 0.851894
405 1 0.830898 0.175315 0.837308
404 1 0.672272 0.240847 0.937542
408 1 0.827612 0.243758 0.92338
402 1 0.74877 0.257455 0.834647
431 1 0.919217 0.32978 0.934703
406 1 0.923154 0.255356 0.845002
437 1 0.154652 0.492477 0.994501
410 1 0.0862535 0.409913 0.839548
797 1 0.158089 0.487537 0.835056
412 1 0.00345528 0.424439 0.923598
416 1 0.157388 0.417045 0.918124
799 1 0.240886 0.485753 0.914498
57 1 0.314379 0.343656 0.996199
415 1 0.240761 0.342092 0.916557
420 1 0.331888 0.419053 0.910681
441 1 0.323228 0.49819 0.982565
803 1 0.417258 0.493974 0.905696
58 1 0.420037 0.398719 0.987573
428 1 0.657267 0.412856 0.915114
424 1 0.504581 0.410086 0.92471
421 1 0.501356 0.357437 0.834348
62 1 0.581444 0.42067 0.99489
426 1 0.757627 0.41228 0.844074
811 1 0.750303 0.492416 0.940253
432 1 0.835554 0.414069 0.920326
430 1 0.908937 0.414352 0.838117
409 1 0.99974 0.349742 0.84943
815 1 0.909647 0.49877 0.934063
436 1 0.00927979 0.588941 0.0904704
459 1 0.101083 0.649079 0.0747974
505 1 0.00166063 0.503569 0.163391
434 1 0.0801906 0.577669 0.00263568
440 1 0.17346 0.574348 0.0747617
509 1 0.179713 0.503171 0.157887
439 1 0.257623 0.501739 0.0726684
510 1 0.257219 0.579263 0.152312
444 1 0.347344 0.591222 0.0781521
448 1 0.492487 0.568345 0.0751705
443 1 0.410134 0.501087 0.084497
467 1 0.435308 0.657014 0.093907
537 1 0.335435 0.662911 0.16411
469 1 0.495797 0.658171 0.00635418
541 1 0.512918 0.660839 0.165749
452 1 0.661187 0.576216 0.0885732
446 1 0.59472 0.581623 0.00106031
471 1 0.564763 0.66068 0.07819
518 1 0.575655 0.56932 0.161561
453 1 0.82464 0.512074 0.0282657
456 1 0.829003 0.587103 0.101738
450 1 0.747628 0.585297 0.000838076
454 1 0.91753 0.586155 0.0158283
458 1 0.0975285 0.751017 0.00425363
460 1 0.00243071 0.748196 0.0798639
483 1 0.0876012 0.820687 0.0910844
530 1 0.101592 0.725214 0.148757
457 1 0.0108861 0.676057 0.000394743
463 1 0.262846 0.668394 0.0862914
464 1 0.176791 0.744951 0.078734
534 1 0.247839 0.747582 0.162852
561 1 0.331111 0.821677 0.155223
462 1 0.268418 0.73684 0.00491031
485 1 0.174235 0.829336 0.00468983
468 1 0.351048 0.739074 0.0845281
472 1 0.49723 0.75796 0.114872
466 1 0.424251 0.764456 0.00626189
489 1 0.336621 0.827217 0.0115876
476 1 0.656437 0.764023 0.0830065
470 1 0.58011 0.75205 0.00730565
495 1 0.576947 0.826437 0.0999722
475 1 0.727514 0.679616 0.0879387
480 1 0.818204 0.752535 0.0958162
499 1 0.753474 0.832445 0.0925535
477 1 0.830873 0.679978 0.0116548
479 1 0.919512 0.671727 0.0886536
503 1 0.921826 0.815525 0.091485
501 1 0.833936 0.826186 0.0112897
73 1 0.000154945 0.992959 0.156301
481 1 0.00196908 0.838323 0.00505171
3 1 0.086456 0.98354 0.0751783
488 1 0.160437 0.902049 0.0833438
484 1 0.0010561 0.919293 0.0770865
5 1 0.15855 0.987132 0.000930214
487 1 0.244423 0.838244 0.0868001
7 1 0.2541 0.980069 0.0793752
490 1 0.400724 0.908236 0.0126227
493 1 0.4988 0.850124 0.0200577
491 1 0.411379 0.833408 0.0944094
492 1 0.340697 0.915886 0.102431
562 1 0.427717 0.920262 0.165971
496 1 0.495414 0.939069 0.0788876
500 1 0.661388 0.90324 0.0806586
15 1 0.598517 0.994318 0.0719524
19 1 0.740024 0.986151 0.0819337
504 1 0.827945 0.909996 0.0869727
89 1 0.675676 0.997003 0.161788
17 1 0.681393 0.996962 0.00164061
574 1 0.918765 0.902353 0.157695
23 1 0.915683 0.998957 0.0885432
502 1 0.913133 0.916071 0.0156939
21 1 0.833513 0.978555 0.00673899
529 1 0.0147496 0.658396 0.168772
506 1 0.104066 0.580566 0.172374
508 1 0.00467399 0.588613 0.250108
531 1 0.0902618 0.654895 0.249574
507 1 0.0904851 0.502391 0.234676
533 1 0.177396 0.663048 0.169775
512 1 0.177638 0.578812 0.253099
605 1 0.168378 0.658807 0.328804
516 1 0.333169 0.587069 0.259435
535 1 0.251156 0.666059 0.248541
511 1 0.262796 0.506636 0.254283
514 1 0.40528 0.576432 0.16919
513 1 0.336501 0.502916 0.168098
520 1 0.490799 0.58752 0.249343
539 1 0.417821 0.657115 0.251594
524 1 0.653443 0.588782 0.241287
522 1 0.740883 0.596524 0.169834
594 1 0.760689 0.59201 0.328367
523 1 0.758702 0.511802 0.243988
547 1 0.743098 0.664684 0.253753
617 1 0.671267 0.666596 0.329462
593 1 0.672722 0.501668 0.319894
526 1 0.916719 0.589164 0.170653
549 1 0.83437 0.664948 0.168485
528 1 0.837458 0.575501 0.2558
621 1 0.835207 0.662924 0.328812
527 1 0.928504 0.511268 0.264358
553 1 0.0108453 0.817267 0.169885
555 1 0.0943972 0.831774 0.250691
532 1 0.0180168 0.747255 0.254014
602 1 0.0969209 0.751156 0.328906
536 1 0.173819 0.738524 0.260005
540 1 0.329232 0.751378 0.245325
606 1 0.260467 0.750954 0.326745
557 1 0.182912 0.828864 0.176992
538 1 0.422436 0.769742 0.186112
610 1 0.405426 0.747978 0.326893
545 1 0.657119 0.669607 0.17288
543 1 0.57453 0.669452 0.264086
544 1 0.5076 0.756983 0.261584
542 1 0.586318 0.764792 0.185627
548 1 0.662491 0.757867 0.257154
546 1 0.741422 0.7509 0.171562
569 1 0.670629 0.830759 0.167145
573 1 0.826359 0.824734 0.175449
550 1 0.921854 0.74358 0.168309
551 1 0.932705 0.673763 0.260415
552 1 0.837116 0.742717 0.251711
575 1 0.908919 0.824952 0.250448
145 1 0.00434779 0.973625 0.330934
554 1 0.0829106 0.904169 0.170234
626 1 0.083061 0.899122 0.32971
75 1 0.0839231 0.996499 0.240562
559 1 0.255312 0.843918 0.26189
560 1 0.173752 0.922808 0.247133
558 1 0.250117 0.913613 0.16883
633 1 0.334742 0.835522 0.328371
563 1 0.413595 0.85187 0.259656
564 1 0.339313 0.925117 0.259492
568 1 0.491369 0.938367 0.261946
567 1 0.571926 0.850004 0.263186
565 1 0.508229 0.853086 0.174571
566 1 0.573477 0.935807 0.170598
571 1 0.756803 0.838024 0.259515
570 1 0.759261 0.900321 0.174178
572 1 0.668766 0.917048 0.251274
91 1 0.753712 0.994208 0.243225
576 1 0.848812 0.919684 0.239196
646 1 0.914787 0.909335 0.31962
556 1 0.988526 0.916087 0.240342
578 1 0.0953536 0.583316 0.337122
603 1 0.0851603 0.65551 0.424314
584 1 0.162643 0.578964 0.419879
579 1 0.0880349 0.500481 0.427377
582 1 0.254501 0.577634 0.342847
609 1 0.331944 0.660623 0.336445
607 1 0.247904 0.648255 0.4303
585 1 0.329954 0.50478 0.338631
583 1 0.251184 0.512995 0.43306
588 1 0.340763 0.580141 0.426816
586 1 0.417168 0.570928 0.336236
658 1 0.420112 0.58109 0.492484
657 1 0.344033 0.50443 0.499172
662 1 0.584748 0.570778 0.489867
685 1 0.516268 0.663433 0.494079
592 1 0.5044 0.588084 0.424357
590 1 0.575899 0.585178 0.333537
615 1 0.594918 0.660357 0.418484
589 1 0.502223 0.503747 0.350136
666 1 0.744629 0.576771 0.480313
693 1 0.826758 0.657494 0.498921
596 1 0.674377 0.577403 0.401642
669 1 0.830143 0.502025 0.492852
598 1 0.925564 0.585285 0.335531
580 1 0.994403 0.573139 0.418116
670 1 0.913606 0.573934 0.499923
600 1 0.837416 0.574606 0.396888
623 1 0.914528 0.661692 0.42971
673 1 0.998908 0.655164 0.490505
601 1 0.00122001 0.669157 0.335869
674 1 0.0932102 0.750382 0.49202
627 1 0.060385 0.823034 0.423617
631 1 0.260774 0.828699 0.421272
678 1 0.239086 0.736287 0.49654
608 1 0.179752 0.74247 0.407169
613 1 0.490239 0.668852 0.334727
681 1 0.334822 0.669807 0.488543
611 1 0.412072 0.668717 0.413706
612 1 0.340505 0.75877 0.415547
682 1 0.428567 0.741943 0.499911
616 1 0.521227 0.751427 0.428895
614 1 0.582644 0.766349 0.338555
620 1 0.662625 0.755718 0.40866
618 1 0.748847 0.747941 0.336011
643 1 0.739112 0.832358 0.41895
619 1 0.74675 0.673306 0.419974
624 1 0.827771 0.732747 0.418548
690 1 0.731511 0.744806 0.498382
717 1 0.80932 0.833249 0.498242
694 1 0.910042 0.739399 0.497166
622 1 0.915961 0.752194 0.334685
625 1 0.996085 0.827476 0.339915
604 1 0.996781 0.741683 0.416818
647 1 0.901148 0.822695 0.422513
217 1 0.0117327 0.996055 0.494661
701 1 0.166046 0.835955 0.486119
629 1 0.160619 0.835183 0.356853
149 1 0.149223 0.989787 0.336681
147 1 0.0752647 0.971784 0.409529
221 1 0.15301 0.997323 0.498471
151 1 0.246065 0.992618 0.432184
630 1 0.258514 0.92964 0.338135
632 1 0.170513 0.91506 0.422323
635 1 0.42195 0.837355 0.418157
634 1 0.419507 0.929623 0.343458
640 1 0.493764 0.926767 0.423101
636 1 0.333628 0.91638 0.416038
705 1 0.341391 0.836516 0.495346
638 1 0.567211 0.928744 0.347012
637 1 0.501302 0.841058 0.335373
644 1 0.657787 0.919087 0.408005
639 1 0.584306 0.833916 0.415059
161 1 0.658936 0.997515 0.334616
714 1 0.754501 0.926656 0.498914
642 1 0.756982 0.928126 0.339686
163 1 0.737182 0.992389 0.421136
641 1 0.677536 0.850933 0.333957
648 1 0.842256 0.90988 0.41903
628 1 0.993424 0.909047 0.408591
645 1 0.834586 0.836549 0.342544
237 1 0.84611 0.998849 0.490774
656 1 0.165955 0.577813 0.590744
675 1 0.0790697 0.658303 0.591289
722 1 0.0697387 0.577791 0.665672
677 1 0.162254 0.664174 0.507753
653 1 0.162752 0.505609 0.506589
650 1 0.0816996 0.585466 0.508275
651 1 0.0668336 0.510184 0.579346
726 1 0.259661 0.577384 0.666319
679 1 0.245976 0.663187 0.600509
654 1 0.2596 0.592801 0.52103
655 1 0.265749 0.503948 0.579636
660 1 0.347423 0.585897 0.58219
659 1 0.418518 0.502372 0.594064
683 1 0.439199 0.660061 0.57211
753 1 0.334642 0.661962 0.661622
664 1 0.512433 0.580107 0.586087
668 1 0.666309 0.577451 0.603451
663 1 0.590365 0.504165 0.566672
691 1 0.745538 0.659017 0.596213
672 1 0.826851 0.587626 0.588155
652 1 0.988851 0.600067 0.587287
742 1 0.908971 0.597685 0.66336
699 1 0.106785 0.823563 0.573029
746 1 0.0847324 0.753764 0.665461
745 1 0.00779275 0.677582 0.664341
680 1 0.16965 0.743878 0.589435
684 1 0.325171 0.744855 0.566129
750 1 0.259903 0.769532 0.654263
707 1 0.409145 0.820985 0.585822
754 1 0.412841 0.739431 0.652607
688 1 0.507227 0.754816 0.59422
687 1 0.579319 0.667581 0.578901
709 1 0.514957 0.832778 0.505822
686 1 0.59292 0.755226 0.513383
692 1 0.668484 0.742136 0.594524
696 1 0.825182 0.735949 0.583032
689 1 0.667282 0.667007 0.515154
695 1 0.917014 0.671797 0.586571
676 1 0.997137 0.746183 0.56747
719 1 0.901809 0.830763 0.567276
789 1 0.839758 0.825414 0.664048
769 1 0.988829 0.832747 0.638989
219 1 0.0831438 0.999323 0.593704
704 1 0.160754 0.928706 0.589467
770 1 0.077523 0.911564 0.651355
698 1 0.0838978 0.915022 0.500267
697 1 0.000239683 0.842109 0.510853
703 1 0.242135 0.850032 0.575505
708 1 0.326251 0.918581 0.583139
773 1 0.177751 0.84197 0.657668
774 1 0.25779 0.914652 0.660088
297 1 0.332957 0.991848 0.649411
702 1 0.255451 0.920539 0.50191
778 1 0.423248 0.91195 0.655287
227 1 0.413775 0.993895 0.585019
777 1 0.334924 0.843416 0.652473
706 1 0.41803 0.918469 0.502083
711 1 0.598525 0.836 0.584891
712 1 0.508395 0.908776 0.580038
781 1 0.506757 0.835817 0.662486
710 1 0.59168 0.91475 0.50831
715 1 0.724852 0.834981 0.59078
716 1 0.671158 0.930851 0.591089
786 1 0.745055 0.92879 0.664276
713 1 0.678253 0.847965 0.500126
720 1 0.836691 0.917984 0.582617
700 1 0.999612 0.930302 0.569867
718 1 0.92299 0.915943 0.501493
749 1 0.161838 0.65274 0.675667
728 1 0.157743 0.568293 0.743201
747 1 0.0805765 0.654605 0.74856
794 1 0.0913239 0.57439 0.822431
751 1 0.262195 0.662369 0.741796
798 1 0.232737 0.586792 0.812979
730 1 0.40675 0.589045 0.673778
733 1 0.49573 0.503221 0.669732
732 1 0.338861 0.580975 0.748508
736 1 0.48249 0.576009 0.752914
829 1 0.495318 0.65321 0.823921
761 1 0.654612 0.66338 0.673716
734 1 0.582298 0.578732 0.678212
806 1 0.574465 0.575731 0.831508
740 1 0.67709 0.5779 0.747963
738 1 0.755163 0.588784 0.673788
744 1 0.824296 0.587689 0.764445
721 1 0.990818 0.50171 0.669951
724 1 0.982441 0.59037 0.764297
743 1 0.897779 0.500059 0.761196
817 1 0.00178347 0.666901 0.830934
841 1 0.0130524 0.827381 0.825319
818 1 0.0830699 0.74663 0.822112
752 1 0.172026 0.768299 0.747936
821 1 0.179852 0.67947 0.813385
825 1 0.332874 0.677788 0.828419
822 1 0.25596 0.756521 0.817631
755 1 0.414211 0.677934 0.748072
756 1 0.339239 0.763148 0.744174
757 1 0.497395 0.671094 0.680816
779 1 0.41526 0.832515 0.736175
849 1 0.350423 0.831501 0.831422
760 1 0.502573 0.759018 0.750568
759 1 0.581271 0.671754 0.757776
758 1 0.588029 0.746485 0.667554
764 1 0.662852 0.759489 0.758624
830 1 0.574579 0.752061 0.832462
857 1 0.658519 0.825994 0.829154
762 1 0.74838 0.747098 0.670875
763 1 0.75038 0.678283 0.756818
765 1 0.832369 0.675982 0.676609
834 1 0.751819 0.760885 0.824813
766 1 0.922426 0.762283 0.67069
767 1 0.909707 0.679449 0.764983
748 1 0.997369 0.74946 0.743076
768 1 0.842051 0.759233 0.761219
293 1 0.162268 0.989249 0.674479
291 1 0.0848283 0.993649 0.753997
771 1 0.0782112 0.836358 0.745919
776 1 0.157575 0.920214 0.749528
365 1 0.182605 0.999788 0.824261
775 1 0.234283 0.857508 0.746594
780 1 0.32921 0.895345 0.744585
295 1 0.263938 0.993881 0.742652
845 1 0.172923 0.838404 0.829848
299 1 0.423286 0.9856 0.75258
850 1 0.416143 0.912526 0.832973
853 1 0.483267 0.834732 0.82926
783 1 0.583374 0.840282 0.748241
784 1 0.508067 0.92397 0.747644
782 1 0.584832 0.924459 0.667473
788 1 0.663403 0.904018 0.764946
307 1 0.733713 0.993812 0.749483
785 1 0.667992 0.843028 0.674616
787 1 0.753813 0.83598 0.74427
791 1 0.921766 0.844053 0.739853
772 1 0.995816 0.920708 0.758906
792 1 0.836923 0.907673 0.75153
862 1 0.90774 0.917528 0.827538
790 1 0.89552 0.928121 0.6712
795 1 0.0735052 0.507355 0.906234
461 1 0.162384 0.659221 0.996616
819 1 0.0906115 0.662651 0.923412
800 1 0.170969 0.578157 0.902844
801 1 0.318551 0.506752 0.837708
804 1 0.331042 0.591902 0.913608
438 1 0.236906 0.575855 0.982835
442 1 0.412477 0.561907 0.993265
802 1 0.405647 0.580264 0.835423
807 1 0.5886 0.502344 0.918032
808 1 0.512904 0.583642 0.921218
831 1 0.585689 0.66583 0.910802
812 1 0.662165 0.575019 0.918334
809 1 0.682745 0.505172 0.837537
813 1 0.82572 0.507747 0.8355
810 1 0.752916 0.589005 0.841312
816 1 0.829067 0.581958 0.922565
814 1 0.901774 0.594918 0.838169
796 1 0.996186 0.591261 0.911839
843 1 0.0904924 0.827063 0.91592
820 1 0.00773439 0.73887 0.906383
823 1 0.254137 0.669545 0.921825
847 1 0.249278 0.825082 0.913418
824 1 0.170677 0.748758 0.911476
828 1 0.326824 0.751174 0.915564
827 1 0.42148 0.66991 0.901619
851 1 0.424795 0.832502 0.920523
826 1 0.413842 0.757354 0.835385
465 1 0.367025 0.671627 0.994871
855 1 0.574693 0.832933 0.919692
832 1 0.505161 0.740944 0.913907
836 1 0.659788 0.754874 0.914
473 1 0.664213 0.666748 0.992776
474 1 0.753185 0.755677 0.992993
837 1 0.823945 0.67652 0.838834
833 1 0.669808 0.677257 0.834936
835 1 0.743315 0.668595 0.918532
478 1 0.928134 0.758183 0.995862
863 1 0.932145 0.831146 0.907368
840 1 0.837098 0.758943 0.910683
838 1 0.922213 0.746065 0.844739
839 1 0.917434 0.670284 0.921659
848 1 0.164502 0.911952 0.907185
842 1 0.085761 0.920352 0.837906
482 1 0.0874348 0.903027 0.997469
486 1 0.249189 0.91722 0.992349
846 1 0.278126 0.919448 0.835733
852 1 0.330642 0.914249 0.927866
854 1 0.560217 0.922738 0.839986
377 1 0.661246 0.997752 0.836625
860 1 0.6634 0.919173 0.900222
494 1 0.593733 0.927858 0.988042
856 1 0.502424 0.919127 0.926285
375 1 0.57752 0.998903 0.910089
498 1 0.750183 0.910869 0.996977
859 1 0.751559 0.842598 0.903684
858 1 0.756543 0.916613 0.833504
379 1 0.773801 0.986799 0.924306
497 1 0.667788 0.834408 0.991456
864 1 0.856501 0.906176 0.922235
861 1 0.836922 0.837132 0.835197
844 1 0.994802 0.918942 0.926288
383 1 0.915272 0.990728 0.922062
