ITEM: TIMESTEP
20750
ITEM: NUMBER OF ATOMS
864
ITEM: BOX BOUNDS pp pp pp
0.0000000000000000e+00 3.1559999999999999e+01
0.0000000000000000e+00 3.1559999999999999e+01
0.0000000000000000e+00 3.1559999999999999e+01
ITEM: ATOMS id type xs ys zs
8 1 0.156292 0.0856922 0.0855323
27 1 0.0848096 0.167467 0.0817232
74 1 0.088729 0.0777076 0.166903
31 1 0.232594 0.165684 0.0837617
12 1 0.32311 0.0676401 0.0741754
593 1 0.678184 0.485121 0.344505
78 1 0.23435 0.0845803 0.160265
82 1 0.41965 0.0983863 0.164492
16 1 0.506476 0.0872846 0.0841227
591 1 0.569583 0.494206 0.420862
583 1 0.241136 0.50142 0.419335
286 1 0.920898 0.43359 0.494216
20 1 0.67693 0.0878552 0.0802631
215 1 0.922859 0.331749 0.413295
34 1 0.412558 0.249849 0.00356009
90 1 0.754874 0.0818195 0.156598
525 1 0.833761 0.497072 0.169348
7 1 0.231318 0.00392251 0.0831888
54 1 0.252094 0.408514 0.00952395
453 1 0.834074 0.495985 0.0226373
4 1 0.0129789 0.0785133 0.0865833
24 1 0.818477 0.0790687 0.0709069
94 1 0.91238 0.0867246 0.167172
214 1 0.92841 0.421299 0.330138
28 1 0.990158 0.243898 0.086985
32 1 0.151154 0.246465 0.0725286
125 1 0.170238 0.335083 0.173346
105 1 0.325852 0.163444 0.165697
85 1 0.488393 0.0124292 0.170912
55 1 0.238077 0.32948 0.0676137
36 1 0.306765 0.24484 0.0757109
35 1 0.400451 0.171988 0.0822586
161 1 0.662015 0.0053855 0.332727
106 1 0.403231 0.253668 0.150565
40 1 0.490746 0.255041 0.0803449
39 1 0.596058 0.1504 0.082792
44 1 0.647075 0.239286 0.108235
110 1 0.56743 0.262557 0.178154
133 1 0.499912 0.33846 0.158457
234 1 0.758742 0.0940733 0.496911
43 1 0.74918 0.179398 0.0871677
117 1 0.831861 0.156112 0.165437
67 1 0.746926 0.323307 0.0945577
113 1 0.661107 0.159296 0.17165
527 1 0.93321 0.497322 0.240798
47 1 0.91659 0.159774 0.0874719
48 1 0.827897 0.254958 0.0948253
97 1 0.00208905 0.173838 0.166841
118 1 0.906646 0.24444 0.168401
42 1 0.750254 0.240306 -0.00268226
51 1 0.0821107 0.332941 0.0821178
665 1 0.673727 0.497553 0.498127
52 1 0.000549544 0.418804 0.0876375
163 1 0.74598 0.00964267 0.421604
38 1 0.569963 0.241209 0.00411454
56 1 0.161834 0.420259 0.0707175
60 1 0.334006 0.408488 0.0871065
59 1 0.425845 0.3487 0.0792565
64 1 0.503287 0.420597 0.0884921
129 1 0.323841 0.335009 0.162058
130 1 0.410887 0.431417 0.158186
95 1 0.920843 0.00932224 0.251834
63 1 0.569531 0.323706 0.0759592
134 1 0.586471 0.404687 0.17969
68 1 0.659747 0.406839 0.0981023
521 1 0.642691 0.491897 0.175455
455 1 0.909464 0.486247 0.0839856
138 1 0.727248 0.41399 0.170563
141 1 0.827773 0.329096 0.173591
62 1 0.583828 0.413667 0.0112098
65 1 0.660635 0.305389 0.0204724
71 1 0.910454 0.333982 0.083217
72 1 0.837187 0.408155 0.0921237
22 1 0.913417 0.084291 0.0034735
80 1 0.176619 0.0840085 0.266059
99 1 0.0851768 0.157767 0.252163
169 1 1.00033 0.159012 0.324144
211 1 0.762739 0.322928 0.419927
101 1 0.154907 0.166342 0.166343
84 1 0.314469 0.0792654 0.268616
103 1 0.250479 0.168149 0.24525
150 1 0.246225 0.103617 0.350408
154 1 0.397823 0.0846729 0.327284
93 1 0.832528 0.00408564 0.156342
88 1 0.49952 0.092834 0.2562
86 1 0.581672 0.0858264 0.172421
158 1 0.568011 0.102009 0.353866
92 1 0.646128 0.0796382 0.260584
185 1 0.668085 0.175509 0.329352
76 1 0.00175605 0.0829328 0.249881
89 1 0.65539 0.00409125 0.173619
96 1 0.819351 0.0753062 0.250027
166 1 0.906369 0.0618715 0.340204
98 1 0.0887685 0.26105 0.172841
104 1 0.174194 0.248179 0.241119
100 1 0.997997 0.240314 0.246437
121 1 1.00202 0.336823 0.158688
170 1 0.0836397 0.249369 0.32662
102 1 0.248923 0.26102 0.163861
108 1 0.318159 0.259772 0.247627
197 1 0.154945 0.324715 0.326847
174 1 0.256362 0.256732 0.334266
109 1 0.49626 0.18049 0.160761
107 1 0.394776 0.165608 0.249154
178 1 0.40482 0.25351 0.330615
112 1 0.487157 0.267608 0.246822
131 1 0.407572 0.332385 0.239461
111 1 0.585515 0.163973 0.251586
182 1 0.583784 0.24492 0.327571
114 1 0.748463 0.246842 0.179693
115 1 0.751393 0.165831 0.25391
116 1 0.66754 0.239144 0.246225
139 1 0.755758 0.331325 0.261133
120 1 0.831945 0.243247 0.247851
119 1 0.911985 0.152413 0.248125
143 1 0.920407 0.323891 0.241208
189 1 0.827302 0.167414 0.334476
123 1 0.0877349 0.350181 0.231917
122 1 0.0926964 0.422882 0.148461
194 1 0.0931907 0.423504 0.325789
124 1 0.996807 0.407353 0.246344
193 1 1.00219 0.323918 0.323037
126 1 0.242101 0.414015 0.151905
127 1 0.248354 0.33792 0.261716
128 1 0.178089 0.41912 0.245788
132 1 0.321409 0.428124 0.23166
198 1 0.243679 0.418253 0.330645
136 1 0.491907 0.429173 0.244187
202 1 0.40697 0.422646 0.303149
205 1 0.504416 0.347335 0.320617
137 1 0.665148 0.327192 0.178761
216 1 0.831712 0.42709 0.416507
135 1 0.592145 0.326019 0.250153
206 1 0.590785 0.421964 0.322249
140 1 0.673199 0.413108 0.258294
210 1 0.758523 0.404661 0.336115
142 1 0.924768 0.406702 0.173594
213 1 0.859651 0.336867 0.335446
144 1 0.832202 0.405285 0.243811
257 1 0.673605 0.169787 0.489952
146 1 0.0795456 0.0882062 0.334406
148 1 0.99663 0.0746737 0.419069
173 1 0.163828 0.17272 0.347045
177 1 0.324632 0.177803 0.339811
212 1 0.683857 0.407843 0.423415
152 1 0.158778 0.0862216 0.418086
156 1 0.340852 0.0828243 0.418718
181 1 0.500478 0.173605 0.339894
589 1 0.505933 0.498115 0.33258
160 1 0.471968 0.0924551 0.429306
164 1 0.674594 0.0854367 0.411364
183 1 0.573839 0.197902 0.425608
222 1 0.241889 0.0869156 0.491185
159 1 0.580837 0.00745998 0.422139
200 1 0.157458 0.42668 0.42226
162 1 0.736828 0.0969558 0.32921
187 1 0.748268 0.174195 0.412634
207 1 0.582458 0.340761 0.398172
168 1 0.837574 0.0874803 0.412268
245 1 0.14872 0.16368 0.487975
75 1 0.090313 0.00384128 0.262775
171 1 0.0815284 0.178266 0.413567
172 1 0.99064 0.240979 0.411188
176 1 0.157743 0.270233 0.417959
175 1 0.251793 0.184785 0.421752
199 1 0.246055 0.334078 0.417956
180 1 0.329087 0.261704 0.423686
23 1 0.919917 -0.000865649 0.08961
262 1 0.912036 0.253039 0.495528
203 1 0.399538 0.350434 0.408035
179 1 0.411754 0.171967 0.415616
188 1 0.665215 0.247286 0.404009
184 1 0.479106 0.273283 0.411225
266 1 0.076594 0.416017 0.503122
201 1 0.327986 0.357199 0.323247
204 1 0.322529 0.429505 0.413903
186 1 0.749341 0.256748 0.338639
45 1 0.836444 0.169923 0.00474095
192 1 0.834837 0.236294 0.414579
190 1 0.907109 0.23869 0.322625
191 1 0.926612 0.160471 0.416798
196 1 0.00252732 0.417829 0.404677
208 1 0.497601 0.415991 0.427959
195 1 0.0580078 0.324462 0.418396
209 1 0.66557 0.318251 0.32107
46 1 0.90577 0.24419 0.017549
285 1 0.850585 0.346675 0.494253
11 1 0.424295 0.010319 0.083404
83 1 0.413244 0.0144213 0.234935
81 1 0.317549 0.0227809 0.17247
49 1 0.0019446 0.341314 0.00969238
435 1 0.0827088 0.493068 0.0732563
69 1 0.827553 0.326972 0.00250213
523 1 0.755644 0.497575 0.243368
15 1 0.596424 0.0159969 0.0825659
449 1 0.674321 0.488741 0.0134773
451 1 0.738369 0.490296 0.10449
25 1 -0.00275218 0.155414 0.0134169
66 1 0.748802 0.413082 0.0111597
33 1 0.324845 0.14893 -0.000664087
230 1 0.574433 0.0888548 0.491357
242 1 0.0497079 0.243238 0.497496
79 1 0.243461 0.00780062 0.25306
599 1 0.927896 0.496112 0.413861
511 1 0.229323 0.501426 0.242386
597 1 0.843942 0.492293 0.320509
157 1 0.493421 0.0181982 0.343575
13 1 0.504392 0.00324514 0.00555044
57 1 0.33641 0.327065 0.00240659
250 1 0.401276 0.274193 0.501352
249 1 0.333516 0.165725 0.49683
246 1 0.240579 0.264321 0.498189
282 1 0.766308 0.414317 0.49997
37 1 0.496477 0.164355 0.0118137
6 1 0.245641 0.0756218 0.00306094
261 1 0.840393 0.169975 0.49502
29 1 0.160772 0.151722 0.00393142
2 1 0.0795122 0.0770069 0.00629592
258 1 0.758741 0.251102 0.494635
233 1 0.669598 0.00126909 0.491541
253 1 0.488641 0.200303 0.493344
238 1 0.912655 0.0785096 0.492396
243 1 0.0724506 0.158977 0.587888
224 1 0.158244 0.0746197 0.580289
431 1 0.928814 0.32717 0.919109
290 1 0.0720118 0.079032 0.678612
274 1 0.399517 0.427925 0.505931
317 1 0.156575 0.16995 0.659838
235 1 0.735806 0.00522799 0.566508
228 1 0.315265 0.0781147 0.577775
251 1 0.41837 0.182315 0.570542
321 1 0.323503 0.155645 0.664671
369 1 0.336825 0.00534373 0.828186
361 1 0.00725884 0.0024489 0.832339
281 1 0.689025 0.34066 0.510787
265 1 0.98651 0.348315 0.499213
232 1 0.515258 0.112035 0.576495
241 1 0.994018 0.149508 0.497022
236 1 0.660606 0.0914697 0.577986
255 1 0.585798 0.196592 0.578963
240 1 0.826724 0.0760595 0.57954
259 1 0.754 0.163602 0.583324
805 1 0.495938 0.494879 0.840971
729 1 0.310286 0.497003 0.673144
220 1 0.988573 0.0792955 0.581615
263 1 0.907152 0.169364 0.580033
231 1 0.584209 0.00917319 0.570361
229 1 0.502393 0.0112602 0.50214
248 1 0.14339 0.242587 0.569137
314 1 0.069921 0.243121 0.666122
267 1 0.071806 0.323085 0.577857
244 1 0.9897 0.257819 0.57854
341 1 0.153373 0.327746 0.661872
337 1 0.000427037 0.326751 0.670274
801 1 0.345602 0.477642 0.821126
247 1 0.225432 0.177708 0.5769
318 1 0.248561 0.246439 0.669175
271 1 0.249268 0.339527 0.592226
663 1 0.597005 0.491632 0.584755
811 1 0.746607 0.495789 0.92557
299 1 0.424603 0.00549578 0.744565
252 1 0.327769 0.250945 0.575198
275 1 0.401782 0.350123 0.583247
256 1 0.491411 0.266323 0.597945
279 1 0.584529 0.340654 0.583847
326 1 0.59868 0.264484 0.677794
260 1 0.675793 0.260434 0.586256
283 1 0.770976 0.334595 0.578222
330 1 0.759365 0.256484 0.675219
357 1 0.837797 0.343014 0.661985
264 1 0.844865 0.259439 0.582957
287 1 0.921865 0.339039 0.59268
334 1 0.913426 0.258494 0.67326
363 1 0.0784672 0.00237824 0.919696
272 1 0.141681 0.404027 0.583672
268 1 0.99393 0.418927 0.580152
9 1 0.339039 0.0093438 0.985199
18 1 0.741803 0.0836685 0.99741
342 1 0.235134 0.420748 0.680637
270 1 0.220336 0.424066 0.513595
809 1 0.676519 0.496866 0.846512
276 1 0.325867 0.432727 0.591271
280 1 0.478277 0.422256 0.589324
346 1 0.430635 0.413768 0.680039
412 1 0.987215 0.415701 0.918077
350 1 0.604414 0.420445 0.667774
284 1 0.682342 0.414017 0.5871
354 1 0.747996 0.416522 0.664113
58 1 0.404989 0.41714 0.994579
725 1 0.153134 0.489365 0.669703
277 1 0.498702 0.343006 0.508678
288 1 0.854156 0.428792 0.583905
358 1 0.922331 0.422502 0.663157
741 1 0.834088 0.494501 0.671663
445 1 0.500399 0.486759 0.992672
389 1 0.159667 0.162524 0.838567
315 1 0.0781396 0.158473 0.749155
294 1 0.242322 0.079725 0.673889
296 1 0.169651 0.0859586 0.751086
300 1 0.34295 0.0874448 0.747375
298 1 0.418007 0.0919067 0.661655
323 1 0.423154 0.171466 0.746034
807 1 0.583086 0.491458 0.925626
815 1 0.904934 0.494182 0.9266
304 1 0.503945 0.0733179 0.748428
302 1 0.591179 0.090997 0.658815
325 1 0.509505 0.180724 0.652407
308 1 0.666684 0.0830709 0.737385
329 1 0.671603 0.174863 0.658316
432 1 0.819429 0.423642 0.921537
306 1 0.749919 0.0852718 0.658981
312 1 0.826882 0.0848679 0.734542
292 1 0.98246 0.090283 0.747087
301 1 0.497207 0.0153361 0.655424
310 1 0.908874 0.0568524 0.672748
333 1 0.831771 0.170647 0.66917
335 1 0.904476 0.173255 0.756504
313 1 0.995662 0.16721 0.668798
386 1 0.067367 0.236697 0.842176
316 1 0.992852 0.241603 0.753497
339 1 0.0847541 0.338485 0.745116
409 1 0.98727 0.328006 0.822169
320 1 0.154774 0.249248 0.741132
319 1 0.241236 0.165067 0.747115
390 1 0.250989 0.250257 0.818968
343 1 0.242608 0.322666 0.738036
417 1 0.331949 0.33844 0.821317
345 1 0.332903 0.341313 0.666248
322 1 0.400955 0.241332 0.669443
324 1 0.325009 0.243718 0.749186
353 1 0.6745 0.338142 0.670499
349 1 0.513766 0.33903 0.668353
327 1 0.577606 0.170376 0.730888
328 1 0.505303 0.262764 0.742229
332 1 0.665514 0.261493 0.75583
331 1 0.757089 0.180856 0.750866
402 1 0.762374 0.247395 0.848414
336 1 0.842108 0.257255 0.754155
359 1 0.913038 0.334464 0.74874
338 1 0.0697937 0.413218 0.66409
426 1 0.762548 0.415234 0.827449
410 1 0.0888735 0.415019 0.851668
50 1 0.0769543 0.423642 0.989161
344 1 0.148498 0.417898 0.76187
348 1 0.33477 0.409882 0.733121
428 1 0.676662 0.421319 0.925629
416 1 0.184891 0.417227 0.907828
347 1 0.417067 0.321534 0.741652
418 1 0.42715 0.407662 0.834392
427 1 0.748498 0.344295 0.928578
352 1 0.513709 0.417243 0.748666
351 1 0.593801 0.33775 0.762138
356 1 0.670654 0.421111 0.756623
422 1 0.581846 0.414095 0.848401
743 1 0.924709 0.489935 0.744836
429 1 0.839034 0.331784 0.844337
355 1 0.749456 0.328674 0.755684
425 1 0.681829 0.330102 0.836256
430 1 0.907453 0.418853 0.833279
340 1 0.00161947 0.413107 0.752974
360 1 0.829777 0.412891 0.748229
424 1 0.496433 0.402663 0.918549
419 1 0.409794 0.333966 0.907001
405 1 0.833376 0.168979 0.836468
362 1 0.0844635 0.0818065 0.822719
385 1 0.981313 0.166591 0.848176
368 1 0.160866 0.0742315 0.923103
387 1 0.07762 0.157066 0.919123
10 1 0.421606 0.0838264 0.999164
366 1 0.261346 0.0828933 0.818163
372 1 0.344183 0.075178 0.905677
423 1 0.590825 0.337455 0.927143
406 1 0.913985 0.251902 0.844622
370 1 0.432234 0.0802068 0.848317
393 1 0.34658 0.157384 0.819982
376 1 0.522977 0.0809984 0.910235
374 1 0.601012 0.0959307 0.823618
735 1 0.596871 0.498705 0.750696
723 1 0.0757699 0.496719 0.760664
380 1 0.666173 0.078745 0.911311
378 1 0.740536 0.0665589 0.816385
733 1 0.511122 0.496648 0.661328
382 1 0.919222 0.0720661 0.826821
367 1 0.244122 0.000100082 0.912679
364 1 1.00168 0.0835253 0.917244
384 1 0.832522 0.0872564 0.930758
803 1 0.4169 0.496143 0.922563
441 1 0.318725 0.496675 0.988599
407 1 0.912396 0.171527 0.928491
411 1 0.0666807 0.314951 0.910361
388 1 0.993014 0.245176 0.921179
413 1 0.168181 0.321122 0.825917
391 1 0.270976 0.166865 0.910134
415 1 0.254466 0.322048 0.898178
392 1 0.160209 0.252927 0.921465
408 1 0.840145 0.251924 0.924101
420 1 0.327539 0.407231 0.908221
394 1 0.425419 0.254468 0.837368
396 1 0.325531 0.253642 0.911818
395 1 0.417417 0.166599 0.929912
398 1 0.588501 0.264415 0.83291
421 1 0.50821 0.336965 0.824342
397 1 0.509445 0.159956 0.813933
399 1 0.586441 0.182586 0.917477
400 1 0.506947 0.271514 0.91531
404 1 0.671157 0.248591 0.928365
414 1 0.242125 0.410794 0.812713
401 1 0.675908 0.170567 0.82215
403 1 0.745093 0.156439 0.904543
218 1 0.078356 0.0721759 0.499294
70 1 0.902298 0.403462 0.997443
227 1 0.407802 0.0019648 0.582281
278 1 0.601217 0.421824 0.505008
30 1 0.243713 0.230849 0.986332
727 1 0.243524 0.49641 0.753575
53 1 0.157379 0.335512 0.988366
226 1 0.407014 0.0788241 0.514506
21 1 0.83312 -0.00160065 0.99649
14 1 0.591252 0.088257 0.992858
379 1 0.756756 -0.000694502 0.909294
41 1 0.66462 0.173048 0.988723
437 1 0.162205 0.494634 0.988167
61 1 0.502465 0.336634 0.998552
273 1 0.309148 0.353534 0.503114
254 1 0.590245 0.274909 0.502887
26 1 0.0759855 0.236211 0.989429
269 1 0.152831 0.333603 0.515143
459 1 0.105537 0.694363 0.0932289
506 1 0.0827179 0.593703 0.14981
440 1 0.17358 0.595787 0.0859845
537 1 0.328608 0.668562 0.171287
718 1 0.905695 0.906841 0.497422
443 1 0.416513 0.500285 0.0801765
444 1 0.328484 0.581793 0.0861121
585 1 0.345471 0.501586 0.336396
514 1 0.427462 0.588081 0.164642
717 1 0.831494 0.822981 0.494333
448 1 0.512092 0.57734 0.088806
452 1 0.667071 0.572856 0.0866966
518 1 0.573732 0.60331 0.169497
646 1 0.920462 0.922614 0.324485
545 1 0.663324 0.668256 0.158702
522 1 0.736209 0.581218 0.178702
149 1 0.172905 0.995303 0.342421
225 1 0.327605 0.993565 0.502968
87 1 0.566489 0.997395 0.25725
436 1 0.985969 0.589364 0.0745125
456 1 0.832704 0.581323 0.0925794
505 1 0.0074975 0.508983 0.145998
647 1 0.910582 0.836988 0.405806
497 1 0.672923 0.823727 0.013136
464 1 0.19291 0.763898 0.0851061
460 1 0.00866899 0.763649 0.0844814
483 1 0.102366 0.818605 0.0917479
595 1 0.768913 0.509881 0.418976
533 1 0.181048 0.690418 0.172173
463 1 0.262327 0.672233 0.0914379
153 1 0.334858 0.997203 0.325592
165 1 0.822048 0.9989 0.335477
467 1 0.409597 0.656514 0.0766581
468 1 0.338537 0.74294 0.0933908
538 1 0.413256 0.7397 0.163838
491 1 0.418953 0.852816 0.0896629
702 1 0.267201 0.916661 0.493673
541 1 0.49843 0.676068 0.173826
471 1 0.590509 0.665774 0.0833543
472 1 0.503338 0.739588 0.0842769
542 1 0.579194 0.755004 0.167189
17 1 0.673383 0.997703 0.00237818
476 1 0.666852 0.751116 0.0970469
475 1 0.755526 0.659444 0.0893558
499 1 0.753594 0.852294 0.0777878
479 1 0.907244 0.664642 0.0817365
480 1 0.842255 0.755481 0.0794834
503 1 0.92543 0.831817 0.0879131
670 1 0.934804 0.584054 0.484707
155 1 0.426506 0.993608 0.427177
488 1 0.166204 0.913168 0.0709587
628 1 0.00213909 0.906376 0.430525
690 1 0.762521 0.745655 0.492311
73 1 0.996643 0.99656 0.169736
487 1 0.264128 0.843724 0.0831067
492 1 0.332272 0.932854 0.0807607
474 1 0.746078 0.750109 0.0114176
77 1 0.149298 0.988039 0.169408
507 1 0.0815575 0.527197 0.243136
565 1 0.495753 0.838298 0.156129
562 1 0.405452 0.919048 0.166241
496 1 0.519299 0.929873 0.083654
495 1 0.591565 0.833761 0.089246
662 1 0.596002 0.580229 0.49489
494 1 0.59139 0.913996 0.0040109
513 1 0.323224 0.512168 0.166611
500 1 0.659204 0.92559 0.0900704
642 1 0.753088 0.909934 0.3407
504 1 0.83216 0.920114 0.0708681
484 1 0.000126908 0.920496 0.0861114
493 1 0.511017 0.821504 0.00890143
587 1 0.420991 0.510472 0.428269
631 1 0.252683 0.81912 0.411487
508 1 0.997016 0.591942 0.230906
510 1 0.243661 0.590265 0.167507
512 1 0.160242 0.597982 0.241186
535 1 0.263794 0.672866 0.260057
648 1 0.827698 0.917984 0.415232
516 1 0.337278 0.578954 0.251748
586 1 0.411348 0.588164 0.339316
91 1 0.739739 0.988996 0.247792
520 1 0.504502 0.595256 0.251339
590 1 0.583603 0.575173 0.342133
524 1 0.656806 0.569685 0.258492
654 1 0.248134 0.581925 0.499335
509 1 0.16503 0.504749 0.152364
689 1 0.67645 0.66664 0.493143
528 1 0.826056 0.580544 0.23902
594 1 0.757934 0.582034 0.337553
547 1 0.740234 0.677626 0.233985
710 1 0.596464 0.927379 0.489865
529 1 0.00101806 0.669475 0.148323
526 1 0.915789 0.573116 0.16956
598 1 0.93047 0.576171 0.322186
530 1 0.0790803 0.754901 0.182088
531 1 0.0789993 0.65246 0.241682
602 1 0.0734532 0.739945 0.328207
532 1 0.989788 0.755705 0.245578
553 1 0.991434 0.843874 0.17297
534 1 0.262213 0.748489 0.168921
561 1 0.337349 0.825511 0.158968
536 1 0.175216 0.741216 0.254986
540 1 0.341481 0.76295 0.251412
539 1 0.411577 0.6775 0.259253
613 1 0.517698 0.678141 0.332816
544 1 0.493474 0.757906 0.259273
563 1 0.41907 0.832112 0.270721
610 1 0.412257 0.749722 0.34748
569 1 0.661751 0.83866 0.169064
543 1 0.584967 0.673202 0.254738
567 1 0.567189 0.825844 0.246829
621 1 0.845345 0.653691 0.330507
546 1 0.753961 0.759101 0.157052
548 1 0.669064 0.754141 0.240551
617 1 0.67665 0.659694 0.347512
552 1 0.826771 0.753992 0.24748
549 1 0.830563 0.668876 0.169259
550 1 0.913247 0.743756 0.162857
551 1 0.910736 0.658386 0.251588
645 1 0.838317 0.835979 0.340121
575 1 0.906443 0.831944 0.25716
555 1 0.0935325 0.823587 0.261254
554 1 0.0923424 0.899891 0.174755
556 1 0.996139 0.911257 0.249006
557 1 0.168235 0.825467 0.179868
558 1 0.251558 0.921908 0.162374
559 1 0.247491 0.823833 0.248182
560 1 0.174713 0.916623 0.251275
627 1 0.0798407 0.817506 0.416302
666 1 0.760258 0.602667 0.49334
633 1 0.33002 0.826997 0.332254
564 1 0.320378 0.907067 0.241496
634 1 0.426188 0.919171 0.347774
632 1 0.180657 0.906361 0.416665
566 1 0.575626 0.923719 0.179497
637 1 0.497628 0.851439 0.333514
638 1 0.571875 0.9374 0.340818
568 1 0.495375 0.926155 0.248367
572 1 0.655263 0.915094 0.268127
573 1 0.833384 0.835712 0.170218
571 1 0.752745 0.832245 0.252485
570 1 0.756362 0.9148 0.172635
577 1 0.0123174 0.508164 0.329632
574 1 0.916833 0.9234 0.179019
576 1 0.830275 0.912654 0.266564
644 1 0.667688 0.92479 0.403519
601 1 1.00049 0.658679 0.309956
578 1 0.0846268 0.588411 0.332398
584 1 0.169426 0.582741 0.406081
580 1 0.00989946 0.590505 0.404119
582 1 0.246371 0.579615 0.32607
605 1 0.178958 0.670151 0.334375
447 1 0.576085 0.496341 0.0781225
588 1 0.340912 0.58576 0.425605
609 1 0.336737 0.676475 0.337458
611 1 0.42517 0.664886 0.410529
650 1 0.0899786 0.596251 0.501909
640 1 0.513281 0.91302 0.430165
592 1 0.501916 0.588751 0.41634
615 1 0.593595 0.655126 0.412622
619 1 0.759911 0.674472 0.414304
596 1 0.679578 0.569967 0.417528
600 1 0.853119 0.575309 0.408698
626 1 0.0812298 0.908554 0.328025
623 1 0.920174 0.662929 0.404438
604 1 0.989004 0.748371 0.403495
603 1 0.0933654 0.669952 0.41399
608 1 0.171871 0.759704 0.420986
607 1 0.245786 0.666857 0.420859
606 1 0.257162 0.750092 0.318501
635 1 0.429645 0.830729 0.423593
616 1 0.520945 0.735095 0.422632
612 1 0.336691 0.738751 0.42926
614 1 0.605369 0.741788 0.341024
641 1 0.668879 0.834152 0.345762
639 1 0.581821 0.82899 0.419929
630 1 0.240085 0.913202 0.333056
643 1 0.75667 0.836919 0.412313
618 1 0.757089 0.75384 0.329061
620 1 0.676783 0.745267 0.413457
629 1 0.16138 0.828879 0.343773
636 1 0.334908 0.910277 0.406505
625 1 0.00553955 0.842573 0.33304
622 1 0.927934 0.738647 0.320514
624 1 0.842107 0.746508 0.410376
450 1 0.745565 0.584706 0.00285276
145 1 0.0212295 0.994436 0.344828
151 1 0.26543 0.99446 0.409578
439 1 0.25149 0.500783 0.0743635
697 1 0.99647 0.817596 0.497709
579 1 0.0863715 0.513533 0.419555
3 1 0.0896982 0.994193 0.0824694
19 1 0.75393 0.992484 0.0860441
581 1 0.172216 0.503209 0.332306
434 1 0.0808848 0.597746 0.0211322
517 1 0.511421 0.507456 0.169862
515 1 0.433151 0.517033 0.245462
693 1 0.843187 0.67329 0.496083
167 1 0.922813 0.994142 0.428603
147 1 0.0850067 0.98724 0.42524
519 1 0.569627 0.508488 0.254468
694 1 0.918678 0.740773 0.489345
482 1 0.0898571 0.910416 0.00343428
446 1 0.589772 0.572001 0.00118269
481 1 0.0053367 0.835614 0.00342692
677 1 0.169291 0.674771 0.498097
673 1 0.00388609 0.667919 0.484824
489 1 0.340273 0.845535 0.00686084
462 1 0.275829 0.756492 0.0202999
433 1 0.986741 0.501771 0.00501659
470 1 0.57978 0.734918 0.000350724
498 1 0.743858 0.913225 0.00269941
457 1 0.990988 0.673689 0.00634731
501 1 0.84209 0.839958 0.00902149
652 1 0.00675413 0.593292 0.590837
461 1 0.174384 0.650426 0.987256
469 1 0.503475 0.645246 1.00064
698 1 0.0861697 0.912156 0.509981
656 1 0.166412 0.605167 0.585717
660 1 0.320857 0.583201 0.591615
679 1 0.255219 0.681371 0.586599
657 1 0.328082 0.504344 0.500162
664 1 0.523978 0.582827 0.582126
683 1 0.424439 0.647562 0.595596
863 1 0.904049 0.828739 0.91351
373 1 0.512499 0.984358 0.822377
651 1 0.0802452 0.514273 0.586101
734 1 0.588618 0.575086 0.677022
668 1 0.664409 0.594147 0.575329
761 1 0.667753 0.667083 0.671872
860 1 0.684776 0.918655 0.910485
714 1 0.733661 0.916649 0.499871
239 1 0.926744 0.987565 0.576293
691 1 0.749413 0.661374 0.597271
795 1 0.0655055 0.500554 0.922137
738 1 0.76349 0.576729 0.667635
765 1 0.826845 0.665229 0.661632
672 1 0.837178 0.57669 0.585664
797 1 0.166451 0.499473 0.837706
742 1 0.908107 0.595131 0.673938
813 1 0.831205 0.511812 0.821762
675 1 0.0937022 0.680537 0.593786
375 1 0.573259 0.985421 0.915549
371 1 0.437713 0.992656 0.911205
680 1 0.173816 0.757221 0.613613
684 1 0.354301 0.741706 0.590159
773 1 0.164652 0.84655 0.677396
438 1 0.246234 0.572151 0.991543
707 1 0.419112 0.823385 0.590531
688 1 0.521958 0.744336 0.587474
777 1 0.342614 0.822261 0.676105
678 1 0.258442 0.751917 0.509267
687 1 0.594369 0.669199 0.571758
692 1 0.669468 0.745111 0.58606
381 1 0.836856 0.997482 0.80134
305 1 0.671726 0.994066 0.659223
365 1 0.164135 0.994331 0.829857
762 1 0.751098 0.739263 0.668885
696 1 0.83083 0.756554 0.574312
695 1 0.922556 0.657373 0.586316
676 1 0.983638 0.753346 0.575458
719 1 0.905753 0.833743 0.580506
667 1 0.756241 0.504434 0.577325
864 1 0.839803 0.926133 0.905463
699 1 0.0769589 0.833534 0.579651
704 1 0.176153 0.911786 0.578109
700 1 0.99076 0.903726 0.568096
703 1 0.25487 0.841569 0.581524
671 1 0.936882 0.513336 0.581441
739 1 0.746182 0.501798 0.757496
293 1 0.176156 0.993167 0.670225
708 1 0.333497 0.920256 0.585661
731 1 0.420201 0.49744 0.744047
711 1 0.593547 0.845038 0.572848
712 1 0.50325 0.92563 0.56786
716 1 0.671672 0.924921 0.583115
223 1 0.248696 0.988165 0.578328
706 1 0.413841 0.912693 0.502212
715 1 0.738693 0.830234 0.591021
720 1 0.819997 0.907242 0.579018
786 1 0.747496 0.901982 0.66569
485 1 0.174549 0.832245 0.997358
713 1 0.671329 0.825497 0.4995
832 1 0.504174 0.735547 0.918399
219 1 0.0918405 0.989821 0.583263
745 1 0.00239185 0.682406 0.663112
722 1 0.0802984 0.587324 0.668968
724 1 0.00531593 0.588073 0.745286
747 1 0.0849128 0.688035 0.753966
794 1 0.0675751 0.587056 0.829279
817 1 0.985547 0.666632 0.831749
726 1 0.238302 0.58954 0.672849
728 1 0.154786 0.56939 0.749188
855 1 0.594891 0.843174 0.92549
730 1 0.417593 0.575744 0.668253
732 1 0.337295 0.576737 0.745945
736 1 0.49843 0.579553 0.754979
829 1 0.501625 0.656577 0.842121
802 1 0.422131 0.570008 0.832133
755 1 0.425009 0.663906 0.752121
221 1 0.162707 0.985282 0.499199
856 1 0.511729 0.902026 0.933864
740 1 0.672008 0.58083 0.76386
854 1 0.594156 0.910539 0.833532
833 1 0.665575 0.653768 0.838068
831 1 0.575017 0.661834 0.920395
810 1 0.750513 0.578745 0.846437
763 1 0.743801 0.669385 0.752565
744 1 0.828429 0.585468 0.74528
814 1 0.909834 0.579187 0.824429
851 1 0.425177 0.82596 0.914654
746 1 0.0783559 0.760313 0.658141
748 1 0.995255 0.746358 0.74654
752 1 0.165047 0.765503 0.76607
818 1 0.0851746 0.760533 0.837021
749 1 0.171095 0.674436 0.684778
750 1 0.261602 0.751333 0.697922
751 1 0.270134 0.662632 0.748482
753 1 0.340119 0.663071 0.672463
756 1 0.359693 0.754494 0.759361
822 1 0.27185 0.759981 0.831932
754 1 0.426095 0.748488 0.668354
757 1 0.504537 0.660415 0.669899
760 1 0.502871 0.751905 0.763388
758 1 0.589775 0.747715 0.678833
759 1 0.572503 0.6716 0.760618
785 1 0.654535 0.843816 0.676408
783 1 0.574365 0.837403 0.747254
830 1 0.591969 0.747049 0.832151
764 1 0.672439 0.757125 0.749655
787 1 0.747914 0.828965 0.737825
834 1 0.745399 0.730169 0.835674
861 1 0.825419 0.832145 0.81335
767 1 0.917892 0.670179 0.747201
766 1 0.905657 0.73928 0.663479
768 1 0.835754 0.744356 0.749442
791 1 0.918998 0.839576 0.728404
769 1 0.991738 0.842311 0.652118
770 1 0.0784609 0.910392 0.656551
771 1 0.0784262 0.832327 0.758029
842 1 0.0867922 0.913975 0.847431
837 1 0.824895 0.658034 0.832302
776 1 0.181286 0.914485 0.764203
775 1 0.261024 0.842666 0.750991
774 1 0.260015 0.912596 0.676868
849 1 0.350781 0.840157 0.829524
844 1 0.995497 0.908731 0.903039
778 1 0.409496 0.910568 0.653149
779 1 0.425988 0.82922 0.741797
780 1 0.347578 0.92054 0.762418
784 1 0.49251 0.918075 0.734713
781 1 0.513054 0.813899 0.663093
850 1 0.429233 0.90902 0.822645
782 1 0.581862 0.919062 0.65961
788 1 0.659287 0.909043 0.748821
857 1 0.684799 0.82914 0.842557
789 1 0.823172 0.825677 0.657327
858 1 0.753527 0.921401 0.817999
853 1 0.5081 0.835032 0.839044
792 1 0.830018 0.910077 0.737236
311 1 0.931352 0.989494 0.752315
862 1 0.918966 0.913696 0.83184
790 1 0.907128 0.923081 0.658692
772 1 0.00471312 0.905999 0.759376
289 1 0.0100328 0.996941 0.668768
859 1 0.761105 0.833959 0.916164
800 1 0.150266 0.588553 0.904117
846 1 0.252248 0.915006 0.839453
796 1 0.995666 0.589569 0.908882
819 1 0.0760295 0.666607 0.919587
799 1 0.242821 0.50464 0.90333
798 1 0.242917 0.581863 0.819143
659 1 0.409428 0.509375 0.585657
821 1 0.165206 0.670929 0.816463
852 1 0.34324 0.913866 0.921615
291 1 0.0995768 0.98879 0.749358
847 1 0.264672 0.827914 0.921587
804 1 0.334245 0.573189 0.904638
808 1 0.495452 0.562401 0.922592
836 1 0.677032 0.742674 0.922852
806 1 0.575694 0.565781 0.831688
812 1 0.661096 0.570315 0.921039
845 1 0.180913 0.835041 0.839997
835 1 0.751976 0.663099 0.931895
816 1 0.829376 0.577626 0.916624
826 1 0.426014 0.739816 0.845847
820 1 0.00388423 0.741813 0.909567
839 1 0.916123 0.66547 0.925926
841 1 0.998713 0.823269 0.834264
848 1 0.176794 0.904014 0.924007
838 1 0.910922 0.742113 0.839758
465 1 0.309997 0.666637 0.978165
843 1 0.0795523 0.840145 0.920946
824 1 0.172939 0.743428 0.903891
825 1 0.345358 0.656003 0.827197
823 1 0.243756 0.651069 0.893057
828 1 0.343899 0.753022 0.919514
840 1 0.822868 0.736978 0.91797
827 1 0.417003 0.648526 0.921399
721 1 0.00247799 0.511388 0.667665
681 1 0.331013 0.663695 0.511412
307 1 0.747879 0.988927 0.741192
442 1 0.411728 0.577265 0.997675
217 1 0.0046683 0.993384 0.501548
701 1 0.171377 0.826524 0.507217
309 1 0.816596 0.991962 0.659066
295 1 0.253148 0.991495 0.750794
377 1 0.668529 0.992813 0.833034
653 1 0.166079 0.515715 0.508741
486 1 0.268616 0.927419 0.995414
454 1 0.903419 0.582176 0.996515
478 1 0.903427 0.744156 0.99751
655 1 0.231156 0.507861 0.592999
5 1 0.1613 0.988856 0.989687
383 1 0.913784 0.996923 0.908558
303 1 0.588526 0.993144 0.741001
793 1 0.990496 0.508418 0.837351
1 1 0.00549998 0.99637 0.996432
297 1 0.328524 0.997937 0.656387
737 1 0.673972 0.509276 0.668787
658 1 0.418642 0.587903 0.499628
466 1 0.42324 0.738939 0.994483
237 1 0.829866 0.989529 0.508049
682 1 0.417374 0.745625 0.508181
686 1 0.590829 0.75609 0.502227
685 1 0.506067 0.670817 0.509592
490 1 0.421592 0.923776 1.00307
705 1 0.342529 0.821858 0.508349
649 1 0.0106156 0.500058 0.505862
669 1 0.842161 0.509238 0.504092
661 1 0.514524 0.500992 0.508034
709 1 0.49529 0.833328 0.512465
473 1 0.658076 0.650517 0.998022
502 1 0.925666 0.924078 0.993903
477 1 0.825271 0.653858 0.998885
674 1 0.0826744 0.742725 0.512492
458 1 0.0832272 0.760269 0.988584
