ITEM: TIMESTEP
7000
ITEM: NUMBER OF ATOMS
4000
ITEM: BOX BOUNDS pp pp pp
0.0000000000000000e+00 5.2599999999999994e+01
0.0000000000000000e+00 5.2599999999999994e+01
0.0000000000000000e+00 5.2599999999999994e+01
ITEM: ATOMS id type xs ys zs
3 1 0.0529454 0.00414311 0.0492205
5 1 0.0965256 0.00582485 0.000258581
202 1 0.0425858 0.0475953 0.0942184
41 1 0.000928333 0.0931591 5.10184e-05
2 1 0.0499083 0.0453822 0.0014685
8 1 0.102897 0.0550219 0.048626
12 1 0.19403 0.0505719 0.0480662
210 1 0.244312 0.060807 0.0960854
51 1 0.245426 0.0951416 0.0446368
213 1 0.292931 0.0079405 0.098556
209 1 0.209317 0.00246265 0.0932215
16 1 0.304299 0.0520714 0.050376
20 1 0.397376 0.0489144 0.0502591
214 1 0.350652 0.0421889 0.098597
14 1 0.350636 0.0502638 0.00492413
24 1 0.495958 0.0427224 0.0474223
59 1 0.450741 0.0888914 0.0528921
257 1 0.400186 0.0926073 0.0967434
57 1 0.407197 0.0912843 0.00574887
18 1 0.454839 0.0445082 0.000616183
63 1 0.551988 0.0922612 0.0516501
22 1 0.564061 0.0466555 0.00286275
61 1 0.506966 0.0960058 0.000716954
28 1 0.607727 0.0480111 0.0519716
226 1 0.651311 0.0579527 0.0997333
32 1 0.698265 0.0639981 0.0518348
26 1 0.647707 0.0626755 0.00895896
36 1 0.797702 0.054007 0.0459867
31 1 0.743402 0.0194309 0.049316
37 1 0.894324 0.000563136 0.000839368
234 1 0.847046 0.0529436 0.0972234
40 1 0.89386 0.0439805 0.0500529
35 1 0.847898 0.00172065 0.0545083
34 1 0.845624 0.052693 0.00396975
4 1 0.986665 0.0565297 0.0537666
1 1 0.992332 0.00407736 0.00663081
79 1 0.933141 0.0964255 0.0522968
39 1 0.949218 0.000568049 0.0562217
43 1 0.045906 0.100028 0.0527079
48 1 0.0954599 0.149414 0.0557671
81 1 0.00313863 0.185459 0.00335418
47 1 0.146837 0.105501 0.0506797
52 1 0.19544 0.146181 0.0489336
289 1 0.192785 0.196094 0.0976877
87 1 0.146918 0.192974 0.0498572
89 1 0.196569 0.196904 0.000399655
91 1 0.246136 0.190494 0.05799
56 1 0.285535 0.143809 0.0490006
50 1 0.241363 0.149856 0.000282201
55 1 0.343865 0.105987 0.0631903
54 1 0.353357 0.143052 0.0035259
297 1 0.398383 0.195237 0.0962833
60 1 0.405702 0.139027 0.0582747
99 1 0.455005 0.19044 0.0554364
58 1 0.449775 0.145616 0.00294777
64 1 0.503929 0.139841 0.0565895
103 1 0.542106 0.188582 0.0558871
68 1 0.595797 0.149578 0.0501141
105 1 0.593157 0.199676 0.00283849
262 1 0.548588 0.141273 0.0991529
101 1 0.503153 0.194573 0.00319897
67 1 0.6506 0.108382 0.0500471
107 1 0.645469 0.191339 0.0575486
109 1 0.695972 0.195034 2.21807e-05
66 1 0.640446 0.150737 0.00324542
65 1 0.601034 0.103515 0.00174682
71 1 0.75612 0.102991 0.0579369
72 1 0.701286 0.154279 0.0547121
111 1 0.746185 0.195193 0.0649766
70 1 0.745188 0.160156 0.00156679
75 1 0.851768 0.108139 0.0419635
277 1 0.889117 0.104173 0.0983884
76 1 0.804825 0.149806 0.0486963
313 1 0.803448 0.197234 0.0994428
80 1 0.896042 0.152336 0.0506904
113 1 0.801564 0.194281 0.00159206
44 1 0.996132 0.139017 0.0520269
278 1 0.943147 0.150817 0.0959975
78 1 0.949437 0.140004 0.00511402
83 1 0.0457672 0.201375 0.0557785
123 1 0.0556505 0.299603 0.0526019
88 1 0.095451 0.242159 0.0463457
285 1 0.0932824 0.200139 0.0976184
82 1 0.0530718 0.24726 0.00169006
127 1 0.142139 0.284701 0.0563961
92 1 0.188445 0.241085 0.0504062
129 1 0.182452 0.295047 0.0027869
86 1 0.146034 0.240296 0.00233076
125 1 0.108469 0.296333 0.00285759
290 1 0.239355 0.25244 0.0986958
333 1 0.296538 0.298234 0.094194
93 1 0.289863 0.200061 0.0179783
90 1 0.24006 0.242592 0.00314163
95 1 0.347653 0.205046 0.0530074
96 1 0.300715 0.249746 0.0537447
294 1 0.357953 0.252972 0.0965406
94 1 0.364968 0.243489 0.00248354
133 1 0.304967 0.29235 0.0111038
100 1 0.409142 0.245741 0.0568965
104 1 0.499342 0.240046 0.0575219
139 1 0.453411 0.290107 0.0523862
98 1 0.456888 0.238943 0.00076208
137 1 0.401796 0.29076 0.00941077
141 1 0.49832 0.295582 0.00436573
108 1 0.597867 0.245583 0.0545549
102 1 0.551521 0.24416 0.00269554
145 1 0.600088 0.293083 0.000465546
147 1 0.647979 0.297945 0.0460396
345 1 0.609011 0.294275 0.0973371
106 1 0.648359 0.23638 0.00322436
112 1 0.702227 0.251104 0.0530379
116 1 0.799531 0.242325 0.0529378
310 1 0.755809 0.253192 0.0998889
149 1 0.70188 0.297511 0.000165273
110 1 0.74595 0.241991 0.0073962
115 1 0.853852 0.20051 0.046461
155 1 0.8543 0.289278 0.0509542
353 1 0.809329 0.299678 0.0954738
153 1 0.801937 0.285313 9.74357e-06
120 1 0.910953 0.25669 0.0438557
119 1 0.956651 0.202581 0.0433776
84 1 0.993802 0.255534 0.0472216
317 1 0.902848 0.207718 0.0885545
117 1 0.902339 0.201522 0.00338136
322 1 0.0509956 0.347171 0.0912258
321 1 0.0025788 0.303684 0.0981074
122 1 0.0533956 0.350608 0.00351384
128 1 0.109605 0.359875 0.0369114
132 1 0.196347 0.346698 0.0426746
326 1 0.135695 0.353204 0.0948522
131 1 0.246954 0.30466 0.0485652
171 1 0.24477 0.39445 0.0505536
173 1 0.295297 0.396866 0.00315482
169 1 0.203181 0.395348 0.00289738
130 1 0.251917 0.342914 0.000297422
136 1 0.302358 0.355412 0.0570713
135 1 0.352692 0.303465 0.0591024
140 1 0.39852 0.355193 0.0602894
334 1 0.350691 0.355975 0.0990829
134 1 0.34991 0.352892 0.00171719
179 1 0.452283 0.398996 0.0590005
138 1 0.446408 0.344237 0.0100234
177 1 0.401666 0.399973 0.00584346
143 1 0.55323 0.301899 0.0453417
144 1 0.508713 0.345884 0.0364044
342 1 0.549263 0.3463 0.0942442
183 1 0.548258 0.39981 0.0493677
148 1 0.605452 0.340758 0.0518397
346 1 0.656001 0.349865 0.091376
385 1 0.602147 0.395474 0.0886192
146 1 0.641651 0.346996 0.00139894
152 1 0.701306 0.345773 0.048612
151 1 0.755951 0.301686 0.050046
191 1 0.751619 0.389261 0.0479845
393 1 0.797777 0.388636 0.0939537
389 1 0.70889 0.395902 0.0991195
189 1 0.70266 0.395186 0.00555714
193 1 0.796249 0.39008 0.0050254
154 1 0.847357 0.33351 4.87686e-05
156 1 0.807116 0.343705 0.0454707
195 1 0.848761 0.389595 0.0469293
160 1 0.894856 0.342313 0.0533047
124 1 0.99957 0.342241 0.0363535
159 1 0.943993 0.305664 0.0521479
199 1 0.940928 0.397494 0.0428915
358 1 0.95035 0.352481 0.0950658
163 1 0.0408681 0.406314 0.0506273
365 1 0.0986491 0.405191 0.0941974
168 1 0.0975927 0.451155 0.0458757
369 1 0.198264 0.400973 0.093676
167 1 0.150544 0.403165 0.0491481
366 1 0.147461 0.454973 0.0963205
2007 1 0.146829 0.499376 0.0419293
172 1 0.207647 0.450285 0.0471592
176 1 0.292725 0.45519 0.0469159
370 1 0.246055 0.445149 0.0997199
175 1 0.34344 0.406105 0.0487389
374 1 0.352296 0.452521 0.0987931
180 1 0.398326 0.457192 0.0452012
377 1 0.397949 0.408231 0.091007
2213 1 0.302664 0.499269 0.0954469
174 1 0.348104 0.44723 0.00128251
378 1 0.452527 0.452287 0.0896559
178 1 0.452485 0.448354 0.00129794
184 1 0.500966 0.449232 0.0482684
382 1 0.546212 0.44808 0.0919279
185 1 0.599717 0.401478 0.0113376
187 1 0.657468 0.401462 0.0478887
188 1 0.606795 0.450105 0.0546469
186 1 0.654603 0.4489 0.00479672
192 1 0.705191 0.445699 0.0504044
196 1 0.79819 0.446163 0.0432094
390 1 0.754072 0.451924 0.0969365
397 1 0.896204 0.403164 0.0985031
394 1 0.84878 0.448399 0.0869691
200 1 0.891641 0.453824 0.0483806
2233 1 0.801771 0.497124 0.0864251
164 1 0.995799 0.457865 0.0497513
361 1 0.991545 0.40086 0.0951908
398 1 0.94706 0.454721 0.0875994
203 1 0.0430342 0.00303045 0.146859
208 1 0.0991724 0.053698 0.15276
243 1 0.0454165 0.0963149 0.147973
205 1 0.0943702 0.00529286 0.103389
206 1 0.147553 0.0535436 0.102639
245 1 0.101504 0.0952202 0.102588
249 1 0.196512 0.0972304 0.100538
247 1 0.151538 0.0952811 0.15493
212 1 0.199416 0.052895 0.149282
207 1 0.149488 0.00398519 0.150156
211 1 0.242935 0.00787142 0.144318
216 1 0.295764 0.0438992 0.155476
417 1 0.393884 0.00601979 0.19696
220 1 0.388134 0.0567382 0.148463
414 1 0.342516 0.0443824 0.19783
219 1 0.441037 0.000533818 0.154934
218 1 0.448611 0.0408897 0.100841
261 1 0.491441 0.0924315 0.101249
259 1 0.440767 0.0989781 0.148462
222 1 0.554721 0.049783 0.102584
221 1 0.505417 0.00441489 0.105688
224 1 0.504224 0.0536044 0.155589
228 1 0.598364 0.0572197 0.157937
263 1 0.549078 0.0972584 0.150046
223 1 0.547021 0.00507201 0.155869
267 1 0.657202 0.0981692 0.149384
229 1 0.705149 0.0103944 0.104076
230 1 0.758954 0.0589168 0.101657
232 1 0.711575 0.0480886 0.154496
231 1 0.765961 0.00883921 0.146202
236 1 0.807351 0.057501 0.154863
240 1 0.897619 0.0480414 0.158276
237 1 0.901852 0.00248196 0.104976
241 1 0.991965 0.0998415 0.101866
204 1 0.989521 0.057527 0.148254
238 1 0.934113 0.0518898 0.108362
242 1 0.0419758 0.150305 0.102934
248 1 0.0998577 0.140927 0.157772
283 1 0.0590838 0.195204 0.155041
246 1 0.149707 0.152093 0.106128
287 1 0.155777 0.197371 0.162391
253 1 0.29446 0.101854 0.106982
252 1 0.203918 0.154552 0.161122
251 1 0.254879 0.104209 0.165316
250 1 0.247749 0.14656 0.104438
256 1 0.298961 0.150032 0.150442
254 1 0.34182 0.159679 0.10212
255 1 0.342213 0.10272 0.146571
454 1 0.352732 0.153262 0.190117
260 1 0.393994 0.144185 0.136176
301 1 0.496738 0.192569 0.100966
258 1 0.452864 0.14338 0.102833
458 1 0.450823 0.146981 0.19732
264 1 0.498111 0.143323 0.148766
299 1 0.446701 0.192338 0.146168
305 1 0.597496 0.185632 0.111931
303 1 0.539552 0.190514 0.153255
265 1 0.601467 0.110803 0.11056
268 1 0.603648 0.146772 0.163048
266 1 0.654509 0.150358 0.104465
307 1 0.647431 0.199002 0.157333
269 1 0.703136 0.108011 0.103486
271 1 0.755337 0.102988 0.155584
272 1 0.703136 0.15219 0.157517
270 1 0.761233 0.145094 0.108127
311 1 0.752235 0.199105 0.149472
274 1 0.850216 0.150185 0.100207
275 1 0.851315 0.103413 0.149656
273 1 0.803231 0.100333 0.109165
276 1 0.806942 0.153248 0.162136
280 1 0.897658 0.150582 0.143258
281 1 0.999503 0.195665 0.104817
244 1 0.994245 0.14727 0.150075
279 1 0.944203 0.104849 0.1563
319 1 0.950423 0.1988 0.157533
481 1 0.999606 0.199812 0.19584
282 1 0.0451702 0.248748 0.100084
284 1 0.00044729 0.242112 0.150444
325 1 0.0950632 0.298867 0.106655
525 1 0.0937614 0.298189 0.194885
482 1 0.0492443 0.24526 0.191635
286 1 0.14457 0.239906 0.10511
288 1 0.101705 0.247567 0.153798
292 1 0.191783 0.256547 0.150901
327 1 0.143712 0.29869 0.157234
293 1 0.29493 0.208381 0.107019
291 1 0.250012 0.21704 0.159846
296 1 0.289072 0.262266 0.144961
295 1 0.351168 0.211537 0.143339
493 1 0.310094 0.20004 0.188142
337 1 0.402339 0.296377 0.100595
298 1 0.443307 0.242055 0.109814
300 1 0.408235 0.257503 0.156451
339 1 0.454573 0.297684 0.153416
304 1 0.494556 0.248761 0.149654
497 1 0.411521 0.203481 0.198051
302 1 0.5433 0.245416 0.106339
343 1 0.54976 0.295453 0.153046
308 1 0.584535 0.234467 0.152569
309 1 0.695332 0.200267 0.106816
306 1 0.638101 0.234718 0.102851
347 1 0.646347 0.293075 0.146143
506 1 0.651204 0.251706 0.192796
349 1 0.702461 0.299399 0.100916
312 1 0.700335 0.249603 0.143246
510 1 0.751968 0.250138 0.191347
351 1 0.749774 0.298985 0.142983
314 1 0.848717 0.240664 0.104791
357 1 0.890805 0.287901 0.102447
315 1 0.854203 0.202704 0.155988
316 1 0.802331 0.24909 0.149866
355 1 0.847526 0.296006 0.150355
320 1 0.901373 0.248029 0.148619
318 1 0.954099 0.256079 0.106451
518 1 0.946568 0.253664 0.197483
557 1 0.901258 0.297708 0.199749
521 1 0.998169 0.299951 0.196059
323 1 0.041751 0.301492 0.145077
363 1 0.0400248 0.396938 0.135741
328 1 0.0942274 0.360811 0.149397
522 1 0.0447517 0.352367 0.194941
329 1 0.19286 0.306425 0.10422
332 1 0.192453 0.35723 0.148865
569 1 0.196978 0.392847 0.198743
526 1 0.141183 0.358106 0.195487
331 1 0.237087 0.306206 0.152186
330 1 0.243377 0.351862 0.101479
533 1 0.304304 0.30335 0.192405
335 1 0.352146 0.308269 0.144382
336 1 0.300162 0.356727 0.145431
534 1 0.353659 0.352228 0.198271
340 1 0.40329 0.347654 0.14694
338 1 0.455484 0.349973 0.100123
577 1 0.404499 0.399216 0.197288
379 1 0.449499 0.392922 0.145527
538 1 0.463628 0.349876 0.193963
341 1 0.503493 0.301383 0.1012
344 1 0.510576 0.34659 0.149902
585 1 0.614357 0.39865 0.190051
348 1 0.609207 0.352354 0.149549
546 1 0.653115 0.34558 0.194202
387 1 0.650986 0.398354 0.136561
352 1 0.703375 0.355621 0.145339
350 1 0.753877 0.346676 0.101676
356 1 0.796545 0.35567 0.147284
549 1 0.702848 0.303688 0.191748
550 1 0.746443 0.345664 0.193841
354 1 0.84588 0.349349 0.10127
360 1 0.898099 0.348789 0.148548
395 1 0.84721 0.397753 0.139139
554 1 0.853594 0.351799 0.197356
324 1 0.996752 0.345119 0.145432
359 1 0.949446 0.303325 0.153463
399 1 0.945185 0.393506 0.148352
362 1 0.0374355 0.453892 0.101445
368 1 0.0992317 0.452766 0.146572
2405 1 0.102566 0.499262 0.196452
367 1 0.150652 0.410516 0.145293
372 1 0.195696 0.455379 0.154697
566 1 0.150465 0.449323 0.196773
2209 1 0.199899 0.497707 0.107646
371 1 0.246318 0.400615 0.143994
376 1 0.294023 0.453943 0.147
570 1 0.251272 0.454908 0.199933
573 1 0.297378 0.405102 0.193786
2215 1 0.351767 0.494272 0.142934
373 1 0.308681 0.408726 0.104022
375 1 0.357779 0.400866 0.148536
574 1 0.349129 0.450198 0.192365
381 1 0.499882 0.400062 0.102451
380 1 0.403468 0.455505 0.142955
384 1 0.499998 0.460345 0.142895
578 1 0.459584 0.446526 0.193179
383 1 0.544178 0.401947 0.153678
388 1 0.599508 0.446705 0.142924
2225 1 0.594093 0.499766 0.101478
386 1 0.648173 0.454105 0.103682
589 1 0.69138 0.401587 0.192191
586 1 0.648004 0.449976 0.192084
391 1 0.755912 0.411936 0.150942
392 1 0.702788 0.456658 0.145149
590 1 0.755292 0.453398 0.197778
396 1 0.800862 0.455172 0.136829
400 1 0.89675 0.454548 0.146328
594 1 0.845339 0.451023 0.188527
597 1 0.897562 0.405273 0.196495
364 1 0.997109 0.452442 0.150657
561 1 0.996783 0.403186 0.193169
598 1 0.947096 0.450689 0.194279
2239 1 0.954757 0.493799 0.135811
402 1 0.0592886 0.0524772 0.201048
404 1 0.00483126 0.0504392 0.247834
443 1 0.0623465 0.0929667 0.254766
406 1 0.163435 0.0419935 0.207964
445 1 0.107986 0.0941076 0.207844
408 1 0.10961 0.0423131 0.249696
449 1 0.195824 0.0944112 0.205561
447 1 0.152072 0.0923514 0.258677
410 1 0.253891 0.0555165 0.207417
412 1 0.203522 0.0525579 0.263378
413 1 0.296743 0.000877991 0.202741
617 1 0.387697 0.00173144 0.293627
416 1 0.310391 0.0548494 0.253142
420 1 0.390624 0.0581413 0.251926
415 1 0.342813 0.00141916 0.248841
418 1 0.442697 0.0539926 0.207345
459 1 0.44394 0.0979843 0.261101
625 1 0.596963 0.00160107 0.29662
425 1 0.594941 0.00448921 0.201212
422 1 0.554671 0.0578226 0.207388
424 1 0.505216 0.0458248 0.245012
428 1 0.599865 0.0463347 0.251198
426 1 0.649444 0.050485 0.20527
465 1 0.606353 0.09994 0.216313
467 1 0.662891 0.0941755 0.255456
469 1 0.702425 0.0961845 0.202933
430 1 0.754198 0.0483587 0.201179
429 1 0.710864 0.00125047 0.202876
432 1 0.704201 0.0429318 0.251685
471 1 0.749805 0.0915399 0.252552
435 1 0.84954 0.00526538 0.251314
434 1 0.850971 0.0594343 0.203579
437 1 0.896681 0.000322043 0.203352
436 1 0.800289 0.050652 0.245749
433 1 0.811657 0.00398559 0.200954
438 1 0.954836 0.047385 0.203686
477 1 0.901238 0.0977823 0.205299
440 1 0.900057 0.0536839 0.24867
439 1 0.945635 0.000805244 0.253167
442 1 0.0409708 0.145433 0.200902
485 1 0.0967624 0.194034 0.202947
444 1 0.00226952 0.143604 0.256216
483 1 0.0418975 0.197451 0.246748
446 1 0.1497 0.143425 0.202464
448 1 0.105225 0.151284 0.260207
452 1 0.198807 0.150082 0.247438
646 1 0.15547 0.147689 0.296729
451 1 0.260808 0.109771 0.257329
450 1 0.251456 0.156703 0.212164
453 1 0.311209 0.106551 0.202612
457 1 0.398766 0.104068 0.203703
456 1 0.310551 0.16314 0.256031
455 1 0.34886 0.107686 0.251541
461 1 0.496711 0.100101 0.203011
501 1 0.48955 0.195934 0.20315
460 1 0.400172 0.158043 0.250189
464 1 0.491531 0.152898 0.255414
661 1 0.496475 0.101585 0.295729
462 1 0.544156 0.143901 0.202847
505 1 0.58663 0.193075 0.200591
463 1 0.548295 0.100533 0.257901
468 1 0.59564 0.153053 0.251436
503 1 0.543526 0.19937 0.253526
665 1 0.600247 0.102564 0.296262
466 1 0.651101 0.146334 0.204152
666 1 0.656331 0.161522 0.298235
470 1 0.748023 0.155431 0.208542
509 1 0.700716 0.195457 0.202411
472 1 0.702561 0.14761 0.254067
673 1 0.798404 0.105556 0.299331
474 1 0.86272 0.150387 0.204264
473 1 0.802119 0.106929 0.206302
475 1 0.855304 0.103148 0.25502
476 1 0.809439 0.16073 0.254967
441 1 0.995582 0.10278 0.205597
479 1 0.949568 0.101228 0.250397
480 1 0.905279 0.149066 0.256175
478 1 0.948484 0.149494 0.202352
519 1 0.960212 0.193806 0.252233
488 1 0.0906115 0.243637 0.246145
486 1 0.144493 0.248922 0.206094
487 1 0.146598 0.201524 0.2467
489 1 0.197509 0.209636 0.204076
492 1 0.197989 0.247339 0.263554
491 1 0.250991 0.21091 0.254285
490 1 0.240644 0.263608 0.214826
496 1 0.29975 0.257732 0.250136
494 1 0.350835 0.255269 0.200501
697 1 0.394471 0.20674 0.29626
495 1 0.351744 0.20142 0.2466
500 1 0.396919 0.247925 0.241369
694 1 0.354843 0.258768 0.285697
498 1 0.454844 0.249705 0.205805
499 1 0.449657 0.202896 0.258917
698 1 0.444943 0.252276 0.295927
539 1 0.448434 0.299317 0.249797
504 1 0.499727 0.248055 0.257633
502 1 0.544662 0.247763 0.204049
541 1 0.503873 0.299828 0.201846
543 1 0.558681 0.299172 0.256407
508 1 0.59412 0.241287 0.252164
507 1 0.65241 0.201894 0.247831
512 1 0.699864 0.248649 0.239506
547 1 0.651308 0.299126 0.248394
749 1 0.699566 0.295348 0.298944
511 1 0.750229 0.20185 0.257816
516 1 0.796325 0.253322 0.245391
710 1 0.747005 0.255681 0.297585
513 1 0.800722 0.200569 0.203294
515 1 0.856541 0.210324 0.255488
514 1 0.852864 0.252521 0.20884
484 1 0.998553 0.260599 0.245008
517 1 0.903211 0.204429 0.206371
520 1 0.90526 0.247583 0.255075
718 1 0.955304 0.254156 0.297843
523 1 0.0511206 0.301185 0.246049
563 1 0.0456583 0.395577 0.244773
528 1 0.0913462 0.348354 0.250025
529 1 0.194314 0.308643 0.212538
729 1 0.184195 0.302592 0.29314
527 1 0.141501 0.303984 0.247224
567 1 0.14418 0.396729 0.249865
532 1 0.190975 0.352819 0.251545
530 1 0.250172 0.349691 0.202618
531 1 0.243509 0.303709 0.261871
536 1 0.292796 0.35284 0.25089
769 1 0.200223 0.396853 0.298381
571 1 0.252657 0.397538 0.2471
535 1 0.349897 0.308048 0.250829
737 1 0.405376 0.306173 0.292895
537 1 0.40558 0.306443 0.203846
540 1 0.403263 0.357937 0.249451
738 1 0.453104 0.354864 0.291948
579 1 0.454451 0.397488 0.237353
544 1 0.504874 0.34736 0.251281
545 1 0.599216 0.301596 0.202323
542 1 0.549126 0.349548 0.203322
583 1 0.557638 0.398214 0.251375
581 1 0.507469 0.39301 0.207372
742 1 0.553501 0.355086 0.298587
548 1 0.602701 0.352416 0.239872
785 1 0.603923 0.393488 0.295831
552 1 0.693734 0.347578 0.249513
587 1 0.656256 0.397693 0.244162
551 1 0.746833 0.302665 0.249374
753 1 0.795938 0.301403 0.294228
750 1 0.74562 0.341999 0.299487
556 1 0.799515 0.35282 0.253818
591 1 0.745245 0.389408 0.24025
553 1 0.801889 0.307031 0.203739
555 1 0.848689 0.308692 0.25078
593 1 0.804208 0.398361 0.200101
560 1 0.89816 0.348503 0.251939
595 1 0.851756 0.399243 0.245213
797 1 0.898219 0.396216 0.297977
559 1 0.945726 0.306561 0.250585
524 1 0.998539 0.354458 0.241575
558 1 0.944503 0.352874 0.200418
599 1 0.952821 0.399381 0.245526
758 1 0.957001 0.35594 0.298551
2401 1 0.00488371 0.49954 0.207017
565 1 0.0939883 0.406837 0.203158
562 1 0.0471411 0.452861 0.200139
564 1 0.00244441 0.442111 0.246643
762 1 0.0511736 0.45355 0.296993
765 1 0.0953693 0.402351 0.299698
2605 1 0.0989307 0.498348 0.295163
568 1 0.100295 0.458814 0.248567
766 1 0.15286 0.453479 0.296662
2609 1 0.201877 0.498586 0.299538
572 1 0.204884 0.448028 0.252459
576 1 0.294939 0.4559 0.253669
2415 1 0.352112 0.491645 0.2402
575 1 0.338306 0.404861 0.247492
580 1 0.396092 0.445117 0.246177
777 1 0.386711 0.401387 0.293495
2421 1 0.499672 0.495777 0.204809
584 1 0.49167 0.444455 0.254463
2419 1 0.446246 0.49346 0.254161
2423 1 0.547527 0.49362 0.250975
2425 1 0.5956 0.495468 0.209511
582 1 0.548651 0.448731 0.204886
782 1 0.562329 0.447365 0.294449
2625 1 0.603211 0.495007 0.29752
588 1 0.609474 0.44087 0.244847
592 1 0.697346 0.450424 0.239698
786 1 0.646659 0.446093 0.294216
2427 1 0.654215 0.494432 0.247418
2629 1 0.701812 0.492853 0.295952
2431 1 0.746921 0.493412 0.24359
2633 1 0.787395 0.486649 0.295737
790 1 0.743153 0.43682 0.281831
2435 1 0.851825 0.498692 0.256889
596 1 0.804599 0.453682 0.241702
794 1 0.850304 0.446068 0.294748
600 1 0.898051 0.440765 0.249021
2637 1 0.898437 0.494108 0.298853
793 1 0.800939 0.402176 0.297467
2437 1 0.9041 0.490495 0.20461
2439 1 0.953039 0.499139 0.250041
798 1 0.946523 0.44936 0.292922
641 1 0.00331645 0.0999149 0.307482
602 1 0.0451265 0.0481538 0.305295
802 1 0.0459409 0.0451639 0.393
608 1 0.0941316 0.054651 0.348214
606 1 0.155052 0.0440783 0.309124
647 1 0.159293 0.0969865 0.352635
610 1 0.258352 0.0443023 0.300124
612 1 0.211487 0.0451878 0.34437
616 1 0.294349 0.0501179 0.357332
614 1 0.348242 0.0501129 0.300088
653 1 0.300486 0.0931613 0.304217
620 1 0.394454 0.0467759 0.354486
655 1 0.351878 0.0950141 0.354966
618 1 0.441286 0.0448118 0.304399
659 1 0.444878 0.097271 0.355003
624 1 0.49621 0.040313 0.348557
818 1 0.444033 0.0490016 0.396465
623 1 0.554586 0.00251017 0.3582
622 1 0.549317 0.0568829 0.304615
663 1 0.549721 0.0964652 0.352791
861 1 0.502352 0.088038 0.39183
865 1 0.601473 0.0990633 0.391803
628 1 0.60327 0.050525 0.347245
626 1 0.653033 0.0498967 0.302982
826 1 0.652854 0.0462351 0.390925
829 1 0.700681 0.00359124 0.398585
631 1 0.759712 0.00383851 0.350873
630 1 0.77457 0.0466992 0.307218
632 1 0.710677 0.0522858 0.35298
629 1 0.711101 0.00599298 0.303275
636 1 0.809019 0.0551853 0.36129
634 1 0.849824 0.0539576 0.308996
834 1 0.855552 0.0465531 0.398601
677 1 0.905717 0.0996621 0.302593
638 1 0.94908 0.0468091 0.30429
640 1 0.902312 0.0516284 0.348432
604 1 0.984138 0.0466332 0.355785
642 1 0.0501139 0.15297 0.303551
643 1 0.0445341 0.103651 0.351002
644 1 0.000191711 0.154196 0.350314
683 1 0.0533161 0.198025 0.352489
645 1 0.108054 0.102402 0.303007
845 1 0.108304 0.106403 0.399765
648 1 0.107344 0.153935 0.342057
846 1 0.162094 0.153001 0.396753
649 1 0.202003 0.100754 0.304675
650 1 0.258157 0.160197 0.30184
651 1 0.250504 0.101282 0.350603
652 1 0.205527 0.146592 0.346303
691 1 0.256395 0.198979 0.357764
850 1 0.264278 0.146898 0.397054
689 1 0.202265 0.19557 0.303019
889 1 0.203934 0.199259 0.39572
654 1 0.357569 0.148785 0.304493
656 1 0.306476 0.141193 0.347639
660 1 0.398384 0.138632 0.363891
657 1 0.400252 0.103694 0.311452
658 1 0.451343 0.146333 0.309385
664 1 0.491895 0.144705 0.353888
699 1 0.444082 0.190835 0.357039
662 1 0.547937 0.156895 0.303293
862 1 0.545434 0.155937 0.394792
668 1 0.600708 0.14755 0.341365
667 1 0.652463 0.103019 0.347454
707 1 0.64902 0.199207 0.34992
866 1 0.639125 0.154877 0.391787
669 1 0.705104 0.10138 0.306272
670 1 0.754197 0.153136 0.304631
672 1 0.705999 0.156657 0.353056
671 1 0.753177 0.101803 0.351722
676 1 0.79974 0.15797 0.356155
674 1 0.850362 0.162594 0.304044
675 1 0.848353 0.109281 0.352997
680 1 0.898937 0.15202 0.354091
679 1 0.95834 0.100371 0.347407
678 1 0.95253 0.146253 0.301357
878 1 0.946613 0.158555 0.39571
877 1 0.905913 0.1052 0.396973
685 1 0.0930199 0.201506 0.30131
721 1 0.00257398 0.299176 0.303743
682 1 0.0521314 0.24993 0.309309
681 1 0.00379043 0.204511 0.300921
684 1 0.000622847 0.249285 0.353638
725 1 0.0929491 0.293858 0.303246
688 1 0.105732 0.252942 0.354859
687 1 0.144802 0.205286 0.349732
686 1 0.141698 0.253865 0.30301
690 1 0.248923 0.248285 0.313493
692 1 0.200497 0.246202 0.34719
890 1 0.244623 0.2519 0.392263
695 1 0.362573 0.206076 0.350744
696 1 0.304229 0.252264 0.35573
693 1 0.306413 0.217857 0.304024
735 1 0.353685 0.294399 0.349437
701 1 0.495384 0.206731 0.308783
700 1 0.401304 0.256716 0.348088
704 1 0.49596 0.252807 0.354891
739 1 0.44602 0.297929 0.348302
705 1 0.596722 0.201159 0.301867
702 1 0.549102 0.243278 0.304038
703 1 0.553006 0.203659 0.351824
743 1 0.552777 0.295348 0.349825
745 1 0.608424 0.292929 0.302046
708 1 0.601143 0.248598 0.345509
706 1 0.654457 0.248874 0.300266
709 1 0.706644 0.202259 0.311118
711 1 0.754719 0.211293 0.351161
712 1 0.70038 0.252197 0.348914
909 1 0.706964 0.210064 0.397008
713 1 0.804619 0.216706 0.303841
714 1 0.854471 0.259501 0.307074
715 1 0.859524 0.209442 0.352208
716 1 0.805714 0.261088 0.358121
717 1 0.90622 0.205206 0.305545
720 1 0.906405 0.261066 0.34707
719 1 0.947115 0.20872 0.354949
722 1 0.0521888 0.348301 0.300941
723 1 0.0491546 0.303868 0.357905
965 1 0.096732 0.399801 0.398013
763 1 0.0424479 0.397653 0.350475
728 1 0.0967662 0.346773 0.349301
726 1 0.138971 0.348981 0.302464
727 1 0.142273 0.303551 0.34862
926 1 0.143603 0.351689 0.394932
730 1 0.252267 0.358031 0.311924
731 1 0.243302 0.305489 0.342271
732 1 0.201906 0.35849 0.353757
771 1 0.256536 0.397849 0.356628
929 1 0.200146 0.300213 0.392739
733 1 0.301652 0.303883 0.301091
734 1 0.346221 0.352374 0.303142
736 1 0.303524 0.350693 0.359407
740 1 0.396449 0.342354 0.35529
934 1 0.345461 0.350679 0.399905
977 1 0.407133 0.39358 0.397123
741 1 0.49375 0.303814 0.301946
779 1 0.443464 0.389829 0.344018
781 1 0.500187 0.396869 0.306639
744 1 0.500032 0.345915 0.358585
783 1 0.553519 0.395666 0.35119
945 1 0.599439 0.308345 0.399486
747 1 0.645946 0.302417 0.347134
949 1 0.695676 0.304778 0.399256
748 1 0.602132 0.353677 0.350979
746 1 0.646365 0.347535 0.303115
752 1 0.697332 0.351439 0.344431
751 1 0.746753 0.302553 0.348975
756 1 0.789269 0.351197 0.344715
754 1 0.846795 0.349679 0.301621
755 1 0.853596 0.308709 0.358549
795 1 0.846959 0.398918 0.354327
757 1 0.905343 0.309293 0.300114
724 1 0.997944 0.349075 0.352896
760 1 0.911725 0.355409 0.351586
759 1 0.948652 0.305605 0.348377
2603 1 0.0460897 0.499165 0.34996
761 1 9.1053e-05 0.401884 0.301044
962 1 0.0437537 0.446636 0.396799
768 1 0.0934936 0.446992 0.351207
764 1 0.00154673 0.454096 0.348848
767 1 0.147946 0.411079 0.344576
969 1 0.189968 0.40818 0.399517
772 1 0.196904 0.453992 0.349309
2809 1 0.193105 0.498138 0.39743
770 1 0.243371 0.447668 0.303401
773 1 0.307789 0.405894 0.304785
776 1 0.302939 0.456013 0.358953
774 1 0.345771 0.456717 0.302247
775 1 0.347934 0.403031 0.352266
780 1 0.395821 0.450388 0.342386
778 1 0.442335 0.440288 0.300238
2619 1 0.449474 0.492658 0.342403
2621 1 0.509545 0.480301 0.305776
784 1 0.506348 0.439952 0.360558
788 1 0.598282 0.447466 0.354339
2623 1 0.555327 0.494202 0.353176
789 1 0.692466 0.400756 0.300067
787 1 0.641145 0.401788 0.344051
989 1 0.69251 0.407915 0.39755
2829 1 0.696091 0.493889 0.38798
2627 1 0.648826 0.494913 0.345749
791 1 0.752055 0.400635 0.344799
792 1 0.702607 0.439051 0.349398
2631 1 0.746973 0.489066 0.3468
2635 1 0.848339 0.496146 0.354227
796 1 0.803279 0.452464 0.344788
800 1 0.896501 0.451508 0.347752
997 1 0.908216 0.404828 0.393047
2639 1 0.945193 0.495009 0.345231
961 1 0.991326 0.400265 0.395772
799 1 0.955563 0.407941 0.345491
803 1 0.0476978 0.0070806 0.453454
804 1 0.000952027 0.0534325 0.447282
843 1 0.0587153 0.0961328 0.445407
808 1 0.102228 0.0536396 0.453495
806 1 0.149712 0.0433152 0.402291
812 1 0.19563 0.0512945 0.453587
1045 1 0.106391 0.0950061 0.499614
810 1 0.254218 0.0465566 0.408983
816 1 0.291668 0.0403042 0.462536
1053 1 0.294066 0.0973625 0.494346
1049 1 0.205798 0.0997656 0.499904
814 1 0.349102 0.0413864 0.404504
820 1 0.396025 0.0438647 0.457947
857 1 0.395696 0.0957366 0.408756
853 1 0.303973 0.0972345 0.404486
855 1 0.345876 0.086055 0.458837
859 1 0.448649 0.0915299 0.456122
824 1 0.498212 0.0522914 0.446706
823 1 0.545462 0.00396521 0.458652
1061 1 0.502818 0.09346 0.499636
822 1 0.553817 0.0506194 0.402747
828 1 0.597438 0.0458146 0.448392
821 1 0.501577 0.00190709 0.401681
1025 1 0.598722 0.0025978 0.496347
869 1 0.69635 0.0992618 0.401128
832 1 0.699063 0.0476377 0.447768
867 1 0.648781 0.0892149 0.452085
1065 1 0.601254 0.0873353 0.490192
831 1 0.743488 0.000781451 0.452354
830 1 0.753355 0.0498326 0.405509
1069 1 0.700223 0.0974049 0.494467
1073 1 0.797842 0.0996651 0.484777
1030 1 0.756573 0.0482295 0.49404
1033 1 0.799827 0.0042594 0.490444
835 1 0.85021 0.000544081 0.456266
1034 1 0.843951 0.0454308 0.499904
836 1 0.801643 0.0531273 0.443538
840 1 0.895424 0.0459766 0.458256
875 1 0.855958 0.099561 0.4477
1038 1 0.955917 0.0516618 0.491758
838 1 0.942908 0.045743 0.407063
841 1 0.999874 0.0993677 0.400613
1001 1 0.996131 0.00348566 0.498138
879 1 0.956439 0.0986703 0.446634
1042 1 0.0596245 0.141348 0.496393
842 1 0.0458619 0.148621 0.402694
844 1 0.000337187 0.14834 0.450747
883 1 0.0483896 0.191309 0.450253
885 1 0.108972 0.195534 0.400021
1085 1 0.109163 0.199296 0.499357
848 1 0.105952 0.155465 0.452032
847 1 0.146781 0.101689 0.446578
887 1 0.153866 0.199965 0.445475
849 1 0.199938 0.100525 0.400199
1046 1 0.153214 0.153905 0.494637
851 1 0.25009 0.101652 0.456728
852 1 0.204055 0.149211 0.454303
891 1 0.253599 0.194291 0.440977
897 1 0.398171 0.186852 0.406355
856 1 0.302018 0.150892 0.453536
854 1 0.347012 0.154271 0.40496
860 1 0.392759 0.137896 0.455449
858 1 0.444227 0.140709 0.406844
864 1 0.499155 0.128413 0.441083
901 1 0.489294 0.187296 0.401331
899 1 0.453856 0.184985 0.459562
1062 1 0.548116 0.140599 0.499477
863 1 0.551367 0.102792 0.438526
903 1 0.548748 0.195034 0.453509
868 1 0.588309 0.149048 0.442017
1066 1 0.645402 0.144969 0.484927
872 1 0.699653 0.148506 0.447576
907 1 0.6479 0.19792 0.447743
1105 1 0.60193 0.196293 0.491497
870 1 0.750155 0.156579 0.402515
871 1 0.748335 0.10526 0.438762
911 1 0.746582 0.198103 0.452759
1074 1 0.857155 0.14551 0.495587
873 1 0.802262 0.103292 0.403057
874 1 0.85395 0.150597 0.401988
913 1 0.808871 0.198375 0.40112
876 1 0.807161 0.158255 0.454167
915 1 0.854912 0.199883 0.45313
1077 1 0.909527 0.106937 0.499044
880 1 0.903151 0.157952 0.447007
925 1 0.0976711 0.294633 0.404926
923 1 0.0546587 0.293496 0.453481
921 1 0.00726896 0.296674 0.405888
882 1 0.0494923 0.242345 0.40634
884 1 0.00618137 0.247199 0.449582
1082 1 0.0555072 0.238808 0.496982
1121 1 0.000780745 0.291648 0.494788
1086 1 0.158041 0.253098 0.49387
888 1 0.103623 0.249998 0.452864
886 1 0.155493 0.252477 0.400942
933 1 0.296967 0.29878 0.402328
931 1 0.254092 0.289553 0.448148
892 1 0.209277 0.242098 0.451285
1129 1 0.209767 0.298858 0.491376
1093 1 0.296543 0.203337 0.493844
893 1 0.305302 0.20122 0.40085
894 1 0.359507 0.240098 0.405317
896 1 0.313995 0.248005 0.447458
895 1 0.354922 0.200444 0.464298
1094 1 0.354231 0.255049 0.498346
898 1 0.441768 0.246001 0.404351
937 1 0.400918 0.296819 0.403395
939 1 0.456177 0.29792 0.459328
900 1 0.406198 0.243306 0.455223
941 1 0.500601 0.29685 0.409317