ITEM: TIMESTEP
39500
ITEM: NUMBER OF ATOMS
864
ITEM: BOX BOUNDS pp pp pp
0.0000000000000000e+00 3.1559999999999999e+01
0.0000000000000000e+00 3.1559999999999999e+01
0.0000000000000000e+00 3.1559999999999999e+01
ITEM: ATOMS id type xs ys zs
27 1 0.0807898 0.168511 0.0887241
157 1 0.504236 0.00519833 0.332073
97 1 0.000729101 0.162375 0.172283
8 1 0.162799 0.0821084 0.0942531
78 1 0.244889 0.0964603 0.193023
87 1 0.583322 0.00728589 0.242673
218 1 0.097294 0.0761483 0.485816
12 1 0.339849 0.078633 0.0901628
82 1 0.436329 0.0852852 0.146936
35 1 0.422123 0.171649 0.0661894
14 1 0.590214 0.0885143 -0.00148946
213 1 0.842901 0.329068 0.348128
16 1 0.519937 0.0908186 0.0739065
86 1 0.582176 0.0821522 0.156545
26 1 0.0897311 0.248355 -0.000745967
20 1 0.675922 0.0889237 0.0873111
249 1 0.337182 0.180787 0.492332
587 1 0.422755 0.487579 0.432682
90 1 0.763106 0.0873088 0.154097
221 1 0.1749 0.00736514 0.49909
4 1 0.00697243 0.0806854 0.0842254
24 1 0.848615 0.0853366 0.0937064
94 1 0.93232 0.0916278 0.168124
32 1 0.171685 0.237916 0.0959629
51 1 0.0898457 0.319809 0.0833246
98 1 0.0860079 0.249597 0.165751
125 1 0.161933 0.329594 0.162171
31 1 0.246194 0.151999 0.0957269
102 1 0.268476 0.247477 0.152983
36 1 0.337583 0.251958 0.0678956
577 1 0.99178 0.496207 0.322021
106 1 0.405252 0.266159 0.154145
129 1 0.3404 0.355116 0.152335
109 1 0.496479 0.180917 0.161733
39 1 0.596651 0.169482 0.0855297
40 1 0.48767 0.258483 0.0800388
63 1 0.59262 0.323575 0.073975
22 1 0.914057 0.0722323 0.00310742
44 1 0.672657 0.248349 0.0925598
43 1 0.77679 0.174537 0.0851554
48 1 0.841286 0.254724 0.0757821
137 1 0.668644 0.343673 0.160752
47 1 0.920034 0.175136 0.0903162
28 1 0.00798554 0.250004 0.0958399
71 1 0.910958 0.341111 0.0804302
118 1 0.908307 0.258776 0.17202
230 1 0.57263 0.0673756 0.501774
81 1 0.327986 0.00949627 0.160783
597 1 0.831506 0.498663 0.341167
215 1 0.919993 0.334978 0.417793
56 1 0.163968 0.419534 0.0737932
55 1 0.255881 0.331528 0.082453
589 1 0.499453 0.491265 0.345868
515 1 0.415952 0.48504 0.254356
59 1 0.416546 0.344775 0.0825297
60 1 0.325332 0.418817 0.0735319
130 1 0.425163 0.417131 0.161543
95 1 0.926216 0.0125138 0.247736
265 1 0.02124 0.336472 0.484153
64 1 0.515861 0.415639 0.0706126
49 1 0.00515601 0.323255 0.00638096
134 1 0.59484 0.42232 0.170127
583 1 0.251763 0.494987 0.413894
68 1 0.671233 0.420992 0.0740857
67 1 0.750365 0.337393 0.088669
238 1 0.928719 0.0818141 0.485158
511 1 0.250205 0.497584 0.262522
72 1 0.833821 0.427553 0.0873228
52 1 0.985921 0.415008 0.0834222
121 1 0.990528 0.335408 0.158391
25 1 0.0103808 0.162806 0.0100326
74 1 0.0877248 0.0794993 0.173295
145 1 0.998048 0.0033044 0.335097
146 1 0.0821828 0.0859326 0.333259
76 1 0.0121718 0.0885168 0.253032
80 1 0.167276 0.0823856 0.264796
84 1 0.352385 0.0971274 0.239105
447 1 0.593407 0.497205 0.0669644
177 1 0.342761 0.157773 0.334687
107 1 0.419154 0.183414 0.250179
181 1 0.496722 0.178733 0.327982
196 1 0.0119957 0.422521 0.413048
88 1 0.494695 0.0902979 0.246211
111 1 0.589892 0.183269 0.22925
158 1 0.586575 0.0945442 0.334016
521 1 0.674201 0.497039 0.173555
33 1 0.334845 0.151111 0.00367443
513 1 0.332917 0.484794 0.161322
92 1 0.666466 0.0950859 0.250732
117 1 0.842436 0.16903 0.172361
115 1 0.749562 0.167495 0.245199
579 1 0.0868091 0.498582 0.404097
96 1 0.837529 0.0938431 0.247524
119 1 0.924279 0.180152 0.254371
166 1 0.903162 0.0739111 0.339212
99 1 0.0838764 0.173749 0.252402
100 1 0.996628 0.260559 0.247135
105 1 0.347312 0.164049 0.149142
103 1 0.265302 0.189006 0.244351
101 1 0.162387 0.16929 0.180165
104 1 0.167911 0.25595 0.245041
174 1 0.254241 0.25623 0.332138
108 1 0.337757 0.27593 0.242568
178 1 0.408058 0.257437 0.33286
112 1 0.503209 0.257394 0.261162
131 1 0.423143 0.341476 0.25711
205 1 0.494448 0.322381 0.339898
133 1 0.520162 0.342382 0.165924
110 1 0.588639 0.254748 0.152535
135 1 0.594232 0.336782 0.246032
116 1 0.680734 0.259494 0.234705
182 1 0.589831 0.261361 0.342667
114 1 0.77233 0.253773 0.165334
141 1 0.845032 0.348884 0.169742
113 1 0.680551 0.170004 0.169236
139 1 0.762341 0.331582 0.244183
120 1 0.833668 0.253357 0.252229
190 1 0.931623 0.2567 0.33997
169 1 0.00551806 0.167937 0.335874
214 1 0.915355 0.421518 0.344196
123 1 0.076592 0.340953 0.241321
122 1 0.0869334 0.432229 0.150827
124 1 0.997749 0.424445 0.244087
209 1 0.672543 0.333834 0.325082
128 1 0.168526 0.422799 0.245282
127 1 0.253944 0.34054 0.223504
126 1 0.245422 0.418188 0.160298
198 1 0.247025 0.418728 0.335765
132 1 0.330969 0.411251 0.252765
201 1 0.331331 0.333942 0.332205
202 1 0.416552 0.402096 0.350097
45 1 0.852336 0.165754 0.000942518
525 1 0.825433 0.501226 0.16541
136 1 0.500106 0.420539 0.250623
206 1 0.559424 0.396696 0.335382
210 1 0.761327 0.40721 0.342784
138 1 0.748685 0.410479 0.177676
140 1 0.674186 0.417932 0.251449
144 1 0.848528 0.438441 0.261276
217 1 0.00523686 0.0177466 0.484954
143 1 0.922187 0.344105 0.245418
142 1 0.909659 0.437012 0.168081
171 1 0.0967531 0.166706 0.40258
152 1 0.180185 0.0688427 0.393348
216 1 0.843863 0.420955 0.429402
91 1 0.752457 0.0122699 0.24209
10 1 0.421055 0.0869866 0.00442943
150 1 0.26429 0.0857568 0.326674
156 1 0.330852 0.0810101 0.413569
204 1 0.341476 0.399529 0.429939
159 1 0.579406 0.00397239 0.41545
154 1 0.412779 0.0746718 0.332934
160 1 0.503819 0.0993803 0.403164
179 1 0.419712 0.166236 0.423774
517 1 0.505889 0.489059 0.162978
164 1 0.664658 0.0925136 0.434128
199 1 0.246927 0.338008 0.412161
195 1 0.0964329 0.338924 0.409667
162 1 0.741959 0.106206 0.328913
203 1 0.43501 0.33177 0.428675
15 1 0.589086 0.00104671 0.0769685
148 1 0.9969 0.0904924 0.394893
191 1 0.917835 0.160799 0.41711
168 1 0.81979 0.0875064 0.418217
237 1 0.825977 0.0077915 0.493965
85 1 0.502547 0.000337717 0.154068
170 1 0.0890724 0.265131 0.315713
172 1 0.0147357 0.265253 0.403314
208 1 0.507319 0.422759 0.428521
173 1 0.169445 0.170308 0.316047
176 1 0.170151 0.256202 0.415558
175 1 0.255268 0.166435 0.412506
180 1 0.332207 0.266727 0.419809
184 1 0.505002 0.232994 0.421553
185 1 0.669559 0.181261 0.324587
207 1 0.591953 0.344677 0.428198
183 1 0.594206 0.17054 0.410645
212 1 0.670664 0.438924 0.412528
186 1 0.753682 0.251013 0.335071
211 1 0.759196 0.339265 0.424934
188 1 0.670132 0.25935 0.422947
187 1 0.75408 0.16667 0.419952
200 1 0.169864 0.423694 0.410288
189 1 0.829929 0.16974 0.335037
192 1 0.825926 0.248671 0.428345
93 1 0.84869 0.0109131 0.17281
197 1 0.180826 0.336013 0.319971
193 1 0.996667 0.339196 0.33458
194 1 0.0832791 0.420939 0.323074
46 1 0.926355 0.248746 0.00159972
226 1 0.429837 0.0843709 0.489811
262 1 0.917893 0.253796 0.499983
443 1 0.410476 0.498102 0.084996
242 1 0.0931192 0.247033 0.48639
585 1 0.340387 0.48312 0.348048
83 1 0.431714 0.00659081 0.232081
241 1 0.0100975 0.167401 0.494845
70 1 0.908101 0.436066 0.00156155
42 1 0.760097 0.253289 0.00191318
269 1 0.182655 0.341095 0.492581
161 1 0.679294 0.0178946 0.331029
507 1 0.0883601 0.495157 0.245173
245 1 0.170082 0.164824 0.481775
79 1 0.259961 0.000826002 0.264932
222 1 0.246793 0.0831989 0.480274
593 1 0.658852 0.497715 0.322133
6 1 0.250553 0.0732838 0.0046293
38 1 0.584797 0.248852 0.00299613
13 1 0.507363 0.000985488 0.00180085
66 1 0.75263 0.432891 0.00825047
21 1 0.821876 0.0157856 0.00338213
669 1 0.854385 0.495145 0.498865
58 1 0.417473 0.427876 0.0046916
282 1 0.747815 0.423817 0.491689
61 1 0.496616 0.340903 0.0024312
30 1 0.244416 0.242424 0.00375776
62 1 0.597774 0.413121 0.0024233
266 1 0.0873042 0.414055 0.484487
309 1 0.823705 0.00561609 0.647601
661 1 0.491569 0.49438 0.514499
224 1 0.164159 0.0742497 0.578946
294 1 0.245071 0.0706642 0.660954
433 1 0.993839 0.496554 0.994024
228 1 0.324454 0.0743238 0.572496
298 1 0.417523 0.0762068 0.657514
321 1 0.327853 0.14449 0.647969
286 1 0.928014 0.413721 0.5144
1 1 0.0135467 0.00774688 1.00032
274 1 0.409061 0.414189 0.50701
281 1 0.682961 0.331041 0.507413
232 1 0.505535 0.0772063 0.590117
236 1 0.657307 0.0847011 0.593381
255 1 0.587866 0.171471 0.590532
725 1 0.158332 0.49064 0.66979
259 1 0.755708 0.172976 0.580118
329 1 0.662452 0.161677 0.67366
333 1 0.831335 0.163895 0.654992
277 1 0.505307 0.34114 0.509984
220 1 0.0141082 0.0851082 0.56764
240 1 0.814754 0.0795843 0.581407
313 1 0.00469857 0.167424 0.66791
801 1 0.338864 0.495884 0.830053
243 1 0.0849572 0.175527 0.577784
244 1 0.00937463 0.254045 0.556678
248 1 0.171771 0.238497 0.578585
317 1 0.168573 0.15438 0.654806
314 1 0.0950666 0.235461 0.659265
341 1 0.146736 0.324655 0.661204
247 1 0.24974 0.159312 0.571689
381 1 0.822572 0.0099318 0.830148
252 1 0.335961 0.237324 0.597688
345 1 0.324011 0.352107 0.67965
271 1 0.253737 0.331053 0.597232
805 1 0.492667 0.495721 0.842365
325 1 0.507539 0.1629 0.661947
251 1 0.442486 0.164671 0.577637
322 1 0.418336 0.231893 0.667829
295 1 0.243403 0.00200621 0.759919
256 1 0.500837 0.25391 0.596405
260 1 0.67262 0.245558 0.599761
349 1 0.498124 0.333425 0.68788
326 1 0.58454 0.248338 0.679384
330 1 0.754472 0.238565 0.667962
373 1 0.494391 0.00733592 0.836953
264 1 0.837649 0.241387 0.567613
263 1 0.913725 0.166748 0.572078
334 1 0.922198 0.238344 0.66817
50 1 0.0693003 0.402777 0.987898
54 1 0.258443 0.427328 0.988988
267 1 0.10066 0.319124 0.562455
272 1 0.163513 0.41349 0.57436
268 1 0.0147956 0.400231 0.597189
337 1 0.00823357 0.310546 0.655978
663 1 0.597369 0.491849 0.594099
437 1 0.172635 0.497582 0.995506
275 1 0.41454 0.331858 0.59909
276 1 0.335217 0.424526 0.583839
311 1 0.896862 0.0107582 0.738459
250 1 0.432007 0.260604 0.50631
280 1 0.499834 0.416538 0.596015
279 1 0.576449 0.32556 0.586717
350 1 0.588081 0.4034 0.660164
284 1 0.676755 0.415026 0.58543
797 1 0.162331 0.498007 0.836939
283 1 0.755271 0.321439 0.593953
354 1 0.752724 0.419243 0.684002
288 1 0.837518 0.42255 0.592797
357 1 0.849077 0.32342 0.674064
287 1 0.916547 0.321015 0.584602
379 1 0.746425 0.00188578 0.922315
246 1 0.24977 0.261044 0.505859
431 1 0.907763 0.338565 0.909833
723 1 0.0841253 0.489488 0.752693
69 1 0.827762 0.347513 1.00073
290 1 0.0689703 0.0742221 0.668602
273 1 0.343518 0.32505 0.504093
296 1 0.151892 0.0835937 0.737828
319 1 0.227314 0.149635 0.751811
389 1 0.156266 0.153883 0.843645
300 1 0.31421 0.0841709 0.757939
304 1 0.49988 0.0835798 0.760014
809 1 0.666659 0.492183 0.834726
302 1 0.574813 0.0775954 0.676738
308 1 0.676515 0.0738363 0.752138
254 1 0.589388 0.251582 0.507314
306 1 0.742467 0.0859021 0.655622
312 1 0.811911 0.0722102 0.743275
378 1 0.740811 0.0806571 0.83872
299 1 0.397601 0.00724851 0.765836
671 1 0.934292 0.480297 0.586538
807 1 0.584355 0.494485 0.930987
310 1 0.925355 0.097208 0.656497
292 1 0.990865 0.0610129 0.747909
335 1 0.910054 0.151423 0.744661
315 1 0.0711536 0.16669 0.746933
320 1 0.158839 0.237102 0.757667
413 1 0.146994 0.336602 0.834599
318 1 0.229472 0.243085 0.673226
417 1 0.320378 0.333633 0.825725
390 1 0.240734 0.227945 0.823007
323 1 0.421072 0.158625 0.749649
324 1 0.323383 0.239867 0.723768
394 1 0.407116 0.243873 0.848028
328 1 0.499531 0.226452 0.770182
347 1 0.406555 0.3058 0.765191
421 1 0.500358 0.325863 0.825366
327 1 0.584272 0.168967 0.75634
398 1 0.596188 0.270397 0.837838
332 1 0.6806 0.253565 0.749283
331 1 0.757795 0.177512 0.763407
355 1 0.759162 0.326506 0.738161
402 1 0.762467 0.26067 0.837043
405 1 0.84579 0.16358 0.832985
316 1 0.00500271 0.24411 0.746597
336 1 0.84218 0.245112 0.762426
406 1 0.935689 0.256842 0.835627
338 1 0.0778072 0.412883 0.677775
339 1 0.0682885 0.333958 0.749394
344 1 0.159134 0.416933 0.762016
340 1 0.995568 0.429212 0.76258
342 1 0.226089 0.416635 0.671123
343 1 0.235688 0.334659 0.747358
416 1 0.156439 0.411249 0.923496
346 1 0.415822 0.420305 0.66627
385 1 0.990178 0.155481 0.822002
348 1 0.334544 0.423097 0.755734
418 1 0.421781 0.399409 0.829747
428 1 0.668926 0.421954 0.914236
432 1 0.8309 0.41533 0.910015
353 1 0.661212 0.334858 0.656803
352 1 0.500257 0.417957 0.755458
351 1 0.595229 0.332356 0.744552
427 1 0.745791 0.343678 0.916444
356 1 0.669778 0.405862 0.747292
426 1 0.763938 0.421205 0.822459
359 1 0.9317 0.334563 0.75207
360 1 0.849759 0.417709 0.736316
429 1 0.839651 0.344574 0.816947
358 1 0.925125 0.405761 0.658715
430 1 0.910305 0.418522 0.831827
425 1 0.680578 0.338697 0.833447
362 1 0.0742444 0.0847834 0.829961
364 1 0.996953 0.0782707 0.921399
815 1 0.921736 0.497137 0.909527
387 1 0.0772494 0.153406 0.911562
239 1 0.909119 0.0103974 0.588076
366 1 0.236034 0.0755309 0.84735
368 1 0.160747 0.083363 0.923291
391 1 0.247386 0.157409 0.916273
393 1 0.319399 0.158822 0.837348
422 1 0.585616 0.411996 0.839395
370 1 0.395409 0.0708644 0.85552
372 1 0.325268 0.061848 0.934477
395 1 0.397585 0.15591 0.917362
408 1 0.853316 0.240956 0.92619
397 1 0.484342 0.160041 0.84804
376 1 0.489853 0.0814312 0.918525
374 1 0.584653 0.0837747 0.831802
380 1 0.67267 0.0958596 0.91345
410 1 0.0731682 0.418465 0.839974
424 1 0.501663 0.40952 0.91192
388 1 0.00665005 0.251948 0.918308
57 1 0.334564 0.331697 0.995169
384 1 0.847407 0.0788894 0.90757
412 1 0.988091 0.409122 0.911768
382 1 0.919814 0.0631943 0.826889
404 1 0.679179 0.255786 0.907788
407 1 0.924299 0.162739 0.916146
409 1 0.0192699 0.327924 0.84286
411 1 0.085848 0.326056 0.924051
386 1 0.0729041 0.239619 0.839088
392 1 0.157399 0.241194 0.908781
403 1 0.762913 0.18044 0.914951
396 1 0.31231 0.249972 0.916446
415 1 0.229695 0.330431 0.910529
414 1 0.245984 0.41013 0.824636
721 1 0.00325129 0.496694 0.673465
420 1 0.345258 0.409003 0.902021
419 1 0.426456 0.334925 0.910293
400 1 0.498912 0.253255 0.905473
423 1 0.575912 0.326209 0.937197
401 1 0.676434 0.166261 0.826577
399 1 0.592973 0.167602 0.892391
303 1 0.581469 0.00104572 0.758219
651 1 0.0794647 0.487819 0.593721
735 1 0.58491 0.482356 0.740388
234 1 0.739774 0.0714428 0.501255
667 1 0.753366 0.497035 0.592748
41 1 0.677514 0.17985 0.992299
649 1 0.0154674 0.493273 0.499805
799 1 0.254955 0.488076 0.890953
37 1 0.493779 0.163813 0.993767
34 1 0.411891 0.248811 0.99207
445 1 0.503802 0.498372 0.9974
18 1 0.759111 0.100797 0.992152
257 1 0.668955 0.173017 0.513588
253 1 0.516387 0.153039 0.505579
53 1 0.167657 0.340612 0.988334
261 1 0.829712 0.150276 0.504753
653 1 0.162583 0.489891 0.500749
285 1 0.839637 0.349834 0.508471
2 1 0.08209 0.0885235 1.00018
65 1 0.679389 0.329572 0.988842
278 1 0.578368 0.418174 0.523399
270 1 0.251566 0.423867 0.513095
17 1 0.671963 0.019178 0.998789
258 1 0.75546 0.240742 0.506049
29 1 0.172719 0.169973 0.994579
440 1 0.169316 0.585692 0.0828771
451 1 0.739587 0.502197 0.086365
459 1 0.0789775 0.664149 0.103042
506 1 0.090146 0.570926 0.160526
463 1 0.247021 0.66517 0.0918005
510 1 0.267922 0.568302 0.179717
11 1 0.409751 0.998394 0.0708353
444 1 0.338884 0.56874 0.0900382
448 1 0.510272 0.569848 0.0859043
467 1 0.416143 0.651954 0.0855435
505 1 0.998108 0.503982 0.161903
471 1 0.584028 0.656091 0.0763096
452 1 0.668453 0.582221 0.0880994
518 1 0.595923 0.572907 0.165876
682 1 0.418867 0.751742 0.500368
456 1 0.833297 0.577658 0.0723673
475 1 0.757174 0.654502 0.0859754
73 1 0.00698817 0.995382 0.174195
625 1 0.995866 0.853065 0.328846
628 1 0.995304 0.929182 0.41509
436 1 0.99036 0.578452 0.085352
479 1 0.903901 0.673746 0.087247
646 1 0.92122 0.925722 0.331544
483 1 0.072106 0.832948 0.0854629
9 1 0.318724 0.986702 0.015107
23 1 0.90065 0.997954 0.0841251
464 1 0.170998 0.745328 0.0891534
468 1 0.330126 0.743864 0.0809572
557 1 0.176141 0.827816 0.174117
533 1 0.183596 0.646732 0.171367
442 1 0.427709 0.575072 0.00736892
472 1 0.489557 0.738021 0.0748415
538 1 0.429227 0.740919 0.169859
599 1 0.925569 0.503821 0.415202
542 1 0.588522 0.750615 0.175362
495 1 0.586771 0.835993 0.0893647
476 1 0.664548 0.743195 0.0801725
499 1 0.745647 0.83005 0.0803065
490 1 0.410201 0.908406 0.0142727
553 1 0.997528 0.845944 0.166179
480 1 0.823689 0.751807 0.0766872
460 1 0.988964 0.73538 0.075788
503 1 0.923896 0.844502 0.0771206
573 1 0.825113 0.837425 0.158462
455 1 0.90307 0.507894 0.0827074
554 1 0.095379 0.917159 0.172511
488 1 0.160023 0.905755 0.0762722
5 1 0.163984 0.997775 -0.000726577
487 1 0.235251 0.831221 0.0848829
561 1 0.33897 0.828519 0.164161
558 1 0.258232 0.916976 0.177754
681 1 0.328056 0.668399 0.487674
491 1 0.415821 0.818859 0.0701217
492 1 0.331565 0.918957 0.0914885
565 1 0.506793 0.824441 0.164437
496 1 0.497213 0.918969 0.0791556
153 1 0.334486 0.989343 0.333033
562 1 0.41379 0.920883 0.170086
458 1 0.0774561 0.740927 0.00874716
435 1 0.0805336 0.51193 0.0692349
648 1 0.834353 0.923452 0.40867
566 1 0.587702 0.929318 0.173841
581 1 0.165484 0.512399 0.335732
500 1 0.661739 0.916581 0.08269
570 1 0.744006 0.909487 0.149284
461 1 0.167955 0.678048 0.00783641
155 1 0.402694 0.991469 0.428219
694 1 0.906394 0.757738 0.498332
504 1 0.832573 0.920417 0.0757378
484 1 0.995219 0.924687 0.0808986
466 1 0.419349 0.741175 -7.4787e-05
149 1 0.167829 0.989422 0.322403
508 1 0.993164 0.581618 0.24478
512 1 0.166057 0.584619 0.254264
75 1 0.0824511 0.982706 0.257852
516 1 0.341915 0.56807 0.276187
582 1 0.244606 0.589733 0.341486
609 1 0.348187 0.674101 0.336758
498 1 0.743859 0.92759 0.00784004
514 1 0.404979 0.56716 0.174211
586 1 0.418997 0.561626 0.349752
520 1 0.491813 0.572311 0.260389
590 1 0.577414 0.576356 0.338163
524 1 0.667068 0.585188 0.246188
522 1 0.751231 0.587809 0.168391
545 1 0.644106 0.673089 0.161484
644 1 0.662056 0.917121 0.400398
528 1 0.830363 0.588892 0.266062
594 1 0.742039 0.576658 0.34123
547 1 0.744439 0.664903 0.253453
478 1 0.912179 0.750722 0.00531064
654 1 0.257558 0.585675 0.49545
434 1 0.0843945 0.6048 0.00391215
526 1 0.880001 0.585163 0.16736
549 1 0.823909 0.671721 0.164365
530 1 0.0901999 0.746141 0.170915
531 1 0.0772597 0.674098 0.242893
532 1 0.989574 0.750947 0.251016
555 1 0.0728092 0.827627 0.239564
536 1 0.166238 0.748352 0.248896
534 1 0.252761 0.743762 0.171254
535 1 0.269096 0.656871 0.259737
540 1 0.338222 0.750666 0.259014
606 1 0.248071 0.753265 0.328741
537 1 0.346621 0.66262 0.1738
539 1 0.435757 0.664871 0.257369
544 1 0.499193 0.752336 0.264968
610 1 0.421256 0.778091 0.341603
541 1 0.497271 0.646764 0.164298
563 1 0.419336 0.831835 0.243342
543 1 0.579997 0.659403 0.242416
548 1 0.663707 0.759857 0.249699
567 1 0.585873 0.830714 0.263069
617 1 0.654824 0.666624 0.353528
569 1 0.653445 0.839341 0.173483
546 1 0.736562 0.75247 0.16125
621 1 0.818817 0.667325 0.333879
529 1 0.982349 0.657638 0.156838
550 1 0.916846 0.759819 0.160023
551 1 0.91262 0.675039 0.242843
552 1 0.817221 0.762863 0.226698
560 1 0.169075 0.906427 0.247927
626 1 0.0821424 0.907745 0.33783
462 1 0.240563 0.751145 0.00981431
629 1 0.169673 0.822935 0.34113
559 1 0.2475 0.822079 0.24782
564 1 0.337589 0.919112 0.239166
633 1 0.340733 0.837811 0.314781
634 1 0.429486 0.931344 0.340714
489 1 0.32679 0.824914 0.00360076
638 1 0.589845 0.932985 0.325068
568 1 0.503391 0.925167 0.244208
572 1 0.67154 0.919577 0.249659
718 1 0.918803 0.938553 0.497044
642 1 0.740767 0.923164 0.32964
571 1 0.748203 0.839086 0.255362
576 1 0.828645 0.926489 0.239818
630 1 0.245056 0.906924 0.339906
574 1 0.90345 0.921352 0.165842
556 1 0.996649 0.919199 0.246727
575 1 0.908891 0.833813 0.245395
640 1 0.501046 0.922765 0.417617
578 1 0.0842335 0.577684 0.328452
465 1 0.335514 0.6527 0.0134866
19 1 0.751716 0.996522 0.0925317
580 1 0.0146863 0.586816 0.420542
670 1 0.923638 0.583746 0.481968
619 1 0.75147 0.652926 0.422801
584 1 0.16405 0.588945 0.412194
588 1 0.318382 0.588704 0.41251
592 1 0.490301 0.577414 0.429205
611 1 0.412343 0.672805 0.419178
714 1 0.741851 0.905031 0.492983
620 1 0.675956 0.746285 0.432984
624 1 0.831242 0.754915 0.425452
165 1 0.831445 0.999678 0.315571
613 1 0.493738 0.678193 0.347467
627 1 0.0778443 0.829264 0.405307
622 1 0.896844 0.739033 0.333318
596 1 0.660569 0.582327 0.411319
439 1 0.240476 0.504831 0.0784321
598 1 0.916411 0.596259 0.335364
623 1 0.90188 0.672633 0.41439
600 1 0.843915 0.589676 0.419654
701 1 0.162648 0.832473 0.498548
632 1 0.177371 0.915743 0.417392
601 1 0.00169597 0.670804 0.324931
603 1 0.0730664 0.674137 0.431443
602 1 0.0671049 0.755699 0.326441
604 1 0.983297 0.753821 0.415285
509 1 0.171493 0.503751 0.160465
605 1 0.148213 0.666791 0.329914
607 1 0.243723 0.674193 0.414061
608 1 0.151389 0.750688 0.42107
612 1 0.334854 0.761386 0.40986
647 1 0.906273 0.826409 0.400785
636 1 0.33018 0.903045 0.417476
635 1 0.425252 0.847862 0.41939
637 1 0.512956 0.845818 0.34402
631 1 0.244971 0.823119 0.426315
614 1 0.583604 0.745525 0.332654
641 1 0.665832 0.834365 0.335193
615 1 0.574051 0.66729 0.418838
639 1 0.584606 0.839019 0.420676
616 1 0.499018 0.750108 0.426754
643 1 0.75191 0.829893 0.405624
645 1 0.832562 0.840582 0.322285
618 1 0.750898 0.749829 0.328983
77 1 0.180878 0.995967 0.173896
485 1 0.146142 0.812981 0.00196687
698 1 0.0843774 0.920787 0.483217
591 1 0.582363 0.497896 0.432702
494 1 0.585081 0.914765 0.00134652
527 1 0.913775 0.522678 0.251827
3 1 0.0858858 1.00004 0.0876057
147 1 0.093298 0.99877 0.401631
673 1 0.978621 0.671899 0.486765
595 1 0.763522 0.511077 0.432319
523 1 0.756596 0.5158 0.252004
151 1 0.265263 0.990466 0.422056
502 1 0.915055 0.925435 0.00264886
233 1 0.663316 0.986878 0.495004
7 1 0.231712 0.993041 0.0792689
519 1 0.578254 0.508047 0.246095
167 1 0.909267 0.997027 0.411781
163 1 0.745927 0.994277 0.418856
89 1 0.677847 0.99272 0.173245
481 1 0.0032232 0.83128 0.00402425
697 1 0.980063 0.845966 0.492624
677 1 0.157748 0.661028 0.497633
438 1 0.238305 0.591902 0.00795689
486 1 0.243567 0.904064 0.00847497
497 1 0.663475 0.843468 0.00761614
686 1 0.596084 0.748333 0.498596
674 1 0.0551122 0.772672 0.486826
652 1 0.992959 0.578868 0.587425
675 1 0.0632496 0.664466 0.568189
722 1 0.0821249 0.560813 0.676624
457 1 0.978746 0.667381 0.999366
231 1 0.579834 0.997453 0.578609
656 1 0.150529 0.583152 0.581908
229 1 0.481773 0.990248 0.51338
659 1 0.405852 0.501974 0.603014
367 1 0.243669 0.984538 0.926452
844 1 0.00354942 0.912192 0.920383
660 1 0.325112 0.593684 0.594361
664 1 0.503459 0.577576 0.586103
668 1 0.659404 0.586937 0.596266
687 1 0.583187 0.669863 0.579038
365 1 0.167694 0.993537 0.842811
371 1 0.411806 0.992105 0.936065
727 1 0.253175 0.503296 0.761745
862 1 0.916128 0.922325 0.832195
738 1 0.74878 0.59434 0.668056
291 1 0.0858079 0.991419 0.747887
672 1 0.848145 0.5713 0.586783
742 1 0.913763 0.573413 0.673486
705 1 0.33775 0.826238 0.509262
676 1 0.992952 0.744201 0.582593
745 1 0.999927 0.662259 0.669115
665 1 0.675985 0.508165 0.504033
679 1 0.243862 0.662525 0.581964
680 1 0.146691 0.751956 0.581171
703 1 0.253514 0.829605 0.582711
749 1 0.150241 0.664763 0.648338
773 1 0.159551 0.857303 0.679292
689 1 0.666112 0.658331 0.502828
453 1 0.822819 0.50714 0.978873
684 1 0.317166 0.732732 0.578006
683 1 0.418843 0.668355 0.592037
707 1 0.416189 0.834617 0.581245
781 1 0.492119 0.832 0.653641
733 1 0.498903 0.512456 0.673786
688 1 0.502895 0.749145 0.576028
692 1 0.671464 0.755272 0.577887
761 1 0.673383 0.676011 0.656795
469 1 0.500407 0.660222 0.991094
691 1 0.752337 0.669835 0.582831
715 1 0.74695 0.827983 0.573553
765 1 0.84681 0.65898 0.655781
301 1 0.499577 0.996666 0.668984
713 1 0.654763 0.843177 0.509173
695 1 0.916331 0.652542 0.578639
696 1 0.839856 0.733616 0.587062
803 1 0.417346 0.50202 0.914547
864 1 0.830434 0.916813 0.927565
699 1 0.0667325 0.853574 0.580824
297 1 0.322385 0.997752 0.683835
454 1 0.924777 0.572457 0.986603
361 1 1.00001 0.995481 0.831429
704 1 0.16309 0.910719 0.578079
708 1 0.325865 0.913447 0.580765
774 1 0.256138 0.927401 0.67103
859 1 0.742212 0.84175 0.929802
223 1 0.253567 0.996276 0.576794
835 1 0.765931 0.676154 0.91833
848 1 0.168329 0.900872 0.923176
858 1 0.740358 0.914385 0.8408
712 1 0.509708 0.911192 0.593573
711 1 0.591016 0.834997 0.59318
716 1 0.667293 0.910211 0.590196
377 1 0.672216 0.999326 0.836705
856 1 0.519173 0.908619 0.898363
363 1 0.0868585 0.992301 0.914142
720 1 0.828003 0.92923 0.559749
700 1 0.995822 0.926693 0.579615
719 1 0.91308 0.833359 0.583864
477 1 0.855833 0.653044 0.995998
657 1 0.329719 0.501815 0.502545
724 1 0.997552 0.590067 0.751999
728 1 0.155131 0.568819 0.7592
747 1 0.0819893 0.660574 0.737724
817 1 0.996727 0.676915 0.822839
726 1 0.225227 0.579405 0.663713
369 1 0.336682 0.984247 0.850671
798 1 0.225427 0.592959 0.846974
730 1 0.433397 0.594623 0.663675
732 1 0.326245 0.584122 0.749114
755 1 0.431344 0.668381 0.753649
736 1 0.504517 0.585901 0.757904
829 1 0.515934 0.659675 0.826158
734 1 0.58018 0.587095 0.677191
854 1 0.579884 0.922907 0.813717
740 1 0.66482 0.582632 0.753224
759 1 0.601 0.672673 0.745447
666 1 0.767034 0.575384 0.518604
383 1 0.917416 0.996446 0.914432
833 1 0.68824 0.669968 0.824209
741 1 0.823988 0.507753 0.667579
744 1 0.828601 0.579222 0.767393
814 1 0.923955 0.58138 0.836856
746 1 0.0697077 0.759523 0.651641
748 1 0.00466703 0.751577 0.73716
771 1 0.0756889 0.851599 0.752409
750 1 0.229739 0.736742 0.663769
751 1 0.22225 0.664841 0.746498
752 1 0.141482 0.765001 0.734404
775 1 0.241571 0.823474 0.748179
822 1 0.246536 0.745655 0.841185
845 1 0.159722 0.831463 0.821155
753 1 0.315257 0.66366 0.674247
754 1 0.398151 0.745894 0.671123
757 1 0.506431 0.674269 0.65712
756 1 0.318369 0.75155 0.744507
777 1 0.337167 0.832735 0.656426
758 1 0.585193 0.74974 0.66365
760 1 0.508393 0.741417 0.754215
764 1 0.68283 0.766484 0.757153
762 1 0.757288 0.752481 0.675944
763 1 0.747455 0.675969 0.741606
768 1 0.839536 0.764483 0.751932
861 1 0.828878 0.842228 0.853424
834 1 0.751496 0.751458 0.83465
766 1 0.916401 0.753821 0.659146
767 1 0.906526 0.665826 0.743373
769 1 0.990308 0.83306 0.661559
791 1 0.92419 0.859141 0.742872
838 1 0.925424 0.759129 0.814506
770 1 0.074196 0.938173 0.664211
772 1 7.77319e-05 0.921158 0.761987
842 1 0.0929029 0.91095 0.841937
836 1 0.668448 0.749784 0.913685
776 1 0.168813 0.922301 0.759292
693 1 0.831073 0.676061 0.504917
709 1 0.512235 0.840837 0.514228
778 1 0.421343 0.909859 0.684078
780 1 0.342943 0.904025 0.761067
779 1 0.421558 0.828513 0.761705
783 1 0.570806 0.832314 0.734714
784 1 0.484932 0.924245 0.768715
782 1 0.582872 0.92552 0.683486
860 1 0.662965 0.914547 0.923157
788 1 0.669079 0.899644 0.745501
786 1 0.753103 0.908124 0.657255
787 1 0.758181 0.840522 0.74252
857 1 0.657671 0.841722 0.834175
785 1 0.677648 0.824927 0.663181
792 1 0.828472 0.924586 0.74606
843 1 0.0665439 0.817015 0.921378
789 1 0.837404 0.8305 0.662257
790 1 0.91256 0.91446 0.65533
841 1 0.981015 0.841986 0.840385
794 1 0.0791116 0.58333 0.82309
796 1 0.998358 0.594621 0.90929
819 1 0.0690201 0.66616 0.913861
821 1 0.155978 0.685414 0.827513
446 1 0.582094 0.583903 0.994416
800 1 0.157285 0.601263 0.924956
823 1 0.254404 0.673317 0.927681
825 1 0.318075 0.655896 0.834262
804 1 0.320908 0.574454 0.900866
802 1 0.411362 0.578228 0.83373
808 1 0.496861 0.576977 0.92051
827 1 0.404962 0.655213 0.924213
307 1 0.736472 0.98373 0.743148
806 1 0.581073 0.569774 0.834073
812 1 0.670753 0.585594 0.912547
831 1 0.589232 0.657394 0.914191
846 1 0.247938 0.913354 0.844577
810 1 0.759786 0.596174 0.833817
493 1 0.514362 0.835652 1.0001
850 1 0.415758 0.923275 0.853163
837 1 0.835331 0.678995 0.818378
816 1 0.835715 0.585778 0.904235
839 1 0.916006 0.672686 0.901493
852 1 0.330127 0.909435 0.930584
818 1 0.0656672 0.764795 0.82834
824 1 0.152297 0.738697 0.916339
820 1 0.974033 0.76284 0.913651
828 1 0.340532 0.743797 0.920062
847 1 0.22613 0.823309 0.922294
849 1 0.333383 0.828058 0.847265
840 1 0.846128 0.75331 0.909054
826 1 0.409188 0.746653 0.835537
851 1 0.432759 0.827644 0.914857
832 1 0.515396 0.741675 0.906686
863 1 0.906312 0.842508 0.938867
855 1 0.596327 0.83603 0.917788
830 1 0.603416 0.74726 0.817168
853 1 0.516176 0.817453 0.828419
474 1 0.736469 0.74944 0.998494
737 1 0.678254 0.504127 0.668739
235 1 0.734121 0.993006 0.582903
678 1 0.242026 0.746076 0.504158
795 1 0.0803521 0.521508 0.911395
293 1 0.170962 0.98664 0.661804
227 1 0.413244 0.977387 0.608165
305 1 0.658398 1.00181 0.662966
225 1 0.342275 0.987189 0.506509
731 1 0.406538 0.507731 0.739868
685 1 0.502519 0.662332 0.507242
441 1 0.34789 0.512597 0.996829
811 1 0.752407 0.507575 0.903538
501 1 0.816928 0.825844 0.998278
375 1 0.593605 1.00018 0.931345
650 1 0.0859089 0.580475 0.50169
706 1 0.414072 0.911464 0.510756
470 1 0.587581 0.741427 0.991859
655 1 0.231792 0.5112 0.585207
658 1 0.412437 0.570838 0.51417
450 1 0.761922 0.598773 0.982274
793 1 0.996725 0.512761 0.826276
813 1 0.833578 0.501527 0.836581
743 1 0.918823 0.503158 0.758356
219 1 0.0959823 0.984985 0.566042
289 1 0.986289 0.988709 0.666844
729 1 0.304455 0.506493 0.673272
739 1 0.749208 0.513414 0.749191
473 1 0.672937 0.667696 0.998119
690 1 0.752809 0.7499 0.503808
482 1 0.078689 0.910537 0.994094
702 1 0.244878 0.903357 0.511567
449 1 0.685996 0.514299 0.993991
717 1 0.832532 0.846079 0.502479
662 1 0.581068 0.586224 0.508264
710 1 0.575689 0.927441 0.5022
