ITEM: TIMESTEP
2500
ITEM: NUMBER OF ATOMS
864
ITEM: BOX BOUNDS pp pp pp
0.0000000000000000e+00 3.1559999999999999e+01
0.0000000000000000e+00 3.1559999999999999e+01
0.0000000000000000e+00 3.1559999999999999e+01
ITEM: ATOMS id type xs ys zs
74 1 0.0814326 0.0994541 0.167272
8 1 0.175911 0.0867106 0.0917942
27 1 0.0787044 0.164463 0.0798443
273 1 0.31995 0.332431 0.492799
79 1 0.248342 -0.0134184 0.249116
507 1 0.0804628 0.507383 0.261164
12 1 0.323146 0.0792077 0.0909421
242 1 0.0681134 0.247503 0.48612
35 1 0.402184 0.164338 0.0819897
11 1 0.408987 0.00638566 0.07794
109 1 0.492704 0.1607 0.176648
155 1 0.42751 -0.0109461 0.42013
82 1 0.415012 0.0763111 0.158662
214 1 0.904751 0.415488 0.330825
16 1 0.500751 0.0807236 0.0920445
20 1 0.651714 0.0870579 0.0846045
86 1 0.577575 0.0925994 0.17189
437 1 0.170314 0.492242 -0.01454
24 1 0.824113 0.0870892 0.0921811
43 1 0.742768 0.176992 0.0801677
215 1 0.913901 0.327977 0.4108
3 1 0.0985915 -0.000126986 0.0750228
4 1 0.0115383 0.083172 0.0903187
218 1 0.0789867 0.0817111 0.505691
94 1 0.907595 0.0790417 0.158708
47 1 0.920952 0.169472 0.0910275
443 1 0.424049 0.479043 0.0991691
32 1 0.1793 0.263176 0.070027
98 1 0.0973578 0.246578 0.170388
81 1 0.33121 -0.00369098 0.164994
46 1 0.913727 0.242299 0.000608851
31 1 0.253748 0.161668 0.0810498
36 1 0.331451 0.246138 0.0771272
163 1 0.752657 -0.0102706 0.411517
59 1 0.419228 0.331176 0.099177
105 1 0.315579 0.157298 0.165859
106 1 0.419118 0.245636 0.167906
14 1 0.578582 0.0753175 0.000491773
39 1 0.57767 0.167041 0.0777295
40 1 0.497995 0.25545 0.0657963
110 1 0.576099 0.249967 0.174761
44 1 0.66613 0.244232 0.094479
48 1 0.832519 0.227982 0.0921413
230 1 0.587441 0.0802876 0.497312
254 1 0.566805 0.227935 0.491047
97 1 1.00876 0.178505 0.171672
121 1 0.0107447 0.331346 0.175218
28 1 1.00483 0.239029 0.0778676
71 1 0.927188 0.340265 0.0861364
118 1 0.921136 0.26498 0.176747
51 1 0.0850758 0.327601 0.0778415
56 1 0.158748 0.411543 0.0774509
52 1 1.01377 0.426146 0.0798868
234 1 0.759933 0.0807879 0.510866
213 1 0.836853 0.334482 0.315141
269 1 0.158979 0.330101 0.496843
55 1 0.260818 0.339114 0.0911942
60 1 0.348293 0.410734 0.0900125
159 1 0.579364 -0.00675027 0.429859
515 1 0.416105 0.487262 0.256537
130 1 0.421794 0.405455 0.174177
63 1 0.579909 0.323561 0.0925036
64 1 0.512412 0.409134 0.0941378
134 1 0.594622 0.405245 0.179794
133 1 0.497962 0.325127 0.167395
19 1 0.739854 0.00805577 0.0821985
509 1 0.158384 0.505423 0.159086
67 1 0.741133 0.334024 0.0773205
68 1 0.666353 0.426834 0.088345
75 1 0.096504 -0.00344588 0.264969
72 1 0.833961 0.417382 0.0688561
581 1 0.163988 0.508433 0.327182
222 1 0.268597 0.0843596 0.501909
146 1 0.0655789 0.0831259 0.33245
99 1 0.0786957 0.167118 0.258024
78 1 0.250014 0.0774417 0.17353
212 1 0.682982 0.413997 0.417062
80 1 0.158758 0.0923048 0.244726
103 1 0.252168 0.189411 0.248994
150 1 0.239179 0.0781536 0.334754
84 1 0.32838 0.0883457 0.245758
107 1 0.410781 0.160183 0.263919
154 1 0.398196 0.0739447 0.336998
177 1 0.325264 0.162656 0.32882
88 1 0.483406 0.0812434 0.246865
92 1 0.658601 0.07831 0.234469
158 1 0.576103 0.0684239 0.332827
185 1 0.668316 0.158412 0.341102
181 1 0.495747 0.168727 0.330435
90 1 0.738038 0.0940273 0.163448
115 1 0.749649 0.165805 0.251711
117 1 0.828876 0.155125 0.174705
162 1 0.762267 0.0847762 0.327863
76 1 0.998515 0.0896686 0.248605
96 1 0.83952 0.0915303 0.258458
119 1 0.913854 0.178311 0.236325
101 1 0.179621 0.174104 0.168967
100 1 1.00657 0.246299 0.251692
170 1 0.0876728 0.249985 0.334003
104 1 0.169815 0.248622 0.257326
123 1 0.0820585 0.316885 0.253401
173 1 0.15707 0.165358 0.338884
102 1 0.252689 0.249243 0.160924
129 1 0.326434 0.332758 0.180028
201 1 0.331947 0.337097 0.332475
108 1 0.336802 0.248373 0.244912
174 1 0.248199 0.246102 0.340895
112 1 0.489707 0.245194 0.246217
178 1 0.405699 0.250938 0.327419
113 1 0.67227 0.17179 0.17203
182 1 0.577277 0.254658 0.326713
111 1 0.57504 0.148858 0.265863
135 1 0.587146 0.323657 0.255249
114 1 0.763005 0.249377 0.169551
116 1 0.666783 0.249352 0.251772
186 1 0.758225 0.24297 0.332679
141 1 0.840496 0.335305 0.164575
120 1 0.836657 0.255638 0.24553
209 1 0.678337 0.333745 0.349667
122 1 0.0831903 0.411173 0.165034
211 1 0.76352 0.339923 0.42513
125 1 0.159971 0.322079 0.158359
128 1 0.167461 0.405928 0.259553
124 1 1.00651 0.419039 0.255186
126 1 0.222243 0.413099 0.163973
127 1 0.252255 0.331021 0.25775
198 1 0.253592 0.419837 0.325426
131 1 0.408136 0.332616 0.253188
132 1 0.329638 0.417051 0.25041
585 1 0.331648 0.506685 0.336045
206 1 0.584523 0.399973 0.335697
205 1 0.49861 0.325181 0.347509
136 1 0.515498 0.406602 0.243768
137 1 0.672577 0.326695 0.16489
210 1 0.757763 0.413588 0.339665
138 1 0.755539 0.410399 0.15355
139 1 0.749282 0.330813 0.253534
140 1 0.668556 0.419527 0.265644
142 1 0.917044 0.422727 0.148069
144 1 0.836806 0.422695 0.246779
143 1 0.92532 0.345538 0.242854
148 1 0.997746 0.0962601 0.425972
152 1 0.16216 0.0846406 0.424119
441 1 0.335771 0.499074 0.0086229
169 1 0.988703 0.170935 0.334136
216 1 0.844365 0.428719 0.430642
591 1 0.591069 0.497571 0.410775
85 1 0.49488 0.00439008 0.162304
193 1 1.00656 0.326654 0.330593
207 1 0.583924 0.334485 0.41744
156 1 0.351972 0.0840451 0.428631
179 1 0.414995 0.170973 0.406264
17 1 0.661178 0.00447659 0.00542258
160 1 0.499552 0.0643801 0.411188
183 1 0.582558 0.143572 0.411073
161 1 0.681116 -0.0100397 0.323142
194 1 0.0839053 0.419618 0.333892
164 1 0.682187 0.0759324 0.422587
168 1 0.827422 0.0724151 0.399678
187 1 0.753467 0.167239 0.418224
166 1 0.921294 0.0844704 0.344783
208 1 0.504699 0.399248 0.418577
202 1 0.417962 0.418614 0.341746
197 1 0.156503 0.338681 0.337864
171 1 0.0800977 0.172968 0.412051
172 1 0.979655 0.247743 0.413118
527 1 0.925424 0.496372 0.237575
175 1 0.240579 0.166264 0.42055
176 1 0.156445 0.264067 0.41274
199 1 0.243885 0.347962 0.407383
204 1 0.328581 0.418577 0.419497
200 1 0.160238 0.421758 0.413446
203 1 0.415012 0.341133 0.414792
180 1 0.334603 0.26146 0.403307
184 1 0.496759 0.247935 0.426766
188 1 0.655215 0.239752 0.421483
196 1 1.00026 0.403537 0.4092
195 1 0.0834093 0.343709 0.420494
192 1 0.833907 0.256274 0.411368
190 1 0.924668 0.263335 0.316859
189 1 0.85213 0.181383 0.3248
191 1 0.896824 0.160415 0.422984
13 1 0.502554 0.00121545 0.00462764
83 1 0.406852 0.00310294 0.26093
89 1 0.645989 -0.00582075 0.16355
587 1 0.420521 0.503407 0.414527
95 1 0.913843 -0.00692478 0.269906
77 1 0.171303 -0.00664115 0.169034
439 1 0.254067 0.491758 0.0909104
10 1 0.41237 0.0958472 -0.00535602
250 1 0.423554 0.252704 0.498068
597 1 0.82153 0.497942 0.331644
33 1 0.318878 0.163299 0.00836796
61 1 0.516418 0.331873 -0.00502822
2 1 0.0961086 0.0822146 0.00813058
93 1 0.832368 -0.00222778 0.173933
34 1 0.414927 0.246193 0.00165687
517 1 0.514209 0.49474 0.176658
577 1 1.0042 0.502393 0.330101
249 1 0.340945 0.1804 0.491816
153 1 0.323421 -0.00490389 0.350166
41 1 0.663033 0.159255 0.00509635
1 1 0.00484843 0.0083734 0.00948978
45 1 0.83094 0.178451 -0.00476762
54 1 0.24287 0.419601 0.00489988
245 1 0.162521 0.167357 0.502886
257 1 0.663377 0.155623 0.491236
62 1 0.581027 0.426841 0.00683312
246 1 0.240012 0.248056 0.494808
258 1 0.763275 0.254151 0.486733
22 1 0.904917 0.0833936 0.00678798
265 1 0.987665 0.341968 0.51203
57 1 0.330964 0.330331 -0.00219339
25 1 0.999448 0.15057 0.00109603
221 1 0.155588 -0.000199903 0.496687
281 1 0.66403 0.319943 0.482788
30 1 0.250041 0.269429 0.00138644
233 1 0.673267 0.00556356 0.505756
69 1 0.837791 0.314077 0.0266998
65 1 0.656558 0.341719 0.00822727
241 1 0.981926 0.177543 0.508063
238 1 0.904842 0.0783277 0.486592
224 1 0.146765 0.0964486 0.58358
412 1 0.996489 0.416019 0.917243
453 1 0.848825 0.500485 0.975106
247 1 0.267521 0.161954 0.5736
294 1 0.239746 0.0932172 0.667925
228 1 0.327911 0.0683429 0.593374
321 1 0.323845 0.171824 0.67556
409 1 1.00071 0.346955 0.823885
428 1 0.670765 0.408316 0.926069
325 1 0.496693 0.155639 0.668748
251 1 0.397948 0.17449 0.586796
381 1 0.823269 0.008321 0.82512
427 1 0.729881 0.324967 0.895614
232 1 0.482104 0.0725782 0.60048
377 1 0.652531 0.00520032 0.846371
236 1 0.675212 0.0859694 0.601787
240 1 0.838437 0.0712169 0.581126
307 1 0.746263 0.00464861 0.754625
433 1 1.002 0.496831 0.991893
220 1 0.991126 0.0915428 0.575168
263 1 0.915224 0.177982 0.58967
733 1 0.495528 0.490408 0.673575
243 1 0.0575211 0.165318 0.587611
317 1 0.163781 0.175508 0.663409
244 1 0.990551 0.262742 0.593251
341 1 0.154297 0.336017 0.676855
267 1 0.0686833 0.332605 0.577139
248 1 0.13405 0.237413 0.573859
318 1 0.250594 0.253643 0.673243
252 1 0.33106 0.26007 0.574598
275 1 0.415305 0.338688 0.582103
322 1 0.395619 0.25432 0.662662
813 1 0.829176 0.506748 0.830856
255 1 0.580704 0.157633 0.573012
256 1 0.484568 0.247772 0.598811
326 1 0.573068 0.230783 0.650633
375 1 0.573291 0.00204293 0.927946
260 1 0.674262 0.242526 0.568477
329 1 0.657073 0.170808 0.668909
259 1 0.742025 0.164405 0.573362
264 1 0.83306 0.252749 0.582493
283 1 0.737314 0.322807 0.570156
651 1 0.0917703 0.492405 0.5942
333 1 0.832007 0.161251 0.653201
287 1 0.915171 0.341494 0.59253
334 1 0.913557 0.252562 0.675872
268 1 -0.00241064 0.417653 0.601529
729 1 0.323058 0.498512 0.672384
731 1 0.426494 0.506036 0.75319
271 1 0.230128 0.308903 0.573166
272 1 0.160506 0.406762 0.586405
737 1 0.672871 0.505453 0.681047
303 1 0.585166 0.0139527 0.754364
432 1 0.819919 0.410815 0.903528
799 1 0.248134 0.48553 0.898485
276 1 0.332966 0.424104 0.587148
280 1 0.517353 0.421544 0.592886
266 1 0.0969581 0.424201 0.501436
349 1 0.486266 0.327867 0.660284
279 1 0.582707 0.319158 0.589897
284 1 0.663198 0.410739 0.593914
350 1 0.586202 0.415851 0.66876
353 1 0.661928 0.32823 0.661183
354 1 0.738655 0.42326 0.685764
383 1 0.907446 0.00152049 0.931929
655 1 0.257526 0.498144 0.590969
282 1 0.757396 0.422796 0.511422
371 1 0.408105 -0.00369086 0.915017
288 1 0.833791 0.429008 0.580731
42 1 0.746212 0.25035 1.00517
291 1 0.0646676 0.00497981 0.755564
423 1 0.589562 0.332238 0.917458
290 1 0.065291 0.0807975 0.666419
296 1 0.157427 0.0924334 0.747557
315 1 0.0745877 0.171714 0.749635
422 1 0.601605 0.410275 0.853931
319 1 0.248597 0.163798 0.754335
393 1 0.3372 0.167639 0.830067
300 1 0.337684 0.07924 0.751731
298 1 0.401744 0.0718436 0.667979
304 1 0.494912 0.0846026 0.748847
370 1 0.414434 0.0879081 0.831924
425 1 0.656668 0.305909 0.824508
302 1 0.576754 0.0843402 0.662598
397 1 0.489854 0.165935 0.839998
374 1 0.561105 0.0795128 0.836763
308 1 0.676696 0.0756938 0.752681
306 1 0.759929 0.0633597 0.667386
378 1 0.751092 0.0894344 0.844218
365 1 0.166059 0.0252044 0.821476
424 1 0.512617 0.413765 0.91288
53 1 0.168679 0.332969 0.986966
312 1 0.849317 0.0937205 0.73871
292 1 0.994008 0.0932098 0.759447
310 1 0.9227 0.0823502 0.66039
314 1 0.0683664 0.262313 0.665502
337 1 0.987109 0.330718 0.681634
339 1 0.0766966 0.325611 0.771744
320 1 0.166959 0.241804 0.744715
324 1 0.327494 0.264708 0.766566
417 1 0.337763 0.333908 0.844268
390 1 0.236818 0.248178 0.832389
345 1 0.329159 0.336962 0.678279
323 1 0.410336 0.175286 0.742391
394 1 0.421694 0.242156 0.838334
328 1 0.509316 0.236217 0.74939
347 1 0.413915 0.332781 0.744183
327 1 0.584951 0.145441 0.751104
398 1 0.562951 0.253316 0.847109
332 1 0.636616 0.241664 0.734823
401 1 0.644967 0.168561 0.834107
331 1 0.742866 0.145859 0.734932
330 1 0.73958 0.238862 0.657815
336 1 0.827881 0.242949 0.733098
357 1 0.81631 0.343478 0.651456
313 1 0.985073 0.176265 0.670287
335 1 0.915088 0.175381 0.762042
316 1 0.993845 0.258078 0.765196
359 1 0.890372 0.341238 0.741398
338 1 0.0836909 0.417316 0.664991
410 1 0.073086 0.424755 0.846235
344 1 0.158471 0.398699 0.756599
340 1 1.00746 0.418198 0.742721
420 1 0.321937 0.410854 0.933297
367 1 0.246549 0.00378048 0.920397
342 1 0.252905 0.407123 0.675267
66 1 0.750255 0.414974 1.00045
343 1 0.247382 0.330399 0.755662
414 1 0.246018 0.409107 0.823228
348 1 0.339707 0.418356 0.746501
346 1 0.414752 0.414829 0.65799
418 1 0.42279 0.421322 0.841476
421 1 0.486858 0.340013 0.835174
411 1 0.0817281 0.336521 0.919124
239 1 0.933572 -0.0139533 0.579806
351 1 0.569118 0.333059 0.728111
352 1 0.48792 0.4015 0.75081
725 1 0.178061 0.481512 0.665802
426 1 0.742972 0.422363 0.821907
355 1 0.739499 0.31502 0.741899
356 1 0.657568 0.403906 0.752585
430 1 0.910335 0.410037 0.825881
429 1 0.818435 0.324007 0.820031
360 1 0.833176 0.436409 0.752862
358 1 0.915092 0.435902 0.680476
388 1 0.989398 0.243933 0.924682
362 1 0.0708764 0.0990285 0.834908
368 1 0.158695 0.0968274 0.927474
387 1 0.0680229 0.167679 0.923112
805 1 0.490663 0.512082 0.835961
363 1 0.0947714 0.0102847 0.932659
416 1 0.1716 0.416566 0.90322
366 1 0.255708 0.0929979 0.837681
372 1 0.334831 0.0865183 0.906515
391 1 0.247643 0.177122 0.914053
6 1 0.246798 0.0904297 1.00151
395 1 0.408781 0.168212 0.90845
369 1 0.328418 -0.00252802 0.844125
405 1 0.818442 0.163549 0.822506
376 1 0.489467 0.0789788 0.915603
235 1 0.75579 0.00164735 0.579995
380 1 0.673018 0.0938481 0.922703
403 1 0.757673 0.175475 0.930764
406 1 0.908832 0.25883 0.831839
364 1 1.00219 0.0795451 0.923093
384 1 0.845832 0.0931623 0.915499
382 1 0.916017 0.0854574 0.827186
386 1 0.0759472 0.25377 0.854415
389 1 0.150096 0.159858 0.831801
413 1 0.166455 0.321773 0.839427
392 1 0.151997 0.243133 0.925633
415 1 0.252632 0.332125 0.908059
396 1 0.329269 0.252373 0.921579
653 1 0.179159 0.493932 0.502238
815 1 0.917554 0.502417 0.892892
419 1 0.411834 0.327413 0.92749
311 1 0.915708 0.00683611 0.754554
399 1 0.581856 0.155305 0.918947
400 1 0.490925 0.252939 0.92719
721 1 0.00178297 0.507491 0.669899
797 1 0.168852 0.510009 0.835557
402 1 0.735862 0.228649 0.827287
408 1 0.818314 0.254808 0.908532
404 1 0.667369 0.244394 0.919129
407 1 0.914376 0.175251 0.906174
385 1 1.00413 0.178381 0.840809
431 1 0.903684 0.34543 0.910661
807 1 0.576489 0.503546 0.90827
727 1 0.245852 0.491935 0.760406
735 1 0.568029 0.480572 0.75277
278 1 0.605441 0.41603 0.491645
70 1 0.919797 0.415677 1.00454
803 1 0.405088 0.499579 0.927241
295 1 0.254421 0.00418459 0.761379
219 1 0.0927989 -0.00286716 0.59067
659 1 0.412998 0.50832 0.581661
809 1 0.666146 0.500699 0.826535
373 1 0.493935 0.00130984 0.831523
811 1 0.752688 0.50776 0.90439
801 1 0.336814 0.494522 0.835194
38 1 0.592625 0.240882 1.00463
649 1 1.01006 0.496775 0.50248
270 1 0.24164 0.406804 0.511167
261 1 0.831949 0.171088 0.506478
18 1 0.746677 0.0917365 1.01817
445 1 0.495648 0.4917 1.01924
29 1 0.161643 0.169991 1.00591
286 1 0.920707 0.430862 0.513714
285 1 0.832117 0.342777 0.513729
58 1 0.423662 0.406956 0.999543
274 1 0.404234 0.411296 0.494685
277 1 0.500621 0.332143 0.508811
49 1 -0.00299145 0.337314 0.998249
50 1 0.0775239 0.422177 0.985478
226 1 0.419137 0.0796774 0.50112
26 1 0.0889042 0.249966 1.00446
253 1 0.489449 0.152905 0.486814
262 1 0.913505 0.266882 0.497887
37 1 0.500394 0.161924 1.01169
5 1 0.167677 -0.00686866 0.995446
459 1 0.0827559 0.662144 0.0601762
436 1 0.00714601 0.568801 0.0697083
529 1 1.00241 0.665319 0.163783
628 1 -0.00287225 0.914352 0.417281
440 1 0.173257 0.591921 0.0817678
510 1 0.260302 0.571659 0.161392
444 1 0.341298 0.584717 0.0774084
463 1 0.261574 0.674077 0.0861915
145 1 -0.00061574 1.00358 0.3481
91 1 0.746778 1.00985 0.233773
467 1 0.427491 0.666588 0.0639504
157 1 0.490079 0.991836 0.335756
514 1 0.418342 0.584707 0.154988
455 1 0.911255 0.492614 0.0761111
448 1 0.503252 0.580031 0.0745702
518 1 0.576545 0.588285 0.162322
452 1 0.667898 0.577758 0.0620116
646 1 0.932964 0.907319 0.316825
21 1 0.815899 1.00339 -0.00876402
705 1 0.349058 0.802721 0.506641
519 1 0.587173 0.492988 0.252594
475 1 0.757328 0.667662 0.081998
442 1 0.415456 0.576543 0.0107531
583 1 0.249585 0.509026 0.412803
456 1 0.845534 0.582866 0.0605696
579 1 0.0758427 0.510222 0.410423
87 1 0.573529 1.00271 0.243218
648 1 0.83207 0.908167 0.422779
464 1 0.146927 0.749116 0.0893991
460 1 0.00924747 0.750429 0.0739342
451 1 0.762154 0.492707 0.0641245
537 1 0.342926 0.666045 0.168908
468 1 0.346854 0.748736 0.0804003
521 1 0.673653 0.499658 0.16183
471 1 0.57579 0.665053 0.0886227
472 1 0.499691 0.74094 0.0854217
511 1 0.249293 0.510516 0.251171
505 1 0.0117578 0.510549 0.164091
476 1 0.667276 0.758269 0.087051
499 1 0.751223 0.834778 0.0915828
165 1 0.840329 0.986289 0.33897
549 1 0.837856 0.654856 0.166446
480 1 0.836369 0.758891 0.0808538
479 1 0.914582 0.682339 0.0632594
503 1 0.924936 0.850886 0.0763033
550 1 0.916747 0.74805 0.147716
237 1 0.834353 0.986006 0.498172
483 1 0.0806618 0.827573 0.0732619
484 1 0.00612949 0.919233 0.0882265
488 1 0.170589 0.909853 0.0840246
553 1 0.0128475 0.834748 0.152216
593 1 0.680565 0.501122 0.323077
487 1 0.263095 0.834596 0.0828715
492 1 0.32469 0.920373 0.087591
645 1 0.834298 0.839684 0.321998
491 1 0.418983 0.824583 0.0857987
643 1 0.748774 0.823895 0.418147
496 1 0.494249 0.903498 0.0665006
569 1 0.657034 0.836319 0.169927
495 1 0.584599 0.830478 0.0842778
151 1 0.246201 0.999612 0.435424
466 1 0.423833 0.760431 -0.00936897
149 1 0.1795 0.979228 0.342663
500 1 0.65649 0.918299 0.0802751
504 1 0.83156 0.926627 0.0839984
642 1 0.743456 0.907305 0.334595
573 1 0.850889 0.835663 0.172693
9 1 0.325428 1.01297 -0.00404291
7 1 0.253264 1.00071 0.0901538
506 1 0.0840761 0.597202 0.156038
508 1 0.984037 0.580188 0.251067
531 1 0.0945605 0.672794 0.24432
525 1 0.840045 0.50628 0.161809
685 1 0.49239 0.658318 0.491139
512 1 0.162506 0.589692 0.237267
516 1 0.34019 0.588358 0.248218
582 1 0.243417 0.593214 0.33492
644 1 0.67718 0.901338 0.424157
599 1 0.930033 0.496337 0.423485
520 1 0.503963 0.588048 0.241306
73 1 0.0186304 1.00592 0.177925
543 1 0.594731 0.660737 0.272844
524 1 0.666769 0.584434 0.223599
523 1 0.750816 0.492208 0.250505
522 1 0.756296 0.585581 0.146913
595 1 0.745038 0.509221 0.404842
528 1 0.847851 0.572605 0.252272
545 1 0.670856 0.671994 0.155883
526 1 0.921793 0.58068 0.167007
598 1 0.918219 0.571435 0.343954
657 1 0.342174 0.497992 0.498441
530 1 0.0812867 0.742241 0.166846
533 1 0.168528 0.673677 0.162542
557 1 0.172281 0.831101 0.175674
605 1 0.166851 0.664713 0.335515
532 1 1.00365 0.733834 0.251575
602 1 0.0778062 0.746938 0.339448
534 1 0.258427 0.754837 0.165386
535 1 0.25281 0.669209 0.235227
536 1 0.173265 0.749804 0.252041
540 1 0.336563 0.746778 0.248529
633 1 0.337817 0.839194 0.327603
606 1 0.242508 0.744484 0.333486
541 1 0.489777 0.66453 0.176062
538 1 0.417674 0.750088 0.174159
539 1 0.411249 0.663655 0.255017
544 1 0.505781 0.749451 0.245065
542 1 0.576986 0.744233 0.159379
567 1 0.576354 0.831337 0.245512
614 1 0.588118 0.75882 0.329205
546 1 0.75015 0.744421 0.159677
547 1 0.748605 0.670054 0.245772
548 1 0.659567 0.751042 0.241678
571 1 0.735029 0.839536 0.239455
621 1 0.850677 0.663001 0.324623
551 1 0.918703 0.671322 0.237131
552 1 0.840348 0.753706 0.257073
622 1 0.922861 0.755583 0.326782
555 1 0.0856485 0.806681 0.248715
554 1 0.0793842 0.924728 0.167479
638 1 0.586495 0.938761 0.333042
556 1 0.00995046 0.916182 0.243606
626 1 0.0804255 0.905374 0.334709
625 1 0.000768826 0.822862 0.319592
559 1 0.258581 0.833146 0.242685
558 1 0.25227 0.913076 0.168249
560 1 0.163593 0.90577 0.257175
561 1 0.344234 0.832703 0.165308
564 1 0.342737 0.914137 0.243009
690 1 0.752799 0.744682 0.505795
565 1 0.511616 0.830678 0.164099
615 1 0.582173 0.66509 0.396897
624 1 0.824448 0.75577 0.411492
563 1 0.414418 0.831212 0.247784
562 1 0.431637 0.920366 0.160136
568 1 0.504307 0.910048 0.252114
641 1 0.666371 0.827077 0.339285
566 1 0.575928 0.918632 0.151169
572 1 0.650836 0.920262 0.235628
635 1 0.41014 0.82696 0.410606
618 1 0.748839 0.752187 0.329395
636 1 0.342369 0.915656 0.42193
570 1 0.739622 0.91522 0.159687
617 1 0.679388 0.668321 0.342795
576 1 0.823492 0.919094 0.251682
575 1 0.926653 0.806186 0.234045
574 1 0.927785 0.916325 0.172205
498 1 0.745649 0.925617 0.0110906
578 1 0.0875463 0.586203 0.32403
603 1 0.0832475 0.671476 0.421637
623 1 0.921902 0.657504 0.40108
640 1 0.497472 0.913538 0.418428
630 1 0.248326 0.908714 0.318641
584 1 0.168204 0.582885 0.425133
607 1 0.250734 0.676992 0.418837
634 1 0.42045 0.912822 0.333986
620 1 0.666343 0.749165 0.423714
586 1 0.417489 0.576189 0.325169
588 1 0.338784 0.587046 0.409368
592 1 0.504619 0.585186 0.413692
647 1 0.921907 0.835375 0.409984
590 1 0.568782 0.576839 0.329668
637 1 0.498754 0.823502 0.331785
627 1 0.0636737 0.83689 0.410904
632 1 0.167477 0.911732 0.422425
594 1 0.753449 0.58838 0.326308
596 1 0.666592 0.582657 0.416057
619 1 0.762576 0.667044 0.40753
601 1 -0.00815162 0.648002 0.32171
580 1 -0.00286221 0.585488 0.413166
600 1 0.826865 0.582952 0.406607
639 1 0.591687 0.83371 0.427559
604 1 -0.00685086 0.747525 0.4099
608 1 0.178556 0.747397 0.41398
612 1 0.320386 0.755464 0.415034
631 1 0.239061 0.834807 0.40866
629 1 0.161327 0.82099 0.327549
609 1 0.323305 0.671084 0.335648
613 1 0.487778 0.674867 0.339538
616 1 0.504014 0.759667 0.419823
610 1 0.415227 0.750266 0.327948
611 1 0.400601 0.67515 0.409628
489 1 0.331901 0.827068 -0.0100436
693 1 0.841351 0.670366 0.499724
167 1 0.920472 0.995592 0.407323
589 1 0.500133 0.477415 0.338387
435 1 0.0919077 0.506529 0.0753343
15 1 0.57537 1.00598 0.0827506
714 1 0.751734 0.921224 0.51448
513 1 0.344061 0.494814 0.167893
147 1 0.0866052 1.01429 0.403845
447 1 0.584713 0.505527 0.0750249
461 1 0.17916 0.664436 -0.000826606
490 1 0.420687 0.917056 -0.00745917
23 1 0.934281 1.00066 0.0895879
697 1 1.01231 0.828475 0.513316
666 1 0.75539 0.594974 0.497172
702 1 0.263715 0.895124 0.491868
486 1 0.252869 0.909925 0.0127041
665 1 0.68539 0.496601 0.50131
698 1 0.0853579 0.916464 0.502672
701 1 0.156866 0.810788 0.500494
670 1 0.910124 0.596227 0.483607
469 1 0.507034 0.673308 -0.000438116
434 1 0.101867 0.579737 -0.00256785
650 1 0.0939336 0.589501 0.503953
706 1 0.427908 0.909023 0.497866
462 1 0.242648 0.751104 -0.00349411
669 1 0.834538 0.507423 0.4933
501 1 0.820988 0.849194 0.00398094
497 1 0.685044 0.833189 0.00603501
225 1 0.344052 0.998359 0.488593
438 1 0.253272 0.574024 0.00508552
465 1 0.334701 0.660813 -0.00311275
217 1 -0.0118628 1.00745 0.487039
675 1 0.0910411 0.65853 0.592369
652 1 0.0252606 0.577249 0.590061
674 1 0.0730949 0.73216 0.494621
473 1 0.663602 0.668572 1.00372
844 1 1.01907 0.924028 0.914606
656 1 0.169873 0.579283 0.588893
660 1 0.326607 0.580722 0.602389
679 1 0.254949 0.666925 0.593662
293 1 0.180923 1.00208 0.656862
726 1 0.250498 0.58334 0.676973
664 1 0.506649 0.567553 0.584525
683 1 0.418035 0.679123 0.575595
309 1 0.851866 1.0017 0.664813
795 1 0.0926721 0.503111 0.909085
723 1 0.089141 0.496407 0.751602
289 1 0.998494 0.994974 0.665959
687 1 0.584807 0.66291 0.577349
734 1 0.590151 0.568173 0.672688
761 1 0.676048 0.669049 0.676624
793 1 0.00704279 0.501929 0.817886
671 1 0.917924 0.508297 0.586702
864 1 0.826231 0.911796 0.907472
668 1 0.691282 0.582448 0.576996
738 1 0.740496 0.596665 0.667331
672 1 0.836492 0.585703 0.581712
691 1 0.759856 0.668815 0.572966
742 1 0.92677 0.593978 0.651255
695 1 0.919945 0.679751 0.580009
710 1 0.58645 0.921079 0.510785
765 1 0.824577 0.664835 0.668485
677 1 0.168398 0.671819 0.506302
718 1 0.917448 0.907985 0.495844
681 1 0.336611 0.674149 0.505627
680 1 0.158607 0.749612 0.59632
676 1 0.0089431 0.749094 0.58496
482 1 0.0880924 0.92141 0.999758
658 1 0.417017 0.57521 0.489687
749 1 0.171972 0.666637 0.685187
684 1 0.335474 0.748217 0.596515
379 1 0.751329 1.00628 0.908096
457 1 -0.00225001 0.667221 1.00132
688 1 0.517137 0.752128 0.591358
758 1 0.591773 0.749764 0.680648
686 1 0.586609 0.750294 0.498399
692 1 0.660016 0.74238 0.583633
715 1 0.752218 0.850751 0.586628
696 1 0.838573 0.760868 0.592605
762 1 0.748087 0.750691 0.64969
766 1 0.932907 0.756202 0.668031
301 1 0.51468 0.998901 0.671437
361 1 0.993601 1.00542 0.827158
481 1 0.0163504 0.832706 0.993742
699 1 0.0863588 0.830711 0.576445
662 1 0.587038 0.574134 0.505514
860 1 0.672068 0.931239 0.923762
703 1 0.235482 0.833763 0.576124
470 1 0.589166 0.751082 1.01409
704 1 0.159472 0.909742 0.583824
708 1 0.333093 0.886908 0.57559
667 1 0.754328 0.496293 0.60301
853 1 0.495254 0.848029 0.838941
707 1 0.417927 0.825761 0.599311
778 1 0.421386 0.912275 0.680248
711 1 0.593284 0.831876 0.582324
712 1 0.49545 0.910246 0.589645
781 1 0.514162 0.825234 0.663509
782 1 0.596215 0.910265 0.665392
739 1 0.757363 0.509218 0.756346
661 1 0.517621 0.484372 0.497313
716 1 0.66357 0.92461 0.591845
789 1 0.842018 0.835352 0.686038
231 1 0.571123 1.02328 0.574697
719 1 0.918394 0.833211 0.591883
700 1 0.00845795 0.920665 0.568424
720 1 0.844263 0.914956 0.601343
790 1 0.921813 0.917722 0.671723
654 1 0.248835 0.583774 0.49981
229 1 0.485697 0.995938 0.514262
743 1 0.928938 0.516151 0.750998
722 1 0.0997714 0.589632 0.684392
449 1 0.661182 0.496745 0.989885
728 1 0.164303 0.5845 0.761983
732 1 0.324612 0.571216 0.755223
838 1 0.915454 0.769632 0.830195
730 1 0.42626 0.598238 0.660241
840 1 0.835287 0.762185 0.93104
736 1 0.50554 0.587774 0.746572
759 1 0.573698 0.681869 0.76563
740 1 0.639332 0.581971 0.764183
806 1 0.582223 0.591693 0.845199
833 1 0.654789 0.680102 0.83249
744 1 0.844433 0.60398 0.761808
763 1 0.748228 0.665222 0.765352
837 1 0.837653 0.691278 0.836341
810 1 0.747043 0.583942 0.832211
724 1 0.00639906 0.594695 0.737001
767 1 0.929222 0.663824 0.743751
835 1 0.746099 0.680549 0.909152
746 1 0.0783744 0.757794 0.675007
747 1 0.0845284 0.667966 0.762089
752 1 0.161827 0.757801 0.756211
750 1 0.249224 0.752503 0.669069
753 1 0.330878 0.669697 0.665522
751 1 0.25578 0.661368 0.757933
756 1 0.337725 0.738656 0.749476
755 1 0.413067 0.65421 0.745314
754 1 0.41965 0.734429 0.675509
779 1 0.431493 0.834167 0.749173
757 1 0.519439 0.655719 0.670495
760 1 0.495789 0.749392 0.753584
777 1 0.350028 0.817055 0.686572
826 1 0.428267 0.755778 0.83759
764 1 0.676543 0.741851 0.75412
830 1 0.56996 0.75647 0.851516
829 1 0.483224 0.662257 0.840901
861 1 0.826547 0.835773 0.819046
785 1 0.661692 0.825391 0.670331
834 1 0.745155 0.75526 0.830055
787 1 0.747555 0.811829 0.737024
745 1 0.0023139 0.672033 0.660747
748 1 0.00593677 0.763897 0.761741
769 1 1.013 0.844016 0.664357
768 1 0.840429 0.755236 0.743749
852 1 0.321745 0.921688 0.925664
770 1 0.0933018 0.917351 0.670746
856 1 0.516088 0.921818 0.905033
845 1 0.174462 0.838463 0.818389
773 1 0.170157 0.834996 0.681929
771 1 0.0815983 0.846254 0.753873
776 1 0.17896 0.918874 0.743821
772 1 -0.00424422 0.923592 0.759953
859 1 0.75694 0.82913 0.911391
774 1 0.257213 0.911315 0.666097
775 1 0.260689 0.82591 0.755866
780 1 0.334063 0.91594 0.749619
850 1 0.407101 0.923685 0.835071
784 1 0.508731 0.923298 0.742166
848 1 0.157341 0.918953 0.915237
854 1 0.59254 0.921833 0.822182
783 1 0.567239 0.830709 0.757588
788 1 0.669262 0.912356 0.729878
846 1 0.259471 0.923568 0.830756
858 1 0.745092 0.910326 0.812336
786 1 0.756332 0.923388 0.671208
792 1 0.837612 0.931823 0.746188
305 1 0.67503 0.999339 0.660355
862 1 0.909882 0.929411 0.836249
843 1 0.0951636 0.830183 0.905136
791 1 0.93049 0.839919 0.748178
841 1 0.0171121 0.847 0.83975
794 1 0.0848198 0.578559 0.829505
796 1 0.0133641 0.587184 0.913822
817 1 0.00236735 0.674745 0.833236
842 1 0.106307 0.944074 0.828989
800 1 0.175083 0.586996 0.91414
798 1 0.253616 0.58422 0.842735
821 1 0.170182 0.671396 0.835882
741 1 0.827108 0.522196 0.683905
804 1 0.33533 0.582546 0.923213
808 1 0.495886 0.566828 0.930738
802 1 0.407212 0.586227 0.840503
857 1 0.660042 0.834547 0.828741
836 1 0.657722 0.76043 0.916173
863 1 0.920805 0.852305 0.911426
828 1 0.337578 0.752163 0.907583
831 1 0.573607 0.667474 0.917045
223 1 0.256205 0.978375 0.56147
812 1 0.66603 0.600344 0.906923
827 1 0.421095 0.673723 0.924113
839 1 0.918128 0.687158 0.903599
816 1 0.836936 0.595818 0.898022
814 1 0.922834 0.589074 0.832257
832 1 0.494253 0.75115 0.919444
855 1 0.589246 0.848417 0.918919
820 1 -0.00076451 0.766853 0.910715
819 1 0.0940822 0.670315 0.907843
818 1 0.0812174 0.748714 0.833411
299 1 0.420871 1.00189 0.74002
822 1 0.25432 0.749777 0.83634
823 1 0.255557 0.670943 0.924086
847 1 0.244828 0.844292 0.913844
824 1 0.176478 0.761335 0.916542
825 1 0.340523 0.668869 0.83924
849 1 0.343771 0.829861 0.831851
851 1 0.417068 0.839092 0.913879
477 1 0.825694 0.67102 0.978037
663 1 0.600555 0.503852 0.591908
297 1 0.31128 1.00512 0.665029
227 1 0.404306 0.991426 0.594272
673 1 0.998788 0.656499 0.503516
682 1 0.42999 0.748917 0.503074
454 1 0.924505 0.584731 0.992969
694 1 0.91711 0.748088 0.494357
709 1 0.503098 0.827464 0.512015
494 1 0.582686 0.919261 1.00258
717 1 0.822368 0.833262 0.503226
485 1 0.167981 0.838819 0.995195
458 1 0.0888481 0.755171 0.98606
474 1 0.755673 0.742273 0.998502
713 1 0.666432 0.841151 0.509504
678 1 0.251559 0.742915 0.514289
689 1 0.66572 0.663053 0.4974
502 1 0.921092 0.917117 0.987885
493 1 0.510521 0.823603 0.994411
450 1 0.746964 0.588811 0.982941
446 1 0.588679 0.579159 0.989667
478 1 0.927854 0.761463 0.995476
