ITEM: TIMESTEP
19000
ITEM: NUMBER OF ATOMS
864
ITEM: BOX BOUNDS pp pp pp
-3.8999120879490423e+00 3.5459912087880333e+01
-3.8999120879490423e+00 3.5459912087880333e+01
-3.8999120879490423e+00 3.5459912087880333e+01
ITEM: ATOMS id type xs ys zs
286 1 0.795091 0.44169 0.44805
455 1 3.82183e-05 0.193594 0.0273683
301 1 0.778156 0.201577 0.219139
227 1 0.17588 0.243155 0.480087
576 1 0.0148046 0.0510137 0.0687613
417 1 0.314556 0.0648073 0.374418
269 1 0.27744 0.490762 0.233231
596 1 0.741253 0.133751 0.384469
232 1 0.933975 0.306887 0.17481
163 1 0.733857 0.44755 0.0632929
402 1 0.544641 0.110917 0.377482
612 1 0.752436 0.430182 0.367097
337 1 0.831525 0.364529 0.147723
441 1 0.166886 0.0692808 0.450363
195 1 0.0388477 0.337198 0.474988
114 1 0.536103 0.228627 0.136381
91 1 0.229944 0.415053 0.0343289
838 1 0.0588708 0.477911 0.196641
781 1 0.740217 0.000138808 0.348973
535 1 0.340341 0.366354 0.337856
790 1 0.603221 0.13445 0.236714
86 1 0.256683 0.347856 0.295769
324 1 0.247936 0.205516 0.0226587
680 1 0.0237616 0.130658 0.456912
713 1 0.106858 0.250904 0.0478004
177 1 0.841253 0.16627 0.376815
65 1 0.46196 0.4871 0.0642594
295 1 0.850112 0.257458 0.357511
4 1 0.789443 0.317281 0.213138
617 1 0.299662 0.272117 0.350992
515 1 0.471236 0.423767 0.420309
670 1 0.803145 0.327892 0.296835
334 1 0.928247 0.316602 0.440343
735 1 0.720001 0.375442 0.484252
182 1 0.389103 0.232037 0.377547
31 1 0.937821 0.0397252 0.342277
857 1 0.253782 0.0938972 0.457013
142 1 0.925028 0.133692 0.386288
196 1 0.994527 0.253127 0.425073
49 1 0.70442 0.0918104 0.184814
821 1 0.390611 0.349404 0.0874344
252 1 0.523527 0.00162401 0.191525
105 1 0.205928 0.278349 0.406646
167 1 0.0189294 0.0368361 0.243144
811 1 0.195928 0.0427446 0.23182
726 1 0.962881 0.429482 0.47528
760 1 0.591545 0.233299 0.430076
580 1 0.343098 0.159858 0.442967
338 1 0.157649 0.379697 0.215063
11 1 0.842461 0.070425 0.3321
132 1 0.739013 0.225636 0.103175
158 1 0.948029 0.446809 0.333476
747 1 0.473104 0.380582 0.0430494
326 1 0.823979 0.410501 0.286914
601 1 0.0987744 0.0191768 0.201873
333 1 0.575308 0.0145893 0.281841
513 1 0.414917 0.190895 0.475025
572 1 0.439876 0.41 0.137767
1 1 0.471241 0.127756 0.422826
255 1 0.648794 0.355505 0.172413
78 1 0.317874 0.33788 0.438875
299 1 0.872797 0.408167 0.506065
411 1 0.102891 0.0962287 0.254441
76 1 0.0421456 0.396689 0.173515
801 1 0.410376 0.152095 0.0855367
481 1 0.183621 0.438948 0.341821
133 1 0.857532 0.260125 0.250623
165 1 0.139737 0.016636 0.113004
669 1 0.135685 0.423484 0.0191673
445 1 0.612066 0.0486776 0.148563
502 1 0.178093 0.171987 0.067078
616 1 0.0819677 0.150795 0.368448
678 1 0.340555 0.0551084 0.46764
37 1 0.400713 0.13926 0.329978
469 1 0.164422 0.0290069 0.340868
775 1 0.443771 0.376073 0.502166
364 1 0.00331841 0.276984 0.0819385
851 1 0.459329 0.172442 0.189079
489 1 0.891374 0.289049 0.0244094
330 1 0.842333 0.0957879 0.0667354
415 1 0.507963 0.0477247 0.0188177
164 1 0.17892 0.356352 0.351713
28 1 0.0327623 0.165776 0.201401
607 1 0.40302 0.293184 0.470107
235 1 0.538777 0.278435 0.352652
84 1 0.723073 0.319292 0.0584764
42 1 0.831066 0.367346 0.373348
730 1 0.151642 0.458406 0.483572
575 1 0.731385 0.29151 0.327653
468 1 0.881422 0.433601 0.221041
296 1 0.381084 0.452395 0.401593
847 1 0.206574 0.270321 0.112152
516 1 0.136451 0.475517 0.276592
88 1 0.975033 0.13637 0.098076
153 1 0.824364 0.128599 0.27536
706 1 0.776009 0.211861 0.33234
81 1 0.937031 0.166738 0.212319
30 1 0.830758 0.357127 0.0294843
625 1 0.577628 0.414915 0.202097
819 1 0.187423 0.122843 0.385392
783 1 0.145563 0.337761 0.44095
717 1 0.247523 0.07469 0.304344
136 1 0.52824 0.369995 0.110587
796 1 0.665855 0.0148659 0.238441
816 1 0.344218 0.284763 0.039997
813 1 0.63281 0.491886 0.233594
340 1 0.0656163 0.139948 0.104691
322 1 0.602387 0.352764 0.00473404
155 1 0.729681 0.436989 0.168102
185 1 0.821718 0.195953 0.0646411
40 1 0.803963 0.228656 0.452645
19 1 0.510737 0.134941 0.290372
672 1 0.634308 0.46881 0.14888
24 1 0.930725 0.486419 0.00852024
773 1 0.994375 0.502936 0.0710938
279 1 0.441775 0.247205 0.0949636
200 1 0.090015 0.10855 0.0277523
483 1 0.283891 0.248002 0.484788
104 1 0.160203 0.206209 0.329236
794 1 0.573792 0.151409 0.468155
654 1 0.945927 0.474911 0.146264
92 1 0.432343 0.310165 0.00788129
691 1 0.0478186 0.429712 0.452687
384 1 0.429761 0.390837 0.234284
272 1 0.98364 0.120138 0.270309
686 1 0.336995 0.441159 0.180281
693 1 0.0220916 0.305597 0.238134
732 1 0.834908 0.325129 0.452275
319 1 0.100412 0.245109 0.408284
660 1 0.444585 0.0658152 0.0834425
212 1 0.743365 0.132024 0.0054705
13 1 0.447385 0.495519 0.183843
676 1 0.764449 0.29986 0.406591
504 1 0.948286 0.229814 0.124737
452 1 0.110187 0.305392 0.145782
183 1 0.743465 0.385262 0.255432
205 1 0.835347 0.490282 0.39198
721 1 0.251851 0.192471 0.431962
624 1 0.293073 0.0232416 0.231767
53 1 0.804987 0.0647588 0.193875
537 1 0.30568 0.0509683 0.0214522
640 1 0.842965 0.118639 0.454286
399 1 0.195038 0.376522 0.11904
359 1 0.262379 0.365853 0.20996
141 1 0.103818 0.344441 0.0451951
311 1 0.971021 0.234172 0.260663
74 1 0.419607 0.333555 0.376881
71 1 0.345654 0.325546 0.245287
692 1 0.540532 0.354881 0.416015
599 1 0.128801 0.432354 0.140975
245 1 0.264418 0.451171 0.467202
495 1 0.458269 0.223241 0.327373
831 1 0.054536 0.419938 0.33834
540 1 0.669194 0.373527 0.393384
724 1 0.507691 0.243791 0.448908
769 1 0.295669 0.322996 0.103549
406 1 0.0737481 0.331241 0.37805
530 1 0.213537 0.27813 0.297511
438 1 0.711874 0.285474 0.22556
671 1 0.54869 0.492942 0.282559
524 1 0.649746 0.299563 0.318265
25 1 0.898212 0.210468 0.430707
170 1 0.365258 0.468637 0.30404
544 1 0.588027 0.456793 0.356534
410 1 0.251854 0.450028 0.152685
622 1 0.592956 0.456974 0.450383
698 1 0.897478 0.0214314 0.190868
131 1 0.289253 0.44606 0.329514
101 1 0.902955 0.196063 0.324996
263 1 0.630824 0.175772 0.138072
126 1 0.268988 0.172131 0.341619
608 1 0.724147 0.500557 0.280741
112 1 0.537672 0.482254 0.0214294
271 1 0.246804 0.375311 0.400003
17 1 0.655646 0.203066 0.0502197
9 1 0.586744 0.298729 0.250521
18 1 0.344438 0.084695 0.290438
586 1 0.914619 0.0456267 0.0815308
795 1 0.752858 0.00229989 0.0360184
59 1 0.648747 0.431648 0.0293729
456 1 0.66287 0.0500419 0.444945
401 1 0.646392 0.0609686 0.0748048
653 1 0.57174 0.133154 0.0336622
204 1 0.0122264 0.413876 0.0423299
3 1 0.896293 0.345693 0.300375
835 1 0.0945719 0.20791 0.24559
636 1 0.965665 0.0824187 0.183703
546 1 0.186587 0.469608 0.210122
34 1 0.533366 0.104804 0.150263
841 1 0.285724 0.25803 0.216343
247 1 0.211513 0.0663858 0.119816
99 1 0.44249 0.0451794 0.414896
397 1 0.96704 0.367247 0.12081
160 1 0.594175 0.261728 0.0736603
639 1 0.423915 0.045757 0.265474
666 1 0.343063 0.234423 0.279025
75 1 0.384113 0.0584236 0.147601
276 1 0.102939 0.478716 0.387202
440 1 0.0765956 0.487435 0.0425124
407 1 0.0536479 0.0622403 0.317367
275 1 0.509457 0.463476 0.1395
711 1 0.826533 0.288737 0.0968755
100 1 0.725033 0.0971763 0.287422
651 1 0.882066 0.487405 0.315388
695 1 0.867702 0.144685 0.145092
845 1 0.0400876 0.220111 0.497873
109 1 0.48021 0.201143 0.0292837
429 1 0.642539 0.219567 0.495876
644 1 0.417377 0.0985947 0.0143801
864 1 0.368093 0.197276 0.0161593
804 1 0.334983 0.372801 0.00941821
421 1 0.527233 0.290557 0.0117907
341 1 0.176655 0.293529 -0.00137815
454 1 0.702945 0.330927 0.753744
547 1 0.719775 0.459824 0.508865
765 1 0.0523381 0.211524 0.601611
285 1 0.613241 0.233891 0.759153
451 1 0.401871 0.11298 0.543863
321 1 0.241631 0.170304 0.644095
127 1 0.304116 0.0236434 0.71174
106 1 0.961161 0.185142 0.94137
233 1 0.822117 0.315237 0.5409
184 1 0.0917198 0.375431 0.550562
117 1 0.365183 0.251537 0.54779
300 1 0.88889 0.243063 0.645286
729 1 0.43283 0.365965 0.827534
419 1 0.321606 0.293623 0.858592
292 1 0.22604 0.0254221 0.612945
825 1 0.269618 0.333275 0.576113
853 1 0.435037 0.182527 0.608317
549 1 0.916927 0.411224 0.616337
278 1 0.280524 0.0935987 0.661827
439 1 0.809148 0.278512 0.681029
690 1 0.253049 0.316898 0.755971
432 1 0.649732 0.410983 0.529512
280 1 0.755546 0.453974 0.832163
302 1 0.958257 0.263607 0.520918
201 1 0.961554 0.0796734 0.689321
752 1 0.0985855 0.218967 0.854425
348 1 0.647496 0.112574 0.526657
712 1 0.84359 0.360352 0.624292
10 1 0.7808 0.136782 0.917988
658 1 0.473131 0.279721 0.638081
314 1 0.632067 0.0610234 0.921189
358 1 0.243953 0.123867 0.809641
850 1 0.0648168 0.444614 0.939377
289 1 0.110888 0.451696 0.812044
602 1 0.578023 0.227446 0.999188
807 1 0.615791 0.176797 0.897596
832 1 0.0989679 0.190605 0.700586
605 1 0.741872 0.278599 0.875495
428 1 0.451374 0.0252059 0.513708
814 1 0.129113 0.301652 0.597109
450 1 0.0583702 0.285748 0.912531
447 1 0.188815 0.207197 0.712491
89 1 0.857885 0.0420578 0.773709
395 1 0.795424 0.441232 0.917116
701 1 0.712342 0.00993023 0.880695
73 1 0.613966 0.419354 0.729185
190 1 0.561954 0.15667 0.746202
315 1 0.696374 0.0982163 0.857226
733 1 0.705103 0.380064 0.87415
484 1 0.200198 0.214273 0.841711
362 1 0.860391 0.48253 0.657203
780 1 0.861443 0.434516 0.81296
331 1 0.235853 0.262741 0.66166
387 1 0.700878 0.162947 0.574823
789 1 0.275202 0.172161 0.719786
862 1 0.732642 0.359183 0.595661
221 1 0.438254 0.404109 0.702893
250 1 1.00226 0.0498313 0.582675
457 1 0.527729 0.489037 0.701403
731 1 0.597659 0.108122 0.653751
722 1 0.107023 0.480186 0.727829
85 1 0.689667 0.409639 0.786856
370 1 0.601092 0.0224206 0.821222
808 1 0.239823 0.485582 0.706947
179 1 0.749658 0.240684 0.616332
620 1 0.395159 0.111408 0.842477
350 1 0.148548 0.315475 0.781893
682 1 0.344233 0.407754 0.782545
313 1 0.352021 0.475123 0.960831
336 1 0.153011 0.47567 0.64455
385 1 0.0131744 0.117321 0.984266
171 1 0.87777 0.287586 0.824161
224 1 0.127495 0.169278 0.785674
762 1 0.702963 0.0020085 0.792484
740 1 0.756127 0.142593 0.708866
413 1 0.810054 0.274218 0.954842
47 1 0.610368 0.483667 0.944173
567 1 0.359377 0.179994 0.89321
236 1 0.78283 0.372405 0.776071
108 1 0.631105 0.451067 0.638585
372 1 0.100168 0.280804 0.517469
505 1 0.628568 0.489518 0.819074
751 1 0.325256 0.0891354 0.772854
405 1 0.529716 0.325255 0.833539
446 1 0.857148 0.102319 0.856058
274 1 0.953635 0.360118 0.990505
36 1 0.328127 0.372034 0.619125
836 1 0.331089 0.0512952 0.89697
507 1 0.322127 0.261136 0.645363
380 1 0.270302 0.260776 0.911654
542 1 0.220228 0.175727 0.924143
365 1 0.512385 0.401562 0.906246
192 1 0.98383 0.178304 0.705082
683 1 0.0948002 0.0505539 0.676921
240 1 0.515584 0.198662 0.652353
273 1 0.742617 0.0191684 0.693912
647 1 0.941704 0.309009 0.769549
64 1 0.679931 0.0195893 0.532295
220 1 0.403792 0.0231133 0.632699
510 1 -0.000312089 0.267286 0.813659
98 1 0.662138 0.188969 0.674345
422 1 0.86311 0.426859 0.969201
585 1 0.128317 0.0213055 0.966069
696 1 0.668444 0.0732137 0.602283
588 1 0.717314 0.158618 0.788385
488 1 0.651335 0.313171 0.526091
578 1 0.236821 0.0722499 0.737888
552 1 0.717551 0.26909 0.696368
26 1 0.526738 0.0488843 0.663591
27 1 0.886542 0.185816 0.739281
767 1 0.559653 0.17915 0.571242
377 1 0.660739 0.120102 0.998944
583 1 0.165074 0.0951924 0.867214
443 1 0.554839 0.0918788 0.538663
852 1 0.271749 0.206897 0.799112
383 1 0.89248 0.362438 0.895367
533 1 0.00756597 0.421054 0.850557
390 1 0.923527 0.141509 0.611348
21 1 0.841967 0.125554 0.551995
44 1 0.363732 0.48823 0.839204
595 1 0.230509 0.191963 0.534924
389 1 0.905896 0.0385429 0.634357
562 1 0.439544 0.470956 0.791938
776 1 0.193768 0.0723026 0.542441
244 1 0.806091 0.0360821 0.584523
472 1 0.622842 0.297911 0.822786
15 1 0.616456 0.124767 0.800227
284 1 0.562598 0.297231 0.606009
166 1 0.147796 0.0657091 0.762923
641 1 0.530202 0.112582 0.824898
308 1 0.393152 0.0120545 0.749917
239 1 0.991787 0.440632 0.684069
750 1 0.276567 0.446403 0.835235
615 1 0.479024 0.158239 0.526117
675 1 0.429666 0.35035 0.594431
368 1 0.773649 0.172534 0.518627
798 1 0.520749 0.21838 0.797049
734 1 0.601081 0.37569 0.804325
487 1 0.914142 0.196321 0.842246
467 1 0.547689 0.269162 0.521306
470 1 0.0154616 0.401205 0.763525
817 1 0.682684 0.381577 0.66616
393 1 0.807614 0.346323 0.864977
149 1 0.758726 0.336545 0.95218
741 1 0.536283 0.38543 0.550204
246 1 0.657382 0.29504 0.619135
310 1 0.25163 0.0393175 0.922467
320 1 0.126816 0.00464693 0.55945
802 1 0.609497 0.375455 0.900058
355 1 0.605786 0.328517 0.702782
231 1 0.533436 0.453993 0.80231
848 1 0.122286 0.34614 0.944499
627 1 0.782636 0.225843 0.754723
180 1 0.670937 0.1137 0.719651
574 1 0.881635 0.0151681 0.993038
307 1 0.118627 0.383925 0.732274
746 1 0.894116 0.317745 0.698863
655 1 0.407284 0.013449 0.999071
135 1 0.935002 0.440759 0.752646
225 1 0.557692 0.0520117 0.742932
606 1 0.191809 0.464844 0.859549
168 1 0.207252 0.401724 0.687757
2 1 0.477707 0.137275 0.699854
749 1 0.140718 0.160123 0.963099
251 1 0.961116 0.0841764 0.855981
594 1 0.306363 0.38101 0.700757
369 1 0.0310472 0.177733 0.801874
68 1 0.42874 0.467933 0.61649
753 1 0.804227 0.00770956 0.868577
497 1 0.518338 0.418491 0.646864
90 1 0.968551 0.265883 0.97906
398 1 1.00274 0.313879 0.606645
827 1 0.361454 0.272349 0.943815
367 1 0.0362758 0.0168401 0.987698
282 1 0.134384 0.392622 0.631712
293 1 0.062111 0.28255 0.747873
56 1 0.353794 0.43803 0.5151
431 1 0.930784 0.151655 0.511477
342 1 0.349842 0.336322 0.517717
664 1 0.927037 0.12519 0.76871
213 1 0.643371 0.50449 0.515519
344 1 0.777976 0.0819812 0.809071
837 1 0.249744 0.448923 0.953086
822 1 0.414499 0.187519 0.813739
805 1 0.46625 0.248157 0.543501
327 1 0.941114 0.285675 0.891521
511 1 0.464152 0.0774341 0.937813
228 1 0.510011 0.193649 0.886902
611 1 0.658173 0.199702 0.834329
543 1 0.0274108 0.495052 0.796319
772 1 0.766717 0.451694 0.619735
559 1 0.479658 0.328448 0.758637
70 1 0.834132 0.139109 0.666375
87 1 0.0759157 0.130935 0.89178
226 1 0.320232 0.392946 0.922693
702 1 0.355111 0.129437 0.696676
598 1 0.812234 0.231173 0.842063
634 1 0.710885 0.437108 0.947938
788 1 0.212961 0.348755 0.830883
757 1 0.00461728 0.357853 0.914055
215 1 0.197077 0.386923 0.901521
754 1 0.355723 0.249055 0.719071
791 1 0.0939373 0.361941 0.852435
843 1 0.180597 0.314683 0.696738
376 1 0.427947 0.271781 0.884438
739 1 0.143249 0.160776 0.566873
571 1 0.70544 0.203831 0.934804
809 1 0.0716025 0.0624458 0.824278
416 1 0.956018 0.445897 0.925755
526 1 0.417223 0.348472 0.927933
43 1 0.482959 0.11 0.598706
799 1 0.129526 0.241498 0.938768
7 1 0.854858 0.218775 0.521878
579 1 0.646609 0.260301 0.904301
815 1 0.641855 0.00610893 0.69708
206 1 0.752775 0.273378 0.527164
218 1 0.538522 0.491105 0.904067
287 1 0.0182288 0.0229171 0.503379
525 1 0.0478879 0.29357 0.995143
174 1 0.918908 0.108302 0.978341
113 1 0.893732 0.0415792 0.506607
531 1 0.660968 0.292578 0.975941
103 1 0.261167 0.303915 0.998539
194 1 0.22621 0.0864807 0.993256
115 1 0.103225 0.519226 0.114383
361 1 0.0255018 0.834244 0.311898
198 1 0.913983 0.788123 0.040763
325 1 0.00773278 0.782675 0.19593
812 1 0.771456 0.986313 0.159834
477 1 0.0724145 0.974968 0.0596678
144 1 0.7511 0.944688 0.268785
792 1 0.524653 1.00211 0.361688
709 1 0.576524 0.666882 0.341034
129 1 0.367678 0.578368 0.370859
630 1 0.158159 0.623094 0.374559
16 1 0.411444 0.721577 0.12816
491 1 0.384416 0.866547 0.0691614
558 1 0.557572 0.542823 0.418798
720 1 0.340521 0.909266 0.433528
234 1 0.42697 0.971511 0.156112
728 1 0.334783 0.689907 0.172246
290 1 0.62849 0.884708 0.00735736
343 1 0.618009 0.605997 0.0147106
569 1 0.477805 0.593901 0.0207716
208 1 0.930213 0.819509 0.123174
5 1 0.29841 0.896675 0.0624622
748 1 0.363612 0.597266 0.457354
189 1 0.306208 0.98956 0.321798
162 1 0.492321 0.984751 0.103432
697 1 0.377244 0.885591 0.23509
565 1 0.212108 0.949704 0.225418
349 1 0.127125 0.846635 0.232248
270 1 0.994588 0.938057 0.0668505
316 1 0.0168602 0.930788 0.469427
176 1 0.117201 0.964639 0.388983
587 1 0.781446 0.804228 0.0280049
187 1 0.847177 0.697895 0.325306
268 1 0.811318 0.905763 0.135053
785 1 0.19797 0.941285 0.318665
564 1 0.745547 0.596569 0.236883
557 1 0.0352209 0.570964 0.457702
826 1 0.748918 0.734277 0.339435
563 1 0.711463 0.777036 0.408295
145 1 0.35385 0.662805 0.387539
243 1 0.775428 0.610459 0.142935
125 1 0.969252 0.682023 0.472251
258 1 0.721141 0.693895 0.152252
581 1 0.443945 0.933082 0.0414921
62 1 0.0538132 0.622821 0.00956271
668 1 0.198695 0.905359 0.413442
434 1 0.230541 0.977765 0.0639443
610 1 0.733021 0.880625 0.0666896
623 1 0.500722 0.673917 0.0933944
335 1 0.539311 0.898892 0.457821
137 1 0.610638 0.7322 0.141747
374 1 0.915875 0.704313 0.386454
577 1 0.975925 0.763593 0.443892
758 1 0.692948 0.934179 0.207183
635 1 0.197861 0.749272 0.196236
476 1 0.396761 0.964068 0.403373
262 1 0.60072 0.963881 0.0771751
490 1 0.180168 0.732428 0.471266
759 1 0.746338 0.529678 0.0778013
742 1 0.00802423 0.693556 0.120087
461 1 0.551755 0.776212 0.325322
803 1 0.526606 0.786918 0.106209
45 1 0.745353 0.85323 0.162191
784 1 0.121175 0.801534 0.420393
420 1 0.428543 0.718698 0.249182
830 1 0.326344 0.574194 0.2883
248 1 0.426396 0.861092 0.414902
72 1 0.797763 0.663027 0.0696151
360 1 0.0209221 0.983115 0.388524
277 1 0.108718 0.883405 0.360383
797 1 0.581881 0.883797 0.335745
41 1 0.450358 0.683416 0.478533
39 1 0.133904 0.665401 0.304444
541 1 0.995755 0.885873 0.38452
356 1 0.778752 0.895185 0.393506
662 1 0.331908 0.574196 0.0830717
172 1 0.678854 0.768941 0.190554
317 1 0.759609 0.864218 0.474585
590 1 0.280111 0.508759 0.0970089
329 1 0.0709227 0.913125 0.176591
492 1 0.926508 0.951957 0.271529
409 1 0.801609 0.521468 0.236238
191 1 0.290293 0.984854 0.439752
396 1 0.938582 0.775738 0.307925
648 1 0.694819 0.560423 0.149127
551 1 0.993172 0.655702 0.232278
352 1 0.0732322 0.651952 0.206752
592 1 0.276798 0.972594 0.143257
143 1 0.0761503 0.577796 0.339258
517 1 0.369406 0.699638 0.0582697
568 1 0.333208 0.883735 0.159679
130 1 0.906516 0.702114 0.0796628
33 1 0.0672762 0.691114 0.369345
554 1 0.515702 0.733729 0.399774
529 1 0.913759 0.524103 0.217929
618 1 0.683319 0.955093 0.103641
357 1 0.0374083 0.799451 0.385589
254 1 0.829621 0.946713 0.33752
681 1 0.783603 0.569451 0.30562
35 1 0.824749 0.572703 0.464567
727 1 0.272167 0.598309 0.403112
858 1 0.671271 0.557948 0.407047
463 1 0.197894 0.642537 0.100778
48 1 0.846827 0.828823 0.300799
755 1 0.480864 0.806151 0.252062
677 1 0.891885 0.887041 0.352073
861 1 0.781205 0.754558 0.225595
787 1 0.629263 0.708052 0.248689
437 1 0.425123 0.743891 0.398779
771 1 0.9199 0.651806 0.165041
521 1 0.804615 0.773087 0.472764
391 1 0.14674 0.542532 0.434612
593 1 0.434847 0.937626 0.324008
95 1 0.290873 0.563601 0.161271
152 1 0.976892 0.619547 0.394601
97 1 0.17118 0.568187 0.254808
645 1 0.151222 0.7116 0.0906987
14 1 0.618311 0.760522 0.390793
466 1 0.225562 1.0022 0.385642
94 1 0.536561 0.60581 0.141079
656 1 0.252559 0.735317 0.0304938
613 1 0.0132605 0.565002 0.172828
102 1 0.837786 0.526275 0.154101
140 1 0.327701 0.781104 0.120245
427 1 0.693173 0.848872 0.234132
855 1 0.839982 0.939851 0.250979
291 1 0.836568 0.499196 0.0462097
649 1 0.986226 0.871204 0.231358
169 1 0.660307 0.644373 0.191765
150 1 0.823288 0.685004 0.15133
818 1 0.663895 0.631498 0.357298
230 1 0.551699 0.631673 0.426484
345 1 0.487507 0.897818 0.368046
518 1 0.694314 0.783873 0.0981757
486 1 0.27804 0.671632 0.103929
412 1 0.250576 0.81709 0.09165
860 1 0.909915 0.715202 0.237182
55 1 0.0630781 0.948738 0.274388
146 1 0.841937 0.803297 0.381573
538 1 0.00322717 0.517865 0.391033
532 1 0.757343 0.844653 0.317201
267 1 0.614532 0.832386 0.0946221
770 1 0.661269 0.602454 0.268233
626 1 0.327444 0.744326 0.444198
536 1 0.232365 0.830739 0.360181
609 1 0.396582 0.790556 0.18351
77 1 0.50787 0.823623 0.424627
197 1 0.591562 0.795522 0.201244
582 1 0.252126 0.678241 0.393748
673 1 0.787401 0.700097 0.412904
828 1 0.9751 0.984044 0.137859
501 1 0.256056 0.663651 0.494967
211 1 0.240016 0.857678 0.253509
556 1 0.521166 0.934414 0.283446
219 1 0.715971 0.685022 0.260377
304 1 0.349171 0.92397 0.355187
203 1 0.426847 0.876711 0.146446
238 1 0.641007 0.753546 0.487889
148 1 0.147525 0.904508 0.0644651
494 1 0.792876 0.778102 0.13472
347 1 0.133236 0.845057 0.130884
550 1 0.305641 0.782828 0.216153
604 1 0.418976 0.638416 0.165636
51 1 0.0210712 0.786407 0.0528592
756 1 0.702247 0.668563 0.422623
442 1 0.879031 0.758279 0.151849
118 1 0.857054 0.654368 0.460303
703 1 0.656018 0.519715 0.0228401
222 1 0.210957 0.633873 0.207113
806 1 0.994197 0.680637 0.322197
116 1 0.141622 0.803439 0.327091
638 1 0.882955 0.940842 0.1596
309 1 0.0924749 0.769699 0.167776
834 1 0.471087 0.953337 0.450013
459 1 0.531269 0.620927 0.237559
700 1 0.596236 0.882119 0.186522
774 1 0.198056 0.545913 0.0900646
600 1 0.90456 0.944965 0.0673048
520 1 0.358345 0.667188 0.280429
840 1 0.0686737 0.609494 0.113975
266 1 0.505404 0.618598 0.343256
241 1 0.68382 0.770732 0.285354
503 1 0.431465 0.605778 0.249637
545 1 0.427175 0.660495 0.330533
514 1 0.224652 0.515784 0.393067
633 1 0.231609 0.865491 0.161424
716 1 0.461347 0.914085 0.220923
297 1 0.25283 0.746128 0.307387
500 1 0.87164 0.582331 0.0917473
464 1 0.198913 0.834401 0.501834
614 1 0.896479 0.852723 0.23227
699 1 0.479557 0.726294 0.3199
403 1 0.89179 0.61599 0.249448
800 1 0.471849 0.586093 0.449881
328 1 0.973981 0.625642 0.0710486
57 1 0.063568 0.747019 0.290182
632 1 0.461662 0.508366 0.401945
631 1 0.0434449 0.849104 0.453882
475 1 0.286244 0.628245 0.0119129
823 1 0.50948 0.715102 0.22674
217 1 0.105185 0.991514 0.475322
725 1 0.938948 0.554622 0.304434
119 1 0.705999 0.653221 0.0462851
863 1 0.759466 0.646853 0.347722
124 1 0.904036 0.89148 0.43724
260 1 0.836087 0.878256 0.0605815
715 1 0.136741 0.597748 0.0440199
738 1 0.589098 0.769163 0.0249654
652 1 0.343628 0.969629 0.0779464
766 1 0.619332 0.580541 0.107674
23 1 0.0609931 0.701372 0.465983
121 1 0.782807 0.993213 0.491692
449 1 0.528515 0.540115 0.206727
661 1 0.318655 0.515109 0.43309
82 1 0.573952 0.711448 0.467174
209 1 0.21496 0.584947 0.00171396
128 1 0.390767 0.5294 0.0211152
508 1 0.201829 0.996963 0.487288
548 1 0.788514 0.581719 0.0166834
628 1 0.0499125 0.857285 0.0205788
120 1 0.624461 0.83788 0.495655
482 1 0.91815 0.49724 0.487164
846 1 0.351562 0.685922 0.961273
256 1 0.729817 0.825979 0.784354
496 1 0.87122 0.775083 0.696928
793 1 0.623765 0.564235 0.686566
444 1 0.151313 0.659456 0.571033
199 1 0.193446 0.706899 0.935289
685 1 0.878055 0.792226 0.939506
650 1 0.0770399 0.591658 0.925011
493 1 0.212057 0.847497 0.729738
29 1 0.973741 0.687522 0.605487
210 1 0.537386 0.992115 0.550166
485 1 0.560723 0.725132 0.764362
824 1 0.0249102 0.974183 0.862234
433 1 0.368531 0.945145 0.676792
859 1 0.75926 0.921497 0.642365
354 1 0.825697 0.729745 0.940791
173 1 0.16468 0.75724 0.776841
52 1 0.349919 0.940982 0.533428
382 1 0.016811 0.541858 0.988524
156 1 0.219276 0.551615 0.598709
498 1 0.166347 0.767673 0.861788
66 1 0.539987 0.808078 0.635725
303 1 0.322082 0.503014 0.582508
665 1 0.403839 0.514878 0.687521
646 1 0.96855 0.726557 0.715313
430 1 0.00190591 0.806009 0.769975
523 1 0.229933 0.81984 0.992352
60 1 0.395236 0.736127 0.862029
527 1 0.477508 0.575697 0.691535
667 1 0.384638 0.777641 0.565507
561 1 0.897272 0.70102 0.990434
435 1 0.170425 0.636815 0.751385
283 1 0.569152 0.713261 0.961436
423 1 0.763056 0.691616 0.984374
480 1 0.665838 0.69604 0.954934
663 1 0.806752 0.703893 0.817924
50 1 0.108877 0.823464 0.611276
539 1 0.12332 0.80803 0.517501
603 1 0.577203 0.873734 0.869487
643 1 0.494763 0.919797 0.859517
54 1 0.67893 0.923922 0.512429
188 1 0.0870335 0.516048 0.882504
229 1 0.404787 0.557371 0.781686
687 1 0.902341 0.989471 0.830402
744 1 0.56098 0.936493 0.989243
122 1 0.277881 0.620294 0.926004
223 1 0.66545 0.855066 0.910486
22 1 0.37545 0.778088 0.651889
216 1 0.0435287 0.736386 0.787755
506 1 0.714859 0.589635 0.700578
202 1 0.89405 0.750355 0.792134
474 1 0.846429 0.963393 0.683121
473 1 0.870073 0.794384 0.547269
719 1 0.963463 0.694124 0.811287
584 1 0.105694 0.877545 0.957316
462 1 0.0663128 0.559127 0.739363
161 1 0.604218 0.664379 0.684153
207 1 0.244725 0.819682 0.652858
479 1 0.120357 0.725912 0.68379
573 1 0.152093 0.521333 0.962548
694 1 0.808857 0.79567 0.757329
138 1 0.851483 0.864341 0.651191
147 1 0.506038 0.844976 0.804301
707 1 0.257793 0.934432 0.907797
139 1 0.391337 0.847044 0.837183
424 1 0.924834 0.596947 0.602356
346 1 0.0249299 0.726471 0.981436
93 1 0.372428 0.887383 0.987321
259 1 0.186554 0.862962 0.815779
448 1 0.829672 0.666992 0.550223
519 1 0.344811 0.89782 0.758686
743 1 0.144867 0.949945 0.801909
478 1 0.798127 0.869545 0.831385
318 1 0.138933 0.558981 0.826595
237 1 0.112207 0.972145 0.88588
242 1 0.350149 0.860321 0.590143
471 1 0.294723 0.973671 0.98623
737 1 0.171477 0.605407 0.904469
38 1 0.548246 0.63729 0.812524
375 1 0.0043185 0.763294 0.547769
408 1 0.986609 0.814112 0.875509
159 1 0.548643 0.563503 0.632367
175 1 0.734051 0.591337 0.502366
637 1 0.469362 0.707754 0.935366
20 1 0.887717 0.530216 0.833925
214 1 0.209745 0.601683 0.677298
629 1 0.19882 0.685439 0.670209
294 1 0.414802 0.527641 0.899999
261 1 0.343646 0.683752 0.519193
704 1 0.942532 0.923244 0.6632
810 1 0.952222 0.839288 0.668518
351 1 0.611619 0.683478 0.86895
332 1 0.221696 0.600871 0.817464
764 1 0.640017 0.606609 0.792421
854 1 0.00387873 0.910193 0.740098
151 1 0.0327277 0.861337 0.644082
323 1 0.900602 0.839545 0.841842
555 1 0.544265 0.5177 0.504953
833 1 0.739173 0.551869 0.599837
305 1 0.307979 0.686813 0.671027
553 1 0.246372 0.519829 0.781736
782 1 0.821901 0.507115 0.564616
96 1 0.961687 0.894297 0.828087
339 1 0.314493 0.992529 0.607341
591 1 0.874931 0.949174 0.50564
378 1 0.232501 0.904974 0.999668
509 1 0.117052 0.773541 0.986568
264 1 0.71255 0.551479 0.780724
522 1 0.310429 0.815028 0.934341
689 1 0.395519 0.639536 0.900469
839 1 0.286209 0.834992 0.783801
186 1 0.458721 0.678406 0.817438
714 1 0.611271 0.866236 0.645778
425 1 0.449495 0.733509 0.598584
842 1 0.452581 0.538734 0.530935
353 1 0.251537 0.757921 0.907257
63 1 0.684188 0.570397 0.895518
458 1 0.0666355 0.893568 0.866225
708 1 0.398255 0.595163 0.589286
745 1 0.970662 0.8371 0.973803
684 1 0.729374 0.786061 0.537204
379 1 0.965691 0.690479 0.935374
32 1 0.989994 0.932938 0.946457
657 1 0.470655 0.954554 0.674426
111 1 0.670438 0.942519 0.625628
705 1 0.652114 0.585169 0.582034
67 1 0.197144 0.67982 0.828287
465 1 0.121091 0.945737 0.702452
786 1 0.931057 0.927262 0.580888
265 1 0.680221 0.813471 0.996645
589 1 0.435896 0.864297 0.730484
659 1 0.781296 0.86553 0.713885
281 1 0.199665 0.887361 0.56571
418 1 0.740997 0.623086 0.828397
157 1 0.708667 0.700481 0.790374
642 1 0.706299 0.936244 0.721947
392 1 0.324397 0.494677 0.747016
528 1 0.642198 0.761072 0.729491
779 1 0.881656 0.695807 0.653866
761 1 0.565586 0.87287 0.573313
723 1 0.0631668 0.630692 0.837868
566 1 0.11955 0.594435 0.632043
83 1 0.957095 0.983563 0.734667
363 1 0.707597 0.839138 0.679739
107 1 0.555957 0.764786 0.852077
371 1 0.749276 0.659269 0.64071
298 1 0.661272 0.496492 0.716758
46 1 0.0365873 0.550379 0.607471
460 1 0.741446 0.701796 0.886302
621 1 0.991115 0.563589 0.885004
193 1 0.271673 0.739673 0.741742
844 1 0.0170588 0.981813 0.640552
710 1 0.385493 0.706414 0.773231
394 1 0.0850245 0.724583 0.578152
404 1 0.0754982 0.784205 0.85041
674 1 0.887898 0.576576 0.74316
79 1 0.661571 0.759772 0.848974
80 1 0.463827 0.961385 0.779569
381 1 0.322348 0.57125 0.844815
257 1 0.332496 0.588184 0.682237
249 1 0.182798 0.844524 0.902199
763 1 0.86333 0.509424 0.927846
373 1 0.887006 0.89766 0.947318
856 1 0.479214 0.901207 0.959717
61 1 0.29074 0.526948 0.915999
679 1 0.91401 0.889477 0.751745
400 1 0.690743 0.919789 0.847039
718 1 0.586875 0.535631 0.761154
512 1 0.511864 0.541689 0.822584
534 1 0.760104 0.746299 0.696961
388 1 0.496968 0.658195 0.666741
829 1 0.0482389 0.710991 0.896878
312 1 0.52658 0.826829 0.984402
134 1 0.977911 0.611307 0.734366
12 1 0.455736 0.766468 0.76005
499 1 0.800534 0.560782 0.676023
181 1 0.0429207 0.947553 0.568814
849 1 0.414374 0.795834 0.93299
619 1 0.484222 0.572746 0.941361
560 1 0.506599 0.627637 0.541845
426 1 0.618684 0.966287 0.925428
386 1 0.785187 0.654312 0.730702
366 1 0.628413 0.902281 0.761448
570 1 0.313103 0.745323 0.843987
123 1 0.802906 0.964694 0.76238
306 1 0.304564 0.644796 0.798145
777 1 0.43692 0.919772 0.567948
453 1 0.301707 0.585847 0.588574
414 1 0.260343 0.774417 0.521168
69 1 0.0657679 0.602867 0.546354
778 1 0.979157 0.85239 0.565564
253 1 0.367407 0.915776 0.906978
688 1 0.729032 0.794184 0.903773
6 1 0.662439 0.75713 0.634912
178 1 0.563536 0.611412 0.945544
768 1 0.571845 0.958615 0.623795
597 1 0.595174 0.613134 0.499232
736 1 0.394469 0.846848 0.507028
154 1 0.201592 0.989986 0.9872
820 1 0.918802 0.739141 0.522871
110 1 0.903557 0.601163 0.988887
58 1 0.539614 0.77503 0.518655
288 1 0.692786 0.952263 0.982172
436 1 0.111929 0.683746 0.981666
8 1 0.263381 0.908152 0.511698
