ITEM: TIMESTEP
8500
ITEM: NUMBER OF ATOMS
4000
ITEM: BOX BOUNDS pp pp pp
0.0000000000000000e+00 5.2599999999999994e+01
0.0000000000000000e+00 5.2599999999999994e+01
0.0000000000000000e+00 5.2599999999999994e+01
ITEM: ATOMS id type xs ys zs
43 1 0.050588 0.0995026 0.0536625
237 1 0.892821 0.00666784 0.101118
8 1 0.100826 0.0455019 0.0575644
12 1 0.202431 0.037532 0.0527235
1000 1 0.893822 0.456814 0.444899
423 1 0.5552 0.00100449 0.243947
2817 1 0.407174 0.499498 0.407646
998 1 0.944591 0.447728 0.396025
210 1 0.255025 0.0573925 0.100489
65 1 0.590231 0.0969067 0.00236545
16 1 0.30411 0.0513264 0.0456367
20 1 0.38713 0.0544602 0.0412982
214 1 0.354815 0.0529661 0.102595
55 1 0.34511 0.0989553 0.0467771
59 1 0.445903 0.105003 0.0480645
69 1 0.700464 0.0979612 0.0125475
109 1 0.70253 0.19711 0.00699366
24 1 0.493425 0.0501091 0.0485409
627 1 0.650946 0.000109044 0.352209
222 1 0.541522 0.0470412 0.100184
831 1 0.756478 0.00138893 0.442675
1193 1 0.795492 0.402983 0.489121
28 1 0.595805 0.0481261 0.053833
67 1 0.650694 0.0937338 0.0567806
1002 1 0.0495314 0.0582538 0.499807
146 1 0.644293 0.344938 0.00913169
32 1 0.694563 0.0489292 0.0578163
1109 1 0.70122 0.200974 0.497402
36 1 0.803371 0.0453187 0.0492713
234 1 0.853927 0.0557318 0.10021
40 1 0.900541 0.0508283 0.0541942
75 1 0.854108 0.092711 0.0487045
419 1 0.45005 0.00339262 0.257623
153 1 0.797486 0.300615 0.00510337
4 1 0.00074585 0.0517386 0.0424128
79 1 0.95375 0.1048 0.049874
833 1 0.804578 0.00726281 0.397866
1181 1 0.504399 0.404186 0.49702
2815 1 0.347811 0.49219 0.454858
48 1 0.101145 0.153649 0.0511007
83 1 0.0525137 0.206268 0.0517516
6 1 0.150343 0.0405481 0.000919266
47 1 0.149853 0.0951343 0.0518561
52 1 0.198684 0.144367 0.0409316
87 1 0.147722 0.2043 0.0462168
637 1 0.903718 0.00104323 0.299315
239 1 0.950905 0.000556169 0.152093
51 1 0.252267 0.0981426 0.0441465
91 1 0.255387 0.199706 0.0468256
56 1 0.300632 0.146226 0.0395661
253 1 0.297742 0.0965007 0.0930446
1165 1 0.0961243 0.399583 0.492649
142 1 0.550387 0.354038 0.0047836
257 1 0.409575 0.096872 0.112434
60 1 0.40022 0.147346 0.0588498
254 1 0.351847 0.142401 0.110689
64 1 0.49371 0.149797 0.052196
261 1 0.490972 0.0998538 0.0981203
258 1 0.443097 0.152589 0.103956
63 1 0.544431 0.0955122 0.046455
405 1 0.10455 0.00129788 0.195192
262 1 0.542848 0.143035 0.102834
265 1 0.593988 0.102648 0.10463
68 1 0.597226 0.143498 0.0541156
107 1 0.638778 0.199045 0.0542844
305 1 0.595175 0.194389 0.10402
2833 1 0.792559 0.499952 0.407718
71 1 0.754257 0.0925705 0.0543363
72 1 0.701601 0.149831 0.0536579
111 1 0.750534 0.198668 0.053371
309 1 0.705697 0.201351 0.100481
203 1 0.0441326 0.00311042 0.151409
2637 1 0.897759 0.498811 0.290109
76 1 0.801637 0.152225 0.0456995
115 1 0.847178 0.202267 0.0502792
274 1 0.855565 0.148611 0.0938552
19 1 0.432402 0.00938449 0.0415083
80 1 0.907835 0.160183 0.0505254
101 1 0.493092 0.196864 0.00678075
44 1 0.997673 0.153145 0.0484726
119 1 0.959116 0.208221 0.0537363
1170 1 0.258494 0.447572 0.495244
2829 1 0.705408 0.498913 0.393369
88 1 0.0957103 0.251388 0.0448648
2803 1 0.0507148 0.495386 0.446339
127 1 0.153775 0.29943 0.0362144
92 1 0.197679 0.246774 0.0490497
607 1 0.151282 7.10269e-05 0.353345
286 1 0.150527 0.25194 0.0945667
329 1 0.209178 0.292201 0.0937598
23 1 0.542003 0.00499225 0.0436672
290 1 0.247272 0.239696 0.10182
333 1 0.305861 0.292774 0.106716
96 1 0.302403 0.244372 0.0501306
131 1 0.255955 0.300775 0.0566451
293 1 0.300064 0.191389 0.0988153
95 1 0.351209 0.186432 0.0512702
100 1 0.387689 0.254089 0.0515941
2039 1 0.942025 0.494256 0.0575596
2401 1 0.997271 0.496615 0.195829
99 1 0.44045 0.20557 0.0428856
104 1 0.493911 0.24708 0.0565665
139 1 0.433855 0.300032 0.0476669
2229 1 0.696195 0.494979 0.0963109
298 1 0.444624 0.250327 0.104669
2439 1 0.954512 0.497872 0.25198
103 1 0.544461 0.194115 0.0538741
345 1 0.595084 0.302495 0.100319
102 1 0.543279 0.238468 0.00481505
41 1 0.997241 0.102556 0.00192333
108 1 0.586979 0.25039 0.0515038
147 1 0.641115 0.299007 0.0529811
306 1 0.645344 0.246665 0.0914318
112 1 0.69721 0.247034 0.0530111
310 1 0.752549 0.249722 0.100065
151 1 0.746836 0.299162 0.0502158
349 1 0.690175 0.302091 0.092308
116 1 0.804845 0.245176 0.0452151
155 1 0.849792 0.287967 0.0564636
120 1 0.908912 0.246225 0.0476331
357 1 0.902945 0.302829 0.101087
161 1 0.00291124 0.403093 0.000140472
73 1 0.800166 0.0998258 0.00120427
84 1 0.00376426 0.256557 0.0528542
159 1 0.950664 0.296623 0.0526294
318 1 0.955566 0.248916 0.115183
3 1 0.0466521 0.00314375 0.0550099
123 1 0.0560009 0.307816 0.0418088
128 1 0.104866 0.353225 0.0490087
163 1 0.0510166 0.404426 0.0501708
361 1 0.00599868 0.395742 0.107199
801 1 0.0051402 0.0056256 0.404378
326 1 0.150335 0.349944 0.0980722
167 1 0.148799 0.401587 0.0565099
1190 1 0.749831 0.451938 0.489969
435 1 0.851878 0.000430542 0.246309
132 1 0.202152 0.359882 0.0558252
171 1 0.251835 0.405431 0.0584864
136 1 0.296346 0.35581 0.0442331
2827 1 0.649918 0.499511 0.435686
415 1 0.340821 0.000701919 0.24955
135 1 0.343907 0.306774 0.0461628
140 1 0.393315 0.353724 0.0497903
2427 1 0.656172 0.495158 0.242118
175 1 0.341344 0.406001 0.0456625
144 1 0.495966 0.351229 0.0532034
377 1 0.392753 0.390945 0.0955399
338 1 0.44189 0.345183 0.0932322
341 1 0.487066 0.294554 0.100767
143 1 0.543899 0.301123 0.0539242
148 1 0.5933 0.353332 0.0531197
181 1 0.492588 0.400986 0.0102617
346 1 0.644201 0.353089 0.103345
152 1 0.69506 0.346289 0.043899
2239 1 0.957586 0.492201 0.151579
191 1 0.746524 0.400561 0.0508916
389 1 0.6967 0.390676 0.0932649
156 1 0.795353 0.346228 0.0560449
235 1 0.837638 0.0143837 0.148112
193 1 0.804631 0.399884 0.0128088
160 1 0.90595 0.348639 0.0464512
354 1 0.851919 0.345406 0.0937652
439 1 0.951144 0.00642514 0.246362
124 1 0.0022157 0.347462 0.0490203
199 1 0.952661 0.393113 0.0540048
164 1 0.992024 0.442779 0.056234
362 1 0.0464858 0.444159 0.104005
225 1 0.600849 0.000250067 0.104437
365 1 0.0985163 0.401429 0.0997128
168 1 0.0983112 0.446652 0.0545094
366 1 0.14196 0.459701 0.0997441
3013 1 0.29876 0.499283 0.489622
411 1 0.250931 0.00631965 0.249075
172 1 0.192037 0.452467 0.0554616
176 1 0.302901 0.453276 0.0501937
615 1 0.349913 0.00172317 0.34933
180 1 0.392589 0.449267 0.0470494
1117 1 0.886916 0.199499 0.497076
1098 1 0.445764 0.253255 0.493859
201 1 0.993765 0.00139047 0.108551
179 1 0.443821 0.410984 0.0507521
378 1 0.454996 0.457191 0.0958886
381 1 0.491734 0.400018 0.0979986
992 1 0.704678 0.448502 0.437238
183 1 0.543268 0.399584 0.0594389
184 1 0.497524 0.458135 0.0555315
382 1 0.548589 0.449518 0.0995483
996 1 0.804458 0.449794 0.445585
1069 1 0.70642 0.0934167 0.496619
990 1 0.749185 0.448828 0.393481
187 1 0.647999 0.403106 0.0461449
188 1 0.598989 0.448035 0.0527507
192 1 0.69241 0.448103 0.0492065
989 1 0.705696 0.399172 0.390864
129 1 0.208135 0.301936 0.0104031
987 1 0.649861 0.392288 0.44287
393 1 0.80734 0.392769 0.0975231
390 1 0.745944 0.4476 0.0897815
198 1 0.945003 0.452688 0.00620645
105 1 0.589248 0.196413 0.00392993
195 1 0.854958 0.391033 0.051848
196 1 0.792478 0.450802 0.0539088
200 1 0.897454 0.443484 0.0574745
1022 1 0.563241 0.0424889 0.49279
2227 1 0.653522 0.493885 0.147998
984 1 0.504062 0.450838 0.439891
631 1 0.756537 0.00289894 0.347546
202 1 0.0431898 0.064662 0.105737
208 1 0.10257 0.0500087 0.146585
243 1 0.0588851 0.107841 0.153365
245 1 0.0984736 0.0980801 0.0952219
241 1 0.9957 0.104627 0.106042
204 1 0.99342 0.0543053 0.149357
1185 1 0.604746 0.402338 0.490415
206 1 0.149096 0.0508039 0.09843
247 1 0.145222 0.10434 0.148291
212 1 0.193728 0.0402685 0.149866
988 1 0.605021 0.451609 0.443428
216 1 0.300991 0.0468622 0.149172
251 1 0.247091 0.0953233 0.149216
410 1 0.255061 0.0521216 0.196803
453 1 0.298828 0.0942701 0.194353
980 1 0.403057 0.451865 0.444891
813 1 0.297015 0.00465306 0.397176
255 1 0.350245 0.0962287 0.154904
1134 1 0.356874 0.358251 0.497715
220 1 0.403625 0.0518109 0.153885
218 1 0.450218 0.0448722 0.0958685
224 1 0.492469 0.0389115 0.14377
418 1 0.458801 0.0486625 0.202169
457 1 0.399753 0.0932118 0.201426
2611 1 0.246803 0.487035 0.355548
263 1 0.535274 0.0908954 0.151488
422 1 0.557936 0.0506707 0.207442
461 1 0.504378 0.10054 0.204994
2413 1 0.302731 0.499865 0.204641
226 1 0.649069 0.0430827 0.103026
228 1 0.596115 0.0528863 0.151808
267 1 0.65987 0.096348 0.152056
975 1 0.360761 0.398248 0.446663
230 1 0.751132 0.042646 0.0968164
232 1 0.697322 0.0495187 0.152326
236 1 0.793931 0.0600048 0.14107
273 1 0.810182 0.0978786 0.0910762
1189 1 0.702464 0.401107 0.491095
976 1 0.308606 0.442469 0.450803
2015 1 0.349832 0.498173 0.0525108
277 1 0.913883 0.117832 0.100171
240 1 0.894322 0.049372 0.152758
275 1 0.855874 0.103922 0.147039
971 1 0.252693 0.401796 0.454971
238 1 0.940949 0.0559526 0.100234
279 1 0.947437 0.105377 0.154244
3021 1 0.506365 0.495207 0.487715
285 1 0.101797 0.208771 0.0920181
242 1 0.0468911 0.149705 0.0921598
283 1 0.0648775 0.19823 0.144527
244 1 0.0119901 0.154308 0.149544
248 1 0.0986002 0.147214 0.136199
246 1 0.147657 0.146216 0.0911772
287 1 0.146018 0.188485 0.145483
252 1 0.203149 0.143023 0.150998
485 1 0.101713 0.197676 0.19728
249 1 0.202315 0.0913433 0.0967307
250 1 0.247127 0.152916 0.0993577
256 1 0.288047 0.143685 0.146773
454 1 0.340234 0.150646 0.190302
260 1 0.39634 0.146548 0.15536
259 1 0.451057 0.102502 0.158084
458 1 0.446714 0.144758 0.208332
299 1 0.450185 0.19279 0.154777
497 1 0.393045 0.196713 0.197964
264 1 0.496702 0.152566 0.145173
462 1 0.550664 0.151622 0.203392
268 1 0.606962 0.151999 0.158212
266 1 0.644347 0.146534 0.101434
307 1 0.651159 0.200779 0.135283
269 1 0.698754 0.101364 0.101138
466 1 0.650241 0.148194 0.200608
313 1 0.802608 0.201296 0.10279
271 1 0.741658 0.0999194 0.147631
272 1 0.69218 0.151522 0.141944
270 1 0.755997 0.144611 0.0946658
509 1 0.709284 0.204093 0.188831
276 1 0.806982 0.147421 0.146344
315 1 0.850402 0.193948 0.152557
278 1 0.955492 0.163505 0.106995
280 1 0.901333 0.157511 0.147763
281 1 0.00973535 0.203997 0.10347
319 1 0.953813 0.206369 0.160022
517 1 0.901145 0.20149 0.202521
282 1 0.0556207 0.253321 0.0972396
325 1 0.101427 0.302327 0.0905168
482 1 0.0552849 0.248371 0.201236
288 1 0.107111 0.256782 0.149683
289 1 0.193082 0.194211 0.101286
327 1 0.156829 0.302613 0.148259
486 1 0.150953 0.244814 0.200859
292 1 0.200943 0.251455 0.141972
291 1 0.247138 0.192163 0.16225
529 1 0.197147 0.298935 0.19998
297 1 0.401557 0.199232 0.106706
294 1 0.349316 0.246337 0.101408
296 1 0.293498 0.235886 0.148415
295 1 0.344013 0.201102 0.155368
300 1 0.400709 0.247691 0.154411
498 1 0.439334 0.247435 0.202359
301 1 0.499547 0.198778 0.10413
303 1 0.550203 0.196446 0.153678
304 1 0.495229 0.247147 0.148416
302 1 0.543093 0.249532 0.0949499
501 1 0.498306 0.205138 0.197259
502 1 0.546198 0.248321 0.194999
545 1 0.592848 0.298349 0.193712
308 1 0.593121 0.255334 0.146897
347 1 0.649645 0.300012 0.141425
506 1 0.649821 0.2571 0.187332
505 1 0.594513 0.197332 0.201996
353 1 0.802912 0.293331 0.105114
311 1 0.758855 0.203754 0.143606
312 1 0.704722 0.264104 0.153584
510 1 0.755745 0.242709 0.199879
316 1 0.802575 0.251161 0.157341
314 1 0.846986 0.248293 0.105766
320 1 0.893733 0.248119 0.152121
317 1 0.907562 0.202145 0.107172
284 1 0.00782159 0.251642 0.153206
359 1 0.953811 0.303594 0.147466
322 1 0.0523856 0.351027 0.0998446
323 1 0.0508443 0.293384 0.141315
363 1 0.0601101 0.398342 0.148642
328 1 0.100273 0.334357 0.15097
369 1 0.196001 0.405615 0.106297
332 1 0.205903 0.347508 0.140185
367 1 0.141273 0.405741 0.155191
565 1 0.0932546 0.402012 0.203352
569 1 0.187916 0.413596 0.199438
331 1 0.25788 0.291674 0.151801
330 1 0.254715 0.358496 0.0971505
573 1 0.298999 0.412193 0.197241
530 1 0.254085 0.348443 0.192026
334 1 0.340894 0.354248 0.0937621
335 1 0.356434 0.294289 0.157603
336 1 0.30299 0.354398 0.153375
337 1 0.388239 0.299306 0.0971778
339 1 0.450271 0.297865 0.157914
340 1 0.399822 0.341596 0.155764
344 1 0.494274 0.349376 0.144417
581 1 0.505841 0.397287 0.208176
342 1 0.545496 0.348502 0.100713
343 1 0.537107 0.295021 0.140221
585 1 0.601297 0.3904 0.206142
383 1 0.544462 0.395406 0.148705
541 1 0.508231 0.301072 0.204222
542 1 0.552115 0.349928 0.194168
348 1 0.602783 0.349401 0.149907
546 1 0.653315 0.346347 0.193259
352 1 0.701267 0.354606 0.15131
351 1 0.755674 0.301589 0.153384
350 1 0.739129 0.34035 0.105343
356 1 0.802899 0.350956 0.150144
549 1 0.704976 0.310542 0.197523
355 1 0.855609 0.302786 0.157123
360 1 0.89914 0.349029 0.153868
321 1 0.996361 0.305811 0.101051
358 1 0.952548 0.348817 0.0991939
521 1 0.00124187 0.301932 0.203833
324 1 0.997133 0.350278 0.14751
399 1 0.956541 0.401085 0.150394
558 1 0.951479 0.348784 0.195138
3025 1 0.600963 0.496694 0.49053
368 1 0.0961687 0.455002 0.159065
364 1 0.000646557 0.445743 0.151517
562 1 0.0438867 0.448667 0.203028
613 1 0.300595 0.00416576 0.298144
372 1 0.193494 0.458886 0.148721
2423 1 0.546804 0.499168 0.252699
967 1 0.147178 0.394305 0.448984
370 1 0.251485 0.457478 0.0980302
371 1 0.246162 0.407887 0.150569
376 1 0.300412 0.462041 0.151794
570 1 0.243694 0.465303 0.197865
373 1 0.295399 0.408984 0.104304
374 1 0.35013 0.44613 0.106421
375 1 0.347311 0.398916 0.150882
2223 1 0.548952 0.497936 0.149694
379 1 0.446217 0.391809 0.144683
380 1 0.406769 0.442681 0.141637
578 1 0.449373 0.440292 0.206153
385 1 0.597991 0.400454 0.100891
384 1 0.502218 0.446242 0.145074
388 1 0.595446 0.43918 0.156587
387 1 0.647496 0.402267 0.144594
386 1 0.649263 0.447449 0.0943367
392 1 0.704523 0.445496 0.145743
972 1 0.194123 0.448757 0.448485
391 1 0.751714 0.398773 0.148189
590 1 0.753739 0.443066 0.210704
396 1 0.797888 0.453079 0.150393
1074 1 0.851878 0.149564 0.498702
397 1 0.900679 0.39123 0.0996797
394 1 0.848023 0.450071 0.100148
395 1 0.85324 0.392429 0.142381
400 1 0.901688 0.452367 0.147699
597 1 0.900515 0.397243 0.199856
1026 1 0.649831 0.0477006 0.499046
398 1 0.950374 0.444384 0.103419
561 1 0.0091368 0.393375 0.192484
598 1 0.950295 0.446759 0.199192
402 1 0.0507866 0.0544357 0.200971
408 1 0.101054 0.0408638 0.257083
441 1 0.00388275 0.107806 0.194014
602 1 0.0500107 0.0424315 0.304542
835 1 0.845694 0.00776616 0.450093
968 1 0.107419 0.462815 0.45209
406 1 0.142328 0.0473306 0.202355
445 1 0.100305 0.0981893 0.208143
447 1 0.156198 0.0925343 0.251533
412 1 0.192242 0.0399224 0.247913
964 1 0.998872 0.447167 0.449014
416 1 0.299625 0.0520006 0.25136
451 1 0.250369 0.0973693 0.253218
649 1 0.197798 0.0914016 0.307233
960 1 0.89923 0.340042 0.453044
414 1 0.346996 0.0419166 0.200946
420 1 0.393528 0.0455373 0.248497
957 1 0.89733 0.300895 0.401085
614 1 0.348889 0.0491322 0.297035
424 1 0.50578 0.0517138 0.251041
618 1 0.443926 0.0509764 0.301074
428 1 0.607665 0.0446794 0.246236
465 1 0.595537 0.101664 0.196917
999 1 0.943212 0.403857 0.44971
426 1 0.654303 0.0461817 0.199041
467 1 0.655138 0.0995172 0.251799
669 1 0.708612 0.0919255 0.299615
126 1 0.159782 0.355977 0.00386356
469 1 0.702144 0.100745 0.202072
430 1 0.74641 0.0422514 0.193254
432 1 0.705388 0.0495096 0.252255
471 1 0.751078 0.100475 0.236557
434 1 0.849142 0.0454441 0.205832
436 1 0.796749 0.0522778 0.241695
440 1 0.901062 0.0399849 0.241399
473 1 0.79757 0.101236 0.190486
2027 1 0.640953 0.499052 0.0536499
404 1 0.00117852 0.0476524 0.257125
438 1 0.94866 0.0484904 0.193954
479 1 0.957782 0.0970403 0.245308
481 1 0.0106739 0.195842 0.198359
443 1 0.0478372 0.0906423 0.257075
442 1 0.0558635 0.143445 0.211617
483 1 0.0585028 0.203849 0.243688
446 1 0.147535 0.151591 0.204736
448 1 0.102847 0.143256 0.264378
646 1 0.155619 0.145791 0.300373
487 1 0.15334 0.195782 0.256938
489 1 0.198166 0.191878 0.202943
449 1 0.199259 0.0891993 0.207334
452 1 0.203386 0.151908 0.252581
450 1 0.249821 0.136078 0.203415
456 1 0.301474 0.144258 0.244285
491 1 0.252157 0.202317 0.252726
650 1 0.249478 0.141433 0.303894
689 1 0.200155 0.200505 0.299244
455 1 0.344941 0.0974846 0.241014
495 1 0.347929 0.194468 0.250588
459 1 0.446459 0.0908283 0.249126
460 1 0.390734 0.142436 0.2417
464 1 0.495757 0.14601 0.253586
499 1 0.447908 0.197109 0.251056
661 1 0.501659 0.0973204 0.303005
463 1 0.550641 0.102322 0.252092
468 1 0.604438 0.139836 0.25062
662 1 0.54324 0.143214 0.301771
701 1 0.494172 0.198708 0.304777
665 1 0.60895 0.0919182 0.294568
666 1 0.65624 0.151895 0.293397
507 1 0.646158 0.202351 0.244536
709 1 0.705105 0.193293 0.286133
470 1 0.751824 0.153971 0.192109
472 1 0.706407 0.152617 0.240764
511 1 0.762145 0.196664 0.247629
670 1 0.75741 0.143611 0.296862
477 1 0.903795 0.0961686 0.201991
474 1 0.85727 0.14751 0.197957
475 1 0.851862 0.0947268 0.244832
476 1 0.812119 0.145248 0.260384
513 1 0.81271 0.197059 0.203014
515 1 0.860941 0.198661 0.250676
444 1 0.993535 0.151962 0.246529
480 1 0.901736 0.147869 0.245531
478 1 0.949486 0.155896 0.197342
525 1 0.106232 0.296311 0.201011
488 1 0.113159 0.247596 0.24997
484 1 0.00110395 0.242828 0.254002
523 1 0.045539 0.294746 0.25975
492 1 0.202103 0.249619 0.249961
527 1 0.160168 0.306128 0.248064
490 1 0.237504 0.250229 0.195821
531 1 0.249914 0.297986 0.241091
690 1 0.24722 0.250047 0.297585
493 1 0.298625 0.195803 0.198311
496 1 0.300116 0.245199 0.249163
494 1 0.352071 0.243441 0.204765
697 1 0.389803 0.186967 0.301636
500 1 0.399943 0.236228 0.255542
535 1 0.339167 0.293787 0.24083
698 1 0.448153 0.241442 0.302988
539 1 0.45215 0.293553 0.257735
503 1 0.540229 0.200811 0.253265
504 1 0.493288 0.250635 0.248829
702 1 0.546093 0.251452 0.297286
508 1 0.594887 0.258358 0.25067
547 1 0.653465 0.298277 0.237853
705 1 0.595425 0.208547 0.293743
706 1 0.653506 0.254437 0.294618
512 1 0.709996 0.24301 0.246087
516 1 0.802707 0.247416 0.256835
710 1 0.751222 0.253917 0.297461
551 1 0.752606 0.295988 0.250395
514 1 0.853827 0.252644 0.201759
520 1 0.904574 0.249147 0.253115
555 1 0.856382 0.29306 0.251198
714 1 0.851867 0.250375 0.301103
757 1 0.906701 0.303909 0.299365
518 1 0.950536 0.26058 0.194693
519 1 0.952776 0.203224 0.240341
718 1 0.956505 0.245556 0.307987
559 1 0.951933 0.296899 0.254518
522 1 0.0533807 0.347015 0.207062
725 1 0.105159 0.29604 0.298965
526 1 0.147127 0.355903 0.191186
528 1 0.103155 0.348573 0.257792
726 1 0.152793 0.339644 0.296156
532 1 0.206187 0.347575 0.252784
536 1 0.297807 0.353038 0.2418
730 1 0.252141 0.347972 0.30329
533 1 0.299355 0.290183 0.194154
534 1 0.346894 0.349601 0.201392
537 1 0.396127 0.294449 0.211976
540 1 0.398239 0.348823 0.247502
733 1 0.294995 0.294975 0.299628
538 1 0.451538 0.349082 0.205832
737 1 0.393688 0.303708 0.297293
543 1 0.548263 0.298907 0.2551
544 1 0.503633 0.349466 0.250929
742 1 0.549395 0.348644 0.298849
548 1 0.60124 0.332494 0.248944
749 1 0.701776 0.292492 0.305343
785 1 0.602442 0.390707 0.291074
552 1 0.708258 0.345084 0.25495
587 1 0.652269 0.394848 0.250368
746 1 0.652566 0.341998 0.297958
789 1 0.710682 0.397057 0.290431
550 1 0.760055 0.346662 0.203699
750 1 0.760209 0.347428 0.30232
553 1 0.801822 0.298832 0.208237
557 1 0.903613 0.301079 0.204031
554 1 0.85325 0.343149 0.207671
556 1 0.812174 0.349793 0.257934
595 1 0.853342 0.397767 0.254656
560 1 0.908004 0.351749 0.246788
524 1 0.00492421 0.346552 0.250635
758 1 0.950679 0.352885 0.298303
563 1 0.0542737 0.392378 0.255873
762 1 0.0488412 0.443672 0.305448
761 1 0.00348176 0.392634 0.298823
2625 1 0.608515 0.495216 0.279429
955 1 0.853163 0.29321 0.446858
995 1 0.844464 0.395383 0.450388
566 1 0.142783 0.455992 0.206556
567 1 0.15168 0.389174 0.251406
769 1 0.200141 0.405213 0.291008
765 1 0.100971 0.391437 0.302268
568 1 0.0992772 0.44064 0.255318
766 1 0.146803 0.451481 0.296693
571 1 0.246388 0.41236 0.241434
572 1 0.204022 0.459222 0.253612
770 1 0.254291 0.458113 0.300483
773 1 0.294976 0.405864 0.30068
574 1 0.357978 0.449019 0.190029
576 1 0.304701 0.450009 0.247316
575 1 0.348533 0.401195 0.246568
580 1 0.389324 0.447966 0.245451
1061 1 0.494759 0.0978052 0.492849
577 1 0.398594 0.395649 0.202606
579 1 0.44601 0.399461 0.256994
584 1 0.498692 0.455223 0.248604
583 1 0.551602 0.405086 0.250653
582 1 0.545867 0.460456 0.19875
782 1 0.544729 0.446619 0.295556
588 1 0.60498 0.449634 0.233435
956 1 0.80042 0.340251 0.44476
589 1 0.699493 0.399898 0.199513
586 1 0.656971 0.446432 0.201437
592 1 0.702322 0.453247 0.254995
786 1 0.65099 0.452737 0.296585
591 1 0.767112 0.389617 0.25115
593 1 0.804024 0.395652 0.199383
790 1 0.755815 0.441379 0.291725
596 1 0.814894 0.444162 0.246093
2417 1 0.407166 0.497818 0.200915
594 1 0.855611 0.453684 0.18804
793 1 0.803935 0.391122 0.309124
952 1 0.709065 0.350433 0.439225
599 1 0.964567 0.387272 0.240567
564 1 0.00528094 0.435396 0.254175
600 1 0.900243 0.449939 0.245304
641 1 0.997103 0.0859356 0.305293
608 1 0.09715 0.0401753 0.353645
604 1 0.997864 0.0442065 0.353543
606 1 0.146239 0.0438707 0.304036
647 1 0.148988 0.0906091 0.36071
991 1 0.748137 0.397043 0.439458
951 1 0.747219 0.301087 0.442649
949 1 0.699141 0.298007 0.388163
610 1 0.247282 0.0517255 0.307208
612 1 0.197453 0.0483832 0.357845
810 1 0.248796 0.0591434 0.397745
1186 1 0.65378 0.453625 0.487093
616 1 0.297338 0.0462777 0.349229
948 1 0.605628 0.340788 0.44343
620 1 0.39611 0.0539968 0.349598
818 1 0.448881 0.06015 0.398903
1114 1 0.854135 0.249131 0.499349
624 1 0.50519 0.0491622 0.362966
622 1 0.551681 0.0508086 0.302809
628 1 0.604679 0.0488899 0.35207
945 1 0.593811 0.296941 0.397462
942 1 0.553862 0.35437 0.400707
626 1 0.654174 0.0435979 0.28831
826 1 0.655541 0.0454992 0.398718
667 1 0.646806 0.0978536 0.351786
923 1 0.0448671 0.294393 0.450691
630 1 0.752084 0.0407213 0.297676
632 1 0.703401 0.0488663 0.348194
636 1 0.805023 0.0499591 0.342049
830 1 0.757606 0.0476148 0.393769
873 1 0.802882 0.0994562 0.400178
920 1 0.901919 0.249443 0.445857
983 1 0.556161 0.402985 0.448463
634 1 0.851422 0.0459361 0.289744
834 1 0.848146 0.0550175 0.403817
675 1 0.858598 0.0933529 0.354312
677 1 0.898472 0.0978384 0.293341
638 1 0.943543 0.0483723 0.302771
640 1 0.901943 0.0467476 0.350743
679 1 0.950572 0.0937915 0.349837
642 1 0.0483398 0.143001 0.299798
643 1 0.0470629 0.0838069 0.349146
644 1 0.00173189 0.134163 0.34549
683 1 0.040704 0.193114 0.34673
645 1 0.100616 0.0910009 0.309481
841 1 0.00509267 0.102216 0.401332
885 1 0.100033 0.203873 0.403013
648 1 0.105283 0.142727 0.34966
652 1 0.193022 0.153698 0.353971
685 1 0.102197 0.195225 0.306161
687 1 0.150943 0.200709 0.354627
651 1 0.242924 0.106123 0.351906
691 1 0.249018 0.192318 0.350378
889 1 0.203525 0.201451 0.407748
693 1 0.29483 0.190015 0.296485
849 1 0.193921 0.0987084 0.405426
893 1 0.29638 0.192777 0.401343
653 1 0.297092 0.0919362 0.3071
655 1 0.346666 0.0971456 0.343505
654 1 0.34384 0.144439 0.294939
656 1 0.296812 0.147027 0.351025
660 1 0.397266 0.14975 0.348956
695 1 0.347649 0.193656 0.351491
897 1 0.383551 0.200754 0.406929
659 1 0.446632 0.1029 0.347317
657 1 0.398062 0.103301 0.297306
658 1 0.447093 0.153915 0.304082
699 1 0.458736 0.201873 0.356747
858 1 0.447669 0.14486 0.40077
663 1 0.549691 0.0964211 0.359692
664 1 0.496211 0.150901 0.345357
862 1 0.55141 0.148892 0.397915
901 1 0.494425 0.198345 0.404237
865 1 0.602425 0.102539 0.402631
668 1 0.60462 0.154128 0.348603
707 1 0.658179 0.205196 0.339588
866 1 0.649301 0.151691 0.397896
869 1 0.701549 0.102 0.391256
673 1 0.806374 0.0991568 0.304739
672 1 0.705529 0.14943 0.347754
671 1 0.754488 0.10235 0.352485
676 1 0.805651 0.145544 0.352657
674 1 0.860835 0.145968 0.307454
680 1 0.90236 0.143145 0.358522
874 1 0.84967 0.143369 0.398315
917 1 0.897973 0.198411 0.406692
678 1 0.956586 0.13879 0.298295
878 1 0.950527 0.145535 0.404343
682 1 0.0446954 0.245493 0.308104
681 1 0.994795 0.19225 0.298573
684 1 0.00129944 0.251198 0.351756
723 1 0.0503442 0.296044 0.350934
925 1 0.0933675 0.289028 0.399563
688 1 0.0971444 0.248438 0.347384
686 1 0.15536 0.2478 0.308453
729 1 0.203909 0.301147 0.308176
692 1 0.211845 0.247275 0.35406
731 1 0.254782 0.303247 0.35959
694 1 0.351172 0.244859 0.300094
696 1 0.28716 0.245309 0.355686
735 1 0.340343 0.294593 0.351527
894 1 0.350143 0.253696 0.404636
937 1 0.405027 0.29614 0.396996
700 1 0.397636 0.245692 0.351339
898 1 0.444095 0.246556 0.407503
941 1 0.501235 0.294186 0.399058
704 1 0.505404 0.248108 0.353515
703 1 0.55194 0.192647 0.340234
741 1 0.497738 0.290662 0.304478
902 1 0.548099 0.238603 0.402087
745 1 0.601642 0.300204 0.303706
708 1 0.590354 0.245498 0.341422
712 1 0.702874 0.246448 0.346076
909 1 0.703459 0.201953 0.397267
747 1 0.647512 0.299645 0.347665
905 1 0.607231 0.199873 0.395658
753 1 0.808712 0.300216 0.301544
711 1 0.754685 0.205062 0.345483
713 1 0.81152 0.192918 0.298777
716 1 0.808809 0.238091 0.350536
913 1 0.806454 0.191171 0.392588
953 1 0.805298 0.293148 0.39432
910 1 0.749993 0.245604 0.393687
715 1 0.867027 0.197559 0.348826
755 1 0.857969 0.295138 0.351411
717 1 0.909312 0.195447 0.300139
720 1 0.906595 0.248825 0.344243
719 1 0.955853 0.188444 0.346376
759 1 0.955465 0.296954 0.358996
721 1 0.998643 0.30332 0.309337
722 1 0.057067 0.341301 0.303282
724 1 0.999905 0.351583 0.352188
961 1 0.00687735 0.397536 0.398826
728 1 0.102489 0.340978 0.353375
727 1 0.154778 0.306061 0.355139
732 1 0.216338 0.352045 0.363235
929 1 0.201869 0.300356 0.400816
969 1 0.200066 0.403502 0.403325
771 1 0.249952 0.410863 0.352468
930 1 0.259021 0.34915 0.408484
734 1 0.34329 0.350342 0.29312
736 1 0.295419 0.348676 0.357454
740 1 0.399351 0.348654 0.339594
977 1 0.406433 0.402077 0.390692
775 1 0.348906 0.401544 0.338135
738 1 0.4552 0.343118 0.300538
938 1 0.458102 0.344488 0.399885
739 1 0.444953 0.289712 0.348494
779 1 0.454722 0.394383 0.343685
744 1 0.496639 0.343222 0.347717
743 1 0.551424 0.296536 0.351563
783 1 0.550653 0.401688 0.340396
981 1 0.503826 0.402065 0.389824
748 1 0.600569 0.355212 0.344419
752 1 0.712028 0.342468 0.345955
985 1 0.606548 0.403667 0.396615
946 1 0.647214 0.346389 0.39188
751 1 0.753341 0.28957 0.350295
756 1 0.810424 0.34722 0.355186
950 1 0.756927 0.340652 0.392177
754 1 0.858809 0.344166 0.306164
993 1 0.807214 0.400102 0.398601
954 1 0.854102 0.350115 0.405828
797 1 0.899776 0.395551 0.298473
760 1 0.912835 0.343671 0.347997
997 1 0.896967 0.401029 0.412173
799 1 0.947796 0.40135 0.353843
958 1 0.942606 0.343982 0.405671
965 1 0.110009 0.393619 0.397848
763 1 0.0517246 0.394126 0.357947
962 1 0.0587246 0.448319 0.395367
190 1 0.744486 0.447244 0.00567416
633 1 0.803498 0.0022788 0.293932
918 1 0.950636 0.244033 0.400578
839 1 0.945006 0.00451726 0.452702
966 1 0.142215 0.456393 0.399854
768 1 0.102246 0.433999 0.346652
767 1 0.162601 0.39122 0.342934
772 1 0.192962 0.446379 0.354917
1065 1 0.606713 0.106301 0.498488
970 1 0.250734 0.448619 0.409338
213 1 0.296386 0.00467721 0.0942426
974 1 0.347871 0.449762 0.396002
776 1 0.309678 0.451975 0.350782
774 1 0.346295 0.448879 0.292024
780 1 0.393001 0.456267 0.347615
805 1 0.0922072 0.003657 0.402266
2633 1 0.80413 0.496647 0.299668
978 1 0.450656 0.449794 0.389213
777 1 0.397958 0.408206 0.294958
781 1 0.497948 0.39404 0.294388
778 1 0.448826 0.450103 0.294831
944 1 0.505977 0.356343 0.451236
982 1 0.559485 0.446015 0.384836
784 1 0.496576 0.445252 0.339146
986 1 0.652425 0.450699 0.381022
788 1 0.59874 0.44696 0.335336
787 1 0.663808 0.397878 0.33864
792 1 0.699802 0.452283 0.341829
979 1 0.454367 0.407413 0.44693
791 1 0.750872 0.411089 0.344267
796 1 0.807309 0.450795 0.346723
994 1 0.847927 0.455946 0.395824
794 1 0.853118 0.448438 0.300928
795 1 0.852694 0.399627 0.351482
1158 1 0.940549 0.351514 0.494894
178 1 0.454735 0.454431 0.00277387
798 1 0.948519 0.439788 0.285253
764 1 0.00104577 0.445091 0.350812
800 1 0.899163 0.450507 0.345742
149 1 0.694902 0.291241 0.00213686
802 1 0.051041 0.0521596 0.407662
1062 1 0.545961 0.154512 0.499183
804 1 0.996059 0.0476338 0.455163
2431 1 0.759446 0.498458 0.251943
845 1 0.10584 0.0910986 0.411319
808 1 0.0995603 0.0424944 0.45522
806 1 0.153303 0.0416039 0.405292
847 1 0.154155 0.0948606 0.455879
2603 1 0.0602814 0.491363 0.344135
1146 1 0.649235 0.355139 0.496071
812 1 0.200678 0.0473536 0.44845
940 1 0.403237 0.349474 0.44171
2003 1 0.0443457 0.490066 0.0483917
816 1 0.305931 0.0501037 0.451888
814 1 0.34457 0.0472993 0.399306
855 1 0.358536 0.0937125 0.444892
934 1 0.351264 0.348502 0.390498
884 1 0.998779 0.248748 0.449331
820 1 0.397816 0.042317 0.44656
824 1 0.498783 0.048519 0.444139
2403 1 0.0469751 0.49326 0.25177
2613 1 0.304673 0.496775 0.304435
822 1 0.551108 0.0528549 0.402389
425 1 0.605203 0.00364856 0.193954
1150 1 0.746776 0.344419 0.494463
828 1 0.606391 0.0581485 0.447032
973 1 0.299653 0.394256 0.40654
2601 1 0.00315429 0.494236 0.299304
1178 1 0.450909 0.447755 0.493482
70 1 0.748544 0.145747 0.00433904
2437 1 0.908773 0.498512 0.193667
832 1 0.699216 0.0429033 0.448234
836 1 0.798053 0.0573168 0.450424
871 1 0.747471 0.102688 0.440121
97 1 0.394202 0.192842 0.00379499
1153 1 0.795861 0.305295 0.497412
931 1 0.251977 0.299298 0.450948
875 1 0.85422 0.101565 0.454871
959 1 0.950065 0.290959 0.444721
2839 1 0.952478 0.49785 0.453453
840 1 0.892976 0.0506079 0.455556
838 1 0.949293 0.0556132 0.398232
879 1 0.952378 0.0996382 0.452191
1105 1 0.609205 0.197954 0.496527
843 1 0.0476963 0.109127 0.446972
842 1 0.0554947 0.145393 0.389693
844 1 0.997106 0.155943 0.455714
881 1 0.0035415 0.192174 0.403297
846 1 0.148267 0.140702 0.401995
848 1 0.092837 0.153317 0.449755
887 1 0.15392 0.194981 0.447014
850 1 0.23884 0.150022 0.403891
853 1 0.297868 0.097954 0.396923
851 1 0.252639 0.100716 0.455369
852 1 0.203907 0.152392 0.454863
891 1 0.252425 0.200278 0.453133
856 1 0.298084 0.143579 0.445419
854 1 0.34813 0.140379 0.393846
914 1 0.853543 0.243715 0.399772
857 1 0.398548 0.102654 0.394549
859 1 0.446138 0.102838 0.449058
860 1 0.396494 0.151512 0.449841
864 1 0.499693 0.146877 0.444629
932 1 0.196697 0.355127 0.450777
861 1 0.493624 0.1014 0.398379
863 1 0.552967 0.108018 0.452507
868 1 0.606695 0.152329 0.454306
936 1 0.301953 0.349745 0.461485
625 1 0.600353 0.0108442 0.303036
867 1 0.656626 0.0941135 0.443209
872 1 0.699382 0.154108 0.44274
927 1 0.142689 0.294218 0.452346
924 1 0.991714 0.34398 0.449844