ITEM: TIMESTEP
7000
ITEM: NUMBER OF ATOMS
5324
ITEM: BOX BOUNDS pp pp pp
0.0000000000000000e+00 5.7859999999999999e+01
0.0000000000000000e+00 5.7859999999999999e+01
0.0000000000000000e+00 5.7859999999999999e+01
ITEM: ATOMS id type xs ys zs
47 1 0.052607 0.0938736 0.0394736
244 1 0.0446244 0.0349326 0.0923608
291 1 0.0833645 0.09114 0.0933773
4 1 0.00393965 0.0497288 0.042163
5 1 0.0867716 0.00554186 0.00648169
8 1 0.0934536 0.0461915 0.0449845
51 1 0.132184 0.0918583 0.0468419
248 1 0.131336 0.0508857 0.0907115
12 1 0.174192 0.0522372 0.0449287
295 1 0.181589 0.0924729 0.0921563
251 1 0.173491 0.00788809 0.0839103
6 1 0.133699 0.0473797 0.000306763
55 1 0.228135 0.0943485 0.0438604
252 1 0.227644 0.0422089 0.0934666
16 1 0.264664 0.0477288 0.039626
10 1 0.218768 0.0441522 0.00437279
59 1 0.318989 0.0979973 0.046325
256 1 0.312875 0.0402428 0.0887988
20 1 0.357512 0.0382985 0.0482109
303 1 0.358476 0.0868301 0.0972682
61 1 0.359814 0.0978405 0.00422089
14 1 0.317534 0.0469753 0.00447056
63 1 0.401928 0.0854282 0.0467614
260 1 0.39874 0.0439879 0.0888822
24 1 0.447346 0.0458498 0.0500876
19 1 0.403729 0.000346392 0.0517354
18 1 0.402221 0.0414772 0.0018836
65 1 0.44365 0.0903701 0.00611402
307 1 0.46183 0.0888159 0.0913884
67 1 0.497863 0.0886082 0.0415495
264 1 0.502126 0.0444924 0.0835024
311 1 0.533078 0.0906191 0.0876196
28 1 0.538985 0.044361 0.038876
69 1 0.544052 0.0850608 0.000351753
71 1 0.586454 0.084337 0.0456158
268 1 0.583738 0.0410267 0.0929203
32 1 0.630513 0.0383327 0.0551057
315 1 0.634947 0.0863415 0.0897164
73 1 0.630389 0.0923077 0.00268661
29 1 0.628073 0.000158121 0.00227906
26 1 0.587184 0.0423441 0.00971189
75 1 0.677447 0.0783624 0.0393676
272 1 0.679003 0.0432958 0.0911159
30 1 0.671782 0.034606 0.00174614
36 1 0.728243 0.0420044 0.0488608
319 1 0.732308 0.095824 0.0883698
79 1 0.772971 0.0859806 0.0403448
276 1 0.771935 0.045505 0.0863566
323 1 0.811846 0.090287 0.0952768
40 1 0.811278 0.0432417 0.0438077
35 1 0.772307 0.00135415 0.0444736
280 1 0.85692 0.0469633 0.088879
83 1 0.863493 0.0890784 0.0494658
39 1 0.862711 0.00217189 0.0487916
38 1 0.868209 0.0421047 0.00261945
44 1 0.916624 0.0456571 0.0410833
287 1 0.999733 0.0857147 0.0924484
327 1 0.912773 0.0872731 0.0871174
284 1 0.955797 0.0413455 0.0834415
87 1 0.961748 0.0933357 0.0410743
42 1 0.961872 0.039179 0.00206651
91 1 0.0397694 0.180321 0.0498787
288 1 0.0454835 0.135202 0.0930513
331 1 0.00150282 0.186201 0.0985958
52 1 0.088501 0.134729 0.0403248
48 1 0.00684663 0.132462 0.0415836
335 1 0.0894823 0.179798 0.0907639
95 1 0.125735 0.185906 0.0403767
292 1 0.136653 0.142552 0.087675
56 1 0.176782 0.143046 0.0435106
339 1 0.184567 0.180549 0.0864079
99 1 0.223389 0.179714 0.0483067
296 1 0.222177 0.136397 0.0902077
60 1 0.266932 0.139912 0.0537419
343 1 0.269323 0.1882 0.0897995
101 1 0.264386 0.179179 0.00975678
103 1 0.313624 0.175377 0.0487122
300 1 0.317287 0.136262 0.0893487
347 1 0.371371 0.176574 0.0968761
64 1 0.365122 0.133165 0.0506307
107 1 0.401291 0.183114 0.0435058
304 1 0.418392 0.13076 0.0962056
68 1 0.446243 0.142821 0.0409415
62 1 0.401484 0.135702 0.00393615
351 1 0.458424 0.18402 0.091264
111 1 0.508311 0.175301 0.0460351
308 1 0.50298 0.141922 0.0985655
72 1 0.54793 0.135549 0.0465855
355 1 0.549973 0.180524 0.0911778
115 1 0.598099 0.186059 0.0461247
312 1 0.590868 0.135592 0.0907089
76 1 0.634881 0.135603 0.0476453
113 1 0.546087 0.183572 0.00122796
359 1 0.645497 0.177796 0.086614
119 1 0.683854 0.17493 0.0424376
316 1 0.687187 0.131945 0.0932382
363 1 0.732972 0.182186 0.0881469
80 1 0.730474 0.136242 0.0476729
123 1 0.770857 0.181082 0.0473287
320 1 0.77853 0.139963 0.0905214
367 1 0.821602 0.178058 0.0905953
84 1 0.821802 0.129426 0.0470915
127 1 0.861213 0.172928 0.0386939
324 1 0.866674 0.1295 0.0926371
371 1 0.908013 0.186232 0.091923
82 1 0.867412 0.12509 0.000452595
88 1 0.91164 0.137497 0.0469075
131 1 0.961987 0.178 0.0479397
328 1 0.9504 0.138825 0.0912623
135 1 0.0344811 0.27275 0.0493007
332 1 0.0340111 0.231011 0.0960485
92 1 0.00572741 0.226716 0.0438935
379 1 0.0868038 0.269357 0.0913803
96 1 0.0791215 0.228441 0.0420892
139 1 0.136283 0.275177 0.0452582
336 1 0.130496 0.230551 0.0840978
100 1 0.17798 0.221603 0.040932
141 1 0.178435 0.267058 0.00519546
94 1 0.136597 0.227084 0.00196188
383 1 0.186078 0.276025 0.0867188
143 1 0.229678 0.283062 0.0464034
340 1 0.218689 0.230383 0.0855592
104 1 0.271829 0.23324 0.043739
98 1 0.226531 0.232916 0.00369545
387 1 0.283308 0.264146 0.0915323
147 1 0.318986 0.277249 0.0414958
344 1 0.322359 0.219874 0.090893
391 1 0.357121 0.273626 0.0971072
108 1 0.364859 0.22925 0.0527223
151 1 0.409114 0.269264 0.0441468
149 1 0.369537 0.269324 0.0051641
112 1 0.457429 0.228783 0.0517344
395 1 0.468564 0.272703 0.0965937
155 1 0.502129 0.268108 0.0463425
352 1 0.500183 0.226235 0.0919644
157 1 0.543179 0.266417 0.00416648
110 1 0.50164 0.218768 0.00343463
399 1 0.551765 0.277964 0.0946269
116 1 0.546024 0.222367 0.0479844
159 1 0.598739 0.276508 0.0546244
356 1 0.595268 0.231356 0.0858152
114 1 0.59429 0.230443 0.0105351
161 1 0.640721 0.270498 0.00449488
403 1 0.640963 0.272776 0.0935799
120 1 0.64055 0.228488 0.0462051
163 1 0.69409 0.277046 0.0521023
360 1 0.688329 0.224904 0.093613
124 1 0.718264 0.220618 0.0450774
165 1 0.72187 0.272016 0.00270529
118 1 0.676935 0.225704 0.00479761
407 1 0.73143 0.270636 0.0973943
167 1 0.768419 0.259805 0.0428868
364 1 0.776257 0.22764 0.0928176
128 1 0.813719 0.216177 0.0471471
411 1 0.815235 0.26889 0.0838702
171 1 0.854755 0.265498 0.0448047
368 1 0.864886 0.227968 0.0919697
415 1 0.905533 0.2718 0.093929
132 1 0.90401 0.223988 0.0376338
126 1 0.856902 0.217929 0.00155284
175 1 0.954957 0.276649 0.0427141
372 1 0.94591 0.226736 0.0894529
133 1 0.990601 0.268496 0.00326092
130 1 0.951649 0.218741 0.00738262
177 1 0.00707792 0.349475 0.00663009
179 1 0.0464513 0.365082 0.0483885
376 1 0.0468656 0.320472 0.0885898
140 1 0.0827699 0.304337 0.0395363
419 1 0.00269221 0.360604 0.0883444
181 1 0.0821812 0.354015 0.0102362
423 1 0.0925389 0.371717 0.0988505
183 1 0.134155 0.356911 0.0444432
380 1 0.124851 0.316032 0.0877921
427 1 0.178616 0.372937 0.0938452
144 1 0.180718 0.323039 0.0510931
185 1 0.176394 0.366979 0.000726331
187 1 0.22849 0.362829 0.057184
384 1 0.224122 0.321236 0.0951667
142 1 0.231243 0.32454 0.00308491
431 1 0.275687 0.36795 0.0917005
148 1 0.277561 0.331365 0.043961
191 1 0.317935 0.367434 0.0502036
388 1 0.318934 0.323524 0.0933549
146 1 0.325498 0.321326 0.0063552
193 1 0.360679 0.367922 0.00314029
152 1 0.367157 0.313687 0.0516984
435 1 0.368795 0.368841 0.0911969
195 1 0.409199 0.364133 0.0485154
392 1 0.408666 0.308666 0.097355
156 1 0.447924 0.311829 0.0539487
150 1 0.405567 0.321731 0.000120356
197 1 0.45259 0.357599 0.00720103
199 1 0.495429 0.354813 0.0491643
443 1 0.541007 0.360417 0.0991539
201 1 0.538698 0.359705 0.00440592
154 1 0.5012 0.313843 0.00361966
160 1 0.548969 0.308133 0.0448766
203 1 0.588431 0.362303 0.0435649
400 1 0.591292 0.328743 0.0873657
164 1 0.642155 0.314495 0.0412409
447 1 0.642485 0.367153 0.0854669
207 1 0.684652 0.364261 0.048251
162 1 0.683049 0.323286 0.00206059
168 1 0.729635 0.319529 0.0398167
211 1 0.77456 0.364979 0.0574965
408 1 0.776381 0.309237 0.0899678
455 1 0.817878 0.361698 0.0978743
172 1 0.813774 0.309681 0.0350969
213 1 0.813958 0.368863 0.0107741
451 1 0.730609 0.36328 0.0954824
209 1 0.73285 0.36264 0.0019239
215 1 0.85653 0.367693 0.0520932
412 1 0.861439 0.310006 0.0856058
176 1 0.896791 0.307368 0.0421026
459 1 0.905629 0.357133 0.0857098
217 1 0.897317 0.355484 0.0087823
136 1 0.99911 0.31118 0.0503404
219 1 0.948767 0.358319 0.0474169
416 1 0.950012 0.317882 0.0959401
460 1 0.959639 0.398242 0.09209
174 1 0.95403 0.315793 0.00130512
222 1 0.0407592 0.456934 0.0476273
420 1 0.0493063 0.407074 0.0885171
184 1 0.0889853 0.409203 0.0408246
465 1 0.0902292 0.454427 0.095033
180 1 0.00278366 0.407374 0.0501943
178 1 0.0430093 0.400078 0.0016541
223 1 0.0835369 0.450974 0.00327215
2663 1 0.0446405 0.496989 0.00751198
221 1 0.0032654 0.449613 0.00312207
2907 1 0.130015 0.493635 0.0934603
2668 1 0.169374 0.4935 0.0458995
224 1 0.123675 0.451844 0.0455079
424 1 0.134282 0.407621 0.0849319
467 1 0.17528 0.456381 0.0919219
188 1 0.176029 0.406545 0.0418289
2666 1 0.0921969 0.499704 0.0443078
182 1 0.132928 0.401062 0.000682193
2909 1 0.220034 0.496648 0.0974915
226 1 0.214505 0.451029 0.0465213
428 1 0.221612 0.414938 0.0901968
2667 1 0.221003 0.494722 0.00420988
2670 1 0.270564 0.493178 0.0498606
186 1 0.226787 0.404095 0.00400796
2672 1 0.357097 0.498599 0.0437113
469 1 0.280164 0.447715 0.0933141
192 1 0.273208 0.407669 0.0395714
228 1 0.320741 0.457181 0.0508466
432 1 0.323877 0.408634 0.0915166
471 1 0.358235 0.457886 0.0981113
196 1 0.361476 0.414635 0.0514005
230 1 0.411003 0.460936 0.0380334
436 1 0.41779 0.415129 0.088588
200 1 0.448814 0.413367 0.0389103
2913 1 0.407139 0.499454 0.0865776
229 1 0.366993 0.454872 0.00154275
473 1 0.458021 0.455356 0.0775883
232 1 0.500144 0.453602 0.0446116
440 1 0.487233 0.405598 0.085402
204 1 0.54118 0.403943 0.0488987
475 1 0.540598 0.445505 0.0884563
2915 1 0.496731 0.49975 0.084305
198 1 0.494434 0.400831 0.00973722
2675 1 0.596573 0.492869 0.000959285
234 1 0.576683 0.461439 0.0471427
444 1 0.584056 0.402532 0.0923272
477 1 0.627678 0.452197 0.0848116
202 1 0.58795 0.407367 0.00608088
2919 1 0.685205 0.492137 0.0907291
208 1 0.644722 0.40926 0.046572
236 1 0.683497 0.452892 0.0416063
448 1 0.68331 0.414279 0.0945214
2678 1 0.636785 0.497526 0.0476031
2680 1 0.721858 0.497754 0.041915
235 1 0.641522 0.453056 0.00793163
2677 1 0.686094 0.498091 0.00116202
239 1 0.815806 0.456858 0.00941185
212 1 0.731292 0.406821 0.0479277
479 1 0.73184 0.456427 0.088432
452 1 0.774457 0.408686 0.0981936
238 1 0.770371 0.460143 0.0483542
216 1 0.813883 0.412517 0.0549558
237 1 0.728238 0.449539 0.000262686
241 1 0.908036 0.461668 0.00277987
481 1 0.823108 0.45802 0.0878
240 1 0.866149 0.455606 0.0454178
456 1 0.863005 0.406348 0.0941795
483 1 0.904713 0.466522 0.0966983
214 1 0.873367 0.413222 0.00355235
218 1 0.951045 0.408035 0.00404885
463 1 0.998726 0.459958 0.087868
220 1 0.909731 0.410891 0.0548069
242 1 0.951758 0.449422 0.0520513
2925 1 0.954757 0.498652 0.0906022
2683 1 0.961396 0.499498 0.00201919
289 1 0.0458991 0.0797496 0.138851
486 1 0.0429196 0.0444572 0.191176
533 1 0.0809747 0.0896051 0.186145
245 1 0.0304903 0.0091659 0.143703
250 1 0.0904945 0.042294 0.131293
249 1 0.129963 0.00174617 0.135806
493 1 0.179446 0.000301601 0.176445
489 1 0.0926988 0.00745177 0.178936
490 1 0.136779 0.0535261 0.178567
254 1 0.178989 0.0442672 0.132571
537 1 0.17395 0.0957503 0.17545
494 1 0.222539 0.0466536 0.179754
297 1 0.226896 0.0905889 0.134132
253 1 0.232669 0.00318319 0.137399
299 1 0.282009 0.0885239 0.10304
541 1 0.274575 0.0899478 0.170401
258 1 0.278304 0.0405241 0.135137
498 1 0.316893 0.0405203 0.177864
262 1 0.356937 0.0418345 0.134313
261 1 0.404736 0.00327378 0.139752
545 1 0.364491 0.0893692 0.189875
305 1 0.411285 0.0843502 0.134863
502 1 0.408521 0.0396374 0.185254
505 1 0.452199 0.000655625 0.180433
549 1 0.457209 0.0897133 0.18118
266 1 0.455556 0.0451514 0.13413
506 1 0.498276 0.0436884 0.182646
309 1 0.502557 0.0952149 0.141724
270 1 0.538188 0.0392925 0.133829
509 1 0.544544 0.00367442 0.190676
269 1 0.585692 0.00196181 0.132805
553 1 0.547984 0.0943869 0.177768
313 1 0.586954 0.0887633 0.129002
510 1 0.589267 0.0435269 0.177001
274 1 0.632385 0.0406989 0.135625
557 1 0.636791 0.0817892 0.182647
317 1 0.681229 0.084617 0.134586
514 1 0.684513 0.0389467 0.182692
561 1 0.725814 0.0846418 0.17766
273 1 0.68373 0.00213339 0.130628
278 1 0.727377 0.0415169 0.134999
321 1 0.777421 0.0840184 0.138357
518 1 0.777145 0.0440459 0.185059
282 1 0.815882 0.0366917 0.141613
565 1 0.825654 0.0957648 0.182685
325 1 0.870306 0.0874206 0.130242
522 1 0.865804 0.0456548 0.182107
286 1 0.908251 0.0479594 0.127455
569 1 0.905963 0.0959201 0.185516
521 1 0.820636 0.00540114 0.187501
246 1 0.983777 0.0576771 0.134599
529 1 0.992578 0.0963795 0.183526
526 1 0.946579 0.0572756 0.184418
525 1 0.917908 0.0046093 0.180946
485 1 0.991475 0.00680044 0.183616
333 1 0.0497361 0.182861 0.135441
530 1 0.0458438 0.141268 0.180469
294 1 0.0883204 0.133651 0.145831
573 1 0.00247176 0.181081 0.185408
293 1 0.134509 0.102822 0.133863
577 1 0.0914895 0.183407 0.18394
337 1 0.134781 0.184754 0.129228
534 1 0.132473 0.14305 0.178637
298 1 0.176423 0.141871 0.136312
581 1 0.183833 0.183521 0.177358
341 1 0.223354 0.179458 0.13441
538 1 0.22361 0.131121 0.176417
585 1 0.259659 0.181569 0.184625
302 1 0.269758 0.140951 0.134126
301 1 0.330005 0.100839 0.148369
345 1 0.318758 0.179253 0.13309
542 1 0.317419 0.147893 0.190798
306 1 0.371635 0.136998 0.138455
589 1 0.365846 0.180725 0.187228
349 1 0.41436 0.187245 0.146399
546 1 0.409581 0.142589 0.188949
310 1 0.454251 0.132321 0.141451
593 1 0.460429 0.183337 0.186988
353 1 0.502211 0.179949 0.143786
550 1 0.504761 0.136906 0.176708
314 1 0.558882 0.139435 0.137905
597 1 0.55052 0.170391 0.18535
357 1 0.59856 0.182951 0.130302
554 1 0.59931 0.128779 0.185694
601 1 0.644713 0.17382 0.179202
318 1 0.637953 0.133468 0.131138
361 1 0.690042 0.177665 0.13461
558 1 0.677754 0.127093 0.173918
322 1 0.729679 0.133951 0.139694
605 1 0.729883 0.176873 0.180938
365 1 0.779799 0.177866 0.143701
562 1 0.783566 0.132124 0.179846
326 1 0.823286 0.137889 0.137953
609 1 0.824683 0.177028 0.188789
369 1 0.863343 0.176676 0.142446
566 1 0.863674 0.134183 0.188772
613 1 0.907216 0.177569 0.181789
330 1 0.904356 0.13578 0.13858
329 1 0.948322 0.103538 0.137424
290 1 0.997601 0.132401 0.130944
373 1 0.94839 0.18104 0.137002
570 1 0.951455 0.139664 0.182746
377 1 0.0462359 0.267518 0.140612
574 1 0.0360583 0.224645 0.176956
621 1 0.0907664 0.26152 0.179009
338 1 0.0923228 0.225649 0.136539
381 1 0.138227 0.267256 0.132821
578 1 0.140363 0.223796 0.182178
625 1 0.178737 0.266649 0.179615
342 1 0.18578 0.235722 0.131017
385 1 0.228014 0.274606 0.12956
582 1 0.231077 0.229869 0.184438
346 1 0.269117 0.225589 0.138321
629 1 0.265433 0.277472 0.177223
389 1 0.316963 0.266235 0.138901
586 1 0.303278 0.222838 0.181723
633 1 0.36111 0.271929 0.18494
350 1 0.357438 0.225299 0.141651
348 1 0.403907 0.232702 0.100751
393 1 0.400352 0.272706 0.139445
590 1 0.409034 0.238874 0.188419
354 1 0.452513 0.227968 0.143441
637 1 0.460117 0.272039 0.181195
397 1 0.513033 0.272586 0.137734
594 1 0.503431 0.230981 0.176274
641 1 0.557524 0.269311 0.181536
358 1 0.548588 0.223803 0.125522
401 1 0.599033 0.270955 0.135588
598 1 0.598215 0.220533 0.177406
645 1 0.6409 0.269742 0.177335
362 1 0.637794 0.227242 0.133938
405 1 0.684824 0.2686 0.1325
602 1 0.68724 0.225029 0.183457
366 1 0.73628 0.228128 0.13879
649 1 0.733791 0.2687 0.180473
409 1 0.778106 0.276212 0.139723
606 1 0.777735 0.227485 0.179941
653 1 0.82223 0.2728 0.180801
370 1 0.824916 0.227413 0.143991
413 1 0.865675 0.278628 0.144832
610 1 0.862882 0.222561 0.193501
374 1 0.901695 0.223955 0.141388
375 1 0.990584 0.266275 0.101296
617 1 0.995126 0.263655 0.184558
657 1 0.909188 0.275237 0.185681
334 1 0.989916 0.21994 0.142434
417 1 0.941776 0.268073 0.140012
614 1 0.948264 0.225696 0.184182
421 1 0.0349766 0.366173 0.139272
618 1 0.0430022 0.307698 0.187924
382 1 0.0862673 0.321184 0.129767
665 1 0.0808033 0.361146 0.187979
425 1 0.132114 0.357002 0.144766
622 1 0.124807 0.312667 0.17952
669 1 0.176545 0.365003 0.181347
386 1 0.17502 0.310397 0.132781
429 1 0.232227 0.367685 0.135303
626 1 0.219469 0.322735 0.169732
673 1 0.273571 0.359276 0.180677
390 1 0.277048 0.310887 0.131182
433 1 0.316002 0.361286 0.137636
630 1 0.323452 0.320305 0.17396
394 1 0.362934 0.320237 0.13081
677 1 0.355239 0.368728 0.178247
439 1 0.45108 0.360679 0.103312
437 1 0.404078 0.355243 0.145938
634 1 0.411718 0.314956 0.191413
398 1 0.453855 0.313676 0.139489
396 1 0.503249 0.320673 0.10073
681 1 0.459181 0.356447 0.182193
441 1 0.501096 0.355167 0.143248
638 1 0.501851 0.309844 0.177856
402 1 0.557083 0.318269 0.136972
445 1 0.597362 0.364494 0.136765
642 1 0.597375 0.321472 0.180022
685 1 0.55003 0.359824 0.178501
404 1 0.688412 0.325025 0.100422
689 1 0.642869 0.362784 0.189112
406 1 0.638673 0.321701 0.125797
449 1 0.680746 0.362775 0.142061
646 1 0.685472 0.312208 0.176836
693 1 0.733361 0.366318 0.179742
410 1 0.734518 0.3212 0.138246
453 1 0.77427 0.363167 0.137475
650 1 0.770772 0.32203 0.187196
414 1 0.817678 0.325712 0.146794
697 1 0.819692 0.36648 0.183777
457 1 0.868675 0.358563 0.135045
654 1 0.871814 0.318299 0.192186
418 1 0.914791 0.320803 0.143269
378 1 0.996396 0.309229 0.144215
661 1 0.993598 0.36407 0.188373
461 1 0.961281 0.354687 0.142288
658 1 0.959257 0.314109 0.191067
701 1 0.910413 0.362003 0.180895
464 1 0.0487863 0.461968 0.139235
662 1 0.0508809 0.414362 0.181688
422 1 0.000441466 0.414439 0.130978
426 1 0.0863211 0.402403 0.141363
707 1 0.0970937 0.451833 0.182303
466 1 0.135374 0.457762 0.138472
666 1 0.145363 0.413479 0.173787
2910 1 0.17888 0.49834 0.13466
3151 1 0.224985 0.499066 0.182337
430 1 0.185559 0.411002 0.138492
709 1 0.185132 0.453728 0.172784
468 1 0.232734 0.45214 0.140516
670 1 0.230157 0.404425 0.182941
711 1 0.271489 0.458711 0.185631
674 1 0.317619 0.414256 0.184463
434 1 0.276828 0.410808 0.142958
470 1 0.317672 0.457464 0.139558
438 1 0.361237 0.415565 0.143268
713 1 0.360552 0.457552 0.182304
2914 1 0.35943 0.498419 0.138255
3153 1 0.30698 0.499913 0.182542
472 1 0.408787 0.451108 0.136261
678 1 0.409174 0.408366 0.181412
442 1 0.448715 0.404796 0.141016
715 1 0.450205 0.452588 0.18608
3155 1 0.404997 0.499406 0.181714
474 1 0.489908 0.457004 0.135888
682 1 0.496009 0.407838 0.177291
717 1 0.541494 0.460006 0.174033
446 1 0.540694 0.408999 0.135531
2918 1 0.531781 0.498557 0.128686
476 1 0.583238 0.462454 0.12813
686 1 0.587003 0.412748 0.170899
719 1 0.633976 0.454413 0.176012
2920 1 0.632416 0.494198 0.139395
450 1 0.637446 0.411038 0.135432
478 1 0.681631 0.456474 0.137123
690 1 0.684818 0.411622 0.178679
721 1 0.724374 0.451145 0.177082
454 1 0.730957 0.407733 0.137575
480 1 0.78058 0.453281 0.127597
694 1 0.776531 0.413192 0.1705
723 1 0.816902 0.45876 0.183312
3165 1 0.863863 0.498034 0.183783
458 1 0.826188 0.407048 0.140813
482 1 0.851138 0.4638 0.135388
698 1 0.866954 0.410349 0.179013
705 1 0.994077 0.449178 0.1802
462 1 0.912067 0.409578 0.129868
725 1 0.912003 0.454995 0.180082
484 1 0.955009 0.459594 0.136391
702 1 0.957212 0.404828 0.170848
531 1 0.045561 0.0982391 0.230141
728 1 0.0408783 0.0498883 0.275285
492 1 0.0858855 0.0494205 0.231118
775 1 0.0875684 0.0972005 0.270329
771 1 0.00744188 0.0955305 0.275951
487 1 0.0412901 0.000926798 0.231142
535 1 0.132804 0.0879769 0.222222
732 1 0.134764 0.0405339 0.274414
496 1 0.178488 0.0492474 0.222782
779 1 0.179245 0.0880187 0.265478
491 1 0.132878 0.00266631 0.224412
739 1 0.265757 0.00644264 0.270763
735 1 0.184698 0.00105486 0.277745
539 1 0.227126 0.0885322 0.227439
736 1 0.224707 0.047126 0.269809
500 1 0.27173 0.0491298 0.217841
495 1 0.223009 0.0053031 0.227621
499 1 0.32017 0.00934793 0.23337
783 1 0.2729 0.0909251 0.268804
740 1 0.318105 0.0525951 0.271799
543 1 0.315196 0.0926816 0.227856
504 1 0.362519 0.0483689 0.230899
787 1 0.364715 0.0895603 0.273973
547 1 0.412375 0.093243 0.231054
744 1 0.40408 0.0460782 0.273426
508 1 0.452884 0.0449072 0.228939
507 1 0.503958 0.00169565 0.233071
551 1 0.488477 0.0894767 0.229801
748 1 0.5035 0.0519936 0.277622
512 1 0.54481 0.0506332 0.227676
511 1 0.589068 0.00643108 0.23147
795 1 0.549104 0.0894838 0.278153
752 1 0.595535 0.0420607 0.274946
516 1 0.631431 0.0440956 0.225479
555 1 0.595244 0.0860822 0.225714
751 1 0.547906 0.00574765 0.270884
755 1 0.63673 0.000430478 0.275951
799 1 0.641554 0.0839533 0.264502
559 1 0.684735 0.0843617 0.223086
756 1 0.684684 0.0460606 0.265293
803 1 0.732971 0.0916093 0.258231
520 1 0.735157 0.0434948 0.222483
563 1 0.7858 0.0842208 0.220993
760 1 0.772842 0.0512231 0.263686
767 1 0.907266 2.38407e-05 0.276241
807 1 0.81876 0.0836162 0.277431
524 1 0.827804 0.0400347 0.229545
567 1 0.863833 0.0891622 0.231331
764 1 0.863069 0.0406833 0.275095
528 1 0.906263 0.0470302 0.225389
811 1 0.907696 0.0842089 0.267104
523 1 0.871026 0.00154201 0.225856
527 1 0.953186 0.0011421 0.229738
488 1 0.995514 0.0456423 0.224354
571 1 0.955554 0.094983 0.230071
768 1 0.947677 0.0388596 0.27289
727 1 0.995341 0.00322577 0.267681
575 1 0.0432266 0.176227 0.22442
772 1 0.0466925 0.138144 0.271209
815 1 0.00523584 0.178684 0.282264
536 1 0.0949891 0.132387 0.224048
819 1 0.093795 0.178755 0.268097
579 1 0.13573 0.178852 0.224371
776 1 0.145274 0.140153 0.264756
823 1 0.180003 0.191591 0.272402
540 1 0.185349 0.134317 0.224722
583 1 0.224507 0.18029 0.231909
780 1 0.222918 0.134419 0.277283
827 1 0.270627 0.186905 0.276888
544 1 0.269493 0.142224 0.23418
587 1 0.311101 0.187986 0.233657
784 1 0.314092 0.138169 0.275735
548 1 0.357263 0.136598 0.235115
831 1 0.357303 0.18401 0.273299
591 1 0.407824 0.191863 0.227419
788 1 0.411331 0.138926 0.262822
791 1 0.455691 0.100379 0.285178
552 1 0.460771 0.141483 0.22552
835 1 0.457066 0.184567 0.267762
595 1 0.503131 0.183247 0.233878
792 1 0.503761 0.138922 0.277855
556 1 0.548874 0.134185 0.232835
839 1 0.546115 0.181275 0.277805
599 1 0.597152 0.178879 0.219737
796 1 0.592887 0.136011 0.270698
843 1 0.63042 0.185041 0.27055
560 1 0.648261 0.138256 0.22408
603 1 0.691842 0.183197 0.229245
800 1 0.677357 0.13523 0.273605
847 1 0.729185 0.179588 0.273469
564 1 0.733879 0.129617 0.219193
607 1 0.7693 0.181643 0.23063
804 1 0.769934 0.135138 0.272142
851 1 0.812598 0.17625 0.276793
568 1 0.815193 0.134684 0.235252
611 1 0.862176 0.18111 0.234479
808 1 0.859186 0.139406 0.280965
855 1 0.901848 0.187565 0.275883
572 1 0.909269 0.13547 0.232229
532 1 0.989638 0.135098 0.235671
615 1 0.951365 0.180983 0.23529
812 1 0.948323 0.129502 0.276064
619 1 0.0430962 0.264258 0.227062
816 1 0.0388968 0.226941 0.273282
580 1 0.0763586 0.218599 0.232836
863 1 0.0823509 0.265885 0.269726
623 1 0.128851 0.265699 0.222433
820 1 0.133764 0.230412 0.274708
867 1 0.180759 0.266378 0.269741
584 1 0.189598 0.231618 0.225772
627 1 0.227048 0.278744 0.220791
824 1 0.227775 0.23061 0.27939
871 1 0.260071 0.274873 0.27684
588 1 0.272391 0.233019 0.234723
631 1 0.317863 0.270676 0.229168
828 1 0.317385 0.231692 0.276822
875 1 0.358269 0.280786 0.275975
592 1 0.364311 0.22971 0.232714
635 1 0.402681 0.272744 0.233902
832 1 0.403553 0.235786 0.276536
596 1 0.451841 0.230819 0.229971
879 1 0.449143 0.276904 0.282513
639 1 0.498208 0.269834 0.224836
836 1 0.501204 0.230941 0.269169
600 1 0.547705 0.226619 0.224513
883 1 0.54569 0.283587 0.266238
643 1 0.60028 0.268277 0.219566
840 1 0.58039 0.233078 0.274003
887 1 0.634863 0.271857 0.272353
604 1 0.640567 0.222845 0.222635
647 1 0.683478 0.270605 0.21986
844 1 0.679649 0.231017 0.267253
608 1 0.731982 0.224328 0.231688
891 1 0.734355 0.27712 0.27184
651 1 0.774294 0.268545 0.224368
848 1 0.774758 0.22102 0.275402
612 1 0.815935 0.221517 0.231591
895 1 0.811389 0.274538 0.274849
655 1 0.86499 0.270757 0.227057
852 1 0.864863 0.228992 0.278833
899 1 0.905035 0.275613 0.27468
576 1 0.995275 0.221058 0.233145
859 1 0.998936 0.270078 0.27612
616 1 0.91176 0.230329 0.234176
659 1 0.959013 0.269044 0.231927
856 1 0.956997 0.230483 0.277055
663 1 0.0387156 0.372995 0.222154
860 1 0.0507611 0.318448 0.282919
620 1 0.00803634 0.315565 0.232325
624 1 0.0759499 0.323401 0.229335
903 1 0.00569185 0.37515 0.273475
907 1 0.0995937 0.35618 0.276146
667 1 0.13073 0.361233 0.226743
864 1 0.130619 0.31026 0.271615
628 1 0.178353 0.313599 0.222713
911 1 0.173795 0.362387 0.273284
671 1 0.220381 0.368801 0.232677
868 1 0.214066 0.321912 0.266368
915 1 0.269022 0.357216 0.275907
632 1 0.274692 0.315964 0.224665
675 1 0.318296 0.361007 0.221295
872 1 0.316693 0.320249 0.265656
919 1 0.354565 0.369863 0.268386
636 1 0.359161 0.313139 0.223526
679 1 0.406346 0.366215 0.218216
876 1 0.402917 0.316195 0.26672
640 1 0.4488 0.318245 0.23342
923 1 0.444298 0.363548 0.272249
683 1 0.504753 0.358463 0.227763
880 1 0.49311 0.316718 0.278481
644 1 0.546238 0.311301 0.217238
927 1 0.557314 0.36826 0.274142
687 1 0.58879 0.367387 0.226158
884 1 0.59238 0.314707 0.26376
648 1 0.643628 0.315627 0.223442
931 1 0.641603 0.35832 0.265047
691 1 0.690584 0.367647 0.22931
888 1 0.688239 0.320049 0.276501
935 1 0.726471 0.373369 0.275705
652 1 0.729149 0.322071 0.234941
695 1 0.77656 0.366172 0.225082
892 1 0.77164 0.32422 0.279074
656 1 0.820481 0.320872 0.226346
939 1 0.829167 0.362942 0.263216
699 1 0.87744 0.367143 0.223996
896 1 0.868844 0.319761 0.272336
943 1 0.90865 0.365762 0.275203
660 1 0.916098 0.315621 0.233395
703 1 0.953854 0.361213 0.230511
900 1 0.956829 0.31964 0.27608
904 1 0.0459074 0.412594 0.284679
706 1 0.0409148 0.457366 0.236139
668 1 0.0907493 0.402424 0.23351
3150 1 0.0846819 0.498672 0.233712
949 1 0.0917074 0.458346 0.275267
708 1 0.145779 0.453602 0.221687
908 1 0.132594 0.416948 0.27021
951 1 0.173268 0.454756 0.277439
672 1 0.180556 0.408913 0.224979
3393 1 0.220257 0.494852 0.278568
3154 1 0.261325 0.498348 0.227926
710 1 0.223508 0.448302 0.22271
912 1 0.222183 0.418562 0.279169
676 1 0.271886 0.403952 0.222076
953 1 0.271696 0.454188 0.265927
916 1 0.316973 0.412017 0.267286
712 1 0.317614 0.461429 0.232349
955 1 0.356566 0.459359 0.273491
680 1 0.362149 0.407992 0.223902
920 1 0.395384 0.406473 0.274995
714 1 0.398653 0.453818 0.231637
957 1 0.446795 0.446931 0.270269
684 1 0.4483 0.401641 0.222306
3158 1 0.451885 0.498486 0.224363
3160 1 0.536562 0.498051 0.226273
716 1 0.496197 0.455586 0.22582
924 1 0.499491 0.412973 0.265254
688 1 0.53715 0.410277 0.216509
959 1 0.54421 0.45263 0.266721
3399 1 0.490634 0.492518 0.277976
3401 1 0.590815 0.497785 0.274279
718 1 0.58716 0.456753 0.218993
928 1 0.585026 0.413857 0.259082
692 1 0.640526 0.416555 0.228724
961 1 0.644416 0.46618 0.265897
720 1 0.686116 0.455348 0.22894
932 1 0.677302 0.407929 0.267171
963 1 0.723078 0.449157 0.272454
3405 1 0.77189 0.496917 0.271396
696 1 0.730485 0.410889 0.219906
722 1 0.768929 0.456714 0.218751
936 1 0.781473 0.410545 0.260933
3166 1 0.818799 0.497503 0.226313
3168 1 0.904116 0.49958 0.227046
700 1 0.824424 0.408204 0.226899
965 1 0.823859 0.457843 0.264388
940 1 0.870392 0.407814 0.270273
724 1 0.874596 0.444014 0.226191
664 1 0.994807 0.415245 0.226102
947 1 0.995244 0.466855 0.279315
3409 1 0.949299 0.499601 0.276363
704 1 0.923608 0.408625 0.22138
967 1 0.914188 0.455713 0.2735
726 1 0.954541 0.45411 0.233713
944 1 0.953644 0.410668 0.268493
773 1 0.0504742 0.09633 0.315471
970 1 0.0604927 0.0526309 0.364514
1013 1 0.00105445 0.0911143 0.35996
730 1 0.000278106 0.0455158 0.316573
729 1 0.0390038 0.000475409 0.313394
734 1 0.094518 0.0378377 0.316861
777 1 0.140517 0.0867593 0.309301
974 1 0.136506 0.0504687 0.363352
738 1 0.181204 0.0434565 0.316559
977 1 0.189465 0.00232972 0.353008
1021 1 0.191896 0.0841686 0.363927
781 1 0.228796 0.0900387 0.314469
978 1 0.23031 0.0445747 0.356369
1025 1 0.2684 0.09358 0.362062
980 1 0.182925 0.0403437 0.393816
737 1 0.232664 0.000789027 0.315021
742 1 0.276869 0.0458196 0.313186
785 1 0.325591 0.0937691 0.323673
982 1 0.313144 0.0458467 0.356701
1027 1 0.315363 0.0908511 0.399427
741 1 0.321174 0.0061467 0.305549
745 1 0.405181 0.00154052 0.312927
746 1 0.363697 0.0477171 0.3187
988 1 0.369071 0.0472758 0.398099
986 1 0.412551 0.049309 0.36095
750 1 0.45384 0.0437238 0.317381
789 1 0.409264 0.0978191 0.318079
749 1 0.498354 0.00245252 0.306166
993 1 0.535161 0.000945482 0.361829
793 1 0.501131 0.0943443 0.323898
990 1 0.496585 0.0508146 0.362799
754 1 0.545041 0.0358158 0.321208
995 1 0.587262 0.000216863 0.39895
1037 1 0.551243 0.0847372 0.355422
797 1 0.593416 0.0891587 0.314449
994 1 0.59292 0.0472029 0.357105
1041 1 0.63494 0.0896845 0.363824
997 1 0.638002 0.00497131 0.363704
758 1 0.64013 0.0486734 0.317958
801 1 0.684101 0.0847547 0.314495
998 1 0.678437 0.0505796 0.362228
761 1 0.776566 0.0019605 0.316608
762 1 0.73172 0.0433723 0.311948
1045 1 0.728317 0.0911063 0.376077
805 1 0.769459 0.085141 0.321303
1002 1 0.779519 0.0426137 0.365739
1049 1 0.817242 0.0882268 0.371665
766 1 0.815589 0.0448602 0.318637
809 1 0.866247 0.0949535 0.318247
1006 1 0.863686 0.0446823 0.360842
770 1 0.904627 0.0434531 0.319147
813 1 0.954171 0.088983 0.316532
1010 1 0.951942 0.0474283 0.364235
1053 1 0.911752 0.092001 0.358514
817 1 0.0494691 0.185322 0.318323
1014 1 0.0464123 0.13388 0.364358
1061 1 0.0907925 0.175934 0.361732
1017 1 0.101235 0.100501 0.363013
778 1 0.10849 0.140921 0.314526
821 1 0.144573 0.181965 0.322807
1018 1 0.138542 0.14081 0.365093
1065 1 0.186711 0.179919 0.37423
782 1 0.185562 0.128434 0.322916
825 1 0.219617 0.185125 0.322534
1022 1 0.225507 0.135235 0.364975
786 1 0.267534 0.139639 0.324066
1069 1 0.263715 0.187166 0.365891
829 1 0.324765 0.183832 0.317508
1026 1 0.31622 0.135861 0.358052
1073 1 0.363284 0.181342 0.366948
1029 1 0.367102 0.105801 0.367992
790 1 0.367615 0.140995 0.316334
833 1 0.403084 0.186515 0.312798
1030 1 0.410969 0.1453 0.3638
794 1 0.44654 0.148569 0.314166
1033 1 0.455694 0.103774 0.371273
1077 1 0.462918 0.1848 0.366501
837 1 0.501711 0.179023 0.325852
1034 1 0.513216 0.132482 0.362731
1081 1 0.551918 0.185828 0.365852
798 1 0.546875 0.136757 0.313725
841 1 0.58401 0.184232 0.319498
1038 1 0.582331 0.13433 0.35857
802 1 0.636073 0.129152 0.312619
1085 1 0.64849 0.181317 0.355329
845 1 0.6813 0.182114 0.308398
1042 1 0.685888 0.127023 0.355121
806 1 0.735543 0.127128 0.311084
1089 1 0.733978 0.184955 0.358495
849 1 0.775528 0.180472 0.321234
1046 1 0.772689 0.13295 0.360297
810 1 0.81667 0.138216 0.322775
1093 1 0.814425 0.184865 0.365106
853 1 0.860803 0.183284 0.329174
1050 1 0.861964 0.137732 0.367387
1097 1 0.904502 0.180209 0.366193
774 1 0.999379 0.133218 0.316805
814 1 0.910802 0.141922 0.31703
1057 1 0.996204 0.1753 0.359833
857 1 0.955595 0.176654 0.310802
1054 1 0.954429 0.135345 0.36161