ITEM: TIMESTEP
17000
ITEM: NUMBER OF ATOMS
864
ITEM: BOX BOUNDS pp pp pp
0.0000000000000000e+00 3.1559999999999999e+01
0.0000000000000000e+00 3.1559999999999999e+01
0.0000000000000000e+00 3.1559999999999999e+01
ITEM: ATOMS id type xs ys zs
8 1 0.162087 0.0940362 0.0914251
4 1 0.98958 0.0923994 0.0807308
27 1 0.0823979 0.172684 0.08534
74 1 0.0737967 0.0822545 0.153696
73 1 1.0025 -0.00220236 0.168223
525 1 0.834998 0.502349 0.16607
7 1 0.250837 0.0120564 0.0861794
15 1 0.587949 0.00448983 0.0803491
12 1 0.353499 0.0856613 0.072717
82 1 0.41684 0.0804975 0.170685
16 1 0.511852 0.0823561 0.0867393
3 1 0.0846072 -0.0106116 0.0857554
278 1 0.583101 0.403469 0.489173
86 1 0.578501 0.0790886 0.170451
20 1 0.670808 0.0794839 0.0915538
234 1 0.756773 0.0846039 0.50608
24 1 0.836765 0.0868809 0.0901821
90 1 0.758342 0.0762692 0.174211
230 1 0.578281 0.080964 0.502238
94 1 0.928309 0.0888593 0.179132
47 1 0.904329 0.172002 0.0883414
98 1 0.0803037 0.257568 0.156737
32 1 0.163636 0.256941 0.0800705
51 1 0.0946325 0.345548 0.0914104
11 1 0.422401 0.00556209 0.0642526
246 1 0.250332 0.249317 0.482118
31 1 0.246071 0.171186 0.0875291
36 1 0.335889 0.255544 0.0749358
55 1 0.251795 0.34746 0.0778832
105 1 0.344624 0.172694 0.154729
101 1 0.167783 0.192152 0.172521
102 1 0.260586 0.257402 0.159934
69 1 0.839261 0.340384 -0.0100625
35 1 0.423653 0.179744 0.0737719
40 1 0.508453 0.257785 0.0985302
133 1 0.496422 0.343242 0.170392
39 1 0.580546 0.177347 0.0983413
63 1 0.586091 0.33674 0.10391
44 1 0.676279 0.243384 0.0891302
110 1 0.596866 0.250025 0.168736
85 1 0.497724 0.00132569 0.17328
43 1 0.746441 0.158499 0.0816769
114 1 0.750616 0.233507 0.171948
67 1 0.742993 0.350088 0.0966001
97 1 0.00398371 0.174763 0.176189
28 1 0.0025037 0.250316 0.089108
48 1 0.818756 0.235306 0.091283
117 1 0.823796 0.157377 0.171795
118 1 0.923164 0.250699 0.162321
22 1 0.918304 0.0814943 0.0160616
52 1 0.992997 0.432528 0.0882228
56 1 0.16737 0.423138 0.0769514
122 1 0.100054 0.428204 0.173409
121 1 1.0006 0.340875 0.15514
665 1 0.675319 0.488613 0.49914
126 1 0.252846 0.428275 0.162193
60 1 0.34037 0.427342 0.0813136
527 1 0.911458 0.492662 0.261064
59 1 0.425458 0.325052 0.0728753
64 1 0.512555 0.427028 0.0911508
2 1 0.0778912 0.0954773 0.0108365
70 1 0.908765 0.420134 0.00604317
277 1 0.508609 0.326301 0.500139
250 1 0.411735 0.246605 0.504868
226 1 0.423487 0.0882049 0.500105
68 1 0.657817 0.420624 0.0955336
273 1 0.332615 0.321638 0.49574
196 1 1.00907 0.419284 0.417
451 1 0.748417 0.509034 0.0892251
72 1 0.830162 0.401266 0.091583
249 1 0.330564 0.15366 0.501673
216 1 0.817919 0.418355 0.425322
71 1 0.913196 0.329892 0.0849404
142 1 0.904336 0.419309 0.161014
99 1 0.0889832 0.187536 0.250013
76 1 1.00305 0.0896985 0.246584
194 1 0.0873472 0.426454 0.305799
214 1 0.903765 0.41191 0.338086
80 1 0.148704 0.0889762 0.233195
78 1 0.238177 0.0952379 0.168378
84 1 0.326035 0.0910925 0.241847
153 1 0.316563 0.00661995 0.333071
66 1 0.756625 0.406763 0.00060776
107 1 0.405814 0.155562 0.24357
154 1 0.41101 0.0834888 0.325172
88 1 0.491555 0.0896438 0.246654
92 1 0.654996 0.0900349 0.249554
113 1 0.687604 0.148878 0.167758
158 1 0.577747 0.0686335 0.337579
577 1 -0.000451547 0.492021 0.331522
96 1 0.838955 0.0659671 0.25855
115 1 0.751374 0.142658 0.253841
162 1 0.764354 0.0701548 0.33505
238 1 0.934757 0.090679 0.484087
166 1 0.929753 0.0785672 0.334539
192 1 0.843631 0.254748 0.410584
42 1 0.751955 0.241519 -0.00235262
91 1 0.743385 -0.00196313 0.253909
169 1 0.00422411 0.168053 0.320467
104 1 0.169276 0.260384 0.260081
123 1 0.0928463 0.325347 0.271499
103 1 0.24796 0.174901 0.246929
201 1 0.340619 0.327752 0.333231
108 1 0.347435 0.257852 0.242863
127 1 0.260122 0.354826 0.248793
109 1 0.499257 0.173129 0.169021
106 1 0.413661 0.253196 0.172079
129 1 0.335416 0.347503 0.151858
112 1 0.501794 0.243844 0.241956
181 1 0.49696 0.152487 0.323953
178 1 0.428425 0.241211 0.317823
131 1 0.412718 0.340207 0.246303
111 1 0.588403 0.168245 0.243568
135 1 0.57693 0.346295 0.247776
116 1 0.678809 0.236175 0.265927
186 1 0.764996 0.24114 0.318847
120 1 0.840587 0.254199 0.245754
141 1 0.84216 0.316858 0.16509
189 1 0.835362 0.156559 0.34
119 1 0.905743 0.157669 0.260678
100 1 0.00514414 0.26408 0.245518
143 1 0.907833 0.333587 0.245746
211 1 0.750848 0.318 0.400851
183 1 0.582213 0.165915 0.412612
125 1 0.17926 0.33534 0.181072
128 1 0.178042 0.421158 0.24245
213 1 0.839795 0.33196 0.332885
132 1 0.339127 0.430337 0.249655
130 1 0.421084 0.419942 0.161975
187 1 0.763116 0.160602 0.408152
134 1 0.586105 0.422246 0.170962
136 1 0.500674 0.421344 0.238104
209 1 0.667871 0.329191 0.322952
140 1 0.671462 0.424322 0.251982
210 1 0.747567 0.412696 0.338327
137 1 0.674928 0.34397 0.187629
138 1 0.742045 0.431149 0.164351
139 1 0.754533 0.328836 0.268587
124 1 1.0041 0.424117 0.232025
144 1 0.820578 0.41245 0.237553
199 1 0.267327 0.352941 0.409364
198 1 0.245701 0.418806 0.325634
204 1 0.350339 0.413923 0.435171
146 1 0.0671128 0.0772962 0.333289
148 1 0.011764 0.0596894 0.425365
202 1 0.427403 0.423803 0.323856
152 1 0.166148 0.091137 0.411656
150 1 0.241132 0.0893476 0.323568
208 1 0.494747 0.408163 0.416418
206 1 0.583481 0.420647 0.336043
156 1 0.325711 0.0941705 0.39721
160 1 0.491645 0.0811895 0.405981
197 1 0.169142 0.339638 0.337426
185 1 0.668827 0.154068 0.337555
164 1 0.667409 0.0747547 0.412589
212 1 0.661064 0.403737 0.403397
583 1 0.253446 0.490975 0.411928
168 1 0.86115 0.0646844 0.418475
25 1 1.00292 0.170147 0.00665122
191 1 0.924269 0.163017 0.407716
190 1 0.926486 0.252209 0.324189
171 1 0.0702396 0.162582 0.404015
172 1 -0.00885951 0.262435 0.417941
193 1 -0.00154726 0.347441 0.321078
170 1 0.0789113 0.24889 0.336477
177 1 0.340056 0.175793 0.32766
173 1 0.175613 0.174615 0.332458
175 1 0.253731 0.171923 0.408053
176 1 0.164233 0.25792 0.411232
174 1 0.257818 0.254438 0.329803
180 1 0.354468 0.245315 0.404607
188 1 0.669927 0.236522 0.410638
205 1 0.500838 0.348309 0.320275
179 1 0.423686 0.159254 0.414459
203 1 0.426849 0.334399 0.428115
184 1 0.480277 0.246075 0.413761
215 1 0.913612 0.341444 0.420949
195 1 0.094649 0.338137 0.417882
200 1 0.175327 0.413617 0.412339
207 1 0.572034 0.331366 0.411419
182 1 0.580206 0.254941 0.316748
77 1 0.163421 0.00289528 0.162505
163 1 0.75987 -0.0133034 0.413736
585 1 0.337475 0.497989 0.333287
597 1 0.827194 0.489239 0.327487
591 1 0.591505 0.491436 0.420433
19 1 0.761583 0.00461568 0.0866188
149 1 0.159235 0.0151261 0.316901
157 1 0.486831 -0.000985775 0.336208
507 1 0.0659668 0.506097 0.236094
45 1 0.827698 0.16089 0.00269062
282 1 0.738589 0.40347 0.502701
523 1 0.73038 0.517042 0.244009
5 1 0.154702 -0.00187855 0.0119774
87 1 0.584802 -0.00414487 0.239528
455 1 0.896452 0.499665 0.0825443
151 1 0.224912 0.00367609 0.4081
593 1 0.668568 0.499561 0.337421
225 1 0.331424 0.0244238 0.502982
513 1 0.346063 0.49821 0.166344
81 1 0.333862 0.00521712 0.160691
155 1 0.400883 -0.00272212 0.406968
89 1 0.676383 -0.0020691 0.170442
505 1 -0.0172866 0.506775 0.164579
1 1 0.997899 -0.0064227 0.006837
147 1 0.0974233 0.00412154 0.415372
595 1 0.746074 0.488344 0.422941
14 1 0.599739 0.0880758 0.00782913
669 1 0.826897 0.49702 0.521374
649 1 -0.00762442 0.497291 0.504105
266 1 0.0809963 0.422373 0.493744
261 1 0.82632 0.172427 0.48953
9 1 0.334168 0.00608608 -0.00333883
61 1 0.508935 0.339743 -0.0106245
262 1 0.919818 0.245951 0.501044
65 1 0.667055 0.317736 0.0158907
242 1 0.084343 0.252257 0.505906
41 1 0.677991 0.162258 -0.0126096
17 1 0.670533 0.00257664 -0.00315607
281 1 0.669874 0.319601 0.494055
257 1 0.66347 0.15077 0.499407
253 1 0.515424 0.168831 0.51442
62 1 0.593775 0.418097 0.00413608
258 1 0.746836 0.243667 0.488331
241 1 1.00221 0.171635 0.484295
243 1 0.091588 0.164851 0.581325
53 1 0.154742 0.334119 1.00228
290 1 0.0700616 0.0866428 0.647691
219 1 0.0771737 -0.00266476 0.587962
224 1 0.166017 0.0872643 0.600532
247 1 0.239108 0.155722 0.597326
307 1 0.751254 -0.00556782 0.739128
412 1 0.992945 0.435044 0.924237
729 1 0.335398 0.489977 0.676086
228 1 0.329203 0.0894125 0.58664
232 1 0.487727 0.063103 0.588594
431 1 0.917444 0.334189 0.911284
302 1 0.579498 0.0717616 0.653689
255 1 0.577433 0.160041 0.601293
430 1 0.914607 0.418466 0.837347
671 1 0.913494 0.483176 0.593544
426 1 0.747241 0.399899 0.836392
432 1 0.837333 0.411094 0.915408
236 1 0.670918 0.0902011 0.585317
259 1 0.749401 0.173877 0.572734
306 1 0.762232 0.0842313 0.655213
220 1 0.991113 0.0902565 0.573692
240 1 0.852304 0.0872235 0.565643
310 1 0.915311 0.0862024 0.650048
291 1 0.0670903 -0.00950685 0.735985
34 1 0.401164 0.259918 0.990613
244 1 0.998962 0.265013 0.569509
317 1 0.160644 0.167686 0.674272
314 1 0.0882485 0.250078 0.685551
269 1 0.169378 0.332277 0.507527
367 1 0.226054 -0.000662772 0.924433
248 1 0.158736 0.267932 0.591012
733 1 0.501869 0.498621 0.664001
813 1 0.823034 0.491623 0.824329
252 1 0.331732 0.225756 0.575649
251 1 0.421339 0.162074 0.58451
275 1 0.414598 0.328839 0.584376
345 1 0.331992 0.331685 0.668887
663 1 0.57904 0.48741 0.583497
256 1 0.494726 0.243138 0.582393
260 1 0.648216 0.23416 0.565177
26 1 0.0906337 0.23888 1.00414
330 1 0.754285 0.24064 0.648444
10 1 0.433884 0.0845565 0.994133
333 1 0.837417 0.162962 0.664416
263 1 0.922747 0.172836 0.57912
264 1 0.843795 0.236137 0.576689
334 1 0.911212 0.245882 0.670901
287 1 0.910722 0.339594 0.5834
313 1 0.995507 0.179807 0.652688
659 1 0.414118 0.502048 0.576067
270 1 0.250088 0.422603 0.494245
267 1 0.0737271 0.347436 0.604158
268 1 0.995243 0.411189 0.589906
299 1 0.412643 0.00113395 0.768245
50 1 0.0906604 0.414305 0.999623
271 1 0.25996 0.322976 0.582344
272 1 0.152977 0.426654 0.589447
276 1 0.326178 0.411169 0.57307
6 1 0.257584 0.0868776 1.01117
346 1 0.423716 0.412062 0.662409
349 1 0.504916 0.320913 0.670388
280 1 0.505566 0.405174 0.579746
279 1 0.583295 0.315861 0.583423
350 1 0.585774 0.399855 0.664667
371 1 0.423193 0.0058884 0.918762
222 1 0.236242 0.083642 0.478734
284 1 0.652451 0.402319 0.581732
283 1 0.758161 0.318107 0.574862
288 1 0.818383 0.404745 0.589314
353 1 0.671041 0.317645 0.645257
357 1 0.825349 0.325147 0.666079
354 1 0.738219 0.421835 0.658399
58 1 0.430073 0.422779 0.998034
427 1 0.749258 0.316866 0.910235
221 1 0.146922 0.00402817 0.515724
379 1 0.774095 -0.00172044 0.899725
292 1 0.974885 0.0788796 0.737802
315 1 0.0854811 0.153621 0.752451
296 1 0.153985 0.0654415 0.7614
362 1 0.0749071 0.082867 0.838775
731 1 0.41971 0.517282 0.751818
294 1 0.236014 0.0867757 0.684627
300 1 0.340461 0.0708326 0.764889
414 1 0.251596 0.421258 0.837148
422 1 0.58693 0.42102 0.839578
298 1 0.416746 0.0833532 0.675387
370 1 0.420338 0.0852903 0.83883
393 1 0.352115 0.167677 0.836178
415 1 0.224839 0.335327 0.915003
325 1 0.490376 0.157997 0.66595
428 1 0.660723 0.421979 0.91933
304 1 0.519116 0.0908415 0.755261
425 1 0.658153 0.32876 0.828316
327 1 0.590854 0.165224 0.737999
308 1 0.660598 0.0822322 0.728851
312 1 0.846472 0.0755731 0.747968
405 1 0.844459 0.167605 0.832864
335 1 0.907718 0.168022 0.751239
382 1 0.919295 0.0836118 0.838651
320 1 0.161025 0.264473 0.755604
319 1 0.24427 0.16659 0.757409
318 1 0.231945 0.264523 0.674199
343 1 0.245728 0.346874 0.745317
322 1 0.417352 0.247609 0.66425
323 1 0.424844 0.150497 0.754429
321 1 0.32891 0.162882 0.679865
324 1 0.326368 0.257951 0.745216
329 1 0.682141 0.172604 0.661791
326 1 0.58517 0.246522 0.668195
328 1 0.500354 0.240996 0.751171
351 1 0.577722 0.318923 0.755194
332 1 0.667559 0.244707 0.745211
331 1 0.757036 0.159771 0.751083
402 1 0.749077 0.245389 0.835556
355 1 0.748229 0.332382 0.738832
316 1 0.994355 0.252097 0.763949
336 1 0.821173 0.247872 0.755274
406 1 0.914314 0.243604 0.838637
429 1 0.832909 0.326562 0.827011
359 1 0.908205 0.332112 0.74756
338 1 0.0718544 0.434316 0.67163
339 1 0.0760479 0.342479 0.762281
410 1 0.0686673 0.429035 0.82635
223 1 0.241782 0.00411263 0.59022
341 1 0.149888 0.351005 0.67824
342 1 0.241567 0.409285 0.656807
344 1 0.159084 0.422612 0.749355
348 1 0.32984 0.410336 0.739626
423 1 0.589562 0.334677 0.913603
38 1 0.586747 0.246684 1.00866
347 1 0.409892 0.329737 0.757533
420 1 0.32906 0.400709 0.909379
352 1 0.495275 0.422012 0.755929
356 1 0.6587 0.39715 0.749081
413 1 0.169055 0.352691 0.820453
419 1 0.416584 0.327465 0.900884
358 1 0.923883 0.399095 0.67428
340 1 0.995323 0.423378 0.749318
337 1 0.993852 0.312958 0.666075
360 1 0.82601 0.415383 0.754259
409 1 -0.00677702 0.344589 0.837527
363 1 0.0803862 0.00418541 0.921334
424 1 0.504777 0.431309 0.916268
369 1 0.330539 0.013899 0.845071
389 1 0.155169 0.167578 0.83103
368 1 0.159932 0.0844194 0.923491
418 1 0.41056 0.411398 0.838405
364 1 0.989115 0.0776433 0.923225
385 1 1.00375 0.177046 0.840921
421 1 0.501961 0.333509 0.828103
366 1 0.243633 0.0851637 0.850958
372 1 0.347517 0.0971325 0.917414
397 1 0.502947 0.175718 0.835718
395 1 0.42805 0.174645 0.929362
376 1 0.507026 0.100424 0.917658
374 1 0.593226 0.080444 0.82234
401 1 0.671018 0.154424 0.83117
399 1 0.596271 0.171294 0.915857
380 1 0.676279 0.0650559 0.910402
408 1 0.844382 0.245559 0.913726
417 1 0.333204 0.329672 0.827509
378 1 0.754151 0.0749613 0.821259
411 1 0.0839333 0.342682 0.910322
384 1 0.851612 0.0842022 0.920004
416 1 0.16816 0.420982 0.920185
407 1 0.922331 0.163424 0.938332
667 1 0.740449 0.491253 0.577216
388 1 0.996537 0.260189 0.90827
387 1 0.0788172 0.153176 0.916399
386 1 0.0830509 0.266227 0.836575
392 1 0.158643 0.235079 0.91675
390 1 0.261038 0.243526 0.834875
396 1 0.316481 0.260769 0.92719
391 1 0.251872 0.168349 0.920564
400 1 0.510121 0.247509 0.927063
394 1 0.412575 0.250406 0.828831
655 1 0.260251 0.499959 0.609983
404 1 0.665079 0.250449 0.92347
398 1 0.584437 0.250523 0.839567
403 1 0.753768 0.158956 0.910215
381 1 0.831588 -0.0106094 0.814034
721 1 0.997239 0.513334 0.671236
33 1 0.345483 0.17693 0.99246
37 1 0.510527 0.161827 1.00907
29 1 0.170622 0.156872 0.997522
217 1 -0.00134322 -0.0102116 0.505718
286 1 0.911161 0.414211 0.506875
54 1 0.25016 0.427875 1.00785
737 1 0.669444 0.510074 0.663849
49 1 0.00845567 0.343859 0.985085
293 1 0.171227 -0.00968221 0.668503
57 1 0.318215 0.34228 0.99951
13 1 0.509775 0.0139422 0.995099
735 1 0.582797 0.500596 0.744813
741 1 0.828778 0.498686 0.660068
30 1 0.242105 0.26148 1.00469
661 1 0.508737 0.487591 0.48901
46 1 0.911957 0.248089 1.01313
274 1 0.427668 0.407689 0.511442
254 1 0.585468 0.258674 0.479318
285 1 0.836458 0.337899 0.493443
218 1 0.0919066 0.0886859 0.486165
265 1 1.00417 0.342377 0.492782
245 1 0.166742 0.17039 0.497472
18 1 0.75013 0.0863168 1.00124
440 1 0.173052 0.593664 0.0859618
436 1 0.993381 0.578664 0.0776025
446 1 0.576551 0.595844 -0.0109474
490 1 0.406792 0.915163 -0.00906547
657 1 0.333705 0.502803 0.497209
658 1 0.424096 0.577048 0.499174
463 1 0.254876 0.663298 0.0848612
510 1 0.269215 0.577863 0.175101
628 1 0.0143784 0.912777 0.413114
444 1 0.330101 0.586827 0.0866115
448 1 0.49607 0.600411 0.077271
579 1 0.0865202 0.493513 0.415255
587 1 0.419263 0.495478 0.413188
452 1 0.657482 0.607513 0.0889109
475 1 0.752559 0.666279 0.0811739
522 1 0.740203 0.592887 0.161923
456 1 0.829892 0.588349 0.0987226
694 1 0.908927 0.745613 0.500574
549 1 0.835249 0.664305 0.167732
479 1 0.902301 0.665337 0.0724027
21 1 0.829472 1.00424 -0.0075242
526 1 0.919192 0.577618 0.170864
459 1 0.0818659 0.662505 0.0787797
483 1 0.0875568 0.825893 0.0859181
553 1 0.995213 0.843534 0.161133
464 1 0.157623 0.738447 0.0864555
468 1 0.343083 0.75005 0.0884288
165 1 0.851923 0.990749 0.336701
467 1 0.398146 0.663628 0.0806135
472 1 0.487324 0.740885 0.0804798
471 1 0.577877 0.67993 0.0786625
541 1 0.480767 0.673638 0.158725
462 1 0.257125 0.739503 0.00930745
495 1 0.576911 0.841371 0.0739378
542 1 0.584764 0.748787 0.168807
545 1 0.649259 0.66818 0.183672
599 1 0.91063 0.488492 0.427572
476 1 0.669103 0.746885 0.0935452
546 1 0.730964 0.734192 0.182492
589 1 0.512853 0.494211 0.351117
480 1 0.822786 0.757378 0.100929
460 1 -0.0182535 0.743912 0.0956606
550 1 0.912986 0.755362 0.169186
653 1 0.167688 0.487149 0.489159
625 1 0.0172769 0.845079 0.337744
484 1 0.997931 0.915849 0.0901303
647 1 0.934434 0.832715 0.425184
487 1 0.242445 0.848717 0.08748
488 1 0.165847 0.914534 0.0857178
581 1 0.179327 0.494482 0.327099
465 1 0.343536 0.665643 -0.00927993
443 1 0.429469 0.507993 0.0834303
492 1 0.336183 0.933733 0.0805131
491 1 0.412976 0.836943 0.0906451
496 1 0.494307 0.913617 0.0515919
677 1 0.161928 0.652277 0.491274
95 1 0.927937 0.999636 0.240331
566 1 0.575973 0.921718 0.153369
500 1 0.671645 0.92046 0.0892921
648 1 0.840373 0.908251 0.406778
159 1 0.575538 0.989696 0.425535
569 1 0.650767 0.843787 0.1776
499 1 0.735471 0.829447 0.0988627
504 1 0.838297 0.902376 0.0899476
503 1 0.91006 0.832787 0.101833
640 1 0.486002 0.918312 0.419164
574 1 0.901365 0.91363 0.178893
506 1 0.0859384 0.583047 0.150004
531 1 0.0738274 0.662994 0.242284
508 1 0.982984 0.577855 0.258913
578 1 0.070917 0.580132 0.331705
512 1 0.155184 0.570067 0.25456
516 1 0.343319 0.571441 0.246763
93 1 0.847356 1.00794 0.165514
582 1 0.247835 0.582709 0.328413
644 1 0.670293 0.920742 0.400186
514 1 0.419204 0.590957 0.166611
520 1 0.503717 0.582864 0.253894
23 1 0.904246 0.98936 0.0785299
75 1 0.0797784 1.00801 0.251473
518 1 0.569416 0.601628 0.164733
636 1 0.308542 0.92914 0.401801
590 1 0.582811 0.572368 0.333586
617 1 0.674573 0.677685 0.327935
524 1 0.660243 0.594982 0.254194
528 1 0.843843 0.585354 0.258737
547 1 0.750812 0.655709 0.251557
621 1 0.84065 0.672619 0.336857
498 1 0.74862 0.924542 0.0010075
630 1 0.240214 0.931108 0.318149
632 1 0.168353 0.91443 0.416071
551 1 0.914313 0.675222 0.249034
529 1 0.997699 0.659648 0.165541
530 1 0.0991078 0.751259 0.177962
533 1 0.159512 0.647859 0.167975
534 1 0.259282 0.747764 0.151963
537 1 0.341936 0.674916 0.180385
535 1 0.250015 0.667856 0.23119
605 1 0.15087 0.672192 0.323295
536 1 0.179661 0.746997 0.246326
540 1 0.322451 0.748591 0.250414
538 1 0.407033 0.762268 0.18659
565 1 0.492546 0.855987 0.173122
539 1 0.417195 0.664584 0.255241
610 1 0.417488 0.756968 0.329247
563 1 0.422806 0.845562 0.242135
561 1 0.330749 0.845877 0.172549
637 1 0.486799 0.845746 0.340487
613 1 0.50349 0.664013 0.34742
544 1 0.493688 0.764131 0.251575
543 1 0.562549 0.673045 0.246942
567 1 0.565771 0.833497 0.25169
614 1 0.569802 0.752487 0.325867
548 1 0.652294 0.756069 0.256193
618 1 0.739465 0.761815 0.332235
641 1 0.64519 0.837858 0.332605
552 1 0.811452 0.74088 0.25604
532 1 0.00238767 0.748194 0.237629
573 1 0.812442 0.830588 0.200196
554 1 0.0807838 0.919864 0.169649
555 1 0.0896101 0.83539 0.246818
556 1 0.0104714 0.909462 0.252574
557 1 0.169138 0.832261 0.162286
502 1 0.914741 0.908368 0.00875639
559 1 0.248186 0.833336 0.262034
560 1 0.166349 0.914579 0.234969
558 1 0.255137 0.933805 0.161532
564 1 0.329817 0.936832 0.245226
562 1 0.410227 0.926131 0.160141
629 1 0.163125 0.844487 0.324076
634 1 0.40622 0.915378 0.332627
638 1 0.575948 0.927378 0.34191
568 1 0.49775 0.927381 0.25205
626 1 0.0963067 0.923588 0.33044
645 1 0.826995 0.835839 0.308114
572 1 0.648104 0.922115 0.257428
570 1 0.756561 0.921953 0.179265
642 1 0.750226 0.920586 0.329944
571 1 0.733358 0.838269 0.261845
576 1 0.821655 0.933467 0.257878
646 1 0.922238 0.901564 0.339018
575 1 0.934095 0.834428 0.260883
603 1 0.0810719 0.651494 0.421229
601 1 1.00635 0.6681 0.324872
580 1 1.00419 0.575868 0.42032
167 1 0.924759 0.974755 0.423811
83 1 0.415228 1.00641 0.25271
584 1 0.189031 0.563464 0.418575
673 1 1.01342 0.662976 0.501746
654 1 0.250253 0.572604 0.52064
693 1 0.838686 0.656105 0.493732
145 1 0.993834 0.984528 0.334887
586 1 0.435172 0.574769 0.335246
588 1 0.315133 0.588892 0.410765
714 1 0.760007 0.92 0.496437
481 1 0.981983 0.830456 0.0194242
592 1 0.505763 0.585159 0.427897
615 1 0.586732 0.656922 0.422936
623 1 0.927452 0.674636 0.40872
439 1 0.256326 0.510104 0.0768041
622 1 0.917657 0.760452 0.331261
596 1 0.662134 0.571243 0.426787
594 1 0.760625 0.576286 0.335267
619 1 0.750413 0.650465 0.418032
600 1 0.840887 0.579185 0.425383
598 1 0.917486 0.56521 0.350342
602 1 0.0754601 0.757335 0.32625
604 1 0.00390554 0.750307 0.40564
627 1 0.0914839 0.830685 0.422351
609 1 0.331461 0.654399 0.326456
606 1 0.24038 0.743873 0.329294
607 1 0.223524 0.661063 0.409003
608 1 0.167048 0.754186 0.409768
631 1 0.249768 0.832589 0.40324
633 1 0.344859 0.82781 0.310287
611 1 0.412208 0.654276 0.414624
635 1 0.396206 0.833815 0.416005
616 1 0.495397 0.754376 0.42898
612 1 0.325208 0.737122 0.408435
521 1 0.650152 0.513417 0.162517
624 1 0.83298 0.770794 0.397941
639 1 0.574323 0.834669 0.421225
511 1 0.262861 0.50089 0.248312
643 1 0.744298 0.834292 0.417266
620 1 0.656974 0.755687 0.406196
447 1 0.578041 0.513304 0.0820702
519 1 0.587787 0.50168 0.255391
461 1 0.179581 0.658157 0.00424469
454 1 0.909275 0.580332 0.00657622
161 1 0.672415 1.01266 0.33057
482 1 0.0872411 0.908036 0.0115983
433 1 0.990598 0.508158 0.00567059
435 1 0.0780494 0.497705 0.0839839
515 1 0.428423 0.503708 0.256573
79 1 0.240766 1.01548 0.248388
509 1 0.179712 0.506982 0.15606
517 1 0.503992 0.50044 0.162398
685 1 0.504452 0.670889 0.491896
449 1 0.663235 0.498064 0.0190755
690 1 0.752497 0.74328 0.503229
457 1 0.993469 0.671093 0.0118688
662 1 0.582281 0.564789 0.510223
237 1 0.835716 0.998784 0.494128
453 1 0.822989 0.48433 -0.000295965
497 1 0.672123 0.830668 0.00581692
474 1 0.744092 0.746493 -0.000300923
437 1 0.171783 0.497626 -0.000627966
434 1 0.0830226 0.585933 0.00316493
485 1 0.154825 0.818647 0.00766231
713 1 0.666327 0.849964 0.483877
666 1 0.761235 0.57716 0.495165
686 1 0.598478 0.754348 0.493968
678 1 0.241826 0.732668 0.497837
701 1 0.176949 0.823914 0.505587
681 1 0.331536 0.659843 0.499851
670 1 0.921175 0.579497 0.489716
706 1 0.401888 0.917571 0.489615
458 1 0.0763943 0.74608 0.0128056
478 1 0.900013 0.75752 0.0149424
675 1 0.0851954 0.652832 0.575169
652 1 0.997806 0.582877 0.592204
722 1 0.0810094 0.593331 0.679702
295 1 0.245693 1.0038 0.76512
656 1 0.163155 0.573179 0.587517
726 1 0.263038 0.579466 0.68069
679 1 0.247301 0.679311 0.591878
445 1 0.506376 0.501834 0.999279
660 1 0.335917 0.590883 0.582812
683 1 0.424925 0.658793 0.584336
805 1 0.506277 0.504332 0.827399
235 1 0.761742 0.993154 0.587838
361 1 0.00372537 0.995168 0.835465
664 1 0.512057 0.586874 0.581813
668 1 0.674981 0.5829 0.581736
687 1 0.591889 0.674454 0.560489
311 1 0.93665 0.97838 0.754531
799 1 0.265248 0.495054 0.9278
765 1 0.838874 0.666936 0.669626
811 1 0.754709 0.500855 0.928208
738 1 0.756686 0.573396 0.645713
672 1 0.8514 0.578763 0.584788
695 1 0.920072 0.66753 0.58851
742 1 0.928338 0.598071 0.67323
745 1 0.0094593 0.682319 0.681251
383 1 0.894754 0.986666 0.921397
773 1 0.176599 0.832441 0.671282
815 1 0.907241 0.489234 0.910073
680 1 0.157688 0.742501 0.581214
749 1 0.177905 0.650085 0.684791
750 1 0.256122 0.760927 0.672335
725 1 0.159375 0.497124 0.67811
753 1 0.337896 0.682066 0.655208
684 1 0.32378 0.76067 0.577261
795 1 0.0796514 0.492067 0.915853
227 1 0.407328 1.0024 0.587657
688 1 0.502947 0.754834 0.56984
758 1 0.592079 0.753936 0.663109
303 1 0.57094 0.999639 0.748665
501 1 0.820106 0.830868 1.02051
691 1 0.765286 0.664387 0.589818
692 1 0.679953 0.754587 0.59659
696 1 0.840588 0.752645 0.620266
797 1 0.17015 0.498847 0.843932
676 1 0.0169534 0.747856 0.572238
766 1 0.925753 0.737509 0.682579
301 1 0.489728 0.999409 0.671919
699 1 0.0956972 0.831747 0.585926
704 1 0.176617 0.912399 0.591076
375 1 0.577213 1.00594 0.911328
769 1 1.00615 0.824614 0.671758
703 1 0.24747 0.83369 0.587378
305 1 0.68104 1.00479 0.653617
373 1 0.509234 1.01173 0.833826
774 1 0.262252 0.917264 0.669695
708 1 0.334448 0.916153 0.569437
777 1 0.338634 0.829034 0.658524
377 1 0.672273 1.00359 0.825978
707 1 0.408329 0.836839 0.577495
778 1 0.406057 0.918976 0.660964
844 1 0.985107 0.919083 0.9247
289 1 0.98736 1.01009 0.656494
803 1 0.409866 0.4959 0.914407
712 1 0.488747 0.913535 0.58785
711 1 0.58269 0.829849 0.572914
716 1 0.657508 0.909323 0.577799
715 1 0.737275 0.831746 0.576212
793 1 0.995006 0.499941 0.821304
700 1 1.00933 0.915331 0.57736
720 1 0.82562 0.912902 0.596131
719 1 0.921903 0.817086 0.578084
790 1 0.930515 0.909929 0.645233
864 1 0.82304 0.902916 0.926569
794 1 0.086583 0.578311 0.843149
747 1 0.0901025 0.659146 0.766243
857 1 0.670404 0.848384 0.822478
817 1 1.01175 0.691122 0.83671
728 1 0.165943 0.588699 0.775438
732 1 0.348601 0.599726 0.731518
798 1 0.258042 0.571242 0.843175
860 1 0.684164 0.926264 0.910021
858 1 0.756908 0.914341 0.824667
730 1 0.422742 0.583856 0.650059
802 1 0.421462 0.601893 0.828041
755 1 0.422796 0.675946 0.726841
734 1 0.58284 0.592419 0.659818
757 1 0.507185 0.681851 0.657809
736 1 0.502344 0.57761 0.739317
806 1 0.609553 0.582796 0.82726
807 1 0.585909 0.504747 0.920123
740 1 0.673818 0.592575 0.742376
810 1 0.755427 0.584237 0.845485
297 1 0.325426 1.0005 0.666083
837 1 0.836404 0.675302 0.840064
724 1 1.00621 0.586334 0.756502
744 1 0.8369 0.575323 0.730976
767 1 0.918414 0.667519 0.764828
746 1 0.0884066 0.746863 0.662246
748 1 0.0116344 0.760603 0.758655
821 1 0.166903 0.667799 0.845542
771 1 0.0928707 0.83308 0.744456
751 1 0.254227 0.662049 0.763644
752 1 0.171398 0.741961 0.749545
756 1 0.335405 0.749092 0.75553
822 1 0.238435 0.751299 0.839494
754 1 0.417717 0.76111 0.63903
826 1 0.424426 0.755365 0.829411
761 1 0.667781 0.660697 0.652332
760 1 0.509455 0.752406 0.755999
759 1 0.587372 0.674871 0.737142
764 1 0.672706 0.73996 0.751488
785 1 0.676306 0.824282 0.670279
762 1 0.752062 0.733443 0.671785
763 1 0.763688 0.654608 0.757208
833 1 0.672258 0.666615 0.83508
834 1 0.755124 0.746846 0.826005
861 1 0.829902 0.818682 0.8379
768 1 0.839237 0.742343 0.753143
791 1 0.918683 0.821782 0.773273
838 1 0.919311 0.745004 0.845957
651 1 0.0601454 0.494899 0.588212
770 1 0.0881033 0.908094 0.66218
772 1 0.000727301 0.896732 0.766588
842 1 0.0913685 0.918614 0.83432
845 1 0.182151 0.834915 0.823366
775 1 0.264046 0.836537 0.744286
776 1 0.158861 0.923359 0.750691
780 1 0.333551 0.925987 0.757881
781 1 0.504354 0.817152 0.667562
779 1 0.422475 0.851494 0.751792
784 1 0.501076 0.924382 0.759489
853 1 0.499969 0.836212 0.834132
231 1 0.593202 0.994861 0.570082
783 1 0.580984 0.849808 0.744238
782 1 0.577095 0.909173 0.659938
788 1 0.66354 0.921523 0.735831
786 1 0.75207 0.910411 0.677597
787 1 0.751455 0.826243 0.746772
309 1 0.844265 0.986507 0.674225
674 1 0.0811726 0.743112 0.48569
792 1 0.840625 0.913826 0.750165
862 1 0.892693 0.909482 0.837138
789 1 0.839661 0.841028 0.674457
841 1 0.00836288 0.825784 0.85073
800 1 0.163288 0.589449 0.927846
796 1 -0.000220394 0.587315 0.929877
819 1 0.0868431 0.683252 0.918578
466 1 0.417625 0.739429 0.988101
804 1 0.337421 0.585031 0.918303
823 1 0.261316 0.664891 0.904722
710 1 0.565624 0.910449 0.506056
851 1 0.403908 0.834139 0.924353
702 1 0.257583 0.931922 0.496714
854 1 0.58759 0.917105 0.833915
856 1 0.5069 0.910924 0.912898
825 1 0.338116 0.66843 0.826729
829 1 0.510199 0.672078 0.829248
827 1 0.417951 0.665132 0.910958
843 1 0.0784017 0.825803 0.930316
846 1 0.249714 0.917187 0.836013
808 1 0.514234 0.586326 0.909578
848 1 0.157272 0.910007 0.926221
812 1 0.671678 0.584308 0.921078
852 1 0.32617 0.930802 0.924471
835 1 0.747471 0.665962 0.927777
697 1 0.0105817 0.827892 0.494903
849 1 0.326374 0.825191 0.846154
814 1 0.911475 0.575595 0.832327
839 1 0.907694 0.661143 0.922635
816 1 0.826977 0.583556 0.924003
820 1 0.986937 0.737376 0.939846
818 1 0.0948749 0.760364 0.830434
824 1 0.171453 0.744408 0.922607
840 1 0.819703 0.747466 0.92549
847 1 0.246268 0.833289 0.922038
828 1 0.334739 0.744038 0.914601
850 1 0.408695 0.928252 0.846636
863 1 0.900804 0.830374 0.915655
832 1 0.521036 0.748101 0.900076
831 1 0.59097 0.666004 0.907413
830 1 0.604915 0.765453 0.831178
855 1 0.582101 0.840077 0.924225
859 1 0.740879 0.835313 0.908174
836 1 0.670362 0.757773 0.915436
450 1 0.745335 0.580573 1.01479
489 1 0.336695 0.827138 1.00393
723 1 0.0831025 0.508944 0.744158
809 1 0.672667 0.499777 0.842109
709 1 0.481217 0.83325 0.492399
801 1 0.337016 0.489682 0.823758
727 1 0.244742 0.497065 0.750188
739 1 0.753943 0.502291 0.752178
365 1 0.158602 1.0017 0.837186
239 1 0.909908 0.994033 0.569838
743 1 0.903084 0.48637 0.737095
441 1 0.349623 0.513339 1.00437
705 1 0.310836 0.829981 0.490968
650 1 0.0828622 0.575454 0.501732
469 1 0.49995 0.674272 0.981949
473 1 0.665031 0.668994 1.00152
438 1 0.259014 0.586106 0.992997
477 1 0.817903 0.674379 1.00197
689 1 0.67096 0.661761 0.492483
717 1 0.823809 0.825772 0.503495
470 1 0.572101 0.751905 0.996759
442 1 0.431772 0.592063 0.999215
718 1 0.91242 0.903729 0.501873
494 1 0.586715 0.933583 1.00316
682 1 0.394332 0.747127 0.487947
698 1 0.0906289 0.913828 0.505059
493 1 0.494719 0.826515 0.982034
486 1 0.236434 0.924974 1.00734
233 1 0.676076 1.00488 0.499193
229 1 0.492501 0.995237 0.489495
