ITEM: TIMESTEP
7000
ITEM: NUMBER OF ATOMS
864
ITEM: BOX BOUNDS pp pp pp
0.0000000000000000e+00 3.1559999999999999e+01
0.0000000000000000e+00 3.1559999999999999e+01
0.0000000000000000e+00 3.1559999999999999e+01
ITEM: ATOMS id type xs ys zs
4 1 1.00266 0.0905712 0.0887099
8 1 0.159079 0.0872095 0.0948263
101 1 0.161315 0.163318 0.178545
597 1 0.821135 0.50833 0.334728
12 1 0.33673 0.0869199 0.08431
215 1 0.915037 0.318797 0.416391
16 1 0.506601 0.0792053 0.0904691
35 1 0.426267 0.159066 0.0878104
109 1 0.501064 0.14238 0.187139
86 1 0.595847 0.0691552 0.181999
20 1 0.672607 0.0850797 0.0966274
214 1 0.931628 0.416831 0.351345
519 1 0.589425 0.4954 0.251594
7 1 0.253714 0.00801448 0.0781627
591 1 0.580374 0.497512 0.418537
43 1 0.743049 0.162564 0.0725809
278 1 0.575578 0.41121 0.491258
24 1 0.832107 0.0928391 0.0810546
47 1 0.9296 0.174224 0.073748
196 1 0.0227115 0.415656 0.438755
27 1 0.0822709 0.167097 0.0826287
32 1 0.175753 0.252004 0.0645661
98 1 0.106988 0.248439 0.168812
31 1 0.251971 0.163839 0.0781688
55 1 0.25115 0.33577 0.0619149
437 1 0.155949 0.494852 -0.00540729
85 1 0.507274 -0.00208814 0.164477
36 1 0.341828 0.244666 0.0849045
253 1 0.483003 0.165308 0.49127
14 1 0.588504 0.0897459 0.00113038
39 1 0.585294 0.154295 0.0943118
40 1 0.522589 0.230936 0.0714344
44 1 0.682838 0.259344 0.0752673
95 1 0.914178 0.00907059 0.250874
28 1 -0.00145944 0.250521 0.0706594
48 1 0.843686 0.241851 0.0926215
51 1 0.0914215 0.32189 0.0877068
52 1 0.00944542 0.40777 0.0851155
77 1 0.169418 -0.00114403 0.172377
595 1 0.736871 0.490546 0.42573
125 1 0.180689 0.336379 0.167967
122 1 0.0872305 0.403378 0.164194
56 1 0.161484 0.414982 0.0812519
210 1 0.739924 0.424112 0.339278
126 1 0.250774 0.413791 0.156215
59 1 0.415869 0.337884 0.0830455
60 1 0.335223 0.413328 0.0732959
83 1 0.431214 0.000435899 0.24518
63 1 0.595748 0.323533 0.0844945
64 1 0.493596 0.413175 0.083712
257 1 0.677518 0.180888 0.481471
68 1 0.671083 0.412222 0.0841531
134 1 0.578046 0.421989 0.149623
79 1 0.254288 0.00447734 0.237577
25 1 1.01691 0.168657 -0.00190926
67 1 0.773052 0.326847 0.0863083
72 1 0.829303 0.413045 0.0690257
10 1 0.423534 0.0808552 0.000922681
161 1 0.686855 0.00547427 0.342645
209 1 0.669306 0.340084 0.332933
71 1 0.928535 0.337249 0.0997842
447 1 0.577885 0.506436 0.0779421
212 1 0.656793 0.412375 0.409639
74 1 0.086546 0.0771446 0.174931
99 1 0.0837509 0.163682 0.258558
97 1 0.0150846 0.17334 0.173953
76 1 0.0030359 0.0917163 0.264974
78 1 0.247908 0.0868321 0.160216
80 1 0.170071 0.0744671 0.252117
150 1 0.249954 0.085839 0.345888
105 1 0.341784 0.1698 0.161852
84 1 0.335998 0.0987237 0.239465
82 1 0.423583 0.0715827 0.16625
88 1 0.517055 0.0800935 0.266216
107 1 0.431 0.148319 0.260076
154 1 0.408496 0.0862575 0.347846
433 1 0.990369 0.508722 0.00736365
158 1 0.599103 0.0847192 0.340966
90 1 0.750147 0.101556 0.184146
113 1 0.671398 0.165941 0.174859
92 1 0.673299 0.0942359 0.258896
115 1 0.775487 0.173044 0.264753
117 1 0.832651 0.17662 0.171517
211 1 0.750257 0.332487 0.40226
96 1 0.834764 0.088149 0.251337
94 1 0.919313 0.100425 0.174023
100 1 -0.00565534 0.246959 0.259426
170 1 0.0827819 0.254688 0.329461
104 1 0.159103 0.240877 0.25926
103 1 0.251066 0.170672 0.247915
102 1 0.266462 0.24539 0.154885
174 1 0.233401 0.24968 0.332086
129 1 0.323479 0.334949 0.155032
201 1 0.33768 0.318631 0.312886
177 1 0.334227 0.166285 0.336948
106 1 0.430817 0.244048 0.146915
108 1 0.347284 0.236454 0.241624
181 1 0.502734 0.166334 0.341515
205 1 0.491331 0.322187 0.333963
111 1 0.592587 0.17882 0.257234
112 1 0.489567 0.251716 0.242631
110 1 0.577418 0.238826 0.16943
182 1 0.579455 0.265406 0.327845
135 1 0.592472 0.339157 0.23612
114 1 0.750573 0.236579 0.154982
116 1 0.671941 0.244604 0.253183
119 1 0.924175 0.17124 0.257644
121 1 0.0138944 0.319603 0.170168
118 1 0.921675 0.23786 0.167232
120 1 0.846139 0.255751 0.243602
213 1 0.849687 0.349432 0.336098
190 1 0.923129 0.260715 0.330327
216 1 0.841521 0.428103 0.418588
123 1 0.0915984 0.330779 0.24049
124 1 0.00228877 0.412257 0.267714
197 1 0.158173 0.332449 0.323599
128 1 0.159459 0.414251 0.252574
127 1 0.251098 0.323697 0.255835
198 1 0.239975 0.407477 0.335234
132 1 0.318848 0.414129 0.240938
274 1 0.418372 0.414687 0.488588
45 1 0.829676 0.174664 0.0121135
250 1 0.415672 0.25923 0.499517
202 1 0.392766 0.416047 0.312236
133 1 0.509175 0.32172 0.146464
131 1 0.420756 0.345953 0.223591
130 1 0.406128 0.432319 0.16341
206 1 0.573319 0.408117 0.324925
137 1 0.669205 0.323836 0.16508
136 1 0.506954 0.40259 0.234616
172 1 1.00913 0.253836 0.418087
139 1 0.754842 0.335424 0.254511
140 1 0.664729 0.417004 0.23733
138 1 0.740628 0.410506 0.15858
141 1 0.828579 0.340871 0.170231
142 1 0.927563 0.428684 0.159065
143 1 0.923507 0.348167 0.23223
144 1 0.825134 0.4175 0.258612
46 1 0.914803 0.257382 0.00996981
192 1 0.835856 0.250482 0.411092
146 1 0.0753588 0.0862116 0.351827
169 1 -0.000709948 0.175046 0.338953
148 1 -0.00911505 0.076593 0.417968
171 1 0.0766372 0.150501 0.442667
15 1 0.598829 0.00152697 0.0877245
226 1 0.41983 0.075178 0.489465
152 1 0.173331 0.0926616 0.42479
521 1 0.673374 0.49692 0.156615
156 1 0.328866 0.0782494 0.419325
179 1 0.407189 0.179414 0.417416
191 1 0.934875 0.170364 0.435414
153 1 0.334633 0.00451143 0.33628
507 1 0.0801236 0.481952 0.239603
160 1 0.495211 0.07294 0.400638
164 1 0.674818 0.0969779 0.410533
183 1 0.577369 0.177608 0.416493
91 1 0.753098 0.00757713 0.258268
194 1 0.0892239 0.418853 0.350671
162 1 0.762155 0.0959955 0.326508
187 1 0.759554 0.172998 0.410345
23 1 0.938866 -0.00220122 0.0881394
189 1 0.843496 0.160466 0.34156
168 1 0.838198 0.0846093 0.413601
166 1 0.919327 0.0811072 0.328027
208 1 0.508932 0.416284 0.407217
173 1 0.162389 0.160519 0.342748
188 1 0.661392 0.257334 0.406895
186 1 0.763964 0.255502 0.323132
199 1 0.224052 0.330698 0.417923
176 1 0.151758 0.224912 0.423742
175 1 0.256184 0.171248 0.412513
185 1 0.661497 0.171403 0.339882
207 1 0.567729 0.328515 0.414307
229 1 0.488041 -0.00945341 0.498445
204 1 0.318843 0.406804 0.439962
203 1 0.400779 0.332993 0.403147
180 1 0.316183 0.258412 0.401968
178 1 0.421709 0.246814 0.32759
195 1 0.0949482 0.322079 0.412574
184 1 0.489184 0.247186 0.416457
193 1 0.00863163 0.337952 0.344619
200 1 0.153088 0.414986 0.439645
273 1 0.319021 0.318994 0.499266
593 1 0.648434 0.502463 0.338613
145 1 0.987547 0.00111656 0.336497
657 1 0.340004 0.503709 0.498102
527 1 0.928902 0.491388 0.263776
525 1 0.834028 0.480094 0.177992
11 1 0.412916 -0.00425136 0.0873901
587 1 0.416363 0.477089 0.401541
22 1 0.923315 0.0804538 0.000995536
435 1 0.0770181 0.495807 0.0863917
155 1 0.405495 -0.0135678 0.430335
159 1 0.582316 0.00906571 0.420634
3 1 0.0927852 0.00580489 0.0923513
149 1 0.167733 0.00281009 0.343883
75 1 0.0789958 0.00319529 0.261364
18 1 0.755057 0.0790368 -0.00314796
62 1 0.593817 0.41714 0.00972684
583 1 0.243458 0.49126 0.408943
439 1 0.240246 0.49529 0.0802551
73 1 -0.00244312 0.00761579 0.166284
17 1 0.668068 0.0150927 0.0058441
163 1 0.740797 0.0154768 0.435134
261 1 0.830998 0.165086 0.487248
262 1 0.910379 0.253157 0.499325
258 1 0.754752 0.255884 0.491804
286 1 0.919653 0.427249 0.50853
9 1 0.336976 0.00897075 0.00792244
61 1 0.52272 0.323951 0.00625028
230 1 0.57172 0.0966194 0.500207
69 1 0.835982 0.337975 -0.00133578
246 1 0.237523 0.247958 0.497183
50 1 0.0828161 0.415266 -0.00252974
58 1 0.419046 0.416395 -0.00835557
34 1 0.420068 0.235045 0.000543967
281 1 0.672158 0.337585 0.502262
42 1 0.758995 0.254361 -0.0086332
33 1 0.344507 0.156291 -0.00802509
254 1 0.590332 0.253896 0.505089
65 1 0.680449 0.33272 -0.00338715
21 1 0.852277 -0.00471293 0.0102109
70 1 0.921997 0.418366 0.0291502
224 1 0.16579 0.0773573 0.595665
243 1 0.0865259 0.170728 0.583948
290 1 0.067505 0.0871529 0.649273
313 1 0.993401 0.156335 0.656705
431 1 0.923332 0.331539 0.931221
735 1 0.580942 0.481444 0.739164
247 1 0.266581 0.171921 0.584283
265 1 -0.00347576 0.331017 0.504131
294 1 0.256559 0.0826799 0.665731
321 1 0.33433 0.178928 0.681028
427 1 0.766087 0.338277 0.914906
228 1 0.344754 0.0911724 0.589809
298 1 0.427522 0.0949253 0.672595
453 1 0.831468 0.499429 0.994336
232 1 0.488286 0.096098 0.581128
302 1 0.574461 0.088646 0.662012
236 1 0.663778 0.0922451 0.572895
329 1 0.663101 0.172872 0.67425
282 1 0.749279 0.415057 0.496127
249 1 0.327807 0.186525 0.490618
306 1 0.758849 0.0870042 0.66259
240 1 0.826986 0.0863225 0.58797
259 1 0.736466 0.175442 0.58179
723 1 0.0801109 0.491909 0.752603
220 1 0.991853 0.0660745 0.582295
310 1 0.917956 0.0668457 0.67123
797 1 0.173612 0.49738 0.825098
317 1 0.164048 0.185115 0.659145
248 1 0.17205 0.253871 0.578453
267 1 0.0874114 0.326148 0.589906
314 1 0.0779318 0.254842 0.67298
252 1 0.33467 0.250822 0.586285
318 1 0.253069 0.250837 0.678572
251 1 0.42837 0.185772 0.581582
275 1 0.403995 0.330095 0.586377
255 1 0.578824 0.17602 0.574548
256 1 0.499293 0.248281 0.574224
279 1 0.579538 0.331693 0.572902
325 1 0.50433 0.166024 0.664263
241 1 1.00209 0.162414 0.518397
260 1 0.653854 0.245155 0.583502
264 1 0.824386 0.252254 0.574548
330 1 0.749786 0.263993 0.660013
263 1 0.911152 0.168817 0.56891
357 1 0.836142 0.322729 0.648234
244 1 1.00169 0.246411 0.583419
287 1 0.914844 0.337092 0.575681
334 1 0.912596 0.250338 0.656241
337 1 0.993491 0.335324 0.671583
29 1 0.161467 0.16007 0.992097
338 1 0.0741684 0.416352 0.65338
739 1 0.752041 0.500455 0.758368
425 1 0.660432 0.324801 0.831816
57 1 0.335076 0.31608 0.994444
341 1 0.176958 0.3312 0.675135
271 1 0.250796 0.336776 0.577966
272 1 0.172924 0.41632 0.607509
276 1 0.343654 0.424092 0.591582
725 1 0.156758 0.501187 0.685545
345 1 0.338913 0.333217 0.675354
346 1 0.417327 0.420077 0.677106
5 1 0.15949 0.00648989 1.00956
432 1 0.847883 0.408158 0.930254
280 1 0.480735 0.422941 0.582344
423 1 0.585803 0.329389 0.906161
350 1 0.56853 0.411215 0.66071
353 1 0.669077 0.326432 0.676215
283 1 0.756661 0.332265 0.573919
284 1 0.671105 0.404899 0.595718
354 1 0.749587 0.421242 0.660246
655 1 0.248401 0.506273 0.603182
233 1 0.662471 0.013065 0.498191
268 1 0.992965 0.412783 0.584432
288 1 0.829158 0.420702 0.581753
358 1 0.921727 0.421547 0.665506
428 1 0.667154 0.403288 0.912758
419 1 0.402314 0.332412 0.910871
292 1 1.00441 0.0741429 0.751944
315 1 0.0833473 0.163437 0.728036
362 1 0.067923 0.0921542 0.832713
296 1 0.166351 0.0869369 0.743794
300 1 0.33066 0.0765737 0.743044
663 1 0.577929 0.495839 0.567331
375 1 0.594314 0.00129759 0.925841
304 1 0.503144 0.0807479 0.760053
323 1 0.430542 0.170084 0.757956
793 1 1.00288 0.494914 0.832179
370 1 0.412938 0.0796998 0.829551
397 1 0.501364 0.162015 0.831317
308 1 0.663482 0.0852873 0.749155
374 1 0.593001 0.0841893 0.828755
333 1 0.824302 0.179272 0.667276
424 1 0.499171 0.411568 0.922403
312 1 0.842418 0.0748405 0.754289
66 1 0.753818 0.425776 0.990512
266 1 0.0921273 0.422891 0.525486
737 1 0.658343 0.498375 0.668344
335 1 0.920411 0.167613 0.741392
386 1 0.0767413 0.253224 0.828354
320 1 0.16576 0.236075 0.761867
316 1 -0.00595611 0.259299 0.754227
413 1 0.163516 0.335504 0.828761
389 1 0.154573 0.159355 0.838886
319 1 0.247187 0.152092 0.754678
324 1 0.347446 0.254936 0.760808
393 1 0.342482 0.158835 0.826416
322 1 0.418591 0.251879 0.67882
328 1 0.498018 0.248377 0.767614
394 1 0.414394 0.256198 0.852046
327 1 0.593683 0.165736 0.755585
326 1 0.569002 0.25212 0.674688
351 1 0.573732 0.331411 0.751659
332 1 0.666757 0.245444 0.760931
331 1 0.750321 0.159565 0.747044
402 1 0.746545 0.242179 0.841678
355 1 0.741687 0.323742 0.753051
336 1 0.820339 0.243607 0.75874
359 1 0.913263 0.337883 0.752386
406 1 0.902591 0.25834 0.836063
418 1 0.406684 0.41723 0.837062
339 1 0.0770503 0.33831 0.748146
344 1 0.164782 0.404765 0.74331
340 1 1.00181 0.421744 0.73751
410 1 0.0807071 0.408888 0.83606
343 1 0.250258 0.334575 0.745715
342 1 0.264379 0.410792 0.666794
348 1 0.339408 0.402359 0.756835
381 1 0.81369 -0.00173767 0.840025
347 1 0.422606 0.332053 0.753978
421 1 0.487599 0.332137 0.848411
422 1 0.577714 0.413829 0.823979
352 1 0.490928 0.413296 0.765244
349 1 0.486892 0.326232 0.663999
356 1 0.667351 0.415908 0.743722
426 1 0.741777 0.413602 0.830811
360 1 0.829641 0.410803 0.737217
303 1 0.582017 0.00478316 0.744858
811 1 0.757241 0.492862 0.902864
430 1 0.921519 0.429081 0.822193
238 1 0.900983 0.0796009 0.500439
409 1 -0.00819589 0.332919 0.832108
795 1 0.0667891 0.500735 0.913888
429 1 0.834117 0.337223 0.829833
741 1 0.829878 0.502782 0.666722
364 1 0.995875 0.0834205 0.905048
269 1 0.1557 0.328419 0.500971
297 1 0.341702 -0.000974624 0.66458
414 1 0.235352 0.407803 0.838847
366 1 0.245383 0.0698887 0.842493
368 1 0.16655 0.0736073 0.926572
411 1 0.0860866 0.325356 0.912542
395 1 0.423813 0.162215 0.912003
305 1 0.65787 0.0168278 0.663803
372 1 0.325143 0.0843718 0.913629
417 1 0.319039 0.33134 0.843485
416 1 0.155233 0.429453 0.9063
376 1 0.518597 0.0814157 0.921748
399 1 0.581112 0.164258 0.917049
404 1 0.675291 0.254807 0.92208
420 1 0.323823 0.404348 0.927143
378 1 0.744371 0.0942576 0.843272
380 1 0.672802 0.0758057 0.928463
405 1 0.836129 0.161365 0.827294
384 1 0.837338 0.0893182 0.907567
382 1 0.924024 0.08143 0.820677
407 1 0.925849 0.172316 0.915319
227 1 0.43013 -0.00409623 0.582502
412 1 1.00737 0.407834 0.924043
408 1 0.842412 0.256764 0.916875
385 1 0.992723 0.161878 0.827907
387 1 0.0753132 0.180426 0.909796
392 1 0.164801 0.248884 0.898665
390 1 0.250307 0.244943 0.828685
391 1 0.256899 0.161614 0.906568
396 1 0.330637 0.238779 0.921185
388 1 -0.00390354 0.254596 0.898937
400 1 0.505694 0.236857 0.923324
415 1 0.246707 0.333689 0.920853
401 1 0.663385 0.173129 0.852266
398 1 0.584859 0.239039 0.836211
223 1 0.246089 -0.000154663 0.605751
403 1 0.771727 0.168944 0.927531
807 1 0.577839 0.483472 0.917487
285 1 0.841517 0.340767 0.479174
815 1 0.917024 0.488303 0.918663
6 1 0.252419 0.0914076 1.00089
367 1 0.260029 -0.0052686 0.932897
373 1 0.50459 0.00346411 0.836708
733 1 0.487032 0.500651 0.674381
805 1 0.49742 0.495527 0.853901
363 1 0.084064 0.00362968 0.906222
809 1 0.662581 0.474743 0.840512
721 1 0.00799494 0.506827 0.671748
231 1 0.572859 0.0142372 0.57219
295 1 0.248062 0.00786785 0.754411
53 1 0.160693 0.342911 0.991173
242 1 0.0884342 0.254138 0.50521
218 1 0.0963319 0.0623068 0.517191
30 1 0.243981 0.245538 0.989602
245 1 0.172638 0.165399 0.510054
26 1 0.0980246 0.253122 0.999076
41 1 0.675747 0.167969 0.971787
49 1 0.0142065 0.322921 0.988428
37 1 0.504732 0.151005 0.99423
277 1 0.48906 0.341924 0.508592
2 1 0.071531 0.0765306 0.99292
38 1 0.593311 0.250014 0.989088
54 1 0.241635 0.434203 0.985044
222 1 0.262296 0.0762151 0.516889
270 1 0.240655 0.424108 0.516444
234 1 0.746314 0.0943186 0.49823
665 1 0.656732 0.486662 0.503925
440 1 0.160868 0.564098 0.0938982
502 1 0.931095 0.916481 -0.0016735
451 1 0.758068 0.495419 0.0830099
510 1 0.244987 0.586506 0.164209
463 1 0.247378 0.651645 0.0842251
537 1 0.328555 0.660248 0.161863
718 1 0.894596 0.904605 0.502124
628 1 0.000824985 0.9228 0.400808
658 1 0.405026 0.591562 0.485864
444 1 0.345637 0.582126 0.0806551
467 1 0.432379 0.69542 0.0775813
151 1 0.261925 0.99152 0.415591
701 1 0.181597 0.825203 0.493453
448 1 0.488773 0.600216 0.0741925
452 1 0.662649 0.57217 0.0714981
518 1 0.568647 0.591224 0.171946
471 1 0.580715 0.661015 0.0744543
541 1 0.507132 0.684533 0.162192
475 1 0.746178 0.666518 0.086495
545 1 0.660991 0.647694 0.152183
648 1 0.835174 0.915902 0.409355
456 1 0.833035 0.595722 0.0779072
641 1 0.664091 0.819393 0.327117
436 1 1.01104 0.589186 0.0803258
505 1 1.01034 0.511671 0.171068
459 1 0.100578 0.663134 0.0911404
533 1 0.165959 0.67538 0.181747
682 1 0.41344 0.750716 0.499546
530 1 0.0892405 0.74974 0.172511
579 1 0.078325 0.50915 0.420996
434 1 0.0769873 0.576208 -0.00798879
464 1 0.177719 0.755191 0.0792656
468 1 0.33906 0.739097 0.0890034
487 1 0.254416 0.824657 0.0852478
693 1 0.826602 0.662059 0.504333
561 1 0.319999 0.836908 0.162103
538 1 0.422011 0.754873 0.172099
472 1 0.503599 0.768697 0.0628815
491 1 0.402127 0.83023 0.0933656
494 1 0.5767 0.904667 0.00565446
581 1 0.161167 0.517168 0.340833
674 1 0.0724434 0.774371 0.499297
495 1 0.597999 0.821756 0.0808637
542 1 0.611109 0.735714 0.157248
577 1 0.0158659 0.494938 0.337942
476 1 0.685459 0.752827 0.0794991
499 1 0.753842 0.839503 0.088593
549 1 0.846252 0.662114 0.180143
480 1 0.837233 0.744072 0.0816055
479 1 0.92117 0.673558 0.083996
460 1 0.00404167 0.736698 0.0873922
503 1 0.917713 0.831995 0.0816051
515 1 0.410447 0.501845 0.253738
483 1 0.0928067 0.8329 0.0838388
484 1 0.0187368 0.920455 0.0780308
87 1 0.584589 0.991199 0.246112
643 1 0.745649 0.816648 0.413633
93 1 0.828459 0.998967 0.150211
89 1 0.676519 0.995613 0.173149
488 1 0.170012 0.923641 0.0881782
492 1 0.321232 0.907304 0.0730912
558 1 0.248732 0.921256 0.154436
650 1 0.0759882 0.587003 0.49888
81 1 0.328482 0.991861 0.161974
681 1 0.314104 0.6575 0.508329
496 1 0.514434 0.897053 0.0950512
599 1 0.92865 0.517196 0.427999
566 1 0.599238 0.910667 0.170644
644 1 0.668024 0.92366 0.402121
165 1 0.830576 1.00974 0.331182
500 1 0.665331 0.909851 0.0711082
513 1 0.32513 0.502886 0.16733
455 1 0.901151 0.509155 0.0800982
661 1 0.494148 0.501355 0.483041
449 1 0.662735 0.483082 0.0031993
504 1 0.845978 0.907648 0.0836981
157 1 0.506334 0.987384 0.330231
506 1 0.0885329 0.581822 0.173014
647 1 0.893102 0.83356 0.419789
512 1 0.153481 0.580955 0.249287
516 1 0.334515 0.606418 0.255081
147 1 0.0846789 1.0098 0.427863
514 1 0.418714 0.587748 0.181206
539 1 0.412942 0.680699 0.24962
586 1 0.411409 0.592879 0.324501
520 1 0.504674 0.605531 0.252702
524 1 0.665224 0.583676 0.24681
543 1 0.588311 0.684469 0.246946
613 1 0.500655 0.66329 0.346601
640 1 0.510607 0.916186 0.42255
631 1 0.251227 0.850976 0.404133
13 1 0.499543 1.00342 0.0156377
522 1 0.753602 0.577151 0.168761
528 1 0.824518 0.573919 0.248305
614 1 0.595022 0.750391 0.324583
714 1 0.732711 0.907327 0.488398
526 1 0.907185 0.575146 0.169464
508 1 -0.00409511 0.57788 0.262217
630 1 0.242149 0.933064 0.324668
598 1 0.916361 0.587307 0.329234
529 1 0.992603 0.662562 0.160689
553 1 0.0067512 0.830345 0.155743
531 1 0.078077 0.670607 0.246135
534 1 0.256143 0.74563 0.169078
535 1 0.261669 0.682837 0.261807
536 1 0.174824 0.763793 0.264472
559 1 0.256142 0.844539 0.251314
609 1 0.33476 0.6697 0.341383
606 1 0.254308 0.762918 0.335282
565 1 0.520818 0.809225 0.169274
540 1 0.335021 0.758468 0.23798
610 1 0.400432 0.745452 0.340464
544 1 0.500999 0.750031 0.262514
563 1 0.424884 0.835299 0.238645
637 1 0.501381 0.830577 0.335152
548 1 0.673248 0.746753 0.243042
567 1 0.594353 0.826658 0.242557
546 1 0.756546 0.748183 0.16858
569 1 0.673023 0.830127 0.159489
573 1 0.835334 0.83178 0.159513
547 1 0.752775 0.663637 0.250994
552 1 0.831226 0.758751 0.24402
550 1 0.907191 0.745504 0.161497
532 1 -0.000254257 0.756454 0.237389
551 1 0.930074 0.67945 0.258354
575 1 0.926173 0.83361 0.240238
625 1 1.00892 0.827603 0.320831
554 1 0.0926022 0.915091 0.178443
636 1 0.339373 0.911725 0.401431
555 1 0.0880158 0.837546 0.253757
556 1 0.00555693 0.917667 0.247422
560 1 0.163996 0.929803 0.253419
557 1 0.169262 0.833901 0.173027
564 1 0.341983 0.907445 0.236667
620 1 0.672272 0.740793 0.409847
619 1 0.747369 0.657951 0.414338
639 1 0.586386 0.832092 0.413208
632 1 0.160395 0.92375 0.41916
562 1 0.428627 0.913445 0.161838
634 1 0.405351 0.93354 0.321515
568 1 0.497436 0.912407 0.247671
638 1 0.581199 0.892664 0.321117
618 1 0.75032 0.74783 0.317149
570 1 0.743982 0.91351 0.166625
642 1 0.76433 0.912821 0.332268
617 1 0.664775 0.664995 0.337421
572 1 0.672566 0.930518 0.261678
571 1 0.744243 0.837097 0.250482
446 1 0.566345 0.580704 0.00587208
574 1 0.916108 0.919001 0.174119
646 1 0.924417 0.906825 0.330809
576 1 0.836876 0.926376 0.252194
578 1 0.0862483 0.587972 0.341993
603 1 0.0682615 0.676648 0.419199
584 1 0.172959 0.584717 0.420405
580 1 1.00215 0.590742 0.408926
627 1 0.0785079 0.838819 0.405377
582 1 0.256164 0.597712 0.339653
588 1 0.314741 0.57598 0.424573
607 1 0.240397 0.690455 0.412116
626 1 0.0860107 0.922483 0.339683
624 1 0.836277 0.739871 0.41581
592 1 0.50894 0.582074 0.412777
611 1 0.413689 0.668223 0.414014
590 1 0.585956 0.585711 0.327494
596 1 0.66177 0.577312 0.41461
615 1 0.588776 0.675102 0.410683
623 1 0.921845 0.668242 0.425668
622 1 0.924233 0.755642 0.336983
594 1 0.742292 0.579298 0.340174
621 1 0.837303 0.665673 0.332224
604 1 0.991029 0.765805 0.412575
511 1 0.238748 0.525061 0.26064
509 1 0.170321 0.495554 0.178088
600 1 0.830168 0.581115 0.406502
601 1 0.00148494 0.683261 0.330811
602 1 0.0898368 0.744695 0.3323
629 1 0.164478 0.842492 0.331637
605 1 0.16609 0.663493 0.324651
608 1 0.163799 0.763319 0.405011
612 1 0.327615 0.764299 0.432391
633 1 0.341828 0.842865 0.315389
635 1 0.412365 0.83341 0.412437
616 1 0.492429 0.752532 0.41496
645 1 0.821908 0.825187 0.332245
19 1 0.747315 0.984975 0.0782246
445 1 0.504063 0.491891 -0.000176685
717 1 0.81227 0.828997 0.500462
517 1 0.498979 0.498162 0.176598
585 1 0.332877 0.502126 0.328517
523 1 0.742123 0.495209 0.246665
167 1 0.910504 0.990283 0.418633
490 1 0.406277 0.930601 0.00708682
710 1 0.595006 0.919973 0.487656
589 1 0.505282 0.515845 0.319911
443 1 0.409968 0.494119 0.0724584
497 1 0.666034 0.824848 -0.00713132
486 1 0.242497 0.930808 0.0140426
462 1 0.257547 0.754872 0.00377681
689 1 0.667898 0.66172 0.497318
461 1 0.173969 0.650619 0.00408107
442 1 0.408039 0.576254 -0.00438697
481 1 -0.00582432 0.824111 0.0100723
677 1 0.163677 0.686988 0.485325
673 1 -0.00175951 0.676772 0.507221
698 1 0.0733469 0.916263 0.503583
493 1 0.47512 0.852292 0.0104685
485 1 0.170331 0.836026 -0.00606622
686 1 0.572083 0.75549 0.489638
685 1 0.49426 0.664925 0.478459
702 1 0.268749 0.919462 0.505304
709 1 0.499366 0.841781 0.504053
474 1 0.753268 0.756413 -0.00779195
473 1 0.66993 0.6598 0.00106203
669 1 0.832354 0.501205 0.501039
656 1 0.16404 0.592169 0.593351
722 1 0.0886832 0.587943 0.66582
365 1 0.163452 1.00395 0.838128
293 1 0.142915 0.989476 0.667164
291 1 0.0892622 1.00641 0.760794
501 1 0.848228 0.815138 0.99776
465 1 0.352568 0.676956 1.00012
660 1 0.323168 0.579548 0.586076
730 1 0.425066 0.595075 0.659929
664 1 0.505514 0.584017 0.574127
668 1 0.641786 0.583708 0.593894
734 1 0.562194 0.567006 0.657883
761 1 0.647554 0.657694 0.668509
691 1 0.744812 0.670493 0.591638
738 1 0.735666 0.583092 0.672635
672 1 0.831607 0.587704 0.584435
652 1 0.0151707 0.607054 0.587803
309 1 0.825388 0.998868 0.651167
742 1 0.922769 0.594904 0.659959
675 1 0.0854287 0.681778 0.578564
676 1 0.00219129 0.776575 0.583334
745 1 -0.00483133 0.68274 0.665662
746 1 0.0892295 0.760745 0.657484
651 1 0.104893 0.505869 0.594746
478 1 0.909826 0.732278 0.993365
679 1 0.259117 0.676145 0.593879
680 1 0.180532 0.767291 0.584465
684 1 0.347087 0.748578 0.57334
803 1 0.395892 0.491483 0.917828
683 1 0.410045 0.658818 0.583929
688 1 0.498474 0.740768 0.581864
754 1 0.419457 0.738247 0.660294
659 1 0.422058 0.521726 0.564412
311 1 0.917566 0.992106 0.750729
687 1 0.585848 0.678483 0.564405
711 1 0.579287 0.820112 0.585279
692 1 0.667543 0.746211 0.579633
239 1 0.918669 0.985934 0.584187
221 1 0.176133 0.999296 0.498113
696 1 0.827605 0.752442 0.598783
715 1 0.744905 0.838001 0.587955
482 1 0.0812212 0.919128 0.974625
762 1 0.741918 0.759382 0.668044
695 1 0.916188 0.674199 0.591561
727 1 0.255282 0.501322 0.742627
765 1 0.832737 0.667304 0.669104
699 1 0.0967397 0.843131 0.581094
700 1 0.99323 0.907 0.577568
704 1 0.191383 0.90344 0.581628
770 1 0.0768794 0.911099 0.666201
844 1 0.995949 0.891559 0.912472
377 1 0.67221 1.00836 0.844213
703 1 0.269339 0.826114 0.592851
777 1 0.349939 0.835691 0.66646
774 1 0.236309 0.91812 0.681081
438 1 0.258235 0.58447 1.0059
667 1 0.74023 0.497439 0.590377
707 1 0.415543 0.82978 0.586843
708 1 0.32602 0.914785 0.587146
712 1 0.509739 0.912425 0.569644
678 1 0.251265 0.735746 0.508596
716 1 0.652675 0.909191 0.576154
782 1 0.581711 0.933433 0.657395
799 1 0.257535 0.518016 0.910286
841 1 0.0120245 0.832393 0.824788
489 1 0.34818 0.834405 0.996791
720 1 0.824141 0.91261 0.581169
719 1 0.903037 0.828146 0.578158
790 1 0.893609 0.902175 0.66019
383 1 0.911854 1.00255 0.911397
458 1 0.0837098 0.748553 1.01819
729 1 0.349327 0.505458 0.663777
863 1 0.908563 0.812422 0.914735
794 1 0.0831134 0.581908 0.833153
728 1 0.155586 0.594427 0.760355
724 1 1.0082 0.5917 0.743167
726 1 0.245711 0.592554 0.671111
798 1 0.245907 0.590123 0.832731
864 1 0.834138 0.901549 0.92309
732 1 0.328934 0.590597 0.758966
736 1 0.509868 0.574093 0.762857
371 1 0.426718 1.01457 0.913841
829 1 0.500838 0.67723 0.836705
759 1 0.579942 0.671055 0.76159
857 1 0.668218 0.838953 0.833277
806 1 0.581418 0.555857 0.845401
740 1 0.646062 0.574382 0.766593
763 1 0.741638 0.671992 0.745558
810 1 0.723128 0.578857 0.830516
837 1 0.808262 0.651152 0.833076
859 1 0.7441 0.83838 0.919388
307 1 0.747271 1.00102 0.754782
744 1 0.82479 0.578172 0.740983
814 1 0.927088 0.581995 0.8314
747 1 0.0783557 0.669534 0.75339
771 1 0.0721295 0.825817 0.735619
752 1 0.161185 0.763055 0.736301
825 1 0.318378 0.680142 0.833734
749 1 0.167857 0.666314 0.672354
821 1 0.160231 0.681051 0.832096
750 1 0.260452 0.759704 0.66934
751 1 0.24578 0.678359 0.753868
753 1 0.32455 0.668251 0.678021
757 1 0.51199 0.659496 0.660416
755 1 0.429636 0.67062 0.737123
756 1 0.336648 0.75715 0.750444
758 1 0.57938 0.747984 0.66872
760 1 0.505456 0.758894 0.751774
830 1 0.586453 0.747231 0.839211
853 1 0.506512 0.839743 0.841804
789 1 0.82498 0.823843 0.671373
764 1 0.671166 0.755425 0.749555
768 1 0.83328 0.746255 0.73845
766 1 0.91368 0.746881 0.673939
817 1 0.0106834 0.668707 0.84148
748 1 0.996774 0.756919 0.755383
767 1 0.910026 0.668525 0.762565
838 1 0.901435 0.73313 0.841331
773 1 0.169335 0.836944 0.666952
776 1 0.144024 0.910328 0.745704
772 1 -0.00130791 0.913637 0.745488
654 1 0.236655 0.583369 0.513848
299 1 0.419202 1.0049 0.73796
775 1 0.240847 0.83506 0.746879
846 1 0.241493 0.922614 0.823813
780 1 0.325169 0.925094 0.743035
778 1 0.424929 0.924739 0.659836
779 1 0.42755 0.828573 0.755649
854 1 0.584165 0.933162 0.833906
781 1 0.490537 0.834119 0.665599
784 1 0.503602 0.931257 0.748198
783 1 0.571023 0.84437 0.742686
785 1 0.657853 0.847966 0.661334
731 1 0.415794 0.499538 0.773602
860 1 0.660617 0.92377 0.919445
235 1 0.734914 0.980799 0.576015
786 1 0.746407 0.916603 0.676731
787 1 0.742534 0.834874 0.75068
788 1 0.659082 0.930739 0.739059
858 1 0.750823 0.921303 0.835563
769 1 0.985171 0.838138 0.67213
792 1 0.84037 0.911504 0.748651
791 1 0.908191 0.829548 0.753021
862 1 0.904976 0.905957 0.833828
800 1 0.162495 0.578672 0.904763
849 1 0.319283 0.832513 0.830891
796 1 0.986192 0.574604 0.924568
842 1 0.095305 0.901776 0.839299
850 1 0.415722 0.930895 0.819255
804 1 0.342298 0.583595 0.900988
852 1 0.362325 0.921213 0.911859
856 1 0.504408 0.921341 0.932407
847 1 0.259976 0.845511 0.932961
802 1 0.416413 0.600241 0.829152
840 1 0.818821 0.740308 0.904764
671 1 0.91126 0.50763 0.592265
808 1 0.497371 0.58169 0.916742
812 1 0.669349 0.561577 0.921773
813 1 0.839233 0.509279 0.81563
848 1 0.182675 0.927415 0.922116
820 1 -0.00242588 0.744128 0.913437
833 1 0.65892 0.66315 0.832144
219 1 0.0801748 0.97568 0.579253
816 1 0.849068 0.576408 0.916515
839 1 0.912219 0.659616 0.908075
843 1 0.0865044 0.825681 0.924292
818 1 0.0906034 0.747752 0.839604
845 1 0.167045 0.817035 0.860863
819 1 0.0915112 0.665092 0.912987
824 1 0.171937 0.739636 0.935977
823 1 0.249028 0.660061 0.909815
822 1 0.245319 0.752613 0.8312
828 1 0.325249 0.750021 0.915794
826 1 0.424593 0.750979 0.826109
827 1 0.417907 0.668476 0.904608
851 1 0.413322 0.820554 0.90004
855 1 0.587051 0.831839 0.926629
831 1 0.57686 0.665464 0.920809
832 1 0.505106 0.75302 0.917219
836 1 0.669537 0.741643 0.91157
834 1 0.750992 0.737155 0.824288
861 1 0.827652 0.82334 0.831853
801 1 0.315343 0.495421 0.827099
835 1 0.73385 0.658805 0.910932
743 1 0.918666 0.522003 0.736827
289 1 0.995168 0.992214 0.657662
705 1 0.34094 0.829813 0.511691
369 1 0.323009 0.983594 0.841137
450 1 0.752312 0.561793 0.996079
217 1 0.994033 0.990027 0.498966
361 1 1.00029 0.988686 0.835062
466 1 0.420959 0.758114 0.99453
379 1 0.740973 0.993275 0.927192
301 1 0.507419 1.01004 0.656649
441 1 0.330338 0.500219 1.01062
225 1 0.345239 0.996472 0.520767
470 1 0.589715 0.746462 0.997878
457 1 1.00208 0.668503 0.994888
666 1 0.745109 0.579905 0.502873
697 1 0.996215 0.845555 0.48747
477 1 0.815057 0.654936 0.99298
1 1 0.993144 1.00155 0.997447
662 1 0.583219 0.578792 0.494827
706 1 0.41168 0.906475 0.495499
649 1 0.00239346 0.511098 0.540738
653 1 0.172318 0.505071 0.500655
469 1 0.479938 0.667549 0.991793
670 1 0.912155 0.599408 0.503614
690 1 0.7354 0.740818 0.496064
454 1 0.91275 0.59286 1.00875
498 1 0.754054 0.912724 1.00504
713 1 0.658708 0.82517 0.491292
694 1 0.917182 0.754864 0.505515
237 1 0.829117 1.00352 0.501069
