ITEM: TIMESTEP
15500
ITEM: NUMBER OF ATOMS
1372
ITEM: BOX BOUNDS pp pp pp
0.0000000000000000e+00 3.6820000000000000e+01
0.0000000000000000e+00 3.6820000000000000e+01
0.0000000000000000e+00 3.6820000000000000e+01
ITEM: ATOMS id type xs ys zs
8 1 0.137053 0.0542718 0.0758673
100 1 0.0785075 0.0705234 0.139429
117 1 0.145877 0.146424 0.146481
17 1 0.0870056 0.139894 0.0683536
981 1 0.496822 0.0638733 0.423696
12 1 0.286712 0.0671642 0.0678245
104 1 0.213872 0.0664207 0.133558
7 1 0.213526 0.995407 0.0746862
121 1 0.301109 0.144334 0.136203
21 1 0.210709 0.137515 0.0631691
323 1 0.014055 0.572271 0.434867
14 1 0.438419 0.0694639 0.0645869
108 1 0.356594 0.071092 0.13221
111 1 0.42687 1.00873 0.149932
10 1 0.351185 0.0574523 -0.00288317
330 1 0.010723 0.713696 0.427836
22 1 0.147104 0.22093 0.0677432
114 1 0.0799323 0.218084 0.135783
131 1 0.151172 0.279204 0.140614
31 1 0.064607 0.270658 0.0381915
301 1 0.421934 -0.011601 0.419405
197 1 -0.000577737 0.00126466 0.284421
369 1 0.376582 0.429657 0.48917
26 1 0.284107 0.225193 0.066235
118 1 0.221266 0.213393 0.135653
135 1 0.291254 0.284894 0.14246
926 1 0.492948 0.428219 0.352092
125 1 0.437094 0.149012 0.146794
25 1 0.365402 0.128687 0.0695285
28 1 0.419739 0.202466 0.0642997
122 1 0.371771 0.208954 0.134544
39 1 0.36013 0.280394 0.059952
36 1 0.1391 0.348795 0.0608128
128 1 0.0734963 0.345983 0.150643
145 1 0.134405 0.42431 0.142411
772 1 0.494208 0.8664 0.0679068
74 1 0.00317445 0.789084 0.0671702
2 1 0.0717282 0.0685014 0.00142009
35 1 0.219084 0.291887 0.0637891
40 1 0.286969 0.356861 0.0703824
132 1 0.206571 0.363696 0.133937
49 1 0.200788 0.425063 0.0666219
149 1 0.290017 0.431737 0.143308
139 1 0.424282 0.292051 0.146297
42 1 0.431547 0.350658 0.0771279
136 1 0.364395 0.358217 0.138234
153 1 0.43725 0.419784 0.142237
53 1 0.35484 0.422912 0.0777613
342 1 0.342478 0.927379 0.431092
294 1 0.425587 0.927484 0.343645
45 1 0.0683558 0.42132 0.0665414
316 1 -0.00644818 0.434978 0.427097
50 1 0.140684 0.498263 0.0722901
142 1 0.0730615 0.491921 0.136094
59 1 0.0652382 0.565091 0.0756404
159 1 0.152082 0.573909 0.148527
284 1 0.00299348 0.934289 0.365765
828 1 0.497829 0.4322 0.214293
54 1 0.277366 0.508123 0.0664182
146 1 0.216998 0.500307 0.143522
163 1 0.297365 0.57295 0.149932
63 1 0.200999 0.567203 0.0685559
242 1 0.00107808 0.510115 0.370763
56 1 0.435245 0.508069 0.0682008
150 1 0.351408 0.504141 0.122522
167 1 0.432383 0.574747 0.139364
67 1 0.371835 0.567086 0.0404078
884 1 0.49232 0.989687 0.347683
343 1 0.416589 0.865528 0.432797
64 1 0.124157 0.639309 0.0597096
156 1 0.0796251 0.638368 0.154182
173 1 0.136005 0.708425 0.133275
270 1 0.00880824 0.783312 0.365599
953 1 0.501603 0.789547 0.277559
68 1 0.292908 0.641726 0.0790786
160 1 0.208994 0.640187 0.138655
77 1 0.200646 0.709369 0.0683897
177 1 0.280779 0.717509 0.133503
360 1 0.213148 0.270166 0.505434
371 1 0.42874 0.510166 0.491341
70 1 0.430004 0.649092 0.0672337
164 1 0.361569 0.64256 0.145304
81 1 0.360414 0.711601 0.0645772
181 1 0.428352 0.714899 0.130666
785 1 0.492846 0.0743188 0.144216
73 1 0.0804857 0.726614 0.0612702
78 1 0.143107 0.79203 0.0691034
170 1 0.0814446 0.78575 0.13651
87 1 0.0687866 0.868831 0.0551319
187 1 0.131348 0.865625 0.124015
34 1 0.215058 0.355721 0.00554087
102 1 -0.000618873 0.0842889 0.208717
82 1 0.26909 0.793628 0.0670397
174 1 0.199413 0.780787 0.143773
191 1 0.262537 0.849154 0.136625
716 1 0.514676 0.288084 0.075823
364 1 0.43024 0.348466 0.493319
84 1 0.422205 0.782878 0.0694191
178 1 0.349426 0.774523 0.139849
95 1 0.356453 0.855345 0.0890737
299 1 0.289996 -0.00107486 0.426962
355 1 0.363978 0.121719 0.507571
3 1 0.070992 0.00191219 0.0690742
103 1 0.1372 -0.00558024 0.150117
92 1 0.13658 0.939498 0.0685266
184 1 0.0572007 0.948002 0.154433
337 1 0.00526549 0.857522 0.432746
183 1 0.0261248 0.853701 0.144863
91 1 0.202882 0.855618 0.0585231
107 1 0.281686 1.00458 0.14442
96 1 0.27289 0.925792 0.0868493
188 1 0.201554 0.932547 0.143069
195 1 0.429744 0.865083 0.141063
11 1 0.346304 0.993225 0.0687257
98 1 0.421871 0.933874 0.0690953
192 1 0.358956 0.939624 0.144891
253 1 0.00964963 0.558554 0.290087
155 1 0.0127574 0.569768 0.150868
954 1 0.499855 0.725869 0.348709
292 1 0.286375 0.928328 0.357349
106 1 0.149846 0.0693955 0.206495
198 1 0.078103 0.0773921 0.276647
115 1 0.0755566 0.138337 0.214782
340 1 0.212542 0.949297 0.429989
110 1 0.284877 0.0790777 0.202564
202 1 0.219583 0.0747667 0.282973
119 1 0.20799 0.140961 0.209303
205 1 0.28982 0.996158 0.287542
105 1 0.212302 0.00518212 0.213744
112 1 0.427552 0.0748668 0.21988
206 1 0.353399 0.0713785 0.275433
109 1 0.350942 0.999136 0.215748
209 1 0.421127 1.01221 0.281598
141 1 0.00227663 0.415155 0.140056
215 1 0.143046 0.150956 0.275422
120 1 0.159433 0.22332 0.223473
212 1 0.0859806 0.221746 0.30754
129 1 0.0741831 0.276359 0.221944
229 1 0.149913 0.283391 0.303972
219 1 0.284969 0.148281 0.276419
124 1 0.287815 0.209198 0.206982
216 1 0.226988 0.211951 0.287437
133 1 0.223874 0.28889 0.20098
233 1 0.285763 0.285761 0.288082
123 1 0.358793 0.149277 0.208102
223 1 0.437107 0.138765 0.290031
126 1 0.439137 0.215075 0.213161
220 1 0.352998 0.223325 0.282047
137 1 0.356426 0.284801 0.211675
988 1 0.49803 0.204821 0.420762
134 1 0.141706 0.340012 0.224653
226 1 0.0684439 0.338886 0.285327
138 1 0.292315 0.354482 0.213181
230 1 0.214015 0.355467 0.279424
147 1 0.207046 0.424675 0.202199
341 1 0.261818 0.869334 0.427641
237 1 0.438441 0.286099 0.272973
140 1 0.42491 0.36076 0.21339
234 1 0.365387 0.34717 0.284948
251 1 0.416832 0.425619 0.274944
151 1 0.356483 0.432383 0.211665
239 1 0.00605754 0.426632 0.287805
143 1 0.0753993 0.421822 0.219606
243 1 0.152015 0.433322 0.284562
148 1 0.149998 0.489898 0.213655
240 1 0.079925 0.497799 0.281798
157 1 0.0851305 0.562318 0.213342
758 1 0.495376 0.716981 0.0609906
247 1 0.294225 0.432335 0.272511
152 1 0.295979 0.50084 0.210936
244 1 0.216193 0.490426 0.28572
261 1 0.294441 0.56432 0.287109
154 1 0.420519 0.498734 0.191561
248 1 0.369105 0.505436 0.27764
165 1 0.362043 0.582972 0.214245
968 1 0.485474 0.861074 0.361403
172 1 -0.00152738 0.7886 0.23321
257 1 0.150571 0.559612 0.276202
162 1 0.150276 0.644241 0.211564
254 1 0.0822535 0.649922 0.282097
271 1 0.1491 0.712919 0.279664
171 1 0.0675581 0.717912 0.20634
199 1 0.0646092 -0.00536056 0.359706
297 1 0.14687 0.00778219 0.429852
161 1 0.232108 0.57074 0.206569
166 1 0.284633 0.647699 0.200266
258 1 0.222258 0.630811 0.278174
175 1 0.212535 0.70945 0.201713
265 1 0.430693 0.573323 0.286934
168 1 0.424916 0.654962 0.216125
262 1 0.347017 0.654445 0.309034
179 1 0.347024 0.708774 0.225017
842 1 0.502525 0.572728 0.206185
176 1 0.14697 0.773666 0.206203
268 1 0.0851511 0.782733 0.28887
285 1 0.142997 0.855171 0.292459
185 1 0.078498 0.851901 0.227008
275 1 0.273043 0.701031 0.298023
180 1 0.271835 0.785548 0.212291
272 1 0.207031 0.783825 0.280215
189 1 0.206696 0.863096 0.209874
289 1 0.269558 0.871823 0.28311
730 1 0.501504 0.427783 0.0716621
279 1 0.420411 0.721508 0.28594
182 1 0.423381 0.777846 0.203293
276 1 0.344366 0.787207 0.281442
193 1 0.350685 0.840016 0.205836
293 1 0.425981 0.846856 0.270443
83 1 0.423615 0.723054 -0.00586279
201 1 0.139795 0.00340028 0.279794
101 1 0.0633539 1.0092 0.217786
190 1 0.123788 0.924195 0.211786
282 1 0.0705996 0.942073 0.283603
855 1 0.492716 0.786095 0.127768
194 1 0.280521 0.932955 0.2068
286 1 0.200626 0.936119 0.278851
870 1 0.505576 0.858674 0.20564
196 1 0.428925 0.9225 0.210421
290 1 0.350317 0.917851 0.267541
288 1 0.147193 0.945849 0.346797
204 1 0.145071 0.0664882 0.347689
296 1 0.0693239 0.0690136 0.425132
304 1 0.143818 0.12702 0.418841
23 1 0.284047 0.136079 -0.00597299
203 1 0.226622 0.0032771 0.349261
208 1 0.289032 0.0706906 0.357217
298 1 0.215734 0.0723214 0.42956
217 1 0.219698 0.138331 0.356546
1023 1 0.488979 0.931956 0.427546
1009 1 0.501877 0.658891 0.426563
1044 1 0.488956 0.273975 0.495798
207 1 0.355264 0.998232 0.351818
210 1 0.406756 0.0703455 0.35085
300 1 0.351681 0.0651581 0.42872
308 1 0.42336 0.144148 0.425269
1002 1 0.496241 0.502169 0.423792
213 1 0.0755406 0.142408 0.357602
218 1 0.146283 0.215335 0.379468
303 1 0.0568039 0.224284 0.434406
227 1 0.0620153 0.287205 0.369427
90 1 0.213761 0.930674 -0.00451955
306 1 0.28438 0.128569 0.425325
222 1 0.282284 0.214738 0.359716
305 1 0.22035 0.206474 0.427657
339 1 0.157661 0.864155 0.435787
274 1 0.155638 0.797931 0.373362
221 1 0.360946 0.150137 0.337318
72 1 0.0741529 0.788816 -0.00249953
224 1 0.417225 0.219358 0.351585
307 1 0.341612 0.19781 0.421499
315 1 0.433074 0.277817 0.422012
283 1 0.0902518 0.861252 0.367251
287 1 0.210119 0.870745 0.354841
335 1 0.356349 0.794252 0.426091
311 1 0.143048 0.282576 0.432471
232 1 0.143928 0.361443 0.356631
310 1 0.0653505 0.368795 0.425149
277 1 0.348145 0.734332 0.360549
313 1 0.28277 0.280692 0.430537
231 1 0.214498 0.285441 0.360354
236 1 0.284999 0.352543 0.351492
312 1 0.208665 0.359555 0.433572
320 1 0.285015 0.421517 0.423651
46 1 -0.00551528 0.491982 0.0869884
336 1 0.4338 0.72348 0.432948
235 1 0.350443 0.27699 0.360245
238 1 0.424865 0.347766 0.356633
314 1 0.351955 0.353571 0.422956
291 1 0.366476 0.858401 0.35642
88 1 -0.00806008 0.943626 0.0816221
280 1 0.422732 0.788376 0.364115
318 1 0.142446 0.417538 0.432342
241 1 0.0703264 0.433169 0.36335
246 1 0.144555 0.48909 0.365705
317 1 0.075133 0.502954 0.430365
255 1 0.0820503 0.567446 0.352838
245 1 0.219056 0.427062 0.357394
319 1 0.218828 0.496363 0.418852
250 1 0.295251 0.49174 0.346475
327 1 0.285394 0.565767 0.424022
278 1 0.275601 0.791776 0.354989
338 1 0.0811179 0.932275 0.433412
333 1 0.223061 0.786651 0.438212
267 1 0.00402739 0.70034 0.286811
249 1 0.360739 0.416513 0.34784
322 1 0.428431 0.407942 0.420445
321 1 0.371059 0.485016 0.427208
263 1 0.360723 0.564267 0.358142
252 1 0.437633 0.496588 0.35359
331 1 0.0682012 0.781926 0.428128
332 1 0.16396 0.708729 0.448481
269 1 0.103119 0.714093 0.362933
325 1 0.15227 0.568761 0.430676
260 1 0.160019 0.631057 0.361182
324 1 0.083108 0.634964 0.446736
925 1 0.491739 0.501805 0.2698
273 1 0.201754 0.715342 0.36004
264 1 0.278252 0.638531 0.359658
259 1 0.221461 0.559161 0.352476
326 1 0.222047 0.633371 0.431492
334 1 0.281284 0.719912 0.430904
71 1 0.00698481 0.721843 -0.00382695
266 1 0.427216 0.65591 0.357241
328 1 0.354574 0.655691 0.425573
329 1 0.441198 0.576513 0.41757
883 1 0.500999 0.0690457 0.288045
113 1 0.0101349 0.14969 0.142824
225 1 -0.00680113 0.274668 0.284717
1058 1 0.499675 0.578195 0.493712
702 1 0.502839 0.136705 0.0727119
86 1 0.0648926 0.931214 -0.0110545
30 1 0.060096 0.358904 0.00208245
995 1 0.509836 0.360632 0.417067
186 1 -0.000265883 0.911723 0.2169
144 1 0.0124529 0.492888 0.212411
4 1 0.00494239 0.0770447 0.0696695
169 1 -0.00385551 0.714289 0.145484
5 1 0.136539 -0.0120011 -0.0134691
911 1 0.491006 0.356436 0.290075
93 1 0.286099 0.851531 -0.00805871
1051 1 0.48822 0.43557 0.492935
60 1 0.0139496 0.650427 0.0842131
18 1 -0.00814119 0.210822 0.0748069
380 1 0.00194966 0.784518 0.499048
127 1 0.0038347 0.282856 0.14258
32 1 0.00749276 0.339287 0.0729049
295 1 -0.00629741 1.01451 0.440375
967 1 0.505183 0.9201 0.286688
256 1 0.0100602 0.640169 0.35017
367 1 0.22694 0.440393 0.499052
47 1 0.14251 0.42178 -0.00141992
387 1 -0.00082741 0.936774 0.500919
385 1 0.409833 0.796399 0.501003
389 1 0.139584 0.932218 0.506434
379 1 0.0841771 0.71291 0.496
61 1 0.133831 0.574201 -0.00412359
715 1 0.492838 0.347974 0.00543399
376 1 0.361722 0.57483 0.489049
65 1 0.2756 0.582558 -0.0050578
80 1 0.342387 0.78054 0.00577002
6 1 0.210452 0.0599271 0.00180748
15 1 0.00784982 0.143144 -0.00587043
62 1 0.201301 0.642931 0.00269121
358 1 0.0626811 0.286831 0.501234
378 1 0.422882 0.644964 0.497643
374 1 0.224992 0.571734 0.516558
357 1 0.406246 0.203028 0.504897
1037 1 0.501169 0.133376 0.500018
75 1 0.140996 0.719752 -0.0120303
757 1 0.49736 0.789852 -0.0123457
391 1 0.280478 0.9308 0.499114
38 1 0.352054 0.362686 0.00136496
94 1 0.349742 0.919995 0.0146587
771 1 0.503946 0.927646 -0.0120688
353 1 0.219739 0.149525 0.497351
394 1 0.0803826 0.06907 0.571763
400 1 0.132092 0.0761149 0.654341
411 1 0.144689 0.135343 0.575002
536 1 -0.0133462 0.490223 0.787907
398 1 0.204638 0.0672686 0.580241
404 1 0.273251 0.0853847 0.65143
413 1 0.202051 0.151909 0.652162
399 1 0.204595 1.00989 0.64935
1289 1 0.508028 0.200128 0.859176
402 1 0.345266 0.0659915 0.583763
406 1 0.426178 0.0734962 0.640875
419 1 0.430294 0.129813 0.577442
417 1 0.346888 0.134607 0.652043
449 1 7.10972e-05 0.561024 0.573884
409 1 0.0597887 0.144012 0.637882
408 1 0.0514598 0.209454 0.555766
414 1 0.136497 0.213409 0.650257
425 1 0.129725 0.269938 0.561196
370 1 0.298945 0.505385 0.493482
631 1 -0.00869229 0.424947 0.852597
599 1 0.365016 0.997034 0.919669
1192 1 0.506656 0.148808 0.785587
415 1 0.276654 0.135548 0.572689
412 1 0.204466 0.207323 0.574466
418 1 0.288602 0.217182 0.635414
427 1 0.218235 0.286123 0.631834
429 1 0.295255 0.286611 0.568781
431 1 0.366528 0.293623 0.636341
416 1 0.356838 0.198029 0.575425
420 1 0.431982 0.218373 0.636345
550 1 -0.00901828 0.639996 0.79074
662 1 -0.0049484 0.785753 0.933107
423 1 0.0576829 0.276657 0.627159
422 1 0.0664003 0.353993 0.571529
428 1 0.14626 0.348753 0.622456
439 1 0.140026 0.428124 0.56515
437 1 0.0743926 0.42877 0.638862
351 1 0.0699255 0.14402 0.479707
683 1 0.359888 0.836456 0.928289
466 1 -0.00421405 0.781213 0.63552
382 1 0.149258 0.792616 0.502443
426 1 0.225564 0.364231 0.552163
432 1 0.289622 0.373242 0.630033
441 1 0.214218 0.42996 0.638201
443 1 0.295681 0.439348 0.561941
433 1 0.427384 0.289267 0.566487
430 1 0.367235 0.359085 0.571387
434 1 0.444126 0.349453 0.629925
445 1 0.358286 0.430678 0.638954
1359 1 0.503978 0.925746 0.859276
354 1 0.133867 0.206819 0.489726
436 1 0.0805449 0.503928 0.574606
442 1 0.142738 0.501022 0.65359
453 1 0.148559 0.561435 0.583351
1219 1 0.499712 0.496682 0.720078
634 1 0.0044163 0.482737 0.931953
440 1 0.221144 0.491536 0.577083
446 1 0.286437 0.502989 0.651432
455 1 0.222013 0.577747 0.647612
547 1 -4.24501e-05 0.578636 0.72252
447 1 0.426307 0.43221 0.569429
444 1 0.368065 0.505748 0.563225
448 1 0.421165 0.498159 0.645389
461 1 0.436717 0.578767 0.566026
685 1 0.432432 0.861882 0.854983
451 1 0.0669214 0.569487 0.645234
450 1 0.0697742 0.645837 0.563748
456 1 0.135261 0.644527 0.635024
467 1 0.145966 0.715206 0.567082
465 1 0.0492737 0.709916 0.637315
384 1 0.287355 0.799418 0.511416
1276 1 0.494094 0.00287099 0.927595
682 1 0.352325 0.927903 0.852876
457 1 0.292161 0.568888 0.586868
454 1 0.223183 0.644019 0.588161
460 1 0.295537 0.648568 0.654726
1304 1 0.489357 0.278282 0.932911
1163 1 0.507178 0.939274 0.57841
686 1 0.432074 0.923922 0.928353
20 1 0.206874 0.203221 0.994552
459 1 0.369211 0.576137 0.650604
458 1 0.377401 0.646872 0.582409
462 1 0.429276 0.645079 0.669005
475 1 0.441961 0.711686 0.577656
1136 1 0.505211 0.572396 0.637087
361 1 0.14115 0.358293 0.509698
1093 1 0.494216 0.210625 0.560218
1261 1 0.498108 0.924626 0.708977
480 1 -0.0140323 0.923052 0.637588
464 1 0.074072 0.781423 0.572478
470 1 0.135295 0.785989 0.650236
1164 1 0.509029 0.853122 0.647068
356 1 0.296705 0.197418 0.50111
469 1 0.211044 0.712229 0.641251
471 1 0.297698 0.725652 0.593817
1275 1 0.489115 0.0693259 0.85667
468 1 0.223655 0.782636 0.57056
483 1 0.211134 0.846379 0.646837
474 1 0.293071 0.795631 0.647927
485 1 0.27863 0.874399 0.572593
592 1 -0.0030844 0.0748532 0.923127
52 1 0.34955 0.487445 1.01063
473 1 0.371648 0.720743 0.652688
472 1 0.363965 0.786998 0.572253
476 1 0.438254 0.785331 0.643071
487 1 0.365305 0.865803 0.643793
366 1 0.00483645 0.489186 0.506776
395 1 0.07081 0.984894 0.63804
397 1 0.140311 0.00266273 0.575663
388 1 0.212374 0.863918 0.507645
481 1 0.145217 0.859676 0.582591
479 1 0.0635647 0.857999 0.643041
478 1 0.0692302 0.93887 0.556512
484 1 0.153077 0.929093 0.64432
344 1 0.0728937 0.00310002 0.499642
37 1 0.277949 0.287171 0.99495
401 1 0.280455 1.00254 0.579174
482 1 0.214236 0.934916 0.569855
488 1 0.282749 0.930393 0.659357
477 1 0.00685205 0.857975 0.568281
403 1 0.350232 -0.000250494 0.651212
489 1 0.431034 0.8595 0.55597
405 1 0.424666 0.005556 0.571379
486 1 0.350223 0.935442 0.577589
490 1 0.43402 0.934337 0.640501
533 1 -0.00594496 0.43197 0.710927
1121 1 0.493529 0.505129 0.56207
492 1 0.0529022 0.0700546 0.710231
498 1 0.125986 0.0766649 0.781816
507 1 0.0614739 0.1425 0.788121
509 1 0.136582 0.148168 0.718913
493 1 0.0591167 0.991379 0.787823
495 1 0.123066 0.995123 0.718155
496 1 0.199119 0.0800466 0.714657
502 1 0.292939 0.0828103 0.781513
513 1 0.276472 0.156568 0.718079
497 1 0.202095 -0.00504252 0.792202
499 1 0.272953 0.994823 0.730387
678 1 0.211652 0.927554 0.865182
500 1 0.357421 0.0633988 0.717893
504 1 0.421589 0.063479 0.78108
515 1 0.349929 0.149428 0.778371
503 1 0.436677 0.00560066 0.716594
506 1 0.0550461 0.20377 0.713989
512 1 0.129587 0.221817 0.772432
521 1 0.0666794 0.295235 0.79157
511 1 0.219932 0.148551 0.785201
510 1 0.212348 0.221408 0.711072
516 1 0.299583 0.22014 0.78031
527 1 0.278273 0.277279 0.705786
525 1 0.220416 0.278771 0.782942
517 1 0.438665 0.144716 0.706528
514 1 0.355928 0.2058 0.705899
518 1 0.419786 0.213812 0.779116
531 1 0.432931 0.288704 0.710708
684 1 0.297237 0.918344 0.929703
523 1 0.133649 0.296685 0.703068
520 1 0.0797201 0.369812 0.711776
526 1 0.14249 0.352894 0.783865
537 1 0.156496 0.426369 0.706036
524 1 0.206655 0.346812 0.713125
530 1 0.291283 0.341152 0.760992
541 1 0.29026 0.422441 0.709574
539 1 0.221276 0.425627 0.792817
51 1 0.285416 0.423551 0.998095
597 1 0.276381 1.00626 0.855196
529 1 0.365338 0.285546 0.777357
528 1 0.362991 0.3614 0.711964
532 1 0.432868 0.357129 0.778244
543 1 0.366157 0.423764 0.787636
535 1 0.0694152 0.423976 0.793163
534 1 0.0772542 0.488161 0.730518
540 1 0.142123 0.501624 0.792488
549 1 0.0666176 0.575291 0.786459
538 1 0.218201 0.501835 0.710405
544 1 0.283464 0.49306 0.778075
555 1 0.288952 0.572373 0.718075
553 1 0.218286 0.560999 0.794207
545 1 0.429727 0.432503 0.719351
542 1 0.362364 0.49625 0.717816
546 1 0.436032 0.487984 0.800828
559 1 0.430272 0.562335 0.729738
557 1 0.348488 0.55893 0.787873
551 1 0.15072 0.579618 0.719891
548 1 0.0751967 0.633286 0.7164
554 1 0.161198 0.640783 0.78064
563 1 0.0732354 0.694375 0.781555
552 1 0.216883 0.655362 0.70707
558 1 0.277654 0.635174 0.786323
567 1 0.220096 0.720665 0.788275
519 1 0.0189185 0.28542 0.714991
556 1 0.360799 0.64474 0.725779
560 1 0.442643 0.640214 0.78618
573 1 0.440884 0.728073 0.727772
565 1 0.138863 0.709895 0.717692
562 1 0.0606394 0.783527 0.713206
568 1 0.139379 0.772384 0.781979
577 1 0.0736062 0.853606 0.786052
579 1 0.138981 0.861581 0.725721
569 1 0.295137 0.713281 0.728263
566 1 0.208237 0.778794 0.711869
572 1 0.287151 0.788314 0.790394
583 1 0.284671 0.863361 0.723248
571 1 0.36708 0.70912 0.788143
570 1 0.368367 0.778197 0.720708
574 1 0.440434 0.792271 0.795912
585 1 0.369797 0.858426 0.789559
576 1 0.0613784 0.913336 0.71343
582 1 0.127768 0.922449 0.795532
581 1 0.206087 0.84649 0.7869
580 1 0.206015 0.923102 0.709818
586 1 0.27158 0.926206 0.790425
675 1 0.0738293 0.855086 0.922554
501 1 0.339033 -0.00332093 0.791904
587 1 0.435005 0.856458 0.715645
584 1 0.358928 0.929243 0.723005
588 1 0.42916 0.933046 0.785792
591 1 0.0625876 1.00458 0.924894
375 1 0.151588 0.628671 0.504127
590 1 0.0700429 0.0663046 0.850907
596 1 0.135137 0.0709761 0.917556
593 1 0.133796 0.995596 0.847975
605 1 0.069053 0.135653 0.918458
674 1 0.0636323 0.928276 0.855795
680 1 0.137121 0.924457 0.924883
1094 1 0.506411 0.129878 0.648584
348 1 0.351344 1.00967 0.503657
595 1 0.209365 -0.00106832 0.924411
594 1 0.210029 0.076141 0.842897
600 1 0.285889 0.0656442 0.919227
609 1 0.211132 0.122845 0.936647
611 1 0.278734 0.145443 0.858234
601 1 0.430285 -0.00400445 0.856907
452 1 0.00125258 0.640871 0.628298
661 1 0.0685752 0.721756 0.923941
598 1 0.355468 0.0682047 0.846518
602 1 0.424432 0.0696864 0.926307
607 1 0.142677 0.156827 0.834306
604 1 0.0579484 0.228199 0.868516
610 1 0.159595 0.198905 0.919077
621 1 0.149725 0.293745 0.854493
619 1 0.048976 0.279891 0.939624
44 1 0.063882 0.497929 1.00509
660 1 0.0586799 0.784751 0.859313
666 1 0.138774 0.78359 0.91645
608 1 0.227462 0.217188 0.851183
614 1 0.269748 0.205087 0.938501
623 1 0.212948 0.28518 0.922843
615 1 0.4192 0.140013 0.843838
613 1 0.352727 0.152632 0.928475
612 1 0.358602 0.213395 0.860023
616 1 0.432572 0.21124 0.91342
627 1 0.355058 0.281362 0.926336
629 1 0.430089 0.294446 0.852494
665 1 0.217456 0.718744 0.935782
677 1 0.145357 0.858008 0.863413
618 1 0.0850745 0.353976 0.852904
624 1 0.141126 0.362173 0.926091
633 1 0.0711465 0.422776 0.917723
635 1 0.143525 0.426391 0.857586
625 1 0.29402 0.291207 0.857025
622 1 0.225014 0.361048 0.861218
628 1 0.30066 0.353289 0.919919
637 1 0.210917 0.429347 0.927715
639 1 0.296371 0.439498 0.861019
679 1 0.209006 0.848968 0.928069
48 1 0.198061 0.495986 1.00022
641 1 0.367264 0.430389 0.934647
626 1 0.358327 0.355741 0.844186
630 1 0.433901 0.351712 0.922845
1107 1 0.499225 0.352604 0.556951
632 1 0.0673563 0.48961 0.857356
638 1 0.129918 0.519 0.919478
664 1 0.205276 0.785527 0.85189
681 1 0.296187 0.848508 0.848459
668 1 0.370245 0.780128 0.845483
636 1 0.20534 0.497679 0.878181
642 1 0.282525 0.50456 0.939745
55 1 0.423638 0.419947 1.01066
670 1 0.279717 0.792461 0.916606
76 1 0.206179 0.785649 0.993085
392 1 0.424212 0.936584 0.506874
655 1 0.359724 0.564003 0.936241
640 1 0.355847 0.499543 0.85561
644 1 0.439022 0.49735 0.928389
643 1 0.431869 0.423816 0.867889
669 1 0.347699 0.734417 0.924394
663 1 0.146066 0.708299 0.849601
671 1 0.429285 0.712337 0.850126
649 1 0.141714 0.578434 0.846741
646 1 0.0763968 0.649382 0.856869
652 1 0.135332 0.643907 0.927685
647 1 0.0717086 0.580033 0.921521
650 1 0.213966 0.650326 0.856534
656 1 0.283857 0.649508 0.93574
653 1 0.289318 0.573645 0.869952
651 1 0.20433 0.583306 0.92315
667 1 0.294227 0.716257 0.855613
561 1 -0.000888578 0.711441 0.717891
672 1 0.439131 0.779834 0.913744
658 1 0.433686 0.65429 0.920354
654 1 0.360095 0.634231 0.839976
657 1 0.423246 0.567064 0.872208
368 1 0.159033 0.505257 0.494388
19 1 0.141373 0.125265 0.994674
66 1 0.361329 0.650671 0.984949
69 1 0.438256 0.590794 0.988187
79 1 0.270713 0.71669 1.00821
16 1 0.0761093 0.202668 0.979508
381 1 0.240194 0.711404 0.513125
89 1 0.135298 0.876974 0.996799
9 1 0.277613 1.0034 0.996398
41 1 0.424657 0.274716 0.997361
349 1 0.28358 0.0684986 0.499779
13 1 0.414636 -0.00604472 0.999217
362 1 0.366198 0.287674 0.492328
383 1 0.361617 0.715787 0.507394
97 1 0.419415 0.853596 1.00766
372 1 0.0812457 0.566474 0.507829
27 1 0.424285 0.129569 0.995658
390 1 0.347907 0.875405 0.500234
346 1 0.212583 0.00487544 0.504726
1072 1 0.50073 0.846156 0.488277
350 1 0.430547 0.0607165 0.487657
363 1 0.304737 0.357777 0.494855
24 1 0.349899 0.214997 0.996828
377 1 0.297535 0.639081 0.508415
33 1 0.144742 0.272242 0.983071
347 1 0.154347 0.0851231 0.50004
386 1 0.0738249 0.84936 0.498758
58 1 0.0583704 0.635786 0.997424
365 1 0.0778941 0.436152 0.497162
692 1 0.572359 0.0824028 0.0737815
788 1 0.638495 0.0691028 0.136804
787 1 0.56892 1.01351 0.146164
691 1 0.639091 0.00808458 0.0696801
801 1 0.564679 0.142488 0.145816
1077 1 0.926231 0.847052 0.505553
986 1 0.84939 0.996452 0.437801
696 1 0.703378 0.0751818 0.068739
792 1 0.793869 0.0636299 0.143717
805 1 0.712004 0.137139 0.140314
709 1 0.780133 0.147516 0.0767406
695 1 0.799431 -0.00262937 0.0810231
700 1 0.861609 0.0679531 0.0672823
796 1 0.931751 0.0859497 0.140187
895 1 0.941219 0.00349662 0.363793
713 1 0.929841 0.149029 0.0595548
809 1 0.853097 0.139794 0.132174
777 1 0.727347 0.862954 0.0165623
699 1 0.926859 1.0085 0.0653669
980 1 0.868508 0.944598 0.35275
705 1 0.642069 0.149699 0.0791544
706 1 0.567604 0.211022 0.0648864
802 1 0.642887 0.215971 0.143319
815 1 0.581509 0.27298 0.137218
1029 1 0.936574 0.927119 0.423719
710 1 0.714576 0.216926 0.0780582
806 1 0.782094 0.213065 0.146184
352 1 0.97987 0.232688 0.490487
714 1 0.85414 0.21301 0.0706918
810 1 0.917791 0.201762 0.144912
823 1 0.85784 0.282488 0.152579
841 1 0.494973 0.647566 0.149733
719 1 0.635251 0.27512 0.0601481
720 1 0.57508 0.363905 0.0642229
816 1 0.635825 0.348075 0.135543
800 1 0.504729 0.13982 0.23096
813 1 0.510279 0.353761 0.143436
723 1 0.78798 0.297382 0.0854025
819 1 0.709518 0.2912 0.145454
724 1 0.709193 0.347721 0.0682949
820 1 0.7957 0.356178 0.155046
833 1 0.718999 0.415814 0.133581
897 1 0.509107 0.21265 0.291214
1043 1 0.848916 0.221689 0.497854
727 1 0.931732 0.292259 0.0736386
728 1 0.861743 0.357446 0.0772127
824 1 0.929527 0.353592 0.150675
869 1 0.505034 0.930339 0.149094
829 1 0.574298 0.424423 0.137024
733 1 0.645925 0.434607 0.0761933
734 1 0.578812 0.508235 0.0711123
830 1 0.650997 0.49245 0.147257
747 1 0.651433 0.56885 0.0780406
843 1 0.577821 0.558699 0.146613
737 1 0.789611 0.426832 0.0906567
738 1 0.724139 0.49795 0.0901115
834 1 0.798598 0.500861 0.153113
751 1 0.784096 0.576094 0.0669316
158 1 1.00542 0.642315 0.222218
984 1 0.71694 0.992013 0.429994
837 1 0.867374 0.431174 0.150879
741 1 0.930707 0.417463 0.0790236
742 1 0.852531 0.509837 0.0801036
838 1 0.935691 0.512272 0.14524
755 1 0.920684 0.573924 0.0794144
851 1 0.851024 0.575813 0.140382
1045 1 0.641018 0.279162 0.499464
718 1 0.636083 0.359822 -0.00112292
748 1 0.580857 0.658129 0.0810152
844 1 0.646045 0.652185 0.144459
857 1 0.573419 0.733534 0.1354
847 1 0.72015 0.575836 0.136267
752 1 0.707294 0.63816 0.0687998
848 1 0.780111 0.643968 0.147799
940 1 0.503812 0.575638 0.343134
756 1 0.86232 0.654892 0.0710422
852 1 0.935795 0.64474 0.130977
865 1 0.872323 0.723122 0.147614
761 1 0.658693 0.710966 0.0761203
762 1 0.563937 0.786922 0.0516483
858 1 0.658438 0.794526 0.14851
871 1 0.566603 0.840266 0.136485
775 1 0.640914 0.867765 0.0741169
861 1 0.722894 0.720428 0.150994
765 1 0.797005 0.715831 0.0778294
766 1 0.731813 0.780723 0.075936
862 1 0.793755 0.784789 0.147217
875 1 0.725392 0.856224 0.131634
1046 1 0.571824 0.345259 0.493516
891 1 0.794171 -0.00312684 0.367822
769 1 0.939574 0.72075 0.0710947
770 1 0.871484 0.792093 0.0749318
866 1 0.943161 0.788541 0.147933
1061 1 0.773494 0.567473 0.503237
776 1 0.564037 0.931007 0.0777283
872 1 0.637669 0.937563 0.130219
779 1 0.793276 0.867583 0.0850708
791 1 0.71568 0.00859873 0.137016
780 1 0.717465 0.930343 0.0849288
876 1 0.813698 0.935191 0.1501
1071 1 0.856819 0.787861 0.492542
879 1 0.868552 0.84422 0.151867
795 1 0.868907 0.00582618 0.150614
783 1 0.946274 0.856386 0.0788699
784 1 0.863935 0.93318 0.0753938
880 1 0.931807 0.919918 0.147531
1076 1 0.721884 0.918874 0.489959
1049 1 0.924362 0.315201 0.506642
704 1 0.639988 0.209017 -0.00148516
790 1 0.574785 0.0678438 0.226923
886 1 0.642361 0.0706073 0.292456
803 1 0.634728 0.149279 0.215196
794 1 0.70813 0.0684263 0.214807
890 1 0.787731 0.0674542 0.283914
903 1 0.705738 0.141796 0.280309
807 1 0.779432 0.146263 0.217479
798 1 0.855127 0.083607 0.211785
894 1 0.936306 0.07624 0.295227
907 1 0.863353 0.152114 0.279004
1048 1 0.707758 0.364528 0.471834
899 1 0.580376 0.138466 0.306263
804 1 0.570914 0.214592 0.21113
900 1 0.642995 0.211235 0.283978
817 1 0.640567 0.289196 0.212432
913 1 0.568541 0.285279 0.284203
768 1 0.933237 0.788684 0.00231472
808 1 0.709103 0.217157 0.212891
904 1 0.782933 0.220838 0.275035
917 1 0.707063 0.284889 0.283249
821 1 0.778499 0.282636 0.212066
811 1 0.930245 0.156312 0.223348
812 1 0.853167 0.219775 0.222826
908 1 0.923537 0.221845 0.280603
825 1 0.939098 0.275437 0.205636
921 1 0.852359 0.294149 0.279514
721 1 0.72106 0.280797 0.00324391
818 1 0.571554 0.353269 0.217278
914 1 0.639778 0.349762 0.281793
927 1 0.555246 0.43928 0.28561
822 1 0.697189 0.366365 0.218582
918 1 0.776798 0.351869 0.278482
1055 1 0.708414 0.490208 0.496236
826 1 0.867621 0.351951 0.211894
922 1 0.928494 0.369055 0.28227
831 1 0.625547 0.433024 0.231287
832 1 0.575616 0.504648 0.221749
928 1 0.641142 0.504054 0.291405
845 1 0.639214 0.580333 0.212436
835 1 0.784898 0.43421 0.207558
931 1 0.705876 0.429833 0.283708
836 1 0.712696 0.492641 0.214228
932 1 0.779354 0.505565 0.278031
214 1 0.998469 0.208717 0.363478
935 1 0.856673 0.433615 0.282315
839 1 0.937164 0.429251 0.211731
840 1 0.864483 0.506024 0.218244
936 1 0.935876 0.492718 0.280815
853 1 0.944902 0.570015 0.208827
976 1 0.7347 0.93212 0.346495
941 1 0.566498 0.582679 0.282535
846 1 0.580295 0.654025 0.206346
942 1 0.632057 0.656139 0.280301
955 1 0.570119 0.720892 0.272234
849 1 0.78125 0.575453 0.206691
945 1 0.717442 0.586145 0.28179
850 1 0.711256 0.646353 0.214016
946 1 0.790436 0.634306 0.27721
959 1 0.722259 0.717355 0.273211
1034 1 0.71538 0.0758366 0.509652
949 1 0.864327 0.569511 0.287963
854 1 0.87478 0.642362 0.209572
950 1 0.940399 0.625563 0.288972
963 1 0.868628 0.70744 0.291506
1066 1 0.644091 0.720831 0.497212
859 1 0.651089 0.727939 0.208932
860 1 0.57719 0.784418 0.211651
956 1 0.63724 0.792679 0.284102
863 1 0.804322 0.703103 0.21671
864 1 0.721506 0.792298 0.220052
960 1 0.78442 0.785921 0.280142
973 1 0.701043 0.855457 0.291781
877 1 0.793394 0.862594 0.210633
85 1 1.00017 0.868879 -0.00930104
867 1 0.929778 0.710251 0.212049
868 1 0.867436 0.782404 0.213765
964 1 0.928981 0.782725 0.292353
1027 1 0.79837 0.913377 0.42354
781 1 0.867234 0.859157 0.00680551
885 1 0.58098 0.0023226 0.287364
789 1 0.646507 -0.0101943 0.215625
969 1 0.573318 0.859978 0.285009
873 1 0.65679 0.869847 0.210751
874 1 0.579114 0.927703 0.206911
970 1 0.650373 0.926862 0.285863
889 1 0.721923 -0.013129 0.272005
793 1 0.801568 -0.0021807 0.221952
878 1 0.727906 0.932127 0.199301
974 1 0.80552 0.925604 0.275018
893 1 0.863745 1.01273 0.295078
797 1 0.93024 0.017389 0.221729
977 1 0.874286 0.864837 0.301501
881 1 0.930328 0.851347 0.218978
882 1 0.874064 0.924519 0.226969
978 1 0.937924 0.929331 0.295036
1062 1 0.709686 0.642733 0.509471
982 1 0.578416 1.00674 0.430039
887 1 0.651694 -0.00368768 0.347896
888 1 0.570612 0.067758 0.358144
983 1 0.646786 0.0614021 0.420808
901 1 0.653647 0.135556 0.363124