ITEM: TIMESTEP
14500
ITEM: NUMBER OF ATOMS
2048
ITEM: BOX BOUNDS pp pp pp
0.0000000000000000e+00 4.2079999999999998e+01
0.0000000000000000e+00 4.2079999999999998e+01
0.0000000000000000e+00 4.2079999999999998e+01
ITEM: ATOMS id type xs ys zs
130 1 0.0595751 0.0514892 0.137926
8 1 0.115967 0.0577598 0.0715006
113 1 0.505787 0.381722 0.0151254
1171 1 0.559079 0.499367 0.195684
511 1 0.938956 0.364384 0.444466
39 1 0.193748 0.113347 0.0754464
165 1 0.117717 0.117491 0.126021
1183 1 0.948027 0.49744 0.177648
538 1 0.807893 0.0469944 0.492638
12 1 0.255304 0.0522872 0.0714046
16 1 0.354507 0.0586646 0.0695944
138 1 0.315866 0.0577008 0.132739
43 1 0.305738 0.134836 0.0736612
145 1 0.512395 0.0032913 0.130561
47 1 0.435146 0.126241 0.0692142
142 1 0.428761 0.0585643 0.121474
267 1 0.31065 9.87831e-05 0.316203
484 1 0.988707 0.439544 0.440561
20 1 0.50229 0.0584672 0.0729071
24 1 0.632821 0.0559131 0.0660246
54 1 0.694051 0.19814 0.0102375
1411 1 0.0576335 0.497065 0.424987
1175 1 0.687496 0.494001 0.206216
507 1 0.813845 0.386745 0.44132
28 1 0.757015 0.0562285 0.0671882
1305 1 0.757589 0.498829 0.257605
150 1 0.691399 0.0523589 0.127949
32 1 0.883515 0.0688577 0.0679441
401 1 0.504835 0.00615749 0.36626
154 1 0.816922 0.0573879 0.132108
147 1 0.563213 0.00625657 0.199692
4 1 0.0024226 0.0653691 0.0678917
63 1 0.938009 0.124064 0.0675881
1179 1 0.814676 0.488908 0.189499
35 1 0.0603647 0.127905 0.0673212
36 1 0.00114458 0.188505 0.0627975
129 1 0.993471 0.00668236 0.127834
40 1 0.128366 0.195808 0.0845087
71 1 0.187471 0.248547 0.0736003
166 1 0.194479 0.176828 0.12353
44 1 0.262623 0.197682 0.0665473
170 1 0.310424 0.185491 0.134446
75 1 0.308298 0.266136 0.075948
201 1 0.23954 0.258891 0.133411
48 1 0.377341 0.184984 0.0727985
52 1 0.498554 0.18259 0.0639488
173 1 0.375979 0.125418 0.135535
546 1 0.0664908 0.1848 0.497323
51 1 0.564387 0.117491 0.0716865
56 1 0.625335 0.175387 0.0758171
55 1 0.692765 0.115008 0.0694265
87 1 0.690554 0.255323 0.0693279
60 1 0.761249 0.180936 0.0677608
118 1 0.688349 0.44645 0.00541038
59 1 0.810492 0.11642 0.0683925
34 1 0.0653326 0.184502 0.00327258
399 1 0.434535 0.00509294 0.417158
185 1 0.753927 0.123764 0.125972
186 1 0.816186 0.186621 0.122237
141 1 0.37115 0.00160942 0.126165
64 1 0.86448 0.189442 0.0590014
221 1 0.867032 0.253233 0.121014
58 1 0.805269 0.185303 0.00016311
42 1 0.319481 0.197142 0.00130897
67 1 0.0640907 0.256899 0.0652506
68 1 0.00450634 0.31194 0.0656184
99 1 0.07008 0.385614 0.0562201
72 1 0.123657 0.317285 0.0656176
76 1 0.239146 0.317935 0.0663259
103 1 0.18529 0.384514 0.0640026
1293 1 0.365966 0.496963 0.257867
80 1 0.373836 0.3181 0.0636785
107 1 0.3098 0.388116 0.0604048
209 1 0.494154 0.250627 0.124028
205 1 0.374891 0.245743 0.117708
79 1 0.434177 0.244413 0.0622586
206 1 0.435044 0.31408 0.114321
83 1 0.565302 0.252379 0.079216
84 1 0.508083 0.324982 0.0792463
88 1 0.633823 0.314889 0.0598756
1283 1 0.062556 0.498992 0.300984
1155 1 0.0664079 0.497011 0.185008
214 1 0.692203 0.318118 0.129533
92 1 0.752732 0.322095 0.0694875
119 1 0.681428 0.379261 0.0639844
249 1 0.74646 0.380714 0.130438
415 1 0.933269 0.00153717 0.435787
91 1 0.800327 0.256568 0.05569
218 1 0.814761 0.318407 0.118256
123 1 0.814703 0.378581 0.0686296
1289 1 0.251284 0.481097 0.250448
95 1 0.932808 0.251363 0.0536394
96 1 0.877248 0.321054 0.0622228
222 1 0.936851 0.314868 0.109522
127 1 0.936873 0.388433 0.0364607
1423 1 0.434959 0.485244 0.432096
104 1 0.138957 0.443562 0.0529739
226 1 0.0664923 0.439536 0.120854
53 1 0.635801 0.122259 0.0035663
1285 1 0.131894 0.49207 0.244974
553 1 0.256602 0.121866 0.498707
38 1 0.168906 0.172321 0.0201659
1301 1 0.618952 0.498277 0.255727
5 1 0.118529 0.00378998 0.00507159
108 1 0.244329 0.446221 0.062729
112 1 0.367207 0.443199 0.0665491
1425 1 0.494163 0.496471 0.378559
31 1 0.938942 0.00669116 0.0607034
512 1 0.882963 0.440254 0.446765
393 1 0.240779 0.00184392 0.366218
1421 1 0.373402 0.490728 0.383661
82 1 0.565408 0.315917 0.00574583
111 1 0.445015 0.376259 0.0683657
237 1 0.37425 0.383962 0.11873
238 1 0.444096 0.442867 0.129146
504 1 0.620336 0.443805 0.44018
114 1 0.567885 0.444592 0.0111115
115 1 0.567448 0.381157 0.0659048
116 1 0.506929 0.441912 0.0709755
120 1 0.626614 0.449099 0.0718724
33 1 0.00402511 0.125815 0.00466614
1427 1 0.561628 0.498273 0.44185
508 1 0.737788 0.430678 0.441721
526 1 0.44095 0.0577647 0.484471
124 1 0.75337 0.435088 0.0692362
250 1 0.807158 0.432422 0.129838
121 1 0.751621 0.373955 0.0032019
19 1 0.565361 0.00770481 0.0659682
1309 1 0.875993 0.492745 0.252264
100 1 0.00916293 0.437465 0.0554135
128 1 0.871323 0.431659 0.0628378
151 1 0.682647 0.000343461 0.18547
46 1 0.435055 0.185245 0.00145328
499 1 0.551307 0.38339 0.441318
132 1 0.994841 0.054487 0.189464
293 1 0.118083 0.116448 0.249317
258 1 0.0550923 0.0630202 0.251568
289 1 0.989447 0.115314 0.23828
134 1 0.177827 0.0511177 0.133319
1299 1 0.551021 0.49645 0.306657
136 1 0.124745 0.0491434 0.193041
78 1 0.43994 0.315836 0.00778402
500 1 0.500112 0.442295 0.43759
140 1 0.247548 0.0497277 0.188582
498 1 0.560581 0.444109 0.370322
266 1 0.313073 0.042407 0.247852
468 1 0.4936 0.308401 0.436709
144 1 0.38495 0.0684053 0.199352
148 1 0.496506 0.0694627 0.184326
177 1 0.498892 0.118207 0.119619
81 1 0.498131 0.260712 0.0129535
146 1 0.578415 0.0583 0.130572
152 1 0.62814 0.0560777 0.195956
309 1 0.609919 0.135608 0.240173
181 1 0.632621 0.112278 0.12974
278 1 0.685858 0.0691181 0.251332
156 1 0.753907 0.0571323 0.186807
1181 1 0.867628 0.488369 0.124643
496 1 0.37076 0.442942 0.44965
282 1 0.810327 0.0646363 0.250167
187 1 0.802811 0.121157 0.187362
189 1 0.869466 0.126645 0.12075
160 1 0.873687 0.0637524 0.190693
158 1 0.937943 0.0567151 0.126771
191 1 0.93264 0.127861 0.173299
286 1 0.927751 0.0558494 0.252451
494 1 0.428801 0.434822 0.364315
162 1 0.0500055 0.187613 0.127363
163 1 0.0638445 0.125736 0.187559
164 1 0.984489 0.182955 0.188106
195 1 0.0520267 0.249853 0.191649
167 1 0.184382 0.114758 0.18961
168 1 0.121086 0.182049 0.195844
199 1 0.177781 0.241957 0.181159
294 1 0.177859 0.175976 0.256386
169 1 0.258949 0.11617 0.13813
172 1 0.250348 0.197031 0.185706
171 1 0.314423 0.131887 0.191475
329 1 0.233566 0.250518 0.240781
297 1 0.249638 0.126692 0.248034
298 1 0.308854 0.197526 0.245539
176 1 0.382323 0.202014 0.187872
174 1 0.448118 0.184043 0.123302
175 1 0.439066 0.127159 0.194549
180 1 0.490663 0.195707 0.193324
302 1 0.427709 0.196265 0.249579
179 1 0.555391 0.128906 0.186835
178 1 0.549638 0.195818 0.134793
184 1 0.623817 0.181438 0.172817
341 1 0.622854 0.239202 0.249697
213 1 0.6385 0.253535 0.125376
306 1 0.556641 0.197607 0.240225
183 1 0.702743 0.122427 0.186032
182 1 0.688962 0.183973 0.1262
215 1 0.685048 0.253686 0.187878
188 1 0.756106 0.194395 0.185592
192 1 0.864132 0.185538 0.184833
219 1 0.818992 0.258476 0.188984
317 1 0.857804 0.128956 0.245815
161 1 0.00444488 0.120465 0.130497
190 1 0.92668 0.18418 0.116637
349 1 0.876994 0.25684 0.243077
318 1 0.933376 0.185791 0.246626
193 1 0.990852 0.248944 0.115387
194 1 0.0438606 0.303377 0.134043
229 1 0.113378 0.371579 0.121636
227 1 0.059583 0.36609 0.184755
196 1 0.979703 0.314842 0.191161
197 1 0.114422 0.254387 0.130945
198 1 0.169594 0.31585 0.134395
200 1 0.117776 0.309355 0.193092
231 1 0.177725 0.370205 0.192133
202 1 0.308028 0.336511 0.127015
204 1 0.244993 0.316511 0.183742
203 1 0.313552 0.259586 0.180341
330 1 0.311115 0.313585 0.242413
233 1 0.247794 0.380645 0.109011
208 1 0.378108 0.303349 0.187547
207 1 0.442223 0.261856 0.187923
239 1 0.430134 0.370229 0.17705
212 1 0.504705 0.310337 0.180367
333 1 0.380326 0.259513 0.255205
334 1 0.44374 0.324783 0.242289
211 1 0.56598 0.259522 0.184633
210 1 0.572596 0.319333 0.129807
338 1 0.558615 0.315093 0.248579
216 1 0.63184 0.313532 0.195484
373 1 0.617216 0.375002 0.252723
217 1 0.756539 0.251625 0.126278
247 1 0.68781 0.378583 0.202424
220 1 0.752319 0.307419 0.199272
342 1 0.686381 0.318229 0.258557
251 1 0.801147 0.37013 0.186054
381 1 0.874861 0.39088 0.254613
346 1 0.825144 0.319675 0.251826
225 1 0.00336681 0.378915 0.115737
253 1 0.873488 0.376811 0.122017
224 1 0.874273 0.323102 0.184953
223 1 0.925762 0.251894 0.181685
255 1 0.938278 0.374851 0.175933
495 1 0.429656 0.377358 0.444709
232 1 0.12272 0.434003 0.183606
228 1 0.00153184 0.432645 0.171724
357 1 0.123641 0.370412 0.252875
230 1 0.183507 0.44538 0.129285
358 1 0.185756 0.428456 0.249913
492 1 0.250789 0.438754 0.435208
1163 1 0.309056 0.497531 0.18535
234 1 0.298951 0.439038 0.131309
236 1 0.244103 0.436085 0.18532
235 1 0.310414 0.372445 0.195058
241 1 0.497113 0.387056 0.131082
240 1 0.370619 0.439018 0.180774
244 1 0.496573 0.447739 0.200993
242 1 0.55919 0.439927 0.135826
243 1 0.565661 0.381869 0.186232
370 1 0.558789 0.441379 0.24724
490 1 0.311575 0.434259 0.378427
245 1 0.630585 0.385152 0.128007
246 1 0.688333 0.440234 0.136922
248 1 0.62149 0.440152 0.194515
374 1 0.681391 0.442733 0.262447
252 1 0.746931 0.440113 0.200804
378 1 0.811208 0.43322 0.254346
256 1 0.875898 0.43833 0.187212
530 1 0.56116 0.0600916 0.489093
459 1 0.299343 0.247675 0.431949
491 1 0.306088 0.370323 0.436662
254 1 0.939374 0.430818 0.114433
382 1 0.943682 0.429312 0.239641
273 1 0.488862 0.00566872 0.238242
260 1 0.993389 0.0570932 0.300886
291 1 0.0456104 0.122074 0.30493
460 1 0.257469 0.306046 0.439762
262 1 0.180541 0.057319 0.260151
493 1 0.366968 0.378921 0.382409
264 1 0.114193 0.0568056 0.312381
268 1 0.25298 0.0620747 0.305068
421 1 0.116717 0.118437 0.382299
272 1 0.372542 0.0619892 0.31675
270 1 0.448187 0.0730056 0.257106
303 1 0.432902 0.130533 0.307433
276 1 0.49998 0.0709146 0.311446
398 1 0.431131 0.0730107 0.368247
485 1 0.127037 0.361023 0.374296
274 1 0.554743 0.0717624 0.253184
437 1 0.62291 0.124863 0.373015
402 1 0.565118 0.0630449 0.367969
313 1 0.751533 0.123928 0.249805
280 1 0.622336 0.0625562 0.296285
486 1 0.1917 0.431804 0.373765
284 1 0.747279 0.0581411 0.314445
311 1 0.688766 0.112681 0.313038
406 1 0.681603 0.0677126 0.373666
441 1 0.750015 0.114675 0.380387
410 1 0.810864 0.0498252 0.383151
288 1 0.876443 0.0646432 0.306644
488 1 0.127911 0.431062 0.428512
319 1 0.921621 0.133621 0.299998
445 1 0.87391 0.121371 0.386719
458 1 0.316356 0.313446 0.375704
321 1 0.998542 0.247331 0.25973
290 1 0.0500445 0.179239 0.241603
418 1 0.0608419 0.197445 0.38334
323 1 0.0572288 0.245622 0.314949
417 1 0.000621691 0.124911 0.375633
295 1 0.166212 0.121635 0.316462
296 1 0.113445 0.187789 0.303941
327 1 0.195032 0.241698 0.316401
425 1 0.251175 0.1233 0.366993
300 1 0.25272 0.175456 0.307578
299 1 0.317732 0.126793 0.310887
331 1 0.302967 0.255264 0.303119
304 1 0.365536 0.18883 0.31092
426 1 0.311798 0.200544 0.363174
305 1 0.49736 0.143244 0.255505
433 1 0.494077 0.132404 0.365799
301 1 0.373558 0.133524 0.255995
308 1 0.505975 0.194836 0.31281
307 1 0.560594 0.120557 0.32257
312 1 0.623182 0.180574 0.311225
310 1 0.681261 0.171061 0.246707
316 1 0.745894 0.172709 0.31207
438 1 0.679852 0.1919 0.373562
473 1 0.741158 0.249774 0.360544
345 1 0.734809 0.241623 0.255072
314 1 0.797099 0.188737 0.255324
315 1 0.809165 0.111103 0.323554
442 1 0.803967 0.188323 0.359856
347 1 0.807129 0.263174 0.309163
477 1 0.869874 0.256116 0.3817
292 1 0.994823 0.175264 0.307095
320 1 0.864063 0.197705 0.303564
351 1 0.933978 0.241475 0.312754
446 1 0.93319 0.178851 0.366753
449 1 0.997659 0.246345 0.377239
322 1 0.0552028 0.312513 0.256737
324 1 0.993731 0.308158 0.314761
355 1 0.0581535 0.376364 0.325827
450 1 0.0570545 0.304747 0.369139
328 1 0.125342 0.301996 0.312767
325 1 0.109055 0.250676 0.244829
326 1 0.170292 0.30141 0.24595
359 1 0.188238 0.366444 0.31076
332 1 0.247625 0.309908 0.298465
336 1 0.378415 0.32153 0.308186
457 1 0.255426 0.257619 0.367942
337 1 0.493217 0.249305 0.24752
335 1 0.430929 0.244742 0.31637
465 1 0.494919 0.244794 0.376232
462 1 0.431673 0.31946 0.378577
461 1 0.359437 0.253239 0.373013
339 1 0.566835 0.256719 0.305839
340 1 0.493155 0.30413 0.305745
344 1 0.625181 0.31797 0.322328
470 1 0.692975 0.30656 0.377448
343 1 0.677149 0.254853 0.309641
375 1 0.67963 0.377016 0.316958
377 1 0.745131 0.391857 0.264979
348 1 0.75771 0.321936 0.312422
379 1 0.81813 0.375308 0.322059
352 1 0.87634 0.317261 0.324558
350 1 0.933543 0.307322 0.261858
478 1 0.941627 0.30582 0.38236
383 1 0.932365 0.374578 0.312585
489 1 0.251351 0.368562 0.377653
455 1 0.200912 0.238429 0.429495
354 1 0.0573893 0.428054 0.255928
482 1 0.058774 0.442323 0.366672
534 1 0.681394 0.0541892 0.499342
360 1 0.130868 0.424886 0.318013
364 1 0.248184 0.427999 0.312882
362 1 0.314645 0.434974 0.258251
363 1 0.310546 0.374793 0.309475
361 1 0.249051 0.368603 0.241882
368 1 0.371167 0.438046 0.31119
365 1 0.378765 0.375564 0.246514
366 1 0.434562 0.446355 0.243106
367 1 0.451451 0.374304 0.307024
372 1 0.486996 0.443555 0.308782
497 1 0.480891 0.378642 0.376565
454 1 0.192313 0.307428 0.369639
501 1 0.619689 0.381512 0.378054
369 1 0.505588 0.381684 0.244902
371 1 0.548676 0.377738 0.317177
505 1 0.742409 0.375726 0.375291
502 1 0.68618 0.450763 0.377938
376 1 0.622205 0.441188 0.312108
380 1 0.751068 0.443526 0.323681
456 1 0.118814 0.311353 0.433998
1051 1 0.816991 0.49396 0.0646036
397 1 0.368847 0.000841966 0.371892
506 1 0.816173 0.450386 0.384873
509 1 0.87248 0.375821 0.383002
356 1 0.989866 0.442028 0.317937
384 1 0.869632 0.446707 0.317695
353 1 0.993266 0.368001 0.246596
510 1 0.933013 0.437217 0.37653
481 1 0.989387 0.382149 0.376038
452 1 0.00720982 0.305505 0.437609
74 1 0.316456 0.315993 0.00127389
479 1 0.938831 0.240459 0.446789
386 1 0.048579 0.0583098 0.370205
388 1 0.00221075 0.0675328 0.443235
1177 1 0.749383 0.496262 0.125088
392 1 0.128737 0.0650143 0.43614
390 1 0.182968 0.0578677 0.372023
405 1 0.626078 0.010154 0.378663
283 1 0.805346 0.00477152 0.31453
394 1 0.316402 0.0627368 0.373442
396 1 0.25004 0.0608981 0.434538
400 1 0.377209 0.0661782 0.433398
1055 1 0.946066 0.493014 0.0496403
69 1 0.130448 0.247581 0.00315067
404 1 0.500928 0.0696253 0.422572
431 1 0.443729 0.12915 0.441724
475 1 0.804171 0.23685 0.437854
435 1 0.560542 0.124078 0.433374
408 1 0.629574 0.0654057 0.440761
27 1 0.833634 8.44795e-05 0.0603312
467 1 0.56357 0.262785 0.435772
466 1 0.549407 0.321673 0.37242
412 1 0.742887 0.0513182 0.443948
439 1 0.683018 0.1232 0.436737
447 1 0.927522 0.131889 0.451217
50 1 0.571702 0.183761 0.0213214
420 1 0.994639 0.178044 0.433695
416 1 0.8677 0.046834 0.443982
443 1 0.814223 0.113717 0.43891
472 1 0.631456 0.321004 0.43286
480 1 0.8729 0.314472 0.444133
474 1 0.806115 0.317175 0.379598
448 1 0.873107 0.191894 0.425751
414 1 0.933102 0.0633559 0.370227
464 1 0.3731 0.305789 0.438726
453 1 0.136525 0.252192 0.379974
419 1 0.0589276 0.12144 0.446098
424 1 0.123324 0.187006 0.4309
483 1 0.0536131 0.382133 0.431278
422 1 0.181469 0.18885 0.370653
423 1 0.191045 0.112375 0.427488
451 1 0.0660284 0.24491 0.442988
463 1 0.433436 0.249006 0.442366
427 1 0.310834 0.123023 0.429084
428 1 0.248176 0.177396 0.440463
432 1 0.373747 0.198222 0.434983
90 1 0.806276 0.310869 0.000352798
429 1 0.370029 0.138809 0.375634
430 1 0.429234 0.188295 0.381495
436 1 0.504926 0.194359 0.436559
487 1 0.191977 0.369534 0.428719
434 1 0.563903 0.196943 0.374999
469 1 0.626917 0.258083 0.381707
440 1 0.619273 0.192787 0.436482
471 1 0.69376 0.252883 0.437647
444 1 0.745781 0.180778 0.42469
503 1 0.681197 0.377766 0.436659
476 1 0.754489 0.317087 0.438877
41 1 0.25716 0.121036 0.00016161
37 1 0.112945 0.107523 0.00142988
1415 1 0.186907 0.486923 0.436655
1281 1 0.00155947 0.4916 0.242379
542 1 0.946278 0.0563904 0.493378
122 1 0.813346 0.439177 0.0059382
6 1 0.193533 0.0689406 0.00777654
93 1 0.86977 0.25929 0.00637249
85 1 0.633997 0.252759 0.00126217
1413 1 0.127083 0.497012 0.376367
581 1 0.127919 0.247488 0.488059
1287 1 0.184035 0.491716 0.302107
271 1 0.442862 0.00590908 0.313939
529 1 0.504679 0.00387269 0.49705
109 1 0.381304 0.38481 0.00876134
522 1 0.310585 0.0649881 0.494366
1037 1 0.363992 0.493144 0.00661234
1053 1 0.870544 0.498278 0.00454291
549 1 0.138367 0.126403 0.492895
49 1 0.49835 0.125184 0.00542398
586 1 0.306031 0.315281 0.499522
561 1 0.505081 0.117883 0.498094
533 1 0.616807 0.00423523 0.489429
566 1 0.690572 0.191131 0.489639
86 1 0.688408 0.324261 0.000421242
610 1 0.0678873 0.436649 0.486312
65 1 0.0112505 0.254633 0.00158931
61 1 0.866971 0.126441 0.00162908
1565 1 0.874975 0.497462 0.498827
565 1 0.61829 0.130644 0.488577
617 1 0.251961 0.378688 0.499304
30 1 0.938199 0.0684035 0.00505169
602 1 0.805889 0.310766 0.494968
557 1 0.374396 0.137733 0.48469
25 1 0.759387 0.00152239 0.00910225
597 1 0.618363 0.251413 0.495474
601 1 0.748675 0.249338 0.49541
590 1 0.435305 0.309436 0.491316
26 1 0.823137 0.0538245 0.00425699
613 1 0.134185 0.371366 0.489271
45 1 0.359764 0.121017 0.0146907
110 1 0.447423 0.431619 0.0073071
614 1 0.186848 0.430136 0.493398
14 1 0.429328 0.0570287 0.00726844
2 1 0.0487205 0.0601109 0.00910721
550 1 0.191854 0.183565 0.494082
593 1 0.508021 0.252403 0.498098
558 1 0.452785 0.185394 0.499795
70 1 0.186819 0.322601 0.00676274
101 1 0.131005 0.37726 0.0025112
629 1 0.626297 0.374147 0.496322
547 1 0.0573713 0.13534 0.561108
516 1 0.0049876 0.0654317 0.558571
642 1 0.0628425 0.0610029 0.619623
1669 1 0.122592 0.49938 0.625662
520 1 0.135621 0.0580924 0.562744
551 1 0.191508 0.128944 0.557958
1947 1 0.812977 0.494271 0.948974
638 1 0.946265 0.432776 0.513119
524 1 0.261141 0.0571691 0.559287
555 1 0.321661 0.124812 0.56157
681 1 0.266688 0.124013 0.618964
528 1 0.37724 0.0718717 0.564533
532 1 0.506698 0.0671546 0.55712
559 1 0.443778 0.114471 0.558054
685 1 0.381728 0.128815 0.625396
563 1 0.571735 0.128291 0.570751
1547 1 0.307917 0.498446 0.560884
1023 1 0.940213 0.377025 0.932063
536 1 0.625125 0.0592699 0.563899
1945 1 0.756779 0.496104 0.878116
540 1 0.746136 0.0547067 0.546732
666 1 0.813622 0.0574555 0.615832
544 1 0.879879 0.0515932 0.559326
571 1 0.810005 0.116975 0.558876
669 1 0.871643 0.00370844 0.61812
514 1 0.0688881 0.0620657 0.507196
777 1 0.25793 0.00392496 0.746705
574 1 0.942898 0.192477 0.511014
531 1 0.561219 0.00952372 0.566359
579 1 0.0703191 0.244507 0.565428
674 1 0.0579678 0.188652 0.632302
552 1 0.1282 0.185147 0.55238
583 1 0.184355 0.251066 0.56289
556 1 0.256411 0.186152 0.553942
587 1 0.316257 0.24736 0.558167
651 1 0.319985 0.00836893 0.686849
1807 1 0.445551 0.488181 0.813014
560 1 0.38545 0.179852 0.558261
564 1 0.502361 0.179993 0.559084
1689 1 0.746125 0.495421 0.630488
568 1 0.624426 0.194809 0.556305
899 1 0.0470464 0.00560997 0.943649
1025 1 0.999874 0.497831 0.987001
567 1 0.679035 0.122195 0.554166
599 1 0.684972 0.251901 0.566287
1559 1 0.683887 0.498454 0.564946
572 1 0.746456 0.180617 0.564351
576 1 0.874996 0.193899 0.566401
575 1 0.941723 0.12514 0.574452
548 1 0.995724 0.193042 0.570309
673 1 0.998896 0.130025 0.629697
705 1 0.998414 0.248392 0.630144
584 1 0.119294 0.316355 0.571262
580 1 0.99232 0.301163 0.568461
706 1 0.0543378 0.317284 0.622802
659 1 0.558623 0.00534571 0.693149
741 1 0.131714 0.389935 0.629208
615 1 0.182478 0.373521 0.564283
709 1 0.124122 0.254719 0.628304
641 1 0.998584 0.00138445 0.613462
588 1 0.253511 0.30514 0.570245
649 1 0.254534 0.00417267 0.62281
619 1 0.313679 0.366238 0.560817
1681 1 0.508851 0.496377 0.622045
592 1 0.382784 0.306653 0.567575
591 1 0.438186 0.246624 0.557073
623 1 0.448663 0.361998 0.562497
717 1 0.372983 0.239983 0.630277
718 1 0.441031 0.299457 0.622474
595 1 0.564172 0.251798 0.567443
596 1 0.495662 0.298781 0.562039
627 1 0.564367 0.364379 0.560668
721 1 0.512168 0.254351 0.638207
600 1 0.626612 0.315981 0.565641
725 1 0.634131 0.244527 0.629715
604 1 0.738784 0.309386 0.566723
603 1 0.804393 0.246351 0.564121
608 1 0.866104 0.318772 0.553266
729 1 0.745805 0.247098 0.628925
730 1 0.796476 0.310692 0.619661
607 1 0.924105 0.257139 0.56313
639 1 0.92128 0.377255 0.575981
1671 1 0.197579 0.490846 0.683306
733 1 0.867258 0.25251 0.63282
94 1 0.929021 0.321096 0.988499
611 1 0.0802841 0.383463 0.564483
738 1 0.0713927 0.438572 0.630535
125 1 0.864559 0.378584 0.99589
616 1 0.130687 0.439175 0.556957
1024 1 0.877323 0.446019 0.9286
799 1 0.932138 0.000137047 0.808067
1933 1 0.374424 0.490833 0.877619
927 1 0.932146 0.00479862 0.931765
518 1 0.191914 0.0565181 0.501105
1021 1 0.868959 0.377745 0.874905
620 1 0.247229 0.438632 0.55265
624 1 0.382732 0.432696 0.562135
750 1 0.442329 0.429042 0.615533
1019 1 0.813073 0.384505 0.934554
771 1 0.0590058 0.00977415 0.809799
1687 1 0.677286 0.493806 0.691483
628 1 0.499762 0.430002 0.561926
632 1 0.614115 0.431869 0.561134
667 1 0.826294 0.00678994 0.686404
781 1 0.375122 0.00961291 0.743663
631 1 0.672219 0.379795 0.578434
1014 1 0.70021 0.443745 0.869037
643 1 0.061088 0.00727491 0.680272
657 1 0.500899 0.00405401 0.623564
636 1 0.740939 0.438757 0.567885
635 1 0.806557 0.368134 0.567215
765 1 0.855659 0.361412 0.626317
797 1 0.87854 0.00603425 0.745541
787 1 0.563541 0.0020263 0.825602
653 1 0.379804 0.00302212 0.625555
640 1 0.862056 0.425698 0.571507
612 1 0.0124645 0.44085 0.566535
915 1 0.565959 0.0036796 0.933872
648 1 0.130605 0.0579334 0.68365
805 1 0.125899 0.12644 0.739569
770 1 0.0603099 0.0562664 0.747187
791 1 0.701222 0.00878646 0.811053
677 1 0.119628 0.126593 0.611382
646 1 0.198501 0.0647796 0.622989
652 1 0.245473 0.073631 0.684087
774 1 0.187253 0.0645558 0.757784
785 1 0.510515 0.00490628 0.759935
1013 1 0.631614 0.383263 0.887219
650 1 0.319711 0.0624673 0.62175
656 1 0.381731 0.071483 0.689622
654 1 0.440492 0.0656898 0.630183
782 1 0.445434 0.0672051 0.748335
813 1 0.37591 0.15036 0.765043
1015 1 0.67815 0.387223 0.951537
693 1 0.637396 0.11351 0.637362
660 1 0.503493 0.0597336 0.693663
658 1 0.567555 0.0647287 0.628143
786 1 0.568414 0.0699591 0.754982
691 1 0.57193 0.13353 0.698439
817 1 0.507923 0.128883 0.751231
1797 1 0.129566 0.49569 0.74632
662 1 0.692477 0.0579883 0.621097
664 1 0.6179 0.0597716 0.68941
790 1 0.681605 0.0562096 0.736396
668 1 0.752674 0.06149 0.681738
695 1 0.698059 0.135501 0.693534
699 1 0.814149 0.121527 0.665078
1016 1 0.615553 0.456293 0.945818
670 1 0.944002 0.0580498 0.616306
911 1 0.442486 0.0083567 0.946697
644 1 0.99746 0.064981 0.682727
672 1 0.880626 0.0658263 0.679999
675 1 0.0681487 0.125761 0.681579
802 1 0.0671497 0.188802 0.755306
707 1 0.0586642 0.251858 0.692629
676 1 0.996895 0.183613 0.697476
679 1 0.1812 0.121961 0.677107
680 1 0.12181 0.200649 0.686735
678 1 0.185682 0.191343 0.620851
806 1 0.189042 0.19787 0.745875
711 1 0.189961 0.253641 0.687018
684 1 0.252321 0.181747 0.683571
682 1 0.315491 0.187868 0.614503
683 1 0.315343 0.127223 0.698149
686 1 0.45415 0.192805 0.626434
688 1 0.375927 0.188056 0.691457
687 1 0.445741 0.13248 0.684858
719 1 0.442263 0.249726 0.694229
845 1 0.381051 0.239821 0.755172
689 1 0.510629 0.120554 0.618232
690 1 0.564936 0.182945 0.629522
692 1 0.512678 0.186541 0.688754
696 1 0.629113 0.188136 0.691814
694 1 0.687501 0.177247 0.619291
821 1 0.631538 0.122236 0.753006
822 1 0.688878 0.180836 0.762062
697 1 0.753722 0.114947 0.61155
700 1 0.763868 0.186498 0.699691
698 1 0.8104 0.193666 0.627668
826 1 0.812678 0.188993 0.769558
702 1 0.929272 0.187186 0.633212
701 1 0.874764 0.123898 0.616056
703 1 0.943775 0.121966 0.683143
704 1 0.867129 0.189303 0.699828
735 1 0.932677 0.250864 0.690974
833 1 0.99432 0.246145 0.74339
712 1 0.123497 0.328071 0.685526
837 1 0.127349 0.257143 0.746123
708 1 0.991669 0.31716 0.697378
710 1 0.189752 0.312197 0.624853
838 1 0.187396 0.306204 0.753241
714 1 0.320684 0.309199 0.634039
713 1 0.253042 0.244484 0.619473
716 1 0.250451 0.30756 0.681027
715 1 0.313667 0.252433 0.688531
747 1 0.322559 0.374244 0.684642
720 1 0.384623 0.310535 0.681864
724 1 0.520512 0.309014 0.686206
751 1 0.449236 0.372927 0.676961
722 1 0.575861 0.306342 0.632355
757 1 0.624863 0.372037 0.644764
723 1 0.573469 0.251563 0.701986
728 1 0.628986 0.310468 0.703291
726 1 0.676321 0.310928 0.627016
761 1 0.737949 0.373909 0.625247
727 1 0.694708 0.231959 0.694619
759 1 0.684243 0.3709 0.69676
732 1 0.735194 0.298055 0.702827
731 1 0.807061 0.257032 0.689494
736 1 0.868939 0.309632 0.687694
763 1 0.797159 0.359649 0.684768
861 1 0.862173 0.251864 0.755167
734 1 0.934277 0.315126 0.631081
767 1 0.934644 0.381913 0.680838
862 1 0.925112 0.314237 0.740837
637 1 0.873308 0.382912 0.501252
527 1 0.440546 0.0196206 0.553033
737 1 0.998256 0.375531 0.627892
739 1 0.054809 0.380833 0.684073
740 1 0.992892 0.433874 0.679399
743 1 0.195193 0.365629 0.700579
744 1 0.131677 0.429758 0.691754
742 1 0.199189 0.43784 0.620208
748 1 0.256312 0.427573 0.684446
745 1 0.244682 0.369236 0.614582
746 1 0.320066 0.434316 0.616641
749 1 0.376582 0.36719 0.618619
752 1 0.389109 0.441812 0.677827
881 1 0.506894 0.378299 0.759605
878 1 0.444613 0.434272 0.75302
753 1 0.508269 0.355801 0.624172
754 1 0.554923 0.428857 0.625759
756 1 0.502827 0.437881 0.679762
755 1 0.561037 0.378073 0.692451
760 1 0.618478 0.443218 0.692271
758 1 0.679801 0.441009 0.632174
764 1 0.749826 0.428216 0.688714
762 1 0.802629 0.431269 0.621925
768 1 0.868441 0.432912 0.673388
890 1 0.819851 0.432742 0.751435
1923 1 0.0652986 0.496323 0.929859
766 1 0.932433 0.442133 0.615503
894 1 0.931423 0.432243 0.747277
106 1 0.310024 0.434695 0.997822
776 1 0.129644 0.0485381 0.807747
780 1 0.249834 0.0673331 0.816123
807 1 0.19567 0.126473 0.81323
937 1 0.246189 0.12511 0.870551
1020 1 0.741956 0.436067 0.943395
778 1 0.302736 0.0739688 0.755085
941 1 0.365839 0.126073 0.879636
784 1 0.372573 0.0721127 0.80682
811 1 0.311877 0.136003 0.813175
906 1 0.323232 0.0589206 0.868771
815 1 0.443012 0.13019 0.810878
910 1 0.441109 0.0605109 0.870883
788 1 0.497707 0.062518 0.809011
819 1 0.570542 0.130287 0.814819
921 1 0.761691 0.00330005 0.881303
792 1 0.624776 0.0628738 0.813564
796 1 0.764033 0.0710507 0.815782
97 1 0.00594489 0.368763 0.984831
917 1 0.63225 0.00966127 0.872355
794 1 0.814494 0.060761 0.748567
829 1 0.883033 0.115556 0.746232
922 1 0.818787 0.0621218 0.875221
605 1 0.866175 0.256805 0.50152
665 1 0.757032 0.0046146 0.609226
772 1 0.991744 0.0528064 0.808508
800 1 0.876778 0.0598694 0.809744
798 1 0.939242 0.0603582 0.743623
803 1 0.0633755 0.129461 0.810683
933 1 0.132312 0.126549 0.875621
801 1 0.00258613 0.126649 0.757134
808 1 0.126713 0.184515 0.813506
804 1 0.999325 0.192581 0.81863
835 1 0.0541598 0.252778 0.818437
965 1 0.12257 0.262298 0.875254
809 1 0.247232 0.125754 0.740908
812 1 0.246142 0.189514 0.811594
839 1 0.194353 0.251447 0.808195
969 1 0.253009 0.251019 0.881104
810 1 0.301238 0.193994 0.753241
816 1 0.391691 0.196468 0.831459
841 1 0.252781 0.252895 0.748193
843 1 0.309602 0.245441 0.817322
938 1 0.305722 0.188272 0.87834
814 1 0.444868 0.190651 0.765566
847 1 0.444251 0.253631 0.817804
818 1 0.564076 0.188471 0.759551
820 1 0.506113 0.194638 0.826163
824 1 0.636181 0.18781 0.829198
853 1 0.63471 0.237568 0.754786
851 1 0.574588 0.252849 0.819407
823 1 0.696965 0.112092 0.81489
825 1 0.75582 0.125508 0.754193
855 1 0.692536 0.242925 0.826235
827 1 0.821605 0.122419 0.81173
828 1 0.754245 0.184576 0.828598
832 1 0.877047 0.189841 0.820747
831 1 0.938622 0.117561 0.814714
830 1 0.925744 0.186291 0.756945
834 1 0.0585724 0.313343 0.747977
836 1 0.990979 0.30005 0.802849
867 1 0.0709382 0.375389 0.811787
865 1 0.995769 0.377578 0.746499
869 1 0.131019 0.375656 0.753445
840 1 0.122454 0.306557 0.808414
844 1 0.263373 0.30872 0.824889
871 1 0.198623 0.377909 0.806527
842 1 0.322077 0.297894 0.745531
873 1 0.25742 0.36434 0.751536
875 1 0.32699 0.366006 0.803775
1009 1 0.499117 0.364077 0.895699
846 1 0.430328 0.306484 0.754
848 1 0.377649 0.302229 0.818979
849 1 0.506636 0.251528 0.758506
852 1 0.492661 0.314147 0.813145
879 1 0.433556 0.37205 0.800424
850 1 0.56711 0.314363 0.763173
856 1 0.632778 0.309343 0.834273
854 1 0.684933 0.322731 0.764029
860 1 0.744206 0.313943 0.818997
857 1 0.75071 0.248835 0.757676
893 1 0.869453 0.37175 0.753435
859 1 0.811539 0.246079 0.826197
858 1 0.808606 0.308199 0.757578
889 1 0.746867 0.373136 0.751921
891 1 0.805447 0.373181 0.812622
863 1 0.925699 0.251511 0.80689
864 1 0.87498 0.315234 0.812386
895 1 0.950467 0.376201 0.811974
866 1 0.0682045 0.436356 0.75108
868 1 0.0129565 0.448691 0.808509
994 1 0.0782468 0.437832 0.870645
870 1 0.200719 0.437247 0.752841
872 1 0.137169 0.439133 0.804112
876 1 0.254747 0.451136 0.8224
998 1 0.184157 0.431719 0.871065
1010 1 0.563639 0.446767 0.871773
779 1 0.313412 0.000228617 0.8101
874 1 0.3053 0.435848 0.753731
877 1 0.3747 0.382087 0.743655
880 1 0.385185 0.438188 0.811392
769 1 0.998937 0.00587129 0.743666
884 1 0.496419 0.424257 0.83104
885 1 0.620532 0.377336 0.755505
882 1 0.564488 0.434216 0.752804
883 1 0.572988 0.378538 0.816778
888 1 0.629306 0.440637 0.825724
886 1 0.688587 0.445012 0.757666
887 1 0.691811 0.381712 0.814644
1012 1 0.522355 0.443233 0.94681
1018 1 0.810893 0.442378 0.875247
1007 1 0.441387 0.382367 0.945826
1017 1 0.745074 0.382288 0.873087
892 1 0.756583 0.436655 0.811693
896 1 0.876882 0.431875 0.812246
1022 1 0.941293 0.442579 0.872309
1813 1 0.621345 0.496196 0.751823
783 1 0.437406 0.0045563 0.811088
1006 1 0.445015 0.437945 0.888825
898 1 0.0639408 0.0643247 0.871985
904 1 0.113933 0.0579816 0.935904
902 1 0.172956 0.0586794 0.876557
935 1 0.189525 0.11707 0.936961
1949 1 0.872394 0.499821 0.862475
570 1 0.815002 0.192801 0.507386
908 1 0.242685 0.0609515 0.938837
939 1 0.305837 0.113953 0.935236
545 1 0.992369 0.123776 0.500152
1695 1 0.923394 0.494779 0.688228
1691 1 0.801551 0.492082 0.690626
543 1 0.930368 0.0016526 0.546883
1817 1 0.751212 0.493974 0.748494
912 1 0.370758 0.0600682 0.946318
943 1 0.432011 0.126605 0.924067
916 1 0.500356 0.067075 0.952081
985 1 0.755036 0.251007 0.884259
914 1 0.558554 0.0751857 0.874209
947 1 0.571953 0.121666 0.939118
945 1 0.505897 0.132556 0.878632
1008 1 0.383766 0.437073 0.948219
918 1 0.701496 0.0650904 0.884653
920 1 0.638658 0.0626956 0.936876
951 1 0.697299 0.118058 0.939537
924 1 0.770048 0.0659685 0.939253
655 1 0.438352 0.00960352 0.683845