ITEM: TIMESTEP
25250
ITEM: NUMBER OF ATOMS
864
ITEM: BOX BOUNDS pp pp pp
0.0000000000000000e+00 3.1559999999999999e+01
0.0000000000000000e+00 3.1559999999999999e+01
0.0000000000000000e+00 3.1559999999999999e+01
ITEM: ATOMS id type xs ys zs
27 1 0.0810562 0.177338 0.0874928
97 1 0.998381 0.174667 0.174988
74 1 0.079232 0.0981543 0.173927
579 1 0.0808778 0.493578 0.40737
8 1 0.157621 0.0844506 0.0887463
93 1 0.8304 0.00431409 0.160454
62 1 0.582202 0.421429 0.0152054
12 1 0.340047 0.0910914 0.100973
16 1 0.485544 0.0724941 0.0919832
6 1 0.258337 0.0841056 0.00503645
77 1 0.154763 0.000248854 0.15871
39 1 0.570225 0.165256 0.0937429
86 1 0.596134 0.0692071 0.174484
163 1 0.762715 0.00112221 0.415199
20 1 0.672762 0.0778973 0.0837117
43 1 0.742881 0.165094 0.0762987
90 1 0.748449 0.0784844 0.162046
196 1 0.988465 0.413283 0.412073
669 1 0.831949 0.495858 0.496398
4 1 0.995627 0.0802515 0.113686
24 1 0.823373 0.0768063 0.0727959
47 1 0.905398 0.159615 0.0700787
212 1 0.66559 0.416771 0.418603
98 1 0.0880111 0.260084 0.162106
32 1 0.171074 0.26173 0.0802233
23 1 0.90916 0.00480885 0.083879
31 1 0.252705 0.172605 0.0874918
102 1 0.236369 0.251411 0.161663
55 1 0.256423 0.326701 0.068969
35 1 0.437472 0.164414 0.0845122
36 1 0.347787 0.244641 0.0780556
109 1 0.505712 0.157418 0.181546
129 1 0.318078 0.328469 0.169397
59 1 0.415438 0.329099 0.0805139
40 1 0.490495 0.250623 0.100991
110 1 0.587487 0.244329 0.184604
527 1 0.912066 0.47035 0.242229
455 1 0.920959 0.494573 0.0738963
44 1 0.660512 0.258325 0.0832246
67 1 0.732175 0.344672 0.0763697
48 1 0.818237 0.265884 0.0629091
597 1 0.823853 0.491047 0.327304
137 1 0.662624 0.336557 0.170349
28 1 0.983097 0.242023 0.0751435
71 1 0.912185 0.332377 0.0613069
14 1 0.57914 0.0826071 0.0144186
118 1 0.902406 0.245582 0.152194
51 1 0.0849676 0.327366 0.0670352
56 1 0.166363 0.415701 0.0731903
38 1 0.570754 0.241616 0.0220875
525 1 0.84113 0.497379 0.153512
242 1 0.0660723 0.255729 0.490567
577 1 0.00578601 0.491005 0.319298
60 1 0.334032 0.416137 0.0842284
126 1 0.24986 0.414392 0.17188
216 1 0.837359 0.414845 0.402785
218 1 0.0797001 0.10064 0.496477
130 1 0.40885 0.41664 0.176266
75 1 0.0845563 0.00488069 0.248761
5 1 0.161993 0.00232785 0.00792228
64 1 0.483599 0.420033 0.0804019
63 1 0.575946 0.331158 0.0900316
134 1 0.573062 0.420289 0.151929
133 1 0.492184 0.326862 0.166373
509 1 0.153774 0.49263 0.164033
519 1 0.58059 0.499489 0.253547
68 1 0.661249 0.421352 0.0828661
138 1 0.747912 0.420183 0.154322
72 1 0.823547 0.404347 0.069826
52 1 0.994115 0.409142 0.0628423
121 1 0.984082 0.322861 0.150335
649 1 0.00278882 0.498178 0.484673
511 1 0.265168 0.491555 0.256526
208 1 0.507382 0.412563 0.41647
507 1 0.097164 0.49455 0.251146
161 1 0.670033 0.00107477 0.337587
80 1 0.174432 0.0837389 0.238838
99 1 0.0900669 0.19913 0.248954
146 1 0.081258 0.116177 0.310813
78 1 0.259967 0.0878265 0.171731
84 1 0.343021 0.0912385 0.244457
101 1 0.158805 0.164248 0.178374
103 1 0.252609 0.176857 0.251631
105 1 0.325979 0.172601 0.174145
82 1 0.425797 0.0803634 0.175874
88 1 0.511747 0.0664833 0.258256
154 1 0.415022 0.0841153 0.330929
207 1 0.579536 0.321175 0.41028
181 1 0.504842 0.17173 0.328324
111 1 0.59173 0.142261 0.259977
92 1 0.677913 0.0761041 0.243022
158 1 0.585021 0.0684357 0.336505
10 1 0.406352 0.075217 0.00845365
3 1 0.0758586 0.00603829 0.078211
115 1 0.737183 0.167019 0.238848
185 1 0.672622 0.153572 0.34578
200 1 0.175738 0.419226 0.423272
76 1 0.993822 0.080463 0.250903
94 1 0.912026 0.0787285 0.16597
96 1 0.836924 0.0681273 0.246353
117 1 0.82483 0.16696 0.180915
203 1 0.420227 0.338554 0.395126
104 1 0.176925 0.265873 0.257913
100 1 0.00985944 0.2628 0.252989
125 1 0.179058 0.345098 0.160631
123 1 0.0959964 0.341494 0.238623
197 1 0.166506 0.351072 0.334755
170 1 0.0864507 0.284243 0.331674
108 1 0.34039 0.247531 0.257889
174 1 0.262971 0.250161 0.343277
106 1 0.402275 0.256072 0.161975
107 1 0.425451 0.161934 0.249884
112 1 0.494068 0.255843 0.246541
135 1 0.583139 0.338599 0.249494
182 1 0.57564 0.243726 0.332729
114 1 0.749528 0.271212 0.158152
113 1 0.672775 0.178415 0.163393
116 1 0.662381 0.244022 0.273628
209 1 0.651219 0.33767 0.332122
186 1 0.769439 0.232322 0.326553
139 1 0.736905 0.349048 0.256855
120 1 0.843872 0.252091 0.24557
213 1 0.830811 0.336298 0.333167
141 1 0.839836 0.328849 0.155527
119 1 0.916538 0.165479 0.246197
143 1 0.913603 0.336297 0.245432
193 1 0.999456 0.341445 0.338099
122 1 0.0715511 0.400733 0.14015
128 1 0.178059 0.425428 0.261724
204 1 0.328079 0.412476 0.425941
127 1 0.251928 0.341182 0.261196
521 1 0.657742 0.485462 0.166025
585 1 0.337169 0.483891 0.346083
132 1 0.351922 0.42741 0.262089
131 1 0.415857 0.331314 0.256755
249 1 0.337378 0.183101 0.498106
136 1 0.500596 0.420742 0.254573
206 1 0.571872 0.426752 0.337276
140 1 0.6596 0.430066 0.261359
230 1 0.5865 0.088684 0.488072
172 1 0.990765 0.254488 0.413132
190 1 0.912459 0.256847 0.324139
210 1 0.737662 0.422447 0.330647
144 1 0.826664 0.398023 0.235059
202 1 0.43244 0.423684 0.336404
214 1 0.92311 0.408147 0.328703
142 1 0.916212 0.407369 0.144279
124 1 0.002839 0.393071 0.239821
443 1 0.411793 0.497872 0.0744586
171 1 0.093979 0.165115 0.420152
152 1 0.168787 0.0804702 0.40194
587 1 0.414805 0.490028 0.427792
150 1 0.250941 0.0700484 0.317383
201 1 0.339198 0.35973 0.342077
156 1 0.3454 0.0903313 0.43154
179 1 0.422658 0.167365 0.4182
595 1 0.743561 0.496406 0.418045
167 1 0.932555 0.0112064 0.413209
160 1 0.496481 0.0881797 0.427017
183 1 0.573141 0.162147 0.416172
198 1 0.251904 0.426363 0.346938
189 1 0.849592 0.165443 0.33731
162 1 0.759667 0.084576 0.313057
164 1 0.681707 0.086207 0.433322
187 1 0.758247 0.160757 0.414432
41 1 0.653244 0.175863 0.00766213
166 1 0.92294 0.0797717 0.324295
148 1 0.013909 0.0980031 0.393477
168 1 0.834048 0.0786913 0.405448
191 1 0.91604 0.158026 0.419458
523 1 0.759008 0.481639 0.244184
195 1 0.0840294 0.348688 0.424381
176 1 0.169146 0.257292 0.407813
173 1 0.18305 0.164058 0.34233
175 1 0.263485 0.156138 0.405802
199 1 0.246523 0.343541 0.40945
177 1 0.33682 0.168615 0.332666
180 1 0.348073 0.243288 0.420596
178 1 0.424458 0.229314 0.331264
581 1 0.166327 0.498177 0.334319
169 1 0.99868 0.183198 0.328834
439 1 0.241729 0.496492 0.0782488
205 1 0.502213 0.331605 0.327318
184 1 0.506638 0.252283 0.418241
451 1 0.74528 0.495322 0.0785358
194 1 0.0824943 0.414235 0.33438
188 1 0.669271 0.247158 0.399569
211 1 0.733128 0.331157 0.407852
192 1 0.832045 0.244374 0.411801
215 1 0.912414 0.327757 0.418978
245 1 0.175069 0.171513 0.490917
250 1 0.425603 0.25499 0.496741
286 1 0.915457 0.429867 0.485202
22 1 0.924337 0.0692581 0.00176051
222 1 0.239989 0.0915975 0.497848
513 1 0.335652 0.494017 0.163685
437 1 0.156037 0.49812 0.00340353
261 1 0.822612 0.169123 0.496499
282 1 0.753455 0.40549 0.496612
277 1 0.495767 0.333195 0.494309
217 1 0.0215441 0.00161773 0.483025
25 1 0.00368158 0.142832 0.0118383
37 1 0.493027 0.143487 0.000991996
26 1 0.0744189 0.241591 0.00368469
49 1 0.00517807 0.323394 0.00349166
281 1 0.662894 0.325453 0.493844
258 1 0.756571 0.252453 0.490218
58 1 0.416493 0.40258 0.00192547
221 1 0.156219 0.0168141 0.491305
445 1 0.491577 0.498034 0.00658542
17 1 0.672635 0.0074997 0.00133305
241 1 0.996568 0.171887 0.490635
220 1 0.990589 0.108054 0.580555
224 1 0.168601 0.101036 0.591892
65 1 0.652253 0.339326 0.998694
70 1 0.91819 0.414923 0.985
303 1 0.568437 0.000471381 0.745203
247 1 0.251629 0.178506 0.569312
228 1 0.332059 0.0902841 0.570625
737 1 0.665784 0.494028 0.667728
298 1 0.411564 0.091428 0.666189
232 1 0.497143 0.0884622 0.577978
795 1 0.0657693 0.491691 0.924077
302 1 0.58494 0.0831056 0.668443
255 1 0.577076 0.150764 0.581164
430 1 0.917482 0.423462 0.831492
30 1 0.255308 0.245859 0.976511
270 1 0.235484 0.436712 0.515744
236 1 0.665895 0.0850094 0.583848
259 1 0.753403 0.17474 0.573908
293 1 0.159223 0.0102746 0.662956
262 1 0.909343 0.253115 0.518196
295 1 0.261399 0.00369165 0.735811
240 1 0.832266 0.068789 0.588962
263 1 0.911618 0.169482 0.59258
377 1 0.67067 0.00498619 0.84431
813 1 0.821336 0.492516 0.831055
243 1 0.0877607 0.172129 0.575865
244 1 0.00528316 0.251038 0.582509
313 1 0.990211 0.167103 0.666901
254 1 0.575061 0.240653 0.504858
248 1 0.162261 0.256013 0.585629
667 1 0.762575 0.487164 0.584872
318 1 0.236866 0.254665 0.653309
743 1 0.911476 0.492571 0.755315
252 1 0.328068 0.260804 0.579127
271 1 0.23837 0.349185 0.585334
317 1 0.162485 0.164604 0.687354
265 1 0.999818 0.343873 0.500946
251 1 0.408248 0.186165 0.582136
322 1 0.419114 0.254413 0.664891
234 1 0.766015 0.0784309 0.509948
329 1 0.660561 0.162154 0.663081
256 1 0.49818 0.246165 0.591069
326 1 0.589372 0.262944 0.677364
279 1 0.580605 0.325475 0.577442
260 1 0.665373 0.269986 0.592257
264 1 0.828432 0.25085 0.589256
239 1 0.942445 0.00999673 0.58796
334 1 0.897425 0.244713 0.681444
663 1 0.579115 0.499511 0.571678
301 1 0.491565 0.018314 0.651261
797 1 0.167526 0.498192 0.835453
267 1 0.0833318 0.329857 0.585754
272 1 0.155344 0.441403 0.596379
338 1 0.0823567 0.422817 0.66463
227 1 0.408938 0.00657806 0.570872
276 1 0.335807 0.411536 0.578647
342 1 0.248535 0.429426 0.669033
275 1 0.419212 0.343488 0.585192
346 1 0.407089 0.401822 0.667894
280 1 0.500621 0.411676 0.574591
735 1 0.580881 0.498828 0.751317
349 1 0.505341 0.346203 0.660609
18 1 0.741029 0.0873178 0.994394
283 1 0.755469 0.339716 0.578466
284 1 0.681428 0.416267 0.591856
288 1 0.852887 0.416627 0.580176
357 1 0.828236 0.347256 0.672518
268 1 0.0116521 0.423816 0.586831
287 1 0.916775 0.327054 0.604531
219 1 0.0769839 0.0158359 0.576919
290 1 0.0658498 0.0770534 0.665826
362 1 0.089197 0.0938695 0.832736
292 1 0.00153639 0.0853024 0.751817
315 1 0.0678906 0.174186 0.75371
432 1 0.828598 0.408801 0.907278
294 1 0.256005 0.0935977 0.654906
296 1 0.159598 0.0831122 0.750113
366 1 0.243809 0.0855655 0.821013
799 1 0.243051 0.493439 0.90462
431 1 0.922476 0.333188 0.924171
300 1 0.33602 0.0651872 0.748151
323 1 0.423579 0.174425 0.741081
393 1 0.344744 0.146895 0.822959
321 1 0.33667 0.174393 0.666206
375 1 0.578917 0.0140662 0.918918
793 1 0.00831787 0.499729 0.832178
304 1 0.488228 0.0839844 0.733113
308 1 0.662653 0.0693611 0.75727
231 1 0.583814 0.00608188 0.596926
306 1 0.737191 0.0749077 0.664224
331 1 0.734934 0.161247 0.745016
378 1 0.74607 0.0843303 0.840794
312 1 0.824259 0.0911103 0.755826
405 1 0.8329 0.159258 0.837391
423 1 0.572617 0.336812 0.916574
310 1 0.900994 0.0742982 0.669487
382 1 0.916194 0.0819645 0.833289
314 1 0.0819566 0.245433 0.663346
320 1 0.14775 0.254616 0.751671
389 1 0.171533 0.164415 0.821849
316 1 0.980911 0.242851 0.754533
386 1 0.0706656 0.250729 0.826757
385 1 0.00488399 0.158215 0.832359
319 1 0.250493 0.163065 0.745711
390 1 0.256044 0.241803 0.828248
345 1 0.324524 0.340656 0.652497
325 1 0.491987 0.157634 0.651121
324 1 0.316298 0.255019 0.732193
327 1 0.594193 0.167841 0.747608
328 1 0.503749 0.267935 0.74128
332 1 0.666379 0.257144 0.759304
333 1 0.828073 0.156489 0.654472
330 1 0.756503 0.258944 0.674131
402 1 0.759166 0.240703 0.833819
335 1 0.917431 0.153162 0.739722
336 1 0.823193 0.229169 0.751899
359 1 0.911432 0.346336 0.749658
409 1 0.0123034 0.339575 0.832955
410 1 0.0882595 0.418557 0.83277
339 1 0.0798204 0.332871 0.729178
341 1 0.161916 0.329452 0.667267
340 1 0.991644 0.421707 0.754403
413 1 0.161731 0.332538 0.81865
412 1 0.0106391 0.398639 0.923738
344 1 0.154303 0.417987 0.741282
343 1 0.240896 0.345755 0.746254
348 1 0.334472 0.429215 0.74801
421 1 0.495779 0.34014 0.827211
417 1 0.307282 0.33274 0.824514
347 1 0.404631 0.342652 0.770343
418 1 0.417604 0.434198 0.826287
723 1 0.0819496 0.496301 0.75571
46 1 0.919664 0.234963 0.995121
350 1 0.591155 0.415 0.660659
425 1 0.646264 0.340229 0.830538
351 1 0.579971 0.346391 0.748208
352 1 0.488915 0.411572 0.740485
356 1 0.650145 0.423716 0.74774
353 1 0.682828 0.343332 0.664827
354 1 0.750407 0.421107 0.687347
355 1 0.739198 0.328058 0.755072
426 1 0.731588 0.406533 0.82854
422 1 0.575152 0.413224 0.824031
337 1 0.995886 0.322482 0.666906
360 1 0.832778 0.41453 0.761786
358 1 0.926442 0.419897 0.664804
419 1 0.425984 0.318818 0.915871
364 1 0.999922 0.0781288 0.923549
368 1 0.173264 0.0803646 0.912552
387 1 0.0721074 0.162582 0.92094
69 1 0.810545 0.327818 0.96903
237 1 0.841583 4.32588e-05 0.505943
223 1 0.246381 0.0109439 0.582557
370 1 0.423955 0.0713446 0.830995
372 1 0.349289 0.0779166 0.912967
226 1 0.416807 0.100655 0.511019
811 1 0.747855 0.495864 0.919397
374 1 0.57641 0.074837 0.82278
376 1 0.489252 0.0668663 0.927711
380 1 0.657171 0.0893941 0.922918
416 1 0.172542 0.410262 0.911087
414 1 0.247318 0.423616 0.817247
401 1 0.670266 0.162936 0.828632
403 1 0.730926 0.163488 0.913634
269 1 0.158081 0.355254 0.510528
420 1 0.349445 0.412302 0.913386
29 1 0.175755 0.163661 0.990263
428 1 0.66313 0.406378 0.911128
384 1 0.833711 0.092359 0.914597
407 1 0.938081 0.156459 0.916418
411 1 0.0764292 0.31611 0.919885
392 1 0.158415 0.245288 0.90906
42 1 0.740012 0.24598 0.97831
424 1 0.50349 0.414669 0.912549
415 1 0.252074 0.334749 0.915227
391 1 0.255362 0.162418 0.896863
396 1 0.34286 0.257908 0.910967
388 1 0.995496 0.248114 0.913127
395 1 0.432088 0.169402 0.887999
394 1 0.394007 0.252495 0.82217
404 1 0.651412 0.247924 0.917975
406 1 0.90439 0.244248 0.820341
398 1 0.580629 0.254928 0.829952
397 1 0.506025 0.180123 0.814956
399 1 0.57288 0.164947 0.911772
400 1 0.51618 0.252508 0.922309
429 1 0.841451 0.320835 0.830792
427 1 0.726571 0.320504 0.903842
408 1 0.838711 0.239886 0.910512
21 1 0.829271 0.000404014 0.995092
66 1 0.745613 0.419981 0.990045
453 1 0.821899 0.489754 0.993653
311 1 0.914443 0.00609924 0.756154
741 1 0.828207 0.494061 0.669148
729 1 0.338181 0.486187 0.665379
50 1 0.0949795 0.413635 0.982593
1 1 0.00105519 0.00218233 0.999054
278 1 0.579648 0.412695 0.501679
34 1 0.434949 0.241802 0.998279
297 1 0.329243 0.00852546 0.656357
33 1 0.33024 0.172678 0.993173
45 1 0.830574 0.176855 0.993123
733 1 0.504935 0.487326 0.656594
659 1 0.416859 0.494916 0.579033
54 1 0.256403 0.421182 0.991781
665 1 0.674064 0.482026 0.509443
803 1 0.416464 0.499282 0.919612
53 1 0.175214 0.338768 0.999896
257 1 0.668723 0.175001 0.508974
233 1 0.650217 0.00229241 0.506289
365 1 0.179728 0.000938677 0.838868
383 1 0.919068 0.00610299 0.914421
379 1 0.761447 0.0149565 0.924542
807 1 0.583275 0.495848 0.921613
57 1 0.342135 0.324343 0.984716
225 1 0.322971 0.00569786 0.501624
246 1 0.244452 0.263999 0.502991
61 1 0.504939 0.334065 0.995841
285 1 0.84589 0.343222 0.50124
253 1 0.492826 0.166803 0.509664
273 1 0.345344 0.328186 0.502961
266 1 0.0835833 0.432334 0.511549
2 1 0.087798 0.0901341 0.999312
274 1 0.419467 0.416231 0.502212
238 1 0.915339 0.0903579 0.506093
436 1 0.999319 0.576199 0.0639072
506 1 0.0893168 0.584943 0.170291
440 1 0.168387 0.579501 0.0828909
529 1 0.999369 0.663211 0.163956
463 1 0.249185 0.676761 0.0891988
510 1 0.249361 0.583554 0.170006
444 1 0.325627 0.588505 0.0767423
457 1 0.996479 0.670509 0.00598794
537 1 0.330563 0.663079 0.158434
448 1 0.506776 0.57429 0.0706738
467 1 0.42409 0.670749 0.0756579
541 1 0.498431 0.666578 0.169575
518 1 0.577709 0.583806 0.160713
452 1 0.671559 0.589514 0.0777274
95 1 0.907912 0.996539 0.246821
522 1 0.75222 0.553163 0.171585
593 1 0.656946 0.502925 0.33755
456 1 0.825138 0.5753 0.0871133
479 1 0.91729 0.664903 0.0895427
462 1 0.245662 0.756143 0.0104846
459 1 0.0821143 0.660787 0.0794131
460 1 0.998902 0.750372 0.0840949
464 1 0.162209 0.7407 0.0927803
483 1 0.0788916 0.830439 0.0799305
533 1 0.180536 0.664421 0.174262
489 1 0.327241 0.829022 0.00779456
468 1 0.315677 0.754304 0.0834485
487 1 0.239691 0.840667 0.101834
534 1 0.247914 0.755569 0.177875
149 1 0.161094 0.99779 0.324196
517 1 0.493404 0.503842 0.153976
151 1 0.236134 0.995089 0.414959
538 1 0.408603 0.738503 0.169496
561 1 0.338192 0.816985 0.188793
466 1 0.410259 0.746555 0.00946423
515 1 0.424118 0.503978 0.243027
472 1 0.50137 0.750219 0.0818866
471 1 0.571475 0.665706 0.0758829
476 1 0.675873 0.758428 0.0774979
589 1 0.496927 0.509311 0.338577
549 1 0.829136 0.654084 0.15921
475 1 0.745848 0.665251 0.0826837
546 1 0.742334 0.736055 0.17837
499 1 0.764533 0.833902 0.0719508
480 1 0.841787 0.743578 0.0839567
693 1 0.844223 0.670898 0.492562
550 1 0.906065 0.755177 0.175466
490 1 0.407981 0.903344 0.0198413
89 1 0.671425 0.980739 0.16648
484 1 0.986499 0.917452 0.0718166
488 1 0.163547 0.926035 0.076415
646 1 0.907054 0.913124 0.331631
554 1 0.0789491 0.917044 0.159819
145 1 0.00306325 0.992465 0.328949
492 1 0.329814 0.914515 0.100676
643 1 0.749362 0.84378 0.430356
87 1 0.597176 0.990201 0.252849
15 1 0.594128 0.993566 0.0904942
491 1 0.418047 0.830004 0.0936198
496 1 0.510507 0.916844 0.0929623
565 1 0.508788 0.833914 0.174651
495 1 0.60116 0.83747 0.0925916
566 1 0.60131 0.908581 0.182035
447 1 0.585084 0.505463 0.078119
500 1 0.674586 0.917145 0.0814418
504 1 0.833423 0.925747 0.0698729
591 1 0.572781 0.500932 0.421064
503 1 0.917174 0.837279 0.090668
648 1 0.839098 0.916626 0.423696
435 1 0.0866558 0.507765 0.0879648
578 1 0.079404 0.5831 0.336777
531 1 0.0939862 0.666005 0.249836
512 1 0.168983 0.57994 0.250078
535 1 0.251127 0.658333 0.255816
516 1 0.336602 0.594705 0.242248
658 1 0.407195 0.586742 0.499958
514 1 0.412211 0.58715 0.152017
520 1 0.498031 0.581169 0.241197
613 1 0.504564 0.656701 0.320784
609 1 0.330501 0.661717 0.332145
543 1 0.580268 0.655158 0.23722
590 1 0.581751 0.583093 0.327406
524 1 0.66737 0.568631 0.240699
594 1 0.74095 0.585028 0.349654
528 1 0.841042 0.568001 0.243371
617 1 0.66784 0.6556 0.33468
545 1 0.665578 0.66132 0.154103
547 1 0.747866 0.649253 0.238857
526 1 0.917032 0.574114 0.160091
508 1 0.0210298 0.590109 0.24719
551 1 0.920713 0.660387 0.241718
19 1 0.748381 0.995395 0.0793789
642 1 0.74895 0.915473 0.346396
605 1 0.167365 0.655205 0.329539
530 1 0.083557 0.743907 0.161463
602 1 0.0893344 0.756936 0.331095
536 1 0.167855 0.742275 0.252549
540 1 0.337725 0.745773 0.26016
557 1 0.153146 0.822477 0.16565
559 1 0.24317 0.843301 0.247119
633 1 0.328622 0.834932 0.331799
539 1 0.419372 0.664363 0.255163
544 1 0.504347 0.754261 0.244713
610 1 0.413005 0.727452 0.33927
542 1 0.595917 0.750873 0.166799
614 1 0.584722 0.732318 0.342406
548 1 0.671496 0.73731 0.258819
567 1 0.594662 0.822329 0.2549
571 1 0.733398 0.823728 0.255231
618 1 0.742852 0.731122 0.336327
601 1 0.995414 0.680503 0.31886
621 1 0.832685 0.6514 0.323115
552 1 0.828395 0.741484 0.245192
532 1 0.019218 0.759471 0.249868
486 1 0.241164 0.914313 0.00265943
553 1 0.997309 0.838969 0.159673
555 1 0.0781672 0.847452 0.245016
625 1 0.993788 0.843199 0.324493
556 1 0.992977 0.919681 0.249809
458 1 0.0764044 0.752871 0.00358612
560 1 0.16265 0.920329 0.237859
558 1 0.264532 0.923312 0.173538
564 1 0.338479 0.918067 0.255888
644 1 0.683311 0.939491 0.428715
563 1 0.416013 0.821712 0.263393
562 1 0.424283 0.909442 0.167219
568 1 0.504795 0.909712 0.262267
569 1 0.68071 0.821676 0.159227
485 1 0.165112 0.835437 0.00255111
573 1 0.822902 0.819851 0.162205
645 1 0.821702 0.83879 0.328281
572 1 0.673756 0.912749 0.267042
570 1 0.759354 0.902592 0.16027
576 1 0.827599 0.910642 0.242758
575 1 0.926872 0.83097 0.237117
574 1 0.908136 0.920925 0.151508
79 1 0.238989 0.997054 0.239777
73 1 0.00596871 0.997262 0.176757
165 1 0.825833 0.98261 0.323426
584 1 0.167393 0.584578 0.410822
465 1 0.332 0.671175 0.0126758
677 1 0.156942 0.676138 0.4985
582 1 0.256737 0.570784 0.326024
607 1 0.240731 0.664603 0.4124
586 1 0.402649 0.574413 0.346389
588 1 0.318522 0.591948 0.421987
611 1 0.414857 0.66704 0.432071
670 1 0.909076 0.585477 0.494769
13 1 0.49724 0.998788 0.0161149
478 1 0.923106 0.758299 0.00135588
91 1 0.743279 0.998658 0.251944
592 1 0.490302 0.600155 0.412518
615 1 0.587983 0.663554 0.423993
11 1 0.414685 0.984134 0.0937044
83 1 0.422517 0.999005 0.257426
596 1 0.65535 0.576975 0.424865
638 1 0.595854 0.920058 0.328471
598 1 0.931837 0.583417 0.323488
600 1 0.837037 0.572348 0.409122
580 1 0.990728 0.593779 0.415161
81 1 0.346488 0.99755 0.171278
603 1 0.0714323 0.672713 0.409356
604 1 0.000230127 0.7536 0.419916
629 1 0.17572 0.836488 0.328698
606 1 0.25453 0.748966 0.335487
608 1 0.163083 0.743122 0.408584
155 1 0.430223 0.986358 0.413617
493 1 0.490694 0.838373 0.0132724
635 1 0.433386 0.831543 0.426537
612 1 0.33826 0.749844 0.425623
616 1 0.499376 0.728546 0.430089
694 1 0.918654 0.748269 0.49306
482 1 0.0834716 0.919753 0.00251335
637 1 0.499322 0.80342 0.339009
620 1 0.667362 0.735439 0.437447
639 1 0.590463 0.809187 0.418146
147 1 0.0798208 0.994671 0.40455
640 1 0.51067 0.899093 0.404547
619 1 0.762566 0.659596 0.422818
624 1 0.82946 0.750109 0.414269
599 1 0.928033 0.501426 0.395347
622 1 0.905164 0.74822 0.327424
623 1 0.908385 0.666124 0.411117
647 1 0.920231 0.831432 0.419387
641 1 0.661906 0.815326 0.345539
626 1 0.0994726 0.908183 0.33549
632 1 0.167884 0.904401 0.417573
627 1 0.100359 0.822854 0.430945
628 1 0.00172282 0.913388 0.423223
630 1 0.256 0.918862 0.320566
636 1 0.337542 0.904551 0.411796
631 1 0.25559 0.828377 0.426359
634 1 0.41588 0.917326 0.334174
673 1 0.994503 0.675814 0.495681
505 1 0.00522084 0.502416 0.166628
157 1 0.503417 0.987709 0.334071
85 1 0.50521 0.991336 0.178843
153 1 0.329967 0.996073 0.346588
159 1 0.586102 0.995105 0.423368
7 1 0.251483 0.999781 0.09264
583 1 0.248098 0.508219 0.432137
681 1 0.328437 0.66708 0.497066
706 1 0.407662 0.914781 0.493143
662 1 0.58471 0.589434 0.496619
650 1 0.0700133 0.595032 0.491459
481 1 0.995353 0.834314 0.0065288
698 1 0.0973443 0.917183 0.496659
653 1 0.156026 0.515643 0.486686
434 1 0.0847812 0.573604 0.000955508
9 1 0.342513 0.996943 0.00705921
441 1 0.342669 0.508489 0.00514387
305 1 0.681739 0.978671 0.673257
722 1 0.0846277 0.600544 0.677039
502 1 0.912954 0.932542 0.992197
749 1 0.165412 0.668332 0.680527
697 1 0.995727 0.845076 0.513568
289 1 0.00564714 0.996305 0.673715
656 1 0.161321 0.596949 0.596574
660 1 0.345672 0.573818 0.601889
679 1 0.270591 0.652506 0.591752
721 1 0.00667496 0.502701 0.666019
683 1 0.415471 0.662797 0.585784
731 1 0.421336 0.505158 0.736771
864 1 0.832741 0.916738 0.915253
801 1 0.329107 0.511751 0.852721
664 1 0.49753 0.582339 0.583987
687 1 0.589459 0.665994 0.587594
805 1 0.511935 0.502329 0.838757
671 1 0.932281 0.504512 0.581153
291 1 0.08091 0.996032 0.743912
668 1 0.653787 0.578897 0.587953
691 1 0.769305 0.661886 0.582826
469 1 0.49841 0.672618 0.991338
718 1 0.932507 0.927074 0.509709
498 1 0.745344 0.922664 0.984087
652 1 0.999122 0.588069 0.580791
672 1 0.842563 0.579037 0.584547
863 1 0.924757 0.830545 0.924141
689 1 0.667529 0.660178 0.513512
675 1 0.0785306 0.671176 0.594712
680 1 0.170599 0.741981 0.582442
746 1 0.0824418 0.761375 0.660011
727 1 0.238347 0.509959 0.744543
703 1 0.262056 0.835099 0.6033
773 1 0.174726 0.842511 0.665834
684 1 0.338197 0.744919 0.58462
707 1 0.4281 0.834021 0.578436
688 1 0.502912 0.754261 0.601665
433 1 0.981059 0.500442 0.987925
758 1 0.59282 0.755579 0.658223
781 1 0.499391 0.839111 0.669094
701 1 0.172602 0.825456 0.509145
692 1 0.690655 0.737946 0.593861
696 1 0.836883 0.747195 0.587805
762 1 0.769123 0.744351 0.671934
695 1 0.909487 0.664498 0.584583
676 1 0.982631 0.744942 0.592239
766 1 0.917568 0.749683 0.673756
651 1 0.0774367 0.524052 0.586244
699 1 0.0814866 0.831283 0.582159
704 1 0.169737 0.922463 0.580608
690 1 0.750045 0.757897 0.503014
862 1 0.926521 0.914759 0.854549
774 1 0.245067 0.923442 0.659483
708 1 0.325541 0.923338 0.58134
454 1 0.896376 0.573047 0.992763
713 1 0.667616 0.829838 0.51383
712 1 0.497312 0.922292 0.592621
473 1 0.682883 0.677877 0.989852
711 1 0.580501 0.842979 0.580822
716 1 0.65944 0.921687 0.575324
782 1 0.57671 0.920662 0.671089
655 1 0.243634 0.520078 0.601363
657 1 0.337702 0.509277 0.512347
859 1 0.753974 0.820147 0.899702
715 1 0.753062 0.832324 0.595326
720 1 0.843911 0.917213 0.593699
450 1 0.756942 0.576754 0.994795
686 1 0.594288 0.75402 0.516894
719 1 0.919923 0.828213 0.589613
700 1 0.00539383 0.92031 0.594111
438 1 0.249056 0.577736 0.997522
860 1 0.646785 0.907577 0.914248
728 1 0.143601 0.581647 0.767798
726 1 0.255503 0.585419 0.68058
751 1 0.261987 0.669531 0.763571
825 1 0.341275 0.659996 0.831493
753 1 0.332345 0.66738 0.685116
798 1 0.248147 0.58275 0.842506
855 1 0.586362 0.815754 0.910713
732 1 0.332781 0.56335 0.754708
730 1 0.422597 0.597841 0.669688
736 1 0.503213 0.598408 0.748594
755 1 0.42257 0.675655 0.747306
757 1 0.509792 0.665964 0.665133
802 1 0.414171 0.577068 0.827279
734 1 0.575781 0.571766 0.668637
761 1 0.66482 0.66145 0.664866
740 1 0.658021 0.58242 0.748149
759 1 0.578213 0.676202 0.749245
836 1 0.675881 0.756341 0.918931
371 1 0.416941 0.988919 0.930455
738 1 0.775977 0.589615 0.671491
682 1 0.4178 0.740871 0.502626
810 1 0.733761 0.607472 0.828171
742 1 0.919515 0.571188 0.674653
744 1 0.83289 0.593563 0.755472
724 1 0.0102884 0.592051 0.768059
814 1 0.920564 0.573902 0.835349
767 1 0.920608 0.662639 0.766323
817 1 0.00965068 0.665286 0.842422
747 1 0.082855 0.67953 0.753872
752 1 0.14811 0.764724 0.753428
769 1 0.991929 0.841545 0.672169
748 1 0.0100104 0.752929 0.756823
750 1 0.251896 0.745026 0.667148
756 1 0.341836 0.753432 0.761167
775 1 0.245549 0.845649 0.757359
754 1 0.411845 0.74845 0.667493
779 1 0.410233 0.837482 0.745744
760 1 0.489741 0.765096 0.741853
764 1 0.664035 0.746902 0.748619
783 1 0.583178 0.832322 0.73134
765 1 0.848978 0.664281 0.677224
763 1 0.742201 0.665673 0.740628
789 1 0.843295 0.826007 0.675557
787 1 0.750485 0.823001 0.749165
745 1 0.00643127 0.675175 0.676446
768 1 0.854642 0.752751 0.763529
791 1 0.922775 0.834004 0.758046
770 1 0.0953043 0.925998 0.663496
852 1 0.337713 0.91277 0.91084
497 1 0.668552 0.839271 0.992659
841 1 0.998989 0.831493 0.834212
771 1 0.0793186 0.844858 0.749276
842 1 0.0922782 0.927405 0.837109
678 1 0.257116 0.747231 0.50347
777 1 0.339426 0.843576 0.675011
776 1 0.170666 0.916568 0.752873
780 1 0.347028 0.935676 0.739464
714 1 0.771991 0.900391 0.519245
846 1 0.274955 0.918285 0.817312
666 1 0.76602 0.591257 0.507598
856 1 0.498252 0.913275 0.912117
778 1 0.420888 0.909349 0.66236
850 1 0.413095 0.913407 0.824778
849 1 0.3373 0.835759 0.824327
785 1 0.662582 0.854829 0.65896
784 1 0.506599 0.915627 0.752604
854 1 0.576673 0.908844 0.838771
788 1 0.65927 0.9217 0.752627
857 1 0.66206 0.830105 0.817035
834 1 0.75291 0.745596 0.823911
858 1 0.746171 0.916274 0.838966
786 1 0.764413 0.907294 0.683887
685 1 0.506775 0.665164 0.517818
830 1 0.565015 0.761038 0.821546
861 1 0.837865 0.838834 0.83227
772 1 0.993663 0.922566 0.755492
792 1 0.853007 0.917309 0.7624
790 1 0.923448 0.916776 0.672781
847 1 0.248635 0.84283 0.915151
845 1 0.164417 0.823763 0.846536
809 1 0.65842 0.502571 0.828131
794 1 0.0827994 0.580503 0.853364
796 1 0.996817 0.589748 0.935792
819 1 0.0859137 0.667007 0.929426
833 1 0.647893 0.68202 0.832769
800 1 0.177829 0.588735 0.912212
804 1 0.33393 0.595399 0.917022
501 1 0.828678 0.841131 0.98995
829 1 0.491499 0.679362 0.845587
808 1 0.482936 0.582525 0.913947
827 1 0.404981 0.682425 0.920555
446 1 0.589935 0.582502 0.997613
840 1 0.848072 0.758206 0.913361
654 1 0.241855 0.579892 0.508314
853 1 0.482296 0.840541 0.83781
806 1 0.569069 0.592597 0.84005
831 1 0.581623 0.687063 0.908056
235 1 0.755528 0.998964 0.582936
835 1 0.760881 0.671827 0.910516
837 1 0.837537 0.666898 0.830634
812 1 0.660556 0.587338 0.911653
848 1 0.164003 0.914869 0.921318
844 1 0.0226016 0.908028 0.913775
816 1 0.835961 0.579545 0.900975
839 1 0.921963 0.660699 0.901608
843 1 0.0944317 0.827789 0.922848
838 1 0.929831 0.743522 0.833425
818 1 0.0906481 0.74081 0.84046
821 1 0.172492 0.664069 0.826561
822 1 0.253848 0.759873 0.83375
820 1 0.0059782 0.759276 0.916165
824 1 0.169943 0.757621 0.91712
823 1 0.25297 0.671771 0.917024
705 1 0.332542 0.840424 0.50339
826 1 0.414973 0.750367 0.835087
851 1 0.417522 0.838348 0.916344
832 1 0.492008 0.769572 0.914044
828 1 0.325659 0.760825 0.921997
739 1 0.749496 0.511687 0.74566
674 1 0.066699 0.759227 0.509545
373 1 0.502309 0.992503 0.839172
361 1 0.000524914 0.986901 0.844049
470 1 0.577505 0.756276 0.997838
725 1 0.151027 0.512753 0.674132
309 1 0.833996 0.997752 0.682935
367 1 0.255076 0.982149 0.924192
299 1 0.43587 0.990439 0.73763
815 1 0.900981 0.501387 0.907776
363 1 0.0892591 0.996062 0.928252
369 1 0.330139 0.999258 0.848106
661 1 0.49987 0.506587 0.500177
381 1 0.84178 0.992086 0.838016
307 1 0.768164 0.999973 0.764629
449 1 0.669785 0.51331 0.999094
461 1 0.171833 0.657496 0.999739
442 1 0.422248 0.58861 0.999503
709 1 0.507727 0.8244 0.50248
229 1 0.495575 0.999022 0.503053
710 1 0.570125 0.9259 0.507503
702 1 0.238966 0.929215 0.505191
494 1 0.569383 0.912921 0.987805
474 1 0.765369 0.750317 0.997961
477 1 0.848736 0.663108 0.999924
717 1 0.841349 0.826686 0.507776
