ITEM: TIMESTEP
30000
ITEM: NUMBER OF ATOMS
864
ITEM: BOX BOUNDS pp pp pp
0.0000000000000000e+00 3.1559999999999999e+01
0.0000000000000000e+00 3.1559999999999999e+01
0.0000000000000000e+00 3.1559999999999999e+01
ITEM: ATOMS id type xs ys zs
4 1 0.00425391 0.0845625 0.0937881
27 1 0.0885635 0.160252 0.0844653
97 1 0.00379314 0.162241 0.165788
25 1 0.00145362 0.148173 0.0107737
2 1 0.0819707 0.0803323 0.0115475
8 1 0.180429 0.061367 0.0907781
12 1 0.323201 0.0732942 0.0837535
16 1 0.494336 0.0769267 0.0772201
10 1 0.410641 0.0913885 0.00177203
35 1 0.412246 0.164781 0.0967783
85 1 0.499014 0.00403009 0.159526
37 1 0.494292 0.163539 0.00473119
82 1 0.405605 0.0762608 0.152346
14 1 0.582712 0.0787178 0.000313711
39 1 0.584945 0.159746 0.0887777
15 1 0.580445 0.00195354 0.0823278
113 1 0.656886 0.159749 0.163217
109 1 0.501675 0.16521 0.162463
20 1 0.673932 0.0829994 0.0800853
90 1 0.753304 0.0791438 0.155078
19 1 0.745868 0.00281593 0.07237
24 1 0.842748 0.0725736 0.0929929
47 1 0.925539 0.16179 0.0890752
117 1 0.83341 0.158262 0.152275
22 1 0.911025 0.0791505 0.00351974
26 1 0.0723561 0.247586 0.0121232
98 1 0.0762722 0.252519 0.154419
29 1 0.168169 0.171152 0.0102716
31 1 0.258129 0.180353 0.094222
32 1 0.182875 0.263367 0.0803379
36 1 0.348267 0.256255 0.0895116
40 1 0.494408 0.260043 0.0869902
34 1 0.413856 0.237307 0.00890513
63 1 0.596724 0.327738 0.0802811
44 1 0.662862 0.242698 0.0752025
61 1 0.500375 0.329955 0.00356886
43 1 0.755933 0.175011 0.0839403
67 1 0.754818 0.320476 0.0822604
28 1 0.998882 0.243554 0.0806385
121 1 0.997089 0.327211 0.153135
48 1 0.844522 0.255077 0.0763055
71 1 0.912554 0.332845 0.085631
118 1 0.915725 0.24277 0.161453
49 1 0.995546 0.332205 0.00331443
46 1 0.924384 0.24843 0.0024031
45 1 0.839509 0.168496 0.0132266
51 1 0.0819093 0.343887 0.0797919
56 1 0.164108 0.417311 0.0844324
52 1 0.00686492 0.437457 0.0791458
122 1 0.0841345 0.416618 0.161185
125 1 0.156722 0.33944 0.15737
53 1 0.16108 0.336788 0.00433457
129 1 0.326969 0.333824 0.154325
55 1 0.25281 0.33915 0.0807494
126 1 0.237417 0.414912 0.153755
60 1 0.344758 0.421359 0.0628336
59 1 0.424819 0.335441 0.0814141
130 1 0.422214 0.424502 0.160361
513 1 0.337016 0.494155 0.163049
64 1 0.512625 0.406093 0.0801355
68 1 0.662569 0.430373 0.0836519
62 1 0.600823 0.411495 0.00135209
447 1 0.577376 0.496958 0.0741157
66 1 0.748869 0.418389 0.0115054
72 1 0.837774 0.424166 0.0930187
142 1 0.922382 0.412049 0.154373
69 1 0.834445 0.349855 0.0160776
70 1 0.918993 0.431255 0.00573982
77 1 0.165014 0.0127466 0.181742
75 1 0.0869992 0.00439672 0.250325
74 1 0.0828427 0.0792021 0.169435
76 1 0.00625585 0.0929167 0.237479
80 1 0.162454 0.085621 0.26438
146 1 0.0780594 0.0855673 0.327762
78 1 0.26591 0.0971479 0.169593
101 1 0.171956 0.161922 0.171859
149 1 0.167955 0.00456426 0.333314
150 1 0.247016 0.0783549 0.324761
177 1 0.323538 0.16056 0.320511
79 1 0.248606 0.00110601 0.238078
153 1 0.326492 0.00242516 0.319775
84 1 0.333775 0.0738959 0.245038
88 1 0.477826 0.0899692 0.245449
181 1 0.493479 0.166109 0.331916
86 1 0.570841 0.0873124 0.16743
92 1 0.648433 0.0724756 0.243022
111 1 0.593652 0.166108 0.253338
158 1 0.580411 0.074547 0.32221
115 1 0.741561 0.148063 0.238151
162 1 0.759723 0.0833846 0.324463
91 1 0.739656 0.00547495 0.247982
94 1 0.925662 0.0872679 0.166691
96 1 0.854404 0.0795589 0.249688
93 1 0.84461 0.000778992 0.180457
145 1 0.997267 0.00371201 0.329639
166 1 0.931686 0.0948374 0.328053
95 1 0.934479 0.00713258 0.243327
99 1 0.0893801 0.176593 0.238715
100 1 0.00132113 0.230224 0.255638
123 1 0.0735876 0.317236 0.245321
104 1 0.16402 0.260667 0.254847
173 1 0.171589 0.169423 0.328265
102 1 0.260058 0.261916 0.175783
103 1 0.241436 0.181428 0.24618
127 1 0.26009 0.325777 0.259249
106 1 0.42385 0.266744 0.182627
108 1 0.336933 0.252861 0.251477
105 1 0.336757 0.175207 0.184303
107 1 0.411129 0.168248 0.259589
112 1 0.485217 0.241931 0.260759
110 1 0.586203 0.254718 0.171013
182 1 0.579452 0.250044 0.331969
114 1 0.742014 0.235736 0.172523
116 1 0.669819 0.245634 0.249987
139 1 0.751455 0.325578 0.253121
120 1 0.824887 0.239606 0.243544
186 1 0.754153 0.222635 0.316793
119 1 0.911914 0.168383 0.240919
141 1 0.833648 0.324123 0.171679
189 1 0.839442 0.17022 0.323633
143 1 0.919062 0.330233 0.239247
213 1 0.836581 0.331022 0.321877
190 1 0.927418 0.244088 0.329261
124 1 0.0072976 0.420607 0.234853
128 1 0.14698 0.416447 0.249691
197 1 0.155157 0.343649 0.329839
511 1 0.240274 0.492253 0.252703
585 1 0.326706 0.495252 0.332111
131 1 0.415721 0.345008 0.252328
132 1 0.340288 0.423267 0.243597
136 1 0.497228 0.423907 0.252564
205 1 0.49748 0.344067 0.325606
133 1 0.507772 0.337169 0.179624
135 1 0.575706 0.337611 0.251764
134 1 0.581581 0.420285 0.171996
140 1 0.662457 0.420738 0.250259
521 1 0.658897 0.499157 0.173397
137 1 0.668306 0.336053 0.175914
525 1 0.829622 0.495302 0.18041
210 1 0.747522 0.41526 0.317278
138 1 0.743 0.415068 0.172923
527 1 0.911627 0.489484 0.238763
214 1 0.930775 0.388745 0.324303
577 1 0.988448 0.490645 0.326965
144 1 0.8368 0.398851 0.24174
597 1 0.848998 0.486655 0.326928
218 1 0.0809341 0.0858147 0.49532
148 1 0.00757748 0.0777514 0.415992
169 1 0.00970522 0.160637 0.335378
152 1 0.172626 0.0923549 0.412109
175 1 0.251404 0.162013 0.411982
156 1 0.328188 0.0960024 0.414588
222 1 0.239334 0.0869119 0.499113
151 1 0.251055 0.000941975 0.408496
225 1 0.330502 0.00657101 0.489148
221 1 0.171763 0.00395707 0.488874
154 1 0.412439 0.0766196 0.336606
160 1 0.488714 0.0899819 0.428379
155 1 0.413625 0.0152131 0.422913
157 1 0.494367 0.00186836 0.334475
159 1 0.586493 0.0103978 0.414284
161 1 0.664519 0.00514029 0.336549
164 1 0.652937 0.0900909 0.424008
183 1 0.571072 0.159952 0.410092
163 1 0.737987 0.0157005 0.444919
185 1 0.674356 0.144425 0.33766
187 1 0.765797 0.15575 0.425083
257 1 0.675938 0.160938 0.499249
238 1 0.921307 0.0909215 0.488627
168 1 0.834803 0.0786569 0.412458
167 1 0.921158 0.0129012 0.412532
241 1 0.998646 0.163448 0.483309
217 1 0.996284 0.00675773 0.494378
242 1 0.075262 0.252768 0.493999
193 1 0.00964093 0.323475 0.347483
170 1 0.0792371 0.234859 0.340353
171 1 0.0916621 0.172709 0.417218
176 1 0.160965 0.256315 0.408293
174 1 0.252586 0.252794 0.333793
199 1 0.244128 0.332256 0.417336
180 1 0.326467 0.261035 0.413452
179 1 0.409735 0.173299 0.398802
178 1 0.409704 0.26586 0.338406
184 1 0.484533 0.250742 0.409018
249 1 0.335116 0.174112 0.491477
207 1 0.588821 0.325223 0.424362
277 1 0.50401 0.328252 0.492153
281 1 0.660606 0.328992 0.490836
254 1 0.589398 0.249583 0.490965
188 1 0.669417 0.233746 0.408378
258 1 0.756126 0.246791 0.496902
191 1 0.924045 0.171186 0.407573
192 1 0.835788 0.254801 0.41219
172 1 0.987084 0.259548 0.425368
261 1 0.843251 0.178451 0.496465
579 1 0.0853948 0.49661 0.405912
194 1 0.0771005 0.421478 0.333822
200 1 0.156369 0.421212 0.412496
195 1 0.0843551 0.335539 0.417616
653 1 0.150766 0.496945 0.49377
266 1 0.0817559 0.409878 0.499469
198 1 0.255874 0.42016 0.340494
270 1 0.229913 0.426047 0.486744
203 1 0.39607 0.333489 0.432857
204 1 0.342465 0.423285 0.417483
202 1 0.4153 0.428581 0.33432
201 1 0.346165 0.347917 0.334918
657 1 0.339454 0.487358 0.496051
209 1 0.665342 0.339484 0.345547
208 1 0.506355 0.42223 0.406463
206 1 0.588472 0.413015 0.341281
278 1 0.583811 0.415233 0.478027
216 1 0.819773 0.422859 0.415221
212 1 0.676636 0.423453 0.413636
211 1 0.752594 0.346842 0.414042
285 1 0.819679 0.342116 0.487847
215 1 0.91385 0.335028 0.419763
196 1 0.999056 0.411908 0.411126
286 1 0.922228 0.418224 0.495496
224 1 0.162487 0.0975074 0.585613
290 1 0.0798846 0.0892226 0.649092
219 1 0.0671489 0.00851115 0.578604
228 1 0.32961 0.0732691 0.580399
247 1 0.254546 0.157802 0.577796
294 1 0.250964 0.0837872 0.659701
223 1 0.231777 0.00416721 0.576986
298 1 0.413043 0.0756934 0.660508
232 1 0.490394 0.0802593 0.587919
251 1 0.403616 0.15839 0.589723
226 1 0.41892 0.0880764 0.50754
229 1 0.493309 0.00502186 0.505206
227 1 0.418448 0.000765293 0.590219
255 1 0.586344 0.158409 0.584787
231 1 0.580899 0.00974475 0.580707
329 1 0.655747 0.147817 0.66599
233 1 0.661497 0.00244544 0.504386
230 1 0.583339 0.0872694 0.501726
236 1 0.673946 0.0697448 0.584904
259 1 0.750227 0.163905 0.599645
235 1 0.758721 0.00789556 0.591974
234 1 0.75841 0.0933936 0.515492
220 1 0.986918 0.0979456 0.585095
240 1 0.848124 0.0900519 0.58142
309 1 0.849103 0.00564916 0.660283
243 1 0.0714161 0.172862 0.579585
317 1 0.154402 0.171956 0.657067
248 1 0.15945 0.249414 0.587641
245 1 0.146296 0.176082 0.504367
318 1 0.247646 0.2559 0.662099
252 1 0.332679 0.255651 0.582143
246 1 0.253147 0.249853 0.505698
269 1 0.168992 0.325976 0.500611
250 1 0.406122 0.255337 0.508219
256 1 0.480861 0.243962 0.585921
275 1 0.422086 0.33232 0.575259
253 1 0.490771 0.167928 0.509422
260 1 0.662366 0.247981 0.582302
326 1 0.572536 0.24438 0.664834
279 1 0.573744 0.333097 0.575741
283 1 0.749203 0.321855 0.581029
264 1 0.832291 0.257044 0.587939
262 1 0.913309 0.266013 0.511868
263 1 0.912562 0.182681 0.576242
244 1 0.997767 0.257437 0.581074
313 1 0.99801 0.168498 0.663619
333 1 0.84042 0.172532 0.658637
267 1 0.0877729 0.340514 0.587773
651 1 0.0775779 0.498805 0.574626
338 1 0.0779831 0.413482 0.660961
272 1 0.159511 0.42494 0.581186
341 1 0.163186 0.337808 0.663546
265 1 0.00605613 0.343122 0.515784
271 1 0.242637 0.333697 0.57804
725 1 0.173566 0.496755 0.664454
655 1 0.262329 0.483637 0.582912
273 1 0.319367 0.339885 0.504238
345 1 0.342006 0.346278 0.651179
276 1 0.341265 0.417167 0.575322
280 1 0.490641 0.411618 0.586838
659 1 0.413658 0.490608 0.591015
274 1 0.427656 0.417046 0.502089
284 1 0.666041 0.413575 0.571107
353 1 0.65711 0.340171 0.647899
350 1 0.585811 0.418431 0.647727
663 1 0.595882 0.499815 0.563913
737 1 0.670205 0.495536 0.650248
354 1 0.753707 0.422386 0.641889
282 1 0.74428 0.412635 0.505289
268 1 0.999582 0.422323 0.585602
288 1 0.834401 0.437105 0.556281
287 1 0.908723 0.344772 0.591987
358 1 0.914165 0.41871 0.666174
291 1 0.0856982 0.00861658 0.734009
296 1 0.154005 0.103029 0.740707
292 1 0.00631143 0.0786799 0.746835
293 1 0.164621 0.00452874 0.666692
300 1 0.318884 0.0803579 0.75148
323 1 0.416926 0.143604 0.750947
304 1 0.490715 0.0596088 0.7562
302 1 0.581351 0.0688634 0.677177
327 1 0.583217 0.165153 0.750346
325 1 0.501891 0.165891 0.670765
374 1 0.56534 0.0829543 0.830749
401 1 0.660914 0.158643 0.829688
306 1 0.771065 0.0803157 0.674331
308 1 0.682315 0.0907382 0.757593
331 1 0.757285 0.161413 0.755006
305 1 0.685923 0.0111442 0.678376
307 1 0.742991 0.00264698 0.762251
312 1 0.839378 0.0779881 0.760567
310 1 0.920541 0.0953314 0.669477
335 1 0.930368 0.165172 0.750837
314 1 0.0782305 0.264808 0.667952
315 1 0.0765754 0.186333 0.745244
385 1 0.0035131 0.167337 0.828138
413 1 0.165681 0.312726 0.831889
320 1 0.164357 0.247419 0.741881
321 1 0.329058 0.167762 0.668735
319 1 0.242334 0.176016 0.744331
390 1 0.252535 0.237825 0.831113
324 1 0.329285 0.246448 0.742491
343 1 0.253297 0.330232 0.734099
322 1 0.411771 0.257268 0.672126
417 1 0.333421 0.32644 0.828864
394 1 0.409755 0.242854 0.813843
328 1 0.489247 0.240328 0.747004
332 1 0.656468 0.259877 0.764866
398 1 0.572622 0.252562 0.830828
330 1 0.75013 0.247075 0.672188
355 1 0.743466 0.323355 0.755223
336 1 0.828552 0.244572 0.750899
402 1 0.747899 0.24703 0.829008
316 1 0.993266 0.255905 0.752115
334 1 0.919657 0.246208 0.675816
359 1 0.906768 0.32998 0.756832
406 1 0.918182 0.24163 0.825173
337 1 0.000881397 0.336557 0.674401
339 1 0.0748967 0.334258 0.755266
410 1 0.0768363 0.40979 0.828513
723 1 0.0987391 0.495361 0.738879
721 1 0.00846469 0.491646 0.668561
342 1 0.251686 0.404467 0.667093
797 1 0.178279 0.492755 0.828826
344 1 0.169935 0.407862 0.755853
414 1 0.261142 0.403345 0.828123
801 1 0.331472 0.486952 0.832614
731 1 0.410949 0.488562 0.753757
347 1 0.43667 0.337866 0.751876
346 1 0.420939 0.414358 0.671641
348 1 0.336322 0.409615 0.740366
352 1 0.497155 0.427649 0.73777
729 1 0.335565 0.495457 0.674087
349 1 0.504331 0.334457 0.671535
422 1 0.578943 0.420721 0.828034
351 1 0.570681 0.337949 0.747902
356 1 0.664199 0.408366 0.739621
813 1 0.826192 0.495806 0.831512
741 1 0.823025 0.494697 0.669666
357 1 0.826558 0.334793 0.667753
360 1 0.827334 0.418691 0.744596
739 1 0.73391 0.491859 0.756634
793 1 0.99967 0.489705 0.829416
340 1 0.989653 0.419497 0.749755
743 1 0.908431 0.49735 0.755461
362 1 0.0741456 0.101783 0.836622
387 1 0.087346 0.16229 0.930134
364 1 0.00399333 0.0792837 0.919532
363 1 0.0863043 0.00585774 0.920144
6 1 0.248598 0.0839171 0.995078
389 1 0.168282 0.155977 0.843919
366 1 0.247884 0.0706993 0.837536
368 1 0.167618 0.0799187 0.920416
391 1 0.25536 0.16252 0.905811
395 1 0.428263 0.158386 0.922205
372 1 0.337141 0.0841272 0.912075
13 1 0.4957 0.0058393 0.999679
370 1 0.421383 0.0729874 0.845582
376 1 0.493855 0.0803633 0.927301
393 1 0.347305 0.154851 0.833882
375 1 0.584786 0.00837906 0.910449
399 1 0.567315 0.159132 0.925615
380 1 0.649826 0.0919935 0.915056
41 1 0.654369 0.156435 0.996718
17 1 0.668398 0.0153341 0.994684
18 1 0.76063 0.0950601 0.991229
379 1 0.76281 0.00266979 0.915938
377 1 0.668855 0.0165837 0.841083
378 1 0.762504 0.0776639 0.842272
403 1 0.746027 0.16085 0.915709
383 1 0.927346 0.00631521 0.924263
382 1 0.924582 0.0934193 0.836814
384 1 0.843754 0.0833299 0.917721
361 1 0.998671 9.21848e-05 0.834632
386 1 0.0891478 0.245262 0.841821
388 1 0.00942124 0.259638 0.923508
392 1 0.165717 0.245419 0.927419
415 1 0.242734 0.315184 0.909052
30 1 0.257293 0.254566 0.993463
33 1 0.32499 0.167149 0.98676
400 1 0.499005 0.242803 0.926391
397 1 0.495355 0.174278 0.838318
396 1 0.350333 0.240715 0.911737
419 1 0.424604 0.321159 0.905468
421 1 0.497356 0.321939 0.836572
57 1 0.336071 0.329054 0.994716
423 1 0.580773 0.328993 0.931176
404 1 0.653446 0.231452 0.910673
38 1 0.586525 0.244864 0.992377
427 1 0.757434 0.330619 0.93184
408 1 0.827764 0.253091 0.939985
425 1 0.671489 0.323388 0.851789
42 1 0.73818 0.245896 0.990515
65 1 0.67247 0.329431 0.992897
407 1 0.914883 0.16708 0.932792
405 1 0.837834 0.174855 0.841038
431 1 0.913388 0.327078 0.925495
429 1 0.836789 0.327516 0.853319
437 1 0.166486 0.487778 0.981795
411 1 0.0868169 0.340634 0.920978
50 1 0.0696933 0.443334 0.995771
416 1 0.186527 0.406106 0.900734
54 1 0.255404 0.414073 0.998367
805 1 0.495267 0.490055 0.83738
58 1 0.430067 0.409424 0.99108
418 1 0.414728 0.420869 0.844909
420 1 0.335094 0.39628 0.90283
428 1 0.665858 0.411093 0.919781
424 1 0.515432 0.41548 0.911516
807 1 0.592577 0.49706 0.916684
445 1 0.51715 0.497888 0.991617
426 1 0.748399 0.40751 0.839359
432 1 0.833692 0.4112 0.930124
430 1 0.908288 0.422255 0.844443
409 1 0.991728 0.34194 0.836759
412 1 0.996373 0.416456 0.918218
459 1 0.0829021 0.653944 0.0744272
435 1 0.093647 0.518732 0.0769535
457 1 0.00782573 0.657101 0.00102202
441 1 0.331109 0.506838 0.000421149
440 1 0.179108 0.588193 0.0720698
510 1 0.254546 0.578776 0.153984
537 1 0.328799 0.664137 0.165157
509 1 0.171992 0.502081 0.154501
439 1 0.257111 0.500743 0.0903691
442 1 0.415014 0.586565 0.00631793
443 1 0.409419 0.502052 0.0807273
444 1 0.342728 0.58831 0.0785446
448 1 0.485041 0.577718 0.0901942
465 1 0.337655 0.666204 0.00756707
452 1 0.660061 0.589143 0.0874279
449 1 0.662136 0.508152 0.00289026
518 1 0.583399 0.596267 0.161754
473 1 0.658773 0.652995 0.00308613
446 1 0.567488 0.584815 0.0101837
451 1 0.734143 0.513006 0.0919247
456 1 0.830037 0.583084 0.0916667
436 1 0.984515 0.593899 0.0940784
453 1 0.834489 0.503065 0.00269247
454 1 0.915607 0.585639 0.00566911
433 1 0.994079 0.516691 0.00816194
455 1 0.909861 0.513052 0.0963244
483 1 0.0882204 0.821397 0.0851197
530 1 0.0907892 0.748151 0.154063
458 1 0.0932816 0.741251 0.00896635
464 1 0.17512 0.736566 0.0833571
463 1 0.258445 0.673532 0.0723258
534 1 0.259055 0.739926 0.165042
487 1 0.260952 0.830631 0.0804249
557 1 0.167308 0.823949 0.155051
462 1 0.25418 0.749738 0.00480049
468 1 0.343877 0.748918 0.0802665
467 1 0.411645 0.668184 0.0895363
472 1 0.493312 0.756001 0.0863892
538 1 0.418934 0.737884 0.16625
561 1 0.342313 0.82473 0.159423
469 1 0.494616 0.673139 0.00832084
471 1 0.57236 0.687137 0.0995548
495 1 0.578274 0.820722 0.0856852
470 1 0.573891 0.750636 0.00955049
475 1 0.744006 0.668579 0.0965967
474 1 0.740516 0.750501 0.00135672
476 1 0.667929 0.759035 0.0843229
546 1 0.755276 0.762382 0.164439
477 1 0.82329 0.669157 0.0107606
460 1 0.997635 0.732335 0.0796464
479 1 0.908423 0.671765 0.0811698
480 1 0.834714 0.751378 0.0857903
503 1 0.915635 0.823144 0.0910293
553 1 0.994897 0.808575 0.153483
554 1 0.073704 0.901955 0.156631
3 1 0.0838707 0.996359 0.0800831
73 1 0.0083159 0.994154 0.161666
482 1 0.085636 0.898981 0.0124581
7 1 0.261316 0.987801 0.0819423
485 1 0.171151 0.840141 0.0144895
488 1 0.166857 0.938149 0.0879579
492 1 0.331405 0.901003 0.0874919
558 1 0.245474 0.923838 0.164278
5 1 0.176711 0.998517 0.00259885
491 1 0.430951 0.852384 0.0666329
11 1 0.406422 0.990614 0.0852997
496 1 0.513082 0.923608 0.0725847
500 1 0.658533 0.922872 0.0640325
566 1 0.578667 0.912385 0.159584
89 1 0.662412 0.996771 0.158544
569 1 0.675177 0.845798 0.161156
499 1 0.761636 0.837685 0.0817963
570 1 0.750297 0.919797 0.147158
501 1 0.846002 0.834824 0.0136342
504 1 0.840672 0.918543 0.0773014
484 1 0.993257 0.91173 0.0721739
23 1 0.922606 0.993077 0.0822142
21 1 0.839272 0.998356 0.0022024
506 1 0.0628854 0.58999 0.171256
507 1 0.0823491 0.504097 0.253312
533 1 0.177785 0.654281 0.169365
512 1 0.168027 0.580578 0.26166
516 1 0.318299 0.582507 0.231089
582 1 0.250252 0.577143 0.330423
514 1 0.414835 0.591752 0.183379
541 1 0.488381 0.662373 0.17154
515 1 0.41039 0.504834 0.260639
517 1 0.504101 0.514665 0.170157
520 1 0.50291 0.593144 0.253502
590 1 0.584411 0.587857 0.325315
524 1 0.664098 0.588603 0.244514
519 1 0.581897 0.500522 0.250842
593 1 0.665459 0.505291 0.331607
522 1 0.754472 0.577064 0.171345
528 1 0.821589 0.582693 0.247014
621 1 0.830391 0.663331 0.332964
594 1 0.756458 0.587686 0.329746
523 1 0.741104 0.50029 0.257298
505 1 0.985546 0.514293 0.17683
526 1 0.905349 0.588994 0.182152
508 1 0.998971 0.583771 0.256788
531 1 0.100496 0.667817 0.232332
601 1 0.011157 0.670738 0.321828
532 1 0.00279048 0.747281 0.256865
602 1 0.0821107 0.750973 0.331318
555 1 0.104686 0.829323 0.243795
535 1 0.25162 0.670106 0.261145
536 1 0.17585 0.745128 0.233675
606 1 0.25058 0.760864 0.327115
629 1 0.17156 0.833258 0.325859
565 1 0.491929 0.831629 0.167611
539 1 0.414864 0.672423 0.27126
540 1 0.341477 0.736617 0.24861
563 1 0.419066 0.827242 0.253309
545 1 0.657121 0.678876 0.170134
614 1 0.592948 0.754497 0.332361
544 1 0.509785 0.749372 0.235148
542 1 0.596698 0.768879 0.17594
543 1 0.580587 0.670458 0.251671
617 1 0.664405 0.681999 0.333135
549 1 0.828667 0.674379 0.173072
548 1 0.6696 0.778679 0.263054
547 1 0.73852 0.686158 0.256589
529 1 0.995874 0.667589 0.180274
552 1 0.834966 0.747831 0.256952
550 1 0.90726 0.756533 0.181235
551 1 0.907971 0.674073 0.253941
626 1 0.0867001 0.912306 0.313438
556 1 0.001834 0.908693 0.246546
560 1 0.172806 0.906056 0.244491
559 1 0.259472 0.835516 0.227074
630 1 0.244991 0.922292 0.327995
633 1 0.32422 0.844741 0.328347
83 1 0.413176 0.996487 0.262071
564 1 0.33542 0.917005 0.245092
562 1 0.429596 0.925035 0.176606
81 1 0.340622 0.992644 0.173683
568 1 0.501228 0.906399 0.243083
567 1 0.585744 0.851698 0.243429
572 1 0.662178 0.926102 0.25368
87 1 0.576519 0.995428 0.248834
165 1 0.828355 0.986161 0.320266
571 1 0.75006 0.851113 0.275239
573 1 0.836858 0.843357 0.180149
576 1 0.839035 0.920132 0.246466
574 1 0.935148 0.908395 0.170597
575 1 0.936002 0.836595 0.26479
578 1 0.0936943 0.589124 0.343654
603 1 0.0906483 0.666607 0.42041
580 1 0.00516671 0.589106 0.400447
649 1 0.00747887 0.522585 0.482266
583 1 0.25503 0.502558 0.414871
584 1 0.174824 0.578798 0.424882
607 1 0.257457 0.658927 0.440761
581 1 0.168115 0.501319 0.340479
654 1 0.254514 0.558209 0.498754
587 1 0.427781 0.509274 0.420958
588 1 0.334024 0.577936 0.416965
586 1 0.408801 0.593324 0.337997
592 1 0.490056 0.596053 0.415815
658 1 0.413065 0.587456 0.489279
589 1 0.509126 0.511305 0.335294
689 1 0.653037 0.662469 0.497555
591 1 0.579586 0.521129 0.421191
596 1 0.666346 0.595018 0.393728
666 1 0.750651 0.588494 0.491742
693 1 0.829906 0.662216 0.494753
665 1 0.671505 0.512946 0.486697
595 1 0.754063 0.505007 0.402344
669 1 0.823956 0.509633 0.478364
600 1 0.837035 0.589236 0.418334
598 1 0.918593 0.579714 0.338103
599 1 0.914078 0.502584 0.409598
673 1 0.00450849 0.678107 0.497686
604 1 0.0180159 0.752064 0.414775
701 1 0.162145 0.832104 0.495932
697 1 0.00433943 0.83116 0.47279
631 1 0.26064 0.83223 0.419851
608 1 0.16836 0.763576 0.409422
605 1 0.170517 0.66822 0.337549
609 1 0.337284 0.672642 0.357344
610 1 0.409123 0.745638 0.347867
612 1 0.340599 0.756549 0.438091
635 1 0.418638 0.828651 0.424356
611 1 0.411871 0.674601 0.433118
686 1 0.599249 0.751813 0.499571
615 1 0.572319 0.668938 0.420787
613 1 0.506614 0.679491 0.334808
616 1 0.515079 0.757021 0.407711
619 1 0.755171 0.667627 0.417646
618 1 0.753928 0.750307 0.347392
645 1 0.8314 0.829909 0.333374
620 1 0.667857 0.747192 0.412732
690 1 0.751791 0.747187 0.489128
717 1 0.821673 0.830243 0.492976
694 1 0.92202 0.756484 0.487253
624 1 0.837954 0.759904 0.417465
622 1 0.922906 0.752225 0.34008
623 1 0.935705 0.667781 0.414313
147 1 0.0642621 0.987821 0.41948
698 1 0.0760512 0.916508 0.497832
632 1 0.152218 0.92554 0.407607
625 1 0.00407973 0.835691 0.339203
627 1 0.0869591 0.83821 0.408475
702 1 0.239099 0.923123 0.483344
637 1 0.489989 0.839439 0.339514
634 1 0.39818 0.920887 0.334225
640 1 0.485543 0.93127 0.412657
636 1 0.339078 0.918702 0.423107
639 1 0.579515 0.84393 0.41399
709 1 0.502548 0.839366 0.495668
638 1 0.570028 0.92203 0.338216
644 1 0.659954 0.925723 0.425099
643 1 0.748116 0.846339 0.41689
648 1 0.827051 0.929882 0.418776
641 1 0.666841 0.85513 0.348353
642 1 0.745985 0.928966 0.348451
714 1 0.741992 0.914947 0.495756
647 1 0.907085 0.840397 0.406572
646 1 0.919035 0.919654 0.333728
628 1 0.99333 0.922715 0.408563
718 1 0.907479 0.918161 0.499609
652 1 0.00107623 0.588496 0.58596
722 1 0.0768011 0.574031 0.659951
677 1 0.154965 0.665611 0.521312
650 1 0.0932357 0.586695 0.507387
656 1 0.170686 0.573118 0.57395
679 1 0.248617 0.648352 0.596469
660 1 0.334527 0.568483 0.584314
730 1 0.409304 0.579146 0.659093
664 1 0.483627 0.588695 0.570839
681 1 0.336481 0.652298 0.530194
733 1 0.495103 0.510118 0.65468
661 1 0.496972 0.505644 0.509135
662 1 0.56568 0.590623 0.507978
757 1 0.515881 0.656621 0.664388
734 1 0.58791 0.577642 0.642411
761 1 0.655605 0.657006 0.662777
668 1 0.670026 0.583856 0.572969
672 1 0.826139 0.580131 0.575579
738 1 0.751586 0.581379 0.659263
691 1 0.760939 0.663406 0.572927
667 1 0.731462 0.500235 0.56376
671 1 0.917728 0.505819 0.59488
745 1 0.992823 0.655783 0.663215
695 1 0.907568 0.657477 0.581537
670 1 0.913267 0.575083 0.501488
675 1 0.0742507 0.671708 0.593461
680 1 0.162535 0.758551 0.591923
674 1 0.0864049 0.757975 0.504346
684 1 0.328091 0.74802 0.610335
678 1 0.256101 0.748129 0.514558
683 1 0.415936 0.679453 0.602308
685 1 0.491186 0.687356 0.502154
682 1 0.404267 0.758177 0.521038
687 1 0.576643 0.69052 0.585036
688 1 0.510088 0.771971 0.584581
692 1 0.666262 0.751147 0.589425
696 1 0.824112 0.757405 0.571469
789 1 0.821614 0.822967 0.660323
676 1 0.999676 0.766996 0.581575
766 1 0.906466 0.740048 0.654138
699 1 0.0869724 0.839178 0.581377
704 1 0.165427 0.924098 0.575306
770 1 0.0795503 0.908284 0.663168
289 1 0.00796601 0.9863 0.663986
700 1 0.00634896 0.906683 0.57307
703 1 0.246298 0.844233 0.571608
706 1 0.415643 0.928134 0.502912
301 1 0.497479 0.988943 0.663602
708 1 0.334934 0.933339 0.597579
707 1 0.403422 0.844339 0.589923
705 1 0.334769 0.844731 0.511858
712 1 0.500236 0.918674 0.588963
711 1 0.599526 0.847816 0.580108
782 1 0.591769 0.926347 0.661965
713 1 0.663821 0.833949 0.502877
710 1 0.57593 0.917489 0.500185
237 1 0.830492 0.998091 0.501138
716 1 0.680082 0.933605 0.589065
715 1 0.75418 0.836755 0.584202
720 1 0.828224 0.915176 0.571735
719 1 0.910281 0.836327 0.565139
790 1 0.899924 0.906811 0.653849
239 1 0.928207 0.996979 0.584077
749 1 0.147882 0.653193 0.667193
794 1 0.0788906 0.57934 0.822661
747 1 0.0804269 0.66136 0.757864
728 1 0.176178 0.579836 0.761835
726 1 0.250191 0.577093 0.672078
751 1 0.24887 0.656903 0.749237
753 1 0.330357 0.646332 0.670653
727 1 0.255185 0.502778 0.746351
732 1 0.337081 0.577268 0.749056
736 1 0.497356 0.576144 0.73882
825 1 0.349461 0.661401 0.833125
755 1 0.434816 0.659404 0.743302
735 1 0.573298 0.500778 0.744877
740 1 0.658119 0.586892 0.760068
829 1 0.508465 0.666219 0.819433
765 1 0.828537 0.659916 0.671603
744 1 0.812239 0.567389 0.747363
742 1 0.90512 0.581415 0.666939
724 1 0.997826 0.581994 0.75379
746 1 0.0746788 0.738643 0.671907
771 1 0.0858588 0.814941 0.750157
750 1 0.235659 0.744541 0.669797
752 1 0.167 0.728154 0.758924
775 1 0.245864 0.826048 0.750269
822 1 0.254233 0.724155 0.830231
754 1 0.424615 0.756837 0.671157
756 1 0.343092 0.738102 0.741518
779 1 0.407068 0.826644 0.756301
853 1 0.496626 0.820101 0.831647
826 1 0.425305 0.740596 0.831554
758 1 0.593067 0.759424 0.666901
760 1 0.506721 0.759827 0.747466
759 1 0.582964 0.672293 0.750036
764 1 0.662576 0.76184 0.74315
833 1 0.655647 0.673733 0.829236
762 1 0.746207 0.747854 0.670573
763 1 0.749529 0.673443 0.7507
787 1 0.751224 0.825595 0.748778
769 1 0.989031 0.824604 0.678156
767 1 0.904674 0.668722 0.749681
748 1 0.995436 0.747205 0.756475
768 1 0.852955 0.758453 0.74864
773 1 0.155983 0.833372 0.670769
776 1 0.150314 0.924558 0.747508
772 1 0.0209167 0.924958 0.758434
369 1 0.331201 0.993459 0.825623
295 1 0.237006 0.992546 0.757501
777 1 0.323362 0.834373 0.677619
774 1 0.227934 0.903317 0.668873
780 1 0.328929 0.907131 0.748836
846 1 0.248025 0.898786 0.829541
297 1 0.317551 0.992321 0.681885
778 1 0.427907 0.902635 0.670158
299 1 0.41676 0.981835 0.738659
303 1 0.591783 0.989836 0.759821
783 1 0.5825 0.843435 0.775483
781 1 0.521014 0.840556 0.675585
784 1 0.515638 0.920055 0.74434
788 1 0.66449 0.913174 0.763181
373 1 0.503709 0.982881 0.830804
858 1 0.760035 0.917177 0.83144
785 1 0.675276 0.841411 0.668749
786 1 0.749047 0.917821 0.678142
792 1 0.827211 0.920342 0.745137
791 1 0.933617 0.850887 0.755932
311 1 0.914905 0.981883 0.748117
795 1 0.0857423 0.505067 0.901939
821 1 0.161599 0.654771 0.837844
819 1 0.0906282 0.665063 0.928811
434 1 0.086154 0.573381 0.98649
796 1 0.0130332 0.584014 0.912585
799 1 0.254082 0.503565 0.906906
798 1 0.260146 0.586335 0.836268
800 1 0.173503 0.588969 0.91779
438 1 0.265162 0.587818 0.994189
802 1 0.429951 0.588247 0.836761
804 1 0.344214 0.577171 0.911025
808 1 0.496417 0.605293 0.925199
803 1 0.422128 0.50832 0.915483
809 1 0.664017 0.507207 0.833414
806 1 0.582376 0.572398 0.844637
831 1 0.593493 0.654111 0.916567
810 1 0.740269 0.590394 0.836694
450 1 0.757745 0.576996 0.999644
811 1 0.752744 0.500025 0.914579
835 1 0.744331 0.663145 0.917624
812 1 0.674036 0.58441 0.921468
816 1 0.828272 0.577256 0.900533
815 1 0.917373 0.507539 0.923157
839 1 0.919042 0.652775 0.928713
814 1 0.917243 0.571107 0.837101
818 1 0.0816093 0.741475 0.837843
843 1 0.0875354 0.82692 0.932839
824 1 0.165192 0.745343 0.922201
823 1 0.266466 0.675802 0.929331
845 1 0.187873 0.809126 0.844439
849 1 0.327046 0.823363 0.835984
461 1 0.184396 0.666854 0.992939
466 1 0.41036 0.747426 0.999195
827 1 0.411642 0.671141 0.922162
828 1 0.336361 0.75158 0.91892
851 1 0.40836 0.823146 0.918995
489 1 0.337162 0.831909 0.994772
493 1 0.500189 0.82088 0.978833
832 1 0.511081 0.72885 0.915241
836 1 0.658104 0.747668 0.915783
855 1 0.589054 0.826883 0.9213
830 1 0.581717 0.752674 0.838006
837 1 0.830487 0.674302 0.84398
857 1 0.674072 0.819482 0.836184
840 1 0.832163 0.765605 0.929047
834 1 0.756076 0.738929 0.845287
817 1 0.996913 0.671497 0.847265
820 1 0.999135 0.738141 0.92474
841 1 0.994523 0.825062 0.843956
838 1 0.911715 0.740906 0.848859
478 1 0.925202 0.739199 0.99997
481 1 0.992031 0.816174 0.99507
365 1 0.15794 0.970027 0.836119
842 1 0.0894163 0.896231 0.838408
848 1 0.163634 0.917078 0.937458
844 1 0.00926071 0.912982 0.907399
1 1 0.00625045 0.988601 0.987965
367 1 0.254808 0.989761 0.91251
847 1 0.242991 0.834531 0.938666
9 1 0.32685 0.99731 0.997517
486 1 0.25974 0.915443 0.994885
371 1 0.408328 0.992435 0.903553
852 1 0.334891 0.91026 0.906162
850 1 0.426309 0.907985 0.837258
490 1 0.405171 0.91982 0.990215
494 1 0.588644 0.915641 0.98543
854 1 0.599377 0.912072 0.857294
856 1 0.508846 0.929579 0.922608
497 1 0.67473 0.836357 0.992212
860 1 0.68558 0.927438 0.915939
859 1 0.759624 0.836829 0.906273
498 1 0.767341 0.9099 0.996457
862 1 0.927019 0.925253 0.836163
864 1 0.840165 0.921381 0.907879
863 1 0.916164 0.834038 0.918033
861 1 0.852044 0.833604 0.835662
381 1 0.843216 0.994452 0.841727
502 1 0.918289 0.914606 0.988235
