ITEM: TIMESTEP
14000
ITEM: NUMBER OF ATOMS
864
ITEM: BOX BOUNDS pp pp pp
0.0000000000000000e+00 3.1559999999999999e+01
0.0000000000000000e+00 3.1559999999999999e+01
0.0000000000000000e+00 3.1559999999999999e+01
ITEM: ATOMS id type xs ys zs
27 1 0.0906097 0.146188 0.0734981
74 1 0.0832369 0.0898162 0.158981
101 1 0.167128 0.169092 0.160042
4 1 -0.0116042 0.0974392 0.0859313
451 1 0.752642 0.49413 0.0877901
38 1 0.575385 0.252342 0.000853623
8 1 0.164026 0.0633257 0.0671026
31 1 0.237117 0.177625 0.0723203
513 1 0.315167 0.496174 0.160052
105 1 0.34375 0.166818 0.175404
12 1 0.327502 0.0785764 0.0687853
82 1 0.397693 0.076076 0.164895
35 1 0.410956 0.167376 0.0915958
505 1 0.994586 0.49959 0.156979
455 1 0.905684 0.49059 0.0862434
16 1 0.488917 0.0805225 0.0919983
86 1 0.583001 0.0799287 0.171488
39 1 0.573923 0.154345 0.100721
109 1 0.487998 0.167786 0.177091
66 1 0.75043 0.414345 0.00261648
20 1 0.670853 0.0889131 0.0756683
91 1 0.761737 -0.007687 0.244588
24 1 0.837672 0.0781772 0.0771557
47 1 0.906979 0.165164 0.0667245
196 1 0.00380095 0.412961 0.406519
32 1 0.149944 0.250276 0.0838173
28 1 -0.00288617 0.243885 0.0725234
98 1 0.0755891 0.256722 0.164145
121 1 1.00561 0.341491 0.16819
73 1 1.01555 -0.00147597 0.16398
36 1 0.321433 0.254696 0.101347
125 1 0.159409 0.322745 0.175634
222 1 0.248642 0.0794237 0.506209
589 1 0.482916 0.50565 0.316303
59 1 0.404781 0.334551 0.0919812
106 1 0.423829 0.25125 0.167367
163 1 0.747098 0.00493019 0.424139
40 1 0.511239 0.259625 0.0964025
43 1 0.765192 0.166281 0.0823932
44 1 0.663725 0.244366 0.0931182
48 1 0.834775 0.251736 0.0683795
113 1 0.667983 0.174956 0.167584
447 1 0.582408 0.491084 0.0813077
117 1 0.833992 0.168835 0.174973
118 1 0.926596 0.239081 0.163978
19 1 0.761861 0.00521524 0.0798211
51 1 0.0696425 0.33449 0.0751607
52 1 0.988291 0.421289 0.0758074
33 1 0.312071 0.163331 -0.00530898
61 1 0.503862 0.326065 -0.00122768
56 1 0.15508 0.418965 0.07617
55 1 0.227424 0.330694 0.0790913
60 1 0.310077 0.410742 0.0800111
250 1 0.387119 0.241896 0.48257
147 1 0.0783719 0.00232625 0.434957
64 1 0.504608 0.392738 0.0821354
130 1 0.405492 0.408529 0.167558
11 1 0.403249 0.00465504 0.0843962
63 1 0.604826 0.338782 0.092951
68 1 0.674291 0.415288 0.0913152
133 1 0.512132 0.32158 0.177512
65 1 0.6621 0.314833 0.00253139
141 1 0.834451 0.315415 0.178907
273 1 0.34567 0.341512 0.48715
67 1 0.739032 0.320381 0.0823883
138 1 0.750713 0.412945 0.168513
23 1 0.926566 0.0121854 0.100613
72 1 0.817499 0.397352 0.0770858
71 1 0.912543 0.325389 0.0881505
93 1 0.829774 0.00678717 0.159258
75 1 0.0860253 0.00366839 0.250918
80 1 0.167781 0.0888265 0.24288
76 1 0.992944 0.0714892 0.24971
173 1 0.172699 0.168063 0.335642
453 1 0.820464 0.494529 0.00790153
78 1 0.253631 0.0874916 0.165926
274 1 0.411577 0.416034 0.502431
237 1 0.844149 0.0139121 0.504856
84 1 0.34006 0.0769816 0.258108
107 1 0.420631 0.156082 0.274672
154 1 0.418743 0.0623669 0.342523
89 1 0.683229 0.0171267 0.163967
88 1 0.499897 0.0731485 0.251763
158 1 0.589541 0.073326 0.333214
92 1 0.676244 0.0835701 0.243889
7 1 0.255085 0.00725227 0.0824033
54 1 0.23284 0.42821 -0.00749614
90 1 0.761106 0.092224 0.16282
210 1 0.737255 0.414952 0.330729
115 1 0.756823 0.150287 0.261103
94 1 0.912465 0.108011 0.162504
97 1 0.0132321 0.173245 0.167353
96 1 0.83896 0.0853749 0.255348
166 1 0.92252 0.0889033 0.327855
119 1 0.92474 0.167604 0.248849
188 1 0.672037 0.247364 0.415484
99 1 0.0773706 0.155554 0.258279
104 1 0.143761 0.238286 0.240624
100 1 0.00853243 0.250348 0.262507
123 1 0.082002 0.338849 0.258521
193 1 1.00569 0.322326 0.329507
170 1 0.087164 0.253832 0.341092
102 1 0.23957 0.261388 0.175313
103 1 0.257153 0.163908 0.245397
177 1 0.327923 0.155613 0.325168
127 1 0.247227 0.335884 0.251824
174 1 0.233264 0.248 0.307226
129 1 0.325078 0.3401 0.169595
108 1 0.329725 0.260377 0.254151
112 1 0.501609 0.238806 0.274638
131 1 0.430315 0.325041 0.251613
178 1 0.415096 0.244024 0.338108
111 1 0.579738 0.156853 0.261618
181 1 0.502008 0.15176 0.342543
110 1 0.579311 0.242552 0.183161
182 1 0.583741 0.241884 0.352343
135 1 0.573078 0.315896 0.260041
114 1 0.753167 0.24163 0.177117
116 1 0.676247 0.235967 0.257237
186 1 0.768794 0.241073 0.35059
185 1 0.669912 0.17032 0.33552
189 1 0.83595 0.16562 0.335403
190 1 0.922644 0.251487 0.336457
120 1 0.832152 0.232544 0.253996
143 1 0.930397 0.337642 0.25333
211 1 0.746962 0.340967 0.419322
122 1 0.0937149 0.412784 0.171862
216 1 0.821167 0.423616 0.408074
183 1 0.584464 0.151459 0.405514
128 1 0.15456 0.420211 0.259036
126 1 0.23057 0.40823 0.159231
198 1 0.256545 0.417536 0.335383
200 1 0.181724 0.420859 0.405704
207 1 0.600711 0.331484 0.418821
132 1 0.328051 0.405967 0.250272
136 1 0.499791 0.412188 0.245183
202 1 0.421282 0.415821 0.330329
209 1 0.67377 0.315207 0.329185
205 1 0.515747 0.323434 0.3503
134 1 0.589622 0.412956 0.169339
206 1 0.576167 0.404234 0.324947
137 1 0.673495 0.325917 0.174827
140 1 0.665195 0.408113 0.250658
139 1 0.751242 0.326684 0.24542
144 1 0.830183 0.408955 0.243138
215 1 0.91511 0.339546 0.405794
145 1 0.00254073 -0.00663883 0.341261
142 1 0.905941 0.414339 0.164947
124 1 0.99507 0.426525 0.246632
214 1 0.923 0.4157 0.33199
203 1 0.414873 0.338951 0.410568
146 1 0.0895868 0.0869919 0.340627
169 1 1.00226 0.157811 0.328695
148 1 0.000344928 0.0851567 0.409227
171 1 0.0941028 0.162828 0.422892
649 1 0.00175539 0.498196 0.494923
152 1 0.174054 0.0683684 0.416486
150 1 0.252406 0.0749657 0.327173
187 1 0.7498 0.158649 0.414886
179 1 0.400293 0.161918 0.426346
156 1 0.324329 0.0826247 0.418722
160 1 0.49471 0.0700404 0.417494
164 1 0.670229 0.089024 0.420089
192 1 0.848067 0.256684 0.421632
172 1 1.00321 0.242266 0.410744
162 1 0.756051 0.0758744 0.334885
204 1 0.340894 0.419927 0.412691
213 1 0.840912 0.32358 0.334734
168 1 0.833616 0.0893746 0.414349
191 1 0.921777 0.167304 0.41326
208 1 0.496134 0.429969 0.410674
195 1 0.0978214 0.348892 0.41841
194 1 0.0874604 0.407516 0.342207
176 1 0.172749 0.251203 0.416259
197 1 0.170424 0.335877 0.32745
212 1 0.671604 0.431053 0.411453
180 1 0.31967 0.236608 0.395571
199 1 0.251849 0.331715 0.40373
175 1 0.247879 0.165248 0.421168
201 1 0.337303 0.328307 0.331215
184 1 0.502362 0.224282 0.420395
58 1 0.419621 0.397946 0.0130922
661 1 0.499442 0.503379 0.501058
439 1 0.230803 0.498664 0.0947197
9 1 0.328704 -0.00158103 -0.0201266
34 1 0.402611 0.237959 0.00615974
591 1 0.580627 0.49514 0.395578
254 1 0.582379 0.254368 0.501989
519 1 0.569745 0.493462 0.243492
258 1 0.762604 0.250468 0.481562
515 1 0.400772 0.494822 0.238872
85 1 0.51086 -0.00277223 0.167978
15 1 0.576588 0.00949114 0.0829737
278 1 0.589763 0.419183 0.48887
234 1 0.745667 0.0919692 0.503216
281 1 0.674941 0.339144 0.500112
77 1 0.155743 0.0135368 0.167395
577 1 0.00236607 0.50044 0.332099
669 1 0.830907 0.51401 0.480946
266 1 0.0756117 0.415222 0.498563
277 1 0.480164 0.296313 0.490394
30 1 0.248695 0.26334 0.00444806
270 1 0.268361 0.418257 0.481614
246 1 0.2788 0.246809 0.486561
286 1 0.930475 0.407236 0.488821
57 1 0.345804 0.318211 0.00762786
37 1 0.4988 0.160781 0.0145427
230 1 0.582632 0.0878407 0.498022
22 1 0.918281 0.0781543 0.00377051
41 1 0.65463 0.170146 0.0104007
269 1 0.187078 0.33936 0.486117
49 1 0.984888 0.339115 -0.00823023
226 1 0.410532 0.0819196 0.498093
242 1 0.0961614 0.238598 0.494597
70 1 0.900103 0.414441 0.0020165
282 1 0.761229 0.418102 0.50332
224 1 0.167438 0.0991403 0.59802
220 1 1.00067 0.0909761 0.585937
228 1 0.34489 0.0909377 0.611617
307 1 0.761129 0.00542688 0.76144
251 1 0.413598 0.179665 0.591021
298 1 0.425899 0.07228 0.681937
232 1 0.489404 0.0824968 0.581874
221 1 0.166984 0.00869394 0.527736
377 1 0.66494 0.0150305 0.842783
375 1 0.574884 0.00555578 0.919932
236 1 0.665601 0.0783171 0.585009
255 1 0.578882 0.175076 0.590134
725 1 0.173465 0.494534 0.650418
240 1 0.845863 0.0961231 0.587359
815 1 0.912313 0.496564 0.912173
811 1 0.739954 0.507416 0.905945
13 1 0.493894 0.00695983 1.00665
733 1 0.508725 0.491341 0.654819
737 1 0.671864 0.49472 0.669172
805 1 0.494972 0.503831 0.828467
26 1 0.0629711 0.259397 0.978126
25 1 -0.0106674 0.166574 0.987757
243 1 0.0894367 0.165708 0.578713
314 1 0.0858242 0.251168 0.656525
248 1 0.176449 0.24002 0.568749
247 1 0.257939 0.162859 0.598025
271 1 0.253885 0.337049 0.564093
667 1 0.746036 0.50653 0.572465
252 1 0.331396 0.252839 0.582675
275 1 0.417231 0.332477 0.58471
322 1 0.42331 0.252743 0.678058
741 1 0.832488 0.488212 0.656577
256 1 0.503005 0.255515 0.587104
279 1 0.598129 0.332143 0.573865
50 1 0.0737798 0.414139 0.993856
259 1 0.754341 0.181441 0.566284
260 1 0.683852 0.260512 0.589318
330 1 0.747078 0.26677 0.689643
263 1 0.930878 0.181084 0.591003
244 1 0.0106486 0.242999 0.572966
264 1 0.841215 0.255736 0.577565
334 1 0.915907 0.254521 0.679674
287 1 0.923964 0.331698 0.584079
1 1 1.00073 -0.00474682 0.993447
267 1 0.0919808 0.329285 0.567315
361 1 1.00549 -0.00922538 0.821803
14 1 0.591019 0.0875463 1.00742
272 1 0.173354 0.415206 0.563454
265 1 0.015307 0.326256 0.485109
345 1 0.344528 0.34006 0.660132
795 1 0.072596 0.515026 0.917292
276 1 0.330937 0.419007 0.593125
349 1 0.507898 0.33278 0.663344
651 1 0.0984831 0.492156 0.580641
346 1 0.427012 0.406512 0.669886
727 1 0.262238 0.497364 0.745782
280 1 0.500668 0.398142 0.569436
284 1 0.668783 0.419677 0.576533
350 1 0.591187 0.424105 0.671601
739 1 0.761841 0.482455 0.75273
283 1 0.760895 0.341046 0.581243
430 1 0.909351 0.42373 0.820223
432 1 0.819662 0.413677 0.92385
10 1 0.418324 0.085184 0.998852
268 1 -0.00823193 0.412215 0.575796
288 1 0.830062 0.420846 0.58095
429 1 0.8228 0.343471 0.82345
290 1 0.0899978 0.103051 0.669654
296 1 0.166643 0.104222 0.761496
362 1 0.07842 0.0740492 0.834849
373 1 0.495089 -0.00304231 0.837539
42 1 0.74213 0.245076 0.992461
408 1 0.829211 0.260256 0.902102
425 1 0.65627 0.318507 0.841728
294 1 0.254049 0.0813936 0.670251
427 1 0.744365 0.330124 0.914638
300 1 0.333019 0.0860222 0.754968
793 1 0.00464815 0.491306 0.828472
304 1 0.499863 0.0908271 0.756957
803 1 0.399251 0.497927 0.933086
329 1 0.659266 0.167776 0.664593
390 1 0.256404 0.256439 0.840344
403 1 0.744096 0.180464 0.917555
302 1 0.56865 0.0796011 0.65597
308 1 0.656566 0.0841268 0.739454
306 1 0.750466 0.0819226 0.651294
312 1 0.817774 0.0890868 0.747199
405 1 0.836241 0.166603 0.829196
310 1 0.902086 0.0714769 0.681557
416 1 0.156309 0.431536 0.906944
292 1 1.0084 0.0902614 0.759588
385 1 0.977882 0.16923 0.832293
419 1 0.424513 0.319264 0.924336
317 1 0.171313 0.166922 0.680013
315 1 0.0752433 0.168433 0.766459
386 1 0.0998048 0.263313 0.834952
341 1 0.171029 0.320861 0.661741
320 1 0.180699 0.246083 0.762236
339 1 0.0885414 0.321973 0.747267
337 1 0.00366884 0.334569 0.66685
413 1 0.168239 0.338018 0.824644
318 1 0.248523 0.247121 0.670765
321 1 0.339474 0.183433 0.684381
319 1 0.251851 0.162519 0.754197
343 1 0.248742 0.335604 0.74714
389 1 0.157105 0.174753 0.846871
323 1 0.427126 0.168911 0.7483
325 1 0.497027 0.184956 0.657736
397 1 0.483733 0.171454 0.838832
324 1 0.335961 0.254465 0.757191
328 1 0.497005 0.250953 0.761279
394 1 0.415735 0.257184 0.837953
327 1 0.579703 0.170582 0.73858
326 1 0.573978 0.25498 0.67836
351 1 0.591497 0.333992 0.755138
332 1 0.661395 0.252866 0.751855
331 1 0.743269 0.165666 0.746857
336 1 0.830843 0.252525 0.759851
401 1 0.660326 0.170998 0.8366
333 1 0.808996 0.184694 0.668005
313 1 0.00295094 0.192789 0.662868
316 1 1.00752 0.26235 0.763065
335 1 0.908211 0.162329 0.738412
359 1 0.920484 0.34568 0.746444
338 1 0.101676 0.400836 0.654362
410 1 0.0899216 0.429049 0.81337
340 1 0.00645789 0.410833 0.742172
420 1 0.352537 0.395608 0.934376
342 1 0.251359 0.404275 0.667811
344 1 0.17398 0.423574 0.740032
421 1 0.497415 0.343198 0.835458
347 1 0.417328 0.335338 0.751
348 1 0.33463 0.420397 0.745623
418 1 0.42054 0.414298 0.844356
399 1 0.578196 0.167941 0.923998
414 1 0.244461 0.408716 0.828334
353 1 0.678455 0.342904 0.659872
352 1 0.500807 0.42131 0.759601
422 1 0.581008 0.424823 0.845445
398 1 0.573872 0.236351 0.846113
354 1 0.751641 0.419335 0.65102
357 1 0.836511 0.336057 0.663534
356 1 0.657128 0.419859 0.769747
426 1 0.732877 0.419736 0.845386
355 1 0.740345 0.361475 0.750125
358 1 0.915778 0.407779 0.657297
400 1 0.484276 0.233438 0.934457
360 1 0.839414 0.416821 0.747039
424 1 0.506429 0.423015 0.911952
387 1 0.0615526 0.169431 0.894647
368 1 0.170174 0.0868564 0.902803
412 1 0.979634 0.42093 0.908701
395 1 0.400437 0.171424 0.927695
721 1 0.0224973 0.506542 0.655701
366 1 0.253161 0.0857963 0.834125
372 1 0.322904 0.0898215 0.916492
393 1 0.335078 0.170872 0.835202
391 1 0.252884 0.187406 0.913291
2 1 0.0687932 0.0924118 0.985416
379 1 0.744888 0.00102706 0.911457
396 1 0.324964 0.258157 0.923947
370 1 0.407176 0.0989327 0.827754
376 1 0.49203 0.0814232 0.913595
428 1 0.673377 0.41547 0.932442
406 1 0.913069 0.248977 0.824465
374 1 0.57724 0.0853282 0.834794
813 1 0.81301 0.484677 0.838935
388 1 0.997234 0.256699 0.893389
431 1 0.905223 0.347014 0.905334
378 1 0.737365 0.0941422 0.834972
380 1 0.670557 0.0944973 0.93235
384 1 0.821572 0.103162 0.912638
417 1 0.325529 0.336974 0.82453
423 1 0.568164 0.331599 0.911733
382 1 0.907487 0.0830295 0.824175
364 1 1.00147 0.0676943 0.903708
407 1 0.911836 0.162674 0.914519
415 1 0.245325 0.337256 0.91428
411 1 0.0808219 0.346559 0.896311
409 1 0.989218 0.351734 0.831548
392 1 0.17215 0.255556 0.920541
402 1 0.745859 0.258103 0.815277
404 1 0.661758 0.244557 0.91668
363 1 0.0807219 -0.0104293 0.921489
663 1 0.588512 0.499102 0.587749
799 1 0.249945 0.494654 0.917907
723 1 0.102825 0.502312 0.740127
223 1 0.265858 0.0122143 0.582316
21 1 0.84151 0.0115003 0.993967
371 1 0.417034 0.00704919 0.914697
261 1 0.838531 0.16796 0.483467
309 1 0.832495 -0.00918718 0.648023
245 1 0.179046 0.163052 0.502436
238 1 0.927855 0.0876038 0.493196
291 1 0.0870129 0.00639552 0.745205
253 1 0.490447 0.161799 0.516615
69 1 0.824651 0.324929 0.994037
46 1 0.922365 0.260549 0.985988
241 1 0.00627673 0.161694 0.483113
262 1 0.918389 0.253948 0.503623
257 1 0.667855 0.178424 0.503874
285 1 0.834876 0.335831 0.484073
18 1 0.75305 0.0919198 0.996088
62 1 0.592721 0.401099 1.006
249 1 0.337141 0.159723 0.521698
45 1 0.835081 0.173296 0.990109
218 1 0.0965508 0.0814476 0.504564
6 1 0.236794 0.0892734 0.993403
29 1 0.159167 0.171167 0.985707
17 1 0.684422 0.00205761 1.00701
53 1 0.147014 0.335324 0.977668
657 1 0.334418 0.507291 0.488547
459 1 0.0886302 0.663275 0.0984141
647 1 0.914544 0.83689 0.424651
533 1 0.162096 0.660266 0.177655
599 1 0.921412 0.523013 0.408093
440 1 0.169742 0.586452 0.0833132
510 1 0.246721 0.594756 0.165521
537 1 0.32969 0.675129 0.168535
628 1 -0.00664166 0.920038 0.420118
444 1 0.320235 0.592567 0.0837664
517 1 0.493885 0.492118 0.163186
167 1 0.928303 1.01419 0.425789
448 1 0.498187 0.596174 0.0886165
471 1 0.577426 0.66739 0.0755657
95 1 0.915181 0.996575 0.244432
497 1 0.656593 0.825683 -0.00687172
452 1 0.673861 0.572907 0.0853851
642 1 0.77254 0.906633 0.338467
436 1 1.00131 0.588552 0.0953073
456 1 0.823651 0.572882 0.0860245
526 1 0.910837 0.588539 0.16451
654 1 0.256331 0.581639 0.4843
435 1 0.0827653 0.491954 0.0934473
460 1 0.00450915 0.752437 0.0983162
530 1 0.0833699 0.757151 0.180196
443 1 0.409673 0.506507 0.0944099
87 1 0.595111 1.00184 0.249174
463 1 0.246797 0.678497 0.0820007
464 1 0.158654 0.737003 0.0877082
467 1 0.412164 0.672627 0.0870233
468 1 0.348254 0.747769 0.0860267
538 1 0.414211 0.739012 0.171058
446 1 0.593786 0.581723 0.00403935
165 1 0.840958 1.00332 0.355496
493 1 0.502354 0.836856 -0.000361488
472 1 0.492862 0.763812 0.0841425
495 1 0.577978 0.843432 0.0783265
541 1 0.484803 0.662645 0.181754
475 1 0.756912 0.670383 0.0858255
476 1 0.664376 0.772136 0.0935835
480 1 0.845215 0.754014 0.0723947
437 1 0.152467 0.510482 0.00256382
569 1 0.669476 0.85482 0.164354
549 1 0.837486 0.659789 0.169608
529 1 0.0120055 0.680884 0.166393
479 1 0.914508 0.665897 0.0806155
503 1 0.927577 0.834746 0.0925132
523 1 0.747101 0.502843 0.245614
483 1 0.0799961 0.831065 0.0780076
488 1 0.166866 0.933042 0.0761471
553 1 1.00637 0.831803 0.176605
161 1 0.682417 0.999257 0.345243
487 1 0.248638 0.821065 0.0847781
557 1 0.163952 0.838482 0.146759
558 1 0.252585 0.915104 0.161793
3 1 0.0638982 1.00332 0.0829646
641 1 0.668862 0.838002 0.324935
507 1 0.0777961 0.494019 0.257051
491 1 0.423149 0.84861 0.0777446
593 1 0.67172 0.498706 0.322734
492 1 0.329152 0.931723 0.0756001
562 1 0.414522 0.925122 0.159607
496 1 0.498917 0.924963 0.0768365
500 1 0.676389 0.919576 0.0776752
665 1 0.654935 0.512109 0.484769
499 1 0.76532 0.839074 0.0804212
648 1 0.846816 0.927422 0.431341
643 1 0.745496 0.837736 0.421282
484 1 -0.0179931 0.929437 0.0813609
504 1 0.831827 0.923895 0.0607955
640 1 0.500212 0.917119 0.427716
506 1 0.0917561 0.575428 0.175388
605 1 0.163076 0.666686 0.325855
512 1 0.162064 0.588917 0.252849
535 1 0.240553 0.67689 0.248047
582 1 0.253559 0.600432 0.324617
514 1 0.407799 0.584842 0.167817
662 1 0.583241 0.589896 0.487129
516 1 0.326983 0.586618 0.243015
520 1 0.493076 0.5753 0.243511
79 1 0.247987 0.997674 0.233539
518 1 0.577778 0.584818 0.16495
159 1 0.577194 0.993133 0.41779
543 1 0.578845 0.679756 0.248955
524 1 0.665464 0.582542 0.228037
522 1 0.741221 0.58739 0.166776
595 1 0.74537 0.506836 0.406338
545 1 0.666338 0.677976 0.140852
547 1 0.74987 0.68638 0.251769
528 1 0.836942 0.568163 0.243051
644 1 0.666827 0.909435 0.413732
508 1 1.00394 0.576134 0.233232
598 1 0.946127 0.578581 0.313663
674 1 0.0785081 0.74744 0.499791
531 1 0.0660968 0.655468 0.254934
555 1 0.0823307 0.848138 0.2615
602 1 0.0803923 0.741399 0.319073
534 1 0.245082 0.757596 0.169837
536 1 0.16409 0.775489 0.236597
559 1 0.25439 0.834821 0.240369
539 1 0.415343 0.677099 0.261934
540 1 0.326995 0.755368 0.24713
563 1 0.404056 0.850105 0.249462
561 1 0.332836 0.832649 0.159085
542 1 0.586231 0.747939 0.155489
544 1 0.502653 0.756336 0.265849
548 1 0.661783 0.744946 0.237475
546 1 0.759643 0.759906 0.157337
552 1 0.841888 0.747469 0.246794
550 1 0.91892 0.758414 0.17462
532 1 0.994086 0.753231 0.251082
551 1 0.919518 0.658299 0.24827
621 1 0.852629 0.671091 0.325888
625 1 0.000526817 0.839154 0.341737
554 1 0.0889404 0.921842 0.164265
626 1 0.0819171 0.914327 0.347117
441 1 0.326825 0.490514 0.0149117
560 1 0.171055 0.906161 0.247477
633 1 0.331072 0.823426 0.332478
635 1 0.413169 0.828816 0.405539
564 1 0.330698 0.922524 0.249054
634 1 0.413732 0.927554 0.334843
565 1 0.494777 0.828396 0.165136
566 1 0.588585 0.930442 0.154686
568 1 0.489487 0.912903 0.240792
567 1 0.589847 0.826368 0.253738
638 1 0.590913 0.917691 0.308217
645 1 0.839097 0.829415 0.353931
570 1 0.749537 0.927864 0.158189
571 1 0.75113 0.840706 0.234958
572 1 0.67292 0.915835 0.251351
449 1 0.661845 0.494038 0.00425023
646 1 0.918752 0.915423 0.342439
573 1 0.834339 0.832342 0.16848
575 1 0.925744 0.838173 0.255943
556 1 -0.00125786 0.922882 0.263898
574 1 0.89838 0.920988 0.151505
576 1 0.838588 0.907077 0.25268
601 1 1.0083 0.660509 0.352211
578 1 0.0784178 0.579357 0.33437
584 1 0.17205 0.585434 0.414048
81 1 0.325896 0.995592 0.160878
509 1 0.163312 0.508932 0.174825
581 1 0.173495 0.509838 0.323191
609 1 0.320215 0.691364 0.33527
588 1 0.338695 0.574593 0.407184
607 1 0.228704 0.684129 0.410288
632 1 0.159171 0.921723 0.442359
525 1 0.827192 0.486631 0.159467
586 1 0.405307 0.589972 0.315908
592 1 0.51332 0.579884 0.407589
579 1 0.0898133 0.500606 0.406906
590 1 0.585376 0.581562 0.326423
630 1 0.242175 0.909705 0.330939
636 1 0.343084 0.905599 0.413169
594 1 0.767647 0.588445 0.319786
596 1 0.662539 0.580841 0.390478
580 1 0.00783138 0.591567 0.435272
623 1 0.922477 0.679144 0.424475
600 1 0.840965 0.585507 0.406202
627 1 0.0714091 0.84188 0.433293
603 1 0.102681 0.65928 0.423575
631 1 0.244429 0.852421 0.425929
608 1 0.163726 0.770003 0.425154
606 1 0.24281 0.768373 0.343528
612 1 0.324682 0.765325 0.428294
629 1 0.155645 0.833846 0.334398
473 1 0.670413 0.673297 0.0194788
613 1 0.494962 0.656391 0.324715
637 1 0.496177 0.833271 0.339967
611 1 0.416509 0.663827 0.408436
610 1 0.419043 0.749552 0.338152
615 1 0.596141 0.66297 0.404652
616 1 0.500543 0.745709 0.402182
614 1 0.597875 0.749672 0.337033
639 1 0.576831 0.829667 0.409555
462 1 0.256122 0.753511 0.00848562
618 1 0.761376 0.749887 0.336707
617 1 0.67004 0.670645 0.321437
619 1 0.75491 0.656311 0.417951
620 1 0.663781 0.758034 0.409404
624 1 0.829703 0.747888 0.436259
622 1 0.91866 0.753608 0.334308
604 1 0.00666213 0.749691 0.421137
527 1 0.917086 0.493343 0.23825
597 1 0.834788 0.489437 0.333222
511 1 0.263153 0.496138 0.24855
83 1 0.413379 1.00528 0.248365
583 1 0.252811 0.510719 0.394842
587 1 0.419996 0.504988 0.411527
157 1 0.507947 0.997338 0.326976
153 1 0.324849 0.993508 0.346526
585 1 0.335856 0.49466 0.323475
521 1 0.662628 0.498717 0.165199
149 1 0.170635 0.998437 0.329152
717 1 0.814205 0.830714 0.519227
155 1 0.413693 0.987724 0.423098
151 1 0.247869 0.98453 0.415103
478 1 0.912748 0.754176 0.0039157
686 1 0.587602 0.737217 0.478712
485 1 0.176587 0.8236 0.0124058
445 1 0.496538 0.497398 0.00577146
653 1 0.186309 0.493662 0.487647
466 1 0.404979 0.759859 0.00167972
685 1 0.495511 0.664996 0.491018
677 1 0.184377 0.666166 0.502582
694 1 0.910311 0.755489 0.503416
433 1 -0.0154044 0.492362 -0.00485694
233 1 0.657186 1.00684 0.493416
714 1 0.741978 0.91197 0.496842
501 1 0.837933 0.832311 -0.00345569
650 1 0.115099 0.570262 0.507345
470 1 0.579098 0.745696 0.00465284
438 1 0.254437 0.576948 0.00792206
454 1 0.914769 0.581594 0.00822838
434 1 0.0757337 0.5856 0.0117452
682 1 0.425994 0.740894 0.500285
697 1 -0.00833318 0.8311 0.49853
681 1 0.333687 0.660411 0.49927
656 1 0.1866 0.581827 0.576833
652 1 0.00773234 0.581053 0.577805
675 1 0.0953232 0.652284 0.573173
749 1 0.179535 0.662096 0.665055
679 1 0.255265 0.681087 0.589964
726 1 0.251289 0.578993 0.662869
660 1 0.317861 0.590778 0.578138
383 1 0.914581 1.00677 0.912438
730 1 0.429251 0.572224 0.659227
5 1 0.165901 1.00651 0.983915
729 1 0.337805 0.498861 0.664872
664 1 0.514039 0.582724 0.575294
734 1 0.575629 0.578078 0.667494
311 1 0.912947 0.998668 0.756014
659 1 0.420518 0.50879 0.573452
299 1 0.418637 0.99904 0.758866
668 1 0.657029 0.578276 0.576103
672 1 0.827784 0.572918 0.586363
765 1 0.811753 0.665418 0.683983
365 1 0.155329 0.997863 0.82359
289 1 -0.00124216 1.01857 0.678183
742 1 0.936074 0.577651 0.665455
305 1 0.672424 1.0013 0.6755
293 1 0.165471 1.00445 0.665239
676 1 0.987643 0.741347 0.602201
680 1 0.175201 0.750927 0.58728
303 1 0.587759 1.01046 0.75621
750 1 0.264707 0.751116 0.677852
684 1 0.33144 0.7508 0.589271
731 1 0.420031 0.488574 0.740983
683 1 0.414652 0.660624 0.581343
754 1 0.40725 0.744007 0.672565
688 1 0.505875 0.737018 0.581936
458 1 0.0884374 0.736984 0.997341
687 1 0.583663 0.670937 0.588733
692 1 0.667662 0.741781 0.57741
758 1 0.585974 0.747704 0.687137
761 1 0.675692 0.658233 0.653204
691 1 0.755425 0.663169 0.578317
502 1 0.917937 0.92222 0.991322
696 1 0.822481 0.748521 0.595512
695 1 0.917271 0.666731 0.594773
699 1 0.0777023 0.82014 0.57766
773 1 0.159112 0.835428 0.669257
704 1 0.164314 0.918117 0.585858
862 1 0.921998 0.90594 0.819681
457 1 0.995892 0.675914 0.998757
231 1 0.576539 1.01429 0.582869
297 1 0.339824 0.997118 0.675966
703 1 0.245644 0.845104 0.60108
774 1 0.248856 0.930136 0.669406
708 1 0.355303 0.918551 0.596189
777 1 0.337697 0.839319 0.669324
489 1 0.336018 0.842416 1.00324
707 1 0.436703 0.817359 0.578038
781 1 0.501944 0.810595 0.677549
701 1 0.157417 0.83302 0.511438
711 1 0.58924 0.822312 0.582889
712 1 0.518711 0.899157 0.593363
217 1 1.00418 1.0081 0.515194
716 1 0.659403 0.933274 0.57894
715 1 0.726843 0.84396 0.591481
720 1 0.819817 0.923104 0.577896
698 1 0.0801386 0.915323 0.520091
743 1 0.927144 0.493956 0.734745
719 1 0.914039 0.825752 0.589659
700 1 -0.00153028 0.904165 0.590246
853 1 0.494781 0.807636 0.848599
301 1 0.514943 0.994256 0.675231
722 1 0.0910968 0.574051 0.651299
745 1 0.00537857 0.657171 0.662403
794 1 0.0855276 0.572969 0.835795
724 1 0.0124961 0.573143 0.748427
747 1 0.0764178 0.663411 0.768319
817 1 0.00506579 0.637099 0.8455
728 1 0.170406 0.596743 0.739257
753 1 0.337374 0.662211 0.663846
751 1 0.263369 0.67511 0.746734
732 1 0.335257 0.582367 0.742764
802 1 0.401849 0.575408 0.822005
755 1 0.418178 0.66264 0.752388
847 1 0.250057 0.848259 0.911883
369 1 0.334705 1.01024 0.822326
736 1 0.496608 0.587013 0.753753
740 1 0.669444 0.563327 0.742738
738 1 0.749152 0.575656 0.661831
744 1 0.832452 0.571795 0.749619
833 1 0.665097 0.666904 0.842731
763 1 0.7276 0.652653 0.751377
810 1 0.745417 0.577889 0.829196
859 1 0.755031 0.836171 0.913573
767 1 0.922272 0.670214 0.762271
837 1 0.829698 0.651793 0.825556
746 1 0.0872159 0.732187 0.661365
818 1 0.0984812 0.749594 0.852578
752 1 0.174658 0.748821 0.766055
756 1 0.331986 0.760989 0.753947
775 1 0.253442 0.83585 0.74683
825 1 0.330566 0.661723 0.824868
826 1 0.412188 0.737474 0.827839
757 1 0.497562 0.669235 0.668112
760 1 0.506472 0.730174 0.757615
779 1 0.424351 0.822552 0.759243
829 1 0.498699 0.666612 0.847084
759 1 0.593367 0.657304 0.758841
764 1 0.672302 0.744493 0.759406
762 1 0.728874 0.747681 0.672535
834 1 0.743229 0.744021 0.824648
787 1 0.748167 0.833947 0.760714
766 1 0.895248 0.742273 0.670217
748 1 0.991077 0.759179 0.74683
768 1 0.81064 0.753918 0.748146
770 1 0.0828145 0.910571 0.66725
771 1 0.0894665 0.82202 0.74969
776 1 0.156615 0.925851 0.747816
842 1 0.0837949 0.919962 0.826418
845 1 0.159493 0.846805 0.823173
780 1 0.350912 0.914888 0.755334
846 1 0.263294 0.911043 0.827195
778 1 0.431341 0.88853 0.680362
850 1 0.419788 0.91789 0.832484
784 1 0.501505 0.907951 0.762361
782 1 0.595782 0.918423 0.670717
785 1 0.660538 0.82953 0.698943
783 1 0.569231 0.824028 0.76619
788 1 0.675369 0.92568 0.762289
789 1 0.816118 0.831846 0.671829
786 1 0.740619 0.924936 0.657356
858 1 0.762494 0.923333 0.840169
791 1 0.899264 0.833084 0.741941
769 1 0.998413 0.834149 0.664408
790 1 0.907614 0.919879 0.651314
772 1 0.00196973 0.886718 0.757428
792 1 0.833375 0.917908 0.743536
841 1 0.0103696 0.813269 0.838142
800 1 0.176082 0.584045 0.916529
796 1 0.979426 0.566207 0.915659
819 1 0.0923208 0.653883 0.915711
852 1 0.340783 0.91965 0.916017
381 1 0.829982 1.02002 0.846685
857 1 0.664765 0.826319 0.839178
798 1 0.256067 0.588425 0.818235
823 1 0.249421 0.664869 0.904628
671 1 0.923148 0.49645 0.58334
804 1 0.326689 0.577894 0.922089
808 1 0.478868 0.577092 0.915149
809 1 0.655124 0.50439 0.839509
807 1 0.580235 0.505863 0.925799
843 1 0.0859514 0.830123 0.931423
864 1 0.837781 0.910363 0.916568
806 1 0.577549 0.598412 0.848125
831 1 0.593029 0.672858 0.924251
812 1 0.665927 0.583143 0.932249
848 1 0.158764 0.91059 0.922394
844 1 -0.00276012 0.921975 0.909381
689 1 0.663612 0.66201 0.497537
860 1 0.664184 0.919193 0.904441
835 1 0.760835 0.671521 0.925328
816 1 0.837933 0.571533 0.909095
814 1 0.910158 0.555035 0.82037
367 1 0.253465 0.991418 0.909695
839 1 0.914342 0.657941 0.907935
820 1 0.993054 0.744818 0.920235
824 1 0.187543 0.754258 0.918323
477 1 0.834981 0.663523 1.00793
822 1 0.263343 0.77205 0.840157
849 1 0.348821 0.837281 0.839163
821 1 0.170926 0.661798 0.835472
828 1 0.332722 0.76555 0.923197
827 1 0.411004 0.657995 0.913806
851 1 0.416728 0.835267 0.920546
832 1 0.489424 0.754341 0.937508
830 1 0.584504 0.745277 0.852393
706 1 0.431608 0.889388 0.500919
855 1 0.581725 0.833775 0.918426
840 1 0.829897 0.755754 0.89997
836 1 0.671227 0.753735 0.924415
854 1 0.582881 0.92516 0.83514
856 1 0.509048 0.920023 0.91598
838 1 0.907344 0.74601 0.834846
863 1 0.911511 0.829403 0.904925
861 1 0.832341 0.844932 0.828365
709 1 0.514343 0.819399 0.502477
673 1 1.00061 0.677213 0.51316
735 1 0.586817 0.506156 0.762131
227 1 0.43541 0.990266 0.595433
801 1 0.332838 0.499044 0.835927
229 1 0.496527 0.992543 0.500756
705 1 0.33102 0.836138 0.518851
655 1 0.262787 0.493091 0.56881
225 1 0.337321 0.975001 0.494017
482 1 0.0722375 0.911924 1.00406
702 1 0.240364 0.916883 0.508095
481 1 -0.013412 0.839024 1.0076
295 1 0.256589 1.00612 0.750886
235 1 0.749677 1.01596 0.572286
797 1 0.174939 0.511969 0.821668
666 1 0.754109 0.590174 0.498803
239 1 0.918098 1.01348 0.586991
718 1 0.915143 0.917203 0.524067
219 1 0.0821901 1.00609 0.604504
465 1 0.315848 0.672986 0.992968
498 1 0.750301 0.903322 0.988512
474 1 0.745639 0.749846 1.00067
670 1 0.912667 0.581951 0.507638
693 1 0.84669 0.661889 0.514561
494 1 0.59639 0.929725 1.01049
486 1 0.249589 0.931517 0.998246
710 1 0.590485 0.914491 0.494991
658 1 0.421092 0.598273 0.489353
678 1 0.255011 0.74545 0.505026
442 1 0.411169 0.596715 1.01176
469 1 0.508824 0.647588 0.983301
450 1 0.748199 0.578265 1.00413
690 1 0.741206 0.745669 0.507438
490 1 0.416711 0.930073 1.00036
713 1 0.659047 0.829114 0.486141
461 1 0.172634 0.655979 1.00706
