ITEM: TIMESTEP
17000
ITEM: NUMBER OF ATOMS
1372
ITEM: BOX BOUNDS pp pp pp
0.0000000000000000e+00 3.6820000000000000e+01
0.0000000000000000e+00 3.6820000000000000e+01
0.0000000000000000e+00 3.6820000000000000e+01
ITEM: ATOMS id type xs ys zs
8 1 0.146929 0.0732291 0.0851857
100 1 0.0654844 0.073998 0.138677
117 1 0.142971 0.136246 0.145844
382 1 0.13845 0.795903 0.507699
813 1 0.490311 0.355976 0.139827
12 1 0.296236 0.0796014 0.0740584
104 1 0.217469 0.0701709 0.150471
7 1 0.223885 0.999965 0.0751637
121 1 0.276437 0.140759 0.152442
21 1 0.22226 0.148784 0.0775091
108 1 0.356769 0.0657601 0.160133
14 1 0.4298 0.0712823 0.0779641
111 1 0.431363 1.00136 0.138026
51 1 0.283218 0.423314 0.000678536
125 1 0.415273 0.141482 0.155813
25 1 0.361082 0.148255 0.0784604
18 1 -0.0105723 0.215848 0.0756965
912 1 0.480615 0.290007 0.354764
323 1 -0.000329175 0.570878 0.42362
17 1 0.0664636 0.148479 0.0689723
22 1 0.144136 0.209964 0.0757406
114 1 0.0650044 0.209405 0.138845
131 1 0.139907 0.274142 0.145931
688 1 0.506517 8.64917e-06 0.0705782
6 1 0.210416 0.0744546 0.00810741
26 1 0.282025 0.217631 0.068532
118 1 0.218502 0.220516 0.146085
35 1 0.214342 0.284274 0.0696987
256 1 0.00392033 0.65289 0.352807
28 1 0.426038 0.219767 0.0629669
122 1 0.361543 0.214614 0.138622
39 1 0.360077 0.280469 0.0695873
139 1 0.431788 0.28386 0.134034
800 1 0.49552 0.125256 0.231799
31 1 0.0582203 0.293149 0.0738164
36 1 0.141434 0.358616 0.0813112
128 1 0.0742948 0.354324 0.140715
370 1 0.286604 0.4944 0.509606
45 1 0.0785902 0.427317 0.075769
744 1 0.510458 0.56718 0.068543
207 1 0.352607 1.00231 0.374246
294 1 0.428831 0.93361 0.355197
856 1 0.515037 0.70993 0.211295
135 1 0.298171 0.286922 0.144246
40 1 0.287289 0.354558 0.0698735
132 1 0.216952 0.352908 0.135639
149 1 0.275602 0.421664 0.13927
43 1 0.00391986 0.416862 -0.00321106
42 1 0.433854 0.359845 0.0528675
136 1 0.36676 0.350633 0.140282
53 1 0.351547 0.421543 0.0697766
342 1 0.369196 0.926175 0.445777
158 1 -0.00506364 0.642351 0.208535
939 1 0.504246 0.639193 0.276872
145 1 0.14326 0.426072 0.149468
50 1 0.154544 0.505055 0.0693963
142 1 0.0654745 0.499999 0.139251
49 1 0.209586 0.424384 0.0722949
54 1 0.294189 0.490721 0.0727768
146 1 0.214812 0.503061 0.142973
163 1 0.281431 0.558868 0.130596
60 1 -0.0063665 0.643237 0.075229
814 1 0.490031 0.27914 0.214875
153 1 0.422752 0.43179 0.131608
56 1 0.442532 0.495151 0.0694938
150 1 0.347364 0.486134 0.145072
67 1 0.357458 0.567858 0.0663002
71 1 0.00256856 0.718044 0.00844686
341 1 0.290423 0.85884 0.439197
211 1 0.0121617 0.142099 0.289012
376 1 0.357532 0.564883 0.504989
59 1 0.08277 0.571634 0.0705831
159 1 0.154923 0.573938 0.136998
64 1 0.143791 0.647858 0.0719885
156 1 0.0719238 0.639855 0.138703
173 1 0.133343 0.711558 0.14713
73 1 0.0702114 0.716346 0.0828712
340 1 0.217599 0.929193 0.434355
898 1 0.503343 0.137822 0.358496
63 1 0.224377 0.571681 0.0654649
68 1 0.285183 0.635105 0.0727748
160 1 0.211275 0.649939 0.140482
177 1 0.291728 0.71526 0.148786
46 1 -0.0147148 0.508659 0.0753382
167 1 0.429584 0.566826 0.140873
70 1 0.442373 0.628576 0.0658783
164 1 0.360572 0.636394 0.13716
81 1 0.349511 0.716386 0.0742553
716 1 0.50034 0.287197 0.0691826
78 1 0.131441 0.78878 0.0818709
170 1 0.0710839 0.795328 0.153781
87 1 0.0754248 0.859151 0.0790463
80 1 0.349879 0.787722 0.00396973
77 1 0.21198 0.715309 0.0794406
82 1 0.29021 0.776341 0.0774109
174 1 0.203614 0.779688 0.148687
191 1 0.288306 0.850889 0.146864
200 1 -0.00448341 0.0655169 0.361553
925 1 0.493523 0.503764 0.286998
841 1 0.49912 0.630277 0.140831
181 1 0.434047 0.709612 0.13981
84 1 0.426247 0.791656 0.069528
178 1 0.358258 0.782302 0.148279
95 1 0.353832 0.847872 0.069602
187 1 0.150427 0.864773 0.149725
3 1 0.0732593 -4.83124e-05 0.0829393
103 1 0.151506 0.993035 0.137325
92 1 0.15044 0.92351 0.0715618
184 1 0.0781789 0.92673 0.143071
91 1 0.225277 0.848724 0.072494
107 1 0.288885 -0.014316 0.145826
96 1 0.282132 0.924048 0.0714463
188 1 0.21718 0.924838 0.155717
344 1 0.0719899 0.997432 0.507526
389 1 0.143466 0.925228 0.503214
358 1 0.085142 0.290399 0.507136
195 1 0.428679 0.844139 0.147236
11 1 0.357135 -0.0051366 0.0753045
98 1 0.428261 0.933359 0.0615165
192 1 0.363389 0.921059 0.134889
347 1 0.147976 0.0505956 0.507744
702 1 0.490591 0.13888 0.0874117
30 1 0.0754685 0.359022 -0.00291428
106 1 0.146518 0.068174 0.213818
198 1 0.0672679 0.0697764 0.274532
115 1 0.0730028 0.141539 0.202016
215 1 0.131135 0.141772 0.283549
110 1 0.285177 0.0696971 0.219775
202 1 0.217802 0.0612357 0.294656
105 1 0.229716 -0.00222715 0.21888
327 1 0.283806 0.572044 0.436467
1016 1 0.505074 0.787074 0.431236
112 1 0.421804 0.0711518 0.221079
206 1 0.347286 0.0677316 0.289107
109 1 0.362536 0.988407 0.213572
123 1 0.355474 0.147918 0.226066
223 1 0.424757 0.143878 0.285779
72 1 0.072318 0.787745 -0.00397976
120 1 0.142308 0.202169 0.214979
212 1 0.0707854 0.214729 0.29771
119 1 0.219101 0.134925 0.229457
219 1 0.286025 0.140264 0.294638
124 1 0.278698 0.203738 0.226397
216 1 0.209127 0.212493 0.283941
133 1 0.210269 0.288558 0.210913
233 1 0.274115 0.284113 0.287237
126 1 0.424349 0.209113 0.218798
220 1 0.35239 0.213032 0.295098
237 1 0.415967 0.280802 0.290983
292 1 0.300883 0.923998 0.371508
331 1 0.0709627 0.782857 0.429112
129 1 0.0886264 0.278935 0.21667
229 1 0.149889 0.295084 0.290545
134 1 0.146783 0.352462 0.206735
226 1 0.0704684 0.36069 0.271219
138 1 0.298228 0.362137 0.211443
230 1 0.220897 0.357302 0.283449
137 1 0.348232 0.277735 0.223899
140 1 0.426898 0.353048 0.213218
234 1 0.359605 0.354886 0.275099
251 1 0.423501 0.425893 0.28469
988 1 0.492319 0.211439 0.431838
338 1 0.0732943 0.928772 0.43257
143 1 0.0691468 0.432317 0.205218
243 1 0.148608 0.433643 0.268017
148 1 0.139053 0.509236 0.195743
240 1 0.0814663 0.503925 0.286958
157 1 0.0682299 0.577616 0.20891
257 1 0.147651 0.584668 0.279283
147 1 0.215949 0.420604 0.208784
247 1 0.285097 0.432035 0.285972
152 1 0.27847 0.495276 0.214224
244 1 0.210517 0.502471 0.270704
151 1 0.365175 0.425739 0.209633
154 1 0.422923 0.498074 0.211635
248 1 0.354674 0.488108 0.270807
288 1 0.142419 0.929256 0.345785
162 1 0.137062 0.646084 0.210158
254 1 0.0810311 0.652145 0.292144
271 1 0.157811 0.722246 0.296962
171 1 0.0618964 0.709381 0.206328
324 1 0.0661461 0.637854 0.421675
261 1 0.294679 0.557321 0.280006
161 1 0.216044 0.576587 0.211344
166 1 0.297142 0.647039 0.210203
258 1 0.216132 0.658784 0.283511
175 1 0.225312 0.703141 0.210692
165 1 0.351173 0.57007 0.206065
265 1 0.434766 0.57546 0.292636
168 1 0.428437 0.635484 0.21047
262 1 0.373159 0.64233 0.286537
297 1 0.151893 0.999817 0.430782
176 1 0.138053 0.769495 0.224246
268 1 0.0637573 0.79086 0.271965
199 1 0.0710191 0.99598 0.355306
275 1 0.29274 0.722377 0.288564
180 1 0.285078 0.782496 0.218729
272 1 0.226736 0.787189 0.296594
189 1 0.221351 0.850121 0.224945
289 1 0.290967 0.854441 0.283768
326 1 0.220905 0.653647 0.42724
179 1 0.367465 0.707991 0.219091
279 1 0.441767 0.710631 0.297096
182 1 0.444373 0.773078 0.221023
276 1 0.365574 0.786014 0.273681
193 1 0.366113 0.851243 0.209704
280 1 0.436432 0.786056 0.360461
285 1 0.143324 0.854295 0.292448
185 1 0.07499 0.866926 0.218726
201 1 0.14665 0.998043 0.290403
101 1 0.0657749 0.996203 0.208769
190 1 0.14815 0.933792 0.222829
282 1 0.077029 0.934607 0.286855
205 1 0.287944 -0.0049267 0.309417
194 1 0.3046 0.917061 0.210408
286 1 0.23016 0.930107 0.274393
209 1 0.41901 1.00331 0.285632
293 1 0.434742 0.854459 0.293802
196 1 0.42789 0.919591 0.224792
290 1 0.361072 0.92572 0.289376
228 1 0.01307 0.355323 0.363549
260 1 0.146655 0.638558 0.372148
204 1 0.13872 0.0637967 0.357784
296 1 0.071714 0.0489376 0.434316
304 1 0.150776 0.141448 0.422779
213 1 0.0647626 0.134568 0.363302
259 1 0.231463 0.586395 0.352704
264 1 0.298324 0.654219 0.353893
299 1 0.287415 0.999389 0.436695
203 1 0.208366 0.993323 0.356662
208 1 0.284577 0.0724607 0.367905
298 1 0.209779 0.0744931 0.442135
217 1 0.21296 0.138918 0.355678
306 1 0.284119 0.138426 0.427412
301 1 0.430797 -0.000590402 0.429718
291 1 0.363208 0.850278 0.360987
335 1 0.369722 0.782232 0.441575
210 1 0.425325 0.0653677 0.349904
300 1 0.353126 0.0690626 0.439361
155 1 -0.00628432 0.577694 0.140348
218 1 0.141214 0.209708 0.35594
303 1 0.0772848 0.208029 0.416116
269 1 0.0728905 0.706483 0.3579
277 1 0.368262 0.711057 0.369741
222 1 0.285318 0.210758 0.359008
305 1 0.217923 0.218095 0.419318
313 1 0.277956 0.294822 0.435341
69 1 0.422796 0.568032 0.00175992
308 1 0.442038 0.129185 0.426981
283 1 0.0707365 0.854394 0.346196
221 1 0.35287 0.131799 0.364101
224 1 0.421018 0.203286 0.366635
307 1 0.346276 0.227714 0.423979
183 1 0.00201456 0.854178 0.145434
345 1 -0.00409369 0.0653633 0.505097
227 1 0.0695344 0.292397 0.346385
311 1 0.139868 0.286519 0.420869
310 1 0.0852064 0.358484 0.42939
318 1 0.142785 0.435253 0.430481
241 1 0.0783786 0.433721 0.358686
334 1 0.293279 0.706625 0.424914
328 1 0.367866 0.628166 0.422242
232 1 0.132023 0.362105 0.343002
231 1 0.213917 0.285729 0.354029
236 1 0.282723 0.372507 0.364979
312 1 0.206257 0.363609 0.43914
273 1 0.223757 0.71952 0.368882
343 1 0.432922 0.849882 0.437804
315 1 0.415922 0.284094 0.435961
235 1 0.335912 0.294498 0.354314
238 1 0.412538 0.357593 0.351311
314 1 0.353565 0.356623 0.430833
322 1 0.431305 0.442347 0.41621
270 1 -0.006291 0.792543 0.357554
287 1 0.217364 0.86805 0.358757
336 1 0.441476 0.712844 0.442391
333 1 0.20791 0.789136 0.438545
274 1 0.144437 0.792996 0.367747
246 1 0.1605 0.513712 0.346846
317 1 0.067573 0.509535 0.436488
255 1 0.076102 0.578668 0.346572
325 1 0.147996 0.567192 0.430177
47 1 0.139349 0.432323 -0.00315381
266 1 0.437397 0.645486 0.362715
320 1 0.284475 0.435262 0.42408
245 1 0.211251 0.424109 0.35724
319 1 0.219002 0.498304 0.423018
250 1 0.28554 0.501551 0.356527
329 1 0.437756 0.567987 0.414288
249 1 0.348276 0.438734 0.364962
321 1 0.355533 0.510341 0.423656
263 1 0.355718 0.570831 0.347054
252 1 0.418131 0.502993 0.343201
897 1 0.484383 0.21135 0.293122
278 1 0.287264 0.790316 0.376282
339 1 0.143784 0.865466 0.424808
332 1 0.142184 0.717906 0.4306
786 1 0.501541 0.99357 0.221597
967 1 0.505844 0.920708 0.290834
360 1 0.199229 0.293351 0.500172
883 1 0.504476 0.0548381 0.285958
58 1 0.0754158 0.645223 -0.00223796
102 1 0.00398722 0.0780163 0.205457
352 1 0.00533649 0.222612 0.476935
828 1 0.480484 0.430176 0.212519
127 1 0.0012196 0.290932 0.144116
75 1 0.144595 0.710558 0.0049206
242 1 -0.00144108 0.506692 0.361364
316 1 0.00461134 0.432526 0.426779
995 1 0.497772 0.362704 0.424984
253 1 -0.00186485 0.580628 0.292191
758 1 0.506221 0.713358 0.0773897
911 1 0.488024 0.35065 0.290112
116 1 0.00494313 0.214117 0.21421
799 1 0.501107 0.196071 0.166492
44 1 0.0705675 0.49564 -0.00452358
772 1 0.515258 0.854981 0.0625869
701 1 0.490568 0.22075 -0.00832246
88 1 0.00687465 0.91539 0.0832325
4 1 0.00967713 0.0826911 0.0620735
378 1 0.429005 0.640687 0.502836
1058 1 0.506836 0.573049 0.491877
9 1 0.28995 -0.0114003 0.00141668
57 1 -0.00141083 0.563911 0.00311378
715 1 0.500668 0.356714 -0.0201836
371 1 0.432838 0.507744 0.486743
379 1 0.0814333 0.702729 0.497363
1044 1 0.49426 0.277853 0.493324
354 1 0.133579 0.214734 0.495215
356 1 0.287225 0.213396 0.490073
52 1 0.354764 0.49084 -0.00238208
16 1 0.0606878 0.227972 0.0077278
351 1 0.0541337 0.137778 0.500605
20 1 0.221217 0.213561 0.00261808
348 1 0.364576 -0.0160734 0.513684
386 1 0.0701503 0.854923 0.496869
757 1 0.491165 0.7758 -0.000547505
23 1 0.275373 0.135729 0.00134899
372 1 0.0704154 0.574231 0.499525
362 1 0.348804 0.302134 0.506759
83 1 0.417999 0.714469 0.0010986
375 1 0.143637 0.630134 0.497108
364 1 0.419885 0.364708 0.485797
5 1 0.151725 1.00137 0.0136637
19 1 0.1452 0.147832 0.00349639
93 1 0.290953 0.858943 -0.015746
394 1 0.0734259 0.065402 0.567562
400 1 0.139797 0.0760695 0.642067
686 1 0.420923 0.935992 0.937101
1072 1 0.50289 0.856603 0.501054
395 1 0.0807306 -0.00740956 0.636173
398 1 0.225188 0.0647633 0.568225
404 1 0.304026 0.0740202 0.640421
413 1 0.205901 0.141424 0.638645
415 1 0.292124 0.137558 0.571612
1248 1 0.510509 0.718175 0.769961
1276 1 0.488945 0.00487425 0.916506
1150 1 0.508914 0.69176 0.633099
401 1 0.28444 1.00102 0.571137
402 1 0.36616 0.0636332 0.574774
406 1 0.440042 0.0802181 0.62293
491 1 0.00901776 0.0133749 0.713109
682 1 0.354363 0.938684 0.846056
403 1 0.355062 -0.00641336 0.639147
405 1 0.427361 0.989381 0.572517
384 1 0.288205 0.778445 0.495105
10 1 0.356427 0.0755203 1.00369
1037 1 0.504643 0.149393 0.49866
411 1 0.13659 0.137399 0.556057
409 1 0.0771422 0.151625 0.636836
408 1 0.0595458 0.214522 0.562858
414 1 0.139163 0.215511 0.623825
423 1 0.0587921 0.288363 0.629208
645 1 -0.0139475 0.586531 0.871871
377 1 0.292369 0.641324 0.499175
412 1 0.217764 0.210831 0.567904
418 1 0.286545 0.217294 0.646572
27 1 0.429295 0.14584 1.00509
419 1 0.420183 0.161261 0.574955
417 1 0.36079 0.155536 0.636127
416 1 0.340199 0.213755 0.563761
420 1 0.437969 0.216616 0.636959
477 1 -0.00230065 0.855601 0.580153
425 1 0.137581 0.290775 0.579077
422 1 0.0626073 0.358383 0.564706
428 1 0.128869 0.365703 0.643391
685 1 0.443965 0.86108 0.865946
683 1 0.355864 0.861293 0.916263
1079 1 0.507452 0.0692897 0.561976
427 1 0.215995 0.282469 0.63885
429 1 0.268668 0.300578 0.566847
426 1 0.207851 0.370163 0.575426
432 1 0.282764 0.369629 0.646031
1219 1 0.505269 0.513051 0.707856
494 1 0.0063747 0.0677197 0.808366
431 1 0.347645 0.3028 0.634981
433 1 0.41978 0.281911 0.567247
430 1 0.362728 0.371005 0.561448
434 1 0.417836 0.363441 0.635068
522 1 -0.00509483 0.373657 0.781401
365 1 0.0635677 0.441422 0.4972
439 1 0.128972 0.437232 0.575891
437 1 0.0553306 0.44056 0.641643
436 1 0.0555117 0.512415 0.568217
442 1 0.136153 0.497938 0.642449
453 1 0.148394 0.576122 0.577544
451 1 0.074851 0.573582 0.642104
441 1 0.205478 0.439566 0.652272
443 1 0.282899 0.434238 0.574921
440 1 0.208475 0.507269 0.579042
446 1 0.288271 0.504771 0.641623
743 1 0.498538 0.64591 0.991082
445 1 0.352036 0.439201 0.634286
447 1 0.428303 0.433129 0.567219
444 1 0.358368 0.499301 0.575061
448 1 0.42478 0.497584 0.634761
461 1 0.434453 0.560864 0.556441
459 1 0.360618 0.570736 0.64489
595 1 0.214628 0.00931482 0.943198
407 1 -0.000736779 0.129638 0.580304
1191 1 0.509675 0.217519 0.704769
684 1 0.290473 0.930867 0.932948
450 1 0.076627 0.641012 0.570994
456 1 0.148522 0.639431 0.650621
678 1 0.208699 0.924883 0.848539
677 1 0.142937 0.857151 0.864673
455 1 0.224587 0.574768 0.635612
457 1 0.288045 0.567484 0.573542
454 1 0.217461 0.64291 0.576141
460 1 0.298451 0.637304 0.641923
471 1 0.270577 0.711365 0.577335
592 1 0.00280611 0.079364 0.926886
458 1 0.3625 0.637783 0.567698
462 1 0.433626 0.629142 0.628461
473 1 0.374275 0.70936 0.629247
13 1 0.435832 1.01243 1.01083
467 1 0.145754 0.714377 0.579208
465 1 0.0819411 0.70966 0.648135
550 1 -0.0145831 0.634474 0.78973
1331 1 0.501367 0.643819 0.841887
464 1 0.0801836 0.778779 0.57744
470 1 0.155187 0.782162 0.6555
86 1 0.076067 0.930055 1.00542
479 1 0.0723563 0.847169 0.643239
469 1 0.227496 0.701396 0.670312
468 1 0.212697 0.783779 0.558713
474 1 0.275993 0.772253 0.644171
1108 1 0.486881 0.298686 0.632738
475 1 0.436699 0.714193 0.561587
472 1 0.333833 0.782606 0.575668
476 1 0.427537 0.789494 0.630913
76 1 0.20761 0.782933 1.01277
687 1 0.499027 0.0889925 1.00276
1304 1 0.502403 0.288048 0.91868
397 1 0.149123 0.990568 0.576869
481 1 0.150125 0.848123 0.583807
478 1 0.0730656 0.913463 0.568736
484 1 0.147049 0.930065 0.650552
680 1 0.138078 0.918326 0.927299
399 1 0.216604 0.996726 0.631603
483 1 0.228976 0.860143 0.651085
485 1 0.282786 0.864316 0.580083
482 1 0.209787 0.922437 0.568827
488 1 0.290919 0.925778 0.654753
617 1 0.0054761 0.292345 0.853212
487 1 0.347953 0.847771 0.652024
369 1 0.354076 0.44652 0.485369
674 1 0.0815541 0.94248 0.857452
489 1 0.427783 0.865176 0.58318
486 1 0.351235 0.922984 0.583527
490 1 0.424661 0.930199 0.647416
452 1 -0.00305003 0.652897 0.629162
593 1 0.15946 0.00718838 0.854614
492 1 0.0705409 0.0829001 0.711561
498 1 0.146816 0.0826224 0.781883
507 1 0.0730215 0.1433 0.777252
493 1 0.0754789 1.01028 0.780338
495 1 0.142987 0.00602728 0.707568
496 1 0.224506 0.0733442 0.697441
502 1 0.282744 0.0788094 0.786607
513 1 0.285728 0.141792 0.708092
497 1 0.21124 0.0045472 0.77847
499 1 0.295572 0.00745788 0.699573
771 1 0.494757 0.930077 0.991089
500 1 0.359181 0.0697072 0.717097
504 1 0.441435 0.0738522 0.768838
517 1 0.429154 0.142692 0.703801
501 1 0.358892 1.00457 0.7836
1107 1 0.48556 0.357453 0.557063
575 1 0.010962 0.849559 0.722683
564 1 -0.00795135 0.785481 0.793391
509 1 0.148806 0.141826 0.706063
506 1 0.0779114 0.21576 0.713676
512 1 0.149256 0.225332 0.791632
511 1 0.210177 0.15045 0.779194
510 1 0.209251 0.221865 0.703571
516 1 0.281784 0.226914 0.771273
527 1 0.286324 0.293021 0.707711
525 1 0.205096 0.294132 0.777485
675 1 0.070315 0.862702 0.917478
515 1 0.358324 0.149109 0.790991
514 1 0.357549 0.209266 0.718887
518 1 0.433567 0.203913 0.786103
533 1 0.00615905 0.443078 0.720574
521 1 0.0778286 0.296175 0.792469
523 1 0.135182 0.290087 0.70134
520 1 0.0660858 0.367054 0.712717
526 1 0.13694 0.364296 0.775185
537 1 0.128104 0.443778 0.715068
535 1 0.0756445 0.437564 0.787343
524 1 0.211165 0.364616 0.70062
530 1 0.267534 0.358413 0.781305
539 1 0.198312 0.432686 0.767951
531 1 0.413953 0.282094 0.705223
529 1 0.360297 0.29865 0.776499
528 1 0.353645 0.367919 0.709146
532 1 0.426272 0.354918 0.79354
545 1 0.414292 0.428464 0.720141
536 1 -0.00102324 0.514835 0.796022
534 1 0.074442 0.511924 0.729631
540 1 0.145592 0.498293 0.79827
549 1 0.0719662 0.575061 0.801461
665 1 0.2107 0.712138 0.928319
541 1 0.277607 0.435373 0.708853
538 1 0.221519 0.516473 0.712201
544 1 0.282237 0.505335 0.787484
553 1 0.204546 0.560419 0.792039
672 1 0.431529 0.78646 0.92987
543 1 0.341045 0.427661 0.786822
542 1 0.352919 0.504546 0.71144
546 1 0.423003 0.51373 0.781022
557 1 0.359734 0.573336 0.798691
551 1 0.134021 0.579545 0.722877
548 1 0.0536677 0.636671 0.722709
554 1 0.137236 0.640446 0.800078
1080 1 0.494627 1.00505 0.641429
555 1 0.297878 0.578031 0.724896
552 1 0.217441 0.622778 0.730962
558 1 0.289115 0.639043 0.793428
569 1 0.298767 0.703851 0.726232
669 1 0.354825 0.71723 0.928455
559 1 0.427174 0.580556 0.713221
556 1 0.370325 0.65003 0.714049
560 1 0.430692 0.635059 0.789875
571 1 0.355288 0.716252 0.80387
654 1 0.346792 0.640847 0.868089
563 1 0.0664308 0.713835 0.776368
565 1 0.143092 0.697006 0.722179
562 1 0.0768991 0.779725 0.709173
568 1 0.127926 0.791589 0.785886
567 1 0.223217 0.706975 0.789424
566 1 0.209147 0.784524 0.729434
572 1 0.285233 0.784519 0.790769
573 1 0.439251 0.708751 0.706764
570 1 0.364974 0.767749 0.702339
574 1 0.435914 0.775607 0.775428
587 1 0.41809 0.846624 0.70844
671 1 0.433516 0.718477 0.858383
577 1 0.0678393 0.858076 0.798426
579 1 0.130175 0.856399 0.717544
576 1 0.0722497 0.93209 0.701908
582 1 0.139484 0.920666 0.775873
583 1 0.290205 0.849635 0.728543
581 1 0.209409 0.851893 0.78394
580 1 0.210603 0.925132 0.716482
586 1 0.277256 0.924867 0.788273
652 1 0.146638 0.644815 0.928987
503 1 0.43025 -0.0012156 0.713927
585 1 0.367214 0.838793 0.780731
584 1 0.350918 0.925113 0.721308
588 1 0.425249 0.906373 0.78366
591 1 0.0905378 -0.0026529 0.93547
590 1 0.0876005 0.0714892 0.85679
596 1 0.160424 0.0855141 0.930156
668 1 0.366232 0.785962 0.861414
646 1 0.0695749 0.650697 0.859937
662 1 0.00111169 0.786553 0.930518
597 1 0.276009 1.00703 0.856548
594 1 0.211644 0.0788068 0.850252
600 1 0.284057 0.0821503 0.929917
609 1 0.216981 0.151379 0.925268
658 1 0.416229 0.645517 0.937094
657 1 0.436299 0.575682 0.872949
463 1 0.0111075 0.721425 0.555378
599 1 0.358527 0.0110815 0.92483
601 1 0.431075 -0.00865714 0.85013
598 1 0.370996 0.0623776 0.849302
602 1 0.423407 0.0847348 0.926593
1345 1 0.498628 0.778167 0.856824
1262 1 0.501758 0.848452 0.775687
679 1 0.219817 0.848626 0.923066
605 1 0.0727944 0.143925 0.924416
607 1 0.132047 0.151741 0.861796
604 1 0.0689379 0.219663 0.842984
610 1 0.136508 0.225778 0.92389
621 1 0.13701 0.296855 0.858271
619 1 0.067677 0.293441 0.932913
611 1 0.278069 0.153828 0.843063
608 1 0.212297 0.218369 0.859175
614 1 0.28749 0.223222 0.920856
623 1 0.204816 0.290964 0.925839
625 1 0.282702 0.301404 0.860942
663 1 0.138126 0.719757 0.858327
666 1 0.142528 0.788376 0.934832
615 1 0.437753 0.13149 0.846933
613 1 0.349622 0.144954 0.907563
612 1 0.351736 0.220974 0.845053
616 1 0.4293 0.204757 0.928503
627 1 0.356845 0.283398 0.928381
606 1 -0.00794924 0.220605 0.919569
660 1 0.0716968 0.77872 0.862628
618 1 0.0743036 0.367217 0.853616
624 1 0.135788 0.362091 0.929299
635 1 0.147068 0.424881 0.855033
667 1 0.286368 0.72339 0.869031
664 1 0.209603 0.78004 0.856293
374 1 0.214422 0.562723 0.492498
622 1 0.212242 0.355025 0.858063
628 1 0.291887 0.356698 0.928501
637 1 0.216079 0.428511 0.923174
629 1 0.422069 0.277242 0.860525
641 1 0.358162 0.427173 0.932269
626 1 0.351944 0.362806 0.857749
630 1 0.422781 0.355335 0.926777
643 1 0.420817 0.428027 0.858531
670 1 0.283531 0.786898 0.930439
661 1 0.0777833 0.719362 0.926764
633 1 0.0727467 0.426812 0.923855
632 1 0.075538 0.490705 0.858249
638 1 0.151208 0.504322 0.935711
647 1 0.064358 0.579294 0.930455
656 1 0.281811 0.63547 0.931707
650 1 0.219365 0.638542 0.856009
639 1 0.275607 0.430603 0.852096
636 1 0.221377 0.506833 0.860023
642 1 0.28266 0.494859 0.928568
653 1 0.284764 0.57367 0.859719
651 1 0.215369 0.567569 0.928381
655 1 0.364493 0.566655 0.941025
640 1 0.351302 0.505187 0.85873
644 1 0.433989 0.496391 0.937738
649 1 0.129654 0.577513 0.870313
681 1 0.279348 0.853954 0.849322
24 1 0.363293 0.202727 0.986071
1359 1 0.508335 0.928261 0.851422
1346 1 0.489555 0.714424 0.930982
368 1 0.138212 0.504687 0.511279
79 1 0.284193 0.713674 1.00814
561 1 0.00287417 0.715674 0.704396
631 1 -0.0039475 0.438827 0.862825
390 1 0.356014 0.851941 0.502008
392 1 0.428284 0.919727 0.507208
396 1 8.53155e-05 0.0682822 0.641947
676 1 0.00368198 0.941772 0.933747
34 1 0.204349 0.363969 1.00445
1149 1 0.500892 0.775828 0.575141
1205 1 0.484784 0.351871 0.709842
381 1 0.212 0.708477 0.502651
393 1 0.00103604 1.00598 0.569898
94 1 0.35384 0.925736 1.0044
66 1 0.358969 0.650338 1.0176
589 1 0.00145769 -0.0187668 0.855032
97 1 0.416388 0.855472 0.99637
33 1 0.149802 0.27405 1.00913
353 1 0.215836 0.150406 0.500161
367 1 0.20752 0.442185 0.503493
505 1 0.00556867 0.14742 0.697751
480 1 -0.00129617 0.934995 0.62724
1121 1 0.507236 0.494897 0.562448
89 1 0.147198 0.851636 1.0048
387 1 0.00565855 0.932666 0.510799
346 1 0.224997 0.994118 0.502639
355 1 0.348375 0.13862 0.49696
363 1 0.288124 0.369868 0.500241
65 1 0.287799 0.559293 1.0029
48 1 0.211649 0.493018 1.00698
55 1 0.429095 0.426336 0.997392
383 1 0.347186 0.710848 0.514831
61 1 0.143133 0.570678 1.00036
90 1 0.214912 0.928547 1.00045
41 1 0.419182 0.289962 0.996311
357 1 0.411013 0.22128 0.501942
385 1 0.42507 0.788883 0.51373
350 1 0.430745 0.0678355 0.504135
391 1 0.297659 0.924887 0.504974
62 1 0.217653 0.643637 0.999139
388 1 0.22174 0.861813 0.506288
349 1 0.29055 0.0680946 0.499586
361 1 0.136245 0.36698 0.514604
37 1 0.296856 0.278297 0.997085
38 1 0.349729 0.352348 0.994088
2 1 0.0955629 0.0760269 1.00819
1 1 0.021113 1.01181 0.995288
692 1 0.568759 0.0707622 0.0771927
788 1 0.631663 0.0591559 0.146131
691 1 0.647672 0.999575 0.0669362
801 1 0.567803 0.134531 0.143505
705 1 0.636887 0.137533 0.0654354
731 1 0.571354 0.420252 0.00545652
696 1 0.706626 0.0735215 0.081093
792 1 0.781241 0.0749609 0.139312
805 1 0.699623 0.12955 0.157886
709 1 0.789081 0.144464 0.065822
172 1 0.991054 0.773109 0.204515
197 1 1.00369 1.0047 0.287017
700 1 0.848255 0.074988 0.0748709
796 1 0.944341 0.0782549 0.11951
713 1 0.928343 0.14312 0.0561625
809 1 0.856322 0.143119 0.149644
842 1 0.502567 0.560752 0.217706
870 1 0.511497 0.851425 0.206118
1048 1 0.71219 0.354555 0.511128
186 1 1.00525 0.928679 0.213185
706 1 0.561175 0.194671 0.0711441
802 1 0.631101 0.19651 0.144978
719 1 0.651527 0.266499 0.0705977
1054 1 0.775241 0.430067 0.487979
1047 1 0.780316 0.279596 0.51872
169 1 0.992939 0.720626 0.137208
785 1 0.493006 0.0676703 0.15146
710 1 0.718167 0.206734 0.0704283
806 1 0.773273 0.202115 0.15478
723 1 0.800051 0.275311 0.0712523
819 1 0.716125 0.274755 0.143349
714 1 0.87247 0.208092 0.0813174
810 1 0.93015 0.21162 0.151165
979 1 0.928707 0.863304 0.370141
74 1 1.01036 0.783529 0.0667313
815 1 0.556933 0.27371 0.142325
720 1 0.568891 0.346805 0.0824237
816 1 0.640461 0.340817 0.149635
827 1 0.509759 0.480307 0.147365
1057 1 0.861941 0.499072 0.4956
724 1 0.70958 0.34085 0.0790192
820 1 0.779447 0.356891 0.157128
833 1 0.705202 0.421519 0.158876
737 1 0.769632 0.425185 0.07752
141 1 0.9998 0.431618 0.147003
823 1 0.8576 0.291594 0.148373
727 1 0.930538 0.297913 0.0841942
728 1 0.843504 0.362317 0.0901585
824 1 0.929686 0.361821 0.146236
837 1 0.860286 0.429963 0.163173
741 1 0.92877 0.430004 0.0719413
855 1 0.497261 0.788339 0.140513
829 1 0.576938 0.424796 0.148879
733 1 0.660231 0.413855 0.0738147
734 1 0.592783 0.499005 0.0780353
830 1 0.632269 0.494474 0.165233
1023 1 0.492814 0.922665 0.435264
1049 1 0.926545 0.291675 0.497376
1009 1 0.493699 0.641838 0.431444
722 1 0.797995 0.343934 0.00704016
738 1 0.710077 0.488804 0.0803342
834 1 0.793088 0.504224 0.145457
768 1 0.924541 0.794584 0.00318304
730 1 0.495328 0.423898 0.0718701
742 1 0.863104 0.493083 0.0872342
838 1 0.934409 0.510817 0.155304
739 1 0.842478 0.422582 0.0144771
1042 1 0.939742 0.137532 0.498613
267 1 1.00942 0.715046 0.288544
281 1 0.992728 0.859882 0.287375
747 1 0.646338 0.569624 0.0855726
843 1 0.568423 0.56317 0.148175
748 1 0.571393 0.645445 0.0732531
844 1 0.633485 0.639408 0.147251
1040 1 0.776995 0.142014 0.501466
1029 1 0.927867 0.928595 0.439855
751 1 0.780536 0.571287 0.0804177
847 1 0.712952 0.578118 0.151563
752 1 0.706515 0.641807 0.0770932
848 1 0.789604 0.646112 0.140938
765 1 0.783052 0.721516 0.074843
754 1 0.927511 0.648509 0.005416
359 1 0.998464 0.363001 0.491382
755 1 0.918014 0.57675 0.0660358
851 1 0.854486 0.576967 0.136174
756 1 0.857054 0.659758 0.0659053
852 1 0.917024 0.641782 0.145709
769 1 0.924558 0.715857 0.0731471
980 1 0.851172 0.915682 0.362031
957 1 0.64388 0.710151 0.353556
895 1 0.933891 0.996554 0.362251
295 1 0.997152 0.992308 0.439069
144 1 1.01027 0.500178 0.214352
857 1 0.568753 0.72383 0.141172
761 1 0.647388 0.711179 0.072365
762 1 0.575302 0.790104 0.0624253
858 1 0.636521 0.79072 0.133881
775 1 0.648112 0.865191 0.0628829
740 1 0.921229 0.496682 0.00223451
861 1 0.69606 0.713007 0.15291
766 1 0.715766 0.791299 0.0643936
862 1 0.78402 0.788555 0.131887
214 1 0.998696 0.217231 0.353732
865 1 0.856421 0.72574 0.150345
770 1 0.849072 0.801864 0.0654584
866 1 0.917489 0.791584 0.142949
879 1 0.850773 0.857142 0.146299
1011 1 0.658239 0.636471 0.428393
986 1 0.858048 -0.00162382 0.436602
944 1 0.579529 0.642121 0.360168
787 1 0.567111 0.991104 0.148493
871 1 0.576125 0.860227 0.137469
776 1 0.561483 0.931662 0.0787682
872 1 0.644861 0.932216 0.151116
1010 1 0.578145 0.563864 0.422889
1020 1 0.790358 0.780529 0.441517
695 1 0.775635 0.00817562 0.0769283
875 1 0.718442 0.865885 0.129284
779 1 0.777552 0.864511 0.0597111
791 1 0.710195 -0.00187972 0.150995
780 1 0.713128 0.939581 0.0728472
876 1 0.786171 0.935005 0.1471
699 1 0.951567 -0.00404462 0.0713284
99 1 1.00886 -0.00731302 0.136022
795 1 0.876199 0.0204851 0.146461
783 1 0.920699 0.85929 0.0728396
784 1 0.847213 0.935984 0.068092
880 1 0.930992 0.927463 0.130559
975 1 0.794167 0.846524 0.366165
962 1 0.720632 0.785698 0.358194
790 1 0.563169 0.0645781 0.20822
886 1 0.632015 0.0675979 0.289233
803 1 0.628611 0.129374 0.219881
899 1 0.57186 0.134416 0.295425
794 1 0.7053 0.0750263 0.231429
890 1 0.788088 0.0696985 0.289235
798 1 0.86568 0.0718675 0.219783
894 1 0.942478 0.0873675 0.290898
893 1 0.873192 0.0070907 0.28811
1026 1 0.710744 0.845008 0.435884
804 1 0.562883 0.202937 0.234444
900 1 0.64317 0.212845 0.299486
817 1 0.62909 0.274286 0.203783
913 1 0.555842 0.272937 0.290141
689 1 0.562218 -0.00797972 -0.0149415
903 1 0.724191 0.141934 0.29053
807 1 0.791491 0.126511 0.226297
808 1 0.693083 0.202922 0.214304
904 1 0.798223 0.220264 0.283299
907 1 0.852268 0.139927 0.295016
811 1 0.924514 0.134479 0.204239
812 1 0.84902 0.218057 0.202413
908 1 0.919921 0.206363 0.266488
818 1 0.548965 0.342177 0.221431
914 1 0.625684 0.328607 0.279431
831 1 0.635256 0.419103 0.219311
1027 1 0.783609 0.917457 0.427828
917 1 0.711968 0.280626 0.288821
821 1 0.779031 0.285713 0.216852
822 1 0.700903 0.344713 0.222296
918 1 0.773957 0.357356 0.281407
825 1 0.921181 0.290687 0.216613
921 1 0.849101 0.299682 0.291019
826 1 0.850967 0.35329 0.22379
922 1 0.930163 0.348486 0.290241
976 1 0.725683 0.925905 0.36069
1019 1 0.717575 0.713809 0.427152
927 1 0.570177 0.416048 0.290127
832 1 0.559009 0.490964 0.232608
928 1 0.63585 0.49652 0.286962
941 1 0.565051 0.5683 0.290967
943 1 0.642859 0.561891 0.347334
984 1 0.698234 -0.00801772 0.41742
835 1 0.773805 0.432488 0.214641
931 1 0.704315 0.411567 0.282283
836 1 0.711759 0.506877 0.205453
932 1 0.801046 0.498534 0.28149
113 1 0.998984 0.15299 0.146557
935 1 0.854699 0.421674 0.282592
839 1 0.929641 0.424801 0.223758
840 1 0.865775 0.513912 0.213771
936 1 0.927872 0.507684 0.273933
853 1 0.929102 0.584822 0.217489
949 1 0.859225 0.573271 0.28811
845 1 0.638833 0.576598 0.226342
846 1 0.572772 0.638756 0.211494
942 1 0.646978 0.650398 0.286395
859 1 0.631198 0.713753 0.212309
225 1 1.00518 0.291047 0.280579
849 1 0.795626 0.578528 0.206665
945 1 0.714401 0.561489 0.282885
850 1 0.721462 0.647926 0.222961
946 1 0.792725 0.635126 0.288022
959 1 0.707076 0.714828 0.282262
854 1 0.84905 0.63945 0.212893
950 1 0.920206 0.647253 0.28154
1013 1 0.792052 0.644687 0.420461
955 1 0.574639 0.709298 0.28591
860 1 0.574053 0.783756 0.210986
956 1 0.645552 0.791251 0.296294
1024 1 0.574165 0.852191 0.427473
863 1 0.782551 0.722014 0.211895
864 1 0.71375 0.787852 0.209649
960 1 0.777046 0.786286 0.280761
877 1 0.781262 0.859948 0.215501