ITEM: TIMESTEP
0
ITEM: NUMBER OF ATOMS
864
ITEM: BOX BOUNDS pp pp pp
0.0000000000000000e+00 3.1559999999999999e+01
0.0000000000000000e+00 3.1559999999999999e+01
0.0000000000000000e+00 3.1559999999999999e+01
ITEM: ATOMS id type xs ys zs
1 1 0 0 0
2 1 0.0833333 0.0833333 0
3 1 0.0833333 0 0.0833333
4 1 0 0.0833333 0.0833333
5 1 0.166667 0 0
6 1 0.25 0.0833333 0
7 1 0.25 0 0.0833333
8 1 0.166667 0.0833333 0.0833333
9 1 0.333333 0 0
10 1 0.416667 0.0833333 0
11 1 0.416667 0 0.0833333
12 1 0.333333 0.0833333 0.0833333
13 1 0.5 0 0
14 1 0.583333 0.0833333 0
15 1 0.583333 0 0.0833333
16 1 0.5 0.0833333 0.0833333
17 1 0.666667 0 0
18 1 0.75 0.0833333 0
19 1 0.75 0 0.0833333
20 1 0.666667 0.0833333 0.0833333
21 1 0.833333 0 0
22 1 0.916667 0.0833333 0
23 1 0.916667 0 0.0833333
24 1 0.833333 0.0833333 0.0833333
25 1 0 0.166667 0
26 1 0.0833333 0.25 0
27 1 0.0833333 0.166667 0.0833333
28 1 0 0.25 0.0833333
29 1 0.166667 0.166667 0
30 1 0.25 0.25 0
31 1 0.25 0.166667 0.0833333
32 1 0.166667 0.25 0.0833333
33 1 0.333333 0.166667 0
34 1 0.416667 0.25 0
35 1 0.416667 0.166667 0.0833333
36 1 0.333333 0.25 0.0833333
37 1 0.5 0.166667 0
38 1 0.583333 0.25 0
39 1 0.583333 0.166667 0.0833333
40 1 0.5 0.25 0.0833333
41 1 0.666667 0.166667 0
42 1 0.75 0.25 0
43 1 0.75 0.166667 0.0833333
44 1 0.666667 0.25 0.0833333
45 1 0.833333 0.166667 0
46 1 0.916667 0.25 0
47 1 0.916667 0.166667 0.0833333
48 1 0.833333 0.25 0.0833333
49 1 0 0.333333 0
50 1 0.0833333 0.416667 0
51 1 0.0833333 0.333333 0.0833333
52 1 0 0.416667 0.0833333
53 1 0.166667 0.333333 0
54 1 0.25 0.416667 0
55 1 0.25 0.333333 0.0833333
56 1 0.166667 0.416667 0.0833333
57 1 0.333333 0.333333 0
58 1 0.416667 0.416667 0
59 1 0.416667 0.333333 0.0833333
60 1 0.333333 0.416667 0.0833333
61 1 0.5 0.333333 0
62 1 0.583333 0.416667 0
63 1 0.583333 0.333333 0.0833333
64 1 0.5 0.416667 0.0833333
65 1 0.666667 0.333333 0
66 1 0.75 0.416667 0
67 1 0.75 0.333333 0.0833333
68 1 0.666667 0.416667 0.0833333
69 1 0.833333 0.333333 0
70 1 0.916667 0.416667 0
71 1 0.916667 0.333333 0.0833333
72 1 0.833333 0.416667 0.0833333
73 1 0 0 0.166667
74 1 0.0833333 0.0833333 0.166667
75 1 0.0833333 0 0.25
76 1 0 0.0833333 0.25
77 1 0.166667 0 0.166667
78 1 0.25 0.0833333 0.166667
79 1 0.25 0 0.25
80 1 0.166667 0.0833333 0.25
81 1 0.333333 0 0.166667
82 1 0.416667 0.0833333 0.166667
83 1 0.416667 0 0.25
84 1 0.333333 0.0833333 0.25
85 1 0.5 0 0.166667
86 1 0.583333 0.0833333 0.166667
87 1 0.583333 0 0.25
88 1 0.5 0.0833333 0.25
89 1 0.666667 0 0.166667
90 1 0.75 0.0833333 0.166667
91 1 0.75 0 0.25
92 1 0.666667 0.0833333 0.25
93 1 0.833333 0 0.166667
94 1 0.916667 0.0833333 0.166667
95 1 0.916667 0 0.25
96 1 0.833333 0.0833333 0.25
97 1 0 0.166667 0.166667
98 1 0.0833333 0.25 0.166667
99 1 0.0833333 0.166667 0.25
100 1 0 0.25 0.25
101 1 0.166667 0.166667 0.166667
102 1 0.25 0.25 0.166667
103 1 0.25 0.166667 0.25
104 1 0.166667 0.25 0.25
105 1 0.333333 0.166667 0.166667
106 1 0.416667 0.25 0.166667
107 1 0.416667 0.166667 0.25
108 1 0.333333 0.25 0.25
109 1 0.5 0.166667 0.166667
110 1 0.583333 0.25 0.166667
111 1 0.583333 0.166667 0.25
112 1 0.5 0.25 0.25
113 1 0.666667 0.166667 0.166667
114 1 0.75 0.25 0.166667
115 1 0.75 0.166667 0.25
116 1 0.666667 0.25 0.25
117 1 0.833333 0.166667 0.166667
118 1 0.916667 0.25 0.166667
119 1 0.916667 0.166667 0.25
120 1 0.833333 0.25 0.25
121 1 0 0.333333 0.166667
122 1 0.0833333 0.416667 0.166667
123 1 0.0833333 0.333333 0.25
124 1 0 0.416667 0.25
125 1 0.166667 0.333333 0.166667
126 1 0.25 0.416667 0.166667
127 1 0.25 0.333333 0.25
128 1 0.166667 0.416667 0.25
129 1 0.333333 0.333333 0.166667
130 1 0.416667 0.416667 0.166667
131 1 0.416667 0.333333 0.25
132 1 0.333333 0.416667 0.25
133 1 0.5 0.333333 0.166667
134 1 0.583333 0.416667 0.166667
135 1 0.583333 0.333333 0.25
136 1 0.5 0.416667 0.25
137 1 0.666667 0.333333 0.166667
138 1 0.75 0.416667 0.166667
139 1 0.75 0.333333 0.25
140 1 0.666667 0.416667 0.25
141 1 0.833333 0.333333 0.166667
142 1 0.916667 0.416667 0.166667
143 1 0.916667 0.333333 0.25
144 1 0.833333 0.416667 0.25
145 1 0 0 0.333333
146 1 0.0833333 0.0833333 0.333333
147 1 0.0833333 0 0.416667
148 1 0 0.0833333 0.416667
149 1 0.166667 0 0.333333
150 1 0.25 0.0833333 0.333333
151 1 0.25 0 0.416667
152 1 0.166667 0.0833333 0.416667
153 1 0.333333 0 0.333333
154 1 0.416667 0.0833333 0.333333
155 1 0.416667 0 0.416667
156 1 0.333333 0.0833333 0.416667
157 1 0.5 0 0.333333
158 1 0.583333 0.0833333 0.333333
159 1 0.583333 0 0.416667
160 1 0.5 0.0833333 0.416667
161 1 0.666667 0 0.333333
162 1 0.75 0.0833333 0.333333
163 1 0.75 0 0.416667
164 1 0.666667 0.0833333 0.416667
165 1 0.833333 0 0.333333
166 1 0.916667 0.0833333 0.333333
167 1 0.916667 0 0.416667
168 1 0.833333 0.0833333 0.416667
169 1 0 0.166667 0.333333
170 1 0.0833333 0.25 0.333333
171 1 0.0833333 0.166667 0.416667
172 1 0 0.25 0.416667
173 1 0.166667 0.166667 0.333333
174 1 0.25 0.25 0.333333
175 1 0.25 0.166667 0.416667
176 1 0.166667 0.25 0.416667
177 1 0.333333 0.166667 0.333333
178 1 0.416667 0.25 0.333333
179 1 0.416667 0.166667 0.416667
180 1 0.333333 0.25 0.416667
181 1 0.5 0.166667 0.333333
182 1 0.583333 0.25 0.333333
183 1 0.583333 0.166667 0.416667
184 1 0.5 0.25 0.416667
185 1 0.666667 0.166667 0.333333
186 1 0.75 0.25 0.333333
187 1 0.75 0.166667 0.416667
188 1 0.666667 0.25 0.416667
189 1 0.833333 0.166667 0.333333
190 1 0.916667 0.25 0.333333
191 1 0.916667 0.166667 0.416667
192 1 0.833333 0.25 0.416667
193 1 0 0.333333 0.333333
194 1 0.0833333 0.416667 0.333333
195 1 0.0833333 0.333333 0.416667
196 1 0 0.416667 0.416667
197 1 0.166667 0.333333 0.333333
198 1 0.25 0.416667 0.333333
199 1 0.25 0.333333 0.416667
200 1 0.166667 0.416667 0.416667
201 1 0.333333 0.333333 0.333333
202 1 0.416667 0.416667 0.333333
203 1 0.416667 0.333333 0.416667
204 1 0.333333 0.416667 0.416667
205 1 0.5 0.333333 0.333333
206 1 0.583333 0.416667 0.333333
207 1 0.583333 0.333333 0.416667
208 1 0.5 0.416667 0.416667
209 1 0.666667 0.333333 0.333333
210 1 0.75 0.416667 0.333333
211 1 0.75 0.333333 0.416667
212 1 0.666667 0.416667 0.416667
213 1 0.833333 0.333333 0.333333
214 1 0.916667 0.416667 0.333333
215 1 0.916667 0.333333 0.416667
216 1 0.833333 0.416667 0.416667
217 1 0 0 0.5
218 1 0.0833333 0.0833333 0.5
219 1 0.0833333 0 0.583333
220 1 0 0.0833333 0.583333
221 1 0.166667 0 0.5
222 1 0.25 0.0833333 0.5
223 1 0.25 0 0.583333
224 1 0.166667 0.0833333 0.583333
225 1 0.333333 0 0.5
226 1 0.416667 0.0833333 0.5
227 1 0.416667 0 0.583333
228 1 0.333333 0.0833333 0.583333
229 1 0.5 0 0.5
230 1 0.583333 0.0833333 0.5
231 1 0.583333 0 0.583333
232 1 0.5 0.0833333 0.583333
233 1 0.666667 0 0.5
234 1 0.75 0.0833333 0.5
235 1 0.75 0 0.583333
236 1 0.666667 0.0833333 0.583333
237 1 0.833333 0 0.5
238 1 0.916667 0.0833333 0.5
239 1 0.916667 0 0.583333
240 1 0.833333 0.0833333 0.583333
241 1 0 0.166667 0.5
242 1 0.0833333 0.25 0.5
243 1 0.0833333 0.166667 0.583333
244 1 0 0.25 0.583333
245 1 0.166667 0.166667 0.5
246 1 0.25 0.25 0.5
247 1 0.25 0.166667 0.583333
248 1 0.166667 0.25 0.583333
249 1 0.333333 0.166667 0.5
250 1 0.416667 0.25 0.5
251 1 0.416667 0.166667 0.583333
252 1 0.333333 0.25 0.583333
253 1 0.5 0.166667 0.5
254 1 0.583333 0.25 0.5
255 1 0.583333 0.166667 0.583333
256 1 0.5 0.25 0.583333
257 1 0.666667 0.166667 0.5
258 1 0.75 0.25 0.5
259 1 0.75 0.166667 0.583333
260 1 0.666667 0.25 0.583333
261 1 0.833333 0.166667 0.5
262 1 0.916667 0.25 0.5
263 1 0.916667 0.166667 0.583333
264 1 0.833333 0.25 0.583333
265 1 0 0.333333 0.5
266 1 0.0833333 0.416667 0.5
267 1 0.0833333 0.333333 0.583333
268 1 0 0.416667 0.583333
269 1 0.166667 0.333333 0.5
270 1 0.25 0.416667 0.5
271 1 0.25 0.333333 0.583333
272 1 0.166667 0.416667 0.583333
273 1 0.333333 0.333333 0.5
274 1 0.416667 0.416667 0.5
275 1 0.416667 0.333333 0.583333
276 1 0.333333 0.416667 0.583333
277 1 0.5 0.333333 0.5
278 1 0.583333 0.416667 0.5
279 1 0.583333 0.333333 0.583333
280 1 0.5 0.416667 0.583333
281 1 0.666667 0.333333 0.5
282 1 0.75 0.416667 0.5
283 1 0.75 0.333333 0.583333
284 1 0.666667 0.416667 0.583333
285 1 0.833333 0.333333 0.5
286 1 0.916667 0.416667 0.5
287 1 0.916667 0.333333 0.583333
288 1 0.833333 0.416667 0.583333
289 1 0 0 0.666667
290 1 0.0833333 0.0833333 0.666667
291 1 0.0833333 0 0.75
292 1 0 0.0833333 0.75
361 1 0 0 0.833333
362 1 0.0833333 0.0833333 0.833333
293 1 0.166667 0 0.666667
294 1 0.25 0.0833333 0.666667
295 1 0.25 0 0.75
296 1 0.166667 0.0833333 0.75
365 1 0.166667 0 0.833333
366 1 0.25 0.0833333 0.833333
297 1 0.333333 0 0.666667
298 1 0.416667 0.0833333 0.666667
299 1 0.416667 0 0.75
300 1 0.333333 0.0833333 0.75
369 1 0.333333 0 0.833333
370 1 0.416667 0.0833333 0.833333
301 1 0.5 0 0.666667
302 1 0.583333 0.0833333 0.666667
303 1 0.583333 0 0.75
304 1 0.5 0.0833333 0.75
373 1 0.5 0 0.833333
374 1 0.583333 0.0833333 0.833333
305 1 0.666667 0 0.666667
306 1 0.75 0.0833333 0.666667
307 1 0.75 0 0.75
308 1 0.666667 0.0833333 0.75
377 1 0.666667 0 0.833333
378 1 0.75 0.0833333 0.833333
309 1 0.833333 0 0.666667
310 1 0.916667 0.0833333 0.666667
311 1 0.916667 0 0.75
312 1 0.833333 0.0833333 0.75
381 1 0.833333 0 0.833333
382 1 0.916667 0.0833333 0.833333
313 1 0 0.166667 0.666667
314 1 0.0833333 0.25 0.666667
315 1 0.0833333 0.166667 0.75
316 1 0 0.25 0.75
385 1 0 0.166667 0.833333
386 1 0.0833333 0.25 0.833333
317 1 0.166667 0.166667 0.666667
318 1 0.25 0.25 0.666667
319 1 0.25 0.166667 0.75
320 1 0.166667 0.25 0.75
389 1 0.166667 0.166667 0.833333
390 1 0.25 0.25 0.833333
321 1 0.333333 0.166667 0.666667
322 1 0.416667 0.25 0.666667
323 1 0.416667 0.166667 0.75
324 1 0.333333 0.25 0.75
393 1 0.333333 0.166667 0.833333
394 1 0.416667 0.25 0.833333
325 1 0.5 0.166667 0.666667
326 1 0.583333 0.25 0.666667
327 1 0.583333 0.166667 0.75
328 1 0.5 0.25 0.75
397 1 0.5 0.166667 0.833333
398 1 0.583333 0.25 0.833333
329 1 0.666667 0.166667 0.666667
330 1 0.75 0.25 0.666667
331 1 0.75 0.166667 0.75
332 1 0.666667 0.25 0.75
401 1 0.666667 0.166667 0.833333
402 1 0.75 0.25 0.833333
333 1 0.833333 0.166667 0.666667
334 1 0.916667 0.25 0.666667
335 1 0.916667 0.166667 0.75
336 1 0.833333 0.25 0.75
405 1 0.833333 0.166667 0.833333
406 1 0.916667 0.25 0.833333
337 1 0 0.333333 0.666667
338 1 0.0833333 0.416667 0.666667
339 1 0.0833333 0.333333 0.75
340 1 0 0.416667 0.75
409 1 0 0.333333 0.833333
410 1 0.0833333 0.416667 0.833333
341 1 0.166667 0.333333 0.666667
342 1 0.25 0.416667 0.666667
343 1 0.25 0.333333 0.75
344 1 0.166667 0.416667 0.75
413 1 0.166667 0.333333 0.833333
414 1 0.25 0.416667 0.833333
345 1 0.333333 0.333333 0.666667
346 1 0.416667 0.416667 0.666667
347 1 0.416667 0.333333 0.75
348 1 0.333333 0.416667 0.75
417 1 0.333333 0.333333 0.833333
418 1 0.416667 0.416667 0.833333
349 1 0.5 0.333333 0.666667
350 1 0.583333 0.416667 0.666667
351 1 0.583333 0.333333 0.75
352 1 0.5 0.416667 0.75
421 1 0.5 0.333333 0.833333
422 1 0.583333 0.416667 0.833333
353 1 0.666667 0.333333 0.666667
354 1 0.75 0.416667 0.666667
355 1 0.75 0.333333 0.75
356 1 0.666667 0.416667 0.75
425 1 0.666667 0.333333 0.833333
426 1 0.75 0.416667 0.833333
357 1 0.833333 0.333333 0.666667
358 1 0.916667 0.416667 0.666667
359 1 0.916667 0.333333 0.75
360 1 0.833333 0.416667 0.75
429 1 0.833333 0.333333 0.833333
430 1 0.916667 0.416667 0.833333
363 1 0.0833333 0 0.916667
364 1 0 0.0833333 0.916667
367 1 0.25 0 0.916667
368 1 0.166667 0.0833333 0.916667
371 1 0.416667 0 0.916667
372 1 0.333333 0.0833333 0.916667
375 1 0.583333 0 0.916667
376 1 0.5 0.0833333 0.916667
379 1 0.75 0 0.916667
380 1 0.666667 0.0833333 0.916667
383 1 0.916667 0 0.916667
384 1 0.833333 0.0833333 0.916667
387 1 0.0833333 0.166667 0.916667
388 1 0 0.25 0.916667
391 1 0.25 0.166667 0.916667
392 1 0.166667 0.25 0.916667
395 1 0.416667 0.166667 0.916667
396 1 0.333333 0.25 0.916667
399 1 0.583333 0.166667 0.916667
400 1 0.5 0.25 0.916667
403 1 0.75 0.166667 0.916667
404 1 0.666667 0.25 0.916667
407 1 0.916667 0.166667 0.916667
408 1 0.833333 0.25 0.916667
411 1 0.0833333 0.333333 0.916667
412 1 0 0.416667 0.916667
415 1 0.25 0.333333 0.916667
416 1 0.166667 0.416667 0.916667
419 1 0.416667 0.333333 0.916667
420 1 0.333333 0.416667 0.916667
423 1 0.583333 0.333333 0.916667
424 1 0.5 0.416667 0.916667
427 1 0.75 0.333333 0.916667
428 1 0.666667 0.416667 0.916667
431 1 0.916667 0.333333 0.916667
432 1 0.833333 0.416667 0.916667
433 1 0 0.5 0
434 1 0.0833333 0.583333 0
435 1 0.0833333 0.5 0.0833333
436 1 0 0.583333 0.0833333
437 1 0.166667 0.5 0
438 1 0.25 0.583333 0
439 1 0.25 0.5 0.0833333
440 1 0.166667 0.583333 0.0833333
441 1 0.333333 0.5 0
442 1 0.416667 0.583333 0
443 1 0.416667 0.5 0.0833333
444 1 0.333333 0.583333 0.0833333
445 1 0.5 0.5 0
446 1 0.583333 0.583333 0
447 1 0.583333 0.5 0.0833333
448 1 0.5 0.583333 0.0833333
449 1 0.666667 0.5 0
450 1 0.75 0.583333 0
451 1 0.75 0.5 0.0833333
452 1 0.666667 0.583333 0.0833333
453 1 0.833333 0.5 0
454 1 0.916667 0.583333 0
455 1 0.916667 0.5 0.0833333
456 1 0.833333 0.583333 0.0833333
457 1 0 0.666667 0
458 1 0.0833333 0.75 0
459 1 0.0833333 0.666667 0.0833333
460 1 0 0.75 0.0833333
481 1 0 0.833333 0
483 1 0.0833333 0.833333 0.0833333
461 1 0.166667 0.666667 0
462 1 0.25 0.75 0
463 1 0.25 0.666667 0.0833333
464 1 0.166667 0.75 0.0833333
485 1 0.166667 0.833333 0
487 1 0.25 0.833333 0.0833333
465 1 0.333333 0.666667 0
466 1 0.416667 0.75 0
467 1 0.416667 0.666667 0.0833333
468 1 0.333333 0.75 0.0833333
489 1 0.333333 0.833333 0
491 1 0.416667 0.833333 0.0833333
469 1 0.5 0.666667 0
470 1 0.583333 0.75 0
471 1 0.583333 0.666667 0.0833333
472 1 0.5 0.75 0.0833333
493 1 0.5 0.833333 0
495 1 0.583333 0.833333 0.0833333
473 1 0.666667 0.666667 0
474 1 0.75 0.75 0
475 1 0.75 0.666667 0.0833333
476 1 0.666667 0.75 0.0833333
497 1 0.666667 0.833333 0
499 1 0.75 0.833333 0.0833333
477 1 0.833333 0.666667 0
478 1 0.916667 0.75 0
479 1 0.916667 0.666667 0.0833333
480 1 0.833333 0.75 0.0833333
501 1 0.833333 0.833333 0
503 1 0.916667 0.833333 0.0833333
482 1 0.0833333 0.916667 0
484 1 0 0.916667 0.0833333
486 1 0.25 0.916667 0
488 1 0.166667 0.916667 0.0833333
490 1 0.416667 0.916667 0
492 1 0.333333 0.916667 0.0833333
494 1 0.583333 0.916667 0
496 1 0.5 0.916667 0.0833333
498 1 0.75 0.916667 0
500 1 0.666667 0.916667 0.0833333
502 1 0.916667 0.916667 0
504 1 0.833333 0.916667 0.0833333
505 1 0 0.5 0.166667
506 1 0.0833333 0.583333 0.166667
507 1 0.0833333 0.5 0.25
508 1 0 0.583333 0.25
509 1 0.166667 0.5 0.166667
510 1 0.25 0.583333 0.166667
511 1 0.25 0.5 0.25
512 1 0.166667 0.583333 0.25
513 1 0.333333 0.5 0.166667
514 1 0.416667 0.583333 0.166667
515 1 0.416667 0.5 0.25
516 1 0.333333 0.583333 0.25
517 1 0.5 0.5 0.166667
518 1 0.583333 0.583333 0.166667
519 1 0.583333 0.5 0.25
520 1 0.5 0.583333 0.25
521 1 0.666667 0.5 0.166667
522 1 0.75 0.583333 0.166667
523 1 0.75 0.5 0.25
524 1 0.666667 0.583333 0.25
525 1 0.833333 0.5 0.166667
526 1 0.916667 0.583333 0.166667
527 1 0.916667 0.5 0.25
528 1 0.833333 0.583333 0.25
529 1 0 0.666667 0.166667
530 1 0.0833333 0.75 0.166667
531 1 0.0833333 0.666667 0.25
532 1 0 0.75 0.25
553 1 0 0.833333 0.166667
555 1 0.0833333 0.833333 0.25
533 1 0.166667 0.666667 0.166667
534 1 0.25 0.75 0.166667
535 1 0.25 0.666667 0.25
536 1 0.166667 0.75 0.25
557 1 0.166667 0.833333 0.166667
559 1 0.25 0.833333 0.25
537 1 0.333333 0.666667 0.166667
538 1 0.416667 0.75 0.166667
539 1 0.416667 0.666667 0.25
540 1 0.333333 0.75 0.25
561 1 0.333333 0.833333 0.166667
563 1 0.416667 0.833333 0.25
541 1 0.5 0.666667 0.166667
542 1 0.583333 0.75 0.166667
543 1 0.583333 0.666667 0.25
544 1 0.5 0.75 0.25
565 1 0.5 0.833333 0.166667
567 1 0.583333 0.833333 0.25
545 1 0.666667 0.666667 0.166667
546 1 0.75 0.75 0.166667
547 1 0.75 0.666667 0.25
548 1 0.666667 0.75 0.25
569 1 0.666667 0.833333 0.166667
571 1 0.75 0.833333 0.25
549 1 0.833333 0.666667 0.166667
550 1 0.916667 0.75 0.166667
551 1 0.916667 0.666667 0.25
552 1 0.833333 0.75 0.25
573 1 0.833333 0.833333 0.166667
575 1 0.916667 0.833333 0.25
554 1 0.0833333 0.916667 0.166667
556 1 0 0.916667 0.25
558 1 0.25 0.916667 0.166667
560 1 0.166667 0.916667 0.25
562 1 0.416667 0.916667 0.166667
564 1 0.333333 0.916667 0.25
566 1 0.583333 0.916667 0.166667
568 1 0.5 0.916667 0.25
570 1 0.75 0.916667 0.166667
572 1 0.666667 0.916667 0.25
574 1 0.916667 0.916667 0.166667
576 1 0.833333 0.916667 0.25
577 1 0 0.5 0.333333
578 1 0.0833333 0.583333 0.333333
579 1 0.0833333 0.5 0.416667
580 1 0 0.583333 0.416667
581 1 0.166667 0.5 0.333333
582 1 0.25 0.583333 0.333333
583 1 0.25 0.5 0.416667
584 1 0.166667 0.583333 0.416667
585 1 0.333333 0.5 0.333333
586 1 0.416667 0.583333 0.333333
587 1 0.416667 0.5 0.416667
588 1 0.333333 0.583333 0.416667
589 1 0.5 0.5 0.333333
590 1 0.583333 0.583333 0.333333
591 1 0.583333 0.5 0.416667
592 1 0.5 0.583333 0.416667
593 1 0.666667 0.5 0.333333
594 1 0.75 0.583333 0.333333
595 1 0.75 0.5 0.416667
596 1 0.666667 0.583333 0.416667
597 1 0.833333 0.5 0.333333
598 1 0.916667 0.583333 0.333333
599 1 0.916667 0.5 0.416667
600 1 0.833333 0.583333 0.416667
601 1 0 0.666667 0.333333
602 1 0.0833333 0.75 0.333333
603 1 0.0833333 0.666667 0.416667
604 1 0 0.75 0.416667
625 1 0 0.833333 0.333333
627 1 0.0833333 0.833333 0.416667
605 1 0.166667 0.666667 0.333333
606 1 0.25 0.75 0.333333
607 1 0.25 0.666667 0.416667
608 1 0.166667 0.75 0.416667
629 1 0.166667 0.833333 0.333333
631 1 0.25 0.833333 0.416667
609 1 0.333333 0.666667 0.333333
610 1 0.416667 0.75 0.333333
611 1 0.416667 0.666667 0.416667
612 1 0.333333 0.75 0.416667
633 1 0.333333 0.833333 0.333333
635 1 0.416667 0.833333 0.416667
613 1 0.5 0.666667 0.333333
614 1 0.583333 0.75 0.333333
615 1 0.583333 0.666667 0.416667
616 1 0.5 0.75 0.416667
637 1 0.5 0.833333 0.333333
639 1 0.583333 0.833333 0.416667
617 1 0.666667 0.666667 0.333333
618 1 0.75 0.75 0.333333
619 1 0.75 0.666667 0.416667
620 1 0.666667 0.75 0.416667
641 1 0.666667 0.833333 0.333333
643 1 0.75 0.833333 0.416667
621 1 0.833333 0.666667 0.333333
622 1 0.916667 0.75 0.333333
623 1 0.916667 0.666667 0.416667
624 1 0.833333 0.75 0.416667
645 1 0.833333 0.833333 0.333333
647 1 0.916667 0.833333 0.416667
626 1 0.0833333 0.916667 0.333333
628 1 0 0.916667 0.416667
630 1 0.25 0.916667 0.333333
632 1 0.166667 0.916667 0.416667
634 1 0.416667 0.916667 0.333333
636 1 0.333333 0.916667 0.416667
638 1 0.583333 0.916667 0.333333
640 1 0.5 0.916667 0.416667
642 1 0.75 0.916667 0.333333
644 1 0.666667 0.916667 0.416667
646 1 0.916667 0.916667 0.333333
648 1 0.833333 0.916667 0.416667
649 1 0 0.5 0.5
650 1 0.0833333 0.583333 0.5
651 1 0.0833333 0.5 0.583333
652 1 0 0.583333 0.583333
653 1 0.166667 0.5 0.5
654 1 0.25 0.583333 0.5
655 1 0.25 0.5 0.583333
656 1 0.166667 0.583333 0.583333
657 1 0.333333 0.5 0.5
658 1 0.416667 0.583333 0.5
659 1 0.416667 0.5 0.583333
660 1 0.333333 0.583333 0.583333
661 1 0.5 0.5 0.5
662 1 0.583333 0.583333 0.5
663 1 0.583333 0.5 0.583333
664 1 0.5 0.583333 0.583333
665 1 0.666667 0.5 0.5
666 1 0.75 0.583333 0.5
667 1 0.75 0.5 0.583333
668 1 0.666667 0.583333 0.583333
669 1 0.833333 0.5 0.5
670 1 0.916667 0.583333 0.5
671 1 0.916667 0.5 0.583333
672 1 0.833333 0.583333 0.583333
673 1 0 0.666667 0.5
674 1 0.0833333 0.75 0.5
675 1 0.0833333 0.666667 0.583333
676 1 0 0.75 0.583333
697 1 0 0.833333 0.5
699 1 0.0833333 0.833333 0.583333
677 1 0.166667 0.666667 0.5
678 1 0.25 0.75 0.5
679 1 0.25 0.666667 0.583333
680 1 0.166667 0.75 0.583333
701 1 0.166667 0.833333 0.5
703 1 0.25 0.833333 0.583333
681 1 0.333333 0.666667 0.5
682 1 0.416667 0.75 0.5
683 1 0.416667 0.666667 0.583333
684 1 0.333333 0.75 0.583333
705 1 0.333333 0.833333 0.5
707 1 0.416667 0.833333 0.583333
685 1 0.5 0.666667 0.5
686 1 0.583333 0.75 0.5
687 1 0.583333 0.666667 0.583333
688 1 0.5 0.75 0.583333
709 1 0.5 0.833333 0.5
711 1 0.583333 0.833333 0.583333
689 1 0.666667 0.666667 0.5
690 1 0.75 0.75 0.5
691 1 0.75 0.666667 0.583333
692 1 0.666667 0.75 0.583333
713 1 0.666667 0.833333 0.5
715 1 0.75 0.833333 0.583333
693 1 0.833333 0.666667 0.5
694 1 0.916667 0.75 0.5
695 1 0.916667 0.666667 0.583333
696 1 0.833333 0.75 0.583333
717 1 0.833333 0.833333 0.5
719 1 0.916667 0.833333 0.583333
698 1 0.0833333 0.916667 0.5
700 1 0 0.916667 0.583333
702 1 0.25 0.916667 0.5
704 1 0.166667 0.916667 0.583333
706 1 0.416667 0.916667 0.5
708 1 0.333333 0.916667 0.583333
710 1 0.583333 0.916667 0.5
712 1 0.5 0.916667 0.583333
714 1 0.75 0.916667 0.5
716 1 0.666667 0.916667 0.583333
718 1 0.916667 0.916667 0.5
720 1 0.833333 0.916667 0.583333
721 1 0 0.5 0.666667
722 1 0.0833333 0.583333 0.666667
723 1 0.0833333 0.5 0.75
724 1 0 0.583333 0.75
793 1 0 0.5 0.833333
794 1 0.0833333 0.583333 0.833333
725 1 0.166667 0.5 0.666667
726 1 0.25 0.583333 0.666667
727 1 0.25 0.5 0.75
728 1 0.166667 0.583333 0.75
797 1 0.166667 0.5 0.833333
798 1 0.25 0.583333 0.833333
729 1 0.333333 0.5 0.666667
730 1 0.416667 0.583333 0.666667
731 1 0.416667 0.5 0.75
732 1 0.333333 0.583333 0.75
801 1 0.333333 0.5 0.833333
802 1 0.416667 0.583333 0.833333
733 1 0.5 0.5 0.666667
734 1 0.583333 0.583333 0.666667
735 1 0.583333 0.5 0.75
736 1 0.5 0.583333 0.75
805 1 0.5 0.5 0.833333
806 1 0.583333 0.583333 0.833333
737 1 0.666667 0.5 0.666667
738 1 0.75 0.583333 0.666667
739 1 0.75 0.5 0.75
740 1 0.666667 0.583333 0.75
809 1 0.666667 0.5 0.833333
810 1 0.75 0.583333 0.833333
741 1 0.833333 0.5 0.666667
742 1 0.916667 0.583333 0.666667
743 1 0.916667 0.5 0.75
744 1 0.833333 0.583333 0.75
813 1 0.833333 0.5 0.833333
814 1 0.916667 0.583333 0.833333
745 1 0 0.666667 0.666667
746 1 0.0833333 0.75 0.666667
747 1 0.0833333 0.666667 0.75
748 1 0 0.75 0.75
769 1 0 0.833333 0.666667
771 1 0.0833333 0.833333 0.75
817 1 0 0.666667 0.833333
818 1 0.0833333 0.75 0.833333
841 1 0 0.833333 0.833333
749 1 0.166667 0.666667 0.666667
750 1 0.25 0.75 0.666667
751 1 0.25 0.666667 0.75
752 1 0.166667 0.75 0.75
773 1 0.166667 0.833333 0.666667
775 1 0.25 0.833333 0.75
821 1 0.166667 0.666667 0.833333
822 1 0.25 0.75 0.833333
845 1 0.166667 0.833333 0.833333
753 1 0.333333 0.666667 0.666667
754 1 0.416667 0.75 0.666667
755 1 0.416667 0.666667 0.75
756 1 0.333333 0.75 0.75
777 1 0.333333 0.833333 0.666667
779 1 0.416667 0.833333 0.75
825 1 0.333333 0.666667 0.833333
826 1 0.416667 0.75 0.833333
849 1 0.333333 0.833333 0.833333
757 1 0.5 0.666667 0.666667
758 1 0.583333 0.75 0.666667
759 1 0.583333 0.666667 0.75
760 1 0.5 0.75 0.75
781 1 0.5 0.833333 0.666667
783 1 0.583333 0.833333 0.75
829 1 0.5 0.666667 0.833333
830 1 0.583333 0.75 0.833333
853 1 0.5 0.833333 0.833333
761 1 0.666667 0.666667 0.666667
762 1 0.75 0.75 0.666667
763 1 0.75 0.666667 0.75
764 1 0.666667 0.75 0.75
785 1 0.666667 0.833333 0.666667
787 1 0.75 0.833333 0.75
833 1 0.666667 0.666667 0.833333
834 1 0.75 0.75 0.833333
857 1 0.666667 0.833333 0.833333
765 1 0.833333 0.666667 0.666667
766 1 0.916667 0.75 0.666667
767 1 0.916667 0.666667 0.75
768 1 0.833333 0.75 0.75
789 1 0.833333 0.833333 0.666667
791 1 0.916667 0.833333 0.75
837 1 0.833333 0.666667 0.833333
838 1 0.916667 0.75 0.833333
861 1 0.833333 0.833333 0.833333
770 1 0.0833333 0.916667 0.666667
772 1 0 0.916667 0.75
842 1 0.0833333 0.916667 0.833333
774 1 0.25 0.916667 0.666667
776 1 0.166667 0.916667 0.75
846 1 0.25 0.916667 0.833333
778 1 0.416667 0.916667 0.666667
780 1 0.333333 0.916667 0.75
850 1 0.416667 0.916667 0.833333
782 1 0.583333 0.916667 0.666667
784 1 0.5 0.916667 0.75
854 1 0.583333 0.916667 0.833333
786 1 0.75 0.916667 0.666667
788 1 0.666667 0.916667 0.75
858 1 0.75 0.916667 0.833333
790 1 0.916667 0.916667 0.666667
792 1 0.833333 0.916667 0.75
862 1 0.916667 0.916667 0.833333
795 1 0.0833333 0.5 0.916667
796 1 0 0.583333 0.916667
799 1 0.25 0.5 0.916667
800 1 0.166667 0.583333 0.916667
803 1 0.416667 0.5 0.916667
804 1 0.333333 0.583333 0.916667
807 1 0.583333 0.5 0.916667
808 1 0.5 0.583333 0.916667
811 1 0.75 0.5 0.916667
812 1 0.666667 0.583333 0.916667
815 1 0.916667 0.5 0.916667
816 1 0.833333 0.583333 0.916667
819 1 0.0833333 0.666667 0.916667
820 1 0 0.75 0.916667
843 1 0.0833333 0.833333 0.916667
823 1 0.25 0.666667 0.916667
824 1 0.166667 0.75 0.916667
847 1 0.25 0.833333 0.916667
827 1 0.416667 0.666667 0.916667
828 1 0.333333 0.75 0.916667
851 1 0.416667 0.833333 0.916667
831 1 0.583333 0.666667 0.916667
832 1 0.5 0.75 0.916667
855 1 0.583333 0.833333 0.916667
835 1 0.75 0.666667 0.916667
836 1 0.666667 0.75 0.916667
859 1 0.75 0.833333 0.916667
839 1 0.916667 0.666667 0.916667
840 1 0.833333 0.75 0.916667
863 1 0.916667 0.833333 0.916667
844 1 0 0.916667 0.916667
848 1 0.166667 0.916667 0.916667
852 1 0.333333 0.916667 0.916667
856 1 0.5 0.916667 0.916667
860 1 0.666667 0.916667 0.916667
864 1 0.833333 0.916667 0.916667
ITEM: TIMESTEP
500
ITEM: NUMBER OF ATOMS
864
ITEM: BOX BOUNDS pp pp pp
-1.1555497159317749e+00 3.2715549715930067e+01
-1.1555497159317749e+00 3.2715549715930067e+01
-1.1555497159317749e+00 3.2715549715930067e+01
ITEM: ATOMS id type xs ys zs
226 1 0.428064 0.0633725 0.485385
33 1 0.331998 0.16177 0.00857
441 1 0.337565 0.478911 0.0013011
4 1 0.998091 0.091577 0.0685581
595 1 0.749161 0.491906 0.402421
91 1 0.770396 0.0116303 0.254284
216 1 0.82267 0.410455 0.409094
8 1 0.147745 0.0713259 0.0715855
599 1 0.923727 0.496293 0.412792
221 1 0.177724 0.00306994 0.483012
215 1 0.917835 0.338312 0.421196
12 1 0.313083 0.0855791 0.0707216
241 1 0.00263938 0.174695 0.487735
593 1 0.648134 0.492743 0.326807
214 1 0.918387 0.406512 0.340737
16 1 0.49499 0.0909291 0.102141
89 1 0.673691 0.00414886 0.180445
49 1 0.000355412 0.32062 0.0100321
213 1 0.831752 0.330858 0.34627
20 1 0.67946 0.0987244 0.0889409
212 1 0.665441 0.422028 0.413163
579 1 0.102224 0.482795 0.426981
211 1 0.747545 0.332829 0.417638
24 1 0.838352 0.0646675 0.0806196
589 1 0.498595 0.499748 0.337298
585 1 0.313292 0.475147 0.298734
27 1 0.0743419 0.175133 0.0889164
28 1 0.996962 0.243501 0.0770545
253 1 0.497721 0.152927 0.484637
577 1 0.0203831 0.489429 0.369373
31 1 0.23312 0.163234 0.0822049
32 1 0.165542 0.240257 0.0765513
17 1 0.655049 0.00411451 0.0250503
523 1 0.736005 0.493301 0.274056
35 1 0.40668 0.186435 0.0846253
36 1 0.317722 0.243587 0.0646076
14 1 0.592985 0.0830493 0.0119166
437 1 0.177412 0.480155 0.00372158
39 1 0.578497 0.167243 0.0810347
40 1 0.487461 0.252868 0.0627004
246 1 0.241383 0.235723 0.494312
285 1 0.835131 0.344658 0.499337
43 1 0.75962 0.165771 0.0829567
44 1 0.684172 0.238014 0.0873403
527 1 0.932994 0.490799 0.268606
443 1 0.439206 0.483847 0.0686032
47 1 0.919142 0.165217 0.0746996
48 1 0.83269 0.259496 0.0852057
591 1 0.572823 0.496844 0.431509
282 1 0.741516 0.41854 0.48458
51 1 0.0735058 0.315995 0.0798544
52 1 0.989218 0.41299 0.085096
198 1 0.253439 0.390393 0.322093
66 1 0.764252 0.440029 0.00534272
55 1 0.256589 0.322582 0.0872886
56 1 0.191941 0.416985 0.0936904
218 1 0.0706157 0.0919331 0.480317
197 1 0.168415 0.325884 0.332747
59 1 0.423383 0.350502 0.0937919
60 1 0.33431 0.398125 0.0760974
196 1 0.00976244 0.397314 0.414648
195 1 0.0901218 0.339275 0.42295
63 1 0.589651 0.327268 0.0758907
64 1 0.515442 0.405346 0.0874031
25 1 0.00148869 0.177985 0.00557855
194 1 0.096295 0.41292 0.326767
67 1 0.751335 0.331812 0.108268
68 1 0.681633 0.408135 0.125367
669 1 0.830275 0.482822 0.489809
193 1 0.992463 0.330039 0.335049
71 1 0.905831 0.35104 0.0693337
72 1 0.839344 0.434685 0.106135
210 1 0.748038 0.398975 0.335592
74 1 0.067539 0.0771624 0.166043
286 1 0.914797 0.418861 0.483357
76 1 0.00754165 0.0813098 0.249655
587 1 0.43056 0.487997 0.423493
78 1 0.238739 0.0935194 0.157737
87 1 0.5746 0.0203638 0.241998
80 1 0.185032 0.0741042 0.245853
209 1 0.650241 0.316161 0.339155
82 1 0.412341 0.0964689 0.172869
208 1 0.496329 0.410622 0.442192
84 1 0.329293 0.0735369 0.240932
657 1 0.3313 0.477108 0.472369
86 1 0.600491 0.0688928 0.155347
242 1 0.091419 0.246877 0.492178
88 1 0.47974 0.0676485 0.261463
207 1 0.575936 0.323012 0.415036
90 1 0.749799 0.0835004 0.157101
206 1 0.579714 0.405429 0.345435
92 1 0.669909 0.089927 0.24502
507 1 0.0876655 0.493745 0.25124
94 1 0.93082 0.073679 0.160736
205 1 0.485217 0.338616 0.340262
96 1 0.85346 0.0881186 0.23289
97 1 0.0109695 0.161448 0.177747
98 1 0.0850537 0.260367 0.167897
99 1 0.0845333 0.181429 0.249679
100 1 0.99992 0.253656 0.243404
101 1 0.157465 0.157114 0.163679
102 1 0.236226 0.238863 0.154185
103 1 0.255782 0.163727 0.242134
104 1 0.17198 0.256099 0.237313
105 1 0.327474 0.157124 0.148215
106 1 0.456261 0.229508 0.161989
107 1 0.414595 0.158292 0.252669
108 1 0.34155 0.23859 0.219133
109 1 0.50263 0.14219 0.195906
110 1 0.585756 0.252411 0.148737
111 1 0.590939 0.172405 0.262858
112 1 0.497261 0.246866 0.26982
113 1 0.664166 0.164748 0.185841
114 1 0.755317 0.23306 0.159361
115 1 0.746646 0.160129 0.264188
116 1 0.678876 0.250868 0.262929
117 1 0.853072 0.158003 0.150356
118 1 0.92964 0.231783 0.158182
119 1 0.938064 0.175153 0.258148
120 1 0.851752 0.230158 0.233912
121 1 0.99093 0.322518 0.153695
122 1 0.0732702 0.421662 0.173473
123 1 0.0763215 0.336333 0.250464
124 1 0.0038436 0.40947 0.256664
125 1 0.168699 0.329972 0.151199
126 1 0.275307 0.425163 0.196848
127 1 0.263519 0.310948 0.236123
128 1 0.164665 0.389463 0.243402
129 1 0.349915 0.335673 0.166491
130 1 0.446768 0.414552 0.164423
131 1 0.422635 0.317784 0.227643
132 1 0.372401 0.403683 0.246421
133 1 0.51146 0.324751 0.153766
134 1 0.582264 0.422906 0.189345
135 1 0.586873 0.301759 0.247531
136 1 0.503776 0.443103 0.255532
137 1 0.661129 0.318665 0.173931
138 1 0.755036 0.41011 0.20555
139 1 0.748113 0.313632 0.217793
140 1 0.665145 0.41176 0.261841
141 1 0.846206 0.332921 0.166585
142 1 0.91657 0.417347 0.188229
143 1 0.902629 0.317459 0.268958
144 1 0.835238 0.390821 0.262646
204 1 0.312632 0.400454 0.40703
146 1 0.0845131 0.097415 0.312683
11 1 0.422861 0.0105284 0.0748989
148 1 0.00226867 0.0930736 0.407307
203 1 0.40562 0.324421 0.431263
150 1 0.259753 0.0762119 0.334303
278 1 0.588527 0.401402 0.496973
152 1 0.173792 0.083937 0.415786
202 1 0.398796 0.414024 0.35092
154 1 0.423021 0.0588428 0.342433
435 1 0.0639762 0.490026 0.0840849
156 1 0.334066 0.070873 0.408251
201 1 0.347991 0.317047 0.336774
158 1 0.566687 0.0736113 0.32653