ITEM: TIMESTEP
11000
ITEM: NUMBER OF ATOMS
4000
ITEM: BOX BOUNDS pp pp pp
0.0000000000000000e+00 5.2599999999999994e+01
0.0000000000000000e+00 5.2599999999999994e+01
0.0000000000000000e+00 5.2599999999999994e+01
ITEM: ATOMS id type xs ys zs
8 1 0.099542 0.0435033 0.0464791
43 1 0.0542545 0.0950888 0.043453
2 1 0.0491578 0.0427165 0.00490386
202 1 0.0461156 0.0540676 0.0952192
241 1 0.00218075 0.0988518 0.0975128
45 1 0.0990092 0.0976913 0.00104457
206 1 0.145339 0.043945 0.0905577
12 1 0.199694 0.0613011 0.0386211
245 1 0.10128 0.093137 0.096162
209 1 0.199124 0.000895615 0.0838206
7 1 0.151094 0.00242842 0.0335644
6 1 0.152225 0.0575936 0.000891825
16 1 0.299732 0.0535709 0.0515839
210 1 0.247086 0.0486805 0.0884686
11 1 0.248057 0.00157354 0.0416986
10 1 0.257901 0.0570812 0.00499473
20 1 0.397906 0.0521417 0.0486775
13 1 0.302535 0.00666015 0.00620675
15 1 0.356597 0.00844904 0.065358
59 1 0.455794 0.0932598 0.0432591
218 1 0.447189 0.0484108 0.0986908
18 1 0.44779 0.0460046 0.0036647
24 1 0.506337 0.0450019 0.0396546
28 1 0.598059 0.0448582 0.0531338
261 1 0.506164 0.0861501 0.0950071
22 1 0.55653 0.0528551 0.00751705
67 1 0.646211 0.0930604 0.061564
32 1 0.694705 0.0507353 0.0523766
25 1 0.601426 0.00652606 0.000330982
26 1 0.645806 0.0576182 0.00260491
230 1 0.752892 0.0432829 0.0980794
71 1 0.736171 0.09914 0.0590134
30 1 0.751235 0.0545642 0.00611186
36 1 0.809866 0.0540734 0.045212
234 1 0.84913 0.0472071 0.0932104
35 1 0.852248 0.00185826 0.0407772
233 1 0.806595 0.00331273 0.0999209
4 1 0.993931 0.0522613 0.0575265
40 1 0.900713 0.0514804 0.0453322
79 1 0.943346 0.0999578 0.0528276
1 1 0.998706 2.29112e-05 0.00150731
281 1 0.00330549 0.19268 0.0973777
242 1 0.0440448 0.148843 0.093682
285 1 0.0996123 0.194311 0.0982854
42 1 0.0526986 0.14934 0.0029536
47 1 0.151061 0.100442 0.056491
48 1 0.105732 0.147941 0.0467864
289 1 0.195467 0.19942 0.0966415
87 1 0.149491 0.194356 0.0450721
246 1 0.150946 0.147439 0.0926893
89 1 0.199906 0.195483 0.00112021
51 1 0.258342 0.10759 0.0471055
52 1 0.201717 0.149156 0.0501044
56 1 0.298274 0.160065 0.0535097
55 1 0.353749 0.104777 0.0529935
60 1 0.399097 0.157543 0.0462401
253 1 0.307519 0.104173 0.0978439
254 1 0.355273 0.153767 0.0937173
53 1 0.303886 0.106632 0.0017172
54 1 0.348034 0.158509 0.00369236
257 1 0.405232 0.101211 0.0950295
58 1 0.450217 0.149757 0.0126523
64 1 0.503009 0.151208 0.0598319
63 1 0.548556 0.100041 0.0536893
262 1 0.560832 0.162025 0.0877346
62 1 0.541845 0.164242 0.00576257
105 1 0.60321 0.199368 0.010485
68 1 0.611265 0.150922 0.0513036
72 1 0.697295 0.161238 0.0517696
66 1 0.649843 0.1557 0.00243204
69 1 0.698899 0.103959 0.00963887
109 1 0.696042 0.197511 0.000368636
270 1 0.750234 0.149387 0.0989663
76 1 0.798049 0.139994 0.0468088
111 1 0.760502 0.199552 0.0521938
70 1 0.742887 0.144156 0.00643265
273 1 0.801169 0.10143 0.0940141
113 1 0.800005 0.194104 0.00617276
75 1 0.860598 0.10691 0.0414326
115 1 0.84896 0.197774 0.0557725
80 1 0.901116 0.150049 0.0595839
44 1 0.997757 0.144145 0.0456412
119 1 0.954672 0.198928 0.0522708
117 1 0.904476 0.196441 0.00926343
83 1 0.0513915 0.201153 0.0527758
123 1 0.0459481 0.297029 0.0388871
282 1 0.0467701 0.250342 0.0926823
88 1 0.100955 0.255945 0.0470319
92 1 0.197663 0.253129 0.0551671
91 1 0.252278 0.201284 0.0496222
96 1 0.290499 0.257406 0.051061
297 1 0.397494 0.204497 0.0942574
95 1 0.350019 0.206216 0.0460962
100 1 0.393568 0.252147 0.0477282
294 1 0.342319 0.247343 0.0993436
99 1 0.447122 0.20769 0.0533748
97 1 0.402834 0.207596 0.00223818
298 1 0.443954 0.258806 0.0937272
104 1 0.498454 0.263506 0.0462615
101 1 0.489566 0.205194 0.0105203
98 1 0.448592 0.260141 0.00381241
301 1 0.500216 0.215056 0.0978796
103 1 0.549803 0.230676 0.0561191
145 1 0.597804 0.299314 0.000130542
107 1 0.651495 0.204766 0.052404
108 1 0.605285 0.260943 0.0516709
305 1 0.607612 0.206569 0.0968357
106 1 0.655612 0.250146 0.000870337
112 1 0.70261 0.247434 0.0546835
151 1 0.746836 0.298923 0.0510226
116 1 0.802143 0.258109 0.0486615
120 1 0.893174 0.250625 0.0517424
114 1 0.8546 0.236748 0.001036
153 1 0.80064 0.298643 0.00129423
84 1 0.995842 0.247178 0.0417288
118 1 0.942737 0.250071 0.00356116
121 1 0.990906 0.298191 0.000631315
128 1 0.0973722 0.34711 0.0453177
163 1 0.0380317 0.392524 0.0410909
325 1 0.0903978 0.300887 0.0939898
321 1 0.00209258 0.300344 0.0926822
322 1 0.0430324 0.349025 0.0979436
127 1 0.144154 0.300514 0.0470339
326 1 0.142968 0.351311 0.0992291
132 1 0.198179 0.352632 0.0407698
167 1 0.142333 0.398047 0.0488843
131 1 0.248956 0.30091 0.0516648
171 1 0.246968 0.39381 0.0426829
136 1 0.297176 0.352251 0.0401996
333 1 0.296906 0.311757 0.0922994
330 1 0.247562 0.352928 0.0957043
135 1 0.337221 0.305731 0.0337581
334 1 0.349777 0.356709 0.0932965
337 1 0.394078 0.301915 0.0967709
140 1 0.402334 0.353383 0.053146
139 1 0.450923 0.313202 0.0501205
144 1 0.496079 0.356504 0.0496041
177 1 0.401372 0.39849 0.00134873
143 1 0.551618 0.305348 0.0515427
183 1 0.554768 0.385488 0.0493977
342 1 0.535673 0.345165 0.0985408
345 1 0.600208 0.313421 0.0987809
148 1 0.606393 0.351707 0.0473248
147 1 0.668588 0.306647 0.0481391
346 1 0.651435 0.355087 0.0950057
152 1 0.698859 0.361667 0.0597111
185 1 0.605603 0.398481 0.00102008
156 1 0.79548 0.34666 0.0500012
353 1 0.7962 0.302222 0.098651
155 1 0.850281 0.306604 0.0458659
195 1 0.850239 0.397405 0.0571852
357 1 0.893956 0.307049 0.0979158
159 1 0.947316 0.301891 0.0492004
160 1 0.902554 0.345729 0.0466985
124 1 0.992924 0.34564 0.0434529
362 1 0.0539843 0.454111 0.0982326
2003 1 0.0467547 0.49508 0.0503596
2001 1 0.00282403 0.497295 0.00202955
165 1 0.0915617 0.404639 0.00883446
168 1 0.104695 0.452065 0.0503869
172 1 0.193449 0.446778 0.0532124
2009 1 0.19416 0.494692 0.01558
169 1 0.196633 0.406073 0.00403362
373 1 0.295329 0.401844 0.094528
176 1 0.299707 0.444928 0.043403
2011 1 0.249898 0.4886 0.0470636
370 1 0.248414 0.448886 0.0955176
175 1 0.359749 0.406268 0.0511468
2015 1 0.351749 0.49613 0.0501906
2019 1 0.462153 0.49942 0.047855
179 1 0.451613 0.40048 0.0520819
180 1 0.411613 0.450238 0.0511949
2217 1 0.411146 0.49594 0.0945401
184 1 0.519828 0.441783 0.0462476
2025 1 0.599816 0.498964 0.00508081
188 1 0.604786 0.447064 0.0539673
187 1 0.647419 0.403379 0.0558775
386 1 0.651588 0.4645 0.0970748
189 1 0.697929 0.401474 0.00316343
192 1 0.705074 0.442915 0.0440434
191 1 0.757699 0.403563 0.0542156
196 1 0.799406 0.452714 0.0566245
2031 1 0.754142 0.499168 0.0512976
390 1 0.747742 0.453478 0.0966058
2033 1 0.805586 0.494689 0.00555625
200 1 0.896568 0.451597 0.0554754
194 1 0.857655 0.451164 0.00633395
193 1 0.80534 0.403321 0.00558046
199 1 0.944403 0.401009 0.0574528
164 1 0.99559 0.441885 0.0536116
198 1 0.943891 0.464027 0.00300507
208 1 0.0963372 0.0480803 0.149535
203 1 0.043708 0.00933669 0.147746
445 1 0.100948 0.0992119 0.189595
406 1 0.153074 0.0528885 0.189659
212 1 0.199394 0.0477599 0.138873
449 1 0.195259 0.0998163 0.18782
207 1 0.148436 0.000343343 0.144766
249 1 0.201599 0.0995556 0.10449
251 1 0.260425 0.0874987 0.14326
409 1 0.203706 0.00366894 0.197689
211 1 0.253261 0.00379993 0.145736
213 1 0.307517 0.00611421 0.107977
216 1 0.311333 0.0516643 0.153266
214 1 0.357824 0.0570975 0.101455
414 1 0.355687 0.0513484 0.199512
215 1 0.351823 0.00284673 0.155666
217 1 0.401871 0.00293007 0.111697
220 1 0.406203 0.0647149 0.150365
259 1 0.462203 0.0997688 0.143983
219 1 0.4588 0.0104346 0.149491
222 1 0.552429 0.0434875 0.103424
265 1 0.598634 0.096748 0.101941
224 1 0.514454 0.0641779 0.152948
228 1 0.589865 0.0576434 0.151176
425 1 0.597052 0.00626338 0.199885
223 1 0.532705 0.00376802 0.153274
226 1 0.648465 0.045181 0.108957
267 1 0.646395 0.0955724 0.158137
232 1 0.689949 0.0474329 0.164745
269 1 0.703125 0.0874965 0.110903
430 1 0.75334 0.0485157 0.195141
236 1 0.806089 0.0538324 0.147547
275 1 0.85272 0.0958838 0.168747
238 1 0.946424 0.0566771 0.111928
204 1 0.995463 0.0487501 0.148284
237 1 0.90455 0.00266922 0.103255
240 1 0.900288 0.0467931 0.157878
279 1 0.946818 0.0993397 0.155663
239 1 0.953235 0.00228265 0.151566
243 1 0.046522 0.10517 0.146301
244 1 0.00168782 0.158792 0.149763
248 1 0.0983442 0.153129 0.149251
247 1 0.142605 0.100391 0.144475
252 1 0.198469 0.159534 0.150714
446 1 0.147518 0.145067 0.194992
250 1 0.248936 0.148173 0.110296
450 1 0.244488 0.146176 0.197761
293 1 0.302029 0.197162 0.103243
255 1 0.35282 0.105575 0.14835
256 1 0.303969 0.156121 0.164266
295 1 0.353137 0.1993 0.146564
260 1 0.401766 0.152648 0.157773
258 1 0.447081 0.150592 0.103686
458 1 0.455143 0.158557 0.18749
263 1 0.550473 0.117805 0.139117
264 1 0.505362 0.160121 0.14592
266 1 0.645387 0.145586 0.104599
268 1 0.600882 0.154348 0.154221
466 1 0.647438 0.155541 0.197479
272 1 0.69467 0.144055 0.143362
271 1 0.753086 0.101362 0.152801
311 1 0.745679 0.194809 0.148945
276 1 0.800566 0.151818 0.158512
274 1 0.850537 0.1541 0.10604
277 1 0.897243 0.102382 0.101581
280 1 0.897981 0.140813 0.151912
317 1 0.895444 0.198343 0.113629
278 1 0.946324 0.157338 0.105104
478 1 0.955889 0.150772 0.199763
283 1 0.0520561 0.204482 0.139785
288 1 0.0959521 0.257675 0.14979
323 1 0.0468858 0.299338 0.152742
482 1 0.0508815 0.252125 0.196583
287 1 0.14495 0.203729 0.148671
286 1 0.141805 0.261046 0.104793
292 1 0.193492 0.259524 0.148042
525 1 0.10064 0.296594 0.198367
486 1 0.157082 0.246671 0.199357
290 1 0.238771 0.253917 0.103574
291 1 0.242106 0.209781 0.151504
296 1 0.296208 0.25534 0.151581
493 1 0.294677 0.20816 0.198954
494 1 0.343186 0.250384 0.193875
300 1 0.394085 0.255612 0.149224
335 1 0.344469 0.298819 0.145466
341 1 0.492735 0.298484 0.108579
299 1 0.444631 0.207855 0.146311
304 1 0.494079 0.251269 0.155676
303 1 0.554341 0.204915 0.146244
302 1 0.549833 0.272464 0.107947
308 1 0.599423 0.250871 0.147604
309 1 0.699448 0.200499 0.103462
306 1 0.658961 0.260992 0.10377
307 1 0.644407 0.201501 0.14583
506 1 0.649834 0.250385 0.199995
313 1 0.796472 0.20954 0.102552
310 1 0.744213 0.255896 0.108511
312 1 0.701019 0.246334 0.158654
351 1 0.747911 0.297987 0.153117
316 1 0.797005 0.25377 0.157776
513 1 0.791411 0.206423 0.199377
314 1 0.852311 0.241871 0.105467
315 1 0.848713 0.202081 0.161356
320 1 0.899842 0.248582 0.149435
355 1 0.845466 0.297711 0.144172
514 1 0.848112 0.252327 0.197425
318 1 0.945963 0.254767 0.101761
319 1 0.956664 0.206661 0.153465
284 1 0.999012 0.260857 0.150639
359 1 0.944129 0.297088 0.151864
365 1 0.0900941 0.391307 0.102548
328 1 0.0878722 0.349789 0.15129
363 1 0.0487384 0.399733 0.151288
329 1 0.192262 0.304405 0.102337
327 1 0.144761 0.309198 0.150511
526 1 0.136765 0.349452 0.198959
332 1 0.192088 0.356602 0.148364
569 1 0.191511 0.395642 0.198564
331 1 0.245066 0.302133 0.150743
573 1 0.294959 0.388121 0.198828
336 1 0.300297 0.349715 0.142004
340 1 0.391615 0.342674 0.152462
375 1 0.348244 0.39856 0.146108
534 1 0.342351 0.346715 0.195398
338 1 0.450046 0.350768 0.104768
377 1 0.404385 0.396774 0.105761
339 1 0.442784 0.307875 0.154857
379 1 0.445196 0.39427 0.155136
344 1 0.497837 0.348571 0.151869
343 1 0.551173 0.307755 0.158528
348 1 0.590438 0.357183 0.153935
385 1 0.593507 0.394741 0.103195
349 1 0.699244 0.314508 0.104042
347 1 0.638191 0.303627 0.151182
352 1 0.691513 0.352218 0.159956
350 1 0.747953 0.354806 0.105494
356 1 0.7971 0.338602 0.152211
397 1 0.894038 0.398819 0.102648
354 1 0.846119 0.351959 0.104267
395 1 0.843761 0.399478 0.154728
360 1 0.900003 0.348112 0.151637
324 1 0.999337 0.347097 0.154053
358 1 0.944273 0.348192 0.100729
364 1 0.00811014 0.4497 0.162288
2201 1 0.00430184 0.494341 0.109501
369 1 0.194748 0.404633 0.101705
366 1 0.155285 0.457936 0.104716
368 1 0.101432 0.448492 0.145227
367 1 0.137709 0.40356 0.142234
566 1 0.147936 0.456967 0.19206
372 1 0.194892 0.44661 0.157923
2211 1 0.250462 0.498727 0.141944
371 1 0.247242 0.400009 0.149759
570 1 0.245916 0.447626 0.196217
2213 1 0.297384 0.492384 0.101204
2215 1 0.342675 0.496512 0.147006
374 1 0.35601 0.447614 0.104207
376 1 0.30089 0.446378 0.142745
2221 1 0.49668 0.494494 0.101267
378 1 0.450976 0.447928 0.106603
2219 1 0.452204 0.498815 0.152918
380 1 0.40559 0.446388 0.150518
578 1 0.449941 0.451385 0.197293
381 1 0.505056 0.413977 0.103347
382 1 0.562071 0.455823 0.103687
384 1 0.503769 0.452975 0.155431
383 1 0.54907 0.403343 0.155869
387 1 0.645183 0.402196 0.147327
388 1 0.606583 0.451256 0.154944
392 1 0.690143 0.452729 0.149008
389 1 0.703836 0.40542 0.11067
391 1 0.736532 0.401372 0.161954
396 1 0.780999 0.440638 0.147523
2231 1 0.742808 0.495028 0.155315
393 1 0.80036 0.404657 0.106589
394 1 0.852226 0.448949 0.106388
400 1 0.893772 0.44043 0.154497
2237 1 0.9087 0.494878 0.111229
361 1 0.999676 0.408635 0.114504
399 1 0.943286 0.400662 0.153851
398 1 0.951376 0.449217 0.106462
2239 1 0.958509 0.499658 0.157679
402 1 0.0437968 0.0466718 0.203305
609 1 0.190104 0.00111343 0.299213
408 1 0.100794 0.0504406 0.242042
412 1 0.193694 0.0594202 0.240716
606 1 0.154266 0.0523394 0.29322
407 1 0.154166 0.0128536 0.24284
410 1 0.253711 0.0521419 0.207172
416 1 0.298726 0.0445435 0.251759
649 1 0.203755 0.0964675 0.297829
411 1 0.243131 0.00452609 0.254509
617 1 0.397884 0.0111841 0.294297
453 1 0.308514 0.095906 0.206903
614 1 0.349245 0.0507358 0.296739
420 1 0.394702 0.0545521 0.248711
415 1 0.352415 0.0056916 0.243817
418 1 0.447606 0.0556243 0.20163
424 1 0.498986 0.0634016 0.254462
618 1 0.451847 0.0529175 0.297249
421 1 0.49868 0.00257 0.204616
423 1 0.549187 0.00275045 0.265707
422 1 0.549135 0.0474002 0.210439
427 1 0.657137 0.000300958 0.255421
426 1 0.650189 0.0500214 0.208493
428 1 0.601222 0.0600781 0.250751
626 1 0.644075 0.0524245 0.296363
432 1 0.69933 0.0599398 0.264761
429 1 0.704916 0.000678225 0.211543
431 1 0.753183 0.0118585 0.25058
629 1 0.706566 3.63084e-05 0.295843
436 1 0.800681 0.0542108 0.247291
434 1 0.854973 0.0426285 0.206768
475 1 0.850822 0.0994121 0.238367
634 1 0.845049 0.0510232 0.289191
677 1 0.896464 0.0923461 0.297002
438 1 0.953271 0.0522347 0.204746
440 1 0.902577 0.0442643 0.2518
404 1 0.997199 0.0461915 0.250251
479 1 0.954051 0.0958827 0.263452
441 1 0.00270879 0.101852 0.200661
481 1 0.00815217 0.19435 0.203157
443 1 0.0533949 0.10204 0.238517
442 1 0.0551196 0.154014 0.200769
444 1 0.00820282 0.147124 0.251668
483 1 0.0530851 0.197968 0.25088
642 1 0.0590991 0.145631 0.292151
489 1 0.199315 0.195298 0.202895
645 1 0.10203 0.100793 0.288695
447 1 0.154621 0.107511 0.240261
448 1 0.106108 0.15543 0.247728
646 1 0.152838 0.138103 0.293494
487 1 0.151119 0.195518 0.244973
685 1 0.108028 0.199181 0.2963
452 1 0.207958 0.151291 0.256076
451 1 0.260442 0.100179 0.257355
456 1 0.293148 0.148862 0.243907
491 1 0.257334 0.196423 0.249151
454 1 0.351395 0.142958 0.200438
455 1 0.350946 0.101238 0.254029
460 1 0.388808 0.153694 0.253386
459 1 0.453305 0.115267 0.245591
457 1 0.402759 0.106723 0.204555
661 1 0.493661 0.108777 0.297411
464 1 0.498363 0.161883 0.257781
499 1 0.44379 0.19859 0.256103
465 1 0.593216 0.108099 0.20692
462 1 0.547828 0.150043 0.210141
461 1 0.500532 0.110312 0.204116
463 1 0.546974 0.107043 0.262569
509 1 0.696549 0.195802 0.200686
467 1 0.642872 0.101957 0.249811
469 1 0.694304 0.111567 0.208212
468 1 0.600944 0.151596 0.254898
507 1 0.645874 0.19656 0.246323
472 1 0.699097 0.159601 0.255212
470 1 0.744435 0.148227 0.202537
471 1 0.748021 0.100746 0.249872
473 1 0.794036 0.106532 0.202392
511 1 0.746893 0.198456 0.252858
476 1 0.796257 0.153801 0.250422
474 1 0.853065 0.155187 0.200527
477 1 0.909802 0.102362 0.209199
480 1 0.902296 0.150096 0.251556
519 1 0.950454 0.196028 0.248657
521 1 0.0013957 0.293758 0.211518
485 1 0.0983113 0.20626 0.200962
523 1 0.0615189 0.298707 0.254705
484 1 0.00352057 0.243553 0.255045
488 1 0.110303 0.248824 0.242143
686 1 0.15026 0.247192 0.297486
490 1 0.239799 0.256414 0.201908
492 1 0.202784 0.255979 0.259538
496 1 0.295647 0.251453 0.252799
537 1 0.390386 0.298384 0.200701
495 1 0.33986 0.201643 0.252443
500 1 0.384703 0.256379 0.25518
535 1 0.339974 0.297079 0.243536
498 1 0.443669 0.252343 0.202931
497 1 0.40248 0.200714 0.202197
541 1 0.491847 0.296133 0.201565
539 1 0.442 0.296166 0.257049
504 1 0.493834 0.248289 0.255908
502 1 0.549963 0.254068 0.200424
501 1 0.501962 0.207953 0.203016
503 1 0.550928 0.213021 0.251846
505 1 0.593992 0.200341 0.200183
543 1 0.548373 0.291374 0.255469
745 1 0.600563 0.293289 0.299566
508 1 0.603281 0.247711 0.244638
547 1 0.65106 0.289591 0.261774
706 1 0.65356 0.239573 0.296332
510 1 0.746453 0.247204 0.201502
512 1 0.702193 0.244566 0.255301
516 1 0.796292 0.249216 0.249048
551 1 0.74982 0.299629 0.248894
753 1 0.796792 0.290106 0.29887
515 1 0.845659 0.205148 0.245441
555 1 0.852624 0.296186 0.267873
517 1 0.904856 0.201002 0.202554
518 1 0.951222 0.255678 0.200906
557 1 0.900092 0.297566 0.208334
520 1 0.901638 0.237696 0.257691
718 1 0.95487 0.240814 0.299274
559 1 0.941999 0.297905 0.25834
522 1 0.0561044 0.349856 0.206763
528 1 0.0966395 0.354675 0.25452
563 1 0.0419032 0.397019 0.256919
529 1 0.176706 0.303006 0.212351
527 1 0.133707 0.301817 0.262656
532 1 0.199734 0.344035 0.255203
567 1 0.152974 0.393071 0.251937
530 1 0.243446 0.353019 0.201987
533 1 0.291739 0.301056 0.202237
531 1 0.251538 0.300426 0.256786
536 1 0.302844 0.351179 0.253447
540 1 0.384289 0.349174 0.244849
737 1 0.395132 0.311211 0.299524
581 1 0.49902 0.391003 0.201349
538 1 0.444984 0.344772 0.206353
738 1 0.447777 0.353281 0.287584
544 1 0.49792 0.339586 0.253024
777 1 0.404956 0.396759 0.294831
542 1 0.549832 0.353714 0.207389
545 1 0.597044 0.300598 0.205291
548 1 0.595068 0.348741 0.263508
546 1 0.647248 0.343995 0.210574
587 1 0.639923 0.394292 0.25628
552 1 0.697637 0.347936 0.249006
585 1 0.603068 0.396479 0.202276
549 1 0.70234 0.300075 0.203107
550 1 0.750095 0.350379 0.203108
750 1 0.748814 0.353985 0.296538
556 1 0.797086 0.349083 0.248321
553 1 0.808474 0.300729 0.212519
554 1 0.852835 0.347169 0.201174
560 1 0.89404 0.344146 0.26133
595 1 0.843632 0.397556 0.250157
597 1 0.896947 0.399324 0.205588
561 1 0.99462 0.388502 0.203243
524 1 0.998454 0.342094 0.256479
558 1 0.94861 0.343596 0.205723
599 1 0.95237 0.395378 0.25661
2401 1 0.00563349 0.494709 0.202655
2403 1 0.0519411 0.494206 0.255702
562 1 0.0564575 0.445983 0.202721
762 1 0.0517732 0.445117 0.299223
564 1 0.00243272 0.451148 0.25336
2407 1 0.151397 0.496488 0.2447
565 1 0.102264 0.408125 0.200091
568 1 0.100489 0.451245 0.247539
766 1 0.148896 0.448005 0.294914
2413 1 0.290656 0.499045 0.201905
571 1 0.248555 0.403375 0.251359
572 1 0.201286 0.446812 0.251388
576 1 0.294942 0.441618 0.244756
2411 1 0.248517 0.493021 0.253628
577 1 0.385187 0.403829 0.201474
574 1 0.349866 0.455537 0.201678
575 1 0.343848 0.401787 0.255943
2415 1 0.344195 0.498566 0.252039
580 1 0.394153 0.451756 0.254784
774 1 0.345837 0.449179 0.295603
579 1 0.444619 0.40798 0.249182
778 1 0.449406 0.458033 0.286887
584 1 0.492493 0.453558 0.245428
582 1 0.550853 0.453597 0.201223
781 1 0.502642 0.40413 0.295872
583 1 0.547823 0.400024 0.252082
589 1 0.689993 0.406945 0.204623
588 1 0.60083 0.450993 0.258078
586 1 0.655568 0.459077 0.205699
592 1 0.697278 0.446205 0.255407
593 1 0.796315 0.40739 0.209674
590 1 0.744306 0.445282 0.209241
591 1 0.740508 0.400082 0.257258
790 1 0.751518 0.449945 0.296807
2629 1 0.711204 0.498816 0.295645
793 1 0.807849 0.405387 0.299412
596 1 0.806021 0.466528 0.258228
594 1 0.849569 0.456189 0.203015
600 1 0.893022 0.456109 0.25163
2637 1 0.898906 0.498842 0.29738
598 1 0.94671 0.443476 0.206596
798 1 0.949088 0.453209 0.296562
603 1 0.0606668 0.00374149 0.348628
801 1 0.00464108 0.00211956 0.395583
602 1 0.0491424 0.0495627 0.301113
643 1 0.0606073 0.0996489 0.344456
604 1 0.00907413 0.0444463 0.349045
802 1 0.0629718 0.0545738 0.396847
809 1 0.19917 0.00285373 0.394199
608 1 0.108512 0.0550671 0.345942
849 1 0.199421 0.0945962 0.399149
607 1 0.148293 0.0052068 0.350766
610 1 0.253047 0.0541867 0.302714
612 1 0.201139 0.0427724 0.346063
810 1 0.251402 0.0493776 0.395322
613 1 0.298551 0.00868326 0.303819
653 1 0.303641 0.086686 0.304872
616 1 0.307167 0.0494289 0.358817
655 1 0.35013 0.0910796 0.35491
615 1 0.353583 0.00193154 0.345362
620 1 0.403335 0.0396251 0.356911
624 1 0.494817 0.0590969 0.355792
625 1 0.595203 0.000426227 0.308783
622 1 0.553045 0.0475374 0.303893
628 1 0.591843 0.0640941 0.350157
623 1 0.545078 0.00915534 0.353348
667 1 0.648895 0.0991474 0.354282
632 1 0.689842 0.050868 0.35044
826 1 0.65109 0.0424207 0.398655
630 1 0.75418 0.0434435 0.308783
671 1 0.752391 0.0910615 0.355184
673 1 0.800066 0.0939286 0.303959
636 1 0.802645 0.0440022 0.352251
675 1 0.848177 0.0979206 0.352601
834 1 0.851378 0.0519287 0.397995
637 1 0.886272 0.00585022 0.30103
638 1 0.949851 0.047379 0.301921
640 1 0.900816 0.0525808 0.348248
838 1 0.947321 0.0497428 0.38849
641 1 0.00398989 0.101547 0.301366
845 1 0.0983498 0.110443 0.392744
644 1 0.00756205 0.147064 0.356858
683 1 0.0498104 0.195557 0.346845
648 1 0.104667 0.156004 0.342655
647 1 0.150389 0.10177 0.343589
846 1 0.157612 0.149467 0.388112
885 1 0.104166 0.186247 0.397895
650 1 0.262286 0.148351 0.301512
651 1 0.250131 0.100753 0.348395
652 1 0.201561 0.141138 0.346411
689 1 0.201679 0.196441 0.30277
691 1 0.252878 0.199453 0.352521
889 1 0.203637 0.18855 0.390956
657 1 0.397806 0.108242 0.301794
656 1 0.306132 0.139079 0.352074
654 1 0.34311 0.153432 0.305241
660 1 0.392471 0.149886 0.353334
658 1 0.44452 0.155046 0.303756
659 1 0.451697 0.109578 0.355317
664 1 0.494743 0.157953 0.345544
901 1 0.48708 0.19618 0.396001
699 1 0.438623 0.194574 0.353259
662 1 0.549729 0.160429 0.302575
663 1 0.546794 0.111234 0.351144
668 1 0.596283 0.155425 0.35478
865 1 0.5987 0.108381 0.399848
665 1 0.604093 0.106987 0.305643
666 1 0.647955 0.16312 0.312209
669 1 0.692765 0.109044 0.306407
672 1 0.697142 0.153381 0.355423
866 1 0.652617 0.148909 0.398001
670 1 0.751006 0.145456 0.305063
711 1 0.748529 0.199949 0.354935
870 1 0.746996 0.154957 0.399448
709 1 0.702514 0.198746 0.311939
869 1 0.705652 0.102939 0.399752
674 1 0.846696 0.147849 0.302542
717 1 0.888304 0.192142 0.305552
676 1 0.801205 0.150789 0.356239
680 1 0.895931 0.15026 0.35469
681 1 0.99289 0.19171 0.305401
679 1 0.957557 0.100781 0.355215
678 1 0.93987 0.148348 0.303387
682 1 0.0613728 0.244904 0.303418
684 1 0.00618393 0.241931 0.351169
721 1 0.00838659 0.288125 0.300257
687 1 0.153372 0.203197 0.344178
688 1 0.102619 0.246708 0.353212
886 1 0.155674 0.2405 0.395445
690 1 0.251953 0.246088 0.306017
693 1 0.299696 0.200664 0.309066
692 1 0.206485 0.254061 0.35051
696 1 0.299127 0.247355 0.356785
697 1 0.384745 0.202555 0.301651
694 1 0.342006 0.249693 0.311288
695 1 0.343794 0.203007 0.353183
735 1 0.344923 0.298405 0.355992
698 1 0.442512 0.250546 0.305299
700 1 0.404824 0.24609 0.352473
704 1 0.488888 0.254982 0.345237
701 1 0.501296 0.204122 0.302125
703 1 0.548987 0.208194 0.360201
705 1 0.596429 0.202479 0.300726
702 1 0.547485 0.251498 0.309078
707 1 0.653295 0.207526 0.356963
708 1 0.600862 0.253235 0.356805
747 1 0.655037 0.295342 0.342094
905 1 0.601715 0.201137 0.398493
710 1 0.745008 0.249041 0.306627
712 1 0.703186 0.252265 0.350874
716 1 0.795721 0.253725 0.361748
713 1 0.79337 0.208 0.300916
949 1 0.703716 0.297181 0.398046
714 1 0.846109 0.249855 0.308518
715 1 0.841135 0.206174 0.356743
720 1 0.896215 0.245815 0.363175
757 1 0.894811 0.293493 0.314655
719 1 0.946109 0.202619 0.351226
759 1 0.948913 0.286766 0.347157
723 1 0.0484889 0.300386 0.354281
725 1 0.0981022 0.300288 0.312232
722 1 0.0557456 0.349783 0.301016
763 1 0.0525289 0.399639 0.360487
728 1 0.0984717 0.347622 0.351407
761 1 0.00237746 0.390431 0.30736
729 1 0.1904 0.303093 0.306492
726 1 0.14422 0.355657 0.309351
727 1 0.151677 0.301829 0.363637
732 1 0.194598 0.356836 0.351052
926 1 0.14819 0.359417 0.393554
733 1 0.297863 0.306064 0.306286
731 1 0.246629 0.306245 0.347333
730 1 0.244364 0.352345 0.300638
736 1 0.292253 0.34973 0.354103
773 1 0.294895 0.395195 0.302885
771 1 0.245024 0.398739 0.356903
734 1 0.341145 0.349601 0.301744
740 1 0.39192 0.345537 0.356976
775 1 0.345691 0.396398 0.348474
741 1 0.496112 0.305125 0.304684
739 1 0.4488 0.307513 0.349736
744 1 0.492025 0.364329 0.345865
742 1 0.546832 0.348643 0.305046
743 1 0.55448 0.305967 0.359884
989 1 0.699122 0.391359 0.395008
748 1 0.60038 0.346381 0.348945
746 1 0.653969 0.348836 0.303222
946 1 0.649455 0.349711 0.399487
787 1 0.638747 0.398895 0.350059
749 1 0.705284 0.301009 0.302087
751 1 0.754144 0.303064 0.349506
752 1 0.706118 0.349434 0.347191
950 1 0.757069 0.351587 0.399503
756 1 0.797166 0.356622 0.346201
954 1 0.841925 0.353008 0.398222
755 1 0.844328 0.301626 0.360405
754 1 0.845981 0.34193 0.308231
760 1 0.899529 0.348842 0.354401
957 1 0.895611 0.300371 0.393931
758 1 0.948281 0.349801 0.312976
724 1 0.996807 0.344505 0.354411
797 1 0.902793 0.39443 0.305259
799 1 0.947949 0.396344 0.352272
958 1 0.945626 0.350744 0.399413
961 1 0.995653 0.390469 0.397979
2603 1 0.0517555 0.499384 0.345055
2601 1 0.000664607 0.49428 0.303495
962 1 0.0492459 0.455449 0.394151
764 1 0.00545952 0.443244 0.348661
768 1 0.0968304 0.45067 0.358587
2605 1 0.103892 0.488424 0.30603
769 1 0.195464 0.40056 0.302705
765 1 0.101629 0.405619 0.302257
767 1 0.135088 0.402551 0.348214
772 1 0.185407 0.446077 0.354809
970 1 0.246817 0.460404 0.391258
770 1 0.246948 0.455474 0.304518
776 1 0.29958 0.449172 0.354819
2613 1 0.297178 0.494316 0.30062
2615 1 0.346689 0.497334 0.344692
974 1 0.348002 0.448078 0.39365
780 1 0.396724 0.446841 0.350366
2813 1 0.304304 0.493769 0.394096
981 1 0.49749 0.403866 0.399059
779 1 0.442441 0.403752 0.345089
784 1 0.491864 0.45279 0.344112
2821 1 0.490188 0.49778 0.389562
785 1 0.588453 0.400304 0.303322
782 1 0.548568 0.45933 0.301694
783 1 0.543267 0.412015 0.352808
985 1 0.590884 0.40104 0.385567
788 1 0.598825 0.455208 0.345806
786 1 0.64992 0.443519 0.302301
986 1 0.65081 0.445597 0.399742
2631 1 0.754106 0.499322 0.351653
2829 1 0.70807 0.498823 0.399806
789 1 0.704452 0.405447 0.310866
792 1 0.700957 0.46267 0.347446
791 1 0.754714 0.403717 0.346216
2635 1 0.852749 0.498964 0.347546
795 1 0.850424 0.401004 0.352008
796 1 0.801839 0.449617 0.351378
994 1 0.852092 0.45327 0.397225
794 1 0.852539 0.451999 0.303525
800 1 0.894965 0.444391 0.350881
2639 1 0.957467 0.498434 0.350378
2837 1 0.907371 0.498235 0.397683
841 1 0.00590199 0.0947837 0.401157
803 1 0.0549023 0.00276422 0.445001
805 1 0.112571 0.00452074 0.403443
807 1 0.159543 0.000934298 0.454057
808 1 0.100386 0.0507542 0.448262
806 1 0.15225 0.0557152 0.418907
1006 1 0.153952 0.0492031 0.494904
812 1 0.2082 0.0520445 0.455694
816 1 0.297147 0.0462743 0.442687
1053 1 0.296722 0.0971456 0.498873
1010 1 0.257795 0.0451423 0.497717
814 1 0.353319 0.0363789 0.406446
853 1 0.302208 0.0967641 0.403982
820 1 0.396916 0.0378452 0.451232
855 1 0.350573 0.0895838 0.45114
821 1 0.495375 0.0019804 0.402081
818 1 0.447892 0.049063 0.404171
1018 1 0.450657 0.0393795 0.498135
823 1 0.550708 0.000152777 0.437613
1025 1 0.592189 5.28258e-05 0.490454
822 1 0.546981 0.0524794 0.403813
824 1 0.500352 0.0574972 0.449815
1022 1 0.549845 0.0519438 0.495113
828 1 0.60514 0.0516827 0.435457
832 1 0.699729 0.0524163 0.444205
1026 1 0.644832 0.0409042 0.483
1069 1 0.691467 0.0950992 0.498464
1065 1 0.60257 0.0913897 0.488026
831 1 0.744975 0.00324942 0.443487
830 1 0.750012 0.0517975 0.40069
871 1 0.749967 0.0950012 0.459099
1030 1 0.755218 0.0429389 0.496422
835 1 0.85321 0.00618458 0.447948
833 1 0.80846 0.00310926 0.405331
836 1 0.80071 0.0532431 0.446459
875 1 0.858069 0.0870784 0.448363
1073 1 0.80915 0.094087 0.493413
1077 1 0.898431 0.0938925 0.497968
1001 1 0.997694 0.0060298 0.498044
804 1 0.998552 0.0441797 0.444856
839 1 0.953688 0.00137332 0.446965
840 1 0.907484 0.0512035 0.449993
879 1 0.955578 0.0982413 0.448768
837 1 0.902421 0.00831582 0.406097
842 1 0.0434162 0.144518 0.40537
843 1 0.0602039 0.101464 0.44977
883 1 0.0495175 0.194246 0.446654
848 1 0.0945336 0.152487 0.455403
847 1 0.148212 0.110376 0.443929
852 1 0.199851 0.153132 0.450477
850 1 0.251819 0.141225 0.400152
893 1 0.297243 0.198904 0.402658
851 1 0.24844 0.100691 0.451742
891 1 0.258347 0.18464 0.448008
854 1 0.342458 0.152428 0.400895
857 1 0.394126 0.104617 0.403575
897 1 0.395424 0.186612 0.407405
856 1 0.304983 0.143376 0.45375
860 1 0.395394 0.139688 0.457725
895 1 0.346042 0.196508 0.453128
858 1 0.452324 0.151211 0.412022
859 1 0.445802 0.102064 0.461194
861 1 0.498102 0.105686 0.404473
862 1 0.543414 0.15476 0.400303
864 1 0.500618 0.156853 0.453233
863 1 0.54923 0.100396 0.445447
903 1 0.557593 0.199178 0.457168
1062 1 0.563084 0.148285 0.4948
868 1 0.602239 0.151411 0.450554
867 1 0.65421 0.101859 0.442207
872 1 0.699434 0.148 0.450011
907 1 0.651335 0.195593 0.448185
1066 1 0.648647 0.140708 0.492077
873 1 0.786528 0.107424 0.407673
911 1 0.752085 0.194132 0.449044
1109 1 0.708257 0.197435 0.494858
917 1 0.895363 0.192744 0.410396
874 1 0.846602 0.143166 0.410236
876 1 0.803416 0.155667 0.460475
915 1 0.852669 0.197366 0.465187
913 1 0.801655 0.195957 0.401051
877 1 0.908475 0.10343 0.402048
878 1 0.96009 0.153366 0.404133
844 1 0.999834 0.150561 0.463344
880 1 0.906173 0.14682 0.457224
919 1 0.951899 0.199976 0.453161
1078 1 0.952933 0.143325 0.499572
1082 1 0.0583207 0.257889 0.498409
921 1 0.0060811 0.292256 0.400169
882 1 0.0505959 0.242924 0.402354
884 1 0.00585774 0.24368 0.459723
925 1 0.098838 0.297463 0.406092
1086 1 0.149262 0.248306 0.498051
929 1 0.199261 0.29513 0.401302
888 1 0.101544 0.248885 0.445965
887 1 0.141115 0.202038 0.45399
927 1 0.155098 0.297673 0.443832
1129 1 0.202656 0.285599 0.497573
890 1 0.252973 0.243239 0.402132
892 1 0.201277 0.236839 0.445273
931 1 0.243434 0.294536 0.44556
1090 1 0.250057 0.236668 0.493452
894 1 0.352448 0.242019 0.408002
935 1 0.343796 0.297004 0.460171
896 1 0.303784 0.241725 0.453918
900 1 0.397268 0.240692 0.469549
898 1 0.436742 0.24077 0.406618
939 1 0.441198 0.290064 0.461321
899 1 0.445077 0.200062 0.45497
941 1 0.485819 0.28274 0.400674
902 1 0.550322 0.251639 0.409893