ITEM: TIMESTEP
9500
ITEM: NUMBER OF ATOMS
500
ITEM: BOX BOUNDS pp pp pp
0.0000000000000000e+00 2.6299999999999997e+01
0.0000000000000000e+00 2.6299999999999997e+01
0.0000000000000000e+00 2.6299999999999997e+01
ITEM: ATOMS id type xs ys zs
23 1 0.102308 0.196657 0.102958
52 1 0.106353 0.101488 0.199447
75 1 0.194149 0.217701 0.192303
8 1 0.20659 0.0830615 0.0773225
71 1 0.012334 0.209295 0.194605
310 1 0.8138 0.485706 0.302253
27 1 0.285809 0.187429 0.111499
56 1 0.309728 0.0966676 0.206776
131 1 0.40861 0.0919139 0.492488
11 1 0.486284 0.00843862 0.0834305
79 1 0.399391 0.196455 0.193935
12 1 0.384226 0.11396 0.09223
31 1 0.501629 0.213104 0.0876945
60 1 0.502341 0.114124 0.187616
83 1 0.602431 0.212229 0.205179
16 1 0.582258 0.108231 0.0931685
65 1 0.698111 0.00485195 0.279312
74 1 0.996989 0.289452 0.293913
59 1 0.410949 0.00531261 0.193216
100 1 0.898901 0.384547 0.282324
35 1 0.696322 0.208914 0.105436
64 1 0.685731 0.114023 0.189825
20 1 0.787826 0.0894849 0.117496
103 1 0.207717 0.00351963 0.382702
87 1 0.784402 0.197197 0.200527
4 1 0.991924 0.115163 0.0938014
39 1 0.880521 0.178161 0.101027
68 1 0.906345 0.111344 0.203132
120 1 0.904725 0.299599 0.409411
69 1 0.898218 0.00573995 0.298987
42 1 0.0974165 0.425593 0.119452
72 1 0.102746 0.307184 0.210005
91 1 0.997388 0.401336 0.192077
3 1 0.0927523 0.0094079 0.109878
43 1 0.176009 0.411845 0.00124136
28 1 0.170957 0.302531 0.0906558
93 1 0.212487 0.389745 0.189097
44 1 0.300893 0.424101 0.0944596
76 1 0.320398 0.314707 0.18933
95 1 0.403258 0.411534 0.191782
308 1 0.594712 0.479243 0.315704
10 1 0.494718 0.109507 0.00815793
67 1 0.810624 0.00876228 0.20678
305 1 0.501824 0.497918 0.192054
1 1 0.0014779 0.00836891 0.00979989
32 1 0.400573 0.294393 0.0987724
46 1 0.497311 0.415122 0.0780456
80 1 0.498025 0.309674 0.1853
97 1 0.592415 0.412494 0.186408
123 1 0.403389 0.402912 0.416281
140 1 0.508273 0.19387 0.497657
78 1 0.203457 0.302043 0.28639
36 1 0.584422 0.313792 0.0975866
48 1 0.710801 0.417662 0.108857
84 1 0.690074 0.314427 0.191642
40 1 0.790429 0.303613 0.105943
99 1 0.801748 0.387278 0.19625
90 1 0.783184 0.297615 0.291347
51 1 0.00223326 0.0177057 0.212408
33 1 0.601013 0.197193 0.00627619
24 1 0.0187219 0.29649 0.0912696
50 1 0.89753 0.409307 0.102251
88 1 0.898198 0.299533 0.185688
118 1 0.717474 0.295242 0.404984
98 1 0.699928 0.409051 0.280179
82 1 0.412918 0.313704 0.310522
377 1 0.197064 0.484475 0.485638
73 1 0.109188 0.196476 0.296253
102 1 0.108511 0.107754 0.385569
122 1 0.188356 0.385843 0.395669
113 1 0.207738 0.205482 0.393697
58 1 0.211439 0.100787 0.293357
77 1 0.306322 0.204828 0.290737
104 1 0.290506 0.0974854 0.392635
62 1 0.414126 0.0861753 0.28745
127 1 0.0157191 0.0911505 0.498173
125 1 0.813019 0.394871 0.425253
94 1 0.286874 0.42523 0.30493
92 1 0.111623 0.41999 0.299096
115 1 0.404202 0.204561 0.389769
81 1 0.496306 0.211423 0.293191
106 1 0.491565 0.107616 0.400942
117 1 0.601313 0.198868 0.403621
112 1 0.0912414 0.292385 0.397112
139 1 0.207728 0.29785 0.494293
66 1 0.591983 0.104185 0.30067
85 1 0.686751 0.201215 0.307076
108 1 0.706733 0.102692 0.397502
70 1 0.78586 0.113977 0.279479
114 1 0.290537 0.319383 0.378777
124 1 0.612693 0.39353 0.410376
19 1 0.900039 0.0263034 0.104998
116 1 0.514718 0.3148 0.389888
54 1 0.998171 0.119514 0.305593
111 1 0.0120874 0.196566 0.424349
119 1 0.807694 0.205603 0.396231
110 1 0.893854 0.110445 0.393959
89 1 0.886839 0.205413 0.281535
86 1 0.605658 0.322884 0.288188
121 1 0.0183626 0.393608 0.403853
96 1 0.490703 0.411979 0.302991
143 1 0.596722 0.307967 0.495577
354 1 0.703167 0.497674 0.401461
355 1 0.910806 0.461126 0.395228
134 1 0.879405 0.00256527 0.486685
126 1 0.108206 0.00933871 0.489872
107 1 0.583189 0.012467 0.388269
101 1 0.0201824 0.00410695 0.394237
37 1 0.793972 0.198935 0.00800862
38 1 0.896547 0.278924 0.0285518
136 1 0.118273 0.196649 0.499358
26 1 0.278136 0.315451 0.0121102
138 1 0.312173 0.203605 0.482411
47 1 0.597508 0.414565 0.00443927
9 1 0.390218 0.0123291 0.00887084
29 1 0.379839 0.202953 0.00656992
21 1 0.00296115 0.191074 0.00117567
251 1 0.0923107 0.49807 0.0111587
34 1 0.697239 0.307631 0.0111552
133 1 0.604908 0.0987832 0.496541
41 1 0.998035 0.406336 0.0130575
14 1 0.691444 0.108713 0.0186566
152 1 0.115063 0.101536 0.592349
173 1 0.102294 0.189949 0.689355
171 1 0.999315 0.190989 0.594025
175 1 0.195674 0.192889 0.604191
380 1 0.790362 0.479068 0.517137
457 1 0.710968 0.487327 0.803627
452 1 0.994288 0.487885 0.910912
158 1 0.204104 0.096142 0.6905
156 1 0.298272 0.0920712 0.60023
177 1 0.287582 0.1989 0.698461
162 1 0.391282 0.109949 0.701153
159 1 0.409844 0.00192784 0.59543
179 1 0.403575 0.195403 0.60479
160 1 0.502841 0.109861 0.59467
181 1 0.509752 0.198595 0.700473
183 1 0.596734 0.196694 0.615177
166 1 0.592739 0.0889641 0.691692
167 1 0.790506 0.0144416 0.608563
164 1 0.682049 0.0912055 0.594619
185 1 0.68395 0.200797 0.710496
170 1 0.785411 0.115598 0.697469
149 1 0.703748 0.388501 0.501547
154 1 0.00291053 0.105912 0.679181
6 1 0.303853 0.0942294 0.992017
187 1 0.785482 0.202064 0.607031
168 1 0.892286 0.100538 0.608393
189 1 0.905785 0.193503 0.716032
211 1 0.512088 0.00953359 0.911107
458 1 0.608616 0.499198 0.901928
172 1 0.0983154 0.295546 0.592181
192 1 0.0971763 0.404323 0.71084
191 1 0.999544 0.380484 0.624498
193 1 0.187838 0.388175 0.606664
178 1 0.185944 0.29041 0.693988
176 1 0.303078 0.278632 0.5988
194 1 0.305486 0.382067 0.676415
182 1 0.404149 0.286072 0.696882
195 1 0.404105 0.392699 0.599937
180 1 0.496665 0.289646 0.594483
196 1 0.499725 0.396659 0.700419
186 1 0.618579 0.300943 0.704752
224 1 0.0144801 0.289551 0.908396
197 1 0.594798 0.385561 0.607125
184 1 0.690909 0.293756 0.599906
198 1 0.701986 0.39822 0.708845
190 1 0.802508 0.289592 0.713387
18 1 0.90917 0.100657 0.997833
409 1 0.904649 0.481941 0.611587
135 1 0.805562 0.10526 0.520436
199 1 0.800624 0.381779 0.615097
174 1 0.00239985 0.278512 0.693894
188 1 0.894744 0.269807 0.608518
200 1 0.893654 0.394476 0.719271
407 1 0.698993 0.491663 0.615595
234 1 0.695427 0.30075 0.809045
202 1 0.103569 0.0933302 0.804019
223 1 0.101724 0.199615 0.905498
225 1 0.196678 0.198768 0.78433
45 1 0.391697 0.4291 0.994768
241 1 0.997903 0.390752 0.803473
238 1 0.912716 0.285218 0.800658
2 1 0.0999177 0.0876585 0.981025
208 1 0.200282 0.0838975 0.900783
206 1 0.290692 0.101372 0.801961
227 1 0.296721 0.203424 0.89288
212 1 0.388943 0.088522 0.894104
249 1 0.817177 0.374247 0.824627
229 1 0.396636 0.195661 0.803418
210 1 0.490825 0.0974711 0.791226
231 1 0.488586 0.206737 0.91784
233 1 0.601006 0.198871 0.809375
216 1 0.593482 0.112863 0.907752
406 1 0.383036 0.493061 0.724219
214 1 0.684473 0.0999723 0.818149
235 1 0.70366 0.213868 0.913501
220 1 0.774267 0.102863 0.916365
237 1 0.790727 0.194298 0.809657
49 1 0.817279 0.392922 0.999167
408 1 0.597432 0.481845 0.702694
204 1 0.00139178 0.107396 0.882358
221 1 0.00717189 0.196431 0.797108
401 1 0.115962 0.495475 0.596077
218 1 0.907651 0.0866387 0.786625
239 1 0.904823 0.205863 0.89318
228 1 0.215502 0.32811 0.890931
222 1 0.105287 0.29447 0.808759
22 1 0.106759 0.313698 0.980719
242 1 0.0967859 0.396504 0.893768
232 1 0.380614 0.310254 0.912841
244 1 0.290333 0.431171 0.897154
226 1 0.297152 0.295232 0.782271
243 1 0.179323 0.40799 0.795506
240 1 0.810163 0.285843 0.915182
250 1 0.909476 0.369036 0.916606
248 1 0.696777 0.387876 0.915227
236 1 0.600058 0.301381 0.90354
230 1 0.49356 0.302111 0.813957
246 1 0.507025 0.433457 0.902038
247 1 0.608347 0.404884 0.817274
245 1 0.394232 0.402348 0.817809
405 1 0.504288 0.480607 0.596715
150 1 0.905633 0.397055 0.507297
201 1 0.00535216 0.00686486 0.769851
146 1 0.1092 0.393482 0.500967
157 1 0.305354 0.0077044 0.700617
165 1 0.697394 0.00922831 0.7114
217 1 0.801147 0.0114426 0.807357
151 1 0.0053335 0.00203903 0.596057
205 1 0.190522 0.00156733 0.796515
25 1 0.19848 0.211298 0.995294
161 1 0.508303 0.00333738 0.714526
403 1 0.307098 0.492553 0.590045
148 1 0.503256 0.393048 0.501119
378 1 0.416101 0.494765 0.502202
30 1 0.493559 0.314509 0.980474
376 1 0.00349061 0.475463 0.512927
141 1 0.398781 0.300958 0.503071
137 1 0.994907 0.312733 0.505981
129 1 0.222454 0.121203 0.501584
145 1 0.821498 0.302788 0.516377
147 1 0.29425 0.388788 0.517641
257 1 0.713576 0.49778 0.998732
142 1 0.711167 0.201772 0.508447
17 1 0.796518 0.00726353 0.993118
144 1 0.892038 0.188218 0.503701
263 1 0.077696 0.602033 0.0917307
312 1 0.0964971 0.722113 0.200753
264 1 0.998786 0.714979 0.0828519
252 1 0.982929 0.504019 0.116778
57 1 0.305092 0.997495 0.303795
55 1 0.213658 0.992573 0.199612
352 1 0.301617 0.50188 0.411182
315 1 0.181607 0.602576 0.197087
268 1 0.182807 0.680104 0.0975349
267 1 0.30307 0.590687 0.0990176
316 1 0.285352 0.709245 0.204517
319 1 0.392846 0.608236 0.190467
266 1 0.276458 0.692633 0.000873495
272 1 0.398895 0.691583 0.101311
271 1 0.502277 0.596756 0.112088
320 1 0.500325 0.6916 0.201257
301 1 0.0918898 0.509116 0.21355
392 1 0.00859846 0.898082 0.483899
353 1 0.489679 0.502517 0.40271
323 1 0.600368 0.617734 0.20978
276 1 0.600165 0.719567 0.109757
275 1 0.683524 0.614291 0.0994166
324 1 0.702263 0.712698 0.18685
280 1 0.795472 0.705815 0.0936971
256 1 0.401391 0.502164 0.105187
327 1 0.797873 0.608788 0.189626
311 1 0.992157 0.603192 0.204976
279 1 0.90431 0.615268 0.105612
328 1 0.91178 0.706893 0.196328
283 1 0.0903217 0.811343 0.0936491
332 1 0.0867789 0.883849 0.199816
288 1 0.177132 0.912232 0.0955917
284 1 0.995814 0.910092 0.111415
258 1 0.589754 0.506168 0.103973
297 1 0.807951 0.814564 0.00305779
109 1 0.79925 0.996454 0.382214
335 1 0.198914 0.825602 0.18927
287 1 0.291034 0.788815 0.0929336
336 1 0.301405 0.890934 0.213482
292 1 0.394395 0.89077 0.0942245
374 1 0.798092 0.801764 0.397872
304 1 0.200958 0.519115 0.313965
273 1 0.596991 0.594803 0.00108354
303 1 0.284931 0.502478 0.195698
339 1 0.412071 0.792423 0.187021
291 1 0.508058 0.802971 0.0941704
340 1 0.505819 0.898031 0.176776
128 1 0.303993 0.997434 0.492475
296 1 0.604956 0.897302 0.0840996
343 1 0.610446 0.811963 0.196611
295 1 0.701533 0.811602 0.0943508
344 1 0.709504 0.908648 0.194343
334 1 0.0049592 0.905458 0.313456
15 1 0.699669 0.992556 0.105025
349 1 0.902467 0.800605 0.289896
341 1 0.511422 0.795326 0.297427
351 1 0.0760176 0.504751 0.388365
309 1 0.890103 0.503514 0.193732
331 1 0.989992 0.806514 0.190316
7 1 0.295163 0.981552 0.107755
300 1 0.807292 0.90799 0.104704
347 1 0.80201 0.811325 0.197348
299 1 0.899427 0.795622 0.0890966
348 1 0.914751 0.922553 0.190428
372 1 0.624583 0.787679 0.392308
313 1 0.095054 0.618922 0.313418
357 1 0.0910568 0.70543 0.417798
356 1 0.985042 0.606692 0.399848
375 1 0.908248 0.9006 0.392668
346 1 0.603095 0.899361 0.297481
61 1 0.504127 0.991666 0.264412
358 1 0.190452 0.599574 0.419177
318 1 0.197435 0.696823 0.318559
317 1 0.306585 0.626313 0.310914
359 1 0.308761 0.694125 0.410569
360 1 0.416675 0.609321 0.397058
371 1 0.518805 0.8851 0.393413
370 1 0.40532 0.812323 0.400412
373 1 0.676945 0.932673 0.391068
369 1 0.319403 0.896089 0.412371
322 1 0.408253 0.715944 0.307136
321 1 0.503141 0.594259 0.303752
361 1 0.518236 0.720852 0.401321
362 1 0.603798 0.617686 0.410434
326 1 0.612837 0.702446 0.296686
325 1 0.70912 0.607139 0.300675
363 1 0.720139 0.691362 0.404486
330 1 0.819302 0.703142 0.294665
342 1 0.402576 0.899481 0.296783
345 1 0.71868 0.812189 0.293157
314 1 0.997253 0.702459 0.299426
364 1 0.795101 0.579358 0.398429
365 1 0.894752 0.697788 0.413015
329 1 0.894593 0.603386 0.290928
337 1 0.287465 0.808303 0.318864
350 1 0.818262 0.896494 0.2957
368 1 0.20768 0.805764 0.419748
366 1 0.986792 0.776399 0.402612
333 1 0.0801295 0.798981 0.31042
367 1 0.10614 0.902367 0.405027
338 1 0.194635 0.886762 0.31361
298 1 0.910017 0.908908 0.00334078
53 1 0.109353 0.986772 0.281286
302 1 0.978516 0.50373 0.289106
306 1 0.402512 0.510943 0.290832
269 1 0.411225 0.607102 0.00419967
63 1 0.606934 0.981056 0.195332
260 1 0.786045 0.515974 0.110381
254 1 0.194764 0.516676 0.100992
105 1 0.402538 0.996668 0.403662
307 1 0.677647 0.515988 0.202311
294 1 0.711817 0.902517 0.0149665
282 1 0.0843326 0.898269 0.00313031
286 1 0.288175 0.889774 0.0220763
277 1 0.812252 0.595567 0.0168852
265 1 0.181912 0.58935 0.00285574
398 1 0.614896 0.897352 0.497205
259 1 0.91284 0.517081 0.0175086
381 1 0.0807898 0.575918 0.487131
394 1 0.212113 0.916487 0.482417
270 1 0.513292 0.694779 0.00295055
412 1 0.100327 0.682201 0.578468
413 1 0.107627 0.594606 0.702948
414 1 0.98914 0.699889 0.688691
411 1 0.995708 0.572971 0.60166
415 1 0.207504 0.597578 0.598604
451 1 0.0837758 0.506103 0.812259
132 1 0.704418 0.997295 0.506137
418 1 0.198124 0.702419 0.678578
416 1 0.303607 0.695717 0.610805
417 1 0.310869 0.599634 0.712221
153 1 0.122129 0.997542 0.690782
422 1 0.407389 0.691643 0.698147
410 1 0.804324 0.505368 0.699069
386 1 0.407476 0.693781 0.508919
390 1 0.795499 0.699705 0.503505
163 1 0.592986 0.991135 0.592436
419 1 0.396427 0.577818 0.612209
420 1 0.511902 0.698349 0.610771
421 1 0.509398 0.590603 0.697753
426 1 0.606305 0.69197 0.69457
423 1 0.600276 0.596116 0.592817
281 1 0.00591174 0.802989 0.990687
385 1 0.497573 0.594457 0.500544
289 1 0.381458 0.797668 0.990759
424 1 0.704012 0.699722 0.605906
425 1 0.709841 0.589579 0.695453
430 1 0.796076 0.689895 0.698702
481 1 0.999072 0.797373 0.79374
393 1 0.310236 0.80432 0.505535
427 1 0.807497 0.587539 0.602113
428 1 0.893172 0.696162 0.585151
429 1 0.907945 0.589118 0.690107
484 1 0.997361 0.910314 0.884621
453 1 0.269247 0.509433 0.794538
432 1 0.0930792 0.890503 0.596034
433 1 0.0920767 0.791822 0.682276
434 1 0.999035 0.904859 0.679632
431 1 0.992429 0.788964 0.593853
460 1 0.810752 0.504952 0.901449
438 1 0.194891 0.901088 0.68589
435 1 0.20405 0.809807 0.598
436 1 0.313764 0.91266 0.612125
437 1 0.306577 0.799895 0.696484
442 1 0.407894 0.876041 0.716107
285 1 0.181654 0.809959 0.998095
499 1 0.891928 0.802404 0.892962
169 1 0.90158 0.987715 0.702678
439 1 0.407491 0.796602 0.599963
440 1 0.506647 0.888366 0.608712
441 1 0.502171 0.79159 0.70213
446 1 0.610837 0.905265 0.706227
443 1 0.611894 0.794255 0.598083
402 1 0.000386084 0.50003 0.695737
498 1 0.911144 0.905914 0.790369
444 1 0.704424 0.889549 0.610415
445 1 0.703311 0.797216 0.708186
500 1 0.810878 0.90671 0.900808
278 1 0.89253 0.698885 0.999709
454 1 0.180608 0.502637 0.881597
492 1 0.377077 0.896238 0.903814
290 1 0.480073 0.897583 0.995624
493 1 0.609565 0.796046 0.805696
491 1 0.485072 0.771052 0.904586
447 1 0.808886 0.805942 0.615481
450 1 0.790642 0.915743 0.699962
448 1 0.897055 0.932329 0.59092
449 1 0.899985 0.790966 0.7212
489 1 0.39728 0.789954 0.810905
462 1 0.0804978 0.69093 0.791229
463 1 0.101862 0.594412 0.905901
496 1 0.601631 0.892927 0.909253
155 1 0.207582 0.991272 0.598981
490 1 0.503007 0.888897 0.805548
495 1 0.715265 0.789334 0.917287
465 1 0.186995 0.611545 0.805047
468 1 0.195287 0.710621 0.904832
466 1 0.301069 0.690748 0.813832
467 1 0.282308 0.593556 0.893479
469 1 0.404576 0.601009 0.805987
494 1 0.700301 0.904346 0.795428
497 1 0.793443 0.795156 0.813598
472 1 0.394917 0.684873 0.913399
470 1 0.512146 0.69339 0.799595
471 1 0.521917 0.603774 0.893255
476 1 0.614963 0.704752 0.892995
5 1 0.202133 0.996084 0.992076
485 1 0.188637 0.780382 0.798927
473 1 0.602356 0.589733 0.781845
474 1 0.707777 0.686114 0.788991
475 1 0.705663 0.585792 0.902782
477 1 0.802908 0.579637 0.790451
397 1 0.704384 0.787934 0.50039
480 1 0.799589 0.674592 0.890185
461 1 0.990158 0.604991 0.804977
464 1 0.978794 0.696336 0.897819
478 1 0.884782 0.683496 0.788254
479 1 0.903988 0.590315 0.904108
486 1 0.299613 0.906989 0.803431
487 1 0.294129 0.792229 0.891138
482 1 0.10322 0.895681 0.781527
483 1 0.0983739 0.807663 0.878942
488 1 0.205206 0.90719 0.89079
213 1 0.59322 0.998952 0.821801
209 1 0.403079 0.988676 0.803401
404 1 0.206557 0.502078 0.685844
459 1 0.909694 0.516164 0.803425
384 1 0.221497 0.699527 0.504913
396 1 0.400314 0.894969 0.510383
293 1 0.597487 0.793333 0.990316
219 1 0.898797 0.999975 0.909148
207 1 0.300277 0.99636 0.88835
456 1 0.407782 0.509835 0.896319
203 1 0.101974 0.987768 0.888472
383 1 0.302962 0.5896 0.507586
389 1 0.890617 0.582973 0.51253
382 1 0.99445 0.670531 0.509656
455 1 0.498366 0.503976 0.786714
255 1 0.490254 0.519147 0.995834
215 1 0.704364 0.989413 0.899803
400 1 0.798193 0.90933 0.505885
130 1 0.512266 0.993585 0.50168
13 1 0.610525 0.985973 0.991491
274 1 0.708856 0.689089 0.987691
399 1 0.892897 0.806159 0.507364
387 1 0.704912 0.592745 0.503302
253 1 0.302888 0.528055 0.991366
261 1 0.00425993 0.596827 0.995877
395 1 0.499052 0.799668 0.509872
391 1 0.112322 0.803481 0.500985
379 1 0.600188 0.501842 0.504002
388 1 0.607842 0.703886 0.507754
262 1 0.0902784 0.703806 0.983672
