ITEM: TIMESTEP
10000
ITEM: NUMBER OF ATOMS
1372
ITEM: BOX BOUNDS pp pp pp
0.0000000000000000e+00 3.6820000000000000e+01
0.0000000000000000e+00 3.6820000000000000e+01
0.0000000000000000e+00 3.6820000000000000e+01
ITEM: ATOMS id type xs ys zs
8 1 0.130801 0.0714144 0.0729334
100 1 0.0607182 0.0634648 0.139766
103 1 0.156843 -0.00758748 0.123945
12 1 0.288166 0.0639479 0.0515321
104 1 0.205716 0.0618135 0.131588
21 1 0.213717 0.150145 0.0696841
841 1 0.495966 0.630617 0.13814
7 1 0.222581 -0.00196121 0.0542741
1 1 0.0115493 -0.0105329 -0.0119227
14 1 0.419346 0.0676387 0.06463
108 1 0.35434 0.0643953 0.133707
385 1 0.422688 0.788393 0.495241
827 1 0.499671 0.495813 0.140196
988 1 0.501585 0.207089 0.43865
772 1 0.506374 0.852837 0.0850898
688 1 0.495617 1.00369 0.0750327
270 1 -0.00979294 0.795722 0.366145
117 1 0.14582 0.147875 0.129683
17 1 0.0629333 0.140672 0.0765974
22 1 0.137407 0.203047 0.0630168
114 1 0.0807904 0.223762 0.142931
31 1 0.0750776 0.290574 0.072904
121 1 0.287654 0.133891 0.133494
26 1 0.28157 0.216118 0.0565784
118 1 0.235177 0.209921 0.138974
884 1 0.491936 0.00129379 0.348778
135 1 0.284603 0.28549 0.131567
125 1 0.432067 0.147881 0.147026
25 1 0.3581 0.140747 0.0730396
28 1 0.433846 0.219592 0.0671771
122 1 0.351567 0.215442 0.137029
39 1 0.362851 0.282363 0.0640812
869 1 0.502928 0.932226 0.149268
389 1 0.136945 0.928381 0.495603
183 1 -0.00555886 0.867987 0.132113
131 1 0.143406 0.289896 0.149015
36 1 0.141479 0.364341 0.0544348
128 1 0.0795727 0.354247 0.136757
83 1 0.437906 0.711538 0.0020986
344 1 0.0632998 0.999041 0.502852
158 1 0.0127065 0.658218 0.209243
35 1 0.206124 0.282088 0.0640655
40 1 0.295164 0.359073 0.0646505
132 1 0.225187 0.356096 0.145306
49 1 0.224573 0.429686 0.0752645
80 1 0.348237 0.779387 0.00266405
897 1 0.504329 0.221531 0.285335
58 1 0.0760422 0.655184 0.00458469
207 1 0.366709 0.993665 0.364933
267 1 0.00382395 0.710265 0.304888
139 1 0.437886 0.28421 0.141265
42 1 0.439497 0.354163 0.0551527
136 1 0.359014 0.348172 0.133991
53 1 0.37904 0.424415 0.0687083
351 1 0.0785409 0.125467 0.495939
360 1 0.20857 0.271625 0.507955
45 1 0.0691006 0.426155 0.0764679
145 1 0.136214 0.427557 0.140175
50 1 0.14592 0.491789 0.0649308
142 1 0.0820979 0.502028 0.142175
59 1 0.0836018 0.579836 0.0679177
159 1 0.147667 0.573971 0.146512
342 1 0.361382 0.924445 0.426894
294 1 0.429342 0.927856 0.359773
149 1 0.304142 0.430219 0.133212
54 1 0.307804 0.493568 0.0684659
146 1 0.2166 0.495123 0.150998
15 1 0.0102378 0.148361 -0.00116103
153 1 0.434355 0.424616 0.137595
56 1 0.421916 0.5047 0.0715602
150 1 0.366093 0.500751 0.144446
67 1 0.3581 0.572085 0.0765962
167 1 0.434209 0.559396 0.15493
102 1 -0.00029084 0.0773415 0.228424
287 1 0.212364 0.855792 0.357378
186 1 0.00812294 0.925068 0.228331
64 1 0.149969 0.644004 0.0758579
156 1 0.0784845 0.63718 0.148722
173 1 0.148607 0.715013 0.146023
372 1 0.0710197 0.563598 0.503904
786 1 0.500024 0.00488918 0.206381
63 1 0.221299 0.56456 0.0746933
163 1 0.290852 0.576209 0.145994
68 1 0.288659 0.633404 0.0834895
160 1 0.219094 0.639243 0.147431
77 1 0.215688 0.705067 0.0840364
70 1 0.426141 0.633706 0.0734812
164 1 0.372699 0.63545 0.153401
81 1 0.370997 0.704816 0.0812156
785 1 0.493039 0.0756173 0.14015
1016 1 0.505374 0.797291 0.432641
73 1 0.0835608 0.719656 0.0730091
78 1 0.152639 0.788511 0.0738729
170 1 0.0642294 0.787124 0.142194
87 1 0.0921102 0.856992 0.0663024
187 1 0.152217 0.855569 0.141216
1009 1 0.502866 0.64547 0.423736
172 1 -0.00238151 0.768713 0.217223
800 1 0.503549 0.153553 0.217298
256 1 -0.00715157 0.633128 0.360668
177 1 0.295882 0.703974 0.149978
82 1 0.281323 0.776679 0.0706655
174 1 0.215233 0.780041 0.14
88 1 0.00815564 0.922689 0.0498116
72 1 0.0660109 0.785202 -0.0028854
181 1 0.433381 0.713933 0.151809
730 1 0.504639 0.416063 0.0720932
84 1 0.422859 0.789517 0.0742524
178 1 0.365464 0.779143 0.14417
242 1 -0.00600511 0.4964 0.368348
341 1 0.276498 0.860139 0.424409
3 1 0.0669202 1.003 0.0656271
92 1 0.156692 0.92596 0.0599088
184 1 0.0874157 0.920541 0.129487
292 1 0.27524 0.92802 0.351277
345 1 -0.00622209 0.0712527 0.494833
107 1 0.273469 -0.0134512 0.129895
191 1 0.28979 0.866233 0.147767
91 1 0.236778 0.853353 0.0727868
96 1 0.296746 0.928527 0.0673025
188 1 0.213413 0.921533 0.133882
813 1 0.488494 0.358913 0.146783
214 1 -0.00403633 0.224517 0.355954
111 1 0.420393 -0.00300765 0.141755
11 1 0.365446 0.99134 0.0668546
95 1 0.356822 0.851799 0.0731433
195 1 0.416644 0.8519 0.152227
98 1 0.434625 0.917177 0.0805374
192 1 0.353148 0.927642 0.150016
799 1 0.504352 0.210508 0.142361
106 1 0.138085 0.0723225 0.188691
198 1 0.0803263 0.0781724 0.267977
215 1 0.147942 0.152934 0.270698
201 1 0.141581 -0.00431868 0.273984
101 1 0.0779202 0.998435 0.215753
110 1 0.287327 0.0668781 0.208198
202 1 0.21418 0.0715327 0.27071
105 1 0.213307 1.00516 0.201108
219 1 0.283666 0.149397 0.287657
205 1 0.273852 -0.00153346 0.278329
112 1 0.419177 0.0825771 0.220867
206 1 0.349124 0.0659557 0.284225
223 1 0.428294 0.149876 0.279176
340 1 0.211841 0.932964 0.426211
953 1 0.494209 0.783947 0.287018
115 1 0.0792444 0.149248 0.201804
120 1 0.150287 0.222518 0.209476
212 1 0.0697318 0.213254 0.283414
229 1 0.142201 0.286186 0.290497
119 1 0.20112 0.142493 0.195531
124 1 0.278298 0.200308 0.21481
216 1 0.22075 0.221125 0.282846
334 1 0.282388 0.699022 0.422707
123 1 0.350847 0.149441 0.204769
126 1 0.434627 0.216228 0.210398
220 1 0.35422 0.220732 0.271873
99 1 0.000369083 0.995028 0.147377
129 1 0.0671373 0.283357 0.218419
134 1 0.148007 0.36072 0.212953
226 1 0.0712896 0.349203 0.291827
243 1 0.154512 0.419559 0.275859
233 1 0.29364 0.283958 0.282758
133 1 0.229194 0.289818 0.206809
138 1 0.293874 0.36253 0.203538
230 1 0.2145 0.346274 0.279743
93 1 0.283604 0.846111 -0.00509396
237 1 0.432253 0.290563 0.297776
137 1 0.361365 0.284189 0.208185
140 1 0.429209 0.34823 0.215058
234 1 0.364966 0.35791 0.278936
151 1 0.375399 0.431978 0.209472
251 1 0.448352 0.415178 0.28656
143 1 0.0871523 0.42558 0.215817
148 1 0.145521 0.509533 0.22061
240 1 0.0715858 0.490762 0.280979
247 1 0.284074 0.412434 0.301421
147 1 0.217019 0.423343 0.21066
152 1 0.288689 0.480242 0.216745
244 1 0.227585 0.490728 0.291963
261 1 0.287135 0.564369 0.296579
339 1 0.139979 0.860375 0.430408
154 1 0.436724 0.49596 0.215819
248 1 0.351754 0.485978 0.291634
165 1 0.353437 0.560342 0.217372
257 1 0.136157 0.56675 0.288027
157 1 0.0677346 0.576139 0.216482
162 1 0.147315 0.634906 0.221161
254 1 0.0738566 0.646802 0.294647
271 1 0.145456 0.73076 0.282994
199 1 0.0823825 0.0114487 0.359076
161 1 0.219702 0.560996 0.214934
166 1 0.287728 0.63302 0.227553
258 1 0.215399 0.630818 0.288251
175 1 0.219812 0.704867 0.209115
297 1 0.151494 0.00622911 0.421619
265 1 0.421504 0.561607 0.292692
168 1 0.429626 0.652024 0.221722
262 1 0.358975 0.629214 0.289903
279 1 0.427538 0.709823 0.297314
288 1 0.145385 0.942106 0.354311
171 1 0.0818638 0.717933 0.220179
176 1 0.150382 0.785385 0.213521
268 1 0.0785542 0.795167 0.308321
185 1 0.080159 0.86089 0.209541
275 1 0.276493 0.703807 0.287723
180 1 0.284336 0.770265 0.207658
272 1 0.225189 0.784337 0.283866
189 1 0.21662 0.850465 0.213649
289 1 0.277738 0.860518 0.292919
277 1 0.357731 0.70244 0.36146
179 1 0.360605 0.72348 0.221559
182 1 0.429304 0.783535 0.213273
276 1 0.342078 0.778139 0.310851
338 1 0.0754394 0.941775 0.426931
285 1 0.149241 0.854253 0.29482
190 1 0.150196 0.921502 0.215741
282 1 0.0784658 0.923562 0.298871
194 1 0.286435 0.933804 0.216531
286 1 0.211777 0.923136 0.282079
321 1 0.372439 0.489327 0.437581
109 1 0.355148 0.00623259 0.209885
293 1 0.437179 0.861762 0.28432
193 1 0.352319 0.841955 0.223881
209 1 0.423323 1.00653 0.285997
196 1 0.430789 0.931849 0.218343
290 1 0.346425 0.93354 0.285079
325 1 0.141779 0.558559 0.42973
141 1 0.00549445 0.429627 0.143874
204 1 0.134804 0.0963407 0.342989
296 1 0.0717704 0.0743622 0.42642
304 1 0.149475 0.143797 0.424229
252 1 0.429791 0.477822 0.355015
280 1 0.431724 0.785256 0.357456
203 1 0.212713 -0.0032407 0.348767
299 1 0.290942 -0.00995304 0.425427
208 1 0.29224 0.0651882 0.352147
298 1 0.21329 0.0725614 0.420226
217 1 0.211283 0.145313 0.354641
264 1 0.277241 0.641876 0.352966
283 1 0.069015 0.85993 0.371303
301 1 0.436295 0.00137032 0.421932
210 1 0.424363 0.0672178 0.358926
300 1 0.369821 0.0719349 0.432339
308 1 0.429042 0.141577 0.426854
335 1 0.345427 0.789821 0.425674
260 1 0.14548 0.628698 0.355409
213 1 0.0654036 0.154672 0.35771
218 1 0.13283 0.217535 0.36459
303 1 0.0733005 0.217086 0.442592
227 1 0.0683303 0.292982 0.374907
311 1 0.153552 0.284276 0.43725
328 1 0.358309 0.637306 0.432634
326 1 0.21594 0.630892 0.414824
269 1 0.0976626 0.709412 0.360262
306 1 0.297019 0.125549 0.435317
222 1 0.287643 0.231888 0.366444
305 1 0.220331 0.209227 0.422321
313 1 0.2815 0.281124 0.442024
263 1 0.352255 0.562266 0.364903
266 1 0.428585 0.642576 0.355617
221 1 0.358701 0.145576 0.347151
224 1 0.427658 0.214863 0.345208
307 1 0.362127 0.210873 0.426357
235 1 0.360945 0.302321 0.360758
329 1 0.421519 0.572337 0.427788
273 1 0.213536 0.712215 0.353352
232 1 0.14555 0.359138 0.365607
310 1 0.0559702 0.362917 0.428542
318 1 0.131405 0.425564 0.425436
324 1 0.0655604 0.640437 0.418546
278 1 0.276803 0.777988 0.378089
231 1 0.216905 0.291901 0.354048
236 1 0.281358 0.353626 0.362424
312 1 0.215989 0.364644 0.42065
320 1 0.304477 0.424524 0.440884
333 1 0.211413 0.775671 0.439396
255 1 0.0781042 0.564212 0.356993
315 1 0.428091 0.281692 0.435128
238 1 0.447386 0.362267 0.363914
314 1 0.364318 0.35329 0.436393
249 1 0.35355 0.417419 0.36197
322 1 0.432148 0.416027 0.429621
336 1 0.425296 0.717145 0.438197
332 1 0.145919 0.709619 0.433393
343 1 0.426201 0.856066 0.429665
241 1 0.0610336 0.42806 0.354795
246 1 0.145818 0.489857 0.354558
317 1 0.0663968 0.492723 0.42343
274 1 0.152736 0.790325 0.363301
331 1 0.0754293 0.770653 0.42952
259 1 0.217358 0.564274 0.351187
245 1 0.213455 0.430639 0.350014
327 1 0.29214 0.557785 0.430519
319 1 0.218669 0.469446 0.434688
250 1 0.292975 0.483153 0.372472
291 1 0.361737 0.868476 0.347698
79 1 0.284442 0.72012 -0.0006967
883 1 0.497779 0.063722 0.276584
940 1 0.484077 0.566171 0.355517
1023 1 0.506846 0.918503 0.42734
281 1 -0.000242791 0.849446 0.295073
374 1 0.216249 0.552193 0.494758
169 1 0.0108514 0.711982 0.134277
4 1 -0.00480379 0.0785843 0.0704935
702 1 0.487433 0.145058 0.0688839
144 1 0.00871864 0.500247 0.213424
116 1 0.0019562 0.213932 0.217535
74 1 0.00516313 0.785818 0.0773176
375 1 0.136386 0.63104 0.518111
744 1 0.495319 0.566372 0.0750125
939 1 0.4967 0.63901 0.291923
284 1 -0.00466724 0.924519 0.354212
1002 1 0.491847 0.505485 0.431676
387 1 0.00163089 0.929993 0.500464
347 1 0.147131 0.0619116 0.501044
47 1 0.145799 0.437388 -0.0131144
130 1 0.0216814 0.358087 0.212985
855 1 0.498854 0.778471 0.146876
954 1 0.50235 0.720613 0.360839
687 1 0.501072 0.0806554 -0.0126812
89 1 0.149979 0.850417 -0.00695128
383 1 0.347444 0.711962 0.495092
2 1 0.0726896 0.0660401 -0.00745921
19 1 0.134814 0.141778 -0.0131862
62 1 0.219863 0.649342 0.0132905
362 1 0.357729 0.289134 0.492846
349 1 0.26105 0.0700087 0.493271
65 1 0.296286 0.578014 0.00103353
353 1 0.215957 0.153081 0.494929
388 1 0.208718 0.863111 0.49119
382 1 0.144845 0.782959 0.493775
379 1 0.068627 0.693554 0.487226
358 1 0.0632131 0.299726 0.503187
364 1 0.438633 0.353441 0.500364
368 1 0.14426 0.496351 0.508676
61 1 0.149558 0.567916 0.00575478
757 1 0.506789 0.791517 -0.0117895
1051 1 0.500285 0.426946 0.500435
378 1 0.426105 0.64335 0.495287
386 1 0.0749033 0.859287 0.494227
392 1 0.431575 0.927653 0.492397
384 1 0.282552 0.780514 0.500612
94 1 0.372691 0.913952 -9.63271e-05
1072 1 0.489966 0.85365 0.499584
394 1 0.0668107 0.0703331 0.564491
400 1 0.139307 0.0765146 0.631791
395 1 0.0643579 0.989403 0.645451
411 1 0.128265 0.141761 0.569004
366 1 -0.0102025 0.50249 0.504149
729 1 0.491616 0.503609 0.997572
1163 1 0.503573 0.935606 0.563818
398 1 0.20661 0.0729525 0.569099
404 1 0.276115 0.0738084 0.646135
413 1 0.203102 0.134475 0.642514
415 1 0.278266 0.137139 0.566375
673 1 -0.00546418 0.859814 0.860719
402 1 0.354763 0.0599635 0.584923
406 1 0.434599 0.07665 0.641807
405 1 0.429271 0.0121821 0.569881
1135 1 0.500338 0.655052 0.557853
1304 1 0.493539 0.279078 0.909309
376 1 0.346705 0.567543 0.50205
662 1 0.00350372 0.788411 0.917942
20 1 0.203641 0.211152 1.00026
409 1 0.0632304 0.120982 0.640053
408 1 0.0554659 0.219714 0.58122
414 1 0.130491 0.205044 0.648789
423 1 0.0577531 0.295689 0.643309
603 1 -0.000822383 0.144582 0.852835
561 1 -0.00789229 0.72769 0.721558
1220 1 0.49645 0.433135 0.780628
412 1 0.199591 0.214651 0.581496
418 1 0.285384 0.220642 0.643456
427 1 0.224814 0.298115 0.641035
417 1 0.356592 0.139 0.642115
419 1 0.431508 0.144987 0.57558
416 1 0.348712 0.207462 0.571985
420 1 0.427451 0.201902 0.646673
433 1 0.423376 0.264835 0.566581
431 1 0.369198 0.276489 0.632384
407 1 0.0021677 0.151555 0.561081
76 1 0.215182 0.781424 1.00616
536 1 0.00285817 0.508114 0.804371
425 1 0.13478 0.285938 0.569615
422 1 0.0741404 0.362844 0.569846
428 1 0.140699 0.362009 0.640327
439 1 0.132638 0.435296 0.577973
533 1 0.000572152 0.439379 0.747132
10 1 0.360377 0.0745195 0.991522
701 1 0.491197 0.224188 0.978284
429 1 0.280812 0.273958 0.564262
426 1 0.20057 0.344261 0.565854
432 1 0.29416 0.365107 0.628984
441 1 0.214617 0.416175 0.634345
443 1 0.28939 0.430308 0.563804
430 1 0.353871 0.346199 0.565138
434 1 0.414074 0.358983 0.634379
447 1 0.432426 0.426159 0.574211
743 1 0.500289 0.628508 1.00104
437 1 0.0668249 0.42504 0.650086
436 1 0.06362 0.498326 0.568134
442 1 0.137538 0.48529 0.655329
27 1 0.426876 0.147854 0.994134
634 1 0.00298061 0.506475 0.932925
440 1 0.206073 0.50106 0.57195
446 1 0.275051 0.495563 0.634463
1234 1 0.504418 0.577319 0.792028
369 1 0.368192 0.431361 0.505343
452 1 -0.00612507 0.640117 0.6573
445 1 0.369956 0.435369 0.637871
444 1 0.356568 0.504271 0.573521
448 1 0.428234 0.507045 0.633412
459 1 0.355579 0.578044 0.648012
461 1 0.423792 0.575457 0.569467
451 1 0.0584563 0.574495 0.646517
453 1 0.130192 0.561476 0.58546
450 1 0.0621873 0.636428 0.579676
456 1 0.127472 0.642808 0.641838
683 1 0.364868 0.838864 0.929834
648 1 0.00841859 0.656419 0.942526
682 1 0.356234 0.925692 0.855184
631 1 0.00877646 0.444302 0.866869
455 1 0.210557 0.575377 0.656096
457 1 0.270716 0.571732 0.571938
454 1 0.210225 0.63344 0.571258
460 1 0.274652 0.647818 0.63526
469 1 0.199514 0.713353 0.645116
458 1 0.345496 0.62764 0.569634
462 1 0.412525 0.647023 0.635169
473 1 0.358776 0.722315 0.644679
1317 1 0.499559 0.50109 0.851323
475 1 0.425973 0.723096 0.562658
1233 1 0.505376 0.658833 0.704042
449 1 -0.0066186 0.564719 0.573279
391 1 0.286051 0.933857 0.490521
465 1 0.0624273 0.709518 0.643544
467 1 0.148691 0.722476 0.565953
464 1 0.0795199 0.791226 0.570002
470 1 0.139763 0.781504 0.644957
479 1 0.0721237 0.864218 0.643119
481 1 0.151205 0.862529 0.559794
508 1 -0.00830889 0.209629 0.781074
471 1 0.282222 0.712043 0.566307
468 1 0.207498 0.786937 0.553785
474 1 0.282356 0.778544 0.627235
483 1 0.212604 0.844084 0.626096
485 1 0.285277 0.864367 0.553499
472 1 0.345447 0.77985 0.570567
476 1 0.421246 0.797003 0.641181
1345 1 0.508811 0.785165 0.86647
30 1 0.0570843 0.35474 1.00779
397 1 0.136936 -0.000376499 0.567524
478 1 0.0668197 0.923247 0.563367
484 1 0.140105 0.930458 0.628234
686 1 0.44007 0.935034 0.922104
34 1 0.217658 0.36282 0.989841
401 1 0.280948 1.01012 0.566866
399 1 0.210976 1.00343 0.636078
482 1 0.215561 0.928413 0.573535
488 1 0.289391 0.928386 0.633613
403 1 0.375155 0.99163 0.640145
51 1 0.297886 0.429941 1.00393
480 1 -0.00742224 0.922686 0.633484
487 1 0.343536 0.859027 0.632809
489 1 0.425472 0.86135 0.574268
486 1 0.36306 0.938494 0.566826
490 1 0.44169 0.925722 0.644882
1318 1 0.501878 0.428663 0.931567
492 1 0.0743582 0.0634397 0.716763
498 1 0.155098 0.0641687 0.787041
507 1 0.0730704 0.149424 0.787392
509 1 0.139784 0.129921 0.708245
493 1 0.0756518 0.986576 0.786496
496 1 0.215138 0.0668876 0.718951
502 1 0.291153 0.0750954 0.784796
513 1 0.292964 0.146624 0.710849
497 1 0.206337 0.984026 0.774684
500 1 0.364104 0.0621765 0.714899
504 1 0.425982 0.0609865 0.773276
515 1 0.367613 0.135165 0.780004
503 1 0.449916 -0.00756678 0.702381
501 1 0.356519 0.991154 0.778237
517 1 0.435448 0.136957 0.709404
506 1 0.0590935 0.189607 0.709811
512 1 0.136902 0.224252 0.782213
523 1 0.134532 0.287877 0.698083
511 1 0.200738 0.14332 0.796859
510 1 0.209615 0.212733 0.704471
516 1 0.278629 0.2084 0.780193
525 1 0.210139 0.280783 0.766259
367 1 0.210248 0.415491 0.510968
514 1 0.360119 0.214299 0.710627
518 1 0.43539 0.207943 0.771032
529 1 0.356144 0.279208 0.770087
75 1 0.147264 0.710029 1.01439
663 1 0.159378 0.714883 0.863901
521 1 0.0547389 0.281611 0.775931
520 1 0.0660473 0.352752 0.726961
526 1 0.126069 0.358747 0.792599
537 1 0.147359 0.422831 0.721141
535 1 0.0845999 0.443206 0.798045
527 1 0.292705 0.283255 0.704416
524 1 0.219254 0.354701 0.715635
530 1 0.278247 0.341454 0.78072
539 1 0.214833 0.423076 0.794232
531 1 0.427352 0.286718 0.710579
528 1 0.35372 0.351138 0.707893
532 1 0.420869 0.351407 0.785532
685 1 0.443192 0.854019 0.865733
665 1 0.210038 0.716166 0.943215
534 1 0.0754981 0.505253 0.724667
540 1 0.148403 0.511408 0.794825
666 1 0.153483 0.788728 0.919554
541 1 0.275107 0.422848 0.716583
538 1 0.218551 0.486856 0.719167
544 1 0.291766 0.512646 0.792639
555 1 0.291844 0.580701 0.719941
545 1 0.425069 0.42984 0.724131
543 1 0.348848 0.42424 0.780658
542 1 0.34995 0.508839 0.71503
546 1 0.425873 0.510393 0.782683
557 1 0.361763 0.584768 0.781113
559 1 0.434038 0.572823 0.709658
551 1 0.139463 0.574821 0.725049
549 1 0.0690253 0.59241 0.796023
548 1 0.0674459 0.639404 0.71379
554 1 0.146721 0.653355 0.787667
565 1 0.128814 0.7126 0.711814
670 1 0.28103 0.783645 0.91871
553 1 0.226094 0.580481 0.788256
552 1 0.222332 0.649285 0.718439
558 1 0.289592 0.65899 0.78832
569 1 0.302677 0.722666 0.71814
661 1 0.0850468 0.718318 0.93317
556 1 0.363948 0.641652 0.711662
560 1 0.436827 0.643969 0.772074
571 1 0.359145 0.719755 0.796024
573 1 0.420997 0.71024 0.706545
664 1 0.21718 0.804216 0.859044
601 1 0.432002 -0.00741478 0.852957
563 1 0.0719896 0.71957 0.781574
562 1 0.0777348 0.793459 0.71923
568 1 0.140329 0.78492 0.788324
577 1 0.0668707 0.854384 0.798118
579 1 0.154211 0.860501 0.703297
681 1 0.296638 0.857356 0.860524
567 1 0.210769 0.723482 0.777308
566 1 0.215121 0.781445 0.701857
572 1 0.291439 0.797656 0.785941
581 1 0.214586 0.84821 0.777403
583 1 0.270252 0.851793 0.696112
570 1 0.354865 0.799286 0.708966
574 1 0.438477 0.77974 0.788596
587 1 0.43992 0.850705 0.716751
505 1 -0.00925052 0.126555 0.707907
495 1 0.146132 0.991187 0.703072
576 1 0.0597939 0.923166 0.711073
582 1 0.135407 0.922687 0.790194
678 1 0.219169 0.921779 0.851256
654 1 0.365949 0.64878 0.862137
499 1 0.29517 0.995226 0.707818
580 1 0.210194 0.927282 0.701474
586 1 0.28017 0.911818 0.765392
585 1 0.380735 0.865093 0.79909
584 1 0.362394 0.914339 0.709327
588 1 0.447432 0.932555 0.780486
684 1 0.293599 0.924129 0.935031
590 1 0.0790029 0.0652202 0.848031
596 1 0.149754 0.0648316 0.927653
607 1 0.133799 0.135592 0.863047
605 1 0.0630121 0.122488 0.926088
593 1 0.154806 0.988876 0.857382
680 1 0.147343 0.924597 0.923552
679 1 0.220436 0.857224 0.924816
348 1 0.353873 -0.00289488 0.490613
672 1 0.43881 0.786287 0.929844
597 1 0.286619 0.00520916 0.8564
595 1 0.222544 -0.00881919 0.921863
594 1 0.21805 0.0715858 0.84986
600 1 0.275619 0.073385 0.936328
609 1 0.212837 0.136288 0.919648
677 1 0.138501 0.856175 0.852127
599 1 0.355869 0.00234257 0.917337
598 1 0.358441 0.0673702 0.845139
602 1 0.419209 0.070238 0.918936
613 1 0.353399 0.138913 0.919392
615 1 0.435131 0.129377 0.83866
674 1 0.0775827 0.92616 0.858171
604 1 0.061241 0.215157 0.843175
610 1 0.143125 0.206215 0.924939
619 1 0.0668509 0.294478 0.925462
621 1 0.132583 0.285629 0.864797
1107 1 0.50411 0.358283 0.575961
655 1 0.338972 0.575883 0.923707
668 1 0.363327 0.789829 0.853733
611 1 0.294005 0.140573 0.858578
608 1 0.211414 0.216961 0.848812
614 1 0.281039 0.212251 0.930975
623 1 0.20474 0.275438 0.928517
625 1 0.284335 0.278589 0.850753
44 1 0.0698432 0.503834 1.01543
675 1 0.0774806 0.855712 0.917343
612 1 0.364936 0.200385 0.845288
616 1 0.429192 0.211531 0.911199
627 1 0.347025 0.2828 0.930648
629 1 0.426103 0.280363 0.848189
591 1 0.0753608 -0.0109892 0.917042
463 1 0.00749056 0.708079 0.576891
658 1 0.43004 0.635772 0.927435
550 1 -0.0056663 0.646384 0.788968
669 1 0.35826 0.72089 0.924522
618 1 0.0578103 0.358579 0.860808
624 1 0.141631 0.361381 0.923629
622 1 0.209385 0.360292 0.863257
628 1 0.291251 0.358372 0.923525
656 1 0.28035 0.657979 0.919641
626 1 0.359736 0.350299 0.85353
630 1 0.427701 0.36055 0.923165
641 1 0.3614 0.4277 0.91466
650 1 0.221503 0.642921 0.853543
635 1 0.147611 0.434076 0.867946
633 1 0.0575036 0.431898 0.951314
632 1 0.0762139 0.520952 0.868708
638 1 0.133979 0.506219 0.931918
649 1 0.143664 0.594689 0.872386
1122 1 0.503098 0.429837 0.642966
667 1 0.272494 0.729055 0.852968
639 1 0.28662 0.437065 0.848636
637 1 0.214404 0.438608 0.924694
636 1 0.207959 0.529006 0.86518
642 1 0.290171 0.500982 0.9192
653 1 0.291811 0.583971 0.846976
55 1 0.434595 0.427948 0.991945
651 1 0.222507 0.585842 0.936342
643 1 0.434654 0.430765 0.850681
644 1 0.425176 0.504141 0.924566
640 1 0.363398 0.50746 0.852031
657 1 0.422803 0.58382 0.849104
660 1 0.0788536 0.788745 0.856971
671 1 0.437385 0.718513 0.856413
647 1 0.0739337 0.580637 0.945189
652 1 0.153612 0.648578 0.943398
646 1 0.0736298 0.657347 0.869447
6 1 0.203115 0.0784349 0.999608
1058 1 0.498584 0.581484 0.503872
519 1 -0.0100946 0.28679 0.711256
363 1 0.289461 0.346556 0.498224
365 1 0.0689443 0.432351 0.501937
410 1 -0.010603 0.212411 0.655237
346 1 0.210375 0.997725 0.500558
24 1 0.358079 0.215617 0.993896
1149 1 0.489954 0.784969 0.555214
575 1 -0.000499867 0.83834 0.711345
547 1 -0.00470715 0.582294 0.735702
361 1 0.137899 0.355574 0.490336
466 1 0.00621025 0.788923 0.636394
38 1 0.361546 0.35774 0.993338
23 1 0.286098 0.14287 1.00092
522 1 -0.00543504 0.354631 0.787219
578 1 -0.00670027 0.925252 0.790156
1136 1 0.497073 0.580778 0.632075
1219 1 0.500641 0.506135 0.720692
1150 1 0.490601 0.720397 0.630512
37 1 0.278604 0.293437 1.00221
491 1 -0.00621884 0.994225 0.72193
66 1 0.350976 0.650682 1.00725
52 1 0.357055 0.495114 0.994854
69 1 0.407345 0.571892 0.98888
85 1 0.00362324 0.842474 0.996172
350 1 0.442646 0.0813887 0.498695
16 1 0.0734165 0.224725 0.987883
90 1 0.215683 0.920702 0.992656
355 1 0.360274 0.129337 0.519843
33 1 0.139727 0.295733 0.994299
357 1 0.417862 0.207819 0.493895
370 1 0.293378 0.494155 0.499964
86 1 0.0746435 0.912853 0.991116
356 1 0.303836 0.210635 0.49271
371 1 0.434737 0.493826 0.511339
97 1 0.434762 0.849891 1.00678
354 1 0.140825 0.206006 0.497448
13 1 0.423118 0.996326 0.991087
41 1 0.428253 0.280113 0.994902
377 1 0.277457 0.637399 0.490704
48 1 0.228386 0.502255 1.00433
5 1 0.134156 -0.00758048 1.00124
390 1 0.3543 0.854106 0.49638
381 1 0.210299 0.70517 0.497529
9 1 0.294437 1.00126 0.991474
692 1 0.556524 0.0711837 0.0702332
788 1 0.640517 0.0735656 0.144888
705 1 0.63269 0.136419 0.0708033
691 1 0.645517 -0.0119031 0.0754571
787 1 0.565801 0.0118859 0.140443
696 1 0.706198 0.0594438 0.0761509
792 1 0.806938 0.0638433 0.142676
695 1 0.779738 1.00303 0.0766449
700 1 0.875225 0.0857479 0.0741406
796 1 0.940236 0.0590508 0.152066
225 1 0.992826 0.290344 0.287245
699 1 0.94234 0.997348 0.0722155
801 1 0.572429 0.14801 0.14784
706 1 0.573283 0.209945 0.0734933
802 1 0.645459 0.207128 0.135908
719 1 0.632617 0.279304 0.0479196
295 1 1.00855 1.00814 0.408095
768 1 0.92234 0.789677 0.0160182
718 1 0.634919 0.362195 0.000281837
805 1 0.713856 0.141064 0.13941
709 1 0.791564 0.151968 0.0793682
710 1 0.707674 0.220292 0.06743
806 1 0.780305 0.212084 0.136441
819 1 0.71229 0.276733 0.135179
809 1 0.862937 0.14657 0.149525
979 1 0.916919 0.85574 0.372576
713 1 0.938683 0.15261 0.0736506
714 1 0.861088 0.217226 0.067454
810 1 0.923089 0.223626 0.138553
302 1 0.993672 0.154026 0.426173
1057 1 0.84742 0.506762 0.496247
815 1 0.571137 0.269572 0.136058
720 1 0.579859 0.353484 0.0829046
816 1 0.64928 0.350249 0.147337
733 1 0.635109 0.435626 0.062755
981 1 0.4941 0.0826199 0.414748
723 1 0.782939 0.280174 0.0606041
724 1 0.712798 0.354134 0.0630239
820 1 0.785256 0.332948 0.130149
737 1 0.787913 0.415481 0.0693182
727 1 0.931112 0.27587 0.070554
823 1 0.849002 0.27986 0.137297
728 1 0.868044 0.347538 0.0638138
824 1 0.909411 0.34358 0.144395
741 1 0.933419 0.438923 0.0779702
829 1 0.582216 0.438711 0.14208
734 1 0.568108 0.488325 0.0615202
830 1 0.650595 0.516001 0.138128
843 1 0.554377 0.558109 0.136841
747 1 0.627229 0.570084 0.0694827
782 1 0.937878 0.904587 -0.000661825
833 1 0.716152 0.431515 0.145894
738 1 0.703582 0.507572 0.0706026
834 1 0.779735 0.498832 0.15108
330 1 1.00503 0.717751 0.412097
837 1 0.846622 0.422138 0.161696
742 1 0.86697 0.499829 0.0633589
838 1 0.937703 0.492508 0.158584
748 1 0.56191 0.638568 0.0697417
844 1 0.635338 0.633011 0.143754
857 1 0.566663 0.711971 0.139391
761 1 0.644389 0.721802 0.0787706
995 1 0.520855 0.357004 0.419054
847 1 0.711569 0.577879 0.155127
751 1 0.779437 0.571124 0.0824142
752 1 0.699544 0.624918 0.0843598
848 1 0.784648 0.634231 0.149288
765 1 0.772887 0.709993 0.0789408
861 1 0.712195 0.709289 0.144815
1061 1 0.784264 0.58352 0.493319
851 1 0.856124 0.584287 0.151017
755 1 0.930206 0.567584 0.0919031
756 1 0.859121 0.644596 0.0784673
852 1 0.940553 0.647002 0.150795
769 1 0.928718 0.706107 0.0843353
986 1 0.862138 -0.00821732 0.43582
912 1 0.510193 0.277619 0.363406
911 1 0.516124 0.341468 0.277022
762 1 0.559177 0.783928 0.0712698
858 1 0.635809 0.781967 0.148116
775 1 0.637266 0.864716 0.0831473
980 1 0.856704 0.931109 0.371068
766 1 0.709629 0.799249 0.0799047
862 1 0.798166 0.785273 0.151271
779 1 0.78145 0.873966 0.0938582
211 1 0.998728 0.156825 0.290375
865 1 0.860176 0.70538 0.152682
770 1 0.853739 0.783631 0.07282
866 1 0.932004 0.782407 0.146949
783 1 0.922297 0.859826 0.0763308
879 1 0.860006 0.851333 0.151797
828 1 0.509337 0.4319 0.204451
925 1 0.501462 0.494249 0.287701
732 1 0.64308 0.511304 -0.000515519
60 1 1.00662 0.64053 0.066927
777 1 0.701389 0.86342 0.0140536
871 1 0.56976 0.862992 0.149708
776 1 0.568148 0.933731 0.0849192
872 1 0.639589 0.936429 0.149698
1029 1 0.931114 0.927126 0.438348
791 1 0.713061 1.00624 0.150532
875 1 0.710519 0.873018 0.155993
780 1 0.712537 0.9349 0.0826527
876 1 0.78512 0.946792 0.148904
795 1 0.868251 -0.00134519 0.152715
18 1 1.01202 0.22119 0.0727975
784 1 0.856723 0.929134 0.0856148
880 1 0.932779 0.93293 0.151018
926 1 0.513981 0.430033 0.348573
763 1 0.710554 0.726904 -0.00108178
790 1 0.570012 0.0713591 0.222781
886 1 0.6532 0.0764858 0.295653
789 1 0.639037 1.00566 0.219083
794 1 0.72527 0.0669511 0.218534
890 1 0.790446 0.0732298 0.277833
903 1 0.709475 0.159487 0.28455
793 1 0.791335 0.00208738 0.220484
1045 1 0.638082 0.292046 0.496434
798 1 0.863674 0.0626179 0.21543
894 1 0.934389 0.06508 0.294159
797 1 0.940872 0.994035 0.227709
316 1 0.982489 0.421201 0.443015
1066 1 0.660911 0.739848 0.499284
803 1 0.651281 0.137887 0.216467
899 1 0.569344 0.133523 0.292056
804 1 0.570021 0.221807 0.221796
900 1 0.629709 0.204852 0.281012
817 1 0.644145 0.272604 0.211481
807 1 0.780809 0.140979 0.202815
808 1 0.717927 0.215681 0.206694
904 1 0.780943 0.215877 0.283913
821 1 0.790654 0.278779 0.21515
917 1 0.713923 0.277512 0.282443
811 1 0.925065 0.140524 0.220103
907 1 0.849192 0.143464 0.285579
812 1 0.854151 0.216034 0.218016
908 1 0.926211 0.218655 0.29141
825 1 0.924172 0.288523 0.221783
697 1 0.86711 0.00273779 0.00448783
781 1 0.845848 0.86225 0.00849341
913 1 0.587934 0.282383 0.298207
818 1 0.570305 0.354131 0.197175
914 1 0.638458 0.355236 0.271736
927 1 0.584114 0.427214 0.280555
822 1 0.710121 0.344603 0.212107
918 1 0.773939 0.352827 0.2877
835 1 0.773133 0.413679 0.215226
921 1 0.841929 0.294887 0.300026
826 1 0.854254 0.353941 0.229993
922 1 0.924042 0.364396 0.293416
975 1 0.802237 0.867596 0.358355
1069 1 0.725901 0.799894 0.491177
831 1 0.640527 0.422739 0.207057
832 1 0.581327 0.503638 0.22283
928 1 0.641057 0.505031 0.291283
845 1 0.639165 0.572552 0.216299
931 1 0.704575 0.421504 0.300116
836 1 0.695842 0.489614 0.213032
932 1 0.771824 0.496115 0.264547
767 1 0.863498 0.713832 0.00276386
976 1 0.718039 0.930089 0.336021
839 1 0.935517 0.403878 0.209592
935 1 0.858829 0.429806 0.279691
840 1 0.855096 0.493879 0.209259
936 1 0.942644 0.490637 0.280087
941 1 0.554454 0.578517 0.286876
846 1 0.560615 0.626798 0.207205
942 1 0.632647 0.642315 0.28728
955 1 0.560951 0.707022 0.28124
849 1 0.789891 0.571498 0.215292
945 1 0.708271 0.567641 0.283262
850 1 0.702447 0.641807 0.216092
946 1 0.782418 0.636005 0.278292
155 1 1.01826 0.567097 0.142169
949 1 0.866941 0.553266 0.283858
853 1 0.935884 0.567885 0.208387
854 1 0.859455 0.642599 0.221805
950 1 0.933283 0.627737 0.277382
963 1 0.855382 0.716145 0.291797
859 1 0.636456 0.713113 0.212836
860 1 0.566936 0.788534 0.217085
956 1 0.656393 0.787205 0.274995
959 1 0.716184 0.721308 0.280955
863 1 0.776546 0.714142 0.218595
864 1 0.725265 0.790988 0.195314
960 1 0.792996 0.789451 0.286376
973 1 0.719681 0.859217 0.265657
721 1 0.704964 0.297314 0.000924571
253 1 0.999551 0.561804 0.29324
867 1 0.925077 0.702388 0.221046
868 1 0.865868 0.79093 0.226104
964 1 0.928575 0.789182 0.3048
881 1 0.930937 0.859624 0.225374
966 1 0.851077 0.78123 0.367678
885 1 0.574533 0.00899623 0.28825
873 1 0.643915 0.849517 0.207544
969 1 0.563535 0.860683 0.272084
874 1 0.574201 0.933948 0.209483
970 1 0.644646 0.931365 0.27126
965 1 0.929305 0.708646 0.362309
877 1 0.794049 0.863573 0.217464
889 1 0.738521 1.00079 0.2889
878 1 0.712686 0.943881 0.222186
974 1 0.794618 0.925893 0.279898
893 1 0.858005 0.00200563 0.286975
977 1 0.858908 0.852819 0.28608
882 1 0.869673 0.933695 0.221724
978 1 0.921773 0.927988 0.29808
778 1 0.79837 0.938981 -0.0154307