ITEM: TIMESTEP
28750
ITEM: NUMBER OF ATOMS
864
ITEM: BOX BOUNDS pp pp pp
0.0000000000000000e+00 3.1559999999999999e+01
0.0000000000000000e+00 3.1559999999999999e+01
0.0000000000000000e+00 3.1559999999999999e+01
ITEM: ATOMS id type xs ys zs
8 1 0.163566 0.085159 0.0882094
4 1 0.0113526 0.078153 0.0974028
226 1 0.417617 0.0748643 0.496422
73 1 0.996191 0.00634338 0.180428
15 1 0.583049 0.00898011 0.0884607
12 1 0.328988 0.08618 0.0783871
105 1 0.321611 0.176865 0.156609
159 1 0.573979 -0.00146926 0.417216
78 1 0.255497 0.0906918 0.159183
273 1 0.338868 0.335293 0.501169
35 1 0.413282 0.165835 0.0879471
82 1 0.413609 0.0941359 0.17327
16 1 0.500081 0.0820612 0.0938733
20 1 0.663621 0.0848873 0.0918106
93 1 0.838264 0.00278155 0.176434
213 1 0.840827 0.330798 0.329348
145 1 0.00586091 0.00349879 0.358793
24 1 0.846759 0.0843457 0.0858322
95 1 0.912225 9.19083e-06 0.276323
238 1 0.913613 0.0728458 0.494623
11 1 0.417178 0.000458017 0.0870469
234 1 0.761388 0.0824837 0.496343
47 1 0.936966 0.157925 0.102328
25 1 0.00100048 0.155896 0.00414077
27 1 0.0932209 0.164488 0.0706958
32 1 0.158059 0.248336 0.1045
18 1 0.736802 0.081077 0.00120713
31 1 0.244063 0.177866 0.0803036
36 1 0.327467 0.272595 0.0911199
55 1 0.239538 0.329372 0.0724545
599 1 0.919801 0.488987 0.416935
102 1 0.252502 0.269072 0.175822
1 1 0.0154368 0.00867527 0.0122055
59 1 0.422296 0.334103 0.0948857
40 1 0.506613 0.252984 0.0923299
511 1 0.251956 0.497599 0.253182
589 1 0.502 0.498407 0.322123
39 1 0.590822 0.170305 0.0942914
44 1 0.671013 0.240974 0.0871808
63 1 0.601814 0.326063 0.0891122
258 1 0.7432 0.258 0.484373
43 1 0.752728 0.15105 0.0910267
48 1 0.826868 0.231584 0.07798
439 1 0.244785 0.497351 0.0800929
28 1 0.0271116 0.230133 0.099237
443 1 0.406661 0.498813 0.0772792
51 1 0.0857893 0.330201 0.0795195
56 1 0.174538 0.420001 0.0789723
519 1 0.584609 0.487685 0.238803
216 1 0.836545 0.419202 0.414149
69 1 0.838426 0.317232 0.00201014
193 1 1.00172 0.332746 0.324473
210 1 0.747967 0.412844 0.321915
60 1 0.327587 0.398394 0.085581
64 1 0.496048 0.413917 0.0774111
46 1 0.935028 0.242702 0.0171586
155 1 0.403018 -0.00109953 0.420851
134 1 0.575522 0.407372 0.162046
137 1 0.662716 0.321118 0.172264
68 1 0.677893 0.410311 0.0707688
597 1 0.828407 0.478655 0.330502
85 1 0.4925 0.00980748 0.170416
81 1 0.329163 0.0189166 0.151455
67 1 0.745404 0.328822 0.0860609
521 1 0.66904 0.499908 0.147873
215 1 0.904096 0.327946 0.427885
87 1 0.582738 0.00824145 0.251805
52 1 0.00910407 0.419349 0.09837
72 1 0.836117 0.41936 0.0911643
121 1 0.0146269 0.335243 0.160843
71 1 0.917912 0.324375 0.0876793
188 1 0.662926 0.246884 0.412637
507 1 0.0864292 0.499472 0.262371
74 1 0.0957577 0.0766087 0.172856
76 1 0.00780659 0.0868052 0.261794
80 1 0.171339 0.0913591 0.258769
185 1 0.667295 0.14799 0.330709
150 1 0.25103 0.097202 0.336049
196 1 0.988126 0.409488 0.426057
192 1 0.824637 0.250646 0.412348
109 1 0.496245 0.166217 0.167521
84 1 0.342672 0.106981 0.26276
154 1 0.416023 0.0716137 0.32547
203 1 0.416208 0.337336 0.415425
88 1 0.49794 0.0877945 0.258683
86 1 0.585224 0.0893686 0.175133
92 1 0.66993 0.0829719 0.240042
111 1 0.575903 0.167324 0.248033
158 1 0.583097 0.0810023 0.346297
172 1 0.995289 0.253643 0.429589
90 1 0.756068 0.0650893 0.172235
96 1 0.819955 0.083777 0.272973
115 1 0.754009 0.171082 0.253134
162 1 0.74099 0.0728502 0.348694
94 1 0.913758 0.0899856 0.184199
166 1 0.907125 0.0841719 0.331059
206 1 0.574967 0.426651 0.326419
199 1 0.25999 0.34334 0.416913
97 1 0.000751674 0.159121 0.184261
98 1 0.0894587 0.248538 0.186368
99 1 0.08425 0.179175 0.271254
123 1 0.0814499 0.3432 0.244392
104 1 0.164545 0.2437 0.263966
103 1 0.24944 0.162982 0.244307
101 1 0.171414 0.161828 0.168831
127 1 0.255392 0.347535 0.262521
129 1 0.339171 0.330329 0.17873
201 1 0.34334 0.343038 0.329149
107 1 0.427295 0.18087 0.256852
108 1 0.337969 0.235954 0.247579
106 1 0.415247 0.246221 0.162733
133 1 0.493498 0.332351 0.170553
112 1 0.507666 0.251795 0.242025
131 1 0.414789 0.315857 0.252575
110 1 0.588885 0.238721 0.173017
113 1 0.666933 0.159774 0.165241
116 1 0.666067 0.232662 0.25249
182 1 0.579726 0.257534 0.336444
114 1 0.762003 0.249575 0.172909
186 1 0.746076 0.252874 0.32939
120 1 0.84771 0.256335 0.249073
117 1 0.841719 0.169005 0.171768
119 1 0.915024 0.164901 0.26095
100 1 0.995545 0.240208 0.249563
118 1 0.927365 0.236833 0.16295
190 1 0.922643 0.238532 0.337107
189 1 0.831684 0.17845 0.334703
122 1 0.0675473 0.430663 0.182174
194 1 0.0650156 0.416233 0.343142
209 1 0.669307 0.337621 0.327404
208 1 0.500959 0.418209 0.407664
125 1 0.165121 0.342564 0.162516
126 1 0.242495 0.41662 0.164038
128 1 0.172886 0.42201 0.25468
132 1 0.34109 0.413554 0.254402
205 1 0.498351 0.329943 0.324668
130 1 0.411971 0.416463 0.163229
202 1 0.417908 0.423444 0.321997
136 1 0.504219 0.406125 0.247398
211 1 0.751506 0.342023 0.40792
135 1 0.586773 0.323104 0.251231
140 1 0.655067 0.40925 0.243228
207 1 0.561859 0.327522 0.421147
183 1 0.591149 0.165192 0.418126
139 1 0.737731 0.33267 0.240843
138 1 0.735742 0.410535 0.169659
214 1 0.912741 0.409824 0.342231
143 1 0.931466 0.322785 0.237153
124 1 0.984276 0.429934 0.259398
141 1 0.829728 0.333834 0.166731
144 1 0.843148 0.414511 0.241005
142 1 0.921343 0.408615 0.164599
146 1 0.0886649 0.0784981 0.34565
171 1 0.0946614 0.176386 0.43032
509 1 0.170777 0.495416 0.17048
212 1 0.664822 0.416727 0.411277
152 1 0.163715 0.0923254 0.436236
156 1 0.331182 0.0852201 0.425613
175 1 0.247324 0.179174 0.426188
173 1 0.165896 0.17169 0.352656
513 1 0.327467 0.490461 0.154463
435 1 0.0815696 0.497489 0.103171
178 1 0.421886 0.251891 0.334374
198 1 0.249009 0.430793 0.338334
179 1 0.419614 0.153304 0.42677
184 1 0.487568 0.239894 0.412323
14 1 0.581594 0.07804 0.00982201
160 1 0.495453 0.0749415 0.414598
164 1 0.656799 0.0808965 0.424673
200 1 0.160974 0.431056 0.417513
230 1 0.570494 0.0933844 0.492372
204 1 0.331343 0.428823 0.420157
187 1 0.753659 0.16848 0.414374
66 1 0.758377 0.400279 0.00356103
191 1 0.913213 0.171027 0.429156
168 1 0.832739 0.100428 0.407996
148 1 0.985673 0.0809884 0.426055
169 1 0.0081411 0.161805 0.347597
181 1 0.50963 0.166745 0.330083
170 1 0.0825042 0.263534 0.34676
195 1 0.0851571 0.331214 0.428981
197 1 0.159004 0.34212 0.350154
177 1 0.331447 0.1722 0.348359
176 1 0.163264 0.261347 0.424578
174 1 0.264813 0.266985 0.33347
180 1 0.333876 0.248015 0.426302
523 1 0.740145 0.495049 0.254747
147 1 0.0939977 0.000711082 0.432502
585 1 0.349814 0.498061 0.326224
453 1 0.839826 0.490685 -3.478e-05
3 1 0.0974725 -0.00290895 0.0798454
7 1 0.248366 0.0115694 0.0808986
151 1 0.248258 0.0136477 0.423178
79 1 0.253218 0.025475 0.240839
517 1 0.485613 0.496308 0.159995
70 1 0.92882 0.421429 0.0140114
33 1 0.332473 0.184271 0.0144074
447 1 0.588288 0.482415 0.0688247
157 1 0.510743 0.000915225 0.336031
41 1 0.661226 0.158444 0.0125348
257 1 0.653243 0.1739 0.498692
38 1 0.58258 0.243574 0.00475631
437 1 0.159333 0.49125 0.00115714
249 1 0.335627 0.163994 0.490847
6 1 0.259764 0.100577 0.00211506
50 1 0.0757281 0.427897 0.00351012
58 1 0.413146 0.414145 -0.00250052
10 1 0.421872 0.0846984 0.0173064
34 1 0.416269 0.25081 -0.000513404
37 1 0.508431 0.164393 0.0184838
26 1 0.0753164 0.245017 0.00341002
9 1 0.352175 0.00251319 0.00578028
241 1 0.996998 0.173708 0.495381
266 1 0.0802564 0.43348 0.493233
261 1 0.82699 0.168853 0.492648
282 1 0.750573 0.430882 0.473593
54 1 0.238769 0.417009 0.000734232
269 1 0.173735 0.348725 0.494121
285 1 0.81548 0.344636 0.497466
254 1 0.587359 0.25713 0.491085
277 1 0.499664 0.32871 0.504784
409 1 0.00357558 0.348792 0.840733
220 1 0.990226 0.0695563 0.584118
243 1 0.0857159 0.163151 0.587529
317 1 0.181153 0.168813 0.670412
224 1 0.170896 0.0872055 0.584802
247 1 0.269107 0.161127 0.580688
294 1 0.247741 0.0765176 0.655724
286 1 0.917412 0.408246 0.502427
228 1 0.338212 0.0808345 0.575043
232 1 0.49654 0.0852094 0.581025
251 1 0.413071 0.168391 0.584349
298 1 0.407036 0.0879051 0.660003
255 1 0.583561 0.171403 0.579209
302 1 0.593608 0.090084 0.659847
236 1 0.646323 0.0851942 0.563306
240 1 0.828643 0.0847308 0.590873
259 1 0.743905 0.160978 0.572426
329 1 0.669767 0.167289 0.666837
306 1 0.740378 0.0885594 0.651112
263 1 0.907022 0.168113 0.591197
310 1 0.903554 0.0714798 0.654569
803 1 0.424183 0.494095 0.908464
248 1 0.172951 0.257825 0.580478
337 1 0.986773 0.348504 0.654501
449 1 0.683302 0.487463 0.9933
265 1 0.0127984 0.336707 0.512594
252 1 0.328912 0.247018 0.58245
318 1 0.249942 0.254721 0.656586
345 1 0.326429 0.324978 0.657985
321 1 0.337494 0.180437 0.668304
303 1 0.582218 0.00228629 0.735335
365 1 0.180217 0.0030414 0.854437
275 1 0.410749 0.330453 0.589974
256 1 0.50221 0.257794 0.589407
813 1 0.829712 0.490459 0.830955
223 1 0.249539 0.00408006 0.585031
325 1 0.492857 0.155942 0.660676
326 1 0.594162 0.244054 0.66922
279 1 0.597254 0.325684 0.583728
801 1 0.339036 0.498999 0.845711
295 1 0.259319 0.0160543 0.755041
260 1 0.671314 0.249929 0.579437
264 1 0.815798 0.241569 0.578396
283 1 0.745159 0.338314 0.585012
799 1 0.251615 0.495107 0.921461
809 1 0.673053 0.492015 0.841144
244 1 0.991673 0.25161 0.589889
287 1 0.913192 0.330991 0.565676
218 1 0.0561964 0.0922048 0.501292
267 1 0.0856743 0.339305 0.588364
268 1 0.997836 0.428663 0.568514
272 1 0.161774 0.428943 0.574848
57 1 0.334729 0.318462 0.995262
271 1 0.246352 0.337281 0.577425
276 1 0.342096 0.422814 0.591599
377 1 0.654093 0.00338205 0.822914
811 1 0.763969 0.486489 0.915821
412 1 0.99223 0.428403 0.930298
369 1 0.33774 -0.000858301 0.832553
65 1 0.66777 0.329696 0.997282
222 1 0.255116 0.0872606 0.500332
280 1 0.510734 0.415846 0.603254
242 1 0.0820029 0.255565 0.510243
284 1 0.68592 0.431195 0.573693
357 1 0.838083 0.33783 0.659492
288 1 0.833009 0.421029 0.572472
219 1 0.0818861 0.0057621 0.571089
301 1 0.49259 0.00732647 0.66068
358 1 0.919786 0.422159 0.666102
299 1 0.41951 0.00424448 0.744881
305 1 0.664491 0.00529231 0.661678
290 1 0.074645 0.0877473 0.659354
362 1 0.0937418 0.0688249 0.840045
53 1 0.159648 0.340793 0.995533
293 1 0.166484 0.0142095 0.671265
296 1 0.182462 0.09165 0.745554
300 1 0.335782 0.0836607 0.74336
366 1 0.265498 0.0887866 0.838299
319 1 0.261519 0.166545 0.766002
389 1 0.15792 0.179025 0.814216
393 1 0.335072 0.169447 0.848274
250 1 0.414024 0.253661 0.502979
370 1 0.409932 0.0827689 0.821771
304 1 0.490883 0.0978581 0.745265
743 1 0.905333 0.493187 0.747181
308 1 0.668016 0.088193 0.752302
430 1 0.925029 0.417949 0.829773
374 1 0.593349 0.0897282 0.83233
307 1 0.732749 0.00411885 0.744676
378 1 0.746711 0.081235 0.835747
331 1 0.753104 0.165332 0.747987
313 1 0.99695 0.153873 0.66532
291 1 0.090798 0.00983551 0.754505
292 1 0.979541 0.0868025 0.751166
312 1 0.823538 0.0661544 0.743848
382 1 0.923354 0.0836585 0.843684
315 1 0.0951008 0.167189 0.733835
314 1 0.0853492 0.249499 0.665747
320 1 0.156213 0.270237 0.738164
339 1 0.0849258 0.344402 0.717456
343 1 0.250038 0.328494 0.73523
322 1 0.429296 0.245741 0.666309
397 1 0.497959 0.149895 0.848527
323 1 0.407562 0.175986 0.757644
324 1 0.343152 0.248616 0.742297
328 1 0.499167 0.235578 0.76112
347 1 0.423295 0.330064 0.754959
394 1 0.42267 0.242178 0.838277
421 1 0.499375 0.329459 0.831836
349 1 0.502655 0.316877 0.673317
327 1 0.579063 0.165967 0.752013
351 1 0.598594 0.329568 0.758694
353 1 0.661805 0.334426 0.668611
330 1 0.74144 0.244901 0.668307
333 1 0.828287 0.160832 0.677637
332 1 0.666148 0.246778 0.743176
425 1 0.669121 0.328124 0.83247
335 1 0.909715 0.167301 0.763889
316 1 0.997748 0.237116 0.744687
334 1 0.907427 0.248276 0.669749
336 1 0.835856 0.239328 0.74888
338 1 0.101439 0.436546 0.666976
426 1 0.760963 0.407186 0.829496
428 1 0.667363 0.400017 0.915049
341 1 0.17205 0.351921 0.660604
344 1 0.161408 0.428775 0.750659
410 1 0.0842009 0.429311 0.843152
417 1 0.325292 0.328726 0.822519
342 1 0.261035 0.411442 0.670601
348 1 0.336212 0.417257 0.766802
432 1 0.834139 0.401242 0.934768
346 1 0.419966 0.402194 0.673836
379 1 0.739164 0.00138853 0.925932
352 1 0.512945 0.412281 0.761638
651 1 0.0768014 0.499719 0.581954
350 1 0.601416 0.426154 0.663376
422 1 0.589885 0.417204 0.848387
388 1 0.00452642 0.245505 0.9107
431 1 0.921173 0.343765 0.918213
355 1 0.76201 0.318293 0.746077
356 1 0.683221 0.428718 0.732343
354 1 0.764976 0.418326 0.66606
340 1 0.00585816 0.411109 0.735973
359 1 0.916299 0.338661 0.735613
360 1 0.836559 0.408567 0.747808
429 1 0.848875 0.33536 0.828453
414 1 0.236129 0.422467 0.842259
253 1 0.502383 0.184416 0.513549
387 1 0.0922503 0.164704 0.902987
364 1 0.00898109 0.0848765 0.908864
385 1 0.0199484 0.163145 0.824379
415 1 0.248176 0.341551 0.91718
424 1 0.500596 0.414143 0.906892
368 1 0.178459 0.100917 0.913238
372 1 0.337372 0.0741041 0.916771
411 1 0.0718319 0.323899 0.921794
416 1 0.152776 0.422051 0.921071
407 1 0.93612 0.1633 0.916117
405 1 0.822615 0.16182 0.841369
395 1 0.420279 0.165844 0.928969
5 1 0.161657 0.0220561 0.988542
413 1 0.143626 0.342695 0.831518
418 1 0.418542 0.406042 0.833502
376 1 0.504365 0.0820243 0.92996
380 1 0.648186 0.069906 0.925693
406 1 0.92326 0.255477 0.819031
733 1 0.495376 0.492744 0.681678
384 1 0.836916 0.0942418 0.922165
401 1 0.67917 0.18241 0.828601
408 1 0.87236 0.247013 0.915321
386 1 0.0702867 0.251837 0.821215
390 1 0.233305 0.264366 0.829957
391 1 0.257303 0.174073 0.927649
392 1 0.154523 0.251138 0.917263
396 1 0.329367 0.25614 0.907649
400 1 0.49438 0.25612 0.915827
419 1 0.41199 0.319404 0.919113
398 1 0.574061 0.232085 0.837837
423 1 0.578706 0.330362 0.907323
399 1 0.58009 0.15728 0.936854
404 1 0.651571 0.245449 0.921217
420 1 0.335188 0.412257 0.908226
427 1 0.758008 0.338103 0.914089
403 1 0.734592 0.149463 0.913645
402 1 0.77327 0.25915 0.833258
805 1 0.504981 0.493506 0.840592
735 1 0.590179 0.497967 0.754754
29 1 0.173512 0.173692 0.993815
727 1 0.250379 0.497431 0.750401
671 1 0.924476 0.497173 0.584832
62 1 0.580731 0.411876 0.987934
373 1 0.507028 0.0118568 0.84411
61 1 0.511517 0.327786 0.998456
262 1 0.925556 0.254563 0.506658
815 1 0.907922 0.486801 0.905863
231 1 0.574802 0.00644841 0.572987
445 1 0.499785 0.489067 0.994446
22 1 0.924673 0.0703041 0.995433
278 1 0.583176 0.412316 0.520374
281 1 0.665966 0.337797 0.499806
42 1 0.737884 0.243457 0.992173
441 1 0.321406 0.496174 0.998876
30 1 0.247285 0.251798 0.992914
21 1 0.831786 0.00893682 0.996109
221 1 0.171758 0.00414005 0.510722
661 1 0.496845 0.493423 0.509619
45 1 0.852103 0.180726 0.986275
274 1 0.41719 0.423583 0.503085
49 1 0.00644021 0.342515 0.996968
245 1 0.177339 0.168437 0.514689
246 1 0.246446 0.256579 0.506775
2 1 0.0908253 0.0929596 0.98895
270 1 0.254614 0.426743 0.515033
506 1 0.086692 0.582788 0.168894
440 1 0.153785 0.576551 0.0794635
669 1 0.837613 0.509792 0.490523
485 1 0.161319 0.837654 0.00528141
510 1 0.250411 0.585947 0.151783
505 1 0.988364 0.514647 0.176145
444 1 0.336254 0.581097 0.0761756
446 1 0.580343 0.579852 0.000286765
514 1 0.402603 0.573212 0.159638
537 1 0.317581 0.665832 0.165998
467 1 0.412501 0.661481 0.0991893
163 1 0.745354 0.991514 0.424448
448 1 0.491035 0.577313 0.0654221
541 1 0.507248 0.667098 0.154726
471 1 0.59559 0.666082 0.0640259
452 1 0.667519 0.580741 0.0716106
456 1 0.833439 0.580554 0.0674247
23 1 0.917118 0.997591 0.0853262
436 1 0.00611571 0.599705 0.0777087
451 1 0.76029 0.501185 0.088234
581 1 0.161122 0.505235 0.340117
459 1 0.0854351 0.669061 0.0617466
460 1 0.998322 0.74429 0.0651601
463 1 0.247185 0.679047 0.0866638
533 1 0.164069 0.669091 0.172186
464 1 0.16847 0.747088 0.0844327
534 1 0.241639 0.751709 0.169389
468 1 0.319425 0.751644 0.0859159
538 1 0.397111 0.739758 0.162005
491 1 0.417675 0.819493 0.0771136
472 1 0.520979 0.752537 0.0757469
495 1 0.583352 0.842112 0.0788537
545 1 0.660814 0.667591 0.163828
565 1 0.502564 0.823569 0.159241
13 1 0.506886 0.984477 0.00901797
75 1 0.081308 0.991978 0.250341
475 1 0.744575 0.666782 0.102228
476 1 0.672555 0.757134 0.0816541
480 1 0.84044 0.758886 0.0817207
479 1 0.920117 0.667819 0.0775441
89 1 0.670972 0.989938 0.173375
529 1 0.0200538 0.675145 0.156643
550 1 0.928362 0.732622 0.153127
527 1 0.916124 0.510126 0.250917
161 1 0.659253 0.983839 0.333285
483 1 0.0840677 0.820849 0.0793098
554 1 0.0895941 0.912804 0.164726
484 1 0.00753303 0.932923 0.0986752
493 1 0.499821 0.823013 0.00159695
591 1 0.578965 0.508068 0.40015
487 1 0.235 0.833509 0.0862109
488 1 0.17025 0.928601 0.0906056
558 1 0.254033 0.923814 0.170184
583 1 0.255431 0.50729 0.41231
492 1 0.325665 0.921615 0.0672781
562 1 0.40492 0.903165 0.163423
648 1 0.812357 0.912972 0.426743
587 1 0.434267 0.509214 0.42016
496 1 0.49272 0.909792 0.102719
500 1 0.671851 0.917341 0.0843141
566 1 0.579174 0.912002 0.167497
499 1 0.749222 0.826192 0.0822109
504 1 0.834683 0.910345 0.089554
570 1 0.749806 0.901132 0.163461
670 1 0.920524 0.58691 0.490113
503 1 0.931779 0.830746 0.0747564
553 1 0.00856698 0.83586 0.163776
577 1 1.00129 0.501222 0.340782
525 1 0.844241 0.504848 0.16909
512 1 0.169998 0.574398 0.245352
508 1 0.00251076 0.589328 0.245747
578 1 0.0895503 0.584123 0.333053
647 1 0.927476 0.826083 0.416656
165 1 0.83286 0.994944 0.353481
535 1 0.242996 0.659222 0.250387
709 1 0.489802 0.829741 0.491022
593 1 0.658208 0.504246 0.323605
516 1 0.329611 0.590792 0.24045
586 1 0.414221 0.580035 0.322966
91 1 0.744837 0.994381 0.251232
520 1 0.507315 0.584386 0.236937
518 1 0.577163 0.577542 0.142977
524 1 0.651362 0.572186 0.232306
604 1 0.997025 0.737364 0.406206
590 1 0.572228 0.589764 0.32742
522 1 0.751394 0.582635 0.1633
594 1 0.749313 0.583079 0.323614
621 1 0.838606 0.657452 0.324235
622 1 0.914379 0.75246 0.323428
528 1 0.83879 0.587037 0.2399
526 1 0.910787 0.591864 0.168021
598 1 0.89837 0.572136 0.331852
530 1 0.0918226 0.748684 0.164801
531 1 0.0861623 0.667799 0.251643
602 1 0.0879675 0.740569 0.334112
601 1 0.997862 0.660023 0.33501
532 1 0.0208939 0.759916 0.246049
625 1 -0.00113371 0.821556 0.327983
561 1 0.320291 0.836065 0.160164
536 1 0.173102 0.735868 0.261346
559 1 0.241123 0.836225 0.269992
539 1 0.402783 0.665415 0.240476
540 1 0.326937 0.763604 0.248468
544 1 0.505489 0.750825 0.236241
610 1 0.402825 0.748887 0.3292
563 1 0.422269 0.825286 0.240879
637 1 0.494245 0.828511 0.333064
542 1 0.584622 0.739962 0.152821
543 1 0.580497 0.657977 0.24321
614 1 0.583271 0.750694 0.325429
613 1 0.502626 0.674923 0.317249
546 1 0.756859 0.769738 0.168258
547 1 0.748753 0.667518 0.23798
549 1 0.841701 0.67986 0.167405
548 1 0.663068 0.749562 0.25378
641 1 0.658687 0.83085 0.343057
552 1 0.814019 0.744095 0.25919
551 1 0.932637 0.671143 0.249928
575 1 0.92772 0.830128 0.251042
624 1 0.842728 0.754965 0.41055
555 1 0.108135 0.839355 0.262841
556 1 0.00309148 0.914703 0.260413
557 1 0.166385 0.836772 0.161228
560 1 0.171515 0.932691 0.257359
564 1 0.339939 0.917059 0.250344
630 1 0.251808 0.92371 0.344774
634 1 0.395637 0.903046 0.336115
569 1 0.655958 0.828564 0.169175
490 1 0.418716 0.904741 0.00801094
568 1 0.501156 0.924704 0.251253
567 1 0.563977 0.843771 0.250057
638 1 0.575206 0.906217 0.343874
572 1 0.661357 0.905866 0.249779
643 1 0.748735 0.823958 0.415049
642 1 0.75126 0.917124 0.332832
571 1 0.73636 0.834364 0.265772
632 1 0.169605 0.923113 0.427278
573 1 0.843943 0.829701 0.183086
646 1 0.921876 0.917654 0.338801
576 1 0.836221 0.917893 0.255918
574 1 0.920532 0.918675 0.178257
640 1 0.48557 0.912188 0.415733
580 1 0.991196 0.583285 0.416929
639 1 0.579472 0.822103 0.417577
609 1 0.329407 0.671007 0.319184
584 1 0.164504 0.588919 0.427882
582 1 0.251383 0.582813 0.332
607 1 0.262969 0.661803 0.412903
153 1 0.325223 0.997081 0.332167
588 1 0.349915 0.581152 0.418254
592 1 0.507216 0.595206 0.415283
149 1 0.169767 0.999574 0.342642
617 1 0.665373 0.651579 0.321201
579 1 0.0740067 0.511608 0.416544
628 1 0.00273494 0.913775 0.415893
596 1 0.652142 0.584014 0.404249
619 1 0.741314 0.659251 0.399186
626 1 0.0812842 0.913138 0.345246
644 1 0.666723 0.909951 0.423775
627 1 0.0690476 0.829389 0.411037
636 1 0.328096 0.911036 0.409509
600 1 0.822377 0.578032 0.406481
623 1 0.914557 0.669946 0.407253
603 1 0.0726205 0.661935 0.419183
605 1 0.16748 0.656598 0.337952
608 1 0.172296 0.757905 0.416685
629 1 0.167722 0.833504 0.34786
606 1 0.249193 0.752851 0.333472
631 1 0.247948 0.830387 0.426457
633 1 0.320892 0.820901 0.341576
611 1 0.421954 0.66971 0.420479
612 1 0.334086 0.758398 0.419077
635 1 0.409299 0.825381 0.40577
616 1 0.51232 0.743852 0.411637
615 1 0.585656 0.663746 0.412414
620 1 0.661659 0.752448 0.418133
645 1 0.853632 0.837974 0.334954
618 1 0.74161 0.740412 0.336971
19 1 0.752139 0.988301 0.0725418
77 1 0.173498 0.998946 0.179343
685 1 0.501178 0.672249 0.492219
83 1 0.403474 0.998131 0.234647
665 1 0.65462 0.501948 0.494062
167 1 0.916173 0.99548 0.421328
455 1 0.913101 0.501781 0.0902982
515 1 0.410281 0.50516 0.2387
694 1 0.910253 0.748658 0.494238
17 1 0.644559 0.997206 0.00257677
595 1 0.742987 0.503847 0.399662
481 1 0.0137002 0.834232 -0.0022142
706 1 0.419057 0.912228 0.501445
653 1 0.17426 0.502176 0.492905
433 1 0.00272635 0.502806 0.0305553
654 1 0.252429 0.595198 0.491195
689 1 0.669114 0.651648 0.489319
718 1 0.899497 0.916369 0.489003
489 1 0.31739 0.830536 0.00933877
697 1 0.995997 0.837677 0.499135
469 1 0.488699 0.672462 0.0115188
658 1 0.415963 0.580014 0.497831
225 1 0.322569 0.998173 0.500555
693 1 0.832026 0.665978 0.480049
666 1 0.752482 0.576655 0.494533
486 1 0.236699 0.925952 0.00253057
677 1 0.145329 0.675051 0.484079
466 1 0.407469 0.742572 7.41968e-05
690 1 0.750639 0.747514 0.481577
681 1 0.341111 0.659401 0.489041
465 1 0.325603 0.671852 0.0103395
652 1 0.00846142 0.591803 0.592879
675 1 0.0759531 0.664087 0.570377
745 1 0.0056281 0.672186 0.668053
383 1 0.914297 0.99103 0.91695
705 1 0.326257 0.827273 0.506417
239 1 0.898273 0.996848 0.582172
656 1 0.176174 0.585239 0.568966
679 1 0.246048 0.660899 0.590155
660 1 0.327483 0.583665 0.581183
731 1 0.419906 0.502447 0.762972
371 1 0.411134 0.99325 0.925272
730 1 0.420532 0.586894 0.667409
458 1 0.0865183 0.74738 1.00013
664 1 0.505823 0.58444 0.576382
734 1 0.580015 0.584354 0.674157
668 1 0.663065 0.585573 0.585561
687 1 0.590153 0.658748 0.57855
672 1 0.83545 0.591095 0.580727
691 1 0.744466 0.666997 0.561974
738 1 0.761317 0.596358 0.65557
761 1 0.657734 0.66226 0.667941
863 1 0.917557 0.840301 0.920113
742 1 0.92245 0.595868 0.644135
434 1 0.076064 0.58144 0.995502
450 1 0.75251 0.588443 0.996973
680 1 0.159387 0.738281 0.580391
676 1 0.993067 0.756919 0.577822
769 1 0.0114692 0.834187 0.670158
699 1 0.0884065 0.835811 0.588105
289 1 0.00961875 1.00178 0.677802
703 1 0.233014 0.836396 0.570419
297 1 0.324113 0.989779 0.661415
777 1 0.346043 0.830472 0.659088
683 1 0.426146 0.661028 0.575926
684 1 0.330412 0.741416 0.577192
688 1 0.498016 0.742802 0.582565
707 1 0.421413 0.831705 0.578354
753 1 0.336839 0.667519 0.664646
235 1 0.745218 0.991755 0.574638
793 1 0.995987 0.516043 0.836019
457 1 0.995561 0.662518 0.995116
758 1 0.57408 0.749834 0.667919
473 1 0.683148 0.680315 1.00163
692 1 0.656549 0.745254 0.593393
715 1 0.750379 0.824233 0.577928
762 1 0.749399 0.743013 0.658244
696 1 0.827982 0.746967 0.572678
381 1 0.84606 0.997025 0.830801
438 1 0.246193 0.591451 1.00065
695 1 0.908334 0.674852 0.570528
719 1 0.911263 0.82791 0.583813
765 1 0.843557 0.668025 0.651883
766 1 0.920991 0.755274 0.66201
770 1 0.0942867 0.921754 0.657645
704 1 0.16803 0.910999 0.580864
773 1 0.17781 0.833826 0.664392
227 1 0.412698 0.9973 0.586896
729 1 0.347904 0.501921 0.670043
708 1 0.341293 0.916398 0.581336
361 1 0.997945 0.993449 0.821843
494 1 0.595861 0.896721 0.991691
712 1 0.504967 0.923989 0.5808
857 1 0.657243 0.824166 0.837783
721 1 0.990108 0.519335 0.670918
860 1 0.662312 0.921188 0.910675
864 1 0.813692 0.929325 0.91901
711 1 0.583978 0.834129 0.584404
847 1 0.25206 0.826926 0.927653
716 1 0.663399 0.911394 0.575154
786 1 0.736077 0.914537 0.656735
846 1 0.250386 0.934862 0.830254
855 1 0.575707 0.830764 0.908179
720 1 0.82741 0.912387 0.591285
700 1 0.0113621 0.908603 0.589119
790 1 0.917919 0.917523 0.649506
848 1 0.16779 0.915751 0.91445
722 1 0.0845317 0.58108 0.66704
728 1 0.165021 0.581325 0.759878
749 1 0.168512 0.663027 0.688646
794 1 0.0853086 0.585168 0.849796
726 1 0.258685 0.591979 0.663371
751 1 0.254357 0.679689 0.748496
798 1 0.255665 0.587652 0.839313
723 1 0.0795063 0.502464 0.758834
732 1 0.331375 0.585308 0.756787
736 1 0.492304 0.585005 0.759739
755 1 0.409089 0.667107 0.746274
713 1 0.65731 0.823778 0.50461
757 1 0.492815 0.670746 0.666375
759 1 0.585348 0.671589 0.752505
854 1 0.569368 0.912206 0.833717
740 1 0.672892 0.582826 0.748714
763 1 0.755581 0.657889 0.746453
843 1 0.0823259 0.841458 0.919311
810 1 0.755571 0.575137 0.820442
474 1 0.759273 0.74794 0.994697
807 1 0.585012 0.511162 0.918097
852 1 0.329626 0.921935 0.926538
724 1 0.00422304 0.598244 0.744756
744 1 0.840613 0.583598 0.736664
767 1 0.921209 0.686787 0.739574
837 1 0.837686 0.671547 0.824618
842 1 0.0852382 0.912061 0.843421
747 1 0.0853113 0.670294 0.753718
746 1 0.08239 0.748787 0.655787
752 1 0.170895 0.746348 0.757011
750 1 0.25047 0.753939 0.656768
822 1 0.247857 0.762722 0.823798
756 1 0.338455 0.765483 0.746955
849 1 0.334283 0.844311 0.838996
754 1 0.422692 0.757685 0.671306
826 1 0.417365 0.76322 0.860241
779 1 0.416004 0.840238 0.748888
785 1 0.655794 0.825854 0.668724
781 1 0.512181 0.844316 0.65814
853 1 0.498077 0.833824 0.834622
760 1 0.497741 0.755703 0.754478
830 1 0.591211 0.736128 0.842045
783 1 0.587434 0.816383 0.761079
764 1 0.669988 0.742054 0.765541
834 1 0.759989 0.747972 0.834748
787 1 0.741519 0.827297 0.742077
789 1 0.820806 0.833802 0.667449
768 1 0.829302 0.740623 0.748907
748 1 -0.000952238 0.758224 0.755056
838 1 0.917208 0.777415 0.81895
841 1 0.00113127 0.836192 0.841629
771 1 0.101038 0.829567 0.746691
772 1 0.0211968 0.911092 0.753828
775 1 0.251381 0.846489 0.746815
776 1 0.154764 0.919459 0.743213
774 1 0.231497 0.928055 0.664206
780 1 0.324561 0.929723 0.752977
778 1 0.42251 0.914822 0.659636
850 1 0.416762 0.919577 0.846741
782 1 0.581793 0.934733 0.654375
784 1 0.496855 0.921669 0.762258
851 1 0.404746 0.839558 0.936206
861 1 0.826742 0.846693 0.817001
788 1 0.665009 0.921498 0.737961
858 1 0.728927 0.904113 0.831447
862 1 0.922982 0.913104 0.832365
791 1 0.914816 0.851248 0.731617
792 1 0.812737 0.925789 0.746157
821 1 0.162523 0.667864 0.833884
800 1 0.159898 0.577442 0.925044
796 1 0.990585 0.583604 0.917714
819 1 0.0763758 0.685316 0.907818
840 1 0.84864 0.757545 0.909353
804 1 0.332792 0.578133 0.920934
825 1 0.332158 0.664526 0.844905
802 1 0.416722 0.589892 0.830433
827 1 0.420453 0.657343 0.915311
845 1 0.179743 0.849326 0.822625
698 1 0.0885843 0.904462 0.501428
859 1 0.748865 0.828873 0.91592
829 1 0.505126 0.659261 0.844059
806 1 0.576475 0.579916 0.828297
808 1 0.50277 0.574691 0.918331
844 1 0.0100008 0.921765 0.93079
833 1 0.693622 0.664198 0.831205
812 1 0.665381 0.583 0.911717
816 1 0.834497 0.569116 0.913857
814 1 0.910949 0.578959 0.823532
478 1 0.923041 0.747342 0.994711
820 1 0.991265 0.755914 0.914405
817 1 0.981859 0.678605 0.835585
818 1 0.0799293 0.755107 0.826969
836 1 0.668365 0.742373 0.912422
856 1 0.505642 0.912282 0.917773
835 1 0.766554 0.655467 0.91172
823 1 0.252109 0.668225 0.911766
824 1 0.171076 0.752782 0.903854
828 1 0.33721 0.744128 0.922371
839 1 0.90886 0.66909 0.91852
831 1 0.57263 0.658847 0.932425
832 1 0.49894 0.752117 0.927684
655 1 0.249398 0.503635 0.589191
363 1 0.0839333 0.993531 0.906706
367 1 0.254508 0.994689 0.926715
497 1 0.674287 0.810917 0.989612
795 1 0.0790125 0.501626 0.923839
659 1 0.424052 0.504362 0.586347
797 1 0.166792 0.509927 0.841801
741 1 0.839176 0.501523 0.663372
482 1 0.0959626 0.934688 0.998458
233 1 0.661686 0.988509 0.503394
375 1 0.587402 0.978458 0.919794
657 1 0.344915 0.50653 0.503542
309 1 0.806091 0.994328 0.661842
311 1 0.908482 0.994711 0.726627
461 1 0.163443 0.663237 0.987529
725 1 0.174683 0.521205 0.668464
737 1 0.686175 0.519294 0.659792
739 1 0.767697 0.504519 0.7473
217 1 0.99508 0.97725 0.510645
663 1 0.584087 0.503768 0.59232
682 1 0.410553 0.745385 0.499364
710 1 0.581911 0.908308 0.501401
667 1 0.760878 0.507477 0.571242
674 1 0.0705926 0.74801 0.502363
702 1 0.253404 0.918041 0.511212
649 1 0.990564 0.509912 0.501535
237 1 0.821423 0.986057 0.501515
442 1 0.411107 0.570091 0.999411
462 1 0.23591 0.738214 0.9971
650 1 0.0759187 0.575506 0.500903
477 1 0.828703 0.66648 0.999327
717 1 0.830288 0.831088 0.512497
714 1 0.741462 0.89874 0.501673
678 1 0.245581 0.73672 0.504016
229 1 0.497485 0.989241 0.503219
454 1 0.921026 0.563976 0.992419
470 1 0.592455 0.741208 0.984171
701 1 0.152935 0.825222 0.498748
501 1 0.841595 0.836312 0.986513
498 1 0.74846 0.900553 0.998457
673 1 0.00269695 0.657679 0.501806
662 1 0.579777 0.583063 0.503698
502 1 0.92828 0.921549 0.997646
686 1 0.591886 0.742004 0.500014
