ITEM: TIMESTEP
9000
ITEM: NUMBER OF ATOMS
1372
ITEM: BOX BOUNDS pp pp pp
0.0000000000000000e+00 3.6820000000000000e+01
0.0000000000000000e+00 3.6820000000000000e+01
0.0000000000000000e+00 3.6820000000000000e+01
ITEM: ATOMS id type xs ys zs
8 1 0.137558 0.0630838 0.0692805
100 1 0.0602756 0.0739591 0.128236
117 1 0.139186 0.149741 0.13234
17 1 0.0646169 0.147108 0.0542155
344 1 0.0729696 0.988752 0.488613
103 1 0.151174 0.0114522 0.145622
12 1 0.283313 0.0822519 0.0786206
104 1 0.217835 0.0823479 0.142596
121 1 0.275059 0.156178 0.138503
107 1 0.28691 0.00100991 0.134795
20 1 0.21361 0.216063 -0.00312672
295 1 0.00487864 0.00557507 0.431313
14 1 0.428093 0.0737122 0.0761758
108 1 0.361627 0.0727982 0.141248
111 1 0.426807 -0.00294002 0.14357
374 1 0.218864 0.556299 0.49618
291 1 0.354041 0.857398 0.361649
155 1 -0.00591552 0.579343 0.143504
22 1 0.140254 0.208195 0.0611591
114 1 0.0714381 0.222618 0.137806
60 1 0.00775459 0.641466 0.0718748
31 1 0.0690969 0.273914 0.0596581
131 1 0.129907 0.293489 0.134038
19 1 0.140143 0.126301 -0.00205409
97 1 0.437905 0.864609 -0.000208566
343 1 0.418595 0.855543 0.43222
21 1 0.207698 0.139157 0.0711553
26 1 0.269344 0.225125 0.0600525
118 1 0.189879 0.229078 0.146301
35 1 0.209923 0.294824 0.0730251
968 1 0.498265 0.866271 0.367963
23 1 0.291685 0.151539 0.00844537
125 1 0.431344 0.150761 0.146187
25 1 0.351617 0.146675 0.0868649
28 1 0.428209 0.214774 0.0709578
122 1 0.358052 0.218273 0.144941
36 1 0.131383 0.357823 0.0766272
45 1 0.0635786 0.432586 0.078928
128 1 0.0647238 0.360995 0.148506
145 1 0.141954 0.444677 0.141897
870 1 0.500305 0.857388 0.212516
116 1 0.00207606 0.215267 0.208995
211 1 -0.0173145 0.141234 0.282734
135 1 0.266302 0.282815 0.146391
40 1 0.279536 0.357111 0.0730378
132 1 0.197393 0.366435 0.14916
372 1 0.0623818 0.56889 0.498565
925 1 0.493366 0.502978 0.29388
385 1 0.425782 0.779999 0.508768
39 1 0.365673 0.275588 0.0717776
139 1 0.42766 0.307051 0.151607
42 1 0.425495 0.346135 0.0709116
136 1 0.351371 0.35615 0.133966
9 1 0.285166 1.00204 0.00650193
86 1 0.0898024 0.924063 0.00690134
294 1 0.431515 0.929596 0.365741
50 1 0.144235 0.493107 0.0708534
142 1 0.0725064 0.509632 0.145627
59 1 0.0830876 0.56794 0.0744002
159 1 0.141201 0.571552 0.140835
342 1 0.359499 0.93106 0.432004
1051 1 0.50688 0.427787 0.513188
383 1 0.35214 0.707202 0.50389
49 1 0.203705 0.430251 0.0637047
149 1 0.277522 0.431276 0.138609
54 1 0.267535 0.510806 0.0756979
146 1 0.213083 0.502363 0.147659
369 1 0.357318 0.416338 0.494625
855 1 0.505311 0.785128 0.134391
153 1 0.420348 0.430179 0.140112
53 1 0.36922 0.425372 0.0659065
56 1 0.426835 0.488887 0.0684049
150 1 0.35028 0.484394 0.146023
67 1 0.363739 0.56587 0.0778135
301 1 0.415729 0.0061687 0.424822
16 1 0.0754489 0.203415 -0.0168697
1009 1 0.508151 0.646823 0.431533
786 1 0.495967 -0.0074057 0.216182
203 1 0.220971 0.0065363 0.35672
340 1 0.203976 0.936757 0.438944
64 1 0.15171 0.652853 0.0784093
156 1 0.062934 0.646912 0.163321
173 1 0.137053 0.715477 0.158234
63 1 0.207047 0.577875 0.0810761
163 1 0.291604 0.572694 0.138939
68 1 0.288869 0.642189 0.0700353
160 1 0.215134 0.648716 0.144641
77 1 0.223276 0.709698 0.0655687
177 1 0.290139 0.713359 0.13466
167 1 0.426443 0.559185 0.14714
70 1 0.424448 0.645753 0.0728994
164 1 0.352315 0.649995 0.142452
81 1 0.359262 0.7091 0.0593349
181 1 0.427857 0.723044 0.130317
55 1 0.44627 0.411049 0.00745907
73 1 0.0717395 0.718099 0.0598515
78 1 0.146255 0.773243 0.0777683
170 1 0.0778866 0.790976 0.146526
87 1 0.0740249 0.848769 0.0764979
842 1 0.497571 0.572628 0.206733
716 1 0.50546 0.282806 0.0771936
330 1 -0.00486125 0.712558 0.428084
82 1 0.282715 0.787761 0.0759546
174 1 0.219326 0.782862 0.146317
191 1 0.283015 0.867802 0.143308
1023 1 0.493142 0.92849 0.446006
379 1 0.0667257 0.729138 0.492694
292 1 0.283612 0.936273 0.360703
46 1 0.0088324 0.515862 0.0667493
84 1 0.433805 0.781286 0.0539936
178 1 0.360315 0.789859 0.119942
953 1 0.486442 0.802005 0.287655
214 1 0.0020333 0.206664 0.353384
800 1 0.489147 0.141281 0.220261
3 1 0.0682611 0.998496 0.0809233
187 1 0.148765 0.857692 0.150778
92 1 0.134218 0.932356 0.0899991
184 1 0.0673201 0.921352 0.156522
32 1 0.0176733 0.353132 0.0718529
91 1 0.214221 0.87041 0.0808565
7 1 0.21407 0.00897364 0.0760608
96 1 0.286631 0.936522 0.065915
188 1 0.221597 0.930206 0.157037
302 1 0.00330044 0.159893 0.428529
11 1 0.361075 0.992526 0.0778271
341 1 0.279147 0.858453 0.426874
95 1 0.353949 0.867526 0.0701431
195 1 0.422437 0.864701 0.142082
98 1 0.443833 0.935027 0.0700762
192 1 0.348709 0.927608 0.14972
267 1 -0.00174781 0.717709 0.288708
365 1 0.0677186 0.434493 0.5062
106 1 0.14182 0.0799196 0.202268
198 1 0.0727984 0.0683868 0.280355
115 1 0.0670122 0.145939 0.211375
215 1 0.141298 0.138691 0.287165
110 1 0.297292 0.0670061 0.221151
202 1 0.21294 0.0717959 0.279626
105 1 0.215195 0.00382426 0.216871
119 1 0.200473 0.150208 0.204929
127 1 -0.0055586 0.284063 0.143631
112 1 0.418307 0.0743251 0.221652
206 1 0.357955 0.0782155 0.289277
109 1 0.362288 -0.00853527 0.213298
47 1 0.126238 0.424517 0.00386853
338 1 0.066973 0.915617 0.424662
120 1 0.135186 0.21256 0.214273
212 1 0.0662248 0.211062 0.283123
129 1 0.0636634 0.288482 0.215136
229 1 0.138268 0.272179 0.281118
288 1 0.13378 0.924766 0.355794
219 1 0.28942 0.138865 0.280275
124 1 0.265134 0.216084 0.210528
216 1 0.20882 0.209248 0.285561
233 1 0.276316 0.283836 0.27661
223 1 0.431199 0.142148 0.306609
123 1 0.364864 0.149238 0.213919
126 1 0.43345 0.216984 0.220477
220 1 0.341187 0.213196 0.2778
283 1 0.0606687 0.854624 0.34488
297 1 0.138604 -0.0032213 0.41764
134 1 0.12568 0.36882 0.209322
226 1 0.0617767 0.355127 0.29524
243 1 0.130313 0.412708 0.292051
93 1 0.281529 0.864684 0.00204256
388 1 0.218149 0.858147 0.496038
133 1 0.19365 0.287704 0.218019
138 1 0.275372 0.364047 0.204294
230 1 0.204026 0.364342 0.278485
247 1 0.287475 0.426496 0.275591
237 1 0.421162 0.305136 0.289726
137 1 0.339925 0.307963 0.216668
140 1 0.427169 0.370147 0.211881
234 1 0.352418 0.364172 0.2829
151 1 0.350495 0.42278 0.206196
827 1 0.489173 0.494031 0.135958
199 1 0.063798 -0.018819 0.369267
143 1 0.0740162 0.439484 0.211781
148 1 0.135917 0.505967 0.226073
240 1 0.0677468 0.497979 0.289682
147 1 0.213918 0.43034 0.206965
152 1 0.282097 0.501716 0.220705
244 1 0.204947 0.509314 0.294454
261 1 0.282122 0.560108 0.296805
251 1 0.430731 0.42075 0.282675
154 1 0.428488 0.50047 0.217256
248 1 0.364226 0.492293 0.283629
165 1 0.350825 0.569868 0.216321
257 1 0.129818 0.572998 0.30159
157 1 0.0667754 0.574611 0.223088
162 1 0.141574 0.6386 0.214106
254 1 0.068946 0.654701 0.281421
171 1 0.0694065 0.726984 0.223863
161 1 0.216632 0.579719 0.213167
166 1 0.280907 0.659446 0.213187
258 1 0.208265 0.630976 0.284445
275 1 0.284696 0.721797 0.288614
265 1 0.432765 0.575899 0.274375
168 1 0.432515 0.646197 0.200007
262 1 0.356751 0.652828 0.274694
279 1 0.43186 0.717564 0.281399
179 1 0.368406 0.718646 0.206512
271 1 0.138451 0.700002 0.292473
176 1 0.152805 0.784024 0.214232
268 1 0.0889789 0.792438 0.289701
185 1 0.0639197 0.855513 0.223279
285 1 0.148771 0.865911 0.280511
175 1 0.205896 0.706969 0.231591
180 1 0.289707 0.773222 0.209196
272 1 0.206092 0.781115 0.296284
5 1 0.159672 0.00731984 -0.000309709
182 1 0.431077 0.782826 0.201353
276 1 0.355065 0.788527 0.278996
293 1 0.421551 0.865001 0.297821
326 1 0.220074 0.643492 0.428249
201 1 0.140573 0.00283729 0.297093
101 1 0.069308 1.01131 0.195898
190 1 0.139663 0.93036 0.211122
282 1 0.0630407 0.954447 0.278753
189 1 0.225268 0.852813 0.216273
205 1 0.294346 0.00310003 0.285795
289 1 0.283826 0.854302 0.29782
194 1 0.285228 0.931952 0.227772
286 1 0.211148 0.930037 0.294135
193 1 0.338416 0.858963 0.22644
209 1 0.424447 -0.00621399 0.283445
196 1 0.420133 0.919478 0.22034
290 1 0.354095 0.934632 0.290398
1016 1 0.486784 0.780414 0.43031
260 1 0.145318 0.650523 0.369717
172 1 -0.000352927 0.786367 0.213697
204 1 0.142882 0.0695972 0.35763
296 1 0.0788579 0.0849706 0.422057
213 1 0.0777696 0.144757 0.347194
325 1 0.144142 0.575354 0.426836
269 1 0.0705556 0.725372 0.348641
299 1 0.288881 1.00085 0.430355
208 1 0.290082 0.0738713 0.360517
298 1 0.208972 0.0683678 0.429937
217 1 0.216988 0.142869 0.341511
264 1 0.297825 0.635368 0.357944
331 1 0.0499948 0.791633 0.41256
207 1 0.359116 -0.00333131 0.358776
210 1 0.426388 0.0653418 0.361514
300 1 0.353716 0.0747463 0.424633
221 1 0.356886 0.145786 0.354191
274 1 0.141865 0.792296 0.37238
332 1 0.136237 0.709857 0.439658
304 1 0.160428 0.13848 0.412325
218 1 0.147887 0.214467 0.358305
303 1 0.0781535 0.210268 0.419882
227 1 0.0734738 0.282673 0.361755
339 1 0.145346 0.869221 0.425258
335 1 0.366945 0.777807 0.431123
799 1 0.5015 0.215978 0.143691
306 1 0.282279 0.146167 0.421973
222 1 0.280583 0.220741 0.34812
305 1 0.211934 0.208461 0.4132
231 1 0.200525 0.290164 0.351129
313 1 0.2671 0.284974 0.41395
308 1 0.428297 0.134013 0.429424
224 1 0.426614 0.224827 0.352797
307 1 0.363134 0.220401 0.427547
315 1 0.430277 0.291574 0.432382
235 1 0.359557 0.283627 0.359379
280 1 0.413627 0.778425 0.353096
259 1 0.212054 0.568388 0.355754
13 1 0.435585 0.00262948 0.00513488
311 1 0.142547 0.278999 0.420977
232 1 0.138956 0.355044 0.355296
310 1 0.0756018 0.363513 0.420792
318 1 0.135397 0.425588 0.435208
241 1 0.062773 0.428947 0.359574
758 1 0.510377 0.713726 0.0636218
277 1 0.353323 0.706653 0.361508
236 1 0.274599 0.362952 0.342043
312 1 0.197535 0.3549 0.435295
245 1 0.202012 0.430543 0.358948
255 1 0.063843 0.573229 0.359768
954 1 0.494727 0.720333 0.353667
324 1 0.064188 0.644191 0.428696
336 1 0.421351 0.704865 0.427845
238 1 0.427513 0.355774 0.366389
314 1 0.339741 0.33819 0.428236
249 1 0.349872 0.424792 0.372728
329 1 0.427241 0.557058 0.417297
287 1 0.215619 0.864152 0.366868
246 1 0.141357 0.496643 0.361975
317 1 0.0641023 0.499298 0.423903
266 1 0.424462 0.645971 0.352826
327 1 0.282046 0.562071 0.41209
263 1 0.370292 0.566877 0.346649
320 1 0.271881 0.42527 0.423535
319 1 0.205808 0.496844 0.420474
250 1 0.28608 0.488879 0.351166
273 1 0.209047 0.711906 0.361453
334 1 0.291218 0.712117 0.433031
322 1 0.448853 0.424517 0.438784
252 1 0.42535 0.489256 0.355944
321 1 0.357087 0.500174 0.420907
333 1 0.216305 0.787184 0.42476
278 1 0.289509 0.789391 0.356541
328 1 0.359862 0.640416 0.439772
967 1 0.486216 0.924557 0.294089
57 1 0.00419709 0.569789 -0.00902263
368 1 0.128825 0.508855 0.500564
389 1 0.145837 0.912843 0.510473
74 1 -0.00529554 0.784614 0.0748179
378 1 0.43039 0.6293 0.493923
346 1 0.221247 0.00614846 0.508016
375 1 0.153238 0.639202 0.495686
44 1 0.0675724 0.503403 -0.00988174
367 1 0.209044 0.436127 0.502864
898 1 0.504374 0.124139 0.36328
785 1 0.498441 0.0772191 0.153542
352 1 0.00735731 0.234646 0.504098
169 1 0.007108 0.715646 0.138411
370 1 0.294699 0.486852 0.501475
382 1 0.130082 0.802904 0.496609
2 1 0.066069 0.0518723 0.0037203
62 1 0.213331 0.638493 -0.00416666
75 1 0.150902 0.72498 0.0024019
65 1 0.294298 0.569948 -0.00277711
357 1 0.435102 0.216123 0.492392
85 1 0.00865291 0.846189 -0.00786828
1072 1 0.484085 0.849756 0.49413
90 1 0.202226 0.925242 0.00703095
24 1 0.363882 0.20198 -0.00217755
366 1 -0.00724452 0.497154 0.503288
10 1 0.349361 0.0731447 0.00268709
76 1 0.207917 0.792348 0.00853311
52 1 0.360448 0.509816 -0.007255
356 1 0.291574 0.213321 0.481839
27 1 0.439903 0.146633 0.00217444
347 1 0.146252 0.0659211 0.508025
381 1 0.215009 0.712819 0.496658
79 1 0.279076 0.721446 0.00248112
362 1 0.356968 0.273413 0.500833
71 1 0.00641977 0.719804 -0.00163712
353 1 0.214897 0.14749 0.489706
38 1 0.36573 0.350122 0.00313803
80 1 0.354077 0.790139 0.00253097
394 1 0.0830927 0.0753745 0.578699
400 1 0.153018 0.0647717 0.642721
409 1 0.0782394 0.148231 0.636886
395 1 0.0832647 1.00522 0.643543
411 1 0.154157 0.137571 0.579622
620 1 0.00568256 0.351109 0.91819
398 1 0.227331 0.0735532 0.577321
404 1 0.294487 0.0625954 0.641317
413 1 0.219958 0.126353 0.648158
415 1 0.28472 0.140544 0.563519
401 1 0.289267 -0.0109941 0.573054
399 1 0.219026 -0.00154013 0.645931
402 1 0.346064 0.0782824 0.564523
406 1 0.418207 0.0790274 0.645233
417 1 0.35136 0.142199 0.639536
403 1 0.360447 1.00017 0.648874
405 1 0.428784 1.00225 0.578444
355 1 0.354198 0.146891 0.488795
408 1 0.07169 0.217257 0.57178
414 1 0.158364 0.208954 0.640442
425 1 0.137828 0.290485 0.570004
423 1 0.0774286 0.283151 0.653664
384 1 0.288396 0.781696 0.486383
412 1 0.209452 0.210893 0.557639
418 1 0.283459 0.207573 0.63866
377 1 0.274861 0.639117 0.505798
1122 1 0.501445 0.42993 0.650044
69 1 0.430059 0.577583 1.0031
419 1 0.420139 0.152901 0.574085
416 1 0.352644 0.205072 0.555309
420 1 0.429893 0.200099 0.652042
433 1 0.435722 0.274271 0.560226
431 1 0.361673 0.279717 0.643428
1191 1 0.492959 0.212518 0.721068
89 1 0.151818 0.862796 1.018
422 1 0.0740958 0.363542 0.571976
428 1 0.160283 0.340567 0.650923
439 1 0.144891 0.427209 0.569182
437 1 0.0926113 0.433655 0.644438
1275 1 0.497467 0.074061 0.855151
508 1 -0.0037583 0.211195 0.77959
427 1 0.220457 0.278406 0.633764
429 1 0.285753 0.286854 0.561931
426 1 0.219439 0.352528 0.568703
432 1 0.290819 0.358586 0.648542
441 1 0.210531 0.42329 0.65062
1121 1 0.49958 0.488751 0.576765
430 1 0.355604 0.345916 0.562128
434 1 0.414752 0.361392 0.647729
436 1 0.0820043 0.495806 0.575545
442 1 0.148208 0.512013 0.638611
451 1 0.0727693 0.574678 0.643237
505 1 -0.00624866 0.140689 0.704705
351 1 0.0924303 0.14326 0.505399
1303 1 0.486766 0.353439 0.861558
443 1 0.286422 0.411964 0.563562
440 1 0.226735 0.489201 0.582825
446 1 0.277597 0.495001 0.65249
455 1 0.217468 0.570989 0.638792
457 1 0.275984 0.574137 0.56721
358 1 0.0862278 0.302805 0.493107
561 1 7.75536e-06 0.723919 0.698964
445 1 0.365464 0.433221 0.650554
447 1 0.417708 0.41998 0.568707
444 1 0.348429 0.485505 0.577448
448 1 0.42297 0.502461 0.644485
459 1 0.338056 0.554068 0.641285
601 1 0.42339 -0.00241631 0.857907
599 1 0.353296 0.00131218 0.926724
453 1 0.135199 0.571611 0.572119
450 1 0.0870134 0.644588 0.575659
456 1 0.147578 0.647837 0.65042
465 1 0.0727492 0.717363 0.629666
686 1 0.428857 0.932847 0.93607
48 1 0.205228 0.505334 0.993238
393 1 0.00700255 1.00888 0.572332
575 1 0.000891658 0.846767 0.712184
454 1 0.203119 0.651459 0.578813
460 1 0.276322 0.642033 0.637377
469 1 0.216773 0.713956 0.647018
1205 1 0.50186 0.358895 0.699564
645 1 0.013518 0.572133 0.849269
461 1 0.422895 0.565462 0.564346
458 1 0.353321 0.630401 0.56783
462 1 0.430211 0.626479 0.636902
473 1 0.351496 0.701746 0.627313
1318 1 0.490186 0.430257 0.921456
467 1 0.146331 0.726452 0.554609
1192 1 0.509842 0.144698 0.781266
464 1 0.0727963 0.790052 0.554115
470 1 0.155509 0.783524 0.6415
1150 1 0.495685 0.712458 0.637542
673 1 -0.00786115 0.863463 0.848087
471 1 0.276585 0.714993 0.562196
468 1 0.219568 0.785511 0.559627
474 1 0.281487 0.776975 0.64471
58 1 0.0769204 0.637058 1.00524
1164 1 0.499967 0.864579 0.65559
475 1 0.426047 0.695558 0.572976
472 1 0.345123 0.790293 0.565336
476 1 0.410173 0.774557 0.638195
682 1 0.360999 0.925149 0.858204
397 1 0.134622 -0.0116755 0.56932
479 1 0.0695153 0.851579 0.647768
481 1 0.147573 0.852915 0.579437
478 1 0.0580266 0.930324 0.563417
484 1 0.148807 0.929643 0.642224
683 1 0.358056 0.858199 0.930997
483 1 0.217451 0.857463 0.642464
485 1 0.285455 0.855336 0.573772
482 1 0.219188 0.929595 0.583477
488 1 0.2887 0.925998 0.649127
480 1 -8.31323e-05 0.921881 0.641467
685 1 0.429367 0.853542 0.860837
487 1 0.352556 0.856186 0.642078
489 1 0.425987 0.856316 0.570644
486 1 0.357255 0.919459 0.55969
490 1 0.42633 0.935305 0.655146
1233 1 0.495549 0.644579 0.719785
634 1 0.0126609 0.511673 0.920061
492 1 0.0796846 0.0659537 0.712145
498 1 0.14079 0.070193 0.783478
507 1 0.0641317 0.130201 0.78772
495 1 0.144795 -0.00956681 0.728868
496 1 0.211828 0.0586964 0.718766
502 1 0.286854 0.0867878 0.796924
513 1 0.288666 0.138851 0.716775
499 1 0.290064 -0.00806105 0.721167
597 1 0.289519 0.0128647 0.862126
500 1 0.355551 0.0689431 0.713904
504 1 0.428309 0.0692026 0.786395
515 1 0.358943 0.142985 0.783403
503 1 0.433097 1.01577 0.712241
501 1 0.343805 0.00634131 0.790192
509 1 0.146332 0.133843 0.709695
506 1 0.075801 0.213044 0.720885
512 1 0.144626 0.205554 0.794956
684 1 0.281435 0.931193 0.934704
521 1 0.0768786 0.289408 0.785867
678 1 0.221645 0.936552 0.844306
511 1 0.217902 0.147143 0.780138
510 1 0.227208 0.223124 0.710767
516 1 0.283964 0.213584 0.776045
527 1 0.295253 0.294387 0.718156
525 1 0.220862 0.281605 0.795059
517 1 0.433457 0.127529 0.718239
514 1 0.349658 0.217681 0.714679
518 1 0.422932 0.219218 0.774827
1331 1 0.484479 0.643037 0.863133
396 1 -0.00624585 0.0619738 0.649995
523 1 0.157532 0.283031 0.723035
520 1 0.0681398 0.348168 0.720728
526 1 0.153104 0.353425 0.800807
537 1 0.14691 0.409057 0.728668
535 1 0.0680499 0.423983 0.783447
524 1 0.226282 0.359182 0.721344
530 1 0.28223 0.360109 0.79536
539 1 0.220699 0.420501 0.787089
595 1 0.2142 0.00700746 0.927205
531 1 0.420791 0.292939 0.71605
529 1 0.356746 0.279775 0.788796
528 1 0.356937 0.363573 0.717804
532 1 0.430918 0.36603 0.786122
545 1 0.426719 0.429576 0.711759
543 1 0.355987 0.433202 0.785254
679 1 0.217634 0.853302 0.930613
534 1 0.0847393 0.504573 0.714263
540 1 0.154023 0.505251 0.781458
551 1 0.156775 0.569684 0.711579
549 1 0.0872398 0.576329 0.780536
541 1 0.289512 0.432588 0.720881
538 1 0.214898 0.50056 0.715133
544 1 0.283583 0.502574 0.806829
555 1 0.282288 0.560827 0.725089
1206 1 0.497721 0.291644 0.777972
661 1 0.0785579 0.715885 0.926582
542 1 0.354085 0.504987 0.716964
546 1 0.446012 0.491737 0.790506
557 1 0.35845 0.562228 0.786754
591 1 0.0819391 -0.0127894 0.941084
548 1 0.0733574 0.640529 0.716597
554 1 0.155301 0.644353 0.79084
565 1 0.147878 0.710765 0.714837
553 1 0.219769 0.578542 0.788096
552 1 0.223563 0.636859 0.713031
558 1 0.296328 0.634134 0.791011
569 1 0.28377 0.708391 0.710774
567 1 0.212837 0.722705 0.781311
559 1 0.42817 0.563867 0.706935
556 1 0.342015 0.629738 0.707395
560 1 0.424764 0.637498 0.794354
571 1 0.352355 0.705577 0.790211
573 1 0.43209 0.703576 0.713613
675 1 0.0649591 0.871725 0.925567
563 1 0.0828993 0.718998 0.78042
562 1 0.0655437 0.787905 0.707816
568 1 0.15064 0.785236 0.794148
577 1 0.0809263 0.845917 0.793546
579 1 0.153674 0.843717 0.723069
345 1 0.0235726 0.0827498 0.493518
566 1 0.220966 0.778541 0.711647
572 1 0.283136 0.794923 0.787986
581 1 0.213754 0.851318 0.788441
666 1 0.134956 0.791263 0.930502
570 1 0.352018 0.770996 0.723172
574 1 0.423713 0.776561 0.780132
585 1 0.35685 0.86139 0.781628
587 1 0.416736 0.847883 0.713557
674 1 0.0728782 0.933061 0.851292
449 1 0.00982337 0.579344 0.572018
493 1 0.0814443 1.00412 0.790614
576 1 0.0766702 0.918843 0.703219
582 1 0.137001 0.919901 0.77968
34 1 0.20514 0.358901 1.00153
497 1 0.224144 1.00215 0.793654
583 1 0.286388 0.849872 0.711868
580 1 0.224804 0.927585 0.714455
586 1 0.293439 0.925708 0.786111
677 1 0.149149 0.857059 0.865789
584 1 0.359102 0.933846 0.724734
588 1 0.427771 0.935024 0.790958
663 1 0.151129 0.716835 0.864112
491 1 0.00963063 -0.00689968 0.709285
590 1 0.0560472 0.0658349 0.863565
596 1 0.140132 0.0639732 0.93406
607 1 0.138138 0.132091 0.857431
605 1 0.0736455 0.131817 0.916599
594 1 0.219998 0.0844906 0.862805
600 1 0.280016 0.0755032 0.931766
609 1 0.206645 0.137503 0.934905
598 1 0.373005 0.0747977 0.860147
602 1 0.429833 0.0743516 0.931784
631 1 0.00512369 0.421603 0.849306
660 1 0.0737715 0.791857 0.861
604 1 0.0652842 0.199639 0.851294
610 1 0.14957 0.200572 0.937731
619 1 0.0682523 0.279174 0.917165
611 1 0.290961 0.144281 0.858658
608 1 0.223702 0.210967 0.864226
614 1 0.292737 0.208012 0.927681
1359 1 0.488253 0.923998 0.857725
613 1 0.354799 0.132732 0.934237
615 1 0.431714 0.140535 0.853656
612 1 0.371915 0.203885 0.862061
616 1 0.430554 0.202842 0.930569
354 1 0.133708 0.219265 0.499319
564 1 0.00518637 0.783574 0.78134
621 1 0.148371 0.272686 0.874111
618 1 0.0754577 0.351156 0.85969
624 1 0.132646 0.360507 0.925813
635 1 0.151172 0.431123 0.859632
633 1 0.0632796 0.434736 0.921582
623 1 0.217362 0.278992 0.927928
625 1 0.295581 0.274756 0.860742
622 1 0.223621 0.352711 0.873178
628 1 0.300074 0.353511 0.926252
639 1 0.281597 0.434814 0.860669
637 1 0.217821 0.428949 0.941529
593 1 0.144833 1.01158 0.858376
627 1 0.360764 0.273602 0.930444
629 1 0.418701 0.275229 0.864102
626 1 0.361805 0.365435 0.85602
630 1 0.424507 0.348762 0.930675
643 1 0.422197 0.43386 0.856987
641 1 0.355889 0.42873 0.930608
658 1 0.42381 0.63967 0.935898
632 1 0.0786409 0.508312 0.861843
638 1 0.135628 0.494345 0.92774
649 1 0.15 0.565472 0.857454
647 1 0.0789612 0.579843 0.924652
664 1 0.21052 0.790684 0.856729
651 1 0.202826 0.57735 0.931167
636 1 0.213781 0.496154 0.87918
642 1 0.277609 0.4979 0.945035
653 1 0.279388 0.565768 0.870417
680 1 0.15356 0.936148 0.927644
667 1 0.28836 0.711412 0.868297
655 1 0.357426 0.574961 0.930439
644 1 0.430766 0.499101 0.942183
640 1 0.347623 0.491389 0.865688
670 1 0.285644 0.792145 0.939918
671 1 0.424448 0.716589 0.867651
652 1 0.138197 0.654749 0.940871
646 1 0.0798497 0.648874 0.847161
669 1 0.358654 0.717247 0.936054
1107 1 0.501898 0.367033 0.579149
650 1 0.221887 0.648419 0.866732
681 1 0.288811 0.857809 0.861465
656 1 0.280838 0.64522 0.938499
665 1 0.215023 0.728127 0.926402
672 1 0.427596 0.788984 0.935689
668 1 0.358063 0.790469 0.859989
657 1 0.433483 0.552879 0.849574
654 1 0.355038 0.644214 0.860168
363 1 0.275728 0.34675 0.487678
659 1 0.000975903 0.718437 0.844433
1037 1 0.509355 0.131785 0.511952
407 1 -0.000992423 0.152337 0.565602
421 1 0.0111149 0.284626 0.579897
1248 1 0.49905 0.708742 0.792309
66 1 0.35804 0.640477 1.00124
536 1 0.00872807 0.499291 0.78119
1163 1 0.49949 0.925339 0.574629
51 1 0.29174 0.413255 1.00025
617 1 0.0102769 0.273752 0.840843
1262 1 0.48802 0.85627 0.792819
603 1 -0.0123255 0.13211 0.852874
348 1 0.350659 0.0105583 0.502073
1136 1 0.5038 0.582095 0.648227
438 1 0.0184785 0.491869 0.64834
729 1 0.50154 0.495876 1.00775
1178 1 0.508579 0.00932236 0.790414
61 1 0.149341 0.571329 1.00807
72 1 0.0783374 0.783941 0.997495
1247 1 0.498895 0.780448 0.715887
1304 1 0.495009 0.274912 0.933901
1135 1 0.504175 0.636098 0.56738
519 1 -0.0068544 0.288315 0.701365
1276 1 0.500338 -0.0110613 0.922355
662 1 0.00876066 0.775163 0.923793
33 1 0.134719 0.274819 0.992503
41 1 0.437895 0.273405 1.00651
715 1 0.508235 0.334867 1.00384
364 1 0.428264 0.361649 0.502294
6 1 0.228451 0.0758145 1.00869
37 1 0.29324 0.295677 1.00524
43 1 0.0010077 0.416247 1.00979
743 1 0.504496 0.640703 0.996754
94 1 0.361306 0.935877 1.00073
386 1 0.0664625 0.859704 0.4937
83 1 0.427839 0.718745 0.992818
350 1 0.422644 0.0659298 0.51126
371 1 0.418907 0.496686 0.496567
360 1 0.216587 0.278711 0.495434
391 1 0.275113 0.922327 0.495242
361 1 0.153196 0.363182 0.508616
376 1 0.337151 0.567259 0.489649
390 1 0.346699 0.865884 0.492253
392 1 0.42799 0.943825 0.506564
29 1 0.00228262 0.280296 0.993509
359 1 -2.84669e-05 0.35548 0.506714
30 1 0.0707447 0.355091 0.99538
349 1 0.289938 0.0771855 0.490021
692 1 0.571936 0.0738145 0.0775861
788 1 0.63981 0.0765121 0.142242
323 1 0.997173 0.57351 0.431331
884 1 0.48992 -0.000781506 0.357196
696 1 0.723207 0.0774756 0.0718071
792 1 0.790175 0.0598356 0.138382
791 1 0.719207 -0.00151646 0.13723
912 1 0.518601 0.278075 0.365367
700 1 0.841187 0.0767631 0.0625514
796 1 0.912103 0.0770421 0.141011
809 1 0.852912 0.147685 0.137878
144 1 0.996657 0.511812 0.226927
705 1 0.641756 0.131909 0.069801
801 1 0.552936 0.146075 0.151161
706 1 0.566618 0.215439 0.079949
802 1 0.644863 0.214849 0.134655
200 1 1.01172 0.0724102 0.348015
815 1 0.57339 0.289965 0.135721
18 1 0.984983 0.214119 0.0615489
4 1 0.99464 0.063034 0.0658748
926 1 0.50168 0.423168 0.343663
995 1 0.506471 0.356344 0.423167
805 1 0.716889 0.151983 0.131844
709 1 0.778039 0.159078 0.0638867
710 1 0.707228 0.223925 0.0675163
806 1 0.796788 0.230655 0.134348
723 1 0.788502 0.30183 0.0662558
702 1 0.497315 0.137683 0.0776932
688 1 0.498403 0.00801821 0.084148
713 1 0.923946 0.14555 0.0660941
714 1 0.863941 0.23363 0.0691101
810 1 0.923751 0.217283 0.140021
895 1 0.944516 5.56138e-05 0.338047
727 1 0.934805 0.290034 0.0637793
828 1 0.505439 0.440918 0.215844
239 1 0.991083 0.436859 0.289431
719 1 0.641188 0.282395 0.0614567
720 1 0.566308 0.350391 0.0720155
816 1 0.641855 0.354398 0.142178
309 1 1.00813 0.30121 0.431302
1029 1 0.92367 0.937216 0.414949
883 1 0.48069 0.0703123 0.281376
819 1 0.707853 0.285264 0.133747
724 1 0.703536 0.359334 0.0696989
820 1 0.789005 0.346881 0.144967
228 1 0.989932 0.3583 0.350337
253 1 1.00603 0.578514 0.292079
1033 1 0.77801 0.00163894 0.495267
823 1 0.864872 0.294366 0.137917
728 1 0.87425 0.358677 0.0698579
824 1 0.939452 0.360384 0.150657
980 1 0.845344 0.925811 0.354164
1071 1 0.85739 0.780135 0.489647
940 1 0.501562 0.588658 0.359312
733 1 0.642076 0.429109 0.0744985
829 1 0.569207 0.437208 0.142103
734 1 0.576701 0.495926 0.0652602
830 1 0.66551 0.493017 0.137258
843 1 0.566615 0.566763 0.133982
1043 1 0.864141 0.220016 0.511439
833 1 0.729159 0.430512 0.149662
737 1 0.792879 0.409983 0.068442
738 1 0.725294 0.507271 0.0707473
834 1 0.79831 0.503387 0.140744
847 1 0.71721 0.576241 0.140185
751 1 0.801641 0.569233 0.0555035
1035 1 0.93516 1.00468 0.500192
741 1 0.93489 0.425218 0.0746356
837 1 0.864856 0.430316 0.141323
742 1 0.872183 0.514465 0.0611963
838 1 0.944233 0.504048 0.136037
869 1 0.503723 0.932615 0.147059
747 1 0.65243 0.566699 0.0722762
748 1 0.582185 0.636221 0.0666615
844 1 0.644194 0.641052 0.134785
857 1 0.571334 0.711444 0.136876
773 1 0.583941 0.862704 0.012307
986 1 0.857567 -7.38057e-05 0.427205
752 1 0.7075 0.647339 0.0565936
848 1 0.797353 0.646929 0.14156
765 1 0.787178 0.707999 0.0673869
158 1 0.997086 0.659373 0.216211
897 1 0.504296 0.215117 0.292918
851 1 0.8756 0.581327 0.149182
755 1 0.935108 0.5765 0.0712275
756 1 0.864317 0.641924 0.0648318
852 1 0.926379 0.654728 0.144844
769 1 0.929916 0.713742 0.0622193
865 1 0.863143 0.717632 0.146131
911 1 0.506758 0.353802 0.291029
761 1 0.633052 0.71535 0.0636563
762 1 0.56688 0.782997 0.0748963
858 1 0.643164 0.796868 0.159372
871 1 0.570243 0.867319 0.142554
316 1 1.001 0.426874 0.438528
813 1 0.493681 0.357627 0.148369
1002 1 0.505133 0.490243 0.425165
861 1 0.713971 0.703232 0.133774
766 1 0.711124 0.766802 0.0752778
862 1 0.784552 0.777147 0.138055
779 1 0.770597 0.834849 0.0700567
197 1 0.999011 0.0211865 0.265656
841 1 0.50074 0.648891 0.143404
770 1 0.85524 0.78876 0.0757437
866 1 0.939139 0.775572 0.146651
783 1 0.929555 0.848906 0.0710222
879 1 0.860919 0.856995 0.14644
1011 1 0.635917 0.653577 0.431459
944 1 0.569673 0.644141 0.352795
691 1 0.645511 1.00133 0.0747015
939 1 0.497341 0.64473 0.289377
1027 1 0.779953 0.933581 0.43294
775 1 0.651205 0.849068 0.0810096
957 1 0.647335 0.715933 0.356753
787 1 0.563459 0.0104086 0.139603
776 1 0.574073 0.931681 0.0694247
872 1 0.626577 0.932487 0.144568
695 1 0.776207 0.00175536 0.0584649
875 1 0.706796 0.871594 0.139755
780 1 0.713425 0.936725 0.0716489
876 1 0.776141 0.928338 0.146796
699 1 0.918504 0.00108219 0.0605136
795 1 0.856476 0.987808 0.137098
976 1 0.702873 0.942397 0.364647
781 1 0.843807 0.859701 0.00923107
784 1 0.83916 0.926518 0.0772873
880 1 0.933303 0.924624 0.131887
790 1 0.565499 0.0809384 0.212677
886 1 0.641312 0.0754457 0.276797
789 1 0.642766 1.01513 0.205666
885 1 0.566292 -0.00122607 0.290463
794 1 0.722297 0.0683229 0.209684
890 1 0.786924 0.0594096 0.287083
798 1 0.846992 0.0757827 0.213101
894 1 0.904626 0.0783622 0.281287
893 1 0.85673 0.996468 0.288942
811 1 0.916604 0.153808 0.214214
797 1 0.915779 1.01066 0.211724
1010 1 0.57904 0.562779 0.419397
1018 1 0.639522 0.79507 0.442597
803 1 0.638622 0.148134 0.20497
899 1 0.560616 0.146346 0.28464
804 1 0.559484 0.204341 0.21589
900 1 0.64562 0.208098 0.290288
817 1 0.645175 0.26764 0.214888
984 1 0.706377 0.00159804 0.433276
807 1 0.774985 0.148423 0.208706
903 1 0.717612 0.136845 0.281778
808 1 0.718541 0.220588 0.220603
904 1 0.78121 0.209752 0.289471
907 1 0.840788 0.143792 0.28018
812 1 0.853735 0.227091 0.218361
908 1 0.922194 0.205667 0.297312
825 1 0.93423 0.270083 0.229041
913 1 0.572533 0.290549 0.286903
818 1 0.57317 0.362884 0.218536
914 1 0.660073 0.351436 0.294508
821 1 0.785626 0.281461 0.208056
917 1 0.713759 0.278957 0.298439
822 1 0.705714 0.341941 0.207742
918 1 0.788417 0.346846 0.275061
921 1 0.852949 0.285664 0.288852
826 1 0.871937 0.346963 0.214589
922 1 0.922409 0.346894 0.290219
831 1 0.650455 0.433819 0.19949
927 1 0.582118 0.42723 0.278267
832 1 0.581328 0.504356 0.209631
928 1 0.647038 0.50285 0.270939
958 1 0.561599 0.790952 0.347136
1020 1 0.774028 0.791849 0.432599
835 1 0.798185 0.426877 0.214957
931 1 0.715587 0.432118 0.276364
836 1 0.724313 0.513451 0.212548
932 1 0.7846 0.500624 0.280067
849 1 0.78912 0.578018 0.212879
839 1 0.92188 0.433176 0.212124
935 1 0.853166 0.441261 0.287493
840 1 0.864961 0.504659 0.21531
936 1 0.924753 0.518448 0.290027
949 1 0.856155 0.579238 0.290342
1017 1 0.57522 0.718951 0.413248
856 1 0.489733 0.716821 0.212362
979 1 0.91919 0.862115 0.357151
845 1 0.65565 0.56951 0.206039
941 1 0.566289 0.575139 0.266182
846 1 0.565417 0.644551 0.202131
942 1 0.636467 0.637956 0.289595
955 1 0.553419 0.712686 0.281907
945 1 0.717902 0.587062 0.279269
850 1 0.710645 0.648405 0.217071
946 1 0.789927 0.644716 0.281794
959 1 0.719165 0.717204 0.296887
853 1 0.925315 0.59028 0.220203
854 1 0.860195 0.656591 0.208763
950 1 0.93376 0.644651 0.300265
963 1 0.864638 0.713746 0.292152
867 1 0.922906 0.716126 0.217595
113 1 0.9951 0.143243 0.131508
988 1 0.500249 0.215325 0.424417
859 1 0.639348 0.719133 0.225268
860 1 0.559034 0.779524 0.206877
956 1 0.636023 0.78668 0.290271
873 1 0.653423 0.858642 0.223771
969 1 0.562228 0.862967 0.280606
863 1 0.781258 0.714421 0.213228
864 1 0.724216 0.789954 0.218242
960 1 0.790611 0.788246 0.287359
973 1 0.724359 0.856032 0.289852
877 1 0.777112 0.858792 0.216429
1028 1 0.844303 0.856871 0.432645
868 1 0.853928 0.781796 0.21574
964 1 0.921186 0.782371 0.287214