ITEM: TIMESTEP
2500
ITEM: NUMBER OF ATOMS
2048
ITEM: BOX BOUNDS pp pp pp
0.0000000000000000e+00 4.2079999999999998e+01
0.0000000000000000e+00 4.2079999999999998e+01
0.0000000000000000e+00 4.2079999999999998e+01
ITEM: ATOMS id type xs ys zs
35 1 0.0569655 0.12785 0.0659496
8 1 0.119546 0.062226 0.068615
1429 1 0.61497 0.497475 0.390234
1419 1 0.31772 0.492475 0.431762
39 1 0.179015 0.121526 0.0744869
1299 1 0.57555 0.495079 0.323233
411 1 0.827667 0.00905661 0.436925
134 1 0.182219 0.0626695 0.127203
275 1 0.564751 0.000960674 0.319175
12 1 0.244403 0.0600959 0.0600656
16 1 0.379684 0.0615449 0.0474097
43 1 0.316119 0.127069 0.0541113
1291 1 0.317249 0.499144 0.320112
1035 1 0.322823 0.496607 0.0591223
47 1 0.439614 0.120414 0.0592511
125 1 0.871696 0.3689 0.0018472
553 1 0.272646 0.123855 0.496803
20 1 0.504103 0.0635637 0.0641435
146 1 0.56861 0.0672588 0.132302
1297 1 0.501208 0.497315 0.240007
24 1 0.625184 0.0598317 0.0676293
55 1 0.68869 0.114922 0.0666896
181 1 0.633141 0.135466 0.130337
28 1 0.749331 0.0644857 0.0616145
59 1 0.816239 0.123368 0.0575111
4 1 0.00961053 0.0547152 0.0580528
32 1 0.869273 0.0578439 0.0581248
158 1 0.937073 0.0583474 0.116369
511 1 0.943597 0.371562 0.43823
590 1 0.446078 0.29623 0.495272
40 1 0.121099 0.182933 0.0724006
162 1 0.0658764 0.184638 0.126335
193 1 0.00657075 0.241448 0.125995
67 1 0.067124 0.265262 0.0655629
1161 1 0.249254 0.492493 0.117706
44 1 0.245807 0.191552 0.0597138
71 1 0.182822 0.261113 0.0571293
201 1 0.25321 0.253882 0.118477
15 1 0.446868 0.0102909 0.062261
166 1 0.18895 0.183327 0.124891
169 1 0.250926 0.131723 0.116802
157 1 0.880286 0.000451687 0.133772
48 1 0.384941 0.18353 0.0737891
170 1 0.31206 0.188033 0.11651
205 1 0.372178 0.260797 0.124243
415 1 0.941033 0.0102907 0.440945
135 1 0.200676 0.000247545 0.192116
79 1 0.446152 0.247574 0.0752415
52 1 0.515835 0.184429 0.0566646
51 1 0.569664 0.121099 0.0688544
83 1 0.566907 0.240398 0.0632315
177 1 0.514566 0.133325 0.124585
405 1 0.632115 0.0114064 0.371795
385 1 0.993612 0.000933729 0.380738
1301 1 0.643998 0.498358 0.247139
56 1 0.627719 0.172782 0.055664
87 1 0.685015 0.254321 0.0663536
213 1 0.637305 0.250806 0.131213
182 1 0.698047 0.184161 0.124192
60 1 0.755207 0.196102 0.0663232
217 1 0.759583 0.250086 0.121688
6 1 0.176567 0.0626493 0.00677828
1177 1 0.743988 0.498528 0.117027
36 1 0.997087 0.188061 0.0646112
64 1 0.88397 0.187393 0.0617
63 1 0.933627 0.124396 0.0571016
95 1 0.943157 0.250169 0.0585054
189 1 0.876502 0.113941 0.124159
72 1 0.13758 0.325529 0.0707569
34 1 0.0650179 0.191664 0.0103473
46 1 0.438788 0.199999 0.000583959
76 1 0.242232 0.3159 0.0543369
75 1 0.311723 0.265009 0.0549396
107 1 0.312483 0.378213 0.0744665
202 1 0.318306 0.318189 0.127116
1425 1 0.495334 0.489201 0.374769
145 1 0.500015 0.00501178 0.123571
80 1 0.382433 0.318141 0.0640128
206 1 0.447535 0.318285 0.124479
241 1 0.502322 0.381756 0.12678
84 1 0.516776 0.310691 0.0731012
111 1 0.448152 0.375695 0.0677065
88 1 0.620312 0.300854 0.0644593
115 1 0.563084 0.375747 0.0573852
210 1 0.585026 0.310743 0.131697
90 1 0.80836 0.317793 0.00767904
119 1 0.683782 0.379811 0.0497374
245 1 0.641624 0.371983 0.124131
249 1 0.734961 0.378505 0.125837
214 1 0.69802 0.311298 0.130346
17 1 0.513329 0.00269906 0.00771382
1417 1 0.257268 0.487601 0.375483
92 1 0.746291 0.316348 0.0691227
91 1 0.814569 0.26122 0.0597377
123 1 0.804543 0.380875 0.0684336
541 1 0.876924 0.010647 0.498048
50 1 0.567512 0.173095 0.00221546
96 1 0.879135 0.308543 0.0621216
68 1 0.999117 0.312362 0.0503466
99 1 0.0597824 0.38181 0.0591843
104 1 0.124153 0.43712 0.0636789
229 1 0.127941 0.383353 0.12401
100 1 0.0023976 0.441852 0.0574467
103 1 0.187956 0.387433 0.0577987
147 1 0.559137 0.0119097 0.195082
1309 1 0.867904 0.49452 0.252743
108 1 0.252645 0.441799 0.0595429
112 1 0.383182 0.436768 0.0599106
234 1 0.315493 0.445571 0.126359
593 1 0.507649 0.23642 0.479934
238 1 0.437501 0.44153 0.119456
82 1 0.568213 0.305996 0.00515229
19 1 0.563763 0.0017301 0.0625995
137 1 0.245943 0.00956256 0.121771
116 1 0.503667 0.433558 0.0604331
120 1 0.625276 0.433786 0.0574756
574 1 0.931163 0.201945 0.49471
391 1 0.187505 0.00371412 0.441998
124 1 0.735332 0.440395 0.0606539
510 1 0.944556 0.445708 0.38401
128 1 0.878691 0.434877 0.0565066
554 1 0.314165 0.196393 0.484625
1171 1 0.566336 0.498295 0.175274
484 1 0.996651 0.43155 0.443795
1281 1 0.991437 0.489282 0.256301
506 1 0.82317 0.446953 0.393888
507 1 0.80765 0.380123 0.445191
225 1 0.993445 0.385644 0.123949
127 1 0.934312 0.378587 0.0545538
130 1 0.0656557 0.0533856 0.130273
132 1 0.997517 0.0604955 0.183142
163 1 0.0542006 0.120649 0.18858
258 1 0.0562938 0.0655189 0.252535
1169 1 0.502085 0.494132 0.125359
136 1 0.12203 0.0570857 0.187643
140 1 0.252109 0.0673088 0.184635
138 1 0.31885 0.0685088 0.119012
1433 1 0.754189 0.490781 0.390465
173 1 0.389216 0.119546 0.130846
144 1 0.37431 0.0547739 0.17489
171 1 0.310813 0.132485 0.181482
266 1 0.322057 0.0540955 0.250263
1411 1 0.0647547 0.494017 0.449793
142 1 0.442637 0.0609262 0.125654
175 1 0.444739 0.121627 0.190912
7 1 0.185049 0.00512756 0.0628282
149 1 0.616308 0.00575829 0.140586
148 1 0.497891 0.065901 0.188275
152 1 0.625045 0.0621927 0.200819
274 1 0.571501 0.0557302 0.25673
512 1 0.87143 0.433241 0.450424
150 1 0.698364 0.0519334 0.131137
185 1 0.75831 0.119478 0.128069
278 1 0.703414 0.0640051 0.259203
154 1 0.808774 0.050628 0.117502
508 1 0.73166 0.43524 0.456343
156 1 0.757235 0.0402621 0.194504
187 1 0.823524 0.110714 0.1786
267 1 0.301228 0.000142607 0.323311
160 1 0.877242 0.0504136 0.188919
286 1 0.943766 0.0614605 0.242661
165 1 0.124283 0.121473 0.133852
161 1 0.997384 0.118665 0.123074
164 1 0.0120571 0.189245 0.195085
290 1 0.0611934 0.186657 0.253731
168 1 0.124039 0.179526 0.192153
289 1 0.998974 0.127854 0.251185
195 1 0.0592005 0.267981 0.19577
167 1 0.185927 0.117185 0.193542
199 1 0.188157 0.257334 0.188649
329 1 0.246533 0.251563 0.24896
172 1 0.246139 0.188277 0.18269
298 1 0.304191 0.185723 0.241074
176 1 0.373881 0.184937 0.175252
203 1 0.310445 0.248808 0.181244
333 1 0.379486 0.259744 0.240839
174 1 0.454401 0.180624 0.127555
209 1 0.507191 0.258459 0.140934
301 1 0.375656 0.117766 0.232973
207 1 0.435518 0.241518 0.181811
178 1 0.562356 0.20404 0.140618
180 1 0.503496 0.188339 0.195667
179 1 0.575494 0.13283 0.185451
184 1 0.645141 0.186396 0.188736
211 1 0.573849 0.263218 0.198585
183 1 0.697442 0.125099 0.187916
188 1 0.7704 0.178674 0.186815
215 1 0.71039 0.240565 0.194194
345 1 0.772533 0.263982 0.24373
186 1 0.820043 0.197515 0.117595
314 1 0.818829 0.192513 0.254427
191 1 0.938847 0.125069 0.180984
190 1 0.936022 0.18383 0.119419
192 1 0.874459 0.189932 0.187446
223 1 0.947032 0.247869 0.184192
221 1 0.887698 0.252292 0.125034
349 1 0.874722 0.253496 0.250423
194 1 0.062983 0.316973 0.123212
196 1 0.997675 0.322281 0.173669
322 1 0.0573415 0.326694 0.241934
197 1 0.123595 0.244196 0.12712
198 1 0.187749 0.314711 0.133744
200 1 0.123715 0.321531 0.181386
204 1 0.262175 0.316972 0.190255
237 1 0.380592 0.382975 0.126143
330 1 0.311858 0.317336 0.251278
208 1 0.375349 0.314648 0.185953
334 1 0.440925 0.304306 0.247885
337 1 0.503066 0.251499 0.239369
239 1 0.441983 0.377663 0.189996
341 1 0.632832 0.236204 0.255997
212 1 0.508113 0.320511 0.191603
216 1 0.643939 0.311467 0.19564
243 1 0.570993 0.37285 0.188374
338 1 0.577905 0.320963 0.25582
373 1 0.632918 0.380101 0.253857
247 1 0.684575 0.381059 0.193383
342 1 0.702428 0.294644 0.25304
218 1 0.814292 0.323959 0.132142
220 1 0.756049 0.313261 0.187859
219 1 0.813649 0.256605 0.176534
253 1 0.872584 0.382466 0.117323
251 1 0.805562 0.39128 0.18072
222 1 0.944093 0.316328 0.11257
224 1 0.884222 0.326597 0.181516
381 1 0.874835 0.3795 0.252228
350 1 0.936415 0.328606 0.240244
227 1 0.0616772 0.380404 0.184269
226 1 0.054485 0.444138 0.126882
230 1 0.182077 0.451472 0.12105
232 1 0.121152 0.446057 0.179189
231 1 0.183506 0.382484 0.188326
498 1 0.566026 0.428496 0.384432
233 1 0.243811 0.384449 0.126771
236 1 0.244877 0.441232 0.189616
235 1 0.306537 0.386042 0.186525
240 1 0.375162 0.446528 0.181554
362 1 0.303025 0.435983 0.255401
365 1 0.369767 0.382273 0.239124
244 1 0.502564 0.438577 0.191883
366 1 0.440864 0.434789 0.244539
504 1 0.624141 0.427858 0.444186
499 1 0.565122 0.358644 0.439476
242 1 0.573309 0.428042 0.122693
566 1 0.673015 0.188957 0.497901
370 1 0.568156 0.44058 0.242494
578 1 0.0569688 0.313684 0.489053
246 1 0.68315 0.445712 0.132056
248 1 0.626305 0.443745 0.185356
252 1 0.756773 0.443407 0.1982
557 1 0.36325 0.131846 0.495908
1305 1 0.760312 0.497776 0.265144
1295 1 0.434515 0.494794 0.309978
250 1 0.815366 0.442041 0.12489
378 1 0.812827 0.438062 0.261366
255 1 0.93776 0.387536 0.183493
228 1 0.00179689 0.438938 0.191068
256 1 0.873693 0.451772 0.183395
254 1 0.944534 0.445366 0.10773
497 1 0.509632 0.373112 0.376122
260 1 0.00101983 0.0670274 0.306631
291 1 0.0689021 0.121936 0.316477
386 1 0.0653515 0.0535426 0.374042
263 1 0.202297 9.08522e-05 0.319162
262 1 0.186075 0.0590438 0.24697
264 1 0.126038 0.0537175 0.315866
295 1 0.182275 0.115927 0.298627
268 1 0.251723 0.0594923 0.295098
270 1 0.441037 0.0528328 0.243275
500 1 0.502012 0.434392 0.443128
272 1 0.374488 0.0472587 0.319569
303 1 0.441147 0.118385 0.294544
398 1 0.439487 0.062211 0.371039
495 1 0.44194 0.376149 0.443431
518 1 0.188416 0.0724979 0.489876
276 1 0.498161 0.047575 0.304219
307 1 0.562344 0.125262 0.308688
280 1 0.626659 0.0639724 0.312423
311 1 0.690458 0.122795 0.316282
1287 1 0.193266 0.492513 0.30971
1307 1 0.819483 0.496954 0.32484
282 1 0.818503 0.058401 0.240219
284 1 0.75245 0.0455539 0.32091
288 1 0.884375 0.0527664 0.308031
1423 1 0.437276 0.490581 0.433828
319 1 0.932798 0.129506 0.323161
321 1 0.996474 0.246021 0.254422
293 1 0.119984 0.114269 0.246187
294 1 0.180112 0.189016 0.257876
325 1 0.120522 0.247298 0.247853
296 1 0.119014 0.18498 0.309245
327 1 0.186814 0.250316 0.30863
422 1 0.180326 0.197615 0.364949
297 1 0.254889 0.125843 0.249194
299 1 0.32788 0.114165 0.299098
300 1 0.242903 0.186688 0.305794
331 1 0.318631 0.262069 0.311232
457 1 0.25079 0.250799 0.366554
425 1 0.251368 0.116655 0.358088
302 1 0.441123 0.185931 0.243602
304 1 0.375266 0.192261 0.281909
308 1 0.505719 0.185905 0.309822
305 1 0.513741 0.123883 0.243785
306 1 0.566945 0.182206 0.246488
434 1 0.564643 0.184001 0.361278
312 1 0.628702 0.177731 0.309269
433 1 0.498475 0.124747 0.361446
310 1 0.69723 0.181252 0.252046
313 1 0.758983 0.126015 0.24534
441 1 0.755377 0.118801 0.384674
309 1 0.63597 0.119675 0.253613
343 1 0.699842 0.249812 0.316321
473 1 0.751297 0.250202 0.375143
317 1 0.87488 0.127613 0.24117
315 1 0.810216 0.11983 0.305989
316 1 0.756573 0.181416 0.311165
347 1 0.81359 0.253527 0.319844
442 1 0.81024 0.1817 0.370327
292 1 0.000187054 0.191444 0.311691
318 1 0.939755 0.184255 0.240377
320 1 0.87266 0.187021 0.313778
446 1 0.946689 0.19544 0.379763
351 1 0.940428 0.24647 0.312497
417 1 0.0112675 0.128332 0.382268
323 1 0.0586328 0.252922 0.309235
328 1 0.131503 0.317612 0.314679
449 1 0.00256368 0.253783 0.375168
326 1 0.188345 0.311371 0.245529
361 1 0.252577 0.380694 0.250718
485 1 0.128879 0.372237 0.374644
359 1 0.187166 0.377803 0.304622
454 1 0.185876 0.315821 0.369601
332 1 0.247689 0.317469 0.31223
336 1 0.381652 0.313836 0.307573
363 1 0.312179 0.36768 0.313601
458 1 0.322126 0.317119 0.371169
335 1 0.439135 0.239573 0.304298
367 1 0.448539 0.376913 0.303615
462 1 0.439511 0.318311 0.373159
340 1 0.508177 0.323496 0.304315
493 1 0.372567 0.370163 0.378887
339 1 0.560899 0.248121 0.305063
344 1 0.64034 0.318792 0.306458
470 1 0.694265 0.311438 0.369915
375 1 0.698868 0.37462 0.310463
505 1 0.746182 0.385959 0.384429
346 1 0.822215 0.321418 0.251749
377 1 0.7584 0.372968 0.253921
348 1 0.766583 0.321804 0.314372
379 1 0.819131 0.39452 0.335122
352 1 0.888316 0.315776 0.303609
474 1 0.817918 0.31031 0.373417
324 1 0.996204 0.314569 0.301436
353 1 0.992104 0.383941 0.246014
357 1 0.128136 0.3819 0.237814
354 1 0.0600005 0.434162 0.244132
355 1 0.0575245 0.388073 0.30657
356 1 0.00813594 0.444785 0.324432
358 1 0.185059 0.443092 0.252434
360 1 0.123414 0.435931 0.310051
486 1 0.184635 0.432073 0.37156
492 1 0.256531 0.427166 0.438632
490 1 0.31203 0.429569 0.365818
364 1 0.247248 0.433586 0.314712
494 1 0.439353 0.42628 0.374869
368 1 0.387877 0.42517 0.30514
372 1 0.506232 0.438866 0.303943
101 1 0.120808 0.3824 0.00285611
369 1 0.506699 0.382257 0.243132
371 1 0.565965 0.387447 0.315109
376 1 0.638835 0.439019 0.310221
1047 1 0.675935 0.496451 0.0547365
374 1 0.700561 0.443485 0.249507
502 1 0.686555 0.4455 0.379191
380 1 0.749528 0.440733 0.322029
77 1 0.381152 0.262139 0.00254768
1415 1 0.191401 0.495891 0.441293
384 1 0.881297 0.441235 0.318429
382 1 0.928619 0.444138 0.245746
383 1 0.940135 0.384857 0.316559
1173 1 0.621663 0.499895 0.114222
419 1 0.0679062 0.128475 0.437426
78 1 0.447722 0.315306 0.00989222
614 1 0.192553 0.434525 0.493108
1427 1 0.551292 0.491468 0.445846
392 1 0.118676 0.0611721 0.434397
390 1 0.184114 0.0614252 0.369608
496 1 0.375004 0.433398 0.443898
423 1 0.196472 0.138479 0.433224
478 1 0.935529 0.313813 0.367088
394 1 0.30909 0.0667121 0.377509
396 1 0.24346 0.0612278 0.435604
400 1 0.37781 0.0512813 0.435082
427 1 0.320201 0.119795 0.429157
501 1 0.631209 0.372145 0.37466
509 1 0.892596 0.382624 0.379201
488 1 0.115411 0.429446 0.439818
429 1 0.386134 0.119027 0.36742
404 1 0.501779 0.0659595 0.447631
629 1 0.616471 0.369848 0.498832
402 1 0.555304 0.0624158 0.372048
408 1 0.621089 0.0592581 0.438729
435 1 0.563504 0.118911 0.436327
437 1 0.621003 0.120405 0.370083
482 1 0.0512053 0.434888 0.389619
480 1 0.867262 0.328308 0.434988
406 1 0.699864 0.0578115 0.379459
439 1 0.689067 0.107928 0.43749
461 1 0.385892 0.244779 0.365482
410 1 0.821824 0.0504495 0.36886
412 1 0.753364 0.0589079 0.450314
416 1 0.882851 0.0719184 0.428442
467 1 0.576374 0.251481 0.42251
388 1 0.0045134 0.0655441 0.438791
414 1 0.945027 0.0601492 0.364207
463 1 0.448083 0.242242 0.420568
418 1 0.0603923 0.199622 0.367336
420 1 0.00537818 0.197699 0.437489
424 1 0.124092 0.190603 0.429923
453 1 0.120497 0.255137 0.358788
421 1 0.132257 0.128012 0.370751
455 1 0.195744 0.254334 0.439538
466 1 0.564779 0.316394 0.362474
426 1 0.327349 0.178711 0.356079
428 1 0.262869 0.1765 0.423155
542 1 0.937925 0.0621588 0.496916
558 1 0.427266 0.18066 0.487051
432 1 0.374185 0.183674 0.427588
430 1 0.43562 0.169935 0.352834
431 1 0.430681 0.110968 0.439997
468 1 0.500642 0.311144 0.426703
469 1 0.624838 0.245485 0.358219
465 1 0.506859 0.242067 0.3631
436 1 0.492603 0.164865 0.428979
440 1 0.623143 0.180794 0.436012
483 1 0.0597813 0.37046 0.436874
472 1 0.637334 0.307228 0.424521
471 1 0.688517 0.248058 0.438294
438 1 0.675587 0.181704 0.380989
444 1 0.742215 0.181241 0.432344
476 1 0.754589 0.316808 0.435492
475 1 0.813912 0.242744 0.431423
443 1 0.816453 0.113586 0.435398
445 1 0.870505 0.115713 0.362134
479 1 0.928404 0.269913 0.440841
447 1 0.949635 0.12938 0.436983
448 1 0.874464 0.172763 0.42599
477 1 0.876824 0.247903 0.378709
450 1 0.058578 0.321846 0.372397
451 1 0.0623587 0.25777 0.43245
503 1 0.69493 0.365684 0.442415
487 1 0.190325 0.371809 0.434069
460 1 0.259074 0.307813 0.444578
456 1 0.126048 0.317069 0.444575
481 1 0.998824 0.374692 0.370636
452 1 0.994742 0.306914 0.432595
489 1 0.248009 0.369616 0.374143
464 1 0.378086 0.301709 0.429316
459 1 0.307301 0.250399 0.431444
491 1 0.322548 0.36889 0.434745
1413 1 0.124479 0.488221 0.377602
581 1 0.118525 0.250369 0.49466
1039 1 0.437002 0.495738 0.0570298
261 1 0.115366 0.00131032 0.25531
45 1 0.384651 0.134681 0.0018928
601 1 0.748566 0.237064 0.492807
546 1 0.0737872 0.185527 0.492805
11 1 0.306122 0.004981 0.0502233
413 1 0.886979 4.71215e-05 0.374396
1043 1 0.56701 0.494764 0.0627426
605 1 0.872361 0.260398 0.49148
562 1 0.560951 0.175372 0.495424
597 1 0.622187 0.248797 0.490648
85 1 0.632128 0.241036 0.00690661
573 1 0.891058 0.123424 0.499698
589 1 0.379199 0.242107 0.491501
110 1 0.450211 0.431294 0.000747597
41 1 0.232076 0.120534 0.00273811
1053 1 0.875168 0.49825 0.000792011
42 1 0.323986 0.191178 0.00950695
617 1 0.247828 0.374003 0.487758
30 1 0.941565 0.0591147 0.00451131
529 1 0.489698 0.00524164 0.495403
549 1 0.131085 0.126526 0.490352
109 1 0.382462 0.375331 0.0105763
18 1 0.557567 0.0718213 0.000762984
122 1 0.809084 0.424351 0.00305413
58 1 0.811741 0.197676 0.000787
598 1 0.670433 0.309953 0.498509
618 1 0.307915 0.429031 0.495051
61 1 0.874362 0.129186 0.00202889
86 1 0.691352 0.305316 0.00307396
1029 1 0.131991 0.495419 0.00146265
57 1 0.74703 0.129996 0.0105728
9 1 0.240111 0.00463313 0.00156894
522 1 0.31653 0.0575847 0.490882
621 1 0.385737 0.369219 0.496214
545 1 0.00223439 0.131802 0.491508
570 1 0.821625 0.186595 0.492111
569 1 0.745391 0.130881 0.494948
97 1 0.991219 0.373341 0.000249282
33 1 0.00296896 0.131384 0.00649486
565 1 0.630396 0.109888 0.493154
1041 1 0.5073 0.493294 0.0049413
520 1 0.13957 0.0568629 0.563634
547 1 0.059277 0.134837 0.557885
646 1 0.187503 0.0722141 0.628997
524 1 0.246735 0.0690529 0.566085
681 1 0.242178 0.128143 0.623173
677 1 0.121037 0.130612 0.609378
650 1 0.314883 0.0487741 0.631099
643 1 0.0653213 0.00066666 0.683172
1537 1 0.997944 0.492607 0.502137
528 1 0.369641 0.0685052 0.55051
654 1 0.426215 0.0571861 0.620127
532 1 0.497543 0.0527485 0.561148
610 1 0.0555092 0.4391 0.512369
1935 1 0.443819 0.498116 0.932947
126 1 0.939728 0.443005 0.987403
563 1 0.566027 0.116729 0.575018
693 1 0.623081 0.11894 0.629616
1021 1 0.862846 0.37037 0.873668
536 1 0.615575 0.0481582 0.561913
540 1 0.746191 0.0635004 0.563245
1675 1 0.32119 0.499931 0.683575
662 1 0.688936 0.0540031 0.617487
697 1 0.759553 0.127645 0.614477
544 1 0.893942 0.0690277 0.56111
1024 1 0.868378 0.441688 0.94723
1695 1 0.928938 0.498607 0.701595
105 1 0.251046 0.381254 0.998793
516 1 0.989912 0.0744307 0.567786
1681 1 0.495793 0.499866 0.630296
548 1 0.00157943 0.196032 0.553664
552 1 0.124119 0.195206 0.553757
1547 1 0.318509 0.479095 0.565492
551 1 0.194288 0.133397 0.562379
556 1 0.262877 0.183277 0.57332
583 1 0.18478 0.24997 0.571661
709 1 0.111633 0.252028 0.632973
649 1 0.239915 0.00612616 0.629842
555 1 0.320131 0.122912 0.568219
682 1 0.305979 0.186732 0.633072
560 1 0.366688 0.190879 0.559248
587 1 0.314777 0.2516 0.559036
559 1 0.42495 0.127848 0.547645
591 1 0.427965 0.243147 0.564103
686 1 0.424291 0.180318 0.61503
564 1 0.494917 0.182611 0.555706
721 1 0.491351 0.243902 0.626128
568 1 0.612968 0.182663 0.560754
690 1 0.551685 0.188071 0.629049
1553 1 0.500951 0.49611 0.510814
567 1 0.676152 0.115036 0.570904
572 1 0.743739 0.188738 0.556486
773 1 0.119831 0.00140009 0.75392
571 1 0.810227 0.129154 0.554294
698 1 0.812519 0.187206 0.620395
576 1 0.880964 0.201002 0.56536
733 1 0.873861 0.256008 0.62196
539 1 0.816902 0.00839872 0.564668
633 1 0.738139 0.369198 0.509106
575 1 0.932001 0.137252 0.560394
607 1 0.931017 0.258248 0.563601
701 1 0.873072 0.128527 0.621174
705 1 0.999378 0.249374 0.614947
669 1 0.880411 0.00498902 0.621228
579 1 0.0607139 0.252086 0.554003
584 1 0.121984 0.310488 0.551063
580 1 0.992342 0.314208 0.561761
706 1 0.0634197 0.313202 0.625224
907 1 0.303766 0.0104554 0.943451
1939 1 0.550253 0.498392 0.932531
713 1 0.238629 0.251708 0.619324
588 1 0.24827 0.313173 0.557741
745 1 0.256403 0.381053 0.6296
66 1 0.0606494 0.325924 0.999828
592 1 0.373877 0.310109 0.573665
619 1 0.305627 0.373012 0.557012
717 1 0.368506 0.248778 0.62414
714 1 0.306814 0.300244 0.61733
905 1 0.247091 0.00729943 0.874304
596 1 0.493777 0.307857 0.563984
623 1 0.439265 0.369713 0.575208
749 1 0.36329 0.365088 0.630774
595 1 0.544852 0.243796 0.556696
600 1 0.613204 0.302204 0.555883
627 1 0.558275 0.366095 0.564703
722 1 0.554146 0.304226 0.619558
638 1 0.934524 0.428202 0.50489
901 1 0.12387 0.0014725 0.880925
599 1 0.683113 0.249688 0.550276
1549 1 0.376174 0.491657 0.500477
603 1 0.803105 0.254629 0.567462
604 1 0.74476 0.309471 0.564309
608 1 0.874064 0.312674 0.56074
635 1 0.80363 0.375353 0.567292
639 1 0.936117 0.36813 0.565697
1567 1 0.938182 0.495548 0.56929
611 1 0.0656886 0.371459 0.560804
616 1 0.13215 0.433572 0.569098
21 1 0.616895 0.00499128 0.998527
534 1 0.690328 0.0494458 0.509343
615 1 0.188126 0.373443 0.566111
742 1 0.19259 0.435582 0.626024
741 1 0.129654 0.381111 0.627403
98 1 0.0709194 0.44978 0.996761
1691 1 0.79951 0.496715 0.695308
620 1 0.249916 0.433105 0.567503
1022 1 0.929985 0.431407 0.868978
996 1 0.999469 0.438296 0.941117
1687 1 0.695233 0.498694 0.689091
624 1 0.378749 0.42472 0.554423
753 1 0.498811 0.367339 0.628455
750 1 0.432296 0.438125 0.617476
911 1 0.436591 0.00188473 0.93899
634 1 0.801662 0.441063 0.50137
628 1 0.502847 0.43838 0.578847
754 1 0.559712 0.428622 0.628247
632 1 0.612416 0.433522 0.567126
1937 1 0.493144 0.498329 0.871919
543 1 0.940563 0.00570839 0.5581
1018 1 0.808007 0.441183 0.88561
631 1 0.671328 0.362068 0.564782
636 1 0.739047 0.436506 0.573359
22 1 0.693257 0.0625188 0.992112
785 1 0.503087 0.00880948 0.760984
625 1 0.49367 0.368041 0.508612
640 1 0.86962 0.445411 0.558828
62 1 0.951129 0.187935 0.997987
612 1 0.986089 0.432364 0.562021
659 1 0.550227 0.00571531 0.695046
523 1 0.311298 0.000318241 0.569683
642 1 0.0592399 0.0628903 0.613196
1015 1 0.675216 0.372768 0.938453
1020 1 0.732059 0.432345 0.93532
675 1 0.071781 0.116727 0.677032
770 1 0.0579011 0.0593993 0.752301
644 1 0.995596 0.0620854 0.682469
805 1 0.111016 0.131035 0.74492
648 1 0.128351 0.0623477 0.69696
774 1 0.194694 0.0599614 0.760544
679 1 0.179332 0.130525 0.697146
1014 1 0.67654 0.440037 0.863825
1951 1 0.937608 0.497613 0.931939
652 1 0.251798 0.0682244 0.687355
647 1 0.189044 0.00540852 0.688556
1013 1 0.605215 0.380222 0.868717
656 1 0.364187 0.0612843 0.689095
687 1 0.440463 0.137259 0.689329
782 1 0.438487 0.0659163 0.752711
538 1 0.828543 0.0670686 0.507176
1921 1 0.985602 0.498728 0.863799
658 1 0.566451 0.056009 0.631256
689 1 0.49588 0.11634 0.613894
660 1 0.482484 0.0654874 0.682341
787 1 0.573669 0.00568063 0.813088
1801 1 0.256319 0.498002 0.75083
664 1 0.634944 0.0584365 0.680758
695 1 0.698475 0.117502 0.681651
790 1 0.683836 0.053476 0.748306
917 1 0.619974 0.00290946 0.877428
666 1 0.820689 0.0725196 0.613722
668 1 0.754733 0.0575997 0.682859
672 1 0.876678 0.0653609 0.68856
794 1 0.809933 0.0624928 0.746051
1010 1 0.559837 0.445583 0.86094
670 1 0.941327 0.0678838 0.629405
1016 1 0.60786 0.442421 0.92515
798 1 0.940423 0.0626973 0.743356
903 1 0.177646 0.0031174 0.94325
674 1 0.0527303 0.186861 0.625513
802 1 0.0588531 0.202011 0.748837
676 1 0.996842 0.196783 0.691815
833 1 0.99071 0.260997 0.755579
678 1 0.182884 0.186709 0.626975
680 1 0.122371 0.185421 0.679021
684 1 0.244724 0.194593 0.683618
806 1 0.187378 0.187686 0.745883
809 1 0.242657 0.126863 0.753673
683 1 0.307424 0.134857 0.689118
715 1 0.320469 0.2429 0.68719
810 1 0.303213 0.185146 0.746327
688 1 0.370516 0.185063 0.688327
841 1 0.25295 0.254853 0.745307
685 1 0.374271 0.122727 0.631395
813 1 0.372686 0.124777 0.748496
814 1 0.43197 0.180446 0.761289
691 1 0.564556 0.117175 0.690874
817 1 0.504317 0.1225 0.747176
692 1 0.504832 0.177713 0.689932
723 1 0.562995 0.244977 0.683735
818 1 0.562412 0.18782 0.749332
696 1 0.620141 0.184511 0.683085
694 1 0.691093 0.182201 0.627175
700 1 0.760786 0.18523 0.699918
727 1 0.69035 0.233755 0.685405
857 1 0.736563 0.253747 0.752852
699 1 0.820846 0.129004 0.690828
731 1 0.819875 0.249456 0.68876
825 1 0.745029 0.122799 0.748292
673 1 0.00674289 0.124707 0.628205
702 1 0.937834 0.196735 0.617832
703 1 0.937151 0.137378 0.680894
704 1 0.885045 0.193919 0.673359
801 1 0.000269057 0.125063 0.743673
829 1 0.886059 0.127242 0.743424
707 1 0.0472929 0.255072 0.677994
712 1 0.116718 0.322335 0.691273
837 1 0.119953 0.253259 0.754872
737 1 0.988097 0.379741 0.635701
710 1 0.191615 0.314759 0.624157
711 1 0.179477 0.254418 0.695388
743 1 0.186941 0.375775 0.693924
838 1 0.189132 0.314829 0.747952
716 1 0.250333 0.310619 0.67924
747 1 0.314603 0.366471 0.689698
873 1 0.252771 0.383219 0.74395
842 1 0.314563 0.315868 0.75413
877 1 0.375246 0.377117 0.751161
718 1 0.43201 0.303265 0.625533
719 1 0.428863 0.243138 0.683947
720 1 0.36978 0.312662 0.694063
751 1 0.435382 0.375513 0.675974
845 1 0.382537 0.245183 0.748382
724 1 0.498509 0.315209 0.689032
728 1 0.626904 0.298239 0.678691
885 1 0.621013 0.357385 0.735788
881 1 0.490278 0.365564 0.751243
726 1 0.675976 0.294546 0.618188
729 1 0.743224 0.243598 0.622578
725 1 0.620587 0.244174 0.61679
853 1 0.6207 0.246571 0.749491
759 1 0.683993 0.35937 0.672456
765 1 0.864021 0.369253 0.615393
861 1 0.880831 0.250932 0.747255
732 1 0.749125 0.305804 0.681841
730 1 0.803818 0.308066 0.623112
763 1 0.809248 0.378412 0.677991
893 1 0.862788 0.382955 0.75677
734 1 0.933871 0.310077 0.623514
735 1 0.944095 0.247273 0.676656
708 1 0.995223 0.315669 0.692827
736 1 0.865672 0.309454 0.68302
862 1 0.930143 0.310164 0.738717
738 1 0.0490056 0.441539 0.643034
739 1 0.0559104 0.372295 0.686564
866 1 0.0640456 0.443866 0.736712
744 1 0.12191 0.442013 0.678803
870 1 0.190388 0.44822 0.754414
746 1 0.321271 0.435346 0.633681
748 1 0.253496 0.433656 0.687289
874 1 0.31627 0.436328 0.756804
613 1 0.124485 0.38073 0.506679
752 1 0.379759 0.437351 0.690507
756 1 0.496306 0.438341 0.67738
878 1 0.444096 0.429969 0.748239
1673 1 0.263521 0.497987 0.619344
526 1 0.430177 0.0564769 0.500097
799 1 0.928348 0.00606748 0.811075
755 1 0.558129 0.372132 0.689337
760 1 0.617185 0.438253 0.695941
757 1 0.615324 0.361923 0.626078
1006 1 0.441212 0.438341 0.8788
1665 1 0.987435 0.498145 0.633219
1539 1 0.063011 0.484492 0.577181
758 1 0.672762 0.440784 0.622104
764 1 0.74768 0.435819 0.66974
886 1 0.691805 0.431112 0.756488
1557 1 0.611764 0.498029 0.513141
761 1 0.744942 0.365672 0.625798
762 1 0.815607 0.448883 0.626368
768 1 0.866664 0.44607 0.698682
890 1 0.799927 0.437391 0.743472
1821 1 0.856408 0.499016 0.762581
766 1 0.918566 0.421952 0.638552
740 1 0.987704 0.439449 0.69365
767 1 0.92013 0.368172 0.695809
26 1 0.818503 0.0577673 0.997804
803 1 0.0659184 0.120261 0.820003
898 1 0.0643991 0.0644276 0.886678
1012 1 0.51263 0.42618 0.924378
776 1 0.124331 0.0603413 0.816887
1823 1 0.918762 0.491674 0.810355
913 1 0.502845 0.00224203 0.873757
778 1 0.302719 0.0698566 0.759894
988 1 0.742325 0.318979 0.931838
780 1 0.246839 0.0657113 0.820937
906 1 0.313555 0.0710855 0.88317
784 1 0.379751 0.0606825 0.814571
941 1 0.36198 0.13673 0.882572
788 1 0.501475 0.0651004 0.817184
910 1 0.432151 0.060183 0.88397
966 1 0.179139 0.320661 0.871343
786 1 0.569413 0.0628242 0.754301
792 1 0.628831 0.069673 0.811006
819 1 0.564919 0.125203 0.820417
821 1 0.626349 0.120215 0.74455
949 1 0.624817 0.12414 0.876968
914 1 0.553139 0.0631017 0.881103
1807 1 0.43721 0.499118 0.801196
602 1 0.800076 0.311078 0.504604
823 1 0.693448 0.131665 0.818987
918 1 0.690757 0.0494435 0.860286
915 1 0.561324 0.0057211 0.936281
796 1 0.750519 0.0619298 0.809351
772 1 0.994993 0.0675209 0.809869
800 1 0.875695 0.0747544 0.806709
926 1 0.929542 0.059717 0.876692
929 1 0.995192 0.112159 0.87899
808 1 0.133881 0.191774 0.803006
930 1 0.0586154 0.191684 0.872286
804 1 0.00666135 0.18688 0.802444
807 1 0.184247 0.122583 0.812102
839 1 0.182709 0.253501 0.807
965 1 0.115846 0.253615 0.86418
933 1 0.121811 0.124522 0.86916
937 1 0.24839 0.143963 0.862495
969 1 0.239455 0.246602 0.865158
812 1 0.242338 0.198658 0.803477
811 1 0.317394 0.126518 0.814778
843 1 0.309585 0.255994 0.808568
973 1 0.369592 0.250704 0.884136
938 1 0.300809 0.202463 0.880255
815 1 0.428371 0.115052 0.81965
816 1 0.366477 0.19525 0.810799
847 1 0.443916 0.242261 0.816323
942 1 0.432539 0.189489 0.874739
849 1 0.499237 0.259867 0.746208
820 1 0.501862 0.192031 0.811759
851 1 0.556921 0.258387 0.809087
824 1 0.624002 0.184565 0.80996
822 1 0.674231 0.185357 0.746464
828 1 0.7453 0.194413 0.805351
827 1 0.808822 0.127823 0.810212
957 1 0.875077 0.13025 0.887364
826 1 0.821876 0.184972 0.754135
954 1 0.809078 0.194106 0.878347
831 1 0.948997 0.133541 0.816566
830 1 0.941227 0.184705 0.746934
832 1 0.877815 0.177558 0.810902
958 1 0.93623 0.19266 0.881953
834 1 0.0639322 0.309467 0.745477
869 1 0.122855 0.375451 0.75406
835 1 0.0532932 0.254654 0.811863
962 1 0.0628021 0.321543 0.865782
840 1 0.122592 0.315333 0.805158
871 1 0.200314 0.381248 0.809635
1001 1 0.263981 0.380378 0.885895
844 1 0.246085 0.316607 0.829015
848 1 0.379511 0.314901 0.815425
1005 1 0.376975 0.375768 0.879287
846 1 0.437035 0.305296 0.752462
977 1 0.500462 0.248664 0.882815
850 1 0.566965 0.297752 0.737085
852 1 0.492991 0.307001 0.81128
856 1 0.621218 0.308266 0.808029
854 1 0.685152 0.307426 0.733196
855 1 0.678734 0.247222 0.813873
860 1 0.739892 0.325607 0.808313
982 1 0.668717 0.312083 0.872753
985 1 0.740789 0.243324 0.867428
859 1 0.813014 0.246253 0.803074
858 1 0.805673 0.320448 0.74821
864 1 0.869852 0.314932 0.811423
836 1 0.002783 0.326714 0.808046
863 1 0.932899 0.239794 0.812461
961 1 0.999047 0.262488 0.869003
989 1 0.873643 0.248277 0.867513
990 1 0.925431 0.311604 0.87583
959 1 0.937948 0.124607 0.939479
968 1 0.125811 0.314967 0.929822
980 1 0.50417 0.308888 0.940441
867 1 0.0607098 0.384643 0.813107
872 1 0.11221 0.445532 0.815177
978 1 0.558025 0.313474 0.872649
876 1 0.259492 0.443519 0.810673
998 1 0.18558 0.438695 0.871675
114 1 0.563935 0.438353 0.997108
875 1 0.310219 0.373832 0.811606
1002 1 0.312522 0.438035 0.873421
880 1 0.383932 0.44174 0.816452
1008 1 0.389534 0.429122 0.948579
1009 1 0.49404 0.365529 0.865
879 1 0.43873 0.371256 0.808172
884 1 0.504373 0.4348 0.803199
883 1 0.552374 0.36125 0.798232
882 1 0.554598 0.432926 0.740356
888 1 0.624343 0.443026 0.799653
887 1 0.67003 0.37571 0.820332
889 1 0.736983 0.372724 0.73066
1004 1 0.2569 0.449435 0.936329
892 1 0.761522 0.446671 0.815187
891 1 0.810298 0.372884 0.820577
896 1 0.86489 0.432268 0.81952
963 1 0.062576 0.258185 0.930312
865 1 0.993803 0.379365 0.745339
894 1 0.930856 0.442329 0.752899
868 1 0.0096201 0.445147 0.808861