ITEM: TIMESTEP
3750
ITEM: NUMBER OF ATOMS
864
ITEM: BOX BOUNDS pp pp pp
0.0000000000000000e+00 3.1559999999999999e+01
0.0000000000000000e+00 3.1559999999999999e+01
0.0000000000000000e+00 3.1559999999999999e+01
ITEM: ATOMS id type xs ys zs
8 1 0.152309 0.0667417 0.0859985
4 1 0.00414598 0.0848935 0.0909952
93 1 0.827086 0.000497576 0.17318
12 1 0.335662 0.0776861 0.0735821
31 1 0.249039 0.173233 0.0876463
78 1 0.274022 0.0805187 0.178867
105 1 0.32768 0.170317 0.163476
593 1 0.67241 0.499218 0.338667
21 1 0.827931 0.00680557 0.004171
16 1 0.492162 0.0884857 0.0810194
587 1 0.425318 0.495278 0.410108
157 1 0.500264 0.0112356 0.320328
39 1 0.585269 0.171465 0.0732956
109 1 0.507205 0.17371 0.157443
89 1 0.667236 0.0110732 0.152106
20 1 0.666345 0.0893514 0.0743672
87 1 0.587505 0.00712292 0.250945
43 1 0.750996 0.175827 0.07918
24 1 0.828186 0.0916369 0.0932694
75 1 0.0669495 0.0121027 0.27089
15 1 0.588669 0.00840905 0.0751667
286 1 0.914873 0.407451 0.490478
27 1 0.0830622 0.150485 0.0967405
32 1 0.149723 0.240345 0.0814243
101 1 0.156951 0.182806 0.181005
589 1 0.50317 0.486009 0.332442
73 1 1.00322 0.00488736 0.179406
515 1 0.417955 0.488644 0.236013
36 1 0.330815 0.247606 0.0765583
581 1 0.17275 0.489173 0.324638
102 1 0.234288 0.257849 0.183213
85 1 0.51133 0.00286344 0.151498
35 1 0.412758 0.162943 0.0791122
525 1 0.833974 0.487161 0.152092
59 1 0.419877 0.329416 0.0728665
250 1 0.423283 0.253756 0.499944
40 1 0.508114 0.262697 0.0804489
110 1 0.582655 0.262942 0.159637
133 1 0.481362 0.31857 0.165071
44 1 0.661785 0.253987 0.0809824
48 1 0.82841 0.251557 0.0756704
114 1 0.747348 0.253271 0.15773
83 1 0.413751 0.0108699 0.241029
47 1 0.921205 0.167283 0.0905521
97 1 0.990078 0.145208 0.174425
28 1 0.00896989 0.248823 0.0944403
71 1 0.934019 0.319011 0.0846223
273 1 0.32754 0.337676 0.492891
51 1 0.0768217 0.35814 0.0831662
161 1 0.670665 0.00793875 0.329173
215 1 0.913696 0.321533 0.418934
55 1 0.249779 0.321985 0.0903724
125 1 0.165062 0.337491 0.167095
56 1 0.17304 0.40769 0.076905
511 1 0.262442 0.496641 0.244977
126 1 0.245629 0.414553 0.166528
165 1 0.822646 0.0177578 0.330741
60 1 0.335302 0.409077 0.0897959
130 1 0.424175 0.408837 0.160923
521 1 0.65778 0.491728 0.171672
145 1 0.99447 0.0105567 0.356972
65 1 0.660274 0.3472 0.00420544
63 1 0.588444 0.339567 0.0786345
64 1 0.50805 0.421429 0.0797143
214 1 0.921318 0.414639 0.341916
53 1 0.159578 0.324403 0.00873862
5 1 0.156672 0.00802569 -0.00156678
3 1 0.065059 0.0029167 0.0960942
67 1 0.748887 0.334164 0.0752495
68 1 0.678851 0.41188 0.0849048
72 1 0.839491 0.410098 0.0875884
52 1 0.983492 0.415445 0.0940127
77 1 0.143288 0.00304154 0.193207
74 1 0.0716522 0.0802261 0.176944
208 1 0.511252 0.417934 0.421682
212 1 0.667632 0.426707 0.427238
80 1 0.16678 0.0947808 0.24384
84 1 0.336716 0.0917251 0.262485
103 1 0.262088 0.164448 0.24883
150 1 0.252236 0.0940192 0.329434
177 1 0.340232 0.181562 0.351039
82 1 0.41176 0.0990964 0.171718
107 1 0.414183 0.175867 0.246653
88 1 0.502985 0.0792467 0.237473
595 1 0.743276 0.501016 0.419851
86 1 0.578496 0.0861882 0.145588
158 1 0.590743 0.0920987 0.350432
92 1 0.680834 0.0952712 0.247008
113 1 0.668195 0.176258 0.158415
213 1 0.828659 0.340226 0.337978
202 1 0.41078 0.422285 0.328903
90 1 0.74136 0.0947685 0.16464
115 1 0.759849 0.181975 0.249178
96 1 0.813372 0.0859925 0.248744
117 1 0.835955 0.175909 0.163348
76 1 0.987218 0.0786151 0.25848
94 1 0.898975 0.0886816 0.176139
166 1 0.912671 0.0782285 0.348247
98 1 0.0861908 0.253174 0.174094
99 1 0.0715978 0.170605 0.253563
104 1 0.159238 0.24573 0.260811
170 1 0.0825717 0.247932 0.348164
129 1 0.343824 0.324177 0.160523
173 1 0.160861 0.163798 0.331012
108 1 0.335766 0.262323 0.257188
174 1 0.25351 0.246862 0.330822
106 1 0.419858 0.229131 0.153077
205 1 0.508153 0.333982 0.340748
112 1 0.505929 0.250799 0.245413
131 1 0.433421 0.339099 0.263736
201 1 0.332028 0.34344 0.337521
111 1 0.593415 0.171212 0.24131
116 1 0.661224 0.261728 0.249011
135 1 0.586959 0.333351 0.253921
137 1 0.669025 0.34119 0.162591
141 1 0.846905 0.326706 0.159836
120 1 0.836131 0.25137 0.249909
139 1 0.761769 0.350481 0.237418
118 1 0.922593 0.24564 0.166248
100 1 0.998559 0.257309 0.249886
119 1 0.911175 0.158819 0.252879
143 1 0.918485 0.338702 0.245207
122 1 0.0835765 0.416973 0.167391
123 1 0.0929855 0.337583 0.260949
194 1 0.0859762 0.422343 0.33225
128 1 0.167157 0.423392 0.245379
127 1 0.255363 0.349758 0.250061
197 1 0.17872 0.330246 0.326623
216 1 0.828489 0.429979 0.43361
198 1 0.260503 0.418434 0.34509
132 1 0.342741 0.400554 0.234338
136 1 0.512214 0.425106 0.24183
192 1 0.837286 0.247192 0.419695
200 1 0.167713 0.409922 0.407577
134 1 0.58548 0.404669 0.167808
140 1 0.68042 0.420902 0.249887
138 1 0.752618 0.417254 0.161204
210 1 0.75769 0.428143 0.341449
121 1 0.992443 0.33722 0.174778
142 1 0.910375 0.416145 0.167675
193 1 0.00534079 0.333861 0.330997
124 1 0.0132733 0.417384 0.254648
144 1 0.844948 0.422979 0.254026
204 1 0.34363 0.420588 0.412406
146 1 0.0801344 0.0884234 0.340323
152 1 0.169394 0.0804331 0.411127
156 1 0.344727 0.0810106 0.40496
175 1 0.245025 0.164142 0.412531
95 1 0.910556 0.0122622 0.258856
154 1 0.429775 0.0888577 0.327888
160 1 0.50102 0.0683928 0.417359
179 1 0.429903 0.160667 0.40987
585 1 0.336494 0.495591 0.323792
206 1 0.594924 0.41536 0.332888
209 1 0.685486 0.34532 0.329798
195 1 0.0796706 0.340966 0.42502
577 1 0.991902 0.494631 0.328953
162 1 0.748592 0.0912837 0.340437
164 1 0.660002 0.0844247 0.42835
187 1 0.744822 0.158716 0.417937
7 1 0.239582 0.00935399 0.102433
19 1 0.756394 0.0057421 0.0838446
148 1 0.0182494 0.0969753 0.425419
168 1 0.832363 0.0724975 0.425494
191 1 0.923305 0.146668 0.430862
207 1 0.593996 0.331239 0.411084
661 1 0.506591 0.487099 0.500282
171 1 0.0984224 0.167022 0.408796
172 1 0.979953 0.241587 0.416228
66 1 0.751698 0.418373 0.0147029
190 1 0.908509 0.256409 0.328315
176 1 0.162162 0.257296 0.418668
180 1 0.333907 0.258991 0.425765
199 1 0.251497 0.325694 0.405134
249 1 0.337034 0.174848 0.493166
178 1 0.429375 0.25167 0.331137
203 1 0.42494 0.34684 0.40963
181 1 0.49861 0.166147 0.322118
184 1 0.496371 0.246926 0.42181
196 1 0.999038 0.427862 0.41319
185 1 0.669657 0.173209 0.328472
182 1 0.582902 0.260089 0.327153
183 1 0.601075 0.199561 0.409109
188 1 0.689505 0.257893 0.410858
186 1 0.772582 0.254937 0.330764
211 1 0.754246 0.347895 0.424347
189 1 0.836211 0.164259 0.330029
169 1 0.998368 0.163386 0.334806
519 1 0.600058 0.49044 0.26071
253 1 0.504027 0.16201 0.492881
579 1 0.0913527 0.490957 0.43025
523 1 0.754466 0.49712 0.256536
163 1 0.745991 0.00323991 0.417751
50 1 0.0802925 0.43141 0.00821145
54 1 0.255471 0.409927 0.00478998
453 1 0.840164 0.498333 0.0107421
439 1 0.245756 0.483963 0.0801081
447 1 0.584128 0.499239 0.0828393
23 1 0.920614 0.0115784 0.0886308
149 1 0.171744 0.0154148 0.319217
509 1 0.162593 0.49316 0.172542
527 1 0.934217 0.499238 0.246931
443 1 0.413841 0.494659 0.0850883
583 1 0.258037 0.496641 0.417815
451 1 0.739285 0.494732 0.090817
26 1 0.0705299 0.25134 0.0076063
222 1 0.258728 0.0879844 0.48534
70 1 0.930124 0.43626 0.011492
281 1 0.665981 0.33884 0.493191
45 1 0.815806 0.176417 -0.00179264
226 1 0.416964 0.0639897 0.488865
270 1 0.254016 0.415348 0.493187
265 1 0.995003 0.33661 0.48737
246 1 0.250096 0.260249 0.495244
261 1 0.829337 0.157434 0.491556
22 1 0.909255 0.0849153 0.00903785
258 1 0.753489 0.259015 0.49637
449 1 0.665741 0.499119 0.0151337
57 1 0.334149 0.325061 0.00607087
46 1 0.9174 0.247683 0.00308734
13 1 0.513774 0.01552 0.00206404
37 1 0.495214 0.168507 0.00383574
29 1 0.161896 0.140449 0.00638433
277 1 0.500405 0.334141 0.502439
18 1 0.761506 0.0893677 0.00583408
441 1 0.336893 0.498564 0.0157677
432 1 0.831009 0.421896 0.936487
224 1 0.172522 0.0854329 0.599335
294 1 0.258555 0.079877 0.673117
228 1 0.337535 0.086141 0.576229
657 1 0.337724 0.497936 0.527652
232 1 0.481459 0.07769 0.576046
363 1 0.0798763 0.0121379 0.915297
799 1 0.249668 0.477914 0.912776
721 1 0.00221713 0.500088 0.665872
236 1 0.659724 0.074323 0.588258
255 1 0.577705 0.174374 0.573048
297 1 0.33197 -0.000195741 0.665935
302 1 0.57683 0.0734902 0.654004
259 1 0.758782 0.172371 0.585128
306 1 0.740032 0.0789268 0.655411
58 1 0.40749 0.412537 0.994198
220 1 0.999136 0.0763926 0.57965
240 1 0.836948 0.0869682 0.573946
245 1 0.159059 0.169822 0.498897
412 1 0.0129428 0.419136 0.915715
317 1 0.164448 0.171826 0.68394
243 1 0.0882452 0.172966 0.589089
244 1 0.00803863 0.249785 0.572051
313 1 0.991072 0.146826 0.659786
247 1 0.235667 0.167771 0.577475
248 1 0.161542 0.251465 0.586468
318 1 0.240366 0.249436 0.665814
252 1 0.323728 0.234778 0.587713
223 1 0.252784 0.00542468 0.580375
251 1 0.411448 0.161402 0.57296
322 1 0.408732 0.237522 0.663786
256 1 0.48897 0.261988 0.589193
275 1 0.408676 0.324035 0.582877
325 1 0.496148 0.169038 0.645237
729 1 0.320455 0.48671 0.654943
329 1 0.665876 0.172142 0.660167
260 1 0.673256 0.274076 0.584687
33 1 0.341077 0.162996 0.994773
333 1 0.836265 0.158956 0.659906
330 1 0.756844 0.246761 0.663537
263 1 0.913938 0.154998 0.579939
264 1 0.818315 0.255536 0.583117
357 1 0.848098 0.338612 0.661745
334 1 0.91882 0.250261 0.640142
267 1 0.0767538 0.337102 0.577019
341 1 0.133629 0.328836 0.665185
268 1 0.00286963 0.417906 0.562848
431 1 0.915425 0.326249 0.901578
257 1 0.668013 0.180015 0.505138
725 1 0.146899 0.49799 0.661106
271 1 0.246552 0.340782 0.584046
272 1 0.154517 0.404563 0.59342
342 1 0.244167 0.406588 0.67691
373 1 0.509635 -0.000398652 0.830651
303 1 0.584775 0.0015963 0.747403
276 1 0.336948 0.404715 0.583058
280 1 0.50521 0.434024 0.586565
346 1 0.410618 0.413199 0.671692
279 1 0.58437 0.341784 0.573129
350 1 0.579567 0.420567 0.677901
353 1 0.680016 0.336694 0.679225
659 1 0.417472 0.491245 0.594029
727 1 0.247348 0.490945 0.7377
655 1 0.235068 0.477536 0.590387
283 1 0.758168 0.343823 0.594018
284 1 0.685188 0.441161 0.599724
354 1 0.771604 0.43467 0.667038
795 1 0.109571 0.493817 0.917196
282 1 0.750636 0.425503 0.505286
34 1 0.424016 0.261302 0.99257
287 1 0.923638 0.337236 0.580163
288 1 0.831082 0.428495 0.581603
254 1 0.571814 0.251576 0.500857
290 1 0.0995441 0.0786039 0.692976
389 1 0.153334 0.169437 0.836235
362 1 0.0803563 0.0838284 0.829201
813 1 0.840708 0.491203 0.851529
38 1 0.589635 0.260007 0.998999
296 1 0.172621 0.0746201 0.766984
300 1 0.32186 0.0705049 0.762465
731 1 0.415581 0.496432 0.746063
298 1 0.408476 0.0856987 0.683162
370 1 0.419486 0.0771568 0.823499
304 1 0.506017 0.0776818 0.739755
361 1 0.996466 -0.000466534 0.830544
327 1 0.586403 0.178615 0.743826
374 1 0.584052 0.084086 0.835621
421 1 0.515749 0.338383 0.834245
308 1 0.659762 0.0924525 0.734551
312 1 0.825891 0.0812198 0.749133
401 1 0.658121 0.147871 0.818556
378 1 0.743259 0.0869136 0.84128
793 1 0.00974968 0.494152 0.830806
310 1 0.898327 0.0761687 0.664468
292 1 0.992025 0.0830412 0.748804
335 1 0.91019 0.160332 0.741781
266 1 0.088802 0.415709 0.505227
315 1 0.0605384 0.16428 0.73611
314 1 0.0592113 0.249412 0.662794
320 1 0.162175 0.254242 0.776107
319 1 0.242207 0.154113 0.756309
321 1 0.315552 0.162795 0.66206
324 1 0.321579 0.225116 0.740676
323 1 0.415812 0.162169 0.749448
326 1 0.570847 0.246522 0.652494
328 1 0.49323 0.234864 0.730565
332 1 0.683827 0.239783 0.753911
331 1 0.749262 0.150461 0.745644
425 1 0.67246 0.344289 0.821132
336 1 0.837439 0.260959 0.744145
337 1 0.0041325 0.336058 0.686468
316 1 0.985166 0.240382 0.735415
359 1 0.908144 0.3343 0.753304
406 1 0.917479 0.233092 0.832972
405 1 0.823996 0.175066 0.836882
338 1 0.0701319 0.420419 0.663134
339 1 0.0697404 0.32951 0.75566
410 1 0.088762 0.419806 0.834815
413 1 0.148892 0.336354 0.832461
9 1 0.355104 0.0042772 0.998192
340 1 0.00945907 0.419129 0.746811
345 1 0.326959 0.324848 0.662446
343 1 0.237126 0.319721 0.74264
344 1 0.150556 0.419695 0.750129
797 1 0.174274 0.499716 0.822685
428 1 0.655813 0.430192 0.90826
801 1 0.323907 0.476308 0.831938
348 1 0.327733 0.40275 0.759895
347 1 0.424516 0.326821 0.745954
352 1 0.493097 0.411919 0.752309
349 1 0.50224 0.344051 0.659512
351 1 0.587942 0.326554 0.740865
422 1 0.575833 0.427973 0.815761
355 1 0.766058 0.357242 0.764538
356 1 0.678526 0.421143 0.74774
426 1 0.745454 0.440196 0.845894
360 1 0.838791 0.434289 0.751596
424 1 0.494659 0.422974 0.905611
409 1 0.995667 0.337235 0.839467
429 1 0.832947 0.356328 0.846339
358 1 0.935147 0.416281 0.660006
430 1 0.922338 0.41682 0.828618
418 1 0.415587 0.401283 0.833491
364 1 0.980683 0.0747505 0.921192
368 1 0.159344 0.0871486 0.902503
417 1 0.346169 0.297417 0.816873
445 1 0.479038 0.491412 0.995273
391 1 0.243136 0.163845 0.920644
366 1 0.250745 0.0711327 0.851212
372 1 0.343658 0.0900438 0.916604
393 1 0.326449 0.165376 0.833801
420 1 0.327254 0.389754 0.905219
17 1 0.6771 0.00408304 0.996874
376 1 0.505568 0.102501 0.904535
395 1 0.418568 0.185026 0.902817
42 1 0.753957 0.264471 0.990643
415 1 0.2465 0.323547 0.922555
427 1 0.739012 0.357739 0.919869
399 1 0.598506 0.175033 0.925816
404 1 0.655229 0.273482 0.924619
380 1 0.663568 0.0822211 0.915015
408 1 0.828193 0.254485 0.915181
403 1 0.733431 0.18003 0.900399
416 1 0.168595 0.404294 0.928825
414 1 0.239018 0.392212 0.821948
407 1 0.906904 0.164433 0.912382
382 1 0.901684 0.0881456 0.829426
384 1 0.837966 0.0767716 0.922935
387 1 0.0738805 0.155061 0.925422
388 1 0.996591 0.250468 0.906259
385 1 0.00554102 0.162196 0.833826
386 1 0.0705724 0.247506 0.827867
392 1 0.158392 0.237508 0.921026
390 1 0.247861 0.245866 0.828825
396 1 0.330097 0.238689 0.917726
402 1 0.755326 0.27454 0.830793
394 1 0.43867 0.253018 0.819046
419 1 0.418472 0.316893 0.904123
14 1 0.591747 0.0888641 0.992227
423 1 0.585319 0.349639 0.914593
398 1 0.594794 0.255701 0.833368
397 1 0.508409 0.170384 0.822071
400 1 0.511886 0.248544 0.912777
411 1 0.0838937 0.321777 0.929359
311 1 0.917289 0.00577969 0.754478
743 1 0.927507 0.497843 0.74863
285 1 0.829884 0.353848 0.513548
41 1 0.675794 0.159977 0.995841
377 1 0.666003 0.00128458 0.829211
803 1 0.405423 0.488045 0.918693
379 1 0.748655 0.00736971 0.9101
381 1 0.815617 0.00909324 0.83039
61 1 0.511627 0.324286 0.995974
371 1 0.428066 0.00396368 0.906127
49 1 0.994793 0.342003 0.99519
218 1 0.0878209 0.0828559 0.504889
242 1 0.0916277 0.256384 0.504239
274 1 0.42244 0.411859 0.512666
62 1 0.57545 0.427857 0.992511
10 1 0.418528 0.092499 0.998943
30 1 0.239312 0.236963 0.995706
278 1 0.594149 0.430342 0.510877
25 1 0.993173 0.165598 0.997857
2 1 0.0574199 0.0765378 0.997727
269 1 0.166889 0.342135 0.504641
234 1 0.750779 0.0811246 0.507565
238 1 0.913933 0.0606852 0.49981
230 1 0.580146 0.0728065 0.506521
221 1 0.172537 0.01898 0.505296
241 1 0.993977 0.16464 0.509096
6 1 0.251804 0.0798896 0.996967
262 1 0.912279 0.258165 0.517174
69 1 0.855222 0.335591 0.992304
653 1 0.168299 0.496803 0.505666
506 1 0.0846741 0.582892 0.163872
167 1 0.903367 0.989339 0.417664
591 1 0.577041 0.50347 0.414059
440 1 0.168732 0.585399 0.0701725
463 1 0.253459 0.664629 0.0778468
147 1 0.0965379 0.999914 0.416641
599 1 0.919253 0.503816 0.415078
444 1 0.340095 0.578278 0.0862712
448 1 0.5113 0.573158 0.072208
514 1 0.427117 0.58002 0.149911
541 1 0.507138 0.665639 0.161576
545 1 0.659462 0.662557 0.17958
1 1 0.979894 0.992586 0.00398348
628 1 0.995727 0.913164 0.416778
452 1 0.66792 0.586194 0.0823348
522 1 0.737624 0.568392 0.170243
486 1 0.251547 0.922106 0.0220493
597 1 0.835986 0.501348 0.346938
473 1 0.679625 0.672282 0.00726224
643 1 0.75554 0.829377 0.40645
436 1 0.00394404 0.579081 0.0837713
456 1 0.834578 0.591806 0.0912473
666 1 0.742781 0.594476 0.477664
11 1 0.430372 0.988966 0.0721846
459 1 0.0795696 0.658305 0.0827459
530 1 0.0803872 0.741602 0.167363
483 1 0.0827142 0.825721 0.0832497
464 1 0.166307 0.754166 0.0895029
534 1 0.24507 0.738819 0.172207
467 1 0.405934 0.675796 0.0851934
468 1 0.33515 0.753532 0.0793959
538 1 0.415224 0.74292 0.166931
714 1 0.746195 0.910234 0.500638
471 1 0.56787 0.657741 0.0661346
472 1 0.498147 0.743941 0.0757119
495 1 0.576149 0.836882 0.0784036
565 1 0.507389 0.844081 0.158242
542 1 0.579972 0.744176 0.164956
475 1 0.74072 0.656047 0.0966133
476 1 0.657769 0.738447 0.092402
569 1 0.640345 0.835997 0.172022
546 1 0.739966 0.748202 0.157219
479 1 0.913406 0.679081 0.0909372
460 1 0.0126967 0.750535 0.0878831
480 1 0.840027 0.755817 0.0801638
550 1 0.91265 0.749654 0.169842
503 1 0.909769 0.838559 0.0949289
694 1 0.915418 0.749864 0.479431
554 1 0.0817418 0.906944 0.171823
513 1 0.32659 0.503184 0.162435
665 1 0.668866 0.506981 0.498271
487 1 0.257294 0.828611 0.0816455
488 1 0.162557 0.919352 0.094896
558 1 0.245918 0.90504 0.165944
481 1 0.998275 0.838824 0.00747573
491 1 0.417788 0.820323 0.0962815
492 1 0.342205 0.912225 0.0753232
496 1 0.519199 0.924482 0.0731743
670 1 0.919029 0.602173 0.487653
501 1 0.839975 0.828505 0.00205391
507 1 0.0866312 0.504539 0.236984
151 1 0.257913 0.996026 0.409545
499 1 0.762236 0.83867 0.083869
642 1 0.750649 0.920706 0.346761
500 1 0.669335 0.917146 0.0898473
570 1 0.748141 0.931087 0.160016
484 1 0.992701 0.924717 0.0941397
504 1 0.837498 0.925402 0.0890997
573 1 0.825371 0.84055 0.165555
685 1 0.500831 0.660626 0.490579
648 1 0.835019 0.907293 0.416323
482 1 0.0840938 0.930675 0.0142956
517 1 0.50214 0.510025 0.151318
512 1 0.16511 0.576538 0.246421
508 1 0.00409688 0.58161 0.257996
531 1 0.0940334 0.669359 0.241048
510 1 0.247871 0.598531 0.17608
582 1 0.262601 0.576821 0.344779
605 1 0.166699 0.661234 0.330382
461 1 0.173643 0.671696 0.000560155
516 1 0.323726 0.59121 0.243794
686 1 0.586943 0.737459 0.489761
539 1 0.436962 0.662903 0.241851
586 1 0.425047 0.566605 0.327594
609 1 0.35255 0.662974 0.333338
518 1 0.588372 0.590027 0.14991
520 1 0.506509 0.569351 0.235489
543 1 0.575857 0.664398 0.255551
590 1 0.575422 0.573952 0.330928
638 1 0.596167 0.917284 0.332786
640 1 0.510822 0.923834 0.400426
524 1 0.662545 0.580124 0.261137
528 1 0.846499 0.55557 0.236388
594 1 0.762922 0.572626 0.341956
689 1 0.67061 0.672574 0.48644
526 1 0.927556 0.583449 0.170716
551 1 0.918162 0.658024 0.243189
709 1 0.506644 0.846242 0.480737
601 1 0.00250973 0.673742 0.319744
532 1 0.99963 0.752539 0.252558
625 1 0.00213424 0.834467 0.329006
533 1 0.168763 0.664622 0.167938
557 1 0.16132 0.830675 0.168765
536 1 0.167022 0.753817 0.249312
535 1 0.255391 0.671117 0.259293
537 1 0.327746 0.670936 0.171474
540 1 0.337295 0.771679 0.270318
614 1 0.602966 0.748458 0.320248
544 1 0.50526 0.750574 0.255766
567 1 0.563789 0.837928 0.256072
617 1 0.682254 0.65823 0.320739
549 1 0.834459 0.659926 0.17251
547 1 0.75765 0.653681 0.247322
548 1 0.670624 0.743952 0.236858
645 1 0.832152 0.82503 0.303403
529 1 0.00460584 0.65909 0.166269
552 1 0.819905 0.740248 0.247432
575 1 0.928022 0.840673 0.242513
555 1 0.0783325 0.826819 0.24948
556 1 0.0163657 0.913362 0.252778
626 1 0.0826827 0.925483 0.345294
561 1 0.326404 0.819475 0.176584
559 1 0.245734 0.832922 0.261301
560 1 0.167286 0.909192 0.254378
644 1 0.662002 0.90676 0.40793
564 1 0.335949 0.911775 0.261884
563 1 0.430818 0.836118 0.239995
562 1 0.425422 0.921873 0.147734
79 1 0.244109 0.993479 0.239566
641 1 0.666978 0.842482 0.304816
568 1 0.504077 0.943976 0.240004
566 1 0.586764 0.93377 0.158163
572 1 0.663752 0.924432 0.246077
571 1 0.744678 0.842264 0.241036
576 1 0.821883 0.930873 0.246069
646 1 0.910839 0.904176 0.324419
635 1 0.417601 0.833133 0.420146
574 1 0.914322 0.939306 0.177782
634 1 0.416909 0.933082 0.320526
553 1 0.989023 0.838187 0.161687
477 1 0.835167 0.668525 0.0148591
578 1 0.0963954 0.576836 0.328809
584 1 0.171631 0.571922 0.406489
636 1 0.316666 0.915455 0.435972
159 1 0.588126 1.00131 0.414275
454 1 0.921321 0.588943 0.00936588
607 1 0.247902 0.666524 0.421075
91 1 0.741504 0.997385 0.251214
588 1 0.338343 0.569047 0.425395
611 1 0.419244 0.659486 0.416292
613 1 0.50244 0.655844 0.336566
615 1 0.601928 0.649369 0.414196
592 1 0.498224 0.579408 0.416651
596 1 0.67151 0.574523 0.405789
654 1 0.252977 0.57994 0.492681
619 1 0.755373 0.684164 0.404919
631 1 0.235772 0.833131 0.421645
621 1 0.834007 0.657214 0.32822
600 1 0.841684 0.587064 0.409034
623 1 0.918909 0.675081 0.404177
580 1 0.00521406 0.582875 0.387047
598 1 0.916675 0.579274 0.316026
629 1 0.162907 0.833361 0.334887
604 1 0.996284 0.747566 0.407922
602 1 0.0863541 0.746078 0.332083
603 1 0.0758252 0.66577 0.404176
627 1 0.0746393 0.829153 0.421049
155 1 0.410703 0.981181 0.407629
606 1 0.238629 0.751831 0.335159
608 1 0.152193 0.751741 0.419906
633 1 0.32728 0.851289 0.351727
610 1 0.432025 0.747313 0.331068
612 1 0.328018 0.753497 0.40811
637 1 0.487599 0.837699 0.33287
620 1 0.675757 0.75441 0.419113
616 1 0.498483 0.759735 0.416021
639 1 0.585954 0.832486 0.406747
81 1 0.325557 0.982457 0.173635
618 1 0.740538 0.768826 0.323107
624 1 0.833908 0.74778 0.397273
630 1 0.240154 0.924947 0.330385
632 1 0.170408 0.920281 0.425638
622 1 0.909664 0.739259 0.322291
647 1 0.917473 0.822332 0.400564
505 1 0.000894436 0.504152 0.165232
455 1 0.916624 0.512912 0.0872781
497 1 0.65312 0.835759 0.0114353
693 1 0.826193 0.678364 0.49317
435 1 0.0787524 0.499498 0.0846397
153 1 0.323146 0.993776 0.329258
673 1 1.00194 0.672804 0.483526
474 1 0.745781 0.748779 0.0247733
442 1 0.42766 0.600086 0.00317343
437 1 0.17043 0.500645 0.0134211
450 1 0.758854 0.579477 0.0180263
718 1 0.906806 0.912235 0.496886
682 1 0.406882 0.74179 0.488423
434 1 0.079736 0.585796 0.00902826
478 1 0.913941 0.749129 0.0112869
662 1 0.581 0.586874 0.497385
706 1 0.415588 0.913965 0.496409
502 1 0.910248 0.909531 0.00676056
489 1 0.341831 0.8258 -8.33877e-05
457 1 0.995139 0.664311 0.0130807
649 1 0.00289887 0.520122 0.491341
485 1 0.165354 0.847396 0.00494547
710 1 0.593996 0.915038 0.489449
233 1 0.671759 0.988337 0.499192
717 1 0.829283 0.824881 0.481112
229 1 0.498386 0.992251 0.49309
675 1 0.0781969 0.675709 0.587105
652 1 0.0115524 0.594911 0.573303
295 1 0.245742 0.992038 0.755278
656 1 0.175699 0.574523 0.589327
660 1 0.31991 0.582558 0.588461
679 1 0.24289 0.674591 0.572124
749 1 0.173139 0.663329 0.653044
807 1 0.580911 0.50892 0.919549
683 1 0.417519 0.662347 0.583035
741 1 0.844898 0.512367 0.672156
375 1 0.586886 0.992844 0.912821
730 1 0.386166 0.57193 0.664929
739 1 0.755116 0.505533 0.753557
733 1 0.496121 0.512328 0.67056
446 1 0.591116 0.57766 0.99905
664 1 0.504184 0.583877 0.587425
668 1 0.663749 0.601066 0.573718
687 1 0.564261 0.669136 0.59132
383 1 0.918802 0.998236 0.913941
809 1 0.658063 0.51031 0.838632
307 1 0.739019 0.998469 0.746195
863 1 0.921547 0.827135 0.92589
239 1 0.912788 0.981942 0.584512
672 1 0.846047 0.592381 0.568864
695 1 0.927197 0.673361 0.576196
742 1 0.924682 0.593075 0.658524
765 1 0.847074 0.656943 0.654423
671 1 0.935615 0.516964 0.576992
676 1 1.00121 0.748188 0.603943
699 1 0.0753323 0.824507 0.60317
746 1 0.0886836 0.743899 0.671767
299 1 0.419873 0.990747 0.749555
219 1 0.0873967 0.997539 0.605625
680 1 0.164691 0.754727 0.595135
703 1 0.23513 0.844776 0.591721
750 1 0.243759 0.761825 0.668123
737 1 0.683364 0.512411 0.674635
367 1 0.254133 0.99371 0.930754
684 1 0.321919 0.764196 0.581663
777 1 0.337432 0.841158 0.666503
663 1 0.599031 0.515331 0.580795
757 1 0.491589 0.661094 0.673917
688 1 0.484011 0.776723 0.560243
692 1 0.656492 0.730408 0.579085
490 1 0.422025 0.902731 0.987824
711 1 0.581645 0.828409 0.581279
758 1 0.584553 0.740429 0.675529
691 1 0.750883 0.67279 0.566486
715 1 0.748671 0.824467 0.596475
698 1 0.0694673 0.909982 0.515144
696 1 0.836805 0.744897 0.576738
766 1 0.913081 0.747791 0.6696
498 1 0.753761 0.928162 0.992736
704 1 0.150184 0.922433 0.593053
770 1 0.0698418 0.917461 0.680657
769 1 0.00563242 0.82441 0.684736
700 1 0.989582 0.896765 0.594065
301 1 0.510702 0.990575 0.657495
859 1 0.743188 0.828204 0.928329
860 1 0.681448 0.915658 0.901529
305 1 0.670602 0.997122 0.661357
707 1 0.399797 0.841875 0.583242
708 1 0.331012 0.912614 0.576904
712 1 0.500281 0.907532 0.566342
815 1 0.932088 0.508365 0.921276
857 1 0.670027 0.817638 0.834974
227 1 0.415668 0.984499 0.580632
716 1 0.666689 0.914995 0.598675
785 1 0.666078 0.834757 0.664236
864 1 0.828823 0.917172 0.911052
789 1 0.834515 0.819043 0.666568
720 1 0.841454 0.883403 0.579014
719 1 0.916374 0.815849 0.589026
790 1 0.914681 0.907997 0.669062
667 1 0.750849 0.526451 0.564281
722 1 0.0656081 0.589942 0.660575
745 1 0.997695 0.669582 0.689119
856 1 0.506197 0.904545 0.897477
724 1 0.995675 0.577355 0.75841
747 1 0.0891853 0.660746 0.751397
726 1 0.25608 0.580847 0.668443
728 1 0.18335 0.570359 0.747698
751 1 0.248979 0.653727 0.744438
855 1 0.597726 0.841387 0.912518
753 1 0.333865 0.664532 0.65491
732 1 0.324917 0.564278 0.750422
736 1 0.481996 0.583589 0.752257
734 1 0.59932 0.583646 0.656779
849 1 0.324654 0.844767 0.839211
291 1 0.0781153 0.996154 0.759136
740 1 0.683765 0.594834 0.7518
761 1 0.672955 0.667981 0.672385
806 1 0.593849 0.592465 0.838487
738 1 0.75191 0.586849 0.655836
744 1 0.850292 0.576108 0.77662
810 1 0.76156 0.576333 0.841332
763 1 0.766082 0.659114 0.744129
852 1 0.333123 0.917683 0.926529
818 1 0.0955764 0.734414 0.827474
748 1 1.00119 0.744961 0.759887
752 1 0.172848 0.74276 0.750359
822 1 0.254919 0.745618 0.839719
756 1 0.324784 0.744014 0.739707
775 1 0.237381 0.823908 0.763475
754 1 0.406601 0.753439 0.654725
755 1 0.404146 0.661476 0.744739
779 1 0.419086 0.839081 0.741274
781 1 0.497585 0.82595 0.660018
760 1 0.483024 0.754226 0.739758
759 1 0.571902 0.650084 0.746507
764 1 0.658248 0.728432 0.767052
783 1 0.579727 0.827161 0.736288
762 1 0.746708 0.739371 0.671202
834 1 0.749655 0.745785 0.840291
767 1 0.911019 0.667208 0.759235
768 1 0.830996 0.755281 0.766045
838 1 0.90554 0.754079 0.844395
837 1 0.828202 0.661145 0.839829
681 1 0.328213 0.663401 0.514677
773 1 0.144057 0.830296 0.686651
771 1 0.0747286 0.835512 0.772213
841 1 0.990101 0.835896 0.848675
776 1 0.169214 0.912851 0.764408
845 1 0.165723 0.825028 0.843638
365 1 0.16691 0.993944 0.843162
774 1 0.239331 0.909195 0.680122
851 1 0.430555 0.824212 0.913036
780 1 0.337163 0.917464 0.75529
853 1 0.499496 0.815497 0.821642
850 1 0.410798 0.914465 0.832012
778 1 0.41356 0.917799 0.664856
784 1 0.513861 0.907077 0.739419
854 1 0.588975 0.926301 0.83426
782 1 0.578461 0.902197 0.655812
788 1 0.660494 0.912724 0.739405
847 1 0.257953 0.833993 0.917314
723 1 0.0895772 0.515805 0.749385
858 1 0.750864 0.912244 0.821081
786 1 0.758881 0.906919 0.675873
787 1 0.73821 0.829852 0.748542
792 1 0.836252 0.917688 0.756732
791 1 0.91644 0.831341 0.739361
861 1 0.830712 0.839759 0.852581
772 1 -0.00201703 0.908009 0.760133
862 1 0.90736 0.917941 0.833457
794 1 0.101067 0.593739 0.844524
848 1 0.149891 0.923558 0.924364
798 1 0.252417 0.575252 0.840522
800 1 0.16974 0.57365 0.927141
804 1 0.34344 0.569989 0.922245
828 1 0.33485 0.753262 0.911966
825 1 0.317007 0.667997 0.817725
802 1 0.408365 0.579185 0.839982
827 1 0.419461 0.674801 0.906275
808 1 0.494847 0.579121 0.907485
820 1 0.0105946 0.752439 0.923953
713 1 0.657134 0.818198 0.502708
369 1 0.336492 1.00049 0.844163
831 1 0.590435 0.666271 0.91854
833 1 0.679825 0.651809 0.856272
835 1 0.763946 0.665386 0.931441
812 1 0.681106 0.594483 0.950524
846 1 0.242744 0.914611 0.844158
836 1 0.658184 0.75658 0.921602
814 1 0.918715 0.595103 0.848046
817 1 0.00844498 0.663323 0.8312
816 1 0.839592 0.574353 0.915856
796 1 0.0103009 0.600034 0.913707
829 1 0.499091 0.663076 0.817056
839 1 0.911644 0.683175 0.929576
840 1 0.827383 0.746657 0.935332
842 1 0.0786397 0.928017 0.845265
819 1 0.0877985 0.662323 0.935767
843 1 0.0737506 0.838047 0.918802
235 1 0.745461 0.997604 0.585753
830 1 0.576352 0.746823 0.83137
821 1 0.180373 0.658412 0.833126
824 1 0.175098 0.741822 0.919193
823 1 0.259765 0.659291 0.908995
844 1 0.984532 0.926658 0.909682
832 1 0.512048 0.754393 0.913124
826 1 0.399042 0.749463 0.819128
735 1 0.580584 0.513486 0.738437
658 1 0.422172 0.572192 0.501285
293 1 0.171676 0.996848 0.674371
231 1 0.586663 0.988539 0.580824
651 1 0.0820444 0.507386 0.582787
289 1 0.996361 0.999442 0.680016
309 1 0.830866 0.987296 0.651729
494 1 0.592517 0.919579 0.990414
805 1 0.488418 0.510135 0.830885
493 1 0.50413 0.82775 0.99739
811 1 0.740919 0.504514 0.930811
470 1 0.584384 0.739442 0.997976
433 1 0.0129108 0.520717 0.981761
690 1 0.743858 0.762672 0.50662
465 1 0.328527 0.668141 0.9922
677 1 0.167877 0.667777 0.512682
217 1 -0.000429579 0.988258 0.51776
701 1 0.154955 0.840872 0.513597
237 1 0.809044 0.992615 0.50232
697 1 0.983674 0.831323 0.504999
458 1 0.0887095 0.753559 0.996843
650 1 0.0879075 0.5787 0.503961
466 1 0.41602 0.74961 0.995601
705 1 0.319281 0.836724 0.510813
678 1 0.246344 0.760066 0.506356
438 1 0.260055 0.575417 0.994787
462 1 0.245939 0.754668 0.993907
469 1 0.499033 0.675316 0.978485
674 1 0.0753245 0.74866 0.501382
225 1 0.338681 0.995618 0.502306
702 1 0.245416 0.916862 0.515457
669 1 0.853985 0.51027 0.502933
