ITEM: TIMESTEP
2900
ITEM: NUMBER OF ATOMS
864
ITEM: BOX BOUNDS pp pp pp
0.0000000000000000e+00 3.1559999999999999e+01
0.0000000000000000e+00 3.1559999999999999e+01
0.0000000000000000e+00 3.1559999999999999e+01
ITEM: ATOMS id type xs ys zs
8 1 0.165048 0.0849684 0.0655587
74 1 0.0783601 0.0773872 0.176661
161 1 0.676842 0.00282776 0.341412
17 1 0.670995 0.00584259 0.00852054
147 1 0.0896452 0.00419601 0.412721
31 1 0.260995 0.166691 0.080277
78 1 0.2367 0.0792689 0.159536
214 1 0.913557 0.414688 0.336365
515 1 0.406709 0.505355 0.249862
12 1 0.323461 0.0774148 0.0888885
35 1 0.418284 0.158344 0.0786858
16 1 0.506418 0.0813124 0.0803533
109 1 0.502179 0.15397 0.165259
91 1 0.759616 0.00254905 0.254427
665 1 0.670306 0.504528 0.504033
519 1 0.586845 0.495926 0.267074
20 1 0.662998 0.0860694 0.0933638
39 1 0.588901 0.168894 0.0775806
159 1 0.583439 -0.00305918 0.429097
10 1 0.424105 0.0617349 -0.00508971
90 1 0.752204 0.0866191 0.154405
521 1 0.668151 0.484862 0.16413
270 1 0.242007 0.428206 0.492387
3 1 0.0842674 -0.00386341 0.0727146
4 1 -0.00265273 0.0719449 0.0792655
24 1 0.835233 0.0774318 0.0844632
47 1 0.931266 0.150285 0.0871172
42 1 0.748462 0.264782 -0.00111624
27 1 0.0744911 0.14251 0.083706
28 1 0.0077875 0.243922 0.0813795
32 1 0.163256 0.239375 0.0918021
513 1 0.342988 0.501287 0.169932
441 1 0.330984 0.513506 -0.00357324
69 1 0.817956 0.353358 -0.0133039
527 1 0.905099 0.49929 0.24099
36 1 0.339521 0.257166 0.0947124
40 1 0.496272 0.242731 0.0852969
523 1 0.753969 0.50154 0.256175
106 1 0.421498 0.246551 0.171304
110 1 0.584549 0.240859 0.16797
113 1 0.661818 0.164181 0.166171
23 1 0.910304 0.00628162 0.0876948
43 1 0.760788 0.17057 0.0894764
117 1 0.846798 0.158297 0.167649
44 1 0.670143 0.245692 0.0954984
141 1 0.834958 0.34127 0.176042
114 1 0.749643 0.241954 0.173719
165 1 0.838435 0.00566545 0.328745
48 1 0.818534 0.259262 0.0844995
118 1 0.904057 0.252436 0.161527
71 1 0.892255 0.341918 0.080645
14 1 0.59619 0.0864221 -0.000280566
443 1 0.429186 0.493898 0.0847118
51 1 0.107561 0.326277 0.0778163
56 1 0.160421 0.433729 0.0868405
52 1 0.994266 0.409164 0.0733748
274 1 0.411618 0.421634 0.496048
89 1 0.68491 -0.00480135 0.165725
167 1 0.916914 0.0080507 0.417288
55 1 0.258609 0.336808 0.0841594
213 1 0.848964 0.337524 0.33789
79 1 0.259438 -0.0147797 0.252883
282 1 0.742596 0.428301 0.502648
41 1 0.674479 0.153693 0.0154714
591 1 0.580116 0.502476 0.411888
59 1 0.408091 0.341186 0.0971417
60 1 0.329873 0.420879 0.0842676
130 1 0.415641 0.419926 0.17627
129 1 0.322595 0.340585 0.164565
216 1 0.841652 0.421145 0.419598
133 1 0.505868 0.319701 0.158816
211 1 0.730236 0.329228 0.418641
63 1 0.598376 0.338549 0.0773627
64 1 0.506302 0.410168 0.092475
134 1 0.582894 0.410693 0.174167
67 1 0.745679 0.347441 0.0783156
68 1 0.659855 0.423002 0.0770363
210 1 0.74773 0.414492 0.344894
179 1 0.399202 0.151641 0.418313
72 1 0.824268 0.417461 0.101504
447 1 0.577703 0.491501 0.0715829
183 1 0.589649 0.158643 0.419203
146 1 0.0903394 0.0931708 0.335334
173 1 0.177189 0.162171 0.340167
206 1 0.575163 0.403068 0.341008
207 1 0.572422 0.325126 0.411129
80 1 0.170111 0.0802046 0.255065
150 1 0.251071 0.0716634 0.338856
82 1 0.42019 0.0681522 0.154341
105 1 0.338407 0.152419 0.167446
84 1 0.312485 0.0784502 0.257156
86 1 0.591964 0.0790059 0.176041
88 1 0.489406 0.080897 0.26844
158 1 0.578613 0.0785067 0.328351
212 1 0.663486 0.431695 0.417442
92 1 0.682161 0.0796136 0.243504
185 1 0.673906 0.151781 0.343818
96 1 0.835956 0.0775193 0.239029
97 1 1.00966 0.173021 0.158174
76 1 -0.00258966 0.085174 0.254817
94 1 0.929544 0.0794139 0.166111
169 1 0.000721503 0.165411 0.329071
166 1 0.915802 0.109909 0.342389
93 1 0.826101 0.00380772 0.16766
98 1 0.0845985 0.244011 0.164649
99 1 0.0734216 0.164406 0.25232
104 1 0.149626 0.235703 0.259817
101 1 0.152717 0.158829 0.172753
102 1 0.254812 0.247656 0.164356
103 1 0.252109 0.16546 0.2426
125 1 0.164945 0.349706 0.162139
108 1 0.324096 0.264153 0.244694
107 1 0.414587 0.166619 0.244515
131 1 0.412357 0.328756 0.243237
205 1 0.493453 0.316552 0.333264
111 1 0.576748 0.15856 0.252109
112 1 0.49903 0.238144 0.25463
135 1 0.591722 0.319536 0.2406
182 1 0.591092 0.238825 0.319793
115 1 0.749783 0.164072 0.258019
116 1 0.679018 0.236385 0.267183
120 1 0.831647 0.270069 0.248012
189 1 0.829838 0.188784 0.33643
119 1 0.903424 0.177919 0.252617
100 1 0.991587 0.256183 0.233172
143 1 0.924646 0.336767 0.242017
190 1 0.940696 0.257011 0.330465
193 1 0.00674832 0.347872 0.313339
121 1 0.0134665 0.337067 0.147644
123 1 0.0903343 0.321456 0.245102
122 1 0.0818746 0.426061 0.160163
194 1 0.077254 0.427218 0.313271
188 1 0.667596 0.238644 0.420021
127 1 0.230178 0.333132 0.256741
126 1 0.245716 0.41507 0.160369
128 1 0.156498 0.424282 0.23933
181 1 0.48625 0.158708 0.343357
132 1 0.325123 0.405866 0.24981
209 1 0.663597 0.329222 0.338967
136 1 0.505577 0.389697 0.242938
137 1 0.683045 0.329413 0.169862
138 1 0.7411 0.413632 0.186047
139 1 0.745335 0.327487 0.258152
140 1 0.659955 0.397476 0.252785
144 1 0.838272 0.415002 0.246622
177 1 0.329991 0.158247 0.333099
215 1 0.925352 0.330381 0.420815
142 1 0.918018 0.414126 0.165363
124 1 -0.000709441 0.433922 0.232085
195 1 0.0848863 0.349271 0.424494
196 1 -0.00864394 0.410644 0.420854
148 1 -0.00559061 0.104607 0.418476
171 1 0.0966268 0.161986 0.427413
202 1 0.415547 0.405976 0.320395
152 1 0.180687 0.0867805 0.430019
175 1 0.258849 0.159176 0.416353
187 1 0.749652 0.166174 0.423399
186 1 0.755669 0.26374 0.338915
208 1 0.4879 0.406866 0.410001
154 1 0.40992 0.0693083 0.346596
156 1 0.327329 0.0818203 0.422617
192 1 0.824118 0.262387 0.431056
160 1 0.50969 0.0894591 0.416844
164 1 0.674636 0.0774167 0.426126
198 1 0.235304 0.413266 0.323875
200 1 0.160115 0.423799 0.403443
162 1 0.75486 0.0880346 0.350479
203 1 0.412173 0.335796 0.409832
204 1 0.31947 0.422708 0.408298
168 1 0.844526 0.110348 0.441553
191 1 0.92185 0.190984 0.432126
170 1 0.0878124 0.263474 0.344575
176 1 0.165719 0.259171 0.410973
172 1 0.00486788 0.254531 0.419318
184 1 0.502374 0.250321 0.421144
174 1 0.246376 0.253847 0.330601
180 1 0.33291 0.244787 0.421106
197 1 0.154496 0.334648 0.327938
199 1 0.235016 0.344067 0.412272
201 1 0.323771 0.332783 0.335958
178 1 0.412307 0.243804 0.336164
145 1 0.00532996 0.000290818 0.340051
517 1 0.508678 0.497252 0.179492
75 1 0.0896412 0.00883103 0.274588
163 1 0.750341 -0.00807577 0.421368
278 1 0.572156 0.420328 0.484411
155 1 0.418893 0.00141933 0.420779
599 1 0.923088 0.500314 0.417737
587 1 0.414109 0.506192 0.411719
61 1 0.50765 0.337931 0.0100732
273 1 0.323257 0.336637 0.491441
18 1 0.757778 0.0900881 0.00172589
58 1 0.418994 0.416885 0.00669171
253 1 0.492554 0.169883 0.494753
281 1 0.654235 0.331454 0.494369
226 1 0.416234 0.089171 0.501916
45 1 0.847258 0.181431 0.014534
46 1 0.919761 0.264639 0.0149108
285 1 0.832385 0.344842 0.49996
38 1 0.589792 0.253731 -0.000824523
661 1 0.499018 0.498462 0.493621
254 1 0.594204 0.240224 0.500981
246 1 0.247039 0.261837 0.486569
233 1 0.664447 0.00215267 0.509019
250 1 0.423757 0.256433 0.500691
217 1 0.000482791 0.0105217 0.495871
220 1 0.00652326 0.0848248 0.588659
245 1 0.184963 0.178127 0.49691
243 1 0.0961786 0.164678 0.58269
224 1 0.16437 0.0601978 0.582247
247 1 0.250931 0.159437 0.595513
731 1 0.406664 0.499156 0.765104
432 1 0.827156 0.438407 0.921682
1 1 0.981625 0.00177693 0.986717
228 1 0.330872 0.0750769 0.589749
232 1 0.505107 0.0743761 0.569646
286 1 0.914541 0.416284 0.492623
735 1 0.579544 0.490353 0.75726
236 1 0.656905 0.0932648 0.58771
255 1 0.570596 0.174913 0.583134
238 1 0.908049 0.0830885 0.509621
266 1 0.0886988 0.432983 0.507092
430 1 0.905035 0.414466 0.834634
241 1 1.00578 0.173691 0.510451
329 1 0.656726 0.167254 0.661474
306 1 0.743603 0.0882398 0.676109
375 1 0.587522 -0.00112102 0.90249
807 1 0.570262 0.50913 0.918937
66 1 0.743278 0.42565 0.998853
240 1 0.832148 0.0661436 0.593453
263 1 0.917462 0.160437 0.577945
310 1 0.918744 0.0695492 0.663343
70 1 0.891133 0.423664 1.00378
25 1 0.995317 0.15705 0.998714
311 1 0.897539 -0.00347269 0.773666
314 1 0.0798457 0.238639 0.659052
248 1 0.176029 0.261843 0.572954
244 1 0.994144 0.270167 0.584829
267 1 0.0798518 0.325363 0.577264
218 1 0.092538 0.0858346 0.503094
318 1 0.238999 0.244727 0.669199
739 1 0.753799 0.501415 0.73286
271 1 0.248316 0.340807 0.598704
671 1 0.914952 0.487146 0.58609
251 1 0.397783 0.154951 0.595224
321 1 0.325203 0.162387 0.675718
252 1 0.332398 0.278261 0.575915
256 1 0.477753 0.233483 0.586463
377 1 0.663225 -0.0175477 0.837624
260 1 0.658242 0.267053 0.579745
26 1 0.0825456 0.246825 0.995396
6 1 0.246604 0.077103 0.999414
259 1 0.748092 0.161287 0.593653
357 1 0.814804 0.33949 0.664282
805 1 0.497274 0.506041 0.835202
264 1 0.822701 0.268061 0.583591
334 1 0.909879 0.268762 0.672334
337 1 0.00278214 0.336288 0.668131
427 1 0.749076 0.346693 0.909488
34 1 0.415424 0.233797 0.991597
268 1 1.01292 0.42783 0.582476
338 1 0.0798563 0.437146 0.658245
230 1 0.585558 0.100419 0.50365
743 1 0.92213 0.489834 0.762259
272 1 0.177239 0.435812 0.586306
341 1 0.154002 0.33574 0.662278
342 1 0.249353 0.426448 0.666093
423 1 0.579098 0.34888 0.921946
388 1 0.97447 0.241381 0.905492
276 1 0.332955 0.422157 0.582069
275 1 0.423644 0.341453 0.579821
280 1 0.494357 0.415657 0.572487
30 1 0.256425 0.241164 1.01236
279 1 0.569689 0.316964 0.595823
406 1 0.90998 0.249337 0.824251
265 1 0.00599915 0.340933 0.503374
412 1 0.986109 0.411913 0.912438
283 1 0.746768 0.344805 0.575091
284 1 0.651178 0.398754 0.577941
288 1 0.833136 0.413151 0.579802
287 1 0.918451 0.339809 0.577613
416 1 0.163206 0.412605 0.926342
358 1 0.924663 0.407424 0.679713
277 1 0.508541 0.323884 0.504516
410 1 0.095733 0.409918 0.834355
290 1 0.0747946 0.087661 0.668802
296 1 0.152794 0.0732262 0.742669
292 1 0.985006 0.0654365 0.743428
313 1 0.992834 0.175062 0.651326
315 1 0.0851183 0.16477 0.751884
317 1 0.164719 0.157008 0.665112
294 1 0.23275 0.0557307 0.673605
319 1 0.242202 0.148362 0.751363
366 1 0.246029 0.0695462 0.836493
298 1 0.421891 0.0821613 0.679397
300 1 0.328371 0.0829536 0.749668
323 1 0.412644 0.14798 0.759404
305 1 0.675704 0.00243192 0.680417
302 1 0.576996 0.0716737 0.676915
304 1 0.500679 0.0744158 0.759796
374 1 0.5895 0.0788351 0.835728
327 1 0.587871 0.158129 0.753022
308 1 0.678428 0.0763173 0.758896
312 1 0.837781 0.0975481 0.742005
331 1 0.738605 0.174707 0.734524
426 1 0.755091 0.424881 0.823562
382 1 0.909392 0.0905385 0.824344
339 1 0.0834675 0.334348 0.750039
316 1 0.00424251 0.257683 0.754336
320 1 0.167368 0.241177 0.743333
324 1 0.319303 0.239815 0.751696
343 1 0.243752 0.318042 0.765648
345 1 0.320884 0.318371 0.686292
322 1 0.413553 0.233511 0.675935
325 1 0.512399 0.151983 0.668492
328 1 0.490193 0.235629 0.749967
347 1 0.410851 0.318399 0.776478
326 1 0.570243 0.247386 0.678694
397 1 0.506073 0.158169 0.827016
332 1 0.663362 0.244049 0.748811
398 1 0.574875 0.256709 0.834256
333 1 0.840918 0.162928 0.660745
330 1 0.742448 0.262988 0.655872
402 1 0.743958 0.262779 0.830372
355 1 0.74511 0.338358 0.752495
336 1 0.835628 0.256783 0.743182
335 1 0.920399 0.174342 0.737569
344 1 0.158964 0.429486 0.740761
429 1 0.836612 0.326089 0.829543
340 1 0.0089042 0.415646 0.745297
425 1 0.651235 0.339323 0.847944
348 1 0.326458 0.420385 0.750839
422 1 0.577906 0.417747 0.842033
346 1 0.413175 0.407024 0.665453
352 1 0.480974 0.419183 0.761674
363 1 0.0870232 -0.00167937 0.90643
733 1 0.49898 0.498898 0.66656
349 1 0.483569 0.31627 0.68159
350 1 0.578313 0.406672 0.672626
351 1 0.577507 0.326415 0.751345
353 1 0.660776 0.333595 0.663979
431 1 0.907117 0.332663 0.924625
356 1 0.661998 0.416612 0.75423
361 1 0.992296 -0.0090382 0.831903
354 1 0.728244 0.417407 0.656936
428 1 0.665386 0.424696 0.903766
360 1 0.825027 0.409521 0.741951
359 1 0.928488 0.332581 0.759906
419 1 0.422013 0.326666 0.919501
424 1 0.493568 0.424947 0.921011
387 1 0.0762333 0.172315 0.901507
362 1 0.0713375 0.0702756 0.826452
364 1 0.989026 0.0933806 0.902973
389 1 0.167713 0.175159 0.842164
368 1 0.167723 0.0822119 0.917497
391 1 0.252953 0.165689 0.918037
235 1 0.748647 0.00333199 0.592746
393 1 0.333955 0.158671 0.835907
370 1 0.415374 0.0700878 0.838842
372 1 0.335471 0.0762245 0.926548
395 1 0.417872 0.143541 0.921593
418 1 0.412258 0.401293 0.845883
399 1 0.594665 0.153452 0.909195
376 1 0.515453 0.0773392 0.91799
408 1 0.826257 0.243562 0.914017
404 1 0.672509 0.233807 0.930946
401 1 0.668002 0.156116 0.833854
380 1 0.669333 0.0853876 0.92376
378 1 0.76317 0.087397 0.8398
384 1 0.823631 0.0725836 0.916232
403 1 0.751094 0.166482 0.924541
421 1 0.501788 0.33546 0.834289
417 1 0.329855 0.329773 0.843193
420 1 0.330483 0.424225 0.927724
407 1 0.893219 0.157509 0.915544
385 1 -0.00484452 0.166107 0.823758
405 1 0.823103 0.174342 0.821778
415 1 0.257298 0.330451 0.927635
409 1 0.00338425 0.340744 0.832827
411 1 0.0749823 0.338048 0.924452
386 1 0.0884164 0.258161 0.830334
413 1 0.165322 0.332972 0.840814
392 1 0.169274 0.258445 0.913909
390 1 0.256155 0.241748 0.840551
396 1 0.33723 0.255101 0.92515
394 1 0.426429 0.237202 0.841321
414 1 0.245313 0.418125 0.836059
400 1 0.49953 0.256322 0.913923
299 1 0.410427 -0.0063738 0.762066
242 1 0.0863139 0.244956 0.496677
53 1 0.175531 0.322782 1.00013
723 1 0.0721434 0.507661 0.74337
729 1 0.342589 0.501064 0.663458
33 1 0.337261 0.154109 1.00488
50 1 0.08685 0.405055 1.00343
29 1 0.155907 0.169139 0.987127
49 1 -0.0016244 0.336085 0.999238
373 1 0.5036 -0.0101461 0.833802
815 1 0.924806 0.506225 0.914965
54 1 0.246044 0.415653 1.00058
262 1 0.908672 0.245893 0.525978
57 1 0.349614 0.320823 1.00642
261 1 0.822032 0.182417 0.512195
258 1 0.741984 0.258733 0.505191
221 1 0.17174 -0.00689131 0.500438
234 1 0.756687 0.086437 0.506746
65 1 0.666801 0.342017 0.980333
22 1 0.908509 0.0791866 0.997807
2 1 0.0751191 0.0823943 0.990594
249 1 0.309695 0.18697 0.517804
257 1 0.67857 0.161838 0.510576
269 1 0.1786 0.348216 0.510731
222 1 0.247314 0.0810532 0.524285
37 1 0.502321 0.169947 0.982976
62 1 0.5816 0.416794 0.998373
436 1 0.00420049 0.589083 0.0791579
440 1 0.172571 0.582548 0.0788967
465 1 0.344549 0.669701 0.00167137
506 1 0.0881664 0.587479 0.16077
463 1 0.265979 0.677948 0.0780253
444 1 0.337073 0.582752 0.0769224
448 1 0.503055 0.570911 0.0780289
9 1 0.323983 1.00687 0.00342082
514 1 0.432047 0.574506 0.164272
458 1 0.0959223 0.759698 -0.00499542
452 1 0.654045 0.570755 0.0769023
545 1 0.650909 0.651998 0.154185
518 1 0.575064 0.567374 0.181885
628 1 -0.00578225 0.917632 0.420486
648 1 0.826153 0.914827 0.40874
456 1 0.833631 0.595249 0.0926253
475 1 0.743685 0.661351 0.0883844
549 1 0.822235 0.685832 0.160371
522 1 0.742262 0.582892 0.163321
529 1 0.999573 0.665929 0.16452
479 1 0.934087 0.656899 0.0732601
526 1 0.907135 0.602517 0.171893
459 1 0.0867379 0.660971 0.0822552
483 1 0.0811176 0.824221 0.0813366
530 1 0.0820183 0.744808 0.152993
537 1 0.34653 0.663693 0.149151
464 1 0.161965 0.749614 0.077593
468 1 0.330239 0.76736 0.0848717
467 1 0.438822 0.665645 0.0851769
491 1 0.425995 0.82777 0.0920945
538 1 0.430847 0.755554 0.167936
472 1 0.506304 0.760939 0.0677332
541 1 0.507667 0.662331 0.176525
471 1 0.559968 0.666301 0.0930494
542 1 0.579016 0.760849 0.172327
476 1 0.658044 0.746182 0.0914786
495 1 0.588215 0.836534 0.0940338
480 1 0.852485 0.750261 0.0863428
460 1 0.994482 0.761271 0.0747072
550 1 0.930017 0.741461 0.16292
503 1 0.913525 0.831099 0.0841655
488 1 0.174895 0.925644 0.0669578
87 1 0.58613 0.993509 0.258352
487 1 0.242866 0.833683 0.0886494
73 1 0.00975201 0.994557 0.16522
492 1 0.336376 0.923311 0.0902223
561 1 0.324865 0.838456 0.166783
565 1 0.502958 0.846717 0.175288
647 1 0.92682 0.837643 0.422297
81 1 0.327921 1.01136 0.169655
435 1 0.0691914 0.49815 0.0718682
11 1 0.424514 0.99348 0.0895201
496 1 0.515213 0.917773 0.0879413
451 1 0.751793 0.498254 0.0833739
500 1 0.668479 0.907949 0.0921401
499 1 0.757888 0.833597 0.0878532
504 1 0.829981 0.917163 0.0756314
643 1 0.745752 0.84192 0.40729
644 1 0.666802 0.91237 0.408068
484 1 0.989428 0.911662 0.0710633
553 1 1.00133 0.84669 0.161269
670 1 0.910067 0.588425 0.483999
533 1 0.176109 0.675541 0.158426
85 1 0.507822 1.00324 0.176045
531 1 0.0907647 0.666518 0.234062
508 1 0.9987 0.586146 0.243929
601 1 -0.00835476 0.679205 0.34057
510 1 0.267374 0.584867 0.155588
512 1 0.17204 0.588048 0.235899
605 1 0.163906 0.666234 0.329746
582 1 0.264455 0.589623 0.325393
516 1 0.348 0.600674 0.243095
586 1 0.418194 0.586059 0.327673
520 1 0.498048 0.568459 0.257758
507 1 0.0802581 0.507416 0.243595
613 1 0.517294 0.679403 0.329153
509 1 0.162281 0.513054 0.163294
577 1 0.998405 0.496182 0.319892
524 1 0.662392 0.572623 0.247644
617 1 0.662888 0.657401 0.330115
474 1 0.751287 0.73833 0.015126
547 1 0.739296 0.669162 0.244984
505 1 1.00465 0.515412 0.155924
528 1 0.829329 0.590246 0.242513
598 1 0.91163 0.594852 0.342438
640 1 0.508366 0.909714 0.430832
557 1 0.163553 0.825642 0.162841
532 1 1.00491 0.736526 0.25465
555 1 0.0697379 0.814163 0.237682
536 1 0.166124 0.744954 0.254602
629 1 0.183693 0.827308 0.318434
534 1 0.251585 0.763305 0.166804
535 1 0.25605 0.65508 0.235395
609 1 0.336845 0.674537 0.328987
559 1 0.250529 0.828244 0.23924
633 1 0.317772 0.821822 0.320266
539 1 0.426137 0.681957 0.239771
540 1 0.329316 0.745492 0.229373
544 1 0.508125 0.762023 0.250509
563 1 0.41131 0.827562 0.240921
543 1 0.590615 0.669926 0.247166
567 1 0.583209 0.843498 0.265161
548 1 0.65456 0.749651 0.257784
546 1 0.736674 0.7496 0.173128
552 1 0.843766 0.765825 0.253816
621 1 0.829916 0.669178 0.322535
551 1 0.913826 0.67574 0.263237
622 1 0.922346 0.757885 0.341367
575 1 0.928729 0.844649 0.256482
554 1 0.0870948 0.916817 0.159202
157 1 0.492515 0.997939 0.347938
560 1 0.138783 0.898719 0.256503
626 1 0.100581 0.920063 0.34827
641 1 0.656762 0.85036 0.327857
630 1 0.254459 0.912899 0.336668
558 1 0.241657 0.915977 0.156591
562 1 0.414546 0.918394 0.179894
581 1 0.179106 0.520531 0.328371
639 1 0.586662 0.828154 0.418802
564 1 0.324096 0.908841 0.255174
7 1 0.249427 1.00411 0.0731913
638 1 0.572415 0.918394 0.342266
566 1 0.594887 0.923742 0.174555
569 1 0.661601 0.833125 0.176156
568 1 0.504796 0.929033 0.261885
572 1 0.683038 0.926274 0.252707
571 1 0.750015 0.831555 0.276372
642 1 0.750989 0.922537 0.333812
573 1 0.839113 0.838909 0.168099
570 1 0.764144 0.909359 0.177003
576 1 0.84141 0.90506 0.262894
646 1 0.924404 0.930059 0.344959
229 1 0.514589 0.997267 0.499713
556 1 0.0164917 0.919103 0.259367
625 1 0.0127695 0.841424 0.338912
574 1 0.912652 0.931131 0.167084
77 1 0.170105 0.997912 0.186393
636 1 0.345791 0.913788 0.422196
579 1 0.0747891 0.501822 0.413029
578 1 0.0681163 0.585875 0.330903
580 1 -0.0102598 0.582512 0.422415
584 1 0.172522 0.580796 0.413067
634 1 0.405599 0.89703 0.325505
588 1 0.346657 0.600589 0.407983
632 1 0.194152 0.901686 0.426749
662 1 0.577962 0.57293 0.501281
592 1 0.502802 0.591969 0.409117
631 1 0.257335 0.813735 0.411298
590 1 0.590279 0.5857 0.327339
596 1 0.661917 0.580861 0.407208
597 1 0.830611 0.490844 0.326975
594 1 0.756399 0.57579 0.337031
600 1 0.831282 0.591319 0.413845
585 1 0.342898 0.504641 0.328527
678 1 0.25748 0.738334 0.499591
602 1 0.090153 0.740594 0.348081
603 1 0.0827024 0.656452 0.416386
608 1 0.166676 0.733175 0.424855
604 1 1.00752 0.758639 0.432347
593 1 0.673386 0.492652 0.331677
606 1 0.248353 0.741627 0.329912
607 1 0.2427 0.668574 0.41004
612 1 0.337445 0.738988 0.417679
658 1 0.428732 0.580993 0.489957
583 1 0.251278 0.50813 0.418349
635 1 0.415522 0.824136 0.414883
610 1 0.416926 0.756711 0.319779
611 1 0.427696 0.668374 0.418948
616 1 0.505662 0.749442 0.416911
615 1 0.584797 0.655276 0.41205
614 1 0.580759 0.760506 0.331295
620 1 0.667006 0.763499 0.415732
637 1 0.503514 0.843309 0.343708
151 1 0.264983 0.992323 0.421718
618 1 0.742656 0.732489 0.32704
645 1 0.857337 0.837742 0.337803
619 1 0.738779 0.656577 0.412489
449 1 0.669846 0.490988 -0.0100119
624 1 0.819406 0.767166 0.418316
623 1 0.903206 0.694691 0.425866
15 1 0.58893 0.996264 0.0940773
627 1 0.0984135 0.821134 0.411893
153 1 0.33915 0.993607 0.354229
95 1 0.927893 0.999806 0.263318
595 1 0.750941 0.504288 0.422969
525 1 0.822824 0.501331 0.1683
450 1 0.742477 0.58835 -0.00487137
455 1 0.912299 0.516507 0.103432
701 1 0.177188 0.825058 0.49708
461 1 0.16838 0.67572 -0.00429872
511 1 0.261336 0.50885 0.249439
439 1 0.2429 0.499273 0.0707068
698 1 0.107315 0.912732 0.483473
83 1 0.413345 0.995918 0.261742
19 1 0.74912 0.996218 0.083858
149 1 0.176391 0.989003 0.33215
589 1 0.500655 0.472246 0.328263
693 1 0.813872 0.679333 0.500459
442 1 0.425476 0.588515 -0.00697654
497 1 0.665755 0.828878 0.0102809
689 1 0.6682 0.661213 0.506854
669 1 0.840208 0.488622 0.506774
713 1 0.666375 0.846112 0.499239
482 1 0.075068 0.924266 -0.0158435
686 1 0.588396 0.730471 0.486446
674 1 0.0884873 0.732052 0.506252
654 1 0.282619 0.589495 0.494966
681 1 0.351994 0.67217 0.50092
705 1 0.338664 0.835112 0.491775
473 1 0.645675 0.670771 0.0116714
485 1 0.176357 0.841183 -0.00550951
454 1 0.939911 0.568075 -0.00452047
237 1 0.823762 0.997168 0.498395
21 1 0.849291 0.995427 -0.00426926
722 1 0.0916091 0.586496 0.663427
675 1 0.0879794 0.663649 0.589684
659 1 0.406819 0.500696 0.57521
656 1 0.176356 0.592827 0.585194
679 1 0.264627 0.666224 0.581134
801 1 0.331607 0.475438 0.837545
861 1 0.829297 0.837008 0.830941
660 1 0.34624 0.601826 0.58154
793 1 1.00775 0.491517 0.835356
683 1 0.442342 0.657662 0.57436
730 1 0.418228 0.576848 0.669624
694 1 0.910341 0.752923 0.517689
664 1 0.512171 0.571775 0.591165
737 1 0.669177 0.502256 0.666046
734 1 0.576731 0.580174 0.671587
841 1 0.994758 0.842269 0.826968
668 1 0.665202 0.57411 0.584515
231 1 0.59156 1.00904 0.591836
691 1 0.74636 0.667559 0.59181
371 1 0.425456 0.994196 0.915179
811 1 0.747454 0.492715 0.907108
864 1 0.822065 0.904586 0.931245
652 1 0.981457 0.588534 0.586605
672 1 0.84458 0.595636 0.569402
695 1 0.915167 0.671484 0.591345
676 1 -0.0006781 0.753679 0.577857
680 1 0.174361 0.745958 0.589337
749 1 0.172344 0.672808 0.659517
489 1 0.340904 0.83964 0.998949
684 1 0.355508 0.760868 0.568917
753 1 0.340123 0.675507 0.660062
777 1 0.342315 0.831808 0.664266
718 1 0.915649 0.926653 0.483662
498 1 0.734778 0.915791 0.996863
757 1 0.487145 0.65549 0.667232
707 1 0.430716 0.831176 0.590981
687 1 0.578924 0.655091 0.601278
688 1 0.515867 0.748902 0.574931
702 1 0.274055 0.916822 0.504723
502 1 0.917805 0.911543 0.980069
692 1 0.660163 0.740254 0.576935
696 1 0.820259 0.776216 0.568458
762 1 0.738582 0.760586 0.66395
765 1 0.824259 0.681526 0.65838
766 1 0.90688 0.760781 0.646473
725 1 0.177694 0.52287 0.674181
699 1 0.0920652 0.829202 0.567496
700 1 0.996907 0.915261 0.581713
770 1 0.0652544 0.917781 0.658659
433 1 0.0118243 0.485113 0.988078
481 1 0.993668 0.831779 0.996859
703 1 0.260297 0.830887 0.575193
704 1 0.178552 0.914133 0.589709
773 1 0.146627 0.830853 0.656986
844 1 0.00168027 0.914358 0.909226
781 1 0.511782 0.828119 0.672706
717 1 0.836999 0.839811 0.482236
690 1 0.734286 0.762203 0.504184
797 1 0.176801 0.494701 0.814921
708 1 0.350535 0.914478 0.592691
501 1 0.837939 0.828675 0.999544
712 1 0.511575 0.920087 0.586337
711 1 0.587943 0.829586 0.578862
782 1 0.576472 0.906026 0.671188
715 1 0.735424 0.830853 0.586803
716 1 0.663347 0.92056 0.588091
714 1 0.748069 0.914143 0.487802
769 1 0.981129 0.844859 0.65736
719 1 0.91061 0.852568 0.578098
720 1 0.822135 0.918498 0.574583
790 1 0.907306 0.926305 0.674113
789 1 0.821887 0.832201 0.67171
809 1 0.662044 0.494867 0.827233
365 1 0.166186 0.984948 0.834772
747 1 0.0864798 0.673497 0.731946
728 1 0.169972 0.596887 0.744158
794 1 0.0769414 0.589112 0.827643
726 1 0.261291 0.596078 0.666071
732 1 0.339564 0.580431 0.745176
751 1 0.247686 0.680547 0.730619
798 1 0.253083 0.588537 0.813898
755 1 0.412721 0.655561 0.739658
736 1 0.504486 0.574608 0.748048
655 1 0.264248 0.522261 0.579238
829 1 0.501193 0.661456 0.838554
738 1 0.751553 0.593204 0.663246
740 1 0.663987 0.586246 0.756701
761 1 0.6694 0.662618 0.666604
810 1 0.746418 0.569062 0.827956
742 1 0.911577 0.581387 0.661378
295 1 0.25175 0.993224 0.756372
724 1 0.00634973 0.594431 0.737747
744 1 0.845808 0.577312 0.752335
837 1 0.847081 0.658204 0.824151
767 1 0.915987 0.686824 0.733374
814 1 0.931024 0.585619 0.82777
746 1 0.0848325 0.749411 0.640693
752 1 0.168945 0.750978 0.737646
818 1 0.0783103 0.76769 0.837724
750 1 0.251091 0.76032 0.665328
756 1 0.337394 0.749456 0.737646
775 1 0.254919 0.840923 0.75458
821 1 0.145767 0.685134 0.833864
849 1 0.336008 0.849049 0.839523
754 1 0.426112 0.741414 0.652352
779 1 0.412919 0.828254 0.74417
760 1 0.496211 0.730846 0.763579
826 1 0.409295 0.759836 0.827339
758 1 0.577384 0.742039 0.668042
759 1 0.571501 0.65377 0.761251
783 1 0.57833 0.827358 0.755131
830 1 0.580352 0.747911 0.832089
857 1 0.666911 0.836084 0.842445
833 1 0.664538 0.663103 0.82789
764 1 0.669269 0.760578 0.750149
763 1 0.741658 0.666512 0.741836
834 1 0.74721 0.764388 0.837411
745 1 1.00158 0.663661 0.660119
817 1 -0.00127029 0.681036 0.813573
768 1 0.8228 0.741824 0.744348
748 1 -0.0010813 0.755444 0.719596
838 1 0.916057 0.763808 0.813056
813 1 0.833459 0.505221 0.845395
771 1 0.0814637 0.844504 0.754649
856 1 0.50603 0.911074 0.91833
855 1 0.588941 0.82966 0.919388
774 1 0.2552 0.905817 0.667242
776 1 0.167495 0.89748 0.737236
778 1 0.426674 0.912836 0.662954
853 1 0.492909 0.82956 0.830937
780 1 0.330861 0.905913 0.754554
850 1 0.410439 0.91842 0.833397
799 1 0.251191 0.503939 0.911347
785 1 0.649228 0.826269 0.674873
784 1 0.509102 0.917448 0.757283
854 1 0.579187 0.911102 0.841873
786 1 0.744723 0.91792 0.661885
858 1 0.747753 0.899519 0.854723
787 1 0.744082 0.842301 0.750484
788 1 0.653832 0.918661 0.749815
860 1 0.668248 0.909204 0.920876
851 1 0.422718 0.829936 0.918059
791 1 0.911777 0.841348 0.743729
792 1 0.829692 0.909438 0.748397
862 1 0.9107 0.913155 0.835131
772 1 0.987332 0.913792 0.746571
381 1 0.822373 0.994797 0.837984
796 1 1.01413 0.590947 0.909889
819 1 0.0908214 0.674287 0.925406
227 1 0.418057 1.00968 0.588498
825 1 0.338708 0.652644 0.834344
800 1 0.152961 0.582296 0.900713
823 1 0.236841 0.66354 0.897342
804 1 0.334618 0.581048 0.913744
831 1 0.583402 0.671384 0.912657
307 1 0.74579 0.983315 0.768186
802 1 0.41679 0.58163 0.827393
808 1 0.506677 0.587321 0.918503
845 1 0.172599 0.844456 0.831305
806 1 0.58237 0.578501 0.831983
852 1 0.340613 0.920407 0.924963
490 1 0.419422 0.932277 1.01376
812 1 0.654584 0.571313 0.90465
835 1 0.738021 0.660139 0.898223
846 1 0.256569 0.925576 0.839058
863 1 0.904508 0.828125 0.906448
836 1 0.66162 0.747301 0.920267
843 1 0.0825826 0.835646 0.919538
816 1 0.825079 0.587913 0.907648
839 1 0.930831 0.669474 0.917994
859 1 0.734547 0.825846 0.935302
848 1 0.180399 0.916216 0.915179
842 1 0.0912801 0.911827 0.839346
824 1 0.169487 0.760981 0.90888
822 1 0.238862 0.75191 0.8275
840 1 0.838955 0.742803 0.911854
847 1 0.257657 0.831933 0.920099
827 1 0.412096 0.675691 0.901879
828 1 0.327666 0.743044 0.9148
832 1 0.493358 0.758854 0.90152
820 1 1.00464 0.755368 0.910606
741 1 0.84338 0.488505 0.673593
379 1 0.746917 0.994127 0.924951
727 1 0.262562 0.501428 0.740688
795 1 0.0938683 0.48955 0.910446
653 1 0.16723 0.524965 0.508306
293 1 0.146697 0.985369 0.670534
721 1 0.988993 0.503031 0.669865
289 1 0.99162 0.992828 0.662553
297 1 0.340756 0.989567 0.671815
434 1 0.0763798 0.587753 0.996078
673 1 0.996512 0.671836 0.50159
13 1 0.513739 0.999346 1.00634
291 1 0.0791116 0.979308 0.746749
469 1 0.504165 0.676551 0.993343
446 1 0.580294 0.58195 1.00878
219 1 0.0794469 0.994159 0.5842
649 1 0.987921 0.505476 0.50985
383 1 0.918029 1.01238 0.905353
303 1 0.590789 0.99922 0.762363
494 1 0.595576 0.926718 0.987937
493 1 0.492028 0.853866 1.00202
309 1 0.824249 1.00433 0.688546
223 1 0.259031 0.985023 0.583304
651 1 0.0838735 0.516598 0.581647
239 1 0.911067 0.978509 0.575549
667 1 0.768292 0.502772 0.581982
367 1 0.257859 0.999427 0.917762
453 1 0.825021 0.511178 0.990978
657 1 0.329361 0.487672 0.49167
301 1 0.499182 0.989103 0.67973
663 1 0.589831 0.482947 0.592217
369 1 0.343527 0.998215 0.842182
803 1 0.414099 0.509249 0.909198
5 1 0.172066 1.00213 0.983413
697 1 0.00681427 0.85036 0.497733
438 1 0.246966 0.599016 0.99372
478 1 0.919296 0.754447 0.98835
650 1 0.0745195 0.588096 0.510621
666 1 0.746188 0.578714 0.499861
677 1 0.167766 0.662041 0.515099
437 1 0.154719 0.504638 0.995891
709 1 0.513941 0.828632 0.500093
477 1 0.838057 0.661724 0.982749
685 1 0.503211 0.663239 0.492571
225 1 0.344161 1.00268 0.509096
466 1 0.424423 0.753561 0.99175
710 1 0.590628 0.911865 0.499009
457 1 0.00672837 0.678467 0.989114
486 1 0.265196 0.920241 1.01012
462 1 0.246531 0.759779 0.9952
706 1 0.421486 0.918819 0.505698
682 1 0.435522 0.756064 0.50053
470 1 0.584881 0.752408 1.00763
445 1 0.49867 0.496392 0.999352
