ITEM: TIMESTEP
4400
ITEM: NUMBER OF ATOMS
864
ITEM: BOX BOUNDS pp pp pp
0.0000000000000000e+00 3.1559999999999999e+01
0.0000000000000000e+00 3.1559999999999999e+01
0.0000000000000000e+00 3.1559999999999999e+01
ITEM: ATOMS id type xs ys zs
245 1 0.170415 0.186073 0.508697
74 1 0.0778527 0.0765608 0.165569
230 1 0.572946 0.0931486 0.483502
14 1 0.586083 0.0904143 0.00432105
597 1 0.841129 0.509645 0.340248
8 1 0.160432 0.0690384 0.0714422
12 1 0.346034 0.0972375 0.084318
149 1 0.171823 0.00142885 0.336916
41 1 0.667564 0.15497 -0.00646537
6 1 0.246671 0.0902777 0.00426899
35 1 0.405615 0.183701 0.089556
153 1 0.335475 0.00932471 0.343375
19 1 0.749966 0.00654403 0.0737517
16 1 0.483718 0.0781409 0.083561
39 1 0.574812 0.156389 0.0854217
20 1 0.658345 0.0916606 0.0816582
196 1 1.00271 0.422705 0.398798
113 1 0.666179 0.164103 0.179435
75 1 0.0965111 0.00153016 0.241767
507 1 0.0756599 0.494796 0.237008
4 1 1.00072 0.0786471 0.0800372
513 1 0.340297 0.505295 0.146192
24 1 0.833819 0.0760159 0.0721775
94 1 0.898591 0.0791573 0.173801
27 1 0.0707884 0.163409 0.0763755
32 1 0.168937 0.24116 0.0855776
31 1 0.243629 0.156193 0.0879105
36 1 0.318987 0.2411 0.075385
105 1 0.340342 0.164413 0.171855
161 1 0.663565 0.00566385 0.327225
17 1 0.666825 0.0144923 -0.00267635
59 1 0.416267 0.326502 0.0926524
133 1 0.504083 0.322676 0.158598
40 1 0.503106 0.257032 0.0708755
281 1 0.65187 0.327004 0.491325
110 1 0.583649 0.247057 0.172175
23 1 0.923618 -0.00314604 0.0782574
581 1 0.162493 0.496864 0.33008
44 1 0.677101 0.234049 0.0794569
43 1 0.762279 0.165855 0.0737281
242 1 0.0933397 0.258773 0.503079
85 1 0.477583 0.000312218 0.166412
47 1 0.910163 0.168441 0.0899226
28 1 0.991366 0.254035 0.0906977
48 1 0.843817 0.248122 0.077807
51 1 0.0718534 0.330106 0.0796474
121 1 0.995581 0.336461 0.16511
56 1 0.166464 0.424987 0.0840461
122 1 0.0740306 0.422985 0.163443
55 1 0.245469 0.342726 0.0917693
60 1 0.332952 0.409515 0.0784642
214 1 0.906087 0.412133 0.331951
25 1 0.997617 0.169959 0.00536352
64 1 0.51776 0.406798 0.0853522
455 1 0.91521 0.495157 0.0919278
2 1 0.0732378 0.0817259 -0.00403965
63 1 0.595605 0.316167 0.0926582
68 1 0.676055 0.41621 0.0945893
134 1 0.577227 0.415088 0.167695
151 1 0.249995 0.0165204 0.42327
67 1 0.749147 0.315151 0.094463
72 1 0.829056 0.415569 0.0979133
137 1 0.677502 0.331522 0.173728
71 1 0.911742 0.340101 0.0939594
52 1 -0.00386428 0.41232 0.0810531
141 1 0.823661 0.325333 0.169896
142 1 0.918945 0.421448 0.170968
101 1 0.154788 0.146728 0.155154
97 1 -0.0102644 0.152784 0.167359
76 1 -0.00399972 0.0822511 0.24761
169 1 -0.0131257 0.155176 0.345447
213 1 0.82381 0.338039 0.329656
78 1 0.270501 0.078217 0.176774
215 1 0.920413 0.333464 0.41273
80 1 0.159891 0.0825696 0.259727
150 1 0.250573 0.0836169 0.33143
84 1 0.328831 0.0805603 0.262536
210 1 0.743048 0.424691 0.334603
82 1 0.417448 0.0955902 0.171196
154 1 0.412486 0.0958506 0.327016
88 1 0.510454 0.0837331 0.235232
109 1 0.507125 0.172844 0.167567
107 1 0.411069 0.180152 0.261256
86 1 0.586928 0.0733289 0.157234
92 1 0.65421 0.0833807 0.250116
158 1 0.576204 0.0769765 0.341011
511 1 0.248406 0.491869 0.246398
90 1 0.749698 0.087024 0.167952
162 1 0.750243 0.0858269 0.327722
115 1 0.754368 0.161315 0.25681
447 1 0.59565 0.506386 0.0899236
96 1 0.837268 0.0868151 0.250721
119 1 0.914665 0.159596 0.25468
117 1 0.839406 0.183659 0.178238
98 1 0.0799366 0.237881 0.157183
99 1 0.0748526 0.154898 0.265273
123 1 0.0807647 0.329806 0.248809
104 1 0.154717 0.24302 0.228699
100 1 1.00535 0.251996 0.239788
129 1 0.331422 0.333862 0.154597
103 1 0.239051 0.154435 0.240963
102 1 0.246634 0.228835 0.174292
174 1 0.251439 0.254649 0.325858
197 1 0.168273 0.318775 0.326759
106 1 0.42833 0.2503 0.176963
108 1 0.324614 0.25168 0.247288
131 1 0.423978 0.330971 0.24467
111 1 0.583946 0.167881 0.254096
112 1 0.506554 0.254608 0.270285
185 1 0.660653 0.158254 0.337318
135 1 0.577997 0.334941 0.248736
209 1 0.663369 0.333645 0.330353
114 1 0.74255 0.23677 0.166543
116 1 0.665684 0.253772 0.256701
139 1 0.750167 0.34036 0.255298
186 1 0.747893 0.249364 0.335653
118 1 0.922903 0.252709 0.164103
120 1 0.825983 0.249789 0.253621
193 1 0.991921 0.327671 0.3319
124 1 0.997037 0.406479 0.257025
128 1 0.152222 0.410982 0.255589
216 1 0.831141 0.420662 0.420811
125 1 0.155447 0.333649 0.162272
127 1 0.235008 0.322227 0.229785
126 1 0.251346 0.415525 0.174195
159 1 0.5777 -0.00484159 0.416918
130 1 0.423865 0.411789 0.153057
132 1 0.336519 0.405161 0.241491
258 1 0.755865 0.245925 0.498362
7 1 0.244691 -0.00594803 0.0882359
91 1 0.749278 0.00792359 0.243739
136 1 0.503056 0.40711 0.23926
140 1 0.645566 0.425809 0.255224
138 1 0.745177 0.418211 0.174613
144 1 0.836534 0.409366 0.250507
62 1 0.597576 0.422869 0.00425267
143 1 0.916109 0.330779 0.24507
206 1 0.58183 0.418333 0.342072
173 1 0.167585 0.160991 0.335893
146 1 0.0904805 0.0776088 0.340448
152 1 0.150129 0.0806158 0.425882
148 1 0.994689 0.0831731 0.421752
515 1 0.413041 0.483106 0.249661
175 1 0.240783 0.177656 0.41989
212 1 0.671186 0.41076 0.413219
65 1 0.668205 0.341039 0.00323001
156 1 0.340252 0.0848439 0.423837
77 1 0.182494 0.0266895 0.178137
583 1 0.238737 0.499471 0.41325
160 1 0.485549 0.0827609 0.403685
183 1 0.579459 0.173432 0.414255
649 1 1.01636 0.506164 0.492003
187 1 0.759152 0.181056 0.425704
164 1 0.66362 0.0898877 0.417829
168 1 0.833407 0.0787116 0.419622
66 1 0.755738 0.414426 -0.00220618
204 1 0.339436 0.423468 0.411637
166 1 0.914817 0.0811008 0.33824
189 1 0.837332 0.160789 0.334044
171 1 0.0895929 0.160359 0.432867
172 1 1.00384 0.243867 0.415606
195 1 0.0722988 0.326863 0.401087
170 1 0.0894967 0.230404 0.34003
199 1 0.255174 0.335193 0.418003
176 1 0.174848 0.255315 0.423688
177 1 0.324666 0.17129 0.339817
201 1 0.320188 0.343854 0.329057
184 1 0.49382 0.241914 0.415005
179 1 0.405962 0.181255 0.42287
180 1 0.333232 0.269007 0.406232
178 1 0.408067 0.264216 0.324445
205 1 0.494449 0.341422 0.34224
207 1 0.572476 0.333594 0.419241
182 1 0.5885 0.249662 0.345074
181 1 0.508525 0.161322 0.331287
188 1 0.673108 0.23879 0.420168
211 1 0.747658 0.328554 0.418019
192 1 0.84184 0.259562 0.408665
241 1 0.992055 0.168655 0.494114
190 1 0.925234 0.238463 0.330472
191 1 0.909537 0.164803 0.417115
202 1 0.41754 0.40736 0.322864
194 1 0.0785451 0.412683 0.330331
11 1 0.40217 -0.00109566 0.0789234
208 1 0.49545 0.426943 0.41361
198 1 0.235358 0.409514 0.336051
200 1 0.165583 0.411531 0.416118
203 1 0.414257 0.334822 0.419466
585 1 0.313787 0.479431 0.327199
595 1 0.758683 0.492302 0.413593
445 1 0.521728 0.496335 0.00724641
591 1 0.582472 0.505734 0.438027
5 1 0.153538 0.00568072 -0.0157665
262 1 0.909838 0.254736 0.502766
157 1 0.508384 -0.0170643 0.324671
589 1 0.508204 0.497683 0.321275
83 1 0.413985 -0.00210516 0.248654
593 1 0.657072 0.494729 0.328976
226 1 0.416126 0.0858632 0.503219
57 1 0.339857 0.318791 0.00664415
265 1 -0.00684068 0.321382 0.493382
254 1 0.576105 0.247445 0.497041
58 1 0.436683 0.418395 0.0181585
266 1 0.0754905 0.404962 0.495491
29 1 0.171294 0.174459 -0.00015546
37 1 0.493082 0.173323 0.00505436
270 1 0.253405 0.422622 0.482861
54 1 0.245994 0.402933 -0.00694224
261 1 0.843019 0.16101 0.518633
257 1 0.651989 0.163083 0.498513
26 1 0.0732093 0.250004 -0.00104305
46 1 0.920844 0.236377 0.00242745
286 1 0.933017 0.422241 0.48286
234 1 0.752188 0.0886072 0.485875
49 1 0.994206 0.335791 -0.00387764
437 1 0.180436 0.491813 -0.00798453
290 1 0.090131 0.0846237 0.663477
313 1 0.997477 0.16317 0.674168
243 1 0.0865596 0.169262 0.595604
53 1 0.177893 0.318462 0.994178
224 1 0.162436 0.0905061 0.573508
247 1 0.22844 0.173304 0.594802
294 1 0.245996 0.0805389 0.659543
293 1 0.168892 -0.00106555 0.668904
431 1 0.881571 0.334957 0.904934
375 1 0.588714 0.00561173 0.924439
228 1 0.327513 0.0876351 0.57423
298 1 0.42714 0.0788729 0.67877
799 1 0.263143 0.484308 0.920943
219 1 0.0742656 -0.00246446 0.592533
232 1 0.500591 0.0996314 0.581028
9 1 0.325078 0.0213399 0.985837
255 1 0.59262 0.16402 0.587594
218 1 0.0812728 0.0855898 0.502638
432 1 0.831332 0.425799 0.922293
302 1 0.575637 0.0869456 0.669399
373 1 0.504738 0.000555359 0.842686
34 1 0.419538 0.250617 0.998055
236 1 0.673434 0.0997323 0.578889
306 1 0.752227 0.0850927 0.662442
240 1 0.817833 0.071029 0.571935
259 1 0.748662 0.182117 0.588084
333 1 0.836856 0.1674 0.670774
220 1 1.01316 0.0913689 0.579203
263 1 0.923324 0.162335 0.591183
310 1 0.906671 0.0770005 0.665289
311 1 0.924495 -0.006064 0.741243
807 1 0.605206 0.49787 0.920759
248 1 0.158154 0.257663 0.586952
341 1 0.152968 0.339207 0.656792
314 1 0.0781686 0.249488 0.664739
317 1 0.163064 0.159328 0.669963
318 1 0.244394 0.261337 0.664178
252 1 0.334631 0.247729 0.59175
271 1 0.251844 0.354233 0.589893
227 1 0.412723 0.019339 0.588722
223 1 0.258237 -0.00121724 0.574704
251 1 0.409689 0.162654 0.583152
322 1 0.41613 0.260972 0.65703
50 1 0.0944277 0.415496 1.00584
303 1 0.597415 0.00390425 0.749285
256 1 0.501743 0.254889 0.589449
260 1 0.671227 0.250422 0.568834
279 1 0.587052 0.328823 0.585372
249 1 0.327253 0.167 0.500431
811 1 0.760221 0.511469 0.911557
330 1 0.748819 0.25871 0.667873
353 1 0.666117 0.323002 0.661192
283 1 0.753637 0.336642 0.5913
217 1 -0.0133145 -0.00691416 0.50672
264 1 0.846042 0.262946 0.586635
244 1 0.986078 0.244968 0.585724
238 1 0.907925 0.0675663 0.498395
334 1 0.916282 0.245316 0.685455
659 1 0.413723 0.496139 0.584321
267 1 0.0628673 0.321846 0.587392
268 1 0.0058663 0.431928 0.569991
225 1 0.338266 0.00491455 0.500187
272 1 0.156543 0.421255 0.581194
803 1 0.432782 0.504086 0.937924
427 1 0.769406 0.338493 0.916003
275 1 0.412465 0.342168 0.600464
429 1 0.822185 0.330498 0.821193
276 1 0.34309 0.421391 0.598764
280 1 0.500481 0.432448 0.594655
349 1 0.509335 0.339638 0.666515
797 1 0.171856 0.488429 0.832963
284 1 0.668427 0.418581 0.574666
424 1 0.510313 0.407998 0.922825
422 1 0.58604 0.429795 0.833199
428 1 0.680383 0.415949 0.918994
657 1 0.331432 0.498526 0.485324
793 1 0.99374 0.485316 0.835087
288 1 0.829915 0.412925 0.572979
287 1 0.93064 0.34614 0.570249
33 1 0.3487 0.167875 0.994913
301 1 0.509054 0.0139268 0.657943
296 1 0.177457 0.0839326 0.750905
362 1 0.071764 0.090364 0.826803
389 1 0.146656 0.166103 0.820843
222 1 0.243756 0.0938039 0.500988
418 1 0.422523 0.412263 0.836934
363 1 0.0733386 0.0116375 0.911042
300 1 0.316064 0.0579436 0.74774
366 1 0.25167 0.0810459 0.839373
393 1 0.333271 0.16205 0.821982
323 1 0.431562 0.165095 0.757145
325 1 0.498415 0.157653 0.666557
370 1 0.420001 0.07966 0.820032
329 1 0.678462 0.159138 0.681841
304 1 0.517367 0.0811034 0.765433
308 1 0.673073 0.0764885 0.761455
277 1 0.504235 0.340225 0.512922
331 1 0.758672 0.158511 0.756035
401 1 0.675047 0.170785 0.830755
378 1 0.749703 0.0768484 0.828476
405 1 0.837213 0.15749 0.836843
361 1 1.00017 0.00330006 0.823748
292 1 0.999705 0.0692024 0.735845
312 1 0.831926 0.0741854 0.742884
367 1 0.242456 -0.00248285 0.909985
315 1 0.0848244 0.16021 0.737309
320 1 0.166791 0.254459 0.744
339 1 0.0848288 0.331019 0.750789
413 1 0.162221 0.328085 0.833957
319 1 0.250342 0.158319 0.728233
324 1 0.322876 0.252529 0.731499
417 1 0.332732 0.316167 0.819398
321 1 0.352684 0.161072 0.674177
347 1 0.421822 0.312797 0.748878
328 1 0.502487 0.240918 0.740299
326 1 0.589252 0.243982 0.65647
327 1 0.577987 0.170744 0.753874
351 1 0.587108 0.325295 0.749728
425 1 0.655459 0.330547 0.826211
421 1 0.507043 0.335332 0.83549
357 1 0.85064 0.345914 0.653097
332 1 0.673055 0.252646 0.75027
336 1 0.825722 0.235972 0.753541
409 1 -0.00670093 0.3378 0.81989
335 1 0.919188 0.161124 0.757913
316 1 0.00552001 0.254781 0.751178
359 1 0.910709 0.339947 0.740814
385 1 1.01135 0.174095 0.822342
337 1 0.994978 0.332065 0.658728
338 1 0.0756136 0.421485 0.653629
410 1 0.0822904 0.398407 0.829269
340 1 1.00708 0.415175 0.740183
299 1 0.421671 0.000905811 0.750818
344 1 0.164023 0.431563 0.741771
342 1 0.255813 0.417458 0.674489
343 1 0.239645 0.34293 0.740964
348 1 0.33385 0.413462 0.75715
30 1 0.253805 0.237958 0.98921
345 1 0.333026 0.33667 0.667765
346 1 0.423079 0.421025 0.665141
729 1 0.337107 0.493974 0.675734
795 1 0.0752416 0.49242 0.911782
350 1 0.589235 0.41351 0.663596
352 1 0.514508 0.420662 0.759014
356 1 0.667199 0.419089 0.742759
402 1 0.749932 0.253608 0.827179
354 1 0.748499 0.426831 0.667428
355 1 0.748237 0.338159 0.736387
426 1 0.750976 0.417617 0.810274
360 1 0.833117 0.425487 0.727823
358 1 0.933231 0.417799 0.646885
430 1 0.912602 0.413815 0.823106
368 1 0.186449 0.103661 0.915603
387 1 0.0679287 0.162898 0.93101
399 1 0.601742 0.167191 0.919988
391 1 0.276923 0.16327 0.91567
420 1 0.368495 0.405046 0.922605
372 1 0.346578 0.081824 0.898623
395 1 0.426922 0.164388 0.915464
412 1 -0.00211264 0.409154 0.903924
414 1 0.251036 0.420985 0.821256
374 1 0.5921 0.0923386 0.832833
376 1 0.518379 0.0899299 0.922933
397 1 0.50618 0.165786 0.838156
380 1 0.676157 0.0854657 0.915069
407 1 0.930078 0.185571 0.89835
406 1 0.909919 0.258601 0.825703
416 1 0.168741 0.419204 0.913198
403 1 0.757716 0.164482 0.911083
382 1 0.926298 0.0834386 0.814545
364 1 0.983152 0.0808454 0.912227
384 1 0.828898 0.0754802 0.912329
404 1 0.681636 0.249817 0.906498
386 1 0.0810372 0.247836 0.83457
388 1 0.993995 0.2674 0.906917
411 1 0.08769 0.337227 0.920552
365 1 0.155973 0.0156114 0.840256
408 1 0.834586 0.238633 0.906739
390 1 0.254508 0.236315 0.831625
392 1 0.164134 0.234795 0.9133
415 1 0.270281 0.342361 0.913739
396 1 0.338383 0.255545 0.90678
419 1 0.425909 0.317727 0.919357
394 1 0.422636 0.24348 0.838696
400 1 0.517104 0.249898 0.91414
423 1 0.588406 0.339211 0.912614
398 1 0.588741 0.248993 0.832985
805 1 0.498169 0.49803 0.84633
231 1 0.586569 0.0168985 0.573049
371 1 0.420515 -0.00109891 0.904774
723 1 0.0739725 0.487435 0.765273
731 1 0.418354 0.491199 0.749427
291 1 0.0852892 0.00160669 0.74823
727 1 0.254239 0.503977 0.747631
297 1 0.331455 0.0146895 0.66365
69 1 0.835257 0.334189 1.00096
61 1 0.508634 0.330891 1.00354
809 1 0.678717 0.511023 0.833526
735 1 0.599119 0.505611 0.750393
743 1 0.931385 0.492138 0.73523
229 1 0.500525 0.00688322 0.493114
253 1 0.494783 0.173855 0.495563
13 1 0.503319 0.0047435 1.00479
273 1 0.331459 0.342696 0.514785
45 1 0.833849 0.160799 0.998793
285 1 0.833834 0.340655 0.490237
661 1 0.49845 0.488012 0.499432
246 1 0.24922 0.271391 0.512608
282 1 0.755593 0.427812 0.498976
70 1 0.917865 0.413184 0.989125
278 1 0.59034 0.410527 0.509684
221 1 0.156865 0.00364991 0.505044
22 1 0.920313 0.0889729 1.00279
274 1 0.400462 0.417779 0.504133
18 1 0.753683 0.0747581 0.995869
42 1 0.756443 0.254421 0.996332
10 1 0.423199 0.0851031 0.993052
269 1 0.168052 0.341593 0.511076
250 1 0.413932 0.249975 0.515626
38 1 0.599453 0.250941 0.990545
440 1 0.183156 0.591063 0.0728295
459 1 0.0869854 0.66098 0.0623093
489 1 0.324865 0.83258 -0.00595403
662 1 0.552388 0.599319 0.501979
529 1 0.00541418 0.667514 0.166958
444 1 0.326834 0.593318 0.0682646
463 1 0.244478 0.682744 0.0752896
3 1 0.0814817 1.00484 0.0807974
448 1 0.515827 0.589956 0.0835631
514 1 0.40125 0.59813 0.167764
451 1 0.750133 0.491875 0.0944793
628 1 -0.00186746 0.90089 0.430088
471 1 0.584052 0.66938 0.0976448
541 1 0.490179 0.658898 0.159766
93 1 0.826451 1.00603 0.151079
452 1 0.676586 0.578314 0.0945432
456 1 0.838734 0.570506 0.0843217
475 1 0.766945 0.675849 0.0779185
509 1 0.167905 0.501496 0.158484
648 1 0.826244 0.907922 0.416198
436 1 -0.00478832 0.575153 0.083669
479 1 0.912243 0.673222 0.0894185
89 1 0.684427 0.998001 0.163206
599 1 0.912936 0.511732 0.43234
233 1 0.665963 1.00484 0.492598
464 1 0.161556 0.755846 0.0824291
530 1 0.0866357 0.740479 0.153501
95 1 0.924861 0.971605 0.245188
468 1 0.333596 0.746989 0.0756298
487 1 0.241717 0.843841 0.0898189
534 1 0.241003 0.770788 0.166972
537 1 0.324182 0.667425 0.163863
561 1 0.339584 0.81485 0.162804
443 1 0.419309 0.501638 0.0835489
467 1 0.415283 0.673472 0.0800307
491 1 0.409592 0.826966 0.081995
472 1 0.489219 0.757328 0.0881479
538 1 0.402681 0.735362 0.174762
565 1 0.48904 0.837742 0.159043
476 1 0.656279 0.74565 0.100444
495 1 0.595924 0.841907 0.0873024
542 1 0.575074 0.7547 0.166626
517 1 0.486615 0.515952 0.172407
546 1 0.754891 0.738635 0.16064
569 1 0.678663 0.820131 0.165782
480 1 0.83287 0.766399 0.066062
460 1 0.0162979 0.752958 0.0616907
483 1 0.076121 0.829052 0.0860466
81 1 0.330273 0.987871 0.168689
484 1 1.00753 0.91578 0.0799884
557 1 0.160845 0.834866 0.158226
453 1 0.829566 0.496379 0.0133355
488 1 0.160119 0.925167 0.0775127
492 1 0.326073 0.929865 0.0738632
165 1 0.852659 0.988214 0.338256
639 1 0.577532 0.838419 0.430021
669 1 0.82915 0.501095 0.504712
496 1 0.506209 0.927751 0.0918201
505 1 -0.00587146 0.493987 0.166917
713 1 0.664837 0.833963 0.504534
145 1 -0.00654427 1.00815 0.325652
644 1 0.672715 0.918763 0.417057
658 1 0.420301 0.575366 0.50706
500 1 0.663816 0.925457 0.0869895
499 1 0.742333 0.846268 0.0673687
504 1 0.84138 0.924094 0.076263
570 1 0.756746 0.912174 0.151842
435 1 0.0948305 0.502662 0.0886232
503 1 0.922766 0.831147 0.0831278
87 1 0.584093 0.999817 0.248838
533 1 0.166385 0.67809 0.157233
147 1 0.0614552 1.00179 0.431301
506 1 0.0750126 0.587687 0.155216
531 1 0.0949251 0.667724 0.257853
510 1 0.244259 0.589949 0.161388
670 1 0.901461 0.581238 0.516052
512 1 0.158425 0.578881 0.244648
605 1 0.182056 0.668396 0.337704
454 1 0.914329 0.580246 0.000376375
516 1 0.331098 0.576618 0.247022
586 1 0.404067 0.557623 0.328921
520 1 0.486931 0.592065 0.248023
539 1 0.403669 0.674073 0.258318
577 1 -0.00357169 0.490713 0.322871
518 1 0.581844 0.571333 0.174762
524 1 0.67665 0.570292 0.252321
543 1 0.580309 0.655069 0.239669
590 1 0.581328 0.577751 0.337732
617 1 0.662872 0.654868 0.333764
163 1 0.753403 0.998385 0.404501
522 1 0.75585 0.583697 0.171597
528 1 0.827302 0.585052 0.261055
545 1 0.666033 0.659119 0.169281
634 1 0.404538 0.913322 0.334803
508 1 0.00530808 0.574947 0.248015
526 1 0.920575 0.58619 0.161494
598 1 0.934274 0.577176 0.330966
549 1 0.83622 0.664521 0.165296
555 1 0.0890139 0.828019 0.252919
602 1 0.0955137 0.735714 0.333791
532 1 1.01486 0.735201 0.248951
536 1 0.180788 0.738823 0.262067
535 1 0.235976 0.652202 0.24705
606 1 0.239258 0.756126 0.349894
540 1 0.308613 0.743006 0.25968
629 1 0.16196 0.842111 0.345771
559 1 0.243568 0.831958 0.26488
609 1 0.32158 0.673624 0.343169
610 1 0.425795 0.747105 0.337564
613 1 0.496735 0.663718 0.323022
563 1 0.404361 0.839714 0.240182
633 1 0.329614 0.825838 0.338456
544 1 0.488065 0.739225 0.245103
567 1 0.590742 0.828475 0.252907
614 1 0.572531 0.745133 0.318664
573 1 0.853028 0.824701 0.17465
547 1 0.743116 0.667974 0.254534
548 1 0.663367 0.750671 0.243777
571 1 0.748004 0.836781 0.240768
552 1 0.847295 0.742217 0.255103
645 1 0.836147 0.824842 0.340619
551 1 0.926158 0.663305 0.240884
550 1 0.94398 0.745975 0.170694
575 1 0.931357 0.844865 0.253157
625 1 0.0177917 0.84074 0.323591
553 1 0.00575766 0.83817 0.173699
554 1 0.0869806 0.919308 0.163512
560 1 0.158996 0.910904 0.253955
458 1 0.0930593 0.73586 -0.0149487
558 1 0.240705 0.901406 0.179902
564 1 0.332528 0.916041 0.251815
640 1 0.495042 0.918077 0.425985
562 1 0.403084 0.911963 0.154783
568 1 0.482962 0.919446 0.252978
527 1 0.917053 0.510088 0.244353
523 1 0.750558 0.490154 0.253385
15 1 0.582522 0.999232 0.0736561
566 1 0.578332 0.920317 0.159071
638 1 0.586174 0.91042 0.340319
641 1 0.670009 0.839899 0.329019
525 1 0.83453 0.502739 0.178207
79 1 0.260445 1.00562 0.260896
642 1 0.739908 0.9288 0.321405
579 1 0.0905338 0.481412 0.423038
572 1 0.668914 0.908819 0.243434
576 1 0.84193 0.90922 0.254985
556 1 0.0156325 0.925572 0.251794
646 1 0.938033 0.917375 0.34168
574 1 0.923184 0.911328 0.154487
498 1 0.750909 0.938164 -0.00174803
578 1 0.0838736 0.584803 0.334197
666 1 0.743804 0.593756 0.506241
647 1 0.914885 0.83054 0.427292
582 1 0.237971 0.569171 0.340786
584 1 0.156616 0.576689 0.425779
624 1 0.832097 0.749583 0.411156
618 1 0.748625 0.754805 0.33312
588 1 0.333555 0.55785 0.404739
592 1 0.491693 0.578334 0.401497
631 1 0.241875 0.837522 0.429246
596 1 0.655578 0.59225 0.446224
615 1 0.577818 0.686036 0.404334
619 1 0.743255 0.667852 0.423255
594 1 0.746956 0.583648 0.329193
600 1 0.819697 0.587886 0.411125
630 1 0.246535 0.923445 0.34368
621 1 0.834769 0.66983 0.330436
580 1 0.0135466 0.578751 0.420811
632 1 0.166056 0.932751 0.42325
601 1 0.01564 0.662714 0.335995
603 1 0.083482 0.663837 0.418843
604 1 0.00428364 0.735064 0.412898
636 1 0.32719 0.926988 0.419999
608 1 0.161887 0.758882 0.420022
607 1 0.255459 0.681609 0.436041
623 1 0.904388 0.651489 0.418832
627 1 0.0757111 0.822875 0.4218
635 1 0.399211 0.841226 0.415186
611 1 0.409001 0.646876 0.40052
612 1 0.345759 0.749522 0.431891
626 1 0.0904836 0.927992 0.352389
616 1 0.500644 0.76486 0.418816
620 1 0.662431 0.755411 0.408157
637 1 0.484497 0.837051 0.317615
622 1 0.924367 0.731514 0.338279
643 1 0.739806 0.840425 0.41273
466 1 0.409943 0.75088 -0.0125655
155 1 0.415985 1.00843 0.409756
587 1 0.414613 0.492717 0.419075
450 1 0.756099 0.577095 0.00135389
73 1 -0.00907781 1.00194 0.159428
519 1 0.579493 0.49743 0.243032
167 1 0.926436 0.995741 0.420786
490 1 0.414635 0.927402 -0.00248789
521 1 0.669106 0.49641 0.180982
494 1 0.579033 0.904987 0.00407213
449 1 0.682708 0.503733 -0.0105675
439 1 0.245372 0.49597 0.0708448
694 1 0.912773 0.743626 0.498517
673 1 -0.0226313 0.669651 0.506516
501 1 0.837642 0.84937 -0.0156047
442 1 0.422037 0.574609 0.0102511
469 1 0.512221 0.665499 0.0155096
710 1 0.580284 0.928238 0.504554
457 1 0.00258288 0.652037 0.00240795
685 1 0.468149 0.678179 0.48482
441 1 0.340878 0.493678 0.00672097
486 1 0.247095 0.929046 -0.00101872
478 1 0.924159 0.763473 -0.000212941
702 1 0.236821 0.932764 0.501524
717 1 0.824812 0.833417 0.492406
470 1 0.559299 0.761462 -0.00309677
493 1 0.482008 0.842415 0.0117905
722 1 0.0813912 0.588755 0.670785
656 1 0.173086 0.595055 0.578859
295 1 0.230469 0.996841 0.765243
679 1 0.255485 0.6615 0.571077
660 1 0.336735 0.578434 0.580757
726 1 0.254563 0.575416 0.654908
815 1 0.914411 0.499256 0.916226
461 1 0.176151 0.666542 0.997679
664 1 0.50702 0.578845 0.595054
379 1 0.748288 0.999256 0.91334
663 1 0.592861 0.501918 0.599398
721 1 0.00715392 0.502249 0.666665
651 1 0.0936718 0.511965 0.581502
734 1 0.579887 0.589023 0.682908
737 1 0.674211 0.517612 0.67972
668 1 0.659886 0.59641 0.581993
738 1 0.750649 0.587481 0.667985
309 1 0.841632 0.993864 0.67467
239 1 0.8889 1.00206 0.585531
652 1 0.00198334 0.572246 0.577536
672 1 0.827469 0.594511 0.595352
813 1 0.842274 0.498847 0.835609
675 1 0.0809839 0.664975 0.587548
699 1 0.0819171 0.83935 0.574999
680 1 0.159742 0.75287 0.586497
749 1 0.168444 0.657127 0.675197
474 1 0.754569 0.757377 0.996609
750 1 0.232222 0.740068 0.670919
773 1 0.162599 0.836498 0.663149
683 1 0.405856 0.657582 0.585686
684 1 0.333841 0.746461 0.579769
754 1 0.409755 0.731664 0.660427
777 1 0.325594 0.814373 0.667837
462 1 0.242742 0.758185 1.00115
687 1 0.572381 0.672044 0.587368
688 1 0.487083 0.744416 0.592632
692 1 0.657293 0.762395 0.588899
433 1 1.00461 0.478462 1.002
691 1 0.743986 0.680192 0.592183
696 1 0.836884 0.744664 0.580913
789 1 0.814793 0.848447 0.672345
695 1 0.913648 0.659357 0.588407
676 1 0.00462832 0.751992 0.586592
769 1 1.00707 0.844789 0.672394
766 1 0.919465 0.753217 0.666389
719 1 0.911772 0.831697 0.580684
305 1 0.655823 0.995163 0.658696
770 1 0.0778284 0.920041 0.659406
369 1 0.323548 0.995516 0.836046
862 1 0.944913 0.907678 0.84397
861 1 0.859925 0.829799 0.839423
703 1 0.244811 0.841504 0.587904
704 1 0.177059 0.928909 0.587405
774 1 0.25612 0.924958 0.663481
383 1 0.904776 0.997127 0.899802
708 1 0.341216 0.92245 0.603589
707 1 0.42595 0.844716 0.597994
864 1 0.837391 0.91657 0.911913
712 1 0.506962 0.924739 0.592004
711 1 0.575638 0.837623 0.579201
482 1 0.0804367 0.911615 1.0008
377 1 0.666975 0.996772 0.846786
863 1 0.938168 0.838442 0.92208
715 1 0.729915 0.844574 0.588166
716 1 0.655932 0.91312 0.580951
786 1 0.746036 0.932195 0.670041
720 1 0.82502 0.916678 0.583437
700 1 0.997381 0.909666 0.581148
671 1 0.914787 0.494634 0.582314
733 1 0.500291 0.507471 0.682724
857 1 0.664906 0.838802 0.844453
801 1 0.330043 0.496311 0.838505
747 1 0.082644 0.658557 0.751513
794 1 0.0896111 0.572534 0.835831
854 1 0.578305 0.924165 0.851128
728 1 0.155992 0.576473 0.749763
732 1 0.34379 0.576276 0.740205
840 1 0.844317 0.755063 0.926838
860 1 0.668986 0.910938 0.920606
730 1 0.417445 0.575499 0.666294
753 1 0.325583 0.656221 0.666543
736 1 0.50931 0.56873 0.769299
802 1 0.423814 0.57909 0.841414
839 1 0.929603 0.661785 0.924757
833 1 0.672207 0.66228 0.832717
740 1 0.672938 0.585914 0.756372
739 1 0.755643 0.503275 0.754147
806 1 0.591642 0.572873 0.844225
810 1 0.760532 0.592693 0.839035
701 1 0.172716 0.842416 0.509535
850 1 0.408216 0.911014 0.837438
235 1 0.739892 1.0086 0.586558
724 1 0.00547043 0.576876 0.750408
742 1 0.931454 0.579915 0.660273
744 1 0.839876 0.586822 0.728706
814 1 0.916468 0.579609 0.821532
856 1 0.493425 0.920353 0.923945
818 1 0.073963 0.741702 0.846579
746 1 0.0741441 0.745429 0.661664
771 1 0.0804349 0.839078 0.746632
752 1 0.148137 0.759444 0.745156
751 1 0.242989 0.658049 0.747804
825 1 0.325393 0.657218 0.828841
822 1 0.234335 0.737135 0.818243
756 1 0.33457 0.735219 0.751944
755 1 0.412829 0.654492 0.751045
826 1 0.410823 0.754466 0.822093
759 1 0.582312 0.682679 0.749736
760 1 0.489521 0.733804 0.748188
757 1 0.49251 0.65251 0.682004
758 1 0.584051 0.745054 0.666534
830 1 0.588154 0.755759 0.830196
761 1 0.664561 0.664629 0.665112
763 1 0.760291 0.665358 0.745661
765 1 0.828247 0.676862 0.660203
764 1 0.68701 0.764134 0.756697
762 1 0.755194 0.760525 0.67192
768 1 0.84001 0.755484 0.743191
745 1 -0.0049673 0.658552 0.66181
837 1 0.852934 0.668472 0.838356
767 1 0.919151 0.664454 0.747678
748 1 0.00469436 0.745598 0.753703
845 1 0.149596 0.84009 0.838656
776 1 0.149263 0.920281 0.747171
853 1 0.492396 0.843154 0.852689
775 1 0.255423 0.841759 0.749021
849 1 0.338666 0.83222 0.833343
780 1 0.342441 0.925703 0.721179
846 1 0.257339 0.918723 0.834275
851 1 0.415483 0.83486 0.917823
779 1 0.411038 0.829903 0.743163
778 1 0.434636 0.938066 0.668719
783 1 0.582831 0.831222 0.768165
781 1 0.500223 0.839803 0.669896
784 1 0.494629 0.905652 0.758819
782 1 0.581641 0.911379 0.687835
446 1 0.59772 0.589963 1.01477
858 1 0.74683 0.930225 0.825836
785 1 0.662012 0.840585 0.67502
788 1 0.661012 0.908969 0.77197
787 1 0.76247 0.844528 0.763787
792 1 0.847411 0.910328 0.760937
852 1 0.327616 0.919442 0.926554
790 1 0.906895 0.909466 0.664564
791 1 0.929786 0.823361 0.754595
772 1 1.00353 0.912793 0.752139
796 1 0.0125556 0.574506 0.913013
800 1 0.164639 0.577845 0.91923
714 1 0.744115 0.915387 0.498309
289 1 0.984742 0.998973 0.653066
655 1 0.252256 0.487776 0.572359
798 1 0.24631 0.574528 0.8389
829 1 0.505395 0.666381 0.828014
804 1 0.34287 0.575938 0.92233
808 1 0.508278 0.573548 0.929412
847 1 0.254752 0.84009 0.906495
831 1 0.585518 0.683454 0.906626
812 1 0.664728 0.601464 0.930113
838 1 0.928343 0.751874 0.825983
438 1 0.255419 0.576593 0.997404
816 1 0.836402 0.576246 0.920272
834 1 0.773046 0.74396 0.839339
841 1 0.0189859 0.831015 0.833522
842 1 0.0809861 0.924282 0.82989
843 1 0.082936 0.839054 0.929057
821 1 0.166461 0.665744 0.843437
817 1 1.00645 0.654474 0.843747
819 1 0.0850011 0.651349 0.922685
820 1 -0.0030425 0.745724 0.926204
307 1 0.75644 1.00572 0.745627
836 1 0.682882 0.752666 0.903042
823 1 0.25784 0.64386 0.914171
824 1 0.180588 0.753008 0.915299
828 1 0.311918 0.748013 0.900643
844 1 0.0042058 0.929314 0.927897
859 1 0.759347 0.843209 0.891399
827 1 0.431134 0.653261 0.92421
832 1 0.49751 0.739617 0.912307
835 1 0.753583 0.656846 0.924011
855 1 0.578063 0.828172 0.909734
848 1 0.17078 0.918877 0.912763
698 1 0.0899893 0.914807 0.50022
681 1 0.34617 0.663295 0.488963
667 1 0.74401 0.504112 0.584069
725 1 0.173603 0.498675 0.66353
473 1 0.661617 0.69483 0.987596
741 1 0.838089 0.500038 0.655213
718 1 0.901345 0.922606 0.504095
677 1 0.151102 0.680545 0.499756
654 1 0.264548 0.571088 0.504682
381 1 0.828661 0.998591 0.828464
485 1 0.169248 0.838716 0.994495
686 1 0.566472 0.752906 0.513293
689 1 0.6594 0.6803 0.508017
1 1 1.00231 1.01054 0.993767
697 1 0.983279 0.822479 0.504237
477 1 0.845065 0.668459 0.998493
497 1 0.653599 0.828312 0.996758
237 1 0.814385 0.998644 0.495068
693 1 0.823467 0.669946 0.499065
665 1 0.673302 0.507619 0.511048
650 1 0.0772099 0.592291 0.503132
653 1 0.175454 0.499812 0.508632
21 1 0.840376 1.00467 0.996993
682 1 0.41662 0.779894 0.510011
502 1 0.922067 0.922309 0.992599
690 1 0.7451 0.764125 0.494091
709 1 0.497643 0.846305 0.496499
481 1 1.00222 0.840611 1.00666
434 1 0.0908099 0.568346 0.997105
465 1 0.333944 0.666306 0.98526
678 1 0.235192 0.750126 0.520491
674 1 0.0731734 0.756431 0.497954
705 1 0.323718 0.850359 0.518807
706 1 0.414623 0.927624 0.508102
