ITEM: TIMESTEP
8250
ITEM: NUMBER OF ATOMS
864
ITEM: BOX BOUNDS pp pp pp
0.0000000000000000e+00 3.1559999999999999e+01
0.0000000000000000e+00 3.1559999999999999e+01
0.0000000000000000e+00 3.1559999999999999e+01
ITEM: ATOMS id type xs ys zs
4 1 0.999967 0.0834172 0.0882877
8 1 0.173433 0.0790043 0.106529
74 1 0.0789312 0.0778528 0.163638
589 1 0.487251 0.497026 0.331038
11 1 0.405144 0.00737007 0.0990197
12 1 0.33158 0.0744506 0.0772389
31 1 0.237589 0.162441 0.0866578
595 1 0.740382 0.484381 0.424942
16 1 0.498 0.0647857 0.0857726
105 1 0.323044 0.166516 0.151546
23 1 0.904092 0.0323067 0.0857598
86 1 0.560527 0.0777083 0.180032
20 1 0.656513 0.0789949 0.0954791
196 1 0.00921288 0.419005 0.397159
216 1 0.836295 0.413507 0.433945
151 1 0.253557 0.00401135 0.40418
14 1 0.588484 0.0774975 0.00703452
90 1 0.742886 0.0855379 0.167633
24 1 0.827589 0.103173 0.0910118
242 1 0.0851317 0.240257 0.496112
47 1 0.913088 0.167883 0.0891843
117 1 0.824378 0.15937 0.17642
77 1 0.16298 0.00185151 0.171689
27 1 0.0808075 0.168783 0.0765318
32 1 0.166458 0.253454 0.0680606
97 1 0.00522855 0.156764 0.171621
42 1 0.733146 0.236586 0.00717832
36 1 0.359758 0.235685 0.0707269
102 1 0.246175 0.249338 0.162329
451 1 0.736998 0.491267 0.0802329
35 1 0.42268 0.144941 0.083128
59 1 0.413939 0.32645 0.072001
40 1 0.480147 0.239752 0.0849192
257 1 0.668677 0.186947 0.496103
39 1 0.575319 0.155742 0.0992969
63 1 0.582599 0.341112 0.0819231
133 1 0.483265 0.341194 0.157746
511 1 0.252633 0.496495 0.247439
43 1 0.737584 0.164259 0.0935206
583 1 0.242834 0.492428 0.413676
44 1 0.658327 0.250763 0.091776
67 1 0.733432 0.328549 0.0862813
141 1 0.828085 0.335004 0.161939
114 1 0.751712 0.250484 0.170787
48 1 0.831846 0.243213 0.102419
28 1 0.000924466 0.246182 0.0912735
118 1 0.924909 0.244207 0.165184
579 1 0.0894533 0.494924 0.418073
51 1 0.0829705 0.323321 0.0707509
52 1 0.995384 0.412338 0.0965737
161 1 0.654982 0.000627311 0.327207
55 1 0.250863 0.345606 0.0867315
129 1 0.348263 0.331409 0.163714
238 1 0.915838 0.0960318 0.49784
56 1 0.171468 0.424844 0.0829232
60 1 0.35508 0.421658 0.088705
521 1 0.667066 0.492055 0.159461
250 1 0.408835 0.267931 0.489164
130 1 0.424578 0.429605 0.178112
64 1 0.481911 0.419181 0.0801449
525 1 0.823969 0.494257 0.169391
41 1 0.661411 0.153313 0.00760363
278 1 0.5775 0.425752 0.496302
507 1 0.0842636 0.498287 0.262412
134 1 0.585766 0.420146 0.157602
155 1 0.411982 0.00878467 0.418576
46 1 0.903509 0.258897 0.00798591
70 1 0.921912 0.413697 0.0107114
68 1 0.65751 0.412451 0.0698787
157 1 0.497163 0.00566761 0.328662
75 1 0.0819998 0.00265205 0.261388
71 1 0.910652 0.335027 0.0912497
225 1 0.33739 0.000596562 0.497272
72 1 0.834305 0.411955 0.0882135
142 1 0.911 0.423905 0.165859
208 1 0.501761 0.421513 0.422488
212 1 0.643804 0.425454 0.407858
80 1 0.162847 0.0855842 0.240669
99 1 0.0857405 0.176299 0.258136
78 1 0.261049 0.0715057 0.161393
226 1 0.41497 0.0986305 0.484604
84 1 0.325875 0.0704015 0.257943
150 1 0.229097 0.0836376 0.325515
103 1 0.255037 0.176219 0.257202
204 1 0.343865 0.437124 0.399707
177 1 0.315491 0.163143 0.341251
82 1 0.402897 0.0740876 0.18164
107 1 0.396464 0.160092 0.261358
109 1 0.492457 0.160251 0.189071
88 1 0.487026 0.0844695 0.257533
111 1 0.573294 0.180759 0.251364
185 1 0.667131 0.165652 0.323564
181 1 0.486507 0.16571 0.330874
92 1 0.661016 0.0780132 0.246227
113 1 0.658466 0.169063 0.169965
115 1 0.739276 0.172319 0.242433
96 1 0.819617 0.0899194 0.251675
94 1 0.912456 0.103713 0.173766
76 1 0.0101736 0.0899684 0.256312
169 1 0.987645 0.166837 0.33847
166 1 0.927103 0.0775602 0.3499
101 1 0.169705 0.16988 0.175702
98 1 0.0860612 0.239746 0.169168
100 1 0.000198784 0.246331 0.241586
170 1 0.0933115 0.250817 0.326698
125 1 0.174979 0.34345 0.160006
104 1 0.180903 0.251077 0.253102
108 1 0.32442 0.245398 0.240684
173 1 0.169666 0.174874 0.323503
106 1 0.411162 0.231195 0.176754
131 1 0.413365 0.328605 0.241541
201 1 0.320967 0.353958 0.326563
178 1 0.407452 0.247874 0.327209
112 1 0.492677 0.244112 0.250057
182 1 0.57573 0.253739 0.322623
110 1 0.56297 0.254319 0.159915
135 1 0.578868 0.330868 0.246963
137 1 0.656325 0.328731 0.173083
213 1 0.842101 0.339829 0.334482
209 1 0.658741 0.336884 0.319266
116 1 0.662633 0.253717 0.251814
120 1 0.82404 0.259842 0.249507
186 1 0.748231 0.251825 0.331848
139 1 0.743556 0.357237 0.257816
121 1 0.008816 0.329171 0.163512
119 1 0.903933 0.161556 0.261579
189 1 0.827892 0.149519 0.342081
190 1 0.909344 0.237599 0.334179
143 1 0.904679 0.336066 0.236602
193 1 0.000816615 0.327904 0.327888
122 1 0.0897848 0.414472 0.151711
123 1 0.0744058 0.321225 0.242039
124 1 0.010627 0.414032 0.227764
202 1 0.423601 0.409951 0.330088
19 1 0.749445 0.0074721 0.0916983
126 1 0.250855 0.416924 0.16279
128 1 0.167323 0.429815 0.238432
127 1 0.25163 0.341475 0.232537
198 1 0.243794 0.433523 0.326294
197 1 0.174925 0.336725 0.326848
132 1 0.339808 0.417144 0.246554
206 1 0.576699 0.407113 0.328548
136 1 0.500646 0.417281 0.25306
73 1 0.996051 0.00777294 0.181561
138 1 0.751624 0.412879 0.166244
210 1 0.760281 0.438981 0.337291
140 1 0.660682 0.419656 0.240963
214 1 0.933913 0.421213 0.316895
144 1 0.829919 0.417447 0.255006
146 1 0.101668 0.0875387 0.331356
171 1 0.0863903 0.182812 0.400246
152 1 0.174607 0.0807348 0.433018
175 1 0.241963 0.17025 0.41513
200 1 0.160001 0.416577 0.409224
154 1 0.409896 0.0847356 0.340134
156 1 0.324216 0.0785193 0.415702
179 1 0.409514 0.181532 0.419261
254 1 0.576218 0.259624 0.498251
158 1 0.576602 0.0853154 0.333235
160 1 0.502659 0.0826105 0.405951
183 1 0.570218 0.179064 0.41244
164 1 0.664427 0.105922 0.413266
159 1 0.584897 0.00121711 0.411096
162 1 0.742183 0.0891511 0.334948
194 1 0.0844952 0.410667 0.321801
191 1 0.916281 0.166573 0.414574
6 1 0.248079 0.0919168 0.00138582
148 1 0.0282403 0.0752772 0.410531
168 1 0.831856 0.0767995 0.415517
195 1 0.0832283 0.332015 0.421998
172 1 0.991113 0.254725 0.421003
517 1 0.503673 0.498164 0.15949
447 1 0.566699 0.488291 0.0641006
215 1 0.926469 0.339137 0.446792
199 1 0.257374 0.346248 0.412221
174 1 0.249022 0.254568 0.34487
176 1 0.159937 0.253893 0.411106
187 1 0.750878 0.173104 0.418842
205 1 0.493549 0.327947 0.327396
203 1 0.403738 0.336555 0.40536
180 1 0.330504 0.260772 0.403689
211 1 0.750635 0.336032 0.399794
188 1 0.667748 0.257547 0.397926
207 1 0.584676 0.337143 0.409352
184 1 0.505212 0.257566 0.413164
192 1 0.826966 0.254444 0.419036
217 1 0.997362 0.0172192 0.498572
249 1 0.323305 0.171702 0.479948
93 1 0.826835 0.00607582 0.164289
273 1 0.340967 0.34385 0.497052
50 1 0.0951137 0.420311 0.00443296
45 1 0.826562 0.17333 0.0179641
274 1 0.412158 0.432707 0.497473
30 1 0.277722 0.239335 0.00787654
230 1 0.58918 0.0868483 0.489894
234 1 0.743248 0.074732 0.48126
258 1 0.751212 0.25396 0.498206
7 1 0.250697 0.00134739 0.0904488
433 1 0.00113773 0.499016 0.000559002
455 1 0.911669 0.496667 0.0934162
165 1 0.829846 0.0157005 0.330837
435 1 0.0756398 0.494916 0.0812338
439 1 0.268407 0.49926 0.0843218
1 1 0.986652 0.0183178 0.00194334
5 1 0.178094 0.0124412 0.0176394
253 1 0.487133 0.175419 0.497118
241 1 0.00570531 0.157817 0.474623
246 1 0.250409 0.256893 0.495998
237 1 0.838093 0.00451484 0.49948
277 1 0.491427 0.331637 0.494953
270 1 0.27769 0.426895 0.495937
281 1 0.665067 0.330306 0.481381
262 1 0.913522 0.240502 0.497077
29 1 0.173144 0.164418 0.00584301
22 1 0.909071 0.0956875 0.00234514
649 1 0.00443036 0.486024 0.479989
261 1 0.821082 0.1592 0.497228
25 1 0.996415 0.173659 0.0113379
37 1 0.508333 0.146663 0.0121539
49 1 0.995142 0.320901 0.00332371
38 1 0.575375 0.247247 0.00405589
69 1 0.823298 0.328984 0.00990996
290 1 0.0851591 0.0760844 0.663331
26 1 0.0889805 0.245647 0.988594
307 1 0.760193 0.00189336 0.743853
219 1 0.0821691 0.00852238 0.569696
361 1 0.995596 0.004631 0.820512
224 1 0.162876 0.0697624 0.577986
228 1 0.327174 0.0767853 0.589441
247 1 0.245004 0.165588 0.589711
294 1 0.255287 0.0842585 0.660771
805 1 0.497049 0.496069 0.826829
61 1 0.508253 0.332831 0.989003
298 1 0.416832 0.0846809 0.665633
232 1 0.503685 0.0817625 0.588815
793 1 0.0174314 0.493537 0.826879
302 1 0.598673 0.0783694 0.66572
363 1 0.0649065 0.00581542 0.918601
377 1 0.678761 0.00426865 0.832956
236 1 0.66507 0.0721967 0.576764
259 1 0.740806 0.151846 0.578383
333 1 0.831168 0.186365 0.666437
293 1 0.178038 0.00446894 0.683426
289 1 0.00843229 0.00963064 0.651136
220 1 0.998244 0.0822177 0.580676
240 1 0.832394 0.0879789 0.586549
263 1 0.92295 0.167882 0.585296
10 1 0.416601 0.0691922 0.99616
243 1 0.0940981 0.158867 0.584147
314 1 0.0858562 0.243107 0.66164
248 1 0.17309 0.24845 0.583775
317 1 0.167171 0.152493 0.671508
271 1 0.252016 0.330045 0.586472
345 1 0.315915 0.321221 0.673697
721 1 0.00906819 0.498944 0.661023
251 1 0.406545 0.162373 0.56844
321 1 0.341113 0.164571 0.652034
231 1 0.587335 0.00111347 0.578155
252 1 0.326204 0.254594 0.578756
813 1 0.830749 0.494297 0.829931
256 1 0.494128 0.235871 0.590012
255 1 0.58662 0.160623 0.585426
260 1 0.660655 0.257614 0.589157
349 1 0.495227 0.343142 0.681651
264 1 0.844803 0.243765 0.578585
739 1 0.759737 0.482746 0.744652
244 1 0.0102503 0.251837 0.574344
287 1 0.923634 0.345317 0.580599
291 1 0.0819089 0.000566221 0.757421
267 1 0.0850522 0.335673 0.587531
268 1 0.00359108 0.427354 0.582982
338 1 0.0867409 0.425118 0.6607
272 1 0.180383 0.415583 0.583565
341 1 0.17264 0.350124 0.675321
62 1 0.575171 0.409099 0.981775
342 1 0.266236 0.42022 0.664122
367 1 0.256402 0.00478623 0.918417
276 1 0.331175 0.403558 0.582437
275 1 0.410497 0.326397 0.590137
346 1 0.407457 0.403358 0.68306
449 1 0.652199 0.498395 0.990038
279 1 0.584181 0.344379 0.581092
280 1 0.491005 0.413002 0.581995
353 1 0.65924 0.332933 0.665161
350 1 0.574333 0.414421 0.666249
283 1 0.742504 0.334056 0.582581
284 1 0.666544 0.419746 0.5892
354 1 0.747862 0.412945 0.664147
429 1 0.842729 0.323761 0.831345
431 1 0.896881 0.337247 0.924867
239 1 0.912016 0.00123551 0.580925
357 1 0.825217 0.314624 0.665703
288 1 0.838643 0.415611 0.596275
337 1 0.00602418 0.333709 0.666482
358 1 0.921591 0.416907 0.674109
54 1 0.249161 0.430819 0.996407
296 1 0.164608 0.0766321 0.757743
300 1 0.345738 0.0801494 0.753636
366 1 0.258178 0.0753867 0.842313
799 1 0.259942 0.496688 0.909205
370 1 0.43562 0.0777975 0.822934
304 1 0.508805 0.0809942 0.742977
733 1 0.493101 0.497523 0.686773
235 1 0.758909 0.000172458 0.578934
735 1 0.577059 0.485023 0.760645
329 1 0.67973 0.152498 0.658566
325 1 0.506114 0.157955 0.666502
327 1 0.606254 0.160533 0.752046
308 1 0.679852 0.0795576 0.754905
2 1 0.0917747 0.079611 0.99604
306 1 0.751996 0.0752482 0.662853
312 1 0.830157 0.102732 0.745608
807 1 0.579921 0.49523 0.900057
34 1 0.43031 0.253875 0.986798
310 1 0.917395 0.0875616 0.661056
292 1 0.00760724 0.0793583 0.734101
382 1 0.914259 0.0833628 0.835069
741 1 0.848501 0.488377 0.681692
315 1 0.0777218 0.161418 0.7444
320 1 0.169109 0.249652 0.735161
409 1 0.00585768 0.323583 0.840531
318 1 0.258283 0.23204 0.679375
319 1 0.23859 0.147575 0.753908
324 1 0.333301 0.248536 0.759209
323 1 0.435017 0.168252 0.756103
322 1 0.428275 0.262643 0.685897
397 1 0.506861 0.162717 0.836899
328 1 0.524273 0.23034 0.744256
326 1 0.571474 0.260264 0.652821
332 1 0.667489 0.246592 0.742983
351 1 0.586627 0.330333 0.737478
398 1 0.586418 0.235969 0.841597
330 1 0.739138 0.242318 0.661302
331 1 0.746354 0.169343 0.755441
402 1 0.75013 0.243017 0.845181
336 1 0.836327 0.243663 0.754073
313 1 0.0111801 0.155403 0.651941
334 1 0.933702 0.250505 0.662084
316 1 0.00216011 0.249544 0.743297
335 1 0.927488 0.156114 0.746877
385 1 0.00450511 0.155256 0.8277
218 1 0.0848098 0.0867488 0.502008
339 1 0.091503 0.328527 0.748412
340 1 0.0109433 0.413063 0.743982
344 1 0.191829 0.431175 0.73936
426 1 0.746301 0.409601 0.831065
343 1 0.241595 0.338257 0.766348
815 1 0.91981 0.497878 0.909558
227 1 0.408712 0.0109074 0.578296
311 1 0.907151 0.0152158 0.744932
348 1 0.316133 0.422442 0.754684
347 1 0.404374 0.34282 0.756786
352 1 0.49749 0.410167 0.763172
422 1 0.591179 0.411168 0.828874
425 1 0.654509 0.319962 0.828856
356 1 0.66984 0.402964 0.747542
407 1 0.910169 0.176647 0.934249
388 1 0.0042276 0.24205 0.912768
355 1 0.746664 0.327429 0.761709
360 1 0.825769 0.399789 0.748679
432 1 0.82521 0.429257 0.920381
430 1 0.925462 0.415007 0.82516
359 1 0.919628 0.334408 0.7445
406 1 0.929681 0.23419 0.84154
362 1 0.0901144 0.0813145 0.848482
427 1 0.755304 0.330845 0.912772
413 1 0.163062 0.342407 0.840853
368 1 0.174435 0.0691732 0.918922
391 1 0.259431 0.161528 0.908632
415 1 0.246386 0.339447 0.903168
372 1 0.349471 0.0704171 0.909402
376 1 0.512547 0.0787572 0.914515
395 1 0.427769 0.155776 0.912124
416 1 0.170457 0.444851 0.91569
424 1 0.495207 0.41063 0.889573
374 1 0.590079 0.0753036 0.830931
380 1 0.671034 0.0732742 0.91882
399 1 0.584576 0.161466 0.924945
418 1 0.411615 0.418946 0.826129
412 1 0.00318993 0.399989 0.933996
378 1 0.753981 0.0913087 0.834107
384 1 0.831109 0.0945545 0.917493
419 1 0.427705 0.32792 0.891349
364 1 0.997671 0.0900201 0.926667
420 1 0.332805 0.421433 0.901872
410 1 0.0861413 0.411559 0.827794
389 1 0.173665 0.160617 0.838367
387 1 0.0854327 0.162429 0.915755
386 1 0.0890628 0.250142 0.823071
411 1 0.0904082 0.333919 0.924447
392 1 0.163845 0.246167 0.903197
390 1 0.245999 0.244513 0.833137
393 1 0.346038 0.169578 0.834853
396 1 0.345479 0.254271 0.924732
417 1 0.336558 0.329429 0.837081
394 1 0.416454 0.243663 0.833981
400 1 0.506675 0.230947 0.921438
414 1 0.244547 0.426871 0.835749
401 1 0.670322 0.16478 0.845894
421 1 0.503394 0.316581 0.817746
423 1 0.577991 0.325521 0.908462
404 1 0.657729 0.236935 0.925253
797 1 0.171467 0.499269 0.818779
405 1 0.834246 0.175715 0.836527
408 1 0.819238 0.249433 0.924455
403 1 0.745229 0.156889 0.925973
428 1 0.672769 0.404089 0.91372
297 1 0.344245 0.00433243 0.66993
667 1 0.759622 0.494434 0.595309
655 1 0.262863 0.491068 0.578966
365 1 0.165529 0.00236727 0.828525
383 1 0.903854 0.00369572 0.919979
57 1 0.331778 0.335366 0.998776
809 1 0.671722 0.488469 0.825693
309 1 0.846472 0.0116676 0.656028
265 1 0.0117861 0.333707 0.505998
282 1 0.753718 0.410817 0.512225
66 1 0.750662 0.412782 0.992262
286 1 0.921428 0.42878 0.504832
222 1 0.251552 0.091301 0.505405
285 1 0.826998 0.324169 0.509474
65 1 0.657549 0.344135 0.991657
53 1 0.176662 0.341247 0.999298
661 1 0.493833 0.497417 0.512422
21 1 0.828753 0.00362597 0.99817
269 1 0.177548 0.339172 0.509774
18 1 0.750065 0.0794618 0.994868
653 1 0.175355 0.490837 0.504266
245 1 0.167178 0.167606 0.509155
33 1 0.336349 0.145257 0.983122
58 1 0.425322 0.401133 0.977162
229 1 0.487923 0.00684377 0.504194
266 1 0.0873056 0.420412 0.508657
459 1 0.0925347 0.68302 0.0989217
163 1 0.736049 0.988521 0.392026
591 1 0.567738 0.503971 0.42192
79 1 0.253193 0.985234 0.2443
440 1 0.183162 0.581404 0.0899624
510 1 0.253258 0.594117 0.169778
463 1 0.235322 0.676924 0.0736217
444 1 0.327796 0.598803 0.0778037
448 1 0.499268 0.570228 0.0687538
467 1 0.41408 0.664212 0.0912729
514 1 0.414769 0.588824 0.161196
545 1 0.657696 0.66595 0.168307
471 1 0.590576 0.665983 0.0767453
442 1 0.412005 0.593821 0.00245286
452 1 0.654262 0.567321 0.073291
628 1 0.00937704 0.911237 0.446271
456 1 0.826277 0.576901 0.086832
436 1 0.989672 0.582895 0.0772335
526 1 0.907067 0.574911 0.159941
17 1 0.678794 0.995256 0.00756737
645 1 0.837028 0.822942 0.34398
81 1 0.335379 0.993131 0.17584
460 1 0.984153 0.753839 0.0936846
464 1 0.16429 0.757906 0.0861611
483 1 0.0780653 0.830864 0.0885068
553 1 0.992431 0.835029 0.153533
233 1 0.667209 0.987894 0.492893
487 1 0.25143 0.832551 0.0838312
95 1 0.901647 0.999736 0.24196
3 1 0.0837334 0.999302 0.0710258
537 1 0.324966 0.680312 0.163895
468 1 0.32931 0.758924 0.0878475
472 1 0.505081 0.738499 0.0751386
495 1 0.606854 0.826217 0.0895156
542 1 0.570648 0.744989 0.165709
523 1 0.738102 0.50169 0.250297
476 1 0.673248 0.745041 0.0893573
475 1 0.736531 0.64488 0.0804441
546 1 0.757811 0.738539 0.167628
480 1 0.829961 0.742447 0.0707686
573 1 0.826526 0.83614 0.179256
569 1 0.665964 0.816718 0.171456
549 1 0.832907 0.661048 0.168355
479 1 0.913942 0.660849 0.086199
503 1 0.901501 0.844048 0.0784255
585 1 0.335243 0.518725 0.319975
91 1 0.733675 0.991493 0.243034
593 1 0.673614 0.510157 0.344924
488 1 0.167191 0.902802 0.0904536
554 1 0.08324 0.920471 0.155964
650 1 0.0664425 0.585239 0.494436
494 1 0.59629 0.916467 0.00739386
577 1 0.994787 0.505332 0.33041
486 1 0.24294 0.916008 0.00988277
492 1 0.33128 0.917504 0.090761
710 1 0.578958 0.933948 0.496042
87 1 0.590686 0.985333 0.246474
15 1 0.585596 0.998489 0.090807
491 1 0.416857 0.837134 0.0888086
561 1 0.326318 0.83769 0.163901
481 1 0.000595778 0.872791 0.0185925
682 1 0.419407 0.753442 0.492025
496 1 0.498042 0.918934 0.0742988
500 1 0.674101 0.911549 0.0859161
499 1 0.757456 0.843866 0.0940422
646 1 0.913752 0.925093 0.341414
509 1 0.175356 0.511855 0.168461
643 1 0.761007 0.817941 0.433429
484 1 0.986653 0.941326 0.101081
504 1 0.83552 0.932065 0.0903542
574 1 0.898267 0.913063 0.166241
597 1 0.836406 0.517763 0.322625
641 1 0.659029 0.817176 0.321449
533 1 0.181104 0.673648 0.161031
506 1 0.0886989 0.589471 0.153413
512 1 0.160187 0.578542 0.24442
605 1 0.171058 0.660352 0.331859
85 1 0.500182 0.995767 0.167944
535 1 0.250966 0.662467 0.250259
648 1 0.831947 0.928591 0.415138
516 1 0.340069 0.600709 0.23402
541 1 0.502222 0.66683 0.152256
599 1 0.91245 0.501417 0.409055
609 1 0.317435 0.67455 0.336506
640 1 0.490987 0.927896 0.419425
518 1 0.592871 0.576181 0.161869
520 1 0.495906 0.591358 0.244285
524 1 0.659016 0.579609 0.256882
543 1 0.56661 0.665814 0.238549
515 1 0.412136 0.514761 0.250006
522 1 0.745219 0.577595 0.171221
638 1 0.5796 0.920001 0.338015
594 1 0.752495 0.588547 0.341584
639 1 0.570679 0.849847 0.41822
705 1 0.343366 0.825123 0.490748
644 1 0.664333 0.887405 0.409987
508 1 0.00682815 0.597269 0.25919
528 1 0.82691 0.580956 0.237604
531 1 0.08825 0.665009 0.252733
530 1 0.076229 0.757305 0.171107
532 1 0.999888 0.752235 0.246673
555 1 0.0665091 0.832714 0.250097
536 1 0.167178 0.744011 0.24219
534 1 0.245606 0.759951 0.162099
540 1 0.334839 0.748695 0.24566
559 1 0.257387 0.842844 0.244471
557 1 0.161888 0.829145 0.176806
538 1 0.421801 0.746669 0.173018
539 1 0.412116 0.67944 0.258355
563 1 0.411175 0.83282 0.245423
565 1 0.504372 0.841521 0.160762
544 1 0.49347 0.751546 0.255555
548 1 0.668064 0.735606 0.244039
567 1 0.58753 0.829143 0.228913
547 1 0.752237 0.666038 0.251615
571 1 0.747081 0.824948 0.248199
550 1 0.90425 0.763805 0.160699
529 1 0.0071311 0.668641 0.163286
551 1 0.912486 0.653682 0.236151
552 1 0.827548 0.74205 0.266673
622 1 0.921302 0.752084 0.341533
621 1 0.83162 0.650971 0.333468
556 1 0.0118001 0.927902 0.240534
558 1 0.248153 0.914133 0.151363
560 1 0.153139 0.924124 0.245478
630 1 0.243342 0.917761 0.335188
474 1 0.747826 0.735879 0.00540513
614 1 0.571819 0.759969 0.346977
562 1 0.422079 0.915604 0.16873
457 1 0.000588729 0.66762 0.00465491
564 1 0.333074 0.915296 0.260224
83 1 0.415752 0.994639 0.252114
566 1 0.589364 0.916542 0.152265
635 1 0.437255 0.84407 0.413162
637 1 0.497792 0.83581 0.325623
568 1 0.508543 0.914292 0.248759
642 1 0.743228 0.908382 0.326899
572 1 0.661995 0.906643 0.254479
570 1 0.747616 0.911654 0.182473
576 1 0.835667 0.916102 0.2541
615 1 0.572121 0.681058 0.409919
587 1 0.417186 0.508542 0.413798
513 1 0.331829 0.510906 0.161568
575 1 0.912585 0.831131 0.261346
632 1 0.169353 0.912272 0.412339
634 1 0.421619 0.922981 0.338858
578 1 0.0806886 0.586122 0.340346
620 1 0.662308 0.75719 0.406388
624 1 0.831659 0.734416 0.403445
582 1 0.253999 0.578795 0.336353
584 1 0.175477 0.573418 0.413215
631 1 0.241448 0.828666 0.417565
647 1 0.925687 0.838505 0.417893
618 1 0.744121 0.750897 0.340781
613 1 0.491355 0.673069 0.326771
636 1 0.331802 0.909483 0.420611
586 1 0.408193 0.583663 0.333571
588 1 0.32412 0.596897 0.418316
611 1 0.413802 0.664896 0.437267
627 1 0.09955 0.836472 0.427961
590 1 0.572951 0.585 0.341545
592 1 0.50572 0.588846 0.414635
596 1 0.644688 0.580694 0.420482
619 1 0.737836 0.659819 0.423292
600 1 0.830775 0.579712 0.425419
527 1 0.914483 0.510132 0.247188
580 1 0.999183 0.584709 0.410742
598 1 0.919434 0.586475 0.337822
623 1 0.934122 0.667404 0.416569
601 1 0.985432 0.673888 0.325781
626 1 0.0938905 0.912232 0.333337
603 1 0.067061 0.675271 0.413612
625 1 0.00619228 0.843823 0.342005
602 1 0.0732986 0.750996 0.331001
604 1 0.00250644 0.764883 0.406945
629 1 0.167722 0.835356 0.324267
617 1 0.655438 0.662271 0.324476
477 1 0.834886 0.655651 4.20776e-05
606 1 0.25466 0.758299 0.311142
607 1 0.231815 0.687968 0.421213
608 1 0.150548 0.746812 0.407655
610 1 0.409799 0.753951 0.331801
612 1 0.33217 0.749678 0.416331
633 1 0.332276 0.833568 0.342021
616 1 0.502556 0.76004 0.426416
89 1 0.667821 0.9925 0.164569
167 1 0.929708 0.99859 0.433103
581 1 0.164709 0.50109 0.3334
519 1 0.57744 0.500578 0.2482
153 1 0.336523 0.996168 0.337029
443 1 0.419836 0.506868 0.0822925
149 1 0.16048 0.994007 0.324777
145 1 0.00337579 0.992452 0.337306
505 1 0.997534 0.516495 0.168596
454 1 0.908616 0.570819 0.0098795
147 1 0.0982264 0.9934 0.424883
498 1 0.758097 0.911455 0.00013814
714 1 0.756257 0.918638 0.49435
673 1 0.0054662 0.675992 0.497682
490 1 0.418052 0.919173 0.00135786
453 1 0.830589 0.501095 0.0108263
221 1 0.18348 0.993584 0.484529
702 1 0.263246 0.921536 0.494091
465 1 0.33158 0.68644 0.000916109
709 1 0.497197 0.837779 0.499947
9 1 0.319727 0.99479 0.00170055
434 1 0.0815529 0.590463 0.0178693
458 1 0.0617901 0.757002 0.012609
489 1 0.341097 0.837856 0.00893346
437 1 0.159983 0.510706 0.00708272
466 1 0.423165 0.758646 0.0103264
686 1 0.594371 0.759462 0.494791
666 1 0.730167 0.586708 0.494983
485 1 0.158985 0.82423 0.00638233
493 1 0.510911 0.829957 0.0234686
478 1 0.919556 0.753219 0.000952257
657 1 0.335107 0.510448 0.49789
482 1 0.0999462 0.914773 0.00915533
652 1 0.0066303 0.59453 0.593748
722 1 0.0886116 0.584381 0.66293
861 1 0.838273 0.819537 0.84466
656 1 0.152898 0.585219 0.570312
660 1 0.34086 0.587002 0.585354
679 1 0.258922 0.668809 0.585594
801 1 0.324308 0.50598 0.823602
726 1 0.255756 0.584699 0.657048
654 1 0.247985 0.578458 0.512541
664 1 0.49069 0.573336 0.593492
501 1 0.845653 0.828762 0.994179
862 1 0.913285 0.91559 0.828629
757 1 0.508282 0.680454 0.669773
734 1 0.561435 0.577002 0.684487
859 1 0.758577 0.824268 0.916389
305 1 0.667296 0.995582 0.681344
668 1 0.669652 0.563709 0.577945
727 1 0.248336 0.528066 0.750616
691 1 0.755885 0.663598 0.58549
663 1 0.572222 0.505763 0.598385
738 1 0.739868 0.573182 0.66577
717 1 0.849147 0.82222 0.509793
672 1 0.826023 0.575903 0.5879
695 1 0.914596 0.665451 0.597025
473 1 0.673085 0.662673 0.996073
765 1 0.821816 0.662424 0.67424
742 1 0.917358 0.575818 0.672257
745 1 0.000361444 0.65897 0.68135
689 1 0.663629 0.666003 0.508905
675 1 0.0774074 0.67837 0.593828
769 1 0.00606871 0.828289 0.662807
441 1 0.342194 0.501339 0.989067
680 1 0.169916 0.745098 0.583555
684 1 0.353208 0.756956 0.578794
749 1 0.185736 0.688175 0.670771
683 1 0.427595 0.66451 0.593356
713 1 0.676497 0.838102 0.500661
731 1 0.397723 0.503264 0.748434
671 1 0.907485 0.50997 0.593778
688 1 0.510117 0.747828 0.562598
687 1 0.5731 0.64344 0.600649
711 1 0.590511 0.843159 0.566808
692 1 0.663676 0.748038 0.577128
762 1 0.758997 0.747868 0.655143
785 1 0.683765 0.825206 0.6702
676 1 0.992376 0.748943 0.590902
696 1 0.844036 0.736639 0.582262
371 1 0.438098 0.995378 0.916607
381 1 0.842088 0.997821 0.829074
699 1 0.0836117 0.821021 0.579892
858 1 0.754699 0.910025 0.84035
704 1 0.174598 0.90267 0.59289
773 1 0.168477 0.825598 0.659352
658 1 0.42806 0.580527 0.501029
743 1 0.933552 0.500675 0.742857
703 1 0.261016 0.834679 0.584757
303 1 0.588939 0.997944 0.758972
685 1 0.500578 0.664476 0.505966
708 1 0.345245 0.927969 0.589061
707 1 0.418589 0.858559 0.590895
778 1 0.427714 0.928154 0.668438
373 1 0.509177 0.997353 0.846968
857 1 0.669477 0.829731 0.82737
864 1 0.837887 0.909264 0.910262
729 1 0.332741 0.508397 0.660169
712 1 0.501202 0.930874 0.574068
782 1 0.588889 0.914568 0.652422
375 1 0.59196 0.996767 0.928708
811 1 0.755362 0.503371 0.914762
715 1 0.755575 0.837692 0.585035
716 1 0.669142 0.915135 0.570877
789 1 0.834037 0.826537 0.670519
223 1 0.252544 0.996107 0.577484
720 1 0.842506 0.909063 0.580024
700 1 0.994008 0.9139 0.591102
719 1 0.915355 0.831935 0.602833
737 1 0.651928 0.500718 0.673182
803 1 0.407038 0.511001 0.88279
723 1 0.0930428 0.505331 0.732962
724 1 0.018837 0.573421 0.749034
747 1 0.0623021 0.67044 0.756302
794 1 0.0903197 0.580475 0.832542
379 1 0.752901 0.993112 0.911926
728 1 0.166222 0.589853 0.750414
751 1 0.248206 0.671572 0.75725
798 1 0.24369 0.588636 0.840424
732 1 0.335944 0.600737 0.738866
821 1 0.173659 0.670413 0.834918
730 1 0.416708 0.59565 0.675568
736 1 0.496929 0.601817 0.760129
802 1 0.410838 0.598127 0.810311
860 1 0.678002 0.909686 0.92617
761 1 0.653539 0.658063 0.671434
740 1 0.646949 0.578282 0.757708
759 1 0.571233 0.675672 0.753476
806 1 0.580432 0.580739 0.835312
744 1 0.822556 0.570803 0.735112
763 1 0.735361 0.659699 0.747507
833 1 0.670205 0.659454 0.831042
767 1 0.912042 0.653957 0.766
746 1 0.0798052 0.747703 0.669921
771 1 0.0738981 0.839046 0.756396
818 1 0.0662753 0.759067 0.82956
748 1 0.981598 0.754707 0.761406
822 1 0.244086 0.752617 0.838397
750 1 0.261385 0.754983 0.665874
752 1 0.166642 0.752259 0.760669
755 1 0.412846 0.685802 0.736722
756 1 0.31694 0.749374 0.758774
753 1 0.340319 0.682275 0.661295
754 1 0.429911 0.756823 0.648187
826 1 0.408631 0.755831 0.82279
760 1 0.514655 0.767084 0.744952
758 1 0.579126 0.754761 0.659194
783 1 0.597577 0.846206 0.739483
764 1 0.671917 0.745278 0.748732
768 1 0.832947 0.736666 0.769259
766 1 0.907679 0.734437 0.677823
841 1 0.981084 0.8418 0.825732
838 1 0.912953 0.738629 0.844124
817 1 0.993703 0.663102 0.838651
770 1 0.0904405 0.914936 0.664041
842 1 0.0870533 0.929081 0.844267
776 1 0.156991 0.900799 0.74295
856 1 0.504178 0.906733 0.927537
774 1 0.263682 0.919835 0.674747
775 1 0.249472 0.830511 0.747709
780 1 0.337824 0.91378 0.75903
777 1 0.334534 0.841452 0.66512
849 1 0.326354 0.834352 0.840362
779 1 0.41093 0.823139 0.729979
659 1 0.415493 0.50861 0.581849
853 1 0.496768 0.836127 0.836728
781 1 0.516907 0.840749 0.651308
784 1 0.502605 0.889655 0.743892
854 1 0.605514 0.918746 0.840716
788 1 0.671698 0.924681 0.758461
786 1 0.750352 0.917589 0.67205
787 1 0.75404 0.82284 0.76406
792 1 0.838226 0.90739 0.750705
850 1 0.428232 0.91474 0.833179
852 1 0.345844 0.904781 0.910193
790 1 0.923016 0.926835 0.677528
791 1 0.914992 0.828684 0.741814
772 1 0.00845873 0.930797 0.739515
844 1 0.988309 0.925608 0.918493
795 1 0.086284 0.511553 0.917158
800 1 0.16688 0.573001 0.911799
823 1 0.247442 0.678865 0.910794
725 1 0.158572 0.509854 0.650699
299 1 0.43284 0.998449 0.744286
847 1 0.242688 0.846277 0.922819
462 1 0.251526 0.76633 0.993728
804 1 0.335693 0.595659 0.92834
808 1 0.495305 0.588337 0.901026
369 1 0.339684 0.992532 0.836126
831 1 0.574489 0.665415 0.909478
812 1 0.661486 0.562468 0.905444
846 1 0.243582 0.909401 0.819784
13 1 0.511515 0.992363 0.99996
848 1 0.17181 0.940444 0.925046
839 1 0.924528 0.663019 0.924553
840 1 0.831811 0.736796 0.912963
835 1 0.752834 0.65567 0.90915
837 1 0.840564 0.650843 0.84195
810 1 0.757827 0.575694 0.826763
796 1 0.993342 0.574502 0.927299
816 1 0.836601 0.578704 0.926112
814 1 0.932706 0.567588 0.833509
843 1 0.0717384 0.84784 0.926265
824 1 0.162355 0.753321 0.924503
819 1 0.0889828 0.678061 0.904417
820 1 0.996776 0.749297 0.930037
863 1 0.926699 0.833228 0.926469
845 1 0.165893 0.834134 0.852765
651 1 0.0873609 0.504136 0.578707
827 1 0.417819 0.679819 0.917145
851 1 0.422413 0.832577 0.910207
829 1 0.495744 0.693848 0.844278
825 1 0.328692 0.661222 0.831293
828 1 0.332741 0.754144 0.913376
855 1 0.590621 0.830056 0.923132
830 1 0.585064 0.748464 0.836923
832 1 0.507124 0.764135 0.93174
834 1 0.744166 0.736936 0.82745
836 1 0.66815 0.749404 0.909991
677 1 0.172798 0.675931 0.506741
693 1 0.838996 0.659269 0.502702
446 1 0.579238 0.585919 0.986848
706 1 0.426597 0.912311 0.502451
697 1 0.991485 0.827269 0.512327
694 1 0.921868 0.737155 0.509232
301 1 0.521481 0.995139 0.67346
295 1 0.257557 0.98898 0.74796
445 1 0.49227 0.50817 0.985096
670 1 0.934212 0.579537 0.508517
701 1 0.165958 0.834637 0.512901
438 1 0.242762 0.581422 0.999539
681 1 0.336501 0.660972 0.511838
674 1 0.0946921 0.748408 0.507331
461 1 0.172149 0.660303 0.988142
450 1 0.739235 0.578108 0.992374
470 1 0.595414 0.74703 0.990718
678 1 0.255326 0.761958 0.504522
690 1 0.763822 0.747244 0.513344
469 1 0.497434 0.663187 0.995108
497 1 0.688253 0.82922 0.994246
502 1 0.907078 0.914008 0.996724
698 1 0.0909573 0.910954 0.523789
669 1 0.83072 0.508839 0.507375
662 1 0.573356 0.57425 0.516998
665 1 0.662049 0.500146 0.500722
718 1 0.916865 0.911226 0.5118
