LAMMPS (17 Nov 2016)

# general preparation of simulation with real units as
# described in tutorial 1
atom_style      bond
units           real
dimension       3
boundary        p p p
processors      * 1 1

# sorting of atoms in internal neighboring list
atom_modify 	map array sort 10 1.0

# use a harmonic bond - bond coeff are defined in cofiguration file
bond_style      harmonic
# read the data from a configuraion file (could be created also form external software package)
read_data       data.1d.chain
  orthogonal box = (0 -1 -1) to (20 1 1)
  4 by 1 by 1 MPI processor grid
  reading atoms ...
  10 atoms
  scanning bonds ...
  1 = max bonds/atom
  reading bonds ...
  10 bonds
  2 = max # of 1-2 neighbors
  2 = max # of 1-3 neighbors
  4 = max # of 1-4 neighbors
  6 = max # of special neighbors

# use lj-potential for stabilization purpose (enfocing 1D in LAMMPS)
pair_style	lj/cut 4
pair_coeff	* * 0.2376 2.0

# set variable for integration timestep
variable        dt equal 1
timestep        ${dt}
timestep        1

# set for output purposes
thermo          100
thermo_style	custom step temp pe etotal press pxx pyy pzz

# ----- Print structure
#dump            snap all custom 10000 snap.lammpstrj id type x y z
#dump            1 all atom 500 dum.chain_*.atom

# ----- Minimize energy at 0K

# find the equilibrium length of the simulaiton box
fix 		RELAX all box/relax x 0 couple none
minimize	0.0 1.0e-8 100000 1000000
WARNING: Resetting reneighboring criteria during minimization (../min.cpp:168)
Neighbor list info ...
  1 neighbor list requests
  update every 1 steps, delay 0 steps, check yes
  max neighbors/atom: 2000, page size: 100000
  master list distance cutoff = 6
  ghost atom cutoff = 6
  binsize = 3 -> bins = 7 1 1
WARNING: Inconsistent image flags (../domain.cpp:785)
WARNING: Bond/angle/dihedral extent > half of periodic box length (../domain.cpp:906)
Memory usage per processor = 4.85682 Mbytes
Step Temp PotEng TotEng Press Pxx Pyy Pzz 
       0            0   -7.5928519   -7.5928519     21184.72   -11398.991    37476.575    37476.575 
     100            0   -7.7071096   -7.7071096    22376.321   -8186.9992    37657.981    37657.981 
     200            0   -7.7838849   -7.7838849    23568.618   -4973.6336    37839.744    37839.744 
     300            0   -7.8231588   -7.8231588    24761.909   -1758.3846    38022.055    38022.055 
     356            0   -7.8287659   -7.8287659    25414.677 4.5382097e-11    38122.015    38122.015 
WARNING: Bond/angle/dihedral extent > half of periodic box length (../domain.cpp:906)
Loop time of 0.0139749 on 4 procs for 356 steps with 10 atoms

96.6% CPU use with 4 MPI tasks x no OpenMP threads

Minimization stats:
  Stopping criterion = force tolerance
  Energy initial, next-to-last, final = 
        -7.59285185185     -7.82876588396     -7.82876588396
  Force two-norm initial, final = 13.2994 1.77075e-12
  Force max component initial, final = 13.2994 1.05051e-12
  Final line search alpha, max atom move = 1 1.05051e-12
  Iterations, force evaluations = 356 358

MPI task timing breakdown:
Section |  min time  |  avg time  |  max time  |%varavg| %total
---------------------------------------------------------------
Pair    | 0.0010109  | 0.0011454  | 0.0013292  |   0.4 |  8.20
Bond    | 0.00010777 | 0.00011718 | 0.00013351 |   0.1 |  0.84
Neigh   | 0          | 0          | 0          |   0.0 |  0.00
Comm    | 0.0034783  | 0.003642   | 0.0038002  |   0.2 | 26.06
Output  | 5.0068e-05 | 5.3287e-05 | 6.1989e-05 |   0.1 |  0.38
Modify  | 0          | 0          | 0          |   0.0 |  0.00
Other   |            | 0.009017   |            |       | 64.52

Nlocal:    2.5 ave 3 max 2 min
Histogram: 2 0 0 0 0 0 0 0 0 2
Nghost:    438.5 ave 439 max 438 min
Histogram: 2 0 0 0 0 0 0 0 0 2
Neighs:    145 ave 174 max 116 min
Histogram: 2 0 0 0 0 0 0 0 0 2

Total # of neighbors = 580
Ave neighs/atom = 58
Ave special neighs/atom = 6
Neighbor list builds = 0
Dangerous builds = 0
unfix		RELAX
variable length equal "lx"
print "Length in x-direction (Angstoms) = ${length};"
Length in x-direction (Angstoms) = 19.2906838114883;

# ----- Equilibration and thermalization

# assign temperature to particles
variable	T equal 0.01
velocity	all create $T 111 mom yes rot yes dist gaussian
velocity	all create 0.01 111 mom yes rot yes dist gaussian

# use a specific damping rate - observe which is stable
variable	tdamp equal 1000*${dt}
variable	tdamp equal 1000*1
fix             LANG all langevin $T $T ${tdamp} 222 zero yes
fix             LANG all langevin 0.01 $T ${tdamp} 222 zero yes
fix             LANG all langevin 0.01 0.01 ${tdamp} 222 zero yes
fix             LANG all langevin 0.01 0.01 1000 222 zero yes
fix		NVE all nve
run		100000
Neighbor list info ...
  1 neighbor list requests
  update every 1 steps, delay 10 steps, check yes
  max neighbors/atom: 2000, page size: 100000
  master list distance cutoff = 6
  ghost atom cutoff = 6
  binsize = 3 -> bins = 7 1 1
WARNING: Inconsistent image flags (../domain.cpp:785)
WARNING: Bond/angle/dihedral extent > half of periodic box length (../domain.cpp:906)
Memory usage per processor = 3.85681 Mbytes
Step Temp PotEng TotEng Press Pxx Pyy Pzz 
     356         0.01   -7.8287659   -7.8284976    25414.836   0.19845683    38122.187    38122.122 
     400   0.01645041   -7.8874141   -7.8869728    25311.441   -4.2199436    37969.519    37969.023 
     500    3.0729709   -7.9580187   -7.8755792    24996.603    -1371.098     38307.83    38053.078 
     600    17.267457   -8.4851506   -8.0219115    19120.273   -20053.969     38756.16    38658.628 
     700    8.0825625    -8.402184   -8.1853507    18051.642   -22649.681    38689.876    38114.731 
     800    11.592934   -8.5936313   -8.2826243    19894.636   -17387.759    38796.153    38275.515 
     900    11.597126   -8.5150019   -8.2038824    20704.534   -15230.842    38532.355    38812.091 
    1000    6.8859062   -8.6119243   -8.4271941    18989.843   -20002.488    38632.072    38339.946 
    1100    7.4633846   -8.4674093   -8.2671869    18974.036   -20209.462    38433.979    38697.589 
    1200    8.1695873   -8.5984374   -8.3792696    20364.073   -16401.658    38979.882    38513.994 
    1300    7.3522432   -8.6570422   -8.4598014    18940.538   -19931.059     38567.16    38185.512 
    1400    3.7506603   -8.5080067   -8.4073867    19453.114   -18685.921    38410.075    38635.188 
    1500     3.749216   -8.5611362   -8.4605549    19353.132   -18975.858    38277.975     38757.28 
    1600    5.8913933   -8.5836884   -8.4256383    19935.854   -17417.835    38698.112    38527.286 
    1700    4.3597459   -8.5928173   -8.4758572    19599.159   -18122.934    38491.612      38428.8 
    1800    3.6225715   -8.6075402   -8.5103564    19205.777   -19222.252    38372.075    38467.507 
    1900    3.1228255   -8.6548785   -8.5711016      19558.7    -18331.66     38402.76        38605 
    2000    3.1513184    -8.657889   -8.5733477    18950.694   -19981.638    38430.693    38403.027 
    2100    2.6160687   -8.6283953   -8.5582133    19171.963   -19657.304     38671.36    38501.832 
    2200    1.8861278   -8.6063546   -8.5557549    19292.879   -19348.682    38598.745    38628.575 
    2300    2.1373862   -8.6091701   -8.5518298    19353.184   -18845.289    38541.282    38363.558 
    2400    1.5701471   -8.6347501   -8.5926273    18905.933   -20288.841    38554.143    38452.498 
    2500    1.7024831   -8.6195449   -8.5738719    19664.298   -18042.251    38542.515     38492.63 
    2600    1.4168745   -8.6202792   -8.5822683    18988.749   -19929.756    38298.784    38597.219 
    2700    1.3837696   -8.5666805   -8.5295577    19644.938   -18273.818    38574.291    38634.342 
    2800    1.1308327   -8.6396152    -8.609278    18606.419   -20941.202     38514.06      38246.4 
    2900    1.0079087   -8.6430337   -8.6159942    19251.535   -19111.402    38509.132    38356.875 
    3000    1.0221339   -8.6498317   -8.6224106    19009.638   -19828.082    38371.383    38485.613 
    3100   0.81098418   -8.6336958   -8.6119393    19255.151   -19172.174    38460.897    38476.729 
    3200   0.77973823   -8.6359263    -8.615008     19196.82   -19412.426    38510.169    38492.715 
    3300   0.68481277   -8.6373016     -8.61893    19045.948   -19751.497    38633.472    38255.869 
    3400   0.46371782   -8.5501023   -8.5376621    19436.852   -18749.581    38467.745    38592.393 
    3500    0.5261769   -8.5691108   -8.5549949    19523.534   -18499.174    38630.174    38439.601 
    3600    0.5622366   -8.6159497   -8.6008664    19115.272   -19509.869    38367.596    38488.091 
    3700   0.29663611   -8.5671712   -8.5592132    19295.414   -19159.831    38475.683    38570.392 
    3800   0.45573377   -8.6321398   -8.6199137    18998.851   -19700.443    38212.496    38484.501 
    3900   0.38533959    -8.603029   -8.5926914    19361.062   -18815.459    38421.277    38477.368 
    4000   0.38761977   -8.6637353   -8.6533365     19135.74   -19312.669    38338.035    38381.855 
    4100   0.35047248   -8.6502271   -8.6408249    19431.364   -18536.159    38465.911    38364.339 
    4200   0.34561674   -8.6517397   -8.6424677    19372.954   -18757.648    38452.914    38423.596 
    4300    0.3260244   -8.6238498   -8.6151034     19394.65   -18851.872    38495.081    38540.743 
    4400   0.20110499   -8.6221247   -8.6167296    19423.759   -18699.919    38433.513    38537.684 
    4500   0.27035045   -8.6692306   -8.6619778    19192.613   -19098.314    38353.329    38322.824 
    4600   0.13389724    -8.651978   -8.6483859    19203.377   -19133.066    38344.971    38398.225 
    4700   0.20048976   -8.6401158   -8.6347372    19055.471    -19576.16    38388.657    38353.917 
    4800   0.12005016   -8.6093132   -8.6060926    19199.033   -19303.207    38417.713    38482.593 
    4900   0.16636322    -8.611243     -8.60678    19146.201   -19504.295    38433.333    38509.566 
    5000    0.1614995   -8.6561788   -8.6518462    19207.631   -19160.554    38406.762    38376.685 
    5100   0.16286531   -8.7006406   -8.6962714    19170.328   -19048.222    38145.416     38413.79 
    5200   0.20374765    -8.658522    -8.653056    19168.925   -19306.295    38426.215    38386.855 
    5300   0.17228144   -8.6881761   -8.6835543    19153.678   -19208.585    38300.333    38369.285 
    5400   0.15688904    -8.673785   -8.6695761    19216.359   -19129.522      38338.9    38439.699 
    5500   0.15641954    -8.645436   -8.6412397    19225.831    -19223.93     38376.16    38525.264 
    5600   0.12032279   -8.6742146   -8.6709866    19198.108   -19150.981     38356.78    38388.525 
    5700   0.09017922   -8.6596232   -8.6572039    19211.662    -19214.82    38417.417    38432.389 
    5800  0.072058218   -8.6301927   -8.6282595    19291.995   -19099.984    38459.624    38516.344 
    5900   0.09352624   -8.7041837   -8.7016747     19040.61   -19442.634    38406.382    38158.083 
    6000  0.074448877   -8.6746044   -8.6726071    19278.227   -18928.261    38420.689    38342.253 
    6100  0.072430112   -8.6454838   -8.6435407    19226.896   -19243.111    38461.106    38462.694 
    6200  0.070211869   -8.6311435   -8.6292599     19238.43   -19267.923     38425.06    38558.154 
    6300  0.065502425   -8.6752438   -8.6734865    19313.102   -18834.461     38438.35    38335.418 
    6400  0.038908905   -8.6309173   -8.6298735    19174.275   -19486.066    38538.008    38470.883 
    6500  0.044285382   -8.6753573   -8.6741692    19254.795   -18996.824    38429.266    38331.943 
    6600  0.045183506   -8.6609563   -8.6597441    19236.598   -19113.165    38275.193    38547.768 
    6700  0.021467402   -8.6752138   -8.6746379    19111.378   -19428.372    38454.184     38308.32 
    6800  0.031937092   -8.6317463   -8.6308895    19392.033   -18841.374    38437.708    38579.765 
    6900  0.038465565   -8.6467237   -8.6456918    19209.551   -19296.804     38522.07    38403.387 
    7000  0.042836694    -8.647078   -8.6459288    19275.339   -19112.106    38458.407    38479.717 
    7100  0.028534387    -8.690701   -8.6899355    19247.769   -18983.186    38292.392    38434.102 
    7200  0.034878644   -8.6470347    -8.646099    19211.926   -19298.452     38526.16    38408.069 
    7300  0.018087623   -8.6467342   -8.6462489    19338.978   -18907.787    38376.203    38548.517 
    7400  0.023900069   -8.6614034   -8.6607622    19188.616   -19283.767    38426.494    38423.121 
    7500  0.018637825    -8.646864    -8.646364    19325.259   -18977.585     38463.95    38489.412 
    7600  0.020119536   -8.6470723   -8.6465325    19294.162   -19067.346    38533.042    38416.791 
    7700   0.01807873   -8.6617406   -8.6612556      19244.1   -19131.017    38517.005    38346.313 
    7800  0.014926584   -8.6616707   -8.6612703    19317.886   -18935.086    38399.383    38489.361 
    7900  0.019595421   -8.7056847    -8.705159    19156.242   -19186.331    38296.442    38358.616 
    8000  0.014493425   -8.6324945   -8.6321057    19328.304   -19013.863    38518.498    38480.277 
    8100  0.013237743   -8.6325636   -8.6322084    19297.044   -19117.756    38451.073    38557.814 
    8200 0.0086809696   -8.6471694   -8.6469365    19273.947   -19131.841    38447.672    38506.009 
    8300 0.0082329143   -8.6909918   -8.6907709    19239.434   -18977.415    38289.873    38405.844 
    8400  0.011416658   -8.6472117   -8.6469054    19242.974    -19198.39    38446.334    38480.979 
    8500 0.0073465633   -8.6471389   -8.6469418    19308.342   -19030.975    38373.894    38582.107 
    8600  0.016124228   -8.6326793   -8.6322467     19318.47   -19070.125    38458.584    38566.952 
    8700  0.011066584    -8.676472   -8.6761751    19213.224   -19137.603    38289.394    38487.883 
    8800 0.0083604509   -8.6618358   -8.6616115    19300.502   -18973.265    38299.242    38575.527 
    8900 0.0091086016   -8.6910608   -8.6908165    19198.763   -19144.263    38318.424    38422.128 
    9000  0.011202781    -8.676511   -8.6762105    19245.529   -19059.347    38451.251    38344.682 
    9100  0.011134453   -8.7203302   -8.7200315    19177.145   -19020.254    38293.054    38258.636 
    9200  0.012696438   -8.6618704   -8.6615298    19255.637   -19116.194    38308.377    38574.728 
    9300  0.010454934   -8.6326333   -8.6323528    19325.578   -19061.143    38459.102    38578.774 
    9400  0.011097291   -8.6618708   -8.6615731    19247.324   -19100.652    38434.772    38407.852 
    9500  0.009041051   -8.6910389   -8.6907964    19192.854   -19118.296     38443.85    38253.008 
    9600 0.0090216356    -8.647184   -8.6469419    19309.444    -19037.69     38453.64    38512.382 
    9700  0.011139216   -8.6764588   -8.6761599    19213.351   -19141.359     38453.94    38327.471 
    9800 0.0067803424   -8.6909871   -8.6908052    19194.968   -19108.536    38360.863    38332.578 
    9900  0.013858061   -8.6910988    -8.690727    19226.062   -19046.776    38376.724     38348.24 
   10000  0.013571459   -8.6763999   -8.6760358    19251.077    -19061.32    38390.268    38424.284 
   10100  0.010756602    -8.632546   -8.6322575    19302.645   -19110.974     38449.85    38569.057 
   10200  0.020444321   -8.6765357   -8.6759872    19254.194   -19029.126    38375.876    38415.833 
   10300  0.010598226   -8.6616224   -8.6613381    19277.078   -19066.152    38313.483    38583.904 
   10400  0.017021443   -8.7203519   -8.7198953    19155.768   -19096.497    38221.279    38342.522 
   10500 0.0090501648   -8.6617324   -8.6614896    19268.464   -19046.928    38439.841    38412.479 
   10600  0.014327101   -8.6618113    -8.661427    19237.903   -19158.728    38537.171    38335.266 
   10700  0.012580131   -8.6470978   -8.6467603    19325.213   -18968.029    38438.741    38504.928 
   10800  0.011995747   -8.6616309    -8.661309     19236.74   -19133.976    38369.556    38474.641 
   10900 0.0098876544   -8.6470778   -8.6468125    19257.847    -19162.67    38444.319    38491.891 
   11000  0.014166739   -8.6617335   -8.6613534    19287.301   -19000.589    38372.271     38490.22 
   11100  0.010952106   -8.6324644   -8.6321706     19279.48   -19178.524    38523.611    38493.352 
   11200   0.01171183    -8.647149   -8.6468348    19318.304   -18998.623    38460.881    38492.652 
   11300  0.013265177   -8.6618199    -8.661464    19244.604   -19130.697    38448.173    38416.335 
   11400  0.014013617   -8.6472317   -8.6468557    19278.834   -19106.863    38376.454     38566.91 
   11500 0.0094883153   -8.6763926   -8.6761381    19280.544    -18972.79    38311.914    38502.507 
   11600  0.010577087   -8.6910354   -8.6907516    19182.826   -19159.084    38210.905    38496.656 
   11700  0.010561305   -8.6618307   -8.6615474    19299.324   -18959.595    38456.745    38400.823 
   11800 0.0061414912    -8.661778   -8.6616133    19249.355   -19134.498    38525.783     38356.78 
   11900 0.0092126671   -8.6472968   -8.6470497     19280.48     -19096.7    38454.346    38483.793 
   12000 0.0099829592   -8.6472853   -8.6470174    19309.333   -19004.791    38518.113    38414.676 
   12100 0.0059625099   -8.6179927   -8.6178327    19310.505   -19162.215    38524.516    38569.215 
   12200 0.0055917985   -8.6472332   -8.6470831    19294.613   -19062.569    38453.771    38492.637 
   12300 0.0092677305   -8.6912264   -8.6909778    19215.974   -19069.378    38381.747    38335.554 
   12400 0.0055545111   -8.6765566   -8.6764076    19232.154    -19094.42    38290.551     38500.33 
   12500 0.0079596784   -8.6766038   -8.6763903    19247.299   -19047.398    38301.191    38488.106 
   12600 0.0062177524   -8.7058046   -8.7056378    19177.327   -19107.416    38223.362    38416.035 
   12700 0.0046295789   -8.6911701   -8.6910459    19227.526   -19046.583    38380.533    38348.627 
   12800 0.0057702472   -8.6473097   -8.6471549    19283.035     -19092.6    38530.607    38411.097 
   12900 0.0045331519   -8.6619184   -8.6617968    19256.452    -19086.86    38444.319    38411.895 
   13000 0.0073402648   -8.6912081   -8.6910112    19222.289   -19059.315    38305.004    38421.179 
   13100 0.0080011332   -8.6473054   -8.6470908    19287.894   -19085.999    38530.713    38418.969 
   13200 0.0079147243   -8.6619306   -8.6617183    19269.465   -19053.228    38449.804     38411.82 
   13300 0.0078158234   -8.6472564   -8.6470467    19278.181   -19104.465    38370.398    38568.609 
   13400 0.0093344732   -8.6326713   -8.6324209    19329.105    -19038.75    38530.635     38495.43 
   13500 0.0079061163   -8.6472421     -8.64703    19275.409   -19126.455    38381.107    38571.574 
   13600 0.0079157413   -8.6472444    -8.647032    19290.401   -19067.344    38369.186    38569.361 
   13700 0.0072851236   -8.6910617   -8.6908663    19201.154   -19104.868    38373.869    38334.462 
   13800 0.0092582969   -8.7056857   -8.7054374    19194.251   -19070.818    38380.471    38273.101 
   13900  0.012704602   -8.7204387   -8.7200979    19170.056   -19049.044    38374.801    38184.411 
   14000  0.010289921    -8.676549   -8.6762729    19201.944   -19169.558    38370.174    38405.217 
   14100 0.0085415266    -8.661943   -8.6617139    19297.247   -18987.266    38454.158    38424.847 
   14200 0.0060807812   -8.7057358   -8.7055727     19174.56   -19129.413    38309.411    38343.682 
   14300 0.0060976733   -8.7056782   -8.7055146    19178.899    -19085.13     38438.09    38183.736 
   14400 0.0081349946    -8.647288   -8.6470697    19282.696   -19091.386    38531.243     38408.23 
   14500 0.0087084858   -8.6326083   -8.6323746    19324.988   -19063.657    38531.302     38507.32 
   14600 0.0085262826   -8.6326346   -8.6324059    19312.746   -19084.385      38536.7    38485.922 
   14700  0.007645509   -8.6618535   -8.6616484    19261.872   -19078.429    38443.897     38420.15 
   14800  0.010211749    -8.647314   -8.6470401    19300.921    -19050.78    38458.085    38495.459 
   14900  0.009435868    -8.676536   -8.6762829    19235.084   -19095.484    38382.912    38417.822 
   15000 0.0093632267   -8.7203518   -8.7201006    19162.759   -19069.977    38217.361    38340.894 
   15100 0.0087322766   -8.6764215   -8.6761872    19225.035   -19113.594     38378.66    38410.038 
   15200 0.0080749024   -8.6618506    -8.661634    19271.978    -19056.35     38526.52    38345.763 
   15300   0.01091713   -8.6472781   -8.6469853     19263.81   -19139.298    38522.568     38408.16 
   15400 0.0087670297    -8.676426   -8.6761908    19226.676   -19092.889    38364.084    38408.833 
   15500 0.0089485814   -8.6472522   -8.6470122     19282.59   -19099.088    38530.255    38416.604 
   15600 0.0093115818   -8.7057455   -8.7054957      19199.7   -19044.579    38221.034    38422.644 
   15700  0.011761688   -8.6911466    -8.690831    19220.437   -19054.944    38381.549    38334.705 
   15800  0.011645812   -8.6765342   -8.6762217    19230.454   -19103.887    38372.793    38422.455 
   15900  0.011323699   -8.6326358    -8.632332    19322.546   -19063.226    38531.513    38499.351 
   16000  0.009183345   -8.6471315   -8.6468852    19291.426   -19070.497    38458.601    38486.174 
   16100  0.010827838   -8.6910099   -8.6907195     19191.69   -19130.247    38209.544    38495.774 
   16200  0.010653976    -8.690965   -8.6906792    19203.645   -19088.739    38370.687    38328.987 
   16300 0.0098698763   -8.6617596   -8.6614948    19254.503   -19093.796    38444.736    38412.567 
   16400  0.012089712   -8.6618846   -8.6615603    19256.833   -19095.654    38525.376    38340.778 
   16500   0.01497337   -8.6473156   -8.6469139    19276.546    -19105.92    38448.686    38486.871 
   16600 0.0092985741   -8.6472246   -8.6469752     19295.21   -19066.459    38529.712    38422.377 
   16700 0.0093479868   -8.6326567   -8.6324059    19331.204   -19042.476     38539.73    38496.358 
   16800  0.007669947   -8.6910884   -8.6908826    19196.001   -19129.264    38376.818    38340.448 
   16900  0.007068146   -8.6911296     -8.69094    19224.538    -19040.98    38450.454    38264.141 
   17000 0.0092376764   -8.7057776   -8.7055298    19198.519   -19055.921    38461.001    38190.477 
   17100  0.013108775   -8.6327341   -8.6323824    19298.182   -19139.563    38538.077    38496.032 
   17200 0.0076245231   -8.6910539   -8.6908494    19245.101   -18971.762    38365.605    38341.462 
   17300 0.0089972188   -8.6618782   -8.6616368    19227.399   -19172.444    38520.522    38334.119 
   17400 0.0080621459   -8.6764795   -8.6762632    19238.241   -19083.148    38535.435    38262.436 
   17500  0.010332106   -8.6619266   -8.6616494    19258.151   -19083.759    38289.936    38568.277 
   17600 0.0085086331   -8.6180409   -8.6178126    19299.851   -19180.958    38519.806    38560.706 
   17700  0.010285479    -8.661898   -8.6616221    19295.779   -18987.057    38457.517    38416.878 
   17800 0.0071176292   -8.6472423   -8.6470513    19254.062   -19184.859    38449.207    38497.839 
   17900 0.0090412996   -8.6765478   -8.6763052    19254.932   -19024.676    38456.099    38333.374 
   18000  0.009207298   -8.6472704   -8.6470234     19285.41   -19096.245    38456.444    38496.031 
   18100 0.0070721871    -8.647282   -8.6470923    19309.111   -19030.469    38532.997    38424.804 
   18200 0.0088970505   -8.6765501   -8.6763114    19241.422   -19070.032    38458.907    38335.389 
   18300 0.0074245423   -8.6619408   -8.6617416    19248.419   -19119.591    38370.364    38494.486 
   18400 0.0068318847   -8.6765157   -8.6763324    19249.101   -19032.646    38367.065    38412.885 
   18500 0.0052112563   -8.6472028    -8.647063    19252.957   -19186.304    38457.131    38488.046 
   18600 0.0081556115   -8.6472668   -8.6470481    19291.973   -19070.397    38371.271    38575.046 
   18700 0.0076836992   -8.6326358   -8.6324296    19312.581   -19068.082    38441.756    38564.068 
   18800 0.0087180889   -8.7057271   -8.7054933    19179.636   -19101.384    38223.746    38416.546 
   18900 0.0099069366   -8.6765846   -8.6763188      19244.8   -19068.245    38454.946    38347.698 
   19000  0.010506595   -8.6326878   -8.6324059    19323.727   -19043.961    38527.478    38487.663 
   19100  0.008980015   -8.6619193   -8.6616784     19255.67   -19098.108     38375.67     38489.45 
   19200 0.0062881723   -8.6472879   -8.6471192    19320.996   -18996.553    38454.584    38504.957 
   19300 0.0055020599   -8.6764693   -8.6763217    19228.186   -19117.499    38462.907    38339.149 
   19400 0.0080438779   -8.6619174   -8.6617016     19266.68    -19067.76    38377.877    38489.923 
   19500  0.007411092   -8.7204195   -8.7202207    19162.704   -19072.306    38219.666    38340.752 
   19600  0.011284902   -8.6912156   -8.6909129    19212.784   -19078.987    38379.026    38338.312 
   19700 0.0068970771   -8.6618321    -8.661647    19260.048   -19090.194    38449.337    38421.002 
   19800  0.010580003   -8.6472731   -8.6469893    19265.733    -19137.96    38446.651    38488.508 
   19900 0.0070697517   -8.6179444   -8.6177547    19338.965   -19071.675    38526.388    38562.182 
   20000 0.0074382024   -8.7056655    -8.705466    19191.502   -19074.391    38220.452    38428.445 
   20100  0.012298163   -8.6180431   -8.6177131     19329.63   -19117.733    38531.875    38574.748 
   20200  0.010354326   -8.6325686   -8.6322908     19314.68   -19069.028     38536.09    38476.977 
   20300  0.013295124   -8.6619395   -8.6615828    19272.161   -19073.086    38377.222    38512.347 
   20400 0.0082274541   -8.6618697    -8.661649    19261.559   -19080.726     38457.48    38407.923 
   20500  0.011443941   -8.6911641   -8.6908571    19212.318   -19072.222    38446.744    38262.431 
   20600 0.0076181482   -8.6617297   -8.6615253    19255.639   -19103.394    38450.856    38419.455 
   20700 0.0082245389   -8.6763443   -8.6761237     19201.39   -19163.364    38445.802    38321.733 
   20800 0.0081741476   -8.7056107   -8.7053914    19200.221   -19026.435    38365.857    38261.241 
   20900  0.012698274   -8.6764709   -8.6761302    19230.532   -19107.023    38376.012    38422.607 
   21000 0.0098427247   -8.6618005   -8.6615364    19254.667    -19102.24    38535.316    38330.925 
   21100  0.012855418   -8.6618955   -8.6615506    19265.309   -19070.618    38447.101    38419.445 
   21200  0.010150592   -8.6471987   -8.6469264    19285.884   -19092.574    38530.001    38420.224 
   21300 0.0097386773   -8.6618417   -8.6615805    19293.643   -19000.262    38460.635    38420.557 
   21400 0.0080221016   -8.6764082    -8.676193    19215.314   -19141.262    38446.181    38341.023 
   21500 0.0066562799   -8.6471397   -8.6469611     19274.95    -19108.33    38372.974    38560.206 
   21600  0.010983056   -8.6472581   -8.6469635    19302.202   -19038.227    38447.968    38496.867 
   21700 0.0081160077   -8.6764458    -8.676228    19231.933   -19100.514    38452.569    38343.744 
   21800 0.0072134354   -8.6472252   -8.6470317    19296.621   -19053.769    38454.078    38489.554 
   21900 0.0094004945   -8.6911154   -8.6908633    19204.352   -19097.489    38374.677    38335.866 
   22000  0.010642202   -8.6472113   -8.6469258     19295.75   -19057.023    38442.973    38501.302 
   22100 0.0076564022   -8.7055943   -8.7053889    19181.337   -19096.496    38390.347    38250.162 
   22200   0.01120805   -8.6763622   -8.6760615    19232.473   -19083.394    38354.065    38426.748 
   22300  0.013189513    -8.661829   -8.6614752     19252.97   -19099.927    38456.741    38402.095 
   22400 0.0098307731   -8.6763934   -8.6761297    19237.003   -19091.906    38382.247    38420.667 
   22500  0.014600607   -8.6326531   -8.6322614    19304.857   -19108.304    38448.664    38574.212 
   22600  0.014463133   -8.7056871   -8.7052991    19206.708   -19008.831    38451.713     38177.24 
   22700  0.018714023   -8.6764574   -8.6759553    19207.854    -19177.85    38300.307    38501.103 
   22800  0.015619362    -8.705635    -8.705216     19213.62   -19000.529    38302.062    38339.327 
   22900  0.014329889   -8.6617512   -8.6613667    19261.846   -19088.221    38299.654    38574.104 
   23000   0.01502051   -8.6472103   -8.6468073     19261.19   -19163.816    38379.514    38567.872 
   23100 0.0091547188   -8.6324237   -8.6321781    19384.093   -18871.392    38520.153    38503.517 
   23200 0.0075508971   -8.6323546   -8.6321521    19232.679   -19321.255    38461.369    38557.922 
   23300 0.0080834368   -8.6762094   -8.6759925    19312.014   -18863.466    38447.476    38352.033 
   23400  0.012559558   -8.6471739    -8.646837    19270.128   -19140.488    38459.426    38491.446 
   23500  0.011087124   -8.6763958   -8.6760983     19251.31   -19051.416    38454.938     38350.41 
   23600  0.011429006   -8.6471756    -8.646869    19303.248   -19030.867    38454.577    38486.033 
   23700  0.010183455   -8.6618011   -8.6615279    19244.446   -19143.596    38447.824    38429.109 
   23800  0.010764474   -8.7203654   -8.7200766    19193.375   -18993.122    38386.786    38186.462 
   23900 0.0092223535   -8.6618028   -8.6615554    19231.639   -19163.795    38517.607    38341.105 
   24000  0.010713325   -8.6764541   -8.6761667    19259.914   -19016.836    38375.416    38421.164 
   24100 0.0076528849   -8.6324895   -8.6322842    19294.105   -19147.095    38542.882    38486.529 
   24200 0.0068781063   -8.7054823   -8.7052978    19199.699   -19031.768     38206.86    38424.004 
   24300 0.0082679162   -8.6470206   -8.6467988    19279.365   -19100.079    38459.325    38478.849 
   24400  0.012831552   -8.6763292    -8.675985    19233.398   -19100.776    38522.134    38278.835 
   24500  0.012815129   -8.6616714   -8.6613277    19272.212   -19044.638    38455.091    38406.182 
   24600  0.012547655    -8.690968   -8.6906313    19192.595   -19132.452    38372.576    38337.661 
   24700  0.014948085   -8.6618234   -8.6614224    19271.492    -19064.94    38456.905    38422.512 
   24800  0.013768602   -8.6326214   -8.6322521    19307.961   -19091.165    38527.121    38487.928 
   24900  0.014422527   -8.6326221   -8.6322352    19302.557   -19109.015    38523.748    38492.937 
   25000 0.0099869877   -8.6616741   -8.6614062    19283.028   -19025.774    38377.525    38497.333 
   25100  0.013482276   -8.6178629   -8.6175012    19316.149   -19149.767     38530.43    38567.782 
   25200  0.013780675   -8.6178112   -8.6174415    19343.565   -19069.873    38529.863    38570.705 
   25300  0.013948962    -8.647098   -8.6467238     19333.72   -18956.086    38526.305    38430.941 
   25400   0.01459949    -8.632494   -8.6321024    19249.097   -19256.809    38453.729    38550.372 
   25500 0.0066388414   -8.6615845   -8.6614064    19325.748   -18897.353     38368.49    38506.109 
   25600 0.0094256454   -8.6763207   -8.6760678    19196.868   -19211.852    38384.489    38417.967 
   25700  0.011554696   -8.6325685   -8.6322585    19340.301   -18995.997    38446.615    38570.284 
   25800  0.014569628   -8.6326126   -8.6322218    19308.594   -19087.405    38524.284    38488.905 
   25900  0.014229864   -8.6618035   -8.6614217      19240.6     -19166.6    38463.709    38424.691 
   26000  0.016304642   -8.6472809   -8.6468435    19326.155   -18965.789    38529.643    38414.611 
   26100 0.0080822067   -8.6324508    -8.632234    19278.395   -19174.183    38438.753    38570.615 
   26200  0.012727608   -8.6764811   -8.6761397    19254.891   -19032.412    38382.174    38414.913 
   26300 0.0094218216   -8.7057038    -8.705451    19184.392   -19097.072    38382.649      38267.6 
   26400 0.0093632736   -8.6472369   -8.6469857    19289.387   -19067.847    38365.788    38570.221 
   26500 0.0066351603   -8.6471831    -8.647005    19283.744   -19091.365    38531.987    38410.611 
   26600 0.0087491674   -8.6472837    -8.647049    19300.084   -19056.604    38453.415     38503.44 
   26700 0.0087191004   -8.7057142   -8.7054802    19187.638   -19074.442    38380.466    38256.888 
   26800  0.010603795   -8.6618782   -8.6615937    19254.414   -19103.512    38448.035    38418.719 
   26900 0.0086237783   -8.6910661   -8.6908348    19227.864   -19037.436    38534.857     38186.17 
   27000  0.010762781   -8.6764679   -8.6761791    19226.024   -19119.845    38375.307     38422.61 
   27100  0.014474721   -8.6618335   -8.6614452     19273.48   -19047.167    38298.486     38569.12 
   27200   0.01641442   -8.6617673   -8.6613269    19252.742   -19101.768    38367.432    38492.561 
   27300  0.015119818   -8.6471318   -8.6467262    19281.112   -19097.772    38445.969    38495.138 
   27400  0.010148941   -8.6616472    -8.661375    19249.161    -19117.27    38378.438    38486.315 
   27500   0.01023754   -8.6323944   -8.6321197    19322.053   -19047.898    38515.504    38498.552 
   27600  0.012390213   -8.6762344    -8.675902    19215.149   -19137.262    38380.166    38402.543 
   27700  0.016830336   -8.6471397   -8.6466882    19299.501   -19045.964    38368.953    38575.515 
   27800  0.010796197   -8.6469933   -8.6467037    19288.283   -19087.398    38459.254    38492.992 
   27900  0.018497771   -8.6618935   -8.6613973    19293.037   -19000.595      38453.8    38425.906 
   28000 0.0095488059   -8.6470703   -8.6468141    19288.941   -19081.533    38534.608    38413.748 
   28100  0.023063249   -8.6473361   -8.6467174    19294.985   -19070.921    38379.904    38575.972 
   28200  0.010898395   -8.7054952   -8.7052028    19197.175   -19048.313    38297.904    38341.935 
   28300     0.016005   -8.6765022   -8.6760728    19224.504   -19116.318    38448.144    38341.687 
   28400 0.0067769604   -8.6616811   -8.6614993    19275.661   -19044.227    38375.452    38495.759 
   28500     0.014512   -8.7058298   -8.7054405    19163.393   -19151.388    38458.214    38183.352 
   28600 0.0071828507    -8.647164   -8.6469713    19324.932   -18974.643    38447.889    38501.549 
   28700  0.014081409   -8.6619635   -8.6615858    19251.472   -19115.971     38458.26    38412.126 
   28800 0.0065890116   -8.6763747   -8.6761979    19247.472   -19051.661    38373.452    38420.626 
   28900  0.011238545   -8.6910976   -8.6907961    19221.768   -19057.996     38384.13    38339.169 
   29000 0.0099689296   -8.6764338   -8.6761663    19238.713   -19083.718     38535.78    38264.076 
   29100 0.0090372893    -8.720243   -8.7200005    19155.295   -19089.004    38294.222    38260.667 
   29200  0.013805118   -8.6911134    -8.690743    19222.166   -19043.569    38366.343    38343.725 
   29300  0.006710994   -8.7202253   -8.7200453    19134.174   -19165.573    38310.012    38258.084 
   29400  0.011813767   -8.6472343   -8.6469173    19305.434   -19031.271    38445.684     38501.89 
   29500 0.0066481054   -8.6908982   -8.6907199    19202.536   -19094.817    38448.836     38253.59 
   29600  0.014140198   -8.6472585   -8.6468792    19305.418   -19031.984    38531.952    38416.286 
   29700  0.010853818    -8.647068   -8.6467768    19287.593   -19091.612    38530.744    38423.648 
   29800    0.0174722   -8.6910908   -8.6906221    19195.477    -19125.83    38376.778    38335.481 
   29900   0.01325291   -8.6324591   -8.6321036    19323.792   -19040.435    38521.486    38490.324 
   30000  0.016632575   -8.6911155   -8.6906693    19201.864   -19110.064    38450.334    38265.323 
   30100  0.016829982   -8.6618384   -8.6613868    19283.478    -19024.12    38455.398    38419.156 
   30200  0.012452761   -8.6763427   -8.6760086    19215.731    -19145.96    38456.181    38336.972 
   30300   0.01496895    -8.661832   -8.6614305    19293.415   -18996.663    38373.001    38503.908 
   30400  0.012263742   -8.6617561   -8.6614271    19266.316   -19074.611    38385.889    38487.669 
   30500   0.01170517   -8.6911217   -8.6908076    19203.322    -19105.11    38443.971    38271.106 
   30600 0.0076317285   -8.7056572   -8.7054525    19193.186   -19057.542    38379.353    38257.748 
   30700  0.009460522   -8.6618293   -8.6615755    19251.552   -19122.593    38379.511    38497.739 
   30800 0.0077529788   -8.6325118   -8.6323039    19322.162   -19057.097    38450.672    38572.909 
   30900  0.012054543    -8.647239   -8.6469156     19308.14   -19026.446    38456.079    38494.788 
   31000  0.011190561    -8.720281   -8.7199808    19148.185   -19116.291    38220.356    38340.491 
   31100  0.013804703   -8.6911422   -8.6907718    19211.206   -19088.928     38387.31    38335.237 
   31200 0.0068653737   -8.6618261   -8.6616419    19298.903   -18977.383    38521.851    38352.242 
   31300 0.0069879721   -8.6764622   -8.6762747    19203.817     -19171.5    38455.343    38327.607 
   31400  0.006494195   -8.7056913   -8.7055171    19214.056   -18996.238    38294.926    38343.481 
   31500  0.008312314   -8.6326589   -8.6324359    19287.915   -19161.231    38530.976        38494 
   31600 0.0099966621   -8.6618989   -8.6616307    19268.514    -19054.19    38527.137    38332.594 
   31700  0.010075227   -8.6911543    -8.690884    19226.292   -19030.369    38287.639    38421.607 
   31800 0.0073929855   -8.6472015   -8.6470032    19250.838   -19202.029     38461.06    38493.483 
   31900 0.0066415448   -8.6764581   -8.6762799    19275.602   -18970.693    38455.673    38341.826 
   32000 0.0093260362   -8.6765055   -8.6762553    19219.173   -19135.779    38449.339     38343.96 
   32100 0.0054998063   -8.6618414   -8.6616939    19251.041   -19114.316    38450.573    38416.866 
   32200 0.0067214187   -8.6472459   -8.6470656    19327.836   -18961.611    38454.395    38490.724 
   32300 0.0065370446   -8.7057232   -8.7055478    19153.309   -19182.997    38370.098    38272.826 
   32400 0.0097852988   -8.6765464   -8.6762839    19244.543   -19058.631    38460.975    38331.286 
   32500 0.0076604655   -8.6764434   -8.6762379    19268.209   -18979.608    38441.545     38342.69 
   32600 0.0069732889   -8.6618731    -8.661686    19227.544   -19183.117     38293.78    38571.969 
   32700  0.004736218   -8.6910687   -8.6909416     19235.89     -19011.7    38384.502    38334.867 
   32800  0.010447735   -8.6473223    -8.647042    19276.411   -19122.633    38527.821    38424.046 
   32900 0.0083627633   -8.6911598   -8.6909354    19223.461   -19038.525     38374.25    38334.658 
   33000  0.010045282    -8.647348   -8.6470785    19284.463   -19093.648    38529.549    38417.487 
   33100 0.0065588808   -8.6764643   -8.6762884    19243.879    -19080.55    38388.243    38423.943 
   33200 0.0076816931   -8.6765148   -8.6763088    19234.656   -19092.176    38452.412    38343.733 
   33300 0.0071955485   -8.6618749   -8.6616818    19252.478   -19104.119    38525.944     38335.61 
   33400  0.011839982   -8.6911649   -8.6908473    19227.679   -19037.007    38372.962    38347.082 
   33500  0.011581229   -8.7057801   -8.7054694    19179.468   -19106.676    38305.178    38339.901 
   33600 0.0093152297    -8.676494   -8.6762441    19235.654   -19075.842    38375.319    38407.486 
   33700   0.01001655   -8.6765193   -8.6762506     19230.34    -19090.89    38515.246    38266.666 
   33800  0.007867284   -8.6910994   -8.6908884    19205.644   -19097.441    38379.613    38334.758 
   33900 0.0089297744   -8.6765178   -8.6762782    19240.603   -19071.792    38450.801    38342.799 
   34000  0.010520952   -8.6618982   -8.6616159    19257.666   -19096.217    38378.735    38490.479 
   34100 0.0084519333   -8.7056864   -8.7054596    19205.472   -19028.568    38226.185    38418.798 
   34200  0.007358164   -8.6764641   -8.6762667    19248.921   -19061.505     38385.84    38422.428 
   34300  0.007229904   -8.6910902   -8.6908962    19203.542   -19107.844    38301.534    38416.936 
   34400  0.010341385   -8.6619372   -8.6616597    19276.711   -19032.716    38450.252    38412.598 
   34500 0.0082679969    -8.647216   -8.6469942    19275.535   -19132.974     38535.61    38423.969 
   34600 0.0075543288   -8.6764818   -8.6762791    19247.191   -19056.373    38374.651    38423.296 
   34700 0.0078940294   -8.6911165   -8.6909047     19190.89   -19119.135    38444.511    38247.292 
   34800  0.010104531   -8.6473129   -8.6470418    19307.105   -19036.424    38448.942    38508.799 
   34900 0.0083169676   -8.6765072   -8.6762841    19231.294   -19109.418    38463.831    38339.467 
   35000 0.0065913239   -8.6910747   -8.6908978    19199.982   -19095.539    38285.332    38410.153 
   35100 0.0093699076   -8.6326661   -8.6324148    19316.453   -19068.827    38452.087    38566.099 
   35200 0.0071360072   -8.6471634   -8.6469719    19306.893   -19037.107    38532.387    38425.399 
   35300  0.011765562   -8.6765144   -8.6761988     19224.11    -19115.46    38451.955    38335.837 
   35400  0.011850303    -8.647258   -8.6469401    19277.304    -19095.49    38521.098    38406.304 
   35500 0.0092115281   -8.6325759   -8.6323288    19298.757   -19125.656    38527.376     38494.55 
   35600 0.0097927158   -8.6471811   -8.6469184    19307.101   -19038.344    38458.214    38501.432 
   35700  0.015119672   -8.6472792   -8.6468736    19283.561   -19088.184    38526.262    38412.605 
   35800  0.013232183   -8.6910874   -8.6907325    19185.557   -19148.015    38375.135    38329.552 
   35900  0.010170502    -8.690973   -8.6907001    19258.787   -18961.062    38225.972    38511.452 
   36000  0.011329485   -8.6617984   -8.6614944    19244.512   -19141.351    38456.978    38417.908 
   36100 0.0072511338   -8.7056119   -8.7054173     19189.86   -19052.658    38444.452    38177.787 
   36200  0.009210771   -8.6764523   -8.6762052    19231.747   -19098.759    38530.204    38263.795 
   36300  0.010337506    -8.676408   -8.6761307    19243.797   -19078.287    38385.229    38424.449 
   36400  0.013527936   -8.7057716   -8.7054087    19181.728   -19086.688    38297.168    38334.705 
   36500  0.012265725   -8.6326231    -8.632294    19314.657   -19064.434    38513.649    38494.757 
   36600  0.014838728    -8.647229   -8.6468309    19270.152   -19143.316    38542.225    38411.548 
   36700  0.012640434    -8.734968   -8.7346289    19148.846   -19047.493    38226.139    38267.893 
   36800  0.010201431   -8.6910858   -8.6908122    19219.963   -19050.346    38442.055    38268.182 
   36900  0.010822879   -8.6910935   -8.6908031    19200.027   -19119.115    38382.383    38336.814 
   37000 0.0046443639   -8.6470951   -8.6469705    19299.564   -19047.522    38451.186    38495.027 
   37100  0.013698205   -8.6472976   -8.6469301      19254.8   -19171.762    38524.524    38411.637 
   37200 0.0060018512   -8.6910134   -8.6908524    19241.935   -18988.656    38451.887    38262.576 
   37300 0.0096553457   -8.6618512   -8.6615922    19236.562   -19151.389      38522.6    38338.475 
   37400 0.0096255212   -8.6764669   -8.6762086    19258.246   -19017.105    38453.226    38338.618 
   37500  0.010172324   -8.6618669   -8.6615941    19262.849     -19091.1    38535.776     38343.87 
   37600  0.010574498   -8.6765456   -8.6762619    19229.379   -19104.479    38370.401    38422.215 
   37700 0.0061377918   -8.6763219   -8.6761572    19272.663   -18973.482    38460.313    38331.158 
   37800  0.012617583   -8.6911224   -8.6907839    19192.112   -19148.236    38373.594    38350.977 
   37900  0.011001023   -8.6618354   -8.6615403    19280.676   -19035.869    38538.101    38339.796 
   38000  0.013763883   -8.6472854   -8.6469161     19299.17    -19061.51     38461.67    38497.351 
   38100 0.0095465008   -8.6472382   -8.6469821    19276.531   -19114.435     38447.96    38496.068 
   38200 0.0067846653   -8.6764598   -8.6762778    19241.496   -19053.687     38297.68    38480.493 
   38300 0.0063171088   -8.6764776   -8.6763081    19231.112   -19096.019     38367.25    38422.106 
   38400 0.0088501488   -8.6911493   -8.6909119    19206.067   -19096.746    38377.435     38337.51 
   38500 0.0078955309   -8.6618618     -8.66165    19257.741    -19089.27    38374.225    38488.268 
   38600 0.0062465958   -8.6618547   -8.6616871    19258.035   -19090.944    38447.182    38417.865 
   38700  0.010828307   -8.6472939   -8.6470034     19308.29   -19024.385    38376.673    38572.582 
   38800 0.0099317505   -8.7057392   -8.7054728    19151.085    -19193.03     38385.07    38261.214 
   38900  0.007317258   -8.6618233    -8.661627    19297.251    -18975.71    38365.067    38502.396 
   39000 0.0074570347   -8.6764591   -8.6762591    19223.061   -19127.957    38458.088    38339.052 
   39100  0.011994448   -8.6911854   -8.6908637    19217.265   -19069.861    38306.198    38415.459 
   39200   0.01093982   -8.6619394    -8.661646    19291.219   -19000.949    38523.011    38351.594 
   39300 0.0086961095   -8.6764732   -8.6762399    19205.934   -19170.918    38380.535    38408.183 
   39400 0.0093266008   -8.6764916   -8.6762414    19260.384   -19014.122    38451.721    38343.553 
   39500  0.010551106   -8.6910834   -8.6908004    19186.527    -19153.72    38295.911     38417.39 
   39600  0.011383778   -8.6911304    -8.690825    19238.982   -18998.097    38220.833    38494.209 
   39700 0.0081101806   -8.6179822   -8.6177647     19330.87   -19094.188    38522.455    38564.345 
   39800  0.013051368   -8.6765966   -8.6762465    19230.596   -19110.049    38454.971    38346.865 
   39900 0.0091277623   -8.6764559    -8.676211    19246.971   -19060.359     38388.03    38413.241 
   40000  0.010230329   -8.6472694   -8.6469949    19272.995    -19110.32    38513.121    38416.183 
   40100  0.009557734    -8.676492   -8.6762356    19234.346   -19082.058    38373.566    38411.531 
   40200 0.0099761831   -8.6326568   -8.6323892     19315.49   -19087.361    38458.143    38575.687 
   40300 0.0097854474   -8.6618262   -8.6615637    19257.766   -19091.559    38447.386     38417.47 
   40400  0.010011598   -8.6764249   -8.6761563    19221.222   -19116.887    38297.924    38482.629 
   40500  0.012386046   -8.6618536   -8.6615214    19271.862    -19060.39     38446.95    38429.026 
   40600  0.010201451   -8.6763731   -8.6760995    19245.668   -19058.013    38462.526    38332.491 
   40700  0.010039475   -8.6909986   -8.6907293    19198.205   -19114.178    38368.772     38340.02 
   40800   0.00749676   -8.7202336   -8.7200325    19172.029   -19048.604    38300.705    38263.986 
   40900  0.009448361   -8.6618054   -8.6615519    19269.194   -19071.609    38303.151    38576.038 
   41000  0.013191916    -8.691108   -8.6907541    19213.546   -19081.676    38307.349    38414.965 
   41100  0.013107868   -8.6618711   -8.6615194    19264.161   -19065.234    38515.181    38342.535 
   41200  0.010865571   -8.6618022   -8.6615107    19250.818   -19114.907    38460.083    38407.277 
   41300  0.010728142   -8.7348959   -8.7346081    19151.314    -19049.52    38224.615    38278.847 
   41400  0.011339987    -8.661831   -8.6615268    19253.304   -19081.075    38509.779    38331.207 
   41500   0.01219265   -8.7056303   -8.7053032    19165.385   -19121.694    38218.889     38398.96 
   41600 0.0098230673   -8.6909221   -8.6906586    19240.237   -19019.825    38376.964    38363.574 
   41700  0.014913858   -8.6764286   -8.6760285    19217.505   -19130.051    38303.964    38478.603 
   41800  0.013313813   -8.6909352   -8.6905781    19224.462   -19030.304    38285.581     38418.11 
   41900   0.01131774   -8.6469868   -8.6466832    19317.734   -19034.986    38477.899    38510.289 
   42000  0.012721219   -8.6764712   -8.6761299    19234.386   -19103.327    38461.319    38345.166 
   42100  0.015659792   -8.6619372   -8.6615171    19278.903   -19015.728    38444.978    38407.457 
   42200  0.011753611   -8.6472419   -8.6469266    19267.946   -19143.936     38526.48    38421.295 
   42300  0.011040988   -8.6471994   -8.6469032    19281.645   -19102.199    38456.236    38490.898 
   42400  0.012138806   -8.6325556   -8.6322299    19307.571   -19089.439    38443.522    38568.631 
   42500 0.0095049427   -8.6617091   -8.6614541    19251.181   -19099.874    38517.335    38336.083 
   42600  0.018264422   -8.6472109   -8.6467209    19269.775    -19126.97    38456.869    38479.426 
   42700  0.012844219   -8.6472032   -8.6468586    19314.705   -19019.921    38451.653    38512.384 
   42800 0.0084740342    -8.632525   -8.6322976    19297.809   -19128.036    38538.775    38482.688 
   42900 0.0089016931   -8.6472019   -8.6469631    19306.195   -19015.954    38515.512    38419.027 
   43000 0.0095018654   -8.6472156   -8.6469607    19288.412   -19106.612    38547.255    38424.593 
   43100  0.012904633   -8.6619356   -8.6615894    19285.241   -19026.597    38301.868    38580.454 
   43200  0.014328164   -8.6910852   -8.6907008    19182.957   -19143.665    38214.382    38478.153 
   43300  0.015949346   -8.6764941   -8.6760663    19241.736   -19065.084    38522.272    38268.019 
   43400  0.013844608   -8.6471615   -8.6467901    19294.099    -19070.19    38533.768    38418.718 
   43500  0.012576284   -8.6764149   -8.6760775    19194.244   -19190.633    38362.125    38411.239 
   43600   0.01278531   -8.7056411   -8.7052981    19210.675     -18991.9    38366.028    38257.897 
   43700  0.010289331   -8.6618375   -8.6615614    19225.405   -19204.116    38538.319    38342.012 
   43800  0.013579698   -8.6765387   -8.6761744    19269.692   -18993.378    38370.725    38431.729 
   43900 0.0081367859   -8.6618489   -8.6616306    19247.483   -19112.562    38456.815    38398.196 
   44000 0.0070017067   -8.6618803   -8.6616924     19255.41    -19109.73    38448.743    38427.217 
   44100 0.0051022416   -8.6617918   -8.6616549    19297.456   -18985.062    38464.419     38413.01 
   44200 0.0093161384   -8.6472272   -8.6469773    19249.314   -19185.755    38366.017    38567.679 
   44300    0.0108043   -8.6765112   -8.6762213    19254.858   -19019.914    38296.752    38487.735 
   44400  0.013247621   -8.6473391   -8.6469837      19298.3   -19058.691     38528.79      38424.8 
   44500  0.009274018   -8.6617948    -8.661546    19230.457   -19180.828     38304.25     38567.95 
   44600 0.0088233807   -8.6910285   -8.6907918    19244.204   -18972.132    38442.999    38261.746 
   44700  0.009954189   -8.6764757   -8.6762086    19204.583   -19173.842    38373.191    38414.399 
   44800  0.010882946   -8.6764807   -8.6761888    19234.745   -19102.986     38464.42    38342.802 
   44900  0.011133937   -8.6910969   -8.6907982    19242.799   -18977.119    38362.207    38343.309 
   45000 0.0083056518   -8.6764765   -8.6762537     19189.77   -19207.211    38297.152    38479.369 
   45100 0.0088644528   -8.6326722   -8.6324344    19345.748   -19000.696    38454.505    38583.433 
   45200  0.010583985   -8.6473291   -8.6470452    19296.314   -19059.354    38376.261    38572.036 
   45300 0.0087279794    -8.705682   -8.7054479    19144.575   -19185.974    38289.794    38329.905 
   45400    0.0108999   -8.6326265   -8.6323341     19365.05    -18943.64    38461.356    38577.432 
   45500 0.0089288876   -8.6325502   -8.6323107    19282.001   -19182.281    38534.541    38493.743 
   45600  0.012299542   -8.6325963   -8.6322663    19307.537   -19077.852    38519.879    38480.585 
   45700  0.010958056   -8.6617501   -8.6614561    19268.978   -19064.156    38294.814    38576.276 
   45800  0.010560829   -8.6617814   -8.6614981    19249.214    -19129.48    38381.091    38496.032 
   45900  0.018373114    -8.661861   -8.6613681    19287.891   -19002.428    38456.126    38409.975 
   46000 0.0090397301   -8.6470024   -8.6467599    19265.191   -19145.092    38439.094    38501.571 
   46100  0.017767886   -8.6471257    -8.646649    19284.249   -19090.861    38466.585    38477.021 
   46200  0.011224913   -8.6616566   -8.6613555    19292.403   -18995.709    38447.245    38425.674 
   46300 0.0091766412   -8.7054708   -8.7052247    19147.601   -19189.365    38371.834    38260.333 
   46400   0.01220876   -8.7055359   -8.7052084    19200.343   -19022.481    38375.753    38247.756 
   46500  0.013663647   -8.6616974   -8.6613308    19239.878   -19153.587    38368.873    38504.348 
   46600  0.015741987   -8.6617565   -8.6613342    19286.243   -19019.796    38381.995     38496.53 
   46700  0.012028074   -8.6909632   -8.6906405    19171.944   -19170.638     38440.73     38245.74 
   46800 0.0093005593   -8.6616459   -8.6613964    19255.798   -19099.319    38366.882    38499.832 
   46900  0.010240384   -8.6763045   -8.6760298    19266.254   -19023.036    38468.534    38353.264 
   47000  0.014382662   -8.6617897   -8.6614038    19231.258   -19162.587    38448.105    38408.254 
   47100  0.012581592   -8.6617833   -8.6614458    19280.311   -19011.772    38437.989    38414.716 
   47200  0.015926956   -8.6617855   -8.6613582    19265.298   -19102.711    38472.306    38426.298 
   47300   0.01745444   -8.6763953   -8.6759271    19227.403   -19123.092    38306.479    38498.822 
   47400  0.013287082   -8.6617183   -8.6613619    19283.695   -18991.519    38437.707    38404.896 
   47500  0.011473713   -8.7347492   -8.7344414    19092.587   -19218.093    38231.008    38264.847 
   47600  0.013175438   -8.6471609   -8.6468075    19324.695   -18985.745     38381.16     38578.67 
   47700  0.015770307   -8.6617972   -8.6613741    19260.384   -19067.123    38362.531    38485.744 
   47800 0.0051651847   -8.6908624   -8.6907239    19160.445    -19226.41    38454.431    38253.313 
   47900  0.013991129   -8.6618533    -8.661478    19302.996   -18961.816    38447.384     38423.42 
   48000  0.012387784   -8.6764568   -8.6761244    19210.468    -19167.53    38377.946     38420.99 
   48100 0.0066528876   -8.6763194   -8.6761409    19252.325   -19043.135    38383.945    38416.164 
   48200  0.013338876   -8.6472687   -8.6469108     19302.83   -19035.831    38450.023    38494.299 
   48300  0.014821865   -8.6765393   -8.6761417    19210.379   -19167.395    38377.999    38420.532 
   48400 0.0092378971   -8.6764363   -8.6761884    19268.516   -18995.272    38460.613    38340.206 
   48500 0.0097180687   -8.7057246   -8.7054639    19160.892   -19145.918    38213.197    38415.395 
   48600  0.011120555   -8.6472561   -8.6469578    19301.326   -19043.378    38532.374    38414.983 
   48700 0.0084159665   -8.6472105   -8.6469847    19278.342   -19108.866    38454.376    38489.516 
   48800 0.0071303414   -8.6617996   -8.6616084    19254.436   -19084.976    38430.951    38417.333 
   48900 0.0081111043   -8.6764747   -8.6762571    19239.408   -19070.552    38381.774    38407.003 
   49000 0.0085224566   -8.6618825   -8.6616539    19259.821   -19101.114     38378.44    38502.137 
   49100 0.0080963557   -8.7057329   -8.7055157    19198.792   -19039.833    38373.337    38262.873 
   49200  0.006890031   -8.6910544   -8.6908695      19212.1   -19087.064    38305.688    38417.676 
   49300   0.00827091   -8.6326116   -8.6323897    19313.209   -19091.547    38536.264    38494.911 
   49400  0.011057536   -8.6472868   -8.6469902    19297.686   -19042.373    38518.527    38416.905 
   49500  0.010212364   -8.6325815   -8.6323075    19301.372   -19109.599    38456.383    38557.331 
   49600  0.011316784   -8.6618617   -8.6615581    19261.346   -19093.161    38376.065    38501.133 
   49700 0.0078774492    -8.632554   -8.6323427     19336.63   -19012.439    38528.738     38493.59 
   49800  0.010693195    -8.676516   -8.6762291    19214.693    -19141.93    38298.203    38487.807 
   49900 0.0073372057   -8.6618335   -8.6616367    19271.874   -19063.095    38526.153    38352.565 
   50000 0.0091000259   -8.6618949   -8.6616508     19268.35   -19063.628    38462.169     38406.51 
   50100 0.0068358109   -8.6326011   -8.6324178    19302.117   -19110.078    38516.871    38499.558 
   50200  0.007060906   -8.7057528   -8.7055634    19214.574   -18992.585    38371.484    38264.825 
   50300 0.0081742164   -8.6764815   -8.6762623    19200.329    -19184.68    38380.783    38404.884 
   50400  0.011930258   -8.6472659   -8.6469458    19308.292   -19031.533    38530.621    38425.787 
   50500 0.0077016978   -8.6618396    -8.661633    19275.734   -19051.718    38450.819    38428.102 
   50600  0.010201556   -8.6325945   -8.6323209    19296.703   -19113.376    38527.552    38475.933 
   50700 0.0057511645   -8.6909151   -8.6907608    19222.776   -19048.556     38367.99    38348.894 
   50800   0.01026031   -8.6472433   -8.6469681    19282.064   -19113.275    38461.217    38498.251 
   50900 0.0085547212   -8.6764745    -8.676245    19254.314   -19031.328    38378.269        38416 
   51000  0.007744787    -8.661862   -8.6616543    19253.985   -19100.584    38444.081    38418.457 
   51100 0.0090803554   -8.6326696    -8.632426    19308.818   -19095.385    38456.359    38565.481 
   51200  0.011761759   -8.6619223   -8.6616067    19258.204    -19099.27    38377.578    38496.304 
   51300  0.012322259   -8.7057813   -8.7054507    19186.969   -19073.044    38289.697    38344.254 
   51400 0.0067328965   -8.6764308   -8.6762501    19238.107   -19072.878    38299.592    38487.606 
   51500 0.0083338773   -8.6618857   -8.6616621    19268.716   -19070.581    38454.348    38422.382 
   51600 0.0066948729   -8.6472477   -8.6470681    19311.404   -19030.723      38461.8    38503.134 
   51700 0.0061344429   -8.6617822   -8.6616176    19236.667   -19143.148    38373.019    38480.132 
   51800 0.0081479609   -8.6618565   -8.6616379    19267.402   -19059.224    38367.403    38494.027 
   51900 0.0086509941   -8.6472365   -8.6470044    19302.522   -19058.126    38464.256    38501.435 
   52000  0.011900508   -8.7203603   -8.7200411    19142.969   -19124.111    38217.281    38335.737 
   52100 0.0072088364   -8.6618112   -8.6616178    19267.575   -19048.456    38442.342    38408.837 
   52200 0.0093646153   -8.6472303   -8.6469791    19300.769   -19046.654    38528.345    38420.616 
   52300  0.009136112    -8.661824   -8.6615789    19259.065   -19102.921    38458.808    38421.306 
   52400  0.010712047   -8.6618105   -8.6615232    19275.821   -19032.401    38447.015    38412.849 
   52500  0.010230054   -8.6618049   -8.6615305    19238.312   -19143.968    38449.562    38409.341 
   52600  0.012821856   -8.6764084   -8.6760644    19243.144   -19078.956    38387.451    38420.936 
   52700  0.010275281   -8.6617465   -8.6614709    19285.874   -19023.703    38376.521    38504.805 
   52800   0.01179433   -8.7056555   -8.7053391    19148.922   -19175.696    38295.487    38326.976 
   52900  0.014944826   -8.6618354   -8.6614345    19279.815   -19025.317    38450.275    38414.488 
   53000  0.013549926   -8.6763981   -8.6760346    19226.333   -19125.337    38380.635    38423.701 
   53100  0.010942049   -8.6909973   -8.6907038    19206.565   -19081.999    38366.452    38335.244 
   53200  0.013038171   -8.6617919   -8.6614421     19245.12   -19109.653    38365.713      38479.3 
   53300  0.015675337   -8.6910343   -8.6906138    19186.369   -19155.065    38446.634    38267.538 
   53400  0.011380385   -8.6617592   -8.6614539    19280.555   -19034.866    38457.914    38418.617 
   53500  0.011125334   -8.6763934    -8.676095    19226.195   -19106.865    38449.075    38336.374 
   53600  0.010724402   -8.6470812   -8.6467935    19272.569   -19112.797    38441.522    38488.984 
   53700  0.014547406   -8.6911115   -8.6907213    19236.367   -19013.934     38310.29    38412.744 
   53800 0.0096563199   -8.7056313   -8.7053723    19175.348   -19123.579    38373.149    38276.474 
   53900   0.01083677   -8.6763469   -8.6760562    19244.221   -19044.702    38294.296    38483.068 
   54000  0.010843492   -8.6471741   -8.6468832    19293.643   -19073.229    38460.759    38493.398 
   54100 0.0074207056   -8.6908591     -8.69066    19215.789    -19096.12    38304.562    38438.924 
   54200  0.016324255   -8.6765135   -8.6760756    19250.052   -19038.394    38381.704    38406.847 
   54300  0.014769771    -8.691086   -8.6906897    19202.651   -19092.916    38291.141    38409.729 
   54400  0.013355798   -8.6764541   -8.6760958    19226.841    -19120.04    38527.521    38273.042 
   54500  0.010492383   -8.6763618   -8.6760803    19275.325   -18969.815    38460.626    38335.164 
   54600 0.0088019463   -8.6325632   -8.6323271    19262.156   -19225.577    38518.654    38493.391 
   54700  0.011036353   -8.6765419   -8.6762458    19269.084   -18980.948    38295.858    38492.342 
   54800 0.0091621264   -8.6180109   -8.6177651      19316.1    -19150.51    38531.059     38567.75 
   54900 0.0099208932   -8.6618953   -8.6616292    19251.122   -19111.711    38446.894    38418.182 
   55000 0.0065062476   -8.6909987   -8.6908241    19227.745   -19023.936    38296.427    38410.744 
   55100 0.0089507389   -8.6471029   -8.6468628    19242.873   -19202.654    38443.667    38487.606 
   55200  0.013564228   -8.6911242   -8.6907603    19243.952   -18988.002    38305.381    38414.476 
   55300  0.011922196   -8.6472733   -8.6469535    19286.579   -19098.857     38448.73    38509.864 
   55400 0.0096557412   -8.6472534   -8.6469943    19298.351   -19043.681        38456    38482.733 
   55500  0.010284506   -8.6618221   -8.6615462    19258.985   -19085.967    38368.212     38494.71 
   55600 0.0091576449   -8.6471253   -8.6468796    19287.061   -19110.788    38467.627    38504.346 
   55700  0.013125268   -8.6325989   -8.6322467    19347.013    -18989.03    38460.392    38569.676 
   55800   0.01269404   -8.7056647   -8.7053242    19143.795   -19183.728    38431.193     38183.92 
   55900  0.013667181   -8.6764225   -8.6760559    19255.915   -19024.235    38304.699     38487.28 
   56000   0.01266804    -8.705595   -8.7052551    19174.303   -19136.081    38382.388    38276.602 
   56100   0.01111661   -8.6763152   -8.6760169    19224.946   -19094.108    38288.244    38480.703 
   56200   0.01165239   -8.6324717   -8.6321591     19307.69   -19072.813    38436.182    38559.701 
   56300  0.014188226   -8.6763622   -8.6759816    19206.781   -19183.488    38384.625    38419.208 
   56400  0.014081474   -8.6909447   -8.6905669    19248.542   -18975.465    38376.961     38344.13 
   56500  0.014451792   -8.6325287    -8.632141    19272.078    -19189.29    38443.466    38562.057 
   56600  0.020085342   -8.7057582   -8.7052194    19188.843    -19074.44    38374.523    38266.446 
   56700  0.012733643   -8.6325078   -8.6321662    19344.011    -19003.94     38458.38    38577.594 
   56800  0.016541318   -8.6763928   -8.6759491    19190.987   -19211.599    38294.325    38490.234 
   56900  0.017044361   -8.6179142   -8.6174569    19359.377    -19001.59    38518.383    38561.338 
   57000  0.011496636   -8.6763394    -8.676031    19223.161   -19129.386    38458.467    38340.404 
   57100  0.014145068    -8.705617   -8.7052376    19182.107   -19096.361    38296.944    38345.737 
   57200 0.0097183372   -8.6909344   -8.6906737    19234.316   -18992.067    38372.867    38322.149 
   57300 0.0098709471   -8.6763338    -8.676069    19199.675   -19191.252    38366.456    38423.821 
   57400  0.011393754   -8.6471497    -8.646844    19334.692   -18968.328    38472.129    38500.276 
   57500  0.015841658   -8.6472529   -8.6468279    19269.642   -19125.194    38520.834    38413.287 
   57600  0.014293202   -8.6471937   -8.6468103    19267.372   -19125.857    38520.585    38407.388 
   57700 0.0097923592   -8.6909826   -8.6907199    19248.968   -18992.012    38465.148    38273.768 
   57800 0.0098309908   -8.6617378    -8.661474    19219.775   -19213.386    38450.236    38422.474 
   57900  0.014764855   -8.6618048   -8.6614087    19291.753   -18974.962    38526.649    38323.573 
   58000  0.016723047   -8.6617338   -8.6612852    19241.295   -19147.085     38447.76    38423.211 
   58100  0.018498311   -8.6764071   -8.6759108    19236.254   -19101.299     38463.83     38346.23 
   58200  0.015976479   -8.6617757   -8.6613471    19282.443   -19007.288     38364.53    38490.089 
   58300  0.015026821   -8.6617189   -8.6613158    19213.276   -19206.447    38516.745    38329.531 
   58400  0.017077236   -8.6618365   -8.6613784    19303.607   -18973.108    38380.895    38503.033 
   58500  0.012934511   -8.7056377   -8.7052907    19185.466   -19099.452    38309.347    38346.501 
   58600  0.017744385   -8.6326147   -8.6321387    19300.041    -19102.26    38517.662    38484.719 
   58700  0.017605535   -8.6618384   -8.6613661    19268.157   -19059.412    38447.569    38416.316 
   58800  0.013031752   -8.6471757    -8.646826     19274.07   -19136.556    38462.023    38496.745 
   58900  0.010718861   -8.6617489   -8.6614614    19272.567   -19037.251    38438.795    38416.158 
   59000  0.010418184    -8.661725   -8.6614455     19224.87   -19173.394    38445.235    38402.771 
   59100  0.011858326   -8.6471607   -8.6468426    19287.932   -19080.848    38370.512    38574.132 
   59200  0.011216169   -8.6910281   -8.6907272    19207.105   -19102.108    38382.476    38340.949 
   59300 0.0099417508    -8.647188   -8.6469213    19291.784   -19068.119    38447.889    38495.583 
   59400  0.010550926   -8.6618023   -8.6615192    19255.716   -19088.109    38295.597    38559.661 
   59500 0.0081779491   -8.6910132   -8.6907938    19211.147   -19085.771    38301.687    38417.524 
   59600  0.009696638   -8.6325831   -8.6323229    19335.298   -19041.672    38467.068      38580.5 
   59700  0.014526841   -8.6619254   -8.6615357    19247.794   -19115.977     38372.65    38486.709 
   59800  0.015277162   -8.6911375   -8.6907277    19214.616   -19061.243    38286.945    38418.145 
   59900    0.0102363   -8.6763935   -8.6761189    19241.336   -19088.163    38467.306    38344.865 
   60000  0.013788034     -8.67656   -8.6761901    19216.141   -19135.573    38369.628    38414.367 
   60100 0.0066713626    -8.705679   -8.7055001    19190.731   -19042.368    38280.468    38334.092 
   60200  0.010151135   -8.6765183   -8.6762459    19212.747    -19150.43    38298.919    38489.753 
   60300 0.0074494783   -8.6910145   -8.6908146    19232.456    -19033.65    38386.356    38344.664 
   60400  0.012511452   -8.6619337    -8.661598    19258.905   -19088.723    38519.213    38346.225 
   60500 0.0071669314   -8.6471305   -8.6469382    19291.374   -19065.804    38537.493    38402.433 
   60600 0.0095627914   -8.6910754   -8.6908189    19219.549   -19076.763    38455.974    38279.436 
   60700  0.014193621   -8.6619133   -8.6615325    19267.412   -19078.622    38536.266    38344.594 
   60800  0.014459775   -8.6179914   -8.6176034    19350.144   -19039.922    38531.943    38558.412 
   60900  0.013530931    -8.647196    -8.646833    19250.883   -19186.271    38514.209    38424.711 
   61000   0.01056191   -8.6616743    -8.661391     19302.16   -18977.093    38543.885    38339.687 
   61100  0.014282617   -8.6764335   -8.6760504    19204.996   -19171.279    38447.275    38338.992 
   61200  0.013594079   -8.6910351   -8.6906704    19198.273   -19090.403    38279.212     38406.01 
   61300   0.01676193   -8.6618166   -8.6613669    19282.166   -19029.588    38456.092    38419.993 
   61400  0.013761405   -8.6471535   -8.6467843    19273.673   -19149.126    38388.978    38581.165 
   61500  0.018906281   -8.6472311   -8.6467239    19317.875   -18976.019    38439.253    38490.392 
   61600  0.013436393   -8.6471354   -8.6467749    19253.399   -19175.628    38454.942    38480.882 
   61700  0.004959732   -8.6469077   -8.6467746    19335.007   -18974.656    38458.784    38520.893 
   61800  0.013881393   -8.7055543   -8.7051819    19185.849   -19078.593    38455.649    38180.489 
   61900  0.016499062   -8.6617766    -8.661334    19222.391   -19175.363    38439.243    38403.293 
   62000  0.014833704   -8.6470827   -8.6466847    19331.249   -18965.184    38454.448    38504.483 
   62100  0.016001444   -8.6470619   -8.6466326    19262.285   -19167.543    38535.694    38418.703 
   62200  0.016842945   -8.6617132   -8.6612614    19252.435   -19087.541    38438.633    38406.212 
   62300  0.017982911   -8.7056307   -8.7051483    19179.674   -19083.962    38369.316    38253.666 
   62400 0.0091523349   -8.6908202   -8.6905747    19201.741   -19118.772    38450.187    38273.809 
   62500  0.014175495   -8.6909136   -8.6905333    19236.239     -19014.7    38383.777    38339.641 
   62600  0.015991826   -8.6617319   -8.6613029    19263.054     -19071.3    38439.275    38421.186 
   62700  0.017779373   -8.6909074   -8.6904304    19188.509   -19146.453    38312.128    38399.851 
   62800  0.018082212   -8.6761997   -8.6757146    19303.104   -18912.591    38455.158    38366.744 
   62900  0.022635745   -8.6617109   -8.6611037    19233.632    -19166.05    38377.825    38489.121 
   63000   0.02465182   -8.6617287   -8.6610673    19266.728   -19049.149    38525.451    38323.882 
   63100  0.018542292   -8.6761825   -8.6756851    19232.389   -19098.068    38521.272    38273.963 
   63200  0.020576561   -8.6762734   -8.6757214    19227.657   -19105.933      38376.9    38412.003 
   63300  0.016363108   -8.6469635   -8.6465245    19289.998   -19057.804    38516.568    38411.229 
   63400  0.011872605   -8.6614625    -8.661144    19222.327   -19181.307    38436.489    38411.797 
   63500 0.0093226671   -8.6614182   -8.6611681    19267.206   -19064.229    38452.635    38413.211 
   63600  0.016825461    -8.676266   -8.6758146    19225.762   -19115.618    38455.697    38337.205 
   63700  0.015362634   -8.7201279   -8.7197158    19156.393   -19086.037    38207.357    38347.859 
   63800  0.013270121   -8.6470822   -8.6467262     19285.76   -19079.839    38463.314    38473.805 
   63900  0.011980698    -8.661691   -8.6613696    19266.065   -19082.937    38447.353     38433.78 
   64000  0.017675334    -8.647197   -8.6467228    19297.065   -19056.324    38458.673    38488.847 
   64100  0.015510305   -8.6617643   -8.6613482    19234.939   -19144.609     38369.02    38480.405 
   64200   0.01341169   -8.6471216   -8.6467618    19288.931   -19078.608    38445.233    38500.168 
   64300  0.014345086   -8.6764324   -8.6760476    19256.624   -19037.963    38464.168    38343.666 
   64400  0.013569501   -8.6326072   -8.6322432    19293.371   -19133.465    38521.288    38492.291 
   64500  0.011232167   -8.6618575   -8.6615562    19257.818   -19085.651    38522.846    38336.259 
   64600 0.0077968666   -8.6764164   -8.6762072    19250.646   -19047.349    38378.108    38421.178 
   64700 0.0088470713   -8.6325781   -8.6323408    19305.144   -19114.264    38535.276     38494.42 
   64800 0.0095697166   -8.7056994   -8.7054427    19210.626    -19003.34    38294.014    38341.203 
   64900    0.0113518   -8.6472771   -8.6469726    19264.635   -19151.723    38532.876    38412.753 
   65000 0.0087230211   -8.6764292   -8.6761952     19263.79   -19013.455    38301.164     38503.66 
   65100  0.011455195   -8.7056909   -8.7053836    19165.065   -19133.359     38294.45    38334.104 
   65200 0.0084122356   -8.6910292   -8.6908035    19219.164    -19046.99    38448.684    38255.799 
   65300  0.013440252   -8.6618718   -8.6615112    19262.888   -19083.622    38444.202    38428.083 
   65400  0.011612633    -8.647214   -8.6469024    19267.382    -19134.46     38458.83    38477.777 
   65500 0.0073531214   -8.6617323   -8.6615351    19279.789   -19026.694    38360.915    38505.148 
   65600  0.010741523   -8.6471074   -8.6468193    19259.256   -19162.605    38535.822    38404.549 
   65700 0.0087192573    -8.632517   -8.6322831    19345.391   -19001.278    38456.994    38580.455 
   65800 0.0081917205   -8.6910081   -8.6907883    19191.976   -19142.518    38457.256    38261.191 
   65900 0.0085073936   -8.6472142    -8.646986    19296.344       -19052        38525    38416.031 
   66000  0.012208211   -8.7057554   -8.7054279    19186.554     -19095.2     38312.22    38342.644 
   66100  0.011333575   -8.6619237   -8.6616197    19274.085     -19054.1    38448.359    38427.997 
   66200   0.01063542   -8.6911653     -8.69088    19200.513   -19098.424    38368.569    38331.394 
   66300 0.0090091209   -8.6473356   -8.6470939    19283.695    -19100.74    38534.482    38417.344 
   66400 0.0053464543   -8.7203307   -8.7201873    19161.764   -19090.303    38222.646    38352.948 
   66500 0.0050251576   -8.6618529   -8.6617181    19251.246    -19096.62    38372.111    38478.247 
   66600 0.0069430535    -8.632719   -8.6325327    19310.331   -19088.814    38442.493    38577.313 
   66700 0.0040159656   -8.6911524   -8.6910447    19217.106   -19082.464    38236.234    38497.547 
   66800 0.0038690705   -8.6618894   -8.6617856    19268.511   -19063.194    38293.409    38575.319 
   66900 0.0049485812   -8.6619006   -8.6617678    19246.188   -19125.569    38530.474     38333.66 
   67000   0.00597439   -8.6618744   -8.6617141    19283.333   -19027.967    38372.452    38505.515 
   67100 0.0089016458   -8.6473055   -8.6470667    19278.413   -19111.346    38459.423    38487.163 
   67200  0.008302559   -8.6619158   -8.6616931    19279.217   -19034.281    38373.708    38498.226 
   67300 0.0063060624   -8.6618194   -8.6616502    19254.688   -19105.291    38450.853    38418.501 
   67400  0.010744976   -8.7204026   -8.7201144    19143.812   -19113.681    38367.826     38177.29 
   67500 0.0096380094   -8.6472646    -8.647006    19316.093   -19004.751    38529.206    38423.823 
   67600 0.0098261938   -8.6472525   -8.6469889    19264.345   -19153.659    38454.163    38492.531 
   67700 0.0091490701   -8.6473067   -8.6470613    19299.822   -19034.199    38370.946     38562.72 
   67800 0.0052043069   -8.6764182   -8.6762786    19233.958   -19110.946    38233.157    38579.664 
   67900 0.0070118701      -8.6911   -8.6909119    19228.264    -19042.61    38380.832    38346.569 
   68000  0.012029943   -8.6911307   -8.6908079     19214.01   -19067.421    38302.125    38407.325 
   68100 0.0088664729   -8.6325317   -8.6322938    19316.161   -19082.671    38523.951    38507.202 
   68200  0.010490388   -8.7056108   -8.7053293    19193.656   -19074.885    38394.044    38261.808 
   68300  0.017210507   -8.6325865   -8.6321248    19317.028   -19064.335    38521.029    38494.388 
   68400  0.012179373    -8.676357   -8.6760302    19226.051   -19105.201     38442.78    38340.575 
   68500  0.013227868   -8.6910622   -8.6907074    19216.461   -19071.902     38387.12    38334.165 
   68600 0.0078534821   -8.6325307     -8.63232    19302.362   -19111.511    38441.925    38576.672 
   68700  0.012595388   -8.6472547   -8.6469168    19287.332   -19067.554    38371.622    38557.927 
   68800   0.01198635   -8.6617935   -8.6614719    19249.284   -19132.843    38535.814     38344.88 
   68900  0.010669668   -8.6764332   -8.6761469    19245.822    -19060.64    38298.924    38499.181 
   69000  0.010548872   -8.6325931   -8.6323101     19311.02   -19068.411    38518.653    38482.817 
   69100  0.010869387   -8.6763795   -8.6760879     19219.82   -19129.191    38375.957    38412.694 
   69200  0.013159009   -8.6472421   -8.6468891    19295.792   -19072.076    38532.888    38426.564 
   69300 0.0091681043   -8.6471386   -8.6468927    19295.407   -19055.035      38532.6    38408.656 
   69400  0.011446469   -8.6910912   -8.6907841    19186.576   -19151.431    38444.894    38266.264 
   69500 0.0089130511   -8.6471838   -8.6469447    19345.693   -18929.607    38385.617    38581.071 
   69600  0.010233702   -8.6325525   -8.6322779    19284.555   -19179.657    38460.867    38572.455 
   69700  0.010045239   -8.7203395     -8.72007    19182.591   -19018.858        38223     38343.63 
   69800 0.0084132664   -8.6764467    -8.676221    19238.888     -19070.7     38446.83    38340.536 
   69900 0.0094464447   -8.6911422   -8.6908887    19195.461   -19121.116    38527.119    38180.379 
   70000  0.009233534   -8.6911005   -8.6908528    19227.221   -19033.197    38450.078    38264.782 
   70100  0.007702619   -8.6617812   -8.6615746     19243.72   -19128.706    38446.096    38413.769 
   70200 0.0078082444   -8.6617997   -8.6615903    19246.628   -19117.212    38447.849    38409.247 
   70300 0.0082513696   -8.6764169   -8.6761955    19261.338    -19006.49     38445.44    38345.065 
   70400 0.0098526963   -8.6618886   -8.6616243    19226.565   -19184.343    38301.327     38562.71 
   70500   0.01065928    -8.661843    -8.661557    19299.936   -18981.647    38531.658    38349.796 
   70600  0.008467163   -8.6470978   -8.6468707    19281.226   -19110.717    38383.062    38571.332 
   70700 0.0089963195   -8.6470829   -8.6468415    19290.352   -19071.125    38524.568    38417.613 
   70800   0.01238957   -8.6618122   -8.6614798    19276.755   -19052.845    38384.971     38498.14 
   70900   0.01696799   -8.6472837   -8.6468285    19280.464    -19102.53    38527.217    38416.705 
   71000  0.015596062   -8.6326539   -8.6322355    19308.458   -19081.822    38522.209    38484.987 
   71100  0.011965007    -8.720286    -8.719965    19143.002   -19140.558    38225.606    38343.958 
   71200  0.014375735    -8.632572   -8.6321863    19337.756   -19002.683    38445.999    38569.953 
   71300   0.01202825   -8.7056509   -8.7053283    19144.324   -19189.678    38296.516    38326.135 
   71400 0.0094011096   -8.6909922     -8.69074    19228.536   -19029.389    38516.799    38198.199 
   71500  0.008328339   -8.6763783   -8.6761549    19213.023   -19140.068    38458.257    38320.879 
   71600  0.011398013   -8.6764275   -8.6761217    19240.791   -19072.698    38440.663    38354.409 
   71700  0.012169447   -8.6471216   -8.6467951    19296.114   -19064.372    38464.787    38487.926 
   71800 0.0077646632   -8.6909045   -8.6906962    19192.088    -19129.69    38288.174     38417.78 
   71900  0.010035132   -8.6764275   -8.6761583    19251.534    -19050.48    38309.881      38495.2 
   72000  0.011491387   -8.6911133   -8.6908051    19249.095   -18990.885    38307.899    38430.272 
   72100  0.012949832   -8.6765401   -8.6761926    19218.874   -19130.218    38454.763    38332.077 
   72200  0.013374755   -8.6473294   -8.6469706     19314.86   -19006.016    38528.971    38421.624 
   72300 0.0080524611   -8.6472603   -8.6470443        19280   -19116.368    38452.853    38503.517 
   72400 0.0080516958   -8.6326911    -8.632475    19308.182    -19087.62    38531.789    38480.378 
   72500 0.0094135421   -8.6765965    -8.676344    19243.909   -19056.562    38441.476    38346.814 
   72600 0.0084984306   -8.6618524   -8.6616245    19251.694   -19119.677    38460.762    38413.997 
   72700 0.0064564102   -8.6617606   -8.6615874    19274.124   -19031.878    38359.002    38495.248 
   72800  0.010085643    -8.661827   -8.6615565    19234.449   -19153.923    38452.652    38404.618 
   72900  0.010491247   -8.6764533   -8.6761718    19241.566   -19078.957    38300.698    38502.956 
   73000  0.011296656    -8.691102   -8.6907989    19233.224   -19015.478    38529.628    38185.522 
   73100  0.010080487   -8.6472331   -8.6469627    19279.511   -19107.801    38451.092    38495.242 
   73200 0.0089576974   -8.7203551   -8.7201147    19181.436   -19023.407    38302.292    38265.421 
   73300 0.0071650454   -8.6764266   -8.6762344    19237.801   -19084.171    38301.948    38495.625 
   73400  0.010579084   -8.6618776   -8.6615938    19266.867   -19083.142    38456.922     38426.82 
   73500 0.0075631386    -8.647202   -8.6469991      19312.7   -19010.096    38380.322    38567.873 
   73600  0.010075882   -8.6764857   -8.6762154    19218.118   -19125.046      38362.7      38416.7 
   73700 0.0095950719   -8.6472958   -8.6470384    19287.262   -19093.993    38463.125    38492.654 
   73800  0.011523284   -8.6473118   -8.6470027    19307.893   -19036.518    38533.505    38426.691 
   73900 0.0074835013   -8.6471616   -8.6469609    19254.828   -19161.984    38445.379     38481.09 
   74000 0.0098861455   -8.6471736   -8.6469084    19293.465   -19062.424    38522.774    38420.045 
   74100  0.011624285   -8.7056961   -8.7053842    19196.131   -19060.685    38301.843    38347.236 
   74200  0.012335246    -8.735015    -8.734684    19116.596   -19129.446    38221.268    38257.965 
[...]
   38000         0.38    4.1932378    12.055573    -3.180523   -3.1674104   0.11249321    17.529993   -18776.673 
   39000         0.39    5.0285831    12.370268   -3.1675672     -3.17296   0.13490326    18.937452   -19836.304 
   40000          0.4    6.8862733    12.687605   -3.1433918   -3.1591106   0.18474005    20.221275   -21005.356 
   41000         0.41    5.0584688     13.01161   -3.1303273   -3.1232416   0.13570501    21.712762   -22232.228 
   42000         0.42     5.151205    13.322867   -3.1159456   -3.1228555   0.13819287    23.246014   -23304.766 
   43000         0.43    3.2236985    13.643652   -3.1153985   -3.0943195  0.086483095    24.883784    -24455.74 
   44000         0.44    6.7950724    13.956932   -3.0766589   -3.0967976   0.18229338    26.233921   -25605.644 
   45000         0.45    3.8270116    14.281996    -3.073527    -3.070085   0.10266835     27.98476   -26773.202 
   46000         0.46    6.9788029    14.583408   -3.0544388   -3.0742268   0.18722237    29.518431   -27813.939 
   47000         0.47    3.8437316    14.899372   -3.0600321   -3.0532205    0.1031169    31.415644   -28904.084 
   48000         0.48    4.0287589    15.226675   -3.0407919   -3.0123722   0.10808068    33.010763   -30178.504 
   49000         0.49    5.1276546     15.52522   -3.0228945   -3.0300654   0.13756108    34.819659   -31161.313 
   50000          0.5    5.5808647    15.844938   -3.0178226   -3.0045528   0.14971948    36.579375   -32313.719 
   51000         0.51    6.0855273    16.161468   -3.0045711   -3.0066893   0.16325821    38.417375   -33391.585 
   52000         0.52    6.8495848    16.479571   -2.9950147   -2.9987531    0.1837558    40.268603   -34495.609 
   53000         0.53    3.6974106    16.826203   -2.9575597   -2.9616652  0.099191508     42.11491   -35881.168 
   54000         0.54    4.2814399     17.14111   -2.9622137   -2.9445427   0.11485943    44.072671   -36958.149 
   55000         0.55      5.52697    17.467542   -2.9399685   -2.9325992   0.14827363    45.931942   -38144.499 
   56000         0.56    7.3392759    17.786856    -2.928808   -2.9267927   0.19689289    47.870904    -39250.78 
   57000         0.57    4.8522898    18.123702   -2.9094653   -2.8989524   0.13017379    49.932396   -40514.136 
   58000         0.58    5.7900168    18.448827   -2.8884608   -2.8817422   0.15533046    51.909214    -41709.43 
   59000         0.59    4.0761152    18.782494   -2.8652048   -2.8710256   0.10935113    54.052069   -42918.869 
   60000          0.6    7.1141077    19.103041   -2.8500788   -2.8624833   0.19085223    56.045434   -44051.251 
   61000         0.61     4.922546    19.436656   -2.8338072   -2.8213656   0.13205857    58.215603   -45337.555 
   62000         0.62    6.5209954    19.762046   -2.8253749   -2.8227601   0.17494064    60.393738   -46431.157 
   63000         0.63    5.0644116    20.095923   -2.8098255   -2.8033532   0.13586444    62.661168   -47644.526 
   64000         0.64    5.7086544    20.423086   -2.7906146   -2.7887294   0.15314773    64.879508   -48832.114 
   65000         0.65    5.7761827    20.752585   -2.7758706   -2.7780016   0.15495933     67.17916   -49999.878 
   66000         0.66    5.5107947    21.082364   -2.7524297   -2.7638473   0.14783969    69.495148   -51208.443 
   67000         0.67    5.5188981    21.412757   -2.7380166   -2.7440018   0.14805708    71.840387   -52408.054 
   68000         0.68    4.8017907    21.743449    -2.720225   -2.7212349   0.12881903    74.241711   -53629.373 
   69000         0.69    6.2496911    22.068009   -2.7180276   -2.7160282   0.16766228    76.694621   -54721.452 
   70000          0.7    4.9006281    22.400338   -2.6860434    -2.686422   0.13147057    79.127777   -56017.344 
   71000         0.71    5.4897335     22.72892   -2.6935381   -2.6656745   0.14727467    81.662529   -57141.893 
   72000         0.72    5.5572992    23.059993   -2.6641439   -2.6713317   0.14908728    84.218787    -58309.13 
   73000         0.73    5.7652354    23.392442   -2.6502497   -2.6607542   0.15466564    86.793411   -59483.306 
   74000         0.74     4.414829     23.72672   -2.6419712   -2.6339692    0.1184379    89.446606   -60698.347 
   75000         0.75    5.8589719    24.052176    -2.626898   -2.6355032   0.15718034    92.090731   -61813.552 
   76000         0.76    7.1108987    24.375047   -2.5970951    -2.614931   0.19076614    94.673312   -63041.436 
   77000         0.77    6.3435124    24.704264   -2.5961917   -2.6026123   0.17017925    97.493536   -64167.974 
   78000         0.78    8.2383521    25.020958   -2.5939261    -2.597571   0.22101266    100.27579   -65233.853 
   79000         0.79    5.5033999    25.330354   -2.5839192   -2.5761792   0.14764131    103.27778   -66354.982 
   80000          0.8    5.9820397    25.642089   -2.5737557   -2.5601511   0.16048192    106.16905   -67466.673 
   81000         0.81     6.424571    25.948036   -2.5558883   -2.5602998   0.17235383    109.13853    -68531.45 
   82000         0.82    5.7679684    26.278855   -2.5484327   -2.5359761   0.15473896    112.07136   -69724.306 
   83000         0.83    6.3743051    26.588024   -2.5357514   -2.5287985   0.17100533    115.09357   -70806.725 
   84000         0.84    5.0035782    26.926221   -2.5203251   -2.5023836   0.13423245    118.07406   -72056.953 
   85000         0.85    7.7405565    27.252059   -2.5031163   -2.5183294   0.20765816    121.06805   -73133.032 
   86000         0.86    5.7846544    27.589399   -2.5035097   -2.4751538    0.1551866    124.15239   -74383.537 
   87000         0.87    5.4633548    27.927787   -2.4691665   -2.4770451   0.14656701    127.21533   -75603.505 
   88000         0.88     4.752203    28.266704   -2.4656679   -2.4544021   0.12748873    130.35507   -76804.454 
   89000         0.89    8.5729274    28.592895   -2.4586006   -2.4714287   0.22998841    133.48343   -77844.776 
   90000          0.9     5.953581    28.930053   -2.4411517   -2.4263916   0.15971845    136.67564   -79159.501 
   91000         0.91    6.7232814    29.265355   -2.4243071   -2.4317787   0.18036742    139.91645   -80300.253 
   92000         0.92    6.9340601    29.599805   -2.4148217   -2.4205244   0.18602204     143.1948   -81468.736 
   93000         0.93    5.6409859    29.937204   -2.4108016   -2.3936715   0.15133237    146.53616   -82680.255 
   94000         0.94    7.8295869    30.270954   -2.3950603   -2.4021113    0.2100466    149.83595   -83802.229 
   95000         0.95      4.97881     30.60817   -2.3705931   -2.3731909   0.13356798    153.24962   -85087.214 
   96000         0.96    7.2555009     30.93828   -2.3638696   -2.3684409   0.19464543    156.62129   -86210.937 
   97000         0.97    6.9872774    31.275672   -2.3575087   -2.3521785   0.18744972    160.08394   -87395.294 
   98000         0.98    6.8145731    31.610878   -2.3502331   -2.3463325   0.18281653    163.62511   -88541.203 
   99000         0.99    7.7465238     31.94321    -2.329063   -2.3347003   0.20781825    167.08608   -89742.402 
  100000            1    5.4633214    32.283251   -2.3230565   -2.3129483   0.14656611     170.7291   -90952.368 
  101000         1.01    5.5108324    32.618274   -2.3063517     -2.30292    0.1478407     174.3174   -92142.454 
  102000         1.02    6.7140108    32.949781   -2.3043407   -2.2889855   0.18011872    177.94112   -93285.485 
  103000         1.03    6.4549048    33.285358   -2.2916359   -2.2817387   0.17316761    181.64143   -94455.081 
  104000         1.04     7.210432    33.619392   -2.2769362   -2.2661853   0.19343635     185.2932   -95653.493 
  105000         1.05    7.1729695    33.955647   -2.2625658   -2.2634011   0.19243134     189.0619   -96816.119 
  106000         1.06    6.3172541    34.293367   -2.2582603   -2.2551505   0.16947481    192.91901   -97968.439 
  107000         1.07    6.7673415    34.625573   -2.2451586   -2.2418701   0.18154944    196.71974   -99148.102 
  108000         1.08    7.8496294    34.956891   -2.2329413    -2.226419   0.21058429    200.52611   -100329.07 
  109000         1.09    8.9966945    35.292261   -2.2091178   -2.2253131   0.24135694    204.35339   -101514.37 
  110000          1.1    9.6026913    35.628733   -2.2152128    -2.221982   0.25761419    208.34934   -102612.18 
  111000         1.11    7.7703738    35.965345   -2.2051598    -2.205821   0.20845807    212.38944   -103805.79 
  112000         1.12     6.642846    36.301598   -2.1940987   -2.1835363   0.17820956    216.40397   -105021.67 
  113000         1.13    8.1295149    36.632896   -2.1779321    -2.179269   0.21809286    220.40014   -106178.78 
  114000         1.14    7.3342921    36.967061   -2.1740471   -2.1570212   0.19675918    224.50942   -107364.07 
  115000         1.15    4.6384674     37.30989   -2.1571836   -2.1553226   0.12443751    228.73627   -108552.95 
  116000         1.16    6.0684791    37.646629   -2.1452737   -2.1468972   0.16280085    232.81642   -109727.63 
  117000         1.17    6.8998307    37.975525   -2.1291406   -2.1327903   0.18510376    236.96436    -110909.1 
  118000         1.18    10.062817    38.303782   -2.1368903   -2.1360998   0.26995812    241.20386    -111952.6 
  119000         1.19    6.0255365    38.645667   -2.1204626   -2.1150965   0.16164882    245.57164   -113200.45 
  120000          1.2    5.8717723    38.983136   -2.1082791     -2.10671   0.15752374    249.87231   -114378.31 
  121000         1.21    7.4473656    39.317367   -2.0985289   -2.1052345   0.19979264     254.1784   -115514.77 
  122000         1.22    7.4926195    39.650465   -2.0854379    -2.086543   0.20100668    258.51887   -116715.14 
  123000         1.23    7.6520113    39.982869    -2.081448   -2.0727149   0.20528273    262.95192   -117867.28 
  124000         1.24    8.7837795    40.317669   -2.0769591   -2.0817337     0.235645    267.45463   -118953.78 
  125000         1.25    7.9171934    40.656762   -2.0641799   -2.0693292   0.21239685    271.94592   -120152.16 
  126000         1.26    4.5072614    40.994981   -2.0492477   -2.0515899   0.12091761    276.57182   -121372.29 
  127000         1.27      7.56237    41.325103   -2.0424208   -2.0437784    0.2028779     281.0321   -122506.47 
  128000         1.28    9.1326419    41.657615   -2.0418421   -2.0416953   0.24500404    285.64263    -123609.1 
  129000         1.29    7.5273146    41.993189   -2.0178566   -2.0330646   0.20193746    290.30248   -124820.36 
  130000          1.3    8.9866821    42.331172   -2.0169613    -2.027807   0.24108833    294.94659   -125952.48 
  131000         1.31     5.715151    42.670839    -2.002995   -2.0126438   0.15332202    299.75481   -127165.72 
  132000         1.32    9.5076304    42.997253   -1.9866829   -2.0073585   0.25506396    304.35212   -128310.59 
  133000         1.33     9.231037    43.330696    -1.992325   -1.9943387   0.24764371    309.21278    -129431.8 
  134000         1.34    9.2122764    43.669853   -1.9817052   -1.9929093   0.24714041    314.04543   -130587.18 
  135000         1.35    6.2671328    44.008919   -1.9766165   -1.9708211   0.16813019    318.99377   -131792.03 
  136000         1.36    8.1556453    44.341178   -1.9585347    -1.975119   0.21879386    323.83492   -132930.42 
  137000         1.37    6.3280622    44.676316   -1.9620133   -1.9523359   0.16976476     328.8568   -134096.44 
  138000         1.38    8.8879947    45.007052    -1.951654    -1.947242   0.23844082    333.73973   -135235.32 
  139000         1.39    6.3302727    45.345763   -1.9435701   -1.9372082   0.16982406    338.85571   -136409.19 
  140000          1.4    8.6574299    45.683315   -1.9392768   -1.9399271   0.23225539    343.84862   -137524.83 
  141000         1.41    7.5906916    46.017502   -1.9216834   -1.9253487   0.20363769    348.92584   -138730.06 
  142000         1.42    6.5618238    46.349118   -1.9187804   -1.9126732   0.17603595    354.12699   -139872.24 
  143000         1.43     9.496702    46.682339   -1.9097233    -1.908443   0.25477078    359.17132   -141012.16 
  144000         1.44    7.0888869    47.021555   -1.9016241   -1.8973975   0.19017563    364.45469   -142191.08 
  145000         1.45    6.3032494    47.359476   -1.9008777   -1.8918283    0.1690991    369.76098   -143323.53 
  146000         1.46    9.0525552    47.691907   -1.8890958   -1.8949787   0.24285553    374.95113   -144445.54 
  147000         1.47    6.9413637    48.023649   -1.8736224   -1.8746076   0.18621798    380.29424   -145654.81 
  148000         1.48    8.9783274    48.357013   -1.8767808   -1.8670763    0.2408642     385.6071   -146765.87 
  149000         1.49    8.0078004    48.698433   -1.8524951   -1.8700728   0.21482759    390.97963   -147959.09 
  150000          1.5    7.7591883    49.033934   -1.8549585   -1.8551512     0.208158    396.42823   -149103.79 
  151000         1.51    6.1015316    49.366093   -1.8413661    -1.845748   0.16368756    401.95191   -150272.16 
  152000         1.52    9.3241785     49.69851   -1.8427814   -1.8476344   0.25014244    407.39639   -151354.86 
  153000         1.53    8.9448574    50.034185   -1.8338345   -1.8348187   0.23996629     412.9164   -152530.74 
  154000         1.54    9.0312501    50.370843    -1.812582   -1.8347378   0.24228397    418.44648   -153708.44 
  155000         1.55    5.4816522    50.710891   -1.8184404   -1.8134183   0.14705788    424.19904   -154877.97 
  156000         1.56    6.3425612    51.042266   -1.8174429   -1.8058149   0.17015373    429.85572   -155996.41 
  157000         1.57    10.289533     51.37091   -1.8046533   -1.8145583    0.2760403    435.43759   -157090.87 
  158000         1.58    9.0445399     51.70989   -1.7885017   -1.8006716    0.2426405    441.12309   -158304.85 
  159000         1.59    6.5881953    52.050005   -1.7810017   -1.7923595   0.17674343    446.96597   -159475.76 
  160000          1.6    7.3210176    52.383315     -1.78255   -1.7901746   0.19640307    452.80417   -160574.36 
  161000         1.61    8.3123731    52.715118   -1.7729083   -1.7835789   0.22299845    458.59957   -161719.32 
  162000         1.62    7.5233077    53.048903   -1.7648287   -1.7701369   0.20182996    464.48001   -162888.19 
  163000         1.63    6.0372215    53.386942   -1.7604788   -1.7638871   0.16196229    470.46026   -164035.12 
  164000         1.64    4.3208878    53.727295   -1.7514889   -1.7524607   0.11591771     476.4255   -165221.96 
  165000         1.65     6.356691    54.058986   -1.7480812   -1.7474773   0.17053279    482.35633   -166340.74 
  166000         1.66    9.4160369    54.387514   -1.7423883   -1.7483446   0.25260676    488.31145   -167437.39 
  167000         1.67    10.307172    54.723813    -1.741953   -1.7380972    0.2765135    494.33285   -168578.87 
  168000         1.68    9.6436522    55.062155   -1.7351193   -1.7416535   0.25871306    500.49175   -169702.71 
  169000         1.69    8.9743367    55.397502   -1.7282511   -1.7243057   0.24075714    506.60026   -170885.58 
  170000          1.7    9.9415401     55.73148   -1.7213637   -1.7212307   0.26670458     512.7458   -172017.06 
  171000         1.71    11.050494    56.063267   -1.7181879   -1.7153813   0.29645482    518.93937   -173138.24 
  172000         1.72    10.839574    56.396879   -1.7048088   -1.7106019   0.29079641    525.17645   -174295.48 
  173000         1.73    10.092398    56.737366   -1.7048089   -1.7041175   0.27075168    531.49435   -175436.93 
  174000         1.74      7.14575     57.07631    -1.697467   -1.6940688   0.19170111    537.90855   -176609.18 
  175000         1.75    9.0276818    57.405104   -1.6972575   -1.6852129   0.24218824    544.23011   -177720.65 
  176000         1.76    7.9654474    57.738844   -1.6769842   -1.6731763   0.21369137    550.58042   -178924.86 
  177000         1.77    7.6865732    58.077417   -1.6802011   -1.6693002   0.20620993     557.0638   -180040.85 
  178000         1.78    6.1381136    58.415482   -1.6651271   -1.6611387   0.16466896    563.53083   -181229.43 
  179000         1.79     7.031931    58.749753   -1.6565649   -1.6660527   0.18864766     570.0425    -182341.1 
  180000          1.8     8.130372    59.080608    -1.657535   -1.6555023   0.21811585    576.57123   -183461.04 
  181000         1.81    7.7252007     59.41329   -1.6505376   -1.6434292    0.2072462     583.1484   -184618.22 
  182000         1.82    6.9045169     59.75295   -1.6378168   -1.6465133   0.18522948    589.78864   -185767.32 
  183000         1.83    9.3963033    60.090321   -1.6374009   -1.6396867   0.25207736    596.33323   -186901.01 
  184000         1.84     10.55374    60.422258   -1.6423164   -1.6350363   0.28312825    603.05308   -187992.12 
  185000         1.85    9.2621923    60.755649   -1.6306586   -1.6308349   0.24847952    609.83204   -189141.07 
  186000         1.86    8.6717069    61.089867   -1.6230624   -1.6183067    0.2326384    616.58559   -190306.76 
  187000         1.87    7.9751772    61.425644   -1.6089887   -1.6163948   0.21395239    623.39382   -191463.97 
  188000         1.88    4.8125921    61.767209   -1.6095823   -1.6025055   0.12910881    630.33481   -192631.37 
  189000         1.89    7.7749193    62.101337    -1.603885   -1.6129207   0.20858002    637.16312   -193715.05 
  190000          1.9    10.575746    62.428216   -1.6016276    -1.605411   0.28371862    644.00361   -194822.53 
  191000         1.91    9.1464952    62.763171   -1.5984525    -1.597184   0.24537568    651.02419   -195961.95 
  192000         1.92    7.1361394    63.104586   -1.5932726   -1.5856848   0.19144328    658.03915   -197139.99 
  193000         1.93    5.4624875    63.442015   -1.5823248   -1.5768061   0.14654374    665.08231   -198315.27 
  194000         1.94    11.272146    63.772016     -1.57365   -1.5856761   0.30240114    671.96168   -199400.25 
  195000         1.95    9.6057588     64.10552   -1.5752948   -1.5704451   0.25769648    679.13745   -200542.08 
  196000         1.96    9.5789076    64.439059   -1.5632149   -1.5700577   0.25697614    686.27714   -201680.36 
  197000         1.97    5.8382465    64.779593   -1.5518723   -1.5604672   0.15662433    693.53935   -202869.49 
  198000         1.98     9.418076    65.116376   -1.5593912   -1.5683094   0.25266146    700.71527   -203926.89 
  199000         1.99    8.6823946    65.448266   -1.5557508   -1.5421169   0.23292512    707.91253   -205116.86 
  200000            2    7.7397375    65.780109   -1.5463629   -1.5391141   0.20763619    715.25495    -206249.3 
WARNING: Bond/angle/dihedral extent > half of periodic box length (../domain.cpp:906)
Loop time of 2.82999 on 4 procs for 200000 steps with 10 atoms

Performance: 6106.035 ns/day, 0.004 hours/ns, 70671.702 timesteps/s
99.4% CPU use with 4 MPI tasks x no OpenMP threads

MPI task timing breakdown:
Section |  min time  |  avg time  |  max time  |%varavg| %total
---------------------------------------------------------------
Pair    | 0.17883    | 0.18781    | 0.2044     |   2.3 |  6.64
Bond    | 0.042316   | 0.04317    | 0.044991   |   0.5 |  1.53
Neigh   | 0.00073147 | 0.00075746 | 0.00078917 |   0.1 |  0.03
Comm    | 1.6226     | 1.6597     | 1.6937     |   2.2 | 58.65
Output  | 0.072498   | 0.072595   | 0.072791   |   0.0 |  2.57
Modify  | 0.15345    | 0.16141    | 0.16899    |   1.7 |  5.70
Other   |            | 0.7045     |            |       | 24.90

Nlocal:    2.5 ave 3 max 2 min
Histogram: 2 0 0 0 0 0 0 0 0 2
Nghost:    242.5 ave 243 max 242 min
Histogram: 2 0 0 0 0 0 0 0 0 2
Neighs:    35.5 ave 44 max 28 min
Histogram: 2 0 0 0 0 0 0 0 1 1
FullNghs:  0 ave 0 max 0 min
Histogram: 4 0 0 0 0 0 0 0 0 0

Total # of neighbors = 142
Ave neighs/atom = 14.2
Ave special neighs/atom = 6
Neighbor list builds = 41
Dangerous builds = 0

######################################
# SIMULATION DONE
print "All done"
All done
Total wall time: 0:00:07
