LAMMPS data file via write_data, version 17 Nov 2016, timestep = 200000

1800 atoms
1 atom types

9.3399441307964537e-01 1.6406600558691957e+02 xlo xhi
9.3399441307964537e-01 1.6406600558691957e+02 ylo yhi
0.0000000000000000e+00 5.5000000000000000e+00 zlo zhi

Masses

1 83.798

Atoms # atomic

2 1 4.0902714905801378e+00 2.2207607050556311e+00 0.0000000000000000e+00 0 0 0
33 1 6.8335392402909498e+00 5.3724613550983680e+00 0.0000000000000000e+00 0 0 0
31 1 2.7506490710928286e+00 6.1965435989067004e+00 0.0000000000000000e+00 0 0 0
3 1 8.0755520288057383e+00 1.2883247071995245e+00 0.0000000000000000e+00 0 0 0
4 1 1.0701176249996573e+01 4.4250927822347750e+00 0.0000000000000000e+00 0 0 0
35 1 1.3447666112082228e+01 7.4880246674422706e+00 0.0000000000000000e+00 0 0 0
6 1 1.4891485045584394e+01 3.5760913317847018e+00 0.0000000000000000e+00 0 0 0
34 1 9.5138246115715610e+00 8.2350062605867329e+00 0.0000000000000000e+00 0 0 0
8 1 1.9129410619175836e+01 3.4301798835904642e+00 0.0000000000000000e+00 0 0 0
37 1 1.7337195180154140e+01 6.8076286375331199e+00 0.0000000000000000e+00 0 0 0
9 1 2.2581268589567994e+01 1.2339250235425394e+00 0.0000000000000000e+00 0 0 0
39 1 2.2800431230510576e+01 5.3371684107050275e+00 0.0000000000000000e+00 0 0 0
10 1 2.6172081573499252e+01 2.9846288970248120e+00 0.0000000000000000e+00 0 0 0
40 1 2.6592544660140010e+01 6.8871641003218347e+00 0.0000000000000000e+00 0 0 0
41 1 2.9814591123334186e+01 4.7323100856157634e+00 0.0000000000000000e+00 0 0 0
12 1 3.3357603954761338e+01 2.4398492131124199e+00 0.0000000000000000e+00 0 0 0
43 1 3.3598738196236518e+01 6.4986834484558029e+00 0.0000000000000000e+00 0 0 0
14 1 3.7156323975778342e+01 4.1809067929133015e+00 0.0000000000000000e+00 0 0 0
44 1 3.7418310497129795e+01 8.1831683091416814e+00 0.0000000000000000e+00 0 0 0
15 1 4.0534194958675570e+01 2.0391978831240216e+00 0.0000000000000000e+00 0 0 0
45 1 4.0845238728104221e+01 6.0294603467258954e+00 0.0000000000000000e+00 0 0 0
16 1 4.4302148202665180e+01 3.9270638563963276e+00 0.0000000000000000e+00 0 0 0
46 1 4.4367643304569889e+01 8.0618880885425330e+00 0.0000000000000000e+00 0 0 0
18 1 4.7939902093452730e+01 6.0415791308379632e+00 0.0000000000000000e+00 0 0 0
17 1 4.7703816147314988e+01 1.9306212460545207e+00 0.0000000000000000e+00 0 0 0
20 1 5.1353363998560290e+01 4.2016369631953339e+00 0.0000000000000000e+00 0 0 0
49 1 5.1773278667723574e+01 8.1298121821299425e+00 0.0000000000000000e+00 0 0 0
51 1 5.5308930982529169e+01 6.4966849161249449e+00 0.0000000000000000e+00 0 0 0
22 1 5.8626962985665052e+01 4.0277647772373584e+00 0.0000000000000000e+00 0 0 0
21 1 5.4798995647463144e+01 2.3629285392927200e+00 0.0000000000000000e+00 0 0 0
52 1 5.9453257309607665e+01 8.2277039155384202e+00 0.0000000000000000e+00 0 0 0
24 1 6.2528165541729642e+01 5.2067304549282651e+00 0.0000000000000000e+00 0 0 0
55 1 6.6709321792374254e+01 6.2576794773106759e+00 0.0000000000000000e+00 0 0 0
894 1 6.5423997341449066e+01 2.3491435329200563e+00 0.0000000000000000e+00 0 1 0
23 1 6.1577510490518385e+01 1.2678354744354425e+00 0.0000000000000000e+00 0 0 0
25 1 6.9622650678335319e+01 3.4653515186159156e+00 0.0000000000000000e+00 0 0 0
26 1 7.0781460827852470e+01 7.2870156003542954e+00 0.0000000000000000e+00 0 0 0
27 1 7.3618376010013861e+01 4.1752588128453212e+00 0.0000000000000000e+00 0 0 0
28 1 7.4645062274873595e+01 8.1373501217435340e+00 0.0000000000000000e+00 0 0 0
29 1 7.7611454160806559e+01 5.1296238227204913e+00 0.0000000000000000e+00 0 0 0
900 1 8.0564165606206757e+01 2.3497345524814381e+00 0.0000000000000000e+00 0 1 0
30 1 8.1550084328034686e+01 6.2156567963389016e+00 0.0000000000000000e+00 0 0 0
898 1 7.6535061605170910e+01 1.3036440259378062e+00 0.0000000000000000e+00 0 1 0
32 1 5.3412700834348694e+00 9.1951517450683689e+00 0.0000000000000000e+00 0 0 0
62 1 4.1592612802380557e+00 1.3076080373170473e+01 0.0000000000000000e+00 0 0 0
61 1 1.3435034331207953e+00 1.0117175656863523e+01 0.0000000000000000e+00 0 0 0
63 1 8.1338063637669471e+00 1.2187371301967303e+01 0.0000000000000000e+00 0 0 0
65 1 1.2114314015270917e+01 1.1692434363105944e+01 0.0000000000000000e+00 0 0 0
66 1 1.4917457038624546e+01 1.4683389915223144e+01 0.0000000000000000e+00 0 0 0
64 1 1.0866462885221745e+01 1.5459225961019568e+01 0.0000000000000000e+00 0 0 0
36 1 1.5868891386868627e+01 1.0822980794077321e+01 0.0000000000000000e+00 0 0 0
38 1 1.9568871026523297e+01 1.0021650288216973e+01 0.0000000000000000e+00 0 0 0
67 1 1.8973526001049287e+01 1.3993319804279478e+01 0.0000000000000000e+00 0 0 0
68 1 2.3022389060137773e+01 1.3257494510427366e+01 0.0000000000000000e+00 0 0 0
69 1 2.3408303365936803e+01 9.2134577234233603e+00 0.0000000000000000e+00 0 0 0
71 1 2.6703682103194211e+01 1.1494584764001614e+01 0.0000000000000000e+00 0 0 0
72 1 2.9993322109122378e+01 1.3606059354790919e+01 0.0000000000000000e+00 0 0 0
70 1 2.6420240303239439e+01 1.5614339780244061e+01 0.0000000000000000e+00 0 0 0
42 1 2.9999510215378717e+01 9.0534549936042072e+00 0.0000000000000000e+00 0 0 0
73 1 3.3849656582329530e+01 1.0471888592331215e+01 0.0000000000000000e+00 0 0 0
103 1 3.3789978229520855e+01 1.4740034595639456e+01 0.0000000000000000e+00 0 0 0
74 1 3.7306337842772521e+01 1.2285055563442217e+01 0.0000000000000000e+00 0 0 0
75 1 4.0880965913714356e+01 9.9448586228389519e+00 0.0000000000000000e+00 0 0 0
77 1 4.4549487911583725e+01 1.2209639342426703e+01 0.0000000000000000e+00 0 0 0
76 1 4.0853623289261307e+01 1.4001665169689629e+01 0.0000000000000000e+00 0 0 0
47 1 4.8220458911341588e+01 1.0071856968025594e+01 0.0000000000000000e+00 0 0 0
48 1 4.8275869686145271e+01 1.4057186173608645e+01 0.0000000000000000e+00 0 0 0
50 1 5.1900726144784670e+01 1.2144505550073250e+01 0.0000000000000000e+00 0 0 0
81 1 5.5780790327746672e+01 1.0527262483601179e+01 0.0000000000000000e+00 0 0 0
82 1 5.8196981353400908e+01 1.4619215722392815e+01 0.0000000000000000e+00 0 0 0
83 1 6.1148672856186643e+01 1.1983690483304699e+01 0.0000000000000000e+00 0 0 0
53 1 6.3822941214975742e+01 9.1270142534785972e+00 0.0000000000000000e+00 0 0 0
54 1 6.5082678199421395e+01 1.3021229124956651e+01 0.0000000000000000e+00 0 0 0
56 1 6.7933886198557275e+01 1.0150485387862261e+01 0.0000000000000000e+00 0 0 0
57 1 7.1884042406960447e+01 1.1058479851577296e+01 0.0000000000000000e+00 0 0 0
85 1 6.9031186128514520e+01 1.4097941458268471e+01 0.0000000000000000e+00 0 0 0
87 1 7.3085685244065203e+01 1.4820546412213014e+01 0.0000000000000000e+00 0 0 0
58 1 7.5883037786187586e+01 1.2083071878596078e+01 0.0000000000000000e+00 0 0 0
59 1 7.8515685454835079e+01 9.2266070670952214e+00 0.0000000000000000e+00 0 0 0
89 1 7.9837103007471555e+01 1.3259308135108954e+01 0.0000000000000000e+00 0 0 0
93 1 6.7619989817424626e+00 1.6153221849136163e+01 0.0000000000000000e+00 0 0 0
92 1 5.5362432950388687e+00 1.9996027202302432e+01 0.0000000000000000e+00 0 0 0
91 1 2.8033904037695301e+00 1.6895538569442195e+01 0.0000000000000000e+00 0 0 0
121 1 1.5698321180894974e+00 2.0941345029993318e+01 0.0000000000000000e+00 0 0 0
123 1 8.2485694307757527e+00 2.3053748983493406e+01 0.0000000000000000e+00 0 0 0
94 1 9.5720692361326503e+00 1.9272335195592284e+01 0.0000000000000000e+00 0 0 0
95 1 1.3668863399755219e+01 1.8496584663868347e+01 0.0000000000000000e+00 0 0 0
125 1 1.2274342673951198e+01 2.2309450170342544e+01 0.0000000000000000e+00 0 0 0
96 1 1.6337438951915122e+01 2.1393319190754553e+01 0.0000000000000000e+00 0 0 0
97 1 1.7874936424462071e+01 1.7734384623675481e+01 0.0000000000000000e+00 0 0 0
98 1 2.0606293711386574e+01 2.0894359743930334e+01 0.0000000000000000e+00 0 0 0
99 1 2.2107707617382058e+01 1.7276317181982982e+01 0.0000000000000000e+00 0 0 0
100 1 2.7130624587451219e+01 2.0341629406554006e+01 0.0000000000000000e+00 0 0 0
101 1 3.0204133308259298e+01 1.7613153451363935e+01 0.0000000000000000e+00 0 0 0
131 1 3.0891972333855254e+01 2.1755731338847067e+01 0.0000000000000000e+00 0 0 0
102 1 3.3880541211819278e+01 1.8987235708018709e+01 0.0000000000000000e+00 0 0 0
105 1 3.7354442069081884e+01 1.6521963311126619e+01 0.0000000000000000e+00 0 0 0
106 1 3.7695354511877461e+01 2.0416418150363111e+01 0.0000000000000000e+00 0 0 0
78 1 4.4789831236664575e+01 1.6404443454646596e+01 0.0000000000000000e+00 0 0 0
107 1 4.1026331478348538e+01 1.7958131075643667e+01 0.0000000000000000e+00 0 0 0
137 1 4.1630713333374629e+01 2.1724960518094743e+01 0.0000000000000000e+00 0 0 0
108 1 4.5593782391779961e+01 2.2470309920315575e+01 0.0000000000000000e+00 0 0 0
79 1 5.1421567949057696e+01 1.6425689529232542e+01 0.0000000000000000e+00 0 0 0
109 1 4.8143605077239513e+01 1.9197916703865726e+01 0.0000000000000000e+00 0 0 0
110 1 5.2243358890585093e+01 2.0233098383799128e+01 0.0000000000000000e+00 0 0 0
111 1 5.9313145316462773e+01 1.8458061220626373e+01 0.0000000000000000e+00 0 0 0
80 1 5.5322827577132379e+01 1.7382787570770084e+01 0.0000000000000000e+00 0 0 0
141 1 5.6472356478959853e+01 2.1350782681073085e+01 0.0000000000000000e+00 0 0 0
113 1 6.2223359096109583e+01 1.5810653897349408e+01 0.0000000000000000e+00 0 0 0
143 1 6.0438508246921828e+01 2.2542772120610877e+01 0.0000000000000000e+00 0 0 0
84 1 6.6225047421697738e+01 1.7060730460335897e+01 0.0000000000000000e+00 0 0 0
112 1 6.3367625143706562e+01 1.9817530213559593e+01 0.0000000000000000e+00 0 0 0
115 1 6.7499035618895050e+01 2.0850902955629664e+01 0.0000000000000000e+00 0 0 0
86 1 7.0333560547736113e+01 1.7818739195407758e+01 0.0000000000000000e+00 0 0 0
116 1 7.1416221252760252e+01 2.1962099894106174e+01 0.0000000000000000e+00 0 0 0
117 1 7.4160006822069121e+01 1.9090066550452491e+01 0.0000000000000000e+00 0 0 0
118 1 7.5247983027406278e+01 2.3055826973419759e+01 0.0000000000000000e+00 0 0 0
88 1 7.6977567524214464e+01 1.6189651422022713e+01 0.0000000000000000e+00 0 0 0
90 1 8.0856593828872192e+01 1.7333184174180246e+01 0.0000000000000000e+00 0 0 0
119 1 7.8078847816240838e+01 2.0254686094523212e+01 0.0000000000000000e+00 0 0 0
120 1 8.2005076339326806e+01 2.1214411306071874e+01 0.0000000000000000e+00 0 0 0
122 1 4.2791876338631969e+00 2.3982442223865224e+01 0.0000000000000000e+00 0 0 0
153 1 7.0788232941967548e+00 2.7199238192118198e+01 0.0000000000000000e+00 0 0 0
152 1 3.2233770282465883e+00 2.7916619838844227e+01 0.0000000000000000e+00 0 0 0
124 1 1.1090930628923170e+01 2.6231698240595730e+01 0.0000000000000000e+00 0 0 0
126 1 1.4945622367564143e+01 2.5234266527957121e+01 0.0000000000000000e+00 0 0 0
155 1 1.3883680025288053e+01 2.9092243185843717e+01 0.0000000000000000e+00 0 0 0
154 1 9.8975515582368487e+00 3.0185956739985297e+01 0.0000000000000000e+00 0 0 0
127 1 1.8870578416416215e+01 2.4538564751315949e+01 0.0000000000000000e+00 0 0 0
128 1 2.1713685854291455e+01 2.7202802145723513e+01 0.0000000000000000e+00 0 0 0
157 1 1.7660001280420403e+01 2.8407787769690941e+01 0.0000000000000000e+00 0 0 0
129 1 2.4105740480788569e+01 2.3800055131694791e+01 0.0000000000000000e+00 0 0 0
130 1 2.8111155804731158e+01 2.4635655990737941e+01 0.0000000000000000e+00 0 0 0
159 1 2.5530263134283530e+01 2.8057667080675039e+01 0.0000000000000000e+00 0 0 0
132 1 2.9268468180885602e+01 2.9171903298315282e+01 0.0000000000000000e+00 0 0 0
104 1 3.4690469726998728e+01 2.3243759956750967e+01 0.0000000000000000e+00 0 0 0
133 1 3.1796245586947251e+01 2.6021160520854878e+01 0.0000000000000000e+00 0 0 0
134 1 3.5801989343416032e+01 2.7249159441249304e+01 0.0000000000000000e+00 0 0 0
163 1 3.3049109039190270e+01 3.0173872328305716e+01 0.0000000000000000e+00 0 0 0
135 1 3.8524659943487869e+01 2.4313474301280660e+01 0.0000000000000000e+00 0 0 0
136 1 4.2711450991138356e+01 2.5470517752589387e+01 0.0000000000000000e+00 0 0 0
165 1 3.9739320869637936e+01 2.8296524057352698e+01 0.0000000000000000e+00 0 0 0
167 1 4.3690652581091769e+01 2.9258210987839206e+01 0.0000000000000000e+00 0 0 0
139 1 4.9563057322402898e+01 2.3289095524360338e+01 0.0000000000000000e+00 0 0 0
138 1 4.6589767939509592e+01 2.6425775214586430e+01 0.0000000000000000e+00 0 0 0
169 1 5.0495268968064494e+01 2.7154503914758063e+01 0.0000000000000000e+00 0 0 0
168 1 4.7871861637364766e+01 3.0392438935273283e+01 0.0000000000000000e+00 0 0 0
140 1 5.3409462556959106e+01 2.4085879817368518e+01 0.0000000000000000e+00 0 0 0
142 1 5.7543618246386096e+01 2.5315351441544273e+01 0.0000000000000000e+00 0 0 0
171 1 5.4506840614434303e+01 2.8029386550783869e+01 0.0000000000000000e+00 0 0 0
172 1 5.8528453181339351e+01 2.9256880791438192e+01 0.0000000000000000e+00 0 0 0
114 1 6.4439047732309959e+01 2.3725651101821150e+01 0.0000000000000000e+00 0 0 0
144 1 6.5402089234753916e+01 2.7453828983700443e+01 0.0000000000000000e+00 0 0 0
173 1 6.1392386563632563e+01 2.6379975006927172e+01 0.0000000000000000e+00 0 0 0
174 1 6.2399975216606229e+01 3.0286104619809798e+01 0.0000000000000000e+00 0 0 0
145 1 6.8431491270076208e+01 2.4689373679849520e+01 0.0000000000000000e+00 0 0 0
146 1 6.9421575181529860e+01 2.8745757695051601e+01 0.0000000000000000e+00 0 0 0
147 1 7.2509846603205148e+01 2.5875342221510344e+01 0.0000000000000000e+00 0 0 0
177 1 7.3472342704238358e+01 2.9636585680352983e+01 0.0000000000000000e+00 0 0 0
149 1 7.9187569657626412e+01 2.4146573795911369e+01 0.0000000000000000e+00 0 0 0
148 1 7.6381231795595653e+01 2.6974561105445243e+01 0.0000000000000000e+00 0 0 0
150 1 8.0303114657196915e+01 2.8022746498949324e+01 0.0000000000000000e+00 0 0 0
183 1 5.7798097446751440e+00 3.0951344851860583e+01 0.0000000000000000e+00 0 0 0
182 1 4.5720696306215185e+00 3.4877360609903647e+01 0.0000000000000000e+00 0 0 0
181 1 1.9238782303538207e+00 3.1805711423499641e+01 0.0000000000000000e+00 0 0 0
213 1 7.4741243833129971e+00 3.8036072329729578e+01 0.0000000000000000e+00 0 0 0
184 1 8.5463243327197969e+00 3.4076330899201075e+01 0.0000000000000000e+00 0 0 0
185 1 1.2503480996503018e+01 3.3198515591002000e+01 0.0000000000000000e+00 0 0 0
215 1 1.1382444802098266e+01 3.7176946253767689e+01 0.0000000000000000e+00 0 0 0
186 1 1.5798036976668831e+01 3.6747904569382321e+01 0.0000000000000000e+00 0 0 0
156 1 1.6465956207433912e+01 3.2042456074819427e+01 0.0000000000000000e+00 0 0 0
160 1 2.2458359731329487e+01 3.1234965674174795e+01 0.0000000000000000e+00 0 0 0
158 1 1.9567527915182833e+01 3.4291430926628905e+01 0.0000000000000000e+00 0 0 0
189 1 2.3413681048919170e+01 3.5283393965096408e+01 0.0000000000000000e+00 0 0 0
161 1 2.6358080051701105e+01 3.1996631771604591e+01 0.0000000000000000e+00 0 0 0
191 1 2.7305630233490941e+01 3.5982740500040293e+01 0.0000000000000000e+00 0 0 0
162 1 3.0230379723521672e+01 3.3242679720742544e+01 0.0000000000000000e+00 0 0 0
164 1 3.6826655289069024e+01 3.1134358706282850e+01 0.0000000000000000e+00 0 0 0
193 1 3.4034042423360631e+01 3.4034413558289799e+01 0.0000000000000000e+00 0 0 0
192 1 3.1297967238807299e+01 3.6984817621558712e+01 0.0000000000000000e+00 0 0 0
194 1 3.5159664970827777e+01 3.7929568653843795e+01 0.0000000000000000e+00 0 0 0
195 1 3.7997721970468774e+01 3.5026210521773514e+01 0.0000000000000000e+00 0 0 0
166 1 4.0916868597969817e+01 3.2079479666455583e+01 0.0000000000000000e+00 0 0 0
196 1 4.2037869183278431e+01 3.6121563538754231e+01 0.0000000000000000e+00 0 0 0
197 1 4.4906021560483865e+01 3.3104491959243305e+01 0.0000000000000000e+00 0 0 0
170 1 5.1841216147972069e+01 3.1001441881581513e+01 0.0000000000000000e+00 0 0 0
199 1 4.8997361881334115e+01 3.4188749824755874e+01 0.0000000000000000e+00 0 0 0
198 1 4.6002239187532780e+01 3.6961727033545870e+01 0.0000000000000000e+00 0 0 0
229 1 5.0163399649413513e+01 3.7902911721362123e+01 0.0000000000000000e+00 0 0 0
200 1 5.2966917467398012e+01 3.4954669503518140e+01 0.0000000000000000e+00 0 0 0
201 1 5.5848988172793632e+01 3.2095051558296589e+01 0.0000000000000000e+00 0 0 0
202 1 5.6885208128272907e+01 3.5957073906670793e+01 0.0000000000000000e+00 0 0 0
203 1 5.9822972757075810e+01 3.3243495641888693e+01 0.0000000000000000e+00 0 0 0
175 1 6.6409869492082592e+01 3.1361530876693603e+01 0.0000000000000000e+00 0 0 0
233 1 6.0961585680659027e+01 3.7088334935427909e+01 0.0000000000000000e+00 0 0 0
204 1 6.3654106505813161e+01 3.4125416977907214e+01 0.0000000000000000e+00 0 0 0
205 1 6.7706591413007573e+01 3.5323512144852053e+01 0.0000000000000000e+00 0 0 0
176 1 7.0485685553896872e+01 3.2590943150363067e+01 0.0000000000000000e+00 0 0 0
207 1 7.1617996988205320e+01 3.6513295847383482e+01 0.0000000000000000e+00 0 0 0
178 1 7.4583175926475164e+01 3.3515661686798175e+01 0.0000000000000000e+00 0 0 0
179 1 7.7442646731730079e+01 3.0697889197395778e+01 0.0000000000000000e+00 0 0 0
208 1 7.5604340403749831e+01 3.7525035325193372e+01 0.0000000000000000e+00 0 0 0
180 1 8.1463191255403117e+01 3.1773641736787489e+01 0.0000000000000000e+00 0 0 0
209 1 7.8594149398446817e+01 3.4676137196195548e+01 0.0000000000000000e+00 0 0 0
212 1 3.4404530278276511e+00 3.8612927390395555e+01 0.0000000000000000e+00 0 0 0
243 1 6.4578573607293892e+00 4.2063333909778628e+01 0.0000000000000000e+00 0 0 0
241 1 2.2731275977267713e+00 4.2462759490952557e+01 0.0000000000000000e+00 0 0 0
216 1 1.3689912199823475e+01 4.0438997952978227e+01 0.0000000000000000e+00 0 0 0
214 1 1.0575281186874037e+01 4.3259543900723806e+01 0.0000000000000000e+00 0 0 0
247 1 1.4836699107407066e+01 4.4257038965257941e+01 0.0000000000000000e+00 0 0 0
187 1 2.0482617238557012e+01 3.8197173162953604e+01 0.0000000000000000e+00 0 0 0
188 1 2.1611181753469900e+01 4.1947320158053572e+01 0.0000000000000000e+00 0 0 0
217 1 1.7514653907271860e+01 4.1224988349651390e+01 0.0000000000000000e+00 0 0 0
218 1 1.8890984433691028e+01 4.4975373262448393e+01 0.0000000000000000e+00 0 0 0
190 1 2.4714126743030576e+01 3.9048987539894902e+01 0.0000000000000000e+00 0 0 0
221 1 2.8472784660928419e+01 3.9910835290355585e+01 0.0000000000000000e+00 0 0 0
220 1 2.5517613338783494e+01 4.2923446925209177e+01 0.0000000000000000e+00 0 0 0
222 1 2.9500498713677150e+01 4.3892748173205256e+01 0.0000000000000000e+00 0 0 0
223 1 3.2405341076483772e+01 4.0853301463400733e+01 0.0000000000000000e+00 0 0 0
224 1 3.6309956563292566e+01 4.1992501803451411e+01 0.0000000000000000e+00 0 0 0
253 1 3.3446467952368280e+01 4.4791663506021564e+01 0.0000000000000000e+00 0 0 0
225 1 3.9157093803553224e+01 3.8921118844407196e+01 0.0000000000000000e+00 0 0 0
227 1 4.3305734282837427e+01 4.0025891984578180e+01 0.0000000000000000e+00 0 0 0
226 1 4.0254277045284383e+01 4.2826665784610391e+01 0.0000000000000000e+00 0 0 0
257 1 4.4418211852290334e+01 4.3921426683427988e+01 0.0000000000000000e+00 0 0 0
228 1 4.7192249318220803e+01 4.0891080819948776e+01 0.0000000000000000e+00 0 0 0
230 1 5.1215871581419904e+01 4.1634730224158112e+01 0.0000000000000000e+00 0 0 0
259 1 4.8512897946085509e+01 4.4827800726845894e+01 0.0000000000000000e+00 0 0 0
231 1 5.4249310451620303e+01 3.8853395738005965e+01 0.0000000000000000e+00 0 0 0
232 1 5.8161655898557356e+01 3.9943552638740442e+01 0.0000000000000000e+00 0 0 0
261 1 5.5187104082231428e+01 4.2798997118284419e+01 0.0000000000000000e+00 0 0 0
263 1 5.9365176084779684e+01 4.3832659052930886e+01 0.0000000000000000e+00 0 0 0
235 1 6.4936424922520800e+01 3.8157311649353773e+01 0.0000000000000000e+00 0 0 0
234 1 6.2097309249526404e+01 4.0977027883688265e+01 0.0000000000000000e+00 0 0 0
265 1 6.6134061318970481e+01 4.2130637154465532e+01 0.0000000000000000e+00 0 0 0
264 1 6.3254976866063764e+01 4.4937656542135805e+01 0.0000000000000000e+00 0 0 0
206 1 6.8805195736363416e+01 3.9290047111259028e+01 0.0000000000000000e+00 0 0 0
236 1 7.0044815659807355e+01 4.3050586158937087e+01 0.0000000000000000e+00 0 0 0
237 1 7.2711664899109635e+01 4.0309533573868869e+01 0.0000000000000000e+00 0 0 0
238 1 7.4068317417748673e+01 4.4207916993817918e+01 0.0000000000000000e+00 0 0 0
210 1 7.9703658009323192e+01 3.8588431887193678e+01 0.0000000000000000e+00 0 0 0
239 1 7.6830614001139153e+01 4.1343050391657272e+01 0.0000000000000000e+00 0 0 0
240 1 8.0980851926572157e+01 4.2485075956169247e+01 0.0000000000000000e+00 0 0 0
242 1 1.1649705916071638e+00 4.8828419396977296e+01 0.0000000000000000e+00 0 0 0
244 1 7.9236597519095469e+00 4.6208148644327757e+01 0.0000000000000000e+00 0 0 0
273 1 3.9928342892952027e+00 4.5836280907948975e+01 0.0000000000000000e+00 0 0 0
271 1 2.3493188409704575e+00 5.2751791164042992e+01 0.0000000000000000e+00 0 0 0
275 1 5.2937391690924782e+00 4.9500280649169255e+01 0.0000000000000000e+00 0 0 0
245 1 1.1916126030530258e+01 4.7220469606160535e+01 0.0000000000000000e+00 0 0 0
246 1 9.2466241286564657e+00 5.0217494600650831e+01 0.0000000000000000e+00 0 0 0
276 1 1.3085113898444710e+01 5.1101718732240542e+01 0.0000000000000000e+00 0 0 0
248 1 1.5992099901895205e+01 4.8132157939343728e+01 0.0000000000000000e+00 0 0 0
219 1 2.2800168337133126e+01 4.5905789635767583e+01 0.0000000000000000e+00 0 0 0
249 1 1.9964706879867173e+01 4.8945677889488493e+01 0.0000000000000000e+00 0 0 0
277 1 1.7179474882811650e+01 5.1998983512764838e+01 0.0000000000000000e+00 0 0 0
279 1 2.1249542491314514e+01 5.2961657205905269e+01 0.0000000000000000e+00 0 0 0
251 1 2.6840698352457384e+01 4.6874090299077089e+01 0.0000000000000000e+00 0 0 0
250 1 2.4065403153993337e+01 4.9908752354822390e+01 0.0000000000000000e+00 0 0 0
281 1 2.8088686436447929e+01 5.0778802284606456e+01 0.0000000000000000e+00 0 0 0
252 1 3.0796755797780918e+01 4.7848113779418597e+01 0.0000000000000000e+00 0 0 0
254 1 3.4678284257757639e+01 4.8764520440088276e+01 0.0000000000000000e+00 0 0 0
283 1 3.1976284892729936e+01 5.1699968445715633e+01 0.0000000000000000e+00 0 0 0
255 1 3.7595160679254398e+01 4.5820608260099682e+01 0.0000000000000000e+00 0 0 0
284 1 3.6164035851060028e+01 5.2451104761734911e+01 0.0000000000000000e+00 0 0 0
256 1 4.1650199014596403e+01 4.6800920218367715e+01 0.0000000000000000e+00 0 0 0
285 1 3.8952807050960949e+01 4.9668073002520025e+01 0.0000000000000000e+00 0 0 0
287 1 4.2958577538237193e+01 5.0556793935727349e+01 0.0000000000000000e+00 0 0 0
258 1 4.5666366390052339e+01 4.7791158376766269e+01 0.0000000000000000e+00 0 0 0
260 1 5.2446556983648883e+01 4.5658737584130584e+01 0.0000000000000000e+00 0 0 0
288 1 4.6958783503691564e+01 5.1589797890115129e+01 0.0000000000000000e+00 0 0 0
289 1 4.9758735297447302e+01 4.8746926340243888e+01 0.0000000000000000e+00 0 0 0
290 1 5.0891898167509900e+01 5.2521880441720604e+01 0.0000000000000000e+00 0 0 0
291 1 5.3645611209579727e+01 4.9571390081582109e+01 0.0000000000000000e+00 0 0 0
262 1 5.6314804817474233e+01 4.6673282242075864e+01 0.0000000000000000e+00 0 0 0
292 1 5.7599629576472275e+01 5.0510453476382381e+01 0.0000000000000000e+00 0 0 0
293 1 6.0431261884064966e+01 4.7688242856278379e+01 0.0000000000000000e+00 0 0 0
266 1 6.7330744885384760e+01 4.5827984204009141e+01 0.0000000000000000e+00 0 0 0
295 1 6.4513786555957608e+01 4.8674178887667921e+01 0.0000000000000000e+00 0 0 0
294 1 6.1799751388660496e+01 5.1588811664373594e+01 0.0000000000000000e+00 0 0 0
296 1 6.5677702062810212e+01 5.2769000120038974e+01 0.0000000000000000e+00 0 0 0
297 1 6.8602679409722057e+01 4.9805671093439422e+01 0.0000000000000000e+00 0 0 0
267 1 7.1309200520059235e+01 4.6859525669853106e+01 0.0000000000000000e+00 0 0 0
298 1 7.2408922607369149e+01 5.0887564904547730e+01 0.0000000000000000e+00 0 0 0
269 1 7.8209397696980275e+01 4.5205672220908674e+01 0.0000000000000000e+00 0 0 0
268 1 7.5392561585464549e+01 4.8187423189587236e+01 0.0000000000000000e+00 0 0 0
1141 1 8.2113297530940287e+01 4.6457324154636375e+01 0.0000000000000000e+00 0 0 0
270 1 7.9288255353398526e+01 4.9342665209273662e+01 0.0000000000000000e+00 0 0 0
299 1 7.6406187849771285e+01 5.2155877834065507e+01 0.0000000000000000e+00 0 0 0
272 1 6.4520784258276151e+00 5.3331342475659206e+01 0.0000000000000000e+00 0 0 0
301 1 3.7531981063280782e+00 5.6502589461718422e+01 0.0000000000000000e+00 0 0 0
303 1 7.7091573971982594e+00 5.7256047684283509e+01 0.0000000000000000e+00 0 0 0
1321 1 7.9901409111859394e+01 7.5680220367678942e+01 0.0000000000000000e+00 0 0 0
274 1 1.0404082595406507e+01 5.4224343212160186e+01 0.0000000000000000e+00 0 0 0
304 1 1.1697757629840284e+01 5.8157254001868090e+01 0.0000000000000000e+00 0 0 0
305 1 1.4352296393243305e+01 5.4995087063162259e+01 0.0000000000000000e+00 0 0 0
306 1 1.5512320342652639e+01 5.9010326466288333e+01 0.0000000000000000e+00 0 0 0
307 1 1.8370773843872794e+01 5.5770438158215185e+01 0.0000000000000000e+00 0 0 0
278 1 2.2321796442812872e+01 5.6798856583901852e+01 0.0000000000000000e+00 0 0 0
308 1 1.9596179020228178e+01 5.9701130304053585e+01 0.0000000000000000e+00 0 0 0
280 1 2.5129211506399027e+01 5.3716420522287365e+01 0.0000000000000000e+00 0 0 0
282 1 2.9266138838399129e+01 5.4646078884393397e+01 0.0000000000000000e+00 0 0 0
311 1 2.6263521140752534e+01 5.7516801023261429e+01 0.0000000000000000e+00 0 0 0
312 1 3.0556331124444561e+01 5.8431724989634674e+01 0.0000000000000000e+00 0 0 0
313 1 3.3413875269817460e+01 5.5480965451680028e+01 0.0000000000000000e+00 0 0 0
314 1 3.4427820454746133e+01 5.9353169975346553e+01 0.0000000000000000e+00 0 0 0
315 1 3.7307776979276227e+01 5.6468347572045062e+01 0.0000000000000000e+00 0 0 0
286 1 4.0122335442904564e+01 5.3592021385694089e+01 0.0000000000000000e+00 0 0 0
317 1 4.3982659939747322e+01 5.4473706603667885e+01 0.0000000000000000e+00 0 0 0
316 1 4.1276201364385940e+01 5.7435012740267851e+01 0.0000000000000000e+00 0 0 0
318 1 4.5064128288948140e+01 5.8472904091850985e+01 0.0000000000000000e+00 0 0 0
319 1 4.7912288407191646e+01 5.5452606351445652e+01 0.0000000000000000e+00 0 0 0
349 1 4.9095182455020677e+01 5.9257819245112927e+01 0.0000000000000000e+00 0 0 0
320 1 5.2067262777798874e+01 5.6399771245355730e+01 0.0000000000000000e+00 0 0 0
321 1 5.4901725624027158e+01 5.3364567964176096e+01 0.0000000000000000e+00 0 0 0
323 1 5.8814208207832699e+01 5.4331134915648761e+01 0.0000000000000000e+00 0 0 0
322 1 5.5850236684770792e+01 5.7236771331172740e+01 0.0000000000000000e+00 0 0 0
324 1 6.0009281844265587e+01 5.8433498695889611e+01 0.0000000000000000e+00 0 0 0
325 1 6.2741470880316221e+01 5.5485754603454808e+01 0.0000000000000000e+00 0 0 0
326 1 6.6912154736052244e+01 5.6669594052361042e+01 0.0000000000000000e+00 0 0 0
355 1 6.3855637659669313e+01 5.9132355546539728e+01 0.0000000000000000e+00 0 0 0
327 1 6.9605348835726872e+01 5.3675702132484950e+01 0.0000000000000000e+00 0 0 0
328 1 7.0809802817688833e+01 5.7933107536474168e+01 0.0000000000000000e+00 0 0 0
359 1 7.4635023028499731e+01 5.8699936359563601e+01 0.0000000000000000e+00 0 0 0
329 1 7.3439251679625457e+01 5.4865901293569237e+01 0.0000000000000000e+00 0 0 0
300 1 8.0454870655528637e+01 5.3414105327247000e+01 0.0000000000000000e+00 0 0 0
1201 1 8.1427420760505811e+01 5.7362773127767731e+01 0.0000000000000000e+00 0 0 0
330 1 7.7512150388075298e+01 5.6103494145674020e+01 0.0000000000000000e+00 0 0 0
1231 1 7.8377204279134489e+01 6.0272689772752742e+01 0.0000000000000000e+00 0 0 0
302 1 5.0229115540251614e+00 6.0240365691172968e+01 0.0000000000000000e+00 0 0 0
332 1 6.2845463958681016e+00 6.4148822093324824e+01 0.0000000000000000e+00 0 0 0
361 1 3.5729348109393193e+00 6.7229464525006151e+01 0.0000000000000000e+00 0 0 0
331 1 2.2991191917912719e+00 6.3327550092073544e+01 0.0000000000000000e+00 0 0 0
333 1 8.9796602586500143e+00 6.1248118667618300e+01 0.0000000000000000e+00 0 0 0
335 1 1.2945648749881963e+01 6.2031145149936734e+01 0.0000000000000000e+00 0 0 0
334 1 1.0283121187891012e+01 6.4986262346597115e+01 0.0000000000000000e+00 0 0 0
336 1 1.4286293746714680e+01 6.5870115632275187e+01 0.0000000000000000e+00 0 0 0
337 1 1.6820059096106434e+01 6.2732887786885911e+01 0.0000000000000000e+00 0 0 0
338 1 2.0911892724618003e+01 6.3620562933876684e+01 0.0000000000000000e+00 0 0 0
367 1 1.8287949068379202e+01 6.6626030334534647e+01 0.0000000000000000e+00 0 0 0
369 1 2.2291757170794064e+01 6.7402826822144846e+01 0.0000000000000000e+00 0 0 0
309 1 2.3645523348653025e+01 6.0702796174297966e+01 0.0000000000000000e+00 0 0 0
310 1 2.7573182516903291e+01 6.1467427140823517e+01 0.0000000000000000e+00 0 0 0
339 1 2.5027551583587208e+01 6.4561420952317050e+01 0.0000000000000000e+00 0 0 0
341 1 2.8951611820750582e+01 6.5412702592112581e+01 0.0000000000000000e+00 0 0 0
343 1 3.1634033510766873e+01 6.2401053684685969e+01 0.0000000000000000e+00 0 0 0
342 1 3.2874733067091896e+01 6.6401867322785009e+01 0.0000000000000000e+00 0 0 0
344 1 3.5553771701272652e+01 6.3425490137704806e+01 0.0000000000000000e+00 0 0 0
375 1 3.6736592357756116e+01 6.7258657830951933e+01 0.0000000000000000e+00 0 0 0
345 1 3.8226929258669855e+01 6.0337711356236298e+01 0.0000000000000000e+00 0 0 0
347 1 4.2145093275905168e+01 6.1323758841469918e+01 0.0000000000000000e+00 0 0 0
346 1 3.9384435590768099e+01 6.4307445297971569e+01 0.0000000000000000e+00 0 0 0
377 1 4.3257802009713139e+01 6.5235580228152386e+01 0.0000000000000000e+00 0 0 0
348 1 4.6144607273617055e+01 6.2289379925652860e+01 0.0000000000000000e+00 0 0 0
350 1 4.9972669513377241e+01 6.3240752284831345e+01 0.0000000000000000e+00 0 0 0
379 1 4.8527207238549884e+01 6.7114707792020710e+01 0.0000000000000000e+00 0 0 0
381 1 5.2702991271592943e+01 6.6176844323590373e+01 0.0000000000000000e+00 0 0 0
351 1 5.2967948740540479e+01 6.0413412019124181e+01 0.0000000000000000e+00 0 0 0
353 1 5.7078669889066660e+01 6.1103663081574311e+01 0.0000000000000000e+00 0 0 0
352 1 5.6565732109824268e+01 6.5192995212253436e+01 0.0000000000000000e+00 0 0 0
354 1 6.0604335635191596e+01 6.3621581658583779e+01 0.0000000000000000e+00 0 0 0
385 1 6.3596989865593059e+01 6.6681089258933170e+01 0.0000000000000000e+00 0 0 0
356 1 6.4474335258898918e+01 6.2878124685525954e+01 0.0000000000000000e+00 0 0 0
387 1 6.7581463819563211e+01 6.5119712629220700e+01 0.0000000000000000e+00 0 0 0
357 1 6.8046019205221114e+01 6.0961614872954073e+01 0.0000000000000000e+00 0 0 0
358 1 7.1349129663011098e+01 6.3583025371447761e+01 0.0000000000000000e+00 0 0 0
389 1 7.4613150798800575e+01 6.6420345792597715e+01 0.0000000000000000e+00 0 0 0
360 1 7.5157493551451154e+01 6.2533456452587735e+01 0.0000000000000000e+00 0 0 0