LAMMPS data file via write_data, version 17 Nov 2016, timestep = 200000

1800 atoms
1 atom types

1.2242774747699059e+00 1.6377572252523194e+02 xlo xhi
1.2242774747699059e+00 1.6377572252523194e+02 ylo yhi
0.0000000000000000e+00 5.5000000000000000e+00 zlo zhi

Masses

1 83.798

Atoms # atomic

2 1 3.4910859818065281e+00 3.2827012355303187e+00 0.0000000000000000e+00 0 0 0
3 1 7.5190699510267880e+00 2.0976338463462811e+00 0.0000000000000000e+00 0 0 0
31 1 2.4862768542586324e+00 7.5661580250578941e+00 0.0000000000000000e+00 0 0 0
33 1 6.2787552293569089e+00 6.2391404438679610e+00 0.0000000000000000e+00 0 0 0
4 1 1.0216277850155102e+01 5.0553545582740078e+00 0.0000000000000000e+00 0 0 0
6 1 1.4421284953522497e+01 3.8482652613519766e+00 0.0000000000000000e+00 0 0 0
35 1 1.3086004147822422e+01 7.7814858142755270e+00 0.0000000000000000e+00 0 0 0
8 1 1.8466177148579572e+01 2.6564081509636441e+00 0.0000000000000000e+00 0 0 0
37 1 1.7072598878508082e+01 6.8229763866996596e+00 0.0000000000000000e+00 0 0 0
39 1 2.1157372455415196e+01 5.6152598989962703e+00 0.0000000000000000e+00 0 0 0
880 1 2.2347761595675621e+01 1.5184725509429280e+00 0.0000000000000000e+00 0 1 0
9 1 2.5114842490114555e+01 4.8739329734161849e+00 0.0000000000000000e+00 0 0 0
10 1 2.9119260929853812e+01 3.7731698349112679e+00 0.0000000000000000e+00 0 0 0
40 1 2.7853608026285627e+01 7.7483758974491366e+00 0.0000000000000000e+00 0 0 0
41 1 3.1780323266696030e+01 6.8413246309403535e+00 0.0000000000000000e+00 0 0 0
12 1 3.3008736350890288e+01 2.8974427835836765e+00 0.0000000000000000e+00 0 0 0
14 1 3.5709421496742387e+01 5.8648507172091762e+00 0.0000000000000000e+00 0 0 0
13 1 3.6844516202562232e+01 2.0155637025278130e+00 0.0000000000000000e+00 0 0 0
15 1 3.9678964649978887e+01 4.8834796417576332e+00 0.0000000000000000e+00 0 0 0
16 1 4.3604165017342282e+01 4.1093641259235127e+00 0.0000000000000000e+00 0 0 0
46 1 4.2404961110782580e+01 8.0814955523308765e+00 0.0000000000000000e+00 0 0 0
47 1 4.6399549606311254e+01 7.1608909197858743e+00 0.0000000000000000e+00 0 0 0
19 1 5.1619789588082931e+01 2.1919569604745943e+00 0.0000000000000000e+00 0 0 0
18 1 4.7688291261125990e+01 3.2726154699521759e+00 0.0000000000000000e+00 0 0 0
49 1 5.0504818978087584e+01 6.2476665901439841e+00 0.0000000000000000e+00 0 0 0
20 1 5.4282238238652596e+01 5.1751103239499168e+00 0.0000000000000000e+00 0 0 0
21 1 5.9083520374512972e+01 4.8291490995731596e+00 0.0000000000000000e+00 0 0 0
890 1 5.5870059698803786e+01 1.4859207616364696e+00 0.0000000000000000e+00 0 1 0
51 1 5.6997316948843952e+01 8.0321106147756893e+00 0.0000000000000000e+00 0 0 0
892 1 6.2146103081171574e+01 2.0593852088728575e+00 0.0000000000000000e+00 0 1 0
23 1 6.3506734625361005e+01 5.9043594116934042e+00 0.0000000000000000e+00 0 0 0
894 1 6.6244759313329823e+01 3.0422024955712854e+00 0.0000000000000000e+00 0 1 0
24 1 6.7290258501235854e+01 6.8510117994215189e+00 0.0000000000000000e+00 0 0 0
25 1 7.0120870916974312e+01 3.9762123956513071e+00 0.0000000000000000e+00 0 0 0
27 1 7.4107654700260653e+01 4.9241529465864744e+00 0.0000000000000000e+00 0 0 0
26 1 7.1264864850911437e+01 7.8354772662241032e+00 0.0000000000000000e+00 0 0 0
29 1 7.8138553513235152e+01 5.7835739613703536e+00 0.0000000000000000e+00 0 0 0
900 1 8.0929404319109508e+01 2.7973518032028482e+00 0.0000000000000000e+00 0 1 0
898 1 7.6780916505739683e+01 1.9975174872360522e+00 0.0000000000000000e+00 0 1 0
30 1 8.1967372386173324e+01 6.7353724866414302e+00 0.0000000000000000e+00 0 0 0
32 1 5.3158664818479222e+00 1.0317671126538787e+01 0.0000000000000000e+00 0 0 0
63 1 8.1624708673409643e+00 1.3144117189585941e+01 0.0000000000000000e+00 0 0 0
62 1 4.2058890871048806e+00 1.4207943859818462e+01 0.0000000000000000e+00 0 0 0
61 1 1.3104710539021893e+00 1.1364433670916730e+01 0.0000000000000000e+00 0 0 0
34 1 9.1195495519292180e+00 9.0863639181167990e+00 0.0000000000000000e+00 0 0 0
65 1 1.2100982165487357e+01 1.1735940779292719e+01 0.0000000000000000e+00 0 0 0
66 1 1.4854385401755865e+01 1.4709669179298853e+01 0.0000000000000000e+00 0 0 0
64 1 1.0980863279627931e+01 1.5894966848863222e+01 0.0000000000000000e+00 0 0 0
36 1 1.6059058156074720e+01 1.0798636588399035e+01 0.0000000000000000e+00 0 0 0
38 1 1.9947881673134468e+01 9.6046248397361698e+00 0.0000000000000000e+00 0 0 0
67 1 1.8818128942281199e+01 1.3613409164121625e+01 0.0000000000000000e+00 0 0 0
68 1 2.2611306496869798e+01 1.2591068176563709e+01 0.0000000000000000e+00 0 0 0
69 1 2.3810894737090926e+01 8.7327387376513954e+00 0.0000000000000000e+00 0 0 0
71 1 2.6409816872485489e+01 1.1699042532148429e+01 0.0000000000000000e+00 0 0 0
72 1 2.9368300661854196e+01 1.4501148918250195e+01 0.0000000000000000e+00 0 0 0
70 1 2.5592463433728476e+01 1.5466551984607213e+01 0.0000000000000000e+00 0 0 0
42 1 3.0489040231996874e+01 1.0654133023592863e+01 0.0000000000000000e+00 0 0 0
43 1 3.4627840620524360e+01 9.8527204920650746e+00 0.0000000000000000e+00 0 0 0
44 1 3.7399643534141056e+01 1.2900796656858381e+01 0.0000000000000000e+00 0 0 0
73 1 3.3218111376039012e+01 1.3567236912696290e+01 0.0000000000000000e+00 0 0 0
45 1 3.8618058387051775e+01 9.0453280633010849e+00 0.0000000000000000e+00 0 0 0
75 1 4.1333309488801227e+01 1.2057392871560047e+01 0.0000000000000000e+00 0 0 0
77 1 4.5207491067186808e+01 1.0927812962712364e+01 0.0000000000000000e+00 0 0 0
76 1 4.4290404612382254e+01 1.4851435253635291e+01 0.0000000000000000e+00 0 0 0
74 1 4.0265927385349919e+01 1.5998562411343370e+01 0.0000000000000000e+00 0 0 0
48 1 4.9213081765767249e+01 9.9379645556053813e+00 0.0000000000000000e+00 0 0 0
79 1 5.1474847255062748e+01 1.3111143850277250e+01 0.0000000000000000e+00 0 0 0
78 1 4.8162335446306507e+01 1.5910397936951256e+01 0.0000000000000000e+00 0 0 0
50 1 5.3211152629796942e+01 9.2770458770288933e+00 0.0000000000000000e+00 0 0 0
81 1 5.5188641694702291e+01 1.4270734423442908e+01 0.0000000000000000e+00 0 0 0
52 1 5.8159786991881852e+01 1.1652323138989946e+01 0.0000000000000000e+00 0 0 0
82 1 5.9061030109065619e+01 1.5369720280353885e+01 0.0000000000000000e+00 0 0 0
22 1 6.0917755409069095e+01 8.7245801309033819e+00 0.0000000000000000e+00 0 0 0
53 1 6.4637397142696102e+01 9.7509517617075385e+00 0.0000000000000000e+00 0 0 0
83 1 6.1887069498907522e+01 1.2596087995674221e+01 0.0000000000000000e+00 0 0 0
54 1 6.5879777448194986e+01 1.3733233976187137e+01 0.0000000000000000e+00 0 0 0
55 1 6.8541920631559719e+01 1.0800092747042296e+01 0.0000000000000000e+00 0 0 0
57 1 7.2559863858871879e+01 1.1550185589357282e+01 0.0000000000000000e+00 0 0 0
56 1 6.9723477110461459e+01 1.4639876102244855e+01 0.0000000000000000e+00 0 0 0
87 1 7.3658281509852102e+01 1.5539286128464974e+01 0.0000000000000000e+00 0 0 0
28 1 7.5435783192798354e+01 8.7867410149842140e+00 0.0000000000000000e+00 0 0 0
59 1 7.9369684590210142e+01 9.6657063498688984e+00 0.0000000000000000e+00 0 0 0
58 1 7.6530501663608973e+01 1.2558983818330553e+01 0.0000000000000000e+00 0 0 0
89 1 8.0660758012216164e+01 1.3410111877949696e+01 0.0000000000000000e+00 0 0 0
92 1 6.0406402623069884e+00 2.0872769183328749e+01 0.0000000000000000e+00 0 0 0
93 1 7.1007618934058101e+00 1.7039813992590283e+01 0.0000000000000000e+00 0 0 0
91 1 3.1559223171277724e+00 1.8161775373149180e+01 0.0000000000000000e+00 0 0 0
121 1 2.1147493155381212e+00 2.2078198573679359e+01 0.0000000000000000e+00 0 0 0
94 1 9.8534430793926671e+00 1.9806912506089880e+01 0.0000000000000000e+00 0 0 0
95 1 1.3857374976069764e+01 1.8601031002022996e+01 0.0000000000000000e+00 0 0 0
125 1 1.2731375693772671e+01 2.2510915032245730e+01 0.0000000000000000e+00 0 0 0
96 1 1.6701639988111367e+01 2.1512012314622812e+01 0.0000000000000000e+00 0 0 0
97 1 1.7767545448074557e+01 1.7547659911699892e+01 0.0000000000000000e+00 0 0 0
98 1 2.0544574236932668e+01 2.0461974250118640e+01 0.0000000000000000e+00 0 0 0
99 1 2.1577184796379857e+01 1.6504356978789840e+01 0.0000000000000000e+00 0 0 0
129 1 2.3509392316520110e+01 2.3495917100984553e+01 0.0000000000000000e+00 0 0 0
100 1 2.4330769608316423e+01 1.9396860759218278e+01 0.0000000000000000e+00 0 0 0
101 1 2.8400894714956539e+01 1.8347188716979449e+01 0.0000000000000000e+00 0 0 0
130 1 2.7198685117214129e+01 2.2138521312411530e+01 0.0000000000000000e+00 0 0 0
103 1 3.2244127130169829e+01 1.7564607814959228e+01 0.0000000000000000e+00 0 0 0
102 1 3.1582165096725507e+01 2.1818955753772173e+01 0.0000000000000000e+00 0 0 0
105 1 3.6269649440814774e+01 1.6703263322541126e+01 0.0000000000000000e+00 0 0 0
104 1 3.5652073042774234e+01 2.2400739156786315e+01 0.0000000000000000e+00 0 0 0
106 1 3.8797087555875166e+01 1.9834286686219968e+01 0.0000000000000000e+00 0 0 0
137 1 4.2515981162867611e+01 2.1396587950504998e+01 0.0000000000000000e+00 0 0 0
107 1 4.5293954900794134e+01 1.8666486626631166e+01 0.0000000000000000e+00 0 0 0
109 1 4.9328685497675913e+01 1.9794131846113196e+01 0.0000000000000000e+00 0 0 0
108 1 4.6466538648741782e+01 2.2512695339090602e+01 0.0000000000000000e+00 0 0 0
80 1 5.2105338601378072e+01 1.6910722604648839e+01 0.0000000000000000e+00 0 0 0
110 1 5.3170721246047378e+01 2.0934325693963256e+01 0.0000000000000000e+00 0 0 0
111 1 5.6112940756091518e+01 1.8106720472383447e+01 0.0000000000000000e+00 0 0 0
141 1 5.7067863513504463e+01 2.1998562326534437e+01 0.0000000000000000e+00 0 0 0
113 1 6.0008587942519711e+01 1.9265213480740680e+01 0.0000000000000000e+00 0 0 0
84 1 6.3001239162673173e+01 1.6512021817874043e+01 0.0000000000000000e+00 0 0 0
112 1 6.3878738194095291e+01 2.0407458442473473e+01 0.0000000000000000e+00 0 0 0
85 1 6.6896826583191839e+01 1.7588958712400306e+01 0.0000000000000000e+00 0 0 0
143 1 6.0948933045365756e+01 2.3156941148688414e+01 0.0000000000000000e+00 0 0 0
115 1 6.7853590204762668e+01 2.1426210603859978e+01 0.0000000000000000e+00 0 0 0
86 1 7.0865241248402910e+01 1.8573283908527078e+01 0.0000000000000000e+00 0 0 0
116 1 7.1803486185529948e+01 2.2337288060136125e+01 0.0000000000000000e+00 0 0 0
117 1 7.4687233648188695e+01 1.9313694893937996e+01 0.0000000000000000e+00 0 0 0
88 1 7.7537745614038258e+01 1.6341741578857079e+01 0.0000000000000000e+00 0 0 0
119 1 7.8624981748057749e+01 2.0294099135212377e+01 0.0000000000000000e+00 0 0 0
90 1 8.1497869402726351e+01 1.7348520400046230e+01 0.0000000000000000e+00 0 0 0
118 1 7.5852606611793419e+01 2.3330951366831822e+01 0.0000000000000000e+00 0 0 0
122 1 4.8771963792147153e+00 2.4931336165683653e+01 0.0000000000000000e+00 0 0 0
153 1 7.8126716007029504e+00 2.7903328416630007e+01 0.0000000000000000e+00 0 0 0
152 1 3.7712624778847768e+00 2.8953945320971009e+01 0.0000000000000000e+00 0 0 0
123 1 8.7440890152073898e+00 2.3763757614101884e+01 0.0000000000000000e+00 0 0 0
124 1 1.1646051917249197e+01 2.6596907792525585e+01 0.0000000000000000e+00 0 0 0
126 1 1.5620159158637669e+01 2.5482916736979018e+01 0.0000000000000000e+00 0 0 0
155 1 1.4517133428372787e+01 2.9439796245843830e+01 0.0000000000000000e+00 0 0 0
154 1 1.0737419726591854e+01 3.0724025267703272e+01 0.0000000000000000e+00 0 0 0
127 1 1.9480220009060162e+01 2.4226029862011053e+01 0.0000000000000000e+00 0 0 0
128 1 2.2540523546342378e+01 2.7212526233650692e+01 0.0000000000000000e+00 0 0 0
157 1 1.8486294333002466e+01 2.8299252418215289e+01 0.0000000000000000e+00 0 0 0
159 1 2.6468166579953706e+01 2.8027622986445213e+01 0.0000000000000000e+00 0 0 0
131 1 2.9246975709123067e+01 2.5441557504952570e+01 0.0000000000000000e+00 0 0 0
132 1 3.0358061717885207e+01 2.9165540033668691e+01 0.0000000000000000e+00 0 0 0
133 1 3.3271404791971065e+01 2.5718749302844969e+01 0.0000000000000000e+00 0 0 0
163 1 3.4147415521925566e+01 3.0058342120618825e+01 0.0000000000000000e+00 0 0 0
134 1 3.6959198900321788e+01 2.7129662973062818e+01 0.0000000000000000e+00 0 0 0
135 1 3.9489055003499431e+01 2.4003744965535159e+01 0.0000000000000000e+00 0 0 0
136 1 4.3469355166917282e+01 2.5366869897115897e+01 0.0000000000000000e+00 0 0 0
165 1 4.0842916916377895e+01 2.8306215006161430e+01 0.0000000000000000e+00 0 0 0
167 1 4.4747730071250395e+01 2.9458997418426076e+01 0.0000000000000000e+00 0 0 0
139 1 5.0385460729878190e+01 2.3866722603052544e+01 0.0000000000000000e+00 0 0 0
138 1 4.7524642917503598e+01 2.6629741604563115e+01 0.0000000000000000e+00 0 0 0
169 1 5.1370870682315001e+01 2.7791251464435025e+01 0.0000000000000000e+00 0 0 0
168 1 4.8659819712275009e+01 3.0490293145152954e+01 0.0000000000000000e+00 0 0 0
140 1 5.4205611731056820e+01 2.4807806631548697e+01 0.0000000000000000e+00 0 0 0
142 1 5.8080677720075158e+01 2.5813975531081841e+01 0.0000000000000000e+00 0 0 0
171 1 5.5342533081987284e+01 2.8849048099713944e+01 0.0000000000000000e+00 0 0 0
172 1 5.9200617098371659e+01 2.9821202529608751e+01 0.0000000000000000e+00 0 0 0
114 1 6.5071246766015605e+01 2.4210460208543083e+01 0.0000000000000000e+00 0 0 0
144 1 6.6202107249716136e+01 2.8100351155479675e+01 0.0000000000000000e+00 0 0 0
173 1 6.2185536903411631e+01 2.7021197243931532e+01 0.0000000000000000e+00 0 0 0
145 1 6.8954576743793950e+01 2.5350542429732617e+01 0.0000000000000000e+00 0 0 0
146 1 7.0126175453202308e+01 2.9122167030310834e+01 0.0000000000000000e+00 0 0 0
147 1 7.3060522876449895e+01 2.6201578775267038e+01 0.0000000000000000e+00 0 0 0
177 1 7.4209629723182559e+01 2.9980898956478846e+01 0.0000000000000000e+00 0 0 0
149 1 7.9854377348193054e+01 2.4195865308288173e+01 0.0000000000000000e+00 0 0 0
148 1 7.7087026221705230e+01 2.7048736275225082e+01 0.0000000000000000e+00 0 0 0
150 1 8.1037251624991384e+01 2.8003853440234810e+01 0.0000000000000000e+00 0 0 0
1110 1 1.8475199023042648e+00 3.6935713699926026e+01 0.0000000000000000e+00 1 0 0
183 1 6.7591725510109342e+00 3.1758723092915400e+01 0.0000000000000000e+00 0 0 0
182 1 5.9761704487303415e+00 3.5654501825013142e+01 0.0000000000000000e+00 0 0 0
181 1 2.8568659636298328e+00 3.2875152305944994e+01 0.0000000000000000e+00 0 0 0
184 1 9.8413554152970324e+00 3.4801691328300862e+01 0.0000000000000000e+00 0 0 0
185 1 1.3591141643063596e+01 3.3609706511516954e+01 0.0000000000000000e+00 0 0 0
215 1 1.2812969260123406e+01 3.7578959349833205e+01 0.0000000000000000e+00 0 0 0
186 1 1.6993797790719402e+01 3.6291360723055703e+01 0.0000000000000000e+00 0 0 0
156 1 1.7205637463038407e+01 3.2198794790708298e+01 0.0000000000000000e+00 0 0 0
158 1 2.0779511314513542e+01 3.3626479314382330e+01 0.0000000000000000e+00 0 0 0
187 1 2.1588920613647776e+01 3.7628760668287349e+01 0.0000000000000000e+00 0 0 0
160 1 2.3646467386127263e+01 3.0949234607626845e+01 0.0000000000000000e+00 0 0 0
161 1 2.7522325123655655e+01 3.1962995025224387e+01 0.0000000000000000e+00 0 0 0
189 1 2.4663320542384422e+01 3.4824083052781425e+01 0.0000000000000000e+00 0 0 0
191 1 2.8476623777054915e+01 3.6075082529015894e+01 0.0000000000000000e+00 0 0 0
162 1 3.1340463991545736e+01 3.3072754916919273e+01 0.0000000000000000e+00 0 0 0
193 1 3.5169292907227394e+01 3.4071653575649179e+01 0.0000000000000000e+00 0 0 0
192 1 3.2421831579962003e+01 3.7025536512700540e+01 0.0000000000000000e+00 0 0 0
164 1 3.7949435479080066e+01 3.1041586255537318e+01 0.0000000000000000e+00 0 0 0
195 1 3.9014787432397142e+01 3.5155155574560048e+01 0.0000000000000000e+00 0 0 0
166 1 4.1818188056708273e+01 3.2400462401963352e+01 0.0000000000000000e+00 0 0 0
196 1 4.2979366094865668e+01 3.6293294764607658e+01 0.0000000000000000e+00 0 0 0
197 1 4.5700557626046482e+01 3.3331450331598539e+01 0.0000000000000000e+00 0 0 0
199 1 4.9770621308039523e+01 3.4352955881031697e+01 0.0000000000000000e+00 0 0 0
198 1 4.6846846022198470e+01 3.7244102407120963e+01 0.0000000000000000e+00 0 0 0
170 1 5.2631692867832776e+01 3.1759597807452582e+01 0.0000000000000000e+00 0 0 0
201 1 5.6451408553713456e+01 3.2800230359938027e+01 0.0000000000000000e+00 0 0 0
200 1 5.3602791544456345e+01 3.5795109856940961e+01 0.0000000000000000e+00 0 0 0
202 1 5.7612750621570299e+01 3.6678659605565585e+01 0.0000000000000000e+00 0 0 0
174 1 6.3359147283828776e+01 3.0973591485305505e+01 0.0000000000000000e+00 0 0 0
203 1 6.0457258082106158e+01 3.3782619309848435e+01 0.0000000000000000e+00 0 0 0
233 1 6.1509916641907246e+01 3.7809773072963871e+01 0.0000000000000000e+00 0 0 0
204 1 6.4479553376591710e+01 3.4836705681404922e+01 0.0000000000000000e+00 0 0 0
175 1 6.7182018253168380e+01 3.1911910135902197e+01 0.0000000000000000e+00 0 0 0
205 1 6.8334151820179500e+01 3.5774573147907937e+01 0.0000000000000000e+00 0 0 0
176 1 7.1184138753532309e+01 3.2930527511309030e+01 0.0000000000000000e+00 0 0 0
207 1 7.2448295592215331e+01 3.6928844050348957e+01 0.0000000000000000e+00 0 0 0
179 1 7.8083985194744926e+01 3.0947991493551640e+01 0.0000000000000000e+00 0 0 0
178 1 7.5169700187014541e+01 3.3880028214430133e+01 0.0000000000000000e+00 0 0 0
209 1 7.9418765802389160e+01 3.4799258307865031e+01 0.0000000000000000e+00 0 0 0
208 1 7.6446701009320989e+01 3.7681376182525206e+01 0.0000000000000000e+00 0 0 0
180 1 8.2277597354893032e+01 3.1971241239899221e+01 0.0000000000000000e+00 0 0 0
212 1 4.6994948723796881e+00 4.3344967284884369e+01 0.0000000000000000e+00 0 0 0
211 1 4.9333264332512563e+00 3.9514598688961705e+01 0.0000000000000000e+00 0 0 0
213 1 8.6660846867563173e+00 3.8575845626834138e+01 0.0000000000000000e+00 0 0 0
243 1 8.5781035160360162e+00 4.4294789944751251e+01 0.0000000000000000e+00 0 0 0
214 1 1.1642153634081883e+01 4.1458456649612998e+01 0.0000000000000000e+00 0 0 0
216 1 1.5493555291860050e+01 4.2770997126670068e+01 0.0000000000000000e+00 0 0 0
217 1 1.8447818954034339e+01 4.0192771076247944e+01 0.0000000000000000e+00 0 0 0
218 1 1.9644867574155743e+01 4.4214718306924645e+01 0.0000000000000000e+00 0 0 0
188 1 2.2578624346676172e+01 4.1502560614608484e+01 0.0000000000000000e+00 0 0 0
219 1 2.3673395818993040e+01 4.5581484186962257e+01 0.0000000000000000e+00 0 0 0
190 1 2.5645892882204855e+01 3.8790789099341495e+01 0.0000000000000000e+00 0 0 0
221 1 2.9591831776623152e+01 4.0015157884055405e+01 0.0000000000000000e+00 0 0 0
220 1 2.6444893934115182e+01 4.2644381110347808e+01 0.0000000000000000e+00 0 0 0
222 1 3.0604470536017498e+01 4.3896968768080548e+01 0.0000000000000000e+00 0 0 0
194 1 3.6297279450095651e+01 3.8147302804061574e+01 0.0000000000000000e+00 0 0 0
223 1 3.3436890637419253e+01 4.1003584607418368e+01 0.0000000000000000e+00 0 0 0
253 1 3.4452832358585042e+01 4.4994897425367689e+01 0.0000000000000000e+00 0 0 0
224 1 3.7303427453778824e+01 4.2124436141545424e+01 0.0000000000000000e+00 0 0 0
225 1 4.0060430373539923e+01 3.9341568010011166e+01 0.0000000000000000e+00 0 0 0
227 1 4.3944061915859471e+01 4.0239103843916126e+01 0.0000000000000000e+00 0 0 0
226 1 4.1299863434436553e+01 4.3189271829313071e+01 0.0000000000000000e+00 0 0 0
257 1 4.5221765955246717e+01 4.4172457022049294e+01 0.0000000000000000e+00 0 0 0
229 1 5.0724701938690174e+01 3.8424116155926924e+01 0.0000000000000000e+00 0 0 0
228 1 4.7965388117622403e+01 4.1217476945306700e+01 0.0000000000000000e+00 0 0 0
230 1 5.1928839215018989e+01 4.2426943291090375e+01 0.0000000000000000e+00 0 0 0
259 1 4.9123989694064370e+01 4.5332168453667258e+01 0.0000000000000000e+00 0 0 0
231 1 5.4925712956248567e+01 3.9701062809859202e+01 0.0000000000000000e+00 0 0 0
232 1 5.8848767149019451e+01 4.0640796404103611e+01 0.0000000000000000e+00 0 0 0
261 1 5.5939157037846051e+01 4.3700776001022575e+01 0.0000000000000000e+00 0 0 0
263 1 5.9968451706164124e+01 4.4579612689117148e+01 0.0000000000000000e+00 0 0 0
235 1 6.5495490393875869e+01 3.8650651671295222e+01 0.0000000000000000e+00 0 0 0
234 1 6.2848382843814875e+01 4.1568419460047203e+01 0.0000000000000000e+00 0 0 0
265 1 6.6711615712213444e+01 4.2597026109355838e+01 0.0000000000000000e+00 0 0 0
264 1 6.3766120670669324e+01 4.5529525396718491e+01 0.0000000000000000e+00 0 0 0
206 1 6.9414799438197761e+01 3.9590587194604147e+01 0.0000000000000000e+00 0 0 0
237 1 7.3522089271791884e+01 4.0717366052645531e+01 0.0000000000000000e+00 0 0 0
236 1 7.0635736754923116e+01 4.3514287124778100e+01 0.0000000000000000e+00 0 0 0
238 1 7.4488339849365730e+01 4.4634830877804639e+01 0.0000000000000000e+00 0 0 0
210 1 8.0432723526822997e+01 3.8760243309890065e+01 0.0000000000000000e+00 0 0 0
239 1 7.7591180444948606e+01 4.1446561958445649e+01 0.0000000000000000e+00 0 0 0
240 1 8.1614388828053421e+01 4.2774856418270090e+01 0.0000000000000000e+00 0 0 0
269 1 7.8651591254725560e+01 4.5473048507668977e+01 0.0000000000000000e+00 0 0 0
241 1 1.5512920843022977e+00 4.5556293654408790e+01 0.0000000000000000e+00 0 0 0
242 1 5.6435521742480583e+00 4.7138845627168365e+01 0.0000000000000000e+00 0 0 0
271 1 2.4768920457087140e+00 4.9592712767669326e+01 0.0000000000000000e+00 0 0 0
273 1 6.5695923050744636e+00 5.1066459041250390e+01 0.0000000000000000e+00 0 0 0
245 1 1.2487432022968507e+01 4.5507784898835069e+01 0.0000000000000000e+00 0 0 0
244 1 9.5809813659707839e+00 4.8253270467495113e+01 0.0000000000000000e+00 0 0 0
246 1 1.3453850953636138e+01 4.9518321090722992e+01 0.0000000000000000e+00 0 0 0
275 1 1.0536612954904259e+01 5.2370689202275649e+01 0.0000000000000000e+00 0 0 0
247 1 1.6534997684847742e+01 4.6854036259869247e+01 0.0000000000000000e+00 0 0 0
249 1 2.0514226353242950e+01 4.8130068564989479e+01 0.0000000000000000e+00 0 0 0
248 1 1.7553184663539135e+01 5.0841308573078081e+01 0.0000000000000000e+00 0 0 0
279 1 2.1487111895466711e+01 5.2196392838657701e+01 0.0000000000000000e+00 0 0 0
251 1 2.7595127876778101e+01 4.6708077884949645e+01 0.0000000000000000e+00 0 0 0
250 1 2.4540815724561277e+01 4.9533117150931830e+01 0.0000000000000000e+00 0 0 0
281 1 2.8392509004632117e+01 5.0762142434253839e+01 0.0000000000000000e+00 0 0 0
252 1 3.1393313559009368e+01 4.7942603773621293e+01 0.0000000000000000e+00 0 0 0
254 1 3.5450278006964147e+01 4.8991865432688144e+01 0.0000000000000000e+00 0 0 0
283 1 3.2671936840319233e+01 5.1776853058741708e+01 0.0000000000000000e+00 0 0 0
255 1 3.8399636788020224e+01 4.6174937599854502e+01 0.0000000000000000e+00 0 0 0
256 1 4.2375190637885900e+01 4.7300823610185084e+01 0.0000000000000000e+00 0 0 0
285 1 3.9409664662007614e+01 4.9997912103166897e+01 0.0000000000000000e+00 0 0 0
287 1 4.3498003807891330e+01 5.1040121097596227e+01 0.0000000000000000e+00 0 0 0
258 1 4.6341839977057980e+01 4.8270363414092252e+01 0.0000000000000000e+00 0 0 0
288 1 4.7407752559039409e+01 5.2083877661118542e+01 0.0000000000000000e+00 0 0 0
289 1 5.0246943567380917e+01 4.9340926644293191e+01 0.0000000000000000e+00 0 0 0
260 1 5.3014359668085049e+01 4.6463625048930005e+01 0.0000000000000000e+00 0 0 0
262 1 5.7212025967958468e+01 4.7541324127888373e+01 0.0000000000000000e+00 0 0 0
291 1 5.4196106237925171e+01 5.0337820132476509e+01 0.0000000000000000e+00 0 0 0
292 1 5.8094780405755294e+01 5.1374587574090434e+01 0.0000000000000000e+00 0 0 0
293 1 6.1083395910123677e+01 4.8409956504756892e+01 0.0000000000000000e+00 0 0 0
295 1 6.5005286243398729e+01 4.9602151573590966e+01 0.0000000000000000e+00 0 0 0
294 1 6.2185310103540999e+01 5.2602816263322005e+01 0.0000000000000000e+00 0 0 0
266 1 6.7732656754305026e+01 4.6653597760846559e+01 0.0000000000000000e+00 0 0 0
267 1 7.1594956970962528e+01 4.7635432489746769e+01 0.0000000000000000e+00 0 0 0
297 1 6.8989900824107778e+01 5.0649625001425441e+01 0.0000000000000000e+00 0 0 0
298 1 7.2870848124075678e+01 5.1402660077217902e+01 0.0000000000000000e+00 0 0 0
268 1 7.5778461184534876e+01 4.8518982951005228e+01 0.0000000000000000e+00 0 0 0
270 1 7.9788704889736238e+01 4.9460787808614540e+01 0.0000000000000000e+00 0 0 0
299 1 7.6861467458114035e+01 5.2309123088002188e+01 0.0000000000000000e+00 0 0 0
1200 1 3.4794103914574479e+00 5.3647723277820340e+01 0.0000000000000000e+00 1 0 0
272 1 7.6635763016084546e+00 5.4974791145841429e+01 0.0000000000000000e+00 0 0 0
301 1 4.6134187052730393e+00 5.7535462431795700e+01 0.0000000000000000e+00 0 0 0
303 1 8.4010703148899584e+00 5.8824610088306976e+01 0.0000000000000000e+00 0 0 0
276 1 1.4414757619011468e+01 5.3615338608497197e+01 0.0000000000000000e+00 0 0 0
274 1 1.1538096843544594e+01 5.6311659467356947e+01 0.0000000000000000e+00 0 0 0
305 1 1.5624162909598585e+01 5.7600943579537478e+01 0.0000000000000000e+00 0 0 0
304 1 1.2611122569251974e+01 6.0219126715958915e+01 0.0000000000000000e+00 0 0 0
277 1 1.8518527867876809e+01 5.4867404116504673e+01 0.0000000000000000e+00 0 0 0
278 1 2.2519592801703055e+01 5.6167241412799761e+01 0.0000000000000000e+00 0 0 0
307 1 1.9587471792158095e+01 5.8660911322092723e+01 0.0000000000000000e+00 0 0 0
309 1 2.3505759127768513e+01 6.0075141767670061e+01 0.0000000000000000e+00 0 0 0
280 1 2.5351454636651752e+01 5.3384050041339187e+01 0.0000000000000000e+00 0 0 0
282 1 2.9618019492800293e+01 5.4683753120933339e+01 0.0000000000000000e+00 0 0 0
311 1 2.6495868290487454e+01 5.7283513168872211e+01 0.0000000000000000e+00 0 0 0
312 1 3.0754182754273081e+01 5.8480758739243370e+01 0.0000000000000000e+00 0 0 0
284 1 3.6528565039586518e+01 5.2773843012427449e+01 0.0000000000000000e+00 0 0 0
313 1 3.3589614947716576e+01 5.5602264767235830e+01 0.0000000000000000e+00 0 0 0
314 1 3.4694099614255499e+01 5.9567310290905965e+01 0.0000000000000000e+00 0 0 0
315 1 3.7659750012935923e+01 5.6742608269367935e+01 0.0000000000000000e+00 0 0 0
286 1 4.0625483895207438e+01 5.3871682451936380e+01 0.0000000000000000e+00 0 0 0
317 1 4.4616203745209752e+01 5.4921600541575920e+01 0.0000000000000000e+00 0 0 0
316 1 4.1445404441521156e+01 5.7861914270004881e+01 0.0000000000000000e+00 0 0 0
318 1 4.5656986308512217e+01 5.8830068216278825e+01 0.0000000000000000e+00 0 0 0
290 1 5.1309249795062691e+01 5.3224147170672119e+01 0.0000000000000000e+00 0 0 0
319 1 4.8588750327945483e+01 5.6025363882649195e+01 0.0000000000000000e+00 0 0 0
349 1 4.9523508545326720e+01 5.9960768994653414e+01 0.0000000000000000e+00 0 0 0
320 1 5.2430445905011155e+01 5.7207597544932895e+01 0.0000000000000000e+00 0 0 0
321 1 5.5279494100856851e+01 5.4242719463487205e+01 0.0000000000000000e+00 0 0 0
323 1 5.9207974913949720e+01 5.5273755472690091e+01 0.0000000000000000e+00 0 0 0
322 1 5.6277784595776403e+01 5.8213841225649880e+01 0.0000000000000000e+00 0 0 0
324 1 6.0343426117283308e+01 5.9172844702707877e+01 0.0000000000000000e+00 0 0 0
296 1 6.6177768980377266e+01 5.3425313848524198e+01 0.0000000000000000e+00 0 0 0
325 1 6.3367862910981039e+01 5.6305721721153752e+01 0.0000000000000000e+00 0 0 0
326 1 6.7274716914292242e+01 5.7273899899663540e+01 0.0000000000000000e+00 0 0 0
355 1 6.4531264547568753e+01 6.0290086505957966e+01 0.0000000000000000e+00 0 0 0
327 1 7.0223907985360000e+01 5.4459713123793421e+01 0.0000000000000000e+00 0 0 0
328 1 7.1113111646426745e+01 5.8231272833667624e+01 0.0000000000000000e+00 0 0 0
329 1 7.4106104939808915e+01 5.5394381793718885e+01 0.0000000000000000e+00 0 0 0
359 1 7.5093607482440731e+01 5.9275244966246362e+01 0.0000000000000000e+00 0 0 0
300 1 8.0853320661155962e+01 5.3520936686629547e+01 0.0000000000000000e+00 0 0 0
330 1 7.8028935476120310e+01 5.6505303361959626e+01 0.0000000000000000e+00 0 0 0
1201 1 8.2050829941314461e+01 5.7527433579605159e+01 0.0000000000000000e+00 0 0 0
360 1 7.9066848155364070e+01 6.0297457922803467e+01 0.0000000000000000e+00 0 0 0
1230 1 1.5592098789138531e+00 6.0374887627523201e+01 0.0000000000000000e+00 1 0 0
302 1 5.5670439971741335e+00 6.1726407334142465e+01 0.0000000000000000e+00 0 0 0
332 1 6.6372103647835070e+00 6.5700554995712594e+01 0.0000000000000000e+00 0 0 0
331 1 2.6906200311994866e+00 6.4484543469832360e+01 0.0000000000000000e+00 0 0 0
333 1 9.4800138589560206e+00 6.2740030726909382e+01 0.0000000000000000e+00 0 0 0
335 1 1.3404785762874770e+01 6.4188343690110528e+01 0.0000000000000000e+00 0 0 0
334 1 1.0656971617398318e+01 6.6857642521867575e+01 0.0000000000000000e+00 0 0 0
306 1 1.6556263964198322e+01 6.1493609269179728e+01 0.0000000000000000e+00 0 0 0
308 1 2.0590086651438941e+01 6.2683337147226197e+01 0.0000000000000000e+00 0 0 0
337 1 1.7539575348868404e+01 6.5258359781426847e+01 0.0000000000000000e+00 0 0 0
338 1 2.1635607028069241e+01 6.6498763627433675e+01 0.0000000000000000e+00 0 0 0
310 1 2.7634566220179142e+01 6.1182136649375174e+01 0.0000000000000000e+00 0 0 0
339 1 2.4746163761332987e+01 6.3867232279866698e+01 0.0000000000000000e+00 0 0 0
341 1 2.8630937024740422e+01 6.5009401491094792e+01 0.0000000000000000e+00 0 0 0
343 1 3.1678032076639155e+01 6.2404988385271139e+01 0.0000000000000000e+00 0 0 0
342 1 3.2643276788905673e+01 6.6174756962854644e+01 0.0000000000000000e+00 0 0 0
344 1 3.5575156272269759e+01 6.3515200492580405e+01 0.0000000000000000e+00 0 0 0
373 1 3.6553489677030583e+01 6.7352527596509958e+01 0.0000000000000000e+00 0 0 0
345 1 3.8374345914668176e+01 6.0703672907466618e+01 0.0000000000000000e+00 0 0 0
347 1 4.2417028906224161e+01 6.1650096743012853e+01 0.0000000000000000e+00 0 0 0
346 1 3.9494167871904992e+01 6.4505052070195603e+01 0.0000000000000000e+00 0 0 0
377 1 4.3524487675185050e+01 6.5506640152449464e+01 0.0000000000000000e+00 0 0 0
348 1 4.6376237063179261e+01 6.2711944398735305e+01 0.0000000000000000e+00 0 0 0
350 1 5.0404842852369875e+01 6.3921605688641570e+01 0.0000000000000000e+00 0 0 0
378 1 4.7459287273993759e+01 6.6776997572441829e+01 0.0000000000000000e+00 0 0 0
351 1 5.3408191309032006e+01 6.1101241452742187e+01 0.0000000000000000e+00 0 0 0
381 1 5.4484144213240462e+01 6.5080627503728408e+01 0.0000000000000000e+00 0 0 0
353 1 5.7355791274414123e+01 6.2066969315072697e+01 0.0000000000000000e+00 0 0 0
352 1 5.8440109036228449e+01 6.6070892634404260e+01 0.0000000000000000e+00 0 0 0
354 1 6.1354079363996007e+01 6.3168439350920103e+01 0.0000000000000000e+00 0 0 0
385 1 6.2375101088971704e+01 6.7157187419198223e+01 0.0000000000000000e+00 0 0 0
356 1 6.5463540033287956e+01 6.4315651126408397e+01 0.0000000000000000e+00 0 0 0
387 1 6.9431664332016013e+01 6.5233408942669556e+01 0.0000000000000000e+00 0 0 0
357 1 6.8286863826629883e+01 6.1282502905210798e+01 0.0000000000000000e+00 0 0 0
358 1 7.2210755007598451e+01 6.2180046816912956e+01 0.0000000000000000e+00 0 0 0
389 1 7.3402210321757181e+01 6.6092096310798425e+01 0.0000000000000000e+00 0 0 0