LAMMPS data file via write_data, version 17 Nov 2016, timestep = 200000

1800 atoms
1 atom types

1.2119306785208437e+00 1.6378806932148476e+02 xlo xhi
1.2119306785208437e+00 1.6378806932148476e+02 ylo yhi
0.0000000000000000e+00 5.5000000000000000e+00 zlo zhi

Masses

1 83.798

Atoms # atomic

2 1 5.1912845954596119e+00 2.7763367434323687e+00 0.0000000000000000e+00 0 0 0
31 1 4.2609383359239956e+00 6.6407899807736683e+00 0.0000000000000000e+00 0 0 0
33 1 8.1640818185393265e+00 5.4125220951545421e+00 0.0000000000000000e+00 0 0 0
930 1 1.3071694869938504e+00 3.8651815985261626e+00 0.0000000000000000e+00 1 0 0
3 1 9.2571147589777389e+00 1.5080167138892806e+00 0.0000000000000000e+00 0 0 0
4 1 1.2118036177798233e+01 4.4454074751541839e+00 0.0000000000000000e+00 0 0 0
35 1 1.5000774577565222e+01 7.1943892181639209e+00 0.0000000000000000e+00 0 0 0
34 1 1.1067463339774132e+01 8.2614650050282705e+00 0.0000000000000000e+00 0 0 0
6 1 1.6077226161494593e+01 3.3458122785246456e+00 0.0000000000000000e+00 0 0 0
8 1 1.9990577165846126e+01 2.2392216024558698e+00 0.0000000000000000e+00 0 0 0
37 1 1.9047786071499079e+01 6.1538754163420641e+00 0.0000000000000000e+00 0 0 0
39 1 2.3063583590279556e+01 5.1211972230025120e+00 0.0000000000000000e+00 0 0 0
10 1 2.6935583915908634e+01 3.9658434805761087e+00 0.0000000000000000e+00 0 0 0
41 1 2.9893169201592336e+01 6.7556868604795772e+00 0.0000000000000000e+00 0 0 0
40 1 2.5869798060731739e+01 7.8510007036951377e+00 0.0000000000000000e+00 0 0 0
12 1 3.0962125035907423e+01 2.8727018625054663e+00 0.0000000000000000e+00 0 0 0
14 1 3.3815178433042441e+01 5.7290185213685474e+00 0.0000000000000000e+00 0 0 0
15 1 3.7690910873714550e+01 4.8496407236082302e+00 0.0000000000000000e+00 0 0 0
13 1 3.4865843645071386e+01 1.8057570023349305e+00 0.0000000000000000e+00 0 0 0
45 1 3.6602575215956932e+01 8.6378037164147834e+00 0.0000000000000000e+00 0 0 0
16 1 4.1717087346829913e+01 3.5839187883547359e+00 0.0000000000000000e+00 0 0 0
46 1 4.0690937969521698e+01 7.4526685343610533e+00 0.0000000000000000e+00 0 0 0
47 1 4.4661112989779127e+01 6.5402536726307607e+00 0.0000000000000000e+00 0 0 0
18 1 4.5535726083154479e+01 2.6386597558601022e+00 0.0000000000000000e+00 0 0 0
49 1 4.8381451656507835e+01 5.3688542492825659e+00 0.0000000000000000e+00 0 0 0
50 1 5.1267222887342662e+01 8.3676239897774334e+00 0.0000000000000000e+00 0 0 0
20 1 5.2467843035177566e+01 4.2843524842893475e+00 0.0000000000000000e+00 0 0 0
19 1 4.9521426224052604e+01 1.5403259380789609e+00 0.0000000000000000e+00 0 0 0
51 1 5.5192798247402251e+01 7.2164333295663026e+00 0.0000000000000000e+00 0 0 0
22 1 5.9231124636659004e+01 6.2953142035398271e+00 0.0000000000000000e+00 0 0 0
21 1 5.6344900974117671e+01 3.3073370566417077e+00 0.0000000000000000e+00 0 0 0
23 1 6.0170612728796407e+01 2.4331795361258370e+00 0.0000000000000000e+00 0 0 0
24 1 6.3186235461622609e+01 5.2763648939820227e+00 0.0000000000000000e+00 0 0 0
55 1 6.6033262894000629e+01 8.1037336886387035e+00 0.0000000000000000e+00 0 0 0
25 1 6.7237425942963284e+01 4.2785218848372661e+00 0.0000000000000000e+00 0 0 0
894 1 6.4332576170071690e+01 1.4746521994735355e+00 0.0000000000000000e+00 0 1 0
26 1 7.0030997900001921e+01 7.4578334327680640e+00 0.0000000000000000e+00 0 0 0
27 1 7.1066005727758480e+01 3.2317853830377961e+00 0.0000000000000000e+00 0 0 0
898 1 7.5107173069783215e+01 3.8662020758923510e+00 0.0000000000000000e+00 0 1 0
28 1 7.5765181998210750e+01 7.8531783337798551e+00 0.0000000000000000e+00 0 0 0
29 1 7.8817788214654797e+01 5.0499295927269294e+00 0.0000000000000000e+00 0 0 0
900 1 8.1639608707528083e+01 1.9882546307258764e+00 0.0000000000000000e+00 0 1 0
32 1 6.9791417208550319e+00 9.5712074585377085e+00 0.0000000000000000e+00 0 0 0
62 1 6.1416430959970709e+00 1.3526239842417109e+01 0.0000000000000000e+00 0 0 0
61 1 3.0385400878470694e+00 1.0690454779844883e+01 0.0000000000000000e+00 0 0 0
990 1 2.2590180630506165e+00 1.4708959596745679e+01 0.0000000000000000e+00 1 0 0
63 1 1.0129160567112717e+01 1.2275686121245650e+01 0.0000000000000000e+00 0 0 0
65 1 1.3971200490849437e+01 1.1145426282991517e+01 0.0000000000000000e+00 0 0 0
66 1 1.2932982219572557e+01 1.5189508455474167e+01 0.0000000000000000e+00 0 0 0
38 1 2.1919672034747748e+01 9.0667861837575430e+00 0.0000000000000000e+00 0 0 0
36 1 1.7900024133572586e+01 9.9865744672325469e+00 0.0000000000000000e+00 0 0 0
67 1 1.6826631184192106e+01 1.3960951923840442e+01 0.0000000000000000e+00 0 0 0
69 1 2.0872857330945667e+01 1.2909932887811349e+01 0.0000000000000000e+00 0 0 0
71 1 2.4900950040467976e+01 1.1688222361127156e+01 0.0000000000000000e+00 0 0 0
42 1 2.8892081996048645e+01 1.0780237829579701e+01 0.0000000000000000e+00 0 0 0
72 1 2.7975343621969117e+01 1.4601150430763596e+01 0.0000000000000000e+00 0 0 0
70 1 2.4051222727872588e+01 1.5687224801930224e+01 0.0000000000000000e+00 0 0 0
43 1 3.2825957277905246e+01 9.7219495366687525e+00 0.0000000000000000e+00 0 0 0
44 1 3.5656599685811457e+01 1.2522449972367593e+01 0.0000000000000000e+00 0 0 0
73 1 3.1837604201986970e+01 1.3593106531234840e+01 0.0000000000000000e+00 0 0 0
74 1 3.8531501698807695e+01 1.5289644916119538e+01 0.0000000000000000e+00 0 0 0
75 1 3.9574060028023759e+01 1.1317166819181221e+01 0.0000000000000000e+00 0 0 0
77 1 4.3475787432294048e+01 1.0321307158521085e+01 0.0000000000000000e+00 0 0 0
76 1 4.2350099534043174e+01 1.4183513268175515e+01 0.0000000000000000e+00 0 0 0
48 1 4.7426948663154832e+01 9.3207232906211424e+00 0.0000000000000000e+00 0 0 0
78 1 4.6319051190116490e+01 1.3159560971975266e+01 0.0000000000000000e+00 0 0 0
79 1 5.0277005342902370e+01 1.2356457008509668e+01 0.0000000000000000e+00 0 0 0
80 1 5.3103614547919420e+01 1.5246195995237661e+01 0.0000000000000000e+00 0 0 0
81 1 5.4083082656834193e+01 1.1054712844302083e+01 0.0000000000000000e+00 0 0 0
52 1 5.8049860490787630e+01 1.0001000076797011e+01 0.0000000000000000e+00 0 0 0
82 1 5.7059633821538810e+01 1.3762779805958159e+01 0.0000000000000000e+00 0 0 0
53 1 6.1986513132019859e+01 9.0313183784437037e+00 0.0000000000000000e+00 0 0 0
83 1 6.0920273105421380e+01 1.2936707887834974e+01 0.0000000000000000e+00 0 0 0
54 1 6.4873386585421031e+01 1.2032162613337823e+01 0.0000000000000000e+00 0 0 0
84 1 6.3538432905514235e+01 1.5913686060265364e+01 0.0000000000000000e+00 0 0 0
85 1 6.7557909838678526e+01 1.5383482590698021e+01 0.0000000000000000e+00 0 0 0
57 1 7.2679638285571315e+01 1.0503120864874857e+01 0.0000000000000000e+00 0 0 0
56 1 6.8762208831671174e+01 1.1224025884263119e+01 0.0000000000000000e+00 0 0 0
87 1 7.3698460124628326e+01 1.4548090866152215e+01 0.0000000000000000e+00 0 0 0
59 1 7.9640221589634749e+01 9.0039883170959545e+00 0.0000000000000000e+00 0 0 0
58 1 7.6531327951413843e+01 1.1786800746627417e+01 0.0000000000000000e+00 0 0 0
89 1 8.0746272338880388e+01 1.2753969468642778e+01 0.0000000000000000e+00 0 0 0
88 1 7.7746203680424856e+01 1.5617014534824539e+01 0.0000000000000000e+00 0 0 0
92 1 4.1480141601739922e+00 2.1455359498364416e+01 0.0000000000000000e+00 0 0 0
93 1 5.1572377778119787e+00 1.7505585182061196e+01 0.0000000000000000e+00 0 0 0
94 1 7.9590056100340076e+00 2.0270484169279307e+01 0.0000000000000000e+00 0 0 0
449 1 7.8032967499937328e+01 7.9570568086338767e+01 0.0000000000000000e+00 0 0 0
64 1 8.9392521794451838e+00 1.6282854570607714e+01 0.0000000000000000e+00 0 0 0
95 1 1.2006258104239715e+01 1.8970672996935221e+01 0.0000000000000000e+00 0 0 0
96 1 1.4915680560701905e+01 2.1818375592708755e+01 0.0000000000000000e+00 0 0 0
125 1 1.0946315380725496e+01 2.2913145031602845e+01 0.0000000000000000e+00 0 0 0
97 1 1.5911551121331001e+01 1.7853298698057127e+01 0.0000000000000000e+00 0 0 0
68 1 1.9980484256279727e+01 1.6892502194675348e+01 0.0000000000000000e+00 0 0 0
98 1 1.8840856058092285e+01 2.0930880716803099e+01 0.0000000000000000e+00 0 0 0
99 1 2.2897571025091676e+01 1.9560976079601915e+01 0.0000000000000000e+00 0 0 0
129 1 2.1631657934582261e+01 2.3537501196326346e+01 0.0000000000000000e+00 0 0 0
100 1 2.6870474545171064e+01 1.8559355401529231e+01 0.0000000000000000e+00 0 0 0
131 1 2.9821483289965858e+01 2.1371360709845415e+01 0.0000000000000000e+00 0 0 0
130 1 2.5778784845899818e+01 2.2409563617846466e+01 0.0000000000000000e+00 0 0 0
101 1 3.0832148717060026e+01 1.7609800976666701e+01 0.0000000000000000e+00 0 0 0
103 1 3.4739713626102933e+01 1.6460586659585154e+01 0.0000000000000000e+00 0 0 0
102 1 3.3711712613760938e+01 2.0431916827036126e+01 0.0000000000000000e+00 0 0 0
105 1 3.7511608195397926e+01 1.9281842643701207e+01 0.0000000000000000e+00 0 0 0
104 1 3.6566246655727312e+01 2.3312054915836420e+01 0.0000000000000000e+00 0 0 0
106 1 4.1439126693371804e+01 1.8034781787745185e+01 0.0000000000000000e+00 0 0 0
137 1 4.4178813097513270e+01 2.0914028030164424e+01 0.0000000000000000e+00 0 0 0
135 1 4.0425705290025235e+01 2.2045928353189353e+01 0.0000000000000000e+00 0 0 0
107 1 4.5322132431759641e+01 1.7087856253199849e+01 0.0000000000000000e+00 0 0 0
109 1 4.9183931929796003e+01 1.6327842221645749e+01 0.0000000000000000e+00 0 0 0
108 1 4.8104119218425382e+01 2.0082833670829089e+01 0.0000000000000000e+00 0 0 0
110 1 5.2314947781669460e+01 1.9431151620051320e+01 0.0000000000000000e+00 0 0 0
139 1 5.0665439248496703e+01 2.3078583727066974e+01 0.0000000000000000e+00 0 0 0
111 1 5.6129365296514607e+01 1.7651390357238068e+01 0.0000000000000000e+00 0 0 0
141 1 5.7386851707505393e+01 2.1333259415301271e+01 0.0000000000000000e+00 0 0 0
113 1 6.0303135946303435e+01 1.8317569181260009e+01 0.0000000000000000e+00 0 0 0
143 1 6.1286724247394851e+01 2.2379680659441398e+01 0.0000000000000000e+00 0 0 0
112 1 6.4158759259718295e+01 1.9809380536693041e+01 0.0000000000000000e+00 0 0 0
115 1 6.8059916602045320e+01 2.0480674636846910e+01 0.0000000000000000e+00 0 0 0
86 1 7.1009443991569981e+01 1.7581578668347788e+01 0.0000000000000000e+00 0 0 0
116 1 7.1889041478535560e+01 2.1427157874479217e+01 0.0000000000000000e+00 0 0 0
117 1 7.4848173782201883e+01 1.8356083222129818e+01 0.0000000000000000e+00 0 0 0
118 1 7.5721708141962296e+01 2.2307368451256739e+01 0.0000000000000000e+00 0 0 0
90 1 8.1626321568071887e+01 1.6665269547166467e+01 0.0000000000000000e+00 0 0 0
119 1 7.8718607799232174e+01 1.9483046989906384e+01 0.0000000000000000e+00 0 0 0
123 1 7.1547343779383201e+00 2.4037864629656784e+01 0.0000000000000000e+00 0 0 0
122 1 3.1367414953481498e+00 2.5414809072674267e+01 0.0000000000000000e+00 0 0 0
153 1 6.1675721088764099e+00 2.8235992794094539e+01 0.0000000000000000e+00 0 0 0
152 1 2.2557935998385266e+00 2.9290379309104090e+01 0.0000000000000000e+00 0 0 0
124 1 9.8766302054085653e+00 2.6824381442166338e+01 0.0000000000000000e+00 0 0 0
126 1 1.3816860119926044e+01 2.5785312067425085e+01 0.0000000000000000e+00 0 0 0
155 1 1.2766087119007411e+01 2.9797975220398012e+01 0.0000000000000000e+00 0 0 0
127 1 1.7643116897647865e+01 2.4813921246805560e+01 0.0000000000000000e+00 0 0 0
128 1 2.0662265690131072e+01 2.7381841699489311e+01 0.0000000000000000e+00 0 0 0
157 1 1.6583015084253283e+01 2.8722953224506686e+01 0.0000000000000000e+00 0 0 0
160 1 2.3556411942223292e+01 3.0157721930788103e+01 0.0000000000000000e+00 0 0 0
159 1 2.4603054852477090e+01 2.6224617247927359e+01 0.0000000000000000e+00 0 0 0
132 1 2.8488740265814496e+01 2.5147204401985100e+01 0.0000000000000000e+00 0 0 0
161 1 2.7544112986740181e+01 2.9029591837185109e+01 0.0000000000000000e+00 0 0 0
133 1 3.2704623113505320e+01 2.4231977685533590e+01 0.0000000000000000e+00 0 0 0
163 1 3.1594807266288669e+01 2.8072583835853806e+01 0.0000000000000000e+00 0 0 0
134 1 3.5481009791184533e+01 2.7164779539555894e+01 0.0000000000000000e+00 0 0 0
164 1 3.8282644611568408e+01 3.0187519757502653e+01 0.0000000000000000e+00 0 0 0
136 1 4.3348840257477441e+01 2.4796948552174921e+01 0.0000000000000000e+00 0 0 0
165 1 3.9553923394841121e+01 2.6254051851862584e+01 0.0000000000000000e+00 0 0 0
167 1 4.4535773896198059e+01 2.8579939394819352e+01 0.0000000000000000e+00 0 0 0
138 1 4.7494219895123436e+01 2.5667530266922110e+01 0.0000000000000000e+00 0 0 0
169 1 5.1339575268495672e+01 2.7012539060329381e+01 0.0000000000000000e+00 0 0 0
168 1 4.8507902842410743e+01 3.0029981960122555e+01 0.0000000000000000e+00 0 0 0
140 1 5.4437213146965021e+01 2.4231194429632847e+01 0.0000000000000000e+00 0 0 0
142 1 5.8451365601896960e+01 2.5202294384644478e+01 0.0000000000000000e+00 0 0 0
171 1 5.5348099610751291e+01 2.8151099835634831e+01 0.0000000000000000e+00 0 0 0
172 1 5.9186914083416838e+01 2.9300058464769844e+01 0.0000000000000000e+00 0 0 0
114 1 6.5140403624398857e+01 2.3531920036571734e+01 0.0000000000000000e+00 0 0 0
144 1 6.6135241944588913e+01 2.7522963261142550e+01 0.0000000000000000e+00 0 0 0
173 1 6.2331219778954953e+01 2.6353244613590025e+01 0.0000000000000000e+00 0 0 0
174 1 6.3115915113850761e+01 3.0245474038699573e+01 0.0000000000000000e+00 0 0 0
145 1 6.8999547524714728e+01 2.4554507847727553e+01 0.0000000000000000e+00 0 0 0
146 1 7.0113610886031751e+01 2.8372333634095988e+01 0.0000000000000000e+00 0 0 0
147 1 7.2952737030530784e+01 2.5550100531790509e+01 0.0000000000000000e+00 0 0 0
177 1 7.3924727090371817e+01 2.9393179323851435e+01 0.0000000000000000e+00 0 0 0
149 1 7.9684204591011522e+01 2.3406632487943583e+01 0.0000000000000000e+00 0 0 0
148 1 7.6799695035122269e+01 2.6429276723656930e+01 0.0000000000000000e+00 0 0 0
150 1 8.0834733266691444e+01 2.7414869213561456e+01 0.0000000000000000e+00 0 0 0
179 1 7.7739963860916347e+01 3.0260093113484199e+01 0.0000000000000000e+00 0 0 0
183 1 5.0469167110510398e+00 3.2109721651167561e+01 0.0000000000000000e+00 0 0 0
182 1 4.1699351765366233e+00 3.6166531664165639e+01 0.0000000000000000e+00 0 0 0
184 1 7.8643533821590532e+00 3.5078344461208239e+01 0.0000000000000000e+00 0 0 0
1321 1 8.1933306853434217e+01 7.9011810144214280e+01 0.0000000000000000e+00 0 0 0
154 1 8.9115912687335239e+00 3.1082024071779621e+01 0.0000000000000000e+00 0 0 0
185 1 1.1753853705707018e+01 3.3906653795164999e+01 0.0000000000000000e+00 0 0 0
186 1 1.4738827460313638e+01 3.6675041376907195e+01 0.0000000000000000e+00 0 0 0
215 1 1.0850469906497072e+01 3.7921145835155102e+01 0.0000000000000000e+00 0 0 0
156 1 1.5641024922192077e+01 3.2705847017981903e+01 0.0000000000000000e+00 0 0 0
158 1 1.9677462046047829e+01 3.1294151109662028e+01 0.0000000000000000e+00 0 0 0
187 1 1.8489979097082522e+01 3.5471160609813303e+01 0.0000000000000000e+00 0 0 0
189 1 2.2479530870540859e+01 3.4028983375953985e+01 0.0000000000000000e+00 0 0 0
188 1 2.1589430742504796e+01 3.8057426787030728e+01 0.0000000000000000e+00 0 0 0
191 1 2.6355262545938668e+01 3.2917220020250483e+01 0.0000000000000000e+00 0 0 0
190 1 2.5420217510274732e+01 3.6703959055150733e+01 0.0000000000000000e+00 0 0 0
221 1 2.9361109207590456e+01 3.5567625911158686e+01 0.0000000000000000e+00 0 0 0
162 1 3.0504222870146013e+01 3.1819792353540016e+01 0.0000000000000000e+00 0 0 0
193 1 3.4454068590374440e+01 3.0964703921864864e+01 0.0000000000000000e+00 0 0 0
192 1 3.3242316385803598e+01 3.4805658986025009e+01 0.0000000000000000e+00 0 0 0
194 1 3.6103610298675903e+01 3.7318992084961174e+01 0.0000000000000000e+00 0 0 0
195 1 3.8602956015005788e+01 3.4286770820505915e+01 0.0000000000000000e+00 0 0 0
166 1 4.1906766701920233e+01 3.1609077780181511e+01 0.0000000000000000e+00 0 0 0
196 1 4.2587238597059944e+01 3.5677238069201309e+01 0.0000000000000000e+00 0 0 0
197 1 4.5608112347088742e+01 3.2860434747746893e+01 0.0000000000000000e+00 0 0 0
170 1 5.2462479051755331e+01 3.0972002459206713e+01 0.0000000000000000e+00 0 0 0
199 1 4.9649453131390345e+01 3.3928870284739681e+01 0.0000000000000000e+00 0 0 0
198 1 4.6529486241706259e+01 3.6814823554574346e+01 0.0000000000000000e+00 0 0 0
229 1 5.0536138768728165e+01 3.7816584954341046e+01 0.0000000000000000e+00 0 0 0
201 1 5.6321128825135872e+01 3.2144335863356922e+01 0.0000000000000000e+00 0 0 0
200 1 5.3466754524476777e+01 3.4924601269266667e+01 0.0000000000000000e+00 0 0 0
202 1 5.7437849587114684e+01 3.6206741738453239e+01 0.0000000000000000e+00 0 0 0
203 1 6.0295747446945676e+01 3.3212006308133198e+01 0.0000000000000000e+00 0 0 0
175 1 6.7047874013951102e+01 3.1220463004693304e+01 0.0000000000000000e+00 0 0 0
233 1 6.1399643483324077e+01 3.7029321908610257e+01 0.0000000000000000e+00 0 0 0
204 1 6.4189069866548778e+01 3.4228010970719467e+01 0.0000000000000000e+00 0 0 0
235 1 6.5358427324636779e+01 3.7917295152495093e+01 0.0000000000000000e+00 0 0 0
205 1 6.8262515696437546e+01 3.5195552297125722e+01 0.0000000000000000e+00 0 0 0
176 1 7.1053219581809202e+01 3.2271847755206664e+01 0.0000000000000000e+00 0 0 0
207 1 7.2171291635633750e+01 3.6144300448439438e+01 0.0000000000000000e+00 0 0 0
178 1 7.5036355668768991e+01 3.3254812678062521e+01 0.0000000000000000e+00 0 0 0
180 1 8.1858811507056146e+01 3.1318605777152058e+01 0.0000000000000000e+00 0 0 0
208 1 7.5953743432128306e+01 3.7230767768805563e+01 0.0000000000000000e+00 0 0 0
209 1 7.9051950889001390e+01 3.4231504055164528e+01 0.0000000000000000e+00 0 0 0
212 1 3.1857117928836898e+00 4.0417379673157811e+01 0.0000000000000000e+00 0 0 0
213 1 7.0370998509601286e+00 3.9054324066219209e+01 0.0000000000000000e+00 0 0 0
243 1 6.1686139590423785e+00 4.3051966534691921e+01 0.0000000000000000e+00 0 0 0
241 1 2.2646343481221174e+00 4.4412582649678932e+01 0.0000000000000000e+00 0 0 0
216 1 1.3846809006532425e+01 4.0715803638532606e+01 0.0000000000000000e+00 0 0 0
214 1 1.0035857326739727e+01 4.1882763444012028e+01 0.0000000000000000e+00 0 0 0
245 1 1.3079457135243450e+01 4.4698235202919349e+01 0.0000000000000000e+00 0 0 0
217 1 1.7648397056740102e+01 3.9288908818252253e+01 0.0000000000000000e+00 0 0 0
218 1 2.0541671123266603e+01 4.1941797279699443e+01 0.0000000000000000e+00 0 0 0
247 1 1.7005811113116494e+01 4.3943729262355376e+01 0.0000000000000000e+00 0 0 0
249 1 2.3336581628336042e+01 4.4345906246433529e+01 0.0000000000000000e+00 0 0 0
219 1 2.4705448242065842e+01 4.0584752384601231e+01 0.0000000000000000e+00 0 0 0
220 1 2.8545454263216595e+01 3.9333584409426116e+01 0.0000000000000000e+00 0 0 0
222 1 3.0187246927074103e+01 4.2894797823151940e+01 0.0000000000000000e+00 0 0 0
251 1 2.7145202129218895e+01 4.5296490164552374e+01 0.0000000000000000e+00 0 0 0
223 1 3.2687225482128014e+01 3.9466281260938771e+01 0.0000000000000000e+00 0 0 0
253 1 3.4027545831697701e+01 4.3871031091629952e+01 0.0000000000000000e+00 0 0 0
224 1 3.6934723777606514e+01 4.1199763708064012e+01 0.0000000000000000e+00 0 0 0
255 1 3.7902561840016681e+01 4.5120264774556652e+01 0.0000000000000000e+00 0 0 0
225 1 3.9858073090208435e+01 3.8460034451937254e+01 0.0000000000000000e+00 0 0 0
227 1 4.3622876062721062e+01 3.9541493415009946e+01 0.0000000000000000e+00 0 0 0
226 1 4.0786997193208819e+01 4.2499458969858743e+01 0.0000000000000000e+00 0 0 0
257 1 4.4724497769428410e+01 4.3620530228674902e+01 0.0000000000000000e+00 0 0 0
228 1 4.7559836234631348e+01 4.0698278910231330e+01 0.0000000000000000e+00 0 0 0
230 1 5.1333018225590337e+01 4.1734924554985568e+01 0.0000000000000000e+00 0 0 0
259 1 4.8508993093879681e+01 4.4773983980024944e+01 0.0000000000000000e+00 0 0 0
231 1 5.4412394698939877e+01 3.8893430563303035e+01 0.0000000000000000e+00 0 0 0
232 1 5.8295109325616615e+01 3.9905670497689727e+01 0.0000000000000000e+00 0 0 0
261 1 5.5322404520934981e+01 4.2942572887831680e+01 0.0000000000000000e+00 0 0 0
263 1 5.9155322305852415e+01 4.3785587227626046e+01 0.0000000000000000e+00 0 0 0
234 1 6.2404286456530961e+01 4.0966333942930540e+01 0.0000000000000000e+00 0 0 0
265 1 6.6331301785568684e+01 4.1870719864429923e+01 0.0000000000000000e+00 0 0 0
264 1 6.3207239845197286e+01 4.5007336790135447e+01 0.0000000000000000e+00 0 0 0
206 1 6.9313343646412179e+01 3.9029678105499038e+01 0.0000000000000000e+00 0 0 0
237 1 7.3174478002099931e+01 4.0086935915680975e+01 0.0000000000000000e+00 0 0 0
236 1 7.0158655175035634e+01 4.3078222977893816e+01 0.0000000000000000e+00 0 0 0
238 1 7.4114044441720182e+01 4.4070526374132079e+01 0.0000000000000000e+00 0 0 0
210 1 7.9852723070800209e+01 3.8241223102149412e+01 0.0000000000000000e+00 0 0 0
239 1 7.6975005040732185e+01 4.1254448574465719e+01 0.0000000000000000e+00 0 0 0
240 1 8.1029072363672881e+01 4.2019036159527950e+01 0.0000000000000000e+00 0 0 0
269 1 7.7979469135843559e+01 4.5066237433018031e+01 0.0000000000000000e+00 0 0 0
418 1 7.5395333821505943e+01 7.6536942973416600e+01 0.0000000000000000e+00 0 0 0
242 1 5.2983766042414837e+00 4.7164388921653483e+01 0.0000000000000000e+00 0 0 0
271 1 4.1158126433177307e+00 5.0849863973610070e+01 0.0000000000000000e+00 0 0 0
273 1 8.4975465853789593e+00 4.9843539377878514e+01 0.0000000000000000e+00 0 0 0
244 1 9.0858102393871469e+00 4.5752117628025637e+01 0.0000000000000000e+00 0 0 0
275 1 1.2190020629262719e+01 4.8576166291195179e+01 0.0000000000000000e+00 0 0 0
276 1 1.3842746389839927e+01 5.2088963445056486e+01 0.0000000000000000e+00 0 0 0
246 1 1.6613714798586329e+01 4.8905110381899249e+01 0.0000000000000000e+00 0 0 0
248 1 1.9942378972161446e+01 4.6775576714665000e+01 0.0000000000000000e+00 0 0 0
279 1 2.0918431784254857e+01 5.0685839215314381e+01 0.0000000000000000e+00 0 0 0
250 1 2.3958740128573261e+01 4.8147111795065662e+01 0.0000000000000000e+00 0 0 0
281 1 2.7998472488190490e+01 4.9339285545131361e+01 0.0000000000000000e+00 0 0 0
280 1 2.4906012388116913e+01 5.1991515970506839e+01 0.0000000000000000e+00 0 0 0
252 1 3.0895502365870122e+01 4.6667588311247933e+01 0.0000000000000000e+00 0 0 0
254 1 3.4879299789995777e+01 4.7735908784646490e+01 0.0000000000000000e+00 0 0 0
283 1 3.1809059927253106e+01 5.0495688182562169e+01 0.0000000000000000e+00 0 0 0
284 1 3.5745501907643927e+01 5.1678665678174468e+01 0.0000000000000000e+00 0 0 0
256 1 4.1739641604454718e+01 4.6419153049355550e+01 0.0000000000000000e+00 0 0 0
285 1 3.8767746987656196e+01 4.8912317649576430e+01 0.0000000000000000e+00 0 0 0
287 1 4.2575962576648323e+01 5.0263839773295992e+01 0.0000000000000000e+00 0 0 0
258 1 4.5487666566308171e+01 4.7534024789653714e+01 0.0000000000000000e+00 0 0 0
260 1 5.2336653502417903e+01 4.5920179429363195e+01 0.0000000000000000e+00 0 0 0
288 1 4.6277090486818764e+01 5.1517003916235133e+01 0.0000000000000000e+00 0 0 0
289 1 4.9316116273907163e+01 4.8802687103402150e+01 0.0000000000000000e+00 0 0 0
290 1 5.0151908447861238e+01 5.2717840230424144e+01 0.0000000000000000e+00 0 0 0
262 1 5.6224053400842976e+01 4.6903823872273520e+01 0.0000000000000000e+00 0 0 0
291 1 5.3254041385428984e+01 4.9877363677535023e+01 0.0000000000000000e+00 0 0 0
292 1 5.7137521199895161e+01 5.0906070098206690e+01 0.0000000000000000e+00 0 0 0
293 1 6.0178906513749560e+01 4.7669520404384592e+01 0.0000000000000000e+00 0 0 0
266 1 6.7127299342642232e+01 4.5844984191124894e+01 0.0000000000000000e+00 0 0 0
295 1 6.4252621172683178e+01 4.8979685139046282e+01 0.0000000000000000e+00 0 0 0
294 1 6.1254975673687333e+01 5.1727998717410216e+01 0.0000000000000000e+00 0 0 0
296 1 6.5137470411394759e+01 5.2897403296528459e+01 0.0000000000000000e+00 0 0 0
267 1 7.1191108932778803e+01 4.6859889371033027e+01 0.0000000000000000e+00 0 0 0
297 1 6.8145356977188683e+01 4.9670145745286462e+01 0.0000000000000000e+00 0 0 0
298 1 7.2069111004118383e+01 5.0836908369664819e+01 0.0000000000000000e+00 0 0 0
268 1 7.5119716842131140e+01 4.7953125346552000e+01 0.0000000000000000e+00 0 0 0
270 1 7.8961737730792592e+01 4.8895834345370382e+01 0.0000000000000000e+00 0 0 0
299 1 7.5998526742696299e+01 5.1991030843065531e+01 0.0000000000000000e+00 0 0 0
1141 1 8.2063828268676701e+01 4.5952638922797455e+01 0.0000000000000000e+00 0 0 0
272 1 6.9763072735146698e+00 5.3455305752636299e+01 0.0000000000000000e+00 0 0 0
301 1 3.6161645031151783e+00 5.5676293669038500e+01 0.0000000000000000e+00 0 0 0
303 1 7.5781491371781460e+00 5.7250703057897042e+01 0.0000000000000000e+00 0 0 0
302 1 4.4403523092856076e+00 5.9612959356745392e+01 0.0000000000000000e+00 0 0 0
274 1 1.0750191253302667e+01 5.4567798221066028e+01 0.0000000000000000e+00 0 0 0
304 1 1.1366236936726811e+01 5.8542359809942944e+01 0.0000000000000000e+00 0 0 0
305 1 1.4539598759597327e+01 5.5981225473511728e+01 0.0000000000000000e+00 0 0 0
306 1 1.5206702148333854e+01 5.9924213662568654e+01 0.0000000000000000e+00 0 0 0
277 1 1.7804448627310496e+01 5.3229384707758435e+01 0.0000000000000000e+00 0 0 0
278 1 2.1691247536405648e+01 5.4615654709405831e+01 0.0000000000000000e+00 0 0 0
307 1 1.8376114101739034e+01 5.7202258927180360e+01 0.0000000000000000e+00 0 0 0
309 1 2.2351882647142300e+01 5.8609663640028167e+01 0.0000000000000000e+00 0 0 0
282 1 2.8634602247246228e+01 5.3239388840259437e+01 0.0000000000000000e+00 0 0 0
311 1 2.5439460574605786e+01 5.5941126900219537e+01 0.0000000000000000e+00 0 0 0
312 1 2.9286646884481915e+01 5.7174058143844988e+01 0.0000000000000000e+00 0 0 0
310 1 2.6175808183185634e+01 5.9868068523138874e+01 0.0000000000000000e+00 0 0 0
313 1 3.2465527819167633e+01 5.4481153772528664e+01 0.0000000000000000e+00 0 0 0
314 1 3.3125865326084352e+01 5.8405429375454915e+01 0.0000000000000000e+00 0 0 0
315 1 3.6428024864839941e+01 5.5569968761597650e+01 0.0000000000000000e+00 0 0 0
345 1 3.7062162641112586e+01 5.9608709785494206e+01 0.0000000000000000e+00 0 0 0
286 1 3.9672748602881654e+01 5.2889532959178638e+01 0.0000000000000000e+00 0 0 0
317 1 4.3326173267443352e+01 5.4218383767152332e+01 0.0000000000000000e+00 0 0 0
316 1 4.0167510548862197e+01 5.6941937141464635e+01 0.0000000000000000e+00 0 0 0
318 1 4.4240735661714574e+01 5.8161859948593097e+01 0.0000000000000000e+00 0 0 0
319 1 4.7272119321847292e+01 5.5511386440305571e+01 0.0000000000000000e+00 0 0 0
320 1 5.1358694362056099e+01 5.6569760225470162e+01 0.0000000000000000e+00 0 0 0
349 1 4.8211280849230647e+01 5.9360250108179791e+01 0.0000000000000000e+00 0 0 0
321 1 5.4340729245775549e+01 5.3981674263112431e+01 0.0000000000000000e+00 0 0 0
322 1 5.5264381413431408e+01 5.7822140502914252e+01 0.0000000000000000e+00 0 0 0
323 1 5.8353402694661817e+01 5.4706994451813017e+01 0.0000000000000000e+00 0 0 0
353 1 5.9220220421321372e+01 5.8581119395813936e+01 0.0000000000000000e+00 0 0 0
324 1 6.2284844702442655e+01 5.5721396950906311e+01 0.0000000000000000e+00 0 0 0
325 1 6.6204565729292511e+01 5.6754113096681351e+01 0.0000000000000000e+00 0 0 0
355 1 6.3105807620473108e+01 5.9798115653593428e+01 0.0000000000000000e+00 0 0 0
326 1 7.0223395296370924e+01 5.7573818050798344e+01 0.0000000000000000e+00 0 0 0
327 1 6.9045789962831620e+01 5.3792885708117723e+01 0.0000000000000000e+00 0 0 0
328 1 7.3113728199796327e+01 5.4782395254561479e+01 0.0000000000000000e+00 0 0 0
359 1 7.4020983135732280e+01 5.8651751324812423e+01 0.0000000000000000e+00 0 0 0
300 1 7.9981131769015491e+01 5.2956626294323449e+01 0.0000000000000000e+00 0 0 0
329 1 7.7064024702331523e+01 5.5903177441170406e+01 0.0000000000000000e+00 0 0 0
1201 1 8.1134020068178557e+01 5.6937628670899002e+01 0.0000000000000000e+00 0 0 0
330 1 7.7990946494759271e+01 5.9828970434981521e+01 0.0000000000000000e+00 0 0 0
332 1 5.0482315436467236e+00 6.3681586586598755e+01 0.0000000000000000e+00 0 0 0
361 1 1.7947222387425437e+00 6.6278834698962555e+01 0.0000000000000000e+00 0 0 0
333 1 8.2050956220925251e+00 6.1247189977511717e+01 0.0000000000000000e+00 0 0 0
334 1 8.9038262373001444e+00 6.5215966668040892e+01 0.0000000000000000e+00 0 0 0
335 1 1.2159522343319708e+01 6.2506559130719886e+01 0.0000000000000000e+00 0 0 0
336 1 1.3003987631734017e+01 6.6521036146363244e+01 0.0000000000000000e+00 0 0 0
337 1 1.6110615551524976e+01 6.3921128502250646e+01 0.0000000000000000e+00 0 0 0
308 1 1.9009119708989530e+01 6.1328085874588801e+01 0.0000000000000000e+00 0 0 0
338 1 1.9773919039783976e+01 6.5284543650389566e+01 0.0000000000000000e+00 0 0 0
339 1 2.3020772451416782e+01 6.2533649037668241e+01 0.0000000000000000e+00 0 0 0
340 1 2.3886292291920000e+01 6.6614897640409978e+01 0.0000000000000000e+00 0 0 0
341 1 2.6971978330513743e+01 6.3882653789283502e+01 0.0000000000000000e+00 0 0 0
343 1 3.0159544956114342e+01 6.1151297011893988e+01 0.0000000000000000e+00 0 0 0
342 1 3.0936747848151771e+01 6.5143696024256656e+01 0.0000000000000000e+00 0 0 0
344 1 3.4104621058636113e+01 6.2475541401105851e+01 0.0000000000000000e+00 0 0 0
373 1 3.4847302502578849e+01 6.6382412018946368e+01 0.0000000000000000e+00 0 0 0
346 1 3.7981015994072301e+01 6.3470741620031397e+01 0.0000000000000000e+00 0 0 0
347 1 4.1149822916889534e+01 6.0869349295743028e+01 0.0000000000000000e+00 0 0 0
377 1 4.2008098703058103e+01 6.4795989101906002e+01 0.0000000000000000e+00 0 0 0
348 1 4.5233218776595443e+01 6.2169695320526763e+01 0.0000000000000000e+00 0 0 0
375 1 3.8859163742012100e+01 6.7384126989812515e+01 0.0000000000000000e+00 0 0 0
350 1 5.2211619384284390e+01 6.0517440431937267e+01 0.0000000000000000e+00 0 0 0
376 1 4.5887876076490670e+01 6.6112005874816049e+01 0.0000000000000000e+00 0 0 0
378 1 4.9066947517530600e+01 6.3363217374433809e+01 0.0000000000000000e+00 0 0 0
409 1 4.9765453802727656e+01 6.7307283694699450e+01 0.0000000000000000e+00 0 0 0
379 1 5.3151598802934721e+01 6.4479069305156287e+01 0.0000000000000000e+00 0 0 0
351 1 5.6244278771189414e+01 6.1664085324413357e+01 0.0000000000000000e+00 0 0 0
381 1 5.7097776759342224e+01 6.5765561109104567e+01 0.0000000000000000e+00 0 0 0
352 1 6.0319244904101211e+01 6.2669148525760072e+01 0.0000000000000000e+00 0 0 0
356 1 6.7063345424838602e+01 6.0681247385639395e+01 0.0000000000000000e+00 0 0 0
382 1 6.1008267139192647e+01 6.6770518182487024e+01 0.0000000000000000e+00 0 0 0
354 1 6.4126847232540655e+01 6.3604825488826968e+01 0.0000000000000000e+00 0 0 0
383 1 6.5064453884364610e+01 6.7398889634632880e+01 0.0000000000000000e+00 0 0 0
385 1 6.8142663554456533e+01 6.4724155239920663e+01 0.0000000000000000e+00 0 0 0
357 1 7.1002797572956993e+01 6.1593631779479239e+01 0.0000000000000000e+00 0 0 0
387 1 7.2032673360602203e+01 6.5609124263942618e+01 0.0000000000000000e+00 0 0 0
358 1 7.4903954316951484e+01 6.2717455020485566e+01 0.0000000000000000e+00 0 0 0