LAMMPS data file via write_data, version 17 Nov 2016, timestep = 200000

1800 atoms
1 atom types

1.1896887649590155e+00 1.6381031123503510e+02 xlo xhi
1.1896887649590155e+00 1.6381031123503510e+02 ylo yhi
0.0000000000000000e+00 5.5000000000000000e+00 zlo zhi

Masses

1 83.798

Atoms # atomic

2 1 3.6801137685481966e+00 3.6215516677358890e+00 0.0000000000000000e+00 0 0 0
3 1 7.5420781946851507e+00 2.6749171379880536e+00 0.0000000000000000e+00 0 0 0
33 1 6.4810165182741875e+00 6.5241598854333622e+00 0.0000000000000000e+00 0 0 0
31 1 2.4643996773496761e+00 7.6333453772194453e+00 0.0000000000000000e+00 0 0 0
4 1 1.0475893204827790e+01 5.5786192052661203e+00 0.0000000000000000e+00 0 0 0
6 1 1.4581816076930362e+01 4.7043281921077700e+00 0.0000000000000000e+00 0 0 0
5 1 1.1713429198439865e+01 1.6536305791973362e+00 0.0000000000000000e+00 0 0 0
35 1 1.3196843744128103e+01 8.5124764474173151e+00 0.0000000000000000e+00 0 0 0
8 1 1.8476815438330725e+01 3.6474077824969182e+00 0.0000000000000000e+00 0 0 0
37 1 1.7374065599865119e+01 7.5190602048349442e+00 0.0000000000000000e+00 0 0 0
9 1 2.2734030131908444e+01 2.5174927366942210e+00 0.0000000000000000e+00 0 0 0
39 1 2.1471780724611662e+01 6.4580087787393632e+00 0.0000000000000000e+00 0 0 0
10 1 2.6386751479289888e+01 4.3801407647888499e+00 0.0000000000000000e+00 0 0 0
41 1 3.0406735007552342e+01 6.1303001504017445e+00 0.0000000000000000e+00 0 0 0
12 1 3.0247490462571339e+01 2.2215805553059784e+00 0.0000000000000000e+00 0 0 0
40 1 2.7145543437039279e+01 8.3565755144147182e+00 0.0000000000000000e+00 0 0 0
14 1 3.3991127639847868e+01 4.0769908834408470e+00 0.0000000000000000e+00 0 0 0
45 1 3.7510375079207456e+01 6.0561916761761916e+00 0.0000000000000000e+00 0 0 0
15 1 3.7369004231439796e+01 1.8391847536497128e+00 0.0000000000000000e+00 0 0 0
43 1 3.4006646623989454e+01 8.1741679025326128e+00 0.0000000000000000e+00 0 0 0
16 1 4.0878463598738243e+01 3.7438416464407061e+00 0.0000000000000000e+00 0 0 0
18 1 4.4533391176040887e+01 5.8115318159546163e+00 0.0000000000000000e+00 0 0 0
17 1 4.4493130616308349e+01 1.6478645965152952e+00 0.0000000000000000e+00 0 0 0
46 1 4.0995331933384392e+01 7.9620799063878760e+00 0.0000000000000000e+00 0 0 0
49 1 4.8413157223422260e+01 7.7954027331527493e+00 0.0000000000000000e+00 0 0 0
19 1 4.7970114855685793e+01 3.7223434267255988e+00 0.0000000000000000e+00 0 0 0
20 1 5.2277922788799060e+01 5.6006350569785974e+00 0.0000000000000000e+00 0 0 0
890 1 5.1405184395137127e+01 1.2888436043580553e+00 0.0000000000000000e+00 0 1 0
21 1 5.6608548030518797e+01 4.3468938704688016e+00 0.0000000000000000e+00 0 0 0
22 1 5.9989217309210751e+01 6.8789350289578941e+00 0.0000000000000000e+00 0 0 0
51 1 5.5885219686274986e+01 8.2423621246649539e+00 0.0000000000000000e+00 0 0 0
23 1 6.0848864731645584e+01 3.0586683517062561e+00 0.0000000000000000e+00 0 0 0
24 1 6.4004871155231783e+01 5.5541790258620489e+00 0.0000000000000000e+00 0 0 0
55 1 6.6975779772499379e+01 8.3403364747860103e+00 0.0000000000000000e+00 0 0 0
894 1 6.4470730384648490e+01 1.5078965264808766e+00 0.0000000000000000e+00 0 1 0
25 1 6.7638177126510087e+01 4.1243268462247444e+00 0.0000000000000000e+00 0 0 0
26 1 7.0599024356225200e+01 7.0074651503155261e+00 0.0000000000000000e+00 0 0 0
27 1 7.1588669198095204e+01 2.9425177564826406e+00 0.0000000000000000e+00 0 0 0
28 1 7.4385738220436281e+01 5.5864675560183503e+00 0.0000000000000000e+00 0 0 0
29 1 7.8396520950408714e+01 6.1350622120561775e+00 0.0000000000000000e+00 0 0 0
900 1 8.1107667336110779e+01 3.0251317186768252e+00 0.0000000000000000e+00 0 1 0
898 1 7.6952834099925241e+01 2.2336284218382634e+00 0.0000000000000000e+00 0 1 0
30 1 8.2255625359167823e+01 6.8656404404432765e+00 0.0000000000000000e+00 0 0 0
32 1 5.2807961276347477e+00 1.0567286695194868e+01 0.0000000000000000e+00 0 0 0
63 1 8.1226700914886223e+00 1.3519190155469541e+01 0.0000000000000000e+00 0 0 0
62 1 4.0465843304685478e+00 1.4446329831726219e+01 0.0000000000000000e+00 0 0 0
34 1 9.2093278648529466e+00 9.5495774321679754e+00 0.0000000000000000e+00 0 0 0
65 1 1.2027398876576701e+01 1.2375105741863097e+01 0.0000000000000000e+00 0 0 0
66 1 1.4893794609796576e+01 1.5269349611115359e+01 0.0000000000000000e+00 0 0 0
36 1 1.5895085853204803e+01 1.1240417549157828e+01 0.0000000000000000e+00 0 0 0
38 1 1.9825009476861840e+01 1.0751510130162909e+01 0.0000000000000000e+00 0 0 0
67 1 1.8651908216548996e+01 1.4489251595958510e+01 0.0000000000000000e+00 0 0 0
68 1 2.2747521316444317e+01 1.3742811462378619e+01 0.0000000000000000e+00 0 0 0
69 1 2.3521233836106752e+01 9.8252475834781023e+00 0.0000000000000000e+00 0 0 0
71 1 2.6687792490227267e+01 1.2303037216173392e+01 0.0000000000000000e+00 0 0 0
72 1 2.9863537484366287e+01 1.4545120748528692e+01 0.0000000000000000e+00 0 0 0
42 1 3.0476988110284818e+01 1.0443278426312871e+01 0.0000000000000000e+00 0 0 0
44 1 3.7452941181333429e+01 1.0097907321210235e+01 0.0000000000000000e+00 0 0 0
73 1 3.3863507224131403e+01 1.2284608516206855e+01 0.0000000000000000e+00 0 0 0
74 1 3.7415652030552572e+01 1.4056324609670032e+01 0.0000000000000000e+00 0 0 0
47 1 4.4791871933529670e+01 9.9390038312962581e+00 0.0000000000000000e+00 0 0 0
75 1 4.1056834419244964e+01 1.2040530286492759e+01 0.0000000000000000e+00 0 0 0
77 1 4.4521569250383962e+01 1.3861872751026617e+01 0.0000000000000000e+00 0 0 0
50 1 5.1931652446550515e+01 9.9186783195956956e+00 0.0000000000000000e+00 0 0 0
48 1 4.8319454771804821e+01 1.1940187663260499e+01 0.0000000000000000e+00 0 0 0
79 1 5.1610192922983572e+01 1.3992376235087310e+01 0.0000000000000000e+00 0 0 0
81 1 5.5380052683756247e+01 1.2206030010417535e+01 0.0000000000000000e+00 0 0 0
52 1 5.9299764473267331e+01 1.0778633641543012e+01 0.0000000000000000e+00 0 0 0
82 1 5.8614963576850755e+01 1.4751770309832620e+01 0.0000000000000000e+00 0 0 0
53 1 6.3219096663304548e+01 9.5742638213297830e+00 0.0000000000000000e+00 0 0 0
83 1 6.2473727787758342e+01 1.3624968639860327e+01 0.0000000000000000e+00 0 0 0
54 1 6.6375618379638482e+01 1.2354295960816938e+01 0.0000000000000000e+00 0 0 0
56 1 7.0112835530549262e+01 1.1111356919435037e+01 0.0000000000000000e+00 0 0 0
85 1 6.9463450842441844e+01 1.5034671922308270e+01 0.0000000000000000e+00 0 0 0
87 1 7.3627402954111474e+01 1.5541707273101311e+01 0.0000000000000000e+00 0 0 0
57 1 7.3968367685498492e+01 9.6008131835462187e+00 0.0000000000000000e+00 0 0 0
59 1 7.9174255491618709e+01 1.0055442931621231e+01 0.0000000000000000e+00 0 0 0
58 1 7.6507928802975712e+01 1.2862126179681555e+01 0.0000000000000000e+00 0 0 0
89 1 8.0735238010415500e+01 1.3658139151890850e+01 0.0000000000000000e+00 0 0 0
92 1 5.7555236354725574e+00 2.1212463660280001e+01 0.0000000000000000e+00 0 0 0
93 1 6.9081114476472782e+00 1.7471109812301261e+01 0.0000000000000000e+00 0 0 0
91 1 2.7826299578771989e+00 1.8251401587077066e+01 0.0000000000000000e+00 0 0 0
121 1 1.8132477067499653e+00 2.2251845245175542e+01 0.0000000000000000e+00 0 0 0
64 1 1.0887416548610750e+01 1.6358631207202805e+01 0.0000000000000000e+00 0 0 0
94 1 9.7475009680264559e+00 2.0332557327891088e+01 0.0000000000000000e+00 0 0 0
95 1 1.3621267995847562e+01 1.9290932502540493e+01 0.0000000000000000e+00 0 0 0
125 1 1.2444515845746828e+01 2.3418200727877913e+01 0.0000000000000000e+00 0 0 0
96 1 1.6463330831753758e+01 2.2261556866527041e+01 0.0000000000000000e+00 0 0 0
97 1 1.7574694284589992e+01 1.8519799072562947e+01 0.0000000000000000e+00 0 0 0
98 1 2.0545020831762372e+01 2.1415374666323927e+01 0.0000000000000000e+00 0 0 0
99 1 2.1711506515246835e+01 1.7602093830139850e+01 0.0000000000000000e+00 0 0 0
70 1 2.6201819659437774e+01 1.6416063768545570e+01 0.0000000000000000e+00 0 0 0
100 1 2.4598201615633137e+01 2.0296761340641162e+01 0.0000000000000000e+00 0 0 0
101 1 3.0179029502139429e+01 1.8485668281955203e+01 0.0000000000000000e+00 0 0 0
130 1 2.7055722218689425e+01 2.3427461952515067e+01 0.0000000000000000e+00 0 0 0
131 1 3.0819289430881796e+01 2.2636813053681180e+01 0.0000000000000000e+00 0 0 0
103 1 3.3620834529828294e+01 1.6102825599706755e+01 0.0000000000000000e+00 0 0 0
102 1 3.3911314899781345e+01 2.0281746381948142e+01 0.0000000000000000e+00 0 0 0
104 1 3.7291181686538458e+01 2.2344742587659720e+01 0.0000000000000000e+00 0 0 0
105 1 3.7237844246478382e+01 1.8122417503373011e+01 0.0000000000000000e+00 0 0 0
76 1 4.0883227470054493e+01 1.5997520121710577e+01 0.0000000000000000e+00 0 0 0
106 1 4.0713267525300509e+01 2.0098249019126076e+01 0.0000000000000000e+00 0 0 0
137 1 4.4339564716606503e+01 2.1798552053876147e+01 0.0000000000000000e+00 0 0 0
107 1 4.4451381317383884e+01 1.7824902185111860e+01 0.0000000000000000e+00 0 0 0
78 1 4.7953965191441299e+01 1.6058497271633406e+01 0.0000000000000000e+00 0 0 0
108 1 4.8045124908680123e+01 2.0272022567829453e+01 0.0000000000000000e+00 0 0 0
109 1 5.1310449783397338e+01 1.8089128017798316e+01 0.0000000000000000e+00 0 0 0
139 1 5.1309560848287532e+01 2.3141097676258678e+01 0.0000000000000000e+00 0 0 0
80 1 5.4882283338047614e+01 1.6240952403714918e+01 0.0000000000000000e+00 0 0 0
110 1 5.4586277440925784e+01 2.0515218776094414e+01 0.0000000000000000e+00 0 0 0
111 1 5.8057568139875556e+01 1.8659761317049448e+01 0.0000000000000000e+00 0 0 0
141 1 5.8333905208566193e+01 2.2381122612233874e+01 0.0000000000000000e+00 0 0 0
84 1 6.5683993402607243e+01 1.6194936819584669e+01 0.0000000000000000e+00 0 0 0
113 1 6.1870760927871906e+01 1.7437358527113414e+01 0.0000000000000000e+00 0 0 0
112 1 6.4887424505126816e+01 2.0283459100331800e+01 0.0000000000000000e+00 0 0 0
143 1 6.2065225034988039e+01 2.3154072706351172e+01 0.0000000000000000e+00 0 0 0
115 1 6.8538211853293149e+01 2.1691455224984864e+01 0.0000000000000000e+00 0 0 0
86 1 7.1092262145771329e+01 1.8712734398087143e+01 0.0000000000000000e+00 0 0 0
116 1 7.2454082894341141e+01 2.2577272975497998e+01 0.0000000000000000e+00 0 0 0
117 1 7.5099813168246314e+01 1.9521985854722793e+01 0.0000000000000000e+00 0 0 0
88 1 7.7787156741382219e+01 1.6593527865561036e+01 0.0000000000000000e+00 0 0 0
119 1 7.9160446895535316e+01 2.0519728221062529e+01 0.0000000000000000e+00 0 0 0
90 1 8.1823540374817100e+01 1.7578314929076630e+01 0.0000000000000000e+00 0 0 0
122 1 4.5878788531623940e+00 2.5143627874826993e+01 0.0000000000000000e+00 0 0 0
153 1 7.3386859209781106e+00 2.8125252030498565e+01 0.0000000000000000e+00 0 0 0
152 1 3.4945697154974296e+00 2.9116476438483133e+01 0.0000000000000000e+00 0 0 0
123 1 8.5892218132776534e+00 2.4248395480016967e+01 0.0000000000000000e+00 0 0 0
124 1 1.1352880451804513e+01 2.7288797126747752e+01 0.0000000000000000e+00 0 0 0
126 1 1.5299751542320024e+01 2.6290104167703536e+01 0.0000000000000000e+00 0 0 0
155 1 1.4089596710636409e+01 3.0142321999780602e+01 0.0000000000000000e+00 0 0 0
127 1 1.9252999292125747e+01 2.5255877225363907e+01 0.0000000000000000e+00 0 0 0
128 1 2.2139495341510028e+01 2.8254034821207771e+01 0.0000000000000000e+00 0 0 0
157 1 1.8227111360106058e+01 2.9157334003043971e+01 0.0000000000000000e+00 0 0 0
129 1 2.3322258672458297e+01 2.4315802368597048e+01 0.0000000000000000e+00 0 0 0
159 1 2.6093696261792285e+01 2.7168478804180758e+01 0.0000000000000000e+00 0 0 0
161 1 2.8645714581086082e+01 3.0379246692818775e+01 0.0000000000000000e+00 0 0 0
132 1 3.0298439778535275e+01 2.6724505571902249e+01 0.0000000000000000e+00 0 0 0
133 1 3.4057048921629921e+01 2.5003338189568872e+01 0.0000000000000000e+00 0 0 0
163 1 3.4305262952838312e+01 2.9056909448736096e+01 0.0000000000000000e+00 0 0 0
134 1 3.7764098990452325e+01 2.6932499309461168e+01 0.0000000000000000e+00 0 0 0
135 1 4.0884238749311201e+01 2.4293423418899902e+01 0.0000000000000000e+00 0 0 0
136 1 4.4657302517296408e+01 2.5659354651611942e+01 0.0000000000000000e+00 0 0 0
165 1 4.1597548073010444e+01 2.8290725143021891e+01 0.0000000000000000e+00 0 0 0
167 1 4.5599565700836202e+01 2.9551596562182045e+01 0.0000000000000000e+00 0 0 0
138 1 4.8457849136846193e+01 2.6485553347523684e+01 0.0000000000000000e+00 0 0 0
169 1 5.2270620085597095e+01 2.7719701407266477e+01 0.0000000000000000e+00 0 0 0
140 1 5.5174099444739639e+01 2.4772929044529711e+01 0.0000000000000000e+00 0 0 0
142 1 5.9045035486824254e+01 2.6178076449796450e+01 0.0000000000000000e+00 0 0 0
171 1 5.6189536261836338e+01 2.8899927409601371e+01 0.0000000000000000e+00 0 0 0
172 1 5.9948048962568997e+01 3.0098197791696077e+01 0.0000000000000000e+00 0 0 0
114 1 6.5771767138814539e+01 2.4386880427778177e+01 0.0000000000000000e+00 0 0 0
144 1 6.6830621028891031e+01 2.8319072027981640e+01 0.0000000000000000e+00 0 0 0
173 1 6.2938103293707123e+01 2.7229111468806245e+01 0.0000000000000000e+00 0 0 0
145 1 6.9566592850857873e+01 2.5538010684921701e+01 0.0000000000000000e+00 0 0 0
146 1 7.0764010812682713e+01 2.9383953115487500e+01 0.0000000000000000e+00 0 0 0
147 1 7.3595675470717339e+01 2.6376092844953302e+01 0.0000000000000000e+00 0 0 0
177 1 7.4679489095260365e+01 3.0281226839877352e+01 0.0000000000000000e+00 0 0 0
118 1 7.6358981683475093e+01 2.3416274854851114e+01 0.0000000000000000e+00 0 0 0
149 1 8.0310644642080931e+01 2.4302182935850535e+01 0.0000000000000000e+00 0 0 0
148 1 7.7470780398309671e+01 2.7209817224263304e+01 0.0000000000000000e+00 0 0 0
150 1 8.1513074152979470e+01 2.8332347416260376e+01 0.0000000000000000e+00 0 0 0
181 1 2.3391524600981239e+00 3.3140331440955890e+01 0.0000000000000000e+00 0 0 0
183 1 6.2047399117758886e+00 3.2039536993838688e+01 0.0000000000000000e+00 0 0 0
182 1 5.3114122854108219e+00 3.6042298160214102e+01 0.0000000000000000e+00 0 0 0
154 1 1.0086393075748322e+01 3.1114644644830211e+01 0.0000000000000000e+00 0 0 0
184 1 9.1416050488553786e+00 3.4974061236517549e+01 0.0000000000000000e+00 0 0 0
185 1 1.3075013944766582e+01 3.4065582324985343e+01 0.0000000000000000e+00 0 0 0
215 1 1.1860658205484837e+01 3.7810641505664890e+01 0.0000000000000000e+00 0 0 0
186 1 1.5849188981664724e+01 3.6984890652322719e+01 0.0000000000000000e+00 0 0 0
156 1 1.6993716035978970e+01 3.3065912071202519e+01 0.0000000000000000e+00 0 0 0
158 1 2.0881706055650085e+01 3.2128698118674670e+01 0.0000000000000000e+00 0 0 0
187 1 1.9736319074624568e+01 3.6149050206215399e+01 0.0000000000000000e+00 0 0 0
160 1 2.4771197137783478e+01 3.1168099675917752e+01 0.0000000000000000e+00 0 0 0
189 1 2.3787815043478425e+01 3.4975532815566076e+01 0.0000000000000000e+00 0 0 0
191 1 2.7931350548669315e+01 3.4479650936276705e+01 0.0000000000000000e+00 0 0 0
162 1 3.1812137725590702e+01 3.2733960753370070e+01 0.0000000000000000e+00 0 0 0
193 1 3.5600646130766940e+01 3.3954504340309079e+01 0.0000000000000000e+00 0 0 0
192 1 3.2461482652235929e+01 3.6612706440508298e+01 0.0000000000000000e+00 0 0 0
194 1 3.6442519176169988e+01 3.7833996321081770e+01 0.0000000000000000e+00 0 0 0
164 1 3.8401478257336464e+01 3.0988214212384843e+01 0.0000000000000000e+00 0 0 0
195 1 3.9488088014955345e+01 3.5005953693353021e+01 0.0000000000000000e+00 0 0 0
166 1 4.2497518671510811e+01 3.2285061709474434e+01 0.0000000000000000e+00 0 0 0
196 1 4.3291017007883362e+01 3.6154151357051589e+01 0.0000000000000000e+00 0 0 0
168 1 4.9379370108957559e+01 3.0489465293679576e+01 0.0000000000000000e+00 0 0 0
197 1 4.6361071873429303e+01 3.3505380653973248e+01 0.0000000000000000e+00 0 0 0
199 1 5.0314513244921912e+01 3.4700575307743293e+01 0.0000000000000000e+00 0 0 0
198 1 4.7188693300142724e+01 3.7617626716546425e+01 0.0000000000000000e+00 0 0 0
170 1 5.3243982340087364e+01 3.1666512930899085e+01 0.0000000000000000e+00 0 0 0
201 1 5.7127170212477999e+01 3.2838020338382734e+01 0.0000000000000000e+00 0 0 0
200 1 5.4234235885826763e+01 3.5640056215442144e+01 0.0000000000000000e+00 0 0 0
202 1 5.8137991250938327e+01 3.6903167639372221e+01 0.0000000000000000e+00 0 0 0
174 1 6.3943721107473806e+01 3.1184041117237136e+01 0.0000000000000000e+00 0 0 0
203 1 6.1031599914317340e+01 3.3984471701516092e+01 0.0000000000000000e+00 0 0 0
233 1 6.2130932732396850e+01 3.7885470071561912e+01 0.0000000000000000e+00 0 0 0
204 1 6.5062731681992375e+01 3.5140490697355538e+01 0.0000000000000000e+00 0 0 0
175 1 6.7891987065707639e+01 3.2232298205141483e+01 0.0000000000000000e+00 0 0 0
205 1 6.9001708160647539e+01 3.6026870009306712e+01 0.0000000000000000e+00 0 0 0
176 1 7.1909910195476400e+01 3.3188020118669826e+01 0.0000000000000000e+00 0 0 0
207 1 7.2871879125948709e+01 3.7173032658529166e+01 0.0000000000000000e+00 0 0 0
179 1 7.8621531293041187e+01 3.1261188527836637e+01 0.0000000000000000e+00 0 0 0
178 1 7.5892451419187552e+01 3.4220426541926329e+01 0.0000000000000000e+00 0 0 0
209 1 7.9730038555603372e+01 3.5103198795053217e+01 0.0000000000000000e+00 0 0 0
208 1 7.6847789618649614e+01 3.8169086813583661e+01 0.0000000000000000e+00 0 0 0
212 1 4.5515954280658875e+00 4.3181901635261497e+01 0.0000000000000000e+00 0 0 0
211 1 3.2929022970623656e+00 3.9484908803708080e+01 0.0000000000000000e+00 0 0 0
213 1 7.6813960308941471e+00 3.9581977970477183e+01 0.0000000000000000e+00 0 0 0
243 1 8.4325153671786772e+00 4.4164305551032648e+01 0.0000000000000000e+00 0 0 0
214 1 1.1449337209791450e+01 4.1639456390196983e+01 0.0000000000000000e+00 0 0 0
216 1 1.5594252506116350e+01 4.2548809696584662e+01 0.0000000000000000e+00 0 0 0
245 1 1.2495607380634391e+01 4.5462773288241827e+01 0.0000000000000000e+00 0 0 0
188 1 2.2820490095029200e+01 4.0916493486142826e+01 0.0000000000000000e+00 0 0 0
217 1 1.8675696192869648e+01 3.9964785775725908e+01 0.0000000000000000e+00 0 0 0
218 1 1.9698732249085111e+01 4.3930264824631273e+01 0.0000000000000000e+00 0 0 0
190 1 2.5949797268754903e+01 3.8197674122747763e+01 0.0000000000000000e+00 0 0 0
219 1 2.3623218958089026e+01 4.4930122486736217e+01 0.0000000000000000e+00 0 0 0
221 1 2.9684177020539401e+01 3.9341632149273885e+01 0.0000000000000000e+00 0 0 0
220 1 2.6725499601244547e+01 4.2119771479355705e+01 0.0000000000000000e+00 0 0 0
222 1 3.0641276128702398e+01 4.3286724255242845e+01 0.0000000000000000e+00 0 0 0
223 1 3.3659927253592599e+01 4.0681836225970471e+01 0.0000000000000000e+00 0 0 0
224 1 3.7548704328591853e+01 4.1772480030978976e+01 0.0000000000000000e+00 0 0 0
253 1 3.4603178435816005e+01 4.4646098194372350e+01 0.0000000000000000e+00 0 0 0
225 1 4.0420868546794566e+01 3.8936103098532968e+01 0.0000000000000000e+00 0 0 0
227 1 4.4117715354223499e+01 4.0261311555510673e+01 0.0000000000000000e+00 0 0 0
226 1 4.1365784722452005e+01 4.2939278486802927e+01 0.0000000000000000e+00 0 0 0
257 1 4.5051337246452142e+01 4.4095886327768632e+01 0.0000000000000000e+00 0 0 0
229 1 5.1212382910688355e+01 3.8579164305866179e+01 0.0000000000000000e+00 0 0 0
228 1 4.8247288565091637e+01 4.1504220191647704e+01 0.0000000000000000e+00 0 0 0
230 1 5.2071338444228758e+01 4.2507668387222630e+01 0.0000000000000000e+00 0 0 0
259 1 4.9060907955332354e+01 4.5314848132466928e+01 0.0000000000000000e+00 0 0 0
231 1 5.5092490494727677e+01 3.9567214239488514e+01 0.0000000000000000e+00 0 0 0
232 1 5.9312902485573879e+01 4.0645160058048631e+01 0.0000000000000000e+00 0 0 0
261 1 5.6217345211290528e+01 4.3442228585577467e+01 0.0000000000000000e+00 0 0 0
263 1 6.0149738444056453e+01 4.4485657551893127e+01 0.0000000000000000e+00 0 0 0
235 1 6.6170234731817843e+01 3.8902401775353539e+01 0.0000000000000000e+00 0 0 0
234 1 6.3156482675198077e+01 4.1771425491582683e+01 0.0000000000000000e+00 0 0 0
265 1 6.7029442083661479e+01 4.2906110070603198e+01 0.0000000000000000e+00 0 0 0
206 1 7.0013036544611609e+01 3.9874279750447357e+01 0.0000000000000000e+00 0 0 0
237 1 7.3924879852999112e+01 4.0973183450219352e+01 0.0000000000000000e+00 0 0 0
236 1 7.1123143822502669e+01 4.3932410168434728e+01 0.0000000000000000e+00 0 0 0
238 1 7.4974176635237754e+01 4.4917043066557810e+01 0.0000000000000000e+00 0 0 0
210 1 8.0744383367739545e+01 3.9098309782822597e+01 0.0000000000000000e+00 0 0 0
239 1 7.7891227948735079e+01 4.2006553639141735e+01 0.0000000000000000e+00 0 0 0
240 1 8.1679472266945112e+01 4.3035973506098564e+01 0.0000000000000000e+00 0 0 0
242 1 5.6545827883041575e+00 4.7059448383172800e+01 0.0000000000000000e+00 0 0 0
271 1 2.6989128216342948e+00 4.9840508824057018e+01 0.0000000000000000e+00 0 0 0
273 1 6.5071900169637633e+00 5.0953728332131625e+01 0.0000000000000000e+00 0 0 0
241 1 1.5873309410121601e+00 4.5979204904899106e+01 0.0000000000000000e+00 0 0 0
244 1 9.5947843788501821e+00 4.8272740731940829e+01 0.0000000000000000e+00 0 0 0
246 1 1.3643496719542020e+01 4.9306149359722987e+01 0.0000000000000000e+00 0 0 0
275 1 1.0853442467450629e+01 5.2076268183803407e+01 0.0000000000000000e+00 0 0 0
247 1 1.6613041134658108e+01 4.6573756089559261e+01 0.0000000000000000e+00 0 0 0
249 1 2.0636942949416756e+01 4.7781650178995477e+01 0.0000000000000000e+00 0 0 0
248 1 1.7627089150466116e+01 5.0460382490726786e+01 0.0000000000000000e+00 0 0 0
279 1 2.1618239018196174e+01 5.1721761529962137e+01 0.0000000000000000e+00 0 0 0
251 1 2.7568367459258383e+01 4.6087319830892511e+01 0.0000000000000000e+00 0 0 0
250 1 2.4452377012794436e+01 4.8917322035107894e+01 0.0000000000000000e+00 0 0 0
281 1 2.8560884298456390e+01 5.0064025756416243e+01 0.0000000000000000e+00 0 0 0
252 1 3.1638687839576662e+01 4.7403728419567955e+01 0.0000000000000000e+00 0 0 0
254 1 3.5578812876670725e+01 4.8621763121796413e+01 0.0000000000000000e+00 0 0 0
283 1 3.2619854958073930e+01 5.1452233326589507e+01 0.0000000000000000e+00 0 0 0
284 1 3.6650623676380427e+01 5.2525109754843086e+01 0.0000000000000000e+00 0 0 0
255 1 3.8493287761388963e+01 4.5607536110528592e+01 0.0000000000000000e+00 0 0 0
256 1 4.2237124556941254e+01 4.6880358173970841e+01 0.0000000000000000e+00 0 0 0
285 1 3.9473124935559397e+01 4.9714041082268601e+01 0.0000000000000000e+00 0 0 0
287 1 4.3283100101722994e+01 5.0863627938567504e+01 0.0000000000000000e+00 0 0 0
258 1 4.6039747663042334e+01 4.8146514149757429e+01 0.0000000000000000e+00 0 0 0
288 1 4.7384273907530940e+01 5.2013366150688256e+01 0.0000000000000000e+00 0 0 0
289 1 5.0219092601934655e+01 4.9058775866229482e+01 0.0000000000000000e+00 0 0 0
260 1 5.3113934277127221e+01 4.6432501618035943e+01 0.0000000000000000e+00 0 0 0
262 1 5.7106718420236227e+01 4.7240977536404841e+01 0.0000000000000000e+00 0 0 0
291 1 5.4308604284628252e+01 5.0218009968201876e+01 0.0000000000000000e+00 0 0 0
292 1 5.8199030688108010e+01 5.1222739263686897e+01 0.0000000000000000e+00 0 0 0
264 1 6.4223859052174333e+01 4.5690167206318669e+01 0.0000000000000000e+00 0 0 0
293 1 6.1137003315897609e+01 4.8440600409377979e+01 0.0000000000000000e+00 0 0 0
295 1 6.5134793704517563e+01 4.9582929843896572e+01 0.0000000000000000e+00 0 0 0
294 1 6.2265974807445382e+01 5.2199882904047882e+01 0.0000000000000000e+00 0 0 0
266 1 6.8167000710636543e+01 4.6765293578676051e+01 0.0000000000000000e+00 0 0 0
296 1 6.9079683056879190e+01 5.0596837959994808e+01 0.0000000000000000e+00 0 0 0
267 1 7.2037897428747627e+01 4.7787972121722099e+01 0.0000000000000000e+00 0 0 0
297 1 7.2981374575537245e+01 5.1790710045039127e+01 0.0000000000000000e+00 0 0 0
269 1 7.8955970569445995e+01 4.5963411307396846e+01 0.0000000000000000e+00 0 0 0
268 1 7.5853263799162860e+01 4.8908824018518288e+01 0.0000000000000000e+00 0 0 0
270 1 7.9943674279989096e+01 4.9869179413148302e+01 0.0000000000000000e+00 0 0 0
299 1 7.7102704860580658e+01 5.2845116442903162e+01 0.0000000000000000e+00 0 0 0
1200 1 3.6513332035741608e+00 5.3806131141885857e+01 0.0000000000000000e+00 1 0 0
272 1 7.7166109950353734e+00 5.4839253379123384e+01 0.0000000000000000e+00 0 0 0
301 1 4.7945881545508824e+00 5.7666068781351264e+01 0.0000000000000000e+00 0 0 0
303 1 8.8399121770708398e+00 5.8865363972503708e+01 0.0000000000000000e+00 0 0 0
276 1 1.4752955490131869e+01 5.3251453547972787e+01 0.0000000000000000e+00 0 0 0
274 1 1.1702377126834090e+01 5.6070660081294683e+01 0.0000000000000000e+00 0 0 0
305 1 1.5717685507336922e+01 5.7190506916409319e+01 0.0000000000000000e+00 0 0 0
304 1 1.2756319644674024e+01 6.0128242779798100e+01 0.0000000000000000e+00 0 0 0
277 1 1.8616595572343034e+01 5.4516009867722680e+01 0.0000000000000000e+00 0 0 0
278 1 2.2493274542777947e+01 5.5685884941275646e+01 0.0000000000000000e+00 0 0 0
307 1 1.9579229951161690e+01 5.8517687949930405e+01 0.0000000000000000e+00 0 0 0
280 1 2.5554944916412698e+01 5.2941442709836018e+01 0.0000000000000000e+00 0 0 0
309 1 2.3738088573701422e+01 5.9636475240405204e+01 0.0000000000000000e+00 0 0 0
282 1 2.9573635420253442e+01 5.4053986416646254e+01 0.0000000000000000e+00 0 0 0
311 1 2.6523015686584696e+01 5.6926816961076298e+01 0.0000000000000000e+00 0 0 0
312 1 3.0611297786766194e+01 5.8063235788726537e+01 0.0000000000000000e+00 0 0 0
313 1 3.3468960828254517e+01 5.5349646172101536e+01 0.0000000000000000e+00 0 0 0
314 1 3.4574945825902113e+01 5.9215591336600781e+01 0.0000000000000000e+00 0 0 0
315 1 3.7425854533753665e+01 5.6542788037318779e+01 0.0000000000000000e+00 0 0 0
286 1 4.0424359663828049e+01 5.3707483114469362e+01 0.0000000000000000e+00 0 0 0
317 1 4.4501662223226326e+01 5.4814432466811098e+01 0.0000000000000000e+00 0 0 0
316 1 4.1588829504822968e+01 5.7562955280730158e+01 0.0000000000000000e+00 0 0 0
345 1 3.8517886384970481e+01 6.0392474088383381e+01 0.0000000000000000e+00 0 0 0
318 1 4.5451957305151318e+01 5.8568513100561894e+01 0.0000000000000000e+00 0 0 0
290 1 5.1402981696261243e+01 5.2898574603265644e+01 0.0000000000000000e+00 0 0 0
319 1 4.8428198936376369e+01 5.5799396372750707e+01 0.0000000000000000e+00 0 0 0
349 1 4.9483253835732448e+01 5.9744087319734582e+01 0.0000000000000000e+00 0 0 0
320 1 5.2426240721444870e+01 5.6765956482879957e+01 0.0000000000000000e+00 0 0 0
321 1 5.5433219378483052e+01 5.4074890192604308e+01 0.0000000000000000e+00 0 0 0
323 1 5.9271682071289696e+01 5.5041129158939391e+01 0.0000000000000000e+00 0 0 0
322 1 5.6396621699941988e+01 5.7917613936357085e+01 0.0000000000000000e+00 0 0 0
355 1 6.0396299450070174e+01 5.8980308582959431e+01 0.0000000000000000e+00 0 0 0
325 1 6.6011966954433433e+01 5.3507392021696795e+01 0.0000000000000000e+00 0 0 0
324 1 6.3279945736600048e+01 5.6284712551670218e+01 0.0000000000000000e+00 0 0 0
326 1 6.7201100147901556e+01 5.7603528969514677e+01 0.0000000000000000e+00 0 0 0
356 1 6.4229557785127156e+01 6.0397934585456710e+01 0.0000000000000000e+00 0 0 0
298 1 7.4063420118446373e+01 5.5577750231423842e+01 0.0000000000000000e+00 0 0 0
327 1 7.0005941441695654e+01 5.4616898833788660e+01 0.0000000000000000e+00 0 0 0
328 1 7.1144824906003350e+01 5.8419356729933604e+01 0.0000000000000000e+00 0 0 0
359 1 7.5021403708959227e+01 5.9558567145819609e+01 0.0000000000000000e+00 0 0 0
300 1 8.0937607904574165e+01 5.3813298665597436e+01 0.0000000000000000e+00 0 0 0
329 1 7.7987523743564040e+01 5.6714994654500501e+01 0.0000000000000000e+00 0 0 0
1201 1 8.2066855178370290e+01 5.7708261547082813e+01 0.0000000000000000e+00 0 0 0
1230 1 1.9464089842670556e+00 6.0514340137689310e+01 0.0000000000000000e+00 1 0 0
302 1 5.9097082473000304e+00 6.1557120465836988e+01 0.0000000000000000e+00 0 0 0
332 1 6.9500685362753352e+00 6.5521957410655475e+01 0.0000000000000000e+00 0 0 0
331 1 2.9624520658312039e+00 6.4335595263965047e+01 0.0000000000000000e+00 0 0 0
333 1 9.9058765283530565e+00 6.2751847939180372e+01 0.0000000000000000e+00 0 0 0
335 1 1.3751280412147574e+01 6.4013105791509872e+01 0.0000000000000000e+00 0 0 0
334 1 1.0793047586833096e+01 6.6699068602045287e+01 0.0000000000000000e+00 0 0 0
306 1 1.6464884377300628e+01 6.1202872815739049e+01 0.0000000000000000e+00 0 0 0
308 1 2.0489488563047935e+01 6.2363007687750695e+01 0.0000000000000000e+00 0 0 0
337 1 1.7640279191886044e+01 6.5215147616319442e+01 0.0000000000000000e+00 0 0 0
338 1 2.1643362799068282e+01 6.6279118219093576e+01 0.0000000000000000e+00 0 0 0
310 1 2.7653647145161962e+01 6.0853729616741688e+01 0.0000000000000000e+00 0 0 0
339 1 2.4668846713953513e+01 6.3577116017457811e+01 0.0000000000000000e+00 0 0 0
341 1 2.8636320740479952e+01 6.4741109990707699e+01 0.0000000000000000e+00 0 0 0
340 1 2.5658499466319608e+01 6.7593244859629337e+01 0.0000000000000000e+00 0 0 0
343 1 3.1592796394072913e+01 6.2028000216134402e+01 0.0000000000000000e+00 0 0 0
342 1 3.2544938421038992e+01 6.6034237051214149e+01 0.0000000000000000e+00 0 0 0
344 1 3.5493034196623164e+01 6.3189769387271333e+01 0.0000000000000000e+00 0 0 0
373 1 3.6555530303955067e+01 6.7178082852103401e+01 0.0000000000000000e+00 0 0 0
347 1 4.2586337491555085e+01 6.1436593425013704e+01 0.0000000000000000e+00 0 0 0
346 1 3.9486655137557847e+01 6.4257923666407294e+01 0.0000000000000000e+00 0 0 0
377 1 4.3447292386120921e+01 6.5348682308322580e+01 0.0000000000000000e+00 0 0 0
348 1 4.6533355369005861e+01 6.2546748403076457e+01 0.0000000000000000e+00 0 0 0
350 1 5.0586605469940835e+01 6.3613984302739397e+01 0.0000000000000000e+00 0 0 0
378 1 4.7574083967545164e+01 6.6269527755654693e+01 0.0000000000000000e+00 0 0 0
379 1 5.1597201731988164e+01 6.7675793377256554e+01 0.0000000000000000e+00 0 0 0
351 1 5.3567834578559363e+01 6.0672095088667326e+01 0.0000000000000000e+00 0 0 0
353 1 5.7443610277815040e+01 6.1841341652945808e+01 0.0000000000000000e+00 0 0 0
381 1 5.4598729046784037e+01 6.4679242958218566e+01 0.0000000000000000e+00 0 0 0
352 1 5.8346258550309187e+01 6.6054258544944972e+01 0.0000000000000000e+00 0 0 0
383 1 6.2599111192766372e+01 6.7200685842822082e+01 0.0000000000000000e+00 0 0 0
354 1 6.1416554371796892e+01 6.3145743574670846e+01 0.0000000000000000e+00 0 0 0
385 1 6.5414369818725234e+01 6.4470007733139340e+01 0.0000000000000000e+00 0 0 0
357 1 6.8160030950342332e+01 6.1516467910021163e+01 0.0000000000000000e+00 0 0 0
387 1 6.9435606554592013e+01 6.5412762809861803e+01 0.0000000000000000e+00 0 0 0
358 1 7.2144812780083882e+01 6.2446046862460840e+01 0.0000000000000000e+00 0 0 0
388 1 7.3330343918683297e+01 6.6440586439394934e+01 0.0000000000000000e+00 0 0 0
330 1 7.9158104557936369e+01 6.0581328736552557e+01 0.0000000000000000e+00 0 0 0
1232 1 8.0306269912242911e+01 6.4563933295849040e+01 0.0000000000000000e+00 0 0 0
360 1 7.6053144037973439e+01 6.3485838895974851e+01 0.0000000000000000e+00 0 0 0