LAMMPS data file via write_data, version 17 Nov 2016, timestep = 200000

1800 atoms
1 atom types

1.2467418826749395e+00 1.6375325811733069e+02 xlo xhi
1.2467418826749395e+00 1.6375325811733069e+02 ylo yhi
0.0000000000000000e+00 5.5000000000000000e+00 zlo zhi

Masses

1 83.798

Atoms # atomic

2 1 5.4605889236304384e+00 2.4430985485052825e+00 0.0000000000000000e+00 0 0 0
31 1 4.2693459046659674e+00 6.5060373351900820e+00 0.0000000000000000e+00 0 0 0
33 1 8.1659880225361974e+00 5.3595548615916702e+00 0.0000000000000000e+00 0 0 0
930 1 1.4514450814620956e+00 3.5104656067248428e+00 0.0000000000000000e+00 1 0 0
4 1 1.2090812160913753e+01 4.1862392306991527e+00 0.0000000000000000e+00 0 0 0
35 1 1.4887521668560648e+01 7.0796131152391863e+00 0.0000000000000000e+00 0 0 0
34 1 1.1034614920426296e+01 8.2147889633962805e+00 0.0000000000000000e+00 0 0 0
3 1 9.2265978542406337e+00 1.3420972069479280e+00 0.0000000000000000e+00 0 0 0
6 1 1.6006601132338421e+01 3.2249864934594221e+00 0.0000000000000000e+00 0 0 0
8 1 1.9791881877123043e+01 2.0251947236211252e+00 0.0000000000000000e+00 0 0 0
37 1 1.8766024327756693e+01 5.9831384957641225e+00 0.0000000000000000e+00 0 0 0
39 1 2.2704890323215455e+01 4.6755170693406525e+00 0.0000000000000000e+00 0 0 0
10 1 2.6750273298943583e+01 3.8852954363891938e+00 0.0000000000000000e+00 0 0 0
41 1 2.9675980754055104e+01 6.7044364602768827e+00 0.0000000000000000e+00 0 0 0
40 1 2.5657177482614784e+01 7.6993768355743439e+00 0.0000000000000000e+00 0 0 0
12 1 3.0702441452776402e+01 2.6822810669398995e+00 0.0000000000000000e+00 0 0 0
14 1 3.3625132994246322e+01 5.5002101022131420e+00 0.0000000000000000e+00 0 0 0
15 1 3.7478084124421287e+01 4.5275089572100597e+00 0.0000000000000000e+00 0 0 0
13 1 3.4621235656393807e+01 1.5701107148258360e+00 0.0000000000000000e+00 0 0 0
45 1 3.6436232203274756e+01 8.4523223703458541e+00 0.0000000000000000e+00 0 0 0
16 1 4.1519988575457546e+01 3.4867785978181751e+00 0.0000000000000000e+00 0 0 0
46 1 4.0582448344630308e+01 7.2621072646332943e+00 0.0000000000000000e+00 0 0 0
47 1 4.4529340162961596e+01 6.4306587470704599e+00 0.0000000000000000e+00 0 0 0
18 1 4.5503489245146419e+01 2.5098783702342837e+00 0.0000000000000000e+00 0 0 0
49 1 4.8496012930532245e+01 5.5121015042377204e+00 0.0000000000000000e+00 0 0 0
20 1 5.2391744021045483e+01 4.5351223072891464e+00 0.0000000000000000e+00 0 0 0
19 1 4.9422446920176107e+01 1.5699970411844166e+00 0.0000000000000000e+00 0 0 0
50 1 5.1247061776755565e+01 8.3927920878618050e+00 0.0000000000000000e+00 0 0 0
51 1 5.5306903511964350e+01 7.6768155273930851e+00 0.0000000000000000e+00 0 0 0
22 1 5.9328924138492610e+01 6.6087412287928116e+00 0.0000000000000000e+00 0 0 0
21 1 5.6286066962937220e+01 3.8594097662787190e+00 0.0000000000000000e+00 0 0 0
23 1 6.0198260901610723e+01 2.5164445613790223e+00 0.0000000000000000e+00 0 0 0
24 1 6.3181674500910262e+01 5.2649780145213194e+00 0.0000000000000000e+00 0 0 0
894 1 6.4197649119495594e+01 1.5082763394121685e+00 0.0000000000000000e+00 0 1 0
25 1 6.7503002680724009e+01 4.9082265883906100e+00 0.0000000000000000e+00 0 0 0
53 1 6.5159220343821886e+01 8.6015906001334113e+00 0.0000000000000000e+00 0 0 0
26 1 7.1882319065020639e+01 6.9128299140260054e+00 0.0000000000000000e+00 0 0 0
27 1 7.1182083271662918e+01 3.0070869262094271e+00 0.0000000000000000e+00 0 0 0
898 1 7.4968004416727680e+01 3.9754986316766452e+00 0.0000000000000000e+00 0 1 0
28 1 7.5787300995696725e+01 8.0477706240082032e+00 0.0000000000000000e+00 0 0 0
29 1 7.8846906359020011e+01 4.8613181900138382e+00 0.0000000000000000e+00 0 0 0
900 1 8.1776720447344985e+01 1.9459460320352897e+00 0.0000000000000000e+00 0 1 0
32 1 7.0594187747275230e+00 9.3867540577437758e+00 0.0000000000000000e+00 0 0 0
62 1 6.1139360528508515e+00 1.3430249333325074e+01 0.0000000000000000e+00 0 0 0
61 1 3.2473141036112598e+00 1.0573945544690261e+01 0.0000000000000000e+00 0 0 0
990 1 2.0986226338862912e+00 1.4546445338849317e+01 0.0000000000000000e+00 1 0 0
63 1 9.9746245439685097e+00 1.2113251578158632e+01 0.0000000000000000e+00 0 0 0
65 1 1.3958346900258169e+01 1.1073204462317872e+01 0.0000000000000000e+00 0 0 0
66 1 1.2782517478628259e+01 1.5022758562818987e+01 0.0000000000000000e+00 0 0 0
38 1 2.1728857775015523e+01 8.7262338586685857e+00 0.0000000000000000e+00 0 0 0
36 1 1.7762812265798637e+01 9.9283483898831779e+00 0.0000000000000000e+00 0 0 0
67 1 1.6751778401673192e+01 1.3817383771477475e+01 0.0000000000000000e+00 0 0 0
69 1 2.0817682246571128e+01 1.2575060529452212e+01 0.0000000000000000e+00 0 0 0
70 1 2.3683144212441608e+01 1.5526295009412452e+01 0.0000000000000000e+00 0 0 0
71 1 2.4767474084695642e+01 1.1681210513978483e+01 0.0000000000000000e+00 0 0 0
42 1 2.8699837187739199e+01 1.0746065376136475e+01 0.0000000000000000e+00 0 0 0
72 1 2.7647396373029125e+01 1.4614094383807833e+01 0.0000000000000000e+00 0 0 0
43 1 3.2665125768430414e+01 9.4425069946085838e+00 0.0000000000000000e+00 0 0 0
44 1 3.5443711965993899e+01 1.2354062144922210e+01 0.0000000000000000e+00 0 0 0
73 1 3.1538785816477414e+01 1.3469296555094392e+01 0.0000000000000000e+00 0 0 0
74 1 3.8290562965699401e+01 1.5192843266288294e+01 0.0000000000000000e+00 0 0 0
75 1 3.9338164088180861e+01 1.1240177651936243e+01 0.0000000000000000e+00 0 0 0
77 1 4.3298674743135564e+01 1.0220082009020750e+01 0.0000000000000000e+00 0 0 0
76 1 4.2161261652092037e+01 1.4069570769663274e+01 0.0000000000000000e+00 0 0 0
48 1 4.7321003244110315e+01 9.4503769643555646e+00 0.0000000000000000e+00 0 0 0
78 1 4.6138743568571300e+01 1.3239346111280254e+01 0.0000000000000000e+00 0 0 0
79 1 5.0139634461488534e+01 1.2323553914181778e+01 0.0000000000000000e+00 0 0 0
80 1 5.2898392227499791e+01 1.5282068373301541e+01 0.0000000000000000e+00 0 0 0
81 1 5.4275214261565623e+01 1.1529634020044053e+01 0.0000000000000000e+00 0 0 0
52 1 5.8178554533473744e+01 1.0303705296015091e+01 0.0000000000000000e+00 0 0 0
82 1 5.9250356776573049e+01 1.4280692566633331e+01 0.0000000000000000e+00 0 0 0
83 1 6.2200327195814658e+01 1.1448308331212102e+01 0.0000000000000000e+00 0 0 0
54 1 6.6130262618352390e+01 1.2601657784874703e+01 0.0000000000000000e+00 0 0 0
84 1 6.3330458629085356e+01 1.5461983099499598e+01 0.0000000000000000e+00 0 0 0
55 1 6.9164591842039243e+01 9.6762242155999942e+00 0.0000000000000000e+00 0 0 0
57 1 7.2866320644333953e+01 1.0975507868053548e+01 0.0000000000000000e+00 0 0 0
56 1 6.9944022611864824e+01 1.3833912299126501e+01 0.0000000000000000e+00 0 0 0
87 1 7.3769078302240075e+01 1.5006834206600578e+01 0.0000000000000000e+00 0 0 0
59 1 7.9819139460647278e+01 8.9068462907420702e+00 0.0000000000000000e+00 0 0 0
58 1 7.6731056296751589e+01 1.1885396177017684e+01 0.0000000000000000e+00 0 0 0
89 1 8.0672211381067186e+01 1.3050916979483555e+01 0.0000000000000000e+00 0 0 0
88 1 7.7683085611247776e+01 1.6024536749607911e+01 0.0000000000000000e+00 0 0 0
92 1 3.9063743708639085e+00 2.1342709789993677e+01 0.0000000000000000e+00 0 0 0
93 1 5.0395902189764783e+00 1.7272127588038391e+01 0.0000000000000000e+00 0 0 0
94 1 7.9434354121402153e+00 1.9909943554553799e+01 0.0000000000000000e+00 0 0 0
64 1 8.9832911668895772e+00 1.6016294731785980e+01 0.0000000000000000e+00 0 0 0
95 1 1.1729684543505789e+01 1.8763348195130142e+01 0.0000000000000000e+00 0 0 0
96 1 1.4562882177626078e+01 2.1694159251505280e+01 0.0000000000000000e+00 0 0 0
125 1 1.0717762685966042e+01 2.2820262414798513e+01 0.0000000000000000e+00 0 0 0
97 1 1.5846680497634923e+01 1.7903319167371755e+01 0.0000000000000000e+00 0 0 0
68 1 1.9655691400483544e+01 1.6581089166738273e+01 0.0000000000000000e+00 0 0 0
98 1 1.8607240086722960e+01 2.0633034413751776e+01 0.0000000000000000e+00 0 0 0
99 1 2.2563491299576672e+01 1.9404338232938734e+01 0.0000000000000000e+00 0 0 0
129 1 2.1395579856748800e+01 2.3457822554851813e+01 0.0000000000000000e+00 0 0 0
100 1 2.6551657930416368e+01 1.8441939846241205e+01 0.0000000000000000e+00 0 0 0
131 1 2.9410171967874643e+01 2.1071171067755447e+01 0.0000000000000000e+00 0 0 0
130 1 2.5291004180466711e+01 2.2322536579907052e+01 0.0000000000000000e+00 0 0 0
101 1 3.0562495727499986e+01 1.7291833412941422e+01 0.0000000000000000e+00 0 0 0
103 1 3.4453048341366838e+01 1.6333281055085759e+01 0.0000000000000000e+00 0 0 0
102 1 3.3481150876244939e+01 2.0279982285978566e+01 0.0000000000000000e+00 0 0 0
105 1 3.7282848925616321e+01 1.9157429064941926e+01 0.0000000000000000e+00 0 0 0
104 1 3.6292215682628608e+01 2.3163558976881362e+01 0.0000000000000000e+00 0 0 0
106 1 4.1133939301762901e+01 1.8074068387087323e+01 0.0000000000000000e+00 0 0 0
137 1 4.3940458461965441e+01 2.0926670408130761e+01 0.0000000000000000e+00 0 0 0
135 1 4.0026560631823301e+01 2.1957079176420141e+01 0.0000000000000000e+00 0 0 0
107 1 4.5062993159594953e+01 1.7014010669394004e+01 0.0000000000000000e+00 0 0 0
109 1 4.9111984467455862e+01 1.6362277184930313e+01 0.0000000000000000e+00 0 0 0
108 1 4.7806997345658004e+01 2.0046619806077061e+01 0.0000000000000000e+00 0 0 0
139 1 5.0319642644269962e+01 2.3074194180594915e+01 0.0000000000000000e+00 0 0 0
110 1 5.3011439563105831e+01 1.9624593782371331e+01 0.0000000000000000e+00 0 0 0
111 1 5.6268204038721315e+01 1.7378681135876704e+01 0.0000000000000000e+00 0 0 0
141 1 5.7072822114322378e+01 2.1177511642116194e+01 0.0000000000000000e+00 0 0 0
113 1 6.0186703456348255e+01 1.8213151832179474e+01 0.0000000000000000e+00 0 0 0
85 1 6.7099913190797352e+01 1.6648051443821458e+01 0.0000000000000000e+00 0 0 0
112 1 6.4165407880395890e+01 1.9533035608628335e+01 0.0000000000000000e+00 0 0 0
143 1 6.0974517718912679e+01 2.2146074162705954e+01 0.0000000000000000e+00 0 0 0
114 1 6.5148738450163592e+01 2.3430084149910822e+01 0.0000000000000000e+00 0 0 0
115 1 6.8025654094283908e+01 2.0553447042242816e+01 0.0000000000000000e+00 0 0 0
86 1 7.1053932115166049e+01 1.7809504121286633e+01 0.0000000000000000e+00 0 0 0
116 1 7.1915766838517314e+01 2.1697703656767839e+01 0.0000000000000000e+00 0 0 0
117 1 7.4804807019121668e+01 1.8914202264195470e+01 0.0000000000000000e+00 0 0 0
118 1 7.5719529422386387e+01 2.2824509845659474e+01 0.0000000000000000e+00 0 0 0
90 1 8.1620655415719909e+01 1.7098298793013608e+01 0.0000000000000000e+00 0 0 0
119 1 7.8617338707866324e+01 1.9738344175070893e+01 0.0000000000000000e+00 0 0 0
123 1 6.9529468453877685e+00 2.3997735929776358e+01 0.0000000000000000e+00 0 0 0
122 1 3.1186032353023219e+00 2.5167468083485101e+01 0.0000000000000000e+00 0 0 0
153 1 5.9460997892355829e+00 2.7982868373334409e+01 0.0000000000000000e+00 0 0 0
152 1 2.1215394928739655e+00 2.9141642268940206e+01 0.0000000000000000e+00 0 0 0
124 1 9.8827614032247553e+00 2.6854980301254876e+01 0.0000000000000000e+00 0 0 0
126 1 1.3636346088899719e+01 2.5663731854332894e+01 0.0000000000000000e+00 0 0 0
155 1 1.2546218438446639e+01 2.9709131400414122e+01 0.0000000000000000e+00 0 0 0
127 1 1.7441801897227712e+01 2.4595379644582835e+01 0.0000000000000000e+00 0 0 0
128 1 2.0465541807256901e+01 2.7302918592353041e+01 0.0000000000000000e+00 0 0 0
157 1 1.6537240862290101e+01 2.8375305651933370e+01 0.0000000000000000e+00 0 0 0
160 1 2.3350876465612391e+01 2.9922074534498257e+01 0.0000000000000000e+00 0 0 0
159 1 2.4364013122774221e+01 2.6072304270759933e+01 0.0000000000000000e+00 0 0 0
161 1 2.7345286780904964e+01 2.8811419517957468e+01 0.0000000000000000e+00 0 0 0
132 1 2.8317799063187788e+01 2.4895397017632241e+01 0.0000000000000000e+00 0 0 0
163 1 3.1333039898058271e+01 2.7832611039884348e+01 0.0000000000000000e+00 0 0 0
133 1 3.2314376299236486e+01 2.4123996822332987e+01 0.0000000000000000e+00 0 0 0
134 1 3.5088489448980440e+01 2.6980420758008059e+01 0.0000000000000000e+00 0 0 0
164 1 3.7824703272010218e+01 2.9834275716220944e+01 0.0000000000000000e+00 0 0 0
193 1 3.4053040498610898e+01 3.0957764250179821e+01 0.0000000000000000e+00 0 0 0
136 1 4.3075561922271689e+01 2.4776709566797599e+01 0.0000000000000000e+00 0 0 0
165 1 3.9156939517763327e+01 2.5941004646114163e+01 0.0000000000000000e+00 0 0 0
167 1 4.4383786998905897e+01 2.8674282758568221e+01 0.0000000000000000e+00 0 0 0
138 1 4.7129680213514725e+01 2.5674445242816880e+01 0.0000000000000000e+00 0 0 0
169 1 5.1125097521329245e+01 2.6906855538208930e+01 0.0000000000000000e+00 0 0 0
168 1 4.8239615738483444e+01 2.9751979838584422e+01 0.0000000000000000e+00 0 0 0
140 1 5.4136086008741444e+01 2.3948675052442280e+01 0.0000000000000000e+00 0 0 0
142 1 5.8062533015073967e+01 2.5070450757189850e+01 0.0000000000000000e+00 0 0 0
171 1 5.5085238632480106e+01 2.7838558854801665e+01 0.0000000000000000e+00 0 0 0
172 1 5.9009254261262818e+01 2.9148226785983031e+01 0.0000000000000000e+00 0 0 0
173 1 6.1790635427433060e+01 2.6246879536363537e+01 0.0000000000000000e+00 0 0 0
144 1 6.5805100306084427e+01 2.7313954517077239e+01 0.0000000000000000e+00 0 0 0
174 1 6.2958044661283516e+01 3.0224355619064685e+01 0.0000000000000000e+00 0 0 0
145 1 6.8909625385719778e+01 2.4628497202417147e+01 0.0000000000000000e+00 0 0 0
146 1 6.9768780767395640e+01 2.8607483837825168e+01 0.0000000000000000e+00 0 0 0
147 1 7.2691460520717882e+01 2.5611490356023804e+01 0.0000000000000000e+00 0 0 0
177 1 7.3735677154478140e+01 2.9465035942633058e+01 0.0000000000000000e+00 0 0 0
149 1 7.9564820339349595e+01 2.3748841773379116e+01 0.0000000000000000e+00 0 0 0
148 1 7.6605603634696593e+01 2.6804087856299180e+01 0.0000000000000000e+00 0 0 0
150 1 8.0570943760465099e+01 2.7909579583823916e+01 0.0000000000000000e+00 0 0 0
179 1 7.7662993908883664e+01 3.0748032224621003e+01 0.0000000000000000e+00 0 0 0
183 1 4.9924623858165234e+00 3.2029659100632507e+01 0.0000000000000000e+00 0 0 0
182 1 3.9958930624754543e+00 3.6097253726767676e+01 0.0000000000000000e+00 0 0 0
184 1 7.8034618968535643e+00 3.4932110893280409e+01 0.0000000000000000e+00 0 0 0
154 1 8.7536854740684120e+00 3.0765119600445036e+01 0.0000000000000000e+00 0 0 0
185 1 1.1591490646171486e+01 3.3606693415517256e+01 0.0000000000000000e+00 0 0 0
186 1 1.4404766566969869e+01 3.6489410644600198e+01 0.0000000000000000e+00 0 0 0
215 1 1.0748590763940777e+01 3.7791261033087054e+01 0.0000000000000000e+00 0 0 0
156 1 1.5526049192433467e+01 3.2299695786126271e+01 0.0000000000000000e+00 0 0 0
158 1 1.9376680004269282e+01 3.1306213032391241e+01 0.0000000000000000e+00 0 0 0
187 1 1.8426887268834040e+01 3.5151052818607134e+01 0.0000000000000000e+00 0 0 0
189 1 2.2362382910524829e+01 3.4028731558848150e+01 0.0000000000000000e+00 0 0 0
188 1 2.1420296748201444e+01 3.8011441521620483e+01 0.0000000000000000e+00 0 0 0
191 1 2.6102205011639008e+01 3.2909476202637897e+01 0.0000000000000000e+00 0 0 0
190 1 2.5169816409323669e+01 3.6797133646572902e+01 0.0000000000000000e+00 0 0 0
221 1 2.8936802908605042e+01 3.5555137895958971e+01 0.0000000000000000e+00 0 0 0
162 1 3.0142472551905875e+01 3.1661133844000208e+01 0.0000000000000000e+00 0 0 0
192 1 3.2727368384550516e+01 3.4672044386736133e+01 0.0000000000000000e+00 0 0 0
194 1 3.5766917811532970e+01 3.7279320092255269e+01 0.0000000000000000e+00 0 0 0
195 1 3.8387066545479918e+01 3.4170494978671947e+01 0.0000000000000000e+00 0 0 0
166 1 4.1451986976675727e+01 3.1347196786441224e+01 0.0000000000000000e+00 0 0 0
196 1 4.2374209343364207e+01 3.5419781745507599e+01 0.0000000000000000e+00 0 0 0
197 1 4.5348379629001492e+01 3.2560074598458883e+01 0.0000000000000000e+00 0 0 0
170 1 5.2113438875832074e+01 3.0738060850901750e+01 0.0000000000000000e+00 0 0 0
199 1 4.9194191669942967e+01 3.3625181964054306e+01 0.0000000000000000e+00 0 0 0
198 1 4.6151711769344388e+01 3.6579398949694763e+01 0.0000000000000000e+00 0 0 0
229 1 5.0258822241489440e+01 3.7555943903522824e+01 0.0000000000000000e+00 0 0 0
201 1 5.6084847462438759e+01 3.1999839502349054e+01 0.0000000000000000e+00 0 0 0
200 1 5.3125081179351696e+01 3.4743759467713048e+01 0.0000000000000000e+00 0 0 0
202 1 5.6958197068507253e+01 3.5931750306018735e+01 0.0000000000000000e+00 0 0 0
203 1 5.9961288434669441e+01 3.3170874494368775e+01 0.0000000000000000e+00 0 0 0
175 1 6.6794104244156770e+01 3.1173922203682412e+01 0.0000000000000000e+00 0 0 0
233 1 6.1091428796480372e+01 3.6933303402009955e+01 0.0000000000000000e+00 0 0 0
204 1 6.4002674542591762e+01 3.4035399678016461e+01 0.0000000000000000e+00 0 0 0
235 1 6.4980510198938717e+01 3.8103791077452875e+01 0.0000000000000000e+00 0 0 0
205 1 6.7915125918545328e+01 3.5273202389855506e+01 0.0000000000000000e+00 0 0 0
176 1 7.0710452765342637e+01 3.2419813654447644e+01 0.0000000000000000e+00 0 0 0
207 1 7.1765974818525450e+01 3.6382219919733878e+01 0.0000000000000000e+00 0 0 0
178 1 7.4634181455883905e+01 3.3351245419055473e+01 0.0000000000000000e+00 0 0 0
208 1 7.5663976579813720e+01 3.7358164367397691e+01 0.0000000000000000e+00 0 0 0
180 1 8.1657681666943546e+01 3.1689223985552680e+01 0.0000000000000000e+00 0 0 0
209 1 7.8734834624771111e+01 3.4637223995433921e+01 0.0000000000000000e+00 0 0 0
212 1 3.1146229392674885e+00 4.0093209280595154e+01 0.0000000000000000e+00 0 0 0
243 1 5.8584007174857540e+00 4.3080597654981666e+01 0.0000000000000000e+00 0 0 0
241 1 2.0087334628907669e+00 4.4066307070523663e+01 0.0000000000000000e+00 0 0 0
213 1 6.8721383872806374e+00 3.8909621201627054e+01 0.0000000000000000e+00 0 0 0
216 1 1.3555630266626746e+01 4.0746288199259922e+01 0.0000000000000000e+00 0 0 0
214 1 9.7006000406589692e+00 4.1794435917091668e+01 0.0000000000000000e+00 0 0 0
245 1 1.2623331193584152e+01 4.4628921698172441e+01 0.0000000000000000e+00 0 0 0
247 1 1.6561097930472560e+01 4.3446310929898026e+01 0.0000000000000000e+00 0 0 0
217 1 1.7322004692155325e+01 3.9090245520342407e+01 0.0000000000000000e+00 0 0 0
218 1 2.0193359805294847e+01 4.1695696323541632e+01 0.0000000000000000e+00 0 0 0
249 1 2.2924674040936271e+01 4.4374229499284510e+01 0.0000000000000000e+00 0 0 0
219 1 2.4472474199847532e+01 4.0758489913674069e+01 0.0000000000000000e+00 0 0 0
220 1 2.8179417767572239e+01 3.9388070958707544e+01 0.0000000000000000e+00 0 0 0
222 1 2.9852684607505356e+01 4.2830549881294303e+01 0.0000000000000000e+00 0 0 0
223 1 3.2487969160993686e+01 3.9736709094559629e+01 0.0000000000000000e+00 0 0 0
224 1 3.6595365947617687e+01 4.1042717104276562e+01 0.0000000000000000e+00 0 0 0
253 1 3.3597175185308394e+01 4.3787553646596450e+01 0.0000000000000000e+00 0 0 0
255 1 3.7419051260273839e+01 4.5031292119134548e+01 0.0000000000000000e+00 0 0 0
225 1 3.9563116065263372e+01 3.8089393645880932e+01 0.0000000000000000e+00 0 0 0
227 1 4.3432170439401474e+01 3.9359182448597515e+01 0.0000000000000000e+00 0 0 0
226 1 4.0571494413248608e+01 4.2144096140093808e+01 0.0000000000000000e+00 0 0 0
257 1 4.4281230656653484e+01 4.3420855312316462e+01 0.0000000000000000e+00 0 0 0
228 1 4.7115731948818137e+01 4.0467612015107505e+01 0.0000000000000000e+00 0 0 0
230 1 5.0904841180230186e+01 4.1502970675603940e+01 0.0000000000000000e+00 0 0 0
259 1 4.8127446658260403e+01 4.4474899125031044e+01 0.0000000000000000e+00 0 0 0
231 1 5.3971227251455161e+01 3.8832076919901546e+01 0.0000000000000000e+00 0 0 0
232 1 5.8060657512651076e+01 3.9722099551993857e+01 0.0000000000000000e+00 0 0 0
261 1 5.5078073748490972e+01 4.2639471691309829e+01 0.0000000000000000e+00 0 0 0
263 1 5.9035544572288558e+01 4.3671151972252460e+01 0.0000000000000000e+00 0 0 0
234 1 6.1878036875161357e+01 4.0906468630674986e+01 0.0000000000000000e+00 0 0 0
265 1 6.5919523193873076e+01 4.2136046503203225e+01 0.0000000000000000e+00 0 0 0
264 1 6.3008570530958131e+01 4.4865688168974486e+01 0.0000000000000000e+00 0 0 0
206 1 6.8839505717832409e+01 3.9243395561679485e+01 0.0000000000000000e+00 0 0 0
237 1 7.2696496888404454e+01 4.0372480425662673e+01 0.0000000000000000e+00 0 0 0
236 1 6.9823961712606945e+01 4.3148598228650080e+01 0.0000000000000000e+00 0 0 0
238 1 7.3753282164549276e+01 4.4318230742052940e+01 0.0000000000000000e+00 0 0 0
210 1 7.9688305328136991e+01 3.8442784943211933e+01 0.0000000000000000e+00 0 0 0
239 1 7.6726647719819624e+01 4.1276634951616266e+01 0.0000000000000000e+00 0 0 0
240 1 8.0602962181209364e+01 4.2319737583915760e+01 0.0000000000000000e+00 0 0 0
269 1 7.7679370103381160e+01 4.5272264209450633e+01 0.0000000000000000e+00 0 0 0
242 1 4.8010799244832905e+00 4.6887758132731896e+01 0.0000000000000000e+00 0 0 0
271 1 3.7420067285554266e+00 5.0868453540927050e+01 0.0000000000000000e+00 0 0 0
273 1 7.7688871785839222e+00 4.9651684761577776e+01 0.0000000000000000e+00 0 0 0
244 1 8.7237530233195244e+00 4.5790997877739819e+01 0.0000000000000000e+00 0 0 0
275 1 1.1616869026663217e+01 4.8482647671683402e+01 0.0000000000000000e+00 0 0 0
276 1 1.3689678351283565e+01 5.1851803895803670e+01 0.0000000000000000e+00 0 0 0
246 1 1.5592909559854631e+01 4.7596341939306548e+01 0.0000000000000000e+00 0 0 0
248 1 1.9354826138110031e+01 4.6219545030536118e+01 0.0000000000000000e+00 0 0 0
279 1 1.9929322259746311e+01 5.0323465506981066e+01 0.0000000000000000e+00 0 0 0
251 1 2.6757769377321672e+01 4.5527402646805250e+01 0.0000000000000000e+00 0 0 0
250 1 2.3397265203984752e+01 4.8249594499283234e+01 0.0000000000000000e+00 0 0 0
281 1 2.7562248469127411e+01 4.9381173999647430e+01 0.0000000000000000e+00 0 0 0
280 1 2.4376621656719383e+01 5.1978599350807137e+01 0.0000000000000000e+00 0 0 0
252 1 3.0650662861258606e+01 4.6715730386430955e+01 0.0000000000000000e+00 0 0 0
254 1 3.4438450657909371e+01 4.7767656692129513e+01 0.0000000000000000e+00 0 0 0
283 1 3.1152823715273623e+01 5.0740946648878790e+01 0.0000000000000000e+00 0 0 0
284 1 3.5092573804039482e+01 5.1850065442841185e+01 0.0000000000000000e+00 0 0 0
256 1 4.1223260227344660e+01 4.6164947771720264e+01 0.0000000000000000e+00 0 0 0
285 1 3.8224848642418451e+01 4.9026534876210683e+01 0.0000000000000000e+00 0 0 0
287 1 4.1983078348134292e+01 5.0169673572535935e+01 0.0000000000000000e+00 0 0 0
258 1 4.5197353405928055e+01 4.7354494733740758e+01 0.0000000000000000e+00 0 0 0
286 1 3.9001354627453281e+01 5.3058645953084628e+01 0.0000000000000000e+00 0 0 0
260 1 5.2203236111811194e+01 4.5405306531509488e+01 0.0000000000000000e+00 0 0 0
288 1 4.6125143527416121e+01 5.1119003778592266e+01 0.0000000000000000e+00 0 0 0
289 1 4.9051751529207429e+01 4.8326327337577531e+01 0.0000000000000000e+00 0 0 0
290 1 4.9903832157100020e+01 5.2183098460522736e+01 0.0000000000000000e+00 0 0 0
262 1 5.6135878893041124e+01 4.6672420981435828e+01 0.0000000000000000e+00 0 0 0
291 1 5.3017315738915777e+01 4.9501557945209136e+01 0.0000000000000000e+00 0 0 0
292 1 5.6897372281371553e+01 5.0524080558903094e+01 0.0000000000000000e+00 0 0 0
293 1 5.9931394113629622e+01 4.7696641429850651e+01 0.0000000000000000e+00 0 0 0
266 1 6.6928162404649967e+01 4.6006159730110639e+01 0.0000000000000000e+00 0 0 0
295 1 6.3857182298096092e+01 4.8751737974685163e+01 0.0000000000000000e+00 0 0 0
294 1 6.0881339455588154e+01 5.1612876644990820e+01 0.0000000000000000e+00 0 0 0
296 1 6.4751712652163519e+01 5.2888311921489837e+01 0.0000000000000000e+00 0 0 0
297 1 6.7878371390087480e+01 4.9879677184788093e+01 0.0000000000000000e+00 0 0 0
267 1 7.0917975953111110e+01 4.7103123433628966e+01 0.0000000000000000e+00 0 0 0
298 1 7.1792571140003076e+01 5.1062529756373195e+01 0.0000000000000000e+00 0 0 0
268 1 7.4837129897182635e+01 4.8239239980383267e+01 0.0000000000000000e+00 0 0 0
270 1 7.8786134150692902e+01 4.9269189744336018e+01 0.0000000000000000e+00 0 0 0
299 1 7.5726480153187254e+01 5.2207847653339222e+01 0.0000000000000000e+00 0 0 0
1141 1 8.1561536629677690e+01 4.6336260855248504e+01 0.0000000000000000e+00 0 0 0
272 1 6.5566828620750837e+00 5.3489470161969187e+01 0.0000000000000000e+00 0 0 0
301 1 3.1633638266748130e+00 5.5772031033931775e+01 0.0000000000000000e+00 0 0 0
303 1 6.9798224157122677e+00 5.7399582522439445e+01 0.0000000000000000e+00 0 0 0
302 1 3.8763472235449354e+00 5.9819458993031695e+01 0.0000000000000000e+00 0 0 0
274 1 1.0304209481589130e+01 5.4351365011589230e+01 0.0000000000000000e+00 0 0 0
304 1 1.0956340207038659e+01 5.8417959889702239e+01 0.0000000000000000e+00 0 0 0
305 1 1.4247039410601063e+01 5.5859699257825085e+01 0.0000000000000000e+00 0 0 0
306 1 1.4892562115144168e+01 5.9904934138898732e+01 0.0000000000000000e+00 0 0 0
277 1 1.7325732366880832e+01 5.3338202790872593e+01 0.0000000000000000e+00 0 0 0
278 1 2.1177212100527168e+01 5.4579762780853372e+01 0.0000000000000000e+00 0 0 0
307 1 1.8034170323409693e+01 5.7288112588365372e+01 0.0000000000000000e+00 0 0 0
309 1 2.1983292732087246e+01 5.8447762271460242e+01 0.0000000000000000e+00 0 0 0
282 1 2.8134325097976756e+01 5.3498572587212969e+01 0.0000000000000000e+00 0 0 0
311 1 2.5017767120179204e+01 5.5981937501472487e+01 0.0000000000000000e+00 0 0 0
312 1 2.8937467385049729e+01 5.7480531871236721e+01 0.0000000000000000e+00 0 0 0
310 1 2.5778890846188599e+01 5.9834685564372975e+01 0.0000000000000000e+00 0 0 0
313 1 3.2020748639787669e+01 5.4724660505095180e+01 0.0000000000000000e+00 0 0 0
314 1 3.2873716774002865e+01 5.8641004186360227e+01 0.0000000000000000e+00 0 0 0
315 1 3.5900275527095893e+01 5.5707111457168665e+01 0.0000000000000000e+00 0 0 0
345 1 3.6730794969176586e+01 5.9631895188607814e+01 0.0000000000000000e+00 0 0 0
317 1 4.3019442243350305e+01 5.4042234702999195e+01 0.0000000000000000e+00 0 0 0
316 1 3.9903106732943989e+01 5.6963450149363112e+01 0.0000000000000000e+00 0 0 0
318 1 4.3869978226141100e+01 5.7930602675931127e+01 0.0000000000000000e+00 0 0 0
319 1 4.6981643066266081e+01 5.5072380149705616e+01 0.0000000000000000e+00 0 0 0
320 1 5.0894503744521586e+01 5.6259837634830262e+01 0.0000000000000000e+00 0 0 0
349 1 4.7806821758305375e+01 5.9052032810609404e+01 0.0000000000000000e+00 0 0 0
350 1 5.1737346885722140e+01 6.0166317251842194e+01 0.0000000000000000e+00 0 0 0
321 1 5.3816143992964285e+01 5.3463170854522907e+01 0.0000000000000000e+00 0 0 0
322 1 5.4788527129509127e+01 5.7361942906196155e+01 0.0000000000000000e+00 0 0 0
323 1 5.7992541436089937e+01 5.4565030395868867e+01 0.0000000000000000e+00 0 0 0
353 1 5.8872310454775707e+01 5.8476306367100307e+01 0.0000000000000000e+00 0 0 0
324 1 6.1802501041309092e+01 5.5769485566157265e+01 0.0000000000000000e+00 0 0 0
325 1 6.5703478735777495e+01 5.6947132233395998e+01 0.0000000000000000e+00 0 0 0
355 1 6.2750370520149417e+01 5.9798735182013417e+01 0.0000000000000000e+00 0 0 0
326 1 6.9668831476812215e+01 5.8001798361482869e+01 0.0000000000000000e+00 0 0 0
327 1 6.8722834700770932e+01 5.3939023199124534e+01 0.0000000000000000e+00 0 0 0
328 1 7.2599303839347655e+01 5.4951036865137539e+01 0.0000000000000000e+00 0 0 0
359 1 7.3656501176048934e+01 5.8989610125462846e+01 0.0000000000000000e+00 0 0 0
300 1 7.9617724396238998e+01 5.3259393198051228e+01 0.0000000000000000e+00 0 0 0
329 1 7.6709063355969107e+01 5.6180714930366477e+01 0.0000000000000000e+00 0 0 0
1201 1 8.0614538266302191e+01 5.7115231116861509e+01 0.0000000000000000e+00 0 0 0
330 1 7.7598818174171370e+01 6.0117818233474338e+01 0.0000000000000000e+00 0 0 0
332 1 4.6722703749070416e+00 6.3828404472778494e+01 0.0000000000000000e+00 0 0 0
333 1 7.7810246480888150e+00 6.1309091400476198e+01 0.0000000000000000e+00 0 0 0
361 1 1.6572035803762326e+00 6.6543895984204440e+01 0.0000000000000000e+00 0 0 0
334 1 8.6201432194122294e+00 6.5326622478539093e+01 0.0000000000000000e+00 0 0 0
335 1 1.1792769045927574e+01 6.2553884263334986e+01 0.0000000000000000e+00 0 0 0
336 1 1.2674913907701614e+01 6.6431133891907450e+01 0.0000000000000000e+00 0 0 0
337 1 1.5779495815581438e+01 6.3789630746752017e+01 0.0000000000000000e+00 0 0 0
308 1 1.8700795626309539e+01 6.1252419815227732e+01 0.0000000000000000e+00 0 0 0
338 1 1.9518795034950735e+01 6.5169135131999084e+01 0.0000000000000000e+00 0 0 0
339 1 2.2792554881923550e+01 6.2468062242144079e+01 0.0000000000000000e+00 0 0 0
340 1 2.3419683165252192e+01 6.6445949296570774e+01 0.0000000000000000e+00 0 0 0
341 1 2.6435222957675940e+01 6.3860783616577663e+01 0.0000000000000000e+00 0 0 0
343 1 2.9722953290042664e+01 6.1277006486438943e+01 0.0000000000000000e+00 0 0 0
342 1 3.0621863749183380e+01 6.5133494618590163e+01 0.0000000000000000e+00 0 0 0
344 1 3.3908982870628719e+01 6.2381150692359043e+01 0.0000000000000000e+00 0 0 0
373 1 3.4459065215319463e+01 6.6321525606872967e+01 0.0000000000000000e+00 0 0 0
346 1 3.7680015335410147e+01 6.3381128691999265e+01 0.0000000000000000e+00 0 0 0
347 1 4.0801023827530194e+01 6.0775455373946436e+01 0.0000000000000000e+00 0 0 0
377 1 4.1433494871670646e+01 6.4636364733476555e+01 0.0000000000000000e+00 0 0 0
348 1 4.4765593065177796e+01 6.1785007660089050e+01 0.0000000000000000e+00 0 0 0
375 1 3.8354445728092401e+01 6.7385804570020269e+01 0.0000000000000000e+00 0 0 0
376 1 4.5503716198277822e+01 6.5705069904254728e+01 0.0000000000000000e+00 0 0 0
378 1 4.8747702556304596e+01 6.3060437674788176e+01 0.0000000000000000e+00 0 0 0
409 1 4.9507463207728669e+01 6.7027583018992601e+01 0.0000000000000000e+00 0 0 0
379 1 5.2803990946491950e+01 6.4075747539243736e+01 0.0000000000000000e+00 0 0 0
351 1 5.5669207485398474e+01 6.1135036550450238e+01 0.0000000000000000e+00 0 0 0
381 1 5.6556461075958218e+01 6.5261756187746172e+01 0.0000000000000000e+00 0 0 0
352 1 5.9635022501572372e+01 6.2540795146661374e+01 0.0000000000000000e+00 0 0 0
382 1 6.0501605552867439e+01 6.6512030466396439e+01 0.0000000000000000e+00 0 0 0
356 1 6.6740415851841320e+01 6.0796264129893530e+01 0.0000000000000000e+00 0 0 0
354 1 6.3549578061896455e+01 6.3815689389031718e+01 0.0000000000000000e+00 0 0 0
385 1 6.7688206438737879e+01 6.4906825987466135e+01 0.0000000000000000e+00 0 0 0
357 1 7.0609511787998173e+01 6.2006652209963306e+01 0.0000000000000000e+00 0 0 0
387 1 7.1589080703671655e+01 6.5853024826085701e+01 0.0000000000000000e+00 0 0 0
358 1 7.4543644620933406e+01 6.2896269393412815e+01 0.0000000000000000e+00 0 0 0
1231 1 8.1487949575497254e+01 6.1072502052274309e+01 0.0000000000000000e+00 0 0 0
360 1 7.8416194295213046e+01 6.3851046062396293e+01 0.0000000000000000e+00 0 0 0
389 1 7.5546891325471691e+01 6.6764598377349628e+01 0.0000000000000000e+00 0 0 0
363 1 5.5221505164579305e+00 6.7851801299289107e+01 0.0000000000000000e+00 0 0 0