LAMMPS data file via write_data, version 17 Nov 2016, timestep = 200000

1800 atoms
1 atom types

9.4184997321424646e-01 1.6405815002678710e+02 xlo xhi
9.4184997321424646e-01 1.6405815002678710e+02 ylo yhi
0.0000000000000000e+00 5.5000000000000000e+00 zlo zhi

Masses

1 83.798

Atoms # atomic

2 1 3.4332944668727938e+00 2.9482573138368937e+00 0.0000000000000000e+00 0 0 0
3 1 7.6536057137238211e+00 2.4230516427120441e+00 0.0000000000000000e+00 0 0 0
33 1 5.8553546506891507e+00 6.1357754384188290e+00 0.0000000000000000e+00 0 0 0
31 1 2.0515460782929216e+00 6.7806568305493355e+00 0.0000000000000000e+00 0 0 0
4 1 9.9279979335023043e+00 5.6392894537590719e+00 0.0000000000000000e+00 0 0 0
5 1 1.1633489500942064e+01 1.9415255726233331e+00 0.0000000000000000e+00 0 0 0
6 1 1.3970736938952477e+01 5.0806525788997803e+00 0.0000000000000000e+00 0 0 0
8 1 1.7804351875316367e+01 4.1629746823671656e+00 0.0000000000000000e+00 0 0 0
9 1 2.1149097830928991e+01 1.9708810233566414e+00 0.0000000000000000e+00 0 0 0
39 1 2.1503970497622912e+01 6.0567745771508594e+00 0.0000000000000000e+00 0 0 0
37 1 1.6895987410354095e+01 8.1763128766687725e+00 0.0000000000000000e+00 0 0 0
10 1 2.4860118714575318e+01 3.4993622204176460e+00 0.0000000000000000e+00 0 0 0
41 1 2.8536154097655071e+01 5.2634406684434989e+00 0.0000000000000000e+00 0 0 0
40 1 2.5313129896780893e+01 7.5026045339386309e+00 0.0000000000000000e+00 0 0 0
11 1 2.8268350463146621e+01 1.2097669189074221e+00 0.0000000000000000e+00 0 0 0
12 1 3.1866381281292561e+01 2.8735140456044483e+00 0.0000000000000000e+00 0 0 0
43 1 3.2021805143226672e+01 7.0078983087591826e+00 0.0000000000000000e+00 0 0 0
14 1 3.5421047889213355e+01 4.5748538100352807e+00 0.0000000000000000e+00 0 0 0
15 1 3.8916322833940903e+01 2.1637807375355984e+00 0.0000000000000000e+00 0 0 0
45 1 3.9100838789519422e+01 6.1036034204201455e+00 0.0000000000000000e+00 0 0 0
16 1 4.2492002091229629e+01 3.8132527538985559e+00 0.0000000000000000e+00 0 0 0
46 1 4.2608767315102419e+01 7.8224572989414449e+00 0.0000000000000000e+00 0 0 0
18 1 4.6161616625348003e+01 5.4963102857302681e+00 0.0000000000000000e+00 0 0 0
49 1 4.9963709594494482e+01 6.6004916228047827e+00 0.0000000000000000e+00 0 0 0
20 1 5.1373577672630468e+01 2.4631688140943870e+00 0.0000000000000000e+00 0 0 0
17 1 4.6018654111533891e+01 1.4614683708865432e+00 0.0000000000000000e+00 0 0 0
51 1 5.3846754828671763e+01 5.5794294129964648e+00 0.0000000000000000e+00 0 0 0
22 1 5.7864887747898273e+01 4.8984790820310753e+00 0.0000000000000000e+00 0 0 0
21 1 5.5505962363142217e+01 1.8220931945567027e+00 0.0000000000000000e+00 0 0 0
23 1 5.9551985857352790e+01 1.2204261318082346e+00 0.0000000000000000e+00 0 0 0
53 1 6.0364820728401376e+01 8.0462320251303154e+00 0.0000000000000000e+00 0 0 0
24 1 6.1944612456642439e+01 4.3110001597291081e+00 0.0000000000000000e+00 0 0 0
25 1 6.6009095198661527e+01 3.9990510879399865e+00 0.0000000000000000e+00 0 0 0
55 1 6.4523353421214892e+01 8.1671140875351771e+00 0.0000000000000000e+00 0 0 0
26 1 7.1431912352874207e+01 6.8253693884982809e+00 0.0000000000000000e+00 0 0 0
27 1 6.9852193588364813e+01 3.2696240820693676e+00 0.0000000000000000e+00 0 0 0
898 1 7.4008981271404977e+01 3.5496715123078446e+00 0.0000000000000000e+00 0 1 0
28 1 7.5396051584242841e+01 7.4587809707421586e+00 0.0000000000000000e+00 0 0 0
29 1 7.7851303432342519e+01 4.3217970476325975e+00 0.0000000000000000e+00 0 0 0
900 1 8.1211773623099774e+01 2.2665368911467412e+00 0.0000000000000000e+00 0 1 0
30 1 8.2268956441767770e+01 5.9030643475407816e+00 0.0000000000000000e+00 0 0 0
32 1 4.4858315183269060e+00 1.0162578127371562e+01 0.0000000000000000e+00 0 0 0
63 1 6.9111999407885039e+00 1.3405346161833249e+01 0.0000000000000000e+00 0 0 0
62 1 2.9583522480158702e+00 1.4074514916044045e+01 0.0000000000000000e+00 0 0 0
34 1 8.5445392975471002e+00 9.5726191565329426e+00 0.0000000000000000e+00 0 0 0
35 1 1.2662630591716763e+01 9.0045609350414821e+00 0.0000000000000000e+00 0 0 0
65 1 1.0934418383702278e+01 1.2815478008874244e+01 0.0000000000000000e+00 0 0 0
36 1 1.5052442981601683e+01 1.2427226387850693e+01 0.0000000000000000e+00 0 0 0
38 1 1.8884980190532616e+01 1.1843624829041193e+01 0.0000000000000000e+00 0 0 0
69 1 2.2174113955059742e+01 1.0005827644069837e+01 0.0000000000000000e+00 0 0 0
68 1 2.2105218369753750e+01 1.4451870222198526e+01 0.0000000000000000e+00 0 0 0
71 1 2.5696067102351765e+01 1.1917623181469907e+01 0.0000000000000000e+00 0 0 0
42 1 2.8902360338667094e+01 9.4295931233197994e+00 0.0000000000000000e+00 0 0 0
72 1 2.9316149205551994e+01 1.3841669173368945e+01 0.0000000000000000e+00 0 0 0
44 1 3.5746674570287048e+01 8.6369871371324223e+00 0.0000000000000000e+00 0 0 0
73 1 3.2415767844562865e+01 1.1158591157624931e+01 0.0000000000000000e+00 0 0 0
74 1 3.6002065733395966e+01 1.2797495290084894e+01 0.0000000000000000e+00 0 0 0
103 1 3.2885474379441675e+01 1.5379922610733921e+01 0.0000000000000000e+00 0 0 0
75 1 3.9254585273537096e+01 1.0345327797643646e+01 0.0000000000000000e+00 0 0 0
77 1 4.3049881792666760e+01 1.1750724666414035e+01 0.0000000000000000e+00 0 0 0
76 1 3.9820574330750972e+01 1.4381521877483774e+01 0.0000000000000000e+00 0 0 0
47 1 4.6240896638034648e+01 9.4406792627292191e+00 0.0000000000000000e+00 0 0 0
48 1 4.6890711507504513e+01 1.3293636920949885e+01 0.0000000000000000e+00 0 0 0
79 1 5.0803524432993775e+01 1.4491455438794841e+01 0.0000000000000000e+00 0 0 0
50 1 4.9975578381350701e+01 1.0557372430614880e+01 0.0000000000000000e+00 0 0 0
52 1 5.6460527560852775e+01 8.7192907967587630e+00 0.0000000000000000e+00 0 0 0
81 1 5.3742724608634084e+01 1.1840195536574820e+01 0.0000000000000000e+00 0 0 0
82 1 5.7702786616051888e+01 1.2690549166448793e+01 0.0000000000000000e+00 0 0 0
83 1 6.1664208582108309e+01 1.1756383965736585e+01 0.0000000000000000e+00 0 0 0
54 1 6.5703540667289289e+01 1.2328188723500157e+01 0.0000000000000000e+00 0 0 0
113 1 6.2948355928120911e+01 1.5515276554539476e+01 0.0000000000000000e+00 0 0 0
57 1 7.2654997261081178e+01 1.0490066966576306e+01 0.0000000000000000e+00 0 0 0
56 1 6.8509927062947895e+01 9.4814546483447160e+00 0.0000000000000000e+00 0 0 0
85 1 6.9853116504669998e+01 1.3292406294900811e+01 0.0000000000000000e+00 0 0 0
87 1 7.3733034310007824e+01 1.4446074511683559e+01 0.0000000000000000e+00 0 0 0
59 1 7.9168306941908739e+01 8.4867114915033905e+00 0.0000000000000000e+00 0 0 0
58 1 7.6533501889091085e+01 1.1497550053272450e+01 0.0000000000000000e+00 0 0 0
89 1 8.0486455680786435e+01 1.2569950230786981e+01 0.0000000000000000e+00 0 0 0
88 1 7.7668023710115875e+01 1.5550275224939325e+01 0.0000000000000000e+00 0 0 0
92 1 4.0930461818778596e+00 2.1115455154438560e+01 0.0000000000000000e+00 0 0 0
93 1 5.4965019689472596e+00 1.7294740168178237e+01 0.0000000000000000e+00 0 0 0
91 1 1.5473020388860577e+00 1.7777913489528373e+01 0.0000000000000000e+00 0 0 0
94 1 8.0289710797429201e+00 2.0421154609483573e+01 0.0000000000000000e+00 0 0 0
66 1 1.3467640732973237e+01 1.5990315521682797e+01 0.0000000000000000e+00 0 0 0
64 1 9.5557197676099577e+00 1.6737636729685690e+01 0.0000000000000000e+00 0 0 0
95 1 1.2128405245709885e+01 2.0044858407473374e+01 0.0000000000000000e+00 0 0 0
96 1 1.4978799565032656e+01 2.3377106152496967e+01 0.0000000000000000e+00 0 0 0
67 1 1.8133571461351000e+01 1.5813051317747224e+01 0.0000000000000000e+00 0 0 0
97 1 1.6042635736973203e+01 1.9334040304280339e+01 0.0000000000000000e+00 0 0 0
99 1 2.1427281461471598e+01 1.8871461557409120e+01 0.0000000000000000e+00 0 0 0
98 1 1.9003272116015584e+01 2.2397326500823379e+01 0.0000000000000000e+00 0 0 0
129 1 2.2932730867211607e+01 2.2851327855822365e+01 0.0000000000000000e+00 0 0 0
70 1 2.5815119641146683e+01 1.6074332401829441e+01 0.0000000000000000e+00 0 0 0
100 1 2.5969333417712644e+01 2.0259837245801513e+01 0.0000000000000000e+00 0 0 0
101 1 2.9551448040543971e+01 1.7776887582198619e+01 0.0000000000000000e+00 0 0 0
131 1 2.9835391317426176e+01 2.2007539662545820e+01 0.0000000000000000e+00 0 0 0
102 1 3.3188061302043799e+01 1.9360567149874196e+01 0.0000000000000000e+00 0 0 0
104 1 3.7039089902996750e+01 2.0954869892762950e+01 0.0000000000000000e+00 0 0 0
105 1 3.6499975712351713e+01 1.6846941228082706e+01 0.0000000000000000e+00 0 0 0
107 1 4.3419242946444776e+01 1.5806632756488163e+01 0.0000000000000000e+00 0 0 0
106 1 4.0251931580338386e+01 1.8449547094000824e+01 0.0000000000000000e+00 0 0 0
135 1 4.0820153260987958e+01 2.2386151083960904e+01 0.0000000000000000e+00 0 0 0
137 1 4.4063212993673837e+01 1.9818010199681737e+01 0.0000000000000000e+00 0 0 0
78 1 4.7252131708107406e+01 1.7197534114957453e+01 0.0000000000000000e+00 0 0 0
108 1 4.7755586978394376e+01 2.1043496936103811e+01 0.0000000000000000e+00 0 0 0
109 1 5.0982513751968455e+01 1.8308746109096344e+01 0.0000000000000000e+00 0 0 0
139 1 5.1492836977859056e+01 2.2365898712542752e+01 0.0000000000000000e+00 0 0 0
80 1 5.4821099863617235e+01 1.5698041604556765e+01 0.0000000000000000e+00 0 0 0
110 1 5.4570937658726329e+01 1.9733154740043894e+01 0.0000000000000000e+00 0 0 0
111 1 5.8754963083793228e+01 1.6758891660453116e+01 0.0000000000000000e+00 0 0 0
141 1 5.8381429906473620e+01 2.0969848681283104e+01 0.0000000000000000e+00 0 0 0
84 1 6.7031232573224713e+01 1.6144822382546614e+01 0.0000000000000000e+00 0 0 0
112 1 6.4364262242482340e+01 1.9300217793140735e+01 0.0000000000000000e+00 0 0 0
143 1 6.1877851635096960e+01 2.2328162751462166e+01 0.0000000000000000e+00 0 0 0
115 1 6.8436923564614119e+01 2.0218881521228582e+01 0.0000000000000000e+00 0 0 0
86 1 7.1082874713888089e+01 1.7386994642146291e+01 0.0000000000000000e+00 0 0 0
116 1 7.2236929753008681e+01 2.1375676455612599e+01 0.0000000000000000e+00 0 0 0
117 1 7.5070502488097901e+01 1.8468806854256513e+01 0.0000000000000000e+00 0 0 0
118 1 7.6086802523157672e+01 2.2375597683702772e+01 0.0000000000000000e+00 0 0 0
90 1 8.1563795878697391e+01 1.6635147240808106e+01 0.0000000000000000e+00 0 0 0
119 1 7.8863649530763539e+01 1.9543340497952091e+01 0.0000000000000000e+00 0 0 0
123 1 6.6685430876674268e+00 2.4287307030315901e+01 0.0000000000000000e+00 0 0 0
122 1 2.5476340773403541e+00 2.4935044784606053e+01 0.0000000000000000e+00 0 0 0
153 1 5.1729053866640093e+00 2.8072558495869224e+01 0.0000000000000000e+00 0 0 0
152 1 1.1924535704744521e+00 2.8664675398619554e+01 0.0000000000000000e+00 0 0 0
125 1 1.0681338601162588e+01 2.3722725929688124e+01 0.0000000000000000e+00 0 0 0
124 1 9.1312236932554356e+00 2.7654646982746357e+01 0.0000000000000000e+00 0 0 0
126 1 1.3189977227036803e+01 2.7136330790676464e+01 0.0000000000000000e+00 0 0 0
157 1 1.5808138429697429e+01 3.0248426997308027e+01 0.0000000000000000e+00 0 0 0
127 1 1.7435263545651985e+01 2.6528896163310346e+01 0.0000000000000000e+00 0 0 0
128 1 2.0062424952214617e+01 2.9922248111528120e+01 0.0000000000000000e+00 0 0 0
159 1 2.3494786721644640e+01 2.7258991554778522e+01 0.0000000000000000e+00 0 0 0
130 1 2.6664762720661436e+01 2.4488046915547212e+01 0.0000000000000000e+00 0 0 0
161 1 2.7478405323698887e+01 2.8753090358636211e+01 0.0000000000000000e+00 0 0 0
132 1 3.0687400398590015e+01 2.5938255286786806e+01 0.0000000000000000e+00 0 0 0
133 1 3.3866369514936380e+01 2.3404187675056601e+01 0.0000000000000000e+00 0 0 0
163 1 3.4532521674240613e+01 2.7586574995043438e+01 0.0000000000000000e+00 0 0 0
162 1 3.1296448419875851e+01 2.9944353054086235e+01 0.0000000000000000e+00 0 0 0
134 1 3.7606381890887278e+01 2.4999339037943358e+01 0.0000000000000000e+00 0 0 0
136 1 4.4761318312615622e+01 2.3704955463981161e+01 0.0000000000000000e+00 0 0 0
164 1 3.8387214115144815e+01 2.9055071130128301e+01 0.0000000000000000e+00 0 0 0
165 1 4.1480870949306556e+01 2.6356860158336723e+01 0.0000000000000000e+00 0 0 0
166 1 4.2428774769786301e+01 3.0274667538092459e+01 0.0000000000000000e+00 0 0 0
167 1 4.5368109595732669e+01 2.7706315925581620e+01 0.0000000000000000e+00 0 0 0
138 1 4.8538640666041566e+01 2.5064472109999560e+01 0.0000000000000000e+00 0 0 0
169 1 5.2316355254182042e+01 2.6396299746718263e+01 0.0000000000000000e+00 0 0 0
168 1 4.9216540192238078e+01 2.9004076444920916e+01 0.0000000000000000e+00 0 0 0
140 1 5.5406414151217483e+01 2.3652013042270603e+01 0.0000000000000000e+00 0 0 0
170 1 5.3034063936272318e+01 3.0437275129564778e+01 0.0000000000000000e+00 0 0 0
142 1 5.8945473368437668e+01 2.5037653610671576e+01 0.0000000000000000e+00 0 0 0
171 1 5.6035557817093327e+01 2.7696772137679581e+01 0.0000000000000000e+00 0 0 0
172 1 5.9930472430089559e+01 2.8962786903450500e+01 0.0000000000000000e+00 0 0 0
114 1 6.5627346795995379e+01 2.3232446300460129e+01 0.0000000000000000e+00 0 0 0
144 1 6.6778562303843827e+01 2.7039686140571852e+01 0.0000000000000000e+00 0 0 0
173 1 6.2765185618040903e+01 2.6248558166043750e+01 0.0000000000000000e+00 0 0 0
174 1 6.3845851129212903e+01 3.0145512156552201e+01 0.0000000000000000e+00 0 0 0
145 1 6.9606144587787270e+01 2.4291435443891586e+01 0.0000000000000000e+00 0 0 0
146 1 7.0554779305830735e+01 2.8210600393265761e+01 0.0000000000000000e+00 0 0 0
147 1 7.3407519970133549e+01 2.5351559556889082e+01 0.0000000000000000e+00 0 0 0
177 1 7.4387665719218560e+01 2.9351188147570372e+01 0.0000000000000000e+00 0 0 0
149 1 7.9928815703329946e+01 2.3471971518434888e+01 0.0000000000000000e+00 0 0 0
148 1 7.7197670959015596e+01 2.6312024099070928e+01 0.0000000000000000e+00 0 0 0
150 1 8.1065775512571733e+01 2.7259999755558656e+01 0.0000000000000000e+00 0 0 0
179 1 7.8245502849587098e+01 3.0253659792063541e+01 0.0000000000000000e+00 0 0 0
183 1 3.6408657216397762e+00 3.1948093766262041e+01 0.0000000000000000e+00 0 0 0
182 1 2.1682939840777120e+00 3.5800530308290966e+01 0.0000000000000000e+00 0 0 0
184 1 6.1120435845474663e+00 3.5193744827716984e+01 0.0000000000000000e+00 0 0 0
154 1 7.5969309721485248e+00 3.1298339488799925e+01 0.0000000000000000e+00 0 0 0
155 1 1.1564776423892113e+01 3.0891111557895389e+01 0.0000000000000000e+00 0 0 0
185 1 1.0090005094292096e+01 3.4548346131042308e+01 0.0000000000000000e+00 0 0 0
156 1 1.4122652092177313e+01 3.3956257594578524e+01 0.0000000000000000e+00 0 0 0
186 1 1.2659229378222379e+01 3.7667901889196315e+01 0.0000000000000000e+00 0 0 0
158 1 1.8085978280179145e+01 3.3491951329615539e+01 0.0000000000000000e+00 0 0 0
189 1 2.1859594372453977e+01 3.4659425473732441e+01 0.0000000000000000e+00 0 0 0
187 1 1.8492030863001013e+01 3.7543568009322478e+01 0.0000000000000000e+00 0 0 0
160 1 2.4511366655425288e+01 3.1454305074396078e+01 0.0000000000000000e+00 0 0 0
191 1 2.8427066789815424e+01 3.2848014632072449e+01 0.0000000000000000e+00 0 0 0
190 1 2.5611448814251045e+01 3.5681113522917499e+01 0.0000000000000000e+00 0 0 0
221 1 2.9486382606216711e+01 3.7011161903141470e+01 0.0000000000000000e+00 0 0 0
193 1 3.5423791797690868e+01 3.1560848788060220e+01 0.0000000000000000e+00 0 0 0
192 1 3.2239139987294834e+01 3.4063533863916533e+01 0.0000000000000000e+00 0 0 0
194 1 3.6272700421898570e+01 3.5510554272521794e+01 0.0000000000000000e+00 0 0 0
195 1 3.9413048538834374e+01 3.2977880785685656e+01 0.0000000000000000e+00 0 0 0
196 1 4.3386941363500355e+01 3.4169878657438950e+01 0.0000000000000000e+00 0 0 0
225 1 4.0246685025053836e+01 3.6956588749420064e+01 0.0000000000000000e+00 0 0 0
197 1 4.6321291089194318e+01 3.1604992339074858e+01 0.0000000000000000e+00 0 0 0
199 1 5.0125534723795198e+01 3.2998650062145060e+01 0.0000000000000000e+00 0 0 0
198 1 4.7232914287809841e+01 3.5710007789916602e+01 0.0000000000000000e+00 0 0 0
229 1 5.1206154435663329e+01 3.6933482696155444e+01 0.0000000000000000e+00 0 0 0
201 1 5.6980982550071474e+01 3.1692461248402804e+01 0.0000000000000000e+00 0 0 0
200 1 5.4124459505883110e+01 3.4230357526700359e+01 0.0000000000000000e+00 0 0 0
202 1 5.8033744483848231e+01 3.5540785138854069e+01 0.0000000000000000e+00 0 0 0
203 1 6.0989294511760718e+01 3.2883225424179820e+01 0.0000000000000000e+00 0 0 0
233 1 6.1832909924101052e+01 3.6798588632648801e+01 0.0000000000000000e+00 0 0 0
204 1 6.4790802339078454e+01 3.4211963543326902e+01 0.0000000000000000e+00 0 0 0
235 1 6.5615633860270762e+01 3.8033549158462705e+01 0.0000000000000000e+00 0 0 0
175 1 6.7658388802100120e+01 3.1064453525936401e+01 0.0000000000000000e+00 0 0 0
176 1 7.1417939923651417e+01 3.2190270396208867e+01 0.0000000000000000e+00 0 0 0
205 1 6.8622098021318280e+01 3.5043788353529372e+01 0.0000000000000000e+00 0 0 0
207 1 7.2496713747062941e+01 3.6199808950108427e+01 0.0000000000000000e+00 0 0 0
178 1 7.5491144359595395e+01 3.3208380585158437e+01 0.0000000000000000e+00 0 0 0
208 1 7.6496216971148939e+01 3.7134672835093021e+01 0.0000000000000000e+00 0 0 0
209 1 7.9426944849458678e+01 3.4181180508518338e+01 0.0000000000000000e+00 0 0 0
180 1 8.2206624771631979e+01 3.1171915325611739e+01 0.0000000000000000e+00 0 0 0
213 1 4.9121787644592949e+00 3.9023152280149894e+01 0.0000000000000000e+00 0 0 0
243 1 3.5767528521701020e+00 4.2624041005998592e+01 0.0000000000000000e+00 0 0 0
214 1 7.6521049822297584e+00 4.2046593284195808e+01 0.0000000000000000e+00 0 0 0
215 1 8.8259636687947385e+00 3.8228150568673961e+01 0.0000000000000000e+00 0 0 0
216 1 1.1760291998954838e+01 4.1947331768617047e+01 0.0000000000000000e+00 0 0 0
217 1 1.5632955847533415e+01 4.0244782227437987e+01 0.0000000000000000e+00 0 0 0
218 1 1.9744792108017300e+01 4.1643225727517411e+01 0.0000000000000000e+00 0 0 0
247 1 1.6638729907859528e+01 4.4350369317573026e+01 0.0000000000000000e+00 0 0 0
188 1 2.2561069112623557e+01 3.8570720433886088e+01 0.0000000000000000e+00 0 0 0
249 1 2.0650181601991719e+01 4.5551713539524933e+01 0.0000000000000000e+00 0 0 0
219 1 2.3644677523642926e+01 4.2652683353176556e+01 0.0000000000000000e+00 0 0 0
220 1 2.6555435029462000e+01 3.9829303678685037e+01 0.0000000000000000e+00 0 0 0
251 1 2.7544826263958655e+01 4.3790707427533967e+01 0.0000000000000000e+00 0 0 0
222 1 3.0408000751870581e+01 4.1011108386641332e+01 0.0000000000000000e+00 0 0 0
223 1 3.3286047049857537e+01 3.8150590965983717e+01 0.0000000000000000e+00 0 0 0
224 1 3.7135555545441747e+01 3.9479783805482477e+01 0.0000000000000000e+00 0 0 0
253 1 3.4385376093583716e+01 4.2184870248550943e+01 0.0000000000000000e+00 0 0 0
252 1 3.1494511675165509e+01 4.4893712509514039e+01 0.0000000000000000e+00 0 0 0
227 1 4.4024408924607854e+01 3.8196453560109859e+01 0.0000000000000000e+00 0 0 0
255 1 3.8267449092975866e+01 4.3607918396899301e+01 0.0000000000000000e+00 0 0 0
226 1 4.1196402352963283e+01 4.0963588293557557e+01 0.0000000000000000e+00 0 0 0
256 1 4.2150887421517318e+01 4.4934423701304674e+01 0.0000000000000000e+00 0 0 0
257 1 4.5127419357435166e+01 4.2199762578527036e+01 0.0000000000000000e+00 0 0 0
228 1 4.8154715055381068e+01 3.9604214621432767e+01 0.0000000000000000e+00 0 0 0
230 1 5.2137208467658112e+01 4.0864394546958771e+01 0.0000000000000000e+00 0 0 0
259 1 4.9035000025813936e+01 4.3684694982875648e+01 0.0000000000000000e+00 0 0 0
231 1 5.5252335000864605e+01 3.8272214206029368e+01 0.0000000000000000e+00 0 0 0
260 1 5.3068622643400580e+01 4.5044325477811967e+01 0.0000000000000000e+00 0 0 0
232 1 5.9021940656677963e+01 3.9484683043873993e+01 0.0000000000000000e+00 0 0 0
261 1 5.6006124461211584e+01 4.2223901308249609e+01 0.0000000000000000e+00 0 0 0
263 1 6.0038598054218191e+01 4.3525625385816973e+01 0.0000000000000000e+00 0 0 0
234 1 6.2802098912130170e+01 4.0833216439058816e+01 0.0000000000000000e+00 0 0 0
265 1 6.6823309971408534e+01 4.1863891258119104e+01 0.0000000000000000e+00 0 0 0
264 1 6.3922264504811473e+01 4.4727326980042889e+01 0.0000000000000000e+00 0 0 0
206 1 6.9646692648805455e+01 3.9063550100471311e+01 0.0000000000000000e+00 0 0 0
236 1 7.0755264730784646e+01 4.2855783639995835e+01 0.0000000000000000e+00 0 0 0
237 1 7.3572898682951504e+01 3.9946701020242962e+01 0.0000000000000000e+00 0 0 0
238 1 7.4693749645199517e+01 4.3763783222338915e+01 0.0000000000000000e+00 0 0 0
210 1 8.0392580716532166e+01 3.8206433984069854e+01 0.0000000000000000e+00 0 0 0
239 1 7.7575668690633378e+01 4.0996621726676679e+01 0.0000000000000000e+00 0 0 0
240 1 8.1422062115490348e+01 4.2133606500982765e+01 0.0000000000000000e+00 0 0 0
269 1 7.8609141501612427e+01 4.4988734513936841e+01 0.0000000000000000e+00 0 0 0
244 1 5.9124715525544014e+00 4.5793743700488470e+01 0.0000000000000000e+00 0 0 0
242 1 2.0141669084915876e+00 4.6390352997788071e+01 0.0000000000000000e+00 0 0 0
273 1 4.6112719551537493e+00 4.9624468285724191e+01 0.0000000000000000e+00 0 0 0
245 1 9.8861819751247957e+00 4.5720985171602109e+01 0.0000000000000000e+00 0 0 0
246 1 1.3795862136619727e+01 4.7071829603506302e+01 0.0000000000000000e+00 0 0 0
275 1 1.0499138621680613e+01 5.0040280631478019e+01 0.0000000000000000e+00 0 0 0
276 1 1.4403468862440926e+01 5.1096172037951064e+01 0.0000000000000000e+00 0 0 0
248 1 1.7608220992955136e+01 4.8286753042330155e+01 0.0000000000000000e+00 0 0 0
279 1 2.1489766122869533e+01 4.9440471017566928e+01 0.0000000000000000e+00 0 0 0
277 1 1.8440988028426425e+01 5.2226254690273869e+01 0.0000000000000000e+00 0 0 0
250 1 2.4411015272669125e+01 4.6707426996660757e+01 0.0000000000000000e+00 0 0 0
280 1 2.5360677564405268e+01 5.0683168487235619e+01 0.0000000000000000e+00 0 0 0
281 1 2.8387566034704175e+01 4.7685392792273653e+01 0.0000000000000000e+00 0 0 0
282 1 2.9384020629775627e+01 5.1795236739143405e+01 0.0000000000000000e+00 0 0 0
254 1 3.5410179867938062e+01 4.6277490715103490e+01 0.0000000000000000e+00 0 0 0
283 1 3.2337865622630758e+01 4.9125035069190638e+01 0.0000000000000000e+00 0 0 0
284 1 3.6341147801805562e+01 5.0368321646166649e+01 0.0000000000000000e+00 0 0 0
285 1 3.9237825223290422e+01 4.7697243381351676e+01 0.0000000000000000e+00 0 0 0
287 1 4.3204671425768559e+01 4.9016682475663053e+01 0.0000000000000000e+00 0 0 0
286 1 3.9996080633845089e+01 5.1703323715750521e+01 0.0000000000000000e+00 0 0 0
258 1 4.6028969830506760e+01 4.6279675233104882e+01 0.0000000000000000e+00 0 0 0
288 1 4.7098818706985206e+01 5.0219737474907483e+01 0.0000000000000000e+00 0 0 0
289 1 5.0263007049054181e+01 4.7784502048112060e+01 0.0000000000000000e+00 0 0 0
290 1 5.1141226056658624e+01 5.1617147267235133e+01 0.0000000000000000e+00 0 0 0
262 1 5.6971163738565686e+01 4.6191888694553406e+01 0.0000000000000000e+00 0 0 0
291 1 5.4104847131495070e+01 4.8872076395945498e+01 0.0000000000000000e+00 0 0 0
292 1 5.8012515536874062e+01 5.0354295432145854e+01 0.0000000000000000e+00 0 0 0
323 1 5.5056570985899235e+01 5.2989413020444040e+01 0.0000000000000000e+00 0 0 0
293 1 6.0954114150230652e+01 4.7511577621913538e+01 0.0000000000000000e+00 0 0 0
294 1 6.2013015636923122e+01 5.1557700859715567e+01 0.0000000000000000e+00 0 0 0
295 1 6.4987703612527568e+01 4.8727800335633276e+01 0.0000000000000000e+00 0 0 0
296 1 6.5985213839796955e+01 5.2580535109569091e+01 0.0000000000000000e+00 0 0 0
266 1 6.7939470726342932e+01 4.5727666231105133e+01 0.0000000000000000e+00 0 0 0
297 1 6.8943761007121154e+01 4.9860594421813545e+01 0.0000000000000000e+00 0 0 0
267 1 7.1772449663222361e+01 4.6765581428429194e+01 0.0000000000000000e+00 0 0 0
298 1 7.2972353235192060e+01 5.0771361641259027e+01 0.0000000000000000e+00 0 0 0
268 1 7.5642414185797165e+01 4.7697683065293894e+01 0.0000000000000000e+00 0 0 0
299 1 7.6807734170125812e+01 5.1880383730837742e+01 0.0000000000000000e+00 0 0 0
270 1 7.9579001529256118e+01 4.8985721504268184e+01 0.0000000000000000e+00 0 0 0
300 1 8.0706773701041314e+01 5.2922773659677162e+01 0.0000000000000000e+00 0 0 0
1321 1 7.9651985901719470e+01 7.5429435533762842e+01 0.0000000000000000e+00 0 0 0
271 1 3.1757779621747977e+00 5.3237022727536711e+01 0.0000000000000000e+00 0 0 0
1200 1 1.3263885327780631e+00 5.6738646995136683e+01 0.0000000000000000e+00 1 0 0
301 1 5.1828816073275608e+00 5.6788716636126765e+01 0.0000000000000000e+00 0 0 0
272 1 7.3078918725955067e+00 5.3185763795853930e+01 0.0000000000000000e+00 0 0 0
303 1 9.0568567059777028e+00 5.7537151493874973e+01 0.0000000000000000e+00 0 0 0
274 1 1.1677085105150143e+01 5.4133655900557606e+01 0.0000000000000000e+00 0 0 0
304 1 1.2879189857324462e+01 5.8219653803559723e+01 0.0000000000000000e+00 0 0 0
305 1 1.5776455686563795e+01 5.5265916740845782e+01 0.0000000000000000e+00 0 0 0
306 1 1.7019653149779700e+01 5.9149056641374067e+01 0.0000000000000000e+00 0 0 0
307 1 1.9820670655827271e+01 5.6234041070290111e+01 0.0000000000000000e+00 0 0 0
278 1 2.2422681672507835e+01 5.3369997324438820e+01 0.0000000000000000e+00 0 0 0
308 1 2.0886240998117454e+01 6.0337145649245116e+01 0.0000000000000000e+00 0 0 0
309 1 2.3722223666865894e+01 5.7458340702571306e+01 0.0000000000000000e+00 0 0 0
311 1 2.6498603399010427e+01 5.4517389015937603e+01 0.0000000000000000e+00 0 0 0
310 1 2.7574449384759614e+01 5.8415343466130302e+01 0.0000000000000000e+00 0 0 0
312 1 3.0441025937550684e+01 5.5811778227193585e+01 0.0000000000000000e+00 0 0 0
313 1 3.3357030821632080e+01 5.3197915921331706e+01 0.0000000000000000e+00 0 0 0
314 1 3.4345324503815334e+01 5.7326238514259749e+01 0.0000000000000000e+00 0 0 0
315 1 3.7133033474833191e+01 5.4499986126718504e+01 0.0000000000000000e+00 0 0 0
343 1 3.1392131699524601e+01 5.9760293118617660e+01 0.0000000000000000e+00 0 0 0
317 1 4.3861005319884441e+01 5.2877033555757507e+01 0.0000000000000000e+00 0 0 0
345 1 3.8120616247830490e+01 5.8509839189440370e+01 0.0000000000000000e+00 0 0 0
316 1 4.1086710903414748e+01 5.5726425920166754e+01 0.0000000000000000e+00 0 0 0
347 1 4.1948470468938943e+01 5.9689910609404762e+01 0.0000000000000000e+00 0 0 0
318 1 4.4955812572277651e+01 5.6745826763449507e+01 0.0000000000000000e+00 0 0 0
319 1 4.8005137532401932e+01 5.4320452407822309e+01 0.0000000000000000e+00 0 0 0
320 1 4.9001951393765992e+01 5.8193717775826407e+01 0.0000000000000000e+00 0 0 0
321 1 5.1972465375686838e+01 5.5580280386068218e+01 0.0000000000000000e+00 0 0 0
351 1 5.2624568188872971e+01 6.0014982595310819e+01 0.0000000000000000e+00 0 0 0
322 1 5.5726259974405046e+01 5.6915294703284196e+01 0.0000000000000000e+00 0 0 0
324 1 5.8953317421920580e+01 5.4390947478512487e+01 0.0000000000000000e+00 0 0 0
355 1 6.0334722349010129e+01 5.8543764475968956e+01 0.0000000000000000e+00 0 0 0
325 1 6.2921691874772776e+01 5.5523231659139348e+01 0.0000000000000000e+00 0 0 0
326 1 6.6831228723517668e+01 5.6726964894180803e+01 0.0000000000000000e+00 0 0 0
327 1 6.9798339576469004e+01 5.3993616405228053e+01 0.0000000000000000e+00 0 0 0
328 1 7.0845163249908211e+01 5.7816455117895842e+01 0.0000000000000000e+00 0 0 0
329 1 7.3805802735600494e+01 5.4803092669279792e+01 0.0000000000000000e+00 0 0 0
359 1 7.4856804327585408e+01 5.8736805409092256e+01 0.0000000000000000e+00 0 0 0
1201 1 8.1842020493751434e+01 5.6808288421242786e+01 0.0000000000000000e+00 0 0 0
330 1 7.7769970500596415e+01 5.5983112070155101e+01 0.0000000000000000e+00 0 0 0
1231 1 7.9050378268838500e+01 5.9683983989101677e+01 0.0000000000000000e+00 0 0 0
1230 1 2.0617969368045692e+00 6.0508014949760877e+01 0.0000000000000000e+00 1 0 0
302 1 6.1601606527887185e+00 6.0665314101536346e+01 0.0000000000000000e+00 0 0 0
331 1 3.5767078892109860e+00 6.4097369482980071e+01 0.0000000000000000e+00 0 0 0
332 1 7.5080336394513649e+00 6.4534723833322573e+01 0.0000000000000000e+00 0 0 0
450 1 7.8607826366349073e+01 7.9353576639003791e+01 0.0000000000000000e+00 0 0 0
333 1 1.0356192744835294e+01 6.1421748430413373e+01 0.0000000000000000e+00 0 0 0
335 1 1.4118012540109095e+01 6.2276448172737382e+01 0.0000000000000000e+00 0 0 0
334 1 1.1591951736093641e+01 6.5545691188111007e+01 0.0000000000000000e+00 0 0 0
336 1 1.5627514543625754e+01 6.6333157316466853e+01 0.0000000000000000e+00 0 0 0
337 1 1.8092975318694247e+01 6.3165012921549433e+01 0.0000000000000000e+00 0 0 0
338 1 2.2034168221448152e+01 6.4228374134664307e+01 0.0000000000000000e+00 0 0 0
367 1 1.9368241809838786e+01 6.7145210085611694e+01 0.0000000000000000e+00 0 0 0
339 1 2.4755753130590033e+01 6.1381087866270526e+01 0.0000000000000000e+00 0 0 0
341 1 2.8656999481670258e+01 6.2497772290264841e+01 0.0000000000000000e+00 0 0 0
340 1 2.6078350287341497e+01 6.5401534089186029e+01 0.0000000000000000e+00 0 0 0
371 1 2.9715862976268859e+01 6.7515492532372534e+01 0.0000000000000000e+00 0 0 0
342 1 3.2128309560070207e+01 6.4160969409072777e+01 0.0000000000000000e+00 0 0 0
344 1 3.5078023087951195e+01 6.1306903830011230e+01 0.0000000000000000e+00 0 0 0
375 1 3.7842303239816879e+01 6.6509574602296283e+01 0.0000000000000000e+00 0 0 0
346 1 3.8922702317040027e+01 6.2390349799305987e+01 0.0000000000000000e+00 0 0 0
377 1 4.1713323723179570e+01 6.5340602237173769e+01 0.0000000000000000e+00 0 0 0
348 1 4.5616914992607384e+01 6.4395901737277200e+01 0.0000000000000000e+00 0 0 0
349 1 4.5861843154540189e+01 6.0594226982500132e+01 0.0000000000000000e+00 0 0 0
350 1 4.9487439535257877e+01 6.2706649300223390e+01 0.0000000000000000e+00 0 0 0
379 1 4.8735983850443361e+01 6.6971497243351720e+01 0.0000000000000000e+00 0 0 0
381 1 5.2414703085715857e+01 6.5593551342717461e+01 0.0000000000000000e+00 0 0 0
353 1 5.6900149270970857e+01 6.0553411476372439e+01 0.0000000000000000e+00 0 0 0
352 1 5.6223359264051936e+01 6.4415852195698477e+01 0.0000000000000000e+00 0 0 0
383 1 5.9362231651428687e+01 6.6939792303531988e+01 0.0000000000000000e+00 0 0 0
354 1 6.0168337258151439e+01 6.2880355319742279e+01 0.0000000000000000e+00 0 0 0
385 1 6.3227372627302728e+01 6.5573249282276379e+01 0.0000000000000000e+00 0 0 0
356 1 6.3960530576411628e+01 6.1336555686970399e+01 0.0000000000000000e+00 0 0 0
387 1 6.7128709422107136e+01 6.4594865715775654e+01 0.0000000000000000e+00 0 0 0
357 1 6.7964351653413019e+01 6.0596461218230040e+01 0.0000000000000000e+00 0 0 0
358 1 7.1984750143897088e+01 6.2173112916876377e+01 0.0000000000000000e+00 0 0 0
389 1 7.3954979326591726e+01 6.5789257083314666e+01 0.0000000000000000e+00 0 0 0
388 1 7.0212204075166596e+01 6.7084769896281600e+01 0.0000000000000000e+00 0 0 0
360 1 7.6165243054337154e+01 6.2487080216830009e+01 0.0000000000000000e+00 0 0 0
1232 1 8.0147895749486281e+01 6.3813572641757354e+01 0.0000000000000000e+00 0 0 0