LAMMPS data file via write_data, version 17 Nov 2016, timestep = 200000

1800 atoms
1 atom types

1.1106815553044527e+00 1.6388931844470343e+02 xlo xhi
1.1106815553044527e+00 1.6388931844470343e+02 ylo yhi
0.0000000000000000e+00 5.5000000000000000e+00 zlo zhi

Masses

1 83.798

Atoms # atomic

2 1 3.0247165063284553e+00 3.4182316240824240e+00 0.0000000000000000e+00 0 0 0
3 1 7.0530867176619827e+00 2.5632038731477937e+00 0.0000000000000000e+00 0 0 0
33 1 5.9837784442941349e+00 6.4134497745853958e+00 0.0000000000000000e+00 0 0 0
31 1 1.9845872788909573e+00 7.3777216072780893e+00 0.0000000000000000e+00 0 0 0
4 1 9.9790582336516138e+00 5.6018207515825855e+00 0.0000000000000000e+00 0 0 0
6 1 1.3920718585991164e+01 4.5269170828919245e+00 0.0000000000000000e+00 0 0 0
5 1 1.1023706045183149e+01 1.7429709284513808e+00 0.0000000000000000e+00 0 0 0
35 1 1.2766296730520665e+01 8.5371901998307713e+00 0.0000000000000000e+00 0 0 0
8 1 1.7697291802758503e+01 3.5066666696879008e+00 0.0000000000000000e+00 0 0 0
37 1 1.6723654106130056e+01 7.4409912198316670e+00 0.0000000000000000e+00 0 0 0
9 1 2.1586613092471556e+01 2.3987069720350109e+00 0.0000000000000000e+00 0 0 0
39 1 2.0679658018646570e+01 6.2942882774293007e+00 0.0000000000000000e+00 0 0 0
10 1 2.4550039834690097e+01 5.5838971594907454e+00 0.0000000000000000e+00 0 0 0
12 1 2.8380856474682570e+01 4.4368257085472331e+00 0.0000000000000000e+00 0 0 0
11 1 2.5543121103504781e+01 1.4964176502061559e+00 0.0000000000000000e+00 0 0 0
40 1 2.7401474309263392e+01 8.4403320700396058e+00 0.0000000000000000e+00 0 0 0
41 1 3.1218964160234243e+01 7.4081896238832723e+00 0.0000000000000000e+00 0 0 0
14 1 3.5470184849006266e+01 6.6112391201547798e+00 0.0000000000000000e+00 0 0 0
15 1 3.6104851553575685e+01 2.5705369587413642e+00 0.0000000000000000e+00 0 0 0
13 1 3.2282679660504037e+01 3.6716927592465733e+00 0.0000000000000000e+00 0 0 0
16 1 4.3042952135747427e+01 4.1875590262328908e+00 0.0000000000000000e+00 0 0 0
886 1 3.9998307098150519e+01 1.4539476163572369e+00 0.0000000000000000e+00 0 1 0
46 1 4.1816780378041685e+01 8.3910584447144636e+00 0.0000000000000000e+00 0 0 0
47 1 4.5676377416936404e+01 7.1867996056732633e+00 0.0000000000000000e+00 0 0 0
18 1 4.6896736166628706e+01 3.1044644947488544e+00 0.0000000000000000e+00 0 0 0
49 1 4.9659667404496886e+01 6.0715290034289939e+00 0.0000000000000000e+00 0 0 0
19 1 5.0688487780624413e+01 1.9721944952918267e+00 0.0000000000000000e+00 0 0 0
20 1 5.3450177715249076e+01 4.8179195404615038e+00 0.0000000000000000e+00 0 0 0
51 1 5.6406802926549020e+01 7.6985459900524837e+00 0.0000000000000000e+00 0 0 0
21 1 5.7478317801011201e+01 3.6093984943651507e+00 0.0000000000000000e+00 0 0 0
22 1 6.0307072982103698e+01 6.5222824443120677e+00 0.0000000000000000e+00 0 0 0
24 1 6.4554065754789377e+01 5.6475451125643064e+00 0.0000000000000000e+00 0 0 0
23 1 6.1383744858720846e+01 2.7808270233357284e+00 0.0000000000000000e+00 0 0 0
894 1 6.5394451702590999e+01 1.6214838848574575e+00 0.0000000000000000e+00 0 1 0
25 1 6.8561675911120091e+01 4.5980889226433534e+00 0.0000000000000000e+00 0 0 0
26 1 7.1149433598299510e+01 7.9029182700065217e+00 0.0000000000000000e+00 0 0 0
27 1 7.4049508248897126e+01 5.0715548627285028e+00 0.0000000000000000e+00 0 0 0
897 1 7.2998022878371614e+01 1.2662078553329090e+00 0.0000000000000000e+00 0 1 0
29 1 7.8227100039044927e+01 5.7462713375743935e+00 0.0000000000000000e+00 0 0 0
900 1 8.0844437401498382e+01 2.8386920799029429e+00 0.0000000000000000e+00 0 1 0
898 1 7.6923139406280754e+01 1.9518994994358356e+00 0.0000000000000000e+00 0 1 0
30 1 8.2247236742797469e+01 6.6926572775467390e+00 0.0000000000000000e+00 0 0 0
32 1 4.8450084972185001e+00 1.0251110639778981e+01 0.0000000000000000e+00 0 0 0
62 1 3.6152714283993248e+00 1.4339863144755073e+01 0.0000000000000000e+00 0 0 0
63 1 7.4863564430650129e+00 1.3341106501645310e+01 0.0000000000000000e+00 0 0 0
34 1 8.6869171343529246e+00 9.4830649096733381e+00 0.0000000000000000e+00 0 0 0
65 1 1.1498123188352567e+01 1.2334559210420135e+01 0.0000000000000000e+00 0 0 0
66 1 1.4406665371022576e+01 1.5368652096999813e+01 0.0000000000000000e+00 0 0 0
36 1 1.5505689008582996e+01 1.1331207516375507e+01 0.0000000000000000e+00 0 0 0
38 1 1.9492931256359711e+01 1.0286022838214993e+01 0.0000000000000000e+00 0 0 0
67 1 1.8264492316384008e+01 1.4344425944466089e+01 0.0000000000000000e+00 0 0 0
68 1 2.2062481970592465e+01 1.3342213439104011e+01 0.0000000000000000e+00 0 0 0
69 1 2.3462758098511951e+01 9.4384062147490866e+00 0.0000000000000000e+00 0 0 0
71 1 2.6144942394242904e+01 1.2397136132687102e+01 0.0000000000000000e+00 0 0 0
42 1 3.0098881139305941e+01 1.1429369059152105e+01 0.0000000000000000e+00 0 0 0
72 1 2.8993776704083594e+01 1.5332407952807928e+01 0.0000000000000000e+00 0 0 0
43 1 3.3924127367306085e+01 1.0483871970992643e+01 0.0000000000000000e+00 0 0 0
44 1 3.6681765566399150e+01 1.3396211451700262e+01 0.0000000000000000e+00 0 0 0
73 1 3.2997427604049115e+01 1.4285269039696491e+01 0.0000000000000000e+00 0 0 0
45 1 3.8002628904559209e+01 9.4688907026591220e+00 0.0000000000000000e+00 0 0 0
75 1 4.0838864797783181e+01 1.2301800502219852e+01 0.0000000000000000e+00 0 0 0
77 1 4.4857609845703472e+01 1.1154616747194009e+01 0.0000000000000000e+00 0 0 0
76 1 4.3656106613878485e+01 1.5219984204437383e+01 0.0000000000000000e+00 0 0 0
48 1 4.8700435533386084e+01 1.0019634854144643e+01 0.0000000000000000e+00 0 0 0
79 1 5.1436417374622586e+01 1.3139365383964737e+01 0.0000000000000000e+00 0 0 0
78 1 4.7620492132144634e+01 1.4078152695335623e+01 0.0000000000000000e+00 0 0 0
50 1 5.2493282346939388e+01 8.9227579339790388e+00 0.0000000000000000e+00 0 0 0
81 1 5.5337777674650468e+01 1.1722963254682787e+01 0.0000000000000000e+00 0 0 0
52 1 5.9130302127086239e+01 1.0551725070995944e+01 0.0000000000000000e+00 0 0 0
82 1 5.8347501152074116e+01 1.4568554379049187e+01 0.0000000000000000e+00 0 0 0
80 1 5.4327591832465217e+01 1.5711357795291423e+01 0.0000000000000000e+00 0 0 0
55 1 6.7112308368193993e+01 8.9038765711901391e+00 0.0000000000000000e+00 0 0 0
53 1 6.3181213807847371e+01 9.3191671274921397e+00 0.0000000000000000e+00 0 0 0
83 1 6.2138592682070367e+01 1.3064743227677495e+01 0.0000000000000000e+00 0 0 0
54 1 6.6102769715549570e+01 1.3211419277616649e+01 0.0000000000000000e+00 0 0 0
57 1 7.2640473038127439e+01 1.1664788773473614e+01 0.0000000000000000e+00 0 0 0
56 1 6.9931424198910690e+01 1.4731627052780855e+01 0.0000000000000000e+00 0 0 0
87 1 7.3861577560893707e+01 1.5479432581955749e+01 0.0000000000000000e+00 0 0 0
28 1 7.5429341799347810e+01 8.8232346951957012e+00 0.0000000000000000e+00 0 0 0
59 1 7.9556319933458340e+01 9.7476461868084971e+00 0.0000000000000000e+00 0 0 0
58 1 7.6757599100471438e+01 1.2610043141672982e+01 0.0000000000000000e+00 0 0 0
89 1 8.0694644637864855e+01 1.3569396535564932e+01 0.0000000000000000e+00 0 0 0
92 1 5.2013784488023500e+00 2.1121877519787304e+01 0.0000000000000000e+00 0 0 0
93 1 6.4083487706533937e+00 1.7363421509961562e+01 0.0000000000000000e+00 0 0 0
91 1 2.3756976044712399e+00 1.8267439444463843e+01 0.0000000000000000e+00 0 0 0
121 1 1.1802628620531741e+00 2.2232903975543916e+01 0.0000000000000000e+00 0 0 0
64 1 1.0319320718275845e+01 1.6237325187366437e+01 0.0000000000000000e+00 0 0 0
94 1 9.2541966891680154e+00 2.0155760853683542e+01 0.0000000000000000e+00 0 0 0
95 1 1.3165146265918775e+01 1.9254254558580843e+01 0.0000000000000000e+00 0 0 0
125 1 1.1891827856558367e+01 2.3211347081491063e+01 0.0000000000000000e+00 0 0 0
96 1 1.5905867859313618e+01 2.2239416189195317e+01 0.0000000000000000e+00 0 0 0
97 1 1.7087704049046984e+01 1.8327900725729034e+01 0.0000000000000000e+00 0 0 0
98 1 1.9857948593005130e+01 2.1260678572329134e+01 0.0000000000000000e+00 0 0 0
99 1 2.1124011294975972e+01 1.7387308026200301e+01 0.0000000000000000e+00 0 0 0
100 1 2.3960969316616794e+01 2.0117240292733452e+01 0.0000000000000000e+00 0 0 0
70 1 2.4941547723853592e+01 1.6244553739062198e+01 0.0000000000000000e+00 0 0 0
101 1 2.8080971775945173e+01 1.9285610480024445e+01 0.0000000000000000e+00 0 0 0
130 1 2.6583053755718051e+01 2.2978445036561673e+01 0.0000000000000000e+00 0 0 0
103 1 3.1960752664160832e+01 1.8102373626623653e+01 0.0000000000000000e+00 0 0 0
102 1 3.2797612518669581e+01 2.1914828707993571e+01 0.0000000000000000e+00 0 0 0
105 1 3.5958922549958153e+01 1.7843519872212990e+01 0.0000000000000000e+00 0 0 0
104 1 3.6825600485664523e+01 2.2977738685679263e+01 0.0000000000000000e+00 0 0 0
74 1 3.9591177677801795e+01 1.6141110254738717e+01 0.0000000000000000e+00 0 0 0
106 1 3.9356449567636581e+01 2.0015246673115730e+01 0.0000000000000000e+00 0 0 0
137 1 4.3393131843911348e+01 2.1038893189040373e+01 0.0000000000000000e+00 0 0 0
109 1 5.0226367795794310e+01 1.7234610850003524e+01 0.0000000000000000e+00 0 0 0
107 1 4.6362687310537581e+01 1.8098187381631774e+01 0.0000000000000000e+00 0 0 0
108 1 4.7512756947723183e+01 2.2055068727776000e+01 0.0000000000000000e+00 0 0 0
110 1 5.3391064568962719e+01 2.0055498553869096e+01 0.0000000000000000e+00 0 0 0
111 1 5.7132121632178261e+01 1.8368491589087593e+01 0.0000000000000000e+00 0 0 0
141 1 5.7948847187876936e+01 2.2287382297497643e+01 0.0000000000000000e+00 0 0 0
84 1 6.3603035191073019e+01 1.6544612631644089e+01 0.0000000000000000e+00 0 0 0
113 1 6.0809095552949344e+01 1.9415358219635888e+01 0.0000000000000000e+00 0 0 0
112 1 6.4718939358231324e+01 2.0375822358543310e+01 0.0000000000000000e+00 0 0 0
85 1 6.7408171662992970e+01 1.7616783682707730e+01 0.0000000000000000e+00 0 0 0
143 1 6.1846712475605756e+01 2.3277812996415996e+01 0.0000000000000000e+00 0 0 0
115 1 6.8655016574240406e+01 2.1416265577918757e+01 0.0000000000000000e+00 0 0 0
86 1 7.1320355011473154e+01 1.8417979771728739e+01 0.0000000000000000e+00 0 0 0
116 1 7.2465590158937445e+01 2.2220412477071484e+01 0.0000000000000000e+00 0 0 0
117 1 7.5360339827808033e+01 1.9453780724691086e+01 0.0000000000000000e+00 0 0 0
88 1 7.7971909275519053e+01 1.6467779146622497e+01 0.0000000000000000e+00 0 0 0
119 1 7.9250348873045354e+01 2.0276290130618310e+01 0.0000000000000000e+00 0 0 0
90 1 8.1911019160899230e+01 1.7344312004684472e+01 0.0000000000000000e+00 0 0 0
122 1 4.1453120646438730e+00 2.5142434617531904e+01 0.0000000000000000e+00 0 0 0
153 1 7.0125582757233245e+00 2.8098370804291811e+01 0.0000000000000000e+00 0 0 0
152 1 3.1112641009393087e+00 2.9007552325259983e+01 0.0000000000000000e+00 0 0 0
123 1 8.1003521414176198e+00 2.4138611418074944e+01 0.0000000000000000e+00 0 0 0
124 1 1.0841381689433456e+01 2.7187288589282886e+01 0.0000000000000000e+00 0 0 0
126 1 1.4734933384462076e+01 2.6192672128943553e+01 0.0000000000000000e+00 0 0 0
155 1 1.3764150297629188e+01 3.0193616943549991e+01 0.0000000000000000e+00 0 0 0
127 1 1.8811419473433141e+01 2.5182030857790135e+01 0.0000000000000000e+00 0 0 0
128 1 2.1585865020750340e+01 2.7885269724970811e+01 0.0000000000000000e+00 0 0 0
157 1 1.7790566159569533e+01 2.9191479597043468e+01 0.0000000000000000e+00 0 0 0
129 1 2.2848742565386949e+01 2.4267128754546381e+01 0.0000000000000000e+00 0 0 0
159 1 2.6143318920425610e+01 2.7048025334931513e+01 0.0000000000000000e+00 0 0 0
131 1 2.9992489311874458e+01 2.4882047418424815e+01 0.0000000000000000e+00 0 0 0
160 1 2.4259773574760125e+01 3.0618600383427506e+01 0.0000000000000000e+00 0 0 0
132 1 3.0903951274441987e+01 2.8707679658124352e+01 0.0000000000000000e+00 0 0 0
133 1 3.3843399437715746e+01 2.5659121470241995e+01 0.0000000000000000e+00 0 0 0
163 1 3.4732811680078790e+01 2.9593919156998158e+01 0.0000000000000000e+00 0 0 0
134 1 3.7759347571154585e+01 2.6939658488809361e+01 0.0000000000000000e+00 0 0 0
135 1 4.0571617613027605e+01 2.3829248491314114e+01 0.0000000000000000e+00 0 0 0
136 1 4.4435468926898686e+01 2.5018473472068422e+01 0.0000000000000000e+00 0 0 0
165 1 4.1609790690804800e+01 2.7996313938778957e+01 0.0000000000000000e+00 0 0 0
167 1 4.5629547912231097e+01 2.9193078524851426e+01 0.0000000000000000e+00 0 0 0
139 1 5.1212113721015228e+01 2.3484701515632949e+01 0.0000000000000000e+00 0 0 0
138 1 4.8289018660114955e+01 2.6103342503415902e+01 0.0000000000000000e+00 0 0 0
169 1 5.2110994512619101e+01 2.7505913424568892e+01 0.0000000000000000e+00 0 0 0
168 1 4.9448534260609115e+01 3.0367054093156060e+01 0.0000000000000000e+00 0 0 0
140 1 5.4981687863501691e+01 2.4851706444563835e+01 0.0000000000000000e+00 0 0 0
142 1 5.9132630536848559e+01 2.6194827018959064e+01 0.0000000000000000e+00 0 0 0
171 1 5.6077158421117190e+01 2.8847618809681261e+01 0.0000000000000000e+00 0 0 0
172 1 6.0231524217749822e+01 2.9955073383316385e+01 0.0000000000000000e+00 0 0 0
114 1 6.5846869497631289e+01 2.4196495560854942e+01 0.0000000000000000e+00 0 0 0
144 1 6.6989811940812999e+01 2.8118121549852052e+01 0.0000000000000000e+00 0 0 0
173 1 6.3194770445748368e+01 2.7113493311675171e+01 0.0000000000000000e+00 0 0 0
145 1 6.9797581384546945e+01 2.5217423500406579e+01 0.0000000000000000e+00 0 0 0
146 1 7.0930875884547405e+01 2.9134887727091918e+01 0.0000000000000000e+00 0 0 0
147 1 7.3692481226967857e+01 2.6268927161835066e+01 0.0000000000000000e+00 0 0 0
177 1 7.4756192000930142e+01 3.0175167668303050e+01 0.0000000000000000e+00 0 0 0
118 1 7.6394726023828639e+01 2.3349599914318372e+01 0.0000000000000000e+00 0 0 0
149 1 8.0410749294843910e+01 2.4198077512708092e+01 0.0000000000000000e+00 0 0 0
148 1 7.7646863228530293e+01 2.7185391174259806e+01 0.0000000000000000e+00 0 0 0
150 1 8.1632447064235279e+01 2.8103365864895515e+01 0.0000000000000000e+00 0 0 0
183 1 5.7192079668218874e+00 3.1964229198739826e+01 0.0000000000000000e+00 0 0 0
182 1 4.9648368494969084e+00 3.5841670080092669e+01 0.0000000000000000e+00 0 0 0
181 1 1.9333035892098813e+00 3.3091610687774278e+01 0.0000000000000000e+00 0 0 0
184 1 8.6003975446235224e+00 3.4655868132142864e+01 0.0000000000000000e+00 0 0 0
154 1 9.8352779975915254e+00 3.0974547016376988e+01 0.0000000000000000e+00 0 0 0
185 1 1.2590168561100423e+01 3.4054183504090247e+01 0.0000000000000000e+00 0 0 0
215 1 1.1003696955846284e+01 3.7719159379085966e+01 0.0000000000000000e+00 0 0 0
186 1 1.5004239919891019e+01 3.7554312289687680e+01 0.0000000000000000e+00 0 0 0
156 1 1.6555731205098262e+01 3.3240249456998910e+01 0.0000000000000000e+00 0 0 0
158 1 2.0583200027271527e+01 3.2243933505552377e+01 0.0000000000000000e+00 0 0 0
187 1 2.1895774008842245e+01 3.6620025395967573e+01 0.0000000000000000e+00 0 0 0
161 1 2.8073262067418575e+01 3.1495783670328404e+01 0.0000000000000000e+00 0 0 0
189 1 2.5222965545729892e+01 3.4303613180651666e+01 0.0000000000000000e+00 0 0 0
191 1 2.9042675244482911e+01 3.5424155560296683e+01 0.0000000000000000e+00 0 0 0
162 1 3.2054329336739073e+01 3.2521367156432845e+01 0.0000000000000000e+00 0 0 0
193 1 3.5994592681475702e+01 3.3724312878405826e+01 0.0000000000000000e+00 0 0 0
192 1 3.2967872654911332e+01 3.6414758592909699e+01 0.0000000000000000e+00 0 0 0
194 1 3.6973480605209815e+01 3.7600064182267388e+01 0.0000000000000000e+00 0 0 0
164 1 3.8857579741330440e+01 3.0844512513431297e+01 0.0000000000000000e+00 0 0 0
195 1 3.9932464527909133e+01 3.4836407505949815e+01 0.0000000000000000e+00 0 0 0
166 1 4.2838544067236121e+01 3.2068990925470473e+01 0.0000000000000000e+00 0 0 0
196 1 4.3823086479498862e+01 3.5899419552117813e+01 0.0000000000000000e+00 0 0 0
197 1 4.6621996029028509e+01 3.3125123958882511e+01 0.0000000000000000e+00 0 0 0
199 1 5.0488437938134396e+01 3.4490312638038176e+01 0.0000000000000000e+00 0 0 0
198 1 4.7586415171143450e+01 3.7093404744119326e+01 0.0000000000000000e+00 0 0 0
170 1 5.3405494383031950e+01 3.1742355979396791e+01 0.0000000000000000e+00 0 0 0
201 1 5.7391200101936768e+01 3.2687296592795278e+01 0.0000000000000000e+00 0 0 0
200 1 5.4505764180219749e+01 3.5599656361686996e+01 0.0000000000000000e+00 0 0 0
202 1 5.8439682708156781e+01 3.6687329693006262e+01 0.0000000000000000e+00 0 0 0
174 1 6.4161075614123789e+01 3.0985323459878138e+01 0.0000000000000000e+00 0 0 0
203 1 6.1287560343688504e+01 3.3820014919066665e+01 0.0000000000000000e+00 0 0 0
204 1 6.5129493365544789e+01 3.4848602011079976e+01 0.0000000000000000e+00 0 0 0
233 1 6.2311764820158004e+01 3.7748989585729412e+01 0.0000000000000000e+00 0 0 0
175 1 6.7999636886947769e+01 3.2026091044525543e+01 0.0000000000000000e+00 0 0 0
205 1 6.9033302878222116e+01 3.5961289335592689e+01 0.0000000000000000e+00 0 0 0
176 1 7.1842458300456869e+01 3.3161231123119236e+01 0.0000000000000000e+00 0 0 0
207 1 7.2893796077940209e+01 3.6977540576055041e+01 0.0000000000000000e+00 0 0 0
179 1 7.8804190613503721e+01 3.0889467702785115e+01 0.0000000000000000e+00 0 0 0
178 1 7.5910929910768260e+01 3.4067451557718393e+01 0.0000000000000000e+00 0 0 0
209 1 7.9896601606271844e+01 3.4890774398934923e+01 0.0000000000000000e+00 0 0 0
208 1 7.7150912302948953e+01 3.7957671094301375e+01 0.0000000000000000e+00 0 0 0
212 1 5.1569126789105750e+00 4.3434338178876402e+01 0.0000000000000000e+00 0 0 0
211 1 3.8775817094459883e+00 3.9665796472606196e+01 0.0000000000000000e+00 0 0 0
213 1 7.8292665747480408e+00 4.0464932634985935e+01 0.0000000000000000e+00 0 0 0
243 1 9.1047599150337426e+00 4.4324647071730332e+01 0.0000000000000000e+00 0 0 0
214 1 1.2009604074889154e+01 4.1495235913813140e+01 0.0000000000000000e+00 0 0 0
245 1 1.3116428378459092e+01 4.5369573772482802e+01 0.0000000000000000e+00 0 0 0
216 1 1.5982640383914662e+01 4.2468897807438466e+01 0.0000000000000000e+00 0 0 0
217 1 1.8819117973890830e+01 3.9296525195664600e+01 0.0000000000000000e+00 0 0 0
218 1 1.9983185513867017e+01 4.3600723954916923e+01 0.0000000000000000e+00 0 0 0
188 1 2.2940088424932053e+01 4.0716788527057858e+01 0.0000000000000000e+00 0 0 0
190 1 2.5960161782169436e+01 3.8155252589648157e+01 0.0000000000000000e+00 0 0 0
219 1 2.3865219930131971e+01 4.4818569583416682e+01 0.0000000000000000e+00 0 0 0
221 1 3.0042432832370814e+01 3.9425919724901654e+01 0.0000000000000000e+00 0 0 0
220 1 2.6974615422141824e+01 4.2030759480378947e+01 0.0000000000000000e+00 0 0 0
222 1 3.0857605933684852e+01 4.3385487150719527e+01 0.0000000000000000e+00 0 0 0
223 1 3.3850028445567659e+01 4.0482875388753158e+01 0.0000000000000000e+00 0 0 0
253 1 3.4916337050390730e+01 4.4399151945927095e+01 0.0000000000000000e+00 0 0 0
224 1 3.7780281863942498e+01 4.1692909326966337e+01 0.0000000000000000e+00 0 0 0
225 1 4.0906097230482260e+01 3.8736247801946291e+01 0.0000000000000000e+00 0 0 0
227 1 4.4786374489489830e+01 3.9853561074643459e+01 0.0000000000000000e+00 0 0 0
226 1 4.1793298738150391e+01 4.2749899517518458e+01 0.0000000000000000e+00 0 0 0
257 1 4.5652834579263370e+01 4.3908429291167828e+01 0.0000000000000000e+00 0 0 0
229 1 5.1485676508276747e+01 3.8326838505654443e+01 0.0000000000000000e+00 0 0 0
228 1 4.8528504088177030e+01 4.1210712128081262e+01 0.0000000000000000e+00 0 0 0
230 1 5.2453333215961194e+01 4.2283558835427030e+01 0.0000000000000000e+00 0 0 0
259 1 4.9473651961548448e+01 4.5216887701896290e+01 0.0000000000000000e+00 0 0 0
231 1 5.5500192247020081e+01 3.9512768554727714e+01 0.0000000000000000e+00 0 0 0
232 1 5.9380796163582751e+01 4.0645696154595193e+01 0.0000000000000000e+00 0 0 0
261 1 5.6374531785004002e+01 4.3467075129448745e+01 0.0000000000000000e+00 0 0 0
263 1 6.0325792207744804e+01 4.4574487981287845e+01 0.0000000000000000e+00 0 0 0
235 1 6.6148317859264509e+01 3.8751734320864173e+01 0.0000000000000000e+00 0 0 0
234 1 6.3382992647002638e+01 4.1699299702889803e+01 0.0000000000000000e+00 0 0 0
265 1 6.7184681477890976e+01 4.2718324450316963e+01 0.0000000000000000e+00 0 0 0
206 1 7.0223390474158791e+01 3.9958387055421859e+01 0.0000000000000000e+00 0 0 0
237 1 7.4150425125920691e+01 4.0873387617416540e+01 0.0000000000000000e+00 0 0 0
236 1 7.1195326668106603e+01 4.3837743396566644e+01 0.0000000000000000e+00 0 0 0
238 1 7.5258812494722790e+01 4.4732357768410139e+01 0.0000000000000000e+00 0 0 0
210 1 8.1073627700450160e+01 3.8775087342946335e+01 0.0000000000000000e+00 0 0 0
239 1 7.8124809061528595e+01 4.1814643166741064e+01 0.0000000000000000e+00 0 0 0
240 1 8.2043468934151122e+01 4.2748847976476632e+01 0.0000000000000000e+00 0 0 0
241 1 1.6455109065812068e+00 4.5342051750576466e+01 0.0000000000000000e+00 0 0 0
242 1 6.1001794753856089e+00 4.7273088828513039e+01 0.0000000000000000e+00 0 0 0
273 1 7.0456737247503929e+00 5.1016742663672062e+01 0.0000000000000000e+00 0 0 0
271 1 2.8195273172851572e+00 4.9416928298199430e+01 0.0000000000000000e+00 0 0 0
244 1 1.0171374557412314e+01 4.8143220286281505e+01 0.0000000000000000e+00 0 0 0
246 1 1.4006162026310470e+01 4.9363523781210652e+01 0.0000000000000000e+00 0 0 0
275 1 1.1009490427566559e+01 5.2040643859721186e+01 0.0000000000000000e+00 0 0 0
247 1 1.6987989296749468e+01 4.6363685633854814e+01 0.0000000000000000e+00 0 0 0
249 1 2.0913598074961161e+01 4.7594280318241218e+01 0.0000000000000000e+00 0 0 0
248 1 1.7951956729359750e+01 5.0468376609401574e+01 0.0000000000000000e+00 0 0 0
279 1 2.1864890674884787e+01 5.1637498706282770e+01 0.0000000000000000e+00 0 0 0
251 1 2.7878337523591423e+01 4.5969612373136144e+01 0.0000000000000000e+00 0 0 0
250 1 2.4730859786515776e+01 4.8765513820936576e+01 0.0000000000000000e+00 0 0 0
281 1 2.8721559037275419e+01 4.9956349633545720e+01 0.0000000000000000e+00 0 0 0
280 1 2.5685209815532250e+01 5.2784499743707130e+01 0.0000000000000000e+00 0 0 0
252 1 3.1777203074490586e+01 4.7397953039220170e+01 0.0000000000000000e+00 0 0 0
254 1 3.5613026576239498e+01 4.8341637827973827e+01 0.0000000000000000e+00 0 0 0
283 1 3.2769378664926890e+01 5.1300247635267503e+01 0.0000000000000000e+00 0 0 0
284 1 3.6681706805584497e+01 5.2351233064261670e+01 0.0000000000000000e+00 0 0 0
255 1 3.8647484301817599e+01 4.5512431249248429e+01 0.0000000000000000e+00 0 0 0
256 1 4.2728838893882894e+01 4.6795305722031152e+01 0.0000000000000000e+00 0 0 0
285 1 3.9534422936165164e+01 4.9379797551878390e+01 0.0000000000000000e+00 0 0 0
287 1 4.3636934759921687e+01 5.0641035181120344e+01 0.0000000000000000e+00 0 0 0
258 1 4.6763184535409010e+01 4.8144151348062792e+01 0.0000000000000000e+00 0 0 0
288 1 4.7822789017931065e+01 5.2108931948741031e+01 0.0000000000000000e+00 0 0 0
289 1 5.0769325223029604e+01 4.9208280116687504e+01 0.0000000000000000e+00 0 0 0
260 1 5.3387184314823315e+01 4.6216535037986759e+01 0.0000000000000000e+00 0 0 0
262 1 5.7480546358318044e+01 4.7447788956499004e+01 0.0000000000000000e+00 0 0 0
291 1 5.4695407047424148e+01 5.0202529978760829e+01 0.0000000000000000e+00 0 0 0
292 1 5.8574062123383392e+01 5.1299138681937215e+01 0.0000000000000000e+00 0 0 0
264 1 6.4509972927776559e+01 4.5688610082557560e+01 0.0000000000000000e+00 0 0 0
293 1 6.1587400113121859e+01 4.8374623374373932e+01 0.0000000000000000e+00 0 0 0
295 1 6.5511407240765777e+01 4.9586863999560485e+01 0.0000000000000000e+00 0 0 0
294 1 6.2606934901099848e+01 5.2325616724975092e+01 0.0000000000000000e+00 0 0 0
266 1 6.8319075152369848e+01 4.6663414978667085e+01 0.0000000000000000e+00 0 0 0
267 1 7.2362225131439516e+01 4.7735009758331543e+01 0.0000000000000000e+00 0 0 0
297 1 6.9496017922531294e+01 5.0777029243780149e+01 0.0000000000000000e+00 0 0 0
298 1 7.3492518865927650e+01 5.1457985332868596e+01 0.0000000000000000e+00 0 0 0
269 1 7.9122303986512136e+01 4.5867261443715506e+01 0.0000000000000000e+00 0 0 0
268 1 7.6251874248112841e+01 4.8651224769244500e+01 0.0000000000000000e+00 0 0 0
270 1 8.0445661023630905e+01 4.9736404549065085e+01 0.0000000000000000e+00 0 0 0
299 1 7.7472814314574862e+01 5.2543690414661967e+01 0.0000000000000000e+00 0 0 0
1200 1 4.0371567995149853e+00 5.3517890221004997e+01 0.0000000000000000e+00 1 0 0
272 1 7.9277437082009259e+00 5.4903422203992235e+01 0.0000000000000000e+00 0 0 0
301 1 4.7715231633117323e+00 5.7553572165073184e+01 0.0000000000000000e+00 0 0 0
276 1 1.4987090004873997e+01 5.3217624774639091e+01 0.0000000000000000e+00 0 0 0
303 1 8.9169698635931471e+00 5.8802011814544663e+01 0.0000000000000000e+00 0 0 0
274 1 1.2139967824004710e+01 5.6042215140553175e+01 0.0000000000000000e+00 0 0 0
304 1 1.3126951406154321e+01 5.9947924664417457e+01 0.0000000000000000e+00 0 0 0
305 1 1.6024397091666945e+01 5.7187361843129445e+01 0.0000000000000000e+00 0 0 0
277 1 1.8959858537921448e+01 5.4425856041919722e+01 0.0000000000000000e+00 0 0 0
278 1 2.2804824598618698e+01 5.5670566068214690e+01 0.0000000000000000e+00 0 0 0
307 1 1.9785558174578728e+01 5.8373743909147663e+01 0.0000000000000000e+00 0 0 0
282 1 2.9689044711393713e+01 5.3778975123141002e+01 0.0000000000000000e+00 0 0 0
309 1 2.3971833196692963e+01 5.9525574225447890e+01 0.0000000000000000e+00 0 0 0
311 1 2.6855097277711547e+01 5.6666311702826974e+01 0.0000000000000000e+00 0 0 0
312 1 3.0821265476945239e+01 5.7947422486769455e+01 0.0000000000000000e+00 0 0 0
313 1 3.3512850946309861e+01 5.5214000140705288e+01 0.0000000000000000e+00 0 0 0
314 1 3.4737877690089647e+01 5.9075325714436374e+01 0.0000000000000000e+00 0 0 0
315 1 3.7765951100925548e+01 5.6192968499083115e+01 0.0000000000000000e+00 0 0 0
286 1 4.0764297316055796e+01 5.3297883139880810e+01 0.0000000000000000e+00 0 0 0
317 1 4.4740872289923217e+01 5.4497917144379052e+01 0.0000000000000000e+00 0 0 0
316 1 4.1730265457315120e+01 5.7297375066969281e+01 0.0000000000000000e+00 0 0 0
318 1 4.5614645761940551e+01 5.8555377246534221e+01 0.0000000000000000e+00 0 0 0
345 1 3.8669845007986545e+01 6.0045932674899205e+01 0.0000000000000000e+00 0 0 0
290 1 5.1632722503985889e+01 5.3125989050889423e+01 0.0000000000000000e+00 0 0 0
319 1 4.8767133783471245e+01 5.5921163403083732e+01 0.0000000000000000e+00 0 0 0
349 1 4.9647567917615945e+01 5.9734235367774389e+01 0.0000000000000000e+00 0 0 0
320 1 5.2770158732366468e+01 5.6964889433775838e+01 0.0000000000000000e+00 0 0 0
321 1 5.5816339162961057e+01 5.4172925529633346e+01 0.0000000000000000e+00 0 0 0
323 1 5.9642835627659124e+01 5.5302016520327044e+01 0.0000000000000000e+00 0 0 0
322 1 5.6629582449017228e+01 5.8278079245266760e+01 0.0000000000000000e+00 0 0 0
324 1 6.0575646880028849e+01 5.9244312556055156e+01 0.0000000000000000e+00 0 0 0
296 1 6.6504719706230745e+01 5.3555419116210508e+01 0.0000000000000000e+00 0 0 0
325 1 6.3496280747603599e+01 5.6350203878811762e+01 0.0000000000000000e+00 0 0 0
326 1 6.7480390144370105e+01 5.7452191042686891e+01 0.0000000000000000e+00 0 0 0
327 1 7.0469843426967969e+01 5.4541944378700855e+01 0.0000000000000000e+00 0 0 0
328 1 7.1553471513379293e+01 5.8449951232839588e+01 0.0000000000000000e+00 0 0 0
329 1 7.4361266969903937e+01 5.5348282372869441e+01 0.0000000000000000e+00 0 0 0
359 1 7.5437114404607698e+01 5.9381554078154934e+01 0.0000000000000000e+00 0 0 0
300 1 8.1311633162550919e+01 5.3640819899872810e+01 0.0000000000000000e+00 0 0 0
330 1 7.8283452629282664e+01 5.6520021620692241e+01 0.0000000000000000e+00 0 0 0
1201 1 8.2181129273440476e+01 5.7437104781861933e+01 0.0000000000000000e+00 0 0 0
1230 1 1.8222726651401433e+00 6.0378247635526719e+01 0.0000000000000000e+00 1 0 0
302 1 5.8676596113758936e+00 6.1443298713772919e+01 0.0000000000000000e+00 0 0 0
332 1 7.0315411318470096e+00 6.5398538098431629e+01 0.0000000000000000e+00 0 0 0
331 1 3.0702980541557992e+00 6.4276512943264180e+01 0.0000000000000000e+00 0 0 0
333 1 1.0239084928934922e+01 6.2668392582392123e+01 0.0000000000000000e+00 0 0 0
335 1 1.3995215599842693e+01 6.3911265293720888e+01 0.0000000000000000e+00 0 0 0
334 1 1.0890169502152292e+01 6.6762805336450683e+01 0.0000000000000000e+00 0 0 0
306 1 1.6885127633868137e+01 6.1143930706026559e+01 0.0000000000000000e+00 0 0 0
308 1 2.1039121579294967e+01 6.2245217431601120e+01 0.0000000000000000e+00 0 0 0
337 1 1.7902004648355845e+01 6.5245484133429130e+01 0.0000000000000000e+00 0 0 0
338 1 2.1930658756517193e+01 6.6378332982074241e+01 0.0000000000000000e+00 0 0 0
310 1 2.7849198085248279e+01 6.0780708527435415e+01 0.0000000000000000e+00 0 0 0
339 1 2.4844407853214225e+01 6.3528406851447208e+01 0.0000000000000000e+00 0 0 0
341 1 2.8748029669863762e+01 6.4886659385135204e+01 0.0000000000000000e+00 0 0 0
340 1 2.5882443934078726e+01 6.7583660824869227e+01 0.0000000000000000e+00 0 0 0
343 1 3.1750683902743507e+01 6.1887437143598412e+01 0.0000000000000000e+00 0 0 0
342 1 3.2780567951534067e+01 6.5887360906342209e+01 0.0000000000000000e+00 0 0 0
344 1 3.5699051193369115e+01 6.2971658738501631e+01 0.0000000000000000e+00 0 0 0
373 1 3.6553247508463528e+01 6.7080572636683016e+01 0.0000000000000000e+00 0 0 0
347 1 4.2548447164696718e+01 6.1248092534351507e+01 0.0000000000000000e+00 0 0 0
346 1 3.9558335347539007e+01 6.4246892189394941e+01 0.0000000000000000e+00 0 0 0
377 1 4.3341225174702949e+01 6.5218686997704651e+01 0.0000000000000000e+00 0 0 0
348 1 4.6358784940069604e+01 6.2490747158583886e+01 0.0000000000000000e+00 0 0 0
350 1 5.0394658726532292e+01 6.3636582060422491e+01 0.0000000000000000e+00 0 0 0
378 1 4.7421700356613336e+01 6.6324463238988159e+01 0.0000000000000000e+00 0 0 0
379 1 5.1436230183626712e+01 6.7462675384906291e+01 0.0000000000000000e+00 0 0 0
351 1 5.3683555075437653e+01 6.1149375607077211e+01 0.0000000000000000e+00 0 0 0
381 1 5.4607088354649072e+01 6.4914847979964208e+01 0.0000000000000000e+00 0 0 0
353 1 5.7666981899618655e+01 6.2156278782445419e+01 0.0000000000000000e+00 0 0 0
352 1 5.8547807305528529e+01 6.5994976533206625e+01 0.0000000000000000e+00 0 0 0
355 1 6.4499541922048138e+01 6.0306597057789759e+01 0.0000000000000000e+00 0 0 0
354 1 6.1624658218006374e+01 6.3288128162699785e+01 0.0000000000000000e+00 0 0 0
385 1 6.2495836822556605e+01 6.7107780674982664e+01 0.0000000000000000e+00 0 0 0
356 1 6.5566655902904188e+01 6.4333915890159588e+01 0.0000000000000000e+00 0 0 0
387 1 6.9379296390850300e+01 6.5476714203530989e+01 0.0000000000000000e+00 0 0 0
357 1 6.8450365444593999e+01 6.1378680693579177e+01 0.0000000000000000e+00 0 0 0
358 1 7.2393184871354379e+01 6.2436114542429635e+01 0.0000000000000000e+00 0 0 0
388 1 7.3559351599039601e+01 6.6454618454009079e+01 0.0000000000000000e+00 0 0 0
360 1 7.9251899651950467e+01 6.0550616505113325e+01 0.0000000000000000e+00 0 0 0