LAMMPS data file via write_data, version 17 Nov 2016, timestep = 200000

1800 atoms
1 atom types

1.0229450985348336e+00 1.6397705490146737e+02 xlo xhi
1.0229450985348336e+00 1.6397705490146737e+02 ylo yhi
0.0000000000000000e+00 5.5000000000000000e+00 zlo zhi

Masses

1 83.798

Atoms # atomic

2 1 3.2203101082851435e+00 2.1808947936612926e+00 0.0000000000000000e+00 0 0 0
33 1 5.7316449549012622e+00 5.1382880158535382e+00 0.0000000000000000e+00 0 0 0
31 1 1.6585741931948215e+00 6.0364754952141162e+00 0.0000000000000000e+00 0 0 0
3 1 7.2833786476894034e+00 1.3602859868435349e+00 0.0000000000000000e+00 0 0 0
4 1 9.8642135032751401e+00 4.4411391479980260e+00 0.0000000000000000e+00 0 0 0
6 1 1.3888040237708479e+01 3.6949384956207636e+00 0.0000000000000000e+00 0 0 0
35 1 1.2659166942001137e+01 7.5074094180375495e+00 0.0000000000000000e+00 0 0 0
8 1 1.7752157036791719e+01 3.0876001051178243e+00 0.0000000000000000e+00 0 0 0
39 1 2.0901997723246549e+01 5.9723109354460702e+00 0.0000000000000000e+00 0 0 0
37 1 1.6529669595414539e+01 6.8818377400990878e+00 0.0000000000000000e+00 0 0 0
9 1 2.1257650213013676e+01 1.5326105099651275e+00 0.0000000000000000e+00 0 0 0
10 1 2.4610460774513626e+01 3.6823892150540138e+00 0.0000000000000000e+00 0 0 0
41 1 2.8154811013080550e+01 5.4827389389515249e+00 0.0000000000000000e+00 0 0 0
40 1 2.4695998819763965e+01 7.6789106695949476e+00 0.0000000000000000e+00 0 0 0
11 1 2.8116712829606428e+01 1.3914093269907726e+00 0.0000000000000000e+00 0 0 0
12 1 3.1549446651870859e+01 3.2108384126359799e+00 0.0000000000000000e+00 0 0 0
43 1 3.1796111738523027e+01 7.2958241524430445e+00 0.0000000000000000e+00 0 0 0
14 1 3.4979524955614522e+01 4.9826049854303296e+00 0.0000000000000000e+00 0 0 0
15 1 3.9592138131476823e+01 2.6634599088080386e+00 0.0000000000000000e+00 0 0 0
45 1 3.8486203494057456e+01 6.5613031542156248e+00 0.0000000000000000e+00 0 0 0
16 1 4.3623375056935068e+01 4.1799955103921143e+00 0.0000000000000000e+00 0 0 0
46 1 4.2101689948494887e+01 7.8948134099472815e+00 0.0000000000000000e+00 0 0 0
18 1 4.8164460560732692e+01 5.9435410370687851e+00 0.0000000000000000e+00 0 0 0
49 1 5.1056990960373014e+01 3.1496725554413350e+00 0.0000000000000000e+00 0 0 0
51 1 5.2073163548807067e+01 7.1002772699074255e+00 0.0000000000000000e+00 0 0 0
17 1 4.6970367767779315e+01 1.9321182736752149e+00 0.0000000000000000e+00 0 0 0
20 1 5.4918942909530251e+01 4.2066736631580000e+00 0.0000000000000000e+00 0 0 0
22 1 5.8986547584916309e+01 5.1945931131273735e+00 0.0000000000000000e+00 0 0 0
21 1 5.7835831270778520e+01 1.1991528630223438e+00 0.0000000000000000e+00 0 0 0
52 1 5.6125116927049788e+01 8.0725975245821395e+00 0.0000000000000000e+00 0 0 0
24 1 6.2859691456241691e+01 6.1982688544734170e+00 0.0000000000000000e+00 0 0 0
23 1 6.1857646837814904e+01 2.1112652880257876e+00 0.0000000000000000e+00 0 0 0
55 1 6.6989033321855629e+01 7.1492149431749263e+00 0.0000000000000000e+00 0 0 0
894 1 6.5916381836483566e+01 3.0940418371547356e+00 0.0000000000000000e+00 0 1 0
25 1 6.9753441230241748e+01 4.1602980942491357e+00 0.0000000000000000e+00 0 0 0
26 1 7.1032524314352017e+01 7.9513418773157305e+00 0.0000000000000000e+00 0 0 0
27 1 7.3827698711192014e+01 4.9278348086930333e+00 0.0000000000000000e+00 0 0 0
897 1 7.2788665051529861e+01 1.1933359742426051e+00 0.0000000000000000e+00 0 1 0
29 1 7.7794947661403640e+01 5.8853043405906584e+00 0.0000000000000000e+00 0 0 0
900 1 8.0694186268136221e+01 3.0873648480262545e+00 0.0000000000000000e+00 0 1 0
898 1 7.6648585312474651e+01 1.9960123097120235e+00 0.0000000000000000e+00 0 1 0
30 1 8.1748268630952353e+01 6.9757072544334191e+00 0.0000000000000000e+00 0 0 0
34 1 8.4559863328528273e+00 8.1943407271617534e+00 0.0000000000000000e+00 0 0 0
32 1 4.4187195610234431e+00 9.0825283306293318e+00 0.0000000000000000e+00 0 0 0
62 1 3.0949017954509621e+00 1.2997215868384135e+01 0.0000000000000000e+00 0 0 0
63 1 7.0488672983450646e+00 1.2044796738698283e+01 0.0000000000000000e+00 0 0 0
65 1 1.1026491292171670e+01 1.1226505741176304e+01 0.0000000000000000e+00 0 0 0
36 1 1.5029833723200625e+01 1.0743665203214123e+01 0.0000000000000000e+00 0 0 0
66 1 1.3689611940223042e+01 1.4533428617942382e+01 0.0000000000000000e+00 0 0 0
64 1 9.5249985830191140e+00 1.5302948742961826e+01 0.0000000000000000e+00 0 0 0
38 1 1.9307488285984022e+01 9.8084596823580821e+00 0.0000000000000000e+00 0 0 0
69 1 2.1685935646008932e+01 1.3236280756949810e+01 0.0000000000000000e+00 0 0 0
67 1 1.7595456095511679e+01 1.3807637888226473e+01 0.0000000000000000e+00 0 0 0
71 1 2.5261562162484573e+01 1.1754572888988610e+01 0.0000000000000000e+00 0 0 0
42 1 2.8494436745371932e+01 9.6404345899484838e+00 0.0000000000000000e+00 0 0 0
72 1 2.8923733719051405e+01 1.3979277077732872e+01 0.0000000000000000e+00 0 0 0
44 1 3.5447239786620599e+01 9.1815204144890536e+00 0.0000000000000000e+00 0 0 0
73 1 3.2280361544934067e+01 1.1459843730402103e+01 0.0000000000000000e+00 0 0 0
74 1 3.5888662598702773e+01 1.3168472151852546e+01 0.0000000000000000e+00 0 0 0
103 1 3.2761941397538479e+01 1.5644927090480321e+01 0.0000000000000000e+00 0 0 0
75 1 3.8993934406899307e+01 1.0580941447462468e+01 0.0000000000000000e+00 0 0 0
77 1 4.2679529458515120e+01 1.1885606421210603e+01 0.0000000000000000e+00 0 0 0
76 1 3.9659722755693849e+01 1.4476529202251621e+01 0.0000000000000000e+00 0 0 0
47 1 4.5760841694788546e+01 9.2203894099132935e+00 0.0000000000000000e+00 0 0 0
48 1 4.6624352313787554e+01 1.3007750133200222e+01 0.0000000000000000e+00 0 0 0
79 1 5.0628154978382234e+01 1.4101757052175572e+01 0.0000000000000000e+00 0 0 0
50 1 4.9569334228196119e+01 1.0191882070487335e+01 0.0000000000000000e+00 0 0 0
81 1 5.3445054840029300e+01 1.1092103463263401e+01 0.0000000000000000e+00 0 0 0
82 1 5.7338159318953558e+01 1.2116503596482591e+01 0.0000000000000000e+00 0 0 0
80 1 5.4608256041140116e+01 1.5161480397896128e+01 0.0000000000000000e+00 0 0 0
83 1 6.0156180792032345e+01 9.0170438582285861e+00 0.0000000000000000e+00 0 0 0
53 1 6.4173943684877685e+01 1.0046989147365815e+01 0.0000000000000000e+00 0 0 0
54 1 6.5307554355758995e+01 1.3874478324469594e+01 0.0000000000000000e+00 0 0 0
113 1 6.1267539285306739e+01 1.2865312881674868e+01 0.0000000000000000e+00 0 0 0
57 1 7.2388352059046099e+01 1.1787496694155497e+01 0.0000000000000000e+00 0 0 0
56 1 6.8331536629620032e+01 1.0945696329619212e+01 0.0000000000000000e+00 0 0 0
85 1 6.9486089187286922e+01 1.4658113330597301e+01 0.0000000000000000e+00 0 0 0
87 1 7.3512789073761454e+01 1.5647586938342920e+01 0.0000000000000000e+00 0 0 0
28 1 7.5086674499315507e+01 8.8728708354678218e+00 0.0000000000000000e+00 0 0 0
59 1 7.8956291707154065e+01 9.7283039499641344e+00 0.0000000000000000e+00 0 0 0
58 1 7.6268410732443499e+01 1.2756944252723704e+01 0.0000000000000000e+00 0 0 0
89 1 8.0213190178522126e+01 1.3576218076309040e+01 0.0000000000000000e+00 0 0 0
93 1 5.7202651545509253e+00 1.6035262028916307e+01 0.0000000000000000e+00 0 0 0
92 1 4.2885997554553317e+00 1.9941696592634930e+01 0.0000000000000000e+00 0 0 0
91 1 1.7219976333079008e+00 1.6791987851628257e+01 0.0000000000000000e+00 0 0 0
123 1 7.1173128165707817e+00 2.3037532987126898e+01 0.0000000000000000e+00 0 0 0
94 1 8.2857695676386776e+00 1.9150558639433896e+01 0.0000000000000000e+00 0 0 0
95 1 1.2235753387402502e+01 1.8385125861429081e+01 0.0000000000000000e+00 0 0 0
96 1 1.5218388359816480e+01 2.1970940517475075e+01 0.0000000000000000e+00 0 0 0
125 1 1.1164339526803781e+01 2.2245158798591024e+01 0.0000000000000000e+00 0 0 0
68 1 2.0235470086205485e+01 1.6857112094056696e+01 0.0000000000000000e+00 0 0 0
97 1 1.6155385388375720e+01 1.7631784118424228e+01 0.0000000000000000e+00 0 0 0
98 1 1.8915557100119177e+01 2.0667131456414882e+01 0.0000000000000000e+00 0 0 0
99 1 2.2919950611166595e+01 1.9854746331492926e+01 0.0000000000000000e+00 0 0 0
70 1 2.4907281068668556e+01 1.6186983605276207e+01 0.0000000000000000e+00 0 0 0
100 1 2.6627056163377166e+01 2.1045014971273325e+01 0.0000000000000000e+00 0 0 0
101 1 2.9405632112446956e+01 1.8246691682076854e+01 0.0000000000000000e+00 0 0 0
131 1 3.0430200669009277e+01 2.2384985910225325e+01 0.0000000000000000e+00 0 0 0
102 1 3.3329047805494724e+01 1.9633715594606212e+01 0.0000000000000000e+00 0 0 0
104 1 3.7478495956579337e+01 2.1179733008266279e+01 0.0000000000000000e+00 0 0 0
105 1 3.6634406922147122e+01 1.7330602169465195e+01 0.0000000000000000e+00 0 0 0
107 1 4.3797115586948699e+01 1.5846200083281495e+01 0.0000000000000000e+00 0 0 0
106 1 4.0640828674234463e+01 1.8451658479513217e+01 0.0000000000000000e+00 0 0 0
135 1 4.1382031738743024e+01 2.2346031724249002e+01 0.0000000000000000e+00 0 0 0
137 1 4.4579355502637981e+01 1.9806989252264792e+01 0.0000000000000000e+00 0 0 0
78 1 4.7629842169325663e+01 1.6991317749388422e+01 0.0000000000000000e+00 0 0 0
108 1 4.8457957691168694e+01 2.0918853292248475e+01 0.0000000000000000e+00 0 0 0
109 1 5.1548111911858584e+01 1.8053403405299314e+01 0.0000000000000000e+00 0 0 0
139 1 5.2314490639480553e+01 2.2012429382915371e+01 0.0000000000000000e+00 0 0 0
111 1 5.8450951796339879e+01 1.6028846654150058e+01 0.0000000000000000e+00 0 0 0
110 1 5.5561113957960693e+01 1.9063116168445951e+01 0.0000000000000000e+00 0 0 0
141 1 5.9462485417132875e+01 2.0095331558875635e+01 0.0000000000000000e+00 0 0 0
112 1 6.2450799529506099e+01 1.6733070473746643e+01 0.0000000000000000e+00 0 0 0
143 1 6.3673835098813413e+01 2.0580776232515976e+01 0.0000000000000000e+00 0 0 0
84 1 6.6471816780128279e+01 1.7683635044028115e+01 0.0000000000000000e+00 0 0 0
115 1 6.7736113398456297e+01 2.1477506759721535e+01 0.0000000000000000e+00 0 0 0
86 1 7.0477365583764097e+01 1.8453076189749282e+01 0.0000000000000000e+00 0 0 0
116 1 7.1751074787168179e+01 2.2265599936037965e+01 0.0000000000000000e+00 0 0 0
117 1 7.4584292456901110e+01 1.9557840755919553e+01 0.0000000000000000e+00 0 0 0
88 1 7.7427336569712182e+01 1.6632746311537151e+01 0.0000000000000000e+00 0 0 0
90 1 8.1347977974465238e+01 1.7440882153308724e+01 0.0000000000000000e+00 0 0 0
119 1 7.8674578161195839e+01 2.0537300089129296e+01 0.0000000000000000e+00 0 0 0
122 1 2.9243635469629430e+00 2.3677275296080150e+01 0.0000000000000000e+00 0 0 0
153 1 5.5504554559881072e+00 2.6817809445119131e+01 0.0000000000000000e+00 0 0 0
152 1 1.3567631104568318e+00 2.7378505547540481e+01 0.0000000000000000e+00 0 0 0
154 1 8.1289185527012897e+00 2.9863131862493887e+01 0.0000000000000000e+00 0 0 0
183 1 3.9262753119895759e+00 3.0406018497947869e+01 0.0000000000000000e+00 0 0 0
124 1 9.7388717766005968e+00 2.6077970199647634e+01 0.0000000000000000e+00 0 0 0
126 1 1.3705612080836783e+01 2.5611206165814469e+01 0.0000000000000000e+00 0 0 0
155 1 1.2297624659133639e+01 2.9536246613442390e+01 0.0000000000000000e+00 0 0 0
127 1 1.8142307913533010e+01 2.4766748012872075e+01 0.0000000000000000e+00 0 0 0
128 1 2.0548782706903541e+01 2.8052353721479317e+01 0.0000000000000000e+00 0 0 0
157 1 1.6548361413412543e+01 2.8428906352390158e+01 0.0000000000000000e+00 0 0 0
129 1 2.2195522203068222e+01 2.3977343376569475e+01 0.0000000000000000e+00 0 0 0
159 1 2.4474545232123820e+01 2.7383128366771132e+01 0.0000000000000000e+00 0 0 0
130 1 2.7489830581418456e+01 2.4988842068310742e+01 0.0000000000000000e+00 0 0 0
161 1 2.8097998364763924e+01 2.8924813827848677e+01 0.0000000000000000e+00 0 0 0
132 1 3.1248343576097604e+01 2.6398949415705687e+01 0.0000000000000000e+00 0 0 0
133 1 3.4276770222757264e+01 2.3805607558261272e+01 0.0000000000000000e+00 0 0 0
163 1 3.5044945345186655e+01 2.7763038692353678e+01 0.0000000000000000e+00 0 0 0
162 1 3.2033133032763743e+01 3.0346649121655080e+01 0.0000000000000000e+00 0 0 0
134 1 3.8130264431641386e+01 2.5159307817883384e+01 0.0000000000000000e+00 0 0 0
164 1 3.8892336149552470e+01 2.9013699835388799e+01 0.0000000000000000e+00 0 0 0
165 1 4.2030175696918469e+01 2.6551025836200644e+01 0.0000000000000000e+00 0 0 0
136 1 4.5014330893263939e+01 2.3766218244694056e+01 0.0000000000000000e+00 0 0 0
166 1 4.2706339697476878e+01 3.0471496400538939e+01 0.0000000000000000e+00 0 0 0
167 1 4.5828090317500234e+01 2.7821668659148390e+01 0.0000000000000000e+00 0 0 0
138 1 4.8947536010123812e+01 2.4861986732772923e+01 0.0000000000000000e+00 0 0 0
168 1 4.9701290987817863e+01 2.8990549811165536e+01 0.0000000000000000e+00 0 0 0
169 1 5.2824393894849827e+01 2.6126731575427289e+01 0.0000000000000000e+00 0 0 0
140 1 5.6467921828584934e+01 2.3443037363469461e+01 0.0000000000000000e+00 0 0 0
171 1 5.6578100869573646e+01 2.7522040660887598e+01 0.0000000000000000e+00 0 0 0
172 1 5.9807196447874198e+01 2.9794523798782581e+01 0.0000000000000000e+00 0 0 0
170 1 5.3462527972929550e+01 3.0273490659734556e+01 0.0000000000000000e+00 0 0 0
142 1 6.0776952375244782e+01 2.3652599752445042e+01 0.0000000000000000e+00 0 0 0
114 1 6.5107483949411574e+01 2.4345858497656941e+01 0.0000000000000000e+00 0 0 0
144 1 6.6490272981362537e+01 2.8113315387861633e+01 0.0000000000000000e+00 0 0 0
173 1 6.2589890470561095e+01 2.7168139860265246e+01 0.0000000000000000e+00 0 0 0
145 1 6.9113780186870414e+01 2.5247550135791474e+01 0.0000000000000000e+00 0 0 0
147 1 7.3077157225158871e+01 2.6190336776172163e+01 0.0000000000000000e+00 0 0 0
146 1 7.0339836972996252e+01 2.9039151424150983e+01 0.0000000000000000e+00 0 0 0
177 1 7.4399085177187970e+01 3.0118705799643578e+01 0.0000000000000000e+00 0 0 0
118 1 7.5830782534440203e+01 2.3390480644735764e+01 0.0000000000000000e+00 0 0 0
149 1 7.9857839875962000e+01 2.4433741028269257e+01 0.0000000000000000e+00 0 0 0
148 1 7.7014867200943115e+01 2.7262141130458765e+01 0.0000000000000000e+00 0 0 0
150 1 8.0876828938676752e+01 2.8385797364279235e+01 0.0000000000000000e+00 0 0 0
182 1 2.8734891051671276e+00 3.4382189114034553e+01 0.0000000000000000e+00 0 0 0
184 1 6.8637306294858531e+00 3.3555437837499085e+01 0.0000000000000000e+00 0 0 0
213 1 5.3065545593086050e+00 3.7554845309309698e+01 0.0000000000000000e+00 0 0 0
185 1 1.1177357303119754e+01 3.3167097876760650e+01 0.0000000000000000e+00 0 0 0
156 1 1.5171012996392706e+01 3.2330976831343435e+01 0.0000000000000000e+00 0 0 0
186 1 1.4029174176633544e+01 3.6204216577270735e+01 0.0000000000000000e+00 0 0 0
215 1 9.1846167192545796e+00 3.6725087909785735e+01 0.0000000000000000e+00 0 0 0
158 1 1.9141000134827962e+01 3.1695372638921015e+01 0.0000000000000000e+00 0 0 0
189 1 2.1755191209283335e+01 3.4797078585891029e+01 0.0000000000000000e+00 0 0 0
187 1 1.8414447454281593e+01 3.7114383494372319e+01 0.0000000000000000e+00 0 0 0
160 1 2.4854660365352579e+01 3.1488859225516666e+01 0.0000000000000000e+00 0 0 0
191 1 2.8889815357796962e+01 3.2818227630790325e+01 0.0000000000000000e+00 0 0 0
190 1 2.5753153351378010e+01 3.5594209662901513e+01 0.0000000000000000e+00 0 0 0
221 1 2.9638354769184012e+01 3.6840291586678724e+01 0.0000000000000000e+00 0 0 0
193 1 3.5864471284960928e+01 3.1759520416565131e+01 0.0000000000000000e+00 0 0 0
192 1 3.2638183726862309e+01 3.4323271627031446e+01 0.0000000000000000e+00 0 0 0
194 1 3.6441254557605085e+01 3.5855412199413621e+01 0.0000000000000000e+00 0 0 0
195 1 3.9545322759813317e+01 3.3165763204600594e+01 0.0000000000000000e+00 0 0 0
196 1 4.3478738059135097e+01 3.4655249070291731e+01 0.0000000000000000e+00 0 0 0
225 1 4.0409170606647677e+01 3.7297050099858780e+01 0.0000000000000000e+00 0 0 0
197 1 4.6456050863202265e+01 3.2028392886267966e+01 0.0000000000000000e+00 0 0 0
199 1 5.0327568599054956e+01 3.3229075158440565e+01 0.0000000000000000e+00 0 0 0
198 1 4.7323811664474192e+01 3.6122879286592706e+01 0.0000000000000000e+00 0 0 0
229 1 5.1061051639080596e+01 3.7431579977425500e+01 0.0000000000000000e+00 0 0 0
201 1 5.6900035136935628e+01 3.2187183561105115e+01 0.0000000000000000e+00 0 0 0
200 1 5.3935768895392656e+01 3.4716823252222092e+01 0.0000000000000000e+00 0 0 0
202 1 5.7829624037020523e+01 3.6218067616821834e+01 0.0000000000000000e+00 0 0 0
174 1 6.3664976386918468e+01 3.1030361349846082e+01 0.0000000000000000e+00 0 0 0
203 1 6.0748523604364173e+01 3.3601038985455745e+01 0.0000000000000000e+00 0 0 0
204 1 6.4820381106124145e+01 3.4824718249555879e+01 0.0000000000000000e+00 0 0 0
233 1 6.1810485123925169e+01 3.7461768923427307e+01 0.0000000000000000e+00 0 0 0
175 1 6.7644825847064894e+01 3.1910094122351577e+01 0.0000000000000000e+00 0 0 0
205 1 6.8586400593782017e+01 3.5783064687482955e+01 0.0000000000000000e+00 0 0 0
176 1 7.1527628018449249e+01 3.3017644477586991e+01 0.0000000000000000e+00 0 0 0
207 1 7.2395233763569877e+01 3.6876538412582754e+01 0.0000000000000000e+00 0 0 0
178 1 7.5415498880183236e+01 3.4172201281442888e+01 0.0000000000000000e+00 0 0 0
179 1 7.8142603147313395e+01 3.1297674647671229e+01 0.0000000000000000e+00 0 0 0
209 1 7.9226485723793488e+01 3.5223648048189162e+01 0.0000000000000000e+00 0 0 0
180 1 8.1973838056249789e+01 3.2532855516176667e+01 0.0000000000000000e+00 0 0 0
212 1 1.3922738953338478e+00 3.8105681763051415e+01 0.0000000000000000e+00 0 0 0
243 1 3.8845750619426171e+00 4.1418339316339406e+01 0.0000000000000000e+00 0 0 0
214 1 7.9111793562653814e+00 4.0721155426883016e+01 0.0000000000000000e+00 0 0 0
244 1 6.3254148548085594e+00 4.4572684680478687e+01 0.0000000000000000e+00 0 0 0
242 1 2.4074359706052677e+00 4.5180712777022748e+01 0.0000000000000000e+00 0 0 0
216 1 1.1885417130976359e+01 3.9473369279499188e+01 0.0000000000000000e+00 0 0 0
245 1 1.2942708481417270e+01 4.3311516638533348e+01 0.0000000000000000e+00 0 0 0
217 1 1.5889698684815494e+01 4.0386786291417081e+01 0.0000000000000000e+00 0 0 0
218 1 1.9684920599124361e+01 4.1480780189460091e+01 0.0000000000000000e+00 0 0 0
247 1 1.6775516878507542e+01 4.4428774128908636e+01 0.0000000000000000e+00 0 0 0
188 1 2.2833008124100072e+01 3.8639940627151752e+01 0.0000000000000000e+00 0 0 0
249 1 2.0661511516775604e+01 4.5641332715966527e+01 0.0000000000000000e+00 0 0 0
219 1 2.3561338788030188e+01 4.2758334922532534e+01 0.0000000000000000e+00 0 0 0
220 1 2.6618417874638610e+01 3.9832859479235466e+01 0.0000000000000000e+00 0 0 0
251 1 2.7354373634877696e+01 4.3927644392040399e+01 0.0000000000000000e+00 0 0 0
222 1 3.0491747144765579e+01 4.1124928132665481e+01 0.0000000000000000e+00 0 0 0
223 1 3.3440512425001039e+01 3.8508468730964125e+01 0.0000000000000000e+00 0 0 0
224 1 3.7419510844843394e+01 3.9944218843157785e+01 0.0000000000000000e+00 0 0 0
253 1 3.4400016692151553e+01 4.2678086268153493e+01 0.0000000000000000e+00 0 0 0
255 1 3.8276933569263818e+01 4.4194825781018388e+01 0.0000000000000000e+00 0 0 0
227 1 4.4313919318826066e+01 3.8631704091355495e+01 0.0000000000000000e+00 0 0 0
226 1 4.1106667919854999e+01 4.1308699382033787e+01 0.0000000000000000e+00 0 0 0
257 1 4.5157730719144105e+01 4.2558731615533830e+01 0.0000000000000000e+00 0 0 0
228 1 4.8289702684234676e+01 4.0175196907445027e+01 0.0000000000000000e+00 0 0 0
230 1 5.1925945579097259e+01 4.1586901157140154e+01 0.0000000000000000e+00 0 0 0
259 1 4.8988758882075643e+01 4.4206931368254942e+01 0.0000000000000000e+00 0 0 0
260 1 5.2837791035932888e+01 4.5527429405596514e+01 0.0000000000000000e+00 0 0 0
231 1 5.4854792594765712e+01 3.8772230524223893e+01 0.0000000000000000e+00 0 0 0
232 1 5.8865009338303970e+01 4.0057600835815691e+01 0.0000000000000000e+00 0 0 0
261 1 5.5876957847424023e+01 4.2863061233535063e+01 0.0000000000000000e+00 0 0 0
263 1 5.9645311599756205e+01 4.4044845989680326e+01 0.0000000000000000e+00 0 0 0
235 1 6.5700236990692687e+01 3.8652480296194604e+01 0.0000000000000000e+00 0 0 0
234 1 6.2663933286944399e+01 4.1408943290719463e+01 0.0000000000000000e+00 0 0 0
265 1 6.6556181003234371e+01 4.2564667363418970e+01 0.0000000000000000e+00 0 0 0
264 1 6.3667533658152657e+01 4.5291860931103969e+01 0.0000000000000000e+00 0 0 0
206 1 6.9523775341941231e+01 3.9824907674204560e+01 0.0000000000000000e+00 0 0 0
237 1 7.3321359065694949e+01 4.0945859206185396e+01 0.0000000000000000e+00 0 0 0
236 1 7.0470820712967480e+01 4.3905437389604998e+01 0.0000000000000000e+00 0 0 0
238 1 7.4351866707767897e+01 4.5029260994508647e+01 0.0000000000000000e+00 0 0 0
208 1 7.6345558792888269e+01 3.8111375819012345e+01 0.0000000000000000e+00 0 0 0
210 1 8.0156573741214828e+01 3.9289138198481041e+01 0.0000000000000000e+00 0 0 0
239 1 7.7163973013639080e+01 4.2168880524948250e+01 0.0000000000000000e+00 0 0 0
240 1 8.1039094611159953e+01 4.3341443793899565e+01 0.0000000000000000e+00 0 0 0
271 1 6.7063812754982193e+00 4.8734876265409717e+01 0.0000000000000000e+00 0 0 0
1200 1 3.8226762367900560e+00 5.1692322707905312e+01 0.0000000000000000e+00 1 0 0
272 1 7.6107798591433111e+00 5.2700879130898215e+01 0.0000000000000000e+00 0 0 0
273 1 9.9279339803605939e+00 4.5922982409643652e+01 0.0000000000000000e+00 0 0 0
246 1 1.3744913441409357e+01 4.7100215610756287e+01 0.0000000000000000e+00 0 0 0
275 1 1.0569355765705447e+01 4.9944634709888916e+01 0.0000000000000000e+00 0 0 0
276 1 1.4509061065896320e+01 5.1040680832162614e+01 0.0000000000000000e+00 0 0 0
248 1 1.7701772869704847e+01 4.8371277863143455e+01 0.0000000000000000e+00 0 0 0
279 1 2.1557491229501743e+01 4.9594301004431671e+01 0.0000000000000000e+00 0 0 0
277 1 1.8444488990908571e+01 5.2345364203718795e+01 0.0000000000000000e+00 0 0 0
250 1 2.4529717406609901e+01 4.6802519140800250e+01 0.0000000000000000e+00 0 0 0
280 1 2.5335289449820756e+01 5.0942756767933993e+01 0.0000000000000000e+00 0 0 0
281 1 2.8375947707110381e+01 4.8194828867119426e+01 0.0000000000000000e+00 0 0 0
282 1 2.9356957052669930e+01 5.2220443891668531e+01 0.0000000000000000e+00 0 0 0
252 1 3.1058552001573830e+01 4.5193225516444087e+01 0.0000000000000000e+00 0 0 0
254 1 3.5153991421262539e+01 4.6737855432836490e+01 0.0000000000000000e+00 0 0 0
283 1 3.2160994424972841e+01 4.9455988848465246e+01 0.0000000000000000e+00 0 0 0
284 1 3.5951446811629502e+01 5.0818954022277332e+01 0.0000000000000000e+00 0 0 0
256 1 4.2082891132362995e+01 4.5377804704179098e+01 0.0000000000000000e+00 0 0 0
285 1 3.9104382227347749e+01 4.8132572708858618e+01 0.0000000000000000e+00 0 0 0
287 1 4.3044335473220976e+01 4.9444748758725609e+01 0.0000000000000000e+00 0 0 0
286 1 4.0092525261537659e+01 5.2263065512905477e+01 0.0000000000000000e+00 0 0 0
258 1 4.5856917662050670e+01 4.6734423781279197e+01 0.0000000000000000e+00 0 0 0
288 1 4.6922566184411600e+01 5.0842979276552313e+01 0.0000000000000000e+00 0 0 0
289 1 4.9765096125181060e+01 4.8158807139420162e+01 0.0000000000000000e+00 0 0 0
290 1 5.0708397993678787e+01 5.2116760467755611e+01 0.0000000000000000e+00 0 0 0
262 1 5.6616782798057535e+01 4.6744350431875660e+01 0.0000000000000000e+00 0 0 0
291 1 5.3722957324875303e+01 4.9577900717751248e+01 0.0000000000000000e+00 0 0 0
292 1 5.7522360809094522e+01 5.0638984854077229e+01 0.0000000000000000e+00 0 0 0
293 1 6.0568270738925321e+01 4.8021761741972654e+01 0.0000000000000000e+00 0 0 0
295 1 6.4503665210701030e+01 4.9267818583238807e+01 0.0000000000000000e+00 0 0 0
294 1 6.1609459102529165e+01 5.1941447134586632e+01 0.0000000000000000e+00 0 0 0
266 1 6.7409205293209538e+01 4.6448538354408733e+01 0.0000000000000000e+00 0 0 0
267 1 7.1388741225655124e+01 4.7668369541316487e+01 0.0000000000000000e+00 0 0 0
297 1 6.8321387357732448e+01 5.0453753422185976e+01 0.0000000000000000e+00 0 0 0
298 1 7.2256116751755428e+01 5.1746499358294237e+01 0.0000000000000000e+00 0 0 0
268 1 7.5247897785429046e+01 4.9020619467917541e+01 0.0000000000000000e+00 0 0 0
269 1 7.8190503713484986e+01 4.6116234585998328e+01 0.0000000000000000e+00 0 0 0
270 1 7.9312964523214447e+01 5.0009351292389276e+01 0.0000000000000000e+00 0 0 0
1141 1 8.2073657140821396e+01 4.7156651069299642e+01 0.0000000000000000e+00 0 0 0
1230 1 1.7179599019422098e+00 5.8529873419021634e+01 0.0000000000000000e+00 1 0 0
301 1 4.5456275905460810e+00 5.5545364947002845e+01 0.0000000000000000e+00 0 0 0
302 1 5.5621545639071348e+00 5.9570720317968572e+01 0.0000000000000000e+00 0 0 0
303 1 8.5271518628159111e+00 5.6754292818770701e+01 0.0000000000000000e+00 0 0 0
274 1 1.1526063332506981e+01 5.3940045910667507e+01 0.0000000000000000e+00 0 0 0
304 1 1.2482756371917491e+01 5.7971706727157155e+01 0.0000000000000000e+00 0 0 0
305 1 1.5496799631208843e+01 5.5041186751169988e+01 0.0000000000000000e+00 0 0 0
306 1 1.6387455552388246e+01 5.9054412196196708e+01 0.0000000000000000e+00 0 0 0
278 1 2.2516570146494864e+01 5.3654252812314319e+01 0.0000000000000000e+00 0 0 0
307 1 1.9304149297097439e+01 5.6349986722447781e+01 0.0000000000000000e+00 0 0 0
309 1 2.3288594350801084e+01 5.7775351766373781e+01 0.0000000000000000e+00 0 0 0
311 1 2.6249792879424433e+01 5.5048994262230394e+01 0.0000000000000000e+00 0 0 0
310 1 2.7075286193701579e+01 5.9038138040926583e+01 0.0000000000000000e+00 0 0 0
312 1 3.0063300863298586e+01 5.6224893414387857e+01 0.0000000000000000e+00 0 0 0
313 1 3.3057248315398809e+01 5.3737232310185782e+01 0.0000000000000000e+00 0 0 0
314 1 3.4003107036464698e+01 5.7590684880424469e+01 0.0000000000000000e+00 0 0 0
315 1 3.6928776229903463e+01 5.4795060263667743e+01 0.0000000000000000e+00 0 0 0
345 1 3.7912614314842614e+01 5.8782838907007736e+01 0.0000000000000000e+00 0 0 0
317 1 4.3837134705027957e+01 5.3419558098525648e+01 0.0000000000000000e+00 0 0 0
316 1 4.0981391009419497e+01 5.6196006405771818e+01 0.0000000000000000e+00 0 0 0
318 1 4.4732685791820032e+01 5.7507189626707138e+01 0.0000000000000000e+00 0 0 0
347 1 4.1739214532116080e+01 6.0230225764212676e+01 0.0000000000000000e+00 0 0 0
319 1 4.7709949690108289e+01 5.4771085039878201e+01 0.0000000000000000e+00 0 0 0
320 1 4.8600120266439603e+01 5.8799796482130930e+01 0.0000000000000000e+00 0 0 0
321 1 5.1623193597276732e+01 5.6217384523600494e+01 0.0000000000000000e+00 0 0 0
351 1 5.2372748515555308e+01 6.0290324677510178e+01 0.0000000000000000e+00 0 0 0
323 1 5.4576861937054161e+01 5.3427989435135736e+01 0.0000000000000000e+00 0 0 0
322 1 5.5307824266504561e+01 5.7485770062492165e+01 0.0000000000000000e+00 0 0 0
324 1 5.8434987632775041e+01 5.4815510609990142e+01 0.0000000000000000e+00 0 0 0
355 1 5.9170302827372474e+01 5.8662989744569607e+01 0.0000000000000000e+00 0 0 0
296 1 6.5450025550388943e+01 5.3194865957096710e+01 0.0000000000000000e+00 0 0 0
325 1 6.2287596078758163e+01 5.5895523305182195e+01 0.0000000000000000e+00 0 0 0
326 1 6.6238139578836311e+01 5.7130765840904523e+01 0.0000000000000000e+00 0 0 0
356 1 6.3024424449553891e+01 5.9722943146643551e+01 0.0000000000000000e+00 0 0 0
327 1 6.9314832563280874e+01 5.4411269185863141e+01 0.0000000000000000e+00 0 0 0
328 1 7.0188065609547010e+01 5.8405506412656166e+01 0.0000000000000000e+00 0 0 0
329 1 7.3374518639667656e+01 5.5702880908115759e+01 0.0000000000000000e+00 0 0 0
359 1 7.4057255598637724e+01 5.9531020218533953e+01 0.0000000000000000e+00 0 0 0
299 1 7.6354724529387369e+01 5.2998196006860347e+01 0.0000000000000000e+00 0 0 0
300 1 8.0196649555117574e+01 5.4248122143344119e+01 0.0000000000000000e+00 0 0 0
1201 1 8.1274114818432011e+01 5.8132200926930288e+01 0.0000000000000000e+00 0 0 0
330 1 7.7429720804514659e+01 5.7142984703199829e+01 0.0000000000000000e+00 0 0 0
332 1 6.4978308503594127e+00 6.3465246090404925e+01 0.0000000000000000e+00 0 0 0
361 1 3.4160689521554692e+00 6.6261464668291211e+01 0.0000000000000000e+00 0 0 0
331 1 2.7319565415225222e+00 6.2293173743684697e+01 0.0000000000000000e+00 0 0 0
363 1 7.3265687372548305e+00 6.7276328308817867e+01 0.0000000000000000e+00 0 0 0
333 1 9.5698652511439324e+00 6.0776995793876573e+01 0.0000000000000000e+00 0 0 0
335 1 1.3444395369623219e+01 6.1954342440027084e+01 0.0000000000000000e+00 0 0 0
334 1 1.0376081208191016e+01 6.4822342720784718e+01 0.0000000000000000e+00 0 0 0
336 1 1.4138005453844841e+01 6.5945588452628115e+01 0.0000000000000000e+00 0 0 0
308 1 2.0213672096465448e+01 6.0479758421467977e+01 0.0000000000000000e+00 0 0 0
337 1 1.7224910460924498e+01 6.3096992336914163e+01 0.0000000000000000e+00 0 0 0
338 1 2.1119261550982497e+01 6.4481227946676697e+01 0.0000000000000000e+00 0 0 0
367 1 1.7983418583139880e+01 6.6972538986838387e+01 0.0000000000000000e+00 0 0 0
339 1 2.4135771313868979e+01 6.1808183226136421e+01 0.0000000000000000e+00 0 0 0
341 1 2.7965104318854767e+01 6.2893361269856598e+01 0.0000000000000000e+00 0 0 0
340 1 2.4901610307611310e+01 6.5744998663698837e+01 0.0000000000000000e+00 0 0 0
371 1 2.8746985364867498e+01 6.7059498629947029e+01 0.0000000000000000e+00 0 0 0
343 1 3.0928763756461954e+01 6.0138904044403077e+01 0.0000000000000000e+00 0 0 0
342 1 3.1903787668024897e+01 6.4204480936520326e+01 0.0000000000000000e+00 0 0 0
344 1 3.4947546756837774e+01 6.1588532393863147e+01 0.0000000000000000e+00 0 0 0
375 1 3.5594321060439952e+01 6.5598256759667152e+01 0.0000000000000000e+00 0 0 0
346 1 3.8625107854778520e+01 6.2900276301454952e+01 0.0000000000000000e+00 0 0 0
377 1 4.2518513406849536e+01 6.4138590213335704e+01 0.0000000000000000e+00 0 0 0
376 1 3.9360686197637627e+01 6.6797031090631592e+01 0.0000000000000000e+00 0 0 0
349 1 4.5590693932846897e+01 6.1535105588499853e+01 0.0000000000000000e+00 0 0 0
348 1 4.6331352089934782e+01 6.5542616496758569e+01 0.0000000000000000e+00 0 0 0
350 1 4.9450967925554089e+01 6.2880465759116042e+01 0.0000000000000000e+00 0 0 0
379 1 5.0351413137391994e+01 6.6834879197783067e+01 0.0000000000000000e+00 0 0 0
381 1 5.3294725878829240e+01 6.4168994289510096e+01 0.0000000000000000e+00 0 0 0
353 1 5.6121007347105120e+01 6.1511784907967836e+01 0.0000000000000000e+00 0 0 0
352 1 5.7329086052967170e+01 6.5399041901795798e+01 0.0000000000000000e+00 0 0 0
354 1 6.0078305156094480e+01 6.2560571991003485e+01 0.0000000000000000e+00 0 0 0
383 1 6.1168221647214075e+01 6.6504080056076006e+01 0.0000000000000000e+00 0 0 0
385 1 6.3990205987635449e+01 6.3649028680795183e+01 0.0000000000000000e+00 0 0 0
357 1 6.6970931448061265e+01 6.0983358158751763e+01 0.0000000000000000e+00 0 0 0
387 1 6.7721947951782411e+01 6.4946179306703243e+01 0.0000000000000000e+00 0 0 0
358 1 7.0929335891417551e+01 6.2523998083700647e+01 0.0000000000000000e+00 0 0 0
389 1 7.4317523783907362e+01 6.6952579308872316e+01 0.0000000000000000e+00 0 0 0