LAMMPS data file via write_data, version 17 Nov 2016, timestep = 200000

1800 atoms
1 atom types

1.1910938767562840e+00 1.6380890612324293e+02 xlo xhi
1.1910938767562840e+00 1.6380890612324293e+02 ylo yhi
0.0000000000000000e+00 5.5000000000000000e+00 zlo zhi

Masses

1 83.798

Atoms # atomic

2 1 6.0222946496245848e+00 2.6699893668273011e+00 0.0000000000000000e+00 0 0 0
31 1 4.8663993079844339e+00 6.7029309051424102e+00 0.0000000000000000e+00 0 0 0
930 1 2.0706374735175874e+00 3.8542857483211717e+00 0.0000000000000000e+00 1 0 0
33 1 8.7542697586673199e+00 5.7629576712995583e+00 0.0000000000000000e+00 0 0 0
3 1 9.7954355153070995e+00 1.4976378965548425e+00 0.0000000000000000e+00 0 0 0
4 1 1.2770168776353886e+01 4.2996359600535534e+00 0.0000000000000000e+00 0 0 0
35 1 1.5800085531292819e+01 7.0995698762431907e+00 0.0000000000000000e+00 0 0 0
34 1 1.1831474795003638e+01 8.2572269251900323e+00 0.0000000000000000e+00 0 0 0
6 1 1.6739118161021565e+01 3.2772556007591795e+00 0.0000000000000000e+00 0 0 0
8 1 2.0677490342209918e+01 2.0536234323773708e+00 0.0000000000000000e+00 0 0 0
37 1 1.9654759365554060e+01 5.9049430300092265e+00 0.0000000000000000e+00 0 0 0
39 1 2.3665983341828344e+01 4.7887916190496789e+00 0.0000000000000000e+00 0 0 0
10 1 2.7581783584957503e+01 3.5704329007876972e+00 0.0000000000000000e+00 0 0 0
41 1 3.0415683571657080e+01 6.2767468359564100e+00 0.0000000000000000e+00 0 0 0
40 1 2.6530218190304474e+01 7.5060676973318081e+00 0.0000000000000000e+00 0 0 0
12 1 3.1449122751360861e+01 2.4423191232510857e+00 0.0000000000000000e+00 0 0 0
14 1 3.4311140962044583e+01 5.2273905952605908e+00 0.0000000000000000e+00 0 0 0
45 1 3.7320124001594557e+01 8.0262117539006077e+00 0.0000000000000000e+00 0 0 0
13 1 3.5319234493348887e+01 1.4618948509260778e+00 0.0000000000000000e+00 0 0 0
15 1 3.8288797354317509e+01 4.1582885077237117e+00 0.0000000000000000e+00 0 0 0
16 1 4.2151351778983958e+01 2.9878227972217313e+00 0.0000000000000000e+00 0 0 0
46 1 4.1126204641492322e+01 6.9691177079755864e+00 0.0000000000000000e+00 0 0 0
47 1 4.5068986304125367e+01 5.7985362423589653e+00 0.0000000000000000e+00 0 0 0
18 1 4.6146332109068197e+01 1.8880618937072180e+00 0.0000000000000000e+00 0 0 0
49 1 4.9018018751537625e+01 4.7174160118620945e+00 0.0000000000000000e+00 0 0 0
50 1 5.1861666665267165e+01 7.6117999633156002e+00 0.0000000000000000e+00 0 0 0
20 1 5.2871731681527820e+01 3.7148912216119410e+00 0.0000000000000000e+00 0 0 0
51 1 5.5962261558283537e+01 6.5428131252998973e+00 0.0000000000000000e+00 0 0 0
22 1 5.9834187542355437e+01 5.5382363295155379e+00 0.0000000000000000e+00 0 0 0
21 1 5.6842417118069484e+01 2.6100710033715346e+00 0.0000000000000000e+00 0 0 0
23 1 6.0840902413999864e+01 1.5691424661235980e+00 0.0000000000000000e+00 0 0 0
24 1 6.3806075937211560e+01 4.5296605905911527e+00 0.0000000000000000e+00 0 0 0
55 1 6.4383804541140591e+01 8.4683174365064602e+00 0.0000000000000000e+00 0 0 0
25 1 6.7746636536700862e+01 5.6082388735478901e+00 0.0000000000000000e+00 0 0 0
26 1 7.1754852353197236e+01 6.8216906265367738e+00 0.0000000000000000e+00 0 0 0
27 1 7.0671570227613046e+01 2.9035240871276589e+00 0.0000000000000000e+00 0 0 0
898 1 7.4659885844209413e+01 4.0850148183989798e+00 0.0000000000000000e+00 0 1 0
28 1 7.5724135403083977e+01 7.9391686185622268e+00 0.0000000000000000e+00 0 0 0
29 1 7.8654044267880721e+01 5.1450980626709484e+00 0.0000000000000000e+00 0 0 0
900 1 8.1754556941837478e+01 2.3172810926608767e+00 0.0000000000000000e+00 0 1 0
32 1 7.7250192164312095e+00 9.4898866695587891e+00 0.0000000000000000e+00 0 0 0
62 1 6.9392110770167772e+00 1.3432125455098912e+01 0.0000000000000000e+00 0 0 0
61 1 3.9285872918402140e+00 1.0628003770026625e+01 0.0000000000000000e+00 0 0 0
990 1 2.9649792051458430e+00 1.4651351355270993e+01 0.0000000000000000e+00 1 0 0
63 1 1.0803664819890704e+01 1.2153075916058549e+01 0.0000000000000000e+00 0 0 0
65 1 1.4800929977241125e+01 1.1027781140131838e+01 0.0000000000000000e+00 0 0 0
66 1 1.3727309349926683e+01 1.4957588509369234e+01 0.0000000000000000e+00 0 0 0
38 1 2.2590652639674751e+01 8.6285237422020948e+00 0.0000000000000000e+00 0 0 0
36 1 1.8740561824830067e+01 9.8734864406230720e+00 0.0000000000000000e+00 0 0 0
67 1 1.7556155556614190e+01 1.3802444733561618e+01 0.0000000000000000e+00 0 0 0
69 1 2.1649374726493566e+01 1.2516979247461009e+01 0.0000000000000000e+00 0 0 0
71 1 2.5532854345279940e+01 1.1487631278844546e+01 0.0000000000000000e+00 0 0 0
42 1 2.9416070263350786e+01 1.0289788776710397e+01 0.0000000000000000e+00 0 0 0
72 1 2.8421593434331044e+01 1.4271298097651432e+01 0.0000000000000000e+00 0 0 0
70 1 2.4587689644262074e+01 1.5416839242126482e+01 0.0000000000000000e+00 0 0 0
43 1 3.3295140107224562e+01 9.2627508089833963e+00 0.0000000000000000e+00 0 0 0
44 1 3.6340217916584322e+01 1.2003857893800836e+01 0.0000000000000000e+00 0 0 0
73 1 3.2474246121995790e+01 1.3230000613677916e+01 0.0000000000000000e+00 0 0 0
74 1 3.9373354365445969e+01 1.5010491147095079e+01 0.0000000000000000e+00 0 0 0
75 1 4.0203954301577959e+01 1.0994422165897893e+01 0.0000000000000000e+00 0 0 0
77 1 4.4095873059667007e+01 9.9032600428229305e+00 0.0000000000000000e+00 0 0 0
76 1 4.3192027055684370e+01 1.3822958235388715e+01 0.0000000000000000e+00 0 0 0
48 1 4.8071089572856103e+01 8.7587362187495597e+00 0.0000000000000000e+00 0 0 0
78 1 4.6958616868710600e+01 1.2709555019055616e+01 0.0000000000000000e+00 0 0 0
79 1 5.0810635084108924e+01 1.1605273855066820e+01 0.0000000000000000e+00 0 0 0
109 1 4.9976199754108180e+01 1.5608248746681426e+01 0.0000000000000000e+00 0 0 0
80 1 5.3739880392669342e+01 1.4154341440473832e+01 0.0000000000000000e+00 0 0 0
81 1 5.4716310988168921e+01 1.0377456172963578e+01 0.0000000000000000e+00 0 0 0
52 1 5.8673306920341517e+01 9.5795942271586050e+00 0.0000000000000000e+00 0 0 0
82 1 5.8164082355403167e+01 1.3771699315872569e+01 0.0000000000000000e+00 0 0 0
53 1 6.1847718710591003e+01 1.1791869633266257e+01 0.0000000000000000e+00 0 0 0
83 1 6.3052575743361977e+01 1.5598456661512014e+01 0.0000000000000000e+00 0 0 0
54 1 6.5970863896002413e+01 1.2390576953823421e+01 0.0000000000000000e+00 0 0 0
57 1 7.2675428494195046e+01 1.0813448153175072e+01 0.0000000000000000e+00 0 0 0
56 1 6.8676858951105672e+01 9.5285913497519452e+00 0.0000000000000000e+00 0 0 0
85 1 6.9873610738512951e+01 1.3713299649064798e+01 0.0000000000000000e+00 0 0 0
87 1 7.3834699676723332e+01 1.4782016244276244e+01 0.0000000000000000e+00 0 0 0
59 1 7.9855761077206893e+01 8.9792463797864404e+00 0.0000000000000000e+00 0 0 0
58 1 7.6907262977881331e+01 1.1852922822849303e+01 0.0000000000000000e+00 0 0 0
88 1 7.7812143001055716e+01 1.5652148174233510e+01 0.0000000000000000e+00 0 0 0
89 1 8.0774533354570806e+01 1.2827222370396326e+01 0.0000000000000000e+00 0 0 0
92 1 5.0182151979233955e+00 2.1257390814944955e+01 0.0000000000000000e+00 0 0 0
93 1 5.8657608905218819e+00 1.7353842803984037e+01 0.0000000000000000e+00 0 0 0
91 1 2.1840228831303250e+00 1.8640905516562785e+01 0.0000000000000000e+00 0 0 0
121 1 1.2436120005980760e+00 2.2458893366771317e+01 0.0000000000000000e+00 0 0 0
64 1 9.8387743528982998e+00 1.6084574191759856e+01 0.0000000000000000e+00 0 0 0
94 1 8.9701674149730231e+00 2.0075569164702081e+01 0.0000000000000000e+00 0 0 0
95 1 1.2826412777220330e+01 1.8926069721415587e+01 0.0000000000000000e+00 0 0 0
125 1 1.1979138407384681e+01 2.2791774349315602e+01 0.0000000000000000e+00 0 0 0
96 1 1.5927970551605064e+01 2.1815513662259296e+01 0.0000000000000000e+00 0 0 0
97 1 1.6679079016450636e+01 1.7803716545300169e+01 0.0000000000000000e+00 0 0 0
68 1 2.0642372267005229e+01 1.6369427239884498e+01 0.0000000000000000e+00 0 0 0
98 1 1.9822111315017281e+01 2.0375401277916264e+01 0.0000000000000000e+00 0 0 0
129 1 2.2649162315952896e+01 2.3218583442594699e+01 0.0000000000000000e+00 0 0 0
99 1 2.3655490548800199e+01 1.9333617365988410e+01 0.0000000000000000e+00 0 0 0
100 1 2.7577804237948634e+01 1.8198785726201649e+01 0.0000000000000000e+00 0 0 0
130 1 2.6576392925035702e+01 2.2028162048145649e+01 0.0000000000000000e+00 0 0 0
131 1 3.0621199590319463e+01 2.0993864061325191e+01 0.0000000000000000e+00 0 0 0
103 1 3.5529637031086239e+01 1.6067598335374086e+01 0.0000000000000000e+00 0 0 0
101 1 3.1516071173284992e+01 1.7057895712704486e+01 0.0000000000000000e+00 0 0 0
102 1 3.4490088391633435e+01 2.0076082748862468e+01 0.0000000000000000e+00 0 0 0
104 1 3.7590446582295051e+01 2.3034331114195979e+01 0.0000000000000000e+00 0 0 0
105 1 3.8442283991281165e+01 1.8859761969487536e+01 0.0000000000000000e+00 0 0 0
106 1 4.2239155670106840e+01 1.7828688047421910e+01 0.0000000000000000e+00 0 0 0
135 1 4.1651373154038907e+01 2.1728093897936436e+01 0.0000000000000000e+00 0 0 0
137 1 4.5825927571512864e+01 2.2252318864279900e+01 0.0000000000000000e+00 0 0 0
107 1 4.6081248040295776e+01 1.6636245226365808e+01 0.0000000000000000e+00 0 0 0
108 1 4.8753568800414904e+01 1.9559194012437686e+01 0.0000000000000000e+00 0 0 0
139 1 5.0058398198059727e+01 2.3422919582146225e+01 0.0000000000000000e+00 0 0 0
110 1 5.2933565953324461e+01 2.0258315553034219e+01 0.0000000000000000e+00 0 0 0
111 1 5.6061465554703339e+01 1.7368817392358572e+01 0.0000000000000000e+00 0 0 0
141 1 5.6966880633372909e+01 2.1425617120604478e+01 0.0000000000000000e+00 0 0 0
113 1 5.9925760188883444e+01 1.8197690006119814e+01 0.0000000000000000e+00 0 0 0
84 1 6.6831265141911530e+01 1.6527973738073243e+01 0.0000000000000000e+00 0 0 0
112 1 6.3877847093563219e+01 1.9539508450912365e+01 0.0000000000000000e+00 0 0 0
143 1 6.0975143192659452e+01 2.2245217055261151e+01 0.0000000000000000e+00 0 0 0
114 1 6.4931220923344256e+01 2.3534126983731458e+01 0.0000000000000000e+00 0 0 0
115 1 6.7672076572840538e+01 2.0544747372015333e+01 0.0000000000000000e+00 0 0 0
86 1 7.0739214944998523e+01 1.7560757605910574e+01 0.0000000000000000e+00 0 0 0
116 1 7.1744485401920102e+01 2.1466098706062464e+01 0.0000000000000000e+00 0 0 0
117 1 7.4742801539519263e+01 1.8546073813500300e+01 0.0000000000000000e+00 0 0 0
118 1 7.5655432541506428e+01 2.2365994542496345e+01 0.0000000000000000e+00 0 0 0
90 1 8.1694755520827641e+01 1.6636441696484457e+01 0.0000000000000000e+00 0 0 0
119 1 7.8738734591534680e+01 1.9611174508432281e+01 0.0000000000000000e+00 0 0 0
123 1 8.1601303482203527e+00 2.4118633104211487e+01 0.0000000000000000e+00 0 0 0
122 1 4.2333865716345525e+00 2.5143207362639689e+01 0.0000000000000000e+00 0 0 0
153 1 7.1951572288753525e+00 2.7981449982244868e+01 0.0000000000000000e+00 0 0 0
152 1 3.2619276890763200e+00 2.9257083548309627e+01 0.0000000000000000e+00 0 0 0
124 1 1.1128547274890288e+01 2.6841729988543534e+01 0.0000000000000000e+00 0 0 0
126 1 1.5091252110122431e+01 2.5617966452682808e+01 0.0000000000000000e+00 0 0 0
155 1 1.4109105220653701e+01 2.9587366647688146e+01 0.0000000000000000e+00 0 0 0
154 1 1.0235413143034535e+01 3.0982341944075404e+01 0.0000000000000000e+00 0 0 0
127 1 1.8955345133483320e+01 2.4439607932791400e+01 0.0000000000000000e+00 0 0 0
128 1 2.1876901041377327e+01 2.7164532675327123e+01 0.0000000000000000e+00 0 0 0
157 1 1.8027379351588166e+01 2.8348211238758459e+01 0.0000000000000000e+00 0 0 0
159 1 2.5726429757016252e+01 2.5936141656393097e+01 0.0000000000000000e+00 0 0 0
161 1 2.8608642733624915e+01 2.8741700017242259e+01 0.0000000000000000e+00 0 0 0
132 1 2.9563882396017188e+01 2.4781484732320255e+01 0.0000000000000000e+00 0 0 0
160 1 2.4820309169088873e+01 2.9995117167842889e+01 0.0000000000000000e+00 0 0 0
133 1 3.3630904490000447e+01 2.3902313936780871e+01 0.0000000000000000e+00 0 0 0
163 1 3.2522149177958966e+01 2.7613532300924902e+01 0.0000000000000000e+00 0 0 0
134 1 3.6538628423005257e+01 2.6991739297625077e+01 0.0000000000000000e+00 0 0 0
136 1 4.3187201042430559e+01 2.5397645957481075e+01 0.0000000000000000e+00 0 0 0
165 1 4.0312316684013631e+01 2.8215161880416588e+01 0.0000000000000000e+00 0 0 0
167 1 4.4289747621589910e+01 2.9156291506636286e+01 0.0000000000000000e+00 0 0 0
138 1 4.7096546121196802e+01 2.6230612524416717e+01 0.0000000000000000e+00 0 0 0
169 1 5.0864081701391569e+01 2.7364862662575522e+01 0.0000000000000000e+00 0 0 0
168 1 4.8110840308590269e+01 3.0383940897677729e+01 0.0000000000000000e+00 0 0 0
140 1 5.4078990872628623e+01 2.4382483564220902e+01 0.0000000000000000e+00 0 0 0
142 1 5.8109147449690226e+01 2.5220819253690323e+01 0.0000000000000000e+00 0 0 0
171 1 5.4917827844227773e+01 2.8317639499156922e+01 0.0000000000000000e+00 0 0 0
172 1 5.9037561564353176e+01 2.9062692973212393e+01 0.0000000000000000e+00 0 0 0
144 1 6.6084953647287804e+01 2.7380287502933111e+01 0.0000000000000000e+00 0 0 0
173 1 6.2051478329114197e+01 2.6355825443331675e+01 0.0000000000000000e+00 0 0 0
174 1 6.3101489733834725e+01 3.0325626237579922e+01 0.0000000000000000e+00 0 0 0
145 1 6.8850543709951594e+01 2.4443599459752747e+01 0.0000000000000000e+00 0 0 0
146 1 7.0045319962472263e+01 2.8294090566386956e+01 0.0000000000000000e+00 0 0 0
147 1 7.2874137921649279e+01 2.5263203124264212e+01 0.0000000000000000e+00 0 0 0
177 1 7.4001243068746192e+01 2.9237640679048546e+01 0.0000000000000000e+00 0 0 0
149 1 7.9738648957563811e+01 2.3395583003453716e+01 0.0000000000000000e+00 0 0 0
148 1 7.6855111955396552e+01 2.6333963002933725e+01 0.0000000000000000e+00 0 0 0
150 1 8.0828957722648752e+01 2.7146324488525593e+01 0.0000000000000000e+00 0 0 0
179 1 7.7939520275375045e+01 3.0015096658038534e+01 0.0000000000000000e+00 0 0 0
183 1 6.3007231177931864e+00 3.1850032930391542e+01 0.0000000000000000e+00 0 0 0
182 1 5.5719300446756774e+00 3.6084763952316287e+01 0.0000000000000000e+00 0 0 0
181 1 2.6625142184422641e+00 3.3205455825345126e+01 0.0000000000000000e+00 0 0 0
184 1 9.3532852255377268e+00 3.4735095862345695e+01 0.0000000000000000e+00 0 0 0
185 1 1.3206073631077517e+01 3.3514866165622685e+01 0.0000000000000000e+00 0 0 0
215 1 1.2468334296221066e+01 3.7532265658574588e+01 0.0000000000000000e+00 0 0 0
186 1 1.6064155188036526e+01 3.6320480800500938e+01 0.0000000000000000e+00 0 0 0
156 1 1.7035208281804781e+01 3.2235262578888197e+01 0.0000000000000000e+00 0 0 0
158 1 2.1055767254840219e+01 3.1090964512730316e+01 0.0000000000000000e+00 0 0 0
187 1 1.9813271185569306e+01 3.4995511144230377e+01 0.0000000000000000e+00 0 0 0
189 1 2.2896410989543099e+01 3.7661758310929109e+01 0.0000000000000000e+00 0 0 0
191 1 2.3715560607763987e+01 3.3811590213115863e+01 0.0000000000000000e+00 0 0 0
221 1 2.7911166814246513e+01 3.2778273819376267e+01 0.0000000000000000e+00 0 0 0
190 1 2.6759999778200886e+01 3.6468179438936069e+01 0.0000000000000000e+00 0 0 0
192 1 3.0715323643672910e+01 3.5874139578418237e+01 0.0000000000000000e+00 0 0 0
164 1 3.7143368558670147e+01 3.1029355270175106e+01 0.0000000000000000e+00 0 0 0
162 1 3.1613431314216633e+01 3.1442418580067901e+01 0.0000000000000000e+00 0 0 0
193 1 3.4521571954415954e+01 3.4108933782940703e+01 0.0000000000000000e+00 0 0 0
166 1 4.1401155438313715e+01 3.2213911473477658e+01 0.0000000000000000e+00 0 0 0
195 1 3.8353824870142589e+01 3.5040920770350439e+01 0.0000000000000000e+00 0 0 0
196 1 4.2258605810690732e+01 3.6031340730288946e+01 0.0000000000000000e+00 0 0 0
197 1 4.5243192743384057e+01 3.3154087445027585e+01 0.0000000000000000e+00 0 0 0
170 1 5.2129761507336795e+01 3.1234806827560270e+01 0.0000000000000000e+00 0 0 0
199 1 4.9211061570330102e+01 3.4251701340783939e+01 0.0000000000000000e+00 0 0 0
198 1 4.6408309741833108e+01 3.7024688232267259e+01 0.0000000000000000e+00 0 0 0
201 1 5.6198337164497417e+01 3.2070079548350002e+01 0.0000000000000000e+00 0 0 0
200 1 5.3195960917635311e+01 3.5171439553630030e+01 0.0000000000000000e+00 0 0 0
202 1 5.7256581016873291e+01 3.5937699026566605e+01 0.0000000000000000e+00 0 0 0
203 1 6.0088516767663599e+01 3.3261338832516266e+01 0.0000000000000000e+00 0 0 0
175 1 6.7164022407126097e+01 3.1274449114684906e+01 0.0000000000000000e+00 0 0 0
233 1 6.1477425510490221e+01 3.7175455625753344e+01 0.0000000000000000e+00 0 0 0
204 1 6.4043563899898061e+01 3.4141387264302836e+01 0.0000000000000000e+00 0 0 0
235 1 6.5402925260995318e+01 3.7990590778895374e+01 0.0000000000000000e+00 0 0 0
205 1 6.8140436694373946e+01 3.4970312763096366e+01 0.0000000000000000e+00 0 0 0
176 1 7.1165596702266967e+01 3.2181926033053657e+01 0.0000000000000000e+00 0 0 0
207 1 7.2244290740445635e+01 3.5962258760053416e+01 0.0000000000000000e+00 0 0 0
178 1 7.5119007577159422e+01 3.3139615017543719e+01 0.0000000000000000e+00 0 0 0
208 1 7.6271559709321096e+01 3.6970744730476717e+01 0.0000000000000000e+00 0 0 0
180 1 8.1944772728378553e+01 3.1172910938008428e+01 0.0000000000000000e+00 0 0 0
209 1 7.9083094747231627e+01 3.3943269742399693e+01 0.0000000000000000e+00 0 0 0
212 1 4.6302039270074342e+00 4.0270205164071413e+01 0.0000000000000000e+00 0 0 0
243 1 7.7874830320069091e+00 4.3278969438491742e+01 0.0000000000000000e+00 0 0 0
213 1 8.4481814006794718e+00 3.8747216212702170e+01 0.0000000000000000e+00 0 0 0
216 1 1.5432836082877673e+01 4.0833148998235536e+01 0.0000000000000000e+00 0 0 0
214 1 1.1422320795467130e+01 4.1320903408157385e+01 0.0000000000000000e+00 0 0 0
245 1 1.1603357204777058e+01 4.5113082872985380e+01 0.0000000000000000e+00 0 0 0
188 1 2.1900575651188984e+01 4.1397657042939528e+01 0.0000000000000000e+00 0 0 0
217 1 1.9054694119709211e+01 3.8956688401693199e+01 0.0000000000000000e+00 0 0 0
218 1 1.8538419072282768e+01 4.3559350714483543e+01 0.0000000000000000e+00 0 0 0
249 1 2.2504716765707826e+01 4.5352814867795118e+01 0.0000000000000000e+00 0 0 0
219 1 2.5807990552922597e+01 4.2090129166984653e+01 0.0000000000000000e+00 0 0 0
220 1 2.9248555686152365e+01 3.9542534078873480e+01 0.0000000000000000e+00 0 0 0
222 1 2.9517357838438532e+01 4.3587247789599672e+01 0.0000000000000000e+00 0 0 0
194 1 3.5676520396147822e+01 3.7946451116228992e+01 0.0000000000000000e+00 0 0 0
223 1 3.2946521491735936e+01 4.0983149411469348e+01 0.0000000000000000e+00 0 0 0
253 1 3.3546141454225555e+01 4.4819005870192434e+01 0.0000000000000000e+00 0 0 0
224 1 3.6798403239611275e+01 4.1993981656819159e+01 0.0000000000000000e+00 0 0 0
225 1 3.9408722651489782e+01 3.9063791701481030e+01 0.0000000000000000e+00 0 0 0
227 1 4.3448931263341173e+01 3.9905759570519244e+01 0.0000000000000000e+00 0 0 0
226 1 4.0668810455430744e+01 4.3012335591978911e+01 0.0000000000000000e+00 0 0 0
257 1 4.4650434672401140e+01 4.4123379203176576e+01 0.0000000000000000e+00 0 0 0
229 1 5.0425638753074963e+01 3.8157823299280807e+01 0.0000000000000000e+00 0 0 0
228 1 4.7196008546125420e+01 4.1012123028843469e+01 0.0000000000000000e+00 0 0 0
230 1 5.1396558179973084e+01 4.1943323406757727e+01 0.0000000000000000e+00 0 0 0
259 1 4.8566441175168059e+01 4.4918720730579096e+01 0.0000000000000000e+00 0 0 0
231 1 5.4580740971181307e+01 3.8986727598272914e+01 0.0000000000000000e+00 0 0 0
232 1 5.8538409059952109e+01 3.9971387743286300e+01 0.0000000000000000e+00 0 0 0
261 1 5.5459328181837940e+01 4.2864061551652583e+01 0.0000000000000000e+00 0 0 0
263 1 5.9624709339687676e+01 4.3815599690001278e+01 0.0000000000000000e+00 0 0 0
234 1 6.2565396832472885e+01 4.0916222688248986e+01 0.0000000000000000e+00 0 0 0
265 1 6.6534149477742957e+01 4.1836757662078007e+01 0.0000000000000000e+00 0 0 0
264 1 6.3465723452064353e+01 4.4831393866351640e+01 0.0000000000000000e+00 0 0 0
206 1 6.9403900979928622e+01 3.8843723779457072e+01 0.0000000000000000e+00 0 0 0
237 1 7.3313360572264386e+01 3.9815773395692389e+01 0.0000000000000000e+00 0 0 0
236 1 7.0420395994440895e+01 4.2934568595592026e+01 0.0000000000000000e+00 0 0 0
238 1 7.4479302014437337e+01 4.3691599563008801e+01 0.0000000000000000e+00 0 0 0
210 1 8.0182150867545204e+01 3.8025713528658059e+01 0.0000000000000000e+00 0 0 0
239 1 7.7367329367539099e+01 4.0910540702129886e+01 0.0000000000000000e+00 0 0 0
240 1 8.1314169379105635e+01 4.1925693850113198e+01 0.0000000000000000e+00 0 0 0
269 1 7.8400757165460220e+01 4.4740091259130857e+01 0.0000000000000000e+00 0 0 0
1170 1 1.3851015110850098e+00 4.8739145784286336e+01 0.0000000000000000e+00 1 0 0
241 1 4.5261850567027953e+00 4.5928684857755123e+01 0.0000000000000000e+00 0 0 0
242 1 5.2843429534642379e+00 5.0091290165752426e+01 0.0000000000000000e+00 0 0 0
244 1 8.4115879114034442e+00 4.7476557606791715e+01 0.0000000000000000e+00 0 0 0
271 1 2.2012072243047895e+00 5.2622132961352754e+01 0.0000000000000000e+00 0 0 0
273 1 9.0859965538168090e+00 5.1466275228954977e+01 0.0000000000000000e+00 0 0 0
275 1 1.2335258399737862e+01 4.8969978524468267e+01 0.0000000000000000e+00 0 0 0
247 1 1.5402880377935857e+01 4.6033079563413942e+01 0.0000000000000000e+00 0 0 0
276 1 1.3059795242287219e+01 5.2812856373302708e+01 0.0000000000000000e+00 0 0 0
246 1 1.6240809967086584e+01 5.0086184784859199e+01 0.0000000000000000e+00 0 0 0
248 1 1.9370790264582052e+01 4.7694745668689613e+01 0.0000000000000000e+00 0 0 0
279 1 2.0012302239285269e+01 5.1639289192007048e+01 0.0000000000000000e+00 0 0 0
250 1 2.3346717609006259e+01 4.9133422083780601e+01 0.0000000000000000e+00 0 0 0
251 1 2.6421325071718986e+01 4.6247494059200633e+01 0.0000000000000000e+00 0 0 0
281 1 2.7224049037783477e+01 5.0123268656638302e+01 0.0000000000000000e+00 0 0 0
252 1 3.0352959291094031e+01 4.7485973120421626e+01 0.0000000000000000e+00 0 0 0
254 1 3.4316072061123208e+01 4.8906536492898049e+01 0.0000000000000000e+00 0 0 0
283 1 3.1105134082929300e+01 5.1530249027659984e+01 0.0000000000000000e+00 0 0 0
255 1 3.7621636960464699e+01 4.5857134965011163e+01 0.0000000000000000e+00 0 0 0
284 1 3.5313089039991461e+01 5.2759537734361963e+01 0.0000000000000000e+00 0 0 0
256 1 4.1677001348220337e+01 4.6966869008891550e+01 0.0000000000000000e+00 0 0 0
285 1 3.8528363436232183e+01 4.9857212125424518e+01 0.0000000000000000e+00 0 0 0
287 1 4.2461405967667623e+01 5.0990621089112039e+01 0.0000000000000000e+00 0 0 0
258 1 4.5483978049409409e+01 4.8257781467299246e+01 0.0000000000000000e+00 0 0 0
288 1 4.6472923337978287e+01 5.2078200556848572e+01 0.0000000000000000e+00 0 0 0
289 1 4.9671172679377968e+01 4.8812152791344381e+01 0.0000000000000000e+00 0 0 0
260 1 5.2522202975265181e+01 4.5848452383879625e+01 0.0000000000000000e+00 0 0 0
290 1 5.0613255297811683e+01 5.2842012683209177e+01 0.0000000000000000e+00 0 0 0
262 1 5.6392141446632529e+01 4.6757814534134667e+01 0.0000000000000000e+00 0 0 0
291 1 5.3689485711258961e+01 4.9814963592214113e+01 0.0000000000000000e+00 0 0 0
292 1 5.7834298493810159e+01 5.0511263291181855e+01 0.0000000000000000e+00 0 0 0
266 1 6.7490472951611480e+01 4.5726770337508761e+01 0.0000000000000000e+00 0 0 0
293 1 6.0577464085486135e+01 4.7645450348718889e+01 0.0000000000000000e+00 0 0 0
295 1 6.4696626344337091e+01 4.8621614696712392e+01 0.0000000000000000e+00 0 0 0
294 1 6.1859856704767402e+01 5.1420331875153892e+01 0.0000000000000000e+00 0 0 0
296 1 6.5940965478231504e+01 5.2580436825762149e+01 0.0000000000000000e+00 0 0 0
267 1 7.1455807022050493e+01 4.6681862180041328e+01 0.0000000000000000e+00 0 0 0
297 1 6.8676839461398529e+01 4.9638289629693993e+01 0.0000000000000000e+00 0 0 0
298 1 7.2658683456714058e+01 5.0568975385917732e+01 0.0000000000000000e+00 0 0 0
268 1 7.5429693269233255e+01 4.7592258850068212e+01 0.0000000000000000e+00 0 0 0
270 1 7.9410723879264907e+01 4.8519892269219973e+01 0.0000000000000000e+00 0 0 0
299 1 7.6580940961878554e+01 5.1617055010500067e+01 0.0000000000000000e+00 0 0 0
300 1 8.0474049058615947e+01 5.2509767094882179e+01 0.0000000000000000e+00 0 0 0
1141 1 8.2344323518125762e+01 4.5847530286671066e+01 0.0000000000000000e+00 0 0 0
272 1 6.0101804726355539e+00 5.4086149166159011e+01 0.0000000000000000e+00 0 0 0
301 1 2.8711681134024980e+00 5.6754305604461472e+01 0.0000000000000000e+00 0 0 0
303 1 6.8373823003282581e+00 5.8053591165557314e+01 0.0000000000000000e+00 0 0 0
274 1 1.0069322373791021e+01 5.5434013682438788e+01 0.0000000000000000e+00 0 0 0
305 1 1.3791720989399181e+01 5.6801065387227140e+01 0.0000000000000000e+00 0 0 0
304 1 1.0695982780742188e+01 5.9364970810901049e+01 0.0000000000000000e+00 0 0 0
277 1 1.6859002936006920e+01 5.4161654042806497e+01 0.0000000000000000e+00 0 0 0
278 1 2.0863180894118354e+01 5.5587801556873330e+01 0.0000000000000000e+00 0 0 0
307 1 1.7752670683100572e+01 5.8100516373248190e+01 0.0000000000000000e+00 0 0 0
309 1 2.1553107280074997e+01 5.9535681056828018e+01 0.0000000000000000e+00 0 0 0
280 1 2.4113775664362016e+01 5.3028523786408087e+01 0.0000000000000000e+00 0 0 0
282 1 2.8005867750674707e+01 5.4127453328508658e+01 0.0000000000000000e+00 0 0 0
311 1 2.4734443381503336e+01 5.6953025132867801e+01 0.0000000000000000e+00 0 0 0
312 1 2.8801604299688261e+01 5.8032831091054611e+01 0.0000000000000000e+00 0 0 0
313 1 3.1884070881165837e+01 5.5372116903684031e+01 0.0000000000000000e+00 0 0 0
314 1 3.2508774361133689e+01 5.9485881613076707e+01 0.0000000000000000e+00 0 0 0
315 1 3.5719355934759669e+01 5.6932638724039755e+01 0.0000000000000000e+00 0 0 0
286 1 3.9226946064977199e+01 5.4019461114937222e+01 0.0000000000000000e+00 0 0 0
317 1 4.3410225981153857e+01 5.5139031824539096e+01 0.0000000000000000e+00 0 0 0
316 1 3.9573440908880542e+01 5.8039434291252611e+01 0.0000000000000000e+00 0 0 0
318 1 4.3229431466331000e+01 5.9260156218265095e+01 0.0000000000000000e+00 0 0 0
319 1 4.7801735574832833e+01 5.5945221950260837e+01 0.0000000000000000e+00 0 0 0
320 1 5.1912675072977500e+01 5.6603733932050979e+01 0.0000000000000000e+00 0 0 0
321 1 5.4926651833428046e+01 5.3662334997371069e+01 0.0000000000000000e+00 0 0 0
322 1 5.6570140311729453e+01 5.7236213551429046e+01 0.0000000000000000e+00 0 0 0
323 1 5.9219394857738621e+01 5.4257475208865309e+01 0.0000000000000000e+00 0 0 0
351 1 5.3902041450886998e+01 5.9945449192471401e+01 0.0000000000000000e+00 0 0 0
353 1 6.0335443238051916e+01 5.8278978426829141e+01 0.0000000000000000e+00 0 0 0
324 1 6.3075376018811667e+01 5.5508581183463455e+01 0.0000000000000000e+00 0 0 0
325 1 6.6999981442445574e+01 5.6571257299936967e+01 0.0000000000000000e+00 0 0 0
355 1 6.4359188597184186e+01 5.9486670261502034e+01 0.0000000000000000e+00 0 0 0
326 1 7.0990046267863931e+01 5.7656908224317824e+01 0.0000000000000000e+00 0 0 0
327 1 6.9820076095960687e+01 5.3568560352316759e+01 0.0000000000000000e+00 0 0 0
328 1 7.3593178364937174e+01 5.4559478418511098e+01 0.0000000000000000e+00 0 0 0
359 1 7.4997810872550573e+01 5.8533383498722380e+01 0.0000000000000000e+00 0 0 0
329 1 7.7500479935309656e+01 5.5453704311852754e+01 0.0000000000000000e+00 0 0 0
1201 1 8.1717679809919403e+01 5.6462564448077281e+01 0.0000000000000000e+00 0 0 0
330 1 7.8894212093022972e+01 5.9369322941137810e+01 0.0000000000000000e+00 0 0 0
302 1 3.5570239582672061e+00 6.0647029965442080e+01 0.0000000000000000e+00 0 0 0
332 1 4.5243896518904219e+00 6.4572782208802195e+01 0.0000000000000000e+00 0 0 0
361 1 1.2283195192574776e+00 6.7185665673093979e+01 0.0000000000000000e+00 0 0 0
333 1 7.6831245562634987e+00 6.1974789652158186e+01 0.0000000000000000e+00 0 0 0
334 1 8.3912587317598089e+00 6.6073168032830409e+01 0.0000000000000000e+00 0 0 0
306 1 1.4510574852229839e+01 6.0691254802721360e+01 0.0000000000000000e+00 0 0 0
335 1 1.1535159268037278e+01 6.3380356764652937e+01 0.0000000000000000e+00 0 0 0
336 1 1.2273955973223121e+01 6.7280325782781958e+01 0.0000000000000000e+00 0 0 0
337 1 1.5359532236097394e+01 6.4679583925898527e+01 0.0000000000000000e+00 0 0 0
308 1 1.8420896995527066e+01 6.2171078140542342e+01 0.0000000000000000e+00 0 0 0
338 1 1.9145510876164323e+01 6.6110222257998885e+01 0.0000000000000000e+00 0 0 0
339 1 2.2270004149069944e+01 6.3493229506430986e+01 0.0000000000000000e+00 0 0 0
340 1 2.3189726984162117e+01 6.7510144732800214e+01 0.0000000000000000e+00 0 0 0
310 1 2.5393050040570365e+01 6.0841215147714649e+01 0.0000000000000000e+00 0 0 0
341 1 2.6076380176839574e+01 6.4765504645595854e+01 0.0000000000000000e+00 0 0 0
343 1 2.9218601789385936e+01 6.2113238668199507e+01 0.0000000000000000e+00 0 0 0
342 1 3.0008124221574658e+01 6.6205967525216096e+01 0.0000000000000000e+00 0 0 0
345 1 3.6298473066630606e+01 6.0870049420631162e+01 0.0000000000000000e+00 0 0 0
344 1 3.3100313516709718e+01 6.3618498464326755e+01 0.0000000000000000e+00 0 0 0
346 1 3.7039364393047990e+01 6.4886114846002116e+01 0.0000000000000000e+00 0 0 0
373 1 3.3875410424823130e+01 6.7536295278126659e+01 0.0000000000000000e+00 0 0 0
347 1 4.0109837642943702e+01 6.2066827007450065e+01 0.0000000000000000e+00 0 0 0
377 1 4.0827995260843338e+01 6.6369944705129797e+01 0.0000000000000000e+00 0 0 0
348 1 4.3912813459943827e+01 6.3328311777485816e+01 0.0000000000000000e+00 0 0 0
376 1 4.4636761113108236e+01 6.7391397944345385e+01 0.0000000000000000e+00 0 0 0
349 1 4.7057722869966803e+01 6.0395028945196223e+01 0.0000000000000000e+00 0 0 0
350 1 5.0615376956441665e+01 6.2397901284973329e+01 0.0000000000000000e+00 0 0 0
379 1 5.1314074356509437e+01 6.6270853817834507e+01 0.0000000000000000e+00 0 0 0
378 1 4.7579320576494695e+01 6.4696742145403590e+01 0.0000000000000000e+00 0 0 0
381 1 5.4512124674635650e+01 6.3897899241230348e+01 0.0000000000000000e+00 0 0 0
352 1 5.7529392345109912e+01 6.1213939501118276e+01 0.0000000000000000e+00 0 0 0
382 1 5.8312519201771899e+01 6.5124640959571735e+01 0.0000000000000000e+00 0 0 0
354 1 6.1521113252396610e+01 6.2154374177181829e+01 0.0000000000000000e+00 0 0 0
385 1 6.5466600235314729e+01 6.3488306110740481e+01 0.0000000000000000e+00 0 0 0
383 1 6.2241879448967609e+01 6.6052743470681222e+01 0.0000000000000000e+00 0 0 0
356 1 6.8272335370474622e+01 6.0604289579059106e+01 0.0000000000000000e+00 0 0 0
357 1 7.2213569830477553e+01 6.1480124669530120e+01 0.0000000000000000e+00 0 0 0
387 1 6.9457316160830473e+01 6.4526259835284577e+01 0.0000000000000000e+00 0 0 0
388 1 7.2399687423823025e+01 6.7304229239540888e+01 0.0000000000000000e+00 0 0 0
358 1 7.6255585485070199e+01 6.2487404461248353e+01 0.0000000000000000e+00 0 0 0
1261 1 8.0959262025785804e+01 6.6844790977351664e+01 0.0000000000000000e+00 0 0 0
360 1 8.0064728480378392e+01 6.3174587091783216e+01 0.0000000000000000e+00 0 0 0