LAMMPS (17 Nov 2016)
Lattice spacing in x,y,z = 5.26 5.26 5.26
Created orthogonal box = (0 0 0) to (31.56 31.56 31.56)
  1 by 1 by 1 MPI processor grid
Lattice spacing in x,y,z = 5.26 5.26 5.26
Created 864 atoms
Replicating atoms ...
  orthogonal box = (0 0 0) to (31.56 31.56 31.56)
  1 by 1 by 1 MPI processor grid
  864 atoms
Neighbor list info ...
  1 neighbor list requests
  update every 1 steps, delay 10 steps, check yes
  max neighbors/atom: 2000, page size: 100000
  master list distance cutoff = 10.5
  ghost atom cutoff = 10.5
  binsize = 5.25, bins = 7 7 7
Setting up Verlet run ...
  Unit style    : real
  Current step  : 0
  Time step     : 20
Memory usage per processor = 3.61332 Mbytes
Step Time Lx Ly Lz Press Pxx Pyy Pzz PotEng Temp PotEng KinEng TotEng 
       0            0        31.56        31.56        31.56    952.70177    945.01372    955.37415    957.71744   -1666.2084          180   -1666.2084    463.03903   -1203.1694 
      20          400        31.56        31.56        31.56    3513.3005    3577.8738    3468.5658    3493.4617   -1407.9171    103.25945   -1407.9171    265.62864   -1142.2884 
      40          800        31.56        31.56        31.56    3794.4487    3915.2138     3704.652    3763.4803   -1384.3183    108.74825   -1384.3183    279.74824   -1104.5701 
      60         1200        31.56        31.56        31.56    4032.7033    4095.3073    3918.2184    4084.5842   -1366.8403    121.72498   -1366.8403     313.1301   -1053.7102 
      80         1600        31.56        31.56        31.56    4330.8728     4343.926    4251.5639    4397.1285   -1344.1325    130.07418   -1344.1325    334.60791   -1009.5246 
     100         2000        31.56        31.56        31.56    4647.0634    4591.1398    4657.1405    4692.9098   -1315.0146     132.6237   -1315.0146    341.16639   -973.84825 
     120         2400        31.56        31.56        31.56    4815.6091    4817.8265    4785.9679    4843.0328    -1303.092    145.53346    -1303.092    374.37596   -928.71607 
     140         2800        31.56        31.56        31.56    5113.7756    5228.3624     5041.676    5071.2885   -1279.0397    154.00603   -1279.0397    396.17113   -882.86858 
     160         3200        31.56        31.56        31.56    5257.5874    5268.7783    5336.4399     5167.544   -1270.1752    165.53085   -1270.1752    425.81803   -844.35715 
     180         3600        31.56        31.56        31.56    5434.1765     5307.771      5454.19    5540.5686   -1256.2177    175.80355   -1256.2177    452.24391   -803.97383 
     200         4000        31.56        31.56        31.56    5664.7624    5663.8648    5859.0918    5471.3306   -1238.1175    182.52331   -1238.1175    469.53009   -768.58743 
     220         4400        31.56        31.56        31.56    5816.8988    5821.7781    5791.7827    5837.1356   -1223.7406    182.91837   -1223.7406    470.54636   -753.19426 
     240         4800        31.56        31.56        31.56     5948.455     5814.696    6124.8375    5905.8316   -1214.2558    188.21507   -1214.2558    484.17181   -730.08398 
     260         5200        31.56        31.56        31.56    6000.9118     6097.742    5806.9734    6098.0201   -1208.8598    190.43743   -1208.8598     489.8887    -718.9711 
     280         5600        31.56        31.56        31.56    5969.9238     5907.987    6003.8437    5997.9407   -1213.9606    191.26487   -1213.9606    492.01723   -721.94339 
     300         6000        31.56        31.56        31.56    5960.3646    6170.4117    5867.7733    5842.9088    -1213.407    189.38336    -1213.407    487.17716   -726.22986 
Loop time of 4.01103 on 1 procs for 300 steps with 864 atoms

Performance: 129.243 ns/day, 0.186 hours/ns, 74.794 timesteps/s
99.8% CPU use with 1 MPI tasks x no OpenMP threads

MPI task timing breakdown:
Section |  min time  |  avg time  |  max time  |%varavg| %total
---------------------------------------------------------------
Pair    | 0.3589     | 0.3589     | 0.3589     |   0.0 |  8.95
Neigh   | 0.084746   | 0.084746   | 0.084746   |   0.0 |  2.11
Comm    | 0.012441   | 0.012441   | 0.012441   |   0.0 |  0.31
Output  | 0.0029693  | 0.0029693  | 0.0029693  |   0.0 |  0.07
Modify  | 3.5502     | 3.5502     | 3.5502     |   0.0 | 88.51
Other   |            | 0.001825   |            |       |  0.05

Nlocal:    864 ave 864 max 864 min
Histogram: 1 0 0 0 0 0 0 0 0 0
Nghost:    3106 ave 3106 max 3106 min
Histogram: 1 0 0 0 0 0 0 0 0 0
Neighs:    58681 ave 58681 max 58681 min
Histogram: 1 0 0 0 0 0 0 0 0 0

Total # of neighbors = 58681
Ave neighs/atom = 67.9178
Neighbor list builds = 30
Dangerous builds = 0
Total wall time: 0:00:04
