LAMMPS (17 Nov 2016)
Lattice spacing in x,y,z = 5.26 5.26 5.26
Created orthogonal box = (0 0 0) to (31.56 31.56 31.56)
  1 by 1 by 1 MPI processor grid
Lattice spacing in x,y,z = 5.26 5.26 5.26
Created 864 atoms
Replicating atoms ...
  orthogonal box = (0 0 0) to (31.56 31.56 31.56)
  1 by 1 by 1 MPI processor grid
  864 atoms
Neighbor list info ...
  1 neighbor list requests
  update every 1 steps, delay 10 steps, check yes
  max neighbors/atom: 2000, page size: 100000
  master list distance cutoff = 10.5
  ghost atom cutoff = 10.5
  binsize = 5.25, bins = 7 7 7
Setting up Verlet run ...
  Unit style    : real
  Current step  : 0
  Time step     : 20
Memory usage per processor = 3.61332 Mbytes
Step Time Lx Ly Lz Press Pxx Pyy Pzz PotEng Temp PotEng KinEng TotEng 
       0            0        31.56        31.56        31.56    952.70177    945.01372    955.37415    957.71744   -1666.2084          180   -1666.2084    463.03903   -1203.1694 
      20          400        31.56        31.56        31.56    3417.6862    3528.4825    3369.7502    3354.8259   -1416.0546    101.57423   -1416.0546    261.29352   -1154.7611 
      40          800        31.56        31.56        31.56    3727.9075    3864.1066    3668.1051    3651.5109   -1390.0952    108.83594   -1390.0952    279.97382   -1110.1214 
      60         1200        31.56        31.56        31.56    3996.6143    4085.2673    3904.7604    3999.8151   -1369.4597    121.65756   -1369.4597    312.95665    -1056.503 
      80         1600        31.56        31.56        31.56    4500.1938    4637.1684    4471.8255    4391.5875   -1326.5655    125.28707   -1326.5655    322.29334   -1004.2721 
     100         2000        31.56        31.56        31.56    4643.2151    4718.7044    4575.8892    4635.0516   -1315.6305    136.23945   -1315.6305    350.46769   -965.16284 
     120         2400        31.56        31.56        31.56    4750.7101    4940.3321    4551.2434    4760.5548   -1310.6064    150.19897   -1310.6064    386.37769   -924.22867 
     140         2800        31.56        31.56        31.56    5028.4295    5111.2881    4910.9071    5063.0931   -1287.5922    157.73394   -1287.5922    405.76096   -881.83126 
     160         3200        31.56        31.56        31.56    5279.2867     5259.737    5258.1637    5319.9595    -1269.263    166.88946    -1269.263    429.31296   -839.95006 
     180         3600        31.56        31.56        31.56    5469.6117    5406.8471    5372.4984    5629.4897   -1252.4441     173.2789   -1252.4441    445.74941   -806.69474 
     200         4000        31.56        31.56        31.56    5640.1635    5588.3406    5556.9686    5775.1813   -1240.1311    181.32619   -1240.1311    466.45058   -773.68048 
     220         4400        31.56        31.56        31.56    5831.0299    5712.8213    5815.9745    5964.2938   -1222.9987    188.07532   -1222.9987    483.81231   -739.18639 
     240         4800        31.56        31.56        31.56     5923.538       6145.1    5746.4135    5879.1005   -1216.5641    192.10054   -1216.5641    494.16694   -722.39719 
     260         5200        31.56        31.56        31.56    5995.7516    5877.3529    6067.7554    6042.1465   -1211.3814    192.65541   -1211.3814    495.59432   -715.78711 
     280         5600        31.56        31.56        31.56    6122.5939    6126.7765    5932.5925    6308.4127   -1199.1984    188.22642   -1199.1984      484.201   -714.99738 
     300         6000        31.56        31.56        31.56    6055.4972    6051.7479    6065.5464    6049.1972   -1204.2211    189.05152   -1204.2211    486.32351   -717.89761 
Loop time of 1.78883 on 1 procs for 300 steps with 864 atoms

Performance: 289.799 ns/day, 0.083 hours/ns, 167.708 timesteps/s
99.9% CPU use with 1 MPI tasks x no OpenMP threads

MPI task timing breakdown:
Section |  min time  |  avg time  |  max time  |%varavg| %total
---------------------------------------------------------------
Pair    | 0.3601     | 0.3601     | 0.3601     |   0.0 | 20.13
Neigh   | 0.084973   | 0.084973   | 0.084973   |   0.0 |  4.75
Comm    | 0.01249    | 0.01249    | 0.01249    |   0.0 |  0.70
Output  | 0.003196   | 0.003196   | 0.003196   |   0.0 |  0.18
Modify  | 1.3262     | 1.3262     | 1.3262     |   0.0 | 74.14
Other   |            | 0.001895   |            |       |  0.11

Nlocal:    864 ave 864 max 864 min
Histogram: 1 0 0 0 0 0 0 0 0 0
Nghost:    3101 ave 3101 max 3101 min
Histogram: 1 0 0 0 0 0 0 0 0 0
Neighs:    58703 ave 58703 max 58703 min
Histogram: 1 0 0 0 0 0 0 0 0 0

Total # of neighbors = 58703
Ave neighs/atom = 67.9433
Neighbor list builds = 30
Dangerous builds = 0
Total wall time: 0:00:01
