LAMMPS (17 Nov 2016)
Lattice spacing in x,y,z = 5.26 5.26 5.26
Created orthogonal box = (0 0 0) to (31.56 31.56 31.56)
  1 by 1 by 1 MPI processor grid
Lattice spacing in x,y,z = 5.26 5.26 5.26
Created 864 atoms
Replicating atoms ...
  orthogonal box = (0 0 0) to (31.56 31.56 31.56)
  1 by 1 by 1 MPI processor grid
  864 atoms
Neighbor list info ...
  1 neighbor list requests
  update every 1 steps, delay 10 steps, check yes
  max neighbors/atom: 2000, page size: 100000
  master list distance cutoff = 10.5
  ghost atom cutoff = 10.5
  binsize = 5.25, bins = 7 7 7
Setting up Verlet run ...
  Unit style    : real
  Current step  : 0
  Time step     : 20
Memory usage per processor = 3.61332 Mbytes
Step Time Lx Ly Lz Press Pxx Pyy Pzz PotEng Temp PotEng KinEng TotEng 
       0            0        31.56        31.56        31.56    952.70177    945.01372    955.37415    957.71744   -1666.2084          180   -1666.2084    463.03903   -1203.1694 
      20          400        31.56        31.56        31.56    3942.5461    4056.1108    3901.6975      3869.83   -1372.4032    112.65795   -1372.4032     289.8057   -1082.5975 
      40          800        31.56        31.56        31.56    4344.4485    4442.1807    4263.9813    4327.1834   -1341.4129    129.28745   -1341.4129    332.58409   -1008.8288 
      60         1200        31.56        31.56        31.56    4661.0163    4698.6234    4691.5689    4592.8566   -1318.2851    147.69646   -1318.2851    379.94014   -938.34494 
      80         1600        31.56        31.56        31.56    4988.7446    5039.2535    4847.9431    5079.0373   -1292.6123    155.21686   -1292.6123    399.28592   -893.32637 
     100         2000        31.56        31.56        31.56    5329.2213    5342.2536    5407.9037    5237.5067   -1265.6114    168.59622   -1265.6114     433.7035   -831.90789 
     120         2400        31.56        31.56        31.56    5553.7762    5747.2361    5327.4121    5586.6805    -1246.012    172.52176    -1246.012    443.80171   -802.21031 
     140         2800        31.56        31.56        31.56    5792.1292    5694.9674    5811.4071    5870.0132   -1225.0873    178.65228   -1225.0873     459.5721   -765.51523 
     160         3200        31.56        31.56        31.56    5822.8686    5898.5471    5846.8594    5723.1994   -1224.2264    181.29313   -1224.2264    466.36553   -757.86085 
     180         3600        31.56        31.56        31.56    5825.2472    5914.0923    5720.7537    5840.8955   -1222.6625    183.87538   -1222.6625    473.00821   -749.65427 
     200         4000        31.56        31.56        31.56    5994.9355    5841.6483    6075.5564    6067.6017   -1207.4368    180.57268   -1207.4368    464.51223   -742.92453 
     220         4400        31.56        31.56        31.56    5859.3008    5912.2265    5763.8092    5901.8666   -1220.9295    186.39703   -1220.9295      479.495   -741.43446 
     240         4800        31.56        31.56        31.56    5838.8863    5722.8253     5911.843    5881.9905   -1223.6799    187.57791   -1223.6799    482.53275   -741.14713 
     260         5200        31.56        31.56        31.56    5858.6163    5862.3169    5976.6697    5736.8622   -1222.0032    186.83463   -1222.0032    480.62071   -741.38249 
     280         5600        31.56        31.56        31.56    5703.7319    5630.7487    5752.4429    5728.0041      -1234.9    182.26683      -1234.9    468.87031   -766.02966 
     300         6000        31.56        31.56        31.56    5651.2318    5608.5963    5633.7496    5711.3496   -1238.3385    178.72322   -1238.3385     459.7546   -778.58394 
Loop time of 2.43159 on 1 procs for 300 steps with 864 atoms

Performance: 213.194 ns/day, 0.113 hours/ns, 123.376 timesteps/s
99.9% CPU use with 1 MPI tasks x no OpenMP threads

MPI task timing breakdown:
Section |  min time  |  avg time  |  max time  |%varavg| %total
---------------------------------------------------------------
Pair    | 0.35831    | 0.35831    | 0.35831    |   0.0 | 14.74
Neigh   | 0.084432   | 0.084432   | 0.084432   |   0.0 |  3.47
Comm    | 0.012428   | 0.012428   | 0.012428   |   0.0 |  0.51
Output  | 0.0029066  | 0.0029066  | 0.0029066  |   0.0 |  0.12
Modify  | 1.9717     | 1.9717     | 1.9717     |   0.0 | 81.09
Other   |            | 0.001768   |            |       |  0.07

Nlocal:    864 ave 864 max 864 min
Histogram: 1 0 0 0 0 0 0 0 0 0
Nghost:    3103 ave 3103 max 3103 min
Histogram: 1 0 0 0 0 0 0 0 0 0
Neighs:    58786 ave 58786 max 58786 min
Histogram: 1 0 0 0 0 0 0 0 0 0

Total # of neighbors = 58786
Ave neighs/atom = 68.0394
Neighbor list builds = 30
Dangerous builds = 0
Total wall time: 0:00:02
