LAMMPS (17 Nov 2016)
Lattice spacing in x,y,z = 5.26 5.26 5.26
Created orthogonal box = (0 0 0) to (31.56 31.56 31.56)
  1 by 1 by 1 MPI processor grid
Lattice spacing in x,y,z = 5.26 5.26 5.26
Created 864 atoms
Replicating atoms ...
  orthogonal box = (0 0 0) to (31.56 31.56 31.56)
  1 by 1 by 1 MPI processor grid
  864 atoms
Neighbor list info ...
  1 neighbor list requests
  update every 1 steps, delay 10 steps, check yes
  max neighbors/atom: 2000, page size: 100000
  master list distance cutoff = 10.5
  ghost atom cutoff = 10.5
  binsize = 5.25, bins = 7 7 7
Setting up Verlet run ...
  Unit style    : real
  Current step  : 0
  Time step     : 20
Memory usage per processor = 3.61332 Mbytes
Step Time Lx Ly Lz Press Pxx Pyy Pzz PotEng Temp PotEng KinEng TotEng 
       0            0        31.56        31.56        31.56    952.70177    945.01372    955.37415    957.71744   -1666.2084          180   -1666.2084    463.03903   -1203.1694 
      20          400        31.56        31.56        31.56    3306.5131    3380.0738    3265.2747    3274.1907    -1424.285     96.33839    -1424.285    247.82464   -1176.4603 
      40          800        31.56        31.56        31.56    3447.7721    3599.8853    3411.9718    3331.4593   -1412.8383    101.09956   -1412.8383    260.07246   -1152.7658 
      60         1200        31.56        31.56        31.56    3568.8781    3555.4024    3443.1023    3708.1295   -1403.9952    108.44975   -1403.9952    278.98037   -1125.0148 
      80         1600        31.56        31.56        31.56    3859.2058    3975.2512    3828.8145    3773.5517   -1379.9105    111.54174   -1379.9105    286.93433   -1092.9762 
     100         2000        31.56        31.56        31.56    4053.5842    4091.1518    4017.7898    4051.8108   -1364.7835    119.92545   -1364.7835    308.50091   -1056.2826 
     120         2400        31.56        31.56        31.56    4280.0585    4244.8722     4249.869    4345.4344   -1345.7702    127.53345   -1345.7702    328.07203   -1017.6982 
     140         2800        31.56        31.56        31.56    4500.3071    4538.1463    4389.2938    4573.4813   -1327.9034    133.70277   -1327.9034    343.94223   -983.96116 
     160         3200        31.56        31.56        31.56    4776.1784    4737.9978    4830.3365     4760.201   -1306.3042    140.56393   -1306.3042    361.59216     -944.712 
     180         3600        31.56        31.56        31.56    4882.0054     5047.447    4839.9204    4758.6489   -1299.4366    153.83119   -1299.4366    395.72137   -903.71524 
     200         4000        31.56        31.56        31.56    5197.7714    5169.4724    5214.5943    5209.2475   -1273.3771    159.51478   -1273.3771    410.34206   -863.03505 
     220         4400        31.56        31.56        31.56    5283.0425    5344.3924    5199.9989    5304.7362   -1270.5654    172.94611   -1270.5654    444.89332   -825.67203 
     240         4800        31.56        31.56        31.56    5603.7611     5667.246    5503.9814     5640.056   -1239.5561    173.84516   -1239.5561    447.20607   -792.34999 
     260         5200        31.56        31.56        31.56     5808.076    5788.9063    5868.7178    5766.6039   -1223.8412    179.26295   -1223.8412    461.14303   -762.69814 
     280         5600        31.56        31.56        31.56    5891.9332     5843.801    5798.9716    6033.0269   -1216.8487    183.89799   -1216.8487    473.06638   -743.78227 
     300         6000        31.56        31.56        31.56    5867.8888    5873.8859    5858.9177    5870.8627   -1223.1129    193.49953   -1223.1129    497.76574   -725.34714 
Loop time of 1.62942 on 1 procs for 300 steps with 864 atoms

Performance: 318.150 ns/day, 0.075 hours/ns, 184.115 timesteps/s
99.9% CPU use with 1 MPI tasks x no OpenMP threads

MPI task timing breakdown:
Section |  min time  |  avg time  |  max time  |%varavg| %total
---------------------------------------------------------------
Pair    | 0.35898    | 0.35898    | 0.35898    |   0.0 | 22.03
Neigh   | 0.085074   | 0.085074   | 0.085074   |   0.0 |  5.22
Comm    | 0.012488   | 0.012488   | 0.012488   |   0.0 |  0.77
Output  | 0.0029478  | 0.0029478  | 0.0029478  |   0.0 |  0.18
Modify  | 1.1681     | 1.1681     | 1.1681     |   0.0 | 71.69
Other   |            | 0.001813   |            |       |  0.11

Nlocal:    864 ave 864 max 864 min
Histogram: 1 0 0 0 0 0 0 0 0 0
Nghost:    3132 ave 3132 max 3132 min
Histogram: 1 0 0 0 0 0 0 0 0 0
Neighs:    58691 ave 58691 max 58691 min
Histogram: 1 0 0 0 0 0 0 0 0 0

Total # of neighbors = 58691
Ave neighs/atom = 67.9294
Neighbor list builds = 30
Dangerous builds = 0
Total wall time: 0:00:01
