LAMMPS (17 Nov 2016)
Lattice spacing in x,y,z = 5.26 5.26 5.26
Created orthogonal box = (0 0 0) to (31.56 31.56 31.56)
  1 by 1 by 1 MPI processor grid
Lattice spacing in x,y,z = 5.26 5.26 5.26
Created 864 atoms
Replicating atoms ...
  orthogonal box = (0 0 0) to (31.56 31.56 31.56)
  1 by 1 by 1 MPI processor grid
  864 atoms
Neighbor list info ...
  1 neighbor list requests
  update every 1 steps, delay 10 steps, check yes
  max neighbors/atom: 2000, page size: 100000
  master list distance cutoff = 10.5
  ghost atom cutoff = 10.5
  binsize = 5.25, bins = 7 7 7
Setting up Verlet run ...
  Unit style    : real
  Current step  : 0
  Time step     : 20
Memory usage per processor = 3.61332 Mbytes
Step Time Lx Ly Lz Press Pxx Pyy Pzz PotEng Temp PotEng KinEng TotEng 
       0            0        31.56        31.56        31.56    952.70177    945.01372    955.37415    957.71744   -1666.2084          180   -1666.2084    463.03903   -1203.1694 
      20          400        31.56        31.56        31.56    3838.9909    3879.6192    3809.0299    3828.3237   -1382.1613    113.05631   -1382.1613    290.83046   -1091.3308 
      40          800        31.56        31.56        31.56    4235.6054    4374.1368     4106.646    4226.0334   -1348.5466    122.76167   -1348.5466    315.79691   -1032.7497 
      60         1200        31.56        31.56        31.56    4550.5224    4568.4225    4434.8284    4648.3164   -1326.2891    140.22072   -1326.2891    360.70925    -965.5798 
      80         1600        31.56        31.56        31.56    4839.8589    4952.8852      4817.65    4749.0416   -1303.3167    147.64173   -1303.3167    379.79935   -923.51737 
     100         2000        31.56        31.56        31.56    5074.0286    5109.1159    4951.4238    5161.5459     -1283.44    156.75492     -1283.44    403.24247   -880.19752 
     120         2400        31.56        31.56        31.56    5191.9068    5408.0659    5178.3657     4989.289   -1276.7885    167.62265   -1276.7885    431.19906   -845.58942 
     140         2800        31.56        31.56        31.56    5688.6856    5849.2971    5544.4591    5672.3007   -1229.9746    165.85339   -1229.9746    426.64774   -803.32685 
     160         3200        31.56        31.56        31.56    5766.5599    5782.9416    5707.2764    5809.4617   -1228.3113    181.99784   -1228.3113    468.17837    -760.1329 
     180         3600        31.56        31.56        31.56    6032.7315    6116.9048    5915.6533    6065.6365   -1201.6837    176.50843   -1201.6837    454.05719   -747.62648 
     200         4000        31.56        31.56        31.56    5879.6685    5919.0755      5889.37    5830.5599   -1217.0199    179.56054   -1217.0199    461.90855   -755.11136 
     220         4400        31.56        31.56        31.56    5914.9272    5827.3975    5909.9718    6007.4123   -1215.3006    183.73716   -1215.3006    472.65265     -742.648 
     240         4800        31.56        31.56        31.56    5850.2276    5844.4172    5986.9491    5719.3165   -1221.9036    185.64342   -1221.9036    477.55639   -744.34723 
     260         5200        31.56        31.56        31.56    5974.3225    5938.2825    6074.9006    5909.7843   -1211.9463    186.09801   -1211.9463     478.7258   -733.22052 
     280         5600        31.56        31.56        31.56    5857.0349    5764.7546    5886.8777    5919.4725   -1222.6634    186.63236   -1222.6634    480.10038   -742.56307 
     300         6000        31.56        31.56        31.56    5808.7881    5782.0344    5832.5201    5811.8098   -1226.4413    184.81995   -1226.4413    475.43806   -751.00324 
Loop time of 3.54794 on 1 procs for 300 steps with 864 atoms

Performance: 146.113 ns/day, 0.164 hours/ns, 84.556 timesteps/s
99.9% CPU use with 1 MPI tasks x no OpenMP threads

MPI task timing breakdown:
Section |  min time  |  avg time  |  max time  |%varavg| %total
---------------------------------------------------------------
Pair    | 0.3616     | 0.3616     | 0.3616     |   0.0 | 10.19
Neigh   | 0.085587   | 0.085587   | 0.085587   |   0.0 |  2.41
Comm    | 0.012562   | 0.012562   | 0.012562   |   0.0 |  0.35
Output  | 0.003176   | 0.003176   | 0.003176   |   0.0 |  0.09
Modify  | 3.0831     | 3.0831     | 3.0831     |   0.0 | 86.90
Other   |            | 0.001905   |            |       |  0.05

Nlocal:    864 ave 864 max 864 min
Histogram: 1 0 0 0 0 0 0 0 0 0
Nghost:    3151 ave 3151 max 3151 min
Histogram: 1 0 0 0 0 0 0 0 0 0
Neighs:    58719 ave 58719 max 58719 min
Histogram: 1 0 0 0 0 0 0 0 0 0

Total # of neighbors = 58719
Ave neighs/atom = 67.9618
Neighbor list builds = 30
Dangerous builds = 0
Total wall time: 0:00:03
