LAMMPS (17 Nov 2016)
Lattice spacing in x,y,z = 5.26 5.26 5.26
Created orthogonal box = (0 0 0) to (31.56 31.56 31.56)
  1 by 1 by 1 MPI processor grid
Lattice spacing in x,y,z = 5.26 5.26 5.26
Created 864 atoms
Replicating atoms ...
  orthogonal box = (0 0 0) to (31.56 31.56 31.56)
  1 by 1 by 1 MPI processor grid
  864 atoms
Neighbor list info ...
  1 neighbor list requests
  update every 1 steps, delay 10 steps, check yes
  max neighbors/atom: 2000, page size: 100000
  master list distance cutoff = 10.5
  ghost atom cutoff = 10.5
  binsize = 5.25, bins = 7 7 7
Setting up Verlet run ...
  Unit style    : real
  Current step  : 0
  Time step     : 20
Memory usage per processor = 3.61332 Mbytes
Step Time Lx Ly Lz Press Pxx Pyy Pzz PotEng Temp PotEng KinEng TotEng 
       0            0        31.56        31.56        31.56    952.70177    945.01372    955.37415    957.71744   -1666.2084          180   -1666.2084    463.03903   -1203.1694 
      20          400        31.56        31.56        31.56    3335.4283    3416.9548    3295.9425    3293.3875   -1422.0851    97.653692   -1422.0851    251.20817    -1170.877 
      40          800        31.56        31.56        31.56    3529.8865    3644.4283    3517.5124    3427.7187    -1406.212    103.27671    -1406.212    265.67304   -1140.5389 
      60         1200        31.56        31.56        31.56    3718.0339      3750.99    3587.3778    3815.7339   -1390.8688    110.32714   -1390.8688    283.80985   -1107.0589 
      80         1600        31.56        31.56        31.56    4056.1596    4145.3564      4049.29    3973.8324   -1364.1101    117.30274   -1364.1101    301.75414   -1062.3559 
     100         2000        31.56        31.56        31.56     4175.704    4192.6052    4126.0173    4208.4895   -1356.1587    127.95325   -1356.1587    329.15195   -1027.0068 
     120         2400        31.56        31.56        31.56     4396.897    4457.4103    4316.3526    4416.9282   -1337.8922    134.31981   -1337.8922    345.52954   -992.36263 
     140         2800        31.56        31.56        31.56    4630.3732    4633.4711    4576.4446    4681.2038    -1320.241    143.96222    -1320.241    370.33404   -949.90691 
     160         3200        31.56        31.56        31.56    4896.0669    4762.2185    4809.9782     5116.004   -1298.2372    151.80665   -1298.2372    390.51337   -907.72388 
     180         3600        31.56        31.56        31.56    5169.6738     5123.044    5219.6422    5166.3352   -1276.3134    159.75656   -1276.3134    410.96403    -865.3494 
     200         4000        31.56        31.56        31.56    5368.9288    5416.9967    5305.8846    5383.9052   -1259.4362    165.83153   -1259.4362     426.5915   -832.84469 
     220         4400        31.56        31.56        31.56    5484.6652    5553.2467     5398.016     5502.733   -1253.0374    174.37015   -1253.0374    448.55658   -804.48081 
     240         4800        31.56        31.56        31.56    5677.9413    5780.3642    5612.1642    5641.2954   -1235.4145    178.48961   -1235.4145    459.15364   -776.26082 
     260         5200        31.56        31.56        31.56    5784.3648     5833.581    5842.1354    5677.3779   -1228.5133    186.14452   -1228.5133    478.84544   -749.66785 
     280         5600        31.56        31.56        31.56    5852.2123    5797.1919     5947.079    5812.3659   -1222.4914    191.16184   -1222.4914    491.75217   -730.73924 
     300         6000        31.56        31.56        31.56    6185.9145    6280.7569    6195.4838    6081.5028   -1190.2706    183.42848   -1190.2706    471.85859   -718.41203 
Loop time of 1.66695 on 1 procs for 300 steps with 864 atoms

Performance: 310.987 ns/day, 0.077 hours/ns, 179.970 timesteps/s
99.9% CPU use with 1 MPI tasks x no OpenMP threads

MPI task timing breakdown:
Section |  min time  |  avg time  |  max time  |%varavg| %total
---------------------------------------------------------------
Pair    | 0.36157    | 0.36157    | 0.36157    |   0.0 | 21.69
Neigh   | 0.085124   | 0.085124   | 0.085124   |   0.0 |  5.11
Comm    | 0.012593   | 0.012593   | 0.012593   |   0.0 |  0.76
Output  | 0.0029302  | 0.0029302  | 0.0029302  |   0.0 |  0.18
Modify  | 1.2029     | 1.2029     | 1.2029     |   0.0 | 72.16
Other   |            | 0.001791   |            |       |  0.11

Nlocal:    864 ave 864 max 864 min
Histogram: 1 0 0 0 0 0 0 0 0 0
Nghost:    3136 ave 3136 max 3136 min
Histogram: 1 0 0 0 0 0 0 0 0 0
Neighs:    58735 ave 58735 max 58735 min
Histogram: 1 0 0 0 0 0 0 0 0 0

Total # of neighbors = 58735
Ave neighs/atom = 67.9803
Neighbor list builds = 30
Dangerous builds = 0
Total wall time: 0:00:01
