LAMMPS (17 Nov 2016)
Lattice spacing in x,y,z = 5.26 5.26 5.26
Created orthogonal box = (0 0 0) to (31.56 31.56 31.56)
  1 by 1 by 1 MPI processor grid
Lattice spacing in x,y,z = 5.26 5.26 5.26
Created 864 atoms
Replicating atoms ...
  orthogonal box = (0 0 0) to (31.56 31.56 31.56)
  1 by 1 by 1 MPI processor grid
  864 atoms
Neighbor list info ...
  1 neighbor list requests
  update every 1 steps, delay 10 steps, check yes
  max neighbors/atom: 2000, page size: 100000
  master list distance cutoff = 10.5
  ghost atom cutoff = 10.5
  binsize = 5.25, bins = 7 7 7
Setting up Verlet run ...
  Unit style    : real
  Current step  : 0
  Time step     : 20
Memory usage per processor = 3.61332 Mbytes
Step Time Lx Ly Lz Press Pxx Pyy Pzz PotEng Temp PotEng KinEng TotEng 
       0            0        31.56        31.56        31.56    952.70177    945.01372    955.37415    957.71744   -1666.2084          180   -1666.2084    463.03903   -1203.1694 
      20          400        31.56        31.56        31.56    3283.5776    3357.8806    3248.8993    3243.9528   -1426.3079    96.574468   -1426.3079    248.43194   -1177.8759 
      40          800        31.56        31.56        31.56    3421.2148    3570.0899    3364.2899    3329.2645   -1414.5612    99.731306   -1414.5612    256.55271   -1158.0085 
      60         1200        31.56        31.56        31.56    3535.7432    3504.9582    3431.7209    3670.5505   -1406.3386    107.02705   -1406.3386    275.32057    -1131.018 
      80         1600        31.56        31.56        31.56    3868.2447    3943.5339    3821.4814    3839.7187   -1377.9277    107.78328   -1377.9277    277.26592   -1100.6618 
     100         2000        31.56        31.56        31.56    3926.0429    3919.6095    3933.7448    3924.7743   -1375.8221     119.6381   -1375.8221    307.76172   -1068.0603 
     120         2400        31.56        31.56        31.56    4229.6671    4205.8539    4280.8318    4202.3155   -1348.7418    122.78011   -1348.7418    315.84436   -1032.8974 
     140         2800        31.56        31.56        31.56    4477.6259    4540.5435    4491.2427    4401.0914   -1329.4992    129.90137   -1329.4992    334.16337   -995.33585 
     160         3200        31.56        31.56        31.56    4561.4065    4528.7493    4623.4267    4532.0434   -1325.7372    142.72615   -1325.7372    367.15433   -958.58283 
     180         3600        31.56        31.56        31.56    4760.4965    4878.8878    4709.3505    4693.2512   -1309.6199    151.41206   -1309.6199     389.4983   -920.12159 
     200         4000        31.56        31.56        31.56    5112.9734    5180.0032    5066.3991    5092.5179   -1278.4907    153.93445   -1278.4907    395.98698   -882.50368 
     220         4400        31.56        31.56        31.56    5254.0936    5228.1708    5230.9017    5303.2082   -1270.1389    165.06003   -1270.1389    424.60687     -845.532 
     240         4800        31.56        31.56        31.56    5508.3145    5480.5316     5610.795     5433.617   -1247.2972    169.22082   -1247.2972    435.31026   -811.98691 
     260         5200        31.56        31.56        31.56    5808.9935    5667.1249     5884.332    5875.5237   -1219.7693    171.31259   -1219.7693     440.6912   -779.07814 
     280         5600        31.56        31.56        31.56    5671.2002     5797.445      5513.19    5702.9655   -1239.3328    189.31091   -1239.3328    486.99078   -752.34202 
     300         6000        31.56        31.56        31.56    6043.4499    6093.5524    6058.0157    5978.7816   -1203.8628    183.21573   -1203.8628    471.31132   -732.55151 
Loop time of 1.61797 on 1 procs for 300 steps with 864 atoms

Performance: 320.402 ns/day, 0.075 hours/ns, 185.418 timesteps/s
99.9% CPU use with 1 MPI tasks x no OpenMP threads

MPI task timing breakdown:
Section |  min time  |  avg time  |  max time  |%varavg| %total
---------------------------------------------------------------
Pair    | 0.3614     | 0.3614     | 0.3614     |   0.0 | 22.34
Neigh   | 0.084734   | 0.084734   | 0.084734   |   0.0 |  5.24
Comm    | 0.012501   | 0.012501   | 0.012501   |   0.0 |  0.77
Output  | 0.0031137  | 0.0031137  | 0.0031137  |   0.0 |  0.19
Modify  | 1.1544     | 1.1544     | 1.1544     |   0.0 | 71.35
Other   |            | 0.001824   |            |       |  0.11

Nlocal:    864 ave 864 max 864 min
Histogram: 1 0 0 0 0 0 0 0 0 0
Nghost:    3129 ave 3129 max 3129 min
Histogram: 1 0 0 0 0 0 0 0 0 0
Neighs:    58863 ave 58863 max 58863 min
Histogram: 1 0 0 0 0 0 0 0 0 0

Total # of neighbors = 58863
Ave neighs/atom = 68.1285
Neighbor list builds = 30
Dangerous builds = 0
Total wall time: 0:00:01
