LAMMPS data file via write_data, version 17 Nov 2016, timestep = 220000

1800 atoms
1 atom types

3.2545532021430432e+00 1.5514544679786064e+02 xlo xhi
3.2545532021430432e+00 1.5514544679786064e+02 ylo yhi
0.0000000000000000e+00 5.2800000000000002e+00 zlo zhi

Masses

1 39.958

Atoms # atomic

2 1 8.0455007183888654e+00 5.6603813853563389e+00 0.0000000000000000e+00 0 0 0
61 1 8.6562530485611457e+00 9.5241942234571830e+00 0.0000000000000000e+00 0 0 0
1 1 4.2992057358358524e+00 3.8121169401779920e+00 0.0000000000000000e+00 0 0 0
63 1 1.1613865949680322e+01 7.5525532127192605e+00 0.0000000000000000e+00 0 0 0
4 1 1.4539317371195001e+01 5.4852061670978598e+00 0.0000000000000000e+00 0 0 0
64 1 1.4635100503246004e+01 9.5182795107544731e+00 0.0000000000000000e+00 0 0 0
3 1 1.1195179267261675e+01 3.8069949268878123e+00 0.0000000000000000e+00 0 0 0
65 1 1.8012967582221247e+01 7.4123283767553341e+00 0.0000000000000000e+00 0 0 0
6 1 1.8093543368701717e+01 3.3800325875855646e+00 0.0000000000000000e+00 0 0 0
67 1 2.1321642795235963e+01 5.5193385667736923e+00 0.0000000000000000e+00 0 0 0
68 1 2.4424624146457369e+01 7.5085087588791044e+00 0.0000000000000000e+00 0 0 0
127 1 2.1122407838969181e+01 9.4381801027685217e+00 0.0000000000000000e+00 0 0 0
8 1 2.4515619197545611e+01 3.5210359136730522e+00 0.0000000000000000e+00 0 0 0
69 1 2.7710588671978812e+01 5.3067528953271346e+00 0.0000000000000000e+00 0 0 0
71 1 3.0828164948167320e+01 7.0941268438555261e+00 0.0000000000000000e+00 0 0 0
70 1 2.7667435443431881e+01 9.0849741098312471e+00 0.0000000000000000e+00 0 0 0
12 1 3.2202334319985226e+01 3.6496553773233593e+00 0.0000000000000000e+00 0 0 0
72 1 3.3932560385754350e+01 8.8388628221449892e+00 0.0000000000000000e+00 0 0 0
73 1 3.5418533574924048e+01 5.4606848537539125e+00 0.0000000000000000e+00 0 0 0
75 1 3.9467195026493108e+01 7.4076564845336463e+00 0.0000000000000000e+00 0 0 0
74 1 3.7218550595478305e+01 1.0294243892382058e+01 0.0000000000000000e+00 0 0 0
14 1 3.8839761434635918e+01 3.4078795880129058e+00 0.0000000000000000e+00 0 0 0
16 1 4.2497418357684701e+01 5.1670801812229596e+00 0.0000000000000000e+00 0 0 0
76 1 4.2933994639706228e+01 9.2729023573143508e+00 0.0000000000000000e+00 0 0 0
77 1 4.5808978000047453e+01 6.9643643005700611e+00 0.0000000000000000e+00 0 0 0
18 1 4.8905023939037548e+01 4.8215296004200159e+00 0.0000000000000000e+00 0 0 0
79 1 5.2334884386746026e+01 6.0807095913620079e+00 0.0000000000000000e+00 0 0 0
78 1 4.9444730265298972e+01 8.7225173310338775e+00 0.0000000000000000e+00 0 0 0
80 1 5.3034629241603049e+01 1.0165530394407556e+01 0.0000000000000000e+00 0 0 0
20 1 5.5504993045703394e+01 4.0383626115964235e+00 0.0000000000000000e+00 0 0 0
22 1 5.9036032119905784e+01 5.5858475863741557e+00 0.0000000000000000e+00 0 0 0
81 1 5.5971599031088040e+01 7.7014512670422075e+00 0.0000000000000000e+00 0 0 0
82 1 5.9480170047188224e+01 9.3458361255823235e+00 0.0000000000000000e+00 0 0 0
83 1 6.2566449690511455e+01 7.0417567705017081e+00 0.0000000000000000e+00 0 0 0
85 1 6.6146699042793756e+01 8.8427383612569983e+00 0.0000000000000000e+00 0 0 0
25 1 6.5494518021435965e+01 4.7859752210110873e+00 0.0000000000000000e+00 0 0 0
26 1 6.8975812901341158e+01 6.5361243709788841e+00 0.0000000000000000e+00 0 0 0
28 1 7.2482042978088046e+01 8.1814494981610117e+00 0.0000000000000000e+00 0 0 0
1768 1 7.1908072721434650e+01 4.3055236118181730e+00 0.0000000000000000e+00 0 1 0
87 1 6.9558065185500553e+01 1.0454584599100166e+01 0.0000000000000000e+00 0 0 0
29 1 7.5339010825209797e+01 5.7606246745861807e+00 0.0000000000000000e+00 0 0 0
30 1 7.9115876535981783e+01 7.3263426126037121e+00 0.0000000000000000e+00 0 0 0
1770 1 7.8622995454004737e+01 3.5666016195250543e+00 0.0000000000000000e+00 0 1 0
89 1 7.6076833273763171e+01 9.5039018486842650e+00 0.0000000000000000e+00 0 0 0
31 1 8.2147621569200965e+01 5.1879517659899612e+00 0.0000000000000000e+00 0 0 0
32 1 8.2657711124280368e+01 9.0101369617820239e+00 0.0000000000000000e+00 0 0 0
33 1 8.5583145351895610e+01 6.5668696845099168e+00 0.0000000000000000e+00 0 0 0
34 1 8.9338607603606391e+01 8.1194989060117315e+00 0.0000000000000000e+00 0 0 0
1774 1 8.8560842926869555e+01 4.2231277888826675e+00 0.0000000000000000e+00 0 1 0
93 1 8.5990807058360915e+01 1.0315774388973491e+01 0.0000000000000000e+00 0 0 0
35 1 9.4303632526883661e+01 6.4973787801693668e+00 0.0000000000000000e+00 0 0 0
97 1 9.6690740071074558e+01 9.5447333526219857e+00 0.0000000000000000e+00 0 0 0
36 1 9.2841022515295023e+01 9.9980809795848309e+00 0.0000000000000000e+00 0 0 0
1775 1 9.2114671489684838e+01 3.2724320787214158e+00 0.0000000000000000e+00 0 1 0
38 1 9.8053873208534213e+01 5.8391757361973564e+00 0.0000000000000000e+00 0 0 0
40 1 1.0174640899393992e+02 5.2198359041205116e+00 0.0000000000000000e+00 0 0 0
99 1 1.0046361030902844e+02 8.8808544699825411e+00 0.0000000000000000e+00 0 0 0
101 1 1.0408602282987988e+02 8.2547300877341048e+00 0.0000000000000000e+00 0 0 0
41 1 1.0574123363069310e+02 4.8886176733848226e+00 0.0000000000000000e+00 0 0 0
42 1 1.0781433746168065e+02 7.7086870612215641e+00 0.0000000000000000e+00 0 0 0
43 1 1.1047200021447101e+02 5.1052834051497324e+00 0.0000000000000000e+00 0 0 0
103 1 1.1042313851360335e+02 1.0265246180135541e+01 0.0000000000000000e+00 0 0 0
44 1 1.1386146248671622e+02 9.0381679109023665e+00 0.0000000000000000e+00 0 0 0
105 1 1.1745542600586467e+02 8.1673870422725710e+00 0.0000000000000000e+00 0 0 0
46 1 1.1821914850983315e+02 4.5344986804486505e+00 0.0000000000000000e+00 0 0 0
45 1 1.1445132345670621e+02 5.1838978409112277e+00 0.0000000000000000e+00 0 0 0
107 1 1.2097549534490417e+02 7.2298227741413186e+00 0.0000000000000000e+00 0 0 0
48 1 1.2462155128952939e+02 6.4068015915446619e+00 0.0000000000000000e+00 0 0 0
108 1 1.2360797330104401e+02 1.0038295782399894e+01 0.0000000000000000e+00 0 0 0
47 1 1.2191472716920710e+02 3.4775468562672494e+00 0.0000000000000000e+00 0 0 0
109 1 1.2727257278811187e+02 8.9043966294491099e+00 0.0000000000000000e+00 0 0 0
50 1 1.2835398251588862e+02 5.2773958386788493e+00 0.0000000000000000e+00 0 0 0
51 1 1.3188821443750066e+02 4.3554688573119789e+00 0.0000000000000000e+00 0 0 0
111 1 1.3111083522545690e+02 8.0515986091198819e+00 0.0000000000000000e+00 0 0 0
52 1 1.3458177709807353e+02 7.0912583251312729e+00 0.0000000000000000e+00 0 0 0
54 1 1.3827791380575798e+02 6.1863673444184659e+00 0.0000000000000000e+00 0 0 0
113 1 1.3724885834805241e+02 9.7811827452961104e+00 0.0000000000000000e+00 0 0 0
53 1 1.3559474784605032e+02 3.3999494300121409e+00 0.0000000000000000e+00 0 0 0
115 1 1.4095269990169106e+02 8.8433098045536056e+00 0.0000000000000000e+00 0 0 0
56 1 1.4190199802106525e+02 5.1262223061147214e+00 0.0000000000000000e+00 0 0 0
117 1 1.4466865189407412e+02 7.7091996952951032e+00 0.0000000000000000e+00 0 0 0
57 1 1.4547970288145058e+02 3.8612873029721264e+00 0.0000000000000000e+00 0 0 0
118 1 1.4758260840867285e+02 1.0355762462683639e+01 0.0000000000000000e+00 0 0 0
60 1 1.5502605374945074e+02 7.6056142864906713e+00 0.0000000000000000e+00 0 0 0
58 1 1.4832473230906652e+02 6.6427060316613886e+00 0.0000000000000000e+00 0 0 0
59 1 1.5226868331057494e+02 5.1481149615450335e+00 0.0000000000000000e+00 0 0 0
119 1 1.5136093691943489e+02 8.8129459412614857e+00 0.0000000000000000e+00 0 0 0
120 1 5.3566468809326615e+00 1.0575749182536985e+01 0.0000000000000000e+00 1 0 0
121 1 8.1276096842824934e+00 1.3310214920610496e+01 0.0000000000000000e+00 0 0 0
180 1 4.7082366610266533e+00 1.4514425547528916e+01 0.0000000000000000e+00 1 0 0
122 1 7.7922361309100427e+00 1.7022624116065717e+01 0.0000000000000000e+00 0 0 0
123 1 1.1436274373281472e+01 1.5497996176242760e+01 0.0000000000000000e+00 0 0 0
62 1 1.1637531322694329e+01 1.1820777167502563e+01 0.0000000000000000e+00 0 0 0
125 1 1.5004686281750901e+01 1.3528993804237112e+01 0.0000000000000000e+00 0 0 0
184 1 1.4559056667621896e+01 1.7551338844794117e+01 0.0000000000000000e+00 0 0 0
66 1 1.7845458342401756e+01 1.1359298081495266e+01 0.0000000000000000e+00 0 0 0
124 1 1.8048619389513028e+01 1.5574110967811389e+01 0.0000000000000000e+00 0 0 0
126 1 2.1118910604062751e+01 1.3162732015116289e+01 0.0000000000000000e+00 0 0 0
129 1 2.4372128281619798e+01 1.1159486682671679e+01 0.0000000000000000e+00 0 0 0
128 1 2.4449583670109071e+01 1.5151585737870192e+01 0.0000000000000000e+00 0 0 0
185 1 2.1285492444832812e+01 1.7330231723562640e+01 0.0000000000000000e+00 0 0 0
131 1 3.0844360121290016e+01 1.0864064381597892e+01 0.0000000000000000e+00 0 0 0
189 1 2.7743891084789674e+01 1.6944368849364988e+01 0.0000000000000000e+00 0 0 0
130 1 2.7657065529758736e+01 1.2878710482726234e+01 0.0000000000000000e+00 0 0 0
132 1 3.0842689428018485e+01 1.4705397904782396e+01 0.0000000000000000e+00 0 0 0
133 1 3.4111083947386945e+01 1.2697190633367278e+01 0.0000000000000000e+00 0 0 0
134 1 3.7417826540681240e+01 1.4322531646453543e+01 0.0000000000000000e+00 0 0 0
193 1 3.4188518505899090e+01 1.6339259850040936e+01 0.0000000000000000e+00 0 0 0
135 1 4.0253690367058496e+01 1.2008748109997173e+01 0.0000000000000000e+00 0 0 0
195 1 4.0812899406205354e+01 1.5793401406151569e+01 0.0000000000000000e+00 0 0 0
136 1 4.3819554993068252e+01 1.3353201500201504e+01 0.0000000000000000e+00 0 0 0
197 1 4.4209953795788586e+01 1.7261206879010917e+01 0.0000000000000000e+00 0 0 0
137 1 4.6494923049917908e+01 1.0887906965937642e+01 0.0000000000000000e+00 0 0 0
138 1 4.7075043383421495e+01 1.4919394234771413e+01 0.0000000000000000e+00 0 0 0
139 1 5.0047368787307875e+01 1.2508828719907964e+01 0.0000000000000000e+00 0 0 0
199 1 5.0467711339798754e+01 1.6373505843747523e+01 0.0000000000000000e+00 0 0 0
140 1 5.3471015796240799e+01 1.3973637963886206e+01 0.0000000000000000e+00 0 0 0
141 1 5.6612661327772457e+01 1.1717052068773933e+01 0.0000000000000000e+00 0 0 0
142 1 5.7023223299421986e+01 1.5520477084852041e+01 0.0000000000000000e+00 0 0 0
143 1 6.0107972133192710e+01 1.3344753440223291e+01 0.0000000000000000e+00 0 0 0
203 1 6.0359891319053290e+01 1.7217793119773816e+01 0.0000000000000000e+00 0 0 0
84 1 6.2933505799556961e+01 1.0900495024095093e+01 0.0000000000000000e+00 0 0 0
145 1 6.6475152580124785e+01 1.2599330012083531e+01 0.0000000000000000e+00 0 0 0
144 1 6.3469638825742443e+01 1.4905933684662633e+01 0.0000000000000000e+00 0 0 0
146 1 6.6798397333075627e+01 1.6314644130244325e+01 0.0000000000000000e+00 0 0 0
88 1 7.3086920515223326e+01 1.1959183691202737e+01 0.0000000000000000e+00 0 0 0
86 1 6.9890417573390081e+01 1.4261657175553815e+01 0.0000000000000000e+00 0 0 0
149 1 7.3424322738825268e+01 1.5648574456725246e+01 0.0000000000000000e+00 0 0 0
90 1 7.6444400055908645e+01 1.3322075740712005e+01 0.0000000000000000e+00 0 0 0
91 1 7.9403744736445930e+01 1.1140707156810890e+01 0.0000000000000000e+00 0 0 0
151 1 7.9841110429033719e+01 1.5107991717030469e+01 0.0000000000000000e+00 0 0 0
150 1 7.6828477600621198e+01 1.7175916543981952e+01 0.0000000000000000e+00 0 0 0
92 1 8.2880757685963360e+01 1.2687221100947907e+01 0.0000000000000000e+00 0 0 0
153 1 8.3361912759664833e+01 1.6543661904314764e+01 0.0000000000000000e+00 0 0 0
94 1 8.6357104236397035e+01 1.4301288969073081e+01 0.0000000000000000e+00 0 0 0
95 1 8.9243581313606953e+01 1.2042417181933402e+01 0.0000000000000000e+00 0 0 0
155 1 8.9895592552237659e+01 1.5973248025954192e+01 0.0000000000000000e+00 0 0 0
98 1 9.5981067298211698e+01 1.3168762722433865e+01 0.0000000000000000e+00 0 0 0
96 1 9.2592570372937516e+01 1.3681653890539717e+01 0.0000000000000000e+00 0 0 0
156 1 9.4157512812042143e+01 1.7476248379641696e+01 0.0000000000000000e+00 0 0 0
157 1 9.8287973368679161e+01 1.6136085429168908e+01 0.0000000000000000e+00 0 0 0
159 1 9.9633908239787914e+01 1.2629437139770801e+01 0.0000000000000000e+00 0 0 0
100 1 1.0327411779232489e+02 1.1798583345107108e+01 0.0000000000000000e+00 0 0 0
219 1 1.0219781371324380e+02 1.5593602008154349e+01 0.0000000000000000e+00 0 0 0
160 1 1.0567049933794277e+02 1.4824121876507760e+01 0.0000000000000000e+00 0 0 0
161 1 1.0942914229864162e+02 1.4042227554969795e+01 0.0000000000000000e+00 0 0 0
102 1 1.0688557525814682e+02 1.1206638668806711e+01 0.0000000000000000e+00 0 0 0
221 1 1.0821747052828468e+02 1.7692947700351773e+01 0.0000000000000000e+00 0 0 0
162 1 1.1195085497778561e+02 1.6715683468235515e+01 0.0000000000000000e+00 0 0 0
163 1 1.1296681882142995e+02 1.2996222586595856e+01 0.0000000000000000e+00 0 0 0
104 1 1.1651517926744118e+02 1.1970203347038042e+01 0.0000000000000000e+00 0 0 0
164 1 1.1547881174002292e+02 1.5871923317190666e+01 0.0000000000000000e+00 0 0 0
165 1 1.1897056141101562e+02 1.4790564302798934e+01 0.0000000000000000e+00 0 0 0
106 1 1.2018495624249157e+02 1.1125069495166617e+01 0.0000000000000000e+00 0 0 0
167 1 1.2267973138514110e+02 1.3778816947684463e+01 0.0000000000000000e+00 0 0 0
168 1 1.2540727906970544e+02 1.6413706721764697e+01 0.0000000000000000e+00 0 0 0
166 1 1.2174000596687726e+02 1.7320897706485283e+01 0.0000000000000000e+00 0 0 0
169 1 1.2634884725086357e+02 1.2611691780610522e+01 0.0000000000000000e+00 0 0 0
170 1 1.2906134936474223e+02 1.5214010770903579e+01 0.0000000000000000e+00 0 0 0
110 1 1.2999687938912092e+02 1.1605196916229374e+01 0.0000000000000000e+00 0 0 0
171 1 1.3266000079262250e+02 1.4286629886412602e+01 0.0000000000000000e+00 0 0 0
112 1 1.3351090394029086e+02 1.0673797988793456e+01 0.0000000000000000e+00 0 0 0
172 1 1.3568927321169633e+02 1.7204937803419895e+01 0.0000000000000000e+00 0 0 0
173 1 1.3629979752252871e+02 1.3431235587119177e+01 0.0000000000000000e+00 0 0 0
114 1 1.4002800579058476e+02 1.2546236686977878e+01 0.0000000000000000e+00 0 0 0
174 1 1.3937322325554385e+02 1.6117046028326492e+01 0.0000000000000000e+00 0 0 0
175 1 1.4288894856326345e+02 1.5120214784414443e+01 0.0000000000000000e+00 0 0 0
116 1 1.4391890100212021e+02 1.1489612510429859e+01 0.0000000000000000e+00 0 0 0
177 1 1.4657821707129983e+02 1.4114618276760456e+01 0.0000000000000000e+00 0 0 0
176 1 1.4555686480481489e+02 1.7644223458112769e+01 0.0000000000000000e+00 0 0 0
238 1 1.4926897140503058e+02 1.6595169795780976e+01 0.0000000000000000e+00 0 0 0
178 1 1.5017164057795605e+02 1.2940074929296863e+01 0.0000000000000000e+00 0 0 0
179 1 1.5378989663695529e+02 1.1870953640530425e+01 0.0000000000000000e+00 0 0 0
239 1 1.5295228261136873e+02 1.5529823464304153e+01 0.0000000000000000e+00 0 0 0
182 1 7.1290092725707677e+00 2.0831883709491848e+01 0.0000000000000000e+00 0 0 0
242 1 5.7649251430449402e+00 2.4399299526211443e+01 0.0000000000000000e+00 0 0 0
181 1 4.3038788853487748e+00 1.8395658831063937e+01 0.0000000000000000e+00 0 0 0
243 1 1.1349784648548386e+01 2.4022805343160336e+01 0.0000000000000000e+00 0 0 0
183 1 1.1410094463716245e+01 1.9863724841486714e+01 0.0000000000000000e+00 0 0 0
245 1 1.4993969273497273e+01 2.1508550047357122e+01 0.0000000000000000e+00 0 0 0
186 1 1.8119075898911415e+01 1.9409044901178198e+01 0.0000000000000000e+00 0 0 0
246 1 1.8468379146637986e+01 2.3179031790064148e+01 0.0000000000000000e+00 0 0 0
187 1 2.4709431334163622e+01 1.8987988218585880e+01 0.0000000000000000e+00 0 0 0
247 1 2.1552735352962294e+01 2.1175651788713289e+01 0.0000000000000000e+00 0 0 0
307 1 2.1868552349298056e+01 2.5110545778680581e+01 0.0000000000000000e+00 0 0 0
248 1 2.4821321852637904e+01 2.2862432683689718e+01 0.0000000000000000e+00 0 0 0
188 1 2.7979342212192897e+01 2.0726829011286242e+01 0.0000000000000000e+00 0 0 0
190 1 3.1363442769925971e+01 2.2322189846975775e+01 0.0000000000000000e+00 0 0 0
191 1 3.1119132960586395e+01 1.8517156809213120e+01 0.0000000000000000e+00 0 0 0
249 1 2.8499692698684452e+01 2.4505881803237951e+01 0.0000000000000000e+00 0 0 0
194 1 3.7721443418583078e+01 1.8024551961313321e+01 0.0000000000000000e+00 0 0 0
192 1 3.4680792211985604e+01 2.0183263339708276e+01 0.0000000000000000e+00 0 0 0
251 1 3.4989447645835824e+01 2.3773386848826885e+01 0.0000000000000000e+00 0 0 0
253 1 3.8030393635029952e+01 2.1805475925312038e+01 0.0000000000000000e+00 0 0 0
255 1 4.1468636866379931e+01 2.3236087160918359e+01 0.0000000000000000e+00 0 0 0
196 1 4.1068224164373653e+01 1.9525545821206485e+01 0.0000000000000000e+00 0 0 0
257 1 4.4562851036704636e+01 2.0993239899212202e+01 0.0000000000000000e+00 0 0 0
256 1 4.4882215192005241e+01 2.4835921545517870e+01 0.0000000000000000e+00 0 0 0
198 1 4.7492300364726951e+01 1.8623069189823266e+01 0.0000000000000000e+00 0 0 0
200 1 5.1049280182863406e+01 2.0043105627561904e+01 0.0000000000000000e+00 0 0 0
259 1 4.7994103148854137e+01 2.2306743506488306e+01 0.0000000000000000e+00 0 0 0
260 1 5.1483273958827773e+01 2.3889411122019713e+01 0.0000000000000000e+00 0 0 0
201 1 5.3988797546041638e+01 1.7807524250555105e+01 0.0000000000000000e+00 0 0 0
261 1 5.4421887069947346e+01 2.1726000406508682e+01 0.0000000000000000e+00 0 0 0
202 1 5.7339081537570976e+01 1.9413821643163050e+01 0.0000000000000000e+00 0 0 0
263 1 5.7957812631586670e+01 2.3309592209678666e+01 0.0000000000000000e+00 0 0 0
204 1 6.0888875898797160e+01 2.0982682116327421e+01 0.0000000000000000e+00 0 0 0
264 1 6.1340528572762445e+01 2.5014653231283901e+01 0.0000000000000000e+00 0 0 0
205 1 6.3867039748480927e+01 1.8636497271791196e+01 0.0000000000000000e+00 0 0 0
265 1 6.4192517495851178e+01 2.2663309889216613e+01 0.0000000000000000e+00 0 0 0
206 1 6.7897917292310794e+01 2.4007252434166656e+01 0.0000000000000000e+00 0 0 0
207 1 6.7129350776467447e+01 2.0326073171950487e+01 0.0000000000000000e+00 0 0 0
147 1 7.0142339897271299e+01 1.8053526730841874e+01 0.0000000000000000e+00 0 0 0
208 1 7.0849689977599041e+01 2.1855432769958789e+01 0.0000000000000000e+00 0 0 0
148 1 7.3784490991723459e+01 1.9460127559986343e+01 0.0000000000000000e+00 0 0 0
209 1 7.4330729291448591e+01 2.3493810772999758e+01 0.0000000000000000e+00 0 0 0
152 1 8.0226056248780978e+01 1.8916549771830198e+01 0.0000000000000000e+00 0 0 0
211 1 7.7249729102388528e+01 2.1005801939538507e+01 0.0000000000000000e+00 0 0 0
212 1 8.0894444770259582e+01 2.2698264786420982e+01 0.0000000000000000e+00 0 0 0
213 1 8.3718458666697799e+01 2.0369919517051667e+01 0.0000000000000000e+00 0 0 0
154 1 8.6827761861646920e+01 1.8140348764916865e+01 0.0000000000000000e+00 0 0 0
214 1 8.7506358689413588e+01 2.1894119125294484e+01 0.0000000000000000e+00 0 0 0
273 1 8.4228963899737181e+01 2.4063956221397579e+01 0.0000000000000000e+00 0 0 0
215 1 9.0622526299969934e+01 1.9623621922534308e+01 0.0000000000000000e+00 0 0 0
275 1 9.0867934621730186e+01 2.3555956389741691e+01 0.0000000000000000e+00 0 0 0
216 1 9.3956052885008432e+01 2.1230953960220404e+01 0.0000000000000000e+00 0 0 0
158 1 9.7292841224691642e+01 1.9835983016487628e+01 0.0000000000000000e+00 0 0 0
217 1 9.9814155476235399e+01 2.2783854609007978e+01 0.0000000000000000e+00 0 0 0
218 1 1.0095932841357100e+02 1.9173742621168522e+01 0.0000000000000000e+00 0 0 0
279 1 1.0363741636428436e+02 2.2146531036938864e+01 0.0000000000000000e+00 0 0 0
220 1 1.0456456738423930e+02 1.8508142861344687e+01 0.0000000000000000e+00 0 0 0
281 1 1.0721748327723066e+02 2.1292359831836311e+01 0.0000000000000000e+00 0 0 0
222 1 1.1091130664126263e+02 2.0329642120278127e+01 0.0000000000000000e+00 0 0 0
282 1 1.0990481207249785e+02 2.3977393679176100e+01 0.0000000000000000e+00 0 0 0
280 1 1.0611285026223445e+02 2.4872113525422812e+01 0.0000000000000000e+00 0 0 0
283 1 1.1352609246815771e+02 2.3185636300431440e+01 0.0000000000000000e+00 0 0 0
223 1 1.1447951631632435e+02 1.9511100866220996e+01 0.0000000000000000e+00 0 0 0
224 1 1.1719360599416021e+02 2.2067137075822473e+01 0.0000000000000000e+00 0 0 0
225 1 1.1808019671326200e+02 1.8445215719030273e+01 0.0000000000000000e+00 0 0 0
226 1 1.2077379501401344e+02 2.0999011469287208e+01 0.0000000000000000e+00 0 0 0
227 1 1.2431271089954174e+02 1.9994652208491701e+01 0.0000000000000000e+00 0 0 0
287 1 1.2364154184372772e+02 2.3570386035552907e+01 0.0000000000000000e+00 0 0 0
285 1 1.2002144246214665e+02 2.4577554139602451e+01 0.0000000000000000e+00 0 0 0
231 1 1.3184263311463684e+02 1.7941896568989087e+01 0.0000000000000000e+00 0 0 0
228 1 1.2724749640119732e+02 2.2500465293352928e+01 0.0000000000000000e+00 0 0 0
229 1 1.2824843506694867e+02 1.8955149718119202e+01 0.0000000000000000e+00 0 0 0
230 1 1.3096127802608169e+02 2.1544169647778343e+01 0.0000000000000000e+00 0 0 0
291 1 1.3359639375440196e+02 2.4268674293117932e+01 0.0000000000000000e+00 0 0 0
232 1 1.3453466192086239e+02 2.0601532628784035e+01 0.0000000000000000e+00 0 0 0
233 1 1.3842298737958026e+02 1.9741447608773075e+01 0.0000000000000000e+00 0 0 0
293 1 1.3728193125803540e+02 2.3374203386957809e+01 0.0000000000000000e+00 0 0 0
234 1 1.4098247485550780e+02 2.2356570515125725e+01 0.0000000000000000e+00 0 0 0
235 1 1.4192935028580985e+02 1.8625643718395700e+01 0.0000000000000000e+00 0 0 0
236 1 1.4469255320640934e+02 2.1102207116785721e+01 0.0000000000000000e+00 0 0 0
297 1 1.4723759898293116e+02 2.3833722848192771e+01 0.0000000000000000e+00 0 0 0
237 1 1.4845115951945837e+02 2.0139355264313707e+01 0.0000000000000000e+00 0 0 0
241 1 1.5480714001588353e+02 2.1863845232951430e+01 0.0000000000000000e+00 -1 0 0
299 1 1.5106869425390283e+02 2.2827971933211394e+01 0.0000000000000000e+00 0 0 0
240 1 1.5214807314736987e+02 1.9154964595373528e+01 0.0000000000000000e+00 0 0 0
303 1 8.4877716792258155e+00 2.7213327317717219e+01 0.0000000000000000e+00 0 0 0
363 1 7.3538778119697579e+00 3.1084982665388296e+01 0.0000000000000000e+00 0 0 0
301 1 4.9357429036202705e+00 2.8050480010047838e+01 0.0000000000000000e+00 0 0 0
302 1 3.5155980503390190e+00 3.1732829115427837e+01 0.0000000000000000e+00 0 0 0
305 1 1.5295106626224747e+01 2.5459858621416057e+01 0.0000000000000000e+00 0 0 0
244 1 1.2328556610711139e+01 2.7806716887166488e+01 0.0000000000000000e+00 0 0 0
365 1 1.5742040067591578e+01 2.9342516872927256e+01 0.0000000000000000e+00 0 0 0
304 1 1.2647081004245925e+01 3.1800842291192598e+01 0.0000000000000000e+00 0 0 0
306 1 1.8747114959599735e+01 2.7072331438350876e+01 0.0000000000000000e+00 0 0 0
366 1 1.9096146561004382e+01 3.1100159845358579e+01 0.0000000000000000e+00 0 0 0
367 1 2.2210919733572347e+01 2.8938699234785361e+01 0.0000000000000000e+00 0 0 0
308 1 2.5401728909657159e+01 2.6685259653559768e+01 0.0000000000000000e+00 0 0 0
369 1 2.5866434622582087e+01 3.0488727721187455e+01 0.0000000000000000e+00 0 0 0
309 1 2.8865571989820882e+01 2.8335873310782535e+01 0.0000000000000000e+00 0 0 0
250 1 3.1970391891933957e+01 2.6142505549921434e+01 0.0000000000000000e+00 0 0 0
310 1 2.9234441459449116e+01 3.2097063324737789e+01 0.0000000000000000e+00 0 0 0
311 1 3.2354202994936614e+01 2.9866535654523471e+01 0.0000000000000000e+00 0 0 0
254 1 3.8515391663683729e+01 2.5561352514435168e+01 0.0000000000000000e+00 0 0 0
252 1 3.5450524554674615e+01 2.7712899092529536e+01 0.0000000000000000e+00 0 0 0
313 1 3.8917862747227204e+01 2.9256233335009767e+01 0.0000000000000000e+00 0 0 0
312 1 3.5787440145337875e+01 3.1627262085650891e+01 0.0000000000000000e+00 0 0 0
315 1 4.1977671478996001e+01 2.7016449498011099e+01 0.0000000000000000e+00 0 0 0
314 1 4.2185622822053482e+01 3.0906713484209526e+01 0.0000000000000000e+00 0 0 0
317 1 4.5242818318147670e+01 2.8551399791104970e+01 0.0000000000000000e+00 0 0 0
258 1 4.8448883335821222e+01 2.6144198741876995e+01 0.0000000000000000e+00 0 0 0
318 1 4.8766438261257434e+01 2.9933468288519606e+01 0.0000000000000000e+00 0 0 0
319 1 5.1846376045591036e+01 2.7804614862481987e+01 0.0000000000000000e+00 0 0 0
379 1 5.2177122791131680e+01 3.1706406272631490e+01 0.0000000000000000e+00 0 0 0
262 1 5.4888605820912609e+01 2.5505445170597952e+01 0.0000000000000000e+00 0 0 0
321 1 5.5101088606830295e+01 2.9488434062724071e+01 0.0000000000000000e+00 0 0 0
323 1 5.8198970823314390e+01 2.7172303929111749e+01 0.0000000000000000e+00 0 0 0
322 1 5.8555191847928427e+01 3.0995471528957722e+01 0.0000000000000000e+00 0 0 0
324 1 6.1656321564835402e+01 2.8815617461783127e+01 0.0000000000000000e+00 0 0 0
325 1 6.5209642688762514e+01 3.0267529428521318e+01 0.0000000000000000e+00 0 0 0
266 1 6.4824668152881785e+01 2.6382328831640940e+01 0.0000000000000000e+00 0 0 0
327 1 6.8136670429579937e+01 2.7954631585632644e+01 0.0000000000000000e+00 0 0 0
267 1 7.1295847843014997e+01 2.5695406571695926e+01 0.0000000000000000e+00 0 0 0
268 1 7.1616525576683998e+01 2.9320964085409770e+01 0.0000000000000000e+00 0 0 0
269 1 7.4826297000048186e+01 2.7175870296839896e+01 0.0000000000000000e+00 0 0 0
329 1 7.5173991467199940e+01 3.1002835034133540e+01 0.0000000000000000e+00 0 0 0
326 1 6.8692716952243416e+01 3.1699219296525236e+01 0.0000000000000000e+00 0 0 0
210 1 7.7822887076526172e+01 2.4856375100811473e+01 0.0000000000000000e+00 0 0 0
270 1 7.8344430749585570e+01 2.8674741356455982e+01 0.0000000000000000e+00 0 0 0
271 1 8.1246097076604457e+01 2.6447737900469161e+01 0.0000000000000000e+00 0 0 0
331 1 8.1757495858118446e+01 3.0146769908386421e+01 0.0000000000000000e+00 0 0 0
274 1 8.7730461766034978e+01 2.5617016379212895e+01 0.0000000000000000e+00 0 0 0
272 1 8.4862494522921409e+01 2.7859719161813302e+01 0.0000000000000000e+00 0 0 0
333 1 8.8146236938638424e+01 2.9586434477651217e+01 0.0000000000000000e+00 0 0 0
332 1 8.5075768120232993e+01 3.1766608040936770e+01 0.0000000000000000e+00 0 0 0
277 1 9.4272707442998836e+01 2.5019913411136155e+01 0.0000000000000000e+00 0 0 0
335 1 9.1105178429164539e+01 2.7240141770301172e+01 0.0000000000000000e+00 0 0 0
276 1 9.4710024596846281e+01 2.8752559901434271e+01 0.0000000000000000e+00 0 0 0
334 1 9.1500141058482029e+01 3.1042182488366752e+01 0.0000000000000000e+00 0 0 0
278 1 9.8604624956073451e+01 2.6561257386434221e+01 0.0000000000000000e+00 0 0 0
337 1 9.7952655543780921e+01 3.0378384487256735e+01 0.0000000000000000e+00 0 0 0
338 1 1.0141151377392057e+02 2.9068856119528547e+01 0.0000000000000000e+00 0 0 0
339 1 1.0246450314436393e+02 2.5595903777334620e+01 0.0000000000000000e+00 0 0 0
399 1 1.0367243515065228e+02 3.2327974679108650e+01 0.0000000000000000e+00 0 0 0
340 1 1.0506339702979730e+02 2.8611423366342976e+01 0.0000000000000000e+00 0 0 0
341 1 1.0876776399272491e+02 2.7543915054585518e+01 0.0000000000000000e+00 0 0 0
342 1 1.1149408572864907e+02 3.0427996644992554e+01 0.0000000000000000e+00 0 0 0
401 1 1.0774624664811073e+02 3.1365281254447318e+01 0.0000000000000000e+00 0 0 0
343 1 1.1253612333609769e+02 2.6759435751067205e+01 0.0000000000000000e+00 0 0 0
344 1 1.1519342946764502e+02 2.9338887515859238e+01 0.0000000000000000e+00 0 0 0
284 1 1.1622157171205738e+02 2.5673330290983490e+01 0.0000000000000000e+00 0 0 0
345 1 1.1891807930750015e+02 2.8430730790471074e+01 0.0000000000000000e+00 0 0 0
286 1 1.2257611472087768e+02 2.7414400909857903e+01 0.0000000000000000e+00 0 0 0
347 1 1.2509812070873056e+02 3.0191849054186282e+01 0.0000000000000000e+00 0 0 0
346 1 1.2146491927766283e+02 3.1137110129645457e+01 0.0000000000000000e+00 0 0 0
288 1 1.2625884390190134e+02 2.6302924176762279e+01 0.0000000000000000e+00 0 0 0
289 1 1.2989332044318644e+02 2.5304666495792713e+01 0.0000000000000000e+00 0 0 0
349 1 1.2892172999868416e+02 2.8936075036367168e+01 0.0000000000000000e+00 0 0 0
290 1 1.3260839324274917e+02 2.8065157054844004e+01 0.0000000000000000e+00 0 0 0
350 1 1.3172579288732265e+02 3.1777633058418939e+01 0.0000000000000000e+00 0 0 0
351 1 1.3521385706452980e+02 3.0718562181421987e+01 0.0000000000000000e+00 0 0 0
292 1 1.3634840579871752e+02 2.7130635809916257e+01 0.0000000000000000e+00 0 0 0
353 1 1.3889169786509905e+02 2.9701523855280804e+01 0.0000000000000000e+00 0 0 0
294 1 1.3991626797295663e+02 2.5885977680082842e+01 0.0000000000000000e+00 0 0 0
295 1 1.4341190187312088e+02 2.4957940227084897e+01 0.0000000000000000e+00 0 0 0
355 1 1.4257094558834899e+02 2.8707307091703051e+01 0.0000000000000000e+00 0 0 0
296 1 1.4614510375745476e+02 2.7422103415718642e+01 0.0000000000000000e+00 0 0 0
356 1 1.4536481604641557e+02 3.1233768972856343e+01 0.0000000000000000e+00 0 0 0
354 1 1.4177227543881423e+02 3.2515113039829515e+01 0.0000000000000000e+00 0 0 0
358 1 1.4882850924970131e+02 2.9974524641654515e+01 0.0000000000000000e+00 0 0 0
298 1 1.4993342797173432e+02 2.6344437204346587e+01 0.0000000000000000e+00 0 0 0
300 1 1.5370264210445811e+02 2.5571448379182662e+01 0.0000000000000000e+00 0 0 0
359 1 1.5278626340210627e+02 2.9148551295105513e+01 0.0000000000000000e+00 0 0 0
361 1 5.9016767689931502e+00 3.4625861117863707e+01 0.0000000000000000e+00 0 0 0
421 1 4.9499449548272016e+00 3.8086397351002972e+01 0.0000000000000000e+00 0 0 0
364 1 9.5851431710562860e+00 3.4078871835181559e+01 0.0000000000000000e+00 0 0 0
362 1 1.0039816305275160e+01 3.7873815027788439e+01 0.0000000000000000e+00 0 0 0
425 1 1.6059213947568121e+01 3.3322218634409225e+01 0.0000000000000000e+00 0 0 0
423 1 1.3116393660064668e+01 3.5504392575905207e+01 0.0000000000000000e+00 0 0 0
424 1 1.6726304620550799e+01 3.7019372607746071e+01 0.0000000000000000e+00 0 0 0
483 1 1.3591975754785604e+01 3.9382492122361711e+01 0.0000000000000000e+00 0 0 0
368 1 2.2910410707275073e+01 3.2830504441779340e+01 0.0000000000000000e+00 0 0 0
427 1 1.9701180600037439e+01 3.4696487592210097e+01 0.0000000000000000e+00 0 0 0
428 1 2.3165363596068293e+01 3.6465887437146961e+01 0.0000000000000000e+00 0 0 0
426 1 2.0013727986320927e+01 3.8500262328741883e+01 0.0000000000000000e+00 0 0 0
429 1 2.6271455046490516e+01 3.4274255492328038e+01 0.0000000000000000e+00 0 0 0
430 1 2.6718982805474703e+01 3.8157384139114335e+01 0.0000000000000000e+00 0 0 0
370 1 2.9714098487676640e+01 3.5961324575969854e+01 0.0000000000000000e+00 0 0 0
371 1 3.2719471644840667e+01 3.3722632906493203e+01 0.0000000000000000e+00 0 0 0
431 1 3.3113673337271145e+01 3.7565305916625341e+01 0.0000000000000000e+00 0 0 0
372 1 3.6292813556302725e+01 3.5398232315601604e+01 0.0000000000000000e+00 0 0 0
433 1 3.6514395805494239e+01 3.9139441961564224e+01 0.0000000000000000e+00 0 0 0
373 1 3.9217140576415389e+01 3.3093497942043541e+01 0.0000000000000000e+00 0 0 0
316 1 4.5645896291519961e+01 3.2320515820008140e+01 0.0000000000000000e+00 0 0 0