LAMMPS data file via write_data, version 17 Nov 2016, timestep = 220000

1800 atoms
1 atom types

3.2416335152659030e+00 1.5515836648473208e+02 xlo xhi
3.2416335152659030e+00 1.5515836648473208e+02 ylo yhi
0.0000000000000000e+00 5.2800000000000002e+00 zlo zhi

Masses

1 39.958

Atoms # atomic

2 1 6.2423649474905423e+00 5.8555142176077331e+00 0.0000000000000000e+00 0 0 0
3 1 9.8811538249736106e+00 4.9910094723633733e+00 0.0000000000000000e+00 0 0 0
33 1 8.6518392091284024e+00 8.6847550202671648e+00 0.0000000000000000e+00 0 0 0
31 1 4.7203320667081154e+00 9.5984302979845815e+00 0.0000000000000000e+00 0 0 0
4 1 1.2442471282404016e+01 7.6409232374492841e+00 0.0000000000000000e+00 0 0 0
6 1 1.6096816624300981e+01 6.5710799643573594e+00 0.0000000000000000e+00 0 0 0
5 1 1.3693543301590331e+01 3.9119786946984685e+00 0.0000000000000000e+00 0 0 0
35 1 1.5158684304466295e+01 1.0340517597929455e+01 0.0000000000000000e+00 0 0 0
37 1 1.8792649012995106e+01 9.3572910179080431e+00 0.0000000000000000e+00 0 0 0
8 1 1.9938564948378577e+01 5.8532274711660222e+00 0.0000000000000000e+00 0 0 0
9 1 2.2696940595815263e+01 8.4208936797540161e+00 0.0000000000000000e+00 0 0 0
880 1 2.3871412681604195e+01 4.8311443081805319e+00 0.0000000000000000e+00 0 1 0
10 1 2.6156704334947253e+01 7.5844354508187939e+00 0.0000000000000000e+00 0 0 0
11 1 2.7489723925121382e+01 4.0253715930827019e+00 0.0000000000000000e+00 0 0 0
12 1 2.9867120916180841e+01 6.8767545553957259e+00 0.0000000000000000e+00 0 0 0
43 1 3.2506234973831113e+01 9.5599953607712340e+00 0.0000000000000000e+00 0 0 0
41 1 2.8667388530714856e+01 1.0372145618649718e+01 0.0000000000000000e+00 0 0 0
14 1 3.3754846660072317e+01 5.8337005533864108e+00 0.0000000000000000e+00 0 0 0
44 1 3.6274104991577225e+01 8.6147511670737771e+00 0.0000000000000000e+00 0 0 0
45 1 3.7428836705017076e+01 5.1929041193905645e+00 0.0000000000000000e+00 0 0 0
46 1 4.0160946706561788e+01 7.8353097628424102e+00 0.0000000000000000e+00 0 0 0
16 1 4.1237424332444618e+01 4.0918369042415570e+00 0.0000000000000000e+00 0 0 0
47 1 4.3754993052858907e+01 7.1437690892444881e+00 0.0000000000000000e+00 0 0 0
49 1 4.7431464768740291e+01 6.3760888262476918e+00 0.0000000000000000e+00 0 0 0
48 1 4.6669117281193429e+01 9.9947025511066308e+00 0.0000000000000000e+00 0 0 0
120 1 7.9143196444983559e+01 2.2785461785963580e+01 0.0000000000000000e+00 0 0 0
77 1 4.2938913284122272e+01 1.0849735635204617e+01 0.0000000000000000e+00 0 0 0
50 1 5.0243465896234000e+01 9.0617232258720506e+00 0.0000000000000000e+00 0 0 0
20 1 5.1185297181852327e+01 5.2399853284179994e+00 0.0000000000000000e+00 0 0 0
51 1 5.3886990613771033e+01 8.1494606051454852e+00 0.0000000000000000e+00 0 0 0
21 1 5.4935571732822552e+01 4.4358036733563049e+00 0.0000000000000000e+00 0 0 0
52 1 5.6502772404670651e+01 1.1002165413427829e+01 0.0000000000000000e+00 0 0 0
22 1 5.7599756208927481e+01 7.4239734803124611e+00 0.0000000000000000e+00 0 0 0
24 1 6.1452716150820862e+01 6.5520485626925717e+00 0.0000000000000000e+00 0 0 0
53 1 6.0226132281824086e+01 1.0161719954487335e+01 0.0000000000000000e+00 0 0 0
55 1 6.3815820309049663e+01 9.5111170238588087e+00 0.0000000000000000e+00 0 0 0
23 1 5.8738957256348307e+01 3.7401575273698979e+00 0.0000000000000000e+00 0 0 0
25 1 6.5070427994613240e+01 5.3733940883607163e+00 0.0000000000000000e+00 0 0 0
26 1 6.7438909917511324e+01 8.0562340393694072e+00 0.0000000000000000e+00 0 0 0
27 1 6.9587875982768580e+01 4.8774597403861932e+00 0.0000000000000000e+00 0 0 0
28 1 7.1018554315116077e+01 8.9732251395104203e+00 0.0000000000000000e+00 0 0 0
30 1 7.8465165532340109e+01 9.4488793290673527e+00 0.0000000000000000e+00 0 0 0
898 1 7.3212959022890786e+01 5.7258152273425686e+00 0.0000000000000000e+00 0 1 0
29 1 7.7001670598049515e+01 6.0337942988195259e+00 0.0000000000000000e+00 0 0 0
59 1 7.4780385644803957e+01 9.1836774177012330e+00 0.0000000000000000e+00 0 0 0
32 1 7.5567184248601302e+00 1.2282325669540908e+01 0.0000000000000000e+00 0 0 0
62 1 6.1964777706225194e+00 1.5750830281307099e+01 0.0000000000000000e+00 0 0 0
63 1 1.0110847802583876e+01 1.5001905907938712e+01 0.0000000000000000e+00 0 0 0
61 1 3.8269737164558011e+00 1.2947503410117370e+01 0.0000000000000000e+00 0 0 0
34 1 1.1319055442809292e+01 1.1206810840019678e+01 0.0000000000000000e+00 0 0 0
65 1 1.3827661115081581e+01 1.4008761645843196e+01 0.0000000000000000e+00 0 0 0
66 1 1.6226798355578801e+01 1.6785120254000411e+01 0.0000000000000000e+00 0 0 0
36 1 1.7686393152714182e+01 1.3065560901312018e+01 0.0000000000000000e+00 0 0 0
64 1 1.2580763283403920e+01 1.7676804545593527e+01 0.0000000000000000e+00 0 0 0
39 1 2.5124084447630199e+01 1.1127572340180940e+01 0.0000000000000000e+00 0 0 0
38 1 2.1468471980520370e+01 1.1923834935146671e+01 0.0000000000000000e+00 0 0 0
67 1 2.0031452057761140e+01 1.5917269244614578e+01 0.0000000000000000e+00 0 0 0
69 1 2.3829600324556552e+01 1.4889280393375374e+01 0.0000000000000000e+00 0 0 0
70 1 2.6343205993227183e+01 1.7610187126968441e+01 0.0000000000000000e+00 0 0 0
40 1 2.7531740661858944e+01 1.4146104078416109e+01 0.0000000000000000e+00 0 0 0
71 1 3.0102988744061371e+01 1.6862638645150028e+01 0.0000000000000000e+00 0 0 0
42 1 3.1201491096157163e+01 1.3300502032745698e+01 0.0000000000000000e+00 0 0 0
72 1 3.3771834673248776e+01 1.5987296654293985e+01 0.0000000000000000e+00 0 0 0
73 1 3.5027951939186984e+01 1.2366243690485408e+01 0.0000000000000000e+00 0 0 0
74 1 3.7555385950639078e+01 1.5043279464405035e+01 0.0000000000000000e+00 0 0 0
75 1 3.9035937090671020e+01 1.1569357244791542e+01 0.0000000000000000e+00 0 0 0
106 1 4.0171072527106453e+01 1.7904013914204523e+01 0.0000000000000000e+00 0 0 0
76 1 4.1547914343179613e+01 1.4290795237869544e+01 0.0000000000000000e+00 0 0 0
78 1 4.5460062784414610e+01 1.3759243322147890e+01 0.0000000000000000e+00 0 0 0
109 1 4.7948123439464794e+01 1.6639200042938654e+01 0.0000000000000000e+00 0 0 0
107 1 4.3890622373650878e+01 1.7326563622457819e+01 0.0000000000000000e+00 0 0 0
79 1 4.9040681524562430e+01 1.2954501773845605e+01 0.0000000000000000e+00 0 0 0
80 1 5.1736716588075673e+01 1.5661368028847413e+01 0.0000000000000000e+00 0 0 0
81 1 5.2758206804667367e+01 1.1850402562747396e+01 0.0000000000000000e+00 0 0 0
82 1 5.5277035275550951e+01 1.4714046890073742e+01 0.0000000000000000e+00 0 0 0
83 1 5.9030302856371684e+01 1.3617304276474604e+01 0.0000000000000000e+00 0 0 0
113 1 6.1102172467696626e+01 1.6961379939555730e+01 0.0000000000000000e+00 0 0 0
54 1 6.2817955415458883e+01 1.3055784699252488e+01 0.0000000000000000e+00 0 0 0
56 1 6.6731199176454112e+01 1.1766132711333906e+01 0.0000000000000000e+00 0 0 0
57 1 7.0337612328997352e+01 1.2822810975409649e+01 0.0000000000000000e+00 0 0 0
85 1 6.7506492137054650e+01 1.5439866740940102e+01 0.0000000000000000e+00 0 0 0
87 1 7.1197361829190811e+01 1.6536705443644806e+01 0.0000000000000000e+00 0 0 0
84 1 6.4710919942437755e+01 1.7888604980373600e+01 0.0000000000000000e+00 0 0 0
88 1 7.4520435575552682e+01 1.8084578134047604e+01 0.0000000000000000e+00 0 0 0
58 1 7.3975258193638368e+01 1.3654644835918241e+01 0.0000000000000000e+00 0 0 0
89 1 7.7205440305509939e+01 1.5567710724761598e+01 0.0000000000000000e+00 0 0 0
93 1 8.7279202468031301e+00 1.8508071330654765e+01 0.0000000000000000e+00 0 0 0
92 1 7.5213972175516037e+00 2.2123739663051644e+01 0.0000000000000000e+00 0 0 0
91 1 5.0097018361116623e+00 1.9395348812514996e+01 0.0000000000000000e+00 0 0 0
121 1 3.7970675609944342e+00 2.3105527780742637e+01 0.0000000000000000e+00 0 0 0
123 1 1.0192293799561792e+01 2.5024115211865929e+01 0.0000000000000000e+00 0 0 0
122 1 6.4723427971060827e+00 2.5875153787837920e+01 0.0000000000000000e+00 0 0 0
94 1 1.1464518550212899e+01 2.1154643083676497e+01 0.0000000000000000e+00 0 0 0
95 1 1.5154704547315035e+01 2.0327452965897358e+01 0.0000000000000000e+00 0 0 0
125 1 1.3798197424502153e+01 2.3931990736524639e+01 0.0000000000000000e+00 0 0 0
96 1 1.7472369302880917e+01 2.3218992050131771e+01 0.0000000000000000e+00 0 0 0
68 1 2.2620556725075030e+01 1.8594808748087644e+01 0.0000000000000000e+00 0 0 0
97 1 1.8783460004153376e+01 1.9495749645608999e+01 0.0000000000000000e+00 0 0 0
98 1 2.1343860385836916e+01 2.2244448598342764e+01 0.0000000000000000e+00 0 0 0
99 1 2.5022954107245205e+01 2.1373435191139141e+01 0.0000000000000000e+00 0 0 0
129 1 2.3718960325202410e+01 2.4984109440625225e+01 0.0000000000000000e+00 0 0 0
127 1 2.0099593869823288e+01 2.5945262246212465e+01 0.0000000000000000e+00 0 0 0
100 1 2.8646627811493119e+01 2.0516807386701377e+01 0.0000000000000000e+00 0 0 0
130 1 2.7515397548938381e+01 2.4052557020365331e+01 0.0000000000000000e+00 0 0 0
131 1 3.1297358259589860e+01 2.2953037323430578e+01 0.0000000000000000e+00 0 0 0
101 1 3.2797669711991233e+01 1.9642071437383088e+01 0.0000000000000000e+00 0 0 0
103 1 3.6537083389808963e+01 1.8799176237931263e+01 0.0000000000000000e+00 0 0 0
102 1 3.5382697673324948e+01 2.2159979999410687e+01 0.0000000000000000e+00 0 0 0
105 1 3.9156787699819006e+01 2.1510731426403066e+01 0.0000000000000000e+00 0 0 0
104 1 3.7801131997317640e+01 2.5080842030991864e+01 0.0000000000000000e+00 0 0 0
133 1 3.3746915823914357e+01 2.5667999711010236e+01 0.0000000000000000e+00 0 0 0
136 1 4.1525904882518113e+01 2.4619260678668354e+01 0.0000000000000000e+00 0 0 0
135 1 4.2777798035351751e+01 2.0900598130746197e+01 0.0000000000000000e+00 0 0 0
137 1 4.5098138328971679e+01 2.3722052098802383e+01 0.0000000000000000e+00 0 0 0
108 1 4.6699264151073379e+01 2.0347485329694642e+01 0.0000000000000000e+00 0 0 0
111 1 5.4282583439240682e+01 1.8518042019131066e+01 0.0000000000000000e+00 0 0 0
139 1 4.8856632273682195e+01 2.3870261056915016e+01 0.0000000000000000e+00 0 0 0
110 1 5.0616018460580882e+01 1.9703913721535702e+01 0.0000000000000000e+00 0 0 0
141 1 5.5286813250114747e+01 2.2188969868755127e+01 0.0000000000000000e+00 0 0 0
140 1 5.2575839918507263e+01 2.4811625804183279e+01 0.0000000000000000e+00 0 0 0
142 1 5.6534790925996205e+01 2.5819514883874003e+01 0.0000000000000000e+00 0 0 0
112 1 5.8147995174366422e+01 1.9701266974313803e+01 0.0000000000000000e+00 0 0 0
114 1 6.1851141353524341e+01 2.0620307593173703e+01 0.0000000000000000e+00 0 0 0
143 1 5.9346745192974815e+01 2.3390599701786652e+01 0.0000000000000000e+00 0 0 0
144 1 6.2830844768477107e+01 2.4326302338128677e+01 0.0000000000000000e+00 0 0 0
86 1 6.8395516973902218e+01 1.9127022551478497e+01 0.0000000000000000e+00 0 0 0
115 1 6.5519560773797394e+01 2.1736104795318180e+01 0.0000000000000000e+00 0 0 0
116 1 6.9322460519144300e+01 2.3138410154528504e+01 0.0000000000000000e+00 0 0 0
145 1 6.6480795006748338e+01 2.5596992704660330e+01 0.0000000000000000e+00 0 0 0
117 1 7.1897661775562682e+01 2.0581440755053784e+01 0.0000000000000000e+00 0 0 0
90 1 7.8238935122565451e+01 1.9147328858320932e+01 0.0000000000000000e+00 0 0 0
118 1 7.2843123820435622e+01 2.4169546494288515e+01 0.0000000000000000e+00 0 0 0
119 1 7.5461112415497510e+01 2.1651861589977930e+01 0.0000000000000000e+00 0 0 0
149 1 7.6459388064282294e+01 2.5317780115351123e+01 0.0000000000000000e+00 0 0 0
153 1 8.9178994277187904e+00 2.8706841525832374e+01 0.0000000000000000e+00 0 0 0
152 1 5.3176727621780309e+00 2.9687293741845647e+01 0.0000000000000000e+00 0 0 0
183 1 8.0086098354377846e+00 3.2327222187800473e+01 0.0000000000000000e+00 0 0 0
1080 1 4.2025618110592351e+00 3.3261710570289132e+01 0.0000000000000000e+00 1 0 0
124 1 1.2627854361039704e+01 2.7781165285733000e+01 0.0000000000000000e+00 0 0 0
126 1 1.6276788847986737e+01 2.6838074140082433e+01 0.0000000000000000e+00 0 0 0
155 1 1.5290557063716143e+01 3.0552584796977374e+01 0.0000000000000000e+00 0 0 0
154 1 1.1528103415925168e+01 3.1418625416174407e+01 0.0000000000000000e+00 0 0 0
156 1 1.7911697532283089e+01 3.3273621361753712e+01 0.0000000000000000e+00 0 0 0
128 1 2.2724485941428320e+01 2.8747942504096670e+01 0.0000000000000000e+00 0 0 0
157 1 1.8881441875485102e+01 2.9548751190543406e+01 0.0000000000000000e+00 0 0 0
160 1 2.5351859086193318e+01 3.1345744040356163e+01 0.0000000000000000e+00 0 0 0
158 1 2.1439114325699123e+01 3.2294185467904533e+01 0.0000000000000000e+00 0 0 0
132 1 2.9988363819643460e+01 2.6725617631206674e+01 0.0000000000000000e+00 0 0 0
159 1 2.6367501548868773e+01 2.7789769152970131e+01 0.0000000000000000e+00 0 0 0
161 1 2.8988672335550952e+01 3.0437277591226398e+01 0.0000000000000000e+00 0 0 0
162 1 3.1451239336793545e+01 3.3160149226037888e+01 0.0000000000000000e+00 0 0 0
163 1 3.2683906566599418e+01 2.9492860174697629e+01 0.0000000000000000e+00 0 0 0
134 1 3.6233468207709407e+01 2.8391408273842227e+01 0.0000000000000000e+00 0 0 0
164 1 3.7935438036716953e+01 3.1488514008346357e+01 0.0000000000000000e+00 0 0 0
165 1 4.0192520148809351e+01 2.8094811049288882e+01 0.0000000000000000e+00 0 0 0
166 1 4.1436588221765817e+01 3.2241342077942193e+01 0.0000000000000000e+00 0 0 0
167 1 4.3758141286857999e+01 2.9357535683266242e+01 0.0000000000000000e+00 0 0 0
138 1 4.6669157563803921e+01 2.6938519628742107e+01 0.0000000000000000e+00 0 0 0
168 1 4.7650812791091887e+01 3.0588650868402912e+01 0.0000000000000000e+00 0 0 0
197 1 4.5054763981782266e+01 3.3114261945788137e+01 0.0000000000000000e+00 0 0 0
169 1 5.0186499623509050e+01 2.7675807225511203e+01 0.0000000000000000e+00 0 0 0
171 1 5.3776797319922238e+01 2.8609704662514272e+01 0.0000000000000000e+00 0 0 0
170 1 5.1316084705854983e+01 3.1510037563989641e+01 0.0000000000000000e+00 0 0 0
201 1 5.4868995166532216e+01 3.2289738808694935e+01 0.0000000000000000e+00 0 0 0
172 1 5.7403848728053639e+01 2.9574296877146359e+01 0.0000000000000000e+00 0 0 0
173 1 6.0059627354670880e+01 2.7153572986628102e+01 0.0000000000000000e+00 0 0 0
174 1 6.1137732038390936e+01 3.0792330827173050e+01 0.0000000000000000e+00 0 0 0
175 1 6.3741407864129997e+01 2.7956514675153702e+01 0.0000000000000000e+00 0 0 0
203 1 5.8375939545477188e+01 3.3430892567592984e+01 0.0000000000000000e+00 0 0 0
147 1 7.0074646008166013e+01 2.6696486663443139e+01 0.0000000000000000e+00 0 0 0
146 1 6.7276217007411915e+01 2.9319638709556084e+01 0.0000000000000000e+00 0 0 0
205 1 6.4732806170157403e+01 3.2074676399689672e+01 0.0000000000000000e+00 0 0 0
176 1 6.8303764830379947e+01 3.3033222433299592e+01 0.0000000000000000e+00 0 0 0
177 1 7.0932777420060916e+01 3.0468305089872846e+01 0.0000000000000000e+00 0 0 0
148 1 7.3794114616733424e+01 2.7978430822708958e+01 0.0000000000000000e+00 0 0 0
150 1 7.7515918512436755e+01 2.8922102198324612e+01 0.0000000000000000e+00 0 0 0
179 1 7.4935930455034281e+01 3.1515861227159945e+01 0.0000000000000000e+00 0 0 0
180 1 7.8517000454338799e+01 3.2608851359476901e+01 0.0000000000000000e+00 0 0 0
182 1 6.8388836392253562e+00 3.5959023472495353e+01 0.0000000000000000e+00 0 0 0
213 1 9.3410698605868951e+00 3.8761467236365633e+01 0.0000000000000000e+00 0 0 0
211 1 5.6119830302806140e+00 3.9679108362016137e+01 0.0000000000000000e+00 0 0 0
184 1 1.0505711284710713e+01 3.5141618217260415e+01 0.0000000000000000e+00 0 0 0
185 1 1.4132212888421639e+01 3.4036319647135819e+01 0.0000000000000000e+00 0 0 0
186 1 1.6644886274928055e+01 3.6823112775588442e+01 0.0000000000000000e+00 0 0 0
215 1 1.3114701581303159e+01 3.7876876944136001e+01 0.0000000000000000e+00 0 0 0
216 1 1.6050753000847202e+01 4.0718830232626665e+01 0.0000000000000000e+00 0 0 0
214 1 1.1924407384833998e+01 4.1479390273321435e+01 0.0000000000000000e+00 0 0 0
187 1 2.0388816957724554e+01 3.5921755097196474e+01 0.0000000000000000e+00 0 0 0
188 1 2.3148742564250625e+01 4.0002293558539712e+01 0.0000000000000000e+00 0 0 0
189 1 2.4233334685421045e+01 3.4848602024360517e+01 0.0000000000000000e+00 0 0 0
217 1 1.9441960540104695e+01 3.9435174946389246e+01 0.0000000000000000e+00 0 0 0
191 1 2.8052944156234275e+01 3.4577616130031352e+01 0.0000000000000000e+00 0 0 0
190 1 2.6186173607659921e+01 3.7894903894388044e+01 0.0000000000000000e+00 0 0 0
192 1 3.2401318619706515e+01 3.6475160150070003e+01 0.0000000000000000e+00 0 0 0
221 1 2.9730069136048495e+01 3.9111321237378597e+01 0.0000000000000000e+00 0 0 0
223 1 3.3199108981030733e+01 4.0157401658330080e+01 0.0000000000000000e+00 0 0 0
193 1 3.5151827098026125e+01 3.3976449843414315e+01 0.0000000000000000e+00 0 0 0
194 1 3.6105849672061332e+01 3.7661376867837177e+01 0.0000000000000000e+00 0 0 0
195 1 3.8779441710188287e+01 3.4980342804200788e+01 0.0000000000000000e+00 0 0 0
225 1 3.9742955469829013e+01 3.8517857083841257e+01 0.0000000000000000e+00 0 0 0
196 1 4.2423586711528777e+01 3.5771223011136875e+01 0.0000000000000000e+00 0 0 0
198 1 4.5901996121908844e+01 3.6985753552169413e+01 0.0000000000000000e+00 0 0 0
227 1 4.3348343917661559e+01 3.9628858027886736e+01 0.0000000000000000e+00 0 0 0
228 1 4.6896880300349252e+01 4.0559105236570026e+01 0.0000000000000000e+00 0 0 0
199 1 4.8635975460869702e+01 3.4197351310432197e+01 0.0000000000000000e+00 0 0 0
200 1 5.2257617460050788e+01 3.5057936566176991e+01 0.0000000000000000e+00 0 0 0
229 1 4.9543777535510209e+01 3.7694720921301702e+01 0.0000000000000000e+00 0 0 0
231 1 5.3288707737813446e+01 3.8805917718502130e+01 0.0000000000000000e+00 0 0 0
202 1 5.5920714516935192e+01 3.6157497500903546e+01 0.0000000000000000e+00 0 0 0
204 1 6.1906746620919371e+01 3.4473868827609365e+01 0.0000000000000000e+00 0 0 0
233 1 5.9499875663809938e+01 3.7105275007587444e+01 0.0000000000000000e+00 0 0 0
235 1 6.3065150263908812e+01 3.8119866625928985e+01 0.0000000000000000e+00 0 0 0
232 1 5.6863803202378769e+01 3.9787199998313916e+01 0.0000000000000000e+00 0 0 0
234 1 6.0595720634911707e+01 4.0772418538020688e+01 0.0000000000000000e+00 0 0 0
207 1 6.9329511456108420e+01 3.6535454900135001e+01 0.0000000000000000e+00 0 0 0
206 1 6.6761204629539179e+01 3.9266511341575374e+01 0.0000000000000000e+00 0 0 0
237 1 7.0541986228214085e+01 4.0203771348293742e+01 0.0000000000000000e+00 0 0 0
178 1 7.2106106462769205e+01 3.4087025587870514e+01 0.0000000000000000e+00 0 0 0
208 1 7.3320895832234740e+01 3.7627798511709436e+01 0.0000000000000000e+00 0 0 0
209 1 7.5862925206492278e+01 3.5088001644970049e+01 0.0000000000000000e+00 0 0 0
210 1 7.7123123594954606e+01 3.8838554286063385e+01 0.0000000000000000e+00 0 0 0
212 1 4.6366944037863238e+00 4.3191492325078450e+01 0.0000000000000000e+00 0 0 0
243 1 8.3945062362256664e+00 4.2533416172725694e+01 0.0000000000000000e+00 0 0 0
242 1 4.5893605876724326e+00 4.7017297496487281e+01 0.0000000000000000e+00 0 0 0
273 1 8.1404361648814465e+00 4.8538802303998565e+01 0.0000000000000000e+00 0 0 0
244 1 1.1026992402340477e+01 4.5495741897442940e+01 0.0000000000000000e+00 0 0 0
245 1 1.4438485343811580e+01 4.4048293014406084e+01 0.0000000000000000e+00 0 0 0
247 1 1.4833358275079291e+01 4.7784382088505019e+01 0.0000000000000000e+00 0 0 0
218 1 1.7711828132835507e+01 4.5344568431176413e+01 0.0000000000000000e+00 0 0 0
219 1 2.0597813318267928e+01 4.2932160056028181e+01 0.0000000000000000e+00 0 0 0
249 1 2.4100523923874420e+01 4.3857115736883515e+01 0.0000000000000000e+00 0 0 0
248 1 2.1419880698726615e+01 4.6571868946753192e+01 0.0000000000000000e+00 0 0 0
250 1 2.4901774008890417e+01 4.7518204796770256e+01 0.0000000000000000e+00 0 0 0
220 1 2.6832477270589990e+01 4.1497133065932438e+01 0.0000000000000000e+00 0 0 0
222 1 3.0414915822058809e+01 4.2647616174797079e+01 0.0000000000000000e+00 0 0 0
251 1 2.7583040222627016e+01 4.5106268130704009e+01 0.0000000000000000e+00 0 0 0
252 1 3.1162859228364564e+01 4.6342697805940169e+01 0.0000000000000000e+00 0 0 0
224 1 3.6893787046477513e+01 4.1264189266229565e+01 0.0000000000000000e+00 0 0 0
253 1 3.4151845092968060e+01 4.3693335339185452e+01 0.0000000000000000e+00 0 0 0
255 1 3.7695037163313970e+01 4.5052223557343552e+01 0.0000000000000000e+00 0 0 0
254 1 3.4966951767608080e+01 4.7542252601253480e+01 0.0000000000000000e+00 0 0 0
226 1 4.0488739371089849e+01 4.2299045321302209e+01 0.0000000000000000e+00 0 0 0
285 1 3.8630264795400869e+01 4.8597393209326626e+01 0.0000000000000000e+00 0 0 0
256 1 4.1298622662525865e+01 4.6117700086167886e+01 0.0000000000000000e+00 0 0 0
257 1 4.4247307192156057e+01 4.3161144706763750e+01 0.0000000000000000e+00 0 0 0
259 1 4.7866533767559979e+01 4.4102911982667223e+01 0.0000000000000000e+00 0 0 0
258 1 4.5096196667019456e+01 4.6968225801818910e+01 0.0000000000000000e+00 0 0 0
289 1 4.8784037141668144e+01 4.7991604778443318e+01 0.0000000000000000e+00 0 0 0
230 1 5.0392083533039212e+01 4.1371109582106165e+01 0.0000000000000000e+00 0 0 0
260 1 5.1417585533833972e+01 4.5187835449749308e+01 0.0000000000000000e+00 0 0 0
261 1 5.4166364731985688e+01 4.2334432749356260e+01 0.0000000000000000e+00 0 0 0
262 1 5.5210761584246683e+01 4.6120221846223124e+01 0.0000000000000000e+00 0 0 0
263 1 5.7993625937223932e+01 4.3422304480677241e+01 0.0000000000000000e+00 0 0 0
264 1 6.1576427502382316e+01 4.4689574248013223e+01 0.0000000000000000e+00 0 0 0
293 1 5.8617026012643649e+01 4.7186654822853050e+01 0.0000000000000000e+00 0 0 0
295 1 6.2486543069185281e+01 4.8199531095927654e+01 0.0000000000000000e+00 0 0 0
265 1 6.4164525119734066e+01 4.1980753016116473e+01 0.0000000000000000e+00 0 0 0
236 1 6.7789216729325972e+01 4.2776503728432424e+01 0.0000000000000000e+00 0 0 0
266 1 6.5302833753046627e+01 4.5602040796670551e+01 0.0000000000000000e+00 0 0 0
267 1 6.8763210256495057e+01 4.6765960871110480e+01 0.0000000000000000e+00 0 0 0
238 1 7.1404638574039822e+01 4.3813540115875362e+01 0.0000000000000000e+00 0 0 0
1141 1 7.8955235214592321e+01 4.5937214055298391e+01 0.0000000000000000e+00 0 0 0
239 1 7.4288660247770380e+01 4.1246081248972907e+01 0.0000000000000000e+00 0 0 0
240 1 7.8027058360280705e+01 4.2334103452004719e+01 0.0000000000000000e+00 0 0 0
269 1 7.5245765117904696e+01 4.5040662279960799e+01 0.0000000000000000e+00 0 0 0
268 1 7.2418817958314136e+01 4.7552556003055976e+01 0.0000000000000000e+00 0 0 0
270 1 7.6433896139773296e+01 4.8664018757572521e+01 0.0000000000000000e+00 0 0 0
271 1 5.3483341566773408e+00 5.0901218710439259e+01 0.0000000000000000e+00 0 0 0
272 1 9.0742099615966438e+00 5.2183545882002370e+01 0.0000000000000000e+00 0 0 0
301 1 5.9970661893854498e+00 5.4708141015070318e+01 0.0000000000000000e+00 0 0 0
303 1 9.7018181399974317e+00 5.6140096797643587e+01 0.0000000000000000e+00 0 0 0
275 1 1.1708784862830761e+01 4.9830912593175832e+01 0.0000000000000000e+00 0 0 0
276 1 1.5617003291388748e+01 5.1252125038817411e+01 0.0000000000000000e+00 0 0 0
274 1 1.2555238711261653e+01 5.3582048068517615e+01 0.0000000000000000e+00 0 0 0
305 1 1.6418381386271733e+01 5.5083429139475285e+01 0.0000000000000000e+00 0 0 0
246 1 1.8437184258250593e+01 4.9029795405120609e+01 0.0000000000000000e+00 0 0 0
279 1 2.2144049225909203e+01 5.0200206840468638e+01 0.0000000000000000e+00 0 0 0
277 1 1.9353026868015814e+01 5.2693161273862941e+01 0.0000000000000000e+00 0 0 0
278 1 2.2895139696404563e+01 5.3961077926048191e+01 0.0000000000000000e+00 0 0 0
280 1 2.5620731384411020e+01 5.1384490228040484e+01 0.0000000000000000e+00 0 0 0
307 1 1.9853384506986572e+01 5.6458778030111745e+01 0.0000000000000000e+00 0 0 0
281 1 2.8356559564896770e+01 4.8826556716495176e+01 0.0000000000000000e+00 0 0 0
311 1 2.6621592626774959e+01 5.4981840440667128e+01 0.0000000000000000e+00 0 0 0
283 1 3.2201158518744123e+01 5.0047845586618010e+01 0.0000000000000000e+00 0 0 0
282 1 2.9265710975854159e+01 5.2526589490769737e+01 0.0000000000000000e+00 0 0 0
313 1 3.2914598332197265e+01 5.3830669390183687e+01 0.0000000000000000e+00 0 0 0
312 1 3.0188184228536084e+01 5.6402302698961506e+01 0.0000000000000000e+00 0 0 0
284 1 3.5779732335130078e+01 5.1314718696982091e+01 0.0000000000000000e+00 0 0 0
315 1 3.6568184792818300e+01 5.5024742441707211e+01 0.0000000000000000e+00 0 0 0
286 1 3.9582369162600173e+01 5.2170314983491558e+01 0.0000000000000000e+00 0 0 0
316 1 4.0485984794761599e+01 5.6081565676589534e+01 0.0000000000000000e+00 0 0 0
287 1 4.2382098907400170e+01 4.9649832010688790e+01 0.0000000000000000e+00 0 0 0
288 1 4.6001961781830985e+01 5.0742946287052028e+01 0.0000000000000000e+00 0 0 0
317 1 4.3226291080064065e+01 5.3411024692803380e+01 0.0000000000000000e+00 0 0 0
319 1 4.6797055870417580e+01 5.4292837083373328e+01 0.0000000000000000e+00 0 0 0
291 1 5.2381261668490723e+01 4.8810758015951578e+01 0.0000000000000000e+00 0 0 0
290 1 4.9707235627324394e+01 5.1613566754545424e+01 0.0000000000000000e+00 0 0 0
321 1 5.0858060976002143e+01 5.5427793742057297e+01 0.0000000000000000e+00 0 0 0
292 1 5.3240084066276772e+01 5.2603157399607021e+01 0.0000000000000000e+00 0 0 0
323 1 5.6008216299789602e+01 4.9748716055357832e+01 0.0000000000000000e+00 0 0 0
322 1 5.4481045137876002e+01 5.6234009343875663e+01 0.0000000000000000e+00 0 0 0
294 1 5.9569710294112397e+01 5.0789539905139755e+01 0.0000000000000000e+00 0 0 0
324 1 5.6940314594592337e+01 5.3501417494405771e+01 0.0000000000000000e+00 0 0 0
325 1 6.0641471259440998e+01 5.4483890221974505e+01 0.0000000000000000e+00 0 0 0
296 1 6.3273927100798900e+01 5.1908086914356197e+01 0.0000000000000000e+00 0 0 0
326 1 6.4295146983397871e+01 5.5585707605119644e+01 0.0000000000000000e+00 0 0 0
297 1 6.6120707653204320e+01 4.9351059649099817e+01 0.0000000000000000e+00 0 0 0
298 1 6.9785783090351188e+01 5.0343633183530876e+01 0.0000000000000000e+00 0 0 0
327 1 6.7003276334688962e+01 5.2962607045252206e+01 0.0000000000000000e+00 0 0 0
328 1 7.0861413435140747e+01 5.3846762099117932e+01 0.0000000000000000e+00 0 0 0
299 1 7.3499974108169454e+01 5.1027016140491760e+01 0.0000000000000000e+00 0 0 0
300 1 7.7482730741551379e+01 5.2354871324894511e+01 0.0000000000000000e+00 0 0 0
329 1 7.4550865592361575e+01 5.4827513348713950e+01 0.0000000000000000e+00 0 0 0
1201 1 7.8593621989051996e+01 5.6073352296949587e+01 0.0000000000000000e+00 0 0 0
331 1 3.6049204313911218e+00 6.0781519409211619e+01 0.0000000000000000e+00 0 0 0
302 1 6.7180515369651266e+00 5.8434907623118242e+01 0.0000000000000000e+00 0 0 0
332 1 7.3183188091146434e+00 6.2160990464936724e+01 0.0000000000000000e+00 0 0 0
333 1 1.0412802246955081e+01 5.9914024948477035e+01 0.0000000000000000e+00 0 0 0
334 1 1.1360491135198069e+01 6.3560523020354523e+01 0.0000000000000000e+00 0 0 0
304 1 1.3228832351551779e+01 5.7277452628656839e+01 0.0000000000000000e+00 0 0 0
306 1 1.7017480621720892e+01 5.8746356546183691e+01 0.0000000000000000e+00 0 0 0
335 1 1.4152949985621763e+01 6.0957776354202963e+01 0.0000000000000000e+00 0 0 0
337 1 1.7787468727196206e+01 6.2497991389518809e+01 0.0000000000000000e+00 0 0 0
309 1 2.3582507769226876e+01 5.7686637380873563e+01 0.0000000000000000e+00 0 0 0
308 1 2.0539158582179859e+01 6.0044505917501084e+01 0.0000000000000000e+00 0 0 0
339 1 2.4215899196287122e+01 6.1243614731256358e+01 0.0000000000000000e+00 0 0 0
338 1 2.1526245004809063e+01 6.3860876145427490e+01 0.0000000000000000e+00 0 0 0
310 1 2.7342255874692881e+01 5.8798188610216421e+01 0.0000000000000000e+00 0 0 0
341 1 2.7963482051822258e+01 6.2394339840596402e+01 0.0000000000000000e+00 0 0 0
343 1 3.0914675532923948e+01 5.9944135102790007e+01 0.0000000000000000e+00 0 0 0
342 1 3.1630588929678815e+01 6.3727634388985749e+01 0.0000000000000000e+00 0 0 0
314 1 3.3861385183347373e+01 5.7579206578112526e+01 0.0000000000000000e+00 0 0 0
345 1 3.7416215358777528e+01 5.8760410090371522e+01 0.0000000000000000e+00 0 0 0
344 1 3.4566433687189544e+01 6.1278393726351183e+01 0.0000000000000000e+00 0 0 0
375 1 3.8336762637614115e+01 6.2412192775465819e+01 0.0000000000000000e+00 0 0 0
346 1 4.1146844722742770e+01 5.9954980885101961e+01 0.0000000000000000e+00 0 0 0
318 1 4.4111109386431011e+01 5.7164146748660521e+01 0.0000000000000000e+00 0 0 0
349 1 4.8045806046901660e+01 5.8006898561648725e+01 0.0000000000000000e+00 0 0 0
347 1 4.5319134638564208e+01 6.0683496092064090e+01 0.0000000000000000e+00 0 0 0
377 1 4.2126569524309232e+01 6.3505555022412103e+01 0.0000000000000000e+00 0 0 0
350 1 4.8950039845944268e+01 6.1561404013621001e+01 0.0000000000000000e+00 0 0 0
320 1 5.1804421093214437e+01 5.9035088536245389e+01 0.0000000000000000e+00 0 0 0
351 1 5.5625026972168634e+01 5.9814249376665209e+01 0.0000000000000000e+00 0 0 0
381 1 5.3016024341375662e+01 6.2558014129161094e+01 0.0000000000000000e+00 0 0 0
352 1 5.6612562292082671e+01 6.3475982170614849e+01 0.0000000000000000e+00 0 0 0
353 1 5.8133270453133022e+01 5.7189745947278809e+01 0.0000000000000000e+00 0 0 0
355 1 6.1708524283465024e+01 5.8263456740917057e+01 0.0000000000000000e+00 0 0 0
354 1 5.9264511418317504e+01 6.1044024083398149e+01 0.0000000000000000e+00 0 0 0
385 1 6.3086391697711974e+01 6.1948947128355442e+01 0.0000000000000000e+00 0 0 0
357 1 6.8344789724711333e+01 5.6590583349175219e+01 0.0000000000000000e+00 0 0 0
356 1 6.5688285235737112e+01 5.9210035540834170e+01 0.0000000000000000e+00 0 0 0
387 1 6.9547345536082446e+01 6.0147510713629934e+01 0.0000000000000000e+00 0 0 0
386 1 6.6825717984495228e+01 6.2747296774965882e+01 0.0000000000000000e+00 0 0 0
359 1 7.2162907877658029e+01 5.7470643477533983e+01 0.0000000000000000e+00 0 0 0
358 1 7.3182918989201283e+01 6.1191113425313709e+01 0.0000000000000000e+00 0 0 0
330 1 7.5837472332674267e+01 5.8560230445264047e+01 0.0000000000000000e+00 0 0 0
360 1 7.6783792840524669e+01 6.2210594942009024e+01 0.0000000000000000e+00 0 0 0
361 1 4.2329336292043180e+00 6.4452078172568974e+01 0.0000000000000000e+00 0 0 0
363 1 8.3032023079684603e+00 6.5886412227835621e+01 0.0000000000000000e+00 0 0 0
362 1 5.2990384838729359e+00 6.8212540492944811e+01 0.0000000000000000e+00 0 0 0
364 1 9.0768220496267631e+00 6.9608405017536171e+01 0.0000000000000000e+00 0 0 0
336 1 1.5005006409293980e+01 6.4658514786461211e+01 0.0000000000000000e+00 0 0 0
365 1 1.2159620514375247e+01 6.7083602400422166e+01 0.0000000000000000e+00 0 0 0
395 1 1.2692515686508250e+01 7.0709499939693913e+01 0.0000000000000000e+00 0 0 0
367 1 1.8511807053610049e+01 6.6127600562702810e+01 0.0000000000000000e+00 0 0 0
366 1 1.9149525297496389e+01 6.9715166895204078e+01 0.0000000000000000e+00 0 0 0
369 1 2.2167914034812906e+01 6.7425765148452342e+01 0.0000000000000000e+00 0 0 0