LAMMPS data file via write_data, version 10 Aug 2015, timestep = 4200000

1800 atoms
1 atom types

3.7504693826823683e+00 1.5464953061731597e+02 xlo xhi
3.7504693826823683e+00 1.5464953061731597e+02 ylo yhi
0.0000000000000000e+00 5.2800000000000002e+00 zlo zhi

Masses

1 39.948

Atoms # atomic

31 1 9.6776621667796867e+00 8.9696298842101712e+00 0.0000000000000000e+00 0 0 0
930 1 6.1643857045294794e+00 7.8543630767076023e+00 0.0000000000000000e+00 1 0 0
1 1 8.8339263319208285e+00 5.3614759828657528e+00 0.0000000000000000e+00 0 0 0
929 1 4.9607154665329842e+00 4.3782782730870933e+00 0.0000000000000000e+00 1 0 0
2 1 1.2526803720318428e+01 6.5818166023776534e+00 0.0000000000000000e+00 0 0 0
33 1 1.6127735580762597e+01 7.5791183026099667e+00 0.0000000000000000e+00 0 0 0
32 1 1.3237162157466440e+01 1.0235011554776481e+01 0.0000000000000000e+00 0 0 0
3 1 1.5188831440006338e+01 4.0590179669789173e+00 0.0000000000000000e+00 0 0 0
5 1 1.8839956302556928e+01 4.9453593046979947e+00 0.0000000000000000e+00 0 0 0
4 1 1.9759444797512732e+01 8.7541945650513409e+00 0.0000000000000000e+00 0 0 0
6 1 2.2475949370128411e+01 6.1635831593878541e+00 0.0000000000000000e+00 0 0 0
37 1 2.3403121574587384e+01 9.8195214750601423e+00 0.0000000000000000e+00 0 0 0
9 1 2.6226140921649854e+01 7.1131752483078321e+00 0.0000000000000000e+00 0 0 0
880 1 2.9201161090303909e+01 4.7999600388950610e+00 0.0000000000000000e+00 0 1 0
10 1 2.9919810991801988e+01 8.4391591514502480e+00 0.0000000000000000e+00 0 0 0
12 1 3.2822265120217963e+01 6.0343474780572190e+00 0.0000000000000000e+00 0 0 0
41 1 3.3490150870704340e+01 9.7241059491217445e+00 0.0000000000000000e+00 0 0 0
38 1 2.7268390906512320e+01 1.0977189088063163e+01 0.0000000000000000e+00 0 0 0
43 1 3.6457384711031892e+01 7.1465442375641750e+00 0.0000000000000000e+00 0 0 0
44 1 4.0183239506141817e+01 8.4099951347069108e+00 0.0000000000000000e+00 0 0 0
14 1 3.9282549479184823e+01 4.6627750213173682e+00 0.0000000000000000e+00 0 0 0
42 1 3.7453245299489495e+01 1.0857708821676518e+01 0.0000000000000000e+00 0 0 0
75 1 4.3835914762928745e+01 9.1131895741821438e+00 0.0000000000000000e+00 0 0 0
46 1 4.2904048023278207e+01 5.6596766812096435e+00 0.0000000000000000e+00 0 0 0
47 1 4.6888875673371587e+01 6.7069512679305614e+00 0.0000000000000000e+00 0 0 0
77 1 4.7572703287277434e+01 1.0381391517214615e+01 0.0000000000000000e+00 0 0 0
48 1 5.0385579457893613e+01 8.0427717896864586e+00 0.0000000000000000e+00 0 0 0
20 1 5.3116489411217067e+01 5.3705571953371800e+00 0.0000000000000000e+00 0 0 0
50 1 5.4034066476528146e+01 8.9956649462706206e+00 0.0000000000000000e+00 0 0 0
49 1 4.9619300872779725e+01 4.1995924732390542e+00 0.0000000000000000e+00 0 0 0
51 1 5.6975023355328524e+01 6.5454248790634377e+00 0.0000000000000000e+00 0 0 0
22 1 5.7641532922400053e+01 1.0221857344197094e+01 0.0000000000000000e+00 0 0 0
23 1 6.0692727072575657e+01 7.5344546722738901e+00 0.0000000000000000e+00 0 0 0
894 1 6.3384873587163000e+01 4.8792987160486980e+00 0.0000000000000000e+00 0 1 0
21 1 5.9605664356933431e+01 3.9381201602645612e+00 0.0000000000000000e+00 0 0 0
25 1 6.4273207163056057e+01 8.4794662266710965e+00 0.0000000000000000e+00 0 0 0
26 1 7.0529114986381458e+01 7.0527983641114611e+00 0.0000000000000000e+00 0 0 0
56 1 6.7871965925367647e+01 9.6576240143519492e+00 0.0000000000000000e+00 0 0 0
896 1 6.6891890627297158e+01 6.1008985169598100e+00 0.0000000000000000e+00 0 1 0
57 1 7.1582283356593578e+01 1.0659923291985466e+01 0.0000000000000000e+00 0 0 0
28 1 7.4324742216257874e+01 8.0022376563368596e+00 0.0000000000000000e+00 0 0 0
29 1 7.7064766473138064e+01 5.3914811362809854e+00 0.0000000000000000e+00 0 0 0
30 1 7.7955048100976683e+01 9.0303390475718643e+00 0.0000000000000000e+00 0 0 0
898 1 7.3409016052736618e+01 4.5611198731223261e+00 0.0000000000000000e+00 0 1 0
960 1 6.8799306308553128e+00 1.1618804605477283e+01 0.0000000000000000e+00 1 0 0
61 1 1.0582432370466394e+01 1.2902415451331963e+01 0.0000000000000000e+00 0 0 0
989 1 7.5991610212328347e+00 1.5338562890353968e+01 0.0000000000000000e+00 1 0 0
91 1 4.7436653742241610e+00 1.7857386249085398e+01 0.0000000000000000e+00 0 0 0
958 1 4.0028142684573149e+00 1.3949802926486296e+01 0.0000000000000000e+00 1 0 0
990 1 1.1158558805622338e+01 1.6565984706489893e+01 0.0000000000000000e+00 1 0 0
34 1 1.6759643030403659e+01 1.1449602310416314e+01 0.0000000000000000e+00 0 0 0
62 1 1.4093634152757401e+01 1.4136823928047653e+01 0.0000000000000000e+00 0 0 0
65 1 1.7842755543526732e+01 1.4979620352551381e+01 0.0000000000000000e+00 0 0 0
63 1 1.4977468187372356e+01 1.7746501013930533e+01 0.0000000000000000e+00 0 0 0
35 1 2.0492666517194287e+01 1.2416190289579580e+01 0.0000000000000000e+00 0 0 0
36 1 2.4243517892082536e+01 1.3586775387800939e+01 0.0000000000000000e+00 0 0 0
68 1 2.5137258448534091e+01 1.7377980169342983e+01 0.0000000000000000e+00 0 0 0
67 1 2.1380308548968500e+01 1.5976739989247577e+01 0.0000000000000000e+00 0 0 0
39 1 3.0768179531239610e+01 1.2144525176894119e+01 0.0000000000000000e+00 0 0 0
69 1 2.7816573010310936e+01 1.4632987881393483e+01 0.0000000000000000e+00 0 0 0
70 1 3.1517299823166368e+01 1.5916090260169895e+01 0.0000000000000000e+00 0 0 0
40 1 3.4609503838836943e+01 1.3313650793936839e+01 0.0000000000000000e+00 0 0 0
71 1 3.5360709180631602e+01 1.6925809739270868e+01 0.0000000000000000e+00 0 0 0
72 1 3.8235336473988944e+01 1.4413069125456554e+01 0.0000000000000000e+00 0 0 0
73 1 4.1188546550112214e+01 1.1973861242216305e+01 0.0000000000000000e+00 0 0 0
106 1 3.8951682755095739e+01 1.8029713945140003e+01 0.0000000000000000e+00 0 0 0
74 1 4.2043796746881405e+01 1.5616573468787175e+01 0.0000000000000000e+00 0 0 0
76 1 4.4798809403060112e+01 1.2865111136766840e+01 0.0000000000000000e+00 0 0 0
109 1 4.5534007919631250e+01 1.6765312868001025e+01 0.0000000000000000e+00 0 0 0
78 1 4.8288312416713644e+01 1.4196984760534885e+01 0.0000000000000000e+00 0 0 0
79 1 5.1041267165697747e+01 1.1809907645536248e+01 0.0000000000000000e+00 0 0 0
81 1 5.2257768375885647e+01 1.5224672247906643e+01 0.0000000000000000e+00 0 0 0
52 1 5.4969992468298862e+01 1.2667825204335760e+01 0.0000000000000000e+00 0 0 0
82 1 5.6012410801195863e+01 1.6446279527852290e+01 0.0000000000000000e+00 0 0 0
80 1 4.9373158390867140e+01 1.7815501477833479e+01 0.0000000000000000e+00 0 0 0
24 1 6.1423675439827129e+01 1.1039509995502678e+01 0.0000000000000000e+00 0 0 0
53 1 5.8710085300877658e+01 1.3751364898873955e+01 0.0000000000000000e+00 0 0 0
54 1 6.2456053200426624e+01 1.4779863799093725e+01 0.0000000000000000e+00 0 0 0
83 1 5.9714945681857685e+01 1.7437606304324412e+01 0.0000000000000000e+00 0 0 0
55 1 6.5135333339319999e+01 1.2126453593029435e+01 0.0000000000000000e+00 0 0 0
85 1 6.8656765309277830e+01 1.3374652626356339e+01 0.0000000000000000e+00 0 0 0
87 1 6.9612305330068125e+01 1.6904008958236176e+01 0.0000000000000000e+00 0 0 0
84 1 6.5920254014131530e+01 1.5922583891701356e+01 0.0000000000000000e+00 0 0 0
59 1 7.5168305822021125e+01 1.1667041634175160e+01 0.0000000000000000e+00 0 0 0
58 1 7.2306771984565358e+01 1.4319005420277840e+01 0.0000000000000000e+00 0 0 0
89 1 7.6267441477483800e+01 1.5346225615454667e+01 0.0000000000000000e+00 0 0 0
60 1 7.9056482937450014e+01 1.2809010579608641e+01 0.0000000000000000e+00 0 0 0
88 1 7.3305837013729828e+01 1.7832783889517351e+01 0.0000000000000000e+00 0 0 0
93 1 8.5337005541178659e+00 1.9105241539952978e+01 0.0000000000000000e+00 0 0 0
94 1 9.3547507719424559e+00 2.2795353662881755e+01 0.0000000000000000e+00 0 0 0
92 1 5.5878581045893636e+00 2.1411092867742799e+01 0.0000000000000000e+00 0 0 0
123 1 6.4822691204368788e+00 2.5232902922477919e+01 0.0000000000000000e+00 0 0 0
64 1 1.2119773970480107e+01 2.0179572259151914e+01 0.0000000000000000e+00 0 0 0
95 1 1.2959644643510964e+01 2.3845977171660483e+01 0.0000000000000000e+00 0 0 0
97 1 1.5656074380092731e+01 2.1366746485430195e+01 0.0000000000000000e+00 0 0 0
96 1 1.6484505607822861e+01 2.4974637050948889e+01 0.0000000000000000e+00 0 0 0
66 1 1.8604957345239264e+01 1.8744078836238160e+01 0.0000000000000000e+00 0 0 0
127 1 1.9328080586180434e+01 2.2543525013633765e+01 0.0000000000000000e+00 0 0 0
98 1 2.2346667762141436e+01 1.9783811854652463e+01 0.0000000000000000e+00 0 0 0
130 1 2.3094726508963237e+01 2.3485794733831415e+01 0.0000000000000000e+00 0 0 0
100 1 2.5947519639106705e+01 2.1025411538401272e+01 0.0000000000000000e+00 0 0 0
99 1 2.8832017136225765e+01 1.8459480851460647e+01 0.0000000000000000e+00 0 0 0
131 1 2.6607074323300786e+01 2.4643228621632495e+01 0.0000000000000000e+00 0 0 0
101 1 2.9436990699023372e+01 2.2136720903248875e+01 0.0000000000000000e+00 0 0 0
103 1 3.2407423612991067e+01 1.9621075672685436e+01 0.0000000000000000e+00 0 0 0
102 1 3.3283141339793197e+01 2.3216393520534137e+01 0.0000000000000000e+00 0 0 0
105 1 3.6185479257300045e+01 2.0555192343682922e+01 0.0000000000000000e+00 0 0 0
104 1 3.7090600738608018e+01 2.4104755155814207e+01 0.0000000000000000e+00 0 0 0
135 1 4.0103948699973671e+01 2.1816246605510326e+01 0.0000000000000000e+00 0 0 0
107 1 4.2760365331752460e+01 1.9250662867082582e+01 0.0000000000000000e+00 0 0 0
137 1 4.3761735356288540e+01 2.2902001389633082e+01 0.0000000000000000e+00 0 0 0
108 1 4.6346494491992679e+01 2.0335210193845786e+01 0.0000000000000000e+00 0 0 0
139 1 4.7388511555486481e+01 2.3970799433037570e+01 0.0000000000000000e+00 0 0 0
111 1 5.3208091721884202e+01 1.8792408711995314e+01 0.0000000000000000e+00 0 0 0
110 1 5.0321988535511579e+01 2.1456195130482239e+01 0.0000000000000000e+00 0 0 0
141 1 5.3856282675349249e+01 2.2900108610555034e+01 0.0000000000000000e+00 0 0 0
140 1 5.0894494265115071e+01 2.5236168079714687e+01 0.0000000000000000e+00 0 0 0
112 1 5.6657033944349344e+01 2.0201634416011203e+01 0.0000000000000000e+00 0 0 0
113 1 6.3264672620841111e+01 1.8385631239187781e+01 0.0000000000000000e+00 0 0 0
114 1 6.0538027647245194e+01 2.1183464199168068e+01 0.0000000000000000e+00 0 0 0
143 1 5.7623811763626456e+01 2.3805764754892046e+01 0.0000000000000000e+00 0 0 0
144 1 6.1289283584490583e+01 2.4785761515851412e+01 0.0000000000000000e+00 0 0 0
115 1 6.4122235902000313e+01 2.2100382432058922e+01 0.0000000000000000e+00 0 0 0
86 1 6.6838904979116194e+01 1.9557739781113813e+01 0.0000000000000000e+00 0 0 0
116 1 6.7703266760470612e+01 2.3244361169563952e+01 0.0000000000000000e+00 0 0 0
117 1 7.0505273969450386e+01 2.0501454330689679e+01 0.0000000000000000e+00 0 0 0
118 1 7.1537925757902570e+01 2.4306230914354465e+01 0.0000000000000000e+00 0 0 0
90 1 7.6986484735369586e+01 1.9135165611054177e+01 0.0000000000000000e+00 0 0 0
119 1 7.4205553477933123e+01 2.1508208520559016e+01 0.0000000000000000e+00 0 0 0
120 1 7.7953504897237949e+01 2.2824249711292772e+01 0.0000000000000000e+00 0 0 0
153 1 4.5847514019869280e+00 3.1455506405121533e+01 0.0000000000000000e+00 0 0 0
124 1 7.4016778385081565e+00 2.8924331820596137e+01 0.0000000000000000e+00 0 0 0
125 1 1.0092631762246141e+01 2.6386842258464842e+01 0.0000000000000000e+00 0 0 0
155 1 1.0841082219756876e+01 3.0088405405460488e+01 0.0000000000000000e+00 0 0 0
126 1 1.3672702147757674e+01 2.7503926217425338e+01 0.0000000000000000e+00 0 0 0
157 1 1.4659950668715016e+01 3.1329787411449658e+01 0.0000000000000000e+00 0 0 0
128 1 1.7441196454495717e+01 2.8579144892859183e+01 0.0000000000000000e+00 0 0 0
158 1 1.8319139914244001e+01 3.2403397633710462e+01 0.0000000000000000e+00 0 0 0
129 1 2.0263329342876798e+01 2.6062121624105878e+01 0.0000000000000000e+00 0 0 0
160 1 2.1100299992320675e+01 2.9805585948209160e+01 0.0000000000000000e+00 0 0 0
159 1 2.3899512498993644e+01 2.7153340196480652e+01 0.0000000000000000e+00 0 0 0
161 1 2.4788906732182017e+01 3.0790147025320120e+01 0.0000000000000000e+00 0 0 0
133 1 3.0554856454379191e+01 2.5698432553959478e+01 0.0000000000000000e+00 0 0 0
132 1 2.7663885150903198e+01 2.8128345134271608e+01 0.0000000000000000e+00 0 0 0
163 1 3.1328620070218850e+01 2.9385437391032305e+01 0.0000000000000000e+00 0 0 0
162 1 2.8721789774085728e+01 3.1939480237199906e+01 0.0000000000000000e+00 0 0 0
136 1 4.0853298065587431e+01 2.5490963686867389e+01 0.0000000000000000e+00 0 0 0
134 1 3.4235690387892006e+01 2.6756004643474359e+01 0.0000000000000000e+00 0 0 0
164 1 3.5147901863896372e+01 3.0434998423964998e+01 0.0000000000000000e+00 0 0 0
165 1 3.7957025271586147e+01 2.7831270413065386e+01 0.0000000000000000e+00 0 0 0
166 1 3.8771234208791903e+01 3.1598705140902094e+01 0.0000000000000000e+00 0 0 0
167 1 4.1713621329626534e+01 2.9237490251966449e+01 0.0000000000000000e+00 0 0 0
138 1 4.4583782595766003e+01 2.6493762591965051e+01 0.0000000000000000e+00 0 0 0
168 1 4.5389255460731611e+01 3.0277269047216617e+01 0.0000000000000000e+00 0 0 0
169 1 4.8112081419311238e+01 2.7757862520833875e+01 0.0000000000000000e+00 0 0 0
170 1 4.8870418443913628e+01 3.1526033320435172e+01 0.0000000000000000e+00 0 0 0
171 1 5.1713745391072422e+01 2.8844963083198980e+01 0.0000000000000000e+00 0 0 0
142 1 5.4587126209134318e+01 2.6384259831047839e+01 0.0000000000000000e+00 0 0 0
172 1 5.5402699466341396e+01 2.9988691415602098e+01 0.0000000000000000e+00 0 0 0
201 1 5.2690953870074061e+01 3.2580473331796441e+01 0.0000000000000000e+00 0 0 0
173 1 5.8473325121615837e+01 2.7429664564376065e+01 0.0000000000000000e+00 0 0 0
174 1 5.9353530691241694e+01 3.0907511627922581e+01 0.0000000000000000e+00 0 0 0
175 1 6.2119120357468482e+01 2.8425206826039755e+01 0.0000000000000000e+00 0 0 0
205 1 6.2982464568333249e+01 3.2317643208823768e+01 0.0000000000000000e+00 0 0 0
145 1 6.4879714109998346e+01 2.5793967715932581e+01 0.0000000000000000e+00 0 0 0
147 1 6.8458704349651043e+01 2.6933008853644992e+01 0.0000000000000000e+00 0 0 0
146 1 6.5707556256586727e+01 2.9613843187151311e+01 0.0000000000000000e+00 0 0 0
177 1 6.9392443463764806e+01 3.0584875262541480e+01 0.0000000000000000e+00 0 0 0
149 1 7.5087272532037815e+01 2.5366677950475538e+01 0.0000000000000000e+00 0 0 0
148 1 7.2061724078932912e+01 2.7979904060020477e+01 0.0000000000000000e+00 0 0 0
150 1 7.5777317923794925e+01 2.9048937337426267e+01 0.0000000000000000e+00 0 0 0
179 1 7.3069232986748318e+01 3.1591556437012027e+01 0.0000000000000000e+00 0 0 0
1021 1 7.8836868193862159e+01 2.6599440581729706e+01 0.0000000000000000e+00 0 0 0
154 1 8.0867237806427887e+00 3.2783565775785419e+01 0.0000000000000000e+00 0 0 0
184 1 5.3615036774508154e+00 3.5326960090884384e+01 0.0000000000000000e+00 0 0 0
185 1 8.9039034239965762e+00 3.6480119378137218e+01 0.0000000000000000e+00 0 0 0
213 1 6.3578395283335620e+00 3.9071740319476071e+01 0.0000000000000000e+00 0 0 0
156 1 1.1727643416802323e+01 3.3704968285153740e+01 0.0000000000000000e+00 0 0 0
186 1 1.2798833297203288e+01 3.7437800998682448e+01 0.0000000000000000e+00 0 0 0
187 1 1.5570746793780277e+01 3.4966035186031036e+01 0.0000000000000000e+00 0 0 0
217 1 1.6291677993808932e+01 3.8630078644313166e+01 0.0000000000000000e+00 0 0 0
188 1 1.9301142392258516e+01 3.6158415302818710e+01 0.0000000000000000e+00 0 0 0
189 1 2.2163873709935032e+01 3.3439418596219390e+01 0.0000000000000000e+00 0 0 0
190 1 2.3069671031866584e+01 3.7066284618272185e+01 0.0000000000000000e+00 0 0 0
191 1 2.5825585891997836e+01 3.4380598265511267e+01 0.0000000000000000e+00 0 0 0
221 1 2.6559170413278640e+01 3.8270218277746999e+01 0.0000000000000000e+00 0 0 0
193 1 3.2277153336150199e+01 3.3114860547297852e+01 0.0000000000000000e+00 0 0 0
192 1 2.9456010057741036e+01 3.5787227374210950e+01 0.0000000000000000e+00 0 0 0
194 1 3.3080765417851524e+01 3.6807586828984093e+01 0.0000000000000000e+00 0 0 0
223 1 3.0300390586358677e+01 3.9479083660374151e+01 0.0000000000000000e+00 0 0 0
195 1 3.5888819640906831e+01 3.4281270988321793e+01 0.0000000000000000e+00 0 0 0
225 1 3.6887457697656927e+01 3.7880474355119468e+01 0.0000000000000000e+00 0 0 0
196 1 3.9717493363407918e+01 3.5400930545397046e+01 0.0000000000000000e+00 0 0 0
227 1 4.0519448552568250e+01 3.9049218363635447e+01 0.0000000000000000e+00 0 0 0
197 1 4.2583577735987546e+01 3.2800140289261073e+01 0.0000000000000000e+00 0 0 0
198 1 4.3478091652323634e+01 3.6447945722614492e+01 0.0000000000000000e+00 0 0 0
199 1 4.6229471953629591e+01 3.4033108378388036e+01 0.0000000000000000e+00 0 0 0
229 1 4.6857243775652194e+01 3.7756062737708405e+01 0.0000000000000000e+00 0 0 0
200 1 4.9897083583770126e+01 3.5153993171681485e+01 0.0000000000000000e+00 0 0 0
202 1 5.3703590945494028e+01 3.5985212925532792e+01 0.0000000000000000e+00 0 0 0
203 1 5.6674245949233672e+01 3.3412428994354265e+01 0.0000000000000000e+00 0 0 0
233 1 5.7360579125179882e+01 3.7168681854711551e+01 0.0000000000000000e+00 0 0 0
204 1 6.0246644987537252e+01 3.4730595947854816e+01 0.0000000000000000e+00 0 0 0
235 1 6.1002064549076685e+01 3.8426451860694335e+01 0.0000000000000000e+00 0 0 0
176 1 6.6642824581731986e+01 3.3303580304506966e+01 0.0000000000000000e+00 0 0 0
207 1 6.7536952997581210e+01 3.6940398548142355e+01 0.0000000000000000e+00 0 0 0
178 1 7.0331513383682534e+01 3.4166472199219704e+01 0.0000000000000000e+00 0 0 0
206 1 6.4643606465363604e+01 3.9494138915801720e+01 0.0000000000000000e+00 0 0 0
208 1 7.1162125227212428e+01 3.7792078721450864e+01 0.0000000000000000e+00 0 0 0
180 1 7.6748169176149659e+01 3.2724646966813502e+01 0.0000000000000000e+00 0 0 0
209 1 7.3931165414481683e+01 3.5260969259948865e+01 0.0000000000000000e+00 0 0 0
1081 1 7.7578043743127026e+01 3.6232638096201832e+01 0.0000000000000000e+00 0 0 0
210 1 7.4825921586491461e+01 3.8963992969489219e+01 0.0000000000000000e+00 0 0 0
215 1 1.0170895352132309e+01 4.0101244585922821e+01 0.0000000000000000e+00 0 0 0
243 1 4.3907450409789588e+00 4.5279297001844171e+01 0.0000000000000000e+00 0 0 0
214 1 7.3041154612261803e+00 4.2730567612317977e+01 0.0000000000000000e+00 0 0 0
245 1 1.0844880714018817e+01 4.3856835388723667e+01 0.0000000000000000e+00 0 0 0
244 1 8.0136254931545103e+00 4.6529121898753267e+01 0.0000000000000000e+00 0 0 0
216 1 1.3668599576306390e+01 4.1202736795028493e+01 0.0000000000000000e+00 0 0 0
247 1 1.4680554495007497e+01 4.4806339686738148e+01 0.0000000000000000e+00 0 0 0
218 1 1.7551591604141684e+01 4.2236984452133363e+01 0.0000000000000000e+00 0 0 0
248 1 1.8344512182267607e+01 4.5867593816497184e+01 0.0000000000000000e+00 0 0 0
219 1 2.0344564714387491e+01 3.9683090443343616e+01 0.0000000000000000e+00 0 0 0
249 1 2.1178967275201117e+01 4.3419885088885749e+01 0.0000000000000000e+00 0 0 0
220 1 2.4007316253796269e+01 4.0752764162446489e+01 0.0000000000000000e+00 0 0 0
251 1 2.4743246957030109e+01 4.4475558107062469e+01 0.0000000000000000e+00 0 0 0
222 1 2.7488801043404074e+01 4.1922537125679057e+01 0.0000000000000000e+00 0 0 0
252 1 2.8348183931802176e+01 4.5729755071229988e+01 0.0000000000000000e+00 0 0 0
253 1 3.1099521423494583e+01 4.3173535079596938e+01 0.0000000000000000e+00 0 0 0
254 1 3.2046060117212100e+01 4.6688497162735629e+01 0.0000000000000000e+00 0 0 0
224 1 3.3994135104209427e+01 4.0532843060805462e+01 0.0000000000000000e+00 0 0 0
255 1 3.4976346636551753e+01 4.4192160581205499e+01 0.0000000000000000e+00 0 0 0
226 1 3.7774916170999347e+01 4.1470178390961415e+01 0.0000000000000000e+00 0 0 0
256 1 3.8720921772281699e+01 4.5169188608353743e+01 0.0000000000000000e+00 0 0 0
257 1 4.1475430371685150e+01 4.2667361673643079e+01 0.0000000000000000e+00 0 0 0
228 1 4.4160106091111786e+01 4.0145302267754133e+01 0.0000000000000000e+00 0 0 0
259 1 4.5111107232635291e+01 4.3775306973709846e+01 0.0000000000000000e+00 0 0 0
230 1 4.7863130755584088e+01 4.1370694594670368e+01 0.0000000000000000e+00 0 0 0
258 1 4.2256820768575345e+01 4.6391632901665233e+01 0.0000000000000000e+00 0 0 0
260 1 4.8994480820100648e+01 4.4934552070629032e+01 0.0000000000000000e+00 0 0 0
232 1 5.4546939777917025e+01 3.9726643656549541e+01 0.0000000000000000e+00 0 0 0
231 1 5.1546210812443839e+01 4.2414669215453806e+01 0.0000000000000000e+00 0 0 0
261 1 5.2565533859158379e+01 4.5992480233511792e+01 0.0000000000000000e+00 0 0 0
263 1 5.5245027974151810e+01 4.3464528311009545e+01 0.0000000000000000e+00 0 0 0
234 1 5.8060744177470333e+01 4.0935515212421478e+01 0.0000000000000000e+00 0 0 0
264 1 5.8913569314459586e+01 4.4555088660599502e+01 0.0000000000000000e+00 0 0 0
265 1 6.1899888022832087e+01 4.2009743611480587e+01 0.0000000000000000e+00 0 0 0
266 1 6.2731099924462477e+01 4.5575958574068935e+01 0.0000000000000000e+00 0 0 0
237 1 6.8194366915454736e+01 4.0670077290979755e+01 0.0000000000000000e+00 0 0 0
236 1 6.5492420310378293e+01 4.3183380094229079e+01 0.0000000000000000e+00 0 0 0
238 1 6.9382817836069819e+01 4.4270715389339976e+01 0.0000000000000000e+00 0 0 0
1111 1 7.8355254521461646e+01 3.9978102812993150e+01 0.0000000000000000e+00 0 0 0
239 1 7.1854395446983887e+01 4.1590983451993239e+01 0.0000000000000000e+00 0 0 0
240 1 7.5488347542615060e+01 4.2717052114209118e+01 0.0000000000000000e+00 0 0 0
269 1 7.2941826795868067e+01 4.5440757229553412e+01 0.0000000000000000e+00 0 0 0
1141 1 7.6551467355323652e+01 4.6516895394586946e+01 0.0000000000000000e+00 0 0 0
242 1 5.2445294333323043e+00 4.9021859764460650e+01 0.0000000000000000e+00 0 0 0
272 1 6.1936812549356812e+00 5.2616956461239631e+01 0.0000000000000000e+00 0 0 0
273 1 9.0947929523173556e+00 5.0108443741781166e+01 0.0000000000000000e+00 0 0 0
274 1 1.0046543447690203e+01 5.3873082166964601e+01 0.0000000000000000e+00 0 0 0
275 1 1.1826001580800911e+01 4.7363979830774724e+01 0.0000000000000000e+00 0 0 0
276 1 1.2782765153103043e+01 5.1054516299764266e+01 0.0000000000000000e+00 0 0 0
246 1 1.5651759772754907e+01 4.8599723470019114e+01 0.0000000000000000e+00 0 0 0
277 1 1.6451666180558334e+01 5.2313648473347584e+01 0.0000000000000000e+00 0 0 0
250 1 2.1901249706961881e+01 4.7129528480405611e+01 0.0000000000000000e+00 0 0 0
279 1 1.9091166887342361e+01 4.9715930325149380e+01 0.0000000000000000e+00 0 0 0
280 1 2.2765944230612011e+01 5.0906386103950091e+01 0.0000000000000000e+00 0 0 0
281 1 2.5506443378805436e+01 4.8307951777701660e+01 0.0000000000000000e+00 0 0 0
278 1 2.0124781232107431e+01 5.3536974413718923e+01 0.0000000000000000e+00 0 0 0
282 1 2.6659381474717215e+01 5.1858977950083975e+01 0.0000000000000000e+00 0 0 0
283 1 2.9311911643978434e+01 4.9349778218391592e+01 0.0000000000000000e+00 0 0 0
313 1 3.0411333162684326e+01 5.2948241631590506e+01 0.0000000000000000e+00 0 0 0
284 1 3.3041702937484288e+01 5.0244751191014778e+01 0.0000000000000000e+00 0 0 0
315 1 3.3961370651751068e+01 5.3990171125549210e+01 0.0000000000000000e+00 0 0 0
285 1 3.5959462290293139e+01 4.7729273859793700e+01 0.0000000000000000e+00 0 0 0
286 1 3.6792623771794140e+01 5.1488171750594695e+01 0.0000000000000000e+00 0 0 0
287 1 3.9659870970428088e+01 4.9062744239675361e+01 0.0000000000000000e+00 0 0 0
317 1 4.0428897521485368e+01 5.2785552871188884e+01 0.0000000000000000e+00 0 0 0
289 1 4.6076116410756583e+01 4.7272643035035685e+01 0.0000000000000000e+00 0 0 0
288 1 4.3349729630682958e+01 5.0020404588478030e+01 0.0000000000000000e+00 0 0 0
290 1 4.6937672324831681e+01 5.1122998534286758e+01 0.0000000000000000e+00 0 0 0
319 1 4.4206674142019494e+01 5.3903429997264446e+01 0.0000000000000000e+00 0 0 0
262 1 5.3797716593494457e+01 4.9826887965099189e+01 0.0000000000000000e+00 0 0 0
291 1 5.0033437395803361e+01 4.8661545013511557e+01 0.0000000000000000e+00 0 0 0
292 1 5.0752248713078586e+01 5.2200013601243285e+01 0.0000000000000000e+00 0 0 0
323 1 5.4673121258051580e+01 5.3470804707691748e+01 0.0000000000000000e+00 0 0 0
293 1 5.6528373479194400e+01 4.7114388976845731e+01 0.0000000000000000e+00 0 0 0
295 1 5.9962030791186628e+01 4.8421253992781736e+01 0.0000000000000000e+00 0 0 0
294 1 5.7414299227807717e+01 5.0986419478944541e+01 0.0000000000000000e+00 0 0 0
296 1 6.1118462371927244e+01 5.2107498899256314e+01 0.0000000000000000e+00 0 0 0
297 1 6.3691961945229252e+01 4.9240888936557802e+01 0.0000000000000000e+00 0 0 0
267 1 6.6548564106763195e+01 4.6853748451212937e+01 0.0000000000000000e+00 0 0 0
298 1 6.7547136068309158e+01 5.0512294248533678e+01 0.0000000000000000e+00 0 0 0
327 1 6.4818288250377122e+01 5.3114476715611865e+01 0.0000000000000000e+00 0 0 0
268 1 7.0251715071916564e+01 4.8029186605871558e+01 0.0000000000000000e+00 0 0 0
299 1 7.1246051108228642e+01 5.1729177797026978e+01 0.0000000000000000e+00 0 0 0
270 1 7.3907514309017458e+01 4.9130124144594539e+01 0.0000000000000000e+00 0 0 0
300 1 7.4660839835818152e+01 5.2857366189914423e+01 0.0000000000000000e+00 0 0 0
1171 1 7.7465556441672462e+01 5.0248955136377781e+01 0.0000000000000000e+00 0 0 0
1172 1 7.8446160123270431e+01 5.3843706876929609e+01 0.0000000000000000e+00 0 0 0
303 1 7.3075812777596383e+00 5.6358505195949903e+01 0.0000000000000000e+00 0 0 0
333 1 7.9862248813624968e+00 6.0040873885275573e+01 0.0000000000000000e+00 0 0 0
302 1 4.2911731997797284e+00 5.8913002046126422e+01 0.0000000000000000e+00 0 0 0
304 1 1.0967789517607645e+01 5.7533413076086077e+01 0.0000000000000000e+00 0 0 0
305 1 1.3771919940517028e+01 5.4927229668881843e+01 0.0000000000000000e+00 0 0 0
306 1 1.4533489921670871e+01 5.8680892147573097e+01 0.0000000000000000e+00 0 0 0
307 1 1.7311963625409042e+01 5.6016082756251897e+01 0.0000000000000000e+00 0 0 0
308 1 1.8307846676563322e+01 5.9671270448284602e+01 0.0000000000000000e+00 0 0 0
311 1 2.3677151253144725e+01 5.4357270373337364e+01 0.0000000000000000e+00 0 0 0
309 1 2.0994550126303633e+01 5.7101707009570497e+01 0.0000000000000000e+00 0 0 0
310 1 2.4621279677260922e+01 5.8141323099080111e+01 0.0000000000000000e+00 0 0 0
339 1 2.1969714388028471e+01 6.0671096004572760e+01 0.0000000000000000e+00 0 0 0
312 1 2.7551099305672825e+01 5.5508536238784451e+01 0.0000000000000000e+00 0 0 0
343 1 2.8338936194362745e+01 5.9182265509555080e+01 0.0000000000000000e+00 0 0 0
314 1 3.1137218341297270e+01 5.6597200095915404e+01 0.0000000000000000e+00 0 0 0
344 1 3.1927357091823218e+01 6.0448926958880300e+01 0.0000000000000000e+00 0 0 0
345 1 3.4732262596079821e+01 5.7769400640100450e+01 0.0000000000000000e+00 0 0 0
316 1 3.7622401255798962e+01 5.5295108815876212e+01 0.0000000000000000e+00 0 0 0
346 1 3.8676432236904269e+01 5.8925298469869041e+01 0.0000000000000000e+00 0 0 0
318 1 4.1435486440199405e+01 5.6480652624932056e+01 0.0000000000000000e+00 0 0 0
321 1 4.7755440494983141e+01 5.4824227750171893e+01 0.0000000000000000e+00 0 0 0
349 1 4.5320647803801307e+01 5.7620663354812010e+01 0.0000000000000000e+00 0 0 0
347 1 4.2319233442664583e+01 6.0121456834038931e+01 0.0000000000000000e+00 0 0 0
320 1 4.8912440582944512e+01 5.8571805045443838e+01 0.0000000000000000e+00 0 0 0
322 1 5.1706432618258269e+01 5.5886750749769817e+01 0.0000000000000000e+00 0 0 0
351 1 5.2578969541850455e+01 5.9726394724056441e+01 0.0000000000000000e+00 0 0 0
324 1 5.5219926499108126e+01 5.7071073749419533e+01 0.0000000000000000e+00 0 0 0
353 1 5.6281023858911304e+01 6.0882939178274462e+01 0.0000000000000000e+00 0 0 0
325 1 5.8303357897397426e+01 5.4720353583652049e+01 0.0000000000000000e+00 0 0 0
355 1 5.9095616876750448e+01 5.8374217325681570e+01 0.0000000000000000e+00 0 0 0
326 1 6.1865398374942622e+01 5.5799560749523131e+01 0.0000000000000000e+00 0 0 0
356 1 6.2804731309602055e+01 5.9423707118499507e+01 0.0000000000000000e+00 0 0 0
328 1 6.8330332044043175e+01 5.4269341070004685e+01 0.0000000000000000e+00 0 0 0
357 1 6.5573354143075051e+01 5.6971208072236514e+01 0.0000000000000000e+00 0 0 0
359 1 6.9039253216311238e+01 5.8103979394529283e+01 0.0000000000000000e+00 0 0 0
358 1 6.6358427190402253e+01 6.0705635328952397e+01 0.0000000000000000e+00 0 0 0
329 1 7.1885436812531211e+01 5.5653228800273631e+01 0.0000000000000000e+00 0 0 0
1201 1 7.5698122287023040e+01 5.6394464273368094e+01 0.0000000000000000e+00 0 0 0
330 1 7.3011409118632074e+01 5.9058969342977100e+01 0.0000000000000000e+00 0 0 0
1231 1 7.6674919544597429e+01 5.9957056383614955e+01 0.0000000000000000e+00 0 0 0
332 1 5.0987092326690000e+00 6.2505144692545002e+01 0.0000000000000000e+00 0 0 0
363 1 6.1369986087175423e+00 6.6365167541218653e+01 0.0000000000000000e+00 0 0 0
334 1 8.8470864494478967e+00 6.3571247227312057e+01 0.0000000000000000e+00 0 0 0
365 1 9.6902594180427890e+00 6.7289039952503487e+01 0.0000000000000000e+00 0 0 0
335 1 1.1825077841715013e+01 6.1264254425265726e+01 0.0000000000000000e+00 0 0 0
336 1 1.2477117577681689e+01 6.4877453016100873e+01 0.0000000000000000e+00 0 0 0
337 1 1.5508653872380423e+01 6.2225084288151955e+01 0.0000000000000000e+00 0 0 0
367 1 1.6057081754583368e+01 6.6091214984840718e+01 0.0000000000000000e+00 0 0 0
338 1 1.9123227659420664e+01 6.3329752796766186e+01 0.0000000000000000e+00 0 0 0
340 1 2.2906949235740093e+01 6.4335081026813896e+01 0.0000000000000000e+00 0 0 0
369 1 2.0048807061063087e+01 6.7027773298307807e+01 0.0000000000000000e+00 0 0 0
341 1 2.5595602447464252e+01 6.1823749147855970e+01 0.0000000000000000e+00 0 0 0
370 1 2.3580697388876267e+01 6.8025007980767583e+01 0.0000000000000000e+00 0 0 0
371 1 2.6469045174586526e+01 6.5496411451039961e+01 0.0000000000000000e+00 0 0 0
342 1 2.9148123733146274e+01 6.2919770251938367e+01 0.0000000000000000e+00 0 0 0
372 1 3.0102002399148759e+01 6.6537492384734136e+01 0.0000000000000000e+00 0 0 0
373 1 3.3023260209932545e+01 6.3972668735738445e+01 0.0000000000000000e+00 0 0 0
374 1 3.3815768266837722e+01 6.7798715573853471e+01 0.0000000000000000e+00 0 0 0
375 1 3.5863355399315083e+01 6.1471518893587003e+01 0.0000000000000000e+00 0 0 0
376 1 3.6648272422240062e+01 6.5144421505505491e+01 0.0000000000000000e+00 0 0 0
377 1 3.9585103429783992e+01 6.2676297266255965e+01 0.0000000000000000e+00 0 0 0
378 1 4.0529568259775012e+01 6.6311412794789334e+01 0.0000000000000000e+00 0 0 0
350 1 4.6131530841635140e+01 6.1227964000270731e+01 0.0000000000000000e+00 0 0 0
348 1 4.3345344429152071e+01 6.3893141646277549e+01 0.0000000000000000e+00 0 0 0
379 1 4.7060515269581018e+01 6.4752508884576912e+01 0.0000000000000000e+00 0 0 0
409 1 4.4194151144406469e+01 6.7470389661531854e+01 0.0000000000000000e+00 0 0 0
381 1 4.9706550107448329e+01 6.2239818350528928e+01 0.0000000000000000e+00 0 0 0