LAMMPS (17 Nov 2016)
variable InitLatPar equal 5.28
variable Tinit equal 15
variable Tequi equal 10
variable Pequi equal 1.0
variable TimeStep equal 1.0
variable Steps equal 200000

# ---- INITIALIZATION ----------------------------------------------------------
#we are handling an atomistic simulation
atom_style       atomic
#selectin units
units            real
#choose dimension of problem
dimension        2


# ---- ATOM DEFINITION ---------------------------------------------------------
# define lattice and lattice constant
lattice          sq2 ${InitLatPar}
lattice          sq2 5.28
Lattice spacing in x,y,z = 5.28 5.28 5.28
# create a block-region with the name box dimension of one lattice unit in each direction
region           box block 0 30 0 30 0 1 units lattice
#given this region create a simulation box with ID 1
create_box       1 box
Created orthogonal box = (0 0 0) to (158.4 158.4 5.28)
  2 by 2 by 1 MPI processor grid
create_atoms     1 box
Created 1800 atoms
mass             1 39.958


# ---- DEFINE INTERATOMIC POTENTIAL --------------------------------------------
# define how the atoms interact: Lennard Jones Potential with cutoff
pair_style       lj/cut 12
#coefficients for potential: assigning fo all atoms, epsilon [energy units] sigma [diustance units]
pair_coeff * * 0.23818 3.405


# ---- COMPUTES ----------------------------------------------------------------
#compute the potential energy per atom
compute          eng all pe/atom
#computes the final energy of the cell system
compute          eatoms all reduce sum c_eng

# ---- EQUILIBRIATION ----------------------------------------------------------
# reset timestep
reset_timestep   0
#set an appropriate timestep for time integration
timestep         ${TimeStep}
timestep         1
# assign velocity to particles according to temperature and seed
# additional parameters for particles with rotation
velocity         all create ${Tinit} 12345 mom yes rot no
velocity         all create 15 12345 mom yes rot no
# thermostat integration for simulating the desired ensemble
# integration on Noose-Hoover hamiltonian equations of motion
fix              1 all npt temp ${Tinit} ${Tequi} 4000 iso ${Pequi} ${Pequi} 4000
fix              1 all npt temp 15 ${Tequi} 4000 iso ${Pequi} ${Pequi} 4000
fix              1 all npt temp 15 10 4000 iso ${Pequi} ${Pequi} 4000
fix              1 all npt temp 15 10 4000 iso 1 ${Pequi} 4000
fix              1 all npt temp 15 10 4000 iso 1 1 4000


# ---- DEFINE OUTPUT PROPERTIES/TRAJECTORIES -----------------------------------
thermo          100
# specify the thermodynamics to calculate and shwo as output
thermo_style     custom step lx ly lz press pxx pyy pzz pe temp pe ke etotal
#dump command for writing the trjectories every N=2000 steps
dump            1 all atom 2000 ./dump/dump.equilibriation_*.atom
dump            2 all cfg 2000 ./dump/dump.test.*.cfg mass type xs ys zs id type c_eng
# Run the simulkation for desired amount of timesteps until equilibriation
run             ${Steps}
run             200000
Neighbor list info ...
  1 neighbor list requests
  update every 1 steps, delay 10 steps, check yes
  max neighbors/atom: 2000, page size: 100000
  master list distance cutoff = 14
  ghost atom cutoff = 14
  binsize = 7 -> bins = 23 23 1
Memory usage per processor = 5.0214 Mbytes
Step Lx Ly Lz Press Pxx Pyy Pzz PotEng Temp PotEng KinEng TotEng 
       0        158.4        158.4         5.28    264.99612    263.76818    266.22406            0   -1139.3825           15   -1139.3825    53.624773   -1085.7578 
     100    158.50687    158.50687         5.28    528.61517     529.8797    527.35064            0   -1122.7934    10.305218   -1122.7934    36.840999   -1085.9524 
     200    158.95607    158.95607         5.28    554.35768    557.48971    551.22566            0   -1105.8034     5.313155   -1105.8034    18.994449   -1086.8089 
     300     159.7116     159.7116         5.28    -136.2522   -137.39153   -135.11288            0   -1114.1254    7.5804085   -1114.1254    27.099845   -1087.0256 
     400    160.31418    160.31418         5.28   -604.22199    -607.4427   -601.00129            0   -1116.5927    8.7188894   -1116.5927    31.169898   -1085.4228 
     500    160.46358    160.46358         5.28   -611.97172   -614.49761   -609.44583            0    -1111.779    7.5488694    -1111.779    26.987094   -1084.7919 
     600    160.20177    160.20177         5.28   -465.05281   -466.38219   -463.72342            0   -1112.9794    7.7099312   -1112.9794    27.562887   -1085.4165 
     700    159.68546    159.68546         5.28   -254.84649   -254.47523   -255.21775            0   -1119.1471    9.1805483   -1119.1471    32.820321   -1086.3268 
     800     159.1032     159.1032         5.28    27.659729      25.8116    29.507858            0   -1124.0339    10.460576   -1124.0339    37.396402   -1086.6375 
     900    158.64604    158.64604         5.28    244.89841      236.521    253.27582            0   -1128.3469      11.7851   -1128.3469    42.131555   -1086.2154 
    1000    158.41419    158.41419         5.28    265.49701     252.8051    278.18892            0   -1134.7878    13.731368   -1134.7878    49.089431   -1085.6984 
    1100    158.37458    158.37458         5.28    110.14251     102.0727    118.21231            0   -1143.2679    16.204492   -1143.2679    57.930813   -1085.3371 
    1200    158.40406    158.40406         5.28   -113.78649   -108.02863   -119.54436            0   -1153.0765    19.039855   -1153.0765    68.067193   -1085.0093 
    1300    158.35925    158.35925         5.28   -274.23798   -247.44483   -301.03114            0   -1162.9547    21.870366   -1162.9547    78.186227   -1084.7685 
    1400    158.14964    158.14964         5.28   -280.62445    -222.2591    -338.9898            0   -1171.7299    24.305901   -1171.7299    86.893228   -1084.8367 
    1500    157.78696    157.78696         5.28   -116.07576   -55.829847   -176.32167            0   -1178.4252    26.104111   -1178.4252    93.321801   -1085.1034 
    1600    157.39424    157.39424         5.28    199.05088    276.54711    121.55465            0   -1179.0861    26.300971   -1179.0861    94.025572   -1085.0605 
    1700    157.16241    157.16241         5.28    433.37519    565.17055    301.57984            0   -1177.6382     25.96528   -1177.6382    92.825482   -1084.8127 
    1800    157.21258    157.21258         5.28    424.30114    557.69926    290.90301            0   -1176.9766    25.718644   -1176.9766    91.943761   -1085.0329 
    1900    157.51231    157.51231         5.28    202.30417     270.1867    134.42164            0   -1177.2743      25.6405   -1177.2743    91.664398   -1085.6099 
    2000    157.90805    157.90805         5.28   -46.483462   -45.447843    -47.51908            0   -1175.7783    25.121085   -1175.7783    89.807499   -1085.9708 
    2100      158.233      158.233         5.28   -233.97898    -305.5005   -162.45745            0   -1174.2121    24.671683   -1174.2121    88.200893   -1086.0112 
    2200    158.37875    158.37875         5.28   -286.06208   -361.49432   -210.62984            0   -1172.5761    24.171761   -1172.5761    86.413679   -1086.1625 
    2300    158.33161    158.33161         5.28   -219.46691   -272.57308   -166.36073            0   -1172.2829    23.967008   -1172.2829    85.681692   -1086.6012 
    2400      158.152      158.152         5.28   -106.44928   -145.91582   -66.982736            0   -1174.3546    24.389043   -1174.3546    87.190458   -1087.1641 
    2500    157.92461    157.92461         5.28    2.9336714   -12.209375    18.076718            0   -1177.7754    25.202777   -1177.7754    90.099547   -1087.6758 
    2600    157.72121    157.72121         5.28    83.415348    85.871496    80.959199            0   -1181.6427    26.154173   -1181.6427    93.500773   -1088.1419 
    2700    157.59246    157.59246         5.28    150.32913    190.03104    110.62722            0    -1182.888    26.370016    -1182.888    94.272408   -1088.6156 
    2800    157.56335    157.56335         5.28    98.930663    199.41934   -1.5580192            0   -1186.3276    27.181057   -1186.3276    97.171868   -1089.1558 
    2900    157.60309    157.60309         5.28    87.678955    207.26943   -31.911516            0   -1185.4344    26.771849   -1185.4344    95.708956   -1089.7254 
    3000    157.68944    157.68944         5.28    17.534853    101.23037   -66.160665            0   -1186.4622    26.897629   -1186.4622    96.158618   -1090.3035 
    3100    157.77971    157.77971         5.28   -36.104409     9.037787   -81.246605            0   -1186.2109     26.66724   -1186.2109    95.334981   -1090.8759 
    3200    157.83689    157.83689         5.28   -101.23937   -83.075847   -119.40289            0   -1187.4742    26.858036   -1187.4742    96.017073   -1091.4572 
    3300    157.82635    157.82635         5.28   -123.56088   -78.589466   -168.53229            0   -1189.1245    27.147669   -1189.1245    97.052504    -1092.072 
    3400     157.7418     157.7418         5.28   -66.527756     19.17761   -152.23312            0   -1189.7799    27.144038   -1189.7799    97.039525   -1092.7403 
    3500    157.61985    157.61985         5.28   -25.178083    72.325188   -122.68136            0   -1192.7672    27.790969   -1192.7672    99.352294   -1093.4149 
    3600    157.49342    157.49342         5.28    48.656685    175.67148   -78.358114            0   -1194.3262    28.032667   -1194.3262    100.21636   -1094.1099 
    3700    157.40907    157.40907         5.28    130.74294    257.65869    3.8271968            0   -1193.5699    27.636949   -1193.5699    98.801674   -1094.7683 
    3800    157.40623    157.40623         5.28    88.250304    196.08141     -19.5808            0    -1195.818    28.062492    -1195.818    100.32298    -1095.495 
    3900    157.45988    157.45988         5.28    46.149962    163.61595   -71.316027            0   -1195.7487    27.842009   -1195.7487    99.534759   -1096.2139 
    4000    157.53752    157.53752         5.28    -7.310322    101.97394   -116.59459            0    -1195.444    27.550842    -1195.444    98.493844   -1096.9502 
    4100    157.60215    157.60215         5.28   -89.140962    44.170129   -222.45205            0   -1196.9233    27.764417   -1196.9233     99.25737    -1097.666 
    4200    157.60815    157.60815         5.28   -107.02864     8.319397   -222.37668            0   -1197.2191    27.639371   -1197.2191    98.810333   -1098.4087 
    4300    157.54764    157.54764         5.28   -59.928481    4.3199929   -124.17696            0   -1197.0488    27.371754   -1197.0488    97.853604   -1099.1952 
    4400    157.45595    157.45595         5.28    28.287242    51.120336    5.4541491            0   -1195.9509     26.84423   -1195.9509    95.967717   -1099.9832 
    4500    157.38173    157.38173         5.28    26.558659    58.563745   -5.4464283            0    -1198.878    27.447941    -1198.878    98.125973    -1100.752 
    4600    157.33068    157.33068         5.28    31.940303    70.042085   -6.1614789            0   -1200.1395    27.584517   -1200.1395     98.61423   -1101.5253 
    4700    157.29948    157.29948         5.28   -13.577465   -32.047957    4.8930273            0   -1203.1107    28.190761   -1203.1107    100.78154   -1102.3292 
    4800     157.2616     157.2616         5.28   -52.535665   -110.54544    5.4741082            0    -1206.083    28.785649    -1206.083    102.90826   -1103.1747 
    4900    157.19637    157.19637         5.28   -14.301584   -49.406348    20.803181            0   -1206.1935    28.566057   -1206.1935    102.12322   -1104.0703 
    5000    157.12368    157.12368         5.28    3.5122117   -65.947742    72.972166            0   -1207.6159    28.718612   -1207.6159     102.6686   -1104.9473 
    5100    157.05754    157.05754         5.28    11.669226   -58.954803    82.293254            0   -1209.5934    29.018381   -1209.5934    103.74027   -1105.8531 
    5200    157.00357    157.00357         5.28    46.385066    3.7764817    88.993651            0   -1210.5363    29.030091   -1210.5363    103.78214   -1106.7542 
    5300    156.98313    156.98313         5.28    96.965094    80.958165    112.97202            0   -1209.5598    28.499327   -1209.5598    101.88466   -1107.6752 
    5400    157.02122    157.02122         5.28    77.571203    87.448481    67.693925            0   -1209.4178    28.199651   -1209.4178    100.81332   -1108.6045 
    5500    157.10155    157.10155         5.28   -11.475483    -48.54854    25.597574            0   -1211.0428    28.398911   -1211.0428    101.52568   -1109.5171 
    5600    157.17284    157.17284         5.28   -53.869177   -114.54999      6.81164            0   -1210.7408    28.065752   -1210.7408    100.33464   -1110.4062 
    5700    157.20646    157.20646         5.28   -60.386222    -74.83649   -45.935954            0   -1210.0672    27.630192   -1210.0672     98.77752   -1111.2897 
    5800    157.20043    157.20043         5.28   -50.535601   -20.417038   -80.654163            0   -1209.7016    27.283471   -1209.7016    97.537994   -1112.1636 
    5900    157.16043    157.16043         5.28   -55.566138    12.759299   -123.89158            0   -1211.2025    27.454207   -1211.2025    98.148374   -1113.0542 
    6000    157.08674    157.08674         5.28   -53.629773   -1.4192622   -105.84028            0   -1213.3495    27.790313   -1213.3495     99.34995   -1113.9996 
    6100    156.98264    156.98264         5.28   -41.174919   -8.2744277    -74.07541            0   -1215.8835    28.226059   -1215.8835    100.90774   -1114.9757 
    6200    156.85921    156.85921         5.28    5.4791031    45.908752   -34.950546            0   -1217.9032    28.519935   -1217.9032    101.95833   -1115.9449 
    6300    156.74754    156.74754         5.28    74.542914    121.97528    27.110548            0   -1218.9471    28.544206   -1218.9471     102.0451    -1116.902 
    6400    156.68629    156.68629         5.28    105.40861    130.07911    80.738114            0   -1219.9975    28.573851   -1219.9975    102.15108   -1117.8464 
    6500    156.69488    156.69488         5.28    109.04926    143.42223    74.676291            0   -1218.7564    27.957554   -1218.7564    99.947831   -1118.8085 
    6600    156.76337    156.76337         5.28   -8.9525503    31.089973   -48.995074            0   -1221.0966    28.339904   -1221.0966    101.31473   -1119.7819 
    6700    156.82404    156.82404         5.28   -98.189485   -89.857247   -106.52172            0   -1222.6589    28.504545   -1222.6589    101.90332   -1120.7556 
    6800    156.82283    156.82283         5.28   -103.32114   -82.289077   -124.35321            0    -1222.955    28.309378    -1222.955     101.2056   -1121.7494 
    6900    156.75915    156.75915         5.28   -39.808467   -52.132209   -27.484725            0   -1222.1919    27.814102   -1222.1919    99.434992   -1122.7569 
    7000     156.6722     156.6722         5.28    12.865181   -16.891612    42.621974            0   -1222.2763    27.560465   -1222.2763    98.528245   -1123.7481 
    7100    156.59585    156.59585         5.28    39.938199     16.86677    63.009628            0   -1223.0044    27.495087   -1223.0044    98.294521   -1124.7099 
    7200    156.54759    156.54759         5.28    46.218524    34.115193    58.321854            0   -1224.1069    27.535548   -1224.1069    98.439166   -1125.6678 
    7300    156.52967    156.52967         5.28    28.780165    62.447142   -4.8868113            0   -1225.4049    27.628421   -1225.4049    98.771188   -1126.6337 
    7400    156.52785    156.52785         5.28   -19.697636    38.712398   -78.107669            0   -1227.6418    27.977684   -1227.6418     100.0198   -1127.6221 
    7500     156.5172     156.5172         5.28   -2.7284874    46.420512   -51.877487            0   -1226.8094    27.468561   -1226.8094     98.19969   -1128.6098 
    7600    156.50273    156.50273         5.28   -10.262393    62.141319   -82.666104            0   -1227.4532    27.370734   -1227.4532    97.849959   -1129.6033 
    7700    156.48102    156.48102         5.28    -35.83005    54.092846   -125.75295            0   -1229.1463      27.5699   -1229.1463    98.561976   -1130.5843 
    7800    156.44054    156.44054         5.28   -2.6009528    43.987409   -49.189315            0   -1228.6291    27.144059   -1228.6291    97.039601   -1131.5895 
    7900    156.39788    156.39788         5.28    7.4479096    30.667859    -15.77204            0   -1229.3938    27.082648   -1229.3938    96.820057   -1132.5737 
    8000    156.36265    156.36265         5.28     29.89092    88.214476   -28.432636            0   -1229.4802    26.834421   -1229.4802    95.932649   -1133.5476 
    8100    156.34548    156.34548         5.28     7.411806    86.866851   -72.043239            0   -1231.1091    27.019096   -1231.1091    96.592857   -1134.5162 
    8200    156.32724    156.32724         5.28   -91.631913   -24.514177   -158.74965            0   -1236.5936    28.270618   -1236.5936    101.06703   -1135.5266 
    8300      156.262      156.262         5.28   -16.562239    59.554767   -92.679245            0   -1235.4667    27.658457   -1235.4667    98.878564   -1136.5882 
    8400    156.19026    156.19026         5.28    86.106589    169.56429    2.6488893            0   -1233.5543     26.84757   -1233.5543    95.979656   -1137.5746 
    8500    156.16791    156.16791         5.28    54.942864    112.95036   -3.0646353            0    -1235.953    27.246114    -1235.953    97.404447   -1138.5485 
    8600     156.1811     156.1811         5.28    29.748827    78.740928   -19.243274            0   -1236.0666    26.999944   -1236.0666    96.524391   -1139.5423 
    8700    156.21245    156.21245         5.28    4.3399199    66.506064   -57.826224            0   -1235.2837    26.509106   -1235.2837    94.769652   -1140.5141 
    8800    156.24058    156.24058         5.28   -87.236151   -15.450495   -159.02181            0   -1237.9597     26.98619   -1237.9597    96.475219   -1141.4845 
    8900    156.21574    156.21574         5.28   -103.97729    7.6426602   -215.59725            0   -1239.1783    27.042249   -1239.1783     96.67563   -1142.5026 
    9000    156.13084    156.13084         5.28   -27.646459    73.906484    -129.1994            0   -1238.2896    26.506344   -1238.2896     94.75978   -1143.5298 
    9100    156.02864    156.02864         5.28    9.6740575    101.19938   -81.851264            0   -1240.1269    26.740961   -1240.1269    95.598532   -1144.5284 
    9200    155.93593    155.93593         5.28    39.141712    161.03304   -82.749619            0   -1242.1237    27.021126   -1242.1237    96.600117   -1145.5236 
    9300    155.87314    155.87314         5.28    96.253366    228.95829   -36.451557            0   -1241.6836    26.620741   -1241.6836    95.168745   -1146.5149 
    9400    155.86871    155.86871         5.28    74.625891    221.57525   -72.323469            0   -1242.6819    26.626141   -1242.6819     95.18805   -1147.4938 
    9500    155.90725    155.90725         5.28   -7.4684073    158.10333   -173.04015            0   -1244.7897    26.935976   -1244.7897    96.295708    -1148.494 
    9600    155.94165    155.94165         5.28   -47.600789    109.74988   -204.95145            0   -1244.7968     26.65704   -1244.7968    95.298514   -1149.4983 
    9700    155.94463    155.94463         5.28   -68.760752    43.432929   -180.95443            0   -1245.1947    26.490614   -1245.1947    94.703544   -1150.4912 
    9800    155.90909    155.90909         5.28  0.088868929    143.29859   -143.12085            0   -1242.8985    25.574547   -1242.8985    91.428618   -1151.4699 
    9900    155.87299    155.87299         5.28    49.594195    194.40555   -95.217156            0   -1241.7809      25.0008   -1241.7809    89.377483   -1152.4034 
   10000    155.86248    155.86248         5.28   -15.021122    122.13941   -152.18165            0   -1244.9763    25.628169   -1244.9763    91.620315    -1153.356 
   10100    155.84162    155.84162         5.28   -85.693256    24.596462   -195.98297            0   -1249.0883    26.506133   -1249.0883    94.759023   -1154.3292 
   10200    155.77579    155.77579         5.28   -13.492754    65.229424   -92.214933            0   -1248.2646    25.997075   -1248.2646    92.939151   -1155.3254 
   10300    155.70055    155.70055         5.28    23.892036    125.31848   -77.534405            0   -1249.6782    26.120326   -1249.6782    93.379769   -1156.2984 
   10400    155.64132    155.64132         5.28    46.802498    180.71227    -87.10727            0   -1251.1998    26.270906   -1251.1998    93.918093   -1157.2817 
   10500    155.61795    155.61795         5.28    127.34941    240.97802      13.7208            0   -1248.3473    25.204595   -1248.3473    90.106045   -1158.2412 
   10600    155.66523    155.66523         5.28    57.225711     181.9247   -67.473274            0   -1249.8699      25.3627   -1249.8699     90.67127   -1159.1986 
   10700    155.74614    155.74614         5.28    -35.33002    86.070624   -156.73066            0   -1250.6503    25.316159   -1250.6503    90.504884   -1160.1454 
   10800    155.80161    155.80161         5.28   -105.48749   -9.0402652   -201.93471            0   -1251.6211     25.33015   -1251.6211    90.554904   -1161.0662 
   10900    155.79466    155.79466         5.28   -75.035255    4.0595908    -154.1301            0   -1250.2376    24.682302   -1250.2376    88.238857   -1161.9987 
   11000    155.73731    155.73731         5.28   -72.919711   -37.364554   -108.47487            0   -1252.1952    24.965492   -1252.1952    89.251255   -1162.9439 
   11100    155.63789    155.63789         5.28   -30.335451   -60.790211   0.11930978            0   -1253.5024    25.058931   -1253.5024    89.585298   -1163.9171 
   11200    155.52508    155.52508         5.28    53.840455     6.962586    100.71832            0   -1253.2838    24.738945   -1253.2838    88.441355   -1164.8424 
   11300    155.44632    155.44632         5.28    82.871709    81.106612    84.636807            0   -1254.4236    24.807611   -1254.4236    88.686834   -1165.7367 
   11400    155.41783    155.41783         5.28    45.157503    56.351114    33.963891            0   -1256.9614    25.257449   -1256.9614    90.294999   -1166.6664 
   11500     155.4184     155.4184         5.28    11.541932    20.727778    2.3560869            0    -1258.534    25.432109    -1258.534    90.919403   -1167.6146 
   11600    155.42801    155.42801         5.28    18.468062    74.427063    -37.49094            0   -1257.8954    24.991418   -1257.8954    89.343942   -1168.5514 
   11700    155.44744    155.44744         5.28    15.585633    113.20866   -82.037396            0    -1257.233    24.545569    -1257.233    87.750037   -1169.4829 
   11800    155.47561    155.47561         5.28    2.9162368    90.581618   -84.749144            0   -1256.4624    24.077003   -1256.4624    86.074923   -1170.3875 
   11900    155.50073    155.50073         5.28   -58.601806     17.83766   -135.04127            0   -1258.2549    24.324742   -1258.2549    86.960583   -1171.2943 
   12000     155.4888     155.4888         5.28   -102.87851   -46.674461   -159.08255            0   -1260.3934    24.668416   -1260.3934    88.189214   -1172.2042 
   12100    155.41556    155.41556         5.28   -85.563075   -46.678197   -124.44795            0   -1261.7777    24.784693   -1261.7777    88.604903   -1173.1728 
   12200    155.29177    155.29177         5.28   -33.887358   -8.8973441   -58.877373            0     -1263.93    25.116204     -1263.93    89.790049   -1174.1399 
   12300    155.15517    155.15517         5.28     78.64759    79.203465    78.091715            0   -1264.1575    24.914183   -1264.1575    89.067827   -1175.0897 
   12400    155.06958    155.06958         5.28    156.42856    157.95497    154.90215            0   -1264.3019    24.707564   -1264.3019    88.329168   -1175.9727 
   12500    155.08147    155.08147         5.28    179.83607    193.33859    166.33354            0   -1262.7685    24.016899   -1262.7685     85.86005   -1176.9084 
   12600    155.19895    155.19895         5.28    104.15591    135.78345    72.528372            0   -1261.3186    23.346649   -1261.3186    83.463917   -1177.8547 
   12700    155.37077    155.37077         5.28   -72.365326   -42.920997   -101.80965            0   -1262.4683    23.427254   -1262.4683    83.752077   -1178.7162 
   12800    155.49179    155.49179         5.28   -209.27667   -198.31049   -220.24285            0   -1264.0961    23.663167   -1264.0961    84.595463   -1179.5006 
   12900    155.48449    155.48449         5.28   -205.52571   -174.12466   -236.92676            0   -1264.5053    23.533294   -1264.5053     84.13117   -1180.3741 
   13000    155.35197    155.35197         5.28   -120.31223   -56.444429   -184.18004            0   -1266.4489    23.799572   -1266.4489    85.083109   -1181.3658 
   13100     155.1563     155.1563         5.28    61.180379    154.11115   -31.750391            0   -1265.9999    23.417548   -1265.9999    83.717378   -1182.2825 
   13200    155.00428    155.00428         5.28     181.3798    280.38633    82.373275            0   -1266.2733    23.272531   -1266.2733    83.198947   -1183.0743 
   13300    154.96413    154.96413         5.28    168.88084    248.69004    89.071639            0   -1267.8923    23.493814   -1267.8923     83.99003   -1183.9022 
   13400    155.02476    155.02476         5.28    67.936006    127.62589    8.2461174            0    -1269.612    23.726223    -1269.612    84.820887   -1184.7911 
   13500    155.12481    155.12481         5.28    -15.53186    5.5370185    -36.60074            0   -1269.1759     23.36373   -1269.1759    83.524982   -1185.6509 
   13600    155.21133    155.21133         5.28   -58.927182   -99.415882   -18.438482            0   -1267.8308    22.755626   -1267.8308    81.351018   -1186.4798 
   13700    155.25934    155.25934         5.28   -59.908901    -135.4867    15.668896            0   -1265.9896    22.021674   -1265.9896    78.727149   -1187.2625 
   13800     155.2648     155.2648         5.28   -93.982009   -155.42673   -32.537284            0   -1267.3356    22.177179   -1267.3356     79.28308   -1188.0525 
   13900    155.21396    155.21396         5.28   -83.876289    -103.9229   -63.829682            0     -1268.51    22.274362     -1268.51    79.630507   -1188.8795 
   14000    155.11581    155.11581         5.28    -25.12788   -16.177469   -34.078292            0   -1269.0839    22.203184   -1269.0839    79.376048   -1189.7079 
   14100    155.00566    155.00566         5.28    21.935017    36.394975    7.4750593            0   -1270.7162    22.431439   -1270.7162    80.192054   -1190.5241 
   14200    154.91457    154.91457         5.28    70.494705    95.663697    45.325714            0   -1271.4735    22.421594   -1271.4735     80.15686   -1191.3166 
   14300    154.86802    154.86802         5.28    66.301596    85.067892    47.535301            0    -1273.058    22.644501    -1273.058    80.953749   -1192.1043 
   14400    154.86233    154.86233         5.28    28.795755    52.800271    4.7912395            0    -1274.688    22.873386    -1274.688    81.772007    -1192.916 
   14500    154.87384    154.87384         5.28     -7.70201    2.4070345   -17.811055            0   -1275.8299     22.96613   -1275.8299    82.103568   -1193.7264 
   14600    154.88195    154.88195         5.28   -4.6331198   -30.084549     20.81831            0   -1275.3849    22.611039   -1275.3849    80.834122   -1194.5508 
   14700    154.88659    154.88659         5.28    5.6354255   -54.955973    66.226824            0   -1274.7218    22.202544   -1274.7218    79.373759    -1195.348 
   14800    154.89256    154.89256         5.28    -12.40018   -50.170947    25.370587            0   -1274.8775    22.026721   -1274.8775    78.745193   -1196.1323 
   14900     154.8875     154.8875         5.28   -65.568565   -71.024265   -60.112865            0   -1276.9353    22.380161   -1276.9353    80.008735   -1196.9266 
   15000     154.8452     154.8452         5.28   -59.600558    -28.49535   -90.705766            0    -1277.899    22.419667    -1277.899    80.149972   -1197.7491 
   15100    154.77119    154.77119         5.28    15.103231    48.786161   -18.579699            0   -1277.5168    22.086139   -1277.5168    78.957614   -1198.5592 
   15200    154.70926    154.70926         5.28    88.669154    133.40303    43.935273            0   -1277.0503    21.739669   -1277.0503    77.718987   -1199.3313 
   15300    154.70096    154.70096         5.28    98.090308    148.99267    47.187944            0   -1277.4118    21.627105   -1277.4118    77.316574   -1200.0953 
   15400     154.7482     154.7482         5.28     24.01242    52.704206   -4.6793668            0   -1279.1231    21.887115   -1279.1231    78.246103    -1200.877 
   15500    154.80618    154.80618         5.28   -69.188264   -73.547088   -64.829439            0   -1280.9361    22.180218   -1280.9361    79.293943   -1201.6421 
   15600    154.82319    154.82319         5.28    -81.66018   -128.94624   -34.374117            0   -1280.4275    21.825215   -1280.4275    78.024815   -1202.4027 
   15700    154.79044    154.79044         5.28   -57.195764   -115.98317    1.5916433            0   -1280.2416    21.557433   -1280.2416    77.067497   -1203.1741 
   15800     154.7236     154.7236         5.28   -23.214143   -73.226271    26.797986            0   -1281.0619    21.568529   -1281.0619    77.107163   -1203.9547 
   15900    154.64574    154.64574         5.28    28.107535   -12.871293    69.086364            0    -1281.533    21.484443    -1281.533     76.80656   -1204.7265 
   16000    154.58631    154.58631         5.28    54.378245   -18.207948    126.96444            0     -1282.66    21.588717     -1282.66    77.179336   -1205.4807 
   16100    154.56167    154.56167         5.28     66.55859   -4.5272858    137.64447            0   -1283.1687    21.521249   -1283.1687    76.938141   -1206.2306 
   16200    154.57675    154.57675         5.28    48.972533    1.5310982    96.413968            0   -1283.4329    21.385725   -1283.4329    76.453643   -1206.9792 
   16300    154.61896    154.61896         5.28  0.072742365    -31.02094    31.166425            0   -1283.9279    21.312172   -1283.9279    76.190692   -1207.7372 
   16400    154.65963    154.65963         5.28   -41.749407   -78.920625   -4.5781884            0   -1283.8829    21.094245   -1283.8829    75.411607   -1208.4713 
   16500    154.67311    154.67311         5.28   -63.616647   -95.925014    -31.30828            0   -1284.1674    20.971598   -1284.1674    74.973144   -1209.1943 
   16600    154.64961    154.64961         5.28   -30.177564   -14.329293   -46.025834            0   -1283.4703    20.575724   -1283.4703    73.557902   -1209.9124 
   16700    154.60721    154.60721         5.28   -12.632875    27.586809   -52.852559            0    -1284.064    20.545296    -1284.064    73.449121   -1210.6148 
   16800    154.55324    154.55324         5.28   -65.531035   -46.258091   -84.803979            0   -1288.2593    21.510614   -1288.2593    76.900121   -1211.3592 
   16900    154.46656    154.46656         5.28   -10.045836   -44.511954    24.420283            0    -1288.599     21.38946    -1288.599    76.466997    -1212.132 
   17000     154.3796     154.3796         5.28    94.225853    8.6473166    179.80439            0   -1286.9382    20.723337   -1286.9382    74.085617   -1212.8526 
   17100    154.34531    154.34531         5.28    70.522357   -37.803117    178.84783            0   -1289.4305    21.221039   -1289.4305    75.864895   -1213.5656 
   17200     154.3558     154.3558         5.28    46.876171   -83.654735    177.40708            0    -1289.959    21.161917    -1289.959    75.653534   -1214.3055 
   17300    154.39341    154.39341         5.28    15.311604   -108.68772    139.31093            0   -1289.9164    20.944429   -1289.9164    74.876016   -1215.0404 
   17400    154.43814    154.43814         5.28   -24.215032   -112.50197    64.071903            0   -1289.6088     20.66242   -1289.6088    73.867838    -1215.741 
   17500    154.46557    154.46557         5.28   -69.476926   -157.99242    19.038571            0   -1289.9435    20.561345   -1289.9435    73.506498    -1216.437 
   17600    154.45056    154.45056         5.28   -70.794481   -200.58806      58.9991            0   -1290.0368    20.389268   -1290.0368    72.891326   -1217.1455 
   17700    154.39645    154.39645         5.28   -3.9933739   -151.76433    143.77758            0   -1288.4244    19.745091   -1288.4244    70.588402    -1217.836 
   17800    154.33784    154.33784         5.28    16.756862   -115.40367    148.91739            0    -1289.412    19.836314    -1289.412    70.914521   -1218.4974 
   17900    154.29205    154.29205         5.28    45.189244   -76.645789    167.02428            0   -1289.6539    19.720838   -1289.6539    70.501696   -1219.1522 
   18000    154.27198    154.27198         5.28    25.769274   -85.897493    137.43604            0    -1291.423    20.031752    -1291.423    71.613211   -1219.8098 
   18100    154.26676    154.26676         5.28   -9.7733349   -127.60425    108.05758            0   -1293.3701    20.389186   -1293.3701    72.891031   -1220.4791 
   18200    154.25876    154.25876         5.28    11.495727   -85.429095    108.42055            0   -1292.8536      20.0574   -1292.8536    71.704901   -1221.1487 
   18300    154.25748    154.25748         5.28    37.026632   -36.237143    110.29041            0   -1291.7981    19.578725   -1291.7981    69.993645   -1221.8045 
   18400    154.27544    154.27544         5.28     2.963344   -84.321844    90.248532            0   -1292.3298    19.546689   -1292.3298    69.879117   -1222.4507 
   18500    154.29117    154.29117         5.28   -74.082137   -116.47469   -31.689586            0   -1294.9248      20.0899   -1294.9248    71.821089   -1223.1037 
   18600    154.26606    154.26606         5.28   -54.740125   -60.410298   -49.069953            0   -1294.7278    19.849683   -1294.7278    70.962316   -1223.7655 
   18700     154.2106     154.2106         5.28    29.409884    12.884745    45.935024            0   -1293.0944    19.214075   -1293.0944    68.690029   -1224.4043 
   18800    154.17377    154.17377         5.28    91.203055    60.217299    122.18881            0   -1291.6998    18.651814   -1291.6998    66.679954   -1225.0199 
   18900    154.18505    154.18505         5.28    14.655911   -31.008082    60.319904            0   -1294.6992     19.32121   -1294.6992    69.073031   -1225.6261 
   19000     154.2048     154.2048         5.28   -60.707673   -84.089447   -37.325898            0   -1297.2887    19.871624   -1297.2887    71.040756   -1226.2479 
   19100    154.19254    154.19254         5.28   -21.338911   -10.871814   -31.806008            0   -1296.1637    19.380926   -1296.1637    69.286516   -1226.8772 
   19200    154.16788    154.16788         5.28    30.750649    70.500416   -8.9991182            0   -1294.8755    18.848714   -1294.8755    67.383869   -1227.4916 
   19300    154.15635    154.15635         5.28   -12.433768    9.8140495   -34.681586            0    -1297.251    19.345507    -1297.251    69.159893   -1228.0911 
   19400    154.13862    154.13862         5.28   -29.276404   -28.844659   -29.708148            0   -1298.7143    19.579927   -1298.7143    69.997943   -1228.7163 
   19500    154.10783    154.10783         5.28    40.131024    33.932128     46.32992            0   -1296.7935    18.869396   -1296.7935    67.457805   -1229.3357 
   19600    154.09831    154.09831         5.28    49.769327    53.291351    46.247302            0   -1296.5998    18.651792   -1296.5998    66.679875   -1229.9199 
   19700    154.11518    154.11518         5.28   -9.2007249    18.396377   -36.797826            0   -1298.1833    18.931606   -1298.1833    67.680204   -1230.5031 
   19800    154.12852    154.12852         5.28   -23.064295    16.396458   -62.525048            0   -1297.5598    18.592911   -1297.5598    66.469374   -1231.0904 
   19900     154.1258     154.1258         5.28   -41.155628   -12.134856   -70.176401            0    -1298.164    18.599727    -1298.164    66.493742   -1231.6702 
   20000    154.09978    154.09978         5.28   -26.634039   -10.237797   -43.030281            0   -1298.4467    18.515353   -1298.4467    66.192108   -1232.2546 
   20100    154.05602    154.05602         5.28   -24.499916    4.7037251   -53.703557            0   -1300.3595    18.886281   -1300.3595    67.518169   -1232.8413 
   20200    153.99994    153.99994         5.28    22.124538    63.617261   -19.368184            0   -1300.9365     18.88354   -1300.9365     67.50837   -1233.4281 
   20300     153.9615     153.9615         5.28    113.17694    136.24266    90.111218            0   -1298.4291    18.023898   -1298.4291    64.435161   -1233.9939 
   20400    153.98427    153.98427         5.28    67.322074    76.861678     57.78247            0   -1299.3143    18.117483   -1299.3143    64.769729   -1234.5446 
   20500    154.04394    154.04394         5.28   -50.595308   -31.230505    -69.96011            0     -1301.64    18.611796     -1301.64     66.53689   -1235.1031 
   20600    154.07377    154.07377         5.28   -112.01424   -89.414625   -134.61385            0   -1302.8015    18.782886   -1302.8015    67.148534    -1235.653 
   20700    154.03846    154.03846         5.28   -80.945751   -64.557131   -97.334371            0   -1302.7125    18.595322   -1302.7125    66.477994   -1236.2345 
   20800    153.95598    153.95598         5.28   -2.3292059    2.0387902    -6.697202            0   -1302.6398    18.413385   -1302.6398    65.827573   -1236.8123 
   20900    153.87288    153.87288         5.28    72.378671    80.600891    64.156451            0   -1302.6933    18.273056   -1302.6933    65.325897   -1237.3674 
   21000    153.83375    153.83375         5.28    110.57193    118.78495    102.35892            0   -1302.1137    17.960968   -1302.1137    64.210187   -1237.9035 
   21100    153.85643    153.85643         5.28     37.75195    40.903969    34.599931            0   -1303.9047    18.309857   -1303.9047    65.457463   -1238.4473 
   21200    153.89857    153.89857         5.28   -77.680829   -32.945851   -122.41581            0   -1307.1391    19.057706   -1307.1391    68.131011   -1239.0081 
   21300    153.89887    153.89887         5.28   -69.339561      20.1507   -158.82982            0   -1306.6559    18.762274   -1306.6559    67.074846   -1239.5811 
   21400    153.85924    153.85924         5.28    1.0709581    105.26867   -103.12675            0   -1305.0858    18.165469   -1305.0858    64.941277   -1240.1445 
   21500    153.81902    153.81902         5.28     47.16426    147.51385   -53.185329            0   -1304.6242    17.885873   -1304.6242    63.941724   -1240.6825 
   21600    153.80595    153.80595         5.28     56.45308     114.9726   -2.0664418            0   -1304.6081    17.734833   -1304.6081    63.401759   -1241.2063 
   21700    153.82532    153.82532         5.28    26.789774    58.511739   -4.9321914            0   -1304.8304    17.648081   -1304.8304    63.091621   -1241.7388 
   21800     153.8574     153.8574         5.28   -49.431633   -3.4606339   -95.402632            0    -1306.371    17.933753    -1306.371    64.112894   -1242.2581 
   21900    153.85923    153.85923         5.28   -103.48962   -24.103502   -182.87574            0   -1308.0862    18.264501   -1308.0862    65.295313   -1242.7908 
   22000    153.80205    153.80205         5.28   -63.668156    32.109968   -159.44628            0   -1308.4588    18.210952   -1308.4588    65.103877   -1243.3549 
   22100     153.7102     153.7102         5.28    46.871061    132.16999   -38.427867            0    -1307.268      17.7303    -1307.268    63.385555   -1243.8824 
   22200    153.64472    153.64472         5.28    97.365118    159.71413    35.016108            0    -1307.465    17.646116    -1307.465    63.084599   -1244.3804 
   22300    153.63435    153.63435         5.28     63.39886    118.72359    8.0741327            0   -1309.1755    17.981677   -1309.1755    64.284222   -1244.8913 
   22400    153.66395    153.66395         5.28    45.924004    102.39216   -10.544156            0   -1308.6282    17.683427   -1308.6282    63.217983   -1245.4102 
   22500    153.71894    153.71894         5.28    1.9002415    48.523222   -44.722739            0   -1308.5644    17.524935   -1308.5644    62.651379    -1245.913 
   22600    153.77173    153.77173         5.28   -72.604037      -40.428   -104.78007            0    -1310.137    17.829624    -1310.137    63.740638   -1246.3964 
   22700    153.78291    153.78291         5.28   -75.468026   -24.346146   -126.58991            0   -1310.2182    17.711814   -1310.2182    63.319466   -1246.8987 
   22800    153.74956    153.74956         5.28   -32.194713    56.560548   -120.94997            0   -1310.0476    17.521254   -1310.0476    62.638219   -1247.4094 
   22900    153.69554    153.69554         5.28  -0.78684899    77.088838   -78.662536            0   -1310.9169    17.623638   -1310.9169    63.004238   -1247.9127 
   23000    153.64059    153.64059         5.28    16.991967    82.780475   -48.796542            0    -1312.082    17.809234    -1312.082    63.667742   -1248.4142 
   23100    153.59548    153.59548         5.28     25.63486    104.59727   -53.327553            0   -1313.2599    17.995344   -1313.2599    64.333083   -1248.9268 
   23200     153.5685     153.5685         5.28    67.183891    138.87393   -4.5061472            0   -1312.1804    17.553208   -1312.1804    62.752451   -1249.4279 
   23300    153.57933    153.57933         5.28    54.068047    121.67694    -13.54084            0   -1312.0133    17.365647   -1312.0133    62.081927   -1249.9313 
   23400    153.61898    153.61898         5.28   -19.761453    49.857386   -89.380293            0   -1313.2299    17.569547   -1313.2299    62.810866    -1250.419 
   23500    153.64779    153.64779         5.28    -58.34092   -8.8324731   -107.84937            0    -1313.402    17.481937    -1313.402     62.49766   -1250.9043 
   23600    153.64219    153.64219         5.28   -50.417504   -2.5320379   -98.302971            0   -1313.3407    17.324971   -1313.3407     61.93651   -1251.4042 
   23700    153.60703    153.60703         5.28   -7.5931612     71.03554   -86.221862            0   -1313.1006    17.116629   -1313.1006    61.191691   -1251.9089 
   23800    153.56699    153.56699         5.28    30.011278    97.979621   -37.957066            0   -1313.2035    17.011526   -1313.2035    60.815948   -1252.3876 
   23900    153.54132    153.54132         5.28    2.0776322     67.47764   -63.322376            0   -1315.5981    17.545159   -1315.5981    62.723677   -1252.8745 
   24000    153.51729    153.51729         5.28   -14.052584    99.590564   -127.69573            0   -1317.2584    17.870873   -1317.2584    63.888099   -1253.3703 
   24100    153.48874    153.48874         5.28    43.747489     198.2588   -110.76382            0   -1315.7992    17.325853   -1315.7992    61.939661   -1253.8595 
   24200    153.48493    153.48493         5.28    72.837274     241.9958   -96.321252            0   -1314.7656      16.9057   -1314.7656     60.43762    -1254.328 
   24300     153.5207     153.5207         5.28    16.104188    145.55207    -113.3437            0   -1315.7368    17.045479   -1315.7368    60.937331   -1254.7995 
   24400    153.56356    153.56356         5.28   -75.181204    17.712803   -168.07521            0   -1317.6194    17.445503   -1317.6194     62.36741   -1255.2519 
   24500    153.56181    153.56181         5.28   -117.03639  -0.25513214   -233.81766            0   -1319.2251    17.759736   -1319.2251    63.490788   -1255.7343 
   24600    153.49467    153.49467         5.28   -35.967387    105.86172    -177.7965            0   -1318.3286    17.364618   -1318.3286    62.078246   -1256.2503 
   24700    153.40759    153.40759         5.28    83.289426    220.63953   -54.060676            0   -1316.6387    16.762551   -1316.6387    59.925864   -1256.7128 
   24800    153.36709    153.36709         5.28    123.69274     251.9349   -4.5494132            0   -1316.3161    16.552328   -1316.3161    59.174321   -1257.1418 
   24900    153.39797    153.39797         5.28    87.746193    198.25517   -22.762785            0   -1316.3896    16.442732   -1316.3896    58.782519    -1257.607 
   25000     153.4785     153.4785         5.28   -7.9600845    91.412567   -107.33274            0   -1317.4758    16.621368   -1317.4758    59.421138   -1258.0546 
   25100    153.55366    153.55366         5.28   -88.354435   -6.9625461   -169.74632            0   -1318.4581     16.77527   -1318.4581    59.971335   -1258.4867 
   25200    153.57807    153.57807         5.28   -90.041438    -21.65477   -158.42811            0   -1317.6747     16.43921   -1317.6747    58.769928   -1258.9048 
   25300    153.54761    153.54761         5.28   -64.390134    15.061324   -143.84159            0   -1317.4654    16.256756   -1317.4654    58.117655   -1259.3477 
   25400    153.47837    153.47837         5.28   -20.013442    70.437857   -110.46474            0   -1317.7729    16.219683   -1317.7729    57.985122   -1259.7878 
   25500    153.39795    153.39795         5.28    42.437605    126.02731   -41.152096            0    -1317.962    16.156479    -1317.962    57.759169   -1260.2028 
   25600    153.34203    153.34203         5.28    74.559961    166.20944   -17.089513            0    -1318.752    16.264631    -1318.752    58.145809   -1260.6062 
   25700    153.32851    153.32851         5.28    55.714983    139.68017   -28.250202            0    -1320.328    16.588435    -1320.328    59.303403   -1261.0246 
   25800    153.34909    153.34909         5.28    38.640532    107.75912   -30.478057            0   -1320.2398    16.443151   -1320.2398    58.784017   -1261.4557 
   25900    153.39108    153.39108         5.28   -3.6322924    66.839487   -74.104072            0   -1320.3223    16.350424   -1320.3223    58.452517   -1261.8697 
   26000    153.42926    153.42926         5.28   -58.216243     11.79255   -128.22504            0   -1321.2496    16.497226   -1321.2496    58.977335   -1262.2723 
   26100    153.43366    153.43366         5.28   -63.900139   -4.0302301   -123.77005            0   -1321.4534    16.440452   -1321.4534    58.774367    -1262.679 
   26200    153.40101    153.40101         5.28   -23.734886    34.173149   -81.642921            0   -1321.0307    16.207737   -1321.0307    57.942413   -1263.0883 
   26300    153.35274    153.35274         5.28    5.8993996     94.92126   -83.122461            0   -1321.5817    16.246811   -1321.5817    58.082104   -1263.4996 
   26400    153.30741    153.30741         5.28    33.749411    162.88573    -95.38691            0   -1322.1483    16.290374   -1322.1483    58.237839   -1263.9105 
   26500    153.28407    153.28407         5.28    83.467896    207.99777   -41.061983            0   -1320.8192    15.808931   -1320.8192    56.516688   -1264.3025 
   26600    153.30717    153.30717         5.28    60.461888    170.44539    -49.52161            0   -1320.6169    15.643798   -1320.6169     55.92634   -1264.6905 
   26700    153.36229    153.36229         5.28    -36.86793     82.77636   -156.51222            0   -1322.3863     16.03188   -1322.3863    57.313728   -1265.0726 
   26800    153.39727    153.39727         5.28   -83.090349    28.604378   -194.78508            0   -1322.9209    16.074613   -1322.9209    57.466496   -1265.4544 
   26900    153.38434    153.38434         5.28   -59.167702    44.010301    -162.3457            0   -1322.4925     15.84454   -1322.4925     56.64399   -1265.8485 
   27000    153.33568    153.33568         5.28   -14.423142    104.28266   -133.12894            0   -1322.5013    15.738369   -1322.5013    56.264431   -1266.2368 
   27100    153.27689    153.27689         5.28    13.364472    129.39993   -102.67099            0    -1323.495    15.909023    -1323.495    56.874517   -1266.6205 
   27200    153.22519    153.22519         5.28    30.787824    120.83476    -59.25911            0   -1324.5914    16.110219   -1324.5914     57.59379   -1266.9976 
   27300    153.19275    153.19275         5.28    59.695264    129.37475   -9.9842231            0   -1324.3824    15.947921   -1324.3824    57.013574   -1267.3688 
   27400    153.19476    153.19476         5.28    62.896231     134.6488   -8.8563417            0   -1324.1066    15.765894   -1324.1066    56.362832   -1267.7438 
   27500    153.23315    153.23315         5.28      37.5736    120.54762   -45.400417            0   -1323.7501    15.561504   -1323.7501    55.632142   -1268.1179 
   27600    153.29286    153.29286         5.28   -12.226666    73.476651   -97.929982            0   -1323.5034    15.393582   -1323.5034    55.031821   -1268.4716 
   27700     153.3424     153.3424         5.28   -92.780288   -31.020669   -154.53991            0   -1324.9834    15.711773   -1324.9834    56.169351    -1268.814 
   27800    153.33772    153.33772         5.28   -115.21753   -58.635959    -171.7991            0   -1325.9769    15.887267   -1325.9769    56.796737   -1269.1802 
   27900    153.26704    153.26704         5.28   -50.113715    31.832676   -132.06011            0   -1325.6899    15.699343   -1325.6899    56.124913    -1269.565 
   28000     153.1648     153.1648         5.28    19.250266    122.46372   -83.963186            0   -1326.7669    15.895287   -1326.7669     56.82541   -1269.9415 
   28100    153.07487    153.07487         5.28    99.813677    206.54011   -6.9127605            0   -1326.8897    15.832463   -1326.8897    56.600814   -1270.2889 
   28200    153.04326    153.04326         5.28    138.57837    252.38987    24.766867            0   -1326.3509    15.584271   -1326.3509    55.713534   -1270.6374 
   28300    153.08972    153.08972         5.28     75.86858    193.50673    -41.76957            0   -1327.1036    15.691687   -1327.1036    56.097545    -1271.006 
   28400    153.18142    153.18142         5.28   -3.5231825    116.45294    -123.4993            0   -1326.6739    15.470675   -1326.6739     55.30743   -1271.3664 
   28500    153.26995    153.26995         5.28   -84.792311    26.246595   -195.83122            0     -1326.55    15.346228     -1326.55    54.862532   -1271.6874 
   28600    153.30697    153.30697         5.28   -141.83029   -30.006179   -253.65441            0   -1327.5107    15.525651   -1327.5107    55.503968   -1272.0067 
   28700    153.26175    153.26175         5.28   -106.88406     25.00405   -238.77217            0   -1327.8231    15.509604   -1327.8231    55.446599   -1272.3765 
   28800     153.1537     153.1537         5.28   -15.938056    92.608294    -124.4844            0   -1328.2519    15.522486   -1328.2519    55.492651   -1272.7592 
   28900    153.03558    153.03558         5.28    71.583201    137.50431    5.6620908            0   -1328.9888    15.634642   -1328.9888    55.893607   -1273.0952 
   29000    152.95899    152.95899         5.28    119.53217    187.25868    51.805651            0   -1329.7412    15.757657   -1329.7412    56.333386   -1273.4078 
   29100    152.95235    152.95235         5.28    120.38611    211.00489    29.767315            0   -1329.9722    15.727363   -1329.9722    56.225084   -1273.7471 
   29200    153.01641    153.01641         5.28    84.641811    174.71642   -5.4327978            0   -1328.9963    15.353847   -1328.9963    54.889771   -1274.1065 
   29300    153.12843    153.12843         5.28     2.411999    86.961624   -82.137626            0   -1328.0792     15.00242   -1328.0792    53.633423   -1274.4458 
   29400       153.24       153.24         5.28   -95.232339   -7.1959069   -183.26877            0   -1327.8208    14.851092   -1327.8208    53.092431   -1274.7283 
   29500    153.29484    153.29484         5.28   -142.06007   -38.502193   -245.61796            0   -1327.5244      14.6891   -1327.5244    52.513311   -1275.0111 
   29600    153.26481    153.26481         5.28   -137.70319   -23.431099   -251.97529            0   -1328.3323    14.821735   -1328.3323    52.987477   -1275.3449 
   29700    153.15238    153.15238         5.28   -94.907285   -3.3882549   -186.42631            0   -1330.8385     15.41716   -1330.8385    55.116112   -1275.7224 
   29800    152.98696    152.98696         5.28    24.981876    80.629067   -30.665315            0   -1332.0489    15.651904   -1332.0489    55.955321   -1276.0936 
   29900    152.84053    152.84053         5.28    178.05682    237.27327    118.84036            0   -1330.8985    15.255275   -1330.8985    54.537378   -1276.3611 
   30000    152.79672    152.79672         5.28    217.30088    296.09169    138.51007            0   -1330.7325    15.136582   -1330.7325     54.11305   -1276.6194 
   30100    152.87705    152.87705         5.28    124.47426    202.19446    46.754048            0   -1331.5217    15.253856   -1331.5217    54.532305   -1276.9894 
   30200    153.02725    153.02725         5.28   -26.610151    20.195103   -73.415405            0   -1332.2061    15.350905   -1332.2061    54.879252   -1277.3268 
   30300    153.16126    153.16126         5.28   -124.35982   -93.267798   -155.45184            0   -1331.1307    14.980518   -1331.1307    53.555124   -1277.5756 
   30400    153.21969    153.21969         5.28    -162.2042   -115.10269   -209.30572            0   -1330.5399    14.742948   -1330.5399    52.705815   -1277.8341 
   30500    153.18135    153.18135         5.28     -137.931   -101.95069   -173.91131            0   -1331.0763    14.803093   -1331.0763    52.920833   -1278.1555 
   30600    153.06441    153.06441         5.28   -34.936631   -33.145639   -36.727624            0   -1330.9986    14.682693   -1330.9986    52.490407   -1278.5082 
   30700    152.92847    152.92847         5.28    65.097946    59.471923     70.72397            0    -1331.646    14.781523    -1331.646    52.843722   -1278.8023 
   30800    152.83039    152.83039         5.28    93.972192    82.143927    105.80046            0   -1334.1459    15.405819   -1334.1459    55.075569   -1279.0703 
   30900    152.79111    152.79111         5.28    123.63728    87.668675    159.60588            0    -1334.368    15.389389    -1334.368    55.016831   -1279.3511 
   31000    152.82501    152.82501         5.28    125.72985     85.08155    166.37815            0   -1332.9046    14.893755   -1332.9046    53.244948   -1279.6597 
   31100    152.92784    152.92784         5.28     37.83384    28.044523    47.623156            0   -1332.6953     14.74583   -1332.6953    52.716118   -1279.9792 
   31200    153.04964    153.04964         5.28   -63.612334   -59.165289   -68.059379            0     -1332.21     14.53671     -1332.21    51.968519   -1280.2414 
   31300    153.12949    153.12949         5.28   -153.36387   -167.66496   -139.06277            0   -1332.9403    14.676192   -1332.9403    52.467164   -1280.4731 
   31400     153.1186     153.1186         5.28   -160.80351    -172.5183   -149.08872            0   -1333.7067    14.810148   -1333.7067    52.946056   -1280.7606 
   31500    153.01748    153.01748         5.28   -43.071726   -56.551053   -29.592399            0   -1332.6226    14.416191   -1332.6226    51.537666   -1281.0849 
   31600    152.89483    152.89483         5.28    103.07642    111.86068    94.292164            0   -1331.0925    13.919152   -1331.0925    49.760758   -1281.3318 
   31700    152.83129    152.83129         5.28    139.68377    151.89009    127.47746            0   -1331.8406    14.066241   -1331.8406    50.286597   -1281.5541 
   31800    152.84609    152.84609         5.28    56.928029    43.658692    70.197366            0    -1334.699    14.792857    -1334.699     52.88424   -1281.8148 
   31900    152.89532    152.89532         5.28   0.55438729   -4.8676718    5.9764463            0   -1335.3145    14.890112   -1335.3145    53.231925   -1282.0825 
   32000    152.94743    152.94743         5.28    19.025456    21.759603     16.29131            0   -1332.6293    14.066695   -1332.6293     50.28822   -1282.3411 
   32100    153.00492    153.00492         5.28   -25.969378    -44.39014   -7.5486163            0   -1332.4213    13.942579   -1332.4213    49.844508   -1282.5768 
   32200    153.04348    153.04348         5.28   -85.463857   -127.90671   -43.021008            0   -1333.3258    14.131637   -1333.3258    50.520386   -1282.8054 
   32300    153.03449    153.03449         5.28   -57.123853   -76.359551   -37.888155            0   -1332.1012    13.720365   -1332.1012    49.050097   -1283.0511 
   32400    152.98901    152.98901         5.28   -53.270178   -22.054555     -84.4858            0   -1333.7437    14.109851   -1333.7437    50.442504   -1283.3012 
   32500    152.91302    152.91302         5.28   -36.008901    6.0126422   -78.030444            0   -1336.0008    14.672659   -1336.0008    52.454534   -1283.5463 
   32600    152.82101    152.82101         5.28    45.666484    48.361502    42.971465            0   -1335.9016     14.57797   -1335.9016    52.116021   -1283.7856 
   32700    152.75677    152.75677         5.28    100.33158    69.199999    131.46316            0   -1335.9885    14.539093   -1335.9885    51.977038   -1284.0115 
   32800    152.75196    152.75196         5.28    114.40735    69.921549    158.89315            0   -1335.5007     14.33617   -1335.5007    51.251592   -1284.2491 
   32900    152.81139    152.81139         5.28     59.25414    33.143825    85.364454            0   -1335.6305    14.304578   -1335.6305    51.138649   -1284.4919 
   33000    152.90193    152.90193         5.28   -30.118034   -52.240625   -7.9954425            0   -1336.0437     14.36058   -1336.0437    51.338858   -1284.7048 
   33100    152.97392    152.97392         5.28   -73.269301   -96.365556   -50.173046            0   -1334.8889    13.979943   -1334.8889    49.978086   -1284.9108 
   33200    153.00034    153.00034         5.28   -94.840466   -102.96609   -86.714847            0   -1334.5639    13.833635   -1334.5639    49.455035   -1285.1088 
   33300    152.96997    152.96997         5.28   -83.880446   -77.729588   -90.031304            0   -1335.0124    13.898241   -1335.0124       49.686   -1285.3264 
   33400    152.89259    152.89259         5.28   -23.779413   -18.128721   -29.430106            0   -1335.1019     13.85943   -1335.1019    49.547254   -1285.5546 
   33500     152.8018     152.8018         5.28    25.977261    14.865488    37.089035            0   -1336.5075    14.191906   -1336.5075    50.735849   -1285.7717 
   33600     152.7296     152.7296         5.28     85.50911    72.619378    98.398842            0   -1336.7382     14.19964   -1336.7382    50.763497   -1285.9747 
   33700    152.70821    152.70821         5.28    112.00086      104.268    119.73372            0   -1336.2699    14.013193   -1336.2699    50.096951   -1286.1729 
   33800    152.75104    152.75104         5.28    84.556574    56.308338    112.80481            0   -1335.4769    13.732285   -1335.4769    49.092711   -1286.3841 
   33900    152.83908    152.83908         5.28   -8.8442795   -54.630584    36.942025            0   -1335.8499    13.780786   -1335.8499      49.2661   -1286.5838 
   34000    152.91782    152.91782         5.28   -108.62802   -150.91202   -66.344013            0   -1337.1392    14.093715   -1337.1392    50.384818   -1286.7543 
   34100    152.93573    152.93573         5.28   -86.829795    -112.9328    -60.72679            0   -1335.3708    13.548138   -1335.3708    48.434389   -1286.9364 
   34200     152.9012     152.9012         5.28   -46.196802   -52.262289   -40.131315            0   -1334.8351    13.345327   -1334.8351     47.70934   -1287.1258 
   34300    152.83744    152.83744         5.28   -38.859571   -66.509315   -11.209826            0   -1336.8216    13.848418   -1336.8216    49.507886   -1287.3137 
   34400    152.75462    152.75462         5.28    16.333726   -38.156809    70.824261            0   -1337.3444     13.94101   -1337.3444    49.838898   -1287.5055 
   34500    152.68407    152.68407         5.28    80.033274    34.442142    125.62441            0   -1337.1359    13.835456   -1337.1359    49.461545   -1287.6743 
   34600    152.65899    152.65899         5.28    79.318262    51.267927     107.3686            0   -1338.3188    14.119052   -1338.3188    50.475398   -1287.8434 
   34700    152.68121    152.68121         5.28    68.737096    45.988083    91.486109            0   -1338.1018    14.005992   -1338.1018    50.071208   -1288.0306 
   34800    152.74097    152.74097         5.28    14.778206    4.7124747    24.843938            0   -1338.3612    14.028748   -1338.3612    50.152562   -1288.2086 
   34900    152.80587    152.80587         5.28   -57.972891   -56.922184   -59.023597            0   -1339.1735    14.210357   -1339.1735    50.801812   -1288.3717 
   35000    152.83778    152.83778         5.28   -61.860849   -61.277274   -62.444423            0   -1338.0025    13.835394   -1338.0025    49.461325   -1288.5411 
   35100    152.83282    152.83282         5.28   -31.821365   -23.934795   -39.707935            0     -1336.91    13.486095     -1336.91    48.212586   -1288.6974 
   35200    152.80825    152.80825         5.28    -5.810656    15.733872   -27.355184            0   -1336.8023    13.411322   -1336.8023    47.945274    -1288.857 
   35300    152.77881    152.77881         5.28   -5.6996617    18.661306    -30.06063            0    -1337.961    13.691663    -1337.961    48.947488   -1289.0135 
   35400    152.74707    152.74707         5.28    6.2935602    20.045965   -7.4588449            0   -1338.4099    13.770585   -1338.4099    49.229631   -1289.1803 
   35500    152.71758    152.71758         5.28   -11.320737   -10.477293   -12.164181            0   -1340.1334     14.21053   -1340.1334    50.802429    -1289.331 
   35600    152.68291    152.68291         5.28 -0.050095144   -13.581971     13.48178            0   -1341.0182    14.412317   -1341.0182    51.523815   -1289.4943 
   35700    152.65311    152.65311         5.28    85.295807    61.323666    109.26795            0   -1338.3529    13.625148   -1338.3529    48.709697   -1289.6432 
   35800    152.66897    152.66897         5.28    70.923691    68.639703     73.20768            0   -1338.0825    13.507987   -1338.0825     48.29085   -1289.7917 
   35900    152.72017    152.72017         5.28   -46.392087   -42.714279   -50.069895            0   -1341.0623    14.301036   -1341.0623    51.125988   -1289.9363 
   36000    152.74839    152.74839         5.28   -53.661479   -70.516505   -36.806453            0   -1340.3243    14.056667   -1340.3243    50.252373   -1290.0719 
   36100    152.74638    152.74638         5.28  -0.26290044   -32.140216    31.614416            0   -1338.5924    13.536926   -1338.5924    48.394304   -1290.1981 
   36200    152.74127    152.74127         5.28    12.616628   -23.988255    49.221512            0   -1338.8536    13.570009   -1338.8536    48.512575   -1290.3411 
   36300    152.74338    152.74338         5.28    20.970057    -14.58649    56.526604            0   -1338.6934    13.486727   -1338.6934    48.214845   -1290.4785 
   36400    152.75539    152.75539         5.28   -6.4817823   -27.047859    14.084294            0   -1339.7327    13.741499   -1339.7327    49.125649    -1290.607 
   36500    152.76267    152.76267         5.28   -34.588444   -33.122374   -36.054514            0    -1340.977    14.052492    -1340.977    50.237445   -1290.7395 
   36600    152.75061    152.75061         5.28   -23.322078    8.1701304   -54.814287            0   -1341.0945    14.045832   -1341.0945    50.213636   -1290.8808 
   36700    152.72601    152.72601         5.28    17.386486    69.083152    -34.31018            0   -1340.0833    13.724743   -1340.0833     49.06575   -1291.0176 
   36800    152.71032    152.71032         5.28    33.240775    86.212266   -19.730716            0   -1339.7404    13.594228   -1339.7404     48.59916   -1291.1413 
   36900    152.71263    152.71263         5.28    19.691059     79.64165   -40.259533            0   -1340.0502    13.644411   -1340.0502    48.778564   -1291.2717 
   37000    152.72609    152.72609         5.28  -0.88932505    33.471737   -35.250387            0   -1340.1261     13.63081   -1340.1261    48.729938   -1291.3962 
   37100    152.73598    152.73598         5.28   -54.889852   -64.857031   -44.922672            0   -1341.9778     14.11483   -1341.9778    50.460305   -1291.5174 
   37200    152.71568    152.71568         5.28   -46.396024   -56.563145   -36.228903            0   -1342.3649    14.187901   -1342.3649     50.72153   -1291.6434 
   37300    152.67083    152.67083         5.28    26.554857    30.853057    22.256657            0   -1340.9458    13.756983   -1340.9458    49.181006   -1291.7648 
   37400    152.64057    152.64057         5.28    69.805079    79.320767     60.28939            0    -1340.121    13.493097    -1340.121    48.237616   -1291.8834 
   37500    152.64738    152.64738         5.28    27.710521    33.494276    21.926766            0   -1341.4453    13.831262   -1341.4453    49.446552   -1291.9987 
   37600    152.67011    152.67011         5.28   -17.756272    -6.392355   -29.120189            0   -1342.1789    14.002269   -1342.1789    50.057901    -1292.121 
   37700    152.68371    152.68371         5.28   -19.172483   -6.3453718   -31.999594            0   -1341.3955    13.750273   -1341.3955    49.157016   -1292.2385 
   37800    152.68478    152.68478         5.28   -23.435061   -31.671564   -15.198557            0   -1341.4738     13.74122   -1341.4738    49.124652   -1292.3491 
   37900     152.6712     152.6712         5.28   -25.047406   -47.694477   -2.4003346            0    -1342.192      13.9107    -1342.192    49.730542   -1292.4615 
   38000    152.64454    152.64454         5.28    13.319675   -7.0208128    33.660163            0   -1341.6147    13.720384   -1341.6147    49.050166   -1292.5645 
   38100    152.62579    152.62579         5.28    53.486512    48.575347    58.397677            0   -1340.5734    13.396719   -1340.5734    47.893068   -1292.6803 
   38200    152.63578    152.63578         5.28    35.915005    32.852467    38.977544            0   -1340.8636    13.449294   -1340.8636    48.081024   -1292.7825 
   38300    152.66457    152.66457         5.28   -16.420853   -44.777477    11.935771            0   -1341.9233    13.715021   -1341.9233    49.030993   -1292.8923 
   38400    152.68548    152.68548         5.28   -23.694951   -77.223033    29.833132            0   -1341.1278    13.464182   -1341.1278    48.134245   -1292.9935 
   38500    152.69058    152.69058         5.28   -37.895458   -78.571966    2.7810506            0   -1341.4413    13.525808   -1341.4413    48.354559   -1293.0867 
   38600    152.67295    152.67295         5.28   -40.980072   -52.277953   -29.682191            0   -1342.2844    13.732113   -1342.2844    49.092097   -1293.1923 
   38700     152.6323     152.6323         5.28   -7.4179498   -3.7575068   -11.078393            0   -1342.4849    13.759688   -1342.4849    49.190677   -1293.2942 
   38800     152.5871     152.5871         5.28    31.976231    31.695399    32.257064            0   -1342.6602     13.78388   -1342.6602    49.277162    -1293.383 
   38900    152.56108    152.56108         5.28    68.051268    56.013121    80.089415            0   -1342.1491    13.615654   -1342.1491    48.675758   -1293.4734 
   39000    152.57319    152.57319         5.28    60.182385    36.185092    84.179679            0   -1342.0941       13.576   -1342.0941    48.533993   -1293.5601 
   39100    152.61905    152.61905         5.28    17.464832   0.25750996    34.672154            0   -1342.0763    13.545055   -1342.0763    48.423366    -1293.653 
   39200    152.67377    152.67377         5.28   -40.128695   -71.201973   -9.0554176            0   -1342.2217    13.564327   -1342.2217    48.492264   -1293.7294 
   39300     152.7044     152.7044         5.28   -75.409903   -123.07911   -27.740695            0   -1342.4821    13.615924   -1342.4821    48.676724   -1293.8054 
   39400    152.69099    152.69099         5.28   -68.604506   -113.64341   -23.565598            0   -1342.9143    13.713606   -1342.9143    49.025932   -1293.8884 
   39500    152.63737    152.63737         5.28   -27.534122   -72.111727    17.043482            0   -1343.7256    13.913688   -1343.7256    49.741224   -1293.9844 
   39600    152.57013    152.57013         5.28    64.848689    22.545871    107.15151            0   -1342.7771     13.62762   -1342.7771    48.718537   -1294.0585 
   39700      152.539      152.539         5.28    106.63862    64.840387    148.43685            0   -1342.4948    13.532045   -1342.4948    48.376857    -1294.118 
   39800    152.56685    152.56685         5.28    60.195521    26.285332     94.10571            0    -1343.465    13.779598    -1343.465    49.261855   -1294.2032 
   39900     152.6298     152.6298         5.28    4.3072304   0.43355698    8.1809038            0    -1343.307    13.711189    -1343.307    49.017291   -1294.2898 
   40000     152.6965     152.6965         5.28   -17.833144   -7.1071835   -28.559104            0   -1341.6042    13.218429   -1341.6042    47.255682   -1294.3486 
   40100     152.7501     152.7501         5.28   -61.809462   -69.692108   -53.926817            0   -1341.5305     13.18262   -1341.5305    47.127666   -1294.4028 
   40200    152.76492    152.76492         5.28   -109.20816   -134.22654   -84.189786            0   -1343.1953    13.632586   -1343.1953    48.736288    -1294.459 
   40300    152.71854    152.71854         5.28   -61.831774   -87.486124   -36.177424            0   -1343.1097    13.585341   -1343.1097    48.567388   -1294.5424 
   40400    152.63674    152.63674         5.28    26.668391    15.692569    37.644214            0    -1342.737    13.459649    -1342.737    48.118041    -1294.619 
   40500    152.56849    152.56849         5.28    71.559247    61.252602    81.865892            0   -1343.6771    13.708931   -1343.6771    49.009222   -1294.6678 
   40600     152.5413     152.5413         5.28     81.52955    79.277065    83.782034            0    -1344.429    13.905096    -1344.429    49.710506   -1294.7185 
   40700    152.56287    152.56287         5.28    86.244469    93.323396    79.165542            0   -1343.3501    13.586133   -1343.3501    48.570218   -1294.7799 
   40800     152.6332     152.6332         5.28    43.408105    55.215901     31.60031            0   -1342.2294    13.253403   -1342.2294    47.380714   -1294.8487 
   40900    152.72483    152.72483         5.28   -66.667706   -51.967499   -81.367913            0   -1343.1537    13.497619   -1343.1537    48.253784   -1294.8999 
   41000    152.77741    152.77741         5.28   -133.46462   -123.93662   -142.99263            0   -1343.7478    13.658691   -1343.7478    48.829612   -1294.9182 
   41100    152.75476    152.75476         5.28   -88.567146   -92.985384   -84.148908            0   -1342.4513    13.277581   -1342.4513    47.467153   -1294.9842 
   41200    152.67862    152.67862         5.28   -29.665464   -38.508794   -20.822135            0   -1342.7688    13.345658   -1342.7688    47.710525   -1295.0582 
   41300    152.58417    152.58417         5.28    22.370015    14.246898    30.493132            0   -1344.0607    13.693738   -1344.0607    48.954906   -1295.1058 
   41400    152.50414    152.50414         5.28    84.106368    65.256599    102.95614            0   -1344.2964    13.751122   -1344.2964    49.160052   -1295.1364 
   41500     152.4722     152.4722         5.28    102.68584    68.497224    136.87445            0   -1344.6294    13.837017   -1344.6294    49.467128   -1295.1623 
   41600    152.50048    152.50048         5.28    92.153302    54.804264    129.50234            0   -1343.7272    13.569911   -1343.7272    48.512225    -1295.215 
   41700    152.57956    152.57956         5.28    14.872936   -51.845931    81.591803            0    -1343.804    13.575619    -1343.804    48.532631   -1295.2714 
   41800     152.6658     152.6658         5.28   -74.536208   -172.50313    23.430718            0   -1344.2241    13.687136   -1344.2241    48.931303   -1295.2928 
   41900    152.71032    152.71032         5.28   -84.803829   -185.08325    15.475596            0   -1342.7588    13.269223   -1342.7588     47.43727   -1295.3215 
   42000    152.70399    152.70399         5.28   -71.136195   -168.69026    26.417868            0    -1342.202    13.104197    -1342.202    46.847306   -1295.3547 
   42100    152.65321    152.65321         5.28   -69.800322   -165.64373    26.043087            0   -1344.1877    13.645636   -1344.1877    48.782944   -1295.4047 
   42200    152.56354    152.56354         5.28   -9.3476598   -116.62178    97.926457            0   -1345.3252    13.949179   -1345.3252    49.868104   -1295.4571 
   42300    152.47141    152.47141         5.28     101.5919   -24.513002     227.6968            0   -1344.1898    13.627134   -1344.1898    48.716798    -1295.473 
   42400    152.43687    152.43687         5.28    143.05919    16.730665    269.38771            0   -1343.5019    13.432032   -1343.5019    48.019312   -1295.4826 
   42500     152.4817     152.4817         5.28    74.177444   -38.559473    186.91436            0   -1344.4437     13.68027   -1344.4437    48.906759   -1295.5369 
   42600       152.57       152.57         5.28   -1.2993856   -105.75241    103.15363            0   -1344.1197    13.582651   -1344.1197    48.557772   -1295.5619 
   42700    152.65787    152.65787         5.28   -50.184471   -150.35023    49.981287            0   -1342.8678    13.231233   -1342.8678    47.301459   -1295.5664 
   42800    152.71309    152.71309         5.28   -110.41189   -216.24425    -4.579539            0    -1343.452    13.394373    -1343.452    47.884679   -1295.5673 
   42900    152.70293    152.70293         5.28   -128.35148     -247.362   -9.3409472            0   -1344.6797    13.731941   -1344.6797    49.091481   -1295.5882 
   43000     152.6202     152.6202         5.28   -49.610323   -189.78959    90.568948            0   -1344.6437    13.705305   -1344.6437    48.996257   -1295.6474 
   43100    152.51066    152.51066         5.28    77.224381   -67.759024    222.20778            0   -1343.7422    13.449684   -1343.7422    48.082416   -1295.6598 
   43200    152.44461    152.44461         5.28    139.16111    19.871073    258.45114            0   -1343.9345    13.509805   -1343.9345    48.297347   -1295.6371 
   43300    152.45718    152.45718         5.28    106.61673    -18.04308    231.27653            0   -1344.8286    13.753823   -1344.8286    49.169709   -1295.6588 
   43400    152.53094    152.53094         5.28    35.085983   -94.480684    164.65265            0   -1344.8758    13.759454   -1344.8758     49.18984    -1295.686 
   43500    152.62457    152.62457         5.28     -35.8125   -136.97126    65.346257            0   -1344.2233    13.573854   -1344.2233    48.526322    -1295.697 
   43600    152.69555    152.69555         5.28   -90.428672   -164.64559   -16.211752            0   -1343.8807    13.484282   -1343.8807    48.206102   -1295.6746 
   43700      152.714      152.714         5.28   -88.044165   -164.59428   -11.494049            0   -1342.9324    13.220621   -1342.9324    47.263518   -1295.6689 
   43800    152.67929    152.67929         5.28   -67.797143   -157.71655    22.122263            0    -1343.304    13.318147    -1343.304    47.612173   -1295.6918 
   43900    152.60574    152.60574         5.28   -11.059453   -101.78569    79.666783            0   -1343.6646    13.413191   -1343.6646    47.951954   -1295.7126 
   44000    152.52744    152.52744         5.28    69.539115   -8.0843209    147.16255            0   -1343.2489    13.297022   -1343.2489    47.536652   -1295.7123 
   44100    152.48838    152.48838         5.28    97.300137    29.197627    165.40265            0   -1343.5507    13.384551   -1343.5507    47.849566   -1295.7012 
   44200    152.50348    152.50348         5.28    51.180991   -1.2322623    103.59424            0   -1344.7977    13.735394   -1344.7977    49.103826   -1295.6939 
   44300    152.54901    152.54901         5.28    6.6247579   -39.216696    52.466212            0   -1344.6737     13.70201   -1344.6737    48.984479   -1295.6892 
   44400    152.59804    152.59804         5.28   -24.590792   -77.860248    28.678664            0   -1343.9495    13.503015   -1343.9495    48.273075   -1295.6764 
   44500    152.63063    152.63063         5.28   -61.270911   -131.08502    8.5431941            0   -1344.2142    13.581392   -1344.2142    48.553271   -1295.6609 
   44600    152.62772    152.62772         5.28    -57.81168   -154.64032    39.016957            0   -1344.2078    13.582187   -1344.2078    48.556111   -1295.6516 
   44700    152.59186    152.59186         5.28   -11.449475   -116.45046    93.551507            0   -1343.7963    13.469851   -1343.7963    48.154515   -1295.6418 
   44800    152.54902    152.54902         5.28    37.484969   -77.279805    152.24974            0   -1343.6666    13.438349   -1343.6666    48.041895   -1295.6247 
   44900     152.5271     152.5271         5.28    55.854287   -77.227564    188.93614            0    -1343.959    13.526341    -1343.959    48.356463   -1295.6025 
   45000    152.53574    152.53574         5.28    26.602862   -115.78466    168.99039            0   -1344.9302    13.803228   -1344.9302    49.346331   -1295.5839 
   45100    152.55977    152.55977         5.28   -2.5226164   -160.48865    155.44342            0   -1345.1747    13.877426   -1345.1747    49.611589   -1295.5631 
   45200    152.58311    152.58311         5.28    -2.780738   -148.26023    142.69875            0   -1344.2054    13.610291   -1344.2054    48.656583   -1295.5489 
   45300     152.6039     152.6039         5.28   -6.2016131   -124.70713     112.3039            0    -1343.435    13.401957    -1343.435    47.911792   -1295.5232 
   45400    152.61828    152.61828         5.28   -40.768502   -173.83738    92.300377            0    -1344.281    13.644356    -1344.281    48.778366   -1295.5026 
   45500     152.6098     152.6098         5.28   -36.193434   -205.70372    133.31685            0   -1344.1515    13.614068   -1344.1515    48.670087   -1295.4814 
   45600    152.58065    152.58065         5.28   -1.8350846   -171.98353    168.31336            0   -1343.6232     13.47064   -1343.6232    48.157333   -1295.4659 
   45700    152.54863    152.54863         5.28    11.908242   -132.93589    156.75238            0   -1344.3666    13.684751   -1344.3666    48.922776   -1295.4439 
   45800    152.52434    152.52434         5.28    37.004945   -110.59489    184.60477            0   -1344.2956    13.671967   -1344.2956    48.877074   -1295.4185 
   45900    152.52184    152.52184         5.28     60.95595   -92.680493    214.59239            0   -1343.4874    13.452001   -1343.4874    48.090699   -1295.3967 
   46000    152.55314    152.55314         5.28    40.054873   -103.50616    183.61591            0   -1343.3392    13.419252   -1343.3392    47.973622   -1295.3655 
[...]
  208800     151.8677     151.8677         5.28    5.6499966   -252.98148    264.28147            0   -1367.9226    9.8573619   -1367.9226    35.239919   -1332.6827 
  208900    151.84046    151.84046         5.28   -11.067582   -272.47461    250.33944            0    -1369.648    10.319149    -1369.648    36.890801   -1332.7572 
  209000    151.83111    151.83111         5.28    -14.34546    -266.1216    237.43068            0   -1369.6058    9.6899502   -1369.6058    34.641425   -1334.9643 
  209100    151.83069    151.83069         5.28   -16.372192   -270.74164    237.99725            0   -1369.5525    9.6998568   -1369.5525    34.676841   -1334.8756 
  209200    151.84067    151.84067         5.28    -31.47121   -289.37819    226.43577            0   -1369.9471    10.113301   -1369.9471    36.154897   -1333.7922 
  209300    151.85435    151.85435         5.28   -26.465468   -277.55445    224.62352            0    -1369.247    9.9700313    -1369.247    35.642711   -1333.6043 
  209400    151.81486    151.81486         5.28    28.548696   -230.52394    287.62133            0   -1368.6185    9.9320729   -1368.6185     35.50701   -1333.1115 
  209500     151.7411     151.7411         5.28    96.307211   -170.65407     363.2685            0   -1369.0842    10.620268   -1369.0842    37.967297   -1331.1169 
  209600     151.7575     151.7575         5.28    80.808462   -181.78147     343.3984            0   -1368.8372    10.173594   -1368.8372    36.370446   -1332.4667 
  209700     151.7865     151.7865         5.28    33.908348   -221.98428    289.80097            0   -1369.6254    10.073182   -1369.6254    36.011474   -1333.6139 
  209800    151.81283    151.81283         5.28    17.289668   -252.63002    287.20935            0    -1369.372    9.8497139    -1369.372    35.212578   -1334.1594 
  209900    151.85516    151.85516         5.28   -1.0365022   -287.39264    285.31963            0   -1368.6357    9.8056347   -1368.6357    35.054995   -1333.5807 
  210000     151.9095     151.9095         5.28   -55.152232    -340.5411    230.23663            0   -1369.0188    10.396588   -1369.0188    37.167644   -1331.8512 
  210100    151.95918    151.95918         5.28    -109.3324   -378.25269    159.58789            0   -1369.2659    10.243848   -1369.2659    36.621601   -1332.6443 
  210200    151.95187    151.95187         5.28   -96.872578   -356.01625     162.2711            0   -1369.0363    9.9025641   -1369.0363    35.401517   -1333.6348 
  210300     151.9261     151.9261         5.28   -50.358181   -307.65613    206.93977            0   -1368.2006    9.7140412   -1368.2006     34.72755    -1333.473 
  210400    151.90065    151.90065         5.28   -6.7233249   -256.24159    242.79494            0   -1367.5731    10.009364   -1367.5731    35.783323   -1331.7898 
  210500    151.87262    151.87262         5.28    21.371582   -215.91557    258.65873            0   -1367.5895    10.172738   -1367.5895    36.367382   -1331.2221 
  210600    151.85442    151.85442         5.28    35.520648   -182.81771    253.85901            0   -1367.6247    10.029795   -1367.6247    35.856367   -1331.7684 
  210700    151.81439    151.81439         5.28    54.404555   -171.07149     279.8806            0   -1368.2546     10.01004   -1368.2546     35.78574   -1332.4689 
  210800     151.7342     151.7342         5.28     89.55574   -153.05299    332.16447            0   -1369.7175    9.9522017   -1369.7175     35.57897   -1334.1386 
  210900    151.74439    151.74439         5.28    42.934298   -186.04186    271.91046            0   -1370.9716    9.8232436   -1370.9716    35.117947   -1335.8537 
  211000    151.80428    151.80428         5.28    -23.84429   -223.41765    175.72907            0   -1371.3807    9.9850209   -1371.3807    35.696298   -1335.6844 
  211100    151.84999    151.84999         5.28   -37.860419   -234.28541    158.56457            0   -1370.1885     9.802172   -1370.1885    35.042617   -1335.1458 
  211200    151.88367    151.88367         5.28   -25.474271   -241.73481    190.78627            0    -1368.661    9.9685413    -1368.661    35.637384   -1333.0236 
  211300    151.90273    151.90273         5.28   -7.0376878   -228.74552    214.67014            0   -1367.3555    9.8696206   -1367.3555    35.283744   -1332.0717 
  211400    151.90629    151.90629         5.28   -3.5814011   -214.17189    207.00909            0   -1367.2355      10.0772   -1367.2355    36.025838   -1331.2097 
  211500    151.88815    151.88815         5.28    2.2851477   -214.96492    219.53522            0   -1367.6987    10.265802   -1367.6987    36.700086   -1330.9986 
  211600    151.86175    151.86175         5.28     21.57347   -202.25533    245.40227            0   -1367.5764    9.7288727   -1367.5764    34.780572   -1332.7959 
  211700    151.79229    151.79229         5.28    50.709833   -168.05624     269.4759            0   -1369.1903    10.007658   -1369.1903    35.777225   -1333.4131 
  211800    151.73664    151.73664         5.28    78.638455   -132.98592    290.26283            0   -1370.4184    10.226133   -1370.4184    36.558272   -1333.8601 
  211900    151.77122    151.77122         5.28    75.351715   -130.50774    281.21117            0   -1369.0949    9.7127344   -1369.0949    34.722878    -1334.372 
  212000    151.83909    151.83909         5.28    13.658647    -186.7873    214.10459            0   -1369.0887    9.9817246   -1369.0887    35.684514   -1333.4042 
  212100     151.8668     151.8668         5.28   -26.692044   -212.09946    158.71537            0   -1369.7445    10.335754   -1369.7445    36.950165   -1332.7943 
  212200    151.87529    151.87529         5.28   -24.070141   -216.90363    168.76335            0   -1369.1119    9.7685748   -1369.1119    34.922507   -1334.1894 
  212300    151.87161    151.87161         5.28   -28.672214    -240.5603    183.21587            0    -1369.442    9.8055209    -1369.442    35.054589   -1334.3874 
  212400    151.85593    151.85593         5.28   -42.784688   -241.06431    155.49494            0   -1370.9799    10.616608   -1370.9799    37.954211   -1333.0256 
  212500    151.88105    151.88105         5.28   -34.339591   -206.16732    137.48814            0   -1369.5858    9.8800578   -1369.5858    35.321057   -1334.2647 
  212600    151.83191    151.83191         5.28    27.141032   -144.93554     199.2176            0   -1369.1522    9.5363312   -1369.1522     34.09224   -1335.0599 
  212700    151.76911    151.76911         5.28    72.214129   -114.14844     258.5767            0   -1370.0791    10.259194   -1370.0791    36.676462   -1333.4026 
  212800    151.78257    151.78257         5.28    64.092971   -141.97867    270.16461            0   -1369.7641    10.148257   -1369.7641    36.279864   -1333.4843 
  212900    151.81619    151.81619         5.28    25.386946   -194.77017    245.54406            0   -1369.9825    9.8699512   -1369.9825    35.284926   -1334.6976 
  213000    151.81524    151.81524         5.28    12.508775   -190.39319    215.41074            0   -1370.5887    9.7831044   -1370.5887     34.97445   -1335.6142 
  213100      151.811      151.811         5.28    2.4222454   -187.25885    192.10334            0   -1371.1226    9.7229656   -1371.1226    34.759455   -1336.3632 
  213200    151.83196    151.83196         5.28   -19.405374   -212.22297    173.41222            0    -1371.102    9.8485759    -1371.102    35.208509   -1335.8934 
  213300    151.87821    151.87821         5.28   -48.235651    -231.3737     134.9024            0     -1370.57    10.138522     -1370.57    36.245061   -1334.3249 
  213400    151.95581    151.95581         5.28   -75.869548   -254.21607    102.47698            0   -1368.7134    9.8322764   -1368.7134    35.150239   -1333.5632 
  213500    152.00051    152.00051         5.28   -95.181796   -276.62923    86.265634            0   -1367.9781    10.094724   -1367.9781    36.088486   -1331.8896 
  213600    151.92933    151.92933         5.28   -45.764451   -225.19204    133.66314            0   -1368.8963    10.438423   -1368.8963    37.317203   -1331.5791 
  213700    151.86222    151.86222         5.28     21.30783   -172.31122    214.92688            0   -1368.6959    10.031597   -1368.6959    35.862806   -1332.8331 
  213800    151.85566    151.85566         5.28    30.281805   -186.68574    247.24935            0   -1368.5551    9.8649818   -1368.5551    35.267161   -1333.2879 
  213900    151.82474    151.82474         5.28    41.402978   -183.17555     265.9815            0   -1369.2729    10.166565   -1369.2729    36.345317   -1332.9276 
  214000    151.79067    151.79067         5.28    63.850456   -150.23296    277.93387            0   -1369.4504    10.051372   -1369.4504    35.933503   -1333.5169 
  214100    151.77973    151.77973         5.28     66.14673   -134.13111    266.42457            0   -1369.5268    9.6091065   -1369.5268     34.35241   -1335.1744 
  214200    151.83134    151.83134         5.28   -6.4249662   -207.88742    195.03749            0   -1370.6736    10.091394   -1370.6736    36.076581    -1334.597 
  214300    151.89571    151.89571         5.28   -53.384926   -267.11667    160.34681            0    -1370.131    10.161027    -1370.131    36.325517   -1333.8055 
  214400    151.93522    151.93522         5.28   -63.455673   -298.94083    172.02948            0    -1368.829    9.9283566    -1368.829    35.493725   -1333.3353 
  214500    151.90405    151.90405         5.28   -42.914021   -277.71513    191.88709            0   -1369.2636    10.369996   -1369.2636    37.072578    -1332.191 
  214600    151.88852    151.88852         5.28   -12.868215   -224.94897    199.21254            0    -1368.423    9.9061643    -1368.423    35.414387   -1333.0086 
  214700    151.89148    151.89148         5.28   -1.5092876   -211.75503    208.73645            0   -1367.7965    9.5845483   -1367.7965    34.264615   -1333.5319 
  214800    151.87331    151.87331         5.28     9.185648   -208.23066    226.60195            0   -1368.3804    10.283429   -1368.3804    36.763104   -1331.6173 
  214900    151.83679    151.83679         5.28    52.906229    -179.2591    285.07156            0   -1367.9357    10.156003   -1367.9357    36.307558   -1331.6282 
  215000    151.79112    151.79112         5.28    88.288672    -152.7853    329.36264            0    -1368.254     10.07326    -1368.254    36.011751   -1332.2423 
  215100    151.74623    151.74623         5.28    93.614662   -134.73868      321.968            0   -1369.9065    10.258357   -1369.9065     36.67347    -1333.233 
  215200    151.78182    151.78182         5.28     41.71307   -177.94095    261.36709            0   -1370.4879    10.002734   -1370.4879    35.759621   -1334.7283 
  215300    151.84972    151.84972         5.28   -19.082235   -246.08339    207.91892            0   -1370.1758    9.8556025   -1370.1758    35.233629   -1334.9422 
  215400    151.86604    151.86604         5.28    -28.30746   -259.73619    203.12127            0   -1369.8221    9.9629228   -1369.8221    35.617298   -1334.2049 
  215500    151.86036    151.86036         5.28    -32.43733   -259.14267    194.26801            0    -1370.205    10.351389    -1370.205    37.006059    -1333.199 
  215600    151.86672    151.86672         5.28    -45.33041   -271.70669    181.04587            0   -1370.3018    9.9438389   -1370.3018    35.549074   -1334.7527 
  215700    151.90875    151.90875         5.28   -84.312279   -314.08288    145.45833            0   -1370.2643    9.5919971   -1370.2643    34.291244   -1335.9731 
  215800    151.83176    151.83176         5.28   -4.7982319   -235.88793    226.29146            0   -1370.3993      9.96411   -1370.3993    35.621542   -1334.7778 
  215900    151.80829    151.80829         5.28     39.89726   -197.74007    277.53459            0   -1369.6006    10.024977   -1369.6006    35.839141   -1333.7614 
  216000    151.79814    151.79814         5.28    49.072337   -193.74007    291.88475            0   -1369.5874    10.158384   -1369.5874     36.31607   -1333.2714 
  216100    151.79149    151.79149         5.28     48.97905    -195.7443    293.70241            0   -1369.5642    9.9475596   -1369.5642    35.562375   -1334.0018 
  216200     151.7682     151.7682         5.28    60.045209   -169.91053    290.00095            0   -1369.6785    9.4642897   -1369.6785    33.834692   -1335.8438 
  216300    151.75626    151.75626         5.28    49.747343   -165.66578    265.16047            0   -1370.7686    10.085314   -1370.7686    36.054845   -1334.7137 
  216400    151.86054    151.86054         5.28   -32.112636   -250.45366    186.22838            0   -1369.9388    10.028589   -1369.9388    35.852053   -1334.0868 
  216500    151.89767    151.89767         5.28   -50.668859    -291.8248    190.48708            0   -1369.0036     9.843951   -1369.0036    35.191976   -1333.8117 
  216600    151.87296    151.87296         5.28   -55.749115   -315.19876    203.70053            0   -1370.1404    10.260935   -1370.1404    36.682689   -1333.4577 
  216700    151.86907    151.86907         5.28   -58.184898   -295.75752    179.38773            0   -1370.2063    10.060829   -1370.2063     35.96731    -1334.239 
  216800    151.85887    151.85887         5.28   -42.416776   -268.82309    183.98954            0   -1369.9281    9.8330791   -1369.9281    35.153109    -1334.775 
  216900    151.81779    151.81779         5.28   -2.0986569   -253.43556    249.23825            0   -1369.9714    9.9946044   -1369.9714    35.730559   -1334.2408 
  217000    151.78354    151.78354         5.28    56.066895   -198.21557    310.34936            0   -1368.9695     10.24096   -1368.9695    36.611278   -1332.3582 
  217100    151.75136    151.75136         5.28     114.1047   -115.68085    343.89025            0   -1367.8813    10.264998   -1367.8813    36.697213   -1331.1841 
  217200    151.73182    151.73182         5.28    137.04255   -78.319678    352.40477            0   -1367.6485    10.028535   -1367.6485     35.85186   -1331.7967 
  217300    151.78627    151.78627         5.28    65.406558   -153.83261    284.64573            0   -1368.3431    9.9325438   -1368.3431    35.508693   -1332.8344 
  217400    151.80799    151.80799         5.28    12.190254   -229.78689     254.1674            0   -1369.4154    9.4535848   -1369.4154    33.796423    -1335.619 
  217500    151.83256    151.83256         5.28   -14.734188   -281.78471    252.31634            0   -1369.5168    9.6825191   -1369.5168    34.614859   -1334.9019 
  217600    151.86566    151.86566         5.28   -40.609567   -310.13517    228.91604            0   -1369.2579    10.073061   -1369.2579    36.011042   -1333.2469 
  217700     151.9463     151.9463         5.28   -124.82883   -380.31078    130.65312            0   -1369.3752    10.198642   -1369.3752    36.459991   -1332.9152 
  217800    151.95302    151.95302         5.28   -129.20095   -373.39339    114.99148            0    -1368.991    9.7824638    -1368.991     34.97216   -1334.0189 
  217900    151.86474    151.86474         5.28   -38.428549   -267.03735    190.18025            0   -1368.7222    9.6229006   -1368.7222    34.401724   -1334.3205 
  218000    151.82433    151.82433         5.28    9.4629538    -217.0219    235.94781            0   -1368.7213    10.338313   -1368.7213    36.959312    -1331.762 
  218100    151.79746    151.79746         5.28    42.240583   -198.68263    283.16379            0   -1368.3865    10.167238   -1368.3865    36.347724   -1332.0388 
  218200    151.75967    151.75967         5.28    69.802238   -174.36399    313.96847            0   -1368.6253    9.9128017   -1368.6253    35.438116   -1333.1872 
  218300    151.73654    151.73654         5.28    78.434239   -170.11901    326.98749            0   -1369.2119    9.9271722   -1369.2119     35.48949   -1333.7224 
  218400    151.74556    151.74556         5.28    62.404273   -195.88567    320.69422            0   -1369.6585    9.9961035   -1369.6585    35.735918   -1333.9225 
  218500    151.79123    151.79123         5.28    11.201782   -248.76298    271.16654            0   -1370.0393    9.9535738   -1370.0393    35.583875   -1334.4554 
  218600    151.87575    151.87575         5.28   -77.685977   -335.86246     180.4905            0   -1370.4433    9.8862449   -1370.4433    35.343176   -1335.1001 
  218700    151.88971    151.88971         5.28   -69.167948   -323.89738    185.56148            0   -1369.6859    9.6726004   -1369.6859      34.5794   -1335.1065 
  218800    151.89704    151.89704         5.28   -48.941311   -295.31945    197.43683            0   -1369.0922     10.06613   -1369.0922    35.986264   -1333.1059 
  218900    151.91562    151.91562         5.28   -38.516267   -283.69776    206.66523            0   -1368.2198    10.024997   -1368.2198    35.839213   -1332.3806 
  219000    151.91476    151.91476         5.28    -29.38454   -276.68431    217.91523            0   -1368.0129    10.020443   -1368.0129    35.822932     -1332.19 
  219100    151.81271    151.81271         5.28     49.06159   -198.98223    297.10541            0   -1368.9025    10.238719   -1368.9025    36.603266   -1332.2992 
  219200    151.74282    151.74282         5.28    91.625278    -168.4513    351.70186            0   -1369.6911    9.8182461   -1369.6911    35.100081    -1334.591 
  219300    151.73039    151.73039         5.28    82.392591   -192.96553    357.75071            0   -1370.3913    9.8841183   -1370.3913    35.335573   -1335.0558 
  219400     151.7208     151.7208         5.28    67.087175   -207.35992    341.53427            0   -1371.2813    10.234357   -1371.2813    36.587672   -1334.6937 
  219500    151.73911    151.73911         5.28    47.099228   -217.92661    312.12507            0   -1370.8701    9.8013045   -1370.8701    35.039515   -1335.8306 
  219600    151.77381    151.77381         5.28    7.8274303   -255.90585    271.56071            0   -1370.5694    9.4585668   -1370.5694    33.814233   -1336.7552 
  219700    151.86459    151.86459         5.28   -71.372746   -336.58382    193.83833            0   -1370.1162    9.9599297   -1370.1162    35.606598   -1334.5096 
  219800    151.88504    151.88504         5.28   -66.293493    -335.7295    203.14251            0   -1369.1598    9.9119119   -1369.1598    35.434935   -1333.7249 
  219900    151.90938    151.90938         5.28   -65.152047   -326.37852    196.07443            0   -1368.4372     9.959243   -1368.4372    35.604143   -1332.8331 
  220000    151.91673    151.91673         5.28   -58.937522   -305.04549    187.17045            0   -1368.1488    10.187028   -1368.1488    36.418471   -1331.7303 
Loop time of 7.05944 on 4 procs for 20000 steps with 1800 atoms

Performance: 244.779 ns/day, 0.098 hours/ns, 2833.086 timesteps/s
99.5% CPU use with 4 MPI tasks x no OpenMP threads

MPI task timing breakdown:
Section |  min time  |  avg time  |  max time  |%varavg| %total
---------------------------------------------------------------
Pair    | 5.092      | 5.1814     | 5.2827     |   3.2 | 73.40
Neigh   | 0.0084081  | 0.0084608  | 0.0085473  |   0.1 |  0.12
Comm    | 0.49219    | 0.59095    | 0.68506    |   9.5 |  8.37
Output  | 0.10041    | 0.10071    | 0.10149    |   0.1 |  1.43
Modify  | 1.0462     | 1.0535     | 1.0606     |   0.5 | 14.92
Other   |            | 0.1244     |            |       |  1.76

Nlocal:    450 ave 453 max 447 min
Histogram: 1 1 0 0 0 0 0 0 1 1
Nghost:    392 ave 395 max 389 min
Histogram: 2 0 0 0 0 0 0 0 0 2
Neighs:    11472.5 ave 11774 max 11302 min
Histogram: 2 0 0 0 1 0 0 0 0 1

Total # of neighbors = 45890
Ave neighs/atom = 25.4944
Neighbor list builds = 24
Dangerous builds = 0
# output the last configuration to use it as input for the following simulations
write_data       data.equi nocoeff
Total wall time: 0:01:17
