#since we restart everything set timestep to 0
reset_timestep   0
#directives for computing properties
compute          csym all centro/atom fcc
compute          peratom all pe/atom


# --- STORE INITIAL LENGTH AND SPECIFY STRAIN RATE -----------------------------
# assign varaibles for estimating strain and strain rate
# first store length of the sytem
variable        L0 equal $(lx)
variable        L0 equal 151.75464058626582187
# assign a strain rate which should equilibriate after each step
variable        srate equal 0.013e10
variable        srate1 equal "v_srate / 1.05e15"
print            "${srate1}"
1.23809523809524e-07
# fix for deforming the system in x-direction
fix             2 all deform 1 x erate ${srate1} units box remap x
fix             2 all deform 1 x erate 1.23809523809524e-07 units box remap x


# ---- SPECIFY COMPUTES --------------------------------------------------------
# Output strain and stress information to file
# for units metal, pressure is in [bar] = 100kPa = 1/10000 [GPa]
# for units real, pressure is in [atm] = 101.325 [kPa] = 101.325e-6 [GPa]
# p1, p2, p3, p4 aer in GPa
variable       strain equal "(lx - v_L0)/v_L0"
variable       p1 equal "v_strain"
variable       p2 equal "-pxx*101.325e-6"
variable       p3 equal "-pyy*101.325e-6"
variable       p4 equal "-pzz*101.325e-6"


# ---- STORE INITIALS AND ENFORCE DEFORMATION ----------------------------------
# fix for writing the strain and stresses to file
fix            def1 all print 100 "{p1}_{p2}_{p3}_{p4}" file stress_strain.txt screen no
# writing trajectory
dump           2 all atom 5000 ./dump/dump.tensile_*.atom
dump           3 all cfg 5000 ./dump/dump.test.*.cfg mass type xs ys zs id type c_peratom
dump           4 all atom 5000 ./dump/dump.xyz_*.xyz
# display thermo
thermo          1000
thermo_style   custom step v_strain temp v_p2 v_p3 v_p4 ke pe press
#run the simulation
run            ${Steps}
run            200000
Neighbor list info ...
  2 neighbor list requests
  update every 1 steps, delay 10 steps, check yes
  max neighbors/atom: 2000, page size: 100000
  master list distance cutoff = 14
  ghost atom cutoff = 14
  binsize = 7 -> bins = 22 22 1
Memory usage per processor = 5.91748 Mbytes
Step v_strain Temp v_p2 v_p3 v_p4 KinEng PotEng Press 
       0 -1.1237235e-15    9.7988645  0.014758815 -0.028579457            0    35.030792   -1369.7768    68.199568 
    1000 0.00012380952    9.7988645  0.016075095 -0.028106316            0    35.030792   -1369.7662    59.369458 
    2000 0.00024761905    9.7988645  0.017388165  -0.02763349            0    35.030792    -1369.754    50.556747 
    3000 0.00037142857    9.7988645  0.018699721 -0.027162662            0    35.030792   -1369.7413    41.761371 
    4000 0.0004952381    9.7988645  0.020007353 -0.026691418            0    35.030792   -1369.7281    32.983298 
    5000 0.00061904762    9.7988645  0.021313079 -0.026220869            0    35.030792   -1369.7148    24.218061 
    6000 0.00074285714    9.7988645  0.022615267 -0.025751174            0    35.030792   -1369.7005    15.474499 
    7000 0.00086666667    9.7988645  0.023916403 -0.025282118            0    35.030792   -1369.6867    6.7392809 
    8000 0.00099047619    9.7988645  0.025213923 -0.024813826            0    35.030792   -1369.6718   -1.9743217 
    9000 0.0011142857    9.7988645  0.026508748 -0.024346316            0    35.030792   -1369.6564   -10.670773 
   10000 0.0012380952    9.7988645  0.027801719 -0.023879523            0    35.030792   -1369.6409   -19.354533 
   11000 0.0013619048    9.7988645  0.029091978 -0.023413482            0    35.030792    -1369.625   -28.021199 
   12000 0.0014857143    9.7988645  0.030377023 -0.022948378            0    35.030792    -1369.607   -36.657511 
   13000 0.0016095238    9.7988645   0.03166106 -0.022483921            0    35.030792   -1369.5894   -45.285662 
   14000 0.0017333333    9.7988645  0.032943215 -0.022020128            0    35.030792   -1369.5719   -53.901244 
   15000 0.0018571429    9.7988645  0.034221784 -0.021557086            0    35.030792   -1369.5533   -62.495426 
   16000 0.0019809524    9.7988645   0.03549856 -0.021094786            0    35.030792   -1369.5347   -71.077097 
   17000 0.0021047619    9.7988645  0.036771826 -0.020633301            0    35.030792   -1369.5151    -79.63743 
   18000 0.0022285714    9.7988645  0.038041688 -0.020172729            0    35.030792   -1369.4945    -88.17646 
   19000  0.002352381    9.7988645  0.039309578 -0.019712701            0    35.030792   -1369.4738    -96.70307 
   20000 0.0024761905    9.7988645  0.040575657 -0.019253374            0    35.030792   -1369.4531   -105.21729 
   21000       0.0026    9.7988645  0.041839074 -0.018794787            0    35.030792   -1369.4319   -113.71471 
   22000 0.0027238095    9.7988645  0.043098176 -0.018337076            0    35.030792   -1369.4092   -122.18653 
   23000  0.002847619    9.7988645  0.044355388 -0.017879968            0    35.030792   -1369.3865   -130.64604 
   24000 0.0029714286    9.7988645  0.045610444 -0.017424087            0    35.030792   -1369.3632   -139.08886 
   25000 0.0030952381    9.7988645  0.046862492 -0.016968575            0    35.030792   -1369.3394   -147.51501 
   26000 0.0032190476    9.7988645    0.0481118 -0.016513696            0    35.030792   -1369.3152   -155.92452 
   27000 0.0033428571    9.7988645   0.04935848 -0.016059555            0    35.030792   -1369.2904   -164.31742 
   28000 0.0034666667    9.7988645  0.050602162  -0.01560667            0    35.030792   -1369.2646   -172.68932 
   29000 0.0035904762    9.7988645  0.051844459 -0.015153964            0    35.030792   -1369.2393   -181.05352 
   30000 0.0037142857    9.7988645  0.053083683 -0.014702428            0    35.030792    -1369.213   -189.39677 
   31000 0.0038380952    9.7988645  0.054320183 -0.014251511            0    35.030792   -1369.1861   -197.72352 
   32000 0.0039619048    9.7988645  0.055553806 -0.013801053            0    35.030792   -1369.1588   -206.03382 
   33000 0.0040857143    9.7988645  0.056783746 -0.013352031            0    35.030792     -1369.13   -214.31885 
   34000 0.0042095238    9.7988645   0.05801133 -0.012903082            0    35.030792   -1369.1012    -222.5919 
   35000 0.0043333333    9.7988645  0.059237175 -0.012454817            0    35.030792   -1369.0723   -230.85299 
   36000 0.0044571429    9.7988645  0.060459598 -0.012007335            0    35.030792   -1369.0425   -239.09333 
   37000 0.0045809524    9.7988645  0.061681086 -0.011560435            0    35.030792   -1369.0131   -247.32618 
   38000 0.0047047619    9.7988645  0.062898511 -0.011114562            0    35.030792   -1368.9823   -255.53392 
   39000 0.0048285714    9.7988645  0.064114018 -0.010669171            0    35.030792   -1368.9514   -263.72981 
   40000  0.004952381    9.7988645  0.065327781 -0.010224431            0    35.030792   -1368.9206   -271.91389 
   41000 0.0050761905    9.7988645  0.066536865 -0.0097809775            0    35.030792   -1368.8878   -280.06853 
   42000       0.0052    9.7988645  0.067745503 -0.0093376709            0    35.030792   -1368.8559   -288.22024 
   43000 0.0053238095    9.7988645   0.06895074 -0.0088951289            0    35.030792   -1368.8231    -296.3514 
   44000  0.005447619    9.7988645   0.07015427 -0.008453252            0    35.030792   -1368.7903   -304.47085 
   45000 0.0055714286    9.7988645  0.071355253 -0.0080120884            0    35.030792    -1368.757   -312.57421 
   46000 0.0056952381    9.7988645  0.072553694 -0.0075716369            0    35.030792   -1368.7232   -320.66152 
   47000 0.0058190476    9.7988645  0.073749597 -0.0071318965            0    35.030792   -1368.6889   -328.73279 
   48000 0.0059428571    9.7988645  0.074942175 -0.0066929677            0    35.030792   -1368.6536   -336.78365 
   49000 0.0060666667    9.7988645  0.076131377 -0.0062547935            0    35.030792   -1368.6173   -344.81413 
   50000 0.0061904762    9.7988645  0.077319697 -0.0058171793            0    35.030792   -1368.5815   -352.83749 
   51000 0.0063142857    9.7988645  0.078503837 -0.0053803966            0    35.030792   -1368.5443   -360.83612 
   52000 0.0064380952    9.7988645  0.079687125 -0.0049441944            0    35.030792   -1368.5076   -368.82768 
   53000 0.0065619048    9.7988645  0.080867072 -0.0045087591            0    35.030792   -1368.4699   -376.79898 
   54000 0.0066857143    9.7988645  0.082045346 -0.0040739647            0    35.030792   -1368.4321   -384.75885 
   55000 0.0068095238    9.7988645  0.083219515 -0.0036400542            0    35.030792    -1368.393   -392.69411 
   56000 0.0069333333    9.7988645  0.084391166 -0.003206821            0    35.030792   -1368.3533   -400.61359 
   57000 0.0070571429    9.7988645  0.085561078 -0.0027750386            0    35.030792   -1368.3132   -408.51734 
   58000 0.0071809524    9.7988645  0.086728122 -0.002343574            0    35.030792   -1368.2725   -416.40537 
   59000 0.0073047619    9.7988645  0.087893159 -0.0019123873            0    35.030792   -1368.2319   -424.28212 
   60000 0.0074285714    9.7988645  0.089055644 -0.0014818217            0    35.030792   -1368.1909   -432.14321 
   61000  0.007552381    9.7988645  0.090216041 -0.0010532293            0    35.030792   -1368.1488   -439.98426 
   62000 0.0076761905    9.7988645  0.091372878 -0.00062423915            0    35.030792   -1368.1063   -447.80971 
   63000       0.0078    9.7988645  0.092528819 -0.00019572435            0    35.030792   -1368.0643    -455.6284 
   64000 0.0079238095    9.7988645    0.0936823 0.0002320979            0    35.030792   -1368.0218   -463.43152 
   65000  0.008047619    9.7988645  0.094830316 0.00065867304            0    35.030792   -1367.9769   -471.20152 
   66000 0.0081714286    9.7988645  0.095978048 0.0010850684            0    35.030792    -1367.933   -478.96924 
   67000 0.0082952381    9.7988645  0.097124182 0.0015108198            0    35.030792   -1367.8891   -486.72589 
   68000 0.0084190476    9.7988645  0.098267874 0.0019358829            0    35.030792   -1367.8447    -494.4671 
   69000 0.0085428571    9.7988645   0.09940913 0.0023602587            0    35.030792   -1367.7999   -502.19289 
   70000 0.0086666667    9.7988645   0.10054563 0.0027836013            0    35.030792   -1367.7531    -509.8901 
   71000 0.0087904762    9.7988645   0.10168203 0.0032066063            0    35.030792   -1367.7073   -517.58515 
   72000 0.0089142857    9.7988645     0.102816 0.0036289272            0    35.030792   -1367.6611   -525.26487 
   73000 0.0090380952    9.7988645   0.10394618 0.0040501561            0    35.030792   -1367.6134    -532.9205 
   74000 0.0091619048    9.7988645   0.10507533 0.0044711124            0    35.030792   -1367.5663   -540.56964 
   75000 0.0092857143    9.7988645   0.10620206 0.0048913879            0    35.030792   -1367.5186   -548.20353 
   76000 0.0094095238    9.7988645   0.10732558 0.0053108946            0    35.030792   -1367.4701    -555.8178 
   77000 0.0095333333    9.7988645   0.10844597  0.005729572            0    35.030792   -1367.4205   -563.41248 
   78000 0.0096571429    9.7988645   0.10956386 0.0061476655            0    35.030792   -1367.3705   -570.99201 
   79000 0.0097809524    9.7988645     0.110681 0.0065652284            0    35.030792   -1367.3211   -578.56518 
   80000 0.0099047619    9.7988645   0.11179273 0.0069815825            0    35.030792   -1367.2692   -586.10567 
   81000  0.010028571    9.7988645   0.11290372 0.0073973938            0    35.030792   -1367.2178   -593.63986 
   82000  0.010152381    9.7988645   0.11401286 0.0078128979            0    35.030792   -1367.1665   -601.16339 
   83000   0.01027619    9.7988645   0.11511962 0.0082277352            0    35.030792   -1367.1147   -608.67189 
   84000       0.0104    9.7988645    0.1162227 0.0086414341            0    35.030792   -1367.0615    -616.1566 
   85000   0.01052381    9.7988645   0.11732479 0.0090548719            0    35.030792   -1367.0088   -623.63512 
   86000  0.010647619    9.7988645   0.11842366 0.0094676029            0    35.030792   -1366.9552    -631.0943 
   87000  0.010771429    9.7988645   0.11952012 0.0098797229            0    35.030792   -1366.9011   -638.53856 
   88000  0.010895238    9.7988645   0.12061593  0.010291244            0    35.030792   -1366.8476    -645.9767 
   89000  0.011019048    9.7988645    0.1217094  0.010702099            0    35.030792   -1366.7936   -653.39996 
   90000  0.011142857    9.7988645   0.12280053  0.011112288            0    35.030792   -1366.7392   -660.80838 
   91000  0.011266667    9.7988645   0.12388855  0.011521694            0    35.030792   -1366.6838   -668.19758 
   92000  0.011390476    9.7988645   0.12497367  0.011930108            0    35.030792   -1366.6275   -675.56761 
   93000  0.011514286    9.7988645   0.12605738  0.012337825            0    35.030792   -1366.5713   -682.92725 
   94000  0.011638095    9.7988645   0.12713918  0.012745365            0    35.030792    -1366.515   -690.27654 
   95000  0.011761905    9.7988645   0.12821865  0.013152244            0    35.030792   -1366.4584   -697.61111 
   96000  0.011885714    9.7988645   0.12929411  0.013558382            0    35.030792   -1366.4003   -704.92222 
   97000  0.012009524    9.7988645   0.13036809  0.013963909            0    35.030792   -1366.3423   -712.22306 
   98000  0.012133333    9.7988645   0.13143975  0.014367911            0    35.030792   -1366.2833   -719.50487 
   99000  0.012257143    9.7988645   0.13250598  0.014771713            0    35.030792   -1366.2224   -726.75893 
  100000  0.012380952    9.7988645   0.13357391  0.015175308            0    35.030792   -1366.1636   -734.02033 
  101000  0.012504762    9.7988645   0.13463772  0.015577411            0    35.030792   -1366.1028   -741.25403 
  102000  0.012628571    9.7988645   0.13570025  0.015979622            0    35.030792   -1366.0426   -748.48196 
  103000  0.012752381    9.7988645    0.1367596  0.016381186            0    35.030792   -1365.9814     -755.691 
  104000   0.01287619    9.7988645    0.1378175  0.016782147            0    35.030792   -1365.9203   -762.88995 
  105000        0.013    9.7988645   0.13887158  0.017182232            0    35.030792   -1365.8578   -770.06568 
  106000   0.01312381    9.7988645   0.13992579  0.017581918            0    35.030792   -1365.7964   -777.24013 
  107000  0.013247619    9.7988645   0.14097774  0.017980956            0    35.030792   -1365.7345   -784.40017 
  108000  0.013371429    9.7988645   0.14202526  0.018378842            0    35.030792   -1365.6707   -791.53269 
  109000  0.013495238    9.7988645   0.14307171  0.018775771            0    35.030792   -1365.6069   -798.65525 
  110000  0.013619048    9.7988645   0.14411554  0.019172431            0    35.030792   -1365.5428   -805.76348 
  111000  0.013742857    9.7988645   0.14515756  0.019568882            0    35.030792   -1365.4787   -812.86179 
  112000  0.013866667    9.7988645   0.14619745  0.019964572            0    35.030792   -1365.4141   -819.94582 
  113000  0.013990476    9.7988645   0.14723585  0.020359743            0    35.030792   -1365.3497   -827.01997 
  114000  0.014114286    9.7988645   0.14826953    0.0207541            0    35.030792   -1365.2833   -834.06678 
  115000  0.014238095    9.7988645   0.14930089  0.021147899            0    35.030792   -1365.2165   -841.09939 
  116000  0.014361905    9.7988645   0.15033094  0.021541026            0    35.030792   -1365.1498   -848.12221 
  117000  0.014485714    9.7988645   0.15135826  0.021933127            0    35.030792   -1365.0822   -855.12651 
  118000  0.014609524    9.7988645    0.1523855  0.022325104            0    35.030792   -1365.0156   -862.12981 
  119000  0.014733333    9.7988645   0.15341011  0.022715971            0    35.030792   -1364.9481   -869.11463 
  120000  0.014857143    9.7988645   0.15443122  0.023105709            0    35.030792   -1364.8792   -876.07663 
  121000  0.014980952    9.7988645   0.15545181   0.02349578            0    35.030792   -1364.8114    -883.0377 
  122000  0.015104762    9.7988645   0.15647019  0.023885219            0    35.030792   -1364.7431   -889.98474 
  123000  0.015228571    9.7988645   0.15748505  0.024273568            0    35.030792   -1364.6735   -896.90903 
  124000  0.015352381    9.7988645   0.15849672  0.024660506            0    35.030792   -1364.6024   -903.81062 
  125000   0.01547619    9.7988645   0.15950762  0.025047154            0    35.030792   -1364.5319     -910.707 
  126000       0.0156    9.7988645   0.16051679  0.025433596            0    35.030792   -1364.4615   -917.59383 
  127000   0.01572381    9.7988645    0.1615228  0.025819501            0    35.030792   -1364.3902   -924.46239 
  128000  0.015847619    9.7988645   0.16252719    0.0262051            0    35.030792    -1364.319   -931.32144 
  129000  0.015971429    9.7988645   0.16353022  0.026590135            0    35.030792   -1364.2479     -938.171 
  130000  0.016095238    9.7988645   0.16452938  0.026974467            0    35.030792   -1364.1753     -944.998 
  131000  0.016219048    9.7988645   0.16552712  0.027357422            0    35.030792   -1364.1024   -951.81121 
  132000  0.016342857    9.7988645   0.16652363  0.027740584            0    35.030792     -1364.03   -958.61937 
  133000  0.016466667    9.7988645   0.16751559  0.028122854            0    35.030792   -1363.9557   -965.40067 
  134000  0.016590476    9.7988645   0.16850639  0.028504392            0    35.030792   -1363.8815   -972.17262 
  135000  0.016714286    9.7988645   0.16949515  0.028885193            0    35.030792    -1363.807   -978.93087 
  136000  0.016838095    9.7988645   0.17048303  0.029265871            0    35.030792    -1363.733   -985.68417 
  137000  0.016961905    9.7988645   0.17146642  0.029645611            0    35.030792   -1363.6571   -992.41072 
  138000  0.017085714    9.7988645   0.17244916  0.030025017            0    35.030792   -1363.5818   -999.13236 
  139000  0.017209524    9.7988645    0.1734306  0.030403841            0    35.030792   -1363.5066   -1005.8448 
  140000  0.017333333    9.7988645   0.17440837  0.030781814            0    35.030792     -1363.43   -1012.5349 
  141000  0.017457143    9.7988645   0.17538388  0.031159313            0    35.030792    -1363.353   -1019.2114 
  142000  0.017580952    9.7988645   0.17635814  0.031536188            0    35.030792   -1363.2761   -1025.8788 
  143000  0.017704762    9.7988645   0.17733029   0.03191244            0    35.030792   -1363.1988   -1032.5326 
  144000  0.017828571    9.7988645   0.17830109  0.032288195            0    35.030792   -1363.1216   -1039.1773 
  145000  0.017952381    9.7988645   0.17926897  0.032663263            0    35.030792   -1363.0435   -1045.8042 
  146000   0.01807619    9.7988645   0.18023428  0.033037289            0    35.030792   -1362.9645   -1052.4133 
  147000       0.0182    9.7988645   0.18119624  0.033411063            0    35.030792   -1362.8846   -1059.0047 
  148000   0.01832381    9.7988645   0.18215531  0.033784126            0    35.030792   -1362.8038   -1065.5783 
  149000  0.018447619    9.7988645   0.18311384  0.034156796            0    35.030792   -1362.7237   -1072.1472 
  150000  0.018571429    9.7988645    0.1840695  0.034528747            0    35.030792   -1362.6426   -1078.6985 
  151000  0.018695238    9.7988645    0.1850252  0.034899728            0    35.030792   -1362.5622   -1085.2451 
  152000  0.018819048    9.7988645   0.18597708  0.035270064            0    35.030792   -1362.4803   -1091.7698 
  153000  0.018942857    9.7988645   0.18692814  0.035640296            0    35.030792   -1362.3991   -1098.2899 
  154000  0.019066667    9.7988645   0.18787591  0.036009372            0    35.030792   -1362.3164    -1104.788 
  155000  0.019190476    9.7988645   0.18882319  0.036378022            0    35.030792   -1362.2344   -1111.2816 
  156000  0.019314286    9.7988645    0.1897665  0.036746209            0    35.030792    -1362.151   -1117.7533 
  157000  0.019438095    9.7988645   0.19070935  0.037113943            0    35.030792   -1362.0682   -1124.2205 
  158000  0.019561905    9.7988645   0.19164919  0.037481134            0    35.030792   -1361.9846   -1130.6703 
  159000  0.019685714    9.7988645   0.19258747  0.037847238            0    35.030792   -1361.9005   -1137.1069 
  160000  0.019809524    9.7988645   0.19352404  0.038213269            0    35.030792   -1361.8166   -1143.5347 
  161000  0.019933333    9.7988645   0.19445809  0.038578284            0    35.030792   -1361.7317   -1149.9451 
  162000  0.020057143    9.7988645   0.19539017  0.038942632            0    35.030792   -1361.6465   -1156.3425 
  163000  0.020180952    9.7988645   0.19632089   0.03930657            0    35.030792   -1361.5614   -1162.7311 
  164000  0.020304762    9.7988645   0.19724829  0.039669434            0    35.030792    -1361.475   -1169.0981 
  165000  0.020428571    9.7988645   0.19817461  0.040032504            0    35.030792   -1361.3891   -1175.4607 
  166000  0.020552381    9.7988645   0.19909972   0.04039503            0    35.030792   -1361.3034   -1181.8147 
  167000   0.02067619    9.7988645   0.20002281  0.040756965            0    35.030792   -1361.2173   -1188.1558 
  168000       0.0208    9.7988645   0.20094386  0.041118311            0    35.030792   -1361.1308   -1194.4839 
  169000   0.02092381    9.7988645   0.20186042  0.041478891            0    35.030792   -1361.0424   -1200.7861 
  170000  0.021047619    9.7988645   0.20277452   0.04183845            0    35.030792   -1360.9532   -1207.0711 
  171000  0.021171429    9.7988645    0.2036895  0.042198031            0    35.030792   -1360.8656   -1213.3607 
  172000  0.021295238    9.7988645   0.20459997  0.042556895            0    35.030792   -1360.7761   -1219.6243 
  173000  0.021419048    9.7988645   0.20551093  0.042915305            0    35.030792   -1360.6877   -1225.8882 
  174000  0.021542857    9.7988645   0.20641909  0.043273055            0    35.030792   -1360.5985   -1232.1349 
  175000  0.021666667    9.7988645    0.2073236  0.043630096            0    35.030792   -1360.5079   -1238.3602 
  176000  0.021790476    9.7988645   0.20822538   0.04398641            0    35.030792   -1360.4164   -1244.5684 
  177000  0.021914286    9.7988645   0.20912593  0.044342266            0    35.030792   -1360.3251   -1250.7683 
  178000  0.022038095    9.7988645   0.21002608  0.044697704            0    35.030792   -1360.2344   -1256.9641 
  179000  0.022161905    9.7988645   0.21092345  0.045052467            0    35.030792   -1360.1428   -1263.1429 
  180000  0.022285714    9.7988645   0.21181962  0.045406756            0    35.030792   -1360.0513   -1269.3135 
  181000  0.022409524    9.7988645   0.21271304  0.045760353            0    35.030792    -1359.959    -1275.467 
  182000  0.022533333    9.7988645   0.21360563  0.046113099            0    35.030792   -1359.8668   -1281.6123 
  183000  0.022657143    9.7988645   0.21449587  0.046465652            0    35.030792   -1359.7743    -1287.745 
  184000  0.022780952    9.7988645   0.21538414  0.046817629            0    35.030792   -1359.6814   -1293.8651 
  185000  0.022904762    9.7988645   0.21626916  0.047168555            0    35.030792   -1359.5871    -1299.964 
  186000  0.023028571    9.7988645   0.21715184  0.047519278            0    35.030792   -1359.4925   -1306.0504 
  187000  0.023152381    9.7988645    0.2180334  0.047869476            0    35.030792    -1359.398   -1312.1287 
  188000   0.02327619    9.7988645   0.21891382   0.04821917            0    35.030792   -1359.3036   -1318.1988 
  189000       0.0234    9.7988645   0.21979264  0.048567929            0    35.030792   -1359.2089   -1324.2565 
  190000   0.02352381    9.7988645   0.22066682  0.048916181            0    35.030792   -1359.1123   -1330.2887 
  191000  0.023647619    9.7988645   0.22154063  0.049264049            0    35.030792   -1359.0164   -1336.3172 
  192000  0.023771429    9.7988645   0.22241039  0.049610826            0    35.030792   -1358.9186   -1342.3203 
  193000  0.023895238    9.7988645   0.22328028  0.049957593            0    35.030792   -1358.8219   -1348.3241 
  194000  0.024019048    9.7988645   0.22414905  0.050303865            0    35.030792   -1358.7254   -1354.3199 
  195000  0.024142857    9.7988645   0.22501504  0.050649547            0    35.030792   -1358.6281    -1360.299 
  196000  0.024266667    9.7988645   0.22587707  0.050994059            0    35.030792   -1358.5289   -1366.2528 
  197000  0.024390476    9.7988645     0.226736  0.051337434            0    35.030792   -1358.4283   -1372.1857 
  198000  0.024514286    9.7988645   0.22759428  0.051680728            0    35.030792   -1358.3284    -1378.115 
  199000  0.024638095    9.7988645   0.22845263  0.052024113            0    35.030792   -1358.2296   -1384.0451 
  200000  0.024761905    9.7988645   0.22931027  0.052366614            0    35.030792    -1358.131   -1389.9673 
Loop time of 59.5587 on 4 procs for 200000 steps with 1800 atoms

Performance: 290.134 ns/day, 0.083 hours/ns, 3358.030 timesteps/s
99.3% CPU use with 4 MPI tasks x no OpenMP threads

MPI task timing breakdown:
Section |  min time  |  avg time  |  max time  |%varavg| %total
---------------------------------------------------------------
Pair    | 49.477     | 50.321     | 50.976     |   8.7 | 84.49
Neigh   | 0.00103    | 0.0010431  | 0.001065   |   0.0 |  0.00
Comm    | 5.2754     | 5.8427     | 6.6059     |  22.8 |  9.81
Output  | 0.15205    | 0.15238    | 0.15252    |   0.0 |  0.26
Modify  | 1.8411     | 1.8615     | 1.9023     |   1.8 |  3.13
Other   |            | 1.38       |            |       |  2.32

Nlocal:    450 ave 451 max 448 min
Histogram: 1 0 0 0 0 0 1 0 0 2
Nghost:    389.75 ave 394 max 386 min
Histogram: 1 1 0 0 0 0 0 1 0 1
Neighs:    10970 ave 11160 max 10865 min
Histogram: 1 1 1 0 0 0 0 0 0 1
FullNghs:  0 ave 0 max 0 min
Histogram: 4 0 0 0 0 0 0 0 0 0

Total # of neighbors = 43880
Ave neighs/atom = 24.3778
Neighbor list builds = 3
Dangerous builds = 0
Total wall time: 0:01:06
