LAMMPS (17 Nov 2016)
# 1D atomic chain
# Atomistic Modeling of Materials - Tutorial 2
#
# Markus Schöberl
# m.schoeberl@tum.de
# Professur für Kontinuumsmechanik
# Technische Universität München
#
# Dezember 2015
#

# general preparation of simulation with real units as
# described in tutorial 1
atom_style      bond
units           real
dimension       3
boundary        p p p
processors      * 1 1

# sorting of atoms in internal neighboring list
atom_modify 	map array sort 10 1.0

# use a harmonic bond - bond coeff are defined in cofiguration file
bond_style      harmonic
# read the data from a configuraion file (could be created also form external software package)
read_data       data.1d.chain
  orthogonal box = (0 -1 -1) to (20 1 1)
  1 by 1 by 1 MPI processor grid
  reading atoms ...
  10 atoms
  scanning bonds ...
  1 = max bonds/atom
  reading bonds ...
  10 bonds
  2 = max # of 1-2 neighbors
  2 = max # of 1-3 neighbors
  4 = max # of 1-4 neighbors
  6 = max # of special neighbors

# use lj-potential for stabilization purpose (enfocing 1D in LAMMPS)
pair_style	lj/cut 4
pair_coeff	* * 0.2376 2.0

# set variable for integration timestep
variable        dt equal 1
timestep        ${dt}
timestep        1

# set for output purposes
thermo          100
thermo_style	custom step temp pe etotal press pxx pyy pzz

# ----- Print structure
#dump            snap all custom 10000 snap.lammpstrj id type x y z
#dump            1 all atom 500 dum.chain_*.atom

# ----- Minimize energy at 0K

# find the equilibrium length of the simulaiton box
fix 		RELAX all box/relax x 0 couple none
minimize	0.0 1.0e-8 100000 1000000
WARNING: Resetting reneighboring criteria during minimization (../min.cpp:168)
Neighbor list info ...
  1 neighbor list requests
  update every 1 steps, delay 0 steps, check yes
  max neighbors/atom: 2000, page size: 100000
  master list distance cutoff = 6
  ghost atom cutoff = 6
  binsize = 3 -> bins = 7 1 1
WARNING: Inconsistent image flags (../domain.cpp:785)
WARNING: Bond/angle/dihedral extent > half of periodic box length (../domain.cpp:906)
Memory usage per processor = 4.85125 Mbytes
Step Temp PotEng TotEng Press Pxx Pyy Pzz 
       0            0   -7.5928519   -7.5928519     21184.72   -11398.991    37476.575    37476.575 
     100            0   -7.7071096   -7.7071096    22376.321   -8186.9992    37657.981    37657.981 
     200            0   -7.7838849   -7.7838849    23568.618   -4973.6336    37839.744    37839.744 
     300            0   -7.8231588   -7.8231588    24761.909   -1758.3846    38022.055    38022.055 
     356            0   -7.8287659   -7.8287659    25414.677 -4.1041201e-11    38122.015    38122.015 
WARNING: Bond/angle/dihedral extent > half of periodic box length (../domain.cpp:906)
Loop time of 0.016084 on 1 procs for 356 steps with 10 atoms

93.2% CPU use with 1 MPI tasks x no OpenMP threads

Minimization stats:
  Stopping criterion = force tolerance
  Energy initial, next-to-last, final = 
        -7.59285185185     -7.82876588396     -7.82876588396
  Force two-norm initial, final = 13.2994 1.58781e-12
  Force max component initial, final = 13.2994 9.1685e-13
  Final line search alpha, max atom move = 1 9.1685e-13
  Iterations, force evaluations = 356 358

MPI task timing breakdown:
Section |  min time  |  avg time  |  max time  |%varavg| %total
---------------------------------------------------------------
Pair    | 0.0039971  | 0.0039971  | 0.0039971  |   0.0 | 24.85
Bond    | 0.00023246 | 0.00023246 | 0.00023246 |   0.0 |  1.45
Neigh   | 0          | 0          | 0          |   0.0 |  0.00
Comm    | 0.0030191  | 0.0030191  | 0.0030191  |   0.0 | 18.77
Output  | 3.7193e-05 | 3.7193e-05 | 3.7193e-05 |   0.0 |  0.23
Modify  | 0          | 0          | 0          |   0.0 |  0.00
Other   |            | 0.008798   |            |       | 54.70

Nlocal:    10 ave 10 max 10 min
Histogram: 1 0 0 0 0 0 0 0 0 0
Nghost:    774 ave 774 max 774 min
Histogram: 1 0 0 0 0 0 0 0 0 0
Neighs:    580 ave 580 max 580 min
Histogram: 1 0 0 0 0 0 0 0 0 0

Total # of neighbors = 580
Ave neighs/atom = 58
Ave special neighs/atom = 6
Neighbor list builds = 0
Dangerous builds = 0
unfix		RELAX
variable length equal "lx"
print "Length in x-direction (Angstoms) = ${length};"
Length in x-direction (Angstoms) = 19.2906838114883;

# ----- Equilibration and thermalization

# assign temperature to particles
variable	T equal 0.01
velocity	all create $T 111 mom yes rot yes dist gaussian
velocity	all create 0.01 111 mom yes rot yes dist gaussian

# use a specific damping rate - observe which is stable
variable	tdamp equal 1000*${dt}
variable	tdamp equal 1000*1
fix             LANG all langevin $T $T ${tdamp} 222 zero yes
fix             LANG all langevin 0.01 $T ${tdamp} 222 zero yes
fix             LANG all langevin 0.01 0.01 ${tdamp} 222 zero yes
fix             LANG all langevin 0.01 0.01 1000 222 zero yes
fix		NVE all nve
run		100000
Neighbor list info ...
  1 neighbor list requests
  update every 1 steps, delay 10 steps, check yes
  max neighbors/atom: 2000, page size: 100000
  master list distance cutoff = 6
  ghost atom cutoff = 6
  binsize = 3 -> bins = 7 1 1
WARNING: Inconsistent image flags (../domain.cpp:785)
WARNING: Bond/angle/dihedral extent > half of periodic box length (../domain.cpp:906)
Memory usage per processor = 3.72625 Mbytes
Step Temp PotEng TotEng Press Pxx Pyy Pzz 
     356         0.01   -7.8287659   -7.8284976    25414.836   0.19845683    38122.187    38122.122 
     400  0.018530735   -7.8728697   -7.8723725     25336.77   -5.2100008    37892.937    38122.582 
     500    3.7078152   -8.0047043   -7.9052336    24873.111   -1657.1598    38211.124     38065.37 
     600    18.903133   -8.6556011   -8.1484812     18314.72   -22046.657    38850.052    38140.764 
     700    9.7182545   -8.4776797   -8.2169653    18908.519   -20486.209    38957.139    38254.628 
     800    12.213136   -8.5632969   -8.2356516    19890.675   -17693.743    39195.724    38170.044 
     900    10.727187   -8.5359138   -8.2481324    20529.189    -15743.22    38804.811    38525.974 
    1000    6.6948371   -8.5677144     -8.38811    18107.801   -22399.648     38186.19     38536.86 
    1100    4.8579558   -8.5011287   -8.3708029    19419.497    -18659.89    38362.397    38555.985 
    1200    5.6500709   -8.5078413   -8.3562652    20663.787   -15358.247    38862.216    38487.392 
    1300    2.8587224   -8.4323862   -8.3556944    19240.819   -19281.821    38566.929    38437.349 
    1400    5.7295616   -8.5158509   -8.3621423    20579.892    -15674.36    38693.714    38720.322 
    1500    3.8158588    -8.514483   -8.4121139    19582.027   -18463.164    38680.352    38528.891 
    1600    2.6400019   -8.5283504   -8.4575263    20262.651   -16375.069    38335.705    38827.318 
    1700    4.1976131   -8.6485041   -8.5358935    19071.302   -19477.715    38373.445    38318.176 
    1800    3.6675195   -8.5522067   -8.4538171    20200.192   -16975.662     38792.78    38783.459 
    1900     2.958091   -8.5801998   -8.5008422    19657.427   -18145.226    38451.242    38666.266 
    2000     2.603386    -8.645417   -8.5755752    18671.129   -20474.466    38290.312    38197.539 
    2100    2.0561114   -8.6414728   -8.5863129    19675.127    -17663.29    38535.568    38153.103 
    2200    1.6398524   -8.5617258    -8.517733    18796.756   -20517.011    38360.511    38546.767 
    2300    2.1621557   -8.5862038   -8.5281991     19610.61   -18457.634    38583.706    38705.758 
    2400    2.1479643   -8.6107714   -8.5531473    19055.751   -19886.451    38623.105    38430.599 
    2500    2.0525769   -8.6762495   -8.6211845     19153.61    -19325.62    38461.704    38324.747 
    2600    1.2945833   -8.6642594   -8.6295293    19049.243   -19658.429    38312.148     38494.01 
    2700     1.167829   -8.6370256   -8.6056959    19613.445   -18219.201     38511.58    38547.955 
    2800    1.3662639   -8.6791045   -8.6424513    18907.146   -20131.326    38297.479    38555.286 
    2900    1.3866209   -8.7175058   -8.6803066    19526.061   -18455.815     38556.15    38477.847 
    3000    1.0390994    -8.637238   -8.6093618    19369.951   -18879.141    38618.108    38370.884 
    3100     1.122081   -8.6309032   -8.6008008    19325.062   -18912.065    38391.284    38495.967 
    3200   0.77500464   -8.6265797   -8.6057884    19227.946   -19197.378    38290.167    38591.048 
    3300   0.46802065   -8.6505214   -8.6379657    19491.149    -18379.33     38422.74    38430.036 
    3400   0.60273867   -8.6565049    -8.640335    19221.084   -19111.063    38250.677    38523.638 
    3500   0.69498636   -8.6480311   -8.6293865    19004.861   -19961.507    38522.704    38453.387 
    3600   0.54898676   -8.6629358    -8.648208    19047.235   -19783.474    38535.692    38389.486 
    3700   0.45833865   -8.6486002   -8.6363043    19219.239   -19307.497    38470.978    38494.236 
    3800    0.5973615    -8.640859   -8.6248334    19184.304   -19447.432    38420.964     38579.38 
    3900   0.61988035   -8.6734388   -8.6568091    19056.832   -19793.723     38576.16    38388.058 
    4000   0.45421832   -8.6572234   -8.6450379    19429.385    -18775.05    38547.023    38516.182 
    4100   0.64295855   -8.6794989     -8.66225    19143.528   -19658.024    38584.609    38503.998 
    4200   0.62708689   -8.7403901   -8.7235671    19094.129   -19583.961    38571.559    38294.788 
    4300   0.30717269   -8.7342852   -8.7260446    19302.917   -18934.988    38536.603    38307.134 
    4400   0.32164945    -8.707295   -8.6986661    19148.633   -19596.556    38444.539    38597.914 
    4500   0.23225455   -8.7207285   -8.7144977    19409.905   -18686.434    38535.947    38380.201 
    4600    0.3016865   -8.7382267   -8.7301333    18918.287   -20086.784    38395.874    38445.771 
    4700   0.21202393   -8.7224707   -8.7167827    19471.582   -18461.069    38483.695    38392.119 
    4800   0.27928837   -8.7401115   -8.7326189    19008.161   -19801.303    38377.022    38448.763 
    4900   0.23630097   -8.7258327   -8.7194934    19379.015   -18821.866    38552.932    38405.981 
    5000   0.26574905   -8.6982509   -8.6911216    19218.558   -19360.454    38466.083    38550.044 
    5100   0.20771854   -8.7709282   -8.7653557    19086.325   -19382.058    38190.589    38450.443 
    5200    0.2059721    -8.683907   -8.6783813    19417.517   -18891.841    38560.921     38583.47 
    5300   0.15809875   -8.6982512   -8.6940098    19143.034   -19651.553    38610.903    38469.751 
    5400   0.18571534   -8.6995935   -8.6946112    19467.281   -18680.662    38536.605    38545.901 
    5500   0.16534031   -8.7583717    -8.753936    19048.292   -19634.598    38347.396    38432.076 
    5600   0.12961472   -8.7579767   -8.7544995    19240.277   -19071.425     38299.34    38492.915 
    5700   0.10314282   -8.7432043   -8.7404372    19237.965   -19158.219    38333.012    38539.103 
    5800  0.086166205   -8.7578132   -8.7555016     19246.97    -19114.52    38341.106    38514.324 
    5900  0.089084383   -8.7435856   -8.7411957    19234.579   -19228.634    38511.483    38420.889 
    6000  0.078963057   -8.7436322   -8.7415138    19282.667   -19063.545    38518.056    38393.491 
    6100  0.068572557   -8.7438516    -8.742012    19144.135   -19488.941    38556.456    38364.891 
    6200  0.069287206   -8.7588037   -8.7569449    19303.781   -18918.414    38448.375    38381.383 
    6300  0.062086051   -8.6857279   -8.6840623    19314.697   -19293.384    38561.258    38676.218 
    6400  0.064761168   -8.7301131   -8.7283757    19404.503   -18734.724    38566.444     38381.79 
    6500  0.043675752   -8.6713793   -8.6702076     19247.94   -19498.464    38618.255    38624.028 
    6600  0.041269474   -8.7008591   -8.6997519    19352.653   -18972.941    38513.807    38517.092 
    6700  0.048698827   -8.6719835   -8.6706771    19287.913    -19372.01    38636.046    38599.703 
    6800  0.037158459   -8.7155952   -8.7145983    19268.955   -19249.574    38559.245    38497.194 
    6900  0.041283665   -8.7305766   -8.7294691    19189.114   -19406.323    38504.605     38469.06 
    7000  0.041099658   -8.7892332   -8.7881306    19100.728   -19355.879    38405.578    38252.487 
    7100   0.03479351   -8.7453449   -8.7444115    19199.655   -19302.465    38411.707    38489.724 
    7200  0.027313092   -8.7452773   -8.7445446    19184.048   -19365.372    38353.975    38563.541 
    7300   0.02100851   -8.7744479   -8.7738843    19172.562   -19227.783    38334.288    38411.182 
    7400  0.022711666   -8.7308254   -8.7302161    19211.931   -19345.968    38503.666    38478.096 
    7500  0.022010589   -8.7308871   -8.7302966    19237.604   -19268.105    38418.636    38562.281 
    7600  0.020358168   -8.7309051   -8.7303589    19254.235   -19220.073    38415.226    38567.551 
    7700   0.02127674   -8.7601598    -8.759589    19188.965   -19274.779    38352.387    38489.287 
    7800  0.022162121   -8.7310107   -8.7304162    19259.701   -19189.061    38562.556    38405.608 
    7900  0.017858169   -8.7603751    -8.759896    19134.282   -19424.446    38493.132    38334.161 
    8000  0.016117995   -8.7457013   -8.7452689    19224.875   -19225.897     38415.68    38484.841 
    8100  0.011041616   -8.7016703   -8.7013741    19270.041   -19326.512    38568.032    38568.602 
    8200  0.016472115   -8.7603303   -8.7598884    19192.233   -19258.824    38345.636    38489.886 
    8300  0.014097821   -8.7456824   -8.7453042    19233.423    -19210.63    38501.604    38409.296 
    8400  0.016310398   -8.7311252   -8.7306876    19265.145   -19217.594    38507.292    38505.738 
    8500 0.0099466584    -8.731013   -8.7307462    19274.172   -19188.259    38512.234     38498.54 
    8600  0.015320633   -8.7311959   -8.7307849    19263.963   -19211.109    38576.083    38426.915 
    8700  0.013680328   -8.7311677   -8.7308007    19250.271    -19254.14    38514.789    38490.164 
    8800  0.013232963   -8.7603781   -8.7600231    19208.254   -19220.462    38350.582    38494.642 
    8900  0.012912921   -8.7896052   -8.7892587    19163.612   -19207.946    38348.567    38350.216 
    9000  0.012720776   -8.7458119   -8.7454706    19204.967   -19312.669    38507.902    38419.668 
    9100  0.012989847    -8.760443   -8.7600945    19178.383   -19277.476    38483.883    38328.742 
    9200 0.0098684718   -8.7165178   -8.7162531    19228.991    -19376.82    38581.356    38482.436 
    9300  0.014046979   -8.7458343   -8.7454575    19203.937    -19299.76    38420.111    38491.461 
    9400  0.011617988   -8.7457488   -8.7454371    19196.118   -19318.144    38491.811    38414.687 
    9500  0.013066182   -8.7165278   -8.7161772    19232.737   -19364.238    38503.892    38558.556 
    9600 0.0080180653   -8.7310551     -8.73084    19235.358   -19266.515    38487.935    38484.653 
    9700  0.014524188   -8.7457938   -8.7454042    19193.261   -19325.187    38344.943    38560.028 
    9800 0.0079193719    -8.701798   -8.7015855    19305.614   -19234.724    38574.692    38576.874 
    9900  0.010541643   -8.7310333   -8.7307505     19245.31   -19273.073    38507.522    38501.481 
   10000  0.014653382   -8.7311308   -8.7307377    19257.217   -19212.182    38502.636    38481.198 
   10100  0.011668911   -8.7311347   -8.7308216     19224.16   -19303.804    38491.524    38484.761 
   10200  0.012235268   -8.7165657   -8.7162375    19269.531   -19261.867    38578.578    38491.883 
   10300  0.013589839   -8.7165749   -8.7162103      19295.9   -19198.355    38510.035     38576.02 
   10400  0.011175233    -8.701935   -8.7016352     19262.28   -19347.579    38572.417    38562.001 
   10500 0.0088326346   -8.7311476   -8.7309107    19218.735   -19299.864    38559.077    38396.991 
   10600 0.0085718299    -8.716511    -8.716281    19191.012   -19461.351    38559.784    38474.601 
   10700  0.010811922   -8.7750856   -8.7747955    19161.243   -19256.767    38410.837    38329.659 
   10800 0.0092062183   -8.7167071   -8.7164601    19261.108   -19299.085    38505.957    38576.451 
   10900 0.0067709252   -8.7312496   -8.7310679    19255.372   -19211.227    38495.426    38481.917 
   11000  0.008315881   -8.8043257   -8.8041026    19070.292   -19390.451    38341.729    38259.597 
   11100  0.009328069   -8.7604874   -8.7602371    19205.007   -19225.227    38430.492    38409.755 
   11200  0.012006121   -8.7751416   -8.7748195    19185.968   -19220.366    38352.744    38425.528 
   11300 0.0089254783   -8.7896799   -8.7894405    19158.291   -19218.749    38274.693     38418.93 
   11400 0.0091393656   -8.7749999   -8.7747547    19182.769    -19212.55    38340.744    38420.112 
   11500 0.0074591016    -8.789547   -8.7893469    19130.143   -19296.312    38279.152     38407.59 
   11600   0.01010838   -8.7895832    -8.789312    19133.461   -19270.412    38336.749    38334.046 
   11700  0.014128612   -8.7603955   -8.7600165    19160.903   -19341.585    38339.743    38484.552 
   11800  0.016976473   -8.7166183   -8.7161629    19274.334   -19242.685    38573.805    38491.882 
   11900  0.011379463   -8.7457177   -8.7454124    19212.434   -19271.773    38570.594    38338.479 
   12000  0.016193071   -8.7896798   -8.7892454    19104.567   -19351.048    38345.802    38318.947 
   12100  0.011150894   -8.7457326   -8.7454334    19169.017   -19385.842    38480.729    38412.165 
   12200 0.0090758258   -8.7603106   -8.7600672    19153.731   -19350.653     38413.23    38398.617 
   12300 0.0098665956   -8.7457803   -8.7455156    19210.831   -19284.272    38423.406    38493.358 
   12400 0.0078117782   -8.7457685   -8.7455589    19199.465   -19305.719    38579.779    38324.335 
   12500  0.011668886   -8.7897574   -8.7894443    19144.434   -19258.494    38274.118    38417.676 
   12600  0.012154632   -8.7458717   -8.7455457    19204.193   -19298.406    38418.833    38492.152 
   12700  0.010623236   -8.7020304   -8.7017454    19314.451   -19199.399    38574.626    38568.127 
   12800  0.010098581   -8.7897786   -8.7895077    19130.472   -19295.305    38343.893    38342.829 
   12900  0.011296946   -8.7459067   -8.7456036    19234.881   -19208.749    38426.407    38486.987 
   13000 0.0077681713   -8.7603505   -8.7601421    19198.724   -19258.432    38502.668    38351.935 
   13100 0.0086969895   -8.7604141   -8.7601808    19210.285   -19205.846     38427.07    38409.632 
   13200 0.0070555066   -8.7896451   -8.7894558    19134.179   -19285.996    38344.936    38343.596 
   13300 0.0073936041    -8.731151   -8.7309526    19221.131   -19316.491    38497.151    38482.732 
   13400  0.010821773   -8.7897564    -8.789466    19152.367   -19216.308    38412.321    38261.086 
   13500 0.0095950002   -8.7604585   -8.7602011    19175.256    -19319.11    38580.472    38264.405 
   13600  0.011132848   -8.7312278   -8.7309292    19260.232   -19212.889    38499.063    38494.521 
   13700  0.014346557   -8.7751389    -8.774754    19135.568   -19353.142    38271.593    38488.253 
   13800  0.010304135   -8.7897222   -8.7894458    19121.013   -19299.807    38339.419    38323.428 
   13900 0.0081222848   -8.7457857   -8.7455678    19182.126   -19350.326    38557.549    38339.156 
   14000  0.010086128   -8.7897223   -8.7894518    19118.549   -19317.271    38498.565    38174.354 
   14100 0.0090299737   -8.7459095   -8.7456672    19219.564   -19256.146    38498.045    38416.792 
   14200 0.0077750085   -8.7897307   -8.7895222     19155.95   -19237.145    38287.062    38417.935 
   14300  0.010109297   -8.7459112     -8.74564    19223.793   -19242.661    38571.662    38342.377 
   14400   0.01071251   -8.7458504    -8.745563    19195.004   -19319.304    38411.659    38492.658 
   14500  0.011573163   -8.7458743   -8.7455638    19207.702    -19289.23    38502.681    38409.654 
   14600 0.0089796801   -8.7749574   -8.7747165    19183.904   -19221.293    38430.303    38342.702 
   14700  0.012479501   -8.7895804   -8.7892456    19158.828     -19229.9    38291.026    38415.358 
   14800  0.012023216   -8.7311452   -8.7308227    19229.864   -19296.725    38567.498     38418.82 
   14900  0.013737217   -8.7897223   -8.7893538    19130.574   -19271.997    38255.269    38408.448 
   15000  0.011552336   -8.7604145   -8.7601046    19195.793   -19267.635    38434.531    38420.483 
   15100   0.01096826   -8.7311781   -8.7308838    19270.132   -19188.362    38508.296    38490.462 
   15200 0.0086235368   -8.7457857   -8.7455544    19191.278     -19339.4    38419.243    38493.989 
   15300  0.010211046   -8.7603744   -8.7601005    19166.274   -19309.521    38412.426    38395.917 
   15400  0.012910704   -8.7165361   -8.7161897    19235.545   -19341.367    38559.705    38488.298 
   15500 0.0096314682   -8.7456644    -8.745406    19240.013   -19215.496    38514.461    38421.073 
   15600  0.010473038   -8.7750114   -8.7747304    19164.865   -19260.156    38416.379    38338.372 
   15700  0.013601401   -8.7165921   -8.7162272    19244.284   -19326.236    38568.444    38490.645 
   15800  0.015378555   -8.7458317   -8.7454191    19208.552   -19268.322    38419.096    38474.883 
   15900  0.010251581   -8.7602779   -8.7600028    19159.725    -19351.18    38418.427    38411.929 
   16000 0.0090207136    -8.731049    -8.730807     19276.22   -19172.686    38509.339    38492.007 
   16100 0.0087392876    -8.745754   -8.7455195    19164.558   -19397.525    38479.557     38411.64 
   16200  0.014036184   -8.7312744   -8.7308978     19270.67   -19168.905    38494.664    38486.249 
   16300  0.010750636   -8.7311666   -8.7308782     19242.43   -19282.992     38589.44    38420.841 
   16400  0.011014582   -8.7604028   -8.7601073    19186.293   -19263.019    38416.808    38405.089 
   16500 0.0076517369   -8.7457086   -8.7455033     19193.13   -19339.177    38504.925    38413.641 
   16600  0.012815538   -8.7458762   -8.7455324    19179.051   -19369.877    38572.705    38334.326 
   16700  0.014096431   -8.7312905   -8.7309123    19242.564   -19247.367    38489.131    38485.928 
   16800 0.0084589101   -8.7457744   -8.7455474    19202.192   -19305.149    38424.338    38487.388 
   16900  0.011885371   -8.7312395   -8.7309207    19255.487   -19218.153    38494.586    38490.027 
   17000  0.011205014   -8.7751355   -8.7748349     19173.89   -19254.209    38425.305    38350.574 
   17100 0.0095963503   -8.7458921   -8.7456347    19205.882    -19292.26    38505.341    38404.565 
   17200 0.0092959685   -8.7604753   -8.7602259    19188.325   -19258.264     38412.74    38410.498 
   17300 0.0080570317   -8.7750827   -8.7748666    19140.233    -19338.44     38350.43    38408.707 
   17400 0.0077621084   -8.7458821   -8.7456739    19233.057   -19211.677    38490.716    38420.133 
   17500 0.0071944184   -8.7751408   -8.7749478    19169.107   -19259.873    38424.266    38342.929 
   17600 0.0076155381   -8.7166878   -8.7164835    19256.541   -19291.606     38576.24     38484.99 
   17700 0.0077007454   -8.7312679   -8.7310613    19246.439   -19241.585    38497.832    38483.071 
   17800  0.010606674   -8.8189137   -8.8186292     19072.14   -19307.544    38268.269    38255.695 
   17900 0.0080431891   -8.7749274   -8.7747116    19186.137   -19207.269    38340.623    38425.057 
   18000  0.015030662   -8.7459112   -8.7455079    19234.029   -19214.397     38352.79    38563.694 
   18100  0.015415135   -8.7896552   -8.7892417    19133.832   -19289.795    38499.883    38191.407 
   18200  0.013561017   -8.7604466   -8.7600828    19198.316    -19226.01    38416.504    38404.454 
   18300 0.0075292682    -8.760315    -8.760113    19170.177   -19329.226    38494.085     38345.67 
   18400 0.0079699546   -8.7164637   -8.7162499    19294.102   -19196.791    38507.919    38571.178 
   18500  0.010666028   -8.7165656   -8.7162794    19257.632   -19310.075    38582.627    38500.344 
   18600 0.0077295581   -8.7750005   -8.7747931    19201.913   -19155.797    38422.462    38339.073 
   18700 0.0082605964   -8.7604422   -8.7602206    19176.044   -19316.957    38421.681    38423.406 
   18800 0.0089251045   -8.7458333   -8.7455939    19232.116   -19221.755    38426.494     38491.61 
   18900 0.0099926317   -8.7604492   -8.7601811    19200.114   -19245.688    38425.695    38420.334 
   19000 0.0072837092   -8.7603578   -8.7601624    19186.767   -19280.195    38431.142    38409.353 
   19100  0.011152477   -8.7312306   -8.7309315    19254.023   -19224.045    38417.685    38568.427 
   19200 0.0092188947   -8.7458041   -8.7455568    19196.838    -19312.06    38488.455    38414.119 
   19300 0.0080990324   -8.7603939   -8.7601767    19237.963   -19151.686    38360.606    38504.971 
   19400  0.011795763   -8.7312918   -8.7309753    19238.657   -19281.626    38499.235    38498.362 
   19500  0.012388073   -8.7751165   -8.7747841    19169.916   -19250.442    38502.054    38258.136 
   19600 0.0087830705   -8.7603844   -8.7601488    19139.232   -19391.456    38334.054    38475.098 
   19700 0.0084661113   -8.7165232   -8.7162961    19241.181   -19324.338    38485.096    38562.785 
   19800 0.0078551327   -8.7896618   -8.7894511    19149.142   -19252.342    38354.221    38345.548 
   19900  0.010549876   -8.7311345   -8.7308514    19262.071   -19211.653    38501.405    38496.462 
   20000  0.017351247   -8.7897865    -8.789321    19115.638   -19336.337    38422.114    38261.137 
   20100  0.011713088    -8.731111   -8.7307967    19201.358    -19351.35        38565    38390.426 
   20200    0.0130542   -8.7457386   -8.7453884    19178.126   -19352.656    38403.508    38483.525 
   20300 0.0057109615   -8.7162754   -8.7161222    19271.803   -19265.523    38508.697    38572.233 
   20400  0.014633672   -8.7749825     -8.77459    19152.834   -19283.321    38183.197    38558.627 
   20500  0.016711502   -8.7604729   -8.7600246    19201.977   -19228.352    38492.111    38342.171 
   20600   0.01449633   -8.7604053   -8.7600164    19188.989   -19276.751    38508.829     38334.89 
   20700  0.014108523   -8.7749895   -8.7746111    19193.945   -19186.044    38340.126    38427.752 
   20800 0.0099875384   -8.7603242   -8.7600562    19205.612   -19232.043    38509.239     38339.64 
   20900  0.010233215   -8.7165407   -8.7162662    19285.564   -19229.663    38504.094    38582.261 
   21000 0.0078728585   -8.7456757   -8.7454644    19252.081   -19170.522    38585.175    38341.591 
   21100  0.011183741   -8.7457227   -8.7454226    19250.451   -19184.962    38510.485     38425.83 
   21200  0.014830827   -8.7603397   -8.7599418    19217.839   -19195.237    38421.163    38427.591 
   21300  0.012097402   -8.7310403   -8.7307158    19250.357   -19239.775    38584.995    38405.849 
   21400  0.010595564   -8.7456531   -8.7453688    19211.722   -19275.305     38339.93     38570.54 
   21500  0.013657235   -8.7895728   -8.7892064    19150.645   -19232.828    38274.316    38410.448 
   21600   0.01479013   -8.7457763   -8.7453795    19198.095    -19315.38    38571.262    38338.404 
   21700  0.014489476   -8.7457623   -8.7453735    19226.221    -19229.67     38417.36    38490.973 
   21800  0.017345618   -8.7750206   -8.7745553    19128.166   -19381.284    38353.519    38412.262 
   21900  0.015436089   -8.7310915   -8.7306774    19248.261   -19226.018    38491.473    38479.329 
   22000   0.01605835   -8.7603364   -8.7599056    19137.868   -19410.192    38494.269    38329.526 
   22100  0.018474901   -8.7457135   -8.7452179    19167.519   -19382.769    38485.798    38399.529 
   22200  0.016013349   -8.7310798   -8.7306503    19250.983   -19239.859    38500.642    38492.167 
   22300  0.013522225   -8.7310063   -8.7306436    19217.183   -19355.043    38513.408    38493.185 
   22400  0.011493062   -8.7602328   -8.7599244    19222.935    -19149.17    38413.727    38404.249 
   22500  0.010400157   -8.7163248   -8.7160458    19206.578   -19428.098    38562.451    38485.381 
   22600 0.0098790737    -8.716307    -8.716042    19272.569   -19228.185    38569.422    38476.468 
   22700  0.013634858   -8.7748831   -8.7745173    19132.406   -19352.263    38335.731    38413.751 
   22800   0.02020786   -8.7458053   -8.7452632    19200.077   -19294.471    38422.772     38471.93 
   22900  0.015391565   -8.7456997   -8.7452868    19203.593    -19290.31    38329.783    38571.307 
   23000  0.016602103   -8.7602966   -8.7598512      19150.6   -19357.725    38408.033    38401.493 
   23100  0.013287201   -8.7456359   -8.7452795    19207.235   -19280.709    38422.713    38479.702 
   23200  0.017890346   -8.7457079    -8.745228    19161.634   -19410.341    38562.648    38332.596 
   23300   0.01636623   -8.7164591     -8.71602     19265.44   -19242.886     38492.75    38546.457 
   23400   0.01359069   -8.7456862   -8.7453216    19172.641   -19387.127    38488.419    38416.631 
   23500  0.011792089   -8.7603283    -8.760012    19215.291   -19195.423    38503.539    38337.757 
   23600  0.010943001   -8.7310964   -8.7308028    19286.255   -19158.675     38507.12     38510.32 
   23700 0.0085852966   -8.7457036   -8.7454732    19230.475   -19225.462    38506.335    38410.553 
   23800 0.0076440245   -8.7311624   -8.7309573    19263.696   -19209.191    38499.177    38501.102 
   23900  0.010602088   -8.7604409   -8.7601565    19197.625    -19253.28    38511.383    38334.771 
   24000 0.0098120576   -8.7896326   -8.7893693    19185.738   -19154.915    38280.784    38431.343 
   24100 0.0080763664   -8.7312074   -8.7309907    19270.104   -19204.315    38437.178    38577.448 
   24200  0.008284219   -8.7312622     -8.73104    19222.831   -19315.834    38419.778     38564.55 
   24300 0.0073190116   -8.7458098   -8.7456135    19207.352   -19281.513    38488.764    38414.806 
   24400 0.0091970831   -8.7458329   -8.7455862    19189.129   -19337.201    38499.668    38404.921 
   24500 0.0097790924   -8.7604285   -8.7601662    19185.435   -19272.163    38410.433    38418.035 
   24600 0.0078050594    -8.731106   -8.7308966    19215.853   -19325.539    38496.388     38476.71 
   24700   0.01055094   -8.7458652   -8.7455821    19196.387   -19307.546    38407.284    38489.422 
   24800  0.010143104   -8.7604869   -8.7602148    19178.323   -19296.855     38419.84    38411.982 
   24900  0.010254656    -8.731234   -8.7309589    19232.841   -19296.478    38580.739    38414.261 
   25000 0.0093766419   -8.7165923   -8.7163407    19263.091   -19266.208    38494.329    38561.152 
   25100  0.010801476   -8.7458201   -8.7455303    19180.704   -19363.821    38498.746    38407.187 
   25200 0.0089457997   -8.7311948   -8.7309548    19234.249   -19269.395    38482.053     38490.09 
   25300  0.010074553   -8.7458808   -8.7456105    19240.818   -19198.147    38581.633    38338.969 
   25400 0.0056008212   -8.7457964   -8.7456462    19225.818   -19262.068    38436.866    38502.655 
   25500 0.0099822156   -8.7313273   -8.7310596    19251.075   -19232.908    38424.011    38562.121 
   25600 0.0065073646    -8.760503   -8.7603284    19151.742   -19376.108    38417.217    38414.116 
   25700 0.0068233596   -8.7750899   -8.7749068    19193.636   -19184.426    38429.317    38336.018 
   25800 0.0059077179   -8.7312636   -8.7311051    19223.183   -19320.864    38422.452    38567.961 
   25900 0.0055072875   -8.7751453   -8.7749975     19193.23   -19173.829     38566.61    38186.909 
   26000 0.0082622077   -8.7313425   -8.7311208    19222.647   -19332.684    38504.441    38496.185 
   26100 0.0075852726   -8.7313088   -8.7311053    19241.332   -19267.947    38504.196    38487.749 
   26200  0.011006166   -8.7459271   -8.7456319    19221.157   -19252.566    38502.483    38413.553 
   26300 0.0076534461   -8.7458162   -8.7456109    19221.603   -19262.676    38504.773    38422.711 
   26400 0.0074417796   -8.7166096     -8.71641    19292.047   -19199.974    38579.405    38496.712 
   26500  0.010681291   -8.7312867   -8.7310002    19235.657   -19288.826    38501.498    38494.299 
   26600 0.0040161064   -8.7311462   -8.7310385    19226.747   -19288.535    38495.014    38473.762 
   26700 0.0052251752   -8.7458336   -8.7456935    19171.339   -19389.361    38490.039     38413.34 
   26800 0.0063772552    -8.731243   -8.7310719    19233.074   -19269.842    38414.475    38554.589 
   26900 0.0071655697   -8.7458696   -8.7456773    19178.367   -19367.404      38489.3    38413.207 
   27000   0.00895496   -8.7020854   -8.7018452    19295.464   -19250.769    38574.385    38562.777 
   27100 0.0081646302   -8.7166799   -8.7164609    19246.268   -19329.792    38502.532    38566.065 
   27200 0.0088486574   -8.7313533   -8.7311159    19251.748   -19244.287    38579.935    38419.595 
   27300 0.0057616027   -8.7605156    -8.760361    19199.655   -19247.844    38274.618    38572.191 
   27400 0.0062024209    -8.745946   -8.7457796     19212.54   -19275.573    38498.763    38414.432 
   27500 0.0051982913   -8.7458896   -8.7457502    19228.669   -19229.141    38423.242    38491.908 
   27600 0.0056342637   -8.7459058   -8.7457546    19219.714   -19263.444    38505.001    38417.584 
   27700 0.0076327359    -8.789745   -8.7895402    19174.467   -19184.248    38433.474    38274.174 
   27800 0.0075858537   -8.7458672   -8.7456637    19239.558   -19208.572    38425.761    38501.486 
   27900 0.0089368864   -8.7897648    -8.789525    19119.806   -19303.528    38339.415    38323.531 
   28000 0.0048679022   -8.7312045   -8.7310739    19217.894   -19322.814    38409.442    38567.054 
   28100 0.0064580395   -8.7312796   -8.7311064    19225.479   -19311.152    38580.523    38407.065 
   28200 0.0049481544    -8.745849   -8.7457163    19221.786   -19251.155    38497.997    38418.516 
   28300  0.011555051   -8.7898106   -8.7895006    19118.592   -19317.641    38419.496    38253.919 
   28400 0.0061034078   -8.7750873   -8.7749235    19159.762    -19268.13    38414.108    38333.309 
   28500  0.010479764   -8.7751658   -8.7748847    19154.131     -19293.5    38491.974    38263.919 
   28600  0.010126321   -8.7166537    -8.716382    19270.084   -19257.166    38505.164    38562.255 
   28700 0.0082481271   -8.7604582   -8.7602369    19185.076   -19299.583     38352.09    38502.721 
   28800 0.0099747165   -8.7312067   -8.7309391    19225.295   -19289.282    38412.448     38552.72 
   28900 0.0067280257   -8.7311267   -8.7309462     19236.61   -19269.429    38561.734    38417.523 
   29000 0.0085889034   -8.7458225   -8.7455921    19231.531   -19229.472    38504.888    38419.179 
   29100 0.0089564511   -8.7458206   -8.7455803    19236.876   -19220.141    38580.979    38349.791 
   29200  0.012422487   -8.7312961   -8.7309629    19217.701   -19324.628    38498.946    38478.785 
   29300 0.0065447334   -8.7603749   -8.7601993    19149.479   -19362.967    38489.623    38321.779 
   29400 0.0099155454   -8.7166062   -8.7163402    19223.197   -19372.488    38557.128    38484.951 
   29500 0.0064238912   -8.7311219   -8.7309495    19252.529   -19231.978    38579.582    38409.982 
   29600  0.011315584   -8.7750677   -8.7747641    19160.893   -19289.463    38418.829    38353.312 
   29700  0.014219709   -8.7019989   -8.7016174    19295.579   -19242.715    38580.832     38548.62 
   29800  0.013913915   -8.7604414   -8.7600681    19168.134    -19327.79    38341.709    38490.483 
   29900  0.012352187   -8.7457683   -8.7454369    19224.739   -19244.622    38506.147    38412.693 
   30000  0.012761922   -8.7750507   -8.7747084    19162.966   -19285.643    38428.379    38346.163 
   30100 0.0083179067   -8.7895642    -8.789341    19190.392   -19109.844    38263.979     38417.04 
   30200  0.014099553   -8.7750698   -8.7746916    19188.581   -19218.654    38437.032    38347.366 
   30300  0.011061196   -8.7749225   -8.7746258    19215.966   -19146.674    38358.888    38435.684 
   30400 0.0078096148   -8.7602617   -8.7600522    19239.621   -19144.241    38288.211    38574.894 
   30500  0.010412614   -8.7602616   -8.7599823    19194.259   -19274.152    38429.201    38427.726 
   30600 0.0097446301   -8.7310694    -8.730808     19289.35   -19116.521    38423.634    38560.937 
   30700 0.0080382887    -8.731052   -8.7308364    19229.783   -19330.431    38581.852    38437.928 
   30800  0.009175575     -8.74572   -8.7454739    19305.307   -19012.993    38430.498    38498.417 
   30900 0.0089885007   -8.7165153   -8.7162742    19273.493   -19276.076    38589.255      38507.3 
   31000  0.011835835    -8.760399   -8.7600815    19230.503   -19146.554    38354.563      38483.5 
   31100  0.013433645   -8.7604194    -8.760059     19176.21   -19309.242    38422.249    38415.622 
   31200  0.015660061   -8.7459078   -8.7454877    19227.231   -19253.532    38429.257    38505.969 
   31300  0.012979778   -8.7311339   -8.7307857    19279.022   -19149.609    38577.852    38408.822 
   31400  0.015959864   -8.7604499   -8.7600217    19162.931   -19354.208    38492.085    38350.915 
   31500  0.011201785   -8.7603621   -8.7600615    19205.731   -19202.102    38495.153    38324.141 
   31600 0.0084014789   -8.7457101   -8.7454847    19161.645   -19414.535    38488.429    38411.043 
   31700 0.0086421366   -8.7164584   -8.7162266      19284.3   -19206.504    38506.636    38552.769 
   31800  0.012212164   -8.7311245   -8.7307969    19179.559   -19443.969    38498.195     38484.45 
   31900  0.014042123   -8.7457665   -8.7453898    19211.436   -19248.022    38324.929    38557.402 
   32000  0.011657183   -8.7310541   -8.7307414    19216.154   -19331.761     38415.44    38564.782 
   32100  0.014742486   -8.7310826   -8.7306871    19270.575    -19183.31    38426.118    38568.917 
   32200  0.010836256   -8.7455517    -8.745261    19233.067   -19226.372     38508.62    38416.952 
   32300  0.010654785   -8.7601815   -8.7598957     19167.51    -19333.61    38505.015    38331.124 
   32400  0.021558316   -8.7165843    -8.716006    19249.754    -19289.21    38561.161    38477.312 
   32500  0.014799359   -8.7602117   -8.7598146    19176.817   -19314.308    38495.156    38349.602 
   32600   0.01305083   -8.7017313   -8.7013812    19326.999   -19176.313    38585.345    38571.966 
   32700  0.016827606   -8.7457415   -8.7452901    19217.146   -19254.527    38412.167    38493.799 
   32800  0.010657082   -8.7310493   -8.7307634    19198.781   -19374.294    38496.291    38474.346 
   32900  0.010155063   -8.7310362   -8.7307637     19228.69   -19280.312    38491.303    38475.078 
   33000  0.012598313   -8.7750369   -8.7746989     19159.49   -19286.226    38495.744    38268.951 
   33100  0.012296922   -8.7896716   -8.7893417    19141.155   -19275.448    38437.868    38261.046 
   33200  0.011162229   -8.7896611   -8.7893616    19128.429   -19278.312     38253.63     38409.97 
   33300  0.010136938    -8.716578   -8.7163061    19245.057   -19308.811      38563.5    38480.482 
   33400 0.0087288646   -8.7750271   -8.7747929    19141.094   -19325.224    38336.146    38412.361 
   33500  0.007251692    -8.789656   -8.7894615     19147.45   -19244.427    38348.954    38337.823 
   33600  0.010666392   -8.7751543   -8.7748681    19135.974   -19350.125    38346.848      38411.2 
   33700 0.0081173146   -8.7604329   -8.7602151    19145.878   -19367.223    38332.216    38472.642 
   33800 0.0080623887   -8.7750362   -8.7748199    19149.225   -19292.794    38336.096    38404.374 
   33900 0.0094312788   -8.7311913   -8.7309382    19208.672   -19369.614    38572.672    38422.958 
   34000   0.01219044   -8.7459015   -8.7455745     19254.39   -19161.005     38584.04    38340.136 
   34100  0.010100513   -8.7165757   -8.7163047    19252.195   -19310.808    38578.571    38488.822 
   34200   0.01137653   -8.7604343   -8.7601291    19192.905   -19239.979    38339.703     38478.99 
   34300  0.008309972   -8.7603069    -8.760084    19182.061   -19305.319    38347.584    38503.918 
   34400  0.011803726   -8.7749975   -8.7746809    19226.575   -19098.216    38357.791    38420.152 
   34500 0.0089944266   -8.7457701   -8.7455288    19217.962   -19277.089    38502.859    38428.117 
   34600  0.013149671    -8.760447   -8.7600942    19227.428   -19154.914     38583.05    38254.147 
   34700 0.0090298306   -8.7604128   -8.7601705    19219.014   -19204.357    38430.326    38431.074 
   34800 0.0081147095   -8.7603133   -8.7600956    19208.002   -19235.741    38438.066     38421.68 
   34900  0.012533474   -8.7604514   -8.7601152    19232.366   -19142.924    38266.255    38573.766 
   35000  0.012418744   -8.7750392   -8.7747061    19125.449   -19374.653    38416.045    38334.956 
   35100  0.015626997   -8.7312678   -8.7308486    19263.621   -19195.949    38500.796    38486.015 
   35200  0.013119478   -8.7750455   -8.7746936    19112.911   -19414.259    38412.567    38340.425 
   35300 0.0090730397   -8.7458022   -8.7455588    19204.616   -19274.379    38568.328    38319.898 
   35400  0.006671259   -8.7311133   -8.7309344     19179.67    -19431.62    38484.998    38485.632 
   35500 0.0070418835   -8.7457106   -8.7455216    19220.965   -19229.173    38414.379    38477.689 
   35600 0.0096284335   -8.7311116   -8.7308533    19210.659   -19368.673    38499.364    38501.285 
   35700  0.014180455   -8.7312504     -8.73087    19249.454    -19235.62    38421.762    38562.219 
   35800  0.016649131   -8.7312493   -8.7308027    19202.057   -19361.096    38409.316    38557.951 
   35900  0.016028224   -8.7458466   -8.7454166    19231.138   -19224.324    38580.561    38337.177 
   36000 0.0099391569   -8.7165185   -8.7162519    19325.119   -19131.163    38524.194    38582.324 
   36100  0.010689139   -8.7165328    -8.716246    19293.603   -19218.763    38587.696    38511.874 
   36200 0.0099491223   -8.7311707   -8.7309038    19287.315   -19122.316    38420.765    38563.497 
   36300 0.0062006847   -8.7311314    -8.730965    19201.078   -19376.588     38487.12    38492.701 
   36400  0.011657554   -8.7166196   -8.7163069    19280.572   -19204.005    38565.879    38479.841 
   36500 0.0081656166   -8.7750463   -8.7748272    19148.324   -19329.801    38428.499    38346.273 
   36600 0.0078178663   -8.7604472   -8.7602374    19191.005   -19274.555    38435.374    38412.197 
   36700  0.007491429   -8.7605082   -8.7603073    19152.101   -19358.444    38333.514    38481.234 
   36800 0.0048539458   -8.7165967   -8.7164665    19220.062   -19380.337    38483.022    38557.499 
   36900 0.0061241524   -8.7604979   -8.7603336    19182.026   -19281.003    38420.261    38406.821 
   37000  0.004336884    -8.745824   -8.7457077    19205.879   -19304.866    38423.353    38499.149 
   37100 0.0071408334   -8.7751351   -8.7749436    19146.328   -19307.523     38425.29    38321.218 
   37200 0.0073052656   -8.7605106   -8.7603146    19166.668   -19321.542    38405.445    38416.102 
   37300 0.0081806302    -8.702068   -8.7018486    19262.529   -19337.525    38570.456    38554.655 
   37400 0.0066132017   -8.7605031   -8.7603257    19213.929    -19195.67    38501.975    38335.482 
   37500 0.0074614133   -8.7604986   -8.7602984    19192.766   -19285.757    38510.974    38353.081 
   37600  0.010307577   -8.7020732   -8.7017967    19288.077   -19271.467    38575.603    38560.095 
   37700  0.012484777     -8.76056   -8.7602251    19166.956   -19314.031    38405.355    38409.545 
   37800 0.0067617108    -8.760423   -8.7602416    19177.256   -19302.549    38425.048    38409.271 
   37900 0.0051306861   -8.7896324   -8.7894948    19173.413   -19176.413    38348.881    38347.771 
   38000 0.0048351741   -8.7750609   -8.7749312      19173.7   -19249.615    38279.222    38491.494 
   38100 0.0078488728   -8.7312061   -8.7309955    19264.769   -19203.547    38496.109    38501.746 
   38200 0.0091668643   -8.7605129    -8.760267    19169.065   -19313.998    38495.364    38325.829 
   38300 0.0066280304   -8.7312239    -8.731046    19244.268    -19250.42    38572.662    38410.563 
   38400 0.0072641784      -8.7312   -8.7310051     19267.33   -19191.861    38499.793    38494.057 
   38500 0.0056087444   -8.7749521   -8.7748017    19174.078   -19251.304    38510.744    38262.795 
   38600 0.0080956779   -8.7604554   -8.7602382    19204.931   -19231.167    38341.372    38504.587 
   38700 0.0071394907   -8.7751147   -8.7749231    19185.675   -19210.239    38509.351    38257.912 
   38800 0.0073054262   -8.7459221   -8.7457262    19201.547   -19321.554    38353.258    38572.937 
   38900  0.012239707   -8.7459339   -8.7456055    19255.829   -19138.915    38418.051     38488.35 
   39000 0.0073748691   -8.7165214   -8.7163235      19250.8   -19317.769    38497.175    38572.995 
   39100 0.0095332901   -8.7458271   -8.7455714    19231.441   -19222.835    38420.613    38496.545 
   39200 0.0066026511   -8.7603974   -8.7602203    19177.788   -19298.214    38426.497     38405.08 
   39300 0.0086324737   -8.7604496    -8.760218    19167.313   -19322.609    38336.121    38488.427 
   39400 0.0062135704   -8.7165084   -8.7163417    19236.427   -19330.742     38567.13    38472.894 
   39500 0.0066660478   -8.7311243   -8.7309455    19217.289   -19322.571    38485.338    38489.099 
   39600  0.011854481   -8.7165545   -8.7162365    19297.653   -19190.698    38588.815    38494.842 
   39700   0.01307816   -8.7020183   -8.7016675    19281.523   -19313.379     38579.51    38578.437 
   39800  0.012781639   -8.7459092   -8.7455663    19227.032    -19212.72    38493.695    38400.122 
   39900 0.0078060742    -8.774994   -8.7747846    19105.701   -19426.256    38408.637    38334.723 
   40000 0.0094528865   -8.7750671   -8.7748135    19189.546   -19188.461    38348.739     38408.36 
   40100 0.0077038238   -8.7604326    -8.760226    19224.247   -19193.752    38359.661    38506.832 
   40200 0.0080684093   -8.7458242   -8.7456077     19233.46   -19223.894    38425.525     38498.75 
   40300  0.011664037   -8.7020218   -8.7017089    19312.821   -19209.411    38578.123     38569.75 
   40400  0.011654193   -8.7604682   -8.7601555    19171.861   -19318.988    38419.893    38414.678 
   40500   0.01415478   -8.7458809   -8.7455011    19244.066   -19186.852    38423.162    38495.887 
   40600 0.0087846457   -8.7603675   -8.7601319    19196.264   -19262.774    38359.841    38491.725 
   40700   0.01011483   -8.7310851   -8.7308138    19254.737    -19224.98    38495.884    38493.307 
   40800  0.011262672   -8.7164845   -8.7161824    19252.901   -19296.075    38492.996    38561.783 
   40900  0.013914143   -8.7458156   -8.7454423    19199.444   -19303.638    38488.765    38413.205 
   41000  0.012582369   -8.7458064   -8.7454689    19183.962   -19351.322    38487.019    38416.188 
   41100 0.0093549221   -8.7457167   -8.7454657    19193.598   -19312.063    38496.101    38396.755 
   41200  0.010441685    -8.731141   -8.7308609     19216.31   -19330.399    38489.333    38489.997 
   41300  0.012559848   -8.7603635   -8.7600266    19160.765   -19335.903    38418.611    38399.588 
   41400  0.012572869   -8.8335079   -8.8331706    19075.695   -19220.026    38263.178    38183.933 
   41500  0.010767631   -8.7458028    -8.745514    19189.438   -19347.741     38424.26    38491.796 
   41600  0.014105569   -8.8043776   -8.8039992    19118.758    -19237.75    38185.556    38408.469 
   41700 0.0072853952    -8.716484   -8.7162885    19256.299   -19307.105    38504.272    38571.731 
   41800   0.01135228   -8.7311879   -8.7308833    19241.185   -19263.818    38506.739    38480.634 
   41900 0.0087601375   -8.7311556   -8.7309206    19229.038   -19297.846    38489.925    38495.034 
   42000  0.011700479   -8.7166415   -8.7163276    19252.625   -19298.206    38574.911    38481.171 
   42100  0.011344215   -8.7312348   -8.7309305    19239.395   -19270.727    38418.418    38570.495 
   42200  0.010796418   -8.7604012   -8.7601116    19199.905   -19245.051    38347.793    38496.973 
   42300  0.010952909   -8.7750214   -8.7747276    19132.103   -19358.117    38353.393    38401.035 
   42400 0.0098618585   -8.7457332   -8.7454686     19227.66   -19219.249    38332.421    38569.808 
   42500   0.01503644   -8.7312139   -8.7308105    19217.405   -19337.586    38500.764    38489.038 
   42600  0.012703228   -8.7311274   -8.7307866     19251.17   -19231.267    38567.188    38417.589 
   42700   0.01548868   -8.7897399   -8.7893244    19155.237   -19223.614    38272.652    38416.675 
   42800  0.012716038    -8.745825   -8.7454839    19201.418   -19316.911    38428.762    38492.404 
   42900  0.014213747   -8.7604808   -8.7600995    19208.967   -19194.187    38412.785    38408.303 
   43000  0.011508279   -8.7604105   -8.7601018    19145.741   -19403.942    38269.481    38571.683 
   43100 0.0074907929    -8.745759    -8.745558    19258.625   -19138.741     38427.35    38487.268 
   43200 0.0074385625   -8.7457292   -8.7455297    19194.323   -19326.692    38569.599     38340.06 
   43300 0.0099432679    -8.760417   -8.7601502    19201.974   -19228.684    38419.779    38414.827 
   43400  0.010180866    -8.701929   -8.7016559    19310.575   -19218.267    38586.783    38563.209 
   43500  0.009535302   -8.7165288    -8.716273    19248.336   -19327.167     38496.67    38575.506 
   43600  0.011168434   -8.7458185   -8.7455188    19257.902   -19136.556    38354.302    38555.961 
   43700 0.0074169833   -8.7750368   -8.7748378    19126.933    -19377.21    38337.586    38420.424 
   43800 0.0084984921   -8.7750564   -8.7748284    19234.146   -19054.899    38196.874    38560.462 
   43900 0.0070738833   -8.7311857    -8.730996    19235.392   -19320.077    38511.491    38514.763 
   44000 0.0075120981    -8.760478   -8.7602764    19258.787   -19082.261    38438.689    38419.933 
   44100 0.0077966384   -8.7605266   -8.7603174    19170.168   -19332.062    38347.309    38495.257 
   44200  0.010834096   -8.7605811   -8.7602905    19199.645    -19231.16    38498.262    38331.832 
   44300  0.007584032   -8.7605235   -8.7603201    19227.082   -19167.684    38422.934    38425.997 
   44400 0.0074593743   -8.7166765   -8.7164764      19253.4   -19317.998    38580.303    38497.894 
   44500 0.0080529233   -8.7605185   -8.7603024    19234.142   -19138.146    38431.558    38409.014 
   44600 0.0074840463    -8.760493   -8.7602922    19131.277   -19430.694    38569.336    38255.188 
   44700 0.0089944969   -8.7312825   -8.7310412    19250.999   -19218.592    38491.226    38480.362 
   44800 0.0071880356   -8.7604474   -8.7602546    19162.598   -19357.672    38425.896    38419.569 
   44900 0.0070436272   -8.7311849    -8.730996    19258.414    -19198.39    38490.767    38482.864 
   45000  0.008650042   -8.7750158   -8.7747837    19146.392   -19321.493     38499.16    38261.509 
   45100 0.0084745003   -8.7457783    -8.745551    19210.192   -19275.746    38419.131    38487.191 
   45200 0.0074815824   -8.7750375   -8.7748368     19196.41   -19185.164    38347.914     38426.48 
   45300  0.010724869   -8.7312228   -8.7309351    19250.569   -19260.386    38516.811    38495.281 
   45400 0.0094821918   -8.7166095   -8.7163551    19282.168   -19210.012    38490.362    38566.155 
   45500 0.0090386416   -8.7165492   -8.7163067    19274.446   -19247.596    38500.338    38570.597 
   45600 0.0058229035   -8.7457413    -8.745585     19222.03   -19251.643    38579.154    38338.579 
   45700 0.0093560763   -8.7457594   -8.7455084    19212.129   -19280.398    38495.078    38421.706 
   45800 0.0088876896   -8.7457341   -8.7454957    19203.273   -19292.281    38508.123    38393.978 
   45900 0.0095263907   -8.7457959   -8.7455403    19209.573   -19281.229    38413.656    38496.292 
   46000 0.0059682589   -8.7603639   -8.7602038    19176.511   -19307.679    38350.092    38487.121 
   46100  0.010064676   -8.7166206   -8.7163505    19270.477   -19254.148    38491.756    38573.824 
   46200 0.0099199909   -8.7166709   -8.7164047    19239.507    -19337.42    38574.651     38481.29 
   46300  0.012549543   -8.7313072   -8.7309705    19217.693   -19329.482    38498.647    38483.912 
   46400  0.010704765   -8.7750946   -8.7748074    19175.369   -19239.797    38267.055    38498.848 
   46500  0.010569815   -8.7165954   -8.7163118    19282.488   -19233.864    38512.554    38568.773 
   46600 0.0088587395   -8.7311815   -8.7309438    19238.495   -19280.562    38574.041    38422.006 
   46700 0.0087362593   -8.7312175   -8.7309831    19244.778   -19241.204    38494.801    38480.736 
   46800 0.0077686031   -8.7312248   -8.7310164     19197.54   -19374.653    38563.392     38403.88 
   46900 0.0076384757   -8.7312556   -8.7310507    19223.708   -19299.274    38485.898    38484.499 
   47000  0.010294558   -8.7458562     -8.74558    19182.384   -19361.899    38422.886    38486.165 
   47100  0.006923112   -8.7165459   -8.7163602    19253.528   -19296.862    38495.913    38561.533 
   47200 0.0090424147   -8.7458476    -8.745605    19210.496   -19268.504    38410.511     38489.48 
   47300 0.0086050918   -8.7458983   -8.7456674    19186.411   -19337.172    38489.563    38406.842 
   47400  0.010938908    -8.760516   -8.7602225    19201.793   -19230.013    38498.985    38336.408 
   47500 0.0094202638   -8.7458508   -8.7455981    19212.231    -19290.69     38506.54    38420.844 
   47600 0.0089402284   -8.7457665   -8.7455267    19245.589   -19176.453    38498.189    38415.031 
   47700 0.0065315119   -8.7164793   -8.7163041     19253.87   -19308.816    38499.583    38570.842 
   47800 0.0088177804   -8.7603918   -8.7601552     19245.24   -19103.897    38419.523    38420.092 
   47900 0.0090207035   -8.7165251   -8.7162831    19272.327   -19269.757    38514.861    38571.877 
   48000  0.011533579   -8.7312149   -8.7309055    19283.593   -19152.294     38505.49    38497.582 
   48100 0.0095384958   -8.7604211   -8.7601652    19203.508   -19227.078    38500.541    38337.061 
   48200  0.011318116   -8.7604049   -8.7601012     19192.78   -19279.267    38506.097     38351.51 
   48300  0.013443106   -8.7313164   -8.7309558    19287.403   -19135.299    38502.282    38495.226 
   48400 0.0070752425   -8.7458225   -8.7456327    19180.674   -19376.834    38506.203    38412.653 
   48500  0.008491887   -8.7312344   -8.7310066    19273.236   -19176.129    38575.562    38420.275 
   48600 0.0066902793    -8.745769   -8.7455895    19161.385   -19408.753    38413.031    38479.876 
   48700  0.010836127   -8.7166579   -8.7163672    19272.319   -19238.272    38565.742    38489.487 
   48800  0.010076844   -8.7458956   -8.7456252     19184.37   -19349.815    38416.941    38485.982 
   48900 0.0085028001   -8.7751168   -8.7748887    19162.896   -19259.643    38343.712    38404.619 
   49000 0.0090136803   -8.7750753   -8.7748335    19170.249   -19257.708    38265.036    38503.419 
   49100 0.0095714162   -8.7751108    -8.774854    19159.307    -19288.58    38505.614    38260.886 
   49200  0.010700582   -8.7459055   -8.7456184    19228.855   -19222.206    38572.656    38336.114 
   49300 0.0057200212   -8.7165798   -8.7164264      19263.3   -19296.172    38509.644    38576.429 
   49400 0.0061215656   -8.7604415   -8.7602773    19217.452   -19192.761    38357.713    38487.403 
   49500 0.0048751767   -8.7166055   -8.7164747    19237.739   -19345.096    38485.725    38572.589 
   49600 0.0066481306   -8.7459278   -8.7457495    19201.047   -19286.765    38412.001    38477.905 
   49700 0.0046935451   -8.7166085   -8.7164826    19252.104   -19310.179    38575.761    38490.729 
   49800 0.0082021342   -8.7312589   -8.7310389     19248.17   -19237.066    38496.697     38484.88 
   49900 0.0065703534   -8.7166505   -8.7164742    19266.856   -19271.845    38573.306    38499.106 
   50000 0.0094021435   -8.7313283    -8.731076    19212.903   -19342.486    38495.405    38485.791 
   50100 0.0057529199   -8.7897497   -8.7895954    19129.326   -19283.947    38259.268    38412.657 
   50200 0.0053386068   -8.7604416   -8.7602984    19174.233   -19308.515    38427.834    38403.381 
   50300 0.0065329237   -8.7604774   -8.7603022    19182.192   -19293.028    38422.188    38417.416 
   50400 0.0074220651   -8.7605299   -8.7603308    19182.454   -19284.058    38494.059    38337.361 
   50500 0.0071282117   -8.7166731   -8.7164819    19266.543   -19269.354    38507.859    38561.124 
   50600  0.011483632   -8.7605703   -8.7602623     19172.34   -19314.839     38337.84     38494.02 
   50700 0.0075142781    -8.731238   -8.7310364     19246.53   -19231.456    38569.693    38401.353 
   50800 0.0091162163    -8.775071   -8.7748264    19152.603   -19323.349    38353.009     38428.15 
   50900 0.0085196318   -8.7750312   -8.7748027    19185.225   -19193.936    38343.677    38405.934 
   51000 0.0097155549   -8.7458439   -8.7455832    19184.876   -19362.171    38347.054    38569.745 
   51100  0.010732814   -8.7311967   -8.7309088    19238.232   -19276.039    38509.143    38481.591 
   51200  0.010355294   -8.7750666   -8.7747888    19193.048   -19186.099    38336.403     38428.84 
   51300  0.011677971   -8.7312412   -8.7309279    19225.902   -19320.394    38586.275    38411.827 
   51400 0.0091575172   -8.7604514   -8.7602058    19205.923   -19207.044    38410.605    38414.208 
   51500 0.0061884225   -8.7458036   -8.7456376    19159.632   -19422.613    38494.971    38406.538 
   51600  0.007664268   -8.7019304   -8.7017247    19331.541   -19146.566    38581.521    38559.667 
   51700 0.0064612792   -8.7165583    -8.716385    19228.127   -19377.099    38561.023    38500.455 
   51800 0.0071692938   -8.7458376   -8.7456452    19221.594   -19238.246    38503.051    38399.975 
   51900  0.007720489   -8.7311938   -8.7309867     19224.27   -19305.685    38485.927    38492.569 
   52000 0.0070375856   -8.7312149   -8.7310261     19229.19   -19292.644    38498.645    38481.569 
   52100  0.011848088   -8.7605668    -8.760249    19197.995   -19253.536    38501.228    38346.291 
   52200 0.0085757299   -8.7019395   -8.7017094     19299.13   -19253.535    38579.285     38571.64 
   52300 0.0088478149   -8.7604667   -8.7602293    19197.589   -19248.466    38506.801    38334.432 
   52400 0.0073618101     -8.71653   -8.7163325    19268.816   -19267.727    38501.033    38573.142 
   52500  0.010658136   -8.7604581   -8.7601722    19182.738   -19279.449    38421.769    38405.894 
   52600  0.010197959   -8.7604555   -8.7601819    19192.968   -19268.022    38493.178    38353.748 
   52700  0.010948382   -8.7604349   -8.7601411    19218.217   -19186.335    38507.458    38333.527 
   52800 0.0082369999   -8.7165085   -8.7162875    19244.963   -19331.403    38571.052     38495.24 
   52900 0.0084291903   -8.7311235   -8.7308974    19237.745    -19263.75    38574.875    38402.109 
   53000 0.0077826412   -8.7457164   -8.7455076    19178.206   -19364.787    38486.566     38412.84 
   53100   0.01163424    -8.731159   -8.7308468     19225.96   -19290.248    38489.867    38478.261 
   53200 0.0077147851   -8.7603541   -8.7601471    19198.347   -19257.631    38353.035    38499.636 
   53300 0.0099332455   -8.7604836   -8.7602172    19214.723   -19199.273     38350.39    38493.052 
   53400 0.0098663225   -8.7312524   -8.7309877    19240.875   -19272.422    38500.096    38494.952 
   53500 0.0080528866    -8.775052   -8.7748359    19152.775   -19301.404    38345.086    38414.641 
   53600  0.012606755   -8.8043278   -8.8039896    19092.478   -19307.424    38415.449    38169.409 
   53700 0.0082462808   -8.7749671   -8.7747459    19161.554   -19268.097    38498.137    38254.621 
   53800  0.010922422   -8.7750446   -8.7747516    19180.569   -19226.846     38349.51    38419.044 
   53900 0.0080989532    -8.760352   -8.7601347    19168.565   -19313.421     38406.19    38412.925 
   54000  0.013170467   -8.7312149   -8.7308616    19215.291   -19324.053    38413.969    38555.957 
   54100   0.01369586    -8.745824   -8.7454566    19193.341   -19323.927    38500.242    38403.707 
   54200  0.013251395   -8.7458134   -8.7454579    19205.864   -19284.875    38338.825    38563.641 
   54300  0.011832709   -8.7604069   -8.7600894    19176.166   -19303.039    38496.013    38335.524 
   54400   0.00889592   -8.7164354   -8.7161967    19270.261   -19240.095    38485.832    38565.045 
   54500  0.016169116   -8.7311813   -8.7307475    19251.194   -19247.925    38507.596    38493.912 
   54600  0.010649673   -8.7603539   -8.7600682     19164.77   -19334.631    38272.144    38556.798 
   54700  0.013760921    -8.745829   -8.7454598    19217.998   -19253.803    38494.844    38412.954 
   54800  0.012311073   -8.8042435   -8.8039133    19089.011   -19329.203    38264.593    38331.643 
   54900  0.010516089   -8.7456937   -8.7454116    19212.285   -19260.235    38484.484    38412.605 
   55000 0.0095151207    -8.745671   -8.7454157    19210.313    -19266.48    38493.999    38403.421 
   55100  0.010064089   -8.7164764   -8.7162064    19208.247   -19424.556    38567.756     38481.54 
   55200 0.0097160811   -8.7310959   -8.7308352    19245.073   -19243.403    38418.012    38560.609 
   55300 0.0092736456   -8.7750089   -8.7747601    19127.953   -19378.991    38351.285    38411.566 
   55400  0.012749573   -8.7312227   -8.7308806    19246.242   -19243.254    38572.439     38409.54 
   55500  0.011693698   -8.8189664   -8.8186527    19103.816   -19230.055    38354.685    38186.817 
   55600  0.011134502   -8.7603942   -8.7600955    19202.846   -19232.811    38343.391    38497.957 
   55700  0.012249579   -8.7457822   -8.7454536    19233.921   -19212.099    38497.124    38416.737 
   55800  0.010156096   -8.7604028   -8.7601304    19206.225   -19235.024    38433.096    38420.604 
   55900 0.0097529939   -8.7896051   -8.7893434    19194.579   -19123.366     38285.28    38421.824 
   56000  0.012944494   -8.7603686   -8.7600213    19218.803   -19206.095    38436.423     38426.08 
   56100  0.012374284   -8.7311374   -8.7308054    19238.433   -19256.085    38411.161    38560.224 
   56200  0.010039009    -8.760327   -8.7600577    19171.603   -19313.315    38485.877    38342.248 
   56300  0.011547352   -8.7311316   -8.7308219    19240.578   -19263.133    38499.921    38484.945 
   56400 0.0090434813   -8.7750084   -8.7747658    19184.646   -19217.338     38502.82    38268.455 
   56500 0.0098452105   -8.7311644   -8.7309002    19251.931   -19250.007    38509.118     38496.68 
   56600  0.011186734   -8.7896823   -8.7893822    19136.748   -19266.027    38416.279    38259.993 
   56700  0.013535679   -8.7605234   -8.7601603    19166.062   -19324.928    38491.345    38331.768 
   56800 0.0086117264   -8.7458307   -8.7455997    19216.678   -19260.311    38501.828    38408.518 
   56900  0.010028423   -8.7604268   -8.7601578    19198.727   -19242.331    38493.354    38345.159 
   57000 0.0095346984   -8.7165177   -8.7162619    19280.113   -19235.329    38580.853    38494.817 
   57100  0.015842863   -8.7312695   -8.7308445    19219.822   -19305.578    38409.946      38555.1 
   57200 0.0098600713   -8.7310987   -8.7308342    19174.316   -19441.548    38565.041    38399.454 
   57300  0.012867961    -8.716571   -8.7162258    19242.716   -19319.388    38575.328    38472.209 
   57400   0.01171562   -8.7603443     -8.76003    19198.032   -19256.756    38492.841     38358.01 
   57500  0.012632686   -8.7602719    -8.759933     19198.58   -19250.438    38586.751    38259.428 
   57600  0.015371861   -8.7311732   -8.7307609    19228.526   -19285.499    38483.372    38487.705 
   57700  0.012510237   -8.7457847    -8.745449    19179.544   -19354.897    38421.193    38472.335 
   57800  0.010601965   -8.7019247   -8.7016403    19270.725   -19333.246    38573.451    38571.971 
   57900   0.01807191   -8.7605054   -8.7600206    19180.533   -19290.799    38418.966    38413.431 
   58000  0.012258937   -8.7457888   -8.7454599    19211.707   -19275.666     38425.71    38485.077 
   58100 0.0099422249   -8.7311127    -8.730846    19250.103   -19238.257    38415.458    38573.107 
   58200  0.011172461    -8.731125   -8.7308253     19229.83   -19298.451    38500.425    38487.516 
   58300  0.011510975   -8.7457792   -8.7454704    19225.165   -19239.189    38490.068    38424.615 
   58400  0.010652386   -8.7750785   -8.7747927    19140.954   -19333.312    38353.827    38402.346 
   58500  0.012838795   -8.7312332   -8.7308887     19246.26   -19253.186    38577.912    38414.055 
   58600  0.013608336   -8.7458864   -8.7455213    19234.066   -19218.384    38426.059    38494.523 
   58700  0.010788597   -8.7457894      -8.7455    19247.894   -19190.545    38577.996    38356.229 
   58800    0.0101311   -8.7457826   -8.7455108     19250.95   -19164.431    38497.368    38419.912 
   58900 0.0079798264   -8.7311262   -8.7309121    19227.295   -19306.706    38426.552    38562.038 
   59000 0.0063629652   -8.7895048   -8.7893341    19182.134   -19162.811    38358.642     38350.57 
   59100  0.011509804   -8.7604563   -8.7601475    19188.411   -19282.984    38357.219    38490.999 
   59200  0.011999384   -8.7311578   -8.7308359    19242.102   -19267.533     38494.67    38499.168 
   59300  0.013536406    -8.745827   -8.7454638     19236.54   -19193.827     38421.03    38482.417 
   59400  0.009739897   -8.7164413     -8.71618    19222.028   -19390.042    38564.216    38491.911 
   59500  0.013997432   -8.7458375    -8.745462    19264.811   -19120.732    38428.105    38487.059 
   59600  0.010049212   -8.7456918   -8.7454222    19182.656   -19382.022    38507.485    38422.504 
   59700  0.015864283   -8.7604998   -8.7600742    19205.629   -19206.401    38336.109    38487.179 
   59800  0.011508028   -8.7750154   -8.7747067    19126.318   -19372.869    38496.912    38254.911 
   59900  0.010727983   -8.7311095   -8.7308217    19242.424   -19244.635    38409.925    38561.982 
   60000  0.010495288   -8.7749472   -8.7746656     19149.45   -19306.412    38345.029    38409.732 
   60100  0.011856185   -8.7604085   -8.7600905    19181.924   -19296.317    38265.883    38576.207 
   60200  0.012950255   -8.7166458   -8.7162984    19275.202   -19228.434    38497.388    38556.654 
   60300  0.011666083   -8.8188994   -8.8185865    19061.843   -19355.455    38352.166     38188.82 
   60400  0.011493221   -8.7311767   -8.7308684    19296.756   -19100.767    38573.136    38417.899 
   60500 0.0066892393   -8.7457157   -8.7455362    19194.096   -19340.344    38581.384    38341.247 
   60600   0.00584083   -8.7895519   -8.7893952    19174.835   -19163.478    38352.468    38335.516 
   60700 0.0065956277   -8.8041717   -8.8039948    19062.614   -19399.827    38334.522    38253.147 
   60800   0.01035094     -8.77507   -8.7747924    19178.419   -19222.805    38499.484    38258.578 
   60900  0.011599322   -8.7604491    -8.760138    19181.881   -19308.641    38428.765    38425.519 
   61000  0.010759338   -8.7897262   -8.7894375     19144.21   -19252.385    38273.589    38411.428 
   61100 0.0081321746   -8.7749851   -8.7747669    19131.192   -19346.353    38337.822    38402.106 
   61200 0.0089464941   -8.7311861   -8.7309461    19229.468   -19285.808    38483.841    38490.369 
   61300  0.012206698   -8.7458459   -8.7455184    19227.604   -19244.789    38510.215    38417.385 
   61400  0.011572609   -8.7750901   -8.7747796    19176.073   -19245.107    38419.586    38353.739 
   61500 0.0076617494   -8.7896327   -8.7894272    19154.257   -19212.473    38270.819    38404.425 
   61600 0.0090555351    -8.804239   -8.8039961     19120.09   -19253.455    38192.616    38421.108 
   61700 0.0097830641   -8.7457281   -8.7454657    19230.137   -19221.065    38496.589    38414.888 
   61800   0.01598958   -8.7458048   -8.7453758    19245.828   -19192.174    38432.669    38496.988 
   61900  0.011136776   -8.7311355   -8.7308367    19259.019    -19218.25    38497.176     38498.13 
   62000   0.01203713   -8.7603571   -8.7600341    19192.365   -19243.166     38416.45    38403.811 
   62100  0.015324677   -8.7603961    -8.759985    19201.757    -19247.46    38351.694    38501.037 
   62200  0.017639837   -8.7458256   -8.7453524    19225.993   -19246.776    38505.252    38419.504 
   62300  0.013684761   -8.7165991    -8.716232    19275.094   -19250.041    38576.416    38498.907 
   62400 0.0093584334   -8.7749007   -8.7746496    19160.041   -19266.665    38421.432    38325.355 
   62500 0.0055759218   -8.7747717   -8.7746221     19130.46   -19355.631     38333.44    38413.571 
   62600  0.009270688   -8.7311134   -8.7308646    19241.506   -19244.444    38489.942    38479.021 
   62700  0.015915473   -8.7604783   -8.7600513    19185.397   -19289.869    38418.863    38427.197 
   62800  0.012850005   -8.7604821   -8.7601374    19204.155   -19231.888    38438.187    38406.166 
   62900  0.011857157   -8.7750931    -8.774775    19156.302   -19302.042    38348.824    38422.125 
   63000  0.010498113   -8.7604589   -8.7601773    19205.827   -19209.388    38419.015    38407.854 
   63100  0.011740052   -8.7604153   -8.7601004    19190.491   -19260.791    38341.552    38490.712 
   63200 0.0085172518   -8.8041202   -8.8038917    19155.939   -19165.093    38200.289     38432.62 
   63300  0.011529997   -8.7895885   -8.7892792    19175.117   -19171.003    38434.716    38261.637 
   63400   0.01309198   -8.7603944   -8.7600432    19181.685   -19306.187    38496.344    38354.898 
   63500  0.014495781    -8.731227   -8.7308382    19226.694   -19279.955     38495.23    38464.805 
   63600  0.011113994   -8.7604093   -8.7601111    19120.208   -19449.368    38480.602    38329.391 
   63700 0.0097590343   -8.7603882   -8.7601264    19196.251   -19238.734    38423.058     38404.43 
   63800 0.0091789226   -8.7456974   -8.7454511    19163.849   -19421.596    38417.928    38495.215 
   63900  0.011769376   -8.7750395   -8.7747238    19175.889    -19220.85    38414.312    38334.206 
   64000 0.0080036315   -8.7894872   -8.7892725    19069.575   -19448.293    38339.635    38317.384 
   64100  0.013204865   -8.7311346   -8.7307803    19251.463   -19223.027    38490.792    38486.624 
   64200   0.01343477   -8.7458453   -8.7454848    19211.341   -19296.583    38507.399    38423.207 
   64300  0.013958742    -8.745845   -8.7454705    19186.641   -19337.848    38495.588    38402.182 
   64400    0.0118006    -8.716605   -8.7162885    19263.333    -19257.66    38482.641    38565.019 
   64500  0.010663701   -8.7896654   -8.7893793    19094.043   -19396.375    38197.661    38480.843 
   64600  0.007934187   -8.7604014   -8.7601886    19240.621    -19114.14    38567.285    38268.717 
   64700 0.0096390226   -8.7604574   -8.7601988    19176.403   -19324.497    38354.874    38498.833 
   64800  0.010955392   -8.7897079    -8.789414    19149.677   -19227.626    38345.803    38330.854 
   64900 0.0087755358   -8.7311453   -8.7309099    19247.879   -19242.908    38494.356    38492.189 
   65000 0.0096508886   -8.7603345   -8.7600755    19174.278   -19332.467    38517.522    38337.778 
   65100  0.011389677   -8.7311293   -8.7308237    19265.129   -19181.988    38567.138    38410.238 
   65200  0.014105705   -8.7750641   -8.7746857    19147.988   -19326.766    38428.987    38341.742 
   65300  0.013170385    -8.760452   -8.7600987    19231.925   -19154.158    38356.576    38493.356 
   65400  0.010063235   -8.7604573   -8.7601874    19202.984   -19237.067    38419.089    38426.929 
   65500 0.0050040212    -8.731125   -8.7309908    19238.212   -19293.948     38510.12    38498.463 
   65600 0.0051833106   -8.7457331    -8.745594    19216.316   -19242.279    38560.685     38330.54 
   65700 0.0091630383   -8.7896941   -8.7894483    19101.241   -19375.184    38421.284    38257.624 
   65800  0.010521271   -8.7458523   -8.7455701    19229.532   -19223.636    38353.076    38559.157 
   65900  0.012282979   -8.7458195     -8.74549    19219.673    -19269.72    38501.288    38427.451 
   66000 0.0090293284   -8.7457829   -8.7455406    19215.333   -19279.662    38509.622     38416.04 
   66100 0.0079786392   -8.7019802   -8.7017662    19260.481   -19325.133    38550.666    38555.912 
   66200  0.010179702   -8.7458923   -8.7456192    19168.468   -19383.158    38565.162    38323.399 
   66300 0.0093885614   -8.7604941   -8.7602423    19184.969    -19289.15     38429.18    38414.878 
   66400 0.0067915786   -8.7165865   -8.7164043    19258.962   -19285.969    38570.292    38492.563 
   66500 0.0076659447   -8.7458577   -8.7456521     19214.34    -19269.65    38504.056    38408.615 
   66600 0.0059697715   -8.7166457   -8.7164856    19246.843   -19318.773    38491.451    38567.852 
   66700 0.0083629412   -8.7897865   -8.7895621    19160.967   -19190.951    38341.943     38331.91 
   66800 0.0079546615   -8.7897923   -8.7895789    19148.906   -19263.301    38358.808    38351.211 
   66900 0.0050861387   -8.7312695   -8.7311331     19258.58   -19224.421    38504.808    38495.353 
   67000 0.0047779762   -8.7751304   -8.7750022    19176.475   -19237.015    38502.384    38264.057 
   67100 0.0052753387   -8.7897712   -8.7896297    19135.133   -19273.836    38423.444    38255.792 
   67200 0.0060528113   -8.7751741   -8.7750117    19189.928   -19198.379    38424.845    38343.317 
   67300 0.0045680265   -8.7458445   -8.7457219    19244.595   -19214.018    38595.574    38352.228 
   67400 0.0065543159   -8.7312577   -8.7310818     19301.06   -19097.591    38574.082    38426.691 
   67500 0.0072784223   -8.7459038   -8.7457086    19200.307   -19319.554     38425.21    38495.265 
   67600 0.0073522248   -8.7751406   -8.7749434    19187.867   -19188.657    38421.761    38330.498 
   67700 0.0055204726   -8.7459138   -8.7457657    19223.967   -19248.302    38575.538    38344.663 
   67800 0.0067554799   -8.7313464   -8.7311651    19270.623   -19191.294    38510.725    38492.438 
   67900 0.0063590558   -8.7313318   -8.7311612    19255.797   -19225.961    38417.781     38575.57 
   68000 0.0063315345   -8.7605777   -8.7604078    19152.075   -19367.605    38493.258    38330.571 
   68100 0.0080020345   -8.7605556    -8.760341     19194.88   -19230.282    38409.419    38405.505 
   68200 0.0069542814   -8.7166739   -8.7164873    19222.068   -19404.741    38503.045      38567.9 
   68300 0.0065402001   -8.7898036   -8.7896281    19144.553   -19240.566    38498.816    38175.407 
   68400 0.0065661241   -8.7459237   -8.7457476    19208.631   -19288.746    38570.552    38344.087 
   68500 0.0052950682   -8.7166679   -8.7165259    19258.731   -19289.173    38575.812    38489.555 
   68600 0.0031476459   -8.7897021   -8.7896177      19110.4   -19323.434    38326.266    38328.369 
   68700 0.0062200155   -8.7459308   -8.7457639    19186.989   -19344.927    38419.003     38486.89 
   68800 0.0054056563   -8.7312551   -8.7311101    19221.143   -19322.745    38502.882    38483.292 
   68900 0.0071671222   -8.7459181   -8.7457258     19187.58   -19344.296    38414.983    38492.052 
   69000 0.0067996996   -8.8043774    -8.804195    19124.386   -19233.863    38431.567    38175.455 
   69100 0.0073847761   -8.7751248   -8.7749266     19151.31   -19303.179    38412.785    38344.323 
   69200 0.0092309439   -8.7312799   -8.7310322    19206.552   -19344.517    38406.744     38557.43 
   69300 0.0074429662   -8.7459376   -8.7457379    19199.278   -19297.138    38419.631    38475.339 
   69400 0.0048031875   -8.7605015   -8.7603727    19166.077   -19337.253    38495.985    38339.499 
   69500 0.0060472274   -8.7897822   -8.7896199    19149.265   -19242.148    38279.247    38410.697 
   69600 0.0051080844     -8.76053    -8.760393    19151.977   -19371.422    38410.858    38416.496 
   69700 0.0052718834   -8.7605422   -8.7604007    19202.819     -19213.4    38488.997    38332.861 
   69800 0.0073775904   -8.8044039    -8.804206    19097.169   -19307.067    38194.496    38404.076 
   69900 0.0067664557   -8.7312763   -8.7310947     19244.24   -19257.275    38568.357    38421.637 
   70000 0.0060600368   -8.7166109   -8.7164483    19289.131   -19219.955    38591.598    38495.751 
   70100  0.010083032   -8.7459279   -8.7456574    19206.175   -19308.601    38506.015     38421.11 
   70200 0.0063700852   -8.7458516   -8.7456807    19236.956   -19188.221    38337.169    38561.919 
   70300 0.0075398779   -8.7458108   -8.7456085    19208.128   -19305.901    38512.388    38417.897 
   70400 0.0064396104   -8.7604078   -8.7602351    19240.255   -19130.369    38423.803    38427.332 
   70500 0.0075413339   -8.7311031   -8.7309008    19231.513   -19306.075    38508.147    38492.467 
   70600  0.015608133   -8.7604544   -8.7600357    19190.804   -19254.749    38413.162        38414 
   70700  0.012714978   -8.7457943   -8.7454532     19215.49   -19272.793    38430.626    38488.637 
   70800  0.014706514   -8.7312308   -8.7308362    19234.823   -19282.731    38500.049    38487.151 
   70900 0.0083596511   -8.7602937   -8.7600694    19206.012   -19210.931    38408.416    38420.551 
   71000  0.010364968   -8.7603361    -8.760058    19182.799   -19296.366    38508.986    38335.775 
   71100 0.0088822301   -8.7603719   -8.7601336    19195.367   -19239.361    38414.294    38411.167 
   71200    0.0105386   -8.7312162   -8.7309334    19214.686   -19335.233    38422.574    38556.716 
   71300   0.01231192   -8.7750904   -8.7747601    19139.383   -19336.431     38341.85    38412.731 
   71400  0.010234134    -8.775089   -8.7748145    19157.367   -19279.351    38412.937    38338.514 
   71500 0.0081150473   -8.7750409   -8.7748232    19147.026   -19312.488    38499.729    38253.837 
   71600 0.0044185611   -8.7603285     -8.76021    19188.125   -19264.506    38492.014    38336.866 
   71700   0.01118809   -8.7313226   -8.7310225     19229.92   -19294.481    38573.685    38410.556 
   71800 0.0092798653   -8.7751324   -8.7748835    19159.581   -19286.035    38346.801    38417.976 
   71900  0.010844112   -8.7751241   -8.7748332     19158.16   -19285.433    38504.576    38255.336 
   72000  0.011994031   -8.7458744   -8.7455527    19185.033   -19347.563    38340.779    38561.885 
   72100 0.0059936782   -8.7604575   -8.7602968    19187.128   -19258.918     38411.52    38408.783 
   72200  0.006440031   -8.7458232   -8.7456504    19204.721   -19294.871     38572.46    38336.575 
   72300  0.009010292   -8.7311979   -8.7309562    19243.024   -19264.201    38426.795    38566.479 
   72400 0.0081932438    -8.745814   -8.7455942    19192.553   -19331.989    38503.832    38405.817 
   72500  0.012016427   -8.7751911   -8.7748688     19157.67   -19289.557    38422.704    38339.863 
   72600 0.0080236855    -8.745864   -8.7456487    19202.383   -19294.099    38488.076     38413.17 
   72700  0.010417628   -8.7166705    -8.716391    19279.297   -19222.859    38569.495    38491.256 
   72800 0.0056463844     -8.77502   -8.7748685    19191.842   -19213.057     38440.45    38348.132 
   72900 0.0072798341   -8.7750726   -8.7748773    19197.272   -19178.404    38349.434    38420.786 
   73000 0.0067006641   -8.7750832   -8.7749035     19156.93    -19287.67    38343.199    38415.261 
   73100 0.0060366887   -8.7458577   -8.7456958    19215.043   -19253.888    38492.199    38406.817 
   73200 0.0070133574   -8.7458395   -8.7456514    19208.346   -19274.694    38409.731        38490 
   73300  0.011691979   -8.7458877   -8.7455741    19213.612   -19283.331    38514.875    38409.292 
   73400  0.007324202   -8.7166001   -8.7164036    19262.524   -19271.704    38489.682    38569.593 
   73500 0.0099545624   -8.7458821    -8.745615    19202.255   -19299.057    38496.063    38409.759 
   73600 0.0078420136   -8.7750945   -8.7748841     19135.28   -19343.238    38348.087     38400.99 
   73700 0.0042097129   -8.7749605   -8.7748476    19156.746   -19277.836    38479.152    38268.923 
   73800 0.0077832689   -8.7312467   -8.7310379    19230.177   -19303.511    38511.043    38482.999 
   73900  0.011071172    -8.760541    -8.760244     19196.29     -19251.8    38489.759    38350.913 
   74000 0.0092846412   -8.7604999   -8.7602508    19173.532   -19302.967    38501.376    38322.186 
[...]
   38000         0.38    56.204384    12.436373   -3.1386795   -3.1817614    1.5078113    20.088413   -20119.851 
   39000         0.39    63.245348    12.700106    -3.147861   -3.0877626    1.6967013    21.263698   -21266.494 
   40000          0.4    60.052102    13.038236   -3.0909064    -3.134133    1.6110352    22.849365   -22413.676 
   41000         0.41    90.513531    13.187399   -3.2858706    -3.072971    2.4282328    23.449469   -22464.206 
   42000         0.42     59.16014    13.679925   -3.0433073    -3.076354    1.5871063    25.805074   -24871.332 
   43000         0.43    89.262612    13.858832    -3.186738   -3.1402088     2.394674    26.544964   -24777.975 
   44000         0.44    107.74079    14.074624   -3.2502865   -3.1451709    2.8903936    27.704221   -25262.495 
   45000         0.45    71.861527    14.551426   -3.0178902   -3.0592231    1.9278501    30.212503   -27878.323 
   46000         0.46    56.944878    14.942948   -2.9354568    -3.058369    1.5276768    32.309646   -29440.325 
   47000         0.47    82.751011    15.168022   -2.9951847   -3.1089025    2.2199854    33.259256   -29818.027 
   48000         0.48    111.37649     15.34642   -3.0980361   -3.1599162    2.9879295    34.321104   -29898.733 
   49000         0.49    90.079922    15.790171   -3.1328797   -2.9705705    2.4166002     36.55917   -31866.835 
   50000          0.5    48.432317    16.263464   -2.9462214   -2.8714769    1.2993078    39.465568   -34363.898 
   51000         0.51    97.609449    16.362085   -3.0277193    -3.002238     2.618597    39.990096   -33990.057 
   52000         0.52    58.935928    16.844731   -2.8838465   -2.9174013    1.5810913    42.893873   -36330.234 
   53000         0.53     79.81705    17.076922   -2.9704736   -2.9096554    2.1412752    44.301895   -36834.586 
   54000         0.54    121.42221    17.259137   -3.0780458   -3.0445525     3.257429    45.122256   -36636.363 
   55000         0.55    116.66532    17.620059   -3.1205055   -2.9555429    3.1298143    47.176736   -37976.841 
   56000         0.56    109.16848    17.941643   -2.9401134   -3.0132959    2.9286944    49.382763   -39438.221 
   57000         0.57    111.98933    18.280432   -2.9483231   -3.0097411    3.0043703    51.346495   -40537.437 
   58000         0.58     96.54012    18.634758     -2.97761   -2.8518389    2.5899099    53.809176   -42126.193 
   59000         0.59    49.557031     19.10691   -2.8304776    -2.744124    1.3294809    57.195622   -44517.834 
   60000          0.6    101.07495    19.264345   -2.8216162   -2.9138621    2.7115672    57.941216    -44506.51 
   61000         0.61     87.15272    19.630106   -2.9069553   -2.7716011    2.3380713     60.54125    -45897.03 
   62000         0.62    87.734862    19.945008   -2.7787095   -2.8430961    2.3536886    62.713781   -47119.673 
   63000         0.63    99.294886    20.260039   -2.9375827   -2.7212366    2.6638127    64.659364   -48034.277 
   64000         0.64    128.48449    20.429964   -2.8330452   -2.9020163    3.4468908    66.164223   -48342.471 
   65000         0.65    87.314377    20.963383   -2.7060043   -2.8341358    2.3424081    69.581759   -50738.523 
   66000         0.66    69.285017    21.288577    -2.769431    -2.643078    1.8587293    72.446382   -52228.203 
   67000         0.67     57.38757    21.675583   -2.7167193   -2.6094107     1.539553     75.19251    -53785.52 
   68000         0.68    96.213632    21.853051   -2.8597596   -2.6084998    2.5811511     76.56699   -53901.775 
   69000         0.69    66.161041    22.288475   -2.6975084   -2.6008295    1.7749215     79.82492   -55893.204 
   70000          0.7    79.604403    22.504768   -2.6217507   -2.6252875    2.1355704     81.98738   -56773.518 
   71000         0.71    73.761537    22.940987   -2.6730978   -2.6337325    1.9788222    84.686044   -58011.864 
   72000         0.72    119.46751    23.124509    -2.736166   -2.7096545    3.2049896    85.981918   -58158.363 
   73000         0.73    93.947467    23.555164   -2.7264251   -2.6735092     2.520356    89.430588   -59726.063 
   74000         0.74    65.802803    23.859403   -2.5774525   -2.5121651    1.7653109    92.793915   -61747.792 
   75000         0.75    106.95391    24.157412   -2.6355265   -2.7424426    2.8692836     94.37685   -61779.563 
   76000         0.76    85.883434    24.481853   -2.6407249    -2.513996    2.3040198    97.666002   -63581.322 
   77000         0.77    126.09412     24.74856   -2.6452109   -2.7271424    3.3827635    99.331634   -63742.764 
   78000         0.78    63.708027     25.17763   -2.5239161   -2.4708225    1.7091137     103.8461   -66396.551 
   79000         0.79    96.532562    25.506113   -2.5935125   -2.6519933    2.5897071    105.80532   -66652.217 
   80000          0.8      139.254     25.65564   -2.6492166   -2.6559214    3.7358074    107.53912   -66947.948 
   81000         0.81    87.266721    26.120754   -2.5028364   -2.5262124    2.3411297    111.79327   -69386.317 
   82000         0.82    61.398472    26.501754   -2.4711478   -2.4236558    1.6471547    115.48814   -71081.341 
   83000         0.83    78.989733     26.76185    -2.554434   -2.3611488    2.1190805    118.01256   -71868.631 
   84000         0.84     78.89952    27.165159   -2.5625675   -2.4153583    2.1166603     120.9808   -72990.323 
   85000         0.85     75.89543    27.498815   -2.5356194   -2.4055033    2.0360687    124.13511   -74209.039 
   86000         0.86    72.732574    27.761491   -2.4986348   -2.3196996    1.9512179     127.3684   -75477.117 
   87000         0.87      92.5742     28.05562   -2.4240395    -2.466348     2.483515     129.9457   -76207.689 
   88000         0.88    102.69842    28.383293   -2.4198123   -2.5057466    2.7551205    132.81406   -77169.946 
   89000         0.89    129.77546    28.690294   -2.4896968   -2.5733749     3.481524    135.26842   -77727.517 
   90000          0.9    89.148593    29.094692   -2.4821769   -2.3652773    2.3916152    139.60941   -79767.211 
   91000         0.91    90.925246    29.439562   -2.4092589      -2.4424     2.439278    142.84181   -80887.914 
   92000         0.92    98.135963    29.757233   -2.3604653   -2.4930039     2.632722    145.90845   -81927.013 
   93000         0.93    70.923694    30.106908   -2.3765394   -2.2879976    1.9026905    149.99491   -83698.893 
   94000         0.94    123.75452     30.35712   -2.3894594   -2.5209648    3.3199985    151.98357   -83713.121 
   95000         0.95    84.144766    30.779324   -2.3832375   -2.3421207    2.2573761    156.44626   -85710.884 
   96000         0.96    113.28865     31.05665    -2.441808   -2.3807406    3.0392275    159.10399   -86303.483 
   97000         0.97    109.51273    31.369513   -2.3202172   -2.4233483    2.9379299    162.69036   -87592.558 
   98000         0.98    93.322008    31.733654   -2.3477962   -2.2954355    2.5035766    166.62066   -89120.561 
   99000         0.99    128.50252    31.972036   -2.3982346   -2.3352544    3.4473745    169.23783   -89607.851 
  100000            1    154.40764    32.300688    -2.434029   -2.4294993    4.1423385    172.11394   -90261.237 
  101000         1.01    125.85103    32.644696   -2.2698097   -2.3957904    3.3762422    176.51659   -92044.069 
  102000         1.02    101.33432    33.037897   -2.2249663   -2.3452643    2.7185252    180.83564   -93651.341 
  103000         1.03    85.323891    33.455961   -2.2626948   -2.2783996    2.2890088    184.91867   -95122.516 
  104000         1.04    98.606787    33.783897   -2.3147006   -2.2717184    2.6453529    188.32444   -96052.234 
  105000         1.05    96.787753    34.041934   -2.2515736   -2.2182786    2.5965532    192.15654   -97284.585 
  106000         1.06    152.30478     34.26564   -2.2667182   -2.3677822    4.0859247    194.47274    -97478.87 
  107000         1.07     134.9717    34.613581   -2.2479316   -2.2869833     3.620925    198.76871   -98951.119 
  108000         1.08    128.00408    35.070085   -2.2670099   -2.3429861    3.4340027    202.83888    -100205.9 
  109000         1.09    105.52023    35.408165   -2.2421017   -2.2309936    2.8308218    207.36185   -101768.47 
  110000          1.1    72.815585     35.75517   -2.1509925   -2.0965532    1.9534449     212.1813   -103652.02 
  111000         1.11    99.969609    36.030867   -2.1893218   -2.1388841    2.6819137     215.4431   -104293.65 
  112000         1.12    142.95329     36.29034   -2.1597643   -2.3053922    3.8350494    218.31973   -104696.71 
  113000         1.13    132.12585    36.671147   -2.2571769   -2.1694477    3.5445787    222.70735   -106076.23 
  114000         1.14    70.270096    37.160989     -2.14738   -2.1157561    1.8851563     228.4605   -108225.52 
  115000         1.15    115.40837    37.470093   -2.2132296   -2.2637753    3.0960938     231.4061   -108538.82 
  116000         1.16    89.518359    37.767061   -2.1562462    -2.080777     2.401535    236.27938   -110305.25 
  117000         1.17    127.50305    38.031437   -2.0956219   -2.2416372    3.4205613    239.43049   -110845.23 
  118000         1.18    65.865118    38.454719   -2.1125038    -1.975458    1.7669826    245.38135   -113057.84 
  119000         1.19    129.88688    38.730033   -2.1286854    -2.233538    3.4845131    247.92324    -113061.3 
  120000          1.2    109.86176    39.001427   -2.1018058   -2.0441712    2.9472934    252.80298   -114665.52 
  121000         1.21     99.30061     39.39966   -2.0744027   -2.0634982    2.6639663    257.39331   -116002.17 
  122000         1.22    124.47928    39.728337   -2.0593827   -2.1939636    3.3394418    261.17718   -116703.65 
  123000         1.23    115.80479    40.007747   -2.1040152   -2.0196259    3.1067288    265.84777   -118049.53 
  124000         1.24    122.61403    40.351995     -2.10615   -2.0397136    3.2894021    270.12584   -119108.91 
  125000         1.25    124.14861    40.719055   -2.0864122   -2.0880662    3.3305707     274.5979   -120222.31 
  126000         1.26    124.46471    41.046133   -2.0337931   -2.1188567    3.3390508    279.15472   -121370.12 
  127000         1.27    116.00152    41.395091   -2.0316006   -2.0676689    3.1120063    283.94056   -122693.71 
  128000         1.28    88.740366    41.749449   -2.0344779   -1.9299165    2.3806636    289.34109   -124303.17 
  129000         1.29    73.516368    42.152205   -2.0111204   -1.9474375    1.9722449    294.39701   -125647.33 
  130000          1.3    72.728232    42.431223   -2.0104792    -1.851102    1.9511014    299.11638   -126884.26 
  131000         1.31    125.89837    42.697952   -2.0694055   -1.9671486     3.377512    302.43785   -127186.11 
  132000         1.32    92.564574    43.067835   -1.9803154   -1.9115292    2.4832567     308.1062   -128878.99 
  133000         1.33    98.810311    43.390106   -1.9789556    -1.907928    2.6508129    312.73401    -129955.5 
  134000         1.34    94.970315    43.741039   -1.9623019   -1.9025204    2.5477962    317.67003   -131182.55 
  135000         1.35    94.986842    44.117579   -1.9789922   -1.9317899    2.5482396     322.5839   -132270.08 
  136000         1.36    109.35303    44.460518   -1.9534182   -2.0187841    2.9336456    327.11935    -133196.2 
  137000         1.37    149.23486    44.695554   -1.9556971    -2.073505    4.0035668    330.97815    -133781.9 
  138000         1.38    141.58547    44.994628   -1.9535658    -1.977284    3.7983544    336.19325   -135089.33 
  139000         1.39    108.74105    45.403929   -1.9079096   -1.9301806    2.9172277    342.10818   -136740.98 
  140000          1.4     82.89036    45.784234   -1.9264601   -1.8275154    2.2237238    347.88767    -138268.8 
  141000         1.41    130.47461      46.0661   -1.9017331   -2.0044638    3.5002803    351.70249    -138695.3 
  142000         1.42    148.89897    46.403644   -1.9446885   -2.0413051    3.9945558    356.35209   -139543.22 
  143000         1.43    84.750605    46.798416   -1.9354912   -1.7879199    2.2736291    363.25652   -141705.75 
  144000         1.44    130.36408    47.048129   -1.8875311   -1.9368869     3.497315    367.25059   -142194.95 
  145000         1.45    141.10353    47.368864   -1.8985577    -1.945764    3.7854255    372.23191   -143184.61 
  146000         1.46    108.50124    47.772311    -1.899639   -1.8491884    2.9107943    378.37036      -144826 
  147000         1.47    131.01371    48.086592   -1.8751348   -1.9426758    3.5147429    383.11224   -145632.97 
  148000         1.48    105.68874    48.411314   -1.8610835   -1.8124567    2.8353426    389.17435   -147175.83 
  149000         1.49    131.84088    48.769275   -1.9129833   -1.8944002    3.5369336    393.86282   -147913.12 
  150000          1.5    75.104409    49.144526   -1.8292331   -1.7443626    2.0148478     400.8413    -149916.7 
  151000         1.51    146.65741     49.37206    -1.859029   -1.8970878    3.9344209    404.35472   -150064.78 
  152000         1.52    128.55686    49.699229   -1.8401694   -1.8090631    3.4488323    410.37057   -151492.71 
  153000         1.53    123.57173    50.086798   -1.8561536   -1.8217364    3.3150947    416.07309   -152673.44 
  154000         1.54    125.74501    50.448962   -1.8520701   -1.8551787    3.3733978    421.60611   -153768.28 
  155000         1.55    85.118192    50.817392   -1.7815144   -1.7684777    2.2834905    428.33903   -155497.65 
  156000         1.56    140.37874    51.094009   -1.8018042   -1.9105557    3.7659812    432.50407   -155873.51 
  157000         1.57    161.92155    51.364367   -1.8329119    -1.886454    4.3439164    437.64113   -156739.87 
  158000         1.58    129.32092    51.680078   -1.8158117   -1.7092466    3.4693299    444.21128    -158417.7 
  159000         1.59    97.395643    52.101933   -1.7991176   -1.6733652    2.6128612    450.84688   -159978.45 
  160000          1.6    93.590144    52.534585   -1.8039159    -1.748304      2.51077    456.74933   -161139.45 
  161000         1.61    111.24288    52.843705   -1.7846115    -1.813801    2.9843451    462.16858   -162004.42 
  162000         1.62    114.99072    53.058328   -1.7578793   -1.6956034    3.0848894    467.93896   -163187.25 
  163000         1.63     132.6504    53.333451   -1.7535064   -1.6949888    3.5586509    473.40244   -164108.74 
  164000         1.64    109.49228     53.73656   -1.7505234   -1.6572324    2.9373813    479.95865   -165568.89 
  165000         1.65    116.45363    54.175517   -1.7589825   -1.7937862    3.1241352    485.80188   -166535.89 
  166000         1.66    118.26969    54.532056   -1.7602583   -1.8140042    3.1728554    491.79019   -167638.11 
  167000         1.67    156.58226    54.769892   -1.7653429    -1.843885    4.2006778    496.84721    -168305.5 
  168000         1.68    186.98323    54.985586   -1.7663181   -1.8179969    5.0162534     502.1245   -169097.04 
  169000         1.69    178.65399    55.331944   -1.7546746    -1.790592    4.7928026    508.48256   -170364.92 
  170000          1.7    152.87715    55.780206   -1.7354646   -1.8222237    4.1012797    515.37642   -171798.73 
  171000         1.71    121.05295    56.212989   -1.7447247   -1.7816517    3.2475226    522.46847   -173325.48 
  172000         1.72     167.2515    56.455419   -1.7425889   -1.8522175    4.4869047    527.46994   -173897.89 
  173000         1.73    179.99605    56.671764   -1.7194349   -1.7782481    4.8288063    533.42261   -174929.13 
  174000         1.74    149.72342    57.049035    -1.701864   -1.7039991    4.0166738    540.57009   -176472.31 
  175000         1.75    110.05112    57.472559   -1.6708165   -1.6643518    2.9523733    548.02182   -178098.17 
  176000         1.76    101.20445    57.828249   -1.6818121   -1.6211013    2.7150411    554.65236   -179374.41 
  177000         1.77    82.766442    58.190108   -1.6492575   -1.5931638    2.2203994    561.57813   -180763.83 
  178000         1.78    119.23485    58.505829   -1.6431116    -1.717418     3.198748    567.09419   -181413.93 
  179000         1.79    165.97987    58.715302   -1.6626302   -1.7276014    4.4527901    572.34107   -182005.33 
  180000          1.8    163.49053    58.992755   -1.6399652   -1.6652758    4.3860078     578.9775   -183197.68 
  181000         1.81    105.36096    59.492955   -1.6486307   -1.5895594     2.826549    587.07586   -185063.79 
  182000         1.82    100.77722    59.905918   -1.6694212   -1.6355711    2.7035797    593.87505   -186202.57 
  183000         1.83    152.31276    60.142841    -1.686884   -1.6937732    4.0861386    599.14388   -186733.07 
  184000         1.84    149.16847    60.415413   -1.6441296   -1.6436132     4.001786      605.975   -187935.42 
  185000         1.85    115.14516    60.768521   -1.6062262   -1.5556321    3.0890327     613.6132   -189511.19 
  186000         1.86    136.72419    61.142933   -1.5967252   -1.6860736    3.6679396    619.79848   -190345.04 
  187000         1.87    115.56295    61.496582   -1.6004246     -1.60908    3.1002409    627.19889   -191749.57 
  188000         1.88    94.390537     61.85687   -1.6165399   -1.5258824    2.5322424    634.62108   -193155.51 
  189000         1.89    194.38797    62.094355   -1.6295235   -1.7751498    5.2149026    638.82327   -193074.04 
  190000          1.9    136.89218    62.388117   -1.5816753    -1.545252    3.6724462    647.29266   -194954.16 
  191000         1.91     144.6257    62.770765   -1.5649486   -1.6324013    3.8799158    654.02122    -195981.3 
  192000         1.92    104.94473    63.194768    -1.575105   -1.5635394    2.8153827    662.12019   -197569.29 
  193000         1.93    108.67759    63.535034   -1.5958143   -1.5479975    2.9155253    669.05912   -198671.67 
  194000         1.94    161.09537    63.769518   -1.5896376   -1.6219049    4.3217523     674.7116   -199220.25 
  195000         1.95    140.04783    64.109011   -1.5730772   -1.5536582    3.7571039    682.40084   -200616.09 
  196000         1.96    111.68401    64.525731   -1.5629295   -1.5402164    2.9961794    690.29793   -202064.59 
  197000         1.97    124.00346    64.898016   -1.5944863   -1.5947004     3.326677    697.18499   -203006.27 
  198000         1.98    127.87151    65.158685   -1.5357816   -1.5712996     3.430446    704.29046    -204133.9 
  199000         1.99    150.70471    65.407882   -1.5535027   -1.5312419    4.0429991    710.93702   -205027.18 
  200000            2    150.96981    65.744945   -1.5574549   -1.5211067     4.050111    718.24337   -206156.37 
WARNING: Bond/angle/dihedral extent > half of periodic box length (../domain.cpp:906)
Loop time of 2.78316 on 1 procs for 200000 steps with 10 atoms

Performance: 6208.776 ns/day, 0.004 hours/ns, 71860.837 timesteps/s
97.9% CPU use with 1 MPI tasks x no OpenMP threads

MPI task timing breakdown:
Section |  min time  |  avg time  |  max time  |%varavg| %total
---------------------------------------------------------------
Pair    | 0.76007    | 0.76007    | 0.76007    |   0.0 | 27.31
Bond    | 0.092179   | 0.092179   | 0.092179   |   0.0 |  3.31
Neigh   | 0.029188   | 0.029188   | 0.029188   |   0.0 |  1.05
Comm    | 1.4443     | 1.4443     | 1.4443     |   0.0 | 51.90
Output  | 0.044227   | 0.044227   | 0.044227   |   0.0 |  1.59
Modify  | 0.21972    | 0.21972    | 0.21972    |   0.0 |  7.89
Other   |            | 0.1934     |            |       |  6.95

Nlocal:    10 ave 10 max 10 min
Histogram: 1 0 0 0 0 0 0 0 0 0
Nghost:    578 ave 578 max 578 min
Histogram: 1 0 0 0 0 0 0 0 0 0
Neighs:    147 ave 147 max 147 min
Histogram: 1 0 0 0 0 0 0 0 0 0
FullNghs:  0 ave 0 max 0 min
Histogram: 1 0 0 0 0 0 0 0 0 0

Total # of neighbors = 147
Ave neighs/atom = 14.7
Ave special neighs/atom = 6
Neighbor list builds = 564
Dangerous builds = 0

######################################
# SIMULATION DONE
print "All done"
All done
Total wall time: 0:00:06
