ITEM: TIMESTEP
20000
ITEM: NUMBER OF ATOMS
1800
ITEM: BOX BOUNDS pp pp pp
7.8426000744393320e-01 1.6421573999255460e+02
7.8426000744393320e-01 1.6421573999255460e+02
0.0000000000000000e+00 5.5000000000000000e+00
ITEM: ATOMS id type xs ys zs
2 1 0.0210496 0.0108473 0
3 1 0.0441702 0.00330088 0
33 1 0.0402598 0.0279864 0
31 1 0.0160443 0.0363755 0
4 1 0.0630865 0.0206312 0
6 1 0.0872581 0.0120584 0
35 1 0.0829433 0.0376426 0
8 1 0.11053 0.00388687 0
37 1 0.10634 0.0288009 0
39 1 0.129993 0.0195095 0
10 1 0.152311 0.0109069 0
41 1 0.17051 0.0269203 0
12 1 0.174118 0.00106512 0
40 1 0.148901 0.0376285 0
43 1 0.192928 0.0407002 0
14 1 0.19269 0.0165322 0
45 1 0.223827 0.027146 0
15 1 0.21447 0.00517999 0
16 1 0.252079 0.0162684 0
46 1 0.244929 0.0400224 0
47 1 0.269324 0.0329319 0
18 1 0.275665 0.00827571 0
49 1 0.292088 0.0253524 0
50 1 0.309715 0.0430624 0
20 1 0.315665 0.018812 0
51 1 0.332948 0.0364087 0
22 1 0.357313 0.027858 0
21 1 0.339069 0.0114485 0
23 1 0.362499 0.00426272 0
53 1 0.37557 0.0458597 0
24 1 0.381285 0.0227514 0
55 1 0.400151 0.0389923 0
25 1 0.404303 0.0146478 0
26 1 0.423608 0.0314125 0
28 1 0.448466 0.0244655 0
27 1 0.428061 0.0077731 0
1321 1 0.488244 0.46742 0
29 1 0.475338 0.0178238 0
900 1 0.496491 0.00163991 0
59 1 0.481426 0.0431249 0
32 1 0.0350729 0.0526963 0
62 1 0.0302387 0.0773962 0
61 1 0.0107952 0.0604989 0
990 1 0.00645786 0.0848498 0
63 1 0.0557155 0.0687994 0
34 1 0.0595216 0.0445008 0
65 1 0.079693 0.0615705 0
66 1 0.0719149 0.0866071 0
36 1 0.103362 0.0538381 0
38 1 0.125721 0.0458912 0
67 1 0.0960788 0.0782582 0
69 1 0.122257 0.0722353 0
71 1 0.147677 0.0650941 0
42 1 0.169782 0.0521215 0
72 1 0.169851 0.0773917 0
44 1 0.216144 0.0509202 0
73 1 0.193938 0.0645983 0
74 1 0.21687 0.0758509 0
103 1 0.196479 0.0894548 0
75 1 0.238684 0.0630807 0
77 1 0.263022 0.0574502 0
76 1 0.241347 0.0870084 0
48 1 0.286153 0.049599 0
78 1 0.280498 0.0737933 0
79 1 0.303617 0.0669802 0
109 1 0.297278 0.0921472 0
81 1 0.32853 0.0610173 0
52 1 0.351745 0.0519611 0
82 1 0.346876 0.0768001 0
80 1 0.32096 0.0846529 0
83 1 0.369637 0.0694188 0
54 1 0.394155 0.062714 0
84 1 0.387004 0.0862443 0
57 1 0.44174 0.048055 0
56 1 0.41874 0.0561935 0
85 1 0.412279 0.0791096 0
87 1 0.438819 0.0727029 0
58 1 0.46316 0.0618239 0
88 1 0.469216 0.0858431 0
89 1 0.486922 0.0676154 0
92 1 0.0196752 0.125429 0
93 1 0.0248317 0.102048 0
91 1 0.00132927 0.108457 0
94 1 0.0435203 0.118269 0
64 1 0.0479032 0.0940954 0
95 1 0.0665295 0.110632 0
125 1 0.0610371 0.136391 0
96 1 0.084735 0.128873 0
68 1 0.115116 0.0977494 0
97 1 0.0900788 0.103581 0
98 1 0.108114 0.122211 0
99 1 0.131316 0.116414 0
70 1 0.139702 0.0920051 0
100 1 0.154862 0.112892 0
131 1 0.17569 0.127841 0
101 1 0.176612 0.102493 0
102 1 0.197639 0.115832 0
104 1 0.219982 0.125932 0
105 1 0.218633 0.100611 0
106 1 0.240167 0.111509 0
137 1 0.262373 0.120406 0
135 1 0.242719 0.135795 0
107 1 0.271741 0.0972255 0
108 1 0.286949 0.116302 0
139 1 0.307083 0.131467 0
110 1 0.316435 0.108851 0
111 1 0.340101 0.099607 0
141 1 0.348213 0.121797 0
113 1 0.364349 0.0964762 0
112 1 0.387929 0.110537 0
114 1 0.394979 0.134191 0
143 1 0.371471 0.127779 0
115 1 0.412181 0.114528 0
86 1 0.42897 0.0962674 0
116 1 0.43578 0.12117 0
117 1 0.452551 0.10376 0
118 1 0.459928 0.128248 0
90 1 0.49371 0.0922604 0
119 1 0.476694 0.109876 0
149 1 0.483832 0.135802 0
120 1 0.500226 0.117643 0
123 1 0.0376268 0.142657 0
122 1 0.0138507 0.148937 0
153 1 0.0330764 0.166699 0
152 1 0.0101268 0.17322 0
124 1 0.0566 0.160443 0
126 1 0.0804918 0.153375 0
155 1 0.0743754 0.177913 0
129 1 0.127413 0.140425 0
127 1 0.103308 0.146562 0
128 1 0.121719 0.164411 0
157 1 0.0980982 0.171015 0
130 1 0.152923 0.136891 0
159 1 0.145254 0.159142 0
161 1 0.164079 0.17579 0
132 1 0.176825 0.154164 0
133 1 0.197785 0.139991 0
163 1 0.20236 0.166954 0
134 1 0.222016 0.151176 0
164 1 0.228268 0.176121 0
136 1 0.265266 0.144197 0
165 1 0.246499 0.159967 0
167 1 0.270451 0.167387 0
138 1 0.289029 0.148544 0
169 1 0.312935 0.155626 0
168 1 0.294187 0.173024 0
140 1 0.330617 0.137875 0
142 1 0.3543 0.145544 0
171 1 0.336303 0.162247 0
172 1 0.360389 0.169197 0
170 1 0.318563 0.179337 0
144 1 0.401659 0.157761 0
173 1 0.377616 0.151051 0
174 1 0.384234 0.175668 0
145 1 0.418859 0.139171 0
146 1 0.425791 0.163681 0
147 1 0.443104 0.146349 0
177 1 0.448443 0.171158 0
148 1 0.466338 0.152986 0
150 1 0.489402 0.160276 0
179 1 0.472064 0.177799 0
183 1 0.0278893 0.191051 0
182 1 0.0207096 0.214595 0
181 1 0.0035594 0.197212 0
184 1 0.0449545 0.208307 0
154 1 0.0515772 0.185047 0
185 1 0.0692323 0.202183 0
186 1 0.0869456 0.219722 0
215 1 0.0628218 0.226395 0
156 1 0.0927253 0.195384 0
158 1 0.116211 0.188794 0
187 1 0.110182 0.213384 0
189 1 0.133805 0.206304 0
160 1 0.139557 0.182104 0
191 1 0.157523 0.19989 0
190 1 0.149624 0.224425 0
221 1 0.173181 0.219125 0
162 1 0.185943 0.187197 0
193 1 0.210634 0.191778 0
192 1 0.195542 0.210694 0
194 1 0.217885 0.218528 0
166 1 0.252504 0.184156 0
195 1 0.234414 0.201402 0
196 1 0.259505 0.208626 0
225 1 0.241962 0.225543 0
197 1 0.276935 0.191073 0
199 1 0.300743 0.19696 0
198 1 0.283621 0.214572 0
229 1 0.307267 0.220858 0
201 1 0.342182 0.186181 0
200 1 0.324555 0.2037 0
202 1 0.348367 0.209889 0
175 1 0.407567 0.18184 0
203 1 0.366146 0.192985 0
233 1 0.372295 0.217633 0
204 1 0.389683 0.1994 0
235 1 0.39653 0.224332 0
205 1 0.413736 0.206645 0
176 1 0.431057 0.188803 0
207 1 0.437571 0.212735 0
178 1 0.455042 0.195276 0
208 1 0.461302 0.220183 0
180 1 0.495265 0.185603 0
209 1 0.478502 0.203539 0
212 1 0.0150131 0.239004 0
213 1 0.0384621 0.232176 0
243 1 0.0327013 0.256412 0
241 1 0.00902194 0.263202 0
216 1 0.0795666 0.244663 0
214 1 0.0561546 0.250527 0
245 1 0.0734012 0.269496 0
188 1 0.126762 0.230648 0
217 1 0.103135 0.237552 0
218 1 0.119748 0.254741 0
247 1 0.0968489 0.262092 0
219 1 0.143479 0.248535 0
220 1 0.166613 0.241448 0
251 1 0.161119 0.266726 0
249 1 0.136106 0.271783 0
222 1 0.184123 0.257497 0
223 1 0.199128 0.236829 0
224 1 0.223447 0.242251 0
253 1 0.207768 0.261625 0
227 1 0.265701 0.232378 0
226 1 0.247544 0.249552 0
257 1 0.272161 0.255973 0
255 1 0.231139 0.267576 0
228 1 0.289536 0.238512 0
230 1 0.313795 0.245522 0
259 1 0.295966 0.262555 0
260 1 0.320019 0.269785 0
231 1 0.331312 0.227911 0
232 1 0.354853 0.234862 0
261 1 0.337483 0.252361 0
263 1 0.360748 0.258892 0
234 1 0.37838 0.242461 0
265 1 0.402541 0.248993 0
264 1 0.384522 0.265813 0
206 1 0.420132 0.230374 0
237 1 0.443709 0.238202 0
236 1 0.426085 0.255738 0
238 1 0.44949 0.262572 0
210 1 0.484647 0.227441 0
239 1 0.467218 0.245155 0
240 1 0.491425 0.252674 0
269 1 0.473224 0.270057 0
242 1 0.0253647 0.280517 0
273 1 0.041711 0.297843 0
271 1 0.0174774 0.30831 0
1170 1 0.00307868 0.287099 0
244 1 0.0499882 0.274693 0
246 1 0.0910675 0.288287 0
275 1 0.065887 0.292808 0
276 1 0.0809966 0.311696 0
248 1 0.113799 0.281582 0
277 1 0.105826 0.310016 0
279 1 0.129442 0.301312 0
250 1 0.151467 0.289679 0
280 1 0.150832 0.313883 0
281 1 0.17289 0.299169 0
252 1 0.190297 0.281871 0
254 1 0.214076 0.285578 0
283 1 0.195745 0.305207 0
284 1 0.220327 0.309508 0
256 1 0.254839 0.273618 0
285 1 0.23801 0.291594 0
287 1 0.261473 0.298991 0
286 1 0.243959 0.316468 0
258 1 0.278082 0.280431 0
288 1 0.285524 0.305549 0
289 1 0.301311 0.287164 0
290 1 0.309618 0.311735 0
262 1 0.343284 0.27668 0
291 1 0.324985 0.293267 0
292 1 0.347963 0.300893 0
266 1 0.40824 0.272745 0
293 1 0.36694 0.283001 0
295 1 0.390117 0.289494 0
296 1 0.394878 0.31456 0
294 1 0.372607 0.306502 0
267 1 0.431455 0.280059 0
297 1 0.413379 0.296924 0
298 1 0.436741 0.304059 0
268 1 0.454872 0.287564 0
1141 1 0.497134 0.276613 0
270 1 0.479103 0.294625 0
299 1 0.460784 0.311534 0
300 1 0.484842 0.319351 0
272 1 0.0384895 0.321156 0
301 1 0.017945 0.336464 0
302 1 0.0233378 0.361698 0
303 1 0.0416424 0.344628 0
274 1 0.0620409 0.328139 0
305 1 0.0863247 0.33535 0
304 1 0.0668686 0.352463 0
306 1 0.0908486 0.359604 0
278 1 0.127215 0.325959 0
307 1 0.109552 0.342483 0
309 1 0.135409 0.351532 0
311 1 0.155537 0.338158 0
310 1 0.161861 0.361574 0
282 1 0.17539 0.323098 0
312 1 0.18229 0.347599 0
313 1 0.20018 0.329541 0
314 1 0.206765 0.352981 0
315 1 0.224514 0.333147 0
317 1 0.267909 0.322882 0
316 1 0.250306 0.339823 0
345 1 0.231512 0.355977 0
347 1 0.255849 0.363942 0
318 1 0.274128 0.346548 0
319 1 0.292699 0.329487 0
349 1 0.297197 0.354489 0
320 1 0.321459 0.349131 0
321 1 0.331059 0.323867 0
322 1 0.346588 0.345594 0
323 1 0.356155 0.323619 0
324 1 0.37316 0.340452 0
325 1 0.400878 0.339247 0
355 1 0.387091 0.359199 0
326 1 0.425758 0.345011 0
327 1 0.418503 0.32097 0
328 1 0.442223 0.327989 0
359 1 0.449288 0.35334 0
329 1 0.466101 0.335581 0
1201 1 0.489913 0.343504 0
330 1 0.472283 0.360768 0
331 1 0.00619265 0.379716 0
332 1 0.0301111 0.386269 0
361 1 0.0118128 0.403287 0
333 1 0.0476244 0.368252 0
335 1 0.0723577 0.376089 0
334 1 0.0536933 0.392766 0
336 1 0.07832 0.400207 0
308 1 0.115278 0.367437 0
337 1 0.0951842 0.383448 0
338 1 0.12101 0.390977 0
367 1 0.102135 0.407752 0
339 1 0.142127 0.376154 0
341 1 0.164782 0.385916 0
340 1 0.144955 0.400713 0
371 1 0.168766 0.409584 0
343 1 0.187374 0.371781 0
342 1 0.188047 0.394848 0
344 1 0.212055 0.378141 0
375 1 0.2377 0.403399 0
346 1 0.237796 0.379587 0
377 1 0.261801 0.388391 0
348 1 0.28805 0.379199 0
350 1 0.313035 0.373521 0
379 1 0.3051 0.397495 0
378 1 0.281795 0.40386 0
353 1 0.36255 0.364499 0
351 1 0.337997 0.369299 0
381 1 0.329609 0.392685 0
352 1 0.35475 0.38818 0
354 1 0.379605 0.382652 0
385 1 0.395382 0.401133 0
356 1 0.403964 0.377135 0
383 1 0.371407 0.406679 0
357 1 0.428039 0.369931 0
358 1 0.444396 0.388084 0
387 1 0.42028 0.395729 0
1231 1 0.497209 0.368217 0
1261 1 0.487381 0.403817 0
360 1 0.470337 0.384823 0
363 1 0.0360628 0.410064 0
362 1 0.0178408 0.427005 0
393 1 0.0238531 0.451074 0
364 1 0.0425083 0.434111 0
365 1 0.0599418 0.417285 0
366 1 0.0834251 0.424488 0
395 1 0.066188 0.441708 0
397 1 0.0892097 0.449587 0
369 1 0.124285 0.415979 0
368 1 0.106818 0.432802 0
399 1 0.129965 0.439999 0
370 1 0.14884 0.424009 0
401 1 0.173419 0.433886 0
400 1 0.154254 0.448366 0
402 1 0.187205 0.45368 0
372 1 0.192985 0.419562 0
373 1 0.213354 0.405644 0
403 1 0.207701 0.438508 0
376 1 0.259262 0.413579 0
374 1 0.229119 0.425842 0
404 1 0.230588 0.450473 0
405 1 0.25106 0.436649 0
407 1 0.275214 0.432009 0
408 1 0.290333 0.450634 0
409 1 0.298547 0.422959 0
410 1 0.314165 0.441945 0
382 1 0.346927 0.41193 0
380 1 0.322822 0.416777 0
411 1 0.339118 0.435856 0
413 1 0.36387 0.431008 0
384 1 0.387496 0.425142 0
414 1 0.379608 0.449039 0
415 1 0.4039 0.442059 0
386 1 0.411943 0.418905 0
388 1 0.437492 0.412777 0
417 1 0.429646 0.436195 0
419 1 0.453815 0.431527 0
389 1 0.461888 0.407033 0
390 1 0.477681 0.42615 0
420 1 0.470246 0.450436 0
1291 1 0.493833 0.444443 0
422 1 0.00653734 0.467956 0
423 1 0.0302106 0.475768 0
453 1 0.0124268 0.491626 0
424 1 0.0356684 0.500386 0
394 1 0.0481972 0.458432 0
396 1 0.0712401 0.466204 0
425 1 0.0543373 0.483949 0
426 1 0.0772567 0.491422 0
398 1 0.112133 0.457435 0
457 1 0.100643 0.498543 0
427 1 0.0941413 0.474437 0
428 1 0.118676 0.480604 0
429 1 0.136698 0.464709 0
430 1 0.144262 0.487919 0
431 1 0.162514 0.470243 0
461 1 0.167527 0.493859 0
432 1 0.187118 0.47804 0
433 1 0.209707 0.463959 0
434 1 0.210828 0.488102 0
406 1 0.265719 0.456292 0
465 1 0.237339 0.49797 0
435 1 0.231239 0.475165 0
436 1 0.256413 0.480631 0
448 1 0.456098 0.496212 0
437 1 0.282514 0.474296 0
438 1 0.300209 0.491063 0
439 1 0.30718 0.467424 0
412 1 0.355485 0.45483 0
440 1 0.324557 0.485698 0
441 1 0.331449 0.460042 0
442 1 0.348276 0.478873 0
443 1 0.372561 0.472749 0
445 1 0.397166 0.465523 0
444 1 0.390121 0.490758 0
473 1 0.366165 0.497028 0
418 1 0.445984 0.455489 0
447 1 0.438865 0.478796 0
416 1 0.421856 0.459823 0
446 1 0.414277 0.483919 0
450 1 0.481719 0.490894 0
449 1 0.463092 0.473118 0
19 1 0.298997 0.00117753 0
452 1 0.017664 0.516698 0
483 1 0.0239702 0.541638 0
454 1 0.0413084 0.5246 0
481 1 0.000849587 0.534172 0
485 1 0.0654931 0.532869 0
455 1 0.0594539 0.508647 0
456 1 0.083228 0.515961 0
487 1 0.0894908 0.539931 0
458 1 0.106591 0.522378 0
459 1 0.125228 0.504891 0
489 1 0.130706 0.529945 0
460 1 0.149102 0.511414 0
491 1 0.154684 0.536761 0
462 1 0.1728 0.519396 0
492 1 0.178531 0.543302 0
463 1 0.191487 0.503185 0
493 1 0.196862 0.527358 0
464 1 0.216826 0.512725 0
495 1 0.220179 0.537025 0
466 1 0.239657 0.521714 0
497 1 0.264539 0.525699 0
468 1 0.293354 0.514993 0
499 1 0.311113 0.534288 0
498 1 0.286171 0.537885 0
469 1 0.317182 0.50935 0
470 1 0.335296 0.526994 0
472 1 0.35986 0.521824 0
471 1 0.342078 0.503158 0
503 1 0.374451 0.543271 0
474 1 0.383124 0.515125 0
475 1 0.408013 0.50827 0
476 1 0.400563 0.532321 0
507 1 0.425075 0.527004 0
477 1 0.431389 0.502264 0
478 1 0.449015 0.520287 0
509 1 0.443458 0.54386 0
480 1 0.467297 0.537765 0
479 1 0.473693 0.514548 0
1381 1 0.490948 0.532368 0
1351 1 0.499477 0.508881 0
482 1 0.00618243 0.558134 0
513 1 0.0294764 0.565539 0
511 1 0.00946521 0.581666 0
512 1 0.031509 0.590017 0
484 1 0.0477283 0.549205 0
486 1 0.0721456 0.556401 0
515 1 0.0759469 0.582099 0
514 1 0.0529418 0.573711 0
488 1 0.112562 0.547596 0
516 1 0.101276 0.588948 0
517 1 0.0948596 0.565108 0
519 1 0.119031 0.571272 0
490 1 0.136346 0.554363 0
520 1 0.143169 0.577725 0
521 1 0.161138 0.561091 0
522 1 0.166742 0.587089 0
523 1 0.184521 0.569954 0
494 1 0.201853 0.553274 0
524 1 0.207633 0.577499 0
525 1 0.22558 0.561047 0
496 1 0.243841 0.545109 0
526 1 0.249439 0.569181 0
555 1 0.231094 0.585269 0
527 1 0.267074 0.552509 0
528 1 0.272876 0.578226 0
529 1 0.290956 0.561472 0
559 1 0.295134 0.586905 0
500 1 0.313836 0.570822 0
501 1 0.329991 0.551559 0
531 1 0.337634 0.578646 0
502 1 0.354326 0.559248 0
533 1 0.359573 0.588071 0
505 1 0.395299 0.555896 0
504 1 0.376437 0.571212 0
535 1 0.402622 0.578649 0
506 1 0.419601 0.550835 0
508 1 0.437046 0.567134 0
537 1 0.425103 0.587607 0
538 1 0.450438 0.592524 0
510 1 0.484312 0.555389 0
539 1 0.460518 0.561403 0
540 1 0.477478 0.578826 0
541 1 0.0127132 0.606523 0
542 1 0.036388 0.614326 0
571 1 0.0159818 0.630177 0
543 1 0.0551138 0.59867 0
544 1 0.0596159 0.622921 0
545 1 0.0794316 0.60673 0
546 1 0.0914264 0.62747 0
518 1 0.125812 0.595128 0
547 1 0.110032 0.612282 0
548 1 0.13279 0.619741 0
549 1 0.149493 0.603604 0
550 1 0.155474 0.629281 0
551 1 0.172646 0.61243 0
553 1 0.189942 0.595276 0
552 1 0.196993 0.619184 0
554 1 0.213392 0.602223 0
583 1 0.219151 0.629275 0
556 1 0.236001 0.611536 0
557 1 0.254057 0.593995 0
587 1 0.2591 0.620957 0
558 1 0.276116 0.603293 0
560 1 0.300035 0.611878 0
589 1 0.282592 0.629627 0
530 1 0.318455 0.595165 0
532 1 0.342117 0.605198 0
561 1 0.323223 0.619952 0
562 1 0.347091 0.6294 0
534 1 0.383571 0.595577 0
563 1 0.366476 0.61243 0
565 1 0.389816 0.620606 0
536 1 0.406462 0.603451 0
566 1 0.413822 0.627253 0
567 1 0.431702 0.610284 0
597 1 0.436811 0.634797 0
568 1 0.454881 0.618773 0
569 1 0.472932 0.603083 0
570 1 0.4905 0.620264 0
1441 1 0.496175 0.596366 0
573 1 0.036989 0.641137 0
572 1 0.0158871 0.655721 0
603 1 0.0365507 0.669467 0
602 1 0.0155018 0.681071 0
575 1 0.073746 0.642355 0
574 1 0.0561691 0.657466 0
605 1 0.0789867 0.667793 0
577 1 0.115225 0.63648 0
576 1 0.0965638 0.6518 0
578 1 0.119537 0.661102 0
607 1 0.100936 0.676976 0
581 1 0.178879 0.636827 0
579 1 0.137686 0.645135 0
609 1 0.142198 0.670307 0
580 1 0.160534 0.653608 0
610 1 0.164576 0.67941 0
611 1 0.183484 0.6625 0
582 1 0.201442 0.646271 0
584 1 0.224557 0.655919 0
613 1 0.206221 0.672696 0
585 1 0.241522 0.63891 0
614 1 0.229367 0.681824 0
586 1 0.26443 0.646785 0
615 1 0.247131 0.664819 0
617 1 0.270003 0.672043 0
590 1 0.305866 0.637996 0
588 1 0.288216 0.655687 0
619 1 0.311452 0.663379 0
618 1 0.293456 0.680261 0
591 1 0.329165 0.645626 0
593 1 0.353856 0.653872 0
621 1 0.335945 0.670632 0
592 1 0.35883 0.677712 0
564 1 0.371603 0.636586 0
595 1 0.395727 0.64406 0
594 1 0.376952 0.661238 0
625 1 0.401425 0.668306 0
596 1 0.419739 0.65259 0
598 1 0.443679 0.662989 0
627 1 0.424034 0.677388 0
599 1 0.458955 0.643188 0
600 1 0.482762 0.643326 0
629 1 0.469665 0.665214 0
1501 1 0.495667 0.663604 0
633 1 0.0372954 0.694201 0
632 1 0.0157293 0.704529 0
634 1 0.0416923 0.720336 0
604 1 0.0578048 0.68111 0
606 1 0.0809174 0.691529 0
635 1 0.0608135 0.705127 0
636 1 0.084461 0.715199 0
608 1 0.123733 0.685959 0
637 1 0.103965 0.700772 0
638 1 0.126571 0.710216 0
667 1 0.107218 0.72501 0
639 1 0.146092 0.695441 0
641 1 0.169123 0.704846 0
640 1 0.149849 0.720562 0
612 1 0.187729 0.688614 0
643 1 0.210563 0.697091 0
642 1 0.192504 0.714061 0
644 1 0.215039 0.721929 0
645 1 0.234336 0.706895 0
616 1 0.251851 0.689646 0
646 1 0.257749 0.7147 0
647 1 0.275255 0.697323 0
649 1 0.299369 0.705115 0
648 1 0.280461 0.723135 0
620 1 0.317236 0.687364 0
650 1 0.323979 0.713026 0
622 1 0.341365 0.694411 0
651 1 0.348036 0.717995 0
623 1 0.384041 0.685316 0
653 1 0.364631 0.701388 0
624 1 0.388019 0.709382 0
626 1 0.4109 0.697979 0
657 1 0.435995 0.698304 0
656 1 0.426562 0.721097 0
658 1 0.450699 0.717356 0
630 1 0.484127 0.685197 0
628 1 0.459722 0.68929 0
659 1 0.475296 0.709798 0
660 1 0.491456 0.728164 0
663 1 0.019463 0.728437 0
662 1 0.02126 0.752442 0
691 1 0.00147856 0.766162 0
664 1 0.0443227 0.744088 0
665 1 0.0643713 0.729885 0
666 1 0.0875709 0.739719 0
695 1 0.0677089 0.754536 0
694 1 0.0470529 0.768934 0
697 1 0.0898977 0.764634 0
669 1 0.129579 0.734801 0
668 1 0.11049 0.750439 0
699 1 0.133508 0.759319 0
671 1 0.173272 0.730162 0
670 1 0.1537 0.745021 0
701 1 0.156702 0.769761 0
672 1 0.176451 0.754482 0
673 1 0.196618 0.739252 0
674 1 0.219802 0.747928 0
703 1 0.200155 0.763357 0
705 1 0.223962 0.772032 0
675 1 0.238772 0.730989 0
677 1 0.262168 0.739368 0
676 1 0.243461 0.757056 0
707 1 0.266974 0.762949 0
679 1 0.304674 0.729669 0
678 1 0.287957 0.748871 0
680 1 0.312883 0.769873 0
652 1 0.345594 0.741107 0
681 1 0.321742 0.747542 0
682 1 0.337818 0.76452 0
655 1 0.40123 0.729584 0
654 1 0.371161 0.732207 0
683 1 0.363734 0.757352 0
685 1 0.388329 0.751398 0
715 1 0.405821 0.768785 0
686 1 0.417228 0.747281 0
687 1 0.442306 0.74078 0
717 1 0.433431 0.764261 0
689 1 0.46738 0.735665 0
690 1 0.484398 0.757859 0
688 1 0.459768 0.75979 0
693 1 0.0241792 0.775709 0
692 1 0.00421058 0.789721 0
722 1 0.00717077 0.812712 0
723 1 0.0271941 0.798987 0
696 1 0.0711668 0.779518 0
725 1 0.0505852 0.793791 0
726 1 0.0726656 0.803217 0
698 1 0.112831 0.774892 0
727 1 0.0938211 0.789985 0
728 1 0.116919 0.801505 0
757 1 0.0965006 0.815839 0
700 1 0.136038 0.783676 0
729 1 0.142458 0.806524 0
731 1 0.163448 0.793523 0
702 1 0.185718 0.784012 0
704 1 0.209365 0.801899 0
733 1 0.185226 0.809438 0
735 1 0.233761 0.794251 0
706 1 0.257808 0.785901 0
736 1 0.227825 0.820075 0
737 1 0.25252 0.810299 0
709 1 0.288425 0.775425 0
708 1 0.279445 0.800808 0
710 1 0.305711 0.793526 0
739 1 0.298396 0.816927 0
713 1 0.355283 0.781297 0
711 1 0.330346 0.788216 0
712 1 0.347904 0.806102 0
741 1 0.323227 0.811816 0
684 1 0.380619 0.774709 0
714 1 0.372289 0.798875 0
745 1 0.389417 0.817003 0
716 1 0.397093 0.792474 0
718 1 0.448448 0.783269 0
746 1 0.41381 0.810851 0
747 1 0.422597 0.786384 0
748 1 0.438345 0.806069 0
719 1 0.474612 0.780229 0
720 1 0.48732 0.803136 0
749 1 0.462291 0.802702 0
752 1 0.00675006 0.858466 0
753 1 0.0105319 0.835307 0
783 1 0.0294507 0.848273 0
724 1 0.0330114 0.822783 0
755 1 0.0741716 0.827971 0
754 1 0.0521289 0.838118 0
785 1 0.0707419 0.853434 0
756 1 0.0927318 0.843703 0
759 1 0.11545 0.832724 0
758 1 0.112548 0.858999 0
760 1 0.135749 0.852399 0
732 1 0.162927 0.819028 0
730 1 0.140073 0.829751 0
761 1 0.159008 0.84431 0
762 1 0.176683 0.860698 0
734 1 0.204755 0.826996 0
763 1 0.181181 0.834503 0
764 1 0.199577 0.851054 0
765 1 0.222894 0.843723 0
767 1 0.247571 0.834885 0
766 1 0.242734 0.859176 0
768 1 0.266226 0.850767 0
738 1 0.272157 0.825568 0
769 1 0.291327 0.841595 0
770 1 0.308678 0.859533 0
740 1 0.315061 0.835158 0
742 1 0.339189 0.829519 0
771 1 0.333025 0.853101 0
773 1 0.357378 0.846825 0
743 1 0.364749 0.82371 0
744 1 0.382443 0.840863 0
775 1 0.406103 0.83505 0
776 1 0.398938 0.859008 0
777 1 0.429591 0.829584 0
778 1 0.434242 0.855918 0
779 1 0.45228 0.839133 0
750 1 0.47229 0.824749 0
1621 1 0.49626 0.825614 0
809 1 0.459496 0.861793 0
782 1 0.00263685 0.8813 0
813 1 0.0261524 0.872538 0
812 1 0.0219564 0.896589 0
815 1 0.0446475 0.888845 0
784 1 0.0488267 0.86436 0
786 1 0.0677616 0.879166 0
817 1 0.0859245 0.895722 0
816 1 0.0631043 0.904596 0
787 1 0.0902454 0.868216 0
788 1 0.1075 0.884236 0
819 1 0.125146 0.90182 0
789 1 0.130453 0.876107 0
791 1 0.153797 0.86842 0
790 1 0.148813 0.893455 0
821 1 0.167937 0.908605 0
792 1 0.171811 0.88456 0
795 1 0.218604 0.867485 0
793 1 0.194739 0.876282 0
823 1 0.190889 0.900211 0
794 1 0.21446 0.891343 0
797 1 0.262065 0.875243 0
796 1 0.237485 0.88385 0
825 1 0.233162 0.907977 0
827 1 0.256734 0.90013 0
799 1 0.285605 0.86627 0
798 1 0.28043 0.892721 0
800 1 0.303292 0.884106 0
829 1 0.29826 0.909812 0
772 1 0.351173 0.870849 0
801 1 0.32796 0.876979 0
831 1 0.321731 0.901401 0
802 1 0.346078 0.894825 0
774 1 0.374593 0.864837 0
803 1 0.369374 0.887853 0
805 1 0.393378 0.882644 0
804 1 0.387884 0.906119 0
806 1 0.411731 0.898788 0
807 1 0.417293 0.874119 0
808 1 0.441426 0.880054 0
839 1 0.449568 0.903425 0
780 1 0.484904 0.865092 0
1681 1 0.490292 0.889487 0
810 1 0.465943 0.884829 0
840 1 0.473796 0.907953 0
842 1 0.0114525 0.94469 0
843 1 0.0161281 0.920482 0
844 1 0.0349131 0.937378 0
814 1 0.0399511 0.912823 0
845 1 0.0581195 0.929661 0
846 1 0.0764292 0.946222 0
847 1 0.0804814 0.921383 0
818 1 0.10362 0.913145 0
848 1 0.0989675 0.937732 0
849 1 0.121974 0.92752 0
820 1 0.145033 0.917523 0
850 1 0.141917 0.94198 0
851 1 0.163934 0.933951 0
852 1 0.180957 0.950015 0
824 1 0.209282 0.915329 0
822 1 0.185753 0.924772 0
853 1 0.204138 0.939627 0
855 1 0.228279 0.931777 0
826 1 0.2513 0.924649 0
856 1 0.247002 0.950222 0
857 1 0.269565 0.941197 0
828 1 0.274893 0.916675 0
859 1 0.292794 0.932813 0
860 1 0.310729 0.951251 0
830 1 0.316681 0.926335 0
832 1 0.340091 0.919384 0
861 1 0.334414 0.944427 0
863 1 0.358066 0.937085 0
833 1 0.363484 0.91223 0
835 1 0.405852 0.924579 0
834 1 0.381894 0.930365 0
865 1 0.399187 0.948693 0
837 1 0.428643 0.917102 0
836 1 0.424449 0.941574 0
838 1 0.449746 0.93053 0
870 1 0.462021 0.951319 0
869 1 0.477606 0.931173 0
1711 1 0.497837 0.913255 0
1 1 0.00149929 0.994431 0
872 1 0.0250721 0.986295 0
873 1 0.0296336 0.962079 0
871 1 0.00685424 0.969335 0
875 1 0.0531612 0.954676 0
874 1 0.048374 0.978612 0
876 1 0.0716492 0.970663 0
7 1 0.090827 0.986826 0
5 1 0.0677222 0.996108 0
879 1 0.119205 0.951934 0
877 1 0.0956833 0.962282 0
878 1 0.113349 0.978771 0
9 1 0.133175 0.995284 0
880 1 0.135841 0.969963 0
11 1 0.156053 0.984818 0
881 1 0.157229 0.960017 0
882 1 0.177336 0.973957 0
854 1 0.223351 0.955874 0
883 1 0.200417 0.965298 0
13 1 0.195562 0.989757 0
884 1 0.219119 0.980389 0
885 1 0.241433 0.972968 0
886 1 0.236254 0.997452 0
17 1 0.259978 0.990422 0
887 1 0.265044 0.966352 0
868 1 0.458198 0.97568 0
858 1 0.287956 0.958026 0
888 1 0.282328 0.98296 0
889 1 0.305246 0.97576 0
862 1 0.351258 0.961686 0
890 1 0.322069 0.993417 0
891 1 0.328205 0.969194 0
892 1 0.345662 0.986769 0
864 1 0.375276 0.954677 0
893 1 0.368519 0.978577 0
895 1 0.391832 0.972593 0
894 1 0.386037 0.997693 0
867 1 0.440084 0.959602 0
896 1 0.409925 0.990545 0
866 1 0.415521 0.966272 0
897 1 0.433278 0.983605 0
1771 1 0.491937 0.976977 0
1741 1 0.485693 0.954236 0
899 1 0.474457 0.993341 0
898 1 0.451261 0.999917 0
467 1 0.272601 0.50093 0
902 1 0.542874 0.0165848 0
931 1 0.524525 0.0338007 0
901 1 0.51924 0.00882146 0
30 1 0.500323 0.0260289 0
933 1 0.547674 0.0414523 0
904 1 0.566394 0.0228883 0
906 1 0.584916 0.00649937 0
935 1 0.590535 0.0303798 0
908 1 0.608211 0.0135764 0
937 1 0.613387 0.0379789 0
939 1 0.632246 0.0210018 0
938 1 0.636327 0.0453709 0
910 1 0.649989 0.00333049 0
941 1 0.655339 0.0277548 0
912 1 0.673951 0.00864197 0
942 1 0.678903 0.0334526 0
943 1 0.697524 0.0153921 0
945 1 0.722501 0.0199989 0
944 1 0.703166 0.0394315 0
916 1 0.754448 0.00146081 0
947 1 0.749283 0.0291303 0
948 1 0.770254 0.0453156 0
975 1 0.728376 0.0429398 0
918 1 0.772982 0.0207532 0
919 1 0.798373 0.012728 0
949 1 0.794112 0.0365277 0
951 1 0.816825 0.0286111 0
920 1 0.823149 0.00451287 0
922 1 0.840805 0.0206327 0
953 1 0.85875 0.0366621 0
923 1 0.864165 0.0129871 0
924 1 0.889002 0.00565555 0
954 1 0.883063 0.0309257 0
955 1 0.906602 0.0220035 0
926 1 0.92976 0.0162748 0
957 1 0.947793 0.0334555 0
928 1 0.954175 0.00996186 0
930 1 0.997262 0.0192493 0
959 1 0.973506 0.0266001 0
929 1 0.978718 0.0030972 0
960 1 0.99167 0.0434718 0
932 1 0.529467 0.0586104 0
962 1 0.534923 0.082187 0
961 1 0.511253 0.0749583 0
60 1 0.506028 0.0502091 0
963 1 0.553369 0.065705 0
934 1 0.571894 0.0479306 0
965 1 0.577348 0.0717722 0
964 1 0.558527 0.0895867 0
936 1 0.595184 0.0550431 0
966 1 0.601016 0.0793739 0
967 1 0.619132 0.0623724 0
968 1 0.625096 0.0870265 0
969 1 0.642484 0.0696401 0
940 1 0.659259 0.0517299 0
970 1 0.66539 0.0765715 0
971 1 0.682314 0.057879 0
972 1 0.688404 0.0824204 0
973 1 0.704707 0.0639897 0
1003 1 0.714208 0.0873214 0
974 1 0.7275 0.0668087 0
976 1 0.746684 0.0800765 0
946 1 0.749259 0.0551785 0
977 1 0.768656 0.0706383 0
950 1 0.812978 0.053293 0
979 1 0.790627 0.0608338 0
980 1 0.80955 0.077242 0
978 1 0.787535 0.0859574 0
981 1 0.832765 0.0698001 0
952 1 0.835628 0.0447854 0
982 1 0.850985 0.0872386 0
983 1 0.855302 0.0615232 0
985 1 0.878723 0.0544662 0
984 1 0.874232 0.0787963 0
986 1 0.89839 0.0706094 0
956 1 0.904284 0.0468307 0
987 1 0.942665 0.0581519 0
1017 1 0.938218 0.0818937 0
988 1 0.962216 0.0753988 0
958 1 0.96738 0.0507983 0
989 1 0.985657 0.0674037 0
991 1 0.516874 0.099651 0
992 1 0.523964 0.124836 0
993 1 0.5408 0.106925 0
1023 1 0.547188 0.130703 0
994 1 0.564352 0.113416 0
995 1 0.581905 0.096337 0
996 1 0.587837 0.120456 0
997 1 0.60573 0.102743 0
998 1 0.629534 0.111629 0
1027 1 0.611843 0.127943 0
1029 1 0.636251 0.13613 0
999 1 0.648624 0.0940592 0
1000 1 0.654172 0.118575 0
1001 1 0.672006 0.101483 0
1031 1 0.678825 0.125604 0
1002 1 0.69507 0.107094 0
1004 1 0.718522 0.111778 0
1033 1 0.709426 0.134198 0
1005 1 0.741024 0.103202 0
1006 1 0.760466 0.119493 0
1007 1 0.765436 0.0954616 0
1035 1 0.736663 0.127197 0
1008 1 0.783105 0.111569 0
1009 1 0.805788 0.103097 0
1039 1 0.801338 0.129162 0
1010 1 0.823276 0.11968 0
1011 1 0.827558 0.0945611 0
1012 1 0.846792 0.11249 0
1043 1 0.864209 0.128377 0
1013 1 0.869455 0.103728 0
1014 1 0.887828 0.119918 0
1015 1 0.893279 0.0955053 0
1016 1 0.911654 0.112817 0
1047 1 0.935558 0.105839 0
1049 1 0.954329 0.122817 0
1046 1 0.92943 0.129974 0
1019 1 0.982882 0.0915673 0
1018 1 0.96006 0.0994518 0
1020 1 0.977194 0.115681 0
121 1 0.99569 0.13236 0
1022 1 0.530174 0.149476 0
1051 1 0.512673 0.168061 0
1053 1 0.536257 0.173954 0
1021 1 0.507037 0.142882 0
1024 1 0.55372 0.156547 0
1025 1 0.570878 0.138029 0
1055 1 0.577912 0.162567 0
1054 1 0.560201 0.180596 0
1026 1 0.594435 0.144592 0
1028 1 0.618624 0.152755 0
1057 1 0.601362 0.169629 0
1058 1 0.624504 0.177767 0
1059 1 0.641938 0.160427 0
1030 1 0.661054 0.142308 0
1061 1 0.665089 0.166647 0
1032 1 0.685341 0.149445 0
1063 1 0.707917 0.159436 0
1062 1 0.688541 0.174186 0
1034 1 0.729596 0.149651 0
1036 1 0.754214 0.145082 0
1065 1 0.744229 0.17007 0
1067 1 0.770958 0.161856 0
1037 1 0.777294 0.136766 0
1038 1 0.794517 0.154294 0
1069 1 0.813549 0.170362 0
1068 1 0.789118 0.179079 0
1040 1 0.818021 0.146262 0
1041 1 0.840935 0.136925 0
1071 1 0.837016 0.161646 0
1042 1 0.859451 0.152753 0
1072 1 0.855781 0.177395 0
1045 1 0.906172 0.13702 0
1044 1 0.882262 0.144525 0
1075 1 0.900902 0.160659 0
1073 1 0.878175 0.16968 0
1048 1 0.948006 0.146947 0
1077 1 0.924058 0.153869 0
1078 1 0.941798 0.171403 0
1076 1 0.918493 0.178594 0
1050 1 0.971643 0.140288 0
1079 1 0.965743 0.164264 0
151 1 0.990065 0.157196 0
1080 1 0.984834 0.180413 0
1052 1 0.519123 0.19233 0
1083 1 0.542825 0.198345 0
1082 1 0.525456 0.216391 0
1081 1 0.501862 0.210058 0
1084 1 0.549099 0.223432 0
1056 1 0.583778 0.18785 0
1085 1 0.566886 0.205729 0
1086 1 0.589989 0.212767 0
1087 1 0.607381 0.194826 0
1089 1 0.630806 0.202446 0
1088 1 0.613087 0.219873 0
1060 1 0.647921 0.184826 0
1091 1 0.670705 0.191028 0
1090 1 0.65431 0.208875 0
1092 1 0.679008 0.214683 0
1119 1 0.637375 0.226035 0
1064 1 0.719113 0.185521 0
1093 1 0.696917 0.196783 0
1094 1 0.728079 0.214602 0
1123 1 0.703329 0.220036 0
1066 1 0.764292 0.184914 0
1095 1 0.742273 0.195698 0
1097 1 0.764967 0.209433 0
1099 1 0.807927 0.194132 0
1098 1 0.789943 0.212165 0
1100 1 0.816945 0.217727 0
1070 1 0.831721 0.186182 0
1101 1 0.849477 0.20194 0
1131 1 0.842825 0.225045 0
1102 1 0.867228 0.218657 0
1103 1 0.872651 0.194258 0
1074 1 0.895625 0.186265 0
1104 1 0.890651 0.21102 0
1135 1 0.908012 0.227619 0
1105 1 0.914016 0.202968 0
1107 1 0.937395 0.195083 0
1106 1 0.931652 0.219842 0
1108 1 0.955128 0.211883 0
1109 1 0.961025 0.18796 0
1110 1 0.979266 0.204529 0
211 1 0.997333 0.221576 0
1139 1 0.974137 0.22824 0
1111 1 0.508239 0.23413 0
1113 1 0.531696 0.240926 0
1112 1 0.515247 0.259388 0
1143 1 0.539035 0.266659 0
1114 1 0.555357 0.24807 0
1115 1 0.57278 0.230429 0
1116 1 0.579199 0.25455 0
1117 1 0.596418 0.237059 0
1118 1 0.620375 0.244207 0
1147 1 0.603004 0.261389 0
1149 1 0.627678 0.268085 0
1121 1 0.661586 0.232335 0
1120 1 0.644416 0.249619 0
1151 1 0.669246 0.255723 0
1122 1 0.686268 0.237708 0
1124 1 0.71037 0.243215 0
1153 1 0.693336 0.261465 0
1154 1 0.718163 0.26649 0
1096 1 0.749243 0.22833 0
1125 1 0.734114 0.248218 0
1126 1 0.758701 0.251701 0
1155 1 0.742403 0.271136 0
1127 1 0.773962 0.231686 0
1129 1 0.798898 0.235361 0
1128 1 0.783002 0.255122 0
1159 1 0.807697 0.25936 0
1130 1 0.823659 0.24075 0
1132 1 0.859581 0.244057 0
1161 1 0.833288 0.263507 0
1162 1 0.856936 0.269444 0