ITEM: TIMESTEP
62000
ITEM: NUMBER OF ATOMS
1800
ITEM: BOX BOUNDS pp pp pp
1.0412499945217917e+00 1.6395875000547613e+02
1.0412499945217917e+00 1.6395875000547613e+02
0.0000000000000000e+00 5.5000000000000000e+00
ITEM: ATOMS id type xs ys zs
2 1 0.0267076 0.00991556 0
31 1 0.0197677 0.0338559 0
930 1 0.00184703 0.0167952 0
33 1 0.0443747 0.0272359 0
3 1 0.0503527 0.00246772 0
4 1 0.0677612 0.0195251 0
35 1 0.0857381 0.0376737 0
34 1 0.0627256 0.044263 0
6 1 0.0920597 0.0132877 0
8 1 0.11718 0.00605906 0
37 1 0.109816 0.0305267 0
39 1 0.135296 0.0230145 0
10 1 0.159649 0.0172003 0
41 1 0.177606 0.0348933 0
40 1 0.152991 0.0405886 0
12 1 0.183698 0.0113047 0
14 1 0.202635 0.0284128 0
13 1 0.208286 0.004458 0
15 1 0.226909 0.0218629 0
16 1 0.250529 0.0154503 0
46 1 0.244756 0.039906 0
47 1 0.268194 0.0330526 0
18 1 0.274893 0.00886175 0
49 1 0.293487 0.0256405 0
50 1 0.310839 0.0441475 0
19 1 0.299045 0.00223219 0
20 1 0.318368 0.0201829 0
51 1 0.336098 0.0374202 0
22 1 0.359905 0.0298477 0
21 1 0.342519 0.0128008 0
23 1 0.366006 0.00563003 0
24 1 0.383676 0.0227583 0
55 1 0.401056 0.0389666 0
25 1 0.407076 0.0142781 0
26 1 0.434645 0.0335525 0
27 1 0.430445 0.00910159 0
898 1 0.454427 0.0172113 0
28 1 0.45938 0.0410768 0
29 1 0.478818 0.0246032 0
900 1 0.495733 0.00553168 0
899 1 0.472318 0.000304039 0
32 1 0.0384977 0.0517311 0
62 1 0.0330681 0.0758489 0
61 1 0.0141895 0.0586708 0
990 1 0.00851689 0.0822362 0
63 1 0.0566676 0.0689441 0
65 1 0.0812788 0.0616121 0
66 1 0.075335 0.0862409 0
38 1 0.129429 0.0474754 0
36 1 0.105492 0.0544854 0
67 1 0.09995 0.0787971 0
69 1 0.12411 0.0721196 0
70 1 0.141707 0.0897878 0
71 1 0.148171 0.0653666 0
42 1 0.172006 0.0581347 0
72 1 0.166069 0.0831269 0
45 1 0.221555 0.0461281 0
43 1 0.196889 0.0519387 0
44 1 0.2149 0.0705636 0
73 1 0.190235 0.0763235 0
74 1 0.231777 0.0874355 0
75 1 0.238804 0.0638568 0
77 1 0.263645 0.0570721 0
76 1 0.256084 0.0816711 0
48 1 0.287626 0.0499112 0
78 1 0.280528 0.0751364 0
79 1 0.304157 0.0680656 0
80 1 0.322576 0.0855537 0
81 1 0.329596 0.0611088 0
52 1 0.353762 0.0542879 0
82 1 0.348281 0.0784885 0
53 1 0.378116 0.0474316 0
83 1 0.3723 0.0725495 0
54 1 0.396578 0.0640499 0
84 1 0.392233 0.0877753 0
57 1 0.442811 0.058685 0
56 1 0.419391 0.0527664 0
85 1 0.420159 0.0769263 0
87 1 0.447418 0.0828718 0
59 1 0.483974 0.0480954 0
58 1 0.466874 0.0656189 0
88 1 0.472792 0.0893905 0
89 1 0.491734 0.0723488 0
92 1 0.0211109 0.124591 0
93 1 0.0273144 0.0999732 0
94 1 0.0446147 0.116855 0
91 1 0.0038676 0.106931 0
64 1 0.0512441 0.0930666 0
95 1 0.0693688 0.109471 0
125 1 0.0623168 0.133286 0
96 1 0.0868228 0.127142 0
97 1 0.0938836 0.102839 0
68 1 0.117586 0.0965506 0
98 1 0.11111 0.121002 0
99 1 0.135982 0.113786 0
100 1 0.159579 0.106844 0
131 1 0.177073 0.1246 0
130 1 0.153513 0.130585 0
103 1 0.208614 0.0939354 0
101 1 0.184244 0.101391 0
102 1 0.202639 0.118967 0
105 1 0.226423 0.111556 0
106 1 0.249828 0.105763 0
137 1 0.267571 0.1232 0
135 1 0.243409 0.130308 0
109 1 0.29937 0.0929323 0
107 1 0.274532 0.0990165 0
108 1 0.291819 0.116128 0
139 1 0.305766 0.135603 0
110 1 0.316853 0.112055 0
111 1 0.340715 0.101529 0
141 1 0.344868 0.124288 0
113 1 0.365546 0.0964883 0
112 1 0.386034 0.111044 0
143 1 0.36908 0.129459 0
114 1 0.392902 0.135509 0
115 1 0.410505 0.117387 0
86 1 0.431059 0.0995365 0
116 1 0.435778 0.124394 0
117 1 0.454176 0.107483 0
118 1 0.460469 0.131409 0
90 1 0.497141 0.0965008 0
119 1 0.478689 0.114685 0
123 1 0.038798 0.141379 0
122 1 0.013745 0.149324 0
153 1 0.0326202 0.165756 0
152 1 0.00978601 0.174218 0
124 1 0.0563358 0.158392 0
126 1 0.0802921 0.150955 0
155 1 0.0738368 0.174952 0
129 1 0.129498 0.137751 0
127 1 0.10436 0.143944 0
128 1 0.121787 0.16135 0
157 1 0.097947 0.168042 0
159 1 0.146863 0.15462 0
161 1 0.162721 0.1765 0
132 1 0.17096 0.148123 0
160 1 0.139502 0.178173 0
104 1 0.220036 0.137486 0
133 1 0.195179 0.143229 0
163 1 0.18693 0.166695 0
134 1 0.211741 0.16095 0
164 1 0.227416 0.179864 0
136 1 0.260958 0.147055 0
165 1 0.236786 0.156319 0
167 1 0.268374 0.17005 0
138 1 0.286181 0.151263 0
169 1 0.310497 0.158676 0
168 1 0.292612 0.175751 0
140 1 0.328543 0.141642 0
142 1 0.351882 0.147926 0
171 1 0.334558 0.166025 0
172 1 0.358008 0.172125 0
144 1 0.400399 0.160394 0
173 1 0.376123 0.153777 0
174 1 0.381979 0.177621 0
145 1 0.417931 0.141788 0
146 1 0.424102 0.165567 0
147 1 0.441604 0.14877 0
177 1 0.448467 0.173106 0
149 1 0.483985 0.137817 0
148 1 0.465994 0.154949 0
150 1 0.490236 0.162091 0
179 1 0.472166 0.180475 0
183 1 0.026572 0.191032 0
182 1 0.0203855 0.215845 0
181 1 0.0036736 0.197592 0
184 1 0.0434888 0.207299 0
154 1 0.0503377 0.182298 0
185 1 0.0669224 0.200148 0
186 1 0.0845425 0.218576 0
215 1 0.0612244 0.224212 0
156 1 0.0899 0.191936 0
158 1 0.115814 0.185128 0
187 1 0.106767 0.20857 0
189 1 0.127536 0.218771 0
191 1 0.143904 0.201076 0
190 1 0.149884 0.224758 0
221 1 0.167944 0.208476 0
162 1 0.184542 0.190636 0
193 1 0.208534 0.196299 0
192 1 0.191655 0.214504 0
194 1 0.215007 0.222361 0
166 1 0.250675 0.186466 0
195 1 0.233373 0.204862 0
196 1 0.257296 0.21063 0
197 1 0.274542 0.193393 0
199 1 0.298636 0.20055 0
198 1 0.280552 0.218576 0
229 1 0.304947 0.224995 0
170 1 0.316057 0.183049 0
201 1 0.340146 0.189308 0
200 1 0.322387 0.206868 0
202 1 0.34595 0.213741 0
203 1 0.363644 0.195619 0
175 1 0.407307 0.183774 0
233 1 0.369611 0.220784 0
204 1 0.38928 0.201283 0
235 1 0.394836 0.226805 0
205 1 0.413747 0.208166 0
176 1 0.430907 0.190412 0
207 1 0.437745 0.213942 0
178 1 0.455039 0.196792 0
208 1 0.461454 0.219926 0
180 1 0.497533 0.185867 0
209 1 0.478997 0.203268 0
210 1 0.48603 0.226848 0
212 1 0.0157772 0.241218 0
213 1 0.0383968 0.232104 0
243 1 0.0354437 0.25969 0
241 1 0.0115341 0.2661 0
216 1 0.082187 0.243502 0
214 1 0.0560428 0.247428 0
245 1 0.0698663 0.267237 0
188 1 0.131022 0.241993 0
217 1 0.106096 0.233094 0
218 1 0.111156 0.257358 0
249 1 0.136291 0.265904 0
219 1 0.154236 0.249045 0
220 1 0.172257 0.232705 0
222 1 0.178744 0.256879 0
223 1 0.196184 0.239358 0
253 1 0.202529 0.263927 0
224 1 0.220662 0.24628 0
255 1 0.226054 0.270172 0
225 1 0.238799 0.229536 0
227 1 0.262517 0.235618 0
226 1 0.244796 0.253393 0
257 1 0.269129 0.258723 0
228 1 0.287189 0.242999 0
230 1 0.310597 0.249115 0
259 1 0.29347 0.267384 0
231 1 0.32803 0.230899 0
232 1 0.351953 0.23751 0
261 1 0.334849 0.255855 0
263 1 0.359201 0.261115 0
234 1 0.37627 0.243686 0
265 1 0.401394 0.250239 0
264 1 0.383273 0.267655 0
206 1 0.419914 0.231731 0
237 1 0.444111 0.237832 0
236 1 0.425491 0.255763 0
238 1 0.449561 0.261976 0
239 1 0.467844 0.24377 0
240 1 0.492584 0.250699 0
269 1 0.473759 0.267575 0
242 1 0.0302388 0.298816 0
271 1 0.0134408 0.31642 0
1170 1 0.00658996 0.290654 0
273 1 0.0556512 0.306737 0
244 1 0.0487744 0.282119 0
275 1 0.0755711 0.29057 0
276 1 0.0804083 0.31518 0
247 1 0.0926285 0.273072 0
246 1 0.0990104 0.298535 0
248 1 0.116533 0.281486 0
279 1 0.123091 0.305729 0
251 1 0.159669 0.273082 0
250 1 0.142182 0.289749 0
280 1 0.146579 0.313452 0
281 1 0.165901 0.297878 0
252 1 0.184315 0.281459 0
254 1 0.208806 0.289265 0
283 1 0.18985 0.305483 0
284 1 0.214875 0.312943 0
256 1 0.250761 0.276999 0
285 1 0.23282 0.294968 0
287 1 0.256563 0.301101 0
260 1 0.316922 0.272681 0
258 1 0.27508 0.283166 0
288 1 0.280745 0.307415 0
289 1 0.300041 0.291391 0
290 1 0.304604 0.315618 0
262 1 0.340753 0.280467 0
291 1 0.322814 0.298322 0
292 1 0.346062 0.303915 0
293 1 0.365012 0.285373 0
295 1 0.38922 0.290747 0
294 1 0.370432 0.308785 0
296 1 0.396567 0.315089 0
266 1 0.407262 0.2736 0
267 1 0.431752 0.27994 0
297 1 0.41397 0.297413 0
298 1 0.438456 0.30379 0
268 1 0.45611 0.285788 0
270 1 0.481351 0.292375 0
299 1 0.46409 0.310252 0
300 1 0.487224 0.316463 0
1141 1 0.498353 0.275009 0
272 1 0.0375419 0.323535 0
301 1 0.0190192 0.340971 0
303 1 0.0431908 0.348367 0
1230 1 0.000416016 0.358573 0
274 1 0.0619923 0.330683 0
305 1 0.0861329 0.339489 0
304 1 0.066928 0.355921 0
306 1 0.090663 0.364041 0
277 1 0.104424 0.32303 0
278 1 0.127719 0.330529 0
307 1 0.109679 0.347607 0
309 1 0.133523 0.355214 0
282 1 0.17045 0.321616 0
311 1 0.151788 0.337754 0
310 1 0.15775 0.361702 0
312 1 0.176845 0.346082 0
313 1 0.194899 0.329218 0
314 1 0.200407 0.353706 0
315 1 0.218491 0.336952 0
345 1 0.223216 0.360291 0
286 1 0.238238 0.318658 0
317 1 0.26285 0.325712 0
316 1 0.243566 0.34235 0
318 1 0.267009 0.349687 0
319 1 0.286264 0.332188 0
349 1 0.290956 0.356699 0
320 1 0.310287 0.341069 0
321 1 0.328953 0.324223 0
322 1 0.334864 0.348776 0
323 1 0.353754 0.329474 0
353 1 0.357183 0.360586 0
324 1 0.378654 0.331957 0
325 1 0.402144 0.341691 0
355 1 0.380785 0.355912 0
326 1 0.427644 0.344538 0
327 1 0.421003 0.321011 0
328 1 0.445706 0.327606 0
359 1 0.452497 0.353862 0
329 1 0.469077 0.334484 0
1201 1 0.494789 0.339793 0
330 1 0.477623 0.356549 0
302 1 0.023756 0.365746 0
331 1 0.00553287 0.383821 0
332 1 0.0287191 0.390746 0
361 1 0.00906897 0.407489 0
333 1 0.0475644 0.373487 0
335 1 0.0717697 0.38086 0
334 1 0.0528087 0.398706 0
336 1 0.0758912 0.406327 0
308 1 0.114754 0.371354 0
337 1 0.0954896 0.388554 0
338 1 0.120394 0.395344 0
339 1 0.139077 0.378282 0
341 1 0.162061 0.386383 0
340 1 0.143289 0.402838 0
343 1 0.181984 0.370741 0
342 1 0.185918 0.394107 0
344 1 0.205771 0.378102 0
373 1 0.210848 0.401604 0
347 1 0.247368 0.366784 0
346 1 0.228609 0.384554 0
377 1 0.252868 0.390017 0
375 1 0.234207 0.408803 0
348 1 0.271713 0.373609 0
351 1 0.316197 0.365551 0
350 1 0.295679 0.380938 0
379 1 0.300104 0.404407 0
378 1 0.276745 0.397397 0
381 1 0.32065 0.390275 0
352 1 0.346917 0.384163 0
382 1 0.343683 0.409137 0
354 1 0.372437 0.379047 0
385 1 0.391501 0.395916 0
356 1 0.399017 0.373033 0
383 1 0.367343 0.402712 0
357 1 0.423806 0.368333 0
358 1 0.44327 0.382999 0
387 1 0.416484 0.391216 0
388 1 0.435767 0.407182 0
1261 1 0.484239 0.39659 0
360 1 0.467401 0.378319 0
389 1 0.459728 0.402107 0
363 1 0.0336066 0.415014 0
362 1 0.0145274 0.431652 0
364 1 0.0385148 0.440379 0
365 1 0.056977 0.423225 0
366 1 0.0811284 0.430658 0
395 1 0.0620855 0.447548 0
367 1 0.100873 0.41334 0
369 1 0.124438 0.420372 0
368 1 0.104739 0.437559 0
399 1 0.129655 0.444536 0
371 1 0.16843 0.410944 0
370 1 0.148596 0.428 0
401 1 0.172816 0.435085 0
400 1 0.154599 0.452122 0
372 1 0.192085 0.418249 0
403 1 0.19756 0.441396 0
374 1 0.216397 0.42566 0
404 1 0.222893 0.449293 0
376 1 0.259219 0.414655 0
405 1 0.241636 0.432049 0
407 1 0.265988 0.439699 0
408 1 0.288995 0.445863 0
409 1 0.283418 0.422177 0
410 1 0.311954 0.436804 0
380 1 0.321097 0.415211 0
411 1 0.337136 0.432857 0
412 1 0.353816 0.45019 0
413 1 0.360863 0.426448 0
384 1 0.385307 0.419899 0
414 1 0.378037 0.444438 0
415 1 0.401869 0.43806 0
386 1 0.40919 0.414267 0
417 1 0.428321 0.431049 0
418 1 0.44462 0.449727 0
419 1 0.452592 0.426293 0
390 1 0.477103 0.420392 0
420 1 0.470545 0.444885 0
1291 1 0.495017 0.438627 0
393 1 0.019828 0.456835 0
423 1 0.0244223 0.482485 0
453 1 0.00437502 0.498623 0
394 1 0.0435551 0.465505 0
422 1 0.000834518 0.47407 0
397 1 0.0870199 0.45472 0
396 1 0.0672968 0.472411 0
425 1 0.0477491 0.490257 0
426 1 0.0715611 0.498434 0
427 1 0.0909503 0.480193 0
398 1 0.11057 0.462515 0
428 1 0.113627 0.487268 0
429 1 0.134779 0.469083 0
430 1 0.139861 0.493274 0
431 1 0.160963 0.475509 0
461 1 0.169699 0.497752 0
402 1 0.180088 0.459189 0
432 1 0.187213 0.482272 0
433 1 0.20443 0.46499 0
434 1 0.211822 0.488836 0
435 1 0.2298 0.472015 0
406 1 0.247775 0.455816 0
465 1 0.23699 0.495594 0
436 1 0.255203 0.479923 0
437 1 0.27877 0.467706 0
438 1 0.29676 0.486246 0
439 1 0.305649 0.463672 0
441 1 0.329414 0.455873 0
440 1 0.32231 0.480981 0
442 1 0.346576 0.474544 0
471 1 0.339925 0.497548 0
473 1 0.364398 0.491795 0
443 1 0.371253 0.468122 0
445 1 0.39542 0.462158 0
444 1 0.389101 0.486095 0
447 1 0.437151 0.473245 0
416 1 0.420615 0.454934 0
446 1 0.412849 0.479636 0
477 1 0.429818 0.498145 0
448 1 0.454003 0.491908 0
450 1 0.479214 0.486496 0
449 1 0.462045 0.468141 0
1321 1 0.487454 0.46316 0
452 1 0.00927546 0.523558 0
454 1 0.0321896 0.531829 0
424 1 0.0275613 0.507309 0
485 1 0.0550508 0.541365 0
455 1 0.0509709 0.515772 0
456 1 0.0743377 0.524236 0
458 1 0.0979097 0.530326 0
459 1 0.120854 0.510369 0
489 1 0.135719 0.53057 0
457 1 0.0958132 0.50572 0
460 1 0.152466 0.514542 0
491 1 0.158683 0.53847 0
462 1 0.176772 0.521716 0
463 1 0.194877 0.505295 0
493 1 0.200876 0.529558 0
464 1 0.219047 0.512233 0
495 1 0.224603 0.536721 0
466 1 0.243356 0.519781 0
497 1 0.266744 0.526847 0
467 1 0.264429 0.50199 0
496 1 0.247743 0.543883 0
468 1 0.29048 0.509975 0
499 1 0.309963 0.527485 0
498 1 0.288404 0.535965 0
469 1 0.315551 0.504225 0
470 1 0.33354 0.522007 0
472 1 0.357873 0.515039 0
502 1 0.351191 0.538935 0
503 1 0.375266 0.53344 0
474 1 0.38256 0.509254 0
476 1 0.398661 0.527718 0
475 1 0.406094 0.503253 0
507 1 0.422632 0.522104 0
509 1 0.44052 0.53968 0
478 1 0.44766 0.515941 0
480 1 0.465048 0.533515 0
479 1 0.471781 0.509445 0
1381 1 0.489966 0.527918 0
1351 1 0.496885 0.504508 0
483 1 0.0116135 0.54698 0
513 1 0.0158321 0.57275 0
484 1 0.034089 0.55663 0
514 1 0.0380897 0.581917 0
487 1 0.0771962 0.549569 0
486 1 0.0573229 0.566772 0
515 1 0.0801746 0.576094 0
517 1 0.0989633 0.561645 0
488 1 0.116646 0.54592 0
516 1 0.103059 0.58575 0
519 1 0.122066 0.569962 0
490 1 0.140055 0.554573 0
520 1 0.145507 0.578745 0
521 1 0.163442 0.563444 0
522 1 0.169852 0.587135 0
492 1 0.181809 0.545955 0
523 1 0.187536 0.570497 0
494 1 0.206459 0.553975 0
524 1 0.212103 0.579122 0
525 1 0.230276 0.561405 0
555 1 0.235283 0.586291 0
526 1 0.253273 0.56872 0
527 1 0.270663 0.551936 0
528 1 0.277501 0.576127 0
529 1 0.298213 0.55821 0
559 1 0.301531 0.583369 0
501 1 0.326568 0.546105 0
500 1 0.32027 0.569499 0
531 1 0.344147 0.563572 0
533 1 0.360943 0.581029 0
505 1 0.39224 0.551397 0
504 1 0.368272 0.556506 0
534 1 0.385075 0.574146 0
506 1 0.416091 0.546229 0
535 1 0.409392 0.569725 0
508 1 0.433258 0.563932 0
537 1 0.426241 0.588379 0
538 1 0.451216 0.582759 0
510 1 0.481641 0.552516 0
539 1 0.457278 0.557716 0
540 1 0.475143 0.576496 0
1411 1 0.49947 0.570901 0
512 1 0.0191859 0.597628 0
542 1 0.0413814 0.607377 0
571 1 0.0222877 0.624499 0
541 1 -0.000121784 0.613886 0
573 1 0.0455891 0.632756 0
543 1 0.0609201 0.592507 0
544 1 0.0644325 0.61703 0
545 1 0.084109 0.601751 0
546 1 0.0888934 0.62618 0
518 1 0.127226 0.594654 0
547 1 0.108999 0.60952 0
548 1 0.132434 0.619544 0
577 1 0.112625 0.634573 0
549 1 0.151234 0.603041 0
550 1 0.155477 0.628185 0
551 1 0.174142 0.611522 0
581 1 0.178915 0.635091 0
553 1 0.193011 0.595288 0
552 1 0.197998 0.618988 0
554 1 0.21687 0.603185 0
583 1 0.223214 0.628122 0
556 1 0.241397 0.611129 0
557 1 0.258979 0.594032 0
587 1 0.265337 0.618897 0
585 1 0.246517 0.635131 0
558 1 0.282854 0.6006 0
560 1 0.305534 0.608685 0
589 1 0.289079 0.627549 0
590 1 0.311682 0.636899 0
530 1 0.326329 0.593765 0
532 1 0.351395 0.603528 0
561 1 0.327603 0.618174 0
562 1 0.348915 0.62785 0
563 1 0.377264 0.597838 0
565 1 0.394058 0.616835 0
564 1 0.370616 0.621253 0
536 1 0.401832 0.593788 0
566 1 0.418521 0.61243 0
567 1 0.442632 0.606852 0
597 1 0.435294 0.630962 0
595 1 0.411092 0.635306 0
568 1 0.459214 0.62566 0
569 1 0.467686 0.601079 0
570 1 0.482769 0.619929 0
1441 1 0.490867 0.595474 0
572 1 0.0263257 0.648448 0
602 1 0.00790796 0.664536 0
603 1 0.031192 0.67329 0
1500 1 0.00350229 0.639643 0
574 1 0.0494896 0.657199 0
575 1 0.0694473 0.642081 0
605 1 0.0747121 0.666222 0
604 1 0.0545849 0.681586 0
576 1 0.093509 0.650093 0
578 1 0.116876 0.658808 0
607 1 0.0978106 0.674489 0
579 1 0.136905 0.643552 0
609 1 0.141734 0.668037 0
580 1 0.160653 0.651777 0
610 1 0.164923 0.676137 0
611 1 0.184204 0.659241 0
582 1 0.20387 0.644428 0
584 1 0.227761 0.652431 0
613 1 0.208085 0.668697 0
614 1 0.23067 0.67776 0
586 1 0.269261 0.644382 0
615 1 0.250993 0.660411 0
617 1 0.273837 0.669932 0
588 1 0.291877 0.651798 0
619 1 0.315091 0.660818 0
618 1 0.297047 0.676999 0
591 1 0.334027 0.646072 0
593 1 0.359865 0.648751 0
621 1 0.342101 0.6693 0
592 1 0.378583 0.664732 0
594 1 0.386405 0.640042 0
625 1 0.401913 0.658153 0
596 1 0.42712 0.65366 0
598 1 0.442225 0.673897 0
627 1 0.418542 0.679058 0
599 1 0.450721 0.64977 0
600 1 0.475813 0.644133 0
629 1 0.468004 0.667286 0
1501 1 0.492396 0.662645 0
1471 1 0.499731 0.637939 0
633 1 0.0361185 0.697915 0
632 1 0.01297 0.689651 0
663 1 0.018179 0.715139 0
634 1 0.0417131 0.722669 0
606 1 0.078294 0.690465 0
635 1 0.0591361 0.705617 0
636 1 0.0842156 0.71429 0
608 1 0.121679 0.683478 0
637 1 0.103056 0.698651 0
638 1 0.128027 0.706886 0
667 1 0.108907 0.721946 0
639 1 0.146378 0.692216 0
641 1 0.170081 0.701156 0
640 1 0.150693 0.716415 0
671 1 0.175427 0.725881 0
612 1 0.188669 0.685221 0
643 1 0.212658 0.693483 0
642 1 0.194186 0.709587 0
644 1 0.217267 0.718746 0
645 1 0.236636 0.702701 0
616 1 0.255089 0.685226 0
646 1 0.260694 0.71005 0
675 1 0.24171 0.726929 0
647 1 0.278392 0.694126 0
649 1 0.303757 0.701295 0
648 1 0.284855 0.717212 0
679 1 0.307653 0.725252 0
620 1 0.322048 0.683872 0
650 1 0.332537 0.717693 0
622 1 0.343045 0.694511 0
651 1 0.358618 0.713804 0
623 1 0.393205 0.683713 0
653 1 0.367766 0.6877 0
624 1 0.38457 0.706382 0
655 1 0.398753 0.726083 0
626 1 0.40959 0.701655 0
657 1 0.434157 0.697077 0
656 1 0.4258 0.720642 0
658 1 0.450765 0.714967 0
630 1 0.484299 0.685806 0
628 1 0.459073 0.691844 0
659 1 0.475956 0.709782 0
662 1 0.021091 0.738829 0
691 1 0.00230959 0.755189 0
693 1 0.0263654 0.763848 0
664 1 0.0447195 0.746907 0
665 1 0.0652103 0.729943 0
666 1 0.0875508 0.737992 0
695 1 0.0683662 0.753956 0
694 1 0.0499269 0.771292 0
697 1 0.0931203 0.761608 0
669 1 0.131371 0.73092 0
668 1 0.111197 0.745338 0
699 1 0.136092 0.754534 0
698 1 0.115728 0.769192 0
670 1 0.156174 0.74167 0
701 1 0.159203 0.766887 0
672 1 0.179525 0.750694 0
673 1 0.198518 0.734272 0
674 1 0.223802 0.744408 0
703 1 0.204198 0.7585 0
705 1 0.227017 0.770844 0
677 1 0.265048 0.73543 0
676 1 0.24621 0.754356 0
707 1 0.272078 0.758568 0
678 1 0.295811 0.748899 0
680 1 0.315199 0.767938 0
681 1 0.324228 0.743317 0
652 1 0.349187 0.737491 0
682 1 0.340592 0.762114 0
654 1 0.374558 0.731449 0
683 1 0.365608 0.755904 0
685 1 0.391104 0.750071 0
715 1 0.407325 0.768811 0
686 1 0.416454 0.743852 0
687 1 0.443042 0.738736 0
717 1 0.433105 0.76223 0
660 1 0.492804 0.72874 0
688 1 0.45799 0.757774 0
689 1 0.467262 0.73333 0
690 1 0.483678 0.753234 0
692 1 0.00745982 0.780453 0
722 1 0.0137169 0.805609 0
723 1 0.0322986 0.787678 0
724 1 0.037297 0.812826 0
696 1 0.0734904 0.777882 0
725 1 0.056124 0.796996 0
726 1 0.0799539 0.801107 0
727 1 0.0989096 0.786777 0
728 1 0.128409 0.801967 0
757 1 0.102984 0.811519 0
700 1 0.137296 0.778435 0
729 1 0.15244 0.796258 0
731 1 0.174954 0.787334 0
732 1 0.170835 0.813407 0
702 1 0.199041 0.781537 0
704 1 0.218211 0.797805 0
733 1 0.194391 0.805291 0
735 1 0.241988 0.791032 0
706 1 0.266592 0.784204 0
737 1 0.26036 0.808211 0
736 1 0.236199 0.81609 0
709 1 0.290283 0.775609 0
708 1 0.284383 0.800617 0
710 1 0.308305 0.793172 0
739 1 0.301619 0.817395 0
713 1 0.356838 0.780899 0
711 1 0.332886 0.786331 0
712 1 0.350478 0.804638 0
741 1 0.326608 0.811812 0
684 1 0.381469 0.773993 0
714 1 0.374444 0.798458 0
745 1 0.3917 0.815111 0
716 1 0.398503 0.791696 0
718 1 0.448686 0.781278 0
746 1 0.416372 0.809438 0
747 1 0.424286 0.786712 0
748 1 0.44067 0.804888 0
719 1 0.473789 0.775847 0
720 1 0.490878 0.793383 0
749 1 0.465276 0.799933 0
752 1 0.0147499 0.855929 0
753 1 0.0176838 0.83063 0
783 1 0.0377644 0.846447 0
755 1 0.0801754 0.824421 0
754 1 0.0558569 0.828988 0
785 1 0.0737786 0.8472 0
756 1 0.100113 0.836538 0
759 1 0.122622 0.826757 0
758 1 0.117095 0.853116 0
787 1 0.0934941 0.860443 0
730 1 0.146549 0.820519 0
760 1 0.140295 0.844262 0
761 1 0.164512 0.837653 0
791 1 0.159022 0.861745 0
762 1 0.182755 0.854898 0
763 1 0.188501 0.830358 0
734 1 0.212267 0.822846 0
764 1 0.206497 0.848371 0
765 1 0.230649 0.841152 0
767 1 0.253893 0.832929 0
766 1 0.249061 0.858138 0
768 1 0.27211 0.850175 0
738 1 0.27845 0.825994 0
769 1 0.295401 0.843134 0
770 1 0.31354 0.861489 0
740 1 0.319801 0.836032 0
742 1 0.343986 0.829446 0
771 1 0.33726 0.85436 0
773 1 0.360285 0.847927 0
743 1 0.367872 0.822667 0
744 1 0.384575 0.841071 0
776 1 0.402139 0.858285 0
775 1 0.40796 0.833283 0
777 1 0.433207 0.828098 0
778 1 0.42572 0.851892 0
809 1 0.450411 0.847335 0
1621 1 0.482783 0.818819 0
779 1 0.457317 0.823303 0
750 1 0.473868 0.841572 0
1651 1 0.496462 0.850949 0
811 1 0.00592716 0.904602 0
782 1 0.00943917 0.879387 0
813 1 0.033588 0.872465 0
812 1 0.029886 0.896326 0
784 1 0.0560716 0.863901 0
815 1 0.0534813 0.888285 0
786 1 0.0770144 0.879423 0
816 1 0.0734223 0.903987 0
817 1 0.0983243 0.89764 0
788 1 0.110298 0.877157 0
819 1 0.129014 0.893591 0
789 1 0.135107 0.869094 0
790 1 0.152621 0.885798 0
792 1 0.177783 0.879879 0
821 1 0.17054 0.903312 0
795 1 0.224524 0.865377 0
793 1 0.200599 0.872407 0
823 1 0.19444 0.897099 0
794 1 0.218053 0.890124 0
797 1 0.265351 0.876827 0
796 1 0.242111 0.88292 0
825 1 0.23502 0.907937 0
827 1 0.259319 0.901213 0
799 1 0.289362 0.867604 0
798 1 0.282753 0.893245 0
800 1 0.306544 0.886048 0
772 1 0.354165 0.872484 0
801 1 0.330869 0.879781 0
831 1 0.324427 0.904326 0
802 1 0.347966 0.896857 0
774 1 0.377914 0.865982 0
803 1 0.371654 0.889677 0
805 1 0.396257 0.882827 0
804 1 0.389017 0.906752 0
806 1 0.412795 0.900643 0
807 1 0.419654 0.876813 0
808 1 0.443104 0.870538 0
839 1 0.43789 0.894376 0
780 1 0.476812 0.867924 0
1681 1 0.484987 0.891321 0
810 1 0.46132 0.886491 0
842 1 0.0184809 0.944135 0
843 1 0.024482 0.920333 0
844 1 0.0432056 0.937891 0
814 1 0.0493461 0.912953 0
845 1 0.0672336 0.928959 0
846 1 0.0866515 0.946038 0
875 1 0.063205 0.953784 0
847 1 0.0929158 0.92263 0
818 1 0.116662 0.915991 0
848 1 0.111208 0.940587 0
849 1 0.137888 0.933875 0
820 1 0.146409 0.910098 0
850 1 0.156069 0.951784 0
851 1 0.162837 0.926984 0
852 1 0.180141 0.945315 0
824 1 0.211055 0.915618 0
822 1 0.187255 0.921141 0
853 1 0.204783 0.938697 0
855 1 0.229088 0.932236 0
826 1 0.252331 0.924463 0
856 1 0.246461 0.949848 0
857 1 0.271289 0.943148 0
829 1 0.299934 0.910767 0
828 1 0.276848 0.918654 0
859 1 0.295415 0.936942 0
860 1 0.313153 0.95358 0
830 1 0.318307 0.928753 0
832 1 0.341715 0.921514 0
861 1 0.335922 0.946511 0
863 1 0.358397 0.939573 0
833 1 0.365196 0.914675 0
834 1 0.382312 0.931424 0
865 1 0.401229 0.948668 0
835 1 0.406618 0.925385 0
837 1 0.429744 0.919355 0
836 1 0.42855 0.944089 0
838 1 0.452033 0.928595 0
840 1 0.468316 0.910145 0
870 1 0.458202 0.951785 0
869 1 0.475758 0.933804 0
1711 1 0.493054 0.915539 0
1712 1 0.500106 0.939694 0
1 1 0.0076883 0.992639 0
872 1 0.0312795 0.984642 0
873 1 0.0375454 0.961417 0
871 1 0.0127013 0.968224 0
874 1 0.0561651 0.977957 0
876 1 0.0807528 0.971796 0
5 1 0.0745222 0.99545 0
879 1 0.130392 0.958648 0
7 1 0.098455 0.988984 0
877 1 0.104221 0.964474 0
878 1 0.123963 0.98187 0
9 1 0.141201 0.99853 0
880 1 0.148295 0.974859 0
11 1 0.165854 0.99372 0
881 1 0.172446 0.969962 0
854 1 0.222113 0.956954 0
882 1 0.190368 0.986379 0
883 1 0.197043 0.963201 0
884 1 0.214822 0.980875 0
885 1 0.239585 0.974533 0
886 1 0.232936 0.997817 0
17 1 0.256762 0.991937 0
887 1 0.264278 0.967505 0
858 1 0.28819 0.961184 0
888 1 0.281353 0.985366 0
889 1 0.305818 0.977754 0
862 1 0.353447 0.964566 0
890 1 0.323653 0.9953 0
891 1 0.329423 0.971453 0
892 1 0.347358 0.98841 0
864 1 0.37662 0.955548 0
893 1 0.370826 0.981318 0
895 1 0.393938 0.973469 0
894 1 0.389152 0.997368 0
867 1 0.441521 0.969308 0
896 1 0.413614 0.990363 0
866 1 0.418017 0.965752 0
897 1 0.448966 0.99336 0
1741 1 0.482383 0.957339 0
1771 1 0.489206 0.981408 0
868 1 0.465428 0.975568 0
931 1 0.526395 0.0377556 0
901 1 0.520503 0.011704 0
30 1 0.502804 0.0305099 0
902 1 0.544649 0.0192611 0
933 1 0.550612 0.0432231 0
904 1 0.568437 0.0246643 0
906 1 0.586066 0.00644773 0
905 1 0.562593 -0.000128937 0
935 1 0.592456 0.0310646 0
908 1 0.609721 0.0134141 0
937 1 0.616109 0.0374567 0
939 1 0.634214 0.0193226 0
938 1 0.64023 0.0438666 0
941 1 0.658554 0.026302 0
912 1 0.677475 0.00756543 0
910 1 0.651709 0.00221872 0
942 1 0.682309 0.0325576 0
943 1 0.702071 0.0134644 0
944 1 0.706541 0.0387778 0
945 1 0.735208 0.00992898 0
916 1 0.759501 0.00263118 0
947 1 0.754487 0.0263787 0
975 1 0.729998 0.0333605 0
948 1 0.772157 0.0432224 0
918 1 0.778111 0.0188772 0
919 1 0.801173 0.010754 0
949 1 0.795886 0.0356109 0
951 1 0.819842 0.0283231 0
920 1 0.825553 0.00345924 0
922 1 0.844097 0.0196193 0
953 1 0.862676 0.0363624 0
952 1 0.838468 0.0433581 0
923 1 0.868297 0.0122846 0
924 1 0.891427 0.00466588 0
954 1 0.886396 0.029874 0
955 1 0.909372 0.0221697 0
926 1 0.934047 0.0153518 0
957 1 0.954079 0.0314745 0
928 1 0.958342 0.00702532 0
959 1 0.977887 0.0239025 0
960 1 0.995907 0.0418443 0
932 1 0.533121 0.0619754 0
962 1 0.539131 0.0858517 0
961 1 0.514708 0.0793061 0
60 1 0.508764 0.0547482 0
934 1 0.574655 0.0493883 0
963 1 0.556768 0.0680699 0
965 1 0.581544 0.0739201 0
936 1 0.598912 0.0559035 0
966 1 0.606176 0.0799023 0
967 1 0.622775 0.0615973 0
968 1 0.628266 0.0861336 0
969 1 0.646432 0.0681372 0
940 1 0.664269 0.0507445 0
970 1 0.670335 0.0746145 0
971 1 0.688973 0.0566912 0
972 1 0.695399 0.0814129 0
973 1 0.723804 0.0596614 0
1003 1 0.720242 0.0860863 0
974 1 0.743651 0.074356 0
946 1 0.748882 0.0505305 0
977 1 0.767616 0.0674611 0
979 1 0.79068 0.0602941 0
980 1 0.810955 0.0768173 0
978 1 0.787657 0.0852802 0
950 1 0.814812 0.0522873 0
981 1 0.834273 0.0680872 0
983 1 0.857493 0.0608239 0
982 1 0.852595 0.0851568 0
985 1 0.880827 0.054208 0
984 1 0.876333 0.0783255 0
986 1 0.900753 0.0717264 0
956 1 0.904214 0.0471113 0
987 1 0.94733 0.0550733 0
1017 1 0.940294 0.0791472 0
988 1 0.965915 0.0726556 0
958 1 0.971797 0.0487935 0
989 1 0.990219 0.0662127 0
1019 1 0.985032 0.0900415 0
991 1 0.521756 0.103738 0
992 1 0.527209 0.127328 0
120 1 0.503024 0.121009 0
993 1 0.545245 0.110174 0
964 1 0.563418 0.0919746 0
1023 1 0.55139 0.133814 0
994 1 0.569828 0.115582 0
995 1 0.587073 0.0971538 0
996 1 0.593597 0.122287 0
997 1 0.611164 0.104579 0
998 1 0.634383 0.111041 0
1027 1 0.617243 0.127561 0
999 1 0.651439 0.0924533 0
1029 1 0.641175 0.134077 0
1000 1 0.658931 0.116375 0
1001 1 0.675888 0.098629 0
1031 1 0.682273 0.122616 0
1002 1 0.700286 0.105427 0
1004 1 0.72283 0.113265 0
1033 1 0.706259 0.130073 0
976 1 0.741148 0.0988922 0
1005 1 0.75763 0.117184 0
1007 1 0.76439 0.0924329 0
1035 1 0.730497 0.135474 0
1008 1 0.781394 0.109771 0
1009 1 0.805183 0.10143 0
1039 1 0.800592 0.1258 0
1037 1 0.776704 0.132792 0
1010 1 0.824143 0.117849 0
1011 1 0.828993 0.0931956 0
1012 1 0.847166 0.110419 0
1041 1 0.841148 0.135534 0
1043 1 0.865288 0.127487 0
1013 1 0.87089 0.103063 0
1014 1 0.88911 0.120371 0
1015 1 0.894182 0.0949942 0
1016 1 0.912558 0.113165 0
1047 1 0.93561 0.103972 0
1046 1 0.931356 0.129142 0
1049 1 0.95435 0.120252 0
1018 1 0.958923 0.0961713 0
1020 1 0.978308 0.113152 0
121 1 0.995257 0.131622 0
1022 1 0.532095 0.151311 0
1051 1 0.514541 0.168324 0
1053 1 0.539456 0.175405 0
1021 1 0.508715 0.144716 0
1025 1 0.575566 0.139771 0
1024 1 0.55767 0.157784 0
1055 1 0.581086 0.16387 0
1026 1 0.599017 0.146296 0
1028 1 0.623361 0.151983 0
1057 1 0.605385 0.17099 0
1058 1 0.629973 0.176517 0
1030 1 0.664911 0.140573 0
1059 1 0.646945 0.158685 0
1061 1 0.671225 0.164496 0
1032 1 0.689073 0.146809 0
1063 1 0.713626 0.153768 0
1062 1 0.695773 0.171818 0
1034 1 0.720647 0.176831 0
1006 1 0.754617 0.142438 0
1036 1 0.73819 0.159232 0
1067 1 0.762052 0.165937 0
1038 1 0.793399 0.150092 0
1069 1 0.810632 0.16652 0
1068 1 0.786292 0.17326 0
1040 1 0.817785 0.142623 0
1071 1 0.835088 0.16057 0
1042 1 0.858861 0.153464 0
1072 1 0.85266 0.177761 0
1045 1 0.907034 0.137921 0
1044 1 0.882562 0.14524 0
1075 1 0.901667 0.161886 0
1073 1 0.877543 0.169758 0
1048 1 0.948739 0.14581 0
1077 1 0.92551 0.154778 0
1078 1 0.943997 0.171157 0
1076 1 0.919625 0.179216 0
1050 1 0.972352 0.139078 0
1079 1 0.967541 0.163728 0
151 1 0.990748 0.156095 0
1080 1 0.986531 0.180373 0
1052 1 0.521467 0.192603 0
1082 1 0.528049 0.216397 0
1081 1 0.503768 0.210043 0
1054 1 0.563588 0.182034 0
1083 1 0.546217 0.199314 0
1084 1 0.552084 0.223428 0
1056 1 0.587759 0.188261 0
1085 1 0.570134 0.205745 0
1086 1 0.594585 0.212027 0
1087 1 0.612039 0.194167 0
1088 1 0.618804 0.219078 0
1089 1 0.636751 0.200585 0
1060 1 0.653859 0.182409 0
1091 1 0.678316 0.188913 0
1090 1 0.661454 0.207479 0
1119 1 0.642984 0.225164 0
1092 1 0.685299 0.213347 0
1093 1 0.702202 0.195338 0
1123 1 0.708886 0.218984 0
1064 1 0.725739 0.201348 0
1065 1 0.744538 0.183629 0
1066 1 0.768697 0.189285 0
1095 1 0.750391 0.207603 0
1094 1 0.733222 0.225044 0
1097 1 0.77466 0.213094 0
1099 1 0.804323 0.191856 0
1098 1 0.799946 0.215821 0
1100 1 0.823616 0.209714 0
1070 1 0.82858 0.18435 0
1101 1 0.847317 0.201836 0
1131 1 0.842672 0.226088 0
1102 1 0.865771 0.218469 0
1103 1 0.872392 0.194356 0
1074 1 0.896721 0.186348 0
1104 1 0.891164 0.210242 0
1105 1 0.914881 0.203816 0
1107 1 0.938448 0.195879 0
1106 1 0.932474 0.221572 0
1108 1 0.956207 0.212874 0
1109 1 0.961848 0.187995 0
1110 1 0.980074 0.204717 0
211 1 0.997766 0.22264 0
1111 1 0.509816 0.233618 0
1113 1 0.534468 0.24088 0
1112 1 0.516593 0.256757 0
1143 1 0.540617 0.264576 0
1115 1 0.576476 0.229817 0
1114 1 0.558548 0.247297 0
1116 1 0.582958 0.253298 0
1145 1 0.564564 0.270785 0
1117 1 0.600858 0.236264 0
1118 1 0.62493 0.242848 0
1147 1 0.606774 0.260489 0
1149 1 0.632343 0.266775 0
1121 1 0.667285 0.231485 0
1120 1 0.649962 0.249182 0
1151 1 0.675303 0.254711 0
1122 1 0.69189 0.237435 0
1124 1 0.716511 0.243275 0
1153 1 0.69911 0.261332 0
1154 1 0.723893 0.267606 0
1096 1 0.757998 0.230927 0
1125 1 0.740515 0.249591 0
1126 1 0.764642 0.254886 0
1127 1 0.781969 0.236321 0
1129 1 0.806191 0.241204 0
1128 1 0.789363 0.26046 0
1159 1 0.813491 0.265393 0
1130 1 0.830071 0.245836 0
1132 1 0.856452 0.247124 0
1161 1 0.838052 0.268868 0