ITEM: TIMESTEP
142000
ITEM: NUMBER OF ATOMS
1800
ITEM: BOX BOUNDS pp pp pp
1.1712870653767737e+00 1.6382871293461949e+02
1.1712870653767737e+00 1.6382871293461949e+02
0.0000000000000000e+00 5.5000000000000000e+00
ITEM: ATOMS id type xs ys zs
2 1 0.0144066 0.016291 0
3 1 0.0393732 0.00945712 0
33 1 0.0319519 0.0343745 0
31 1 0.00682214 0.040608 0
4 1 0.0558765 0.028048 0
6 1 0.0807476 0.0214954 0
5 1 0.0637557 0.00211426 0
8 1 0.104961 0.0158234 0
37 1 0.0976087 0.0396913 0
9 1 0.130201 0.00996065 0
39 1 0.121518 0.0332054 0
10 1 0.153433 0.0210804 0
41 1 0.17775 0.0316783 0
12 1 0.176214 0.00795137 0
40 1 0.158322 0.044792 0
14 1 0.198851 0.0192892 0
45 1 0.21986 0.0319589 0
15 1 0.219387 0.0065131 0
43 1 0.197728 0.0456636 0
16 1 0.240346 0.0185806 0
18 1 0.263134 0.0296231 0
17 1 0.260149 0.00520536 0
46 1 0.241659 0.0432187 0
49 1 0.286319 0.0389287 0
19 1 0.296278 0.0128995 0
20 1 0.31471 0.0288431 0
890 1 0.32007 0.00444943 0
21 1 0.339414 0.0202245 0
22 1 0.358908 0.0353196 0
51 1 0.334111 0.0447442 0
23 1 0.362676 0.0109046 0
24 1 0.384126 0.0268258 0
55 1 0.403534 0.0423547 0
25 1 0.407919 0.0180922 0
894 1 0.38794 0.00274564 0
26 1 0.426967 0.0330246 0
27 1 0.430993 0.00845687 0
28 1 0.449236 0.0242734 0
29 1 0.472896 0.0297213 0
900 1 0.490486 0.011404 0
898 1 0.466454 0.00619855 0
30 1 0.496669 0.0346724 0
32 1 0.023717 0.0588805 0
63 1 0.0415398 0.0763502 0
62 1 0.0180894 0.0830147 0
61 1 0.000185898 0.0644465 0
35 1 0.0727724 0.0455049 0
34 1 0.0484048 0.0522267 0
65 1 0.0653228 0.0704727 0
66 1 0.0828835 0.0875423 0
36 1 0.0896975 0.063254 0
38 1 0.11277 0.0578285 0
67 1 0.106295 0.0816265 0
68 1 0.129794 0.0764969 0
69 1 0.136014 0.0519733 0
71 1 0.154366 0.0692067 0
72 1 0.175134 0.0835509 0
42 1 0.177215 0.0590745 0
44 1 0.221372 0.0561708 0
73 1 0.19947 0.0702302 0
74 1 0.221058 0.0807797 0
47 1 0.2651 0.0540251 0
75 1 0.243499 0.0676886 0
77 1 0.265134 0.0786931 0
50 1 0.310254 0.0535585 0
48 1 0.287489 0.0656474 0
79 1 0.309088 0.078788 0
78 1 0.287049 0.0907222 0
81 1 0.331075 0.0686511 0
52 1 0.355307 0.0593538 0
82 1 0.351455 0.0828802 0
53 1 0.379336 0.0503282 0
83 1 0.375343 0.0750538 0
54 1 0.399418 0.0665915 0
56 1 0.425706 0.0584523 0
85 1 0.418541 0.0828388 0
87 1 0.444025 0.0879226 0
57 1 0.448967 0.0491906 0
59 1 0.47926 0.0530078 0
58 1 0.461661 0.070587 0
89 1 0.486153 0.0767461 0
92 1 0.0272525 0.124332 0
93 1 0.0346566 0.101414 0
91 1 0.00958098 0.106494 0
121 1 0.00270722 0.131328 0
64 1 0.0589796 0.0957282 0
94 1 0.0523344 0.119443 0
95 1 0.0770291 0.112934 0
96 1 0.0939815 0.130007 0
97 1 0.100703 0.106652 0
98 1 0.119105 0.123929 0
99 1 0.124327 0.099574 0
70 1 0.150067 0.092931 0
100 1 0.142958 0.116509 0
101 1 0.168751 0.110143 0
130 1 0.159473 0.13582 0
131 1 0.182755 0.131787 0
103 1 0.198425 0.0944295 0
102 1 0.20193 0.118678 0
104 1 0.222769 0.131344 0
105 1 0.222201 0.105673 0
76 1 0.243547 0.0916606 0
106 1 0.243453 0.116832 0
137 1 0.265035 0.127715 0
107 1 0.265728 0.10295 0
108 1 0.286912 0.116567 0
109 1 0.307483 0.104658 0
139 1 0.303171 0.135127 0
80 1 0.329074 0.0931861 0
110 1 0.325377 0.121996 0
111 1 0.34907 0.107835 0
141 1 0.347775 0.131545 0
84 1 0.395971 0.0930977 0
113 1 0.371598 0.0985603 0
112 1 0.387082 0.117596 0
143 1 0.370697 0.13737 0
115 1 0.410523 0.124339 0
86 1 0.426879 0.106266 0
116 1 0.436168 0.130357 0
117 1 0.451479 0.111965 0
88 1 0.468327 0.0934557 0
119 1 0.477511 0.117994 0
90 1 0.494101 0.100458 0
122 1 0.0219663 0.148465 0
153 1 0.0380426 0.166622 0
152 1 0.0142541 0.172965 0
123 1 0.0455917 0.142988 0
125 1 0.0698152 0.137086 0
124 1 0.0623961 0.160693 0
126 1 0.0877878 0.153864 0
155 1 0.0812783 0.178061 0
127 1 0.111718 0.147992 0
128 1 0.129767 0.164826 0
157 1 0.105508 0.172624 0
129 1 0.136021 0.141238 0
159 1 0.154258 0.159396 0
132 1 0.179233 0.157202 0
161 1 0.16885 0.179739 0
133 1 0.202017 0.146683 0
163 1 0.202482 0.172849 0
134 1 0.224566 0.157034 0
135 1 0.244114 0.142026 0
136 1 0.266389 0.151247 0
165 1 0.247217 0.167371 0
167 1 0.271892 0.175023 0
138 1 0.289952 0.157041 0
169 1 0.311898 0.166237 0
168 1 0.294721 0.182592 0
140 1 0.327558 0.147246 0
142 1 0.35354 0.154359 0
171 1 0.335789 0.171966 0
172 1 0.360595 0.17853 0
114 1 0.394723 0.142685 0
144 1 0.401647 0.166204 0
173 1 0.377686 0.160622 0
145 1 0.418868 0.149776 0
146 1 0.42628 0.173043 0
147 1 0.443357 0.155077 0
177 1 0.450476 0.179674 0
118 1 0.459677 0.136822 0
149 1 0.483499 0.142188 0
148 1 0.467295 0.160831 0
150 1 0.491103 0.1666 0
181 1 0.00722294 0.196365 0
183 1 0.0318435 0.189758 0
182 1 0.0262008 0.214288 0
154 1 0.0566465 0.184237 0
184 1 0.0493467 0.208083 0
185 1 0.0745537 0.202407 0
215 1 0.0667048 0.225283 0
186 1 0.0918843 0.220741 0
156 1 0.0983879 0.197077 0
158 1 0.122136 0.189663 0
187 1 0.116115 0.214174 0
160 1 0.145706 0.183613 0
189 1 0.140682 0.206334 0
191 1 0.166442 0.207002 0
162 1 0.188606 0.193144 0
193 1 0.211062 0.202023 0
192 1 0.191933 0.217637 0
194 1 0.216836 0.226183 0
164 1 0.227389 0.182307 0
195 1 0.234954 0.208841 0
166 1 0.252094 0.191324 0
196 1 0.259051 0.217046 0
197 1 0.276433 0.199326 0
199 1 0.300416 0.205826 0
198 1 0.283542 0.223279 0
170 1 0.318271 0.188997 0
201 1 0.342963 0.195234 0
200 1 0.324023 0.212626 0
202 1 0.34858 0.219577 0
174 1 0.384495 0.185414 0
203 1 0.366474 0.202544 0
233 1 0.373885 0.227136 0
204 1 0.39011 0.208718 0
175 1 0.408956 0.190902 0
205 1 0.414175 0.214858 0
176 1 0.432659 0.197091 0
207 1 0.438831 0.221048 0
180 1 0.499001 0.190693 0
179 1 0.474574 0.185259 0
178 1 0.456886 0.203378 0
209 1 0.48134 0.208837 0
208 1 0.463999 0.227226 0
212 1 0.0222529 0.257452 0
211 1 0.0144682 0.234126 0
213 1 0.0405208 0.23784 0
243 1 0.0468212 0.265268 0
214 1 0.0640688 0.248775 0
216 1 0.0892154 0.255622 0
188 1 0.131471 0.245018 0
217 1 0.108248 0.237342 0
218 1 0.113628 0.262065 0
190 1 0.150006 0.228821 0
219 1 0.137926 0.269045 0
221 1 0.174418 0.235016 0
220 1 0.15608 0.252469 0
222 1 0.181294 0.259832 0
223 1 0.198997 0.242653 0
224 1 0.223252 0.250412 0
253 1 0.205036 0.266603 0
225 1 0.241517 0.23319 0
227 1 0.265703 0.240533 0
226 1 0.2477 0.256942 0
257 1 0.271786 0.264406 0
229 1 0.307018 0.23055 0
228 1 0.289006 0.247326 0
230 1 0.313515 0.254618 0
259 1 0.295793 0.272119 0
231 1 0.33117 0.236475 0
232 1 0.35567 0.244231 0
261 1 0.337321 0.260855 0
263 1 0.361862 0.267968 0
235 1 0.397801 0.232853 0
234 1 0.380478 0.25017 0
265 1 0.404277 0.256097 0
206 1 0.421098 0.23891 0
237 1 0.445909 0.24554 0
236 1 0.428913 0.263111 0
238 1 0.453871 0.26901 0
210 1 0.487706 0.23387 0
239 1 0.471044 0.251281 0
240 1 0.495701 0.257525 0
242 1 0.0271926 0.281894 0
271 1 0.0104581 0.299556 0
273 1 0.0342061 0.305341 0
241 1 0.00386785 0.274894 0
245 1 0.0708541 0.273034 0
244 1 0.051971 0.28906 0
246 1 0.0769025 0.29623 0
275 1 0.0574219 0.313758 0
247 1 0.0955385 0.279399 0
249 1 0.120492 0.286373 0
248 1 0.101318 0.303865 0
279 1 0.124997 0.310649 0
251 1 0.162813 0.276702 0
250 1 0.144034 0.293397 0
281 1 0.168354 0.300804 0
280 1 0.149699 0.317342 0
252 1 0.186888 0.2838 0
254 1 0.210673 0.290132 0
283 1 0.193162 0.308302 0
284 1 0.216996 0.314329 0
255 1 0.22998 0.273998 0
256 1 0.253197 0.281754 0
285 1 0.236202 0.299108 0
287 1 0.260117 0.304497 0
258 1 0.278239 0.288857 0
288 1 0.282756 0.31266 0
289 1 0.301637 0.29609 0
260 1 0.320282 0.279014 0
262 1 0.344553 0.285224 0
291 1 0.32641 0.302852 0
292 1 0.351373 0.308932 0
264 1 0.386791 0.274365 0
293 1 0.368947 0.291426 0
295 1 0.392182 0.298211 0
294 1 0.375048 0.316619 0
266 1 0.411501 0.280846 0
296 1 0.417205 0.305418 0
267 1 0.435695 0.287697 0
297 1 0.442751 0.311193 0
269 1 0.477928 0.275094 0
268 1 0.459751 0.293505 0
270 1 0.485824 0.298503 0
299 1 0.466951 0.316035 0
1200 1 0.016404 0.323923 0
272 1 0.0401013 0.330895 0
301 1 0.0231977 0.348508 0
303 1 0.0468112 0.354621 0
276 1 0.0824876 0.320784 0
274 1 0.0654101 0.337778 0
304 1 0.0709603 0.362317 0
305 1 0.0891382 0.345559 0
277 1 0.106514 0.328513 0
278 1 0.129972 0.334059 0
307 1 0.113467 0.351553 0
309 1 0.13658 0.358087 0
282 1 0.174478 0.324537 0
311 1 0.15636 0.341584 0
312 1 0.180427 0.349129 0
313 1 0.198601 0.332214 0
314 1 0.205752 0.35757 0
315 1 0.223646 0.339582 0
286 1 0.241312 0.322628 0
317 1 0.265478 0.329968 0
316 1 0.248525 0.346535 0
318 1 0.271802 0.353483 0
290 1 0.308309 0.319256 0
319 1 0.290033 0.336598 0
349 1 0.296561 0.360024 0
320 1 0.314194 0.343557 0
321 1 0.33295 0.326016 0
323 1 0.356742 0.333085 0
322 1 0.338531 0.350259 0
355 1 0.362555 0.356538 0
325 1 0.399302 0.322432 0
324 1 0.381672 0.339699 0
326 1 0.405231 0.345762 0
298 1 0.449225 0.334459 0
327 1 0.424925 0.329103 0
328 1 0.430277 0.353131 0
359 1 0.455734 0.358238 0
300 1 0.491242 0.321992 0
329 1 0.47407 0.341042 0
1201 1 0.49726 0.346821 0
1230 1 0.00429028 0.364767 0
302 1 0.0292802 0.372206 0
332 1 0.0344162 0.397249 0
331 1 0.0115792 0.389075 0
333 1 0.0533444 0.379985 0
335 1 0.077701 0.385377 0
334 1 0.0589375 0.403473 0
306 1 0.0952177 0.368696 0
308 1 0.11949 0.376351 0
337 1 0.101377 0.392688 0
338 1 0.124914 0.400312 0
310 1 0.161192 0.36566 0
339 1 0.144085 0.382987 0
341 1 0.167058 0.390175 0
340 1 0.149121 0.408818 0
343 1 0.18616 0.373632 0
342 1 0.192864 0.396567 0
344 1 0.211423 0.381292 0
373 1 0.216606 0.405452 0
345 1 0.229845 0.36261 0
347 1 0.253533 0.370092 0
346 1 0.235117 0.387253 0
377 1 0.259889 0.393989 0
348 1 0.277868 0.377366 0
350 1 0.302745 0.383772 0
378 1 0.284191 0.401375 0
379 1 0.308174 0.407574 0
351 1 0.320547 0.367333 0
353 1 0.344577 0.374546 0
381 1 0.327477 0.39151 0
352 1 0.351764 0.398853 0
356 1 0.38865 0.363874 0
383 1 0.375771 0.405056 0
354 1 0.370266 0.380469 0
385 1 0.394986 0.388811 0
357 1 0.411655 0.37052 0
387 1 0.418959 0.394351 0
358 1 0.437138 0.377018 0
388 1 0.445013 0.401287 0
330 1 0.480242 0.364916 0
389 1 0.468509 0.407297 0
1232 1 0.486584 0.387833 0
360 1 0.46115 0.382759 0
361 1 0.0163544 0.414123 0
362 1 0.0232466 0.437526 0
363 1 0.040967 0.420965 0
364 1 0.0476592 0.444897 0
336 1 0.082528 0.409124 0
365 1 0.065036 0.427941 0
395 1 0.0713047 0.452922 0
366 1 0.0884284 0.434234 0
367 1 0.106626 0.418063 0
368 1 0.113877 0.442755 0
369 1 0.132095 0.425433 0
371 1 0.174123 0.413591 0
399 1 0.138013 0.449177 0
370 1 0.156724 0.432178 0
401 1 0.181006 0.43867 0
372 1 0.198411 0.420508 0
403 1 0.205866 0.446173 0
374 1 0.223906 0.428741 0
375 1 0.241242 0.411202 0
376 1 0.265209 0.417902 0
405 1 0.246833 0.435974 0
404 1 0.229052 0.454103 0
407 1 0.271275 0.442164 0
409 1 0.290064 0.424553 0
408 1 0.294742 0.449007 0
410 1 0.314683 0.431127 0
380 1 0.333616 0.414888 0
382 1 0.35759 0.421971 0
413 1 0.339351 0.438999 0
414 1 0.364173 0.445847 0
386 1 0.401875 0.412987 0
384 1 0.382789 0.429068 0
415 1 0.407389 0.436486 0
417 1 0.426121 0.418247 0
416 1 0.431817 0.44309 0
419 1 0.450253 0.425001 0
418 1 0.456155 0.450359 0
1261 1 0.493339 0.41253 0
390 1 0.475464 0.431079 0
1291 1 0.50078 0.436906 0
392 1 0.00487591 0.455322 0
393 1 0.0297437 0.461378 0
422 1 0.0118344 0.478975 0
423 1 0.0362478 0.486586 0
394 1 0.0537922 0.469955 0
396 1 0.077514 0.477265 0
425 1 0.0604946 0.494156 0
397 1 0.0953865 0.459455 0
398 1 0.121196 0.465931 0
427 1 0.103087 0.482406 0
428 1 0.126203 0.490469 0
400 1 0.162405 0.456496 0
429 1 0.144838 0.47418 0
431 1 0.168204 0.48078 0
430 1 0.150288 0.497373 0
402 1 0.186622 0.46373 0
432 1 0.192893 0.487344 0
433 1 0.21112 0.471642 0
434 1 0.218246 0.496781 0
406 1 0.253144 0.460015 0
435 1 0.235863 0.478552 0
436 1 0.259236 0.485178 0
437 1 0.276377 0.467057 0
439 1 0.301017 0.472044 0
440 1 0.307826 0.495765 0
438 1 0.282863 0.491396 0
411 1 0.31928 0.455716 0
412 1 0.345328 0.463083 0
441 1 0.326165 0.479211 0
442 1 0.351458 0.486673 0
445 1 0.388447 0.453068 0
443 1 0.370224 0.47038 0
444 1 0.394693 0.480133 0
473 1 0.375714 0.495721 0
449 1 0.44227 0.493869 0
448 1 0.41891 0.486125 0
446 1 0.41398 0.461277 0
447 1 0.43748 0.468196 0
479 1 0.466486 0.499613 0
420 1 0.461263 0.475219 0
450 1 0.487271 0.479443 0
1321 1 0.4807 0.455735 0
454 1 0.0252961 0.527775 0
453 1 0.0177631 0.503159 0
424 1 0.0425642 0.511573 0
452 1 0.00057011 0.521509 0
483 1 0.00773294 0.545798 0
485 1 0.0493289 0.536775 0
455 1 0.066256 0.519258 0
486 1 0.0732388 0.542987 0
426 1 0.0845746 0.500711 0
456 1 0.090477 0.524787 0
459 1 0.132045 0.514245 0
457 1 0.107821 0.508417 0
458 1 0.114395 0.533116 0
489 1 0.137554 0.538227 0
460 1 0.155865 0.521615 0
461 1 0.175112 0.504268 0
462 1 0.180846 0.527783 0
493 1 0.204586 0.53651 0
464 1 0.223477 0.520995 0
463 1 0.199462 0.512413 0
466 1 0.248472 0.529396 0
467 1 0.267316 0.512892 0
465 1 0.243743 0.504566 0
497 1 0.271816 0.540974 0
468 1 0.291783 0.526647 0
499 1 0.315716 0.541624 0
469 1 0.313956 0.517853 0
470 1 0.336248 0.527676 0
472 1 0.356471 0.511341 0
503 1 0.359585 0.536198 0
471 1 0.332818 0.502898 0
474 1 0.37937 0.519585 0
476 1 0.402932 0.52804 0
475 1 0.400502 0.503645 0
505 1 0.383259 0.544328 0
477 1 0.423951 0.511063 0
478 1 0.447142 0.521492 0
507 1 0.424984 0.538275 0
1381 1 0.482038 0.520554 0
480 1 0.465781 0.53738 0
1351 1 0.49814 0.502225 0
510 1 0.489487 0.54462 0
482 1 0.0138381 0.569926 0
513 1 0.0313912 0.55308 0
514 1 0.0373186 0.578288 0
484 1 0.0551431 0.561043 0
515 1 0.0786265 0.568602 0
545 1 0.061122 0.586558 0
487 1 0.0962252 0.550648 0
488 1 0.119541 0.558475 0
517 1 0.102039 0.576216 0
491 1 0.162824 0.545687 0
490 1 0.143794 0.561162 0
520 1 0.14626 0.584603 0
521 1 0.166626 0.570325 0
492 1 0.185743 0.553661 0
523 1 0.190296 0.578455 0
494 1 0.209218 0.561481 0
524 1 0.21271 0.588438 0
495 1 0.229022 0.54752 0
525 1 0.23212 0.572523 0
496 1 0.25238 0.556557 0
526 1 0.255212 0.58149 0
527 1 0.27542 0.567308 0
498 1 0.294013 0.552008 0
529 1 0.297949 0.579106 0
500 1 0.31892 0.565728 0
501 1 0.339144 0.551265 0
531 1 0.341672 0.575572 0
502 1 0.361947 0.559981 0
530 1 0.320895 0.590227 0
533 1 0.364086 0.584955 0
504 1 0.38476 0.568152 0
535 1 0.40592 0.579673 0
506 1 0.405587 0.553002 0
508 1 0.42707 0.564827 0
539 1 0.449493 0.575487 0
509 1 0.445938 0.550756 0
537 1 0.427075 0.589892 0
540 1 0.471141 0.561055 0
1441 1 0.495032 0.568824 0
569 1 0.475267 0.585375 0
512 1 0.0183606 0.593776 0
542 1 0.0223292 0.618532 0
543 1 0.0418075 0.603511 0
571 1 0.00236443 0.63258 0
544 1 0.0454069 0.628372 0
516 1 0.0841937 0.595732 0
546 1 0.0648176 0.612289 0
547 1 0.0871019 0.624716 0
519 1 0.122739 0.591434 0
518 1 0.106331 0.610419 0
548 1 0.1292 0.621627 0
577 1 0.108716 0.636822 0
522 1 0.170095 0.594566 0
549 1 0.150003 0.608427 0
550 1 0.151986 0.633319 0
551 1 0.172315 0.618639 0
553 1 0.193498 0.603373 0
552 1 0.194711 0.628328 0
554 1 0.21605 0.613272 0
555 1 0.236714 0.597224 0
556 1 0.238549 0.623447 0
557 1 0.258813 0.608441 0
587 1 0.261032 0.633563 0
528 1 0.278811 0.592462 0
559 1 0.301352 0.604302 0
558 1 0.281595 0.61828 0
560 1 0.30383 0.629809 0
561 1 0.324171 0.615959 0
532 1 0.344083 0.600446 0
562 1 0.346643 0.624773 0
563 1 0.366688 0.609473 0
534 1 0.385731 0.593949 0
565 1 0.389301 0.62088 0
536 1 0.407977 0.605491 0
564 1 0.369409 0.635742 0
566 1 0.412026 0.631297 0
538 1 0.448716 0.600154 0
567 1 0.430349 0.615106 0
568 1 0.452968 0.624988 0
570 1 0.470974 0.609214 0
1471 1 0.494031 0.614405 0
600 1 0.477319 0.632589 0
573 1 0.0251347 0.643218 0
603 1 0.0258708 0.669436 0
572 1 0.00468803 0.658566 0
574 1 0.0468655 0.654067 0
575 1 0.066558 0.640487 0
605 1 0.068488 0.667119 0
576 1 0.0883058 0.651292 0
604 1 0.04773 0.679735 0
607 1 0.0905494 0.677196 0
578 1 0.11191 0.662161 0
579 1 0.130951 0.647432 0
609 1 0.133878 0.672313 0
581 1 0.175376 0.643559 0
580 1 0.155171 0.6581 0
611 1 0.177654 0.66859 0
583 1 0.217611 0.638674 0
582 1 0.196835 0.654073 0
584 1 0.219335 0.663034 0
613 1 0.201162 0.67873 0
585 1 0.24059 0.648147 0
586 1 0.262885 0.658251 0
615 1 0.242235 0.673775 0
589 1 0.283165 0.643981 0
588 1 0.285383 0.669623 0
590 1 0.305342 0.655416 0
619 1 0.309609 0.68032 0
591 1 0.325717 0.641478 0
593 1 0.349797 0.650458 0
621 1 0.32845 0.665417 0
592 1 0.353004 0.675659 0
594 1 0.372461 0.660591 0
595 1 0.391714 0.64601 0
627 1 0.394803 0.671972 0
597 1 0.434745 0.641208 0
596 1 0.41391 0.656639 0
598 1 0.43877 0.666196 0
657 1 0.4179 0.681461 0
599 1 0.458432 0.648955 0
1501 1 0.500042 0.639063 0
629 1 0.481581 0.65688 0
628 1 0.462476 0.675744 0
630 1 0.48689 0.681351 0
602 1 0.0045156 0.682678 0
633 1 0.0271691 0.69429 0
632 1 0.00653557 0.707212 0
634 1 0.0291792 0.718896 0
635 1 0.0495184 0.704304 0
606 1 0.0710696 0.690495 0
636 1 0.0725986 0.715312 0
637 1 0.0939947 0.701868 0
608 1 0.112839 0.687166 0
638 1 0.116184 0.711334 0
639 1 0.1367 0.697287 0
667 1 0.0953976 0.726346 0
640 1 0.138312 0.722337 0
610 1 0.156209 0.682805 0
641 1 0.158638 0.7078 0
612 1 0.179487 0.692781 0
642 1 0.181592 0.71858 0
614 1 0.223409 0.689225 0
643 1 0.202775 0.703618 0
645 1 0.224958 0.714089 0
617 1 0.26549 0.684046 0
616 1 0.245819 0.700836 0
647 1 0.269303 0.709407 0
646 1 0.249101 0.725094 0
618 1 0.289294 0.694786 0
620 1 0.311798 0.705838 0
649 1 0.292157 0.720807 0
622 1 0.331806 0.690809 0
651 1 0.334516 0.715577 0
623 1 0.355037 0.701371 0
653 1 0.35794 0.726556 0
625 1 0.375245 0.685901 0
624 1 0.377926 0.710885 0
626 1 0.398826 0.696721 0
655 1 0.399696 0.720816 0
656 1 0.422009 0.705722 0
658 1 0.441774 0.691011 0
689 1 0.446744 0.715678 0
659 1 0.468831 0.702202 0
1531 1 0.494752 0.705766 0
660 1 0.480344 0.72577 0
663 1 0.00857435 0.73329 0
664 1 0.0310436 0.743858 0
694 1 0.033771 0.768679 0
662 1 0.0105992 0.757439 0
665 1 0.051716 0.728725 0
666 1 0.0741546 0.739401 0
695 1 0.0542289 0.753101 0
697 1 0.0759996 0.764852 0
669 1 0.118038 0.736765 0
668 1 0.0969406 0.751304 0
699 1 0.119594 0.761557 0
670 1 0.139675 0.747942 0
671 1 0.160612 0.732858 0
672 1 0.162025 0.758488 0
701 1 0.142294 0.772286 0
673 1 0.183007 0.74435 0
644 1 0.204471 0.72921 0
703 1 0.186673 0.768996 0
674 1 0.208608 0.753831 0
675 1 0.228255 0.738687 0
705 1 0.230296 0.764227 0
677 1 0.251376 0.7492 0
648 1 0.27179 0.734811 0
678 1 0.272959 0.76091 0
650 1 0.31521 0.730459 0
679 1 0.294397 0.745309 0
709 1 0.295474 0.770611 0
681 1 0.316785 0.756479 0
652 1 0.336629 0.741733 0
682 1 0.338874 0.767397 0
683 1 0.359293 0.751782 0
654 1 0.380045 0.736483 0
685 1 0.402492 0.746183 0
684 1 0.382497 0.760947 0
714 1 0.406491 0.772459 0
715 1 0.424991 0.756659 0
686 1 0.422735 0.729718 0
687 1 0.443449 0.7402 0
717 1 0.448035 0.765077 0
688 1 0.466069 0.747313 0
690 1 0.489273 0.751245 0
719 1 0.472055 0.771186 0
693 1 0.0125009 0.782114 0
692 1 0.0135465 0.80774 0
723 1 0.0348768 0.794545 0
722 1 0.0375734 0.819809 0
696 1 0.055417 0.778812 0
725 1 0.0571326 0.803974 0
727 1 0.0771082 0.790496 0
726 1 0.0791926 0.816369 0
698 1 0.0981017 0.777055 0
728 1 0.10022 0.801621 0
729 1 0.123298 0.812249 0
700 1 0.120663 0.786408 0
702 1 0.164962 0.783421 0
731 1 0.1429 0.796992 0
732 1 0.166394 0.807578 0
733 1 0.187896 0.793938 0
704 1 0.209067 0.779734 0
735 1 0.211017 0.804196 0
676 1 0.253519 0.775169 0
706 1 0.232399 0.790797 0
736 1 0.233666 0.815535 0
737 1 0.255567 0.800748 0
707 1 0.275325 0.786253 0
708 1 0.27688 0.812716 0
710 1 0.297822 0.796464 0
680 1 0.318673 0.781908 0
741 1 0.320241 0.806172 0
713 1 0.363536 0.776736 0
711 1 0.342118 0.79164 0
742 1 0.343268 0.818071 0
712 1 0.366173 0.80132 0
743 1 0.387351 0.787661 0
745 1 0.389503 0.813275 0
746 1 0.410088 0.798235 0
716 1 0.429532 0.78157 0
747 1 0.436501 0.807536 0
718 1 0.453582 0.788637 0
1591 1 0.496431 0.773818 0
720 1 0.480865 0.793764 0
749 1 0.463368 0.811153 0
1621 1 0.490757 0.815508 0
751 1 0.0165673 0.831545 0
752 1 0.0155933 0.857913 0
753 1 0.0372675 0.8447 0
724 1 0.0587437 0.830787 0
755 1 0.0809446 0.841538 0
754 1 0.0591945 0.8557 0
756 1 0.103457 0.850879 0
757 1 0.102689 0.826542 0
759 1 0.125722 0.837472 0
758 1 0.126406 0.862237 0
730 1 0.146135 0.822082 0
760 1 0.148023 0.846961 0
761 1 0.168788 0.832238 0
791 1 0.170378 0.858431 0
763 1 0.189949 0.818607 0
734 1 0.212651 0.828892 0
762 1 0.191269 0.843597 0
764 1 0.214327 0.853472 0
767 1 0.256778 0.826755 0
765 1 0.23583 0.840103 0
766 1 0.258295 0.852707 0
739 1 0.29979 0.821014 0
738 1 0.279752 0.837085 0
768 1 0.281053 0.862075 0
769 1 0.302525 0.847558 0
740 1 0.321703 0.832278 0
771 1 0.343601 0.842511 0
770 1 0.325277 0.859017 0
744 1 0.36748 0.825072 0
773 1 0.367426 0.849253 0
774 1 0.389102 0.837435 0
803 1 0.387796 0.863032 0
776 1 0.409156 0.851482 0
775 1 0.414857 0.825899 0
777 1 0.432714 0.847326 0
748 1 0.448555 0.829496 0
750 1 0.473631 0.83362 0
779 1 0.457005 0.853357 0
780 1 0.482392 0.857817 0
1651 1 0.499416 0.83863 0
783 1 0.0372037 0.869999 0
782 1 0.0156471 0.883372 0
813 1 0.0380824 0.894596 0
812 1 0.00221123 0.906226 0
785 1 0.0819682 0.86564 0
784 1 0.0587628 0.880338 0
786 1 0.0818089 0.89038 0
815 1 0.0616547 0.904109 0
787 1 0.104798 0.876873 0
788 1 0.126836 0.887286 0
817 1 0.105424 0.901221 0
819 1 0.150178 0.897744 0
789 1 0.14848 0.871745 0
790 1 0.171157 0.882828 0
821 1 0.173557 0.908057 0
792 1 0.193957 0.868804 0
793 1 0.216428 0.879247 0
823 1 0.193984 0.894358 0
794 1 0.217768 0.9043 0
795 1 0.23703 0.866469 0
796 1 0.238597 0.891125 0
827 1 0.264091 0.902216 0
797 1 0.260679 0.877291 0
799 1 0.303809 0.872001 0
798 1 0.292365 0.894516 0
800 1 0.318785 0.890121 0
801 1 0.341019 0.880774 0
831 1 0.337284 0.906425 0
802 1 0.359875 0.897601 0
772 1 0.36433 0.873171 0
804 1 0.383959 0.887744 0
806 1 0.404119 0.904545 0
805 1 0.407599 0.877451 0
778 1 0.43899 0.870978 0
807 1 0.426767 0.894804 0
808 1 0.451115 0.894284 0
809 1 0.465849 0.875758 0
810 1 0.474939 0.899863 0
1681 1 0.49082 0.881061 0
842 1 0.0107793 0.949373 0
843 1 0.0177754 0.925698 0
844 1 0.0352868 0.942702 0
814 1 0.0418965 0.918556 0
816 1 0.0829014 0.915092 0
845 1 0.0625671 0.932835 0
846 1 0.0779124 0.953932 0
818 1 0.128545 0.910862 0
847 1 0.106652 0.925767 0
849 1 0.129014 0.936078 0
848 1 0.10643 0.951002 0
820 1 0.150065 0.922543 0
850 1 0.151955 0.946515 0
851 1 0.173699 0.932948 0
824 1 0.218227 0.928733 0
822 1 0.195341 0.919206 0
853 1 0.197301 0.943918 0
825 1 0.240033 0.916121 0
855 1 0.240109 0.942034 0
826 1 0.262406 0.929281 0
829 1 0.310858 0.912755 0
828 1 0.28629 0.92037 0
857 1 0.283382 0.945926 0
859 1 0.305682 0.9368 0
832 1 0.355101 0.922362 0
830 1 0.331126 0.930214 0
863 1 0.351979 0.945996 0
833 1 0.379597 0.913578 0
834 1 0.375535 0.937304 0
865 1 0.395404 0.952867 0
835 1 0.399133 0.928437 0
837 1 0.424594 0.91992 0
838 1 0.442983 0.935783 0
836 1 0.419485 0.944034 0
839 1 0.458017 0.917449 0
840 1 0.484309 0.923045 0
1741 1 0.492119 0.946518 0
869 1 0.46783 0.941321 0
871 1 0.00465046 0.973671 0
872 1 0.0221888 0.991032 0
873 1 0.0283498 0.966683 0
874 1 0.0466087 0.984456 0
875 1 0.0531902 0.960319 0
876 1 0.0706628 0.978744 0
7 1 0.0876122 0.99705 0
877 1 0.0940341 0.972535 0
878 1 0.110712 0.990843 0
879 1 0.130453 0.960227 0
880 1 0.133382 0.985249 0
852 1 0.174317 0.957745 0
881 1 0.154242 0.972458 0
882 1 0.176191 0.98251 0
11 1 0.15431 0.996736 0
854 1 0.218583 0.954922 0
883 1 0.197722 0.968709 0
13 1 0.197364 0.994323 0
884 1 0.218238 0.981189 0
856 1 0.261348 0.955074 0
885 1 0.240383 0.967429 0
886 1 0.239344 0.992872 0
887 1 0.260597 0.980382 0
860 1 0.306586 0.961711 0
858 1 0.282399 0.970062 0
888 1 0.28039 0.994112 0
889 1 0.302914 0.987182 0
861 1 0.329517 0.954595 0
862 1 0.348595 0.970626 0
891 1 0.325905 0.978792 0
892 1 0.344417 0.994981 0
864 1 0.371697 0.962049 0
893 1 0.368298 0.986793 0
895 1 0.391045 0.977331 0
867 1 0.448863 0.960517 0
896 1 0.411428 0.99334 0
866 1 0.41391 0.969039 0
897 1 0.433981 0.98338 0
899 1 0.483197 0.987787 0
870 1 0.474599 0.964426 0
868 1 0.458407 0.983468 0
1771 1 0.500179 0.969742 0
902 1 0.539122 0.0231414 0
931 1 0.522142 0.0407659 0
901 1 0.51456 0.0167444 0
904 1 0.562799 0.0282255 0
906 1 0.580498 0.00920885 0
935 1 0.587685 0.0333469 0
905 1 0.555981 0.00477095 0
908 1 0.604538 0.0149716 0
937 1 0.611372 0.0393363 0
939 1 0.628904 0.0210961 0
940 1 0.652429 0.0160874 0
971 1 0.671199 0.0319165 0
942 1 0.677053 0.00880638 0
943 1 0.701771 0.00499563 0
944 1 0.694527 0.0294859 0
945 1 0.719191 0.0231909 0
947 1 0.742559 0.0178425 0
948 1 0.760011 0.0354982 0
918 1 0.767026 0.011061 0
946 1 0.735854 0.0414059 0
919 1 0.791735 0.00551087 0
949 1 0.7843 0.0294335 0
920 1 0.809363 0.0235033 0
951 1 0.832728 0.0184032 0
952 1 0.850408 0.0348227 0
922 1 0.857363 0.0109497 0
950 1 0.825846 0.0421023 0
953 1 0.874274 0.0294532 0
955 1 0.899389 0.0229666 0
924 1 0.881245 0.00439642 0
926 1 0.92324 0.0166559 0
928 1 0.948063 0.0109942 0
957 1 0.940933 0.0348159 0
956 1 0.916862 0.0419631 0
929 1 0.972465 0.00463681 0
930 1 0.990317 0.0217117 0
959 1 0.965675 0.0286431 0
932 1 0.52887 0.0653314 0
962 1 0.53642 0.0878521 0
961 1 0.510704 0.0832372 0
60 1 0.504483 0.0589897 0
933 1 0.545514 0.0471273 0
934 1 0.570475 0.0518738 0
963 1 0.553928 0.0705273 0
965 1 0.578103 0.076049 0
936 1 0.595443 0.0577716 0
966 1 0.603223 0.0820295 0
967 1 0.619937 0.0633384 0
968 1 0.627145 0.0875184 0
938 1 0.636077 0.0450761 0
969 1 0.643075 0.0696451 0
970 1 0.660801 0.0527425 0
972 1 0.671574 0.0744048 0
975 1 0.711518 0.0471904 0
973 1 0.686061 0.0538656 0
1003 1 0.696399 0.0788858 0
1004 1 0.720363 0.089554 0
974 1 0.727944 0.0653486 0
976 1 0.752336 0.0589103 0
1005 1 0.744483 0.0834471 0
1007 1 0.768941 0.0779329 0
979 1 0.801478 0.0486422 0
977 1 0.776429 0.0540116 0
978 1 0.79451 0.0723029 0
1009 1 0.811797 0.0911977 0
980 1 0.819364 0.0658155 0
981 1 0.844302 0.0589551 0
1011 1 0.836169 0.0845265 0
982 1 0.861333 0.0765498 0
954 1 0.892443 0.0471899 0
983 1 0.86804 0.0531218 0
984 1 0.885913 0.0710256 0
1015 1 0.902759 0.08923 0
985 1 0.910818 0.0655905 0
986 1 0.927053 0.0836689 0
987 1 0.934167 0.0593619 0
988 1 0.951945 0.0767774 0
960 1 0.983001 0.0465401 0
958 1 0.958449 0.0531612 0
989 1 0.976693 0.0705076 0
990 1 0.993549 0.0884712 0
991 1 0.519963 0.106244 0
992 1 0.526063 0.131215 0
120 1 0.502391 0.123872 0
993 1 0.54366 0.113586 0
964 1 0.560509 0.0940538 0
994 1 0.568208 0.118037 0
995 1 0.585077 0.1007 0
996 1 0.592219 0.124086 0
997 1 0.609609 0.106482 0
1027 1 0.618017 0.129483 0
998 1 0.634298 0.110999 0
999 1 0.652089 0.0926118 0
1000 1 0.659687 0.11653 0
1001 1 0.675953 0.0985614 0
1029 1 0.641896 0.134891 0
1031 1 0.683655 0.121914 0
1002 1 0.70026 0.103386 0
1033 1 0.707914 0.12757 0
1006 1 0.760613 0.10171 0
1035 1 0.735853 0.107933 0
1036 1 0.754728 0.125849 0
1034 1 0.731846 0.131749 0
1037 1 0.779421 0.118712 0
1008 1 0.786948 0.0958955 0
1039 1 0.803906 0.113773 0
1010 1 0.829628 0.108968 0
1012 1 0.854504 0.101243 0
1041 1 0.846881 0.127823 0
1040 1 0.822404 0.132545 0
1043 1 0.870999 0.120274 0
1013 1 0.879131 0.0947181 0
1014 1 0.895902 0.113655 0
1016 1 0.913129 0.13234 0
1017 1 0.919917 0.108194 0
1018 1 0.944705 0.102027 0
1047 1 0.936943 0.125714 0
1019 1 0.969499 0.0945854 0
1020 1 0.986504 0.112822 0
1049 1 0.962057 0.119949 0
1021 1 0.508364 0.14843 0
1022 1 0.532768 0.154925 0
1053 1 0.540261 0.178455 0
1051 1 0.515653 0.173172 0
1023 1 0.551237 0.13759 0
1025 1 0.575547 0.143483 0
1024 1 0.558544 0.16138 0
1055 1 0.582939 0.167038 0
1026 1 0.600208 0.148331 0
1028 1 0.624786 0.154011 0
1057 1 0.607177 0.172566 0
1058 1 0.632231 0.177759 0
1059 1 0.64855 0.158781 0
1030 1 0.666355 0.13964 0
1061 1 0.67396 0.164325 0
1032 1 0.690711 0.146337 0
1063 1 0.715857 0.151861 0
1062 1 0.69805 0.170227 0
1064 1 0.723801 0.17534 0
1065 1 0.740597 0.156545 0
1066 1 0.765136 0.16538 0
1095 1 0.746918 0.182044 0
1067 1 0.773261 0.142313 0
1038 1 0.797837 0.138045 0
1068 1 0.790204 0.162082 0
1069 1 0.814977 0.157285 0
1099 1 0.805941 0.182072 0
1071 1 0.839297 0.151399 0
1070 1 0.832074 0.175776 0
1072 1 0.856015 0.170112 0
1042 1 0.864442 0.145454 0
1044 1 0.888649 0.138337 0
1073 1 0.880881 0.162954 0
1045 1 0.906156 0.157 0
1075 1 0.922422 0.175058 0
1046 1 0.930486 0.150462 0
1077 1 0.949024 0.168086 0
1050 1 0.978778 0.137391 0
1048 1 0.954865 0.143792 0
1079 1 0.972228 0.16182 0
1080 1 0.990137 0.178883 0
151 1 0.99715 0.155157 0
1052 1 0.522728 0.197445 0
1082 1 0.529844 0.221578 0
1081 1 0.505407 0.215162 0
1054 1 0.565196 0.184478 0
1083 1 0.547639 0.203425 0
1085 1 0.571952 0.207811 0
1056 1 0.589924 0.190776 0
1084 1 0.554653 0.225959 0
1086 1 0.59739 0.213953 0
1087 1 0.615144 0.1961 0
1088 1 0.62173 0.219989 0
1060 1 0.656572 0.18208 0
1089 1 0.639455 0.200893 0
1090 1 0.663495 0.206882 0
1119 1 0.645722 0.225183 0
1091 1 0.681346 0.188518 0
1092 1 0.688375 0.212199 0
1093 1 0.705797 0.192998 0
1123 1 0.713237 0.217704 0
1094 1 0.729907 0.199 0
1096 1 0.755914 0.204592 0
1125 1 0.737273 0.222226 0
1127 1 0.782719 0.211025 0
1097 1 0.778803 0.186486 0
1098 1 0.806879 0.21702 0
1100 1 0.826445 0.200032 0
1101 1 0.851626 0.203704 0
1129 1 0.832282 0.223914 0
1074 1 0.899258 0.182097 0
1102 1 0.876552 0.211719 0
1103 1 0.87342 0.187812 0
1133 1 0.900659 0.219633 0
1104 1 0.917282 0.201133 0
1105 1 0.941858 0.214014 0
1076 1 0.940924 0.190907 0
1078 1 0.965083 0.186588 0
1107 1 0.965847 0.219483 0
1109 1 0.98387 0.20265 0
1110 1 0.99161 0.225553 0
1111 1 0.512125 0.239293 0
1113 1 0.537449 0.244734 0
1112 1 0.519547 0.263287 0
1143 1 0.543644 0.268339 0
1114 1 0.561719 0.249301 0
1115 1 0.579825 0.231522 0
1116 1 0.586881 0.255017 0
1117 1 0.604013 0.238136 0
1118 1 0.62828 0.243508 0
1147 1 0.611573 0.262008 0
1149 1 0.636299 0.267054 0
1121 1 0.671325 0.230996 0
1120 1 0.65341 0.248945 0
1151 1 0.678127 0.254972 0
1122 1 0.695662 0.236292 0
1124 1 0.719623 0.241605 0
1153 1 0.701969 0.260647 0
1154 1 0.727346 0.264773 0
1126 1 0.765074 0.229245 0
1155 1 0.744861 0.246695 0
1157 1 0.770948 0.252965 0
1156 1 0.751679 0.271129 0
1128 1 0.790192 0.235987 0
1159 1 0.814277 0.24127 0
1158 1 0.795779 0.260504 0
1160 1 0.819724 0.265905 0
1131 1 0.857346 0.227935 0
1130 1 0.839048 0.246988 0
1161 1 0.861934 0.255132 0
1132 1 0.881301 0.237829 0
1163 1 0.886047 0.262305 0
1134 1 0.904758 0.245729 0
1135 1 0.923392 0.229271 0
1165 1 0.911064 0.270309 0