ITEM: TIMESTEP
114000
ITEM: NUMBER OF ATOMS
1800
ITEM: BOX BOUNDS pp pp pp
8.7633404791634462e-01 1.6412366595208323e+02
8.7633404791634462e-01 1.6412366595208323e+02
0.0000000000000000e+00 5.5000000000000000e+00
ITEM: ATOMS id type xs ys zs
2 1 0.018128 0.0100017 0
33 1 0.03269 0.0292436 0
31 1 0.00870743 0.0326878 0
3 1 0.0426478 0.00654538 0
4 1 0.0580041 0.0253819 0
5 1 0.0688146 0.00205472 0
6 1 0.0827023 0.022058 0
35 1 0.0726938 0.0448749 0
8 1 0.105726 0.0180426 0
39 1 0.127056 0.0291076 0
37 1 0.0981151 0.0415151 0
9 1 0.124848 0.00279771 0
10 1 0.147009 0.0134703 0
41 1 0.170634 0.0238437 0
40 1 0.150591 0.0372903 0
12 1 0.190755 0.00997222 0
43 1 0.191023 0.03754 0
14 1 0.210924 0.0215725 0
15 1 0.232197 0.00674567 0
45 1 0.233014 0.0326541 0
16 1 0.253546 0.0170608 0
46 1 0.256305 0.0408085 0
18 1 0.276988 0.0258688 0
49 1 0.301365 0.0201966 0
51 1 0.315672 0.0403556 0
17 1 0.277844 0.000510549 0
20 1 0.329095 0.01967 0
21 1 0.349883 0.00394784 0
22 1 0.356093 0.0272231 0
52 1 0.339571 0.0453079 0
24 1 0.38121 0.0323285 0
23 1 0.374725 0.00825261 0
55 1 0.405069 0.037111 0
894 1 0.398775 0.013463 0
25 1 0.423801 0.0188861 0
26 1 0.429938 0.0424367 0
27 1 0.448172 0.0249216 0
897 1 0.43996 0.000960499 0
29 1 0.471468 0.0304596 0
900 1 0.48906 0.0121867 0
898 1 0.463739 0.0063156 0
30 1 0.49605 0.0362339 0
32 1 0.0239288 0.0522339 0
62 1 0.0148178 0.0761275 0
63 1 0.0391535 0.0712866 0
61 1 2.10736e-05 0.056428 0
34 1 0.0480384 0.0492115 0
65 1 0.0637419 0.0681016 0
36 1 0.0882341 0.0647396 0
66 1 0.0798001 0.0869433 0
38 1 0.112826 0.0629314 0
68 1 0.129353 0.0819329 0
69 1 0.133726 0.0533971 0
67 1 0.104423 0.0852335 0
71 1 0.151491 0.0697595 0
42 1 0.170702 0.052279 0
72 1 0.173953 0.0789918 0
44 1 0.212369 0.0474413 0
73 1 0.192161 0.0635111 0
74 1 0.215837 0.0722521 0
103 1 0.196804 0.088748 0
75 1 0.235905 0.0567627 0
77 1 0.259125 0.0663026 0
76 1 0.239861 0.0810772 0
47 1 0.278426 0.04951 0
48 1 0.281676 0.0750741 0
79 1 0.304567 0.0835312 0
50 1 0.30036 0.059524 0
81 1 0.3238 0.0650825 0
82 1 0.347381 0.0707979 0
80 1 0.328706 0.0885213 0
83 1 0.364126 0.050547 0
53 1 0.388631 0.0557784 0
54 1 0.395947 0.0786141 0
113 1 0.37083 0.0751401 0
57 1 0.436929 0.0668068 0
56 1 0.412613 0.0609751 0
85 1 0.420114 0.084352 0
87 1 0.445765 0.0899904 0
28 1 0.454627 0.048701 0
59 1 0.478098 0.054932 0
58 1 0.461944 0.0727126 0
89 1 0.486129 0.0783814 0
92 1 0.0219744 0.11795 0
93 1 0.0310311 0.0940628 0
91 1 0.0060511 0.0991521 0
64 1 0.0558829 0.0910569 0
94 1 0.0462905 0.113314 0
95 1 0.0729287 0.110009 0
96 1 0.0891661 0.130811 0
125 1 0.0629974 0.13223 0
97 1 0.0967399 0.107476 0
99 1 0.131913 0.109128 0
98 1 0.113706 0.125593 0
129 1 0.136631 0.135996 0
70 1 0.152496 0.0952295 0
100 1 0.154793 0.119453 0
101 1 0.176327 0.104257 0
131 1 0.179281 0.128449 0
102 1 0.199246 0.113723 0
104 1 0.222641 0.122161 0
105 1 0.219716 0.0970435 0
107 1 0.262326 0.0905785 0
106 1 0.243181 0.105506 0
135 1 0.246146 0.131106 0
137 1 0.265366 0.115269 0
78 1 0.285734 0.0988727 0
108 1 0.289545 0.122596 0
109 1 0.310239 0.107414 0
139 1 0.312128 0.131302 0
110 1 0.334494 0.113382 0
111 1 0.353559 0.0955276 0
141 1 0.359247 0.121496 0
112 1 0.379229 0.0980472 0
143 1 0.386291 0.120866 0
84 1 0.403598 0.102906 0
115 1 0.412079 0.125523 0
86 1 0.42836 0.107917 0
116 1 0.436173 0.132714 0
117 1 0.45152 0.113796 0
88 1 0.469422 0.0960892 0
90 1 0.493366 0.102042 0
119 1 0.476078 0.1199 0
123 1 0.0378125 0.136696 0
122 1 0.012238 0.140778 0
153 1 0.0279293 0.159072 0
152 1 0.00254878 0.16314 0
154 1 0.0430625 0.179427 0
183 1 0.0187183 0.182776 0
124 1 0.0531566 0.15627 0
126 1 0.0772919 0.152542 0
155 1 0.0680977 0.175389 0
127 1 0.105328 0.149893 0
128 1 0.120503 0.171902 0
157 1 0.0935295 0.171602 0
159 1 0.141895 0.160733 0
130 1 0.159613 0.144331 0
161 1 0.1647 0.170157 0
133 1 0.202909 0.138834 0
132 1 0.184403 0.154916 0
163 1 0.208084 0.164884 0
162 1 0.187892 0.179356 0
134 1 0.226365 0.147447 0
136 1 0.268955 0.139212 0
164 1 0.231796 0.171117 0
165 1 0.25084 0.15616 0
166 1 0.254622 0.180604 0
167 1 0.27442 0.164439 0
138 1 0.292858 0.148063 0
168 1 0.297464 0.172852 0
169 1 0.316315 0.156303 0
140 1 0.3352 0.138771 0
142 1 0.358528 0.147569 0
171 1 0.339424 0.164265 0
172 1 0.36151 0.174143 0
170 1 0.320307 0.181304 0
114 1 0.396061 0.142882 0
144 1 0.402429 0.166542 0
173 1 0.379606 0.159189 0
145 1 0.419509 0.149477 0
147 1 0.44285 0.156722 0
146 1 0.425721 0.174027 0
177 1 0.449782 0.180761 0
118 1 0.459808 0.138297 0
149 1 0.48327 0.144911 0
148 1 0.466218 0.163194 0
150 1 0.490219 0.169 0
182 1 0.00833975 0.205283 0
184 1 0.0336542 0.201198 0
213 1 0.0242698 0.223769 0
185 1 0.0600114 0.198857 0
156 1 0.0835364 0.194574 0
186 1 0.0754723 0.217446 0
215 1 0.0490247 0.220712 0
158 1 0.107369 0.193667 0
189 1 0.128562 0.205617 0
187 1 0.108131 0.220379 0
160 1 0.144955 0.185308 0
191 1 0.169532 0.196495 0
190 1 0.151028 0.212388 0
221 1 0.175007 0.22226 0
193 1 0.212395 0.188844 0
192 1 0.193105 0.204711 0
194 1 0.216446 0.214852 0
195 1 0.235859 0.196648 0
196 1 0.259132 0.205287 0
225 1 0.240305 0.221994 0
197 1 0.278272 0.189555 0
199 1 0.301951 0.198366 0
198 1 0.283711 0.214528 0
229 1 0.306245 0.223237 0
201 1 0.343255 0.190094 0
200 1 0.324789 0.205894 0
202 1 0.348523 0.215533 0
174 1 0.384116 0.183653 0
203 1 0.365516 0.198131 0
204 1 0.3901 0.207146 0
233 1 0.372005 0.222675 0
175 1 0.40792 0.190672 0
205 1 0.413815 0.21464 0
176 1 0.431691 0.197093 0
207 1 0.437163 0.221353 0
179 1 0.473145 0.187588 0
178 1 0.455301 0.204547 0
180 1 0.497504 0.193338 0
209 1 0.478867 0.21205 0
243 1 0.015278 0.246132 0
214 1 0.0402826 0.243246 0
244 1 0.0311893 0.265389 0
242 1 0.00691836 0.269738 0
216 1 0.0652371 0.240255 0
245 1 0.055509 0.262954 0
217 1 0.0901308 0.23841 0
188 1 0.132107 0.230808 0
218 1 0.113694 0.247734 0
247 1 0.094545 0.263132 0
249 1 0.1197 0.271592 0
219 1 0.137571 0.254928 0
220 1 0.155439 0.237484 0
251 1 0.160961 0.264217 0
222 1 0.178611 0.246933 0
223 1 0.198182 0.231346 0
224 1 0.221436 0.239108 0
253 1 0.20314 0.255289 0
252 1 0.185806 0.272097 0
255 1 0.227326 0.262665 0
227 1 0.264098 0.229857 0
226 1 0.245518 0.246195 0
257 1 0.269877 0.255362 0
256 1 0.251097 0.271912 0
228 1 0.2883 0.239079 0
230 1 0.311402 0.246822 0
259 1 0.293394 0.263392 0
260 1 0.317231 0.273014 0
231 1 0.329703 0.231145 0
232 1 0.353061 0.240055 0
261 1 0.334793 0.255723 0
263 1 0.359116 0.263603 0
235 1 0.395957 0.231506 0
234 1 0.37737 0.246868 0
265 1 0.401857 0.254979 0
264 1 0.382548 0.270879 0
206 1 0.420139 0.238969 0
237 1 0.444122 0.245619 0
236 1 0.426484 0.262816 0
238 1 0.449511 0.270651 0
208 1 0.461625 0.228876 0
210 1 0.485642 0.236135 0
239 1 0.467981 0.253008 0
240 1 0.491789 0.259647 0
271 1 0.0218508 0.28891 0
272 1 0.0381757 0.310498 0
1200 1 0.0131154 0.311588 0
273 1 0.0456241 0.284268 0
246 1 0.0752181 0.280871 0
275 1 0.0613328 0.301293 0
276 1 0.0844281 0.305811 0
248 1 0.100417 0.287323 0
279 1 0.123816 0.297208 0
277 1 0.10715 0.314833 0
250 1 0.141915 0.27951 0
280 1 0.148415 0.304549 0
281 1 0.166324 0.287891 0
282 1 0.172823 0.314131 0
254 1 0.20861 0.279276 0
283 1 0.190945 0.297042 0
284 1 0.214365 0.304946 0
285 1 0.233141 0.288312 0
287 1 0.256539 0.296615 0
286 1 0.238121 0.312673 0
258 1 0.275096 0.280827 0
288 1 0.281075 0.306139 0
289 1 0.298853 0.288985 0
290 1 0.304657 0.314472 0
262 1 0.34024 0.281634 0
291 1 0.322462 0.298619 0
292 1 0.34588 0.306513 0
293 1 0.364901 0.288324 0
295 1 0.388663 0.295653 0
294 1 0.370158 0.313022 0
266 1 0.406553 0.278996 0
267 1 0.43141 0.287104 0
297 1 0.412287 0.30277 0
298 1 0.437035 0.311441 0
268 1 0.455602 0.294934 0
269 1 0.473237 0.278135 0
1141 1 0.498247 0.283816 0
270 1 0.480394 0.301635 0
1230 1 0.00475933 0.346981 0
301 1 0.0257078 0.331362 0
302 1 0.029489 0.356289 0
303 1 0.0480057 0.339026 0
274 1 0.0671857 0.324494 0
304 1 0.0715401 0.348464 0
305 1 0.0896007 0.332034 0
306 1 0.0945465 0.356353 0
278 1 0.130742 0.322098 0
307 1 0.113212 0.339351 0
309 1 0.135986 0.34715 0
311 1 0.154279 0.331068 0
310 1 0.159416 0.355548 0
312 1 0.177179 0.338249 0
313 1 0.196572 0.321144 0
314 1 0.201661 0.346207 0
315 1 0.220377 0.329852 0
345 1 0.224511 0.355122 0
343 1 0.183432 0.363746 0
317 1 0.262314 0.320994 0
316 1 0.244206 0.337096 0
318 1 0.26819 0.346308 0
347 1 0.249142 0.363137 0
319 1 0.286627 0.33089 0
320 1 0.292528 0.356827 0
321 1 0.310348 0.339225 0
323 1 0.327455 0.322729 0
322 1 0.333055 0.348764 0
324 1 0.350701 0.330455 0
296 1 0.394608 0.321583 0
325 1 0.37509 0.337703 0
355 1 0.377768 0.36152 0
326 1 0.397998 0.346678 0
327 1 0.418956 0.327609 0
328 1 0.424566 0.350448 0
329 1 0.443662 0.335699 0
299 1 0.462344 0.318935 0
300 1 0.485862 0.326352 0
1201 1 0.490644 0.351225 0
330 1 0.466935 0.344369 0
332 1 0.0335121 0.380653 0
361 1 0.0127379 0.395438 0
331 1 0.0104591 0.370866 0
363 1 0.0373801 0.404283 0
333 1 0.052827 0.363927 0
335 1 0.0751023 0.372897 0
334 1 0.0568181 0.388612 0
336 1 0.0796232 0.397022 0
308 1 0.117932 0.364075 0
337 1 0.0984108 0.380295 0
338 1 0.122554 0.388593 0
367 1 0.10362 0.404852 0
339 1 0.141556 0.371731 0
341 1 0.164999 0.380678 0
340 1 0.146099 0.396824 0
371 1 0.169873 0.405222 0
342 1 0.189369 0.388666 0
344 1 0.20615 0.371316 0
375 1 0.212929 0.395681 0
346 1 0.230058 0.37908 0
377 1 0.254208 0.387346 0
376 1 0.237039 0.404238 0
349 1 0.272139 0.370346 0
348 1 0.278061 0.394098 0
350 1 0.300145 0.380667 0
379 1 0.299273 0.405814 0
353 1 0.352878 0.365186 0
381 1 0.320793 0.395728 0
351 1 0.324763 0.371956 0
352 1 0.345625 0.390906 0
383 1 0.364238 0.408716 0
354 1 0.369807 0.385229 0
385 1 0.388263 0.401745 0
356 1 0.394808 0.377773 0
359 1 0.443948 0.365617 0
387 1 0.413037 0.396666 0
357 1 0.419642 0.373439 0
358 1 0.438119 0.390012 0
389 1 0.455393 0.407089 0
1231 1 0.487033 0.375506 0
360 1 0.461824 0.383005 0
1232 1 0.479585 0.399505 0
362 1 0.0187133 0.419622 0
393 1 0.023485 0.445965 0
364 1 0.0428229 0.428857 0
392 1 -0.000156843 0.436691 0
365 1 0.0612564 0.413485 0
395 1 0.0669234 0.437939 0
366 1 0.0859841 0.421811 0
394 1 0.0478328 0.453807 0
397 1 0.0896821 0.446387 0
369 1 0.127225 0.41355 0
368 1 0.108493 0.429405 0
399 1 0.132219 0.437865 0
398 1 0.113434 0.454554 0
370 1 0.150871 0.421178 0
401 1 0.17492 0.429406 0
400 1 0.156639 0.445573 0
402 1 0.180064 0.454022 0
372 1 0.199799 0.437716 0
373 1 0.193283 0.412819 0
374 1 0.217749 0.421201 0
403 1 0.224002 0.445665 0
405 1 0.242094 0.429313 0
407 1 0.265962 0.437026 0
378 1 0.260979 0.411906 0
406 1 0.247467 0.454876 0
409 1 0.290615 0.428292 0
410 1 0.309019 0.44789 0
380 1 0.316439 0.423228 0
408 1 0.285095 0.452969 0
382 1 0.339393 0.414599 0
411 1 0.334202 0.439954 0
413 1 0.356961 0.432231 0
384 1 0.382533 0.426538 0
414 1 0.376048 0.450837 0
415 1 0.400681 0.444072 0
386 1 0.406121 0.419514 0
388 1 0.431057 0.413762 0
417 1 0.424576 0.437219 0
419 1 0.449195 0.430713 0
1291 1 0.490242 0.441089 0
1261 1 0.473116 0.423645 0
390 1 0.46689 0.448484 0
1262 1 0.497069 0.417665 0
422 1 0.0280987 0.469976 0
453 1 0.0331763 0.494261 0
451 1 0.0091905 0.486075 0
421 1 0.00431659 0.460265 0
423 1 0.0523148 0.478437 0
396 1 0.0718066 0.462312 0
425 1 0.0753058 0.48667 0
427 1 0.094728 0.471362 0
428 1 0.118069 0.478646 0
457 1 0.0987364 0.495342 0
429 1 0.137429 0.461594 0
430 1 0.141964 0.486232 0
431 1 0.160599 0.470141 0
461 1 0.164524 0.496209 0
432 1 0.184806 0.478056 0
433 1 0.204244 0.461982 0
434 1 0.207634 0.487141 0
404 1 0.228218 0.47147 0
436 1 0.252387 0.480334 0
435 1 0.230062 0.497054 0
437 1 0.27695 0.476546 0
438 1 0.297774 0.495002 0
439 1 0.301937 0.471343 0
412 1 0.351397 0.457841 0
440 1 0.321416 0.488315 0
441 1 0.326975 0.463581 0
442 1 0.34544 0.48179 0
473 1 0.363435 0.499473 0
443 1 0.370333 0.475379 0
445 1 0.395238 0.467627 0
444 1 0.387664 0.492133 0
418 1 0.443019 0.454085 0
446 1 0.411558 0.485248 0
416 1 0.418674 0.460875 0
447 1 0.435462 0.478998 0
449 1 0.453548 0.496416 0
1321 1 0.483826 0.465866 0
420 1 0.459999 0.472623 0
450 1 0.477617 0.490322 0
452 1 0.0149378 0.511435 0
483 1 0.0193139 0.536645 0
454 1 0.037715 0.519952 0
485 1 0.0427351 0.544348 0
456 1 0.0839984 0.536709 0
455 1 0.0619547 0.52772 0
426 1 0.0795774 0.511612 0
424 1 0.056804 0.502746 0
458 1 0.102703 0.519715 0
459 1 0.122773 0.503125 0
489 1 0.126619 0.528528 0
488 1 0.108158 0.544517 0
460 1 0.146028 0.512029 0
462 1 0.169379 0.520501 0
491 1 0.149404 0.536553 0
492 1 0.173121 0.545161 0
463 1 0.187439 0.503647 0
493 1 0.191921 0.527971 0
464 1 0.210064 0.512132 0
495 1 0.215665 0.536685 0
466 1 0.233194 0.521248 0
497 1 0.266517 0.526872 0
465 1 0.252013 0.506249 0
496 1 0.239293 0.544941 0
468 1 0.291023 0.519692 0
469 1 0.314936 0.512713 0
499 1 0.30947 0.536882 0
498 1 0.286296 0.545648 0
467 1 0.274721 0.501923 0
470 1 0.332798 0.529697 0
472 1 0.35667 0.523365 0
471 1 0.339384 0.506222 0
503 1 0.374376 0.540487 0
474 1 0.381136 0.516684 0
475 1 0.405752 0.509386 0
476 1 0.398843 0.534122 0
477 1 0.422614 0.526466 0
478 1 0.447023 0.520257 0
448 1 0.429469 0.503055 0
507 1 0.440671 0.544296 0
480 1 0.464295 0.537798 0
479 1 0.470828 0.513802 0
1381 1 0.487853 0.531017 0
1351 1 0.495919 0.506918 0
513 1 0.0237834 0.560632 0
512 1 0.0283662 0.584889 0
541 1 0.00455495 0.577714 0
482 1 0.000106213 0.5523 0
486 1 0.0657727 0.55289 0
484 1 0.0468417 0.569044 0
515 1 0.0699045 0.577263 0
487 1 0.089268 0.561659 0
517 1 0.0936902 0.586657 0
519 1 0.112091 0.569734 0
490 1 0.130853 0.553251 0
520 1 0.135857 0.577956 0
521 1 0.154374 0.561429 0
522 1 0.158973 0.586739 0
523 1 0.178297 0.570143 0
494 1 0.197553 0.552529 0
524 1 0.2014 0.577783 0
525 1 0.220586 0.560862 0
555 1 0.225654 0.58505 0
526 1 0.245368 0.569765 0
527 1 0.262298 0.55096 0
528 1 0.279825 0.570158 0
529 1 0.30349 0.562225 0
559 1 0.297636 0.587738 0
501 1 0.34979 0.547956 0
530 1 0.320931 0.580967 0
500 1 0.326651 0.555494 0
531 1 0.345515 0.573599 0
533 1 0.363137 0.591401 0
502 1 0.368233 0.565846 0
505 1 0.392752 0.55885 0
504 1 0.387489 0.583405 0
535 1 0.410388 0.576362 0
506 1 0.417114 0.55189 0
508 1 0.43398 0.570026 0
539 1 0.451659 0.586806 0
509 1 0.457695 0.562345 0
510 1 0.481664 0.554452 0
540 1 0.476104 0.578675 0
1411 1 0.499227 0.572243 0
542 1 0.00958316 0.601307 0
571 1 0.0114865 0.626318 0
543 1 0.0314808 0.609802 0
544 1 0.0362063 0.634138 0
514 1 0.0507208 0.593523 0
516 1 0.0745979 0.602154 0
545 1 0.055852 0.618618 0
546 1 0.0793627 0.627346 0
518 1 0.116629 0.594955 0
547 1 0.098605 0.6114 0
548 1 0.12152 0.619703 0
577 1 0.103059 0.635472 0
549 1 0.139736 0.60284 0
551 1 0.164672 0.611527 0
550 1 0.145281 0.628009 0
553 1 0.182636 0.594322 0
552 1 0.188322 0.618164 0
554 1 0.206323 0.601616 0
583 1 0.211983 0.627237 0
556 1 0.229273 0.60949 0
557 1 0.248851 0.594769 0
587 1 0.26451 0.619944 0
585 1 0.238549 0.632208 0
558 1 0.273925 0.595266 0
560 1 0.290698 0.61245 0
561 1 0.315073 0.604913 0
591 1 0.308535 0.6298 0
532 1 0.339055 0.598212 0
562 1 0.333305 0.622994 0
563 1 0.357959 0.616187 0
534 1 0.38075 0.608354 0
536 1 0.40502 0.601147 0
566 1 0.398679 0.626164 0
565 1 0.376099 0.633964 0
537 1 0.428333 0.594406 0
567 1 0.421837 0.619082 0
538 1 0.44521 0.612213 0
568 1 0.463174 0.628966 0
569 1 0.469692 0.603652 0
570 1 0.487044 0.621578 0
1441 1 0.493787 0.596901 0
573 1 0.0180745 0.651124 0
603 1 0.0226474 0.674733 0
574 1 0.0416679 0.658552 0
575 1 0.0602132 0.642642 0
605 1 0.0654755 0.666936 0
576 1 0.0845744 0.65126 0
607 1 0.089945 0.676447 0
578 1 0.108859 0.660017 0
579 1 0.127766 0.644405 0
609 1 0.132345 0.668814 0
581 1 0.169687 0.636616 0
580 1 0.150636 0.652326 0
611 1 0.174221 0.660599 0
610 1 0.156868 0.677786 0
582 1 0.192759 0.642349 0
584 1 0.215427 0.651721 0
613 1 0.198142 0.669193 0
614 1 0.222465 0.676095 0
586 1 0.261538 0.646357 0
615 1 0.238821 0.657551 0
617 1 0.257906 0.672069 0
589 1 0.284314 0.63647 0
588 1 0.281147 0.662795 0
590 1 0.303971 0.655351 0
619 1 0.299855 0.679969 0
564 1 0.351533 0.640118 0
593 1 0.327379 0.647067 0
621 1 0.322834 0.672932 0
592 1 0.345076 0.663889 0
595 1 0.393929 0.651567 0
594 1 0.369861 0.658128 0
625 1 0.3888 0.675602 0
623 1 0.365068 0.681551 0
597 1 0.440099 0.636483 0
627 1 0.411885 0.669031 0
596 1 0.416316 0.643752 0
598 1 0.435149 0.662507 0
628 1 0.453413 0.678503 0
599 1 0.458799 0.654309 0
600 1 0.481843 0.646491 0
629 1 0.477012 0.671747 0
1501 1 0.499404 0.663134 0
602 1 0.00449157 0.690908 0
633 1 0.0288084 0.698665 0
632 1 0.00908517 0.714709 0
634 1 0.0332373 0.723437 0
604 1 0.0466707 0.682996 0
606 1 0.0714732 0.691424 0
635 1 0.0525108 0.708202 0
636 1 0.0758896 0.716147 0
637 1 0.0952121 0.701421 0
608 1 0.114113 0.684685 0
638 1 0.118944 0.710147 0
667 1 0.100302 0.725938 0
639 1 0.137249 0.69361 0
640 1 0.143115 0.719694 0
641 1 0.161257 0.702447 0
612 1 0.179857 0.686666 0
642 1 0.185411 0.710695 0
643 1 0.204032 0.695018 0
644 1 0.219216 0.725413 0
645 1 0.22757 0.701053 0
616 1 0.251426 0.69572 0
647 1 0.269176 0.712955 0
646 1 0.244898 0.719833 0
618 1 0.275391 0.688618 0
649 1 0.293149 0.705139 0
650 1 0.311106 0.721939 0
620 1 0.316637 0.697504 0
622 1 0.340649 0.689803 0
651 1 0.334778 0.714095 0
653 1 0.359073 0.705906 0
624 1 0.383322 0.699215 0
655 1 0.400545 0.71824 0
626 1 0.40694 0.693428 0
654 1 0.377147 0.723872 0
657 1 0.430334 0.686924 0
656 1 0.424565 0.711621 0
658 1 0.448088 0.70581 0
630 1 0.494698 0.689214 0
659 1 0.471101 0.696324 0
660 1 0.489376 0.714351 0
689 1 0.466791 0.722819 0
663 1 0.0132266 0.738986 0
662 1 0.0189456 0.762662 0
664 1 0.037364 0.747485 0
694 1 0.0413251 0.772327 0
665 1 0.0566058 0.732643 0
666 1 0.0798706 0.740637 0
695 1 0.0607594 0.756865 0
697 1 0.0840664 0.764963 0
669 1 0.123197 0.734927 0
668 1 0.103934 0.750763 0
699 1 0.128229 0.761271 0
671 1 0.166652 0.728038 0
670 1 0.146201 0.744676 0
672 1 0.168855 0.753153 0
701 1 0.15258 0.770217 0
673 1 0.192916 0.734303 0
674 1 0.214514 0.750742 0
703 1 0.191817 0.760284 0
675 1 0.237359 0.742884 0
705 1 0.23431 0.768106 0
677 1 0.262763 0.73697 0
676 1 0.256825 0.76013 0
648 1 0.287371 0.729885 0
679 1 0.306018 0.746035 0
678 1 0.281353 0.754112 0
709 1 0.300739 0.769818 0
680 1 0.324603 0.763142 0
652 1 0.354089 0.730911 0
681 1 0.330426 0.739075 0
682 1 0.348288 0.756735 0
683 1 0.371983 0.749875 0
684 1 0.390448 0.766301 0
685 1 0.395268 0.742159 0
687 1 0.442412 0.729702 0
715 1 0.414533 0.761035 0
686 1 0.418897 0.736285 0
717 1 0.438415 0.753718 0
688 1 0.462223 0.746926 0
690 1 0.485384 0.738876 0
719 1 0.480509 0.764209 0
693 1 0.0205542 0.789232 0
723 1 0.0437986 0.796719 0
692 1 0.013232 0.812321 0
696 1 0.0654368 0.781365 0
725 1 0.0688281 0.805376 0
727 1 0.0893464 0.790826 0
726 1 0.0924752 0.815311 0
698 1 0.107971 0.774653 0
728 1 0.112791 0.800902 0
729 1 0.135223 0.811245 0
700 1 0.132552 0.785706 0
731 1 0.155873 0.795723 0
732 1 0.179774 0.805121 0
702 1 0.17694 0.780727 0
704 1 0.210684 0.775775 0
733 1 0.203799 0.798658 0
734 1 0.223113 0.814804 0
735 1 0.228879 0.792031 0
706 1 0.253328 0.785494 0
737 1 0.271281 0.803132 0
736 1 0.246472 0.809435 0
707 1 0.276297 0.777685 0
708 1 0.295548 0.794723 0
739 1 0.312987 0.81251 0
710 1 0.319689 0.787644 0
711 1 0.343101 0.780644 0
712 1 0.360495 0.799294 0
741 1 0.33655 0.805402 0
713 1 0.367461 0.774386 0
743 1 0.384433 0.793388 0
745 1 0.400739 0.811423 0
714 1 0.408416 0.784809 0
744 1 0.378186 0.817926 0
716 1 0.432598 0.778188 0
747 1 0.447906 0.798652 0
746 1 0.424876 0.802809 0
718 1 0.457495 0.772416 0
1621 1 0.495978 0.813426 0
720 1 0.487626 0.788866 0
749 1 0.471548 0.807906 0
751 1 0.0299767 0.831297 0
752 1 0.0277714 0.855162 0
1680 1 0.00674227 0.836806 0
781 1 0.00201507 0.860203 0
722 1 0.0505844 0.819881 0
753 1 0.0508722 0.844742 0
724 1 0.0713016 0.830436 0
754 1 0.0735842 0.854711 0
755 1 0.0932785 0.840642 0
756 1 0.116494 0.851263 0
757 1 0.114804 0.825552 0
759 1 0.137687 0.835949 0
730 1 0.158277 0.820339 0
760 1 0.158088 0.849503 0
761 1 0.177907 0.834205 0
791 1 0.179275 0.861687 0
758 1 0.137296 0.862062 0
763 1 0.200074 0.822492 0
762 1 0.197696 0.84805 0
764 1 0.218976 0.838657 0
795 1 0.233613 0.858287 0
767 1 0.265196 0.827117 0
765 1 0.241647 0.834085 0
766 1 0.258555 0.8515 0
738 1 0.288928 0.819692 0
768 1 0.28316 0.845016 0
769 1 0.306619 0.837064 0
799 1 0.300627 0.862466 0
770 1 0.324368 0.854637 0
740 1 0.331091 0.829478 0
771 1 0.348659 0.849231 0
742 1 0.355454 0.824544 0
773 1 0.372383 0.842771 0
774 1 0.397098 0.835492 0
803 1 0.389305 0.860116 0
775 1 0.420269 0.826689 0
777 1 0.437464 0.84604 0
776 1 0.414193 0.852686 0
748 1 0.45142 0.825148 0
750 1 0.477079 0.831938 0
779 1 0.461753 0.851138 0
780 1 0.485529 0.855936 0
782 1 0.0217615 0.878957 0
813 1 0.039296 0.896974 0
812 1 0.014453 0.901715 0
783 1 0.0475059 0.870462 0
784 1 0.0721514 0.879047 0
815 1 0.0758147 0.902912 0
785 1 0.0952172 0.865366 0
786 1 0.0962117 0.889794 0
787 1 0.117765 0.876272 0
817 1 0.118542 0.900704 0
788 1 0.138651 0.887912 0
789 1 0.158345 0.874458 0
790 1 0.160737 0.898652 0
792 1 0.181363 0.885688 0
793 1 0.20268 0.872585 0
823 1 0.204464 0.896868 0
824 1 0.225288 0.908292 0
794 1 0.226457 0.883647 0
796 1 0.251889 0.874867 0
825 1 0.246192 0.898306 0
827 1 0.270638 0.892317 0
797 1 0.276358 0.868336 0
798 1 0.294227 0.886446 0
829 1 0.310532 0.906102 0
800 1 0.318709 0.879685 0
801 1 0.342085 0.873842 0
831 1 0.334514 0.898545 0
802 1 0.358084 0.892214 0
772 1 0.365672 0.867074 0
804 1 0.383215 0.884923 0
805 1 0.40665 0.87805 0
833 1 0.37623 0.908896 0
806 1 0.406723 0.90335 0
778 1 0.444047 0.869324 0
807 1 0.427358 0.888909 0
808 1 0.451771 0.893655 0
809 1 0.468399 0.875588 0
1681 1 0.492776 0.880739 0
810 1 0.47631 0.899773 0
841 1 0.00420512 0.925169 0
842 1 0.019657 0.943289 0
843 1 0.0297098 0.921247 0
844 1 0.0446841 0.940049 0
814 1 0.054449 0.916555 0
845 1 0.0758962 0.929157 0
846 1 0.0810746 0.952156 0
816 1 0.0979264 0.914825 0
847 1 0.1017 0.9391 0
818 1 0.121577 0.92605 0
848 1 0.122659 0.952769 0
819 1 0.140642 0.912557 0
849 1 0.142947 0.938473 0
820 1 0.163261 0.924262 0
850 1 0.164771 0.949633 0
821 1 0.183389 0.910199 0
851 1 0.184792 0.935452 0
822 1 0.205391 0.922316 0
853 1 0.207473 0.946775 0
855 1 0.229441 0.93304 0
826 1 0.262012 0.916681 0
856 1 0.253723 0.941038 0
828 1 0.286294 0.911086 0
857 1 0.279465 0.934316 0
859 1 0.304834 0.928751 0
858 1 0.297609 0.953231 0
860 1 0.321969 0.946781 0
830 1 0.328515 0.922806 0
861 1 0.345504 0.940346 0
832 1 0.35246 0.916756 0
863 1 0.37156 0.934104 0
834 1 0.39365 0.925011 0
865 1 0.401388 0.947418 0
837 1 0.435578 0.912196 0
835 1 0.417528 0.928054 0
838 1 0.441881 0.935633 0
836 1 0.426432 0.952942 0
839 1 0.459537 0.917038 0
1741 1 0.490987 0.946389 0
840 1 0.484187 0.923079 0
869 1 0.466981 0.940397 0
872 1 0.0269156 0.986652 0
873 1 0.0353703 0.962898 0
871 1 0.0108603 0.967647 0
1 1 0.00179554 0.990954 0
874 1 0.0510151 0.98439 0
875 1 0.0591892 0.960317 0
876 1 0.0763426 0.977877 0
7 1 0.0988768 0.993759 0
877 1 0.10047 0.966875 0
878 1 0.123234 0.977839 0
879 1 0.144011 0.964242 0
880 1 0.1459 0.989346 0
881 1 0.166867 0.974584 0
11 1 0.16823 0.999116 0
852 1 0.187183 0.961688 0
882 1 0.189445 0.985528 0
883 1 0.209307 0.971059 0
13 1 0.21084 0.996076 0
854 1 0.230104 0.957187 0
884 1 0.232062 0.982726 0
885 1 0.251985 0.966984 0
886 1 0.254012 0.992135 0
887 1 0.273918 0.958284 0
888 1 0.289233 0.977631 0
889 1 0.313166 0.972071 0
19 1 0.304633 0.995683 0
862 1 0.361866 0.95845 0
890 1 0.328927 0.991322 0
891 1 0.338041 0.965541 0
892 1 0.366899 0.98439 0
864 1 0.384734 0.965987 0
893 1 0.391746 0.989908 0
895 1 0.408428 0.970424 0
867 1 0.449649 0.958524 0
866 1 0.433018 0.976742 0
896 1 0.416387 0.994131 0
899 1 0.480526 0.988118 0
868 1 0.456842 0.982314 0
870 1 0.473534 0.964651 0
1771 1 0.497877 0.970686 0
902 1 0.537497 0.0255439 0
931 1 0.520436 0.0425008 0
901 1 0.512682 0.0195062 0
903 1 0.529651 0.00137188 0
904 1 0.56175 0.031146 0
906 1 0.578532 0.012849 0
905 1 0.553782 0.00740008 0
935 1 0.586511 0.0365498 0
908 1 0.60302 0.0184573 0
937 1 0.610994 0.0425534 0
939 1 0.628002 0.0242239 0
909 1 0.620568 0.000338305 0
941 1 0.652061 0.0293755 0
912 1 0.669853 0.0115744 0
942 1 0.676401 0.0356284 0
910 1 0.646226 0.0057016 0
943 1 0.693239 0.0179842 0
944 1 0.70069 0.0414685 0
945 1 0.717303 0.0224586 0
975 1 0.726142 0.0446772 0
947 1 0.741398 0.0190854 0
918 1 0.765034 0.0134868 0
946 1 0.751283 0.0426066 0
948 1 0.774751 0.0385341 0
919 1 0.791424 0.00681273 0
949 1 0.79921 0.0384665 0
920 1 0.822405 0.038968 0
922 1 0.830603 0.0161451 0
951 1 0.846552 0.0358321 0
924 1 0.854878 0.0124426 0
953 1 0.87057 0.0312224 0
955 1 0.878966 0.00829495 0
954 1 0.894749 0.0280533 0
925 1 0.903807 0.00406161 0
926 1 0.927728 0.000484977 0
957 1 0.943374 0.0205274 0
956 1 0.918901 0.0235396 0
987 1 0.934617 0.0434133 0
930 1 0.993639 0.0135335 0
959 1 0.96803 0.0170973 0
960 1 0.983241 0.036289 0
958 1 0.959191 0.0408878 0
60 1 0.502199 0.0598272 0
932 1 0.527156 0.066809 0
961 1 0.510188 0.0843136 0
933 1 0.544892 0.0495684 0
962 1 0.535067 0.0907688 0
963 1 0.552323 0.0724582 0
934 1 0.569419 0.0539354 0
965 1 0.576521 0.0791354 0
936 1 0.593584 0.0602485 0
966 1 0.600622 0.0838218 0
967 1 0.618497 0.0658346 0
968 1 0.625178 0.0895973 0
938 1 0.634685 0.0472925 0
940 1 0.659235 0.052672 0
969 1 0.643006 0.0712762 0
970 1 0.666719 0.0771505 0
971 1 0.683108 0.0593424 0
972 1 0.691998 0.0826779 0
973 1 0.709235 0.0640983 0
1003 1 0.726108 0.0901025 0
974 1 0.736889 0.0668155 0
976 1 0.762726 0.063485 0
1005 1 0.752338 0.0871137 0
1007 1 0.776458 0.0841313 0
977 1 0.786807 0.0620216 0
979 1 0.81178 0.0610612 0
978 1 0.801594 0.0841939 0
980 1 0.82684 0.0810801 0
950 1 0.836525 0.0586697 0
981 1 0.851534 0.0778358 0
952 1 0.861267 0.0548869 0
983 1 0.885373 0.051426 0
984 1 0.876643 0.074299 0
1015 1 0.901621 0.0706785 0
985 1 0.910263 0.0467675 0
986 1 0.926204 0.0665894 0
988 1 0.950904 0.0636673 0
1018 1 0.941153 0.0868571 0
1017 1 0.916479 0.0904671 0
989 1 0.975673 0.0597258 0
990 1 0.991375 0.0794192 0
1019 1 0.966341 0.0836562 0
991 1 0.517139 0.108911 0
992 1 0.523439 0.132953 0
993 1 0.54171 0.115349 0
120 1 0.500437 0.125578 0
964 1 0.559142 0.0969352 0
994 1 0.566449 0.120975 0
995 1 0.583816 0.101981 0
996 1 0.590823 0.126335 0
997 1 0.607906 0.107905 0
998 1 0.631071 0.114168 0
1027 1 0.614838 0.132618 0
999 1 0.649341 0.0957927 0
1000 1 0.656034 0.119462 0
1001 1 0.673474 0.10153 0
1031 1 0.680694 0.126511 0
1002 1 0.697595 0.106655 0
1004 1 0.720399 0.11353 0
1033 1 0.704554 0.131788 0
1006 1 0.767713 0.108197 0
1035 1 0.743763 0.111405 0
1036 1 0.756627 0.131336 0
1037 1 0.781292 0.129731 0
1008 1 0.792511 0.107946 0
1039 1 0.807961 0.126957 0
1009 1 0.817291 0.103958 0
1010 1 0.831967 0.123704 0
1011 1 0.841889 0.0999544 0
1012 1 0.857112 0.121006 0
982 1 0.867249 0.0980291 0
1013 1 0.881983 0.117365 0
1014 1 0.891984 0.0943456 0
1016 1 0.906593 0.113324 0
1045 1 0.897372 0.136351 0
1049 1 0.946523 0.128821 0
1047 1 0.921757 0.132193 0
1020 1 0.981199 0.102954 0
1050 1 0.970329 0.124518 0
121 1 0.996783 0.121941 0
1022 1 0.531185 0.157301 0
1053 1 0.537788 0.181189 0
1051 1 0.514051 0.174908 0
1021 1 0.506816 0.150967 0
1023 1 0.548185 0.138972 0
1024 1 0.554585 0.162794 0
1025 1 0.572521 0.145478 0
1055 1 0.579052 0.169769 0
1026 1 0.597312 0.150832 0
1028 1 0.621677 0.156429 0
1057 1 0.603288 0.174642 0
1058 1 0.628132 0.180788 0
1029 1 0.638476 0.137147 0
1059 1 0.645666 0.161269 0
1030 1 0.662925 0.143875 0
1061 1 0.669508 0.167987 0
1032 1 0.687992 0.149734 0
1063 1 0.713475 0.156013 0
1062 1 0.693264 0.17436 0
1064 1 0.717165 0.180691 0
1034 1 0.730476 0.136936 0
1065 1 0.739066 0.161607 0
1066 1 0.763374 0.176221 0
1067 1 0.771972 0.152612 0
1038 1 0.796478 0.148912 0
1069 1 0.813748 0.170075 0
1068 1 0.788741 0.17245 0
1040 1 0.822733 0.146604 0
1041 1 0.847288 0.143888 0
1071 1 0.83886 0.167002 0
1042 1 0.86276 0.163332 0
1043 1 0.871972 0.140914 0
1044 1 0.887462 0.158844 0
1075 1 0.90239 0.178127 0
1046 1 0.912299 0.155481 0
1048 1 0.936688 0.151772 0
1077 1 0.927644 0.175205 0
1078 1 0.952872 0.171575 0
1079 1 0.962088 0.148166 0
1080 1 0.978138 0.16672 0
151 1 0.986867 0.143429 0
1052 1 0.520502 0.199436 0
1082 1 0.526312 0.223476 0
1081 1 0.503146 0.217356 0
1083 1 0.544551 0.205128 0
1054 1 0.561391 0.187494 0
1056 1 0.585315 0.193277 0
1085 1 0.568036 0.211552 0
1086 1 0.592405 0.217439 0
1087 1 0.610554 0.198096 0
1088 1 0.617338 0.22249 0
1089 1 0.63434 0.204629 0
1060 1 0.652123 0.186219 0
1091 1 0.675945 0.191926 0
1090 1 0.658468 0.210411 0
1092 1 0.682165 0.216634 0
1093 1 0.700359 0.198007 0
1094 1 0.723012 0.205127 0
1123 1 0.705716 0.223216 0
1095 1 0.741088 0.188131 0
1096 1 0.748597 0.211342 0
1127 1 0.771165 0.219174 0
1097 1 0.779685 0.195313 0
1099 1 0.80448 0.193384 0
1098 1 0.795552 0.216662 0
1100 1 0.820721 0.214018 0
1072 1 0.852412 0.18743 0
1070 1 0.828602 0.190674 0
1101 1 0.845197 0.210798 0
1073 1 0.878516 0.182542 0
1103 1 0.869493 0.206239 0
1074 1 0.894135 0.202242 0
1104 1 0.88512 0.225635 0
1105 1 0.909714 0.222197 0
1076 1 0.918457 0.199637 0
1107 1 0.942526 0.194553 0
1108 1 0.93425 0.218366 0
211 1 0.983211 0.209715 0
1109 1 0.968745 0.191038 0
1110 1 0.9588 0.212671 0
181 1 0.993367 0.185977 0
1111 1 0.508961 0.241606 0
1113 1 0.533653 0.247846 0
1112 1 0.515291 0.2655 0
1143 1 0.539536 0.27196 0
1084 1 0.551438 0.229341 0
1114 1 0.557786 0.254424 0
1115 1 0.57505 0.235894 0
1116 1 0.581587 0.259726 0
1117 1 0.599599 0.240464 0
1118 1 0.622998 0.246203 0
1147 1 0.605303 0.26537 0
1149 1 0.629659 0.270559 0
1119 1 0.641055 0.228873 0
1121 1 0.665298 0.234575 0
1120 1 0.647996 0.252486 0
1151 1 0.671626 0.259226 0
1122 1 0.688594 0.240342 0
1124 1 0.711935 0.247575 0
1153 1 0.695114 0.264752 0
1154 1 0.719727 0.271545 0
1125 1 0.729044 0.228319 0
1126 1 0.752979 0.235375 0
1155 1 0.73556 0.254038 0
1157 1 0.758147 0.259706 0
1128 1 0.786789 0.240216 0
1129 1 0.813235 0.238196 0
1159 1 0.804555 0.260752 0
1158 1 0.781641 0.26364 0
1102 1 0.861276 0.229119 0
1131 1 0.837113 0.234752 0