ITEM: TIMESTEP
100000
ITEM: NUMBER OF ATOMS
1800
ITEM: BOX BOUNDS pp pp pp
1.3420681855192953e+00 1.6365793181447907e+02
1.3420681855192953e+00 1.6365793181447907e+02
0.0000000000000000e+00 5.5000000000000000e+00
ITEM: ATOMS id type xs ys zs
2 1 0.0103898 0.00667151 0
33 1 0.0285632 0.0235887 0
31 1 0.00341965 0.0309786 0
4 1 0.0532761 0.0161977 0
6 1 0.0763287 0.00816498 0
35 1 0.0712355 0.0319511 0
34 1 0.0470833 0.0403403 0
37 1 0.0947555 0.0245008 0
39 1 0.118491 0.0180382 0
38 1 0.113344 0.0419846 0
8 1 0.0998758 0.000495155 0
40 1 0.138145 0.0335538 0
10 1 0.142465 0.00920189 0
41 1 0.166368 0.000867902 0
42 1 0.161562 0.0248175 0
73 1 0.180821 0.0419315 0
43 1 0.185282 0.0178061 0
14 1 0.208555 0.010991 0
44 1 0.205302 0.0354543 0
45 1 0.228555 0.027237 0
16 1 0.252144 0.0189757 0
886 1 0.232824 0.00309878 0
46 1 0.270806 0.0361044 0
18 1 0.276149 0.0111789 0
49 1 0.294553 0.0292106 0
20 1 0.301281 0.00517341 0
51 1 0.319778 0.0242292 0
22 1 0.342686 0.0328548 0
21 1 0.35932 0.0150322 0
890 1 0.325612 -0.000841195 0
24 1 0.384873 0.0222857 0
53 1 0.367579 0.0393176 0
894 1 0.402942 0.00519429 0
25 1 0.410584 0.0293262 0
26 1 0.435094 0.0366516 0
27 1 0.428416 0.0117055 0
898 1 0.452396 0.019277 0
29 1 0.476387 0.0242139 0
900 1 0.493901 0.00624606 0
28 1 0.458951 0.0433053 0
32 1 0.022764 0.0487895 0
62 1 0.0174368 0.0728707 0
63 1 0.0425505 0.0644494 0
65 1 0.0662076 0.0564159 0
66 1 0.0849485 0.0731757 0
64 1 0.0604721 0.0819845 0
36 1 0.0900557 0.0486963 0
67 1 0.108766 0.0663004 0
69 1 0.132516 0.0587097 0
68 1 0.126739 0.0832123 0
71 1 0.156307 0.04954 0
72 1 0.174551 0.0666326 0
70 1 0.150934 0.0753427 0
74 1 0.223092 0.0515505 0
103 1 0.199295 0.058789 0
105 1 0.216744 0.0763843 0
101 1 0.192317 0.0834134 0
75 1 0.24776 0.0449494 0
77 1 0.266214 0.060482 0
76 1 0.240703 0.0687294 0
137 1 0.258936 0.0853319 0
47 1 0.289815 0.0535294 0
48 1 0.308256 0.0688147 0
78 1 0.284681 0.0779118 0
50 1 0.324475 0.0494621 0
81 1 0.33331 0.0759715 0
52 1 0.349584 0.0565849 0
82 1 0.357875 0.0807146 0
55 1 0.392169 0.04634 0
83 1 0.374419 0.0641295 0
54 1 0.398925 0.0706191 0
57 1 0.441589 0.0608146 0
85 1 0.423083 0.077196 0
56 1 0.417012 0.0538003 0
87 1 0.44778 0.0846945 0
59 1 0.483579 0.0486509 0
58 1 0.466411 0.0676139 0
89 1 0.490126 0.0740881 0
990 1 0.0118527 0.0963232 0
92 1 0.030926 0.113102 0
93 1 0.0363615 0.0887584 0
91 1 0.00621983 0.120444 0
94 1 0.0540706 0.105918 0
95 1 0.0792359 0.0986738 0
125 1 0.0732971 0.122563 0
123 1 0.048925 0.129832 0
96 1 0.0982461 0.115775 0
97 1 0.102736 0.091097 0
98 1 0.120891 0.107623 0
99 1 0.145775 0.0995605 0
100 1 0.168998 0.0916086 0
130 1 0.164047 0.116081 0
129 1 0.140121 0.123358 0
131 1 0.187658 0.108797 0
102 1 0.210877 0.100494 0
133 1 0.206753 0.126418 0
104 1 0.229025 0.116339 0
106 1 0.236084 0.0925466 0
135 1 0.253536 0.109943 0
107 1 0.277271 0.101355 0
109 1 0.299178 0.110933 0
79 1 0.315467 0.0928135 0
108 1 0.279422 0.128078 0
80 1 0.341144 0.0993774 0
110 1 0.323291 0.117086 0
141 1 0.347139 0.123472 0
111 1 0.365116 0.107028 0
113 1 0.381721 0.0881429 0
84 1 0.4057 0.0947633 0
112 1 0.388539 0.112994 0
143 1 0.370567 0.130918 0
115 1 0.4122 0.119804 0
86 1 0.428723 0.101486 0
116 1 0.436206 0.126332 0
117 1 0.454502 0.109011 0
88 1 0.472716 0.0908553 0
90 1 0.496568 0.0981362 0
119 1 0.4784 0.114901 0
122 1 0.0257122 0.137238 0
153 1 0.0438882 0.154383 0
152 1 0.0203485 0.161574 0
121 1 0.00143963 0.14528 0
124 1 0.067319 0.146386 0
155 1 0.0869177 0.163551 0
154 1 0.0625315 0.17045 0
126 1 0.0925865 0.139932 0
127 1 0.116276 0.131611 0
128 1 0.133998 0.149059 0
157 1 0.110892 0.156346 0
158 1 0.128262 0.173903 0
159 1 0.15868 0.14043 0
161 1 0.176189 0.157998 0
160 1 0.151533 0.166002 0
132 1 0.182834 0.133607 0
163 1 0.201247 0.15245 0
134 1 0.224006 0.144488 0
193 1 0.219351 0.169863 0
136 1 0.264956 0.14766 0
165 1 0.24614 0.133343 0
164 1 0.24305 0.161624 0
167 1 0.270048 0.171098 0
139 1 0.305373 0.134163 0
138 1 0.288498 0.151797 0
169 1 0.311678 0.158769 0
140 1 0.32965 0.141574 0
142 1 0.353389 0.147408 0
171 1 0.335795 0.165613 0
172 1 0.359691 0.17306 0
114 1 0.394422 0.137064 0
173 1 0.377293 0.1553 0
144 1 0.402132 0.160934 0
145 1 0.419988 0.14467 0
146 1 0.425822 0.168358 0
147 1 0.444125 0.150745 0
118 1 0.460579 0.133377 0
149 1 0.483666 0.139751 0
148 1 0.467169 0.158603 0
150 1 0.492144 0.164008 0
183 1 0.0383717 0.17816 0
182 1 0.0325214 0.201857 0
1080 1 0.0142229 0.185655 0
211 1 0.00766312 0.209831 0
184 1 0.0561331 0.194114 0
185 1 0.0808139 0.188352 0
215 1 0.0745783 0.21216 0
186 1 0.0986704 0.205587 0
156 1 0.104654 0.181143 0
187 1 0.122492 0.198223 0
189 1 0.14629 0.189999 0
191 1 0.17131 0.183784 0
190 1 0.164587 0.206875 0
188 1 0.141389 0.213948 0
221 1 0.18911 0.201622 0
162 1 0.194882 0.176476 0
192 1 0.211982 0.194398 0
195 1 0.234799 0.204016 0
166 1 0.251896 0.186901 0
196 1 0.259047 0.2115 0
168 1 0.294125 0.176163 0
197 1 0.276944 0.19484 0
199 1 0.300476 0.20074 0
170 1 0.317545 0.183446 0
201 1 0.342143 0.190652 0
200 1 0.324679 0.207755 0
202 1 0.347931 0.21553 0
203 1 0.366488 0.197296 0
174 1 0.383378 0.179571 0
204 1 0.389129 0.204629 0
175 1 0.406714 0.186255 0
177 1 0.449399 0.175716 0
205 1 0.413379 0.211087 0
176 1 0.431298 0.192825 0
178 1 0.455213 0.198767 0
179 1 0.474095 0.182078 0
180 1 0.497821 0.188861 0
209 1 0.479069 0.205838 0
212 1 0.0273143 0.225906 0
241 1 0.0209582 0.250672 0
1140 1 0.00290855 0.234317 0
243 1 0.0455411 0.242428 0
213 1 0.0516912 0.219593 0
214 1 0.069914 0.236843 0
245 1 0.0885477 0.256912 0
244 1 0.0635798 0.260388 0
216 1 0.0943509 0.231429 0
217 1 0.117082 0.221878 0
218 1 0.135266 0.238335 0
247 1 0.113912 0.251087 0
219 1 0.158137 0.245855 0
220 1 0.175541 0.228671 0
222 1 0.18098 0.253998 0
194 1 0.21586 0.219553 0
223 1 0.199625 0.238349 0
224 1 0.222921 0.245443 0
253 1 0.204868 0.262767 0
225 1 0.2412 0.228473 0
227 1 0.264804 0.236719 0
226 1 0.246567 0.25339 0
257 1 0.270111 0.262144 0
198 1 0.282798 0.21879 0
228 1 0.287868 0.244358 0
229 1 0.305348 0.225441 0
230 1 0.311813 0.25124 0
231 1 0.328719 0.232844 0
232 1 0.3532 0.239988 0
261 1 0.335351 0.258013 0
233 1 0.371052 0.221841 0
234 1 0.377 0.247049 0
235 1 0.395229 0.229221 0
265 1 0.401908 0.252922 0
207 1 0.437369 0.217958 0
206 1 0.419541 0.235379 0
237 1 0.443685 0.242154 0
236 1 0.426188 0.26005 0
208 1 0.46102 0.223995 0
210 1 0.484251 0.230298 0
239 1 0.467738 0.248811 0
240 1 0.491537 0.255686 0
242 1 0.0401402 0.266661 0
271 1 0.0343018 0.289472 0
1170 1 0.0154418 0.274521 0
1200 1 0.0122183 0.3013 0
273 1 0.0578524 0.29454 0
275 1 0.0788302 0.279788 0
246 1 0.100573 0.290559 0
248 1 0.119036 0.275172 0
279 1 0.123017 0.300336 0
249 1 0.13922 0.26232 0
251 1 0.161789 0.270733 0
250 1 0.141623 0.286209 0
281 1 0.165981 0.294521 0
252 1 0.185749 0.278364 0
254 1 0.209326 0.287307 0
283 1 0.190739 0.303407 0
255 1 0.229315 0.270176 0
256 1 0.252257 0.27916 0
285 1 0.233099 0.294338 0
287 1 0.256367 0.303192 0
259 1 0.294427 0.269105 0
258 1 0.275345 0.286582 0
289 1 0.299294 0.293454 0
260 1 0.31761 0.275977 0
263 1 0.359356 0.264799 0
262 1 0.34198 0.281907 0
291 1 0.323074 0.299198 0
293 1 0.365963 0.289622 0
264 1 0.383868 0.271596 0
295 1 0.391021 0.295452 0
266 1 0.407946 0.277508 0
238 1 0.450004 0.267507 0
267 1 0.432173 0.284096 0
297 1 0.415234 0.301614 0
268 1 0.456461 0.291895 0
1141 1 0.498249 0.280032 0
269 1 0.474643 0.273815 0
270 1 0.480925 0.298692 0
301 1 0.0194958 0.326448 0
272 1 0.0397889 0.312419 0
1230 1 0.00226528 0.342908 0
303 1 0.044261 0.33623 0
276 1 0.081312 0.304856 0
274 1 0.0627211 0.320333 0
305 1 0.0848003 0.330229 0
304 1 0.0672785 0.346061 0
277 1 0.104299 0.315667 0
278 1 0.128226 0.325265 0
307 1 0.109182 0.339852 0
280 1 0.146817 0.310134 0
311 1 0.151783 0.334329 0
282 1 0.17107 0.319038 0
312 1 0.175784 0.343738 0
284 1 0.214238 0.312215 0
313 1 0.195011 0.327741 0
315 1 0.219032 0.336912 0
286 1 0.237358 0.320473 0
317 1 0.261395 0.327609 0
316 1 0.242857 0.344758 0
288 1 0.281171 0.310451 0
318 1 0.286055 0.334278 0
290 1 0.305119 0.317386 0
319 1 0.310486 0.341302 0
292 1 0.34776 0.305815 0
321 1 0.329352 0.323781 0
323 1 0.354601 0.330231 0
324 1 0.378688 0.337084 0
294 1 0.372436 0.313168 0
325 1 0.402833 0.343948 0
296 1 0.396926 0.31949 0
298 1 0.438617 0.309236 0
327 1 0.421428 0.32565 0
328 1 0.444655 0.333322 0
329 1 0.468846 0.339865 0
299 1 0.463485 0.315402 0
300 1 0.487321 0.322898 0
302 1 0.024592 0.351287 0
332 1 0.0281738 0.376337 0
331 1 0.00527837 0.3663 0
361 1 0.00640181 0.390107 0
333 1 0.0473791 0.361173 0
335 1 0.0704829 0.370459 0
334 1 0.050747 0.386652 0
306 1 0.0904343 0.354723 0
337 1 0.0940285 0.379254 0
308 1 0.113975 0.364365 0
309 1 0.13356 0.349991 0
338 1 0.116678 0.389159 0
339 1 0.136603 0.374971 0
310 1 0.156265 0.359678 0
341 1 0.159783 0.384933 0
343 1 0.179283 0.36895 0
314 1 0.198461 0.352589 0
344 1 0.202203 0.378239 0
345 1 0.221961 0.361497 0
375 1 0.227095 0.386295 0
347 1 0.266777 0.35184 0
346 1 0.246764 0.368849 0
377 1 0.27066 0.37705 0
349 1 0.289462 0.360023 0
348 1 0.295526 0.383612 0
350 1 0.315032 0.365206 0
320 1 0.335178 0.347217 0
351 1 0.343965 0.37082 0
381 1 0.325478 0.387026 0
322 1 0.361287 0.353881 0
353 1 0.367827 0.379585 0
355 1 0.384412 0.362048 0
354 1 0.3921 0.385674 0
356 1 0.408647 0.368043 0
326 1 0.426663 0.350797 0
357 1 0.432413 0.374608 0
359 1 0.451029 0.357955 0
1201 1 0.492104 0.347047 0
358 1 0.455936 0.382014 0
330 1 0.474463 0.36441 0
360 1 0.479699 0.388856 0
1231 1 0.497793 0.37211 0
363 1 0.0303179 0.400635 0
362 1 0.0101448 0.415123 0
364 1 0.0328934 0.425832 0
336 1 0.0742585 0.396326 0
365 1 0.0540283 0.410445 0
366 1 0.0777817 0.420588 0
395 1 0.0558164 0.434785 0
367 1 0.0975073 0.404384 0
369 1 0.119761 0.415985 0
368 1 0.0998465 0.430317 0
340 1 0.139324 0.400844 0
370 1 0.143454 0.425507 0
371 1 0.161972 0.409668 0
401 1 0.167087 0.434184 0
342 1 0.182664 0.393742 0
372 1 0.186853 0.41844 0
373 1 0.207098 0.402057 0
403 1 0.210154 0.427639 0
374 1 0.231045 0.411001 0
376 1 0.251751 0.393628 0
405 1 0.255655 0.418905 0
378 1 0.275192 0.402711 0
379 1 0.30767 0.404125 0
409 1 0.291696 0.421385 0
410 1 0.314656 0.42953 0
352 1 0.350056 0.395508 0
382 1 0.355798 0.420443 0
380 1 0.332123 0.411149 0
383 1 0.373315 0.40343 0
385 1 0.396526 0.411536 0
384 1 0.378838 0.428533 0
415 1 0.40318 0.436445 0
387 1 0.415361 0.393003 0
386 1 0.419789 0.417905 0
388 1 0.438327 0.400739 0
419 1 0.443757 0.426419 0
389 1 0.461791 0.406979 0
1261 1 0.486392 0.413432 0
390 1 0.468718 0.431586 0
393 1 0.0123364 0.439696 0
423 1 0.0151371 0.464544 0
394 1 0.0349478 0.449629 0
425 1 0.0388508 0.474968 0
396 1 0.0584851 0.459439 0
397 1 0.0791489 0.444558 0
427 1 0.0814331 0.469956 0
399 1 0.122805 0.440388 0
398 1 0.102197 0.455748 0
429 1 0.125313 0.46546 0
400 1 0.146638 0.449458 0
431 1 0.168667 0.459427 0
430 1 0.148173 0.474316 0
402 1 0.190238 0.443021 0
433 1 0.212496 0.453219 0
432 1 0.191376 0.468194 0
407 1 0.273632 0.436062 0
404 1 0.233823 0.436843 0
406 1 0.254665 0.450523 0
435 1 0.234894 0.464363 0
436 1 0.25725 0.475195 0
437 1 0.27687 0.461068 0
408 1 0.296652 0.445834 0
439 1 0.300484 0.470206 0
441 1 0.320023 0.454978 0
413 1 0.361075 0.446768 0
411 1 0.338242 0.436936 0
412 1 0.343143 0.463987 0
414 1 0.384689 0.453413 0
443 1 0.366701 0.471594 0
416 1 0.408314 0.461407 0
417 1 0.426306 0.444497 0
418 1 0.450331 0.450628 0
447 1 0.431649 0.469175 0
1291 1 0.493569 0.438427 0
420 1 0.474873 0.456141 0
449 1 0.456558 0.47395 0
1321 1 0.498656 0.46321 0
454 1 0.0217729 0.513629 0
424 1 0.018677 0.488924 0
455 1 0.0418961 0.499665 0
426 1 0.0622941 0.48468 0
456 1 0.0646639 0.509493 0
457 1 0.0852662 0.494928 0
487 1 0.0874368 0.520487 0
428 1 0.10603 0.480329 0
459 1 0.12903 0.489344 0
458 1 0.107969 0.505387 0
489 1 0.130705 0.514718 0
461 1 0.170982 0.484333 0
460 1 0.151122 0.499556 0
462 1 0.173435 0.508661 0
434 1 0.213795 0.477935 0
463 1 0.193657 0.492729 0
464 1 0.216355 0.502779 0
493 1 0.196468 0.518502 0
465 1 0.236875 0.489027 0
467 1 0.259822 0.499917 0
466 1 0.23896 0.513685 0
438 1 0.280609 0.485337 0
469 1 0.304163 0.495306 0
468 1 0.283051 0.509812 0
470 1 0.305775 0.520458 0
440 1 0.325268 0.479879 0
442 1 0.348722 0.48867 0
471 1 0.328193 0.504603 0
473 1 0.352486 0.514333 0
445 1 0.390759 0.479851 0
444 1 0.372421 0.497664 0
475 1 0.396311 0.505437 0
446 1 0.414268 0.48615 0
477 1 0.420979 0.510955 0
448 1 0.438867 0.494099 0
478 1 0.444816 0.51851 0
450 1 0.480606 0.48135 0
479 1 0.463809 0.499996 0
1381 1 0.487401 0.506208 0
452 1 0.000793409 0.528412 0
483 1 0.0236631 0.538413 0
482 1 0.00444053 0.552465 0
513 1 0.0277789 0.563073 0
485 1 0.0446774 0.523705 0
484 1 0.0469054 0.548022 0
486 1 0.0679481 0.534501 0
515 1 0.0709925 0.559185 0
517 1 0.0912634 0.545158 0
488 1 0.110784 0.529646 0
519 1 0.114145 0.554475 0
490 1 0.133393 0.539044 0
520 1 0.13669 0.563422 0
491 1 0.15326 0.524082 0
521 1 0.156886 0.548914 0
492 1 0.176265 0.533741 0
523 1 0.178439 0.558761 0
494 1 0.198655 0.544567 0
495 1 0.218878 0.528519 0
525 1 0.221526 0.553722 0
496 1 0.241626 0.53856 0
497 1 0.261653 0.523987 0
527 1 0.264106 0.548892 0
526 1 0.243823 0.56398 0
499 1 0.306905 0.545224 0
498 1 0.284169 0.53407 0
529 1 0.286268 0.559806 0
472 1 0.333273 0.530243 0
501 1 0.328737 0.554071 0
502 1 0.351192 0.562471 0
503 1 0.359812 0.539245 0
474 1 0.377816 0.521596 0
505 1 0.388112 0.547502 0
476 1 0.404004 0.529503 0
506 1 0.411119 0.55469 0
507 1 0.427989 0.53701 0
508 1 0.436269 0.561146 0
509 1 0.452779 0.543114 0
480 1 0.470162 0.523597 0
510 1 0.476834 0.549393 0
1382 1 0.493612 0.530565 0
512 1 0.0304834 0.58791 0
511 1 0.00786103 0.578156 0
541 1 0.0105575 0.602679 0
514 1 0.0504287 0.573444 0
545 1 0.0729313 0.584272 0
543 1 0.0538797 0.599702 0
546 1 0.0763288 0.609628 0
516 1 0.0943465 0.569379 0
518 1 0.117968 0.579775 0
547 1 0.0964768 0.594226 0
548 1 0.118815 0.604231 0
549 1 0.139618 0.590652 0
522 1 0.158388 0.574362 0
551 1 0.163149 0.599261 0
553 1 0.18185 0.58357 0
524 1 0.201628 0.569091 0
554 1 0.204848 0.594581 0
555 1 0.224529 0.579389 0
556 1 0.227593 0.604447 0
557 1 0.247109 0.589365 0
528 1 0.266624 0.574627 0
558 1 0.270909 0.599857 0
500 1 0.308671 0.570052 0
559 1 0.289751 0.584058 0
530 1 0.313522 0.594598 0
531 1 0.332381 0.577992 0
532 1 0.337134 0.602135 0
533 1 0.355588 0.585935 0
504 1 0.374089 0.56773 0
534 1 0.379244 0.592344 0
535 1 0.396579 0.574306 0
536 1 0.402455 0.598578 0
537 1 0.419763 0.579831 0
567 1 0.42602 0.604821 0
538 1 0.443804 0.585564 0
539 1 0.460362 0.567396 0
540 1 0.483853 0.574029 0
569 1 0.46736 0.592185 0
1441 1 0.492 0.598379 0
542 1 0.033857 0.613287 0
571 1 0.0122595 0.627745 0
573 1 0.0361454 0.638328 0
544 1 0.0561179 0.624795 0
575 1 0.0791054 0.634303 0
574 1 0.0593053 0.649044 0
577 1 0.0989424 0.619299 0
579 1 0.121599 0.629449 0
576 1 0.101404 0.644127 0
550 1 0.141528 0.614891 0
581 1 0.165035 0.624233 0
580 1 0.14481 0.63957 0
611 1 0.167453 0.649787 0
552 1 0.18514 0.609404 0
582 1 0.187634 0.633959 0
583 1 0.207848 0.619589 0
584 1 0.211609 0.644434 0
585 1 0.230607 0.629233 0
586 1 0.254971 0.637859 0
587 1 0.250267 0.613816 0
560 1 0.294726 0.609599 0
589 1 0.275102 0.623711 0
590 1 0.298286 0.634263 0
588 1 0.2782 0.64851 0
561 1 0.318851 0.619245 0
563 1 0.360278 0.610016 0
562 1 0.34263 0.62747 0
591 1 0.323685 0.644236 0
593 1 0.347667 0.651357 0
565 1 0.38376 0.616951 0
564 1 0.366231 0.634137 0
595 1 0.391066 0.64051 0
566 1 0.408088 0.622469 0
568 1 0.450038 0.610286 0
596 1 0.415505 0.646601 0
597 1 0.432801 0.628453 0
570 1 0.474317 0.61604 0
600 1 0.456993 0.634494 0
1471 1 0.480934 0.64178 0
1442 1 0.498259 0.623251 0
572 1 0.0153372 0.652248 0
602 1 0.0181651 0.677046 0
603 1 0.039022 0.663906 0
633 1 0.0422565 0.690019 0
605 1 0.0813983 0.660042 0
604 1 0.0616255 0.674986 0
606 1 0.0845335 0.685617 0
578 1 0.123533 0.65435 0
607 1 0.104185 0.669131 0
608 1 0.12771 0.680006 0
609 1 0.146295 0.665317 0
610 1 0.170744 0.67425 0
639 1 0.151782 0.69032 0
612 1 0.194909 0.685095 0
613 1 0.191815 0.658821 0
614 1 0.214591 0.669258 0
643 1 0.217635 0.694521 0
615 1 0.234946 0.65353 0
616 1 0.237872 0.678795 0
617 1 0.258713 0.663737 0
647 1 0.261798 0.687867 0
619 1 0.303607 0.659908 0
618 1 0.282832 0.672826 0
620 1 0.30883 0.684516 0
621 1 0.328304 0.668907 0
592 1 0.354272 0.675785 0
622 1 0.336839 0.692908 0
594 1 0.372634 0.65773 0
625 1 0.396666 0.664478 0
623 1 0.379371 0.682605 0
626 1 0.404177 0.689698 0
599 1 0.439875 0.652655 0
598 1 0.446457 0.677267 0
627 1 0.42253 0.67111 0
657 1 0.429272 0.695222 0
628 1 0.470551 0.684445 0
629 1 0.463683 0.65938 0
1501 1 0.488384 0.665958 0
630 1 0.494364 0.691373 0
632 1 0.0207161 0.701652 0
663 1 0.0229063 0.725326 0
634 1 0.0451932 0.715369 0
635 1 0.0653209 0.70099 0
636 1 0.0876079 0.710664 0
665 1 0.0682972 0.726999 0
666 1 0.0915266 0.735543 0
637 1 0.108029 0.694417 0
638 1 0.131077 0.705423 0
667 1 0.110721 0.720125 0
669 1 0.134108 0.73033 0
641 1 0.174766 0.700814 0
640 1 0.154063 0.71623 0
671 1 0.178577 0.726351 0
642 1 0.19808 0.709379 0
673 1 0.201347 0.735231 0
644 1 0.220542 0.720024 0
645 1 0.240873 0.703208 0
675 1 0.24332 0.728953 0
646 1 0.263913 0.713964 0
677 1 0.266498 0.738765 0
649 1 0.284808 0.697927 0
648 1 0.286061 0.722723 0
679 1 0.307725 0.732181 0
650 1 0.318222 0.710493 0
651 1 0.343797 0.717505 0
681 1 0.331033 0.738261 0
653 1 0.36205 0.70068 0
624 1 0.387207 0.706985 0
654 1 0.368321 0.724526 0
685 1 0.394272 0.732402 0
655 1 0.412585 0.714145 0
656 1 0.436751 0.72044 0
686 1 0.419502 0.738789 0
658 1 0.453207 0.702124 0
687 1 0.460563 0.727101 0
659 1 0.477595 0.709172 0
689 1 0.484426 0.733167 0
662 1 0.0241987 0.750496 0
693 1 0.0262771 0.774633 0
691 1 0.00259575 0.76567 0
664 1 0.0477242 0.740943 0
695 1 0.0721686 0.752823 0
694 1 0.0511118 0.775422 0
696 1 0.0758798 0.77858 0
697 1 0.0951003 0.762136 0
668 1 0.114039 0.745558 0
698 1 0.118794 0.77155 0
670 1 0.158065 0.741324 0
699 1 0.137206 0.75561 0
701 1 0.16155 0.765038 0
700 1 0.142913 0.78028 0
672 1 0.182536 0.751799 0
702 1 0.185712 0.777083 0
674 1 0.22474 0.745719 0
703 1 0.205752 0.761263 0
705 1 0.229452 0.771047 0
676 1 0.247294 0.754648 0
707 1 0.269769 0.764709 0
735 1 0.25178 0.781897 0
678 1 0.288908 0.748105 0
709 1 0.293947 0.773269 0
680 1 0.311872 0.756645 0
710 1 0.318623 0.780497 0
652 1 0.353966 0.74469 0
682 1 0.360778 0.768474 0
711 1 0.336521 0.763555 0
683 1 0.37812 0.750861 0
713 1 0.384811 0.775274 0
684 1 0.402178 0.756187 0
716 1 0.409068 0.781171 0
717 1 0.443692 0.744222 0
715 1 0.426677 0.762402 0
718 1 0.449438 0.768929 0
690 1 0.491403 0.758499 0
688 1 0.468012 0.751122 0
719 1 0.473654 0.774963 0
1591 1 0.497566 0.781981 0
692 1 0.00750036 0.792079 0
722 1 0.0139901 0.817813 0
723 1 0.0326458 0.798472 0
724 1 0.0381624 0.822583 0
725 1 0.0565759 0.800002 0
726 1 0.0810819 0.804458 0
755 1 0.0627792 0.824433 0
727 1 0.0996438 0.787494 0
728 1 0.122292 0.796159 0
757 1 0.104508 0.811519 0
759 1 0.130011 0.824478 0
729 1 0.145096 0.805503 0
730 1 0.166684 0.816353 0
731 1 0.165292 0.790923 0
704 1 0.209748 0.785942 0
732 1 0.188268 0.80165 0
734 1 0.226398 0.820805 0
733 1 0.232012 0.796827 0
736 1 0.254612 0.808056 0
737 1 0.281794 0.81367 0
706 1 0.275448 0.790423 0
708 1 0.300074 0.797215 0
738 1 0.305901 0.821311 0
739 1 0.32401 0.804606 0
741 1 0.342858 0.786845 0
742 1 0.348634 0.811609 0
712 1 0.366632 0.792865 0
714 1 0.391543 0.798535 0
743 1 0.373098 0.817252 0
745 1 0.397162 0.824555 0
746 1 0.416012 0.805669 0
747 1 0.432575 0.786664 0
748 1 0.439982 0.812634 0
749 1 0.45638 0.793734 0
720 1 0.479488 0.800269 0
750 1 0.463308 0.818715 0
1621 1 0.48833 0.824113 0
752 1 0.00156696 0.851178 0
753 1 0.023184 0.841538 0
783 1 0.0213363 0.865232 0
754 1 0.0475129 0.848141 0
785 1 0.0725292 0.849018 0
756 1 0.0867436 0.829011 0
786 1 0.0865377 0.868516 0
758 1 0.109606 0.837697 0
787 1 0.109199 0.861917 0
789 1 0.132217 0.85101 0
760 1 0.151809 0.836926 0
791 1 0.172738 0.862466 0
790 1 0.149274 0.869717 0
761 1 0.17784 0.838354 0
763 1 0.201059 0.825617 0
762 1 0.195814 0.854118 0
764 1 0.219448 0.844995 0
765 1 0.24354 0.839873 0
795 1 0.238262 0.863625 0
766 1 0.262482 0.856167 0
767 1 0.266321 0.832312 0
769 1 0.312277 0.844688 0
768 1 0.28713 0.846947 0
799 1 0.30351 0.866846 0
740 1 0.330318 0.829081 0
770 1 0.335809 0.853639 0
771 1 0.354635 0.834899 0
773 1 0.362727 0.858976 0
744 1 0.380114 0.841645 0
774 1 0.387195 0.866322 0
775 1 0.404239 0.848483 0
777 1 0.422126 0.830316 0
807 1 0.429234 0.853118 0
778 1 0.446795 0.836585 0
809 1 0.454055 0.860296 0
779 1 0.470651 0.841576 0
780 1 0.478819 0.865237 0
1651 1 0.496543 0.847521 0
812 1 0.0148505 0.890026 0
814 1 0.0323387 0.908035 0
813 1 0.0383105 0.882622 0
784 1 0.0633268 0.874149 0
815 1 0.0560343 0.899256 0
816 1 0.0802905 0.892858 0
788 1 0.12687 0.878401 0
817 1 0.103624 0.886169 0
819 1 0.12066 0.90272 0
818 1 0.0977756 0.910044 0
821 1 0.16768 0.886811 0
820 1 0.144724 0.895619 0
851 1 0.163385 0.91151 0
792 1 0.191323 0.878551 0
793 1 0.214794 0.870693 0
823 1 0.209901 0.895509 0
822 1 0.186498 0.903528 0
794 1 0.233711 0.889265 0
796 1 0.256988 0.880618 0
827 1 0.252827 0.90458 0
825 1 0.228589 0.913173 0
797 1 0.280762 0.872144 0
798 1 0.275839 0.897328 0
800 1 0.298917 0.890608 0
831 1 0.318488 0.906804 0
772 1 0.346191 0.875719 0
801 1 0.323406 0.882152 0
802 1 0.350595 0.900888 0
803 1 0.369115 0.883937 0
804 1 0.376561 0.907506 0
805 1 0.394876 0.889803 0
776 1 0.41108 0.871513 0
806 1 0.419397 0.896167 0
808 1 0.43558 0.877583 0
839 1 0.44395 0.901607 0
1681 1 0.485417 0.889456 0
810 1 0.461777 0.884164 0
840 1 0.467938 0.908065 0
842 1 0.00328077 0.939813 0
843 1 0.00924105 0.915946 0
844 1 0.0275512 0.932339 0
875 1 0.0449925 0.95018 0
845 1 0.0507569 0.924233 0
846 1 0.0688832 0.942127 0
847 1 0.0744993 0.91716 0
848 1 0.0924509 0.934148 0
849 1 0.115327 0.927775 0
879 1 0.109571 0.951355 0
881 1 0.133334 0.944832 0
850 1 0.139164 0.919498 0
852 1 0.15781 0.93669 0
883 1 0.176249 0.952408 0
853 1 0.181164 0.927451 0
824 1 0.205289 0.920443 0
854 1 0.200469 0.945113 0
855 1 0.22346 0.937686 0
826 1 0.247763 0.929475 0
857 1 0.266416 0.946655 0
856 1 0.24253 0.953656 0
828 1 0.271367 0.922031 0
829 1 0.294695 0.915048 0
859 1 0.290041 0.939569 0
830 1 0.313292 0.93184 0
833 1 0.36048 0.925666 0
832 1 0.336389 0.923669 0
861 1 0.333028 0.94816 0
835 1 0.401303 0.913726 0
863 1 0.368253 0.948685 0
834 1 0.384604 0.931487 0
864 1 0.392086 0.956303 0
865 1 0.408681 0.937796 0
837 1 0.426709 0.92036 0
836 1 0.433034 0.9449 0
838 1 0.450936 0.927552 0
870 1 0.456541 0.952012 0
869 1 0.474964 0.933696 0
1711 1 0.492469 0.91455 0
1712 1 0.498013 0.938693 0
3 1 0.0346204 0.998714 0
873 1 0.0209254 0.957049 0
872 1 0.0161443 0.982085 0
874 1 0.0394911 0.97419 0
5 1 0.0583636 0.9906 0
876 1 0.0632213 0.966682 0
7 1 0.0821553 0.983188 0
877 1 0.086861 0.958574 0
9 1 0.124066 0.992427 0
878 1 0.105186 0.975941 0
880 1 0.128776 0.968625 0
11 1 0.14766 0.984917 0
882 1 0.152714 0.960981 0
13 1 0.172453 0.976512 0
12 1 0.190601 0.993339 0
15 1 0.214382 0.98709 0
884 1 0.195047 0.968473 0
885 1 0.219378 0.961873 0
17 1 0.256606 0.995057 0
887 1 0.237969 0.978549 0
888 1 0.262338 0.971041 0
860 1 0.31003 0.956537 0
858 1 0.286909 0.963631 0
19 1 0.281324 0.987485 0
889 1 0.305303 0.98113 0
862 1 0.350339 0.965211 0
891 1 0.328892 0.974994 0
892 1 0.353629 0.990134 0
23 1 0.378172 0.997889 0
893 1 0.373202 0.973282 0
895 1 0.396798 0.98093 0
896 1 0.420413 0.987469 0
866 1 0.415752 0.962595 0
867 1 0.439318 0.969504 0
897 1 0.445215 0.993553 0
1741 1 0.479845 0.958094 0
899 1 0.468898 1.00083 0
868 1 0.463443 0.976615 0
1771 1 0.487383 0.982204 0
931 1 0.524285 0.0371917 0
901 1 0.517752 0.0126867 0
902 1 0.541921 0.0199056 0
30 1 0.499324 0.0306433 0
904 1 0.56635 0.0260056 0
906 1 0.584539 0.00862348 0
905 1 0.560366 0.00189084 0
935 1 0.590153 0.0334726 0
908 1 0.607856 0.0155593 0
939 1 0.631293 0.0224607 0
937 1 0.614699 0.04007 0
910 1 0.649284 0.00509194 0
941 1 0.656703 0.0292471 0
912 1 0.673055 0.0115222 0
942 1 0.681709 0.0349121 0
943 1 0.697261 0.0164219 0
945 1 0.720568 0.0242857 0
944 1 0.704788 0.0424021 0
914 1 0.742639 0.0176692 0
916 1 0.765691 0.0117802 0
947 1 0.757873 0.0354033 0
918 1 0.7822 0.0297421 0
919 1 0.806078 0.0224705 0
917 1 0.789226 0.00564237 0
951 1 0.822724 0.0405461 0
920 1 0.82996 0.0158847 0
922 1 0.847225 0.0332385 0
921 1 0.853928 0.00850112 0
923 1 0.872216 0.0265787 0
924 1 0.896113 0.017942 0
1792 1 0.877412 0.00160177 0
954 1 0.89006 0.043743 0
955 1 0.913582 0.0356325 0
925 1 0.919971 0.011477 0
926 1 0.93803 0.0297173 0
928 1 0.943858 0.00335293 0
930 1 0.985445 0.0143624 0
959 1 0.962101 0.0218729 0
960 1 0.980728 0.0395855 0
932 1 0.531471 0.0617742 0
961 1 0.514062 0.080205 0
60 1 0.507377 0.055946 0
933 1 0.548275 0.0445785 0
963 1 0.555056 0.0686376 0
934 1 0.572341 0.0511351 0
965 1 0.579353 0.0758783 0
936 1 0.596626 0.0575474 0
967 1 0.621408 0.0636721 0
966 1 0.604411 0.0820585 0
938 1 0.638372 0.0461685 0
969 1 0.645945 0.0710166 0
940 1 0.66298 0.0533122 0
970 1 0.669606 0.0771194 0
971 1 0.687851 0.0595034 0
973 1 0.711157 0.0662493 0
972 1 0.692406 0.0835764 0
975 1 0.730015 0.0475343 0
974 1 0.733581 0.0744131 0
946 1 0.752733 0.059708 0
977 1 0.768528 0.079206 0
949 1 0.798676 0.047782 0
948 1 0.77611 0.0548362 0
979 1 0.793238 0.0728278 0
950 1 0.817642 0.0653128 0
980 1 0.836596 0.0811345 0
981 1 0.860283 0.0747352 0
952 1 0.841232 0.0578262 0
953 1 0.86565 0.0500741 0
983 1 0.884745 0.0678293 0
984 1 0.902482 0.0843075 0
985 1 0.90862 0.0601492 0
956 1 0.931845 0.0533551 0
986 1 0.926328 0.0779901 0
987 1 0.950674 0.071353 0
957 1 0.95644 0.0468057 0
958 1 0.974214 0.0632551 0
989 1 0.992569 0.0803127 0
61 1 0.998746 0.0558793 0
962 1 0.538159 0.0862013 0
991 1 0.521086 0.104317 0
993 1 0.544346 0.110169 0
120 1 0.502528 0.122687 0
992 1 0.527269 0.128849 0
964 1 0.562212 0.0934333 0
994 1 0.568128 0.117639 0
995 1 0.586554 0.0996502 0
996 1 0.591749 0.123847 0
968 1 0.627802 0.0883894 0
997 1 0.610902 0.106315 0
998 1 0.634168 0.113178 0
999 1 0.6516 0.0953643 0
1000 1 0.657499 0.119703 0
1001 1 0.675702 0.101524 0
1031 1 0.681411 0.126143 0
1002 1 0.699632 0.108072 0
1003 1 0.716581 0.0910598 0
1004 1 0.724384 0.115943 0
976 1 0.764161 0.104553 0
1005 1 0.741118 0.097679 0
1035 1 0.747744 0.122562 0
978 1 0.812911 0.0896513 0
1007 1 0.788002 0.0970897 0
1006 1 0.781052 0.122448 0
1008 1 0.806095 0.114237 0
1009 1 0.829766 0.106865 0
1010 1 0.8486 0.12383 0
1011 1 0.854148 0.0990709 0
982 1 0.877618 0.0918024 0
1012 1 0.872857 0.116748 0
1013 1 0.897234 0.10857 0
1016 1 0.91516 0.125278 0
1017 1 0.944806 0.0945606 0
1015 1 0.921193 0.101803 0
1047 1 0.939028 0.119364 0
988 1 0.968675 0.0874247 0
1018 1 0.963365 0.11156 0
1019 1 0.987295 0.10397 0
1020 1 0.982658 0.128315 0
1022 1 0.532667 0.152723 0
1021 1 0.508958 0.145703 0
1051 1 0.515646 0.170602 0
1023 1 0.55112 0.134448 0
1024 1 0.556936 0.15947 0
1025 1 0.574804 0.142009 0
1055 1 0.580334 0.166082 0
1027 1 0.615656 0.13096 0
1026 1 0.598647 0.149498 0
1028 1 0.622883 0.155036 0
1057 1 0.60466 0.173632 0
1029 1 0.640322 0.137813 0
1059 1 0.64649 0.16294 0
1030 1 0.664615 0.144376 0
1061 1 0.670797 0.169561 0
1032 1 0.688336 0.152026 0
1033 1 0.705296 0.133078 0
1063 1 0.713092 0.158822 0
1034 1 0.729689 0.139882 0
1036 1 0.753158 0.147487 0
1065 1 0.736928 0.165354 0
1066 1 0.759952 0.172732 0
1067 1 0.77828 0.149958 0
1037 1 0.801307 0.138184 0
1038 1 0.798744 0.162874 0
1039 1 0.825676 0.131223 0
1040 1 0.821409 0.15471 0
1071 1 0.839189 0.171983 0
1041 1 0.845036 0.148432 0
1042 1 0.863174 0.165931 0
1014 1 0.891377 0.133366 0
1043 1 0.868089 0.142135 0
1044 1 0.887096 0.158413 0
1045 1 0.910012 0.150282 0
1046 1 0.933956 0.14407 0
1048 1 0.952767 0.160864 0
1077 1 0.928655 0.168552 0
1049 1 0.957322 0.136298 0
1050 1 0.976845 0.15197 0
151 1 0.995441 0.169806 0
1053 1 0.53994 0.176962 0
1052 1 0.521133 0.19501 0
1081 1 0.502273 0.212879 0
1083 1 0.545323 0.202016 0
1054 1 0.563156 0.184563 0
1056 1 0.58636 0.19094 0
1085 1 0.568667 0.209021 0
1058 1 0.628628 0.180244 0
1087 1 0.610619 0.199505 0
1089 1 0.634294 0.204355 0
1086 1 0.593007 0.215485 0
1060 1 0.652684 0.187135 0
1091 1 0.676621 0.194959 0
1090 1 0.658899 0.212044 0
1062 1 0.694948 0.176551 0
1093 1 0.701425 0.200981 0
1064 1 0.719043 0.184387 0
1094 1 0.724553 0.208699 0
1095 1 0.741923 0.191546 0
1097 1 0.765482 0.198582 0
1096 1 0.747239 0.215607 0
1069 1 0.815717 0.181124 0
1068 1 0.782849 0.181266 0
1098 1 0.787874 0.205713 0
1099 1 0.811814 0.205699 0
1070 1 0.834965 0.19798 0
1072 1 0.858133 0.189992 0
1101 1 0.851914 0.21509 0
1075 1 0.905374 0.174718 0
1073 1 0.881942 0.182777 0
1103 1 0.875702 0.207298 0
1074 1 0.90054 0.199486 0
1078 1 0.947012 0.184658 0
1076 1 0.924025 0.19229 0
1107 1 0.942785 0.208762 0
1079 1 0.971243 0.177109 0
1109 1 0.967095 0.201894 0
181 1 0.989984 0.1937 0
1082 1 0.526284 0.219329 0
1111 1 0.508716 0.237406 0
1113 1 0.533487 0.244121 0
1084 1 0.551829 0.226636 0
1114 1 0.557936 0.25153 0
1115 1 0.575963 0.233824 0
1116 1 0.581801 0.2594 0
1088 1 0.617517 0.223251 0
1117 1 0.599692 0.241892 0
1118 1 0.624157 0.247218 0
1119 1 0.640581 0.229761 0
1121 1 0.665571 0.237966 0
1120 1 0.648434 0.254855 0
1092 1 0.683097 0.219755 0
1122 1 0.688922 0.245621 0
1123 1 0.70647 0.226232 0
1124 1 0.71292 0.252786 0
1125 1 0.729196 0.234019 0
1126 1 0.753081 0.241925 0
1155 1 0.736851 0.258731 0
1127 1 0.770053 0.223701 0
1129 1 0.796778 0.228078 0
1128 1 0.776757 0.248184 0
1159 1 0.800167 0.253956 0
1100 1 0.827957 0.223276 0
1130 1 0.823738 0.247324 0
1131 1 0.846652 0.239469 0
1132 1 0.864817 0.256892 0
1102 1 0.870255 0.231973 0
1104 1 0.894131 0.223887 0
1133 1 0.888934 0.24947 0
1105 1 0.918016 0.216291 0
1135 1 0.912551 0.240796 0
1136 1 0.930918 0.258581 0
1106 1 0.936414 0.233339 0
1137 1 0.954046 0.251129 0
1110 1 0.984438 0.218286 0
1108 1 0.960647 0.225911 0
1139 1 0.978487 0.242414 0
1169 1 0.997292 0.258495 0