ITEM: TIMESTEP
172000
ITEM: NUMBER OF ATOMS
1800
ITEM: BOX BOUNDS pp pp pp
9.9319356781209933e-01 1.6400680643218891e+02
9.9319356781209933e-01 1.6400680643218891e+02
0.0000000000000000e+00 5.5000000000000000e+00
ITEM: ATOMS id type xs ys zs
2 1 0.0125481 0.00431917 0
33 1 0.0281948 0.023171 0
31 1 0.00431149 0.0277265 0
3 1 0.0356431 -0.00056937 0
34 1 0.0433669 0.0425673 0
4 1 0.051934 0.0184333 0
6 1 0.0768199 0.0132369 0
35 1 0.0677413 0.0358229 0
8 1 0.100721 0.00875938 0
39 1 0.119169 0.0288374 0
37 1 0.0922689 0.0317244 0
9 1 0.123711 0.00441822 0
10 1 0.144669 0.0170249 0
41 1 0.166958 0.0281968 0
40 1 0.146533 0.0428992 0
11 1 0.165458 0.00265158 0
12 1 0.187479 0.0131109 0
43 1 0.188892 0.0388959 0
14 1 0.209552 0.0237126 0
13 1 0.208246 -0.00153606 0
15 1 0.231315 0.00888845 0
45 1 0.233382 0.0344268 0
16 1 0.25415 0.019759 0
46 1 0.255296 0.0437655 0
18 1 0.281181 0.0284801 0
49 1 0.306312 0.0185812 0
17 1 0.274879 0.00410617 0
51 1 0.314632 0.0413253 0
20 1 0.331934 0.0236991 0
22 1 0.355717 0.0277713 0
21 1 0.348358 0.004913 0
890 1 0.32383 -0.000284785 0
24 1 0.38023 0.0338891 0
23 1 0.373101 0.0102109 0
55 1 0.405484 0.0383996 0
894 1 0.397353 0.0153243 0
25 1 0.421738 0.0194178 0
26 1 0.428627 0.0444789 0
27 1 0.445698 0.0271707 0
897 1 0.438936 0.00262408 0
29 1 0.471387 0.0307473 0
900 1 0.489319 0.0131597 0
898 1 0.462494 0.0071271 0
30 1 0.495964 0.0366682 0
32 1 0.0197938 0.0479308 0
62 1 0.0119728 0.0716152 0
63 1 0.0371221 0.0675718 0
65 1 0.0612913 0.0610954 0
36 1 0.0847242 0.0556209 0
66 1 0.0789362 0.0798282 0
64 1 0.0543871 0.0858197 0
38 1 0.108084 0.050273 0
68 1 0.130425 0.0869925 0
69 1 0.127962 0.0626526 0
67 1 0.104722 0.0765396 0
71 1 0.150284 0.0707982 0
42 1 0.169231 0.054262 0
72 1 0.174192 0.0812131 0
44 1 0.212887 0.0484878 0
73 1 0.193146 0.0638136 0
74 1 0.215538 0.0728863 0
75 1 0.235963 0.0582678 0
77 1 0.258307 0.0685221 0
76 1 0.23918 0.0835761 0
47 1 0.277439 0.0527652 0
48 1 0.28135 0.0763881 0
79 1 0.304564 0.0846355 0
50 1 0.299632 0.0602677 0
52 1 0.340153 0.0465213 0
81 1 0.323528 0.0640349 0
82 1 0.347119 0.0705138 0
83 1 0.363262 0.0519097 0
53 1 0.387865 0.0570349 0
54 1 0.395283 0.0810328 0
113 1 0.371309 0.0755851 0
57 1 0.437014 0.0677289 0
56 1 0.412567 0.0626422 0
85 1 0.420605 0.0861039 0
87 1 0.446842 0.0912167 0
28 1 0.454063 0.0497863 0
59 1 0.479641 0.0550743 0
58 1 0.462456 0.072362 0
89 1 0.487782 0.0783262 0
93 1 0.0299157 0.0915195 0
92 1 0.0204769 0.114448 0
91 1 0.0044038 0.0953753 0
123 1 0.0378322 0.133203 0
94 1 0.0461967 0.110342 0
95 1 0.0716547 0.105749 0
96 1 0.0881194 0.125157 0
125 1 0.0627932 0.128546 0
97 1 0.0957332 0.100735 0
98 1 0.112725 0.120767 0
99 1 0.135454 0.11258 0
70 1 0.154328 0.0963783 0
100 1 0.157795 0.122107 0
101 1 0.177072 0.106167 0
131 1 0.181792 0.130091 0
103 1 0.195887 0.0897591 0
102 1 0.200162 0.114545 0
104 1 0.223534 0.123289 0
105 1 0.219483 0.0983897 0
107 1 0.261824 0.0927276 0
106 1 0.243116 0.107531 0
135 1 0.24737 0.132959 0
137 1 0.265641 0.116881 0
78 1 0.285153 0.101134 0
108 1 0.290028 0.125025 0
109 1 0.310031 0.10796 0
139 1 0.314735 0.132059 0
80 1 0.329358 0.0892018 0
111 1 0.353338 0.0954213 0
110 1 0.334791 0.113751 0
141 1 0.358763 0.121174 0
112 1 0.37804 0.0990552 0
143 1 0.383307 0.122299 0
84 1 0.404038 0.104502 0
115 1 0.414893 0.125937 0
86 1 0.429999 0.108032 0
116 1 0.43847 0.132629 0
117 1 0.454422 0.114411 0
88 1 0.47119 0.0965429 0
90 1 0.49554 0.101929 0
119 1 0.47956 0.120614 0
122 1 0.0127906 0.13755 0
153 1 0.0296998 0.156915 0
152 1 0.00495172 0.161397 0
183 1 0.021087 0.180511 0
154 1 0.0456488 0.176699 0
124 1 0.0544246 0.152299 0
126 1 0.078607 0.148742 0
155 1 0.0701381 0.172244 0
127 1 0.104198 0.143841 0
128 1 0.11923 0.163359 0
157 1 0.0950798 0.167273 0
129 1 0.136817 0.138273 0
159 1 0.143825 0.163533 0
130 1 0.162178 0.146517 0
161 1 0.166523 0.171864 0
132 1 0.184697 0.15616 0
133 1 0.204396 0.139232 0
163 1 0.208112 0.163745 0
162 1 0.190385 0.181089 0
134 1 0.227048 0.147966 0
164 1 0.230947 0.1722 0
165 1 0.251433 0.15771 0
136 1 0.270206 0.140794 0
166 1 0.256073 0.181196 0
167 1 0.275768 0.16566 0
138 1 0.294084 0.149492 0
168 1 0.299407 0.17276 0
169 1 0.317602 0.155562 0
140 1 0.337855 0.139404 0
171 1 0.341147 0.165212 0
142 1 0.361185 0.148463 0
172 1 0.363887 0.174884 0
114 1 0.396608 0.142337 0
144 1 0.404277 0.166453 0
173 1 0.382291 0.160423 0
145 1 0.421125 0.149061 0
147 1 0.44587 0.155854 0
146 1 0.427621 0.172764 0
177 1 0.451909 0.179071 0
118 1 0.462187 0.13789 0
149 1 0.486562 0.144228 0
148 1 0.469289 0.161159 0
150 1 0.491725 0.168112 0
182 1 0.0120359 0.204906 0
184 1 0.0365884 0.199419 0
213 1 0.0277864 0.223286 0
185 1 0.0621571 0.196223 0
156 1 0.0881198 0.191649 0
186 1 0.0835587 0.216407 0
215 1 0.0516769 0.218982 0
158 1 0.112619 0.188039 0
189 1 0.129502 0.207652 0
187 1 0.108192 0.221233 0
160 1 0.146137 0.188483 0
191 1 0.1706 0.197104 0
190 1 0.153468 0.215363 0
221 1 0.176852 0.223039 0
193 1 0.213369 0.189184 0
192 1 0.194385 0.205532 0
194 1 0.218246 0.214212 0
195 1 0.236822 0.197171 0
196 1 0.26096 0.205914 0
225 1 0.241883 0.221485 0
197 1 0.281289 0.189504 0
199 1 0.305079 0.198651 0
198 1 0.284815 0.214764 0
229 1 0.308807 0.223007 0
170 1 0.321868 0.181325 0
201 1 0.345412 0.191177 0
200 1 0.327813 0.206994 0
202 1 0.350931 0.216139 0
174 1 0.386228 0.183567 0
203 1 0.368203 0.199647 0
204 1 0.391583 0.207356 0
233 1 0.374867 0.224484 0
175 1 0.410323 0.190373 0
205 1 0.415825 0.213974 0
176 1 0.434791 0.196838 0
207 1 0.439561 0.220799 0
178 1 0.457953 0.203967 0
179 1 0.475024 0.18608 0
209 1 0.481413 0.21081 0
180 1 0.499647 0.192524 0
208 1 0.463495 0.227495 0
212 1 0.00209055 0.228636 0
243 1 0.0190651 0.246262 0
214 1 0.0439956 0.242973 0
244 1 0.0336056 0.265386 0
242 1 0.00959502 0.26998 0
216 1 0.068905 0.235274 0
245 1 0.0730671 0.259248 0
217 1 0.09229 0.241103 0
218 1 0.115876 0.24855 0
247 1 0.0977608 0.265793 0
188 1 0.133937 0.231603 0
219 1 0.140143 0.256016 0
220 1 0.158317 0.239553 0
251 1 0.163843 0.262919 0
222 1 0.181955 0.246708 0
223 1 0.200926 0.230583 0
224 1 0.223676 0.238723 0
253 1 0.204915 0.255354 0
252 1 0.186699 0.271351 0
255 1 0.227987 0.263486 0
227 1 0.266901 0.230102 0
226 1 0.246898 0.246138 0
257 1 0.27102 0.255319 0
256 1 0.252416 0.271488 0
228 1 0.290211 0.23914 0
230 1 0.314014 0.247469 0
259 1 0.295153 0.262884 0
231 1 0.331601 0.232037 0
232 1 0.355828 0.24074 0
261 1 0.338353 0.256509 0
263 1 0.361439 0.265054 0
260 1 0.318537 0.272044 0
235 1 0.397865 0.231627 0
234 1 0.379569 0.248788 0
265 1 0.403845 0.256137 0
264 1 0.385702 0.272667 0
206 1 0.421351 0.237755 0
237 1 0.44491 0.244773 0
236 1 0.427315 0.262812 0
238 1 0.452038 0.269731 0
210 1 0.487692 0.235131 0
239 1 0.469638 0.25183 0
240 1 0.493585 0.258981 0
271 1 0.0363139 0.291103 0
1200 1 0.0178646 0.309495 0
272 1 0.0416066 0.315563 0
1170 1 0.000311395 0.294067 0
273 1 0.0559077 0.275291 0
246 1 0.079586 0.282955 0
275 1 0.0609529 0.299818 0
276 1 0.0844119 0.30719 0
249 1 0.121934 0.272811 0
248 1 0.103092 0.289573 0
279 1 0.125539 0.29752 0
277 1 0.108405 0.31491 0
250 1 0.14503 0.279711 0
280 1 0.150353 0.304752 0
281 1 0.168509 0.287412 0
282 1 0.173706 0.313034 0
254 1 0.210727 0.279467 0
283 1 0.192024 0.296035 0
284 1 0.21595 0.304014 0
285 1 0.234296 0.287977 0
287 1 0.2582 0.296213 0
286 1 0.238874 0.312065 0
258 1 0.276164 0.279749 0
288 1 0.2813 0.304012 0
289 1 0.299626 0.287312 0
290 1 0.303864 0.312407 0
262 1 0.34336 0.280804 0
291 1 0.322831 0.296774 0
292 1 0.348236 0.304716 0
293 1 0.367152 0.289008 0
295 1 0.391036 0.296315 0
294 1 0.372164 0.313245 0
266 1 0.409794 0.279862 0
267 1 0.434216 0.286626 0
297 1 0.415546 0.303325 0
298 1 0.439183 0.309851 0
268 1 0.458134 0.293629 0
269 1 0.475634 0.276699 0
270 1 0.482193 0.300265 0
299 1 0.463314 0.318011 0
1230 1 0.00522058 0.348752 0
301 1 0.02456 0.333251 0
302 1 0.0284617 0.357819 0
303 1 0.0477807 0.341257 0
274 1 0.0659364 0.324389 0
304 1 0.070982 0.349314 0
305 1 0.0889337 0.331599 0
306 1 0.0941969 0.357023 0
278 1 0.130987 0.321773 0
307 1 0.112801 0.339237 0
309 1 0.135954 0.346394 0
308 1 0.11768 0.365056 0
311 1 0.154572 0.329642 0
310 1 0.159347 0.354614 0
312 1 0.177744 0.337679 0
313 1 0.196892 0.320019 0
314 1 0.201261 0.344891 0
315 1 0.219659 0.328413 0
345 1 0.225579 0.352967 0
343 1 0.183699 0.362202 0
317 1 0.262741 0.320487 0
316 1 0.244268 0.336655 0
318 1 0.267643 0.344334 0
347 1 0.249234 0.361712 0
319 1 0.286409 0.329511 0
320 1 0.291892 0.352866 0
321 1 0.310423 0.336977 0
351 1 0.315489 0.36071 0
323 1 0.329784 0.320541 0
322 1 0.33567 0.344206 0
324 1 0.35349 0.329166 0
355 1 0.359473 0.353759 0
296 1 0.397148 0.320328 0
325 1 0.378415 0.336632 0
326 1 0.402455 0.344381 0
356 1 0.383024 0.362407 0
327 1 0.42088 0.328207 0
328 1 0.427539 0.352816 0
329 1 0.444291 0.332572 0
359 1 0.451864 0.355683 0
300 1 0.488489 0.323813 0
1201 1 0.494214 0.35254 0
330 1 0.472073 0.341812 0
332 1 0.0323042 0.382242 0
361 1 0.0136937 0.399217 0
331 1 0.00894743 0.373601 0
363 1 0.0369169 0.40709 0
333 1 0.0516767 0.366033 0
335 1 0.0755877 0.373951 0
334 1 0.056564 0.390496 0
336 1 0.0804959 0.398072 0
337 1 0.099668 0.381006 0
338 1 0.123581 0.38911 0
367 1 0.104687 0.404931 0
339 1 0.14205 0.372212 0
341 1 0.166058 0.379422 0
340 1 0.147251 0.396381 0
371 1 0.171525 0.402898 0
342 1 0.189677 0.386819 0
344 1 0.207228 0.369955 0
375 1 0.212511 0.393859 0
346 1 0.231394 0.377449 0
377 1 0.254913 0.386054 0
376 1 0.236191 0.40216 0
349 1 0.272877 0.369134 0
348 1 0.278174 0.393868 0
350 1 0.296855 0.376725 0
379 1 0.302272 0.401519 0
381 1 0.319791 0.385022 0
353 1 0.339148 0.368758 0
352 1 0.342609 0.392717 0
354 1 0.364613 0.378444 0
385 1 0.378308 0.400153 0
357 1 0.4089 0.368887 0
387 1 0.402196 0.393282 0
358 1 0.427103 0.386084 0
389 1 0.446465 0.403395 0
360 1 0.451162 0.380056 0
388 1 0.422502 0.409416 0
1231 1 0.474128 0.368537 0
1232 1 0.470524 0.394977 0
1263 1 0.494663 0.383969 0
362 1 0.019237 0.424126 0
393 1 0.0242989 0.448226 0
364 1 0.0431933 0.431574 0
392 1 0.000531763 0.440065 0
365 1 0.0613458 0.415044 0
395 1 0.0670595 0.439306 0
366 1 0.0847019 0.422753 0
397 1 0.0905706 0.446782 0
369 1 0.127988 0.41295 0
368 1 0.109518 0.429151 0
399 1 0.133369 0.437336 0
370 1 0.151962 0.419983 0
401 1 0.17538 0.428194 0
400 1 0.157604 0.444742 0
402 1 0.180622 0.45341 0
372 1 0.199795 0.436319 0
373 1 0.194364 0.411119 0
374 1 0.218619 0.418916 0
403 1 0.222374 0.444863 0
405 1 0.242678 0.427112 0
407 1 0.266063 0.435376 0
378 1 0.260106 0.410358 0
406 1 0.248305 0.452938 0
409 1 0.284953 0.42038 0
410 1 0.302762 0.449737 0
380 1 0.309861 0.425087 0
383 1 0.357486 0.411176 0
382 1 0.333244 0.41689 0
411 1 0.327656 0.442252 0
413 1 0.351047 0.434384 0
384 1 0.375482 0.426006 0
414 1 0.370125 0.450858 0
415 1 0.394063 0.441439 0
386 1 0.398769 0.417977 0
417 1 0.417664 0.434031 0
419 1 0.44035 0.427202 0
418 1 0.435959 0.450666 0
1262 1 0.489263 0.409236 0
1291 1 0.484333 0.434614 0
1261 1 0.465657 0.418716 0
390 1 0.460609 0.443263 0
422 1 0.0300233 0.472323 0
453 1 0.0351707 0.495931 0
451 1 0.0122576 0.489025 0
421 1 0.00563419 0.464388 0
394 1 0.0480235 0.456141 0
423 1 0.0536381 0.479562 0
396 1 0.0723976 0.463061 0
425 1 0.0763841 0.48793 0
398 1 0.113825 0.453597 0
427 1 0.0965825 0.4708 0
428 1 0.119297 0.47863 0
457 1 0.100584 0.494493 0
429 1 0.138695 0.461526 0
430 1 0.142886 0.485473 0
431 1 0.161271 0.469314 0
461 1 0.166165 0.494095 0
432 1 0.184263 0.477917 0
433 1 0.203755 0.461108 0
434 1 0.207426 0.485425 0
404 1 0.22794 0.469216 0
436 1 0.251744 0.476778 0
435 1 0.230949 0.493308 0
408 1 0.276608 0.458743 0
437 1 0.275336 0.484851 0
438 1 0.296419 0.498881 0
439 1 0.298403 0.474225 0
440 1 0.318361 0.490012 0
412 1 0.346398 0.459131 0
441 1 0.322037 0.465919 0
442 1 0.342747 0.482853 0
473 1 0.361465 0.499055 0
443 1 0.366082 0.474632 0
445 1 0.389235 0.465678 0
444 1 0.384546 0.490767 0
446 1 0.407982 0.483183 0
420 1 0.455326 0.467311 0
449 1 0.450416 0.492603 0
416 1 0.412576 0.45813 0
447 1 0.431545 0.475289 0
448 1 0.426631 0.500191 0
450 1 0.474489 0.483976 0
1321 1 0.479087 0.459214 0
1322 1 0.497408 0.474887 0
452 1 0.0170492 0.513562 0
483 1 0.0206213 0.537965 0
454 1 0.0397813 0.522106 0
456 1 0.0865036 0.53666 0
455 1 0.0630698 0.529649 0
426 1 0.0825534 0.511619 0
424 1 0.0579314 0.504771 0
458 1 0.105934 0.519839 0
459 1 0.123632 0.503022 0
489 1 0.129672 0.52696 0
460 1 0.148289 0.510581 0
462 1 0.170456 0.519312 0
491 1 0.1525 0.536907 0
463 1 0.188966 0.503 0
493 1 0.193397 0.527279 0
464 1 0.211467 0.510389 0
495 1 0.216724 0.535035 0
466 1 0.234719 0.518599 0
497 1 0.258359 0.526698 0
496 1 0.240173 0.542715 0
465 1 0.253066 0.501582 0
468 1 0.292779 0.524223 0
469 1 0.315784 0.515039 0
499 1 0.309811 0.541586 0
467 1 0.27495 0.509254 0
470 1 0.332583 0.53216 0
472 1 0.356427 0.523414 0
471 1 0.337932 0.506875 0
503 1 0.3741 0.539993 0
474 1 0.3795 0.515444 0
475 1 0.403091 0.507085 0
476 1 0.398015 0.532242 0
477 1 0.421333 0.523593 0
478 1 0.444839 0.516848 0
507 1 0.438701 0.541191 0
480 1 0.463077 0.533232 0
479 1 0.469395 0.508532 0
1381 1 0.487431 0.524643 0
1351 1 0.49283 0.499903 0
513 1 0.0257814 0.562613 0
512 1 0.0300938 0.587401 0
541 1 0.00605951 0.579827 0
482 1 0.0022932 0.554511 0
485 1 0.0449633 0.54616 0
486 1 0.0674913 0.554399 0
484 1 0.0495238 0.571183 0
515 1 0.0734436 0.579487 0
487 1 0.0904624 0.560933 0
488 1 0.109843 0.545112 0
517 1 0.0961383 0.586728 0
519 1 0.114794 0.570425 0
490 1 0.133314 0.55294 0
492 1 0.175975 0.544851 0
520 1 0.139458 0.576901 0
521 1 0.157624 0.561398 0
522 1 0.162855 0.585872 0
523 1 0.180967 0.570099 0
494 1 0.199111 0.552567 0
524 1 0.204129 0.577201 0
525 1 0.223122 0.560025 0
555 1 0.227949 0.584303 0
526 1 0.246345 0.568311 0
527 1 0.263165 0.551674 0
498 1 0.286254 0.547927 0
528 1 0.277383 0.57243 0
529 1 0.30314 0.566204 0
559 1 0.297306 0.590219 0
501 1 0.350734 0.548301 0
530 1 0.321024 0.582606 0
500 1 0.327641 0.55739 0
531 1 0.34537 0.573976 0
533 1 0.363456 0.591684 0
502 1 0.368551 0.565695 0
505 1 0.392145 0.556638 0
504 1 0.38682 0.581866 0
535 1 0.410599 0.574124 0
506 1 0.415098 0.548602 0
508 1 0.434036 0.565667 0
539 1 0.451858 0.583255 0
537 1 0.42813 0.59106 0
509 1 0.457284 0.557325 0
510 1 0.481212 0.549404 0
540 1 0.474879 0.573527 0
542 1 0.0108054 0.604319 0
571 1 0.0152793 0.629226 0
543 1 0.0349617 0.612922 0
514 1 0.0540909 0.595289 0
516 1 0.0786396 0.604828 0
545 1 0.0588111 0.620638 0
546 1 0.0838963 0.629113 0
518 1 0.120337 0.594024 0
547 1 0.102653 0.611705 0
548 1 0.12628 0.61889 0
549 1 0.143735 0.601529 0
551 1 0.166584 0.611968 0
550 1 0.148749 0.627764 0
581 1 0.172112 0.636771 0
553 1 0.186319 0.594202 0
552 1 0.190455 0.617988 0
554 1 0.210741 0.601271 0
583 1 0.214268 0.625263 0
557 1 0.250997 0.593326 0
556 1 0.233692 0.610117 0
587 1 0.262976 0.620625 0
585 1 0.238571 0.634238 0
558 1 0.274432 0.59839 0
560 1 0.291818 0.615563 0
591 1 0.310924 0.631433 0
561 1 0.316468 0.606809 0
532 1 0.340064 0.598685 0
562 1 0.334371 0.622957 0
563 1 0.358618 0.615584 0
534 1 0.381906 0.607728 0
536 1 0.404747 0.599542 0
566 1 0.399359 0.623574 0
565 1 0.376759 0.63305 0
567 1 0.423909 0.616103 0
538 1 0.446316 0.607729 0
597 1 0.441307 0.633999 0
1441 1 0.493217 0.590907 0
568 1 0.464402 0.624246 0
569 1 0.470096 0.598493 0
570 1 0.488494 0.616583 0
544 1 0.0403678 0.637166 0
573 1 0.0207694 0.653509 0
603 1 0.025197 0.679086 0
574 1 0.0466247 0.661187 0
575 1 0.0659228 0.645216 0
605 1 0.0698538 0.67094 0
576 1 0.0891942 0.654054 0
607 1 0.0939913 0.677949 0
577 1 0.107508 0.635409 0
578 1 0.113149 0.661095 0
579 1 0.131268 0.644617 0
609 1 0.136381 0.670043 0
580 1 0.154916 0.654128 0
611 1 0.179728 0.661396 0
610 1 0.15969 0.679117 0
582 1 0.195079 0.641734 0
584 1 0.217217 0.650172 0
613 1 0.203117 0.669578 0
614 1 0.227551 0.679674 0
586 1 0.261997 0.645547 0
615 1 0.239645 0.658632 0
617 1 0.259391 0.672782 0
589 1 0.28551 0.638764 0
588 1 0.282007 0.663611 0
590 1 0.305634 0.65636 0
619 1 0.301316 0.681184 0
564 1 0.352395 0.640307 0
593 1 0.329065 0.647484 0
621 1 0.324319 0.672164 0
592 1 0.347818 0.66485 0
595 1 0.395491 0.648463 0
594 1 0.371427 0.656447 0
625 1 0.389241 0.673605 0
623 1 0.365951 0.681259 0
627 1 0.412357 0.666365 0
596 1 0.417884 0.640647 0
598 1 0.435311 0.658053 0
628 1 0.45479 0.675335 0
599 1 0.458986 0.650824 0
600 1 0.482623 0.642026 0
629 1 0.477285 0.665793 0
602 1 0.00656258 0.694452 0
633 1 0.0304593 0.70381 0
634 1 0.0359479 0.727692 0
604 1 0.0493495 0.686226 0
606 1 0.0728389 0.69461 0
635 1 0.0549318 0.711641 0
636 1 0.080102 0.718169 0
637 1 0.0988317 0.701703 0
608 1 0.117756 0.68663 0
638 1 0.122096 0.711699 0
639 1 0.140776 0.6953 0
640 1 0.145185 0.721852 0
641 1 0.164998 0.703924 0
612 1 0.183036 0.685935 0
642 1 0.188506 0.711974 0
643 1 0.20782 0.694509 0
645 1 0.230177 0.704379 0
616 1 0.252395 0.697053 0
646 1 0.247397 0.721584 0
647 1 0.271213 0.71312 0
618 1 0.27699 0.68884 0
649 1 0.294792 0.705574 0
650 1 0.31448 0.722064 0
620 1 0.319018 0.69785 0
622 1 0.342878 0.689121 0
651 1 0.337928 0.714271 0
653 1 0.360726 0.706829 0
624 1 0.38343 0.698665 0
655 1 0.402774 0.71529 0
654 1 0.378979 0.723518 0
626 1 0.408547 0.690752 0
657 1 0.430706 0.6824 0
656 1 0.426126 0.707324 0
658 1 0.449707 0.699446 0
687 1 0.444997 0.724126 0
630 1 0.495826 0.681885 0
659 1 0.472976 0.691876 0
660 1 0.492468 0.707952 0
689 1 0.468912 0.717658 0
691 1 0.000448993 0.761756 0
663 1 0.013137 0.739452 0
662 1 0.0238415 0.762029 0
664 1 0.0440408 0.749873 0
665 1 0.0620606 0.73455 0
666 1 0.0851444 0.743199 0
695 1 0.0661371 0.758699 0
697 1 0.0876087 0.76913 0
667 1 0.1031 0.726571 0
669 1 0.125984 0.736916 0
668 1 0.107681 0.753427 0
699 1 0.130951 0.762786 0
671 1 0.169039 0.730032 0
670 1 0.149107 0.746777 0
672 1 0.17289 0.754705 0
701 1 0.153101 0.773528 0
644 1 0.219432 0.726557 0
673 1 0.193813 0.736387 0
674 1 0.217333 0.751465 0
703 1 0.195566 0.761683 0
675 1 0.240755 0.744701 0
705 1 0.235887 0.769375 0
677 1 0.26647 0.73723 0
676 1 0.260086 0.76162 0
648 1 0.289923 0.729381 0
679 1 0.308113 0.747005 0
678 1 0.284356 0.753912 0
709 1 0.303314 0.771046 0
680 1 0.326251 0.763618 0
652 1 0.356168 0.731162 0
681 1 0.331651 0.739033 0
682 1 0.349783 0.755281 0
683 1 0.373926 0.748481 0
684 1 0.393146 0.764121 0
685 1 0.397903 0.73994 0
715 1 0.416815 0.756397 0
686 1 0.421343 0.732211 0
717 1 0.440639 0.750321 0
688 1 0.464312 0.741519 0
690 1 0.487744 0.732909 0
719 1 0.482319 0.758602 0
718 1 0.459121 0.766468 0
693 1 0.0220551 0.786129 0
692 1 0.0103862 0.806412 0
694 1 0.0460495 0.773883 0
723 1 0.0443625 0.798563 0
696 1 0.0682592 0.784368 0
725 1 0.0704373 0.80794 0
727 1 0.091864 0.793521 0
698 1 0.111498 0.778517 0
728 1 0.11329 0.805078 0
700 1 0.133481 0.789465 0
729 1 0.135293 0.814707 0
731 1 0.155999 0.799118 0
732 1 0.179933 0.811094 0
702 1 0.17622 0.782511 0
704 1 0.212935 0.778607 0
733 1 0.203197 0.801145 0
734 1 0.225526 0.818372 0
735 1 0.231279 0.79448 0
706 1 0.254986 0.786517 0
736 1 0.249887 0.811199 0
737 1 0.273232 0.802885 0
707 1 0.279881 0.77881 0
708 1 0.298003 0.795857 0
739 1 0.316105 0.812707 0
710 1 0.321649 0.788136 0
711 1 0.34461 0.779561 0
741 1 0.339741 0.804999 0
712 1 0.363322 0.797299 0
713 1 0.368874 0.772192 0
743 1 0.387257 0.788705 0
745 1 0.404976 0.805215 0
744 1 0.381985 0.813239 0
716 1 0.43445 0.773966 0
714 1 0.410788 0.780973 0
746 1 0.429682 0.798848 0
748 1 0.4491 0.817171 0
747 1 0.452952 0.791434 0
720 1 0.478264 0.783695 0
749 1 0.472939 0.807844 0
1621 1 0.494485 0.818001 0
751 1 0.0270242 0.824517 0
752 1 0.0216264 0.848714 0
1680 1 0.00279083 0.830105 0
753 1 0.0469436 0.845129 0
722 1 0.0507153 0.821173 0
724 1 0.0702366 0.833172 0
754 1 0.0690589 0.859017 0
726 1 0.092511 0.818979 0
755 1 0.0923253 0.845156 0
756 1 0.115446 0.854154 0
757 1 0.114157 0.829323 0
759 1 0.13634 0.839452 0
730 1 0.157112 0.824397 0
760 1 0.158089 0.849652 0
761 1 0.178956 0.83673 0
763 1 0.202168 0.82616 0
762 1 0.199231 0.850625 0
764 1 0.221172 0.84262 0
795 1 0.237039 0.860084 0
767 1 0.267862 0.828196 0
765 1 0.244047 0.835793 0
766 1 0.261404 0.85365 0
738 1 0.292507 0.819637 0
768 1 0.285249 0.844632 0
769 1 0.309933 0.8369 0
799 1 0.303218 0.862316 0
770 1 0.326734 0.8544 0
740 1 0.333624 0.829064 0
771 1 0.350672 0.847956 0
742 1 0.358013 0.823468 0
773 1 0.375369 0.839329 0
774 1 0.399118 0.830372 0
803 1 0.394153 0.855382 0
775 1 0.42349 0.822849 0
777 1 0.441437 0.842878 0
776 1 0.417837 0.846729 0
750 1 0.474052 0.833156 0
779 1 0.462092 0.854069 0
780 1 0.485644 0.859281 0
782 1 0.0139795 0.872009 0
813 1 0.0296616 0.891411 0
812 1 0.0044261 0.895211 0
783 1 0.0390529 0.868663 0
784 1 0.0692428 0.883556 0
815 1 0.0726767 0.908076 0
785 1 0.0915073 0.869266 0
786 1 0.0921459 0.893928 0
787 1 0.114823 0.878846 0
817 1 0.116064 0.903778 0
758 1 0.136664 0.864099 0
791 1 0.178891 0.863107 0
788 1 0.137875 0.88922 0
789 1 0.158484 0.87569 0
790 1 0.160917 0.900522 0
792 1 0.181423 0.886923 0
793 1 0.202699 0.874249 0
823 1 0.203473 0.89964 0
794 1 0.225945 0.883658 0
796 1 0.254597 0.87766 0
825 1 0.247824 0.9008 0
827 1 0.272999 0.895201 0
797 1 0.278527 0.870268 0
798 1 0.297271 0.886459 0
829 1 0.315615 0.903851 0
800 1 0.322341 0.878951 0
801 1 0.345891 0.871558 0
831 1 0.341145 0.896142 0
802 1 0.365068 0.888133 0
772 1 0.37 0.863939 0
804 1 0.390065 0.880443 0
833 1 0.38226 0.904419 0
806 1 0.407457 0.90616 0
778 1 0.438481 0.867121 0
805 1 0.413071 0.87075 0
807 1 0.427759 0.889179 0
808 1 0.45113 0.895192 0
1711 1 0.499737 0.906613 0
809 1 0.46802 0.877237 0
1681 1 0.492517 0.882994 0
810 1 0.475814 0.901435 0
842 1 0.0115613 0.938044 0
843 1 0.0203915 0.914444 0
844 1 0.0366708 0.932724 0
814 1 0.0471186 0.908529 0
845 1 0.0610014 0.929134 0
846 1 0.0764105 0.94805 0
816 1 0.0953868 0.919509 0
847 1 0.0995409 0.943573 0
818 1 0.119313 0.928817 0
819 1 0.140128 0.91413 0
849 1 0.141611 0.940184 0
820 1 0.161932 0.926221 0
850 1 0.164136 0.951912 0
821 1 0.182884 0.912359 0
851 1 0.184713 0.937875 0
822 1 0.205348 0.924363 0
853 1 0.207713 0.948929 0
824 1 0.224875 0.909989 0
855 1 0.227939 0.934422 0
826 1 0.26545 0.918634 0
856 1 0.250815 0.943352 0
828 1 0.292336 0.911171 0
857 1 0.28813 0.935341 0
859 1 0.311653 0.929845 0
858 1 0.304316 0.95388 0
830 1 0.33374 0.919121 0
861 1 0.349694 0.9381 0
832 1 0.358856 0.914508 0
863 1 0.374901 0.944284 0
834 1 0.392331 0.925828 0
865 1 0.399222 0.949235 0
837 1 0.433066 0.913579 0
835 1 0.415831 0.931339 0
838 1 0.440135 0.935953 0
839 1 0.457613 0.918069 0
1741 1 0.490112 0.947393 0
840 1 0.482564 0.924485 0
869 1 0.464973 0.941594 0
872 1 0.0191406 0.981234 0
873 1 0.0275415 0.956647 0
871 1 0.00351069 0.961762 0
874 1 0.0432574 0.976328 0
875 1 0.0514159 0.952072 0
876 1 0.0682326 0.97134 0
5 1 0.0602238 0.995171 0
7 1 0.084908 0.989148 0
848 1 0.121188 0.95506 0
877 1 0.0982317 0.969178 0
878 1 0.120834 0.979392 0
879 1 0.142867 0.965778 0
880 1 0.143909 0.990628 0
881 1 0.164675 0.977479 0
852 1 0.18637 0.962859 0
882 1 0.186648 0.987693 0
883 1 0.208451 0.973143 0
854 1 0.230985 0.959197 0
884 1 0.230789 0.983533 0
885 1 0.254036 0.969867 0
886 1 0.252694 0.995278 0
887 1 0.272522 0.954141 0
888 1 0.28832 0.972751 0
19 1 0.298555 0.994922 0
889 1 0.31516 0.976711 0
860 1 0.331483 0.957259 0
862 1 0.356427 0.962424 0
891 1 0.34037 0.981392 0
892 1 0.364619 0.986598 0
864 1 0.381459 0.968204 0
893 1 0.389331 0.991213 0
895 1 0.407204 0.972821 0
836 1 0.423453 0.95502 0
867 1 0.44707 0.959688 0
866 1 0.43215 0.979678 0
896 1 0.414121 0.996223 0
868 1 0.456041 0.983382 0
899 1 0.48008 0.989651 0
1771 1 0.497343 0.971332 0
870 1 0.471979 0.965375 0
902 1 0.538188 0.0247136 0
931 1 0.520757 0.0418828 0
901 1 0.514078 0.0176968 0
903 1 0.530772 -8.86242e-05 0
904 1 0.562754 0.0300637 0
906 1 0.580409 0.0116824 0
905 1 0.555562 0.00597244 0
935 1 0.588537 0.0360844 0
908 1 0.605266 0.0178208 0
937 1 0.612129 0.0420114 0
939 1 0.629061 0.023024 0
941 1 0.653749 0.0281485 0
912 1 0.670749 0.0100394 0
942 1 0.677644 0.0332882 0
910 1 0.645768 0.00518426 0
943 1 0.695998 0.0141266 0
944 1 0.702153 0.0396208 0
945 1 0.721368 0.0202324 0
947 1 0.744904 0.0267375 0
918 1 0.762587 0.0070229 0
948 1 0.769515 0.0319374 0
916 1 0.738098 0.0020442 0
975 1 0.726426 0.0444567 0
919 1 0.796033 0.0228981 0
920 1 0.81387 0.0430462 0
1790 1 0.805732 0.000385082 0
922 1 0.822956 0.0199473 0
951 1 0.838381 0.0391035 0
924 1 0.847234 0.0148884 0
953 1 0.864107 0.0328613 0
955 1 0.871731 0.00983039 0
954 1 0.888055 0.0284239 0
925 1 0.897277 0.00523432 0
957 1 0.938531 0.0193481 0
956 1 0.913027 0.0241668 0
987 1 0.930083 0.0422787 0
926 1 0.922189 0.000450737 0
958 1 0.954968 0.0380649 0
930 1 0.988438 0.00943099 0
959 1 0.963364 0.0141203 0
960 1 0.979024 0.0326554 0
60 1 0.504359 0.0608114 0
932 1 0.528799 0.0663725 0
961 1 0.512258 0.0847726 0
962 1 0.536561 0.0890696 0
933 1 0.544852 0.0480818 0
963 1 0.553085 0.0713851 0
934 1 0.569956 0.0540023 0
965 1 0.577561 0.0778895 0
936 1 0.594965 0.060268 0
966 1 0.601471 0.0839302 0
967 1 0.618319 0.0655947 0
968 1 0.626359 0.0896883 0
938 1 0.636262 0.0464677 0
940 1 0.66056 0.0526042 0
969 1 0.642641 0.0711969 0
970 1 0.666868 0.0764742 0
971 1 0.684633 0.0579169 0
972 1 0.691306 0.0814368 0
973 1 0.709437 0.0623861 0
1003 1 0.715588 0.0881691 0
946 1 0.751906 0.0508684 0
974 1 0.733068 0.0679969 0
976 1 0.75605 0.075842 0
949 1 0.790413 0.0476358 0
977 1 0.780552 0.0706476 0
979 1 0.805178 0.0671061 0
978 1 0.797642 0.0897341 0
980 1 0.821612 0.0869601 0
950 1 0.829786 0.0623812 0
981 1 0.846317 0.0811188 0
952 1 0.855418 0.0566505 0
983 1 0.880151 0.0526703 0
984 1 0.870878 0.0759051 0
1015 1 0.895536 0.0714981 0
985 1 0.904879 0.047517 0
986 1 0.922559 0.0662974 0
988 1 0.947183 0.0609444 0
1018 1 0.939001 0.0862088 0
1017 1 0.91324 0.0893389 0
989 1 0.971303 0.0565004 0
990 1 0.987622 0.0757607 0
1019 1 0.963281 0.0814839 0
61 1 0.994774 0.0520399 0
120 1 0.503704 0.124857 0
991 1 0.519949 0.107775 0
992 1 0.526728 0.131915 0
993 1 0.543559 0.113996 0
964 1 0.561072 0.0970371 0
994 1 0.568095 0.120373 0
995 1 0.584893 0.10245 0
996 1 0.59199 0.126326 0
997 1 0.609305 0.107703 0
998 1 0.633169 0.113998 0
1027 1 0.616271 0.131744 0
999 1 0.649958 0.095302 0
1000 1 0.656926 0.119324 0
1001 1 0.674126 0.100963 0
1031 1 0.680619 0.124765 0
1002 1 0.697841 0.106635 0
1004 1 0.721031 0.112052 0
1033 1 0.705432 0.131936 0
1005 1 0.73894 0.0938374 0
1006 1 0.767899 0.118197 0
1035 1 0.744262 0.118746 0
1007 1 0.772592 0.0948709 0
1008 1 0.790957 0.113853 0
1039 1 0.806045 0.133641 0
1009 1 0.815478 0.110856 0
1010 1 0.831631 0.129562 0
1011 1 0.838936 0.10503 0
1012 1 0.855818 0.122877 0
982 1 0.863179 0.098887 0
1013 1 0.880554 0.119007 0
1014 1 0.887168 0.095135 0
1016 1 0.904853 0.113129 0
1049 1 0.946538 0.128331 0
1047 1 0.923015 0.132176 0
1020 1 0.980146 0.100296 0
1050 1 0.971274 0.123958 0
121 1 0.996082 0.119522 0
1022 1 0.534382 0.1564 0
1051 1 0.516363 0.173579 0
1021 1 0.50986 0.149186 0
1053 1 0.540922 0.181001 0
1023 1 0.550623 0.137985 0
1024 1 0.55844 0.162112 0
1025 1 0.575021 0.144932 0
1055 1 0.581825 0.169107 0
1026 1 0.598735 0.149949 0
1028 1 0.622398 0.155687 0
1057 1 0.606063 0.175209 0
1058 1 0.629084 0.180655 0
1029 1 0.639952 0.138401 0
1059 1 0.646077 0.161651 0
1030 1 0.664127 0.143567 0
1061 1 0.670174 0.167626 0
1032 1 0.687941 0.149577 0
1063 1 0.712085 0.156258 0
1062 1 0.695715 0.17465 0
1064 1 0.719676 0.180607 0
1034 1 0.729419 0.138567 0
1036 1 0.756067 0.141368 0
1065 1 0.738567 0.162171 0
1037 1 0.782504 0.137372 0
1067 1 0.772167 0.159964 0
1038 1 0.798382 0.157665 0
1069 1 0.814446 0.176116 0
1068 1 0.790248 0.180707 0
1040 1 0.822735 0.152805 0
1041 1 0.847345 0.148045 0
1071 1 0.840199 0.170884 0
1045 1 0.897581 0.136965 0
1042 1 0.864525 0.166588 0
1043 1 0.871775 0.142202 0
1044 1 0.888659 0.161265 0
1075 1 0.905588 0.180468 0
1046 1 0.913753 0.156526 0
1048 1 0.938273 0.151436 0
1077 1 0.930172 0.175423 0
1078 1 0.954676 0.170421 0
1079 1 0.963044 0.147245 0
1080 1 0.98005 0.166546 0
151 1 0.987712 0.142328 0
1052 1 0.523028 0.199113 0
1082 1 0.5293 0.223615 0
1081 1 0.504885 0.217346 0
1083 1 0.547002 0.205645 0
1054 1 0.564363 0.186831 0
1056 1 0.587522 0.193548 0
1085 1 0.570959 0.212296 0
1086 1 0.594202 0.217657 0
1087 1 0.610848 0.19961 0
1088 1 0.618752 0.22326 0
1089 1 0.635806 0.204484 0
1060 1 0.653609 0.185827 0
1091 1 0.677896 0.191496 0
1090 1 0.659892 0.209658 0
1092 1 0.683329 0.215819 0
1093 1 0.702562 0.198906 0
1094 1 0.726424 0.205832 0
1123 1 0.706807 0.222575 0
1066 1 0.766004 0.184189 0
1095 1 0.742907 0.186967 0
1096 1 0.757182 0.207905 0
1097 1 0.783212 0.204926 0
1099 1 0.806965 0.199198 0
1098 1 0.799741 0.223441 0
1100 1 0.823546 0.217904 0
1072 1 0.856743 0.190085 0
1070 1 0.831212 0.19445 0
1101 1 0.847808 0.212983 0
1073 1 0.881216 0.185634 0
1103 1 0.872576 0.20929 0
1074 1 0.897103 0.203659 0
1105 1 0.912812 0.222602 0
1076 1 0.921743 0.199433 0
1107 1 0.946326 0.194091 0
1108 1 0.937632 0.218295 0
211 1 0.98716 0.208949 0
1109 1 0.971927 0.189615 0
1110 1 0.962355 0.213179 0
181 1 0.996559 0.18528 0
1111 1 0.511059 0.241487 0
1113 1 0.535987 0.248494 0
1112 1 0.517883 0.265567 0
1143 1 0.542649 0.272533 0
1084 1 0.553443 0.230282 0
1114 1 0.560114 0.254992 0
1115 1 0.576687 0.236122 0
1116 1 0.583243 0.260656 0
1117 1 0.6007 0.241474 0
1118 1 0.625467 0.247195 0
1147 1 0.608439 0.265518 0
1149 1 0.633306 0.27177 0
1119 1 0.642428 0.228113 0
1121 1 0.66628 0.234034 0
1120 1 0.649017 0.253384 0
1151 1 0.67293 0.259921 0
1122 1 0.6899 0.240971 0
1124 1 0.712861 0.24815 0
1153 1 0.696776 0.266478 0
1154 1 0.721188 0.271614 0
1125 1 0.729113 0.229471 0
1126 1 0.752043 0.231197 0
1155 1 0.738354 0.252839 0
1157 1 0.765532 0.251555 0
1127 1 0.775463 0.227653 0
1128 1 0.791037 0.246734 0
1129 1 0.815632 0.241708 0
1159 1 0.806994 0.265966 0
1158 1 0.782621 0.27023 0
1131 1 0.840434 0.237994 0
1132 1 0.854875 0.25681 0
1130 1 0.831432 0.260834 0
1102 1 0.863531 0.232851 0