ITEM: TIMESTEP
144000
ITEM: NUMBER OF ATOMS
1800
ITEM: BOX BOUNDS pp pp pp
9.7124355453800604e-01 1.6402875644544531e+02
9.7124355453800604e-01 1.6402875644544531e+02
0.0000000000000000e+00 5.5000000000000000e+00
ITEM: ATOMS id type xs ys zs
2 1 0.00933479 0.00901867 0
33 1 0.0250641 0.0300037 0
31 1 0.000237677 0.0327836 0
3 1 0.0331723 0.00670912 0
4 1 0.0511122 0.0235659 0
5 1 0.0793146 0.0108718 0
6 1 0.0845396 0.0344366 0
35 1 0.0642682 0.0450009 0
874 1 0.0566566 -0.00153164 0
8 1 0.103918 0.020321 0
39 1 0.125976 0.0318814 0
9 1 0.122995 0.00528503 0
10 1 0.145748 0.0156058 0
41 1 0.167636 0.0267533 0
40 1 0.148616 0.0421602 0
11 1 0.16526 0.00111982 0
12 1 0.187767 0.0109779 0
43 1 0.190901 0.0359669 0
14 1 0.210921 0.0206758 0
15 1 0.230933 0.00536793 0
45 1 0.234049 0.029604 0
16 1 0.252727 0.014106 0
46 1 0.25589 0.0386034 0
18 1 0.276126 0.0213023 0
49 1 0.300356 0.0280703 0
20 1 0.319019 0.0125425 0
51 1 0.322212 0.0383555 0
21 1 0.343081 0.00865887 0
22 1 0.362843 0.0320524 0
24 1 0.384167 0.0198516 0
55 1 0.406196 0.0296288 0
53 1 0.387709 0.045277 0
25 1 0.423081 0.0129504 0
26 1 0.429719 0.0370912 0
27 1 0.447738 0.0206627 0
28 1 0.453731 0.0444035 0
29 1 0.47166 0.0259439 0
900 1 0.489118 0.00747755 0
30 1 0.495482 0.0328343 0
898 1 0.465263 0.0023244 0
32 1 0.0160792 0.0528131 0
62 1 0.00875525 0.0769002 0
63 1 0.0330966 0.0736875 0
34 1 0.0402533 0.0493244 0
65 1 0.0581979 0.0689287 0
36 1 0.0850111 0.0616813 0
66 1 0.074806 0.0877334 0
64 1 0.0494994 0.0922712 0
37 1 0.105498 0.0455955 0
38 1 0.107625 0.0719346 0
69 1 0.127925 0.0566024 0
68 1 0.131351 0.0818177 0
42 1 0.170562 0.0522018 0
71 1 0.150759 0.0672656 0
72 1 0.174314 0.0766572 0
44 1 0.213479 0.0457705 0
73 1 0.193237 0.0613583 0
74 1 0.216223 0.070391 0
103 1 0.197061 0.086031 0
75 1 0.236344 0.0545275 0
77 1 0.259249 0.063013 0
76 1 0.239009 0.0784673 0
107 1 0.262508 0.087507 0
47 1 0.279609 0.0459664 0
48 1 0.28274 0.0704291 0
79 1 0.304734 0.0791163 0
50 1 0.301958 0.0543566 0
52 1 0.343967 0.0492105 0
81 1 0.324538 0.0643163 0
82 1 0.347878 0.0740343 0
80 1 0.327141 0.0890203 0
83 1 0.367456 0.0593215 0
54 1 0.392464 0.0701351 0
113 1 0.372017 0.0836435 0
57 1 0.435505 0.0619408 0
56 1 0.411461 0.0539478 0
85 1 0.416512 0.0781803 0
87 1 0.443206 0.0852414 0
59 1 0.478086 0.0489813 0
58 1 0.460551 0.0675406 0
89 1 0.485422 0.0736703 0
88 1 0.467835 0.0923028 0
92 1 0.0161009 0.11975 0
93 1 0.0238738 0.0962295 0
94 1 0.0400981 0.114998 0
91 1 -0.00129324 0.0998682 0
95 1 0.0653384 0.111403 0
96 1 0.0827128 0.129852 0
125 1 0.0575353 0.134549 0
97 1 0.0898189 0.107229 0
67 1 0.111858 0.096522 0
99 1 0.133839 0.10852 0
98 1 0.112041 0.122091 0
129 1 0.135103 0.134172 0
70 1 0.153654 0.0928752 0
100 1 0.156531 0.119169 0
101 1 0.175208 0.10262 0
131 1 0.179828 0.128973 0
102 1 0.198691 0.111815 0
104 1 0.223381 0.119739 0
105 1 0.219877 0.094688 0
106 1 0.242468 0.103185 0
135 1 0.246202 0.129156 0
137 1 0.265149 0.111822 0
78 1 0.28563 0.094798 0
108 1 0.288465 0.12017 0
109 1 0.308085 0.104876 0
139 1 0.310988 0.130149 0
111 1 0.352341 0.0987864 0
110 1 0.332145 0.113434 0
141 1 0.354295 0.122831 0
84 1 0.397216 0.0953009 0
112 1 0.375542 0.107516 0
143 1 0.375778 0.13231 0
115 1 0.406855 0.118204 0
86 1 0.42457 0.102206 0
116 1 0.432311 0.126467 0
117 1 0.450108 0.110156 0
118 1 0.456679 0.133901 0
90 1 0.492031 0.0990807 0
119 1 0.474104 0.1155 0
120 1 0.49869 0.122647 0
152 1 -0.000120302 0.166125 0
122 1 0.00778359 0.143105 0
153 1 0.0248067 0.161626 0
123 1 0.0319613 0.138627 0
154 1 0.0407805 0.180948 0
124 1 0.0495344 0.157415 0
126 1 0.0740049 0.152049 0
155 1 0.0665053 0.17639 0
157 1 0.0913504 0.170632 0
127 1 0.101096 0.146178 0
128 1 0.11639 0.164844 0
159 1 0.141377 0.161032 0
130 1 0.159923 0.144178 0
161 1 0.164777 0.169985 0
133 1 0.204084 0.135804 0
132 1 0.184627 0.1541 0
163 1 0.20747 0.162014 0
162 1 0.18805 0.178927 0
134 1 0.227311 0.144323 0
136 1 0.268894 0.136227 0
164 1 0.230682 0.170405 0
165 1 0.249713 0.154263 0
166 1 0.253848 0.179719 0
167 1 0.271891 0.16323 0
138 1 0.291499 0.145099 0
169 1 0.314454 0.153966 0
168 1 0.295296 0.17099 0
170 1 0.318565 0.179177 0
140 1 0.334883 0.137816 0
142 1 0.356951 0.148016 0
171 1 0.33795 0.163221 0
172 1 0.361635 0.172511 0
114 1 0.397964 0.14066 0
144 1 0.403686 0.164625 0
173 1 0.380158 0.156679 0
174 1 0.384764 0.181095 0
145 1 0.420639 0.147414 0
147 1 0.443322 0.153531 0
146 1 0.426411 0.171266 0
177 1 0.44996 0.177622 0
149 1 0.481728 0.140671 0
148 1 0.466642 0.159463 0
150 1 0.491442 0.16531 0
183 1 0.0157074 0.185268 0
182 1 0.0081785 0.209169 0
184 1 0.0338756 0.204466 0
185 1 0.058007 0.199683 0
156 1 0.0836937 0.195163 0
186 1 0.0745241 0.218506 0
215 1 0.0491361 0.223823 0
158 1 0.107182 0.188482 0
189 1 0.125883 0.204124 0
187 1 0.100439 0.21391 0
160 1 0.144816 0.186761 0
191 1 0.168779 0.195884 0
190 1 0.14942 0.212245 0
221 1 0.173398 0.220873 0
193 1 0.211683 0.186372 0
192 1 0.193307 0.203596 0
194 1 0.216609 0.213107 0
195 1 0.234819 0.19603 0
196 1 0.25781 0.204483 0
225 1 0.239731 0.222031 0
227 1 0.263973 0.229282 0
197 1 0.277882 0.18895 0
199 1 0.301441 0.196587 0
198 1 0.282734 0.212822 0
229 1 0.305484 0.220664 0
201 1 0.342667 0.188322 0
200 1 0.324087 0.204128 0
202 1 0.34743 0.211933 0
203 1 0.366417 0.197123 0
204 1 0.389726 0.205319 0
233 1 0.371591 0.221603 0
175 1 0.40736 0.188344 0
205 1 0.413985 0.212093 0
176 1 0.432588 0.194752 0
207 1 0.438572 0.21813 0
179 1 0.474127 0.183179 0
178 1 0.456689 0.201367 0
208 1 0.462428 0.225687 0
180 1 0.497626 0.189677 0
209 1 0.480329 0.207405 0
213 1 0.0242211 0.228568 0
243 1 0.0145742 0.251347 0
214 1 0.041111 0.247467 0
244 1 0.0298808 0.270237 0
216 1 0.066858 0.243309 0
245 1 0.0567276 0.267726 0
217 1 0.0913847 0.23721 0
188 1 0.130935 0.230169 0
247 1 0.0906217 0.262782 0
218 1 0.11263 0.249875 0
219 1 0.136592 0.255201 0
220 1 0.154498 0.237431 0
251 1 0.159922 0.262976 0
222 1 0.178075 0.24583 0
223 1 0.196994 0.229 0
224 1 0.220233 0.238451 0
253 1 0.201265 0.254073 0
252 1 0.184291 0.271251 0
255 1 0.226492 0.262872 0
226 1 0.244612 0.245209 0
257 1 0.268279 0.254138 0
256 1 0.250913 0.269988 0
228 1 0.287482 0.237163 0
230 1 0.310607 0.244845 0
259 1 0.29289 0.261846 0
260 1 0.317022 0.269056 0
231 1 0.32907 0.22877 0
232 1 0.352753 0.236961 0
261 1 0.335206 0.253049 0
263 1 0.358953 0.260857 0
235 1 0.395821 0.228887 0
234 1 0.377478 0.245456 0
265 1 0.401854 0.25244 0
264 1 0.383884 0.268644 0
206 1 0.420111 0.23549 0
237 1 0.444924 0.242602 0
236 1 0.426072 0.25913 0
238 1 0.449978 0.267194 0
210 1 0.486171 0.233092 0
239 1 0.467756 0.250076 0
240 1 0.491823 0.256989 0
242 1 0.00629307 0.276092 0
271 1 0.021315 0.295941 0
272 1 0.0387152 0.315187 0
1200 1 0.0130604 0.31928 0
273 1 0.0449368 0.289659 0
246 1 0.075629 0.286067 0
275 1 0.0619649 0.306211 0
276 1 0.0857182 0.310965 0
249 1 0.118243 0.273723 0
248 1 0.0998394 0.290911 0
279 1 0.123698 0.298065 0
277 1 0.108952 0.317324 0
250 1 0.142695 0.280707 0
280 1 0.149074 0.305352 0
281 1 0.166698 0.288048 0
282 1 0.172723 0.313341 0
254 1 0.207438 0.278763 0
283 1 0.19065 0.296396 0
284 1 0.213657 0.30428 0
285 1 0.232004 0.287403 0
287 1 0.25583 0.295029 0
286 1 0.237885 0.3123 0
258 1 0.273831 0.278222 0
288 1 0.279124 0.302321 0
289 1 0.298186 0.285976 0
290 1 0.303366 0.309074 0
262 1 0.340874 0.276512 0
291 1 0.322924 0.294734 0
292 1 0.346556 0.301417 0
293 1 0.365327 0.284973 0
295 1 0.388187 0.292335 0
294 1 0.369307 0.309667 0
266 1 0.407744 0.276079 0
296 1 0.3934 0.317293 0
267 1 0.431755 0.282827 0
297 1 0.412486 0.299769 0
298 1 0.437376 0.307969 0
269 1 0.473605 0.274934 0
268 1 0.455522 0.291047 0
1141 1 0.49774 0.280918 0
270 1 0.479935 0.298286 0
299 1 0.461572 0.315307 0
1230 1 0.00396087 0.34267 0
301 1 0.0284999 0.338011 0
302 1 0.0332985 0.36282 0
303 1 0.0510986 0.345943 0
274 1 0.0687495 0.329595 0
304 1 0.0744512 0.352966 0
305 1 0.0923307 0.335292 0
306 1 0.0985304 0.360117 0
307 1 0.116059 0.34209 0
278 1 0.132505 0.323201 0
309 1 0.139309 0.34925 0
311 1 0.156174 0.331267 0
310 1 0.162899 0.356197 0
312 1 0.180894 0.338825 0
313 1 0.196649 0.321407 0
314 1 0.205382 0.346721 0
315 1 0.221055 0.328172 0
345 1 0.228684 0.354841 0
317 1 0.261785 0.318593 0
316 1 0.244405 0.335884 0
318 1 0.267734 0.344675 0
319 1 0.284509 0.32593 0
320 1 0.311885 0.356502 0
321 1 0.3087 0.33251 0
349 1 0.286766 0.360205 0
323 1 0.328023 0.318331 0
322 1 0.333177 0.344602 0
324 1 0.35149 0.326965 0
325 1 0.375746 0.33481 0
355 1 0.377375 0.358746 0
326 1 0.399969 0.344841 0
327 1 0.417432 0.324257 0
328 1 0.424845 0.346476 0
329 1 0.444707 0.332091 0
359 1 0.44561 0.359364 0
300 1 0.486364 0.322401 0
1201 1 0.493296 0.3464 0
330 1 0.468454 0.342607 0
332 1 0.0392243 0.387006 0
331 1 0.015553 0.378954 0
361 1 0.019975 0.402467 0
333 1 0.0570834 0.370063 0
335 1 0.0809374 0.377424 0
334 1 0.062321 0.394392 0
336 1 0.0860657 0.401301 0
308 1 0.121906 0.366816 0
337 1 0.104539 0.384572 0
338 1 0.128073 0.391011 0
367 1 0.109246 0.409432 0
339 1 0.145514 0.373906 0
341 1 0.168719 0.381207 0
340 1 0.151181 0.398869 0
371 1 0.17575 0.406258 0
343 1 0.186979 0.364078 0
342 1 0.193345 0.389496 0
344 1 0.21178 0.372757 0
375 1 0.217804 0.396085 0
347 1 0.262191 0.368492 0
346 1 0.236904 0.379504 0
377 1 0.25817 0.394225 0
348 1 0.281269 0.385792 0
350 1 0.304254 0.379149 0
379 1 0.300219 0.402727 0
353 1 0.353115 0.359649 0
381 1 0.324294 0.394717 0
351 1 0.331154 0.370575 0
352 1 0.348873 0.387803 0
383 1 0.366199 0.406279 0
354 1 0.3729 0.382397 0
385 1 0.390066 0.399255 0
356 1 0.396117 0.375134 0
387 1 0.413775 0.393334 0
357 1 0.420255 0.369601 0
358 1 0.438344 0.384968 0
389 1 0.45712 0.402083 0
1231 1 0.49252 0.370886 0
360 1 0.463358 0.377281 0
1232 1 0.480901 0.394959 0
363 1 0.0432786 0.411239 0
391 1 0.000992684 0.418586 0
362 1 0.0246535 0.426785 0
392 1 0.00616622 0.441882 0
393 1 0.0294966 0.450462 0
364 1 0.0490207 0.435536 0
365 1 0.0676299 0.418618 0
395 1 0.072406 0.443979 0
366 1 0.0910002 0.426732 0
369 1 0.133014 0.415592 0
397 1 0.0958487 0.450784 0
368 1 0.114936 0.43423 0
399 1 0.138721 0.44085 0
370 1 0.156605 0.423197 0
401 1 0.180737 0.43209 0
400 1 0.162971 0.449578 0
372 1 0.202572 0.438694 0
373 1 0.199707 0.413154 0
403 1 0.224841 0.448284 0
374 1 0.224653 0.423278 0
376 1 0.250337 0.417085 0
405 1 0.247479 0.440922 0
407 1 0.270235 0.434003 0
378 1 0.277052 0.410477 0
409 1 0.295083 0.427099 0
410 1 0.311501 0.44438 0
408 1 0.288018 0.451546 0
380 1 0.318853 0.419883 0
382 1 0.34267 0.412789 0
411 1 0.335846 0.438105 0
413 1 0.359731 0.431513 0
384 1 0.383541 0.42404 0
414 1 0.377366 0.447444 0
415 1 0.402069 0.441127 0
386 1 0.408584 0.417171 0
388 1 0.433081 0.408908 0
417 1 0.426064 0.434495 0
418 1 0.444147 0.451656 0
419 1 0.449881 0.427072 0
1261 1 0.473913 0.421474 0
390 1 0.467973 0.445353 0
1291 1 0.492025 0.43882 0
1262 1 0.496873 0.41358 0
451 1 0.0150605 0.490909 0
422 1 0.0342767 0.474957 0
421 1 0.0102336 0.466714 0
453 1 0.0390642 0.499244 0
423 1 0.0584138 0.484191 0
394 1 0.053319 0.459927 0
396 1 0.0764871 0.467896 0
425 1 0.0824025 0.491503 0
398 1 0.120076 0.458152 0
427 1 0.100727 0.475094 0
428 1 0.124494 0.483143 0
429 1 0.143307 0.465852 0
430 1 0.147477 0.490788 0
431 1 0.166887 0.474618 0
461 1 0.170692 0.500805 0
402 1 0.186214 0.457868 0
432 1 0.190068 0.483274 0
433 1 0.210292 0.46723 0
434 1 0.212099 0.492095 0
406 1 0.264613 0.458483 0
404 1 0.240936 0.466168 0
435 1 0.236204 0.490441 0
436 1 0.259202 0.481771 0
437 1 0.282074 0.475044 0
438 1 0.299687 0.493538 0
439 1 0.305497 0.469171 0
412 1 0.353154 0.454837 0
440 1 0.323621 0.486764 0
441 1 0.32948 0.461758 0
442 1 0.346909 0.479292 0
473 1 0.365753 0.496366 0
443 1 0.37077 0.472473 0
445 1 0.394857 0.465535 0
444 1 0.389032 0.489844 0
416 1 0.419152 0.458608 0
447 1 0.437581 0.476348 0
446 1 0.412633 0.482801 0
1321 1 0.485512 0.46335 0
420 1 0.461074 0.469995 0
450 1 0.479543 0.487585 0
449 1 0.455575 0.49378 0
452 1 0.0205092 0.514876 0
483 1 0.023566 0.539085 0
454 1 0.044312 0.523627 0
481 1 -0.00034495 0.531355 0
455 1 0.0670612 0.532022 0
426 1 0.0872941 0.515811 0
424 1 0.0634924 0.507279 0
456 1 0.0908158 0.541213 0
458 1 0.110252 0.524349 0
459 1 0.128551 0.508024 0
489 1 0.133382 0.532724 0
457 1 0.105825 0.499545 0
460 1 0.15238 0.517374 0
462 1 0.176146 0.525069 0
491 1 0.156829 0.542513 0
463 1 0.195463 0.509008 0
493 1 0.198602 0.534114 0
495 1 0.222501 0.539598 0
464 1 0.227237 0.514231 0
466 1 0.246229 0.531379 0
497 1 0.270802 0.52461 0
465 1 0.253325 0.507361 0
468 1 0.293804 0.517761 0
499 1 0.31126 0.534464 0
467 1 0.275875 0.499555 0
498 1 0.288094 0.542415 0
469 1 0.317299 0.511349 0
470 1 0.335002 0.527746 0
472 1 0.358964 0.520883 0
471 1 0.341158 0.504068 0
503 1 0.376496 0.538562 0
474 1 0.382461 0.514108 0
476 1 0.400869 0.532099 0
475 1 0.406109 0.507421 0
477 1 0.424806 0.524952 0
478 1 0.44866 0.518597 0
507 1 0.44208 0.542067 0
448 1 0.43034 0.500325 0
480 1 0.466066 0.535449 0
479 1 0.473121 0.512419 0
1381 1 0.491801 0.52867 0
1351 1 0.498896 0.504026 0
482 1 0.00515831 0.554873 0
513 1 0.0294416 0.564221 0
541 1 0.00962405 0.579527 0
512 1 0.0331707 0.588854 0
485 1 0.0481992 0.547669 0
484 1 0.0527599 0.572017 0
486 1 0.0715525 0.555772 0
515 1 0.0758565 0.580359 0
487 1 0.0958379 0.565687 0
488 1 0.114196 0.549232 0
519 1 0.118584 0.573857 0
517 1 0.0985798 0.589764 0
490 1 0.137727 0.557909 0
520 1 0.141588 0.582992 0
521 1 0.161203 0.567355 0
492 1 0.180986 0.551024 0
522 1 0.164939 0.591604 0
523 1 0.185432 0.575966 0
494 1 0.207707 0.560449 0
524 1 0.208172 0.585986 0
525 1 0.239358 0.557668 0
496 1 0.2646 0.548608 0
526 1 0.257819 0.574178 0
555 1 0.231866 0.580347 0
527 1 0.282184 0.56606 0
529 1 0.306001 0.559542 0
559 1 0.300502 0.584024 0
501 1 0.35297 0.545446 0
530 1 0.323934 0.577432 0
500 1 0.329372 0.552092 0
531 1 0.348248 0.570986 0
533 1 0.365435 0.588514 0
502 1 0.371478 0.563324 0
505 1 0.395751 0.556055 0
504 1 0.389502 0.580588 0
535 1 0.413004 0.573776 0
506 1 0.418563 0.54882 0
508 1 0.436537 0.567446 0
539 1 0.455726 0.5839 0
509 1 0.461932 0.559532 0
510 1 0.485604 0.551842 0
540 1 0.478951 0.576752 0
542 1 0.0143684 0.603938 0
571 1 0.0162353 0.628389 0
543 1 0.0372871 0.612382 0
514 1 0.0559038 0.596914 0
516 1 0.0798286 0.605781 0
545 1 0.0593194 0.621866 0
546 1 0.0831699 0.629918 0
518 1 0.12226 0.599108 0
547 1 0.103078 0.614233 0
548 1 0.126086 0.622913 0
549 1 0.146123 0.607406 0
551 1 0.168758 0.617385 0
550 1 0.149351 0.633038 0
553 1 0.187688 0.601051 0
552 1 0.19193 0.628369 0
554 1 0.208608 0.611599 0
583 1 0.223836 0.631639 0
556 1 0.230713 0.604893 0
557 1 0.253371 0.598179 0
587 1 0.247016 0.624121 0
558 1 0.270739 0.615855 0
528 1 0.276342 0.5912 0
560 1 0.294078 0.609328 0
591 1 0.311933 0.627459 0
589 1 0.288202 0.63418 0
561 1 0.31772 0.602273 0
532 1 0.342143 0.59604 0
562 1 0.335318 0.620362 0
563 1 0.359283 0.613915 0
534 1 0.383286 0.607159 0
565 1 0.377614 0.63112 0
566 1 0.400824 0.624232 0
536 1 0.40708 0.598152 0
537 1 0.430652 0.590717 0
567 1 0.424592 0.615932 0
538 1 0.447581 0.608786 0
597 1 0.442719 0.634296 0
1441 1 0.496236 0.594709 0
568 1 0.466137 0.625378 0
569 1 0.471936 0.601803 0
570 1 0.490109 0.618479 0
544 1 0.0402597 0.636961 0
573 1 0.0228231 0.652801 0
603 1 0.0162578 0.67725 0
574 1 0.0450562 0.660527 0
575 1 0.063819 0.646081 0
605 1 0.0683158 0.670101 0
576 1 0.0878237 0.654263 0
607 1 0.0914147 0.680012 0
577 1 0.106955 0.638889 0
578 1 0.111013 0.663494 0
579 1 0.130092 0.647621 0
609 1 0.134266 0.673133 0
581 1 0.172183 0.642908 0
580 1 0.153385 0.658666 0
611 1 0.175292 0.668706 0
582 1 0.194179 0.654231 0
584 1 0.217689 0.655247 0
613 1 0.203503 0.679036 0
585 1 0.24124 0.647928 0
586 1 0.264829 0.641061 0
615 1 0.235148 0.671991 0
617 1 0.259595 0.665323 0
588 1 0.282423 0.658298 0
590 1 0.305817 0.651891 0
619 1 0.301473 0.676013 0
564 1 0.353515 0.638189 0
593 1 0.329295 0.645094 0
621 1 0.325371 0.669455 0
592 1 0.348077 0.661773 0
623 1 0.365608 0.67938 0
594 1 0.37189 0.654999 0
595 1 0.395794 0.648938 0
625 1 0.389782 0.672539 0
627 1 0.413298 0.666061 0
596 1 0.419104 0.641239 0
598 1 0.436782 0.65855 0
628 1 0.455044 0.676538 0
599 1 0.46049 0.651612 0
600 1 0.483834 0.642889 0
629 1 0.479263 0.667646 0
602 1 0.0055096 0.700153 0
633 1 0.029377 0.698893 0
634 1 0.0304246 0.723904 0
604 1 0.0492406 0.684597 0
606 1 0.0725623 0.694977 0
635 1 0.0518116 0.708937 0
636 1 0.0738528 0.719942 0
637 1 0.094368 0.704387 0
608 1 0.114853 0.687921 0
638 1 0.116638 0.713448 0
639 1 0.137101 0.699318 0
610 1 0.156889 0.684528 0
640 1 0.13942 0.724469 0
641 1 0.1602 0.709305 0
612 1 0.180629 0.693669 0
642 1 0.1822 0.719412 0
643 1 0.203303 0.704595 0
645 1 0.224756 0.71916 0
614 1 0.226552 0.694864 0
616 1 0.254027 0.690056 0
646 1 0.247886 0.713443 0
647 1 0.271621 0.708691 0
618 1 0.277886 0.683358 0
649 1 0.295156 0.700293 0
650 1 0.312751 0.71823 0
620 1 0.319206 0.694303 0
648 1 0.288972 0.725602 0
622 1 0.342701 0.687719 0
651 1 0.336473 0.711815 0
653 1 0.360124 0.70457 0
624 1 0.383658 0.697353 0
655 1 0.401678 0.715598 0
654 1 0.377774 0.722212 0
626 1 0.407069 0.691054 0
657 1 0.431134 0.684853 0
656 1 0.425776 0.709286 0
658 1 0.450337 0.701351 0
687 1 0.44449 0.726734 0
630 1 0.49757 0.684171 0
659 1 0.474283 0.694143 0
660 1 0.491823 0.72221 0
689 1 0.467669 0.71937 0
663 1 0.0132608 0.742412 0
662 1 0.00687594 0.767046 0
664 1 0.0362978 0.749864 0
665 1 0.0542398 0.734601 0
666 1 0.077484 0.744527 0
695 1 0.0579519 0.759135 0
697 1 0.0800356 0.769138 0
667 1 0.0970372 0.728524 0
669 1 0.119667 0.739129 0
668 1 0.0999981 0.753778 0
699 1 0.122727 0.764678 0
671 1 0.162374 0.734759 0
670 1 0.141982 0.750003 0
672 1 0.163569 0.760257 0
673 1 0.183942 0.745785 0
644 1 0.203876 0.731302 0
674 1 0.20828 0.755731 0
703 1 0.186191 0.770444 0
675 1 0.237552 0.739627 0
705 1 0.232125 0.764367 0
677 1 0.264248 0.732483 0
676 1 0.257838 0.756966 0
679 1 0.306196 0.743421 0
678 1 0.282814 0.751276 0
709 1 0.301256 0.768698 0
680 1 0.324397 0.761236 0
652 1 0.353859 0.729117 0
681 1 0.329718 0.73572 0
682 1 0.347832 0.753198 0
683 1 0.372645 0.747029 0
685 1 0.397113 0.740343 0
684 1 0.39019 0.764307 0
713 1 0.366529 0.77065 0
715 1 0.414742 0.757641 0
686 1 0.420824 0.733395 0
717 1 0.437786 0.75078 0
718 1 0.456037 0.76743 0
688 1 0.464493 0.743587 0
690 1 0.498393 0.746169 0
719 1 0.48126 0.763992 0
694 1 0.0379304 0.774441 0
693 1 0.0192595 0.789218 0
692 1 0.0161897 0.813099 0
723 1 0.0402402 0.799972 0
696 1 0.0606443 0.784202 0
725 1 0.0620757 0.810228 0
727 1 0.082891 0.794613 0
698 1 0.10266 0.778688 0
728 1 0.1049 0.805411 0
729 1 0.127181 0.815103 0
700 1 0.124002 0.789997 0
701 1 0.14431 0.77556 0
731 1 0.146236 0.800477 0
732 1 0.169934 0.810694 0
702 1 0.167428 0.78574 0
704 1 0.208829 0.77897 0
733 1 0.190124 0.795066 0
734 1 0.212272 0.805088 0
735 1 0.231047 0.788626 0
706 1 0.2542 0.782535 0
736 1 0.246636 0.806801 0
737 1 0.270673 0.800963 0
707 1 0.277709 0.776154 0
708 1 0.295204 0.793066 0
739 1 0.312848 0.811344 0
738 1 0.287707 0.817536 0
710 1 0.319392 0.786867 0
711 1 0.342673 0.777471 0
741 1 0.33706 0.802526 0
712 1 0.360006 0.794647 0
743 1 0.383597 0.788924 0
745 1 0.401187 0.806494 0
744 1 0.376868 0.813424 0
714 1 0.407918 0.782279 0
716 1 0.43217 0.775884 0
747 1 0.450734 0.791571 0
746 1 0.426427 0.799474 0
720 1 0.489896 0.787239 0
749 1 0.472213 0.803537 0
1621 1 0.495885 0.8105 0
722 1 0.038479 0.823783 0
751 1 0.016476 0.837624 0
753 1 0.0422674 0.848584 0
726 1 0.0847462 0.81901 0
724 1 0.0634656 0.834674 0
755 1 0.0864862 0.844284 0
754 1 0.0657937 0.859582 0
756 1 0.1092 0.85517 0
757 1 0.107517 0.830226 0
759 1 0.129675 0.840511 0
730 1 0.150119 0.825146 0
760 1 0.151435 0.850352 0
761 1 0.17227 0.835932 0
791 1 0.175056 0.860868 0
763 1 0.192519 0.821057 0
762 1 0.195148 0.846484 0
764 1 0.215215 0.830328 0
795 1 0.228623 0.855357 0
767 1 0.26399 0.824746 0
765 1 0.239817 0.831501 0
766 1 0.257015 0.847987 0
768 1 0.281859 0.841119 0
769 1 0.305255 0.835611 0
799 1 0.298589 0.859986 0
770 1 0.322596 0.85307 0
740 1 0.329326 0.829003 0
771 1 0.346584 0.846683 0
742 1 0.352466 0.820394 0
773 1 0.370044 0.838604 0
774 1 0.395028 0.831367 0
803 1 0.387978 0.855723 0
748 1 0.452091 0.819619 0
775 1 0.419502 0.82294 0
777 1 0.43665 0.839757 0
776 1 0.41361 0.848306 0
750 1 0.47774 0.827543 0
779 1 0.46051 0.843968 0
780 1 0.485035 0.852436 0
752 1 0.0226048 0.862492 0
782 1 0.0235759 0.887722 0
811 1 0.00361117 0.902715 0
783 1 0.0441169 0.874119 0
813 1 0.0473259 0.8992 0
784 1 0.0673133 0.883935 0
785 1 0.0882242 0.869678 0
786 1 0.0893358 0.894806 0
758 1 0.131566 0.86586 0
787 1 0.110713 0.881593 0
817 1 0.111798 0.906395 0
788 1 0.133098 0.891426 0
789 1 0.154306 0.875292 0
790 1 0.155932 0.900847 0
792 1 0.177335 0.885538 0
793 1 0.197939 0.87035 0
823 1 0.199357 0.895971 0
794 1 0.222779 0.880407 0
824 1 0.221947 0.905435 0
796 1 0.247806 0.871553 0
825 1 0.243362 0.894615 0
827 1 0.266679 0.888615 0
797 1 0.274087 0.865631 0
798 1 0.291567 0.883842 0
829 1 0.308191 0.901362 0
800 1 0.316052 0.877232 0
828 1 0.282931 0.906667 0
801 1 0.340028 0.87104 0
831 1 0.333018 0.894783 0
802 1 0.356835 0.889308 0
772 1 0.364769 0.86409 0
805 1 0.405943 0.872582 0
804 1 0.381385 0.881477 0
833 1 0.374187 0.907418 0
806 1 0.407447 0.901022 0
778 1 0.443321 0.863803 0
807 1 0.429503 0.882751 0
837 1 0.435699 0.907374 0
808 1 0.453192 0.887949 0
809 1 0.467659 0.868868 0
1681 1 0.492535 0.875787 0
810 1 0.4762 0.894682 0
812 1 0.0262977 0.912586 0
843 1 0.0279119 0.937782 0
815 1 0.0692199 0.909804 0
814 1 0.0483955 0.92348 0
844 1 0.0502929 0.949647 0
845 1 0.0714085 0.935379 0
816 1 0.09077 0.920098 0
847 1 0.0939307 0.944914 0
818 1 0.113626 0.930736 0
819 1 0.134329 0.916405 0
821 1 0.178077 0.91083 0
849 1 0.136379 0.941588 0
820 1 0.157507 0.925931 0
850 1 0.159478 0.951451 0
851 1 0.180037 0.936478 0
822 1 0.201032 0.920641 0
853 1 0.202732 0.945539 0
855 1 0.22391 0.930344 0
826 1 0.257711 0.913578 0
856 1 0.247472 0.939209 0
887 1 0.268529 0.953904 0
857 1 0.275613 0.930515 0
859 1 0.300473 0.925103 0
858 1 0.292408 0.949219 0
860 1 0.315915 0.945246 0
830 1 0.325341 0.919835 0
861 1 0.33978 0.939444 0
832 1 0.350575 0.912374 0
863 1 0.364367 0.932888 0
834 1 0.391954 0.92416 0
865 1 0.403142 0.945646 0
864 1 0.38083 0.952823 0
835 1 0.417829 0.924732 0
838 1 0.443282 0.930842 0
836 1 0.427316 0.949981 0
867 1 0.451178 0.954466 0
839 1 0.460154 0.913347 0
1741 1 0.491841 0.94251 0
840 1 0.48378 0.918483 0
869 1 0.467519 0.936889 0
872 1 0.0194431 0.986157 0
873 1 0.0294191 0.964288 0
871 1 0.00373098 0.965903 0
846 1 0.0739211 0.959988 0
875 1 0.0533735 0.974173 0
876 1 0.0772442 0.985336 0
848 1 0.116451 0.955846 0
7 1 0.0993883 0.995258 0
877 1 0.0970403 0.97054 0
878 1 0.119965 0.981125 0
879 1 0.139497 0.965753 0
880 1 0.143077 0.99037 0
881 1 0.162644 0.97601 0
852 1 0.182501 0.960859 0
882 1 0.186093 0.986171 0
883 1 0.205767 0.970856 0
13 1 0.208226 0.995727 0
854 1 0.225104 0.955923 0
884 1 0.227741 0.980322 0
885 1 0.247316 0.964097 0
886 1 0.250989 0.989143 0
17 1 0.274041 0.997886 0
888 1 0.284524 0.973602 0
889 1 0.308269 0.970429 0
19 1 0.299137 0.994698 0
862 1 0.356425 0.95855 0
890 1 0.324411 0.988806 0
891 1 0.332471 0.965685 0
892 1 0.348827 0.98526 0
893 1 0.373621 0.977569 0
895 1 0.398463 0.971259 0
894 1 0.392196 0.995911 0
23 1 0.367192 1.00156 0
896 1 0.416558 0.989191 0
866 1 0.434289 0.973164 0
897 1 0.441794 0.996981 0
899 1 0.481874 0.983628 0
1771 1 0.49949 0.965829 0
868 1 0.457532 0.979086 0
870 1 0.475542 0.961157 0
902 1 0.538188 0.0198389 0
931 1 0.519557 0.0380255 0
901 1 0.51333 0.0145027 0
933 1 0.544826 0.0431557 0
904 1 0.56225 0.0252164 0
935 1 0.586235 0.0320035 0
906 1 0.579574 0.00772846 0
905 1 0.554821 0.00266618 0
908 1 0.603113 0.0133167 0
937 1 0.610551 0.0370195 0
939 1 0.627414 0.0193273 0
938 1 0.634235 0.0432829 0
941 1 0.652104 0.0262614 0
912 1 0.6682 0.00792716 0
942 1 0.677801 0.031395 0
910 1 0.644794 0.00107618 0
943 1 0.695083 0.0136287 0
944 1 0.700393 0.0388527 0
975 1 0.724779 0.0450626 0
945 1 0.729299 0.01391 0
947 1 0.747961 0.0337906 0
918 1 0.755658 0.0096392 0
948 1 0.772313 0.0296011 0
919 1 0.780664 0.00474643 0
949 1 0.796887 0.0245388 0
950 1 0.812896 0.0434789 0
1790 1 0.804661 0.0012339 0
920 1 0.821358 0.0197093 0
951 1 0.837012 0.0392366 0
922 1 0.845955 0.0150348 0
953 1 0.862004 0.0348221 0
924 1 0.871032 0.0114437 0
955 1 0.886018 0.0315229 0
925 1 0.895295 0.00796569 0
926 1 0.910477 0.026426 0
928 1 0.9361 0.021112 0
927 1 0.919769 0.0028643 0
959 1 0.952087 0.0407117 0
957 1 0.928518 0.0444809 0
930 1 0.984617 0.0128318 0
929 1 0.959969 0.0157403 0
960 1 0.976139 0.0364602 0
60 1 0.502544 0.055871 0
932 1 0.526593 0.0613863 0
962 1 0.534018 0.0856538 0
961 1 0.508733 0.0804765 0
963 1 0.551225 0.0674388 0
934 1 0.568674 0.0499072 0
965 1 0.574807 0.0734531 0
936 1 0.592809 0.0558943 0
966 1 0.598748 0.0789961 0
967 1 0.616642 0.0602577 0
968 1 0.622704 0.0853599 0
940 1 0.658852 0.0491663 0
969 1 0.639966 0.0673694 0
970 1 0.663527 0.0732239 0
971 1 0.682583 0.0568191 0
972 1 0.688564 0.0809952 0
973 1 0.706317 0.0624657 0
1003 1 0.714182 0.0848024 0
946 1 0.764026 0.053247 0
974 1 0.732343 0.0678644 0
976 1 0.755899 0.075993 0
979 1 0.78915 0.0483925 0
977 1 0.780781 0.072158 0
980 1 0.805063 0.067553 0
978 1 0.796943 0.0918152 0
981 1 0.829004 0.0634138 0
982 1 0.846043 0.0821299 0
1011 1 0.821025 0.0867962 0
952 1 0.853969 0.0585498 0
954 1 0.878334 0.0544385 0
983 1 0.870295 0.0784878 0
985 1 0.89457 0.073898 0
956 1 0.903682 0.0495126 0
987 1 0.919688 0.0687445 0
958 1 0.944002 0.0646971 0
988 1 0.935578 0.087445 0
989 1 0.967748 0.059749 0
990 1 0.984172 0.0800783 0
1019 1 0.960564 0.0830933 0
61 1 0.991874 0.0572609 0
991 1 0.517016 0.104035 0
992 1 0.522463 0.128056 0
993 1 0.539979 0.110238 0
964 1 0.556988 0.0922165 0
1023 1 0.546555 0.13426 0
994 1 0.565245 0.115546 0
995 1 0.581643 0.097585 0
996 1 0.588943 0.120903 0
997 1 0.606056 0.102804 0
998 1 0.629731 0.109524 0
1027 1 0.613554 0.127748 0
999 1 0.646061 0.0913208 0
1029 1 0.637404 0.133906 0
1000 1 0.653126 0.114987 0
1001 1 0.669784 0.0976087 0
1031 1 0.676647 0.121104 0
1002 1 0.694788 0.104292 0
1004 1 0.718781 0.109337 0
1033 1 0.701645 0.127414 0
1034 1 0.725668 0.134486 0
1005 1 0.737713 0.092231 0
1006 1 0.765939 0.120764 0
1035 1 0.742029 0.116399 0
1007 1 0.770819 0.0954612 0
1008 1 0.789619 0.115845 0
1009 1 0.813112 0.110156 0
1039 1 0.804553 0.135725 0
1010 1 0.829238 0.129427 0
1012 1 0.853649 0.125888 0
1013 1 0.837184 0.106099 0
984 1 0.861625 0.102401 0
1015 1 0.886755 0.0979341 0
1014 1 0.877727 0.121961 0
1016 1 0.901817 0.116952 0
986 1 0.91134 0.0922545 0
1017 1 0.927047 0.111099 0
1049 1 0.941891 0.131097 0
1018 1 0.950861 0.107116 0
1020 1 0.974542 0.103654 0
1050 1 0.966417 0.127182 0
121 1 0.991552 0.123196 0
1051 1 0.515356 0.170736 0
1022 1 0.530259 0.152234 0
1053 1 0.539297 0.176527 0
1021 1 0.506107 0.145766 0
1024 1 0.55513 0.157847 0
1025 1 0.571248 0.139201 0
1055 1 0.579455 0.16575 0
1026 1 0.594842 0.146154 0
1028 1 0.619326 0.152241 0
1057 1 0.602356 0.17118 0
1058 1 0.62585 0.176886 0
1059 1 0.642695 0.157941 0
1030 1 0.660462 0.139839 0
1061 1 0.666323 0.163178 0
1060 1 0.649152 0.182123 0
1032 1 0.684338 0.144811 0
1063 1 0.708743 0.15157 0
1064 1 0.715177 0.174748 0
1062 1 0.69069 0.169296 0
1036 1 0.750109 0.139567 0
1065 1 0.734355 0.157706 0
1067 1 0.759283 0.164093 0
1095 1 0.740429 0.181525 0
1037 1 0.776496 0.142119 0
1038 1 0.795919 0.159382 0
1069 1 0.812732 0.178412 0
1040 1 0.819865 0.154547 0
1041 1 0.844447 0.149724 0
1071 1 0.836363 0.172979 0
1042 1 0.860458 0.170039 0
1045 1 0.893497 0.140583 0
1043 1 0.869029 0.145991 0
1044 1 0.885414 0.164626 0
1047 1 0.917312 0.135835 0
1046 1 0.908956 0.16007 0
1048 1 0.933458 0.15489 0
1078 1 0.949352 0.173791 0
1077 1 0.925314 0.179494 0
1079 1 0.958134 0.15076 0
151 1 0.982453 0.146274 0
1080 1 0.975661 0.170783 0
1052 1 0.52211 0.195578 0
1082 1 0.527502 0.220376 0
1083 1 0.545719 0.201641 0
1081 1 0.503903 0.213835 0
1054 1 0.562497 0.183507 0
1056 1 0.58597 0.189654 0
1085 1 0.56847 0.207854 0
1084 1 0.55137 0.225868 0
1086 1 0.591784 0.213896 0
1087 1 0.609272 0.196235 0
1088 1 0.615139 0.220112 0
1089 1 0.632693 0.20126 0
1091 1 0.674063 0.18781 0
1090 1 0.656176 0.206445 0
1119 1 0.639163 0.225483 0
1092 1 0.679002 0.212329 0
1093 1 0.697537 0.193758 0
1094 1 0.721256 0.199024 0
1123 1 0.70213 0.21772 0
1125 1 0.726074 0.22413 0
1066 1 0.763215 0.187875 0
1096 1 0.744883 0.206034 0
1068 1 0.78752 0.182396 0
1097 1 0.779495 0.206712 0
1099 1 0.803788 0.201427 0
1098 1 0.796727 0.22617 0
1100 1 0.820256 0.221729 0
1072 1 0.852201 0.19304 0
1070 1 0.828752 0.197791 0
1101 1 0.843988 0.216695 0
1075 1 0.902086 0.184295 0
1073 1 0.87706 0.188497 0
1103 1 0.868472 0.211603 0
1074 1 0.893051 0.20719 0
1105 1 0.908901 0.227142 0
1076 1 0.917397 0.203455 0
1107 1 0.941384 0.198537 0
1108 1 0.933826 0.222275 0
1109 1 0.966464 0.193703 0
1110 1 0.958145 0.217406 0
181 1 0.990873 0.18988 0
211 1 0.982279 0.212848 0
1111 1 0.50991 0.237978 0
1113 1 0.533998 0.243866 0
1112 1 0.516478 0.261681 0
1143 1 0.539914 0.268595 0
1114 1 0.557252 0.250019 0
1115 1 0.575019 0.232259 0
1116 1 0.581419 0.256456 0
1117 1 0.598551 0.238462 0
1118 1 0.622806 0.243602 0
1147 1 0.605611 0.261281 0
1149 1 0.629353 0.267704 0
1121 1 0.662944 0.231367 0
1120 1 0.646303 0.249567 0
1151 1 0.670458 0.255045 0
1122 1 0.686951 0.236309 0
1124 1 0.710233 0.243107 0
1153 1 0.694049 0.261095 0
1154 1 0.717883 0.267543 0
1126 1 0.749364 0.230564 0
1155 1 0.734498 0.249502 0
1157 1 0.760797 0.253166 0
1156 1 0.742585 0.271974 0
1127 1 0.773467 0.230401 0
1128 1 0.786846 0.250649 0
1129 1 0.811433 0.245821 0
1159 1 0.802947 0.269029 0
1158 1 0.776983 0.273248 0
1102 1 0.860147 0.235533 0
1131 1 0.835732 0.240337 0
1132 1 0.852544 0.25946 0
1130 1 0.828407 0.263756 0
1104 1 0.884255 0.231711 0
1133 1 0.875978 0.255221 0
1135 1 0.900807 0.25117 0