ITEM: TIMESTEP
170000
ITEM: NUMBER OF ATOMS
1800
ITEM: BOX BOUNDS pp pp pp
1.0330385686155665e+00 1.6396696143137135e+02
1.0330385686155665e+00 1.6396696143137135e+02
0.0000000000000000e+00 5.5000000000000000e+00
ITEM: ATOMS id type xs ys zs
2 1 0.0107165 0.00899839 0
33 1 0.0273679 0.0277287 0
3 1 0.0351804 0.00472914 0
31 1 0.00343995 0.0325301 0
4 1 0.0531565 0.0216204 0
5 1 0.0793445 0.00735208 0
6 1 0.083986 0.0312497 0
35 1 0.0645174 0.0445901 0
8 1 0.102483 0.0165497 0
39 1 0.124822 0.0274227 0
9 1 0.122622 0.00270509 0
37 1 0.105493 0.0434528 0
10 1 0.144708 0.0126526 0
41 1 0.167916 0.0243951 0
40 1 0.146832 0.0385923 0
12 1 0.186956 0.00879454 0
43 1 0.190659 0.03382 0
14 1 0.209375 0.0187318 0
44 1 0.213105 0.043175 0
15 1 0.230788 0.00293674 0
45 1 0.231851 0.0277508 0
16 1 0.252129 0.0125572 0
46 1 0.254711 0.0371901 0
18 1 0.274516 0.0226429 0
49 1 0.298849 0.0295202 0
20 1 0.318725 0.0130255 0
51 1 0.321268 0.037473 0
21 1 0.343818 0.00928308 0
22 1 0.362483 0.0282378 0
24 1 0.384945 0.0178711 0
55 1 0.407258 0.0286062 0
53 1 0.387722 0.0424172 0
23 1 0.36843 3.77196e-05 0
25 1 0.424854 0.0123169 0
26 1 0.429846 0.0363151 0
27 1 0.448255 0.0198605 0
28 1 0.454472 0.0437835 0
29 1 0.47179 0.0254249 0
900 1 0.488785 0.00647369 0
30 1 0.496244 0.0312074 0
898 1 0.465735 0.0013275 0
32 1 0.0184006 0.0531928 0
62 1 0.0105417 0.0761865 0
63 1 0.0344376 0.0720362 0
34 1 0.0417055 0.0478985 0
65 1 0.0601989 0.0676914 0
36 1 0.0847289 0.0590121 0
66 1 0.0794144 0.0831547 0
38 1 0.10753 0.0695389 0
69 1 0.127587 0.0542888 0
68 1 0.13104 0.0792166 0
42 1 0.169281 0.0488041 0
71 1 0.150336 0.0642618 0
72 1 0.173582 0.0741053 0
70 1 0.153316 0.0895679 0
73 1 0.192674 0.0584284 0
74 1 0.215408 0.0680394 0
103 1 0.196163 0.0834311 0
75 1 0.234636 0.0526946 0
77 1 0.258179 0.0618732 0
76 1 0.239002 0.0770699 0
107 1 0.262914 0.0863951 0
47 1 0.277968 0.0459448 0
48 1 0.280868 0.0705706 0
79 1 0.304557 0.0776705 0
50 1 0.301509 0.0535544 0
52 1 0.345076 0.0462426 0
81 1 0.32459 0.0623578 0
82 1 0.348447 0.071533 0
80 1 0.32784 0.0873532 0
83 1 0.368428 0.0563579 0
54 1 0.391961 0.0667496 0
113 1 0.37204 0.0815371 0
84 1 0.397052 0.090061 0
56 1 0.411678 0.0529054 0
57 1 0.43519 0.0602742 0
85 1 0.416786 0.0769789 0
87 1 0.442121 0.0847044 0
59 1 0.478631 0.0492787 0
58 1 0.460058 0.0673163 0
89 1 0.485006 0.0728237 0
88 1 0.467163 0.090733 0
92 1 0.0193402 0.119134 0
93 1 0.0269025 0.0957328 0
94 1 0.0436205 0.114091 0
91 1 0.00306268 0.100134 0
64 1 0.0517306 0.0906772 0
95 1 0.0675861 0.109689 0
96 1 0.0857645 0.129018 0
125 1 0.0602591 0.133508 0
97 1 0.0917003 0.105022 0
67 1 0.112751 0.0946043 0
99 1 0.134016 0.106517 0
98 1 0.11056 0.121337 0
129 1 0.135 0.130677 0
100 1 0.156231 0.115467 0
101 1 0.176047 0.0998118 0
131 1 0.179951 0.124555 0
102 1 0.198856 0.10792 0
104 1 0.222175 0.11783 0
105 1 0.218704 0.0934411 0
133 1 0.202651 0.134033 0
106 1 0.242607 0.101995 0
135 1 0.246224 0.12769 0
137 1 0.264785 0.110547 0
136 1 0.268461 0.136006 0
78 1 0.285362 0.0951573 0
108 1 0.289056 0.119632 0
109 1 0.307735 0.103188 0
139 1 0.311557 0.128041 0
111 1 0.351839 0.0958928 0
110 1 0.330972 0.112569 0
141 1 0.353707 0.120731 0
112 1 0.375446 0.105994 0
143 1 0.376855 0.130746 0
115 1 0.40101 0.113453 0
86 1 0.423394 0.100771 0
116 1 0.433013 0.125405 0
117 1 0.450555 0.109046 0
118 1 0.459137 0.132328 0
90 1 0.490723 0.0976988 0
119 1 0.474787 0.114983 0
120 1 0.498881 0.121174 0
122 1 0.0099441 0.142598 0
153 1 0.0267244 0.162343 0
123 1 0.0352681 0.138456 0
154 1 0.0428132 0.181152 0
152 1 0.00177695 0.166372 0
124 1 0.0510655 0.157541 0
126 1 0.0765619 0.151718 0
155 1 0.0684984 0.175997 0
157 1 0.0932075 0.169718 0
127 1 0.103084 0.145753 0
128 1 0.117467 0.166435 0
159 1 0.141636 0.156894 0
130 1 0.158872 0.139723 0
161 1 0.163558 0.168938 0
132 1 0.181055 0.151931 0
163 1 0.205716 0.159018 0
162 1 0.186175 0.177963 0
134 1 0.225609 0.142883 0
164 1 0.229152 0.168053 0
165 1 0.248254 0.152345 0
166 1 0.252673 0.177436 0
167 1 0.272515 0.160642 0
138 1 0.292348 0.145053 0
169 1 0.314905 0.152979 0
168 1 0.295844 0.169419 0
170 1 0.320052 0.177392 0
140 1 0.334712 0.137038 0
142 1 0.357406 0.14571 0
171 1 0.339037 0.161679 0
172 1 0.362368 0.170456 0
114 1 0.398848 0.137415 0
144 1 0.402996 0.162659 0
173 1 0.380419 0.154675 0
174 1 0.384573 0.179093 0
145 1 0.420869 0.146364 0
147 1 0.444001 0.151811 0
146 1 0.426465 0.170087 0
177 1 0.450605 0.176101 0
149 1 0.482169 0.139048 0
148 1 0.467126 0.1577 0
150 1 0.490146 0.163427 0
183 1 0.0176018 0.185601 0
182 1 0.00986444 0.208804 0
184 1 0.0343359 0.204583 0
185 1 0.0593306 0.19996 0
156 1 0.0843351 0.194741 0
186 1 0.0765268 0.217916 0
215 1 0.0519775 0.223705 0
158 1 0.107711 0.190087 0
189 1 0.125674 0.206928 0
187 1 0.101762 0.215753 0
160 1 0.137299 0.182243 0
191 1 0.166228 0.194632 0
190 1 0.149317 0.212592 0
221 1 0.172316 0.22133 0
193 1 0.209163 0.185612 0
192 1 0.189011 0.202957 0
194 1 0.213961 0.2103 0
195 1 0.233297 0.193827 0
196 1 0.257801 0.202129 0
225 1 0.238282 0.21888 0
227 1 0.262558 0.226513 0
197 1 0.276968 0.186046 0
199 1 0.30059 0.194128 0
198 1 0.281299 0.209733 0
229 1 0.305544 0.218122 0
201 1 0.343328 0.186262 0
200 1 0.324073 0.202092 0
202 1 0.348309 0.21064 0
231 1 0.328891 0.226582 0
203 1 0.367041 0.195135 0
204 1 0.389827 0.20329 0
233 1 0.372023 0.219348 0
175 1 0.408258 0.186023 0
235 1 0.396027 0.227077 0
205 1 0.414983 0.209868 0
176 1 0.432024 0.193399 0
207 1 0.438169 0.217797 0
178 1 0.456008 0.200218 0
179 1 0.474489 0.181373 0
208 1 0.46177 0.224396 0
180 1 0.498451 0.187604 0
209 1 0.479865 0.205449 0
213 1 0.0245053 0.22828 0
243 1 0.016068 0.251372 0
214 1 0.041893 0.246671 0
244 1 0.0306096 0.270527 0
212 1 -0.00040669 0.232306 0
216 1 0.0674527 0.242613 0
245 1 0.0565365 0.266398 0
217 1 0.0910206 0.238182 0
247 1 0.095199 0.26626 0
188 1 0.132418 0.232335 0
218 1 0.11428 0.249078 0
219 1 0.137635 0.256361 0
220 1 0.155481 0.238977 0
251 1 0.160423 0.264268 0
222 1 0.178455 0.245108 0
223 1 0.196049 0.227339 0
224 1 0.220093 0.235522 0
253 1 0.20257 0.252446 0
252 1 0.184623 0.270072 0
255 1 0.226217 0.260727 0
226 1 0.244593 0.244562 0
257 1 0.267601 0.252206 0
256 1 0.249561 0.269148 0
228 1 0.285647 0.235553 0
230 1 0.309352 0.242665 0
259 1 0.29128 0.260778 0
260 1 0.315645 0.268962 0
232 1 0.352113 0.2352 0
261 1 0.333614 0.252511 0
263 1 0.358345 0.259549 0
234 1 0.375924 0.243557 0
265 1 0.399741 0.251276 0
264 1 0.381883 0.268084 0
206 1 0.419062 0.233867 0
237 1 0.443375 0.24236 0
236 1 0.42441 0.258659 0
238 1 0.44864 0.266094 0
210 1 0.485499 0.231057 0
239 1 0.466934 0.248985 0
240 1 0.491231 0.256196 0
242 1 0.00581707 0.275346 0
271 1 0.022062 0.294098 0
272 1 0.0381661 0.31326 0
273 1 0.0462246 0.288648 0
246 1 0.0772849 0.284542 0
275 1 0.0631494 0.305626 0
276 1 0.0867451 0.311575 0
249 1 0.120361 0.273626 0
248 1 0.102542 0.291665 0
279 1 0.125918 0.299067 0
277 1 0.110404 0.317273 0
250 1 0.143704 0.281279 0
280 1 0.149803 0.306873 0
281 1 0.166677 0.287789 0
282 1 0.173231 0.313872 0
254 1 0.207554 0.277848 0
283 1 0.189976 0.296161 0
284 1 0.213648 0.30433 0
285 1 0.23009 0.286758 0
287 1 0.254587 0.293337 0
286 1 0.236989 0.311422 0
317 1 0.26048 0.31857 0
258 1 0.273242 0.276902 0
288 1 0.27927 0.301741 0
289 1 0.297177 0.284891 0
290 1 0.301552 0.309415 0
262 1 0.339649 0.276268 0
291 1 0.321222 0.293893 0
292 1 0.345279 0.300593 0
293 1 0.363275 0.284433 0
295 1 0.387126 0.292363 0
294 1 0.369445 0.308994 0
266 1 0.406926 0.276256 0
296 1 0.39402 0.316972 0
267 1 0.430769 0.283618 0
297 1 0.412925 0.299403 0
298 1 0.437802 0.307774 0
269 1 0.472396 0.273354 0
268 1 0.454331 0.290437 0
1141 1 0.497185 0.280433 0
270 1 0.47888 0.297077 0
299 1 0.460852 0.31486 0
1200 1 0.0118044 0.318476 0
1230 1 0.00359951 0.345161 0
301 1 0.0271423 0.337206 0
302 1 0.0325198 0.361206 0
303 1 0.0502718 0.345213 0
274 1 0.06857 0.329233 0
304 1 0.0741276 0.353458 0
305 1 0.0924259 0.336421 0
306 1 0.0981694 0.360474 0
307 1 0.115219 0.34346 0
278 1 0.132994 0.325651 0
309 1 0.139604 0.349793 0
311 1 0.15601 0.332663 0
310 1 0.162807 0.35681 0
312 1 0.179245 0.33905 0
313 1 0.196414 0.320534 0
314 1 0.203659 0.346943 0
315 1 0.220497 0.328826 0
345 1 0.226802 0.353795 0
316 1 0.243782 0.335696 0
318 1 0.266975 0.343097 0
319 1 0.284422 0.326911 0
320 1 0.307739 0.356455 0
321 1 0.30798 0.332905 0
349 1 0.282453 0.36177 0
323 1 0.327979 0.318517 0
322 1 0.331746 0.344285 0
324 1 0.351582 0.327012 0
353 1 0.349908 0.363421 0
325 1 0.375493 0.333099 0
355 1 0.374764 0.357686 0
326 1 0.397449 0.346297 0
327 1 0.41836 0.322456 0
328 1 0.4226 0.345813 0
329 1 0.443597 0.332458 0
359 1 0.442685 0.35768 0
300 1 0.48544 0.322041 0
1201 1 0.492761 0.345388 0
330 1 0.468368 0.343504 0
332 1 0.0379979 0.386067 0
331 1 0.0147053 0.378124 0
361 1 0.0199478 0.402722 0
333 1 0.0558441 0.369194 0
335 1 0.0800749 0.3773 0
334 1 0.0611039 0.394632 0
336 1 0.0849375 0.401626 0
308 1 0.121843 0.367396 0
337 1 0.103088 0.385791 0
338 1 0.127085 0.391723 0
339 1 0.145251 0.37499 0
341 1 0.169068 0.382706 0
340 1 0.150957 0.399938 0
371 1 0.174284 0.407245 0
343 1 0.185996 0.364882 0
342 1 0.193712 0.389691 0
344 1 0.210218 0.371134 0
375 1 0.217423 0.396569 0
347 1 0.258279 0.368175 0
346 1 0.234545 0.378814 0
377 1 0.254181 0.394018 0
348 1 0.276947 0.386328 0
350 1 0.301764 0.380165 0
379 1 0.297148 0.403981 0
381 1 0.321366 0.397242 0
351 1 0.327033 0.371379 0
352 1 0.344018 0.388432 0
383 1 0.363046 0.405843 0
354 1 0.367661 0.381903 0
385 1 0.386089 0.398601 0
356 1 0.392685 0.374396 0
387 1 0.410517 0.391674 0
357 1 0.41567 0.368869 0
358 1 0.43528 0.383475 0
388 1 0.428575 0.409224 0
389 1 0.453427 0.400259 0
1231 1 0.483931 0.368081 0
360 1 0.460123 0.375464 0
1232 1 0.477338 0.393308 0
391 1 0.0008565 0.418701 0
362 1 0.0246183 0.42717 0
392 1 0.00599066 0.443413 0
393 1 0.0298621 0.451359 0
363 1 0.0433877 0.411 0
364 1 0.0485049 0.435254 0
365 1 0.0671839 0.419095 0
395 1 0.0725647 0.443165 0
367 1 0.108702 0.409842 0
366 1 0.0913463 0.426812 0
369 1 0.132682 0.417071 0
397 1 0.0959555 0.451878 0
368 1 0.115234 0.434004 0
399 1 0.139957 0.442577 0
370 1 0.156853 0.424221 0
401 1 0.179397 0.432339 0
400 1 0.163141 0.451479 0
372 1 0.202603 0.439627 0
373 1 0.198975 0.414625 0
403 1 0.223419 0.449473 0
374 1 0.223546 0.421758 0
376 1 0.249154 0.419203 0
405 1 0.246408 0.443383 0
407 1 0.270433 0.436558 0
378 1 0.273017 0.411065 0
409 1 0.292322 0.427529 0
410 1 0.311158 0.4449 0
408 1 0.287552 0.453319 0
380 1 0.316407 0.420129 0
382 1 0.34002 0.412975 0
411 1 0.334784 0.437681 0
413 1 0.358603 0.430968 0
384 1 0.381766 0.424312 0
414 1 0.376588 0.448181 0
415 1 0.400092 0.440683 0
386 1 0.404129 0.415533 0
417 1 0.425019 0.433507 0
418 1 0.443552 0.449793 0
419 1 0.448076 0.424852 0
1262 1 0.496851 0.410035 0
1261 1 0.471999 0.4175 0
390 1 0.467204 0.44226 0
1291 1 0.491465 0.434875 0
451 1 0.0150113 0.49194 0
422 1 0.0338338 0.475525 0
421 1 0.0104059 0.467633 0
423 1 0.0579268 0.4842 0
394 1 0.0531745 0.459736 0
396 1 0.0780215 0.467701 0
425 1 0.082121 0.491675 0
398 1 0.121341 0.459366 0
427 1 0.101597 0.475899 0
428 1 0.124658 0.483594 0
429 1 0.144779 0.468236 0
430 1 0.148557 0.493333 0
431 1 0.167576 0.47682 0
402 1 0.186957 0.459157 0
432 1 0.189689 0.485983 0
433 1 0.212498 0.471096 0
434 1 0.211867 0.496614 0
406 1 0.263374 0.460784 0
404 1 0.239808 0.468158 0
435 1 0.235528 0.492203 0
436 1 0.25818 0.485057 0
437 1 0.281959 0.477648 0
438 1 0.300929 0.493706 0
439 1 0.305682 0.469166 0
412 1 0.352836 0.454789 0
440 1 0.323883 0.487697 0
441 1 0.329369 0.462723 0
442 1 0.347161 0.478901 0
473 1 0.364627 0.497149 0
443 1 0.371427 0.471982 0
445 1 0.394786 0.465031 0
444 1 0.388779 0.489099 0
416 1 0.419384 0.458196 0
447 1 0.438113 0.474939 0
446 1 0.413379 0.482531 0
448 1 0.432048 0.499487 0
420 1 0.461773 0.467248 0
450 1 0.478541 0.485078 0
449 1 0.455728 0.493095 0
1321 1 0.484918 0.46041 0
452 1 0.0194267 0.515723 0
483 1 0.0237085 0.539894 0
454 1 0.0440159 0.523975 0
453 1 0.0390903 0.500395 0
455 1 0.0670386 0.532663 0
426 1 0.0852743 0.516662 0
424 1 0.0623279 0.507745 0
456 1 0.0899666 0.541158 0
458 1 0.109022 0.524788 0
459 1 0.128816 0.50963 0
489 1 0.133281 0.535411 0
457 1 0.1055 0.500308 0
460 1 0.151961 0.518948 0
462 1 0.174952 0.52803 0
491 1 0.156382 0.545198 0
461 1 0.171629 0.502187 0
463 1 0.194197 0.513068 0
493 1 0.199022 0.53821 0
495 1 0.222984 0.540819 0
464 1 0.227581 0.516562 0
466 1 0.246059 0.534815 0
497 1 0.269328 0.526737 0
465 1 0.251699 0.510104 0
468 1 0.293925 0.519053 0
499 1 0.311536 0.535965 0
498 1 0.288054 0.543293 0
467 1 0.276835 0.50148 0
469 1 0.317971 0.511615 0
470 1 0.335755 0.52992 0
472 1 0.359278 0.521772 0
471 1 0.341674 0.504791 0
503 1 0.378122 0.539023 0
474 1 0.383905 0.514157 0
476 1 0.400905 0.531405 0
475 1 0.407633 0.507416 0
477 1 0.424738 0.524018 0
478 1 0.448816 0.516617 0
507 1 0.443063 0.540501 0
480 1 0.466633 0.534199 0
479 1 0.473856 0.509791 0
1381 1 0.490496 0.526803 0
1351 1 0.496927 0.501456 0
482 1 0.00429935 0.555143 0
513 1 0.0271353 0.564183 0
541 1 0.00794931 0.580124 0
512 1 0.0320726 0.58873 0
485 1 0.0463594 0.548087 0
484 1 0.0501891 0.572532 0
486 1 0.0696696 0.557598 0
515 1 0.0750021 0.581214 0
487 1 0.0941696 0.565814 0
488 1 0.113177 0.548785 0
519 1 0.117347 0.574363 0
517 1 0.0984166 0.591241 0
490 1 0.136492 0.559826 0
520 1 0.139765 0.583442 0
521 1 0.161414 0.569354 0
492 1 0.18016 0.55362 0
523 1 0.184318 0.578143 0
494 1 0.205955 0.562616 0
524 1 0.207902 0.588757 0
525 1 0.239155 0.558538 0
496 1 0.264481 0.551936 0
526 1 0.258903 0.575409 0
555 1 0.234903 0.583415 0
527 1 0.284053 0.5672 0
529 1 0.307514 0.560929 0
559 1 0.300604 0.584976 0
501 1 0.354319 0.546845 0
530 1 0.324875 0.578763 0
500 1 0.33102 0.55463 0
531 1 0.349196 0.571722 0
533 1 0.36672 0.589042 0
502 1 0.372794 0.564551 0
505 1 0.396481 0.55613 0
504 1 0.389866 0.581506 0
535 1 0.413871 0.573129 0
506 1 0.419689 0.548371 0
508 1 0.437474 0.565958 0
539 1 0.455762 0.583366 0
509 1 0.461235 0.558602 0
510 1 0.484838 0.550601 0
540 1 0.47905 0.575393 0
542 1 0.0126737 0.604739 0
571 1 0.0149683 0.629165 0
543 1 0.036037 0.613916 0
514 1 0.055573 0.597107 0
516 1 0.0789551 0.606098 0
545 1 0.0588294 0.622625 0
546 1 0.0821874 0.631035 0
518 1 0.12123 0.600107 0
547 1 0.102652 0.615249 0
548 1 0.126246 0.624767 0
522 1 0.163949 0.593567 0
549 1 0.144823 0.608676 0
551 1 0.16708 0.618819 0
550 1 0.148381 0.634815 0
553 1 0.18603 0.602597 0
552 1 0.189366 0.628369 0
554 1 0.20751 0.612205 0
583 1 0.223466 0.631074 0
556 1 0.231218 0.606857 0
557 1 0.254906 0.599666 0
587 1 0.248343 0.624151 0
558 1 0.272338 0.617266 0
528 1 0.277921 0.592341 0
560 1 0.295386 0.609393 0
591 1 0.313865 0.627712 0
589 1 0.290539 0.633905 0
561 1 0.318481 0.60306 0
532 1 0.342491 0.595801 0
562 1 0.336883 0.62045 0
563 1 0.36036 0.613657 0
534 1 0.384051 0.606963 0
565 1 0.377411 0.630791 0
566 1 0.402373 0.623854 0
536 1 0.407574 0.599013 0
537 1 0.431179 0.591466 0
567 1 0.425773 0.616634 0
538 1 0.449873 0.608433 0
597 1 0.443848 0.633497 0
1441 1 0.497195 0.59273 0
568 1 0.467916 0.626047 0
569 1 0.473537 0.600064 0
570 1 0.49152 0.617646 0
544 1 0.0382417 0.637723 0
573 1 0.0211643 0.654445 0
603 1 0.0165395 0.679457 0
574 1 0.043371 0.662069 0
575 1 0.0629987 0.64709 0
605 1 0.0665806 0.671208 0
576 1 0.085934 0.656022 0
607 1 0.0896934 0.680356 0
577 1 0.105876 0.639412 0
578 1 0.109272 0.664219 0
579 1 0.128979 0.649141 0
609 1 0.133275 0.674387 0
581 1 0.170556 0.643559 0
580 1 0.152255 0.659218 0
611 1 0.175131 0.669316 0
582 1 0.193674 0.653324 0
584 1 0.217917 0.654983 0
613 1 0.206396 0.677108 0
585 1 0.24258 0.648159 0
586 1 0.2658 0.64176 0
615 1 0.235679 0.672207 0
617 1 0.259941 0.665518 0
588 1 0.28353 0.658005 0
590 1 0.307288 0.652013 0
619 1 0.300616 0.67591 0
564 1 0.354545 0.638852 0
593 1 0.330532 0.645128 0
621 1 0.325536 0.669726 0
592 1 0.349568 0.662906 0
623 1 0.367118 0.68099 0
594 1 0.373317 0.655966 0
595 1 0.396622 0.64911 0
625 1 0.390982 0.673598 0
627 1 0.414775 0.665669 0
596 1 0.420096 0.640654 0
598 1 0.438168 0.658985 0
628 1 0.457419 0.677086 0
599 1 0.461794 0.65073 0
600 1 0.485038 0.643328 0
629 1 0.48024 0.667258 0
602 1 0.00431174 0.700998 0
633 1 0.0285213 0.700836 0
634 1 0.0296633 0.725982 0
604 1 0.0474032 0.685902 0
606 1 0.0698207 0.695432 0
635 1 0.0509467 0.710702 0
636 1 0.0730127 0.719812 0
637 1 0.0937172 0.704275 0
608 1 0.112793 0.689202 0
638 1 0.116361 0.714619 0
639 1 0.135529 0.699014 0
610 1 0.156318 0.684001 0
640 1 0.138581 0.724471 0
641 1 0.159133 0.709294 0
612 1 0.181321 0.694261 0
642 1 0.1818 0.718452 0
643 1 0.204654 0.704156 0
645 1 0.225357 0.720362 0
614 1 0.229407 0.696073 0
616 1 0.253419 0.689648 0
646 1 0.249197 0.714068 0
647 1 0.272761 0.706952 0
618 1 0.277703 0.683442 0
649 1 0.29616 0.700785 0
650 1 0.314488 0.718629 0
648 1 0.290397 0.724636 0
620 1 0.31963 0.694351 0
622 1 0.34317 0.687261 0
651 1 0.338171 0.711754 0
653 1 0.361365 0.704541 0
624 1 0.385797 0.697817 0
655 1 0.402889 0.71579 0
654 1 0.379336 0.722253 0
626 1 0.410316 0.690025 0
657 1 0.434036 0.683895 0
656 1 0.427325 0.708114 0
658 1 0.451611 0.700779 0
687 1 0.445841 0.726101 0
630 1 0.499022 0.683508 0
659 1 0.47629 0.693673 0
660 1 0.492138 0.723403 0
689 1 0.468474 0.717755 0
663 1 0.0117088 0.743773 0
662 1 0.00266866 0.766815 0
664 1 0.0347475 0.750287 0
665 1 0.0545796 0.735744 0
666 1 0.0771873 0.744675 0
695 1 0.0581735 0.759916 0
697 1 0.0804223 0.770324 0
667 1 0.0968465 0.729599 0
669 1 0.118911 0.739161 0
668 1 0.0994853 0.753994 0
699 1 0.122349 0.764366 0
671 1 0.161652 0.733667 0
670 1 0.141851 0.749107 0
672 1 0.164643 0.758502 0
673 1 0.184321 0.744109 0
644 1 0.202997 0.729252 0
674 1 0.208989 0.753707 0
703 1 0.187332 0.768684 0
675 1 0.241645 0.739967 0
705 1 0.232234 0.763475 0
677 1 0.266637 0.732652 0
676 1 0.259184 0.756739 0
679 1 0.308245 0.744414 0
678 1 0.283695 0.7516 0
709 1 0.301402 0.768188 0
680 1 0.326459 0.761724 0
652 1 0.355279 0.72919 0
681 1 0.331467 0.737031 0
682 1 0.349428 0.753733 0
683 1 0.373526 0.747075 0
685 1 0.39681 0.73984 0
684 1 0.39118 0.765253 0
713 1 0.367635 0.771537 0
715 1 0.414475 0.757258 0
686 1 0.421145 0.731943 0
717 1 0.438379 0.750099 0
718 1 0.457071 0.767414 0
688 1 0.464503 0.742616 0
690 1 0.497936 0.746119 0
719 1 0.480575 0.762435 0
694 1 0.0375133 0.773272 0
693 1 0.0177372 0.785463 0
692 1 0.0150089 0.811289 0
723 1 0.0381603 0.798298 0
696 1 0.0585292 0.784087 0
725 1 0.0609374 0.807636 0
727 1 0.0817632 0.794343 0
698 1 0.102355 0.780155 0
728 1 0.103675 0.804144 0
729 1 0.125482 0.814394 0
700 1 0.125894 0.789395 0
701 1 0.145262 0.774546 0
731 1 0.146739 0.80057 0
732 1 0.170684 0.809437 0
702 1 0.167363 0.785201 0
704 1 0.20985 0.777927 0
733 1 0.190053 0.793546 0
734 1 0.213424 0.805831 0
735 1 0.23127 0.788106 0
706 1 0.254189 0.780847 0
736 1 0.248351 0.805186 0
737 1 0.272074 0.79879 0
707 1 0.278098 0.774905 0
708 1 0.295759 0.792392 0
739 1 0.312337 0.811104 0
738 1 0.288771 0.817795 0
710 1 0.319975 0.785968 0
711 1 0.343251 0.778738 0
741 1 0.336253 0.803777 0
712 1 0.361679 0.796571 0
743 1 0.385318 0.789778 0
745 1 0.402951 0.806556 0
744 1 0.378376 0.813408 0
714 1 0.409309 0.78254 0
716 1 0.432435 0.775069 0
747 1 0.450813 0.791651 0
746 1 0.428085 0.799826 0
748 1 0.446368 0.816904 0
720 1 0.487934 0.787549 0
749 1 0.47079 0.805692 0
1621 1 0.49516 0.811976 0
722 1 0.0389238 0.821938 0
751 1 0.0180787 0.835642 0
753 1 0.0406261 0.847089 0
752 1 0.0202623 0.862381 0
726 1 0.0834069 0.818847 0
724 1 0.0617813 0.832805 0
755 1 0.0846353 0.843617 0
754 1 0.0632954 0.857878 0
756 1 0.107439 0.854098 0
757 1 0.10548 0.828662 0
759 1 0.128376 0.839167 0
730 1 0.148817 0.824397 0
760 1 0.151873 0.849043 0
761 1 0.171155 0.834139 0
791 1 0.175336 0.859139 0
763 1 0.192354 0.820115 0
762 1 0.194733 0.844505 0
764 1 0.215666 0.831984 0
795 1 0.231392 0.852679 0
767 1 0.264506 0.82336 0
765 1 0.240314 0.828619 0
766 1 0.256768 0.846982 0
768 1 0.281305 0.842391 0
769 1 0.305834 0.835009 0
799 1 0.299518 0.85957 0
770 1 0.323384 0.853028 0
740 1 0.329632 0.828739 0
771 1 0.347541 0.846454 0
742 1 0.353424 0.821505 0
773 1 0.371214 0.838546 0
774 1 0.396349 0.830916 0
803 1 0.388897 0.856485 0
775 1 0.419369 0.823662 0
777 1 0.43713 0.840933 0
776 1 0.41356 0.849566 0
750 1 0.478049 0.830567 0
779 1 0.461069 0.84894 0
780 1 0.485757 0.852801 0
782 1 0.0235226 0.88723 0
811 1 0.0044643 0.903343 0
783 1 0.0436205 0.872583 0
813 1 0.0465245 0.898471 0
784 1 0.0667938 0.883333 0
785 1 0.0864685 0.868015 0
786 1 0.0903001 0.891955 0
815 1 0.0695874 0.908103 0
758 1 0.131236 0.863968 0
787 1 0.110703 0.878617 0
817 1 0.112801 0.903251 0
788 1 0.133152 0.888437 0
789 1 0.153766 0.873686 0
790 1 0.156643 0.897846 0
792 1 0.176978 0.883397 0
821 1 0.179247 0.907296 0
793 1 0.199162 0.869527 0
823 1 0.198777 0.89376 0
794 1 0.224065 0.876355 0
824 1 0.220642 0.903079 0
796 1 0.24829 0.869344 0
825 1 0.243013 0.892998 0
827 1 0.267176 0.889473 0
797 1 0.273029 0.865853 0
798 1 0.291553 0.883642 0
829 1 0.308993 0.902356 0
800 1 0.316027 0.877785 0
828 1 0.283654 0.90782 0
801 1 0.340415 0.870193 0
831 1 0.333788 0.895991 0
802 1 0.358259 0.888156 0
772 1 0.365368 0.863352 0
805 1 0.40602 0.874158 0
804 1 0.383383 0.8828 0
833 1 0.374959 0.907168 0
806 1 0.402501 0.900769 0
778 1 0.442322 0.865154 0
807 1 0.427445 0.884725 0
837 1 0.434398 0.907507 0
808 1 0.451101 0.888454 0
809 1 0.469422 0.87125 0
1681 1 0.494158 0.875255 0
810 1 0.476587 0.894738 0
812 1 0.0265624 0.913229 0
843 1 0.0283778 0.938591 0
814 1 0.0494547 0.922547 0
844 1 0.0518924 0.94716 0
845 1 0.0726799 0.932954 0
816 1 0.092636 0.917766 0
847 1 0.0965212 0.942212 0
818 1 0.115921 0.92792 0
819 1 0.136779 0.912925 0
848 1 0.118254 0.952669 0
849 1 0.139138 0.937152 0
820 1 0.158995 0.922832 0
850 1 0.161694 0.948297 0
851 1 0.181554 0.933266 0
822 1 0.2012 0.918529 0
853 1 0.204522 0.943455 0
855 1 0.225124 0.927625 0
854 1 0.226407 0.952453 0
826 1 0.257382 0.914502 0
856 1 0.248425 0.939079 0
857 1 0.275875 0.931405 0
859 1 0.300905 0.926132 0
858 1 0.293609 0.949549 0
860 1 0.317722 0.945564 0
830 1 0.326048 0.920552 0
861 1 0.342073 0.939431 0
832 1 0.34999 0.913947 0
863 1 0.366457 0.933138 0
834 1 0.391526 0.92574 0
865 1 0.404514 0.946126 0
864 1 0.381032 0.952251 0
835 1 0.417315 0.92467 0
838 1 0.443422 0.930063 0
836 1 0.427291 0.947699 0
867 1 0.451073 0.954257 0
839 1 0.459992 0.912248 0
1741 1 0.49218 0.941475 0
840 1 0.484767 0.917744 0
869 1 0.467704 0.935339 0
872 1 0.0222947 0.983969 0
873 1 0.0321937 0.962293 0
871 1 0.00688594 0.964505 0
846 1 0.0749093 0.956494 0
875 1 0.054943 0.972065 0
876 1 0.077334 0.981983 0
874 1 0.0570039 0.994902 0
7 1 0.0989201 0.991618 0
877 1 0.0969894 0.966965 0
878 1 0.120248 0.977537 0
879 1 0.14088 0.962836 0
880 1 0.142793 0.987463 0
881 1 0.164132 0.972824 0
11 1 0.165134 0.998522 0
852 1 0.184133 0.958713 0
882 1 0.185281 0.984096 0
883 1 0.206303 0.967902 0
13 1 0.207307 0.993853 0
887 1 0.268969 0.954859 0
884 1 0.227831 0.97884 0
885 1 0.247447 0.96465 0
886 1 0.250939 0.987969 0
17 1 0.274018 0.997996 0
888 1 0.284251 0.974736 0
889 1 0.309181 0.968978 0
19 1 0.299715 0.99556 0
862 1 0.35762 0.958228 0
890 1 0.326096 0.988609 0
891 1 0.333535 0.963557 0
892 1 0.350823 0.98245 0
893 1 0.375938 0.976639 0
895 1 0.399898 0.969898 0
894 1 0.393162 0.994356 0
896 1 0.416462 0.98892 0
866 1 0.433554 0.971431 0
897 1 0.441456 0.99568 0
868 1 0.457643 0.977678 0
1771 1 0.499285 0.965076 0
870 1 0.475747 0.958848 0
899 1 0.481431 0.982997 0
902 1 0.537143 0.0196695 0
931 1 0.521293 0.0383708 0
901 1 0.512946 0.0142995 0
933 1 0.545042 0.0433067 0
904 1 0.56216 0.0249575 0
935 1 0.587214 0.0313203 0
906 1 0.578586 0.00726064 0
905 1 0.554144 0.00121105 0
908 1 0.604398 0.013185 0
937 1 0.611255 0.0372101 0
939 1 0.628666 0.0183917 0
938 1 0.635472 0.042191 0
941 1 0.65334 0.0249756 0
912 1 0.670766 0.00727135 0
942 1 0.67704 0.0310669 0
910 1 0.64575 0.000835465 0
943 1 0.696195 0.0127116 0
944 1 0.701178 0.0370059 0
945 1 0.721789 0.0183212 0
975 1 0.724909 0.0439389 0
947 1 0.748347 0.0329102 0
918 1 0.758299 0.0110768 0
948 1 0.773408 0.0292909 0
919 1 0.782835 0.00539458 0
949 1 0.798604 0.0244611 0
1790 1 0.806966 0.00155331 0
950 1 0.814433 0.0435237 0
920 1 0.823458 0.019453 0
951 1 0.839835 0.0392047 0
922 1 0.847566 0.015262 0
953 1 0.863764 0.034825 0
924 1 0.871816 0.0105547 0
955 1 0.888573 0.0289464 0
925 1 0.896719 0.00679241 0
926 1 0.913954 0.0248905 0
928 1 0.938073 0.0218863 0
927 1 0.922017 0.00125343 0
959 1 0.953717 0.0406593 0
957 1 0.929942 0.0450597 0
930 1 0.987266 0.0130849 0
929 1 0.962651 0.0178209 0
960 1 0.977444 0.0371281 0
60 1 0.502438 0.0547517 0
932 1 0.527498 0.0619988 0
962 1 0.533607 0.0855911 0
961 1 0.509645 0.079604 0
963 1 0.550959 0.0667447 0
934 1 0.569829 0.0486672 0
965 1 0.57457 0.0733267 0
936 1 0.593399 0.0553289 0
966 1 0.599395 0.0787826 0
967 1 0.618628 0.0609766 0
968 1 0.624057 0.0844825 0
940 1 0.660225 0.0491636 0
969 1 0.642509 0.0664128 0
970 1 0.666202 0.0725612 0
999 1 0.649182 0.0915023 0
971 1 0.684135 0.0546882 0
972 1 0.691521 0.0778407 0
973 1 0.708973 0.0615698 0
1003 1 0.714528 0.085374 0
946 1 0.764913 0.0535361 0
974 1 0.733732 0.0670117 0
976 1 0.756664 0.077236 0
979 1 0.790207 0.0482791 0
977 1 0.781031 0.0718857 0
980 1 0.80551 0.0677055 0
981 1 0.830155 0.0624407 0
982 1 0.847287 0.0816524 0
1011 1 0.821717 0.086548 0
952 1 0.854899 0.0589496 0
954 1 0.879479 0.0535316 0
983 1 0.872343 0.0771285 0
985 1 0.896854 0.0718135 0
956 1 0.904588 0.0483261 0
987 1 0.920337 0.0683313 0
958 1 0.945163 0.0637435 0
988 1 0.937484 0.0870817 0
989 1 0.969179 0.0600859 0
990 1 0.985957 0.0813038 0
1019 1 0.962315 0.0847083 0
61 1 0.994238 0.0573672 0
991 1 0.515612 0.103544 0
992 1 0.523706 0.127639 0
993 1 0.541042 0.109592 0
964 1 0.55826 0.0908216 0
1023 1 0.547986 0.13281 0
994 1 0.565706 0.115372 0
995 1 0.582454 0.0971882 0
996 1 0.589577 0.121043 0
997 1 0.606144 0.102931 0
998 1 0.63129 0.109813 0
1027 1 0.61343 0.126732 0
1029 1 0.637199 0.134165 0
1000 1 0.654708 0.115784 0
1001 1 0.673803 0.0960233 0
1031 1 0.679661 0.11982 0
1002 1 0.697561 0.102768 0
1004 1 0.721007 0.109728 0
1033 1 0.702916 0.127373 0
1034 1 0.727343 0.134664 0
1005 1 0.738314 0.0918581 0
1006 1 0.767658 0.120098 0
1035 1 0.744186 0.116224 0
1007 1 0.772233 0.0962812 0
978 1 0.797206 0.0914525 0
1008 1 0.790523 0.115081 0
1009 1 0.814617 0.11031 0
1039 1 0.80467 0.134548 0
1010 1 0.829661 0.128939 0
1012 1 0.855651 0.124412 0
1013 1 0.838671 0.105221 0
984 1 0.863528 0.10041 0
1015 1 0.888968 0.0955593 0
1014 1 0.879104 0.120425 0
1016 1 0.903515 0.115243 0
986 1 0.913455 0.0915564 0
1017 1 0.928854 0.111449 0
1049 1 0.944589 0.130107 0
1018 1 0.952771 0.106927 0
1047 1 0.920473 0.135376 0
1020 1 0.978496 0.104752 0
1050 1 0.969476 0.127281 0
121 1 0.994616 0.12397 0
1051 1 0.514447 0.169106 0
1022 1 0.531259 0.151191 0
1053 1 0.539317 0.174935 0
1021 1 0.506526 0.145038 0
1024 1 0.555481 0.156971 0
1025 1 0.57218 0.138325 0
1055 1 0.578437 0.16385 0
1026 1 0.595313 0.145409 0
1028 1 0.619862 0.150598 0
1057 1 0.602551 0.168996 0
1058 1 0.627341 0.175817 0
1059 1 0.644033 0.157493 0
1030 1 0.6615 0.13941 0
1061 1 0.669258 0.163558 0
1032 1 0.686321 0.145934 0
1063 1 0.710678 0.15123 0
1064 1 0.716514 0.176394 0
1062 1 0.693609 0.16898 0
1036 1 0.752079 0.13958 0
1065 1 0.735598 0.158865 0
1067 1 0.762198 0.16202 0
1037 1 0.779977 0.140858 0
1038 1 0.796501 0.158413 0
1069 1 0.813203 0.177024 0
1040 1 0.821571 0.152913 0
1041 1 0.845986 0.148103 0
1071 1 0.837644 0.172021 0
1042 1 0.862665 0.166965 0
1045 1 0.89587 0.139596 0
1043 1 0.87098 0.143441 0
1044 1 0.886956 0.163623 0
1046 1 0.911499 0.158945 0
1048 1 0.936049 0.155216 0
1077 1 0.92711 0.178598 0
1078 1 0.952268 0.174864 0
1079 1 0.960321 0.151052 0
151 1 0.984683 0.147018 0
1080 1 0.97699 0.170902 0
1052 1 0.521321 0.192979 0
1082 1 0.527594 0.218544 0
1083 1 0.544948 0.199973 0
1081 1 0.503443 0.212504 0
1054 1 0.562605 0.182753 0
1056 1 0.586465 0.187911 0
1085 1 0.56874 0.206293 0
1084 1 0.550639 0.225098 0
1086 1 0.592346 0.213087 0
1087 1 0.610249 0.193539 0
1088 1 0.616042 0.217683 0
1089 1 0.634143 0.200133 0
1060 1 0.65058 0.181561 0
1091 1 0.674509 0.187383 0
1090 1 0.657212 0.205335 0
1119 1 0.640321 0.224521 0
1092 1 0.680606 0.211468 0
1093 1 0.699256 0.193243 0
1094 1 0.722371 0.199981 0
1123 1 0.703992 0.21754 0
1095 1 0.739695 0.182781 0
1125 1 0.726607 0.224371 0
1066 1 0.764622 0.186684 0
1096 1 0.748115 0.205983 0
1068 1 0.788166 0.181863 0
1097 1 0.779959 0.205966 0
1099 1 0.803781 0.200862 0
1098 1 0.797277 0.225172 0
1100 1 0.821145 0.220671 0
1072 1 0.853712 0.191278 0
1070 1 0.828873 0.196152 0
1101 1 0.845043 0.216159 0
1075 1 0.903353 0.182591 0
1073 1 0.878164 0.187268 0
1103 1 0.869686 0.211049 0
1074 1 0.894021 0.206133 0
1105 1 0.908596 0.226097 0
1076 1 0.918832 0.2024 0
1107 1 0.942737 0.197608 0
1108 1 0.933965 0.221645 0
1109 1 0.967374 0.194344 0
1110 1 0.958491 0.218195 0
181 1 0.992834 0.190497 0
211 1 0.984095 0.213695 0
1111 1 0.508604 0.237324 0
1113 1 0.532362 0.242653 0
1112 1 0.514624 0.261475 0
1143 1 0.539463 0.267274 0
1114 1 0.556887 0.249149 0
1115 1 0.574102 0.230927 0
1116 1 0.580708 0.254831 0
1117 1 0.598251 0.236785 0
1118 1 0.621572 0.242623 0
1147 1 0.605162 0.260826 0
1149 1 0.629078 0.266595 0
1121 1 0.663324 0.230367 0
1120 1 0.646327 0.247701 0
1151 1 0.669345 0.253621 0
1150 1 0.652652 0.27184 0
1122 1 0.687519 0.236028 0
1124 1 0.710637 0.242591 0
1153 1 0.69354 0.260085 0
1154 1 0.718401 0.266454 0
1126 1 0.750063 0.230911 0
1155 1 0.735817 0.24978 0
1157 1 0.761473 0.253268 0
1156 1 0.744263 0.273391 0
1127 1 0.773484 0.230086 0
1128 1 0.786892 0.250218 0
1129 1 0.81125 0.244973 0
1159 1 0.80319 0.269161 0
1102 1 0.860601 0.235105 0
1131 1 0.835758 0.240336 0
1132 1 0.851879 0.25866 0
1130 1 0.827327 0.263049 0
1104 1 0.884612 0.230282 0
1133 1 0.875822 0.253697 0