ITEM: TIMESTEP
68000
ITEM: NUMBER OF ATOMS
1800
ITEM: BOX BOUNDS pp pp pp
1.0564281154935600e+00 1.6394357188450488e+02
1.0564281154935600e+00 1.6394357188450488e+02
0.0000000000000000e+00 5.5000000000000000e+00
ITEM: ATOMS id type xs ys zs
2 1 0.0261924 0.0106317 0
31 1 0.0205925 0.0345451 0
930 1 0.00276875 0.0168996 0
33 1 0.0447371 0.0274064 0
3 1 0.0513651 0.00290232 0
4 1 0.068767 0.021372 0
35 1 0.0864867 0.0382795 0
34 1 0.0623693 0.0452546 0
6 1 0.091585 0.0136573 0
8 1 0.116891 0.00591401 0
37 1 0.109629 0.0310071 0
39 1 0.134519 0.0235235 0
10 1 0.158293 0.0156568 0
41 1 0.176034 0.0335181 0
40 1 0.152274 0.040772 0
12 1 0.182586 0.00889875 0
14 1 0.200543 0.0267222 0
13 1 0.205992 0.00296114 0
15 1 0.224311 0.0197709 0
45 1 0.218084 0.0444602 0
16 1 0.24773 0.0126003 0
46 1 0.241578 0.0368348 0
47 1 0.265791 0.0308566 0
18 1 0.271833 0.00624329 0
49 1 0.289228 0.022916 0
50 1 0.308061 0.0408891 0
20 1 0.313233 0.0165162 0
51 1 0.33242 0.0354236 0
22 1 0.356931 0.0291419 0
21 1 0.336721 0.0109763 0
23 1 0.362315 0.00323329 0
24 1 0.379538 0.0206975 0
55 1 0.397825 0.0381479 0
25 1 0.404531 0.0137639 0
26 1 0.432397 0.0353328 0
27 1 0.428575 0.00975372 0
898 1 0.451822 0.016952 0
28 1 0.457977 0.0399158 0
29 1 0.47689 0.0229692 0
900 1 0.494528 0.00510472 0
32 1 0.0386726 0.0512182 0
62 1 0.0311524 0.075509 0
61 1 0.0139344 0.0580547 0
990 1 0.0072982 0.0841483 0
63 1 0.0554259 0.0689524 0
65 1 0.0796579 0.0623601 0
66 1 0.0728573 0.0866483 0
38 1 0.128312 0.0484921 0
36 1 0.104331 0.0549589 0
67 1 0.098004 0.0795602 0
69 1 0.121903 0.0726096 0
70 1 0.139605 0.089965 0
71 1 0.146167 0.0655343 0
42 1 0.169969 0.0585806 0
72 1 0.162889 0.0831862 0
43 1 0.192921 0.0500081 0
44 1 0.210805 0.0685765 0
73 1 0.187402 0.0753866 0
74 1 0.228892 0.0859313 0
75 1 0.23508 0.0626053 0
77 1 0.259457 0.0547325 0
76 1 0.253417 0.0793469 0
48 1 0.284117 0.0483015 0
78 1 0.27805 0.0726805 0
79 1 0.301192 0.0654996 0
109 1 0.295141 0.0902887 0
80 1 0.319397 0.0827063 0
81 1 0.325706 0.0596851 0
52 1 0.34959 0.0530303 0
82 1 0.344439 0.0770484 0
53 1 0.374789 0.0458753 0
83 1 0.367038 0.070417 0
54 1 0.391955 0.0622047 0
84 1 0.386064 0.0869991 0
57 1 0.44115 0.0583562 0
56 1 0.416103 0.056197 0
85 1 0.412725 0.0804233 0
87 1 0.446782 0.0822636 0
59 1 0.482018 0.0471527 0
58 1 0.465074 0.0651444 0
88 1 0.471762 0.0884838 0
89 1 0.488853 0.0710841 0
92 1 0.0179412 0.124939 0
93 1 0.0249536 0.101085 0
94 1 0.0436745 0.117329 0
91 1 0.000352737 0.108087 0
64 1 0.0491646 0.0934524 0
95 1 0.0682154 0.110745 0
125 1 0.0622182 0.136301 0
96 1 0.0859558 0.127815 0
97 1 0.0920535 0.103073 0
68 1 0.115538 0.0974741 0
98 1 0.109275 0.1209 0
99 1 0.133904 0.114139 0
100 1 0.157941 0.107555 0
131 1 0.175994 0.12424 0
130 1 0.151331 0.131522 0
103 1 0.205371 0.0931745 0
101 1 0.181218 0.100547 0
102 1 0.199762 0.118046 0
105 1 0.223282 0.110433 0
104 1 0.217935 0.135198 0
106 1 0.247413 0.103295 0
137 1 0.266074 0.120976 0
135 1 0.241379 0.127835 0
107 1 0.271023 0.0967544 0
108 1 0.289178 0.114111 0
139 1 0.304919 0.132406 0
110 1 0.31319 0.108249 0
111 1 0.336638 0.100108 0
141 1 0.347464 0.121288 0
113 1 0.360814 0.098423 0
112 1 0.38827 0.111259 0
143 1 0.370972 0.128861 0
114 1 0.395774 0.134744 0
115 1 0.41216 0.116789 0
86 1 0.42886 0.0995725 0
116 1 0.43664 0.12357 0
117 1 0.453794 0.105852 0
118 1 0.461638 0.129426 0
90 1 0.496128 0.0948707 0
119 1 0.478849 0.112199 0
123 1 0.0374523 0.14172 0
122 1 0.0134177 0.149951 0
153 1 0.031316 0.166909 0
152 1 0.00734046 0.174696 0
124 1 0.054501 0.159706 0
126 1 0.0790671 0.153294 0
155 1 0.072437 0.17677 0
129 1 0.127964 0.13956 0
127 1 0.103242 0.145129 0
128 1 0.121202 0.162844 0
157 1 0.0975852 0.168953 0
159 1 0.145989 0.155265 0
161 1 0.1647 0.174201 0
132 1 0.169468 0.148665 0
160 1 0.139558 0.178868 0
133 1 0.193963 0.142605 0
163 1 0.188743 0.166004 0
134 1 0.212168 0.158812 0
164 1 0.227388 0.178073 0
136 1 0.259553 0.143978 0
165 1 0.236831 0.153608 0
167 1 0.268242 0.166907 0
138 1 0.284293 0.148695 0
169 1 0.310266 0.156295 0
168 1 0.291943 0.173961 0
170 1 0.317044 0.181566 0
140 1 0.328626 0.138068 0
142 1 0.35262 0.14596 0
171 1 0.334094 0.163355 0
172 1 0.358428 0.16993 0
144 1 0.401161 0.159633 0
173 1 0.37649 0.152635 0
174 1 0.38279 0.176398 0
145 1 0.419316 0.141616 0
146 1 0.425589 0.165497 0
147 1 0.4429 0.147321 0
177 1 0.449747 0.171733 0
149 1 0.484907 0.136655 0
148 1 0.46732 0.153929 0
150 1 0.491545 0.160621 0
179 1 0.473623 0.178349 0
183 1 0.0251282 0.191564 0
182 1 0.0203464 0.217562 0
181 1 0.00275463 0.200367 0
184 1 0.0433533 0.208129 0
154 1 0.0492052 0.184005 0
185 1 0.0686624 0.201225 0
186 1 0.085108 0.220971 0
215 1 0.0620892 0.226896 0
156 1 0.0905031 0.192028 0
158 1 0.116612 0.187853 0
187 1 0.106234 0.210097 0
189 1 0.126996 0.220604 0
191 1 0.14277 0.203178 0
190 1 0.150787 0.226035 0
221 1 0.166866 0.207151 0
162 1 0.184983 0.189513 0
193 1 0.208475 0.195171 0
192 1 0.19033 0.21381 0
194 1 0.214396 0.219682 0
166 1 0.250897 0.185533 0
195 1 0.231726 0.20281 0
196 1 0.25651 0.209398 0
225 1 0.238354 0.2262 0
197 1 0.274883 0.191963 0
199 1 0.299674 0.198601 0
198 1 0.281327 0.216082 0
229 1 0.305101 0.222589 0
201 1 0.339997 0.188427 0
200 1 0.322857 0.205299 0
202 1 0.34797 0.211534 0
203 1 0.365431 0.194093 0
175 1 0.407389 0.184295 0
233 1 0.371943 0.219532 0
204 1 0.389217 0.201656 0
235 1 0.395848 0.226077 0
205 1 0.413434 0.20826 0
176 1 0.431 0.190432 0
207 1 0.437935 0.213881 0
178 1 0.45597 0.195921 0
208 1 0.462534 0.220971 0
180 1 0.49849 0.184469 0
209 1 0.480952 0.202422 0
210 1 0.486852 0.226433 0
212 1 0.0147046 0.242 0
213 1 0.0385266 0.234519 0
243 1 0.0339094 0.25936 0
241 1 0.010702 0.267241 0
216 1 0.0819798 0.246827 0
214 1 0.0567431 0.250995 0
245 1 0.0716952 0.270197 0
188 1 0.131335 0.243626 0
217 1 0.10552 0.236723 0
218 1 0.111643 0.260048 0
249 1 0.135536 0.267213 0
219 1 0.154904 0.249754 0
220 1 0.173747 0.232542 0
222 1 0.179207 0.256921 0
223 1 0.197278 0.238427 0
253 1 0.203853 0.262539 0
224 1 0.22063 0.244519 0
255 1 0.227651 0.268061 0
227 1 0.263678 0.233022 0
226 1 0.244737 0.250024 0
257 1 0.269174 0.256969 0
228 1 0.287205 0.240345 0
230 1 0.311305 0.246862 0
259 1 0.293357 0.26459 0
231 1 0.329329 0.229334 0
232 1 0.353309 0.236145 0
261 1 0.335373 0.253296 0
263 1 0.359812 0.261801 0
234 1 0.378198 0.243705 0
265 1 0.40212 0.250168 0
264 1 0.384156 0.267308 0
206 1 0.420587 0.232981 0
237 1 0.444697 0.237758 0
236 1 0.426529 0.256596 0
238 1 0.451563 0.261591 0
239 1 0.468888 0.244035 0
240 1 0.493217 0.250209 0
269 1 0.475583 0.267621 0
242 1 0.0308871 0.301947 0
271 1 0.0115231 0.318315 0
1170 1 0.00613196 0.293029 0
273 1 0.0561376 0.309884 0
244 1 0.0504733 0.283792 0
275 1 0.0749102 0.294099 0
276 1 0.0803 0.318797 0
247 1 0.0949009 0.277152 0
246 1 0.0991577 0.301614 0
248 1 0.118354 0.284643 0
279 1 0.122671 0.309309 0
251 1 0.16033 0.274058 0
250 1 0.141804 0.291431 0
280 1 0.147058 0.315617 0
281 1 0.166713 0.298358 0
252 1 0.184384 0.279951 0
254 1 0.208354 0.286802 0
283 1 0.189734 0.304691 0
284 1 0.213295 0.310572 0
256 1 0.250821 0.27431 0
285 1 0.233103 0.29205 0
287 1 0.257259 0.298009 0
286 1 0.237708 0.315837 0
258 1 0.275848 0.281152 0
288 1 0.280667 0.305651 0
289 1 0.299505 0.288167 0
290 1 0.305859 0.312775 0
260 1 0.317485 0.271569 0
262 1 0.342231 0.279739 0
291 1 0.324174 0.296458 0
292 1 0.349022 0.302695 0
293 1 0.367047 0.286048 0
295 1 0.391522 0.292468 0
294 1 0.373329 0.310009 0
296 1 0.39763 0.316078 0
266 1 0.408957 0.274163 0
267 1 0.433591 0.280482 0
297 1 0.416098 0.297778 0
298 1 0.440277 0.304641 0
268 1 0.457641 0.285794 0
270 1 0.482319 0.291513 0
299 1 0.464976 0.309341 0
300 1 0.489306 0.314639 0
272 1 0.0361313 0.325927 0
301 1 0.0173406 0.343205 0
303 1 0.0410218 0.352303 0
274 1 0.0597622 0.334993 0
305 1 0.0842978 0.3434 0
304 1 0.0653879 0.359316 0
277 1 0.103744 0.325879 0
278 1 0.128278 0.333185 0
307 1 0.108781 0.35134 0
309 1 0.132836 0.357728 0
282 1 0.170741 0.32303 0
311 1 0.152147 0.34037 0
312 1 0.176325 0.346833 0
313 1 0.194718 0.329042 0
314 1 0.201137 0.352829 0
315 1 0.219342 0.334612 0
345 1 0.224941 0.359728 0
317 1 0.261203 0.321892 0
316 1 0.242668 0.340003 0
318 1 0.266911 0.346301 0
319 1 0.285963 0.329147 0
349 1 0.291158 0.352649 0
320 1 0.310015 0.338544 0
351 1 0.316645 0.362478 0
321 1 0.329591 0.322254 0
322 1 0.335622 0.345764 0
323 1 0.355319 0.327775 0
353 1 0.360159 0.353679 0
324 1 0.379221 0.333684 0
325 1 0.404775 0.340478 0
355 1 0.38547 0.356742 0
326 1 0.429411 0.345225 0
327 1 0.422678 0.321346 0
328 1 0.447735 0.328428 0
359 1 0.453258 0.357578 0
329 1 0.472454 0.332315 0
1201 1 0.496261 0.339334 0
330 1 0.478355 0.356138 0
302 1 0.0216624 0.366866 0
331 1 0.00258311 0.383499 0
332 1 0.0268931 0.391628 0
361 1 0.0082523 0.408543 0
306 1 0.089196 0.368029 0
333 1 0.0462113 0.37631 0
335 1 0.0701712 0.384089 0
334 1 0.0508692 0.399676 0
336 1 0.0751786 0.407998 0
308 1 0.114409 0.375343 0
337 1 0.096037 0.392653 0
338 1 0.120271 0.399171 0
310 1 0.157344 0.364398 0
339 1 0.138831 0.382221 0
341 1 0.163496 0.389265 0
340 1 0.145579 0.407976 0
343 1 0.181884 0.371208 0
342 1 0.186881 0.395601 0
344 1 0.205405 0.37881 0
373 1 0.21153 0.402102 0
347 1 0.248351 0.364201 0
346 1 0.230362 0.383803 0
377 1 0.254538 0.387683 0
375 1 0.235884 0.407338 0
348 1 0.272766 0.370108 0
350 1 0.296911 0.376817 0
379 1 0.302233 0.400334 0
378 1 0.278272 0.393771 0
381 1 0.32226 0.387084 0
352 1 0.349877 0.38087 0
382 1 0.348119 0.407604 0
354 1 0.374996 0.377822 0
385 1 0.39585 0.394931 0
356 1 0.40553 0.369701 0
383 1 0.371676 0.401471 0
357 1 0.430465 0.368942 0
358 1 0.445374 0.387013 0
387 1 0.420413 0.391279 0
388 1 0.437791 0.410781 0
1261 1 0.486746 0.398929 0
360 1 0.468795 0.379484 0
389 1 0.463148 0.40443 0
363 1 0.0320723 0.41676 0
362 1 0.0122614 0.432872 0
364 1 0.0367838 0.441206 0
365 1 0.0566148 0.424713 0
366 1 0.0806062 0.432236 0
395 1 0.061247 0.448869 0
367 1 0.101195 0.416969 0
369 1 0.12554 0.424307 0
368 1 0.103666 0.441573 0
399 1 0.128598 0.448424 0
371 1 0.169561 0.414497 0
370 1 0.149202 0.432371 0
401 1 0.173984 0.439027 0
372 1 0.193241 0.419421 0
403 1 0.198919 0.445386 0
374 1 0.218439 0.426693 0
404 1 0.229058 0.448409 0
376 1 0.260593 0.411596 0
405 1 0.244907 0.429682 0
407 1 0.269052 0.435293 0
408 1 0.293216 0.439726 0
409 1 0.285146 0.416567 0
410 1 0.316192 0.435969 0
380 1 0.324102 0.411814 0
411 1 0.340209 0.430739 0
412 1 0.356638 0.448789 0
413 1 0.365148 0.425288 0
384 1 0.389034 0.419791 0
414 1 0.381535 0.443962 0
415 1 0.40591 0.438378 0
386 1 0.413259 0.414758 0
417 1 0.430543 0.434456 0
418 1 0.44682 0.451848 0
419 1 0.45558 0.428373 0
390 1 0.480517 0.423168 0
420 1 0.471927 0.448112 0
1291 1 0.495745 0.442437 0
393 1 0.0173039 0.456758 0
423 1 0.0223308 0.482758 0
453 1 0.00228891 0.498738 0
394 1 0.0414004 0.465385 0
425 1 0.045814 0.489322 0
397 1 0.0843716 0.456772 0
396 1 0.0651856 0.473982 0
426 1 0.0680235 0.498651 0
427 1 0.0875559 0.483193 0
398 1 0.107493 0.466235 0
428 1 0.112154 0.491121 0
429 1 0.130618 0.47407 0
430 1 0.134985 0.499871 0
400 1 0.153175 0.458834 0
431 1 0.152884 0.483842 0
461 1 0.175839 0.493907 0
402 1 0.177757 0.464455 0
432 1 0.196005 0.481084 0
433 1 0.212545 0.46481 0
434 1 0.219453 0.48866 0
406 1 0.253873 0.454414 0
435 1 0.237656 0.472769 0
465 1 0.243367 0.496651 0
436 1 0.261971 0.480202 0
437 1 0.278691 0.460206 0
438 1 0.295939 0.484086 0
439 1 0.306158 0.460762 0
441 1 0.3318 0.454312 0
440 1 0.324121 0.477806 0
442 1 0.349722 0.471592 0
471 1 0.340513 0.496403 0
473 1 0.365187 0.490085 0
443 1 0.374107 0.466883 0
445 1 0.398643 0.462637 0
444 1 0.389391 0.485371 0
447 1 0.439124 0.476998 0
416 1 0.422878 0.458581 0
446 1 0.414281 0.481067 0
477 1 0.430895 0.49977 0
448 1 0.455092 0.495544 0
450 1 0.479575 0.488983 0
449 1 0.462292 0.470701 0
1321 1 0.488058 0.466433 0
452 1 0.00653271 0.523069 0
454 1 0.029831 0.531417 0
424 1 0.0256819 0.50693 0
485 1 0.0532772 0.539328 0
455 1 0.0492334 0.514662 0
456 1 0.0723052 0.522989 0
458 1 0.096206 0.531801 0
459 1 0.116097 0.516835 0
457 1 0.0923317 0.507235 0
488 1 0.119629 0.540919 0
489 1 0.1393 0.526748 0
460 1 0.157863 0.509713 0
491 1 0.161916 0.535895 0
462 1 0.181317 0.518562 0
463 1 0.200433 0.504767 0
493 1 0.204389 0.528577 0
464 1 0.224075 0.51357 0
492 1 0.18568 0.544086 0
495 1 0.227972 0.537501 0
466 1 0.248858 0.521645 0
497 1 0.271727 0.530574 0
467 1 0.266755 0.505015 0
468 1 0.290514 0.510739 0
499 1 0.310954 0.524473 0
498 1 0.293971 0.541507 0
469 1 0.315208 0.500355 0
470 1 0.334829 0.519741 0
472 1 0.358676 0.514323 0
502 1 0.35053 0.538937 0
503 1 0.374752 0.533631 0
474 1 0.382535 0.509275 0
476 1 0.398816 0.528493 0
475 1 0.407234 0.504817 0
507 1 0.422838 0.52398 0
509 1 0.441001 0.543091 0
478 1 0.447577 0.518786 0
480 1 0.464498 0.537678 0
479 1 0.471219 0.5135 0
1381 1 0.487927 0.532883 0
1351 1 0.496012 0.509639 0
483 1 0.0110399 0.54737 0
513 1 0.0155106 0.572129 0
484 1 0.0341665 0.555823 0
514 1 0.0384203 0.580244 0
487 1 0.0769951 0.547805 0
486 1 0.0578524 0.563981 0
515 1 0.0802763 0.571699 0
543 1 0.0621177 0.59011 0
517 1 0.0998722 0.556725 0
516 1 0.104232 0.581219 0
519 1 0.123279 0.565839 0
490 1 0.142337 0.551495 0
520 1 0.146285 0.575145 0
521 1 0.165929 0.560087 0
522 1 0.170059 0.58532 0
523 1 0.189418 0.569251 0
494 1 0.208137 0.552728 0
524 1 0.212862 0.577894 0
496 1 0.251669 0.546457 0
525 1 0.231803 0.561903 0
555 1 0.235799 0.585913 0
526 1 0.255181 0.570321 0
527 1 0.274713 0.555624 0
528 1 0.277616 0.579736 0
529 1 0.296871 0.565826 0
559 1 0.302319 0.58901 0
501 1 0.326036 0.544749 0
500 1 0.319809 0.569149 0
531 1 0.343305 0.563225 0
533 1 0.35964 0.581319 0
530 1 0.335118 0.587034 0
505 1 0.391968 0.551733 0
504 1 0.366642 0.557602 0
534 1 0.383632 0.575847 0
535 1 0.409919 0.569934 0
506 1 0.416368 0.546661 0
508 1 0.434067 0.566669 0
537 1 0.425408 0.589328 0
538 1 0.44967 0.585994 0
510 1 0.481345 0.556081 0
539 1 0.457332 0.561546 0
540 1 0.473244 0.580367 0
1411 1 0.497074 0.575078 0
512 1 0.0196786 0.596179 0
542 1 0.0427145 0.605112 0
571 1 0.0236069 0.620412 0
573 1 0.046876 0.629909 0
544 1 0.0658926 0.61475 0
545 1 0.085803 0.597964 0
546 1 0.0893853 0.623023 0
518 1 0.127309 0.591149 0
547 1 0.108395 0.607827 0
548 1 0.132156 0.616365 0
577 1 0.11319 0.632416 0
549 1 0.150899 0.599741 0
550 1 0.155497 0.624467 0
551 1 0.174335 0.609531 0
581 1 0.179308 0.633942 0
553 1 0.193069 0.593921 0
552 1 0.197899 0.617921 0
554 1 0.21655 0.602328 0
583 1 0.221851 0.626528 0
556 1 0.239774 0.610361 0
557 1 0.258733 0.595295 0
587 1 0.262837 0.619976 0
585 1 0.24427 0.635767 0
558 1 0.281527 0.604075 0
560 1 0.30353 0.612722 0
589 1 0.286219 0.629309 0
590 1 0.317617 0.633337 0
532 1 0.352319 0.605517 0
561 1 0.327968 0.610326 0
562 1 0.343746 0.628509 0
563 1 0.376831 0.600098 0
565 1 0.393966 0.617958 0
564 1 0.369525 0.623321 0
536 1 0.401478 0.593893 0
566 1 0.418161 0.612706 0
567 1 0.441535 0.609393 0
597 1 0.432225 0.633975 0
568 1 0.45702 0.62853 0
569 1 0.466307 0.605312 0
570 1 0.482345 0.622885 0
1441 1 0.490417 0.598736 0
572 1 0.027213 0.645863 0
602 1 0.00841903 0.662073 0
603 1 0.0319643 0.670262 0
1500 1 0.00426061 0.637804 0
574 1 0.0506411 0.654299 0
575 1 0.0698567 0.638442 0
605 1 0.0740901 0.662437 0
604 1 0.0553961 0.678809 0
576 1 0.093675 0.646916 0
578 1 0.118454 0.657048 0
607 1 0.0984181 0.67098 0
608 1 0.12225 0.680344 0
579 1 0.137011 0.640415 0
609 1 0.141508 0.665155 0
580 1 0.160085 0.649438 0
610 1 0.164799 0.673898 0
611 1 0.184488 0.659252 0
582 1 0.20235 0.6427 0
584 1 0.225342 0.651353 0
613 1 0.207762 0.667586 0
614 1 0.230151 0.677872 0
586 1 0.266737 0.644825 0
615 1 0.248249 0.661195 0
617 1 0.27079 0.670792 0
588 1 0.289391 0.653629 0
619 1 0.312168 0.658726 0
618 1 0.295531 0.678807 0
591 1 0.335361 0.651721 0
593 1 0.360119 0.646496 0
621 1 0.34937 0.671438 0
595 1 0.408056 0.638422 0
592 1 0.374759 0.666524 0
594 1 0.385024 0.643149 0
625 1 0.39939 0.662623 0
596 1 0.424164 0.657096 0
598 1 0.440283 0.675754 0
627 1 0.415403 0.680593 0
599 1 0.449408 0.652955 0
600 1 0.473984 0.646627 0
629 1 0.466123 0.670325 0
1501 1 0.489659 0.66511 0
1471 1 0.498662 0.642531 0
633 1 0.0358207 0.695355 0
632 1 0.0130502 0.686812 0
663 1 0.0159402 0.71122 0
634 1 0.0385823 0.719444 0
606 1 0.078322 0.687263 0
635 1 0.0590159 0.703557 0
636 1 0.0823108 0.711032 0
637 1 0.102582 0.695234 0
638 1 0.125734 0.704469 0
667 1 0.105466 0.718796 0
639 1 0.145062 0.689545 0
641 1 0.168769 0.69955 0
640 1 0.148785 0.714323 0
671 1 0.171479 0.724565 0
612 1 0.188023 0.683202 0
643 1 0.211466 0.693226 0
642 1 0.19188 0.708926 0
644 1 0.215655 0.720014 0
645 1 0.23416 0.704474 0
616 1 0.252682 0.687252 0
646 1 0.258421 0.711913 0
647 1 0.277391 0.695167 0
649 1 0.300951 0.702713 0
648 1 0.282352 0.719313 0
620 1 0.320514 0.683352 0
650 1 0.330796 0.719674 0
622 1 0.34145 0.696746 0
651 1 0.35652 0.715598 0
623 1 0.39004 0.685521 0
653 1 0.366024 0.69037 0
624 1 0.380144 0.709455 0
626 1 0.40618 0.704612 0
657 1 0.432496 0.699495 0
656 1 0.423918 0.721982 0
658 1 0.449852 0.716642 0
630 1 0.482468 0.688953 0
628 1 0.457258 0.694064 0
659 1 0.474112 0.711352 0
1531 1 0.49992 0.706508 0
662 1 0.0197257 0.735332 0
691 1 0.00118364 0.752012 0
693 1 0.024727 0.760946 0
664 1 0.0440734 0.743933 0
665 1 0.0619631 0.727315 0
666 1 0.0847643 0.734221 0
695 1 0.0663419 0.750969 0
694 1 0.0477403 0.768579 0
697 1 0.0896379 0.760677 0
669 1 0.128632 0.728097 0
668 1 0.108049 0.743372 0
698 1 0.112195 0.767145 0
699 1 0.13194 0.752515 0
670 1 0.151944 0.739639 0
701 1 0.157707 0.767857 0
672 1 0.175331 0.750318 0
673 1 0.194891 0.733674 0
674 1 0.221169 0.745667 0
703 1 0.199108 0.757177 0
705 1 0.220791 0.770753 0
675 1 0.241004 0.729902 0
677 1 0.264422 0.736057 0
676 1 0.245144 0.755875 0
707 1 0.271756 0.758745 0
679 1 0.30607 0.727071 0
678 1 0.296664 0.75052 0
680 1 0.313838 0.768631 0
681 1 0.32305 0.744561 0
652 1 0.34851 0.738492 0
682 1 0.340483 0.76334 0
655 1 0.397975 0.728314 0
654 1 0.374357 0.734093 0
683 1 0.366915 0.756846 0
685 1 0.390602 0.752114 0
715 1 0.40771 0.76934 0
686 1 0.415615 0.745356 0
687 1 0.441309 0.740091 0
717 1 0.432368 0.763144 0
660 1 0.490293 0.729216 0
688 1 0.457319 0.759185 0
689 1 0.466438 0.736039 0
690 1 0.483244 0.754265 0
1591 1 0.500398 0.77336 0
692 1 0.00630869 0.777402 0
722 1 0.0109493 0.803123 0
723 1 0.0296728 0.785376 0
724 1 0.0339577 0.808729 0
696 1 0.0706055 0.774939 0
725 1 0.0530374 0.793343 0
726 1 0.0765944 0.797688 0
727 1 0.0962851 0.784865 0
728 1 0.121763 0.799 0
757 1 0.0975909 0.80966 0
700 1 0.133931 0.776954 0
729 1 0.149755 0.79434 0
731 1 0.173146 0.786009 0
732 1 0.166555 0.81059 0
702 1 0.196782 0.780639 0
704 1 0.21602 0.797261 0
733 1 0.191892 0.80458 0
735 1 0.239875 0.787705 0
706 1 0.264426 0.7829 0
737 1 0.257815 0.807072 0
736 1 0.234066 0.812616 0
709 1 0.289627 0.775958 0
708 1 0.282434 0.799674 0
710 1 0.307788 0.793914 0
739 1 0.299986 0.817913 0
713 1 0.358189 0.780396 0
711 1 0.333068 0.78636 0
712 1 0.350308 0.804485 0
741 1 0.325581 0.810656 0
684 1 0.382987 0.775195 0
714 1 0.374324 0.799194 0
745 1 0.391022 0.817435 0
716 1 0.398857 0.793404 0
718 1 0.449258 0.781702 0
746 1 0.415519 0.811868 0
747 1 0.424119 0.787478 0
748 1 0.440324 0.806136 0
719 1 0.473462 0.777002 0
720 1 0.489644 0.79446 0
749 1 0.465166 0.801109 0
752 1 0.0208872 0.853914 0
753 1 0.0175852 0.828491 0
783 1 0.045479 0.849651 0
755 1 0.0753109 0.82122 0
754 1 0.0514088 0.826139 0
785 1 0.0696423 0.843792 0
787 1 0.0886843 0.857811 0
756 1 0.0956102 0.834394 0
759 1 0.119009 0.825132 0
758 1 0.112893 0.85001 0
760 1 0.136487 0.8425 0
730 1 0.1418 0.81759 0
761 1 0.160038 0.834082 0
791 1 0.153558 0.858342 0
762 1 0.177517 0.85135 0
763 1 0.18515 0.827597 0
734 1 0.209375 0.820962 0
764 1 0.202863 0.844498 0
795 1 0.219934 0.862537 0
765 1 0.227436 0.837953 0
767 1 0.251743 0.830866 0
766 1 0.244539 0.855385 0
768 1 0.268518 0.847952 0
738 1 0.275491 0.823289 0
769 1 0.29249 0.841606 0
770 1 0.310849 0.859519 0
740 1 0.318052 0.83565 0
742 1 0.34215 0.829616 0
771 1 0.335481 0.853357 0
773 1 0.359432 0.847563 0
743 1 0.366379 0.822823 0
744 1 0.383715 0.840994 0
776 1 0.399912 0.859024 0
775 1 0.407943 0.83525 0
777 1 0.432614 0.829959 0
778 1 0.424616 0.853122 0
809 1 0.451049 0.848493 0
1621 1 0.482238 0.818328 0
779 1 0.456841 0.82403 0
750 1 0.474355 0.842431 0
1651 1 0.498438 0.849606 0
811 1 0.00796049 0.900886 0
782 1 0.0142228 0.877047 0
813 1 0.038014 0.872615 0
812 1 0.0323292 0.895806 0
784 1 0.0621684 0.86697 0
815 1 0.055596 0.890846 0
786 1 0.0817046 0.881853 0
816 1 0.0745405 0.905397 0
817 1 0.0999343 0.898528 0
788 1 0.106132 0.875086 0
819 1 0.124548 0.891746 0
789 1 0.130256 0.867141 0
790 1 0.149143 0.883538 0
792 1 0.172443 0.876109 0
821 1 0.165684 0.90136 0
793 1 0.195935 0.868685 0
823 1 0.189828 0.893716 0
794 1 0.213303 0.886923 0
797 1 0.261963 0.87263 0
796 1 0.237876 0.879365 0
825 1 0.231654 0.903528 0
827 1 0.255615 0.896152 0
799 1 0.286059 0.865546 0
798 1 0.279625 0.889282 0
800 1 0.303272 0.883277 0
829 1 0.297635 0.908166 0
772 1 0.352398 0.87214 0
801 1 0.32808 0.877434 0
831 1 0.322405 0.901596 0
802 1 0.347013 0.895577 0
774 1 0.375753 0.865468 0
803 1 0.370657 0.889887 0
805 1 0.394424 0.882783 0
804 1 0.388377 0.906701 0
806 1 0.41403 0.900752 0
807 1 0.418583 0.87658 0
808 1 0.442143 0.871197 0
839 1 0.440453 0.895616 0
780 1 0.479536 0.86657 0
1681 1 0.486753 0.890683 0
810 1 0.462281 0.88482 0
840 1 0.468281 0.908354 0
842 1 0.0211217 0.943432 0
843 1 0.0271357 0.919392 0
844 1 0.0452509 0.93673 0
841 1 0.00313473 0.925707 0
814 1 0.0500383 0.913552 0
845 1 0.0694915 0.92975 0
846 1 0.0875532 0.947318 0
875 1 0.0633423 0.954162 0
847 1 0.093176 0.923075 0
818 1 0.118232 0.916318 0
848 1 0.111312 0.940056 0
849 1 0.135898 0.933284 0
820 1 0.14199 0.908539 0
850 1 0.153308 0.94972 0
851 1 0.159084 0.925328 0
852 1 0.176861 0.943678 0
824 1 0.207073 0.911858 0
822 1 0.183076 0.919344 0
853 1 0.200891 0.937223 0
855 1 0.225204 0.928623 0
854 1 0.218606 0.953556 0
826 1 0.249727 0.920766 0
856 1 0.242287 0.945896 0
857 1 0.266995 0.938836 0
828 1 0.274361 0.913751 0
859 1 0.292538 0.932265 0
860 1 0.309636 0.950975 0
830 1 0.31662 0.926421 0
832 1 0.340091 0.919586 0
861 1 0.333256 0.94484 0
863 1 0.356906 0.937574 0
833 1 0.363836 0.913565 0
834 1 0.38248 0.930998 0
865 1 0.40105 0.948049 0
835 1 0.406444 0.924466 0
837 1 0.430346 0.918824 0
836 1 0.432699 0.944572 0
838 1 0.4526 0.927551 0
870 1 0.459107 0.950841 0
869 1 0.476914 0.932167 0
1711 1 0.492838 0.914189 0
1712 1 0.500371 0.938856 0
1 1 0.00798221 0.99274 0
872 1 0.0316125 0.986155 0
873 1 0.0387088 0.96091 0
871 1 0.0141613 0.96794 0
874 1 0.0569788 0.978764 0
876 1 0.0809524 0.971215 0
5 1 0.0752308 0.996106 0
879 1 0.130098 0.957216 0
7 1 0.098604 0.989224 0
877 1 0.105131 0.963937 0
878 1 0.122454 0.981952 0
9 1 0.140355 0.99824 0
880 1 0.146581 0.974672 0
11 1 0.164803 0.99218 0
881 1 0.169635 0.96755 0
882 1 0.18815 0.985349 0
883 1 0.19403 0.961195 0
884 1 0.211727 0.977414 0
885 1 0.236705 0.970815 0
886 1 0.230207 0.994693 0
17 1 0.253889 0.988473 0
887 1 0.260538 0.96277 0
858 1 0.284934 0.956667 0
888 1 0.277357 0.981856 0
889 1 0.302365 0.975373 0
19 1 0.295721 0.999287 0
862 1 0.35144 0.961776 0
890 1 0.319509 0.992732 0
891 1 0.327577 0.96808 0
892 1 0.345518 0.986271 0
864 1 0.375535 0.954805 0
893 1 0.368954 0.979547 0
895 1 0.39332 0.972565 0
894 1 0.386539 0.997476 0
867 1 0.441129 0.967837 0
896 1 0.413637 0.98978 0
866 1 0.417609 0.96604 0
897 1 0.445614 0.992279 0
899 1 0.470716 0.999578 0
1771 1 0.489046 0.980581 0
868 1 0.465074 0.97483 0
1741 1 0.482554 0.956698 0
931 1 0.525031 0.0360322 0
901 1 0.518776 0.0121152 0
902 1 0.543386 0.0184959 0
30 1 0.501425 0.030504 0
933 1 0.54948 0.0416358 0
904 1 0.567115 0.0240662 0
906 1 0.58457 0.00662982 0
935 1 0.591361 0.0308068 0
905 1 0.561098 -7.59485e-05 0
908 1 0.609082 0.0117968 0
937 1 0.616115 0.0359295 0
939 1 0.633111 0.017585 0
938 1 0.640434 0.0423608 0
941 1 0.657643 0.0248188 0
912 1 0.676753 0.00688721 0
942 1 0.683099 0.0311532 0
943 1 0.703051 0.0146877 0
944 1 0.707668 0.0394767 0
945 1 0.73857 0.00801316 0
916 1 0.764426 0.000815915 0
947 1 0.756811 0.02473 0
975 1 0.732928 0.0332704 0
948 1 0.776085 0.0417721 0
918 1 0.781416 0.017705 0
919 1 0.806096 0.0106587 0
949 1 0.799902 0.0345664 0
951 1 0.82323 0.0278419 0
920 1 0.829743 0.00268061 0
922 1 0.847042 0.0200005 0
952 1 0.842315 0.0448707 0
953 1 0.866442 0.0360227 0
923 1 0.871432 0.0114552 0
924 1 0.895292 0.00386716 0
954 1 0.889742 0.0295654 0
956 1 0.90856 0.0463494 0
955 1 0.91326 0.0200167 0
926 1 0.936499 0.0130575 0
957 1 0.95299 0.0307948 0
928 1 0.960785 0.00563878 0
959 1 0.977004 0.0244009 0
960 1 0.995567 0.0412898 0
932 1 0.531423 0.0593226 0
962 1 0.53837 0.0842037 0
961 1 0.513443 0.0771199 0
60 1 0.506795 0.0536213 0
934 1 0.572915 0.0482706 0
963 1 0.556092 0.0663533 0
965 1 0.580308 0.0720502 0
964 1 0.562631 0.0908001 0
936 1 0.598 0.054294 0
966 1 0.603996 0.078535 0
967 1 0.621745 0.0601537 0
968 1 0.627783 0.0842349 0
969 1 0.645841 0.0663601 0
940 1 0.664565 0.0488041 0
970 1 0.670361 0.0722358 0
999 1 0.652906 0.0904034 0
971 1 0.688718 0.0552674 0
972 1 0.695093 0.0792079 0
973 1 0.726376 0.0576143 0
1003 1 0.72099 0.0842941 0
974 1 0.746352 0.0717463 0
946 1 0.752521 0.0489006 0
977 1 0.770551 0.066759 0
1007 1 0.766051 0.0906636 0
979 1 0.794406 0.0589515 0
980 1 0.81319 0.0761717 0
978 1 0.789527 0.083669 0
950 1 0.818383 0.0521227 0
981 1 0.837165 0.0694377 0
983 1 0.860424 0.0608096 0
982 1 0.855036 0.0863018 0
985 1 0.884027 0.0540483 0
984 1 0.878357 0.0787786 0
986 1 0.902754 0.071441 0
987 1 0.946786 0.055086 0
1017 1 0.942159 0.0799542 0
988 1 0.965268 0.0726077 0
958 1 0.970661 0.0489996 0
989 1 0.990081 0.0659224 0
991 1 0.520153 0.100799 0
992 1 0.526315 0.125852 0
120 1 0.502908 0.118849 0
993 1 0.544542 0.108585 0
1023 1 0.550838 0.132697 0
994 1 0.568758 0.114637 0
995 1 0.586019 0.0960612 0
996 1 0.592495 0.120884 0
997 1 0.610768 0.101975 0
998 1 0.635296 0.108471 0
1027 1 0.616924 0.126346 0
1029 1 0.64135 0.132318 0
1000 1 0.659021 0.11484 0
1001 1 0.677354 0.0963341 0
1031 1 0.682401 0.120469 0
1002 1 0.701343 0.10348 0
1004 1 0.724147 0.110624 0
1033 1 0.706443 0.127323 0
976 1 0.742402 0.096001 0
1005 1 0.757551 0.115366 0
1035 1 0.730058 0.134681 0
1008 1 0.78224 0.108912 0
1009 1 0.806462 0.101214 0
1039 1 0.800064 0.125449 0
1037 1 0.776359 0.131759 0
1010 1 0.824395 0.118561 0
1011 1 0.831323 0.0937139 0
1012 1 0.848639 0.110897 0
1041 1 0.842007 0.134974 0
1043 1 0.865991 0.128316 0
1013 1 0.871902 0.103073 0
1014 1 0.88973 0.120727 0
1015 1 0.896717 0.095659 0
1016 1 0.912506 0.113101 0
1047 1 0.935251 0.104583 0
1046 1 0.930279 0.129815 0
1049 1 0.953291 0.122942 0
1019 1 0.982722 0.0904655 0
1018 1 0.959083 0.0988247 0
1020 1 0.977042 0.115532 0
121 1 0.994796 0.133736 0
1022 1 0.533617 0.149891 0
1051 1 0.516798 0.167811 0
1053 1 0.540544 0.173806 0
1021 1 0.508942 0.143855 0
1025 1 0.574396 0.138672 0
1024 1 0.557571 0.155814 0
1055 1 0.581772 0.162198 0
1054 1 0.56446 0.179511 0
1026 1 0.598791 0.144152 0
1028 1 0.623134 0.150092 0
1057 1 0.605528 0.168298 0
1058 1 0.629447 0.174137 0
1030 1 0.66518 0.138598 0
1059 1 0.648136 0.156848 0
1061 1 0.67088 0.162758 0
1060 1 0.653321 0.181065 0
1032 1 0.688788 0.145065 0
1063 1 0.712635 0.152417 0
1062 1 0.6955 0.170373 0
1034 1 0.719446 0.176481 0
1006 1 0.753113 0.140176 0
1036 1 0.736608 0.158137 0
1067 1 0.762237 0.163675 0
1038 1 0.793402 0.148692 0
1069 1 0.810763 0.166427 0
1068 1 0.786196 0.172988 0
1040 1 0.817614 0.142515 0
1071 1 0.835846 0.159947 0
1042 1 0.859684 0.151736 0
1072 1 0.854053 0.177559 0
1045 1 0.907255 0.139452 0
1044 1 0.883298 0.144975 0
1075 1 0.900837 0.162587 0
1073 1 0.877794 0.169534 0
1048 1 0.948342 0.147127 0
1077 1 0.925501 0.156587 0
1078 1 0.943153 0.172927 0
1076 1 0.918283 0.179883 0
1050 1 0.971146 0.140563 0
1079 1 0.966864 0.16512 0
151 1 0.990052 0.157632 0
1080 1 0.984556 0.18294 0
1052 1 0.523225 0.191352 0
1082 1 0.52982 0.215886 0
1081 1 0.505104 0.209023 0
1083 1 0.547663 0.197775 0
1084 1 0.553433 0.222313 0
1056 1 0.588522 0.18639 0
1085 1 0.571347 0.204175 0
1086 1 0.5958 0.210831 0
1087 1 0.612696 0.192361 0
1088 1 0.61969 0.216508 0
1089 1 0.636253 0.198826 0
1091 1 0.677536 0.187494 0
1090 1 0.660493 0.204878 0
1119 1 0.644101 0.222505 0
1092 1 0.685066 0.211154 0
1093 1 0.702039 0.193813 0
1123 1 0.708787 0.217821 0
1064 1 0.725971 0.199863 0
1065 1 0.743701 0.182161 0
1066 1 0.767033 0.188475 0
1095 1 0.750558 0.207091 0
1094 1 0.732752 0.224877 0
1097 1 0.77457 0.212687 0
1099 1 0.80422 0.191028 0
1098 1 0.798674 0.216959 0
1100 1 0.822236 0.208342 0
1070 1 0.828223 0.184049 0
1101 1 0.845984 0.201208 0
1131 1 0.841576 0.224825 0
1102 1 0.865527 0.218573 0
1103 1 0.871109 0.19422 0
1074 1 0.895027 0.187444 0
1104 1 0.889733 0.211129 0
1105 1 0.914076 0.204089 0
1107 1 0.93679 0.197223 0
1106 1 0.931971 0.222834 0
1108 1 0.954739 0.215799 0
1109 1 0.960351 0.191089 0
1110 1 0.978402 0.207338 0
211 1 0.996256 0.225111 0
1111 1 0.512054 0.233319 0
1113 1 0.536789 0.239742 0
1112 1 0.518621 0.257758 0
1143 1 0.542991 0.263672 0
1115 1 0.578502 0.22912 0
1114 1 0.561044 0.246257 0
1116 1 0.584909 0.253335 0
1145 1 0.566881 0.270444 0
1117 1 0.602048 0.234713 0
1118 1 0.626404 0.240674 0
1147 1 0.609638 0.258958 0
1149 1 0.634076 0.265545 0
1121 1 0.668358 0.229379 0
1120 1 0.650802 0.24749 0
1151 1 0.674407 0.253588 0
1150 1 0.658909 0.27225 0
1122 1 0.692085 0.236933 0
1124 1 0.716387 0.243019 0
1153 1 0.699349 0.26075 0
1154 1 0.723121 0.26803 0
1096 1 0.756499 0.230926 0
1125 1 0.739906 0.249108 0
1126 1 0.763146 0.255548 0
1127 1 0.780046 0.236567 0
1129 1 0.804108 0.241094 0
1128 1 0.787266 0.260933 0
1159 1 0.811635 0.263783 0
1130 1 0.827847 0.244652 0
1132 1 0.852277 0.248255 0
1161 1 0.836296 0.267597 0
1135 1 0.908068 0.228279 0
1133 1 0.885024 0.234436 0