ITEM: TIMESTEP
112000
ITEM: NUMBER OF ATOMS
1800
ITEM: BOX BOUNDS pp pp pp
8.7910858381103196e-01 1.6412089141618810e+02
8.7910858381103196e-01 1.6412089141618810e+02
0.0000000000000000e+00 5.5000000000000000e+00
ITEM: ATOMS id type xs ys zs
2 1 0.0163662 0.00954333 0
33 1 0.0316913 0.0290343 0
31 1 0.00741839 0.0323413 0
3 1 0.0415639 0.00655499 0
4 1 0.0577523 0.0247849 0
5 1 0.0657095 0.00124632 0
6 1 0.0819258 0.0206275 0
35 1 0.0728575 0.0436254 0
8 1 0.105277 0.016395 0
39 1 0.126486 0.0285811 0
37 1 0.0977119 0.0406167 0
9 1 0.125743 0.00252344 0
10 1 0.147148 0.0141915 0
41 1 0.170957 0.0243533 0
40 1 0.151346 0.0378498 0
11 1 0.168672 0.000368425 0
12 1 0.190939 0.00973303 0
43 1 0.192668 0.0353875 0
14 1 0.213084 0.0206554 0
15 1 0.234389 0.00644012 0
45 1 0.234144 0.0315349 0
16 1 0.25668 0.0179223 0
46 1 0.256456 0.0419835 0
18 1 0.279132 0.0279542 0
49 1 0.302254 0.018847 0
51 1 0.317879 0.0382449 0
17 1 0.281527 0.0033092 0
20 1 0.327806 0.0160458 0
21 1 0.35028 0.00411524 0
22 1 0.35502 0.0279446 0
24 1 0.380917 0.0328563 0
23 1 0.3741 0.00920328 0
55 1 0.405354 0.0391089 0
894 1 0.398431 0.014399 0
25 1 0.423308 0.0203614 0
26 1 0.430163 0.0437169 0
27 1 0.448032 0.026136 0
897 1 0.439983 0.0033498 0
29 1 0.471703 0.0314889 0
900 1 0.48929 0.0135565 0
898 1 0.464541 0.00804682 0
30 1 0.496655 0.0368689 0
32 1 0.0235672 0.0520479 0
62 1 0.0146753 0.0746176 0
63 1 0.039371 0.0711579 0
34 1 0.0478541 0.0476425 0
65 1 0.0634219 0.0678721 0
36 1 0.0876984 0.063616 0
66 1 0.0806286 0.0871341 0
64 1 0.055107 0.0912748 0
38 1 0.111485 0.0613471 0
68 1 0.130628 0.0776347 0
69 1 0.132757 0.0526211 0
67 1 0.106417 0.084278 0
71 1 0.152994 0.0668186 0
42 1 0.172313 0.0516622 0
72 1 0.174862 0.0777265 0
70 1 0.15212 0.0926665 0
44 1 0.213678 0.046235 0
73 1 0.194406 0.0623559 0
74 1 0.2173 0.0718343 0
103 1 0.196844 0.0880941 0
75 1 0.236431 0.0563793 0
77 1 0.258446 0.0663641 0
76 1 0.239478 0.0817667 0
47 1 0.277928 0.0526155 0
48 1 0.28055 0.0755292 0
79 1 0.305108 0.0826892 0
50 1 0.300305 0.0587647 0
52 1 0.340342 0.0476164 0
81 1 0.323633 0.065042 0
82 1 0.347155 0.0720683 0
80 1 0.328613 0.0897902 0
83 1 0.363783 0.0515455 0
53 1 0.388338 0.0567682 0
54 1 0.395405 0.0802438 0
113 1 0.37056 0.0752533 0
57 1 0.437284 0.0678415 0
56 1 0.41297 0.0631509 0
85 1 0.420293 0.0860611 0
28 1 0.454024 0.0498133 0
59 1 0.478155 0.0547713 0
58 1 0.461642 0.0734283 0
89 1 0.485885 0.0784772 0
92 1 0.0218375 0.11812 0
93 1 0.0302359 0.0945557 0
91 1 0.00635726 0.0975144 0
123 1 0.0375485 0.137159 0
94 1 0.0472738 0.114624 0
95 1 0.0722857 0.110874 0
96 1 0.0889734 0.131399 0
125 1 0.0628287 0.13339 0
97 1 0.097699 0.107321 0
99 1 0.133959 0.110902 0
98 1 0.114129 0.126152 0
129 1 0.136312 0.137733 0
100 1 0.156814 0.11936 0
101 1 0.176982 0.102896 0
131 1 0.180111 0.128846 0
102 1 0.199878 0.114168 0
104 1 0.222208 0.121729 0
105 1 0.219224 0.0967228 0
107 1 0.26197 0.0912442 0
106 1 0.242913 0.105838 0
135 1 0.245825 0.130708 0
137 1 0.264912 0.115419 0
78 1 0.285375 0.099615 0
108 1 0.288808 0.124262 0
109 1 0.308928 0.10806 0
139 1 0.312024 0.132286 0
110 1 0.333776 0.114635 0
111 1 0.351939 0.0974407 0
141 1 0.356557 0.124366 0
112 1 0.376641 0.0986898 0
143 1 0.381782 0.122569 0
84 1 0.401308 0.104656 0
87 1 0.444158 0.0914475 0
115 1 0.410504 0.126887 0
86 1 0.427765 0.108682 0
116 1 0.434482 0.132007 0
117 1 0.452593 0.114418 0
88 1 0.469164 0.096139 0
90 1 0.493452 0.103052 0
119 1 0.476391 0.120846 0
122 1 0.0128137 0.139931 0
153 1 0.027793 0.159366 0
152 1 0.00295345 0.162668 0
154 1 0.0438996 0.179122 0
124 1 0.0529346 0.156177 0
126 1 0.0778551 0.153577 0
155 1 0.068478 0.176006 0
127 1 0.105358 0.150173 0
128 1 0.119758 0.173964 0
157 1 0.0936211 0.172803 0
159 1 0.141484 0.162331 0
130 1 0.160391 0.144685 0
161 1 0.165118 0.170615 0
133 1 0.202629 0.138865 0
132 1 0.18367 0.153987 0
163 1 0.206707 0.163342 0
162 1 0.187933 0.179933 0
134 1 0.226301 0.146999 0
136 1 0.269346 0.140128 0
164 1 0.231246 0.171932 0
165 1 0.249987 0.155601 0
166 1 0.254411 0.180997 0
167 1 0.27321 0.16418 0
138 1 0.292383 0.148807 0
168 1 0.296709 0.173276 0
169 1 0.315544 0.157722 0
140 1 0.335465 0.13907 0
142 1 0.357824 0.149409 0
171 1 0.338466 0.166071 0
172 1 0.36061 0.177801 0
114 1 0.393615 0.143898 0
144 1 0.400581 0.16842 0
173 1 0.37797 0.161743 0
145 1 0.41784 0.150159 0
147 1 0.441779 0.155752 0
146 1 0.425068 0.173853 0
177 1 0.448666 0.180588 0
118 1 0.458512 0.138841 0
149 1 0.482755 0.144471 0
148 1 0.46621 0.162898 0
150 1 0.490006 0.168295 0
183 1 0.0185327 0.182808 0
182 1 0.00925196 0.205642 0
184 1 0.0340075 0.201798 0
213 1 0.0245907 0.22398 0
185 1 0.0586513 0.198646 0
156 1 0.0833017 0.195904 0
186 1 0.0745593 0.218962 0
215 1 0.0498698 0.221148 0
158 1 0.107359 0.194445 0
189 1 0.128854 0.205379 0
187 1 0.107524 0.219967 0
160 1 0.145954 0.187766 0
191 1 0.169905 0.195476 0
190 1 0.151524 0.213836 0
221 1 0.174158 0.220434 0
193 1 0.212155 0.18769 0
192 1 0.19371 0.204148 0
194 1 0.216404 0.212735 0
195 1 0.235432 0.196843 0
196 1 0.258469 0.205841 0
225 1 0.240133 0.221699 0
197 1 0.277425 0.189827 0
199 1 0.301133 0.198546 0
198 1 0.282399 0.214749 0
229 1 0.304962 0.224085 0
170 1 0.318747 0.182095 0
201 1 0.342394 0.19191 0
200 1 0.323744 0.207194 0
202 1 0.347357 0.216505 0
174 1 0.383721 0.185621 0
203 1 0.365835 0.20155 0
204 1 0.389703 0.20911 0
233 1 0.371564 0.225119 0
175 1 0.407705 0.191831 0
205 1 0.412967 0.215755 0
176 1 0.430856 0.197767 0
207 1 0.437176 0.22127 0
179 1 0.472783 0.187126 0
178 1 0.453972 0.204293 0
180 1 0.496635 0.192333 0
209 1 0.478844 0.211401 0
243 1 0.0157217 0.247193 0
214 1 0.0403963 0.244025 0
244 1 0.0306382 0.265826 0
242 1 0.00660097 0.269198 0
216 1 0.0651263 0.240768 0
245 1 0.0575498 0.262722 0
217 1 0.0899018 0.237866 0
188 1 0.131666 0.229854 0
218 1 0.113738 0.246857 0
247 1 0.0937763 0.262936 0
249 1 0.119325 0.270844 0
219 1 0.13807 0.253708 0
220 1 0.155999 0.237607 0
251 1 0.161041 0.262327 0
222 1 0.179612 0.246029 0
223 1 0.197534 0.228972 0
224 1 0.222499 0.238863 0
253 1 0.203139 0.253959 0
255 1 0.226648 0.262769 0
252 1 0.18473 0.270682 0
227 1 0.26351 0.230746 0
226 1 0.245454 0.247143 0
257 1 0.268715 0.256228 0
256 1 0.249785 0.272604 0
228 1 0.286791 0.239808 0
230 1 0.310606 0.249575 0
259 1 0.291705 0.26445 0
231 1 0.328685 0.232509 0
232 1 0.353265 0.241429 0
261 1 0.334513 0.256783 0
263 1 0.3583 0.265669 0
235 1 0.395844 0.232645 0
234 1 0.377083 0.248632 0
265 1 0.401601 0.256317 0
206 1 0.420769 0.239864 0
237 1 0.443592 0.245583 0
236 1 0.426047 0.263544 0
238 1 0.449789 0.269351 0
208 1 0.46107 0.227997 0
210 1 0.485444 0.235203 0
239 1 0.467388 0.251477 0
240 1 0.491112 0.258461 0
271 1 0.0217166 0.288536 0
272 1 0.0378708 0.308592 0
1200 1 0.0135414 0.311645 0
273 1 0.0453759 0.284405 0
246 1 0.0760902 0.280791 0
275 1 0.0620919 0.301409 0
276 1 0.0853188 0.307294 0
248 1 0.100412 0.288095 0
279 1 0.123983 0.296543 0
277 1 0.107981 0.315338 0
250 1 0.142727 0.279171 0
280 1 0.147312 0.303129 0
281 1 0.165822 0.287378 0
282 1 0.171356 0.312505 0
254 1 0.208405 0.280065 0
283 1 0.188796 0.295241 0
284 1 0.212011 0.303971 0
285 1 0.23181 0.288873 0
287 1 0.255135 0.296948 0
286 1 0.236286 0.313319 0
258 1 0.273165 0.28066 0
260 1 0.316815 0.272909 0
288 1 0.278633 0.304734 0
289 1 0.297364 0.288954 0
290 1 0.303222 0.312708 0
262 1 0.339644 0.281019 0
291 1 0.32182 0.296635 0
292 1 0.34596 0.305633 0
264 1 0.382068 0.272407 0
293 1 0.364517 0.289155 0
295 1 0.388451 0.296037 0
294 1 0.370518 0.313361 0
266 1 0.406664 0.280936 0
267 1 0.432124 0.287237 0
297 1 0.413619 0.304752 0
298 1 0.437847 0.311621 0
268 1 0.455624 0.294194 0
269 1 0.473606 0.27668 0
1141 1 0.49732 0.282016 0
270 1 0.478859 0.300719 0
1230 1 0.00653508 0.34185 0
301 1 0.027788 0.330606 0
302 1 0.0295916 0.355404 0
303 1 0.0497637 0.340754 0
274 1 0.06812 0.325218 0
304 1 0.0723931 0.349394 0
305 1 0.0905255 0.331704 0
306 1 0.0951223 0.356614 0
278 1 0.131421 0.321918 0
307 1 0.113701 0.340142 0
309 1 0.137343 0.348389 0
311 1 0.154234 0.330477 0
310 1 0.160194 0.355156 0
312 1 0.17833 0.337872 0
313 1 0.195622 0.321935 0
314 1 0.201795 0.347042 0
315 1 0.219483 0.330211 0
345 1 0.224643 0.355078 0
317 1 0.259448 0.321127 0
316 1 0.242774 0.338913 0
318 1 0.266283 0.345449 0
347 1 0.24861 0.362862 0
319 1 0.284237 0.329311 0
320 1 0.290012 0.35379 0
321 1 0.30777 0.337193 0
323 1 0.327287 0.321977 0
322 1 0.33193 0.347555 0
324 1 0.349776 0.330552 0
353 1 0.353661 0.36307 0
296 1 0.394348 0.321432 0
325 1 0.374628 0.336536 0
355 1 0.377697 0.360045 0
326 1 0.398611 0.346389 0
327 1 0.419324 0.327115 0
328 1 0.424122 0.350081 0
329 1 0.44391 0.336294 0
359 1 0.446802 0.360329 0
299 1 0.461667 0.319279 0
300 1 0.485167 0.325196 0
1201 1 0.492813 0.349222 0
330 1 0.467958 0.344709 0
332 1 0.0325152 0.379689 0
361 1 0.0136902 0.394433 0
331 1 0.00844024 0.368031 0
363 1 0.0370535 0.404208 0
333 1 0.0534986 0.364627 0
335 1 0.0771428 0.373392 0
334 1 0.0572783 0.389134 0
336 1 0.0813581 0.397278 0
308 1 0.11902 0.365464 0
337 1 0.100236 0.381342 0
338 1 0.123609 0.388602 0
367 1 0.104988 0.405357 0
339 1 0.143053 0.37281 0
341 1 0.165673 0.380584 0
340 1 0.14699 0.396654 0
371 1 0.169846 0.40504 0
343 1 0.183739 0.363008 0
342 1 0.189395 0.388304 0
344 1 0.206442 0.371308 0
375 1 0.211667 0.396688 0
346 1 0.229808 0.380592 0
377 1 0.253066 0.388675 0
376 1 0.235246 0.405629 0
349 1 0.272321 0.370029 0
348 1 0.277281 0.394795 0
350 1 0.29627 0.378061 0
379 1 0.299441 0.404089 0
381 1 0.32257 0.39602 0
351 1 0.32898 0.372097 0
352 1 0.347021 0.389656 0
383 1 0.365585 0.408759 0
354 1 0.370766 0.383707 0
385 1 0.388834 0.401995 0
356 1 0.395255 0.377505 0
387 1 0.413079 0.395412 0
357 1 0.419581 0.373128 0
358 1 0.439129 0.386325 0
389 1 0.455256 0.405038 0
1231 1 0.487485 0.374005 0
360 1 0.46257 0.379119 0
1232 1 0.479183 0.396687 0
362 1 0.0176094 0.419414 0
393 1 0.023597 0.444344 0
364 1 0.0428864 0.428239 0
365 1 0.0614058 0.412796 0
395 1 0.0655562 0.436571 0
366 1 0.0854807 0.421058 0
394 1 0.0464385 0.45239 0
397 1 0.0895763 0.445341 0
369 1 0.127853 0.413392 0
368 1 0.109338 0.428941 0
399 1 0.131465 0.437697 0
398 1 0.113007 0.454481 0
370 1 0.151557 0.421276 0
401 1 0.174503 0.429252 0
400 1 0.155777 0.445536 0
372 1 0.197736 0.438105 0
373 1 0.19339 0.413374 0
374 1 0.216995 0.42223 0
403 1 0.22227 0.446894 0
405 1 0.240705 0.429942 0
407 1 0.265778 0.436665 0
378 1 0.259097 0.412922 0
406 1 0.246878 0.45479 0
409 1 0.291265 0.427435 0
410 1 0.309224 0.446165 0
380 1 0.316445 0.421354 0
408 1 0.285257 0.452033 0
382 1 0.340363 0.414286 0
411 1 0.335177 0.438549 0
413 1 0.358448 0.432189 0
384 1 0.383027 0.427296 0
414 1 0.375642 0.451362 0
415 1 0.399739 0.443786 0
386 1 0.406116 0.419636 0
388 1 0.431221 0.412624 0
417 1 0.423763 0.436872 0
419 1 0.448529 0.430293 0
418 1 0.442635 0.454313 0
1291 1 0.490478 0.440571 0
1261 1 0.473008 0.422989 0
390 1 0.466199 0.447394 0
1262 1 0.496932 0.416223 0
422 1 0.0278794 0.469049 0
453 1 0.0328295 0.493392 0
451 1 0.00971598 0.485975 0
421 1 0.00414628 0.460554 0
423 1 0.0506427 0.476782 0
396 1 0.0702593 0.460516 0
425 1 0.074983 0.48588 0
427 1 0.0940473 0.470575 0
428 1 0.117842 0.478624 0
457 1 0.0987075 0.494656 0
402 1 0.17972 0.454218 0
429 1 0.136551 0.462743 0
430 1 0.140546 0.486968 0
431 1 0.159911 0.469721 0
461 1 0.163515 0.495435 0
432 1 0.182953 0.478635 0
433 1 0.203255 0.46281 0
434 1 0.20648 0.487546 0
404 1 0.227332 0.472288 0
436 1 0.252978 0.478384 0
435 1 0.229772 0.496336 0
437 1 0.280521 0.477003 0
438 1 0.299184 0.495535 0
439 1 0.304067 0.470668 0
412 1 0.351429 0.458083 0
440 1 0.322667 0.488282 0
441 1 0.32828 0.463244 0
442 1 0.346861 0.481685 0
473 1 0.363622 0.499729 0
443 1 0.370299 0.474932 0
445 1 0.393923 0.46809 0
444 1 0.387381 0.492445 0
446 1 0.411548 0.485394 0
416 1 0.417913 0.460426 0
447 1 0.434818 0.478947 0
449 1 0.452904 0.496235 0
420 1 0.459996 0.472138 0
450 1 0.476474 0.489941 0
1321 1 0.483244 0.46444 0
452 1 0.0151669 0.510318 0
483 1 0.0200828 0.53489 0
454 1 0.0381539 0.518709 0
485 1 0.0426213 0.544463 0
456 1 0.0840675 0.536611 0
455 1 0.0613822 0.528322 0
426 1 0.0789726 0.511502 0
424 1 0.0561964 0.501233 0
458 1 0.102127 0.518864 0
459 1 0.121963 0.503104 0
489 1 0.12658 0.527329 0
488 1 0.108157 0.544353 0
460 1 0.145877 0.51208 0
462 1 0.169249 0.52114 0
491 1 0.150142 0.537165 0
492 1 0.174001 0.545523 0
463 1 0.186991 0.503979 0
493 1 0.19166 0.528851 0
464 1 0.21014 0.511401 0
495 1 0.215104 0.536685 0
466 1 0.234814 0.519836 0
497 1 0.268295 0.525873 0
465 1 0.253743 0.503262 0
496 1 0.237981 0.544457 0
468 1 0.2919 0.52068 0
469 1 0.316327 0.512029 0
499 1 0.309826 0.536976 0
498 1 0.285666 0.544643 0
467 1 0.277185 0.501689 0
470 1 0.332785 0.53134 0
472 1 0.357615 0.524074 0
471 1 0.340237 0.506217 0
503 1 0.37464 0.54176 0
474 1 0.381525 0.517615 0
475 1 0.405167 0.510424 0
476 1 0.398669 0.534696 0
477 1 0.422798 0.526684 0
478 1 0.446989 0.520379 0
448 1 0.428932 0.503027 0
507 1 0.440099 0.544908 0
480 1 0.464962 0.53764 0
479 1 0.47058 0.513959 0
1381 1 0.488141 0.531063 0
1351 1 0.495489 0.505936 0
513 1 0.0242031 0.5601 0
512 1 0.0287808 0.586262 0
541 1 0.00499999 0.575784 0
482 1 0.000457199 0.550256 0
486 1 0.0660184 0.553092 0
484 1 0.0471084 0.569351 0
515 1 0.0702034 0.578128 0
487 1 0.0887439 0.561195 0
517 1 0.0941057 0.585064 0
519 1 0.113081 0.568861 0
490 1 0.13205 0.552824 0
520 1 0.137202 0.578138 0
521 1 0.155368 0.561885 0
522 1 0.159894 0.586538 0
523 1 0.178879 0.571107 0
494 1 0.197104 0.55359 0
524 1 0.202012 0.578363 0
525 1 0.220251 0.560496 0
555 1 0.226015 0.58553 0
526 1 0.244016 0.569015 0
527 1 0.26132 0.550446 0
528 1 0.27783 0.570001 0
529 1 0.302665 0.562835 0
559 1 0.297461 0.586967 0
501 1 0.350645 0.547972 0
530 1 0.321042 0.579667 0
500 1 0.326605 0.554736 0
531 1 0.344672 0.573085 0
533 1 0.362595 0.590479 0
502 1 0.367831 0.565339 0
505 1 0.392676 0.558541 0
504 1 0.385705 0.583391 0
535 1 0.410143 0.576177 0
506 1 0.416301 0.552578 0
508 1 0.434607 0.569644 0
539 1 0.452357 0.586858 0
509 1 0.457997 0.562132 0
510 1 0.481423 0.555211 0
540 1 0.476382 0.57882 0
542 1 0.00977056 0.602151 0
571 1 0.0134712 0.625975 0
543 1 0.0334441 0.61133 0
544 1 0.0389934 0.635233 0
514 1 0.0515006 0.594149 0
516 1 0.0759576 0.602147 0
545 1 0.0582169 0.618736 0
546 1 0.0811398 0.627571 0
518 1 0.118197 0.593633 0
547 1 0.0990876 0.610068 0
548 1 0.122927 0.618633 0
577 1 0.10471 0.635584 0
549 1 0.141204 0.602354 0
551 1 0.164653 0.610831 0
550 1 0.145909 0.62781 0
581 1 0.169268 0.635864 0
553 1 0.18371 0.595096 0
552 1 0.187998 0.619655 0
554 1 0.207132 0.602857 0
583 1 0.213161 0.627987 0
556 1 0.230496 0.609075 0
557 1 0.249571 0.594661 0
587 1 0.265127 0.619127 0
585 1 0.23969 0.631226 0
558 1 0.273565 0.595157 0
560 1 0.290919 0.612326 0
561 1 0.315007 0.604419 0
591 1 0.308488 0.629354 0
589 1 0.284245 0.636347 0
532 1 0.338504 0.597673 0
562 1 0.332513 0.621618 0
563 1 0.356255 0.615296 0
534 1 0.379577 0.608822 0
536 1 0.403437 0.600308 0
566 1 0.397843 0.625118 0
565 1 0.373698 0.632948 0
537 1 0.427774 0.594118 0
567 1 0.421964 0.619116 0
538 1 0.445899 0.610653 0
597 1 0.440027 0.63562 0
568 1 0.463613 0.627804 0
569 1 0.470175 0.603659 0
570 1 0.4872 0.621108 0
1441 1 0.493345 0.596494 0
573 1 0.0196585 0.650006 0
603 1 0.0237492 0.675077 0
574 1 0.0426619 0.659826 0
575 1 0.0619933 0.643399 0
605 1 0.0665513 0.667946 0
576 1 0.0861516 0.651948 0
607 1 0.0901563 0.676954 0
578 1 0.109827 0.660858 0
579 1 0.12841 0.643123 0
609 1 0.132516 0.668313 0
580 1 0.15156 0.652517 0
611 1 0.174406 0.660573 0
610 1 0.15667 0.677754 0
582 1 0.192973 0.643835 0
584 1 0.215794 0.652862 0
613 1 0.197247 0.667958 0
614 1 0.223779 0.676884 0
586 1 0.261241 0.644787 0
615 1 0.239703 0.656762 0
617 1 0.258723 0.669668 0
588 1 0.28084 0.660368 0
590 1 0.304451 0.653715 0
619 1 0.299043 0.679186 0
564 1 0.350517 0.639681 0
593 1 0.327386 0.646288 0
621 1 0.32288 0.67234 0
592 1 0.34572 0.664049 0
595 1 0.393109 0.65026 0
594 1 0.370027 0.657713 0
625 1 0.387684 0.675745 0
627 1 0.410852 0.667419 0
596 1 0.415973 0.64224 0
598 1 0.434104 0.65891 0
628 1 0.452453 0.678716 0
599 1 0.458039 0.652713 0
600 1 0.481342 0.645863 0
629 1 0.475769 0.670017 0
1501 1 0.499854 0.663456 0
602 1 0.00441057 0.690231 0
633 1 0.028298 0.699621 0
632 1 0.0076796 0.714872 0
634 1 0.0324123 0.723929 0
604 1 0.0477904 0.684391 0
606 1 0.0715005 0.692791 0
635 1 0.0525522 0.709533 0
636 1 0.0754154 0.717422 0
637 1 0.0946033 0.700931 0
608 1 0.113679 0.684677 0
638 1 0.118406 0.70951 0
667 1 0.0994602 0.724901 0
639 1 0.137498 0.693873 0
640 1 0.141714 0.718227 0
641 1 0.161194 0.703204 0
612 1 0.179606 0.685308 0
671 1 0.166454 0.728107 0
642 1 0.185977 0.710598 0
643 1 0.203934 0.692311 0
644 1 0.218385 0.726201 0
645 1 0.227148 0.701287 0
616 1 0.249718 0.691735 0
647 1 0.268547 0.710095 0
646 1 0.245215 0.717589 0
618 1 0.275077 0.686822 0
649 1 0.293315 0.704825 0
650 1 0.311958 0.721261 0
620 1 0.317952 0.697266 0
622 1 0.341753 0.690718 0
651 1 0.3351 0.714422 0
653 1 0.35899 0.708484 0
623 1 0.363937 0.681791 0
624 1 0.381793 0.701338 0
655 1 0.40023 0.718391 0
626 1 0.405611 0.693381 0
654 1 0.376654 0.726827 0
657 1 0.429081 0.684962 0
656 1 0.42445 0.710776 0
658 1 0.447839 0.703875 0
630 1 0.494269 0.687283 0
659 1 0.471469 0.695455 0
660 1 0.489588 0.712281 0
689 1 0.467393 0.721238 0
663 1 0.0136063 0.738638 0
662 1 0.0197281 0.76298 0
664 1 0.0378923 0.747396 0
694 1 0.0416138 0.772046 0
665 1 0.0569021 0.733054 0
666 1 0.0796397 0.742242 0
695 1 0.0606281 0.757748 0
697 1 0.0840106 0.766284 0
669 1 0.122931 0.734454 0
668 1 0.103672 0.750414 0
699 1 0.126903 0.759968 0
670 1 0.146115 0.742924 0
672 1 0.169118 0.75152 0
701 1 0.150513 0.768171 0
673 1 0.189925 0.73685 0
674 1 0.21516 0.75043 0
703 1 0.191483 0.761268 0
675 1 0.237968 0.74056 0
705 1 0.23388 0.766698 0
677 1 0.26307 0.734723 0
676 1 0.256696 0.758778 0
648 1 0.28698 0.729222 0
679 1 0.305415 0.745972 0
678 1 0.282199 0.753034 0
709 1 0.299764 0.771791 0
680 1 0.323463 0.764164 0
652 1 0.353061 0.732603 0
681 1 0.329568 0.739127 0
682 1 0.346443 0.757289 0
683 1 0.369676 0.74985 0
684 1 0.390195 0.768113 0
685 1 0.394598 0.743719 0
687 1 0.442584 0.728984 0
715 1 0.41451 0.760789 0
686 1 0.418702 0.736138 0
717 1 0.437101 0.754079 0
718 1 0.45538 0.770513 0
688 1 0.46178 0.745525 0
690 1 0.486301 0.739962 0
719 1 0.481073 0.764851 0
693 1 0.0190519 0.787816 0
723 1 0.0425101 0.797203 0
692 1 0.0126016 0.812892 0
696 1 0.064884 0.782227 0
725 1 0.0693513 0.805791 0
727 1 0.0886132 0.790147 0
726 1 0.0908508 0.815928 0
698 1 0.108334 0.775833 0
728 1 0.111644 0.800372 0
729 1 0.13456 0.810966 0
700 1 0.131409 0.784627 0
731 1 0.153988 0.796126 0
732 1 0.177433 0.807862 0
702 1 0.172431 0.778629 0
704 1 0.210615 0.776174 0
733 1 0.203085 0.799313 0
734 1 0.222588 0.815092 0
735 1 0.229552 0.791112 0
706 1 0.252536 0.783295 0
737 1 0.271683 0.801306 0
736 1 0.24783 0.807921 0
707 1 0.275875 0.776858 0
708 1 0.294392 0.79531 0
739 1 0.312122 0.813148 0
710 1 0.318005 0.789413 0
711 1 0.341886 0.782021 0
712 1 0.360481 0.798246 0
741 1 0.335985 0.806449 0
713 1 0.366534 0.77469 0
743 1 0.383104 0.791686 0
745 1 0.402053 0.809588 0
714 1 0.408539 0.785664 0
744 1 0.378122 0.815262 0
716 1 0.432885 0.779081 0
747 1 0.450545 0.795915 0
746 1 0.427503 0.802841 0
1621 1 0.496976 0.813649 0
720 1 0.488957 0.790037 0
749 1 0.472669 0.808578 0
751 1 0.0290639 0.830972 0
752 1 0.0276887 0.854911 0
1680 1 0.00576205 0.83618 0
781 1 0.00285033 0.86061 0
722 1 0.0495819 0.819583 0
753 1 0.0507801 0.843903 0
724 1 0.0710988 0.830885 0
754 1 0.0735371 0.855867 0
755 1 0.0926159 0.842051 0
756 1 0.115077 0.852241 0
757 1 0.112541 0.825549 0
759 1 0.13443 0.836945 0
730 1 0.156266 0.822987 0
760 1 0.156664 0.848419 0
761 1 0.177826 0.83401 0
791 1 0.178717 0.860917 0
758 1 0.136939 0.863226 0
763 1 0.199385 0.823933 0
762 1 0.19749 0.8474 0
764 1 0.219942 0.839761 0
795 1 0.235106 0.858406 0
767 1 0.265534 0.825535 0
765 1 0.241723 0.831549 0
766 1 0.258975 0.850287 0
738 1 0.288659 0.819124 0
768 1 0.283555 0.843782 0
769 1 0.306815 0.837861 0
799 1 0.301265 0.861803 0
770 1 0.32467 0.855041 0
740 1 0.33053 0.830418 0
771 1 0.348881 0.847883 0
742 1 0.354484 0.823031 0
773 1 0.37146 0.840992 0
774 1 0.395125 0.833265 0
803 1 0.389922 0.858063 0
775 1 0.41852 0.826968 0
777 1 0.437997 0.843682 0
776 1 0.413414 0.851255 0
748 1 0.454247 0.82408 0
750 1 0.479237 0.8323 0
779 1 0.461864 0.849378 0
780 1 0.486957 0.855665 0
782 1 0.0213115 0.877781 0
813 1 0.0395578 0.895494 0
812 1 0.0140324 0.90161 0
783 1 0.0496306 0.869737 0
784 1 0.0732951 0.880848 0
815 1 0.0769567 0.904838 0
785 1 0.0949197 0.86649 0
786 1 0.0961955 0.890968 0
787 1 0.117308 0.877709 0
817 1 0.118107 0.902534 0
788 1 0.139546 0.888858 0
789 1 0.159045 0.874264 0
790 1 0.162009 0.899128 0
792 1 0.182201 0.885182 0
793 1 0.205526 0.870969 0
823 1 0.205125 0.896361 0
824 1 0.225821 0.90857 0
794 1 0.228894 0.882865 0
796 1 0.253413 0.87431 0
825 1 0.24878 0.898907 0
827 1 0.272058 0.892253 0
797 1 0.27783 0.868738 0
798 1 0.295612 0.887158 0
829 1 0.312568 0.905235 0
800 1 0.319483 0.87982 0
801 1 0.342534 0.872858 0
831 1 0.337232 0.898752 0
802 1 0.359749 0.890796 0
772 1 0.36686 0.866189 0
804 1 0.384798 0.883983 0
805 1 0.407386 0.875166 0
833 1 0.377416 0.908363 0
806 1 0.408569 0.902383 0
778 1 0.44416 0.867559 0
807 1 0.428863 0.886744 0
808 1 0.452132 0.892574 0
809 1 0.470137 0.874862 0
1681 1 0.494281 0.881108 0
810 1 0.47646 0.898862 0
841 1 0.0028359 0.92485 0
842 1 0.0198321 0.942835 0
843 1 0.0296226 0.920339 0
844 1 0.0455213 0.939509 0
814 1 0.0547965 0.915824 0
845 1 0.07389 0.930843 0
816 1 0.0972438 0.917303 0
847 1 0.0990553 0.941341 0
818 1 0.120388 0.927761 0
848 1 0.12246 0.951985 0
819 1 0.140982 0.914031 0
849 1 0.143542 0.938198 0
820 1 0.163942 0.9244 0
850 1 0.165148 0.949992 0
821 1 0.183735 0.910535 0
851 1 0.1854 0.935551 0
822 1 0.20544 0.921672 0
853 1 0.2086 0.946788 0
855 1 0.230092 0.933099 0
826 1 0.263221 0.918705 0
856 1 0.254414 0.943288 0
828 1 0.287864 0.911538 0
857 1 0.280067 0.935106 0
859 1 0.304887 0.929588 0
858 1 0.298432 0.953194 0
860 1 0.322686 0.948164 0
830 1 0.32879 0.92262 0
861 1 0.345201 0.940246 0
832 1 0.35465 0.917362 0
863 1 0.371985 0.935189 0
834 1 0.395365 0.924777 0
865 1 0.402447 0.948196 0
837 1 0.434043 0.909897 0
835 1 0.41862 0.929991 0
838 1 0.441828 0.934902 0
836 1 0.426435 0.953708 0
839 1 0.458651 0.916515 0
1741 1 0.491172 0.946526 0
840 1 0.48444 0.922735 0
869 1 0.467021 0.940456 0
872 1 0.02578 0.987061 0
873 1 0.0333531 0.962804 0
871 1 0.00984266 0.967232 0
1 1 0.00130269 0.990406 0
846 1 0.0810671 0.95606 0
874 1 0.0499229 0.983173 0
875 1 0.058456 0.960729 0
876 1 0.0812785 0.980633 0
7 1 0.103045 0.992187 0
877 1 0.1027 0.966891 0
878 1 0.124527 0.977536 0
879 1 0.145385 0.964179 0
880 1 0.146057 0.989144 0
881 1 0.16692 0.975487 0
852 1 0.187913 0.96056 0
882 1 0.189878 0.985043 0
883 1 0.210358 0.970798 0
13 1 0.212059 0.99567 0
854 1 0.231935 0.956801 0
884 1 0.232601 0.981799 0
885 1 0.252922 0.967971 0
886 1 0.25817 0.992678 0
887 1 0.274594 0.957504 0
888 1 0.288143 0.977508 0
889 1 0.314045 0.971493 0
19 1 0.306004 0.994747 0
862 1 0.361998 0.958517 0
890 1 0.330264 0.990316 0
891 1 0.338968 0.966332 0
892 1 0.365432 0.983993 0
864 1 0.385081 0.965905 0
893 1 0.389946 0.990832 0
895 1 0.40809 0.97233 0
867 1 0.44942 0.959677 0
866 1 0.43256 0.978448 0
896 1 0.415675 0.996103 0
899 1 0.481437 0.988548 0
868 1 0.457118 0.984735 0
870 1 0.474078 0.965523 0
1771 1 0.498941 0.971249 0
902 1 0.538197 0.0250525 0
931 1 0.52085 0.0429237 0
901 1 0.514122 0.0194237 0
903 1 0.530377 0.00138127 0
904 1 0.564049 0.0300803 0
906 1 0.5801 0.0119792 0
905 1 0.555047 0.00568885 0
935 1 0.587539 0.0361503 0
908 1 0.604313 0.0183225 0
937 1 0.611116 0.0432565 0
939 1 0.628206 0.0241555 0
941 1 0.652727 0.0294382 0
912 1 0.670988 0.0109354 0
942 1 0.677069 0.0352286 0
910 1 0.64579 0.00568465 0
943 1 0.697541 0.0144876 0
944 1 0.700446 0.0391336 0
945 1 0.720312 0.0248969 0
914 1 0.728381 0.000359902 0
947 1 0.744277 0.0201801 0
948 1 0.770856 0.0394919 0
918 1 0.76845 0.0144401 0
946 1 0.745918 0.0447567 0
919 1 0.792199 0.00866824 0
949 1 0.795399 0.0349786 0
920 1 0.82017 0.0366913 0
922 1 0.832281 0.016128 0
951 1 0.846164 0.0356614 0
924 1 0.856045 0.0125144 0
953 1 0.871392 0.0323492 0
955 1 0.879836 0.00861017 0
954 1 0.89497 0.0280574 0
925 1 0.904381 0.00519234 0
926 1 0.928093 0.00153403 0
957 1 0.944425 0.0210005 0
956 1 0.919867 0.024753 0
987 1 0.934118 0.0445737 0
930 1 0.992101 0.0131183 0
959 1 0.968142 0.0169914 0
960 1 0.982607 0.0369988 0
958 1 0.958591 0.0406962 0
60 1 0.502916 0.0610615 0
932 1 0.527655 0.065762 0
961 1 0.510462 0.0844965 0
962 1 0.53455 0.0900581 0
933 1 0.545866 0.0476226 0
963 1 0.551131 0.072274 0
934 1 0.570384 0.0540008 0
965 1 0.575764 0.0780925 0
936 1 0.594902 0.0603964 0
966 1 0.600627 0.0834271 0
967 1 0.61877 0.0664808 0
968 1 0.625231 0.0896789 0
938 1 0.635254 0.048037 0
940 1 0.660772 0.0540901 0
969 1 0.642842 0.0721137 0
970 1 0.666931 0.0782288 0
971 1 0.686231 0.0590352 0
972 1 0.690328 0.0850633 0
973 1 0.710497 0.0701453 0
975 1 0.722895 0.0495483 0
974 1 0.737124 0.068901 0
976 1 0.762559 0.0635418 0
1005 1 0.75281 0.0894863 0
1007 1 0.776516 0.0844632 0
977 1 0.786504 0.0610231 0
979 1 0.810729 0.0591574 0
978 1 0.800821 0.0819981 0
980 1 0.82565 0.0800173 0
950 1 0.83521 0.0568641 0
981 1 0.850347 0.0774211 0
952 1 0.860512 0.0551971 0
983 1 0.88501 0.0527975 0
984 1 0.875503 0.0748664 0
1015 1 0.900186 0.0720242 0
985 1 0.909271 0.0479389 0
986 1 0.925199 0.067329 0
988 1 0.949305 0.0634932 0
1018 1 0.940375 0.0877436 0
989 1 0.974213 0.0596753 0
990 1 0.990717 0.0781 0
1019 1 0.965445 0.0829641 0
61 1 0.998469 0.0556042 0
991 1 0.516795 0.109085 0
992 1 0.524205 0.13291 0
993 1 0.541116 0.114704 0
120 1 0.500021 0.126711 0
964 1 0.558979 0.0967444 0
994 1 0.565565 0.120123 0
995 1 0.582853 0.101502 0
996 1 0.589493 0.12522 0
997 1 0.607783 0.108487 0
998 1 0.632189 0.113969 0
1027 1 0.613928 0.132827 0
999 1 0.649388 0.096373 0
1000 1 0.655302 0.120382 0
1001 1 0.672166 0.102894 0
1031 1 0.678331 0.126909 0
1002 1 0.695827 0.109714 0
1004 1 0.719448 0.114029 0
1033 1 0.703196 0.133378 0
1003 1 0.727534 0.0910409 0
1006 1 0.767895 0.107498 0
1035 1 0.743356 0.112899 0
1036 1 0.757514 0.133613 0
1037 1 0.781769 0.129119 0
1008 1 0.791726 0.10517 0
1039 1 0.80615 0.126121 0
1009 1 0.816018 0.103037 0
1010 1 0.830307 0.123001 0
1011 1 0.840307 0.0992127 0
1012 1 0.854872 0.120162 0
982 1 0.864587 0.0975011 0
1013 1 0.879511 0.116474 0
1014 1 0.890006 0.0942242 0
1016 1 0.904724 0.113103 0
1045 1 0.895702 0.135764 0
1017 1 0.916061 0.0905445 0
1049 1 0.945897 0.127066 0
1047 1 0.922242 0.131509 0
1020 1 0.981367 0.101812 0
1050 1 0.971285 0.123652 0
121 1 0.996685 0.120818 0
1022 1 0.531655 0.15634 0
1053 1 0.538979 0.180424 0
1051 1 0.51358 0.174575 0
1021 1 0.507386 0.151238 0
1023 1 0.548647 0.137928 0
1024 1 0.556214 0.161294 0
1025 1 0.573896 0.143736 0
1055 1 0.579461 0.168246 0
1026 1 0.596714 0.150894 0
1028 1 0.620911 0.156972 0
1057 1 0.603172 0.174469 0
1058 1 0.627456 0.180717 0
1029 1 0.637725 0.138749 0
1059 1 0.644355 0.162891 0
1030 1 0.661646 0.144253 0
1061 1 0.668062 0.168313 0
1032 1 0.685766 0.15093 0
1063 1 0.711641 0.156125 0
1062 1 0.69315 0.174319 0
1034 1 0.728872 0.136402 0
1065 1 0.737056 0.162663 0
1066 1 0.763616 0.175221 0
1067 1 0.772445 0.152495 0
1038 1 0.796537 0.149125 0
1069 1 0.812582 0.169426 0
1068 1 0.787893 0.173344 0
1040 1 0.821712 0.145555 0
1041 1 0.845568 0.142552 0
1071 1 0.837471 0.166197 0
1042 1 0.861769 0.163258 0
1043 1 0.869812 0.140394 0
1044 1 0.886556 0.159585 0
1075 1 0.902375 0.178244 0
1046 1 0.91186 0.155089 0
1048 1 0.937399 0.151451 0
1077 1 0.927588 0.173521 0
1078 1 0.953001 0.169911 0
1079 1 0.962051 0.147325 0
1080 1 0.978558 0.166279 0
151 1 0.986348 0.142925 0
1052 1 0.521536 0.197846 0
1082 1 0.526455 0.221388 0
1081 1 0.503236 0.21622 0
1083 1 0.544985 0.204175 0
1054 1 0.562602 0.185873 0
1056 1 0.586036 0.192556 0
1085 1 0.56845 0.210116 0
1086 1 0.5922 0.216447 0
1087 1 0.610145 0.19805 0
1088 1 0.616674 0.222197 0
1089 1 0.633906 0.204326 0
1060 1 0.65151 0.18696 0
1091 1 0.675421 0.191793 0
1090 1 0.658523 0.211011 0
1064 1 0.717017 0.179525 0
1092 1 0.682069 0.217113 0
1093 1 0.700638 0.198871 0
1094 1 0.724785 0.205055 0
1123 1 0.706079 0.223006 0
1095 1 0.742171 0.187122 0
1096 1 0.750285 0.210704 0
1127 1 0.773052 0.221884 0
1097 1 0.777305 0.196732 0
1099 1 0.803734 0.19318 0
1098 1 0.795569 0.217835 0
1100 1 0.820322 0.213672 0
1072 1 0.852665 0.186845 0
1070 1 0.828633 0.189681 0
1101 1 0.844911 0.209818 0
1073 1 0.878308 0.182398 0
1103 1 0.869455 0.205379 0
1074 1 0.894658 0.202155 0
1104 1 0.885535 0.224194 0
1105 1 0.910514 0.221207 0
1076 1 0.919397 0.197154 0
1107 1 0.944378 0.192864 0
1108 1 0.9349 0.215929 0
211 1 0.984632 0.208736 0
1109 1 0.968821 0.188961 0
1110 1 0.960137 0.211912 0
181 1 0.993929 0.185718 0
1111 1 0.509372 0.240264 0
1113 1 0.533858 0.24547 0
1112 1 0.516023 0.264149 0
1143 1 0.53995 0.270857 0
1084 1 0.551214 0.227392 0
1114 1 0.557552 0.252892 0
1115 1 0.574439 0.233861 0
1116 1 0.58034 0.25893 0
1117 1 0.599146 0.239636 0
1118 1 0.622517 0.246197 0
1147 1 0.604649 0.264859 0
1149 1 0.628607 0.271575 0
1119 1 0.639898 0.22862 0
1121 1 0.664912 0.235279 0
1120 1 0.646167 0.253507 0
1151 1 0.670595 0.259023 0
1122 1 0.688362 0.241206 0
1124 1 0.712649 0.247509 0
1153 1 0.694791 0.264626 0
1154 1 0.719409 0.271281 0
1125 1 0.730325 0.228924 0
1126 1 0.753668 0.235846 0
1155 1 0.736335 0.25359 0
1157 1 0.75945 0.260189 0
1128 1 0.78566 0.243882 0
1129 1 0.810934 0.237399 0
1159 1 0.804385 0.262124 0
1158 1 0.781669 0.268536 0
1102 1 0.861844 0.228791 0
1131 1 0.836026 0.233127 0
1132 1 0.853506 0.253093 0
1130 1 0.828994 0.256862 0
1133 1 0.877431 0.248863 0
1134 1 0.892752 0.268154 0