ITEM: TIMESTEP
92000
ITEM: NUMBER OF ATOMS
1800
ITEM: BOX BOUNDS pp pp pp
1.1293506258410986e+00 1.6387064937415653e+02
1.1293506258410986e+00 1.6387064937415653e+02
0.0000000000000000e+00 5.5000000000000000e+00
ITEM: ATOMS id type xs ys zs
2 1 0.0163007 0.0148284 0
3 1 0.0399873 0.00892249 0
33 1 0.0324559 0.0332493 0
31 1 0.00800158 0.0397579 0
4 1 0.0558815 0.0272869 0
6 1 0.0800883 0.0207086 0
5 1 0.063658 0.00309393 0
8 1 0.105387 0.0159422 0
37 1 0.0968372 0.0383042 0
9 1 0.130996 0.00676532 0
39 1 0.1235 0.0311377 0
10 1 0.156085 0.0177311 0
41 1 0.178615 0.0308207 0
40 1 0.15811 0.0424034 0
12 1 0.17735 0.00574362 0
43 1 0.200143 0.0413836 0
14 1 0.199828 0.0169648 0
45 1 0.221933 0.0278796 0
15 1 0.220868 0.00384868 0
16 1 0.242533 0.014865 0
46 1 0.243055 0.0399499 0
18 1 0.265283 0.026395 0
17 1 0.263752 0.00191692 0
49 1 0.288395 0.0378628 0
19 1 0.28791 0.0133813 0
20 1 0.314007 0.0243925 0
51 1 0.334096 0.0406144 0
21 1 0.339664 0.0163284 0
22 1 0.35852 0.031674 0
23 1 0.364246 0.00819497 0
24 1 0.382511 0.0269136 0
55 1 0.401683 0.0441643 0
25 1 0.407086 0.0192229 0
894 1 0.388744 0.00204809 0
26 1 0.425764 0.0367089 0
27 1 0.430726 0.0117967 0
28 1 0.44925 0.0273058 0
29 1 0.47379 0.0313596 0
900 1 0.490144 0.0122504 0
898 1 0.464888 0.00751742 0
30 1 0.499169 0.0349144 0
32 1 0.0250588 0.0572465 0
63 1 0.0419124 0.0754049 0
62 1 0.0182647 0.0809822 0
61 1 0.000317874 0.0634301 0
35 1 0.071962 0.0446241 0
34 1 0.0486008 0.051357 0
65 1 0.0656551 0.0692089 0
66 1 0.0840894 0.086013 0
36 1 0.0894218 0.0625398 0
38 1 0.112962 0.0570601 0
67 1 0.108362 0.0815289 0
68 1 0.132448 0.0765064 0
69 1 0.136554 0.0519028 0
71 1 0.155376 0.0688346 0
72 1 0.176337 0.0807314 0
42 1 0.17875 0.0556806 0
44 1 0.221509 0.0528824 0
73 1 0.200333 0.0666196 0
74 1 0.222242 0.0774402 0
103 1 0.198508 0.0913805 0
47 1 0.264857 0.0516462 0
75 1 0.243222 0.0652313 0
77 1 0.265303 0.0759732 0
76 1 0.242342 0.0904616 0
50 1 0.309752 0.0501419 0
48 1 0.286179 0.0635462 0
79 1 0.307368 0.0766717 0
78 1 0.287059 0.0888432 0
81 1 0.330305 0.0657815 0
52 1 0.353682 0.0565877 0
82 1 0.35109 0.0812432 0
80 1 0.328188 0.0900984 0
53 1 0.377392 0.0509862 0
83 1 0.375009 0.076029 0
54 1 0.397963 0.0683302 0
57 1 0.447108 0.0536162 0
56 1 0.421872 0.0617131 0
85 1 0.415897 0.086191 0
87 1 0.440663 0.0788883 0
59 1 0.482442 0.0535566 0
58 1 0.464422 0.0712542 0
89 1 0.490994 0.0767339 0
92 1 0.0281797 0.124096 0
93 1 0.0352537 0.0992321 0
91 1 0.0113562 0.105513 0
121 1 0.00344661 0.130534 0
64 1 0.0595554 0.0935611 0
94 1 0.0520351 0.117545 0
95 1 0.0762499 0.110846 0
125 1 0.0693173 0.13512 0
96 1 0.0928415 0.129799 0
97 1 0.100725 0.104933 0
98 1 0.118096 0.123753 0
99 1 0.125724 0.100043 0
70 1 0.150302 0.0948952 0
100 1 0.141613 0.118585 0
101 1 0.177307 0.105914 0
131 1 0.18055 0.130324 0
130 1 0.157904 0.137837 0
102 1 0.200685 0.116349 0
104 1 0.221909 0.12885 0
105 1 0.221009 0.102327 0
106 1 0.242902 0.115216 0
137 1 0.26469 0.125421 0
107 1 0.264829 0.101011 0
108 1 0.286817 0.114341 0
109 1 0.307816 0.102036 0
139 1 0.30565 0.135992 0
110 1 0.325536 0.119747 0
111 1 0.346715 0.105974 0
141 1 0.349865 0.129353 0
84 1 0.393333 0.0927362 0
113 1 0.370193 0.100022 0
112 1 0.388915 0.116754 0
143 1 0.372879 0.134944 0
115 1 0.41343 0.121576 0
86 1 0.433738 0.102845 0
116 1 0.438122 0.127969 0
117 1 0.456714 0.110837 0
88 1 0.473916 0.0937841 0
119 1 0.480466 0.118411 0
90 1 0.498529 0.100137 0
118 1 0.46243 0.135482 0
122 1 0.0203592 0.147932 0
153 1 0.037744 0.165044 0
152 1 0.0138428 0.172442 0
123 1 0.0452691 0.141561 0
124 1 0.0623934 0.159163 0
126 1 0.0862587 0.153541 0
155 1 0.0788039 0.177621 0
127 1 0.110307 0.147672 0
128 1 0.12737 0.16624 0
157 1 0.10303 0.171604 0
129 1 0.134107 0.141943 0
159 1 0.151434 0.160364 0
161 1 0.168929 0.177898 0
132 1 0.177176 0.15497 0
133 1 0.201423 0.144454 0
163 1 0.20586 0.173212 0
134 1 0.223836 0.15601 0
135 1 0.243785 0.139705 0
136 1 0.266152 0.149376 0
165 1 0.247683 0.164909 0
167 1 0.272119 0.172706 0
164 1 0.229581 0.181015 0
138 1 0.289291 0.155109 0
169 1 0.31371 0.160701 0
168 1 0.297567 0.179578 0
140 1 0.330572 0.144497 0
142 1 0.355605 0.152865 0
171 1 0.337694 0.169275 0
172 1 0.362577 0.176446 0
114 1 0.397061 0.13996 0
144 1 0.403992 0.164795 0
173 1 0.380057 0.158402 0
145 1 0.42091 0.146595 0
146 1 0.427837 0.171301 0
147 1 0.445283 0.152875 0
177 1 0.451583 0.176287 0
149 1 0.487511 0.142147 0
148 1 0.469496 0.159292 0
150 1 0.493017 0.165683 0
181 1 0.00688466 0.19693 0
183 1 0.0317497 0.189704 0
182 1 0.0257842 0.213045 0
154 1 0.0552726 0.183707 0
184 1 0.0486489 0.207667 0
185 1 0.0724737 0.202019 0
215 1 0.0657177 0.225244 0
186 1 0.0900461 0.220744 0
156 1 0.0967238 0.195977 0
158 1 0.120265 0.190299 0
187 1 0.115248 0.21425 0
160 1 0.14487 0.18399 0
189 1 0.13887 0.207538 0
191 1 0.164994 0.202065 0
162 1 0.188563 0.191487 0
193 1 0.211787 0.198276 0
192 1 0.194789 0.215289 0
194 1 0.218834 0.223593 0
195 1 0.23542 0.205683 0
166 1 0.253937 0.188862 0
196 1 0.260679 0.212646 0
197 1 0.27861 0.196068 0
199 1 0.302484 0.203423 0
198 1 0.284786 0.22016 0
170 1 0.32103 0.185801 0
201 1 0.345088 0.192857 0
200 1 0.328009 0.209338 0
202 1 0.351252 0.217484 0
174 1 0.386846 0.181963 0
203 1 0.369096 0.199871 0
233 1 0.375555 0.223371 0
204 1 0.393316 0.205604 0
175 1 0.410856 0.188841 0
205 1 0.417116 0.212936 0
176 1 0.434164 0.195089 0
207 1 0.441547 0.219625 0
179 1 0.475897 0.183871 0
178 1 0.458524 0.201158 0
208 1 0.465165 0.225116 0
209 1 0.482502 0.207871 0
212 1 0.0225689 0.25787 0
211 1 0.0152779 0.234505 0
213 1 0.0400159 0.239603 0
243 1 0.0460937 0.264863 0
214 1 0.0639625 0.248622 0
216 1 0.0889026 0.251785 0
245 1 0.0704213 0.271555 0
188 1 0.133041 0.244545 0
217 1 0.108416 0.23732 0
218 1 0.114106 0.260204 0
219 1 0.138863 0.268447 0
190 1 0.153515 0.227398 0
221 1 0.176952 0.234742 0
220 1 0.158696 0.25116 0
222 1 0.182713 0.258592 0
223 1 0.200571 0.240419 0
224 1 0.22525 0.247682 0
253 1 0.206791 0.265093 0
225 1 0.242627 0.230397 0
227 1 0.266627 0.236267 0
226 1 0.248389 0.255285 0
255 1 0.231155 0.27293 0
257 1 0.271978 0.261022 0
229 1 0.309875 0.226443 0
228 1 0.290777 0.243306 0
230 1 0.314304 0.250428 0
259 1 0.296205 0.267512 0
231 1 0.33336 0.234083 0
232 1 0.356364 0.241096 0
261 1 0.338749 0.257383 0
263 1 0.363333 0.265601 0
235 1 0.399332 0.230544 0
234 1 0.382335 0.247779 0
265 1 0.406283 0.254614 0
264 1 0.388471 0.271278 0
206 1 0.423807 0.237297 0
237 1 0.448719 0.243406 0
236 1 0.429917 0.261948 0
238 1 0.454546 0.267723 0
210 1 0.490516 0.231103 0
239 1 0.472197 0.25064 0
240 1 0.496142 0.256709 0
242 1 0.0283361 0.282956 0
271 1 0.0101914 0.299591 0
273 1 0.0352331 0.306844 0
241 1 0.00427157 0.275203 0
244 1 0.0525617 0.288675 0
246 1 0.0776859 0.29514 0
275 1 0.0602988 0.313238 0
247 1 0.0953614 0.277168 0
249 1 0.119752 0.284912 0
248 1 0.101046 0.302242 0
279 1 0.12679 0.309232 0
251 1 0.164219 0.27508 0
250 1 0.144332 0.291437 0
281 1 0.170243 0.299441 0
280 1 0.151323 0.315843 0
252 1 0.188483 0.281992 0
254 1 0.21255 0.288655 0
283 1 0.194101 0.305494 0
284 1 0.217724 0.31335 0
256 1 0.25506 0.27885 0
285 1 0.236767 0.296744 0
287 1 0.261269 0.302274 0
258 1 0.279644 0.285512 0
288 1 0.285429 0.309917 0
289 1 0.303681 0.292194 0
290 1 0.309785 0.316744 0
260 1 0.321139 0.274803 0
262 1 0.34593 0.282621 0
291 1 0.327921 0.299205 0
292 1 0.352443 0.305942 0
293 1 0.37083 0.289345 0
295 1 0.395437 0.296218 0
294 1 0.377235 0.313606 0
266 1 0.41203 0.278986 0
296 1 0.41885 0.303279 0
267 1 0.436642 0.285275 0
297 1 0.443058 0.309889 0
269 1 0.478769 0.275297 0
268 1 0.460583 0.291461 0
270 1 0.485045 0.298647 0
299 1 0.467544 0.316283 0
1200 1 0.0167749 0.324084 0
272 1 0.0416224 0.331358 0
301 1 0.0223539 0.347331 0
303 1 0.0476294 0.355072 0
276 1 0.0846027 0.321176 0
274 1 0.0661992 0.337668 0
304 1 0.0716309 0.362629 0
305 1 0.0897724 0.345443 0
277 1 0.108882 0.326741 0
278 1 0.133439 0.333471 0
307 1 0.114516 0.351151 0
309 1 0.138414 0.358328 0
282 1 0.174673 0.323876 0
311 1 0.156854 0.341371 0
312 1 0.181046 0.348397 0
313 1 0.198235 0.330786 0
314 1 0.205626 0.354627 0
315 1 0.224705 0.338091 0
286 1 0.242499 0.321016 0
317 1 0.266504 0.326852 0
316 1 0.249031 0.344955 0
345 1 0.230621 0.362118 0
318 1 0.273707 0.351396 0
319 1 0.291524 0.333934 0
349 1 0.297552 0.358207 0
320 1 0.315699 0.340176 0
321 1 0.334485 0.323024 0
323 1 0.358805 0.32991 0
322 1 0.34074 0.347745 0
355 1 0.365275 0.355222 0
325 1 0.401261 0.320119 0
324 1 0.383017 0.33729 0
356 1 0.389671 0.362633 0
326 1 0.406789 0.345904 0
298 1 0.449137 0.334364 0
327 1 0.424923 0.327583 0
328 1 0.430614 0.351683 0
359 1 0.455082 0.357437 0
300 1 0.491691 0.323011 0
329 1 0.474218 0.340122 0
1201 1 0.498784 0.346593 0
1230 1 0.00459993 0.36455 0
302 1 0.0291298 0.372562 0
332 1 0.0345151 0.397704 0
331 1 0.0106022 0.390307 0
333 1 0.0532527 0.380148 0
335 1 0.0776913 0.386867 0
334 1 0.0593777 0.404698 0
306 1 0.096562 0.369575 0
308 1 0.121029 0.376044 0
337 1 0.102455 0.393623 0
338 1 0.127123 0.400105 0
310 1 0.163382 0.365959 0
339 1 0.14495 0.382785 0
341 1 0.16913 0.390469 0
340 1 0.151498 0.407255 0
343 1 0.188234 0.372509 0
342 1 0.193992 0.396828 0
344 1 0.21152 0.378394 0
373 1 0.218636 0.402733 0
347 1 0.255031 0.368984 0
346 1 0.236344 0.385789 0
377 1 0.261459 0.391917 0
348 1 0.280132 0.375376 0
350 1 0.303185 0.381546 0
378 1 0.28456 0.399439 0
379 1 0.309878 0.404891 0
351 1 0.321873 0.364933 0
353 1 0.347112 0.371578 0
381 1 0.328479 0.388016 0
352 1 0.352657 0.396535 0
383 1 0.375758 0.403558 0
354 1 0.370709 0.379242 0
385 1 0.394896 0.387565 0
357 1 0.413533 0.369889 0
387 1 0.419711 0.394259 0
358 1 0.43766 0.376426 0
388 1 0.443631 0.399681 0
330 1 0.479388 0.364877 0
389 1 0.467986 0.405737 0
1232 1 0.485843 0.388807 0
360 1 0.461104 0.382548 0
361 1 0.0155044 0.41455 0
362 1 0.0230714 0.438614 0
363 1 0.0405322 0.422136 0
336 1 0.0833795 0.411247 0
364 1 0.0482858 0.445408 0
365 1 0.0663117 0.428457 0
395 1 0.0715204 0.453746 0
366 1 0.0893979 0.435848 0
367 1 0.107802 0.4168 0
368 1 0.113973 0.4413 0
369 1 0.132667 0.423834 0
371 1 0.175535 0.413709 0
399 1 0.138958 0.448413 0
370 1 0.156924 0.431866 0
401 1 0.181988 0.437828 0
372 1 0.198973 0.420624 0
403 1 0.205809 0.445262 0
374 1 0.223513 0.427563 0
375 1 0.243147 0.409371 0
376 1 0.266309 0.416697 0
405 1 0.247256 0.434361 0
404 1 0.229976 0.452331 0
407 1 0.27138 0.440603 0
409 1 0.290639 0.423037 0
408 1 0.295835 0.447153 0
410 1 0.314726 0.429757 0
380 1 0.333168 0.412514 0
382 1 0.357511 0.420518 0
411 1 0.320268 0.453802 0
413 1 0.339558 0.436893 0
414 1 0.363212 0.444692 0
386 1 0.40154 0.410372 0
384 1 0.383032 0.427619 0
415 1 0.408163 0.434699 0
445 1 0.387537 0.451325 0
417 1 0.426637 0.418238 0
416 1 0.432234 0.443506 0
419 1 0.449916 0.424559 0
418 1 0.456862 0.449072 0
1261 1 0.492505 0.412695 0
390 1 0.474491 0.430827 0
392 1 0.00462233 0.455629 0
393 1 0.0288645 0.463304 0
422 1 0.0112785 0.480352 0
423 1 0.0354753 0.487836 0
394 1 0.0533616 0.470541 0
396 1 0.077865 0.477631 0
425 1 0.0595551 0.494982 0
397 1 0.0969663 0.459261 0
398 1 0.120732 0.46574 0
427 1 0.10182 0.485587 0
428 1 0.125838 0.489955 0
400 1 0.163401 0.455207 0
429 1 0.145087 0.472102 0
430 1 0.15195 0.495917 0
431 1 0.170592 0.479431 0
402 1 0.188169 0.46281 0
432 1 0.19406 0.48651 0
433 1 0.212999 0.469816 0
434 1 0.218864 0.494448 0
406 1 0.253989 0.459283 0
435 1 0.236343 0.477519 0
436 1 0.259294 0.484866 0
437 1 0.277468 0.466716 0
439 1 0.301729 0.470532 0
440 1 0.306889 0.493564 0
438 1 0.283376 0.491572 0
412 1 0.344566 0.460196 0
441 1 0.326031 0.477152 0
442 1 0.350925 0.484419 0
443 1 0.368849 0.468134 0
444 1 0.393361 0.476164 0
473 1 0.374036 0.492294 0
449 1 0.444851 0.490998 0
448 1 0.417556 0.485723 0
446 1 0.411976 0.460963 0
447 1 0.43739 0.466729 0
450 1 0.488949 0.479042 0
479 1 0.47024 0.496216 0
1321 1 0.482289 0.455077 0
420 1 0.46407 0.473266 0
454 1 0.0243903 0.529288 0
453 1 0.0175248 0.505071 0
424 1 0.0416459 0.512387 0
452 1 -0.000331527 0.521566 0
485 1 0.0480857 0.537579 0
455 1 0.0653371 0.520356 0
486 1 0.0728484 0.545339 0
426 1 0.0837095 0.503116 0
456 1 0.0895779 0.527231 0
459 1 0.13412 0.512969 0
457 1 0.109262 0.510116 0
458 1 0.113169 0.535996 0
489 1 0.138305 0.536912 0
460 1 0.157812 0.519938 0
461 1 0.175399 0.503486 0
491 1 0.162701 0.543992 0
462 1 0.182049 0.527358 0
493 1 0.204841 0.5373 0
464 1 0.22353 0.520515 0
463 1 0.199709 0.511007 0
466 1 0.248529 0.529716 0
467 1 0.269567 0.515562 0
465 1 0.243732 0.50451 0
497 1 0.26989 0.542917 0
468 1 0.290165 0.529411 0
499 1 0.315338 0.54006 0
469 1 0.311719 0.51642 0
470 1 0.334925 0.525252 0
472 1 0.353792 0.508266 0
503 1 0.359257 0.533361 0
471 1 0.33037 0.501459 0
474 1 0.378085 0.516492 0
476 1 0.400919 0.525472 0
505 1 0.382656 0.542777 0
475 1 0.397265 0.501313 0
477 1 0.420753 0.510695 0
478 1 0.44341 0.520219 0
507 1 0.422582 0.535996 0
1381 1 0.482525 0.517917 0
480 1 0.46388 0.533592 0
1351 1 0.499202 0.501307 0
510 1 0.487844 0.5422 0
483 1 0.00537664 0.544711 0
482 1 0.011464 0.569008 0
513 1 0.03017 0.55272 0
514 1 0.0362309 0.577071 0
484 1 0.0551563 0.561409 0
515 1 0.0784406 0.570867 0
545 1 0.0591604 0.586911 0
487 1 0.0970504 0.553653 0
488 1 0.119491 0.566643 0
517 1 0.100196 0.582616 0
490 1 0.143938 0.560095 0
520 1 0.14707 0.583857 0
521 1 0.166862 0.568543 0
492 1 0.185777 0.553421 0
523 1 0.190418 0.5777 0
494 1 0.209347 0.561239 0
524 1 0.212726 0.587827 0
495 1 0.228398 0.545788 0
525 1 0.231673 0.572558 0
496 1 0.25105 0.557302 0
526 1 0.2546 0.582274 0
527 1 0.27476 0.567635 0
498 1 0.29518 0.553686 0
529 1 0.297009 0.578362 0
500 1 0.317855 0.5649 0
530 1 0.320347 0.589268 0
501 1 0.338292 0.549024 0
531 1 0.341778 0.57304 0
502 1 0.361203 0.558176 0
533 1 0.363741 0.584333 0
504 1 0.383981 0.567792 0
535 1 0.406366 0.577546 0
506 1 0.404174 0.552368 0
508 1 0.425998 0.562839 0
539 1 0.449188 0.571858 0
509 1 0.444324 0.546725 0
537 1 0.428894 0.587767 0
540 1 0.468766 0.556707 0
1441 1 0.493552 0.56743 0
569 1 0.473029 0.580349 0
512 1 0.0169579 0.59275 0
542 1 0.0208103 0.617971 0
543 1 0.0398444 0.602194 0
544 1 0.0422413 0.628851 0
571 1 0.000850241 0.632713 0
516 1 0.081211 0.597678 0
546 1 0.0623786 0.614065 0
547 1 0.0852836 0.62356 0
519 1 0.124006 0.593131 0
518 1 0.103615 0.607045 0
548 1 0.126566 0.619629 0
577 1 0.106974 0.633978 0
522 1 0.170048 0.59333 0
549 1 0.148311 0.607373 0
550 1 0.149431 0.63077 0
551 1 0.171725 0.61773 0
553 1 0.193019 0.602844 0
552 1 0.193477 0.628421 0
554 1 0.214613 0.612908 0
555 1 0.235585 0.597462 0
556 1 0.237527 0.622784 0
557 1 0.257975 0.607652 0
587 1 0.260817 0.632642 0
528 1 0.277565 0.593655 0
559 1 0.301358 0.604577 0
558 1 0.280154 0.618258 0
560 1 0.303968 0.629373 0
561 1 0.324413 0.614401 0
532 1 0.344024 0.599139 0
562 1 0.347462 0.623841 0
563 1 0.36747 0.609539 0
534 1 0.386655 0.593821 0
565 1 0.39065 0.619949 0
564 1 0.37097 0.635146 0
536 1 0.40907 0.602748 0
566 1 0.413871 0.629322 0
538 1 0.449943 0.596387 0
567 1 0.431626 0.612424 0
568 1 0.454923 0.620881 0
570 1 0.47302 0.603617 0
1471 1 0.487595 0.621059 0
1442 1 0.498762 0.596905 0
573 1 0.0224801 0.643003 0
603 1 0.0248974 0.668737 0
572 1 0.00323237 0.657983 0
575 1 0.0651932 0.6398 0
574 1 0.0448154 0.65404 0
604 1 0.0470614 0.678983 0
605 1 0.0672605 0.664127 0
576 1 0.0877671 0.649474 0
607 1 0.0899496 0.674653 0
578 1 0.110654 0.660047 0
579 1 0.129962 0.64489 0
609 1 0.132721 0.670439 0
581 1 0.173052 0.643349 0
580 1 0.152147 0.655028 0
611 1 0.175825 0.66784 0
610 1 0.155578 0.681121 0
583 1 0.215885 0.637769 0
582 1 0.19641 0.652838 0
584 1 0.219719 0.66279 0
613 1 0.199246 0.676509 0
585 1 0.240051 0.648116 0
586 1 0.26341 0.658318 0
615 1 0.242242 0.67314 0
589 1 0.283648 0.642943 0
588 1 0.285449 0.669192 0
590 1 0.306218 0.654013 0
619 1 0.309462 0.680008 0
591 1 0.326462 0.639282 0
593 1 0.349726 0.64782 0
621 1 0.329265 0.664694 0
592 1 0.353493 0.671276 0
594 1 0.373939 0.659953 0
595 1 0.395666 0.646658 0
627 1 0.401625 0.675313 0
597 1 0.435673 0.63865 0
596 1 0.417677 0.656374 0
598 1 0.4367 0.673214 0
599 1 0.453742 0.655567 0
600 1 0.470881 0.638526 0
629 1 0.478314 0.661012 0
1501 1 0.495182 0.643611 0
628 1 0.462153 0.679492 0
602 1 0.00380163 0.682565 0
633 1 0.0262954 0.69285 0
632 1 0.00607221 0.707516 0
634 1 0.0284116 0.717536 0
635 1 0.0489295 0.703566 0
606 1 0.069367 0.689009 0
636 1 0.0712842 0.713864 0
637 1 0.0915177 0.69905 0
608 1 0.112868 0.684028 0
638 1 0.114369 0.709196 0
639 1 0.134741 0.694566 0
667 1 0.0947221 0.723491 0
640 1 0.137357 0.719409 0
641 1 0.158141 0.70554 0
612 1 0.178038 0.692185 0
642 1 0.181177 0.716401 0
614 1 0.221994 0.687973 0
643 1 0.201349 0.702072 0
645 1 0.224758 0.712887 0
617 1 0.264671 0.682896 0
616 1 0.243746 0.698362 0
647 1 0.266354 0.707556 0
646 1 0.246858 0.724105 0
618 1 0.288574 0.692699 0
620 1 0.310647 0.706516 0
649 1 0.28807 0.717683 0
622 1 0.33189 0.691965 0
651 1 0.329109 0.723671 0
653 1 0.352852 0.718012 0
623 1 0.356797 0.694769 0
625 1 0.37868 0.68427 0
624 1 0.376297 0.709796 0
626 1 0.398418 0.700838 0
655 1 0.395236 0.725542 0
657 1 0.421665 0.691623 0
656 1 0.41916 0.717158 0
658 1 0.44513 0.697258 0
630 1 0.486404 0.684413 0
659 1 0.470927 0.70249 0
1531 1 0.495545 0.707789 0
689 1 0.454793 0.720598 0
660 1 0.478885 0.726798 0
663 1 0.00865586 0.732458 0
664 1 0.030854 0.742411 0
694 1 0.0320547 0.766773 0
662 1 0.00938023 0.756171 0
665 1 0.0510863 0.72836 0
666 1 0.074299 0.738066 0
695 1 0.0526221 0.753508 0
697 1 0.0755389 0.762716 0
669 1 0.117276 0.733334 0
668 1 0.096855 0.748013 0
699 1 0.11985 0.758704 0
670 1 0.140085 0.74442 0
671 1 0.160408 0.72992 0
672 1 0.162734 0.755131 0
701 1 0.142484 0.769972 0
644 1 0.204214 0.727123 0
673 1 0.18291 0.741149 0
703 1 0.18608 0.765379 0
674 1 0.206043 0.751723 0
675 1 0.225915 0.738164 0
705 1 0.228689 0.763555 0
677 1 0.249494 0.748931 0
648 1 0.269935 0.733892 0
678 1 0.272755 0.760715 0
676 1 0.251063 0.774848 0
650 1 0.306606 0.731592 0
679 1 0.299024 0.754892 0
680 1 0.31827 0.771776 0
652 1 0.347199 0.74149 0
681 1 0.324123 0.74806 0
682 1 0.342016 0.765096 0
683 1 0.366062 0.758067 0
654 1 0.371134 0.733291 0
685 1 0.389158 0.750638 0
715 1 0.407422 0.766576 0
686 1 0.412304 0.742321 0
687 1 0.43607 0.734265 0
717 1 0.431227 0.757919 0
688 1 0.455985 0.749189 0
690 1 0.488634 0.74958 0
719 1 0.471992 0.768813 0
693 1 0.0113282 0.780715 0
692 1 0.012576 0.805758 0
723 1 0.0334171 0.79151 0
722 1 0.0359024 0.816578 0
696 1 0.0548422 0.777563 0
725 1 0.0564587 0.802336 0
727 1 0.0779478 0.788004 0
726 1 0.0791251 0.813312 0
698 1 0.0980283 0.772929 0
728 1 0.10047 0.797957 0
729 1 0.123002 0.808368 0
700 1 0.121482 0.78306 0
702 1 0.165679 0.779571 0
731 1 0.143508 0.793907 0
732 1 0.166201 0.804261 0
733 1 0.187958 0.790316 0
704 1 0.208511 0.776722 0
735 1 0.209102 0.802191 0
763 1 0.188094 0.816281 0
706 1 0.230781 0.788098 0
736 1 0.231389 0.813204 0
737 1 0.251864 0.800024 0
707 1 0.271698 0.785897 0
709 1 0.293415 0.777883 0
708 1 0.286768 0.804189 0
710 1 0.311464 0.796262 0
711 1 0.335684 0.788281 0
712 1 0.353105 0.805198 0
741 1 0.329094 0.81301 0
713 1 0.359537 0.781999 0
684 1 0.383453 0.774765 0
714 1 0.401879 0.79107 0
743 1 0.377399 0.798421 0
745 1 0.396447 0.815095 0
716 1 0.425073 0.784516 0
747 1 0.443918 0.799956 0
746 1 0.420809 0.808882 0
718 1 0.448046 0.77564 0
1591 1 0.496984 0.773015 0
720 1 0.479936 0.793488 0
749 1 0.464607 0.81272 0
1621 1 0.48907 0.817191 0
751 1 0.0149847 0.829573 0
752 1 0.0157003 0.856439 0
753 1 0.0363721 0.842429 0
724 1 0.0578105 0.827416 0
755 1 0.0804673 0.838414 0
754 1 0.0595836 0.852152 0
785 1 0.0814193 0.863664 0
756 1 0.102655 0.848037 0
757 1 0.101442 0.823233 0
759 1 0.12465 0.832869 0
758 1 0.125065 0.858636 0
730 1 0.145935 0.81861 0
760 1 0.147122 0.843044 0
761 1 0.168003 0.829946 0
791 1 0.168594 0.855032 0
734 1 0.210565 0.827028 0
762 1 0.189883 0.840611 0
764 1 0.212438 0.852235 0
767 1 0.256478 0.824631 0
765 1 0.232617 0.836228 0
766 1 0.252912 0.849074 0
739 1 0.305793 0.821531 0
738 1 0.28041 0.827928 0
768 1 0.275952 0.853407 0
769 1 0.300101 0.845712 0
770 1 0.318651 0.861342 0
740 1 0.32447 0.838289 0
771 1 0.343561 0.853586 0
742 1 0.347792 0.829703 0
744 1 0.371851 0.822384 0
773 1 0.367003 0.847201 0
774 1 0.391275 0.839242 0
776 1 0.409125 0.856897 0
775 1 0.414804 0.832679 0
777 1 0.432418 0.849663 0
748 1 0.442152 0.82669 0
750 1 0.473072 0.835425 0
779 1 0.456222 0.853965 0
780 1 0.481905 0.858815 0
1651 1 0.498086 0.840803 0
783 1 0.0383764 0.866647 0
782 1 0.0141248 0.881793 0
813 1 0.0402709 0.891629 0
812 1 0.00271891 0.906922 0
784 1 0.060867 0.877699 0
786 1 0.082925 0.888462 0
815 1 0.0632895 0.903186 0
787 1 0.104007 0.873104 0
788 1 0.12696 0.883518 0
817 1 0.104946 0.898632 0
818 1 0.128182 0.908384 0
819 1 0.148853 0.894894 0
789 1 0.148154 0.869038 0
790 1 0.169502 0.879434 0
821 1 0.171059 0.904419 0
792 1 0.191358 0.865119 0
793 1 0.212916 0.876901 0
823 1 0.192235 0.890431 0
794 1 0.215067 0.901845 0
795 1 0.234298 0.863305 0
796 1 0.235896 0.88778 0
827 1 0.25968 0.898933 0
797 1 0.257743 0.873216 0
799 1 0.294672 0.868997 0
798 1 0.285628 0.891208 0
800 1 0.31314 0.884798 0
829 1 0.305883 0.907191 0
772 1 0.361786 0.871315 0
801 1 0.337078 0.877528 0
831 1 0.331677 0.901124 0
802 1 0.35558 0.894739 0
803 1 0.385636 0.863717 0
805 1 0.403677 0.88159 0
804 1 0.379783 0.888292 0
806 1 0.396899 0.906411 0
778 1 0.427808 0.876134 0
807 1 0.419894 0.899222 0
808 1 0.445043 0.89631 0
809 1 0.465442 0.878492 0
810 1 0.473636 0.901361 0
1681 1 0.490149 0.881449 0
842 1 0.0129187 0.949379 0
843 1 0.0190959 0.925319 0
844 1 0.0380676 0.941645 0
814 1 0.042421 0.916388 0
816 1 0.0832693 0.916447 0
845 1 0.061989 0.933363 0
846 1 0.0799018 0.95158 0
847 1 0.107102 0.922599 0
849 1 0.129461 0.932694 0
848 1 0.106638 0.947763 0
820 1 0.150707 0.919035 0
850 1 0.151435 0.944371 0
851 1 0.172583 0.929496 0
824 1 0.216096 0.926225 0
822 1 0.193522 0.914918 0
853 1 0.19511 0.940161 0
854 1 0.216456 0.952052 0
825 1 0.237751 0.913445 0
855 1 0.238298 0.938424 0
826 1 0.259742 0.924993 0
856 1 0.260359 0.951476 0
828 1 0.281811 0.914556 0
857 1 0.280841 0.939405 0
859 1 0.302609 0.930801 0
860 1 0.310416 0.953997 0
832 1 0.348862 0.919114 0
830 1 0.325976 0.924624 0
861 1 0.33407 0.948777 0
863 1 0.358633 0.941641 0
833 1 0.372648 0.912295 0
834 1 0.382782 0.934877 0
865 1 0.399233 0.9535 0
835 1 0.407108 0.92771 0
837 1 0.431344 0.921307 0
838 1 0.445605 0.941069 0
836 1 0.422069 0.947308 0
839 1 0.457816 0.919056 0
840 1 0.484699 0.922978 0
1741 1 0.492758 0.946587 0
869 1 0.469188 0.940987 0
871 1 0.00665602 0.972465 0
872 1 0.0239651 0.990805 0
873 1 0.0309081 0.966502 0
874 1 0.0476046 0.984534 0
875 1 0.0557141 0.959949 0
876 1 0.0716344 0.977696 0
7 1 0.0869932 0.996607 0
877 1 0.0957845 0.970546 0
878 1 0.109939 0.991358 0
879 1 0.130079 0.957325 0
880 1 0.132304 0.981716 0
852 1 0.174361 0.955326 0
881 1 0.152728 0.969109 0
882 1 0.175123 0.980567 0
11 1 0.154361 0.993501 0
883 1 0.196083 0.966304 0
13 1 0.197869 0.992012 0
884 1 0.217724 0.978475 0
885 1 0.238899 0.964581 0
886 1 0.241207 0.989829 0
887 1 0.262427 0.976499 0
858 1 0.284853 0.964238 0
888 1 0.283965 0.989213 0
889 1 0.305696 0.977715 0
862 1 0.352188 0.966212 0
891 1 0.328865 0.972917 0
892 1 0.34569 0.991168 0
890 1 0.322575 0.998217 0
864 1 0.375832 0.960016 0
893 1 0.369652 0.98499 0
895 1 0.393368 0.977675 0
867 1 0.44211 0.965091 0
896 1 0.41195 0.99444 0
866 1 0.416845 0.970107 0
897 1 0.435351 0.987573 0
870 1 0.475115 0.964755 0
899 1 0.482887 0.988536 0
868 1 0.459463 0.982757 0
1771 1 0.499824 0.970568 0
902 1 0.540333 0.0224328 0
931 1 0.524378 0.0410082 0
901 1 0.515532 0.0171967 0
904 1 0.564481 0.0280231 0
906 1 0.58085 0.00860629 0
905 1 0.556275 0.00413888 0
935 1 0.588063 0.0325619 0
908 1 0.605162 0.0141295 0
937 1 0.612205 0.0401325 0
939 1 0.628687 0.0222301 0
940 1 0.653875 0.0258156 0
971 1 0.677093 0.0333161 0
910 1 0.64296 0.00347649 0
942 1 0.678925 0.00958354 0
938 1 0.637695 0.0452207 0
943 1 0.703901 0.0039984 0
944 1 0.700031 0.0283648 0
945 1 0.723483 0.0237054 0
947 1 0.746066 0.0174455 0
948 1 0.763402 0.035532 0
918 1 0.768836 0.01092 0
946 1 0.739796 0.0414704 0
919 1 0.793021 0.00539744 0
949 1 0.786579 0.0291533 0
920 1 0.810841 0.0237192 0
951 1 0.834321 0.0165482 0
952 1 0.852319 0.0352515 0
922 1 0.859004 0.0112028 0
950 1 0.828102 0.0408251 0
953 1 0.876583 0.0280276 0
955 1 0.900613 0.0222064 0
924 1 0.883023 0.00461417 0
926 1 0.925633 0.0156926 0
928 1 0.950453 0.00952995 0
957 1 0.94322 0.0331523 0
956 1 0.919012 0.0395329 0
929 1 0.975182 0.00318035 0
930 1 0.992338 0.0217559 0
959 1 0.967718 0.0269424 0
932 1 0.531936 0.0643133 0
962 1 0.539423 0.0879586 0
961 1 0.515381 0.0820688 0
60 1 0.507603 0.0589907 0
933 1 0.548301 0.0466484 0
934 1 0.572062 0.0519646 0
963 1 0.556786 0.0704879 0
965 1 0.580067 0.076564 0
936 1 0.596439 0.0581277 0
966 1 0.604301 0.0821325 0
967 1 0.621377 0.0637766 0
968 1 0.627888 0.0877923 0
969 1 0.646054 0.0697191 0
970 1 0.662098 0.0515931 0
972 1 0.672039 0.0740526 0
973 1 0.688779 0.0548817 0
1003 1 0.696928 0.078357 0
975 1 0.714979 0.0470996 0
1004 1 0.722559 0.0875471 0
974 1 0.731513 0.0653151 0
976 1 0.756121 0.0597875 0
1005 1 0.747711 0.0844686 0
1007 1 0.772249 0.0787209 0
977 1 0.780932 0.0534535 0
979 1 0.804049 0.0487106 0
978 1 0.796062 0.0725583 0
1009 1 0.813901 0.091705 0
980 1 0.82069 0.0667663 0
981 1 0.844845 0.0589038 0
1011 1 0.837801 0.0846121 0
982 1 0.861538 0.0775122 0
954 1 0.893913 0.0461339 0
983 1 0.869753 0.0533881 0
984 1 0.886456 0.0713286 0
1015 1 0.904121 0.0881743 0
985 1 0.911302 0.064025 0
986 1 0.928021 0.0819627 0
987 1 0.936293 0.0573056 0
988 1 0.952923 0.0751922 0
960 1 0.984094 0.0453407 0
958 1 0.960581 0.0517616 0
989 1 0.977419 0.0697582 0
990 1 0.993954 0.0875005 0
991 1 0.522697 0.106281 0
992 1 0.52907 0.131127 0
120 1 0.504768 0.124628 0
993 1 0.545838 0.112393 0
964 1 0.56371 0.0948999 0
994 1 0.570589 0.118378 0
995 1 0.58796 0.100651 0
1023 1 0.553924 0.136681 0
996 1 0.59575 0.124798 0
997 1 0.612261 0.106724 0
1027 1 0.61945 0.130316 0
998 1 0.63766 0.111003 0
999 1 0.654239 0.0935725 0
1000 1 0.661954 0.117638 0
1001 1 0.679946 0.097987 0
1029 1 0.643233 0.135742 0
1031 1 0.687661 0.123464 0
1002 1 0.704426 0.103575 0
1033 1 0.711671 0.128991 0
1006 1 0.7658 0.1021 0
1035 1 0.739691 0.109581 0
1036 1 0.757696 0.126267 0
1034 1 0.736666 0.136846 0
1037 1 0.782088 0.12058 0
1008 1 0.789454 0.0970651 0
1039 1 0.807077 0.115939 0
1010 1 0.831906 0.109108 0
1012 1 0.855224 0.101812 0
1041 1 0.849448 0.126527 0
1040 1 0.823549 0.134085 0
1043 1 0.873219 0.119101 0
1013 1 0.879621 0.0949379 0
1014 1 0.89674 0.112237 0
1016 1 0.913345 0.130617 0
1017 1 0.921054 0.106681 0
1018 1 0.945839 0.0997044 0
1047 1 0.938341 0.123784 0
1019 1 0.969299 0.0934702 0
1020 1 0.98707 0.112041 0
1049 1 0.962117 0.11786 0
1050 1 0.97942 0.136453 0
1021 1 0.511394 0.149124 0
1022 1 0.536591 0.154504 0
1053 1 0.543416 0.179637 0
1051 1 0.517961 0.172799 0
1025 1 0.578303 0.142864 0
1024 1 0.560435 0.160932 0
1055 1 0.584335 0.166121 0
1026 1 0.602126 0.149239 0
1028 1 0.626519 0.154452 0
1057 1 0.60974 0.171947 0
1058 1 0.63304 0.178312 0
1059 1 0.651556 0.158628 0
1030 1 0.668828 0.14084 0
1061 1 0.675188 0.165418 0
1032 1 0.693317 0.147668 0
1063 1 0.718822 0.153475 0
1062 1 0.69986 0.171804 0
1064 1 0.724683 0.178125 0
1065 1 0.744237 0.15943 0
1066 1 0.767938 0.168277 0
1067 1 0.77431 0.144501 0
1038 1 0.799182 0.139607 0
1068 1 0.791831 0.163913 0
1069 1 0.815777 0.158647 0
1071 1 0.841097 0.1524 0
1070 1 0.834783 0.178633 0
1072 1 0.858704 0.170387 0
1044 1 0.889435 0.137948 0
1042 1 0.865508 0.144444 0
1073 1 0.882459 0.163637 0
1045 1 0.906018 0.155663 0
1075 1 0.921104 0.175002 0
1046 1 0.930186 0.148726 0
1077 1 0.94723 0.165511 0
1048 1 0.955615 0.141676 0
1079 1 0.972437 0.160436 0
1080 1 0.989219 0.178573 0
151 1 0.996434 0.154561 0
1052 1 0.524904 0.196149 0
1082 1 0.531769 0.220049 0
1081 1 0.50808 0.213286 0
180 1 0.499814 0.190044 0
1054 1 0.567638 0.184279 0
1083 1 0.549619 0.203159 0
1085 1 0.573616 0.208038 0
1084 1 0.555876 0.227124 0
1056 1 0.591831 0.190259 0
1086 1 0.597737 0.213727 0
1087 1 0.615262 0.195637 0
1088 1 0.623141 0.219089 0
1060 1 0.65662 0.18297 0
1089 1 0.640569 0.201933 0
1090 1 0.664667 0.206882 0
1119 1 0.646618 0.2262 0
1091 1 0.681667 0.188711 0
1092 1 0.688813 0.214465 0
1093 1 0.706853 0.195703 0
1123 1 0.713662 0.219989 0
1095 1 0.750056 0.184026 0
1094 1 0.731351 0.202225 0
1096 1 0.758047 0.207605 0
1125 1 0.738119 0.225904 0
1099 1 0.808018 0.183413 0
1127 1 0.782269 0.214023 0
1097 1 0.782951 0.188318 0
1098 1 0.807193 0.219038 0
1100 1 0.824724 0.201827 0
1101 1 0.851321 0.200808 0
1074 1 0.898884 0.182883 0
1102 1 0.873291 0.213923 0
1103 1 0.873845 0.188998 0
1133 1 0.900286 0.222287 0
1104 1 0.916924 0.203388 0
1105 1 0.942374 0.213334 0
1076 1 0.940156 0.189745 0
1078 1 0.96566 0.184233 0
1107 1 0.966013 0.219585 0
1109 1 0.98363 0.202917 0
1110 1 0.991191 0.225985 0
1111 1 0.514959 0.238812 0
1113 1 0.538893 0.244153 0
1112 1 0.521115 0.263412 0
1143 1 0.545093 0.268373 0
1114 1 0.563499 0.251057 0
1115 1 0.579931 0.231817 0
1116 1 0.58721 0.25668 0
1117 1 0.60381 0.23765 0
1118 1 0.62889 0.243424 0
1147 1 0.611905 0.262135 0
1149 1 0.636624 0.267296 0
1121 1 0.671449 0.231948 0
1120 1 0.654188 0.24917 0
1151 1 0.677952 0.255408 0
1122 1 0.695662 0.238548 0
1124 1 0.720425 0.244397 0
1153 1 0.703403 0.262638 0
1154 1 0.727812 0.268421 0
1126 1 0.762416 0.232153 0
1155 1 0.744745 0.249952 0
1157 1 0.769698 0.256128 0
1128 1 0.788821 0.23822 0
1159 1 0.814037 0.244495 0
1158 1 0.795061 0.262473 0
1129 1 0.831758 0.225936 0
1160 1 0.81993 0.269499 0
1131 1 0.857318 0.233825 0
1130 1 0.837789 0.250952 0
1161 1 0.862385 0.25788 0
1132 1 0.880951 0.239135 0
1163 1 0.88572 0.264444 0
1134 1 0.90459 0.247156 0
1165 1 0.910999 0.272638 0
1135 1 0.923768 0.230545 0
1106 1 0.947276 0.23756 0