ITEM: TIMESTEP
18000
ITEM: NUMBER OF ATOMS
1800
ITEM: BOX BOUNDS pp pp pp
6.4505589261794682e-01 1.6435494410738187e+02
6.4505589261794682e-01 1.6435494410738187e+02
0.0000000000000000e+00 5.5000000000000000e+00
ITEM: ATOMS id type xs ys zs
2 1 0.0183555 0.0112488 0
3 1 0.0428423 0.00471938 0
33 1 0.0358404 0.0288069 0
31 1 0.0126193 0.0364204 0
4 1 0.0593185 0.0229683 0
6 1 0.0835168 0.0156705 0
35 1 0.0776537 0.0399516 0
8 1 0.106625 0.00953307 0
37 1 0.101693 0.0328968 0
9 1 0.129531 0.00138783 0
39 1 0.125966 0.0263367 0
10 1 0.148839 0.0156793 0
41 1 0.170233 0.027569 0
12 1 0.171187 0.0028328 0
40 1 0.146229 0.0430815 0
43 1 0.197255 0.0400806 0
14 1 0.191196 0.0163481 0
45 1 0.218691 0.0277057 0
15 1 0.213509 0.00491468 0
16 1 0.25118 0.0137317 0
46 1 0.243556 0.0376078 0
47 1 0.269033 0.0291154 0
18 1 0.2753 0.00470151 0
49 1 0.292711 0.0215775 0
50 1 0.31114 0.0388553 0
20 1 0.317121 0.0155193 0
48 1 0.287627 0.0451257 0
51 1 0.335829 0.0328172 0
22 1 0.359204 0.0258396 0
21 1 0.341821 0.00872842 0
23 1 0.365315 0.00189874 0
53 1 0.377146 0.0440412 0
24 1 0.382747 0.0202466 0
55 1 0.401223 0.0378447 0
25 1 0.405911 0.0126805 0
26 1 0.425327 0.0308529 0
28 1 0.448976 0.0251761 0
27 1 0.429457 0.00653559 0
29 1 0.475555 0.0212293 0
900 1 0.49817 0.00379911 0
449 1 0.463158 0.475471 0
32 1 0.0301012 0.0533882 0
62 1 0.0248308 0.0778596 0
61 1 0.00628746 0.0598137 0
990 1 0.0015511 0.0836881 0
63 1 0.0477561 0.0703107 0
34 1 0.0533926 0.0468613 0
65 1 0.072336 0.0647561 0
66 1 0.0790181 0.088796 0
36 1 0.0965283 0.057611 0
38 1 0.120787 0.0501006 0
67 1 0.103715 0.0822318 0
69 1 0.128522 0.0747399 0
71 1 0.154054 0.0664447 0
42 1 0.174781 0.0521303 0
72 1 0.177071 0.0772806 0
44 1 0.220534 0.052585 0
73 1 0.198531 0.0650674 0
74 1 0.222168 0.0769836 0
103 1 0.201559 0.0892982 0
75 1 0.242246 0.0629715 0
77 1 0.263682 0.0524048 0
76 1 0.245079 0.0863882 0
78 1 0.281423 0.0690493 0
79 1 0.304967 0.0632045 0
109 1 0.29792 0.0870043 0
81 1 0.32934 0.0571838 0
52 1 0.353056 0.0502221 0
82 1 0.346545 0.0745076 0
80 1 0.321824 0.0809359 0
83 1 0.370759 0.0687319 0
54 1 0.3951 0.0620094 0
84 1 0.387947 0.0852945 0
57 1 0.44345 0.0488198 0
56 1 0.418759 0.0551171 0
85 1 0.412148 0.0789166 0
87 1 0.438797 0.0749343 0
59 1 0.481038 0.0456448 0
58 1 0.462659 0.0638848 0
88 1 0.469734 0.0873478 0
89 1 0.487818 0.070187 0
92 1 0.0190814 0.124221 0
93 1 0.027371 0.101373 0
64 1 0.053595 0.0943109 0
94 1 0.0478769 0.118189 0
95 1 0.0720648 0.111638 0
125 1 0.0642329 0.136448 0
96 1 0.0892968 0.129988 0
68 1 0.12165 0.0991378 0
97 1 0.0976522 0.105828 0
98 1 0.114041 0.123881 0
70 1 0.146012 0.0929534 0
99 1 0.13788 0.118469 0
100 1 0.160551 0.112681 0
131 1 0.179445 0.128268 0
101 1 0.181598 0.102019 0
102 1 0.200896 0.1165 0
104 1 0.223252 0.126605 0
105 1 0.222004 0.101487 0
106 1 0.243888 0.110573 0
137 1 0.267052 0.117778 0
135 1 0.245808 0.134706 0
107 1 0.270322 0.0923667 0
108 1 0.290629 0.109657 0
139 1 0.306981 0.128359 0
110 1 0.315097 0.104673 0
111 1 0.338484 0.0980617 0
141 1 0.348008 0.120463 0
113 1 0.36386 0.0942845 0
112 1 0.386603 0.10878 0
114 1 0.394773 0.134134 0
143 1 0.371572 0.127203 0
115 1 0.410681 0.115872 0
86 1 0.427708 0.0983408 0
116 1 0.434947 0.123091 0
117 1 0.452109 0.105817 0
118 1 0.458941 0.129811 0
90 1 0.494165 0.0944427 0
119 1 0.476255 0.111412 0
123 1 0.0385535 0.141405 0
122 1 0.0145846 0.147884 0
153 1 0.0322004 0.165192 0
152 1 0.00888929 0.17275 0
124 1 0.0564842 0.159562 0
126 1 0.0814038 0.153707 0
155 1 0.0747775 0.177585 0
129 1 0.131893 0.141832 0
127 1 0.107154 0.14803 0
128 1 0.124164 0.166315 0
157 1 0.0984935 0.171225 0
130 1 0.157138 0.137496 0
159 1 0.147913 0.160004 0
161 1 0.165953 0.177158 0
132 1 0.178055 0.15441 0
133 1 0.201412 0.141642 0
163 1 0.206249 0.167309 0
134 1 0.225346 0.151184 0
164 1 0.230612 0.175232 0
136 1 0.268041 0.14207 0
165 1 0.248929 0.159026 0
167 1 0.272144 0.165825 0
138 1 0.291252 0.147959 0
169 1 0.31404 0.155287 0
168 1 0.295586 0.171938 0
140 1 0.330268 0.138041 0
142 1 0.354097 0.145022 0
171 1 0.336902 0.162576 0
172 1 0.359255 0.169641 0
170 1 0.318094 0.179547 0
144 1 0.401608 0.157335 0
173 1 0.377477 0.151632 0
174 1 0.383362 0.175646 0
145 1 0.418307 0.140089 0
146 1 0.424345 0.165428 0
147 1 0.442089 0.147813 0
177 1 0.447393 0.172496 0
149 1 0.483307 0.136457 0
148 1 0.465201 0.154935 0
150 1 0.489219 0.160976 0
179 1 0.471567 0.178432 0
183 1 0.0254229 0.19058 0
182 1 0.0188303 0.215078 0
181 1 0.00164712 0.197517 0
184 1 0.0434259 0.208524 0
154 1 0.0498019 0.183732 0
185 1 0.0669382 0.201412 0
186 1 0.0853289 0.220241 0
215 1 0.0611454 0.225699 0
156 1 0.0912799 0.195823 0
158 1 0.115759 0.189277 0
187 1 0.108703 0.212925 0
189 1 0.133333 0.207115 0
160 1 0.142162 0.18381 0
191 1 0.158676 0.201447 0
190 1 0.15004 0.224358 0
221 1 0.174732 0.220836 0
162 1 0.188736 0.185114 0
193 1 0.212632 0.192277 0
192 1 0.195191 0.20905 0
194 1 0.218027 0.216738 0
166 1 0.253665 0.183455 0
195 1 0.236168 0.200281 0
196 1 0.259424 0.207867 0
225 1 0.241506 0.225061 0
197 1 0.277164 0.18997 0
199 1 0.300364 0.196643 0
198 1 0.28282 0.214076 0
229 1 0.306823 0.220453 0
201 1 0.341779 0.186718 0
200 1 0.324121 0.203712 0
202 1 0.34749 0.209999 0
175 1 0.406715 0.182624 0
203 1 0.365862 0.193482 0
233 1 0.371022 0.217506 0
204 1 0.389269 0.200282 0
235 1 0.395226 0.224411 0
205 1 0.412541 0.207715 0
176 1 0.430097 0.190131 0
207 1 0.436148 0.213752 0
178 1 0.454603 0.196327 0
208 1 0.460417 0.220333 0
180 1 0.495629 0.185752 0
209 1 0.478273 0.202569 0
212 1 0.0133214 0.239224 0
213 1 0.0369432 0.232906 0
243 1 0.0306696 0.256885 0
241 1 0.00741506 0.263502 0
216 1 0.077452 0.243828 0
214 1 0.0538633 0.250289 0
245 1 0.0716874 0.268451 0
188 1 0.125083 0.231429 0
217 1 0.101506 0.238145 0
218 1 0.118145 0.256093 0
247 1 0.0948222 0.263497 0
249 1 0.135567 0.27294 0
219 1 0.141542 0.249476 0
220 1 0.164656 0.243152 0
251 1 0.16343 0.267014 0
222 1 0.185397 0.253608 0
223 1 0.199458 0.233325 0
224 1 0.222838 0.241174 0
253 1 0.208126 0.260602 0
227 1 0.265149 0.231848 0
226 1 0.247624 0.249107 0
257 1 0.271938 0.255743 0
255 1 0.23056 0.267475 0
228 1 0.289428 0.238341 0
230 1 0.312721 0.245643 0
259 1 0.295311 0.262763 0
231 1 0.330052 0.22763 0
232 1 0.353102 0.234674 0
261 1 0.336132 0.25245 0
263 1 0.359704 0.258398 0
260 1 0.319043 0.269754 0
234 1 0.377149 0.241353 0
265 1 0.400791 0.248312 0
264 1 0.383537 0.265265 0
206 1 0.419305 0.231355 0
237 1 0.443196 0.238144 0
236 1 0.424818 0.255823 0
238 1 0.448118 0.262389 0
210 1 0.484355 0.227248 0
239 1 0.466544 0.245142 0
240 1 0.490313 0.25151 0
269 1 0.472034 0.268602 0
242 1 0.024728 0.281193 0
273 1 0.0429844 0.299245 0
271 1 0.0188628 0.304907 0
1170 1 0.00128605 0.287558 0
244 1 0.0485063 0.275613 0
246 1 0.0893949 0.287283 0
275 1 0.0660114 0.293471 0
276 1 0.0840527 0.310401 0
274 1 0.0609241 0.320623 0
248 1 0.112598 0.281708 0
277 1 0.108288 0.30778 0
279 1 0.130906 0.297692 0
250 1 0.152477 0.288487 0
280 1 0.154736 0.311987 0
281 1 0.17423 0.296642 0
252 1 0.190059 0.278189 0
254 1 0.213458 0.285659 0
283 1 0.19685 0.303418 0
284 1 0.219621 0.309977 0
256 1 0.253952 0.27401 0
285 1 0.237645 0.292446 0
287 1 0.260976 0.299463 0
286 1 0.243825 0.317215 0
258 1 0.2775 0.280478 0
288 1 0.284688 0.305831 0
289 1 0.3012 0.287574 0
290 1 0.308728 0.311335 0
262 1 0.342767 0.276134 0
291 1 0.324868 0.293467 0
292 1 0.347971 0.300041 0
266 1 0.406732 0.272636 0
293 1 0.366243 0.283126 0
295 1 0.389529 0.289403 0
296 1 0.394841 0.313186 0
294 1 0.371081 0.307431 0
267 1 0.430564 0.279925 0
297 1 0.413327 0.297047 0
298 1 0.436097 0.305365 0
268 1 0.4534 0.286774 0
1141 1 0.495789 0.275534 0
270 1 0.478043 0.292449 0
299 1 0.460204 0.311114 0
300 1 0.485111 0.316049 0
272 1 0.0345061 0.321815 0
301 1 0.0139913 0.335626 0
302 1 0.0212436 0.36093 0
303 1 0.0409582 0.344522 0
305 1 0.0833561 0.333952 0
304 1 0.0661509 0.350917 0
306 1 0.0909106 0.356995 0
278 1 0.130682 0.321902 0
307 1 0.109838 0.335421 0
308 1 0.115803 0.362397 0
309 1 0.134647 0.345662 0
311 1 0.158297 0.335511 0
310 1 0.161909 0.359222 0
282 1 0.178173 0.320293 0
312 1 0.182412 0.344792 0
313 1 0.202212 0.327836 0
314 1 0.208772 0.350938 0
315 1 0.226122 0.333705 0
317 1 0.267806 0.32334 0
316 1 0.250032 0.340828 0
345 1 0.231784 0.357887 0
347 1 0.258087 0.36375 0
318 1 0.273909 0.346715 0
319 1 0.293026 0.330849 0
349 1 0.296583 0.356233 0
320 1 0.320909 0.352513 0
321 1 0.328077 0.328627 0
322 1 0.345124 0.347549 0
323 1 0.352516 0.324011 0
324 1 0.370087 0.341221 0
325 1 0.395758 0.337262 0
355 1 0.386645 0.359598 0
326 1 0.415442 0.351654 0
327 1 0.417664 0.323582 0
328 1 0.441986 0.329104 0
359 1 0.445025 0.353635 0
329 1 0.465859 0.334841 0
1201 1 0.489534 0.340114 0
330 1 0.470189 0.35837 0
331 1 0.00338768 0.378879 0
332 1 0.0284717 0.385114 0
363 1 0.03384 0.410351 0
361 1 0.0101253 0.403012 0
333 1 0.0474024 0.368091 0
335 1 0.0716902 0.374983 0
334 1 0.0525608 0.392054 0
336 1 0.0762877 0.399093 0
337 1 0.0968533 0.38129 0
338 1 0.121416 0.387289 0
367 1 0.100373 0.405925 0
339 1 0.139702 0.369722 0
341 1 0.171166 0.3826 0
340 1 0.148251 0.393642 0
371 1 0.17214 0.407252 0
343 1 0.190703 0.367839 0
342 1 0.194399 0.393295 0
344 1 0.213932 0.37756 0
375 1 0.229361 0.400142 0
346 1 0.240754 0.379963 0
377 1 0.264037 0.387779 0
348 1 0.288201 0.380881 0
350 1 0.312565 0.376279 0
379 1 0.305337 0.400165 0
378 1 0.280349 0.405385 0
353 1 0.362123 0.365688 0
351 1 0.337609 0.371763 0
381 1 0.330402 0.39506 0
352 1 0.35506 0.389814 0
354 1 0.379356 0.384164 0
385 1 0.396537 0.402121 0
356 1 0.403882 0.37793 0
383 1 0.372303 0.407605 0
357 1 0.428451 0.372763 0
358 1 0.445875 0.38894 0
387 1 0.420446 0.39695 0
1231 1 0.494185 0.364459 0
1261 1 0.483671 0.404902 0
360 1 0.473124 0.38287 0
1232 1 0.499962 0.387691 0
362 1 0.0149289 0.427176 0
393 1 0.0207479 0.450908 0
364 1 0.0394324 0.433908 0
365 1 0.0583443 0.416391 0
366 1 0.082511 0.4234 0
395 1 0.0639865 0.440381 0
397 1 0.0889234 0.447978 0
369 1 0.124753 0.412339 0
368 1 0.107712 0.431301 0
399 1 0.131444 0.438826 0
370 1 0.148282 0.418054 0
401 1 0.167979 0.432349 0
400 1 0.153027 0.450576 0
402 1 0.184507 0.451745 0
372 1 0.189783 0.424429 0
373 1 0.209397 0.41227 0
403 1 0.209907 0.437743 0
376 1 0.255036 0.411282 0
374 1 0.230377 0.423935 0
404 1 0.23107 0.448827 0
405 1 0.251154 0.435688 0
407 1 0.273625 0.428935 0
408 1 0.290042 0.448082 0
409 1 0.297562 0.424399 0
410 1 0.313971 0.442798 0
382 1 0.347043 0.413134 0
380 1 0.321814 0.418769 0
411 1 0.3389 0.436582 0
413 1 0.363884 0.431056 0
384 1 0.388206 0.426002 0
414 1 0.379485 0.449582 0
415 1 0.403967 0.444331 0
386 1 0.412923 0.420626 0
388 1 0.436702 0.415465 0
417 1 0.428673 0.439295 0
419 1 0.452162 0.434277 0
389 1 0.460024 0.408928 0
390 1 0.475734 0.427785 0
420 1 0.470014 0.451816 0
1291 1 0.495107 0.44345 0
422 1 0.00419329 0.468223 0
423 1 0.028865 0.474318 0
453 1 0.0119782 0.49139 0
424 1 0.0367823 0.49889 0
394 1 0.0469836 0.457807 0
396 1 0.0703409 0.464758 0
425 1 0.0540128 0.482304 0
426 1 0.0779342 0.488934 0
398 1 0.112966 0.456278 0
457 1 0.101 0.498634 0
427 1 0.093956 0.471449 0
428 1 0.117728 0.481042 0
429 1 0.135197 0.465238 0
430 1 0.144367 0.488413 0
431 1 0.165026 0.47186 0
461 1 0.170733 0.495888 0
432 1 0.189665 0.47867 0
433 1 0.20939 0.462907 0
434 1 0.213099 0.488125 0
406 1 0.266297 0.454125 0
465 1 0.238205 0.496839 0
435 1 0.232322 0.472618 0
436 1 0.257004 0.478727 0
437 1 0.281743 0.473048 0
438 1 0.298659 0.491675 0
439 1 0.306127 0.467321 0
467 1 0.274369 0.497455 0
412 1 0.354971 0.45555 0
440 1 0.322801 0.48568 0
441 1 0.330314 0.461738 0
442 1 0.347202 0.47913 0
443 1 0.372256 0.473675 0
445 1 0.396046 0.468217 0
444 1 0.389495 0.492174 0
473 1 0.36512 0.497104 0
418 1 0.445222 0.45841 0
447 1 0.437346 0.481809 0
416 1 0.420719 0.462808 0
446 1 0.413529 0.486072 0
448 1 0.45664 0.498787 0
1321 1 0.488363 0.467793 0
450 1 0.481965 0.491833 0
91 1 0.000495957 0.107634 0
452 1 0.0176997 0.515344 0
483 1 0.0236597 0.539336 0
454 1 0.0413626 0.522989 0
485 1 0.0647738 0.531335 0
455 1 0.0598845 0.507079 0
456 1 0.0831654 0.515493 0
487 1 0.0891359 0.539192 0
458 1 0.108424 0.52203 0
459 1 0.125451 0.50516 0
489 1 0.1308 0.529823 0
488 1 0.113403 0.546899 0
460 1 0.150717 0.512642 0
491 1 0.155741 0.536848 0
462 1 0.1751 0.51994 0
463 1 0.194448 0.503586 0
493 1 0.199874 0.527874 0
464 1 0.219642 0.512436 0
495 1 0.224345 0.536628 0
466 1 0.243893 0.520799 0
497 1 0.268136 0.528494 0
468 1 0.292164 0.516185 0
499 1 0.310852 0.534493 0
498 1 0.288052 0.542164 0
469 1 0.316584 0.510087 0
470 1 0.334571 0.528189 0
472 1 0.358329 0.521006 0
471 1 0.340121 0.502973 0
503 1 0.370816 0.542954 0
474 1 0.382957 0.517122 0
475 1 0.407486 0.509578 0
476 1 0.403122 0.533183 0
507 1 0.427245 0.529706 0
477 1 0.431829 0.506143 0
478 1 0.451692 0.522142 0
480 1 0.470349 0.540198 0
479 1 0.475476 0.515287 0
1381 1 0.493759 0.531096 0
482 1 0.00358846 0.555584 0
513 1 0.0264815 0.564016 0
511 1 0.00594472 0.579643 0
484 1 0.045643 0.54769 0
486 1 0.0707088 0.556261 0
515 1 0.0739623 0.581346 0
514 1 0.0489906 0.574354 0
516 1 0.100091 0.587909 0
517 1 0.0935773 0.564563 0
519 1 0.118056 0.571208 0
490 1 0.137905 0.553928 0
520 1 0.143698 0.578267 0
521 1 0.161963 0.560873 0
522 1 0.167988 0.58612 0
492 1 0.181455 0.544091 0
523 1 0.186178 0.569244 0
494 1 0.20497 0.552782 0
524 1 0.209814 0.577438 0
496 1 0.247757 0.545713 0
525 1 0.228979 0.562295 0
526 1 0.250617 0.573342 0
555 1 0.231983 0.588182 0
527 1 0.268861 0.557633 0
529 1 0.291305 0.56617 0
528 1 0.273173 0.582602 0
559 1 0.29668 0.59065 0
500 1 0.314731 0.573688 0
501 1 0.327551 0.553103 0
531 1 0.336919 0.581222 0
502 1 0.351111 0.561652 0
533 1 0.359278 0.588638 0
505 1 0.392402 0.554732 0
504 1 0.374149 0.570295 0
535 1 0.399349 0.577783 0
506 1 0.417497 0.553121 0
508 1 0.436978 0.567069 0
537 1 0.422265 0.585473 0
509 1 0.446818 0.545358 0
510 1 0.48931 0.555014 0
539 1 0.461229 0.568991 0
540 1 0.483456 0.577992 0
512 1 0.0291121 0.588251 0
541 1 0.00835085 0.604738 0
542 1 0.0318506 0.614315 0
571 1 0.0113347 0.629932 0
543 1 0.0527337 0.597996 0
544 1 0.0546627 0.625984 0
545 1 0.0813774 0.604592 0
546 1 0.0909372 0.628591 0
518 1 0.124567 0.594742 0
547 1 0.10713 0.611113 0
548 1 0.131118 0.619347 0
577 1 0.113981 0.635945 0
549 1 0.148777 0.60184 0
550 1 0.154583 0.627808 0
551 1 0.172263 0.61117 0
581 1 0.177257 0.637816 0
553 1 0.190971 0.593527 0
552 1 0.195657 0.620994 0
554 1 0.213351 0.603867 0
583 1 0.218415 0.629898 0
556 1 0.236423 0.613897 0
557 1 0.25426 0.597786 0
587 1 0.259566 0.622515 0
558 1 0.278255 0.606856 0
560 1 0.301953 0.614723 0
589 1 0.283884 0.631816 0
530 1 0.320155 0.598965 0
532 1 0.343043 0.606401 0
561 1 0.324581 0.623706 0
562 1 0.347732 0.629583 0
534 1 0.382268 0.595478 0
563 1 0.367007 0.61375 0
565 1 0.389739 0.621073 0
536 1 0.405559 0.603144 0
538 1 0.446359 0.590467 0
566 1 0.413464 0.627737 0
567 1 0.429584 0.609273 0
597 1 0.436291 0.634021 0
568 1 0.453631 0.615069 0
569 1 0.469826 0.597135 0
570 1 0.481247 0.618572 0
1441 1 0.4973 0.597685 0
573 1 0.0332785 0.640889 0
572 1 0.0138464 0.655935 0
603 1 0.0348657 0.669882 0
602 1 0.0140782 0.680821 0
575 1 0.0736966 0.643449 0
574 1 0.0539027 0.655921 0
605 1 0.0775162 0.667894 0
604 1 0.0577821 0.681106 0
576 1 0.0971366 0.652639 0
578 1 0.119657 0.661334 0
607 1 0.0999237 0.677442 0
579 1 0.137625 0.645253 0
609 1 0.141678 0.67055 0
580 1 0.15968 0.65445 0
610 1 0.164488 0.678752 0
611 1 0.182802 0.663034 0
582 1 0.200362 0.646916 0
584 1 0.223495 0.655344 0
613 1 0.205638 0.671527 0
585 1 0.241405 0.63894 0
614 1 0.228353 0.680324 0
586 1 0.264496 0.64709 0
615 1 0.245969 0.663001 0
617 1 0.269101 0.670985 0
590 1 0.306957 0.639493 0
588 1 0.288655 0.655875 0
619 1 0.31154 0.664039 0
618 1 0.293294 0.680084 0
591 1 0.330463 0.647128 0
593 1 0.353901 0.65381 0
621 1 0.336076 0.67025 0
592 1 0.359091 0.677677 0
564 1 0.372337 0.638176 0
595 1 0.395992 0.645388 0
594 1 0.377773 0.661815 0
625 1 0.401791 0.670766 0
596 1 0.41963 0.652151 0
598 1 0.443632 0.659563 0
627 1 0.424808 0.675457 0
599 1 0.459889 0.63997 0
600 1 0.483391 0.642139 0
629 1 0.470099 0.664797 0
1501 1 0.497392 0.660906 0
633 1 0.0383822 0.695055 0
632 1 0.0160831 0.705261 0
634 1 0.0421888 0.721361 0
606 1 0.0805391 0.692191 0
635 1 0.0613653 0.706713 0
636 1 0.0836743 0.716798 0
608 1 0.123074 0.686724 0
637 1 0.103689 0.701809 0
638 1 0.12707 0.711666 0
667 1 0.107324 0.725686 0
639 1 0.146493 0.695749 0
641 1 0.169372 0.705096 0
640 1 0.150113 0.720855 0
612 1 0.187543 0.687982 0
643 1 0.210208 0.696927 0
642 1 0.192748 0.713035 0
644 1 0.21544 0.722344 0
645 1 0.233317 0.705733 0
616 1 0.25128 0.689023 0
646 1 0.257769 0.713357 0
647 1 0.27503 0.696231 0
649 1 0.299232 0.703851 0
648 1 0.28134 0.720991 0
620 1 0.317581 0.688053 0
650 1 0.32266 0.712399 0
622 1 0.340949 0.694502 0
651 1 0.347149 0.717964 0
623 1 0.383252 0.685697 0
653 1 0.364979 0.701724 0
624 1 0.388698 0.70891 0
626 1 0.409071 0.695348 0
657 1 0.435679 0.697148 0
656 1 0.423969 0.720524 0
658 1 0.453636 0.714833 0
630 1 0.487326 0.684131 0
628 1 0.460327 0.687789 0
659 1 0.47688 0.707489 0
660 1 0.492181 0.726289 0
663 1 0.0192768 0.728902 0
662 1 0.0213883 0.752133 0
691 1 0.000894822 0.765503 0
664 1 0.0451606 0.746125 0
665 1 0.0645092 0.731923 0
666 1 0.0883986 0.740972 0
695 1 0.0689169 0.755615 0
697 1 0.0918613 0.765852 0
694 1 0.0480605 0.770486 0
669 1 0.131243 0.735955 0
668 1 0.111892 0.750015 0
699 1 0.134384 0.75999 0
671 1 0.174007 0.729426 0
670 1 0.154531 0.745296 0
701 1 0.159099 0.771082 0
672 1 0.178261 0.754763 0
673 1 0.19757 0.739311 0
674 1 0.221128 0.746838 0
703 1 0.202579 0.764329 0
705 1 0.22559 0.769968 0
675 1 0.24017 0.730803 0
677 1 0.263084 0.737693 0
676 1 0.245991 0.75546 0
707 1 0.269396 0.761612 0
679 1 0.305141 0.728498 0
678 1 0.288373 0.746161 0
680 1 0.314804 0.768511 0
652 1 0.34795 0.742307 0
681 1 0.323233 0.744612 0
682 1 0.338549 0.764953 0
655 1 0.400802 0.72956 0
654 1 0.370893 0.727295 0
683 1 0.363935 0.758987 0
685 1 0.386704 0.749623 0
715 1 0.408098 0.76735 0
686 1 0.418443 0.745029 0
687 1 0.442727 0.73805 0
717 1 0.434326 0.76346 0
689 1 0.468574 0.734537 0
690 1 0.485512 0.752542 0
688 1 0.459216 0.758268 0
693 1 0.0245169 0.77595 0
692 1 0.00345429 0.789743 0
722 1 0.00628924 0.81312 0
723 1 0.0255744 0.799972 0
696 1 0.071212 0.779638 0
725 1 0.0500531 0.794301 0
726 1 0.0740933 0.804843 0
698 1 0.114285 0.775455 0
727 1 0.0954429 0.790979 0
728 1 0.118582 0.800544 0
757 1 0.0977547 0.817124 0
700 1 0.13795 0.783877 0
729 1 0.142611 0.806789 0
731 1 0.163775 0.795845 0
732 1 0.16316 0.819927 0
702 1 0.184423 0.782649 0
704 1 0.209161 0.79617 0
733 1 0.185698 0.807729 0
735 1 0.233516 0.792479 0
706 1 0.256355 0.782692 0
736 1 0.229703 0.816521 0
737 1 0.256429 0.806769 0
709 1 0.291039 0.77266 0
708 1 0.28 0.796556 0
710 1 0.306264 0.792164 0
739 1 0.298345 0.816468 0
713 1 0.355663 0.782031 0
711 1 0.331612 0.788317 0
712 1 0.349697 0.80521 0
741 1 0.323809 0.81131 0
684 1 0.381821 0.774422 0
714 1 0.374399 0.797669 0
745 1 0.391522 0.816427 0
716 1 0.399749 0.790857 0
718 1 0.44991 0.782518 0
746 1 0.414976 0.811001 0
747 1 0.424475 0.786577 0
748 1 0.440109 0.805377 0
719 1 0.477025 0.776998 0
720 1 0.488805 0.799516 0
749 1 0.465072 0.800861 0
752 1 0.00924195 0.858731 0
753 1 0.00990989 0.836261 0
783 1 0.0311945 0.848528 0
724 1 0.0312644 0.82325 0
755 1 0.0755614 0.829956 0
754 1 0.0523477 0.837076 0
785 1 0.0709498 0.855225 0
756 1 0.0936915 0.84562 0
759 1 0.116502 0.835895 0
758 1 0.111665 0.862163 0
760 1 0.135105 0.853788 0
730 1 0.14008 0.830341 0
761 1 0.159354 0.844561 0
762 1 0.178087 0.85977 0
734 1 0.206224 0.823187 0
763 1 0.182673 0.833759 0
764 1 0.201601 0.848988 0
765 1 0.224273 0.840191 0
767 1 0.249154 0.832328 0
766 1 0.244151 0.856799 0
768 1 0.2686 0.848566 0
738 1 0.274321 0.823929 0
769 1 0.292264 0.841511 0
770 1 0.310728 0.85887 0
740 1 0.317432 0.834936 0
742 1 0.342462 0.828583 0
771 1 0.33506 0.852339 0
773 1 0.359908 0.845411 0
743 1 0.367797 0.821819 0
744 1 0.384321 0.839802 0
775 1 0.407691 0.835588 0
774 1 0.376487 0.86409 0
776 1 0.401253 0.858699 0
777 1 0.43135 0.828659 0
778 1 0.433298 0.853988 0
779 1 0.453113 0.837624 0
750 1 0.473611 0.824945 0
1621 1 0.49688 0.823012 0
809 1 0.45916 0.860861 0
1771 1 0.49262 0.980176 0
782 1 0.00423565 0.882774 0
813 1 0.02682 0.874038 0
812 1 0.0222739 0.899556 0
815 1 0.0448014 0.890967 0
784 1 0.0487873 0.864071 0
786 1 0.0665926 0.880068 0
817 1 0.0859465 0.896275 0
816 1 0.0632641 0.906152 0
787 1 0.0894611 0.870789 0
788 1 0.107853 0.886688 0
819 1 0.12651 0.902677 0
789 1 0.130593 0.878103 0
791 1 0.154702 0.868337 0
790 1 0.149367 0.893259 0
821 1 0.166675 0.909128 0
792 1 0.173259 0.884031 0
795 1 0.220511 0.864672 0
793 1 0.197133 0.874124 0
823 1 0.191365 0.899149 0
794 1 0.215076 0.890109 0
797 1 0.262191 0.874459 0
796 1 0.238093 0.881013 0
825 1 0.231912 0.907209 0
827 1 0.25532 0.898976 0
799 1 0.286583 0.865935 0
798 1 0.279882 0.890989 0
800 1 0.304213 0.88295 0
772 1 0.352851 0.870253 0
801 1 0.328524 0.876196 0
831 1 0.321888 0.900918 0
802 1 0.345562 0.893558 0
803 1 0.36939 0.887735 0
805 1 0.393728 0.882788 0
804 1 0.387601 0.905398 0
806 1 0.41209 0.898806 0
807 1 0.418108 0.875281 0
808 1 0.442876 0.878504 0
839 1 0.449894 0.902876 0
780 1 0.483129 0.866426 0
1681 1 0.490466 0.890767 0
810 1 0.466748 0.885187 0
840 1 0.473929 0.909354 0
842 1 0.0115478 0.946952 0
843 1 0.0171457 0.923749 0
844 1 0.034985 0.94024 0
814 1 0.0401461 0.91549 0
845 1 0.0581641 0.930952 0
846 1 0.0769257 0.947576 0
847 1 0.0813397 0.921824 0
818 1 0.103834 0.911726 0
848 1 0.099167 0.93742 0
849 1 0.122509 0.927569 0
879 1 0.117385 0.954074 0
820 1 0.145001 0.918442 0
850 1 0.140193 0.942578 0
851 1 0.162677 0.934328 0
852 1 0.179013 0.951922 0
824 1 0.20892 0.915458 0
822 1 0.184947 0.924081 0
853 1 0.203577 0.94101 0
855 1 0.226332 0.93274 0
826 1 0.249869 0.924201 0
856 1 0.245097 0.948624 0
857 1 0.26855 0.940014 0
829 1 0.297547 0.907678 0
828 1 0.273757 0.915525 0
859 1 0.292013 0.931877 0
860 1 0.311102 0.949336 0
830 1 0.315719 0.924641 0
832 1 0.339453 0.918288 0
861 1 0.333776 0.943006 0
863 1 0.356423 0.935755 0
833 1 0.363063 0.912171 0
835 1 0.405214 0.922513 0
834 1 0.381029 0.929103 0
864 1 0.375491 0.953305 0
865 1 0.399348 0.946266 0
837 1 0.429823 0.916066 0
836 1 0.423257 0.939681 0
838 1 0.451964 0.928744 0
870 1 0.465218 0.95062 0
869 1 0.480594 0.932513 0
1711 1 0.498091 0.914569 0
1741 1 0.487629 0.95639 0
1 1 0.000274867 0.994023 0
872 1 0.023713 0.987776 0
873 1 0.0304562 0.964414 0
871 1 0.0065571 0.97029 0
874 1 0.0475155 0.980881 0
875 1 0.0534054 0.955481 0
876 1 0.0708264 0.973759 0
7 1 0.089882 0.990813 0
5 1 0.0663961 0.998112 0
877 1 0.0942324 0.964465 0
878 1 0.112496 0.983229 0
880 1 0.133799 0.972372 0
11 1 0.152457 0.986943 0
881 1 0.155947 0.961504 0
882 1 0.174236 0.976108 0
854 1 0.221505 0.95629 0
883 1 0.198189 0.966475 0
13 1 0.19327 0.991106 0
884 1 0.217612 0.9815 0
885 1 0.239815 0.972452 0
886 1 0.235191 0.996227 0
17 1 0.257497 0.988525 0
887 1 0.263025 0.964925 0
19 1 0.300246 0.997885 0
858 1 0.287467 0.956565 0
888 1 0.281533 0.981207 0
889 1 0.305111 0.973172 0
862 1 0.351351 0.960449 0
890 1 0.322675 0.991544 0
891 1 0.328659 0.968023 0
892 1 0.346956 0.985329 0
893 1 0.370409 0.976441 0
895 1 0.394125 0.970202 0
894 1 0.388602 0.994885 0
867 1 0.441785 0.955817 0
896 1 0.412718 0.987317 0
866 1 0.418088 0.96332 0
898 1 0.452437 0.999975 0
897 1 0.43699 0.980182 0
899 1 0.475659 0.996492 0
868 1 0.462069 0.974721 0
902 1 0.543559 0.0172837 0
931 1 0.524088 0.0353347 0
901 1 0.52109 0.0101291 0
933 1 0.547869 0.0424082 0
904 1 0.567251 0.0241526 0
906 1 0.585458 0.0070068 0
30 1 0.50048 0.0283984 0
935 1 0.590391 0.0308134 0
908 1 0.609523 0.0132205 0
937 1 0.613662 0.0378524 0
939 1 0.633005 0.0207742 0
910 1 0.651626 0.00371354 0
941 1 0.656477 0.0275436 0
912 1 0.675564 0.011323 0
942 1 0.679517 0.0350407 0
943 1 0.699115 0.0179885 0
914 1 0.718277 0.000763192 0
945 1 0.724721 0.0237038 0
944 1 0.703012 0.0415707 0
916 1 0.756463 0.00145547 0
947 1 0.751095 0.0275919 0
948 1 0.773492 0.0442062 0
918 1 0.775745 0.0194421 0
919 1 0.80035 0.0111954 0
949 1 0.796961 0.0348094 0
951 1 0.820576 0.028616 0
920 1 0.823726 0.00336421 0
922 1 0.84328 0.0200856 0
953 1 0.862834 0.0388812 0
923 1 0.866382 0.0138324 0
924 1 0.890573 0.00790519 0
955 1 0.908034 0.0239002 0
954 1 0.886694 0.0330831 0
421 1 0.98055 0.460847 0
926 1 0.931046 0.0144805 0
928 1 0.954217 0.00850519 0
957 1 0.947099 0.0326062 0
930 1 0.994667 0.0183901 0
959 1 0.971868 0.0255833 0
929 1 0.977278 0.000920223 0
960 1 0.988875 0.042007 0
932 1 0.530458 0.0598335 0
962 1 0.536612 0.0835479 0
961 1 0.512247 0.0770122 0
60 1 0.505654 0.0527143 0
963 1 0.554297 0.0663468 0
934 1 0.57227 0.0492574 0
965 1 0.578138 0.0742537 0
936 1 0.595302 0.0554529 0
966 1 0.601092 0.0803884 0
967 1 0.61842 0.0629113 0
968 1 0.624033 0.0878553 0
938 1 0.637281 0.0451382 0
969 1 0.642115 0.0695302 0
940 1 0.661236 0.0524094 0
970 1 0.665552 0.0766242 0
971 1 0.684325 0.0586348 0
972 1 0.689178 0.0825416 0
973 1 0.706901 0.0653209 0
974 1 0.729104 0.0712729 0
975 1 0.728184 0.0474046 0
976 1 0.750419 0.0795157 0
946 1 0.75185 0.0540991 0
977 1 0.771907 0.0688283 0
950 1 0.816494 0.0526318 0
979 1 0.794068 0.0604182 0
980 1 0.811434 0.0780848 0
978 1 0.78788 0.0865561 0
981 1 0.835419 0.0707646 0
952 1 0.839679 0.0452734 0
982 1 0.852461 0.0882908 0
983 1 0.858378 0.0635461 0
985 1 0.884099 0.0571853 0
984 1 0.875733 0.080885 0
986 1 0.904498 0.0737174 0
956 1 0.909062 0.0494187 0
987 1 0.937431 0.0553415 0
1017 1 0.935222 0.0808267 0
988 1 0.95851 0.0729669 0
958 1 0.964521 0.0489586 0
989 1 0.982471 0.0659105 0
1019 1 0.978182 0.0898226 0
120 1 0.500066 0.118192 0
991 1 0.518295 0.100884 0
992 1 0.524277 0.125106 0
993 1 0.542752 0.108677 0
964 1 0.56031 0.0913315 0
1023 1 0.547482 0.133691 0
994 1 0.565655 0.116965 0
995 1 0.583907 0.0986965 0
996 1 0.589165 0.124094 0
997 1 0.607049 0.106191 0
998 1 0.630212 0.112081 0
1027 1 0.613708 0.130155 0
999 1 0.647035 0.0933807 0
1000 1 0.654108 0.118174 0
1001 1 0.671073 0.100015 0
1031 1 0.680039 0.12502 0
1002 1 0.694351 0.105519 0
1003 1 0.713459 0.0901755 0
1004 1 0.716368 0.114754 0
1005 1 0.736806 0.101606 0
1006 1 0.75852 0.12019 0
1007 1 0.765046 0.0976475 0
1035 1 0.735679 0.128233 0
1037 1 0.776731 0.13691 0
1008 1 0.783213 0.113481 0
1009 1 0.805181 0.102802 0
1039 1 0.800781 0.128888 0
1010 1 0.823534 0.120701 0
1011 1 0.828884 0.0961374 0
1012 1 0.847184 0.112836 0
1043 1 0.863441 0.130406 0
1013 1 0.870406 0.105103 0
1014 1 0.886603 0.123066 0
1015 1 0.89429 0.0965573 0
1016 1 0.909847 0.115301 0
1047 1 0.932725 0.105669 0
1049 1 0.952361 0.122221 0
1046 1 0.928867 0.130477 0
1018 1 0.954977 0.0973824 0
1020 1 0.975877 0.114231 0
121 1 0.995589 0.131623 0
1350 1 0.963717 0.478227 0
1022 1 0.530225 0.150153 0
1051 1 0.512625 0.167911 0
1053 1 0.53594 0.175269 0
1021 1 0.506993 0.143478 0
1024 1 0.55352 0.158675 0
1025 1 0.572105 0.141611 0
1055 1 0.577535 0.165761 0
1026 1 0.595826 0.148331 0
1028 1 0.619447 0.15453 0
1057 1 0.601347 0.172502 0
1058 1 0.625397 0.178771 0
1029 1 0.637331 0.136512 0
1059 1 0.643119 0.160363 0
1030 1 0.661781 0.141951 0
1061 1 0.666022 0.166993 0
1033 1 0.707058 0.137513 0
1032 1 0.685558 0.150473 0
1063 1 0.709326 0.16311 0
1062 1 0.688772 0.174882 0
1034 1 0.729821 0.151454 0
1036 1 0.753232 0.14418 0
1065 1 0.745006 0.170631 0
1067 1 0.769958 0.161755 0
1038 1 0.793814 0.15327 0
1069 1 0.810695 0.169974 0
1068 1 0.787756 0.178017 0
1040 1 0.817071 0.145652 0
1041 1 0.840329 0.137534 0
1071 1 0.834579 0.161935 0
1042 1 0.857904 0.154219 0
1072 1 0.851726 0.179122 0
1045 1 0.905379 0.139342 0
1044 1 0.881739 0.146928 0
1075 1 0.899424 0.16342 0
1073 1 0.875007 0.170643 0
1048 1 0.94766 0.146528 0
1077 1 0.923705 0.154527 0
1078 1 0.943062 0.170294 0
1076 1 0.918317 0.1781 0
1050 1 0.971547 0.138112 0
1079 1 0.966558 0.162283 0
151 1 0.990256 0.155868 0
1080 1 0.984492 0.179653 0
1052 1 0.519001 0.192646 0
1083 1 0.54311 0.200589 0
1082 1 0.525692 0.217422 0
1081 1 0.501821 0.210565 0
1054 1 0.559733 0.183219 0
1084 1 0.549581 0.225141 0
1056 1 0.583755 0.189539 0
1085 1 0.567225 0.207288 0
1086 1 0.590132 0.213692 0
1087 1 0.607482 0.196468 0
1089 1 0.631092 0.20276 0
1088 1 0.613753 0.220202 0
1060 1 0.648684 0.185065 0
1091 1 0.671717 0.191671 0
1090 1 0.654226 0.209315 0
1092 1 0.67905 0.215369 0
1119 1 0.637939 0.227372 0
1064 1 0.719794 0.18787 0
1093 1 0.69693 0.197516 0
1094 1 0.725814 0.213693 0
1123 1 0.702305 0.221325 0
1066 1 0.765489 0.186124 0
1095 1 0.743093 0.195809 0
1097 1 0.763279 0.210195 0
1096 1 0.747414 0.227965 0
1099 1 0.80471 0.194738 0
1098 1 0.788708 0.212759 0
1100 1 0.816007 0.218091 0
1070 1 0.828328 0.186757 0
1101 1 0.845214 0.203651 0
1131 1 0.840666 0.227511 0
1102 1 0.864252 0.219066 0
1103 1 0.869956 0.195138 0
1074 1 0.893633 0.186269 0
1104 1 0.888643 0.210135 0
1105 1 0.913052 0.201822 0
1107 1 0.936561 0.194195 0
1106 1 0.9304 0.218851 0
1108 1 0.954064 0.210939 0
1109 1 0.960876 0.186953 0
1110 1 0.97778 0.204912 0
211 1 0.99517 0.221737 0
1111 1 0.508438 0.23436 0
1113 1 0.531891 0.24195 0
1112 1 0.514123 0.259043 0
1143 1 0.538254 0.266505 0
1114 1 0.555479 0.249366 0
1115 1 0.573343 0.23196 0
1116 1 0.580144 0.255746 0
1117 1 0.597708 0.238421 0
1118 1 0.62123 0.24449 0
1147 1 0.60441 0.262568 0
1149 1 0.628448 0.26875 0
1121 1 0.661174 0.23271 0
1120 1 0.645298 0.251239 0
1151 1 0.669263 0.256971 0
1122 1 0.685455 0.238589 0
1124 1 0.709327 0.244086 0
1153 1 0.693139 0.262885 0
1154 1 0.717097 0.267878 0
1125 1 0.733155 0.248085 0
1126 1 0.757175 0.252386 0
1155 1 0.741637 0.271267 0
1127 1 0.772895 0.233449 0
1129 1 0.797152 0.236427 0
1128 1 0.781395 0.256194 0
1159 1 0.80597 0.260714 0
1130 1 0.820758 0.241926 0
1132 1 0.858596 0.243951 0
1161 1 0.831756 0.264638 0
1162 1 0.855602 0.269164 0