ITEM: TIMESTEP
98000
ITEM: NUMBER OF ATOMS
1800
ITEM: BOX BOUNDS pp pp pp
9.5449021718717120e-01 1.6404550978280190e+02
9.5449021718717120e-01 1.6404550978280190e+02
0.0000000000000000e+00 5.5000000000000000e+00
ITEM: ATOMS id type xs ys zs
2 1 0.0113109 0.012912 0
33 1 0.0268086 0.0334887 0
31 1 0.00228224 0.036493 0
3 1 0.0361956 0.0116439 0
4 1 0.0579404 0.0224597 0
5 1 0.0787186 0.00850127 0
6 1 0.0833736 0.0323627 0
8 1 0.10354 0.0191254 0
39 1 0.125142 0.0295317 0
9 1 0.122659 0.00303843 0
37 1 0.104239 0.0446057 0
10 1 0.145216 0.0146554 0
41 1 0.167206 0.024839 0
40 1 0.147615 0.0401408 0
12 1 0.18795 0.0106752 0
43 1 0.189448 0.035348 0
14 1 0.209843 0.0208704 0
44 1 0.212784 0.0450714 0
15 1 0.229248 0.00478262 0
45 1 0.233612 0.0291685 0
16 1 0.252639 0.0127144 0
46 1 0.255335 0.0381563 0
18 1 0.274888 0.0219276 0
49 1 0.298695 0.027966 0
20 1 0.317439 0.0110657 0
47 1 0.279253 0.0453105 0
51 1 0.320995 0.0379038 0
22 1 0.360039 0.0253785 0
21 1 0.342678 0.00658277 0
23 1 0.366844 0.000660603 0
24 1 0.383629 0.0197387 0
55 1 0.40806 0.0295789 0
53 1 0.388787 0.045024 0
25 1 0.423993 0.0118568 0
26 1 0.431292 0.0365575 0
27 1 0.448188 0.0183723 0
28 1 0.454433 0.04285 0
29 1 0.472157 0.0251993 0
900 1 0.488934 0.00680034 0
30 1 0.496701 0.0310562 0
898 1 0.465233 -0.000295378 0
32 1 0.0170917 0.0567843 0
62 1 0.0099075 0.0798367 0
63 1 0.0347322 0.0752889 0
34 1 0.0416279 0.0519476 0
35 1 0.0644961 0.046573 0
65 1 0.060286 0.0711121 0
36 1 0.0847174 0.0590182 0
66 1 0.0821203 0.0855207 0
38 1 0.106537 0.0703031 0
69 1 0.126446 0.0551241 0
68 1 0.129913 0.0794601 0
42 1 0.169317 0.0502272 0
71 1 0.149682 0.0649915 0
72 1 0.171625 0.0757665 0
70 1 0.150779 0.0915737 0
73 1 0.192248 0.0606219 0
74 1 0.214504 0.0708008 0
103 1 0.194566 0.0859196 0
75 1 0.236015 0.0532446 0
77 1 0.259394 0.0617868 0
76 1 0.237861 0.07841 0
107 1 0.261316 0.0865832 0
48 1 0.282575 0.0714838 0
79 1 0.306491 0.0774113 0
50 1 0.302344 0.053435 0
52 1 0.346555 0.0471483 0
81 1 0.326457 0.0620086 0
82 1 0.348763 0.0725018 0
80 1 0.329551 0.0869269 0
83 1 0.368457 0.0584345 0
54 1 0.393821 0.0703586 0
113 1 0.373044 0.0824354 0
57 1 0.436619 0.0607746 0
56 1 0.413451 0.0541668 0
85 1 0.417721 0.0778652 0
87 1 0.443584 0.0837399 0
59 1 0.478736 0.0489808 0
58 1 0.460692 0.0665463 0
89 1 0.486389 0.0738633 0
88 1 0.468543 0.0901109 0
92 1 0.0187401 0.122046 0
93 1 0.0270007 0.0991668 0
94 1 0.0432443 0.116821 0
91 1 0.00256006 0.102734 0
64 1 0.0521093 0.09417 0
95 1 0.0686175 0.113674 0
96 1 0.0861982 0.132498 0
97 1 0.0916957 0.108266 0
67 1 0.111694 0.0952237 0
99 1 0.132257 0.107994 0
98 1 0.111184 0.124263 0
129 1 0.13411 0.134184 0
100 1 0.153916 0.118542 0
101 1 0.174297 0.101374 0
131 1 0.176887 0.126213 0
102 1 0.19736 0.110848 0
104 1 0.220603 0.119486 0
105 1 0.217669 0.095517 0
133 1 0.200869 0.135169 0
106 1 0.240473 0.103158 0
135 1 0.24515 0.127888 0
137 1 0.264977 0.111538 0
136 1 0.268665 0.136311 0
78 1 0.284315 0.0952986 0
108 1 0.287819 0.119759 0
109 1 0.308223 0.101955 0
139 1 0.31096 0.128116 0
111 1 0.353004 0.0969065 0
110 1 0.330363 0.111786 0
141 1 0.352496 0.121719 0
140 1 0.333285 0.137111 0
84 1 0.398622 0.0961024 0
112 1 0.376469 0.106328 0
143 1 0.374391 0.13062 0
115 1 0.410315 0.118396 0
86 1 0.426647 0.100868 0
116 1 0.434024 0.125079 0
117 1 0.451785 0.107397 0
118 1 0.459026 0.132469 0
90 1 0.493184 0.097177 0
119 1 0.475083 0.11389 0
122 1 0.00998595 0.145436 0
153 1 0.0268344 0.163947 0
123 1 0.0349811 0.139904 0
152 1 0.00067641 0.167824 0
125 1 0.0594852 0.137218 0
124 1 0.0505569 0.159863 0
126 1 0.0757367 0.154834 0
155 1 0.0666671 0.17838 0
157 1 0.0932168 0.173886 0
127 1 0.103682 0.149634 0
128 1 0.117731 0.172573 0
159 1 0.140811 0.161048 0
130 1 0.157962 0.143823 0
161 1 0.163935 0.168889 0
132 1 0.182353 0.151505 0
163 1 0.20705 0.160576 0
162 1 0.187711 0.177423 0
134 1 0.224868 0.143455 0
164 1 0.230535 0.168984 0
165 1 0.249243 0.152571 0
166 1 0.254052 0.176711 0
167 1 0.272698 0.1605 0
138 1 0.292421 0.144498 0
169 1 0.315049 0.153033 0
168 1 0.296377 0.169542 0
170 1 0.318969 0.177328 0
142 1 0.35619 0.145933 0
171 1 0.337895 0.163468 0
172 1 0.361437 0.170622 0
114 1 0.39658 0.137884 0
144 1 0.402628 0.161155 0
173 1 0.379237 0.154576 0
174 1 0.385507 0.178441 0
145 1 0.419544 0.143884 0
147 1 0.442663 0.15049 0
146 1 0.425802 0.16862 0
177 1 0.449318 0.175385 0
149 1 0.482369 0.139533 0
148 1 0.465799 0.157335 0
150 1 0.489297 0.163119 0
154 1 0.0427573 0.183249 0
183 1 0.0170136 0.187218 0
182 1 0.00884411 0.210867 0
184 1 0.0341356 0.206402 0
185 1 0.0585504 0.203328 0
156 1 0.0831351 0.19774 0
186 1 0.0748265 0.221714 0
215 1 0.0498632 0.226085 0
158 1 0.106577 0.194855 0
189 1 0.128976 0.20472 0
187 1 0.107869 0.220132 0
160 1 0.145699 0.18573 0
191 1 0.169012 0.194522 0
190 1 0.152102 0.211807 0
221 1 0.175668 0.219278 0
193 1 0.212451 0.185366 0
192 1 0.194212 0.202406 0
194 1 0.216975 0.210987 0
223 1 0.19907 0.22826 0
195 1 0.235112 0.194019 0
196 1 0.258539 0.201897 0
225 1 0.240987 0.219196 0
227 1 0.264289 0.227485 0
197 1 0.27793 0.186305 0
199 1 0.301809 0.194349 0
198 1 0.282669 0.210843 0
229 1 0.306322 0.218921 0
201 1 0.343092 0.186753 0
200 1 0.325023 0.202717 0
202 1 0.348557 0.210046 0
203 1 0.366763 0.194329 0
204 1 0.391114 0.201662 0
233 1 0.372167 0.21875 0
175 1 0.408791 0.185368 0
235 1 0.395725 0.226541 0
205 1 0.414175 0.210018 0
176 1 0.432421 0.193897 0
207 1 0.438756 0.217409 0
179 1 0.472398 0.181518 0
178 1 0.456064 0.200301 0
208 1 0.462953 0.22438 0
180 1 0.495956 0.187682 0
209 1 0.479534 0.205589 0
213 1 0.0254196 0.229607 0
243 1 0.0154861 0.252244 0
214 1 0.0413488 0.249416 0
244 1 0.030339 0.271586 0
212 1 0.000113677 0.234317 0
216 1 0.0663661 0.245226 0
245 1 0.0585567 0.268688 0
217 1 0.0920016 0.240447 0
188 1 0.132683 0.229221 0
247 1 0.0964398 0.264806 0
218 1 0.114496 0.246698 0
249 1 0.12187 0.272209 0
219 1 0.138322 0.253619 0
220 1 0.156111 0.23627 0
251 1 0.162593 0.261593 0
222 1 0.180774 0.245766 0
224 1 0.222542 0.234723 0
253 1 0.20461 0.25206 0
252 1 0.186337 0.269991 0
255 1 0.228052 0.259899 0
226 1 0.245228 0.243544 0
257 1 0.269776 0.251854 0
256 1 0.251618 0.267825 0
228 1 0.288045 0.235092 0
230 1 0.312062 0.242864 0
259 1 0.294002 0.259837 0
260 1 0.316292 0.267344 0
231 1 0.330641 0.22675 0
232 1 0.35416 0.234659 0
261 1 0.335458 0.251805 0
263 1 0.359827 0.259207 0
234 1 0.378264 0.243561 0
265 1 0.401482 0.251461 0
264 1 0.383515 0.267704 0
206 1 0.418672 0.233999 0
237 1 0.444178 0.24068 0
236 1 0.426433 0.258803 0
238 1 0.450466 0.266627 0
210 1 0.487059 0.23128 0
239 1 0.467966 0.248621 0
240 1 0.492026 0.25565 0
242 1 0.00581434 0.274769 0
271 1 0.0221903 0.295425 0
272 1 0.0396241 0.313844 0
273 1 0.0453902 0.29009 0
246 1 0.0792545 0.284736 0
275 1 0.0643667 0.304878 0
276 1 0.0883776 0.309528 0
248 1 0.103108 0.288903 0
279 1 0.127212 0.296329 0
277 1 0.112427 0.31645 0
250 1 0.145052 0.278482 0
280 1 0.150978 0.305001 0
281 1 0.167312 0.286938 0
282 1 0.174497 0.311626 0
254 1 0.209456 0.277063 0
283 1 0.191874 0.293742 0
284 1 0.21481 0.30179 0
285 1 0.23379 0.284894 0
287 1 0.257663 0.292713 0
286 1 0.239466 0.309195 0
317 1 0.263271 0.316876 0
258 1 0.275459 0.276146 0
288 1 0.28097 0.300586 0
289 1 0.299334 0.283887 0
290 1 0.304857 0.307761 0
262 1 0.341643 0.276058 0
291 1 0.32382 0.292954 0
292 1 0.347368 0.301069 0
323 1 0.329658 0.317491 0
293 1 0.364803 0.284715 0
295 1 0.389559 0.291332 0
294 1 0.371093 0.308902 0
296 1 0.395156 0.315435 0
266 1 0.407987 0.275592 0
267 1 0.432273 0.282326 0
297 1 0.413972 0.299195 0
298 1 0.437067 0.306759 0
269 1 0.474241 0.273177 0
268 1 0.456259 0.29067 0
1141 1 0.498313 0.279696 0
270 1 0.481006 0.297677 0
299 1 0.462672 0.314385 0
1200 1 0.0138674 0.318233 0
1230 1 0.00708596 0.343883 0
301 1 0.0300695 0.336646 0
302 1 0.0348165 0.360202 0
303 1 0.0526996 0.343358 0
274 1 0.0712766 0.327827 0
304 1 0.0770439 0.351911 0
305 1 0.094563 0.333966 0
306 1 0.100603 0.358544 0
307 1 0.118622 0.34165 0
278 1 0.135643 0.32484 0
309 1 0.14169 0.349145 0
311 1 0.158975 0.331559 0
310 1 0.16542 0.356592 0
312 1 0.183013 0.338768 0
313 1 0.198437 0.320014 0
314 1 0.207072 0.345586 0
315 1 0.222394 0.326857 0
345 1 0.230648 0.352623 0
316 1 0.24612 0.333912 0
318 1 0.269612 0.343816 0
319 1 0.286464 0.32449 0
320 1 0.312804 0.355305 0
321 1 0.30997 0.331457 0
349 1 0.287634 0.360227 0
322 1 0.333448 0.343252 0
324 1 0.353036 0.326146 0
353 1 0.354669 0.35844 0
325 1 0.376961 0.332171 0
355 1 0.379336 0.356395 0
326 1 0.40076 0.340956 0
327 1 0.418229 0.323262 0
328 1 0.425764 0.345517 0
329 1 0.444354 0.330725 0
359 1 0.447365 0.357803 0
300 1 0.486104 0.322433 0
1201 1 0.493833 0.34597 0
330 1 0.466887 0.340283 0
332 1 0.0409686 0.384487 0
331 1 0.0178492 0.376887 0
361 1 0.0215656 0.400492 0
333 1 0.0584822 0.36785 0
335 1 0.0823057 0.375098 0
334 1 0.0643449 0.391701 0
336 1 0.0870579 0.400759 0
308 1 0.12383 0.366541 0
337 1 0.106427 0.382695 0
338 1 0.130465 0.391358 0
367 1 0.109826 0.408693 0
339 1 0.148196 0.3746 0
341 1 0.171924 0.380691 0
340 1 0.154493 0.398196 0
371 1 0.17823 0.40504 0
343 1 0.190108 0.363872 0
342 1 0.196615 0.388601 0
344 1 0.214139 0.371588 0
375 1 0.22102 0.399256 0
347 1 0.260635 0.366865 0
346 1 0.238092 0.37758 0
377 1 0.257015 0.392305 0
348 1 0.280359 0.383757 0
350 1 0.305738 0.378786 0
379 1 0.298993 0.402134 0
381 1 0.324434 0.395748 0
351 1 0.332743 0.369703 0
352 1 0.34847 0.3882 0
383 1 0.365948 0.404625 0
354 1 0.370791 0.379841 0
385 1 0.38955 0.397179 0
356 1 0.395643 0.373965 0
387 1 0.413871 0.391144 0
357 1 0.420067 0.368616 0
358 1 0.43833 0.385109 0
389 1 0.455997 0.402371 0
1231 1 0.486513 0.37146 0
360 1 0.461892 0.377468 0
1232 1 0.480096 0.395552 0
391 1 0.00358069 0.416545 0
362 1 0.0265876 0.424991 0
392 1 0.00689071 0.441033 0
393 1 0.0314131 0.449701 0
363 1 0.0452904 0.408692 0
364 1 0.050346 0.433112 0
365 1 0.0689362 0.416985 0
395 1 0.073347 0.44108 0
366 1 0.0919038 0.425248 0
369 1 0.134026 0.416203 0
397 1 0.0971408 0.449745 0
368 1 0.115599 0.433293 0
399 1 0.139366 0.440303 0
370 1 0.157575 0.421948 0
401 1 0.180075 0.431386 0
400 1 0.162847 0.448774 0
372 1 0.203099 0.438098 0
373 1 0.201382 0.41388 0
403 1 0.224244 0.448583 0
374 1 0.22457 0.423857 0
376 1 0.249695 0.416848 0
405 1 0.246622 0.441409 0
407 1 0.269278 0.433165 0
378 1 0.275154 0.408469 0
409 1 0.293855 0.425525 0
410 1 0.311178 0.444401 0
380 1 0.317623 0.418906 0
408 1 0.287607 0.450114 0
382 1 0.342123 0.412643 0
411 1 0.335215 0.43687 0
413 1 0.359579 0.429628 0
384 1 0.383591 0.420923 0
414 1 0.377196 0.448174 0
415 1 0.400081 0.440761 0
386 1 0.40849 0.41522 0
388 1 0.431992 0.408512 0
417 1 0.425024 0.43323 0
418 1 0.442149 0.451072 0
419 1 0.449308 0.427062 0
1261 1 0.473053 0.418919 0
390 1 0.466817 0.444162 0
1291 1 0.490442 0.436743 0
1262 1 0.498342 0.413199 0
451 1 0.0166427 0.490056 0
422 1 0.0359455 0.474456 0
421 1 0.0127734 0.465743 0
453 1 0.0392835 0.4985 0
423 1 0.0594016 0.481749 0
394 1 0.0543672 0.457948 0
396 1 0.0780009 0.46606 0
425 1 0.082359 0.490864 0
398 1 0.120456 0.458197 0
427 1 0.101846 0.474773 0
428 1 0.125236 0.482377 0
429 1 0.144067 0.465659 0
430 1 0.147754 0.490989 0
431 1 0.16801 0.473283 0
402 1 0.187483 0.457611 0
432 1 0.189882 0.484174 0
433 1 0.210368 0.469292 0
434 1 0.212375 0.493494 0
406 1 0.26438 0.458828 0
404 1 0.240706 0.466239 0
435 1 0.235546 0.48978 0
436 1 0.25827 0.483343 0
437 1 0.282254 0.476453 0
438 1 0.299796 0.494042 0
439 1 0.305579 0.468929 0
412 1 0.353079 0.454049 0
440 1 0.323001 0.486836 0
441 1 0.330133 0.461867 0
442 1 0.347239 0.478488 0
473 1 0.364427 0.495813 0
443 1 0.370641 0.471772 0
445 1 0.394362 0.465773 0
444 1 0.388534 0.490316 0
416 1 0.417771 0.458226 0
447 1 0.436377 0.47613 0
446 1 0.412019 0.482255 0
448 1 0.430715 0.49992 0
449 1 0.454592 0.492208 0
450 1 0.478083 0.485009 0
420 1 0.460695 0.467824 0
1321 1 0.48539 0.46068 0
452 1 0.0198047 0.514404 0
483 1 0.024307 0.53866 0
454 1 0.0433933 0.522901 0
481 1 0.000766156 0.529816 0
455 1 0.0660311 0.531283 0
426 1 0.0863043 0.515491 0
424 1 0.0629804 0.506781 0
456 1 0.0895915 0.540621 0
458 1 0.109632 0.523982 0
459 1 0.128864 0.508702 0
489 1 0.132984 0.532444 0
457 1 0.106583 0.49842 0
460 1 0.152005 0.515547 0
462 1 0.175774 0.525283 0
491 1 0.156382 0.541562 0
461 1 0.171034 0.500061 0
463 1 0.193807 0.508756 0
493 1 0.197968 0.533306 0
495 1 0.221703 0.539592 0
464 1 0.225668 0.514719 0
466 1 0.24466 0.531614 0
497 1 0.270047 0.525201 0
465 1 0.252609 0.50773 0
468 1 0.2934 0.519209 0
499 1 0.310855 0.536515 0
467 1 0.276323 0.501517 0
498 1 0.286871 0.543111 0
469 1 0.317511 0.511935 0
470 1 0.334296 0.528785 0
472 1 0.35864 0.520466 0
471 1 0.340664 0.503494 0
503 1 0.376001 0.539039 0
474 1 0.382279 0.514602 0
476 1 0.400219 0.532569 0
475 1 0.406181 0.506765 0
477 1 0.423448 0.52433 0
478 1 0.447851 0.516854 0
507 1 0.441636 0.5407 0
480 1 0.466234 0.534216 0
479 1 0.471283 0.509812 0
1381 1 0.489681 0.527515 0
1351 1 0.495401 0.503425 0
482 1 0.00355637 0.553518 0
513 1 0.0275341 0.562859 0
512 1 0.0322571 0.587505 0
541 1 0.0079997 0.578004 0
485 1 0.0472379 0.547351 0
484 1 0.0509449 0.571487 0
486 1 0.0704518 0.555532 0
515 1 0.0738945 0.580573 0
487 1 0.093703 0.564809 0
488 1 0.11334 0.549136 0
519 1 0.117343 0.573691 0
517 1 0.0968585 0.588508 0
490 1 0.13703 0.557199 0
520 1 0.140363 0.581833 0
521 1 0.160249 0.566469 0
492 1 0.179908 0.550715 0
523 1 0.184299 0.574907 0
494 1 0.203489 0.559391 0
524 1 0.208557 0.584808 0
525 1 0.239666 0.556231 0
496 1 0.262844 0.548776 0
526 1 0.257178 0.573481 0
555 1 0.233511 0.579664 0
527 1 0.281118 0.566902 0
529 1 0.30522 0.559698 0
559 1 0.299597 0.582995 0
501 1 0.352517 0.545179 0
530 1 0.323163 0.577336 0
500 1 0.32917 0.55242 0
531 1 0.346047 0.570388 0
533 1 0.363664 0.588185 0
502 1 0.37007 0.563662 0
505 1 0.395006 0.556618 0
504 1 0.388593 0.581581 0
535 1 0.412175 0.574389 0
506 1 0.418499 0.548676 0
508 1 0.435801 0.566143 0
539 1 0.453901 0.58349 0
509 1 0.459224 0.558788 0
510 1 0.482723 0.551611 0
540 1 0.477284 0.576536 0
542 1 0.0131585 0.601868 0
571 1 0.0159639 0.627209 0
543 1 0.0362022 0.611287 0
544 1 0.0394188 0.63574 0
514 1 0.0555024 0.596165 0
516 1 0.0781563 0.606071 0
545 1 0.0581775 0.621005 0
546 1 0.0820441 0.630493 0
518 1 0.120013 0.597794 0
547 1 0.101196 0.614208 0
548 1 0.123889 0.622712 0
522 1 0.162792 0.590318 0
549 1 0.142806 0.607092 0
551 1 0.166034 0.614944 0
550 1 0.147091 0.632411 0
553 1 0.185331 0.599185 0
552 1 0.188613 0.626084 0
554 1 0.206392 0.609671 0
583 1 0.22128 0.629315 0
556 1 0.229338 0.603971 0
557 1 0.25191 0.597541 0
587 1 0.245814 0.621906 0
558 1 0.269701 0.615469 0
528 1 0.275629 0.590724 0
560 1 0.293793 0.607472 0
591 1 0.311101 0.62616 0
589 1 0.287112 0.633406 0
561 1 0.317091 0.601876 0
532 1 0.340438 0.594931 0
562 1 0.334502 0.619543 0
563 1 0.358998 0.612594 0
534 1 0.383127 0.605084 0
565 1 0.375699 0.62969 0
566 1 0.399172 0.623414 0
536 1 0.40675 0.598747 0
537 1 0.430143 0.591892 0
567 1 0.424961 0.616255 0
538 1 0.448613 0.608838 0
597 1 0.440668 0.635131 0
1441 1 0.494033 0.593461 0
568 1 0.465407 0.626867 0
569 1 0.470927 0.601476 0
570 1 0.488541 0.618209 0
573 1 0.0194492 0.650763 0
603 1 0.0215596 0.674988 0
574 1 0.0422488 0.660852 0
575 1 0.0621919 0.645938 0
605 1 0.0665028 0.669669 0
576 1 0.0859474 0.65473 0
607 1 0.0895679 0.679697 0
577 1 0.105322 0.639684 0
578 1 0.10892 0.664352 0
579 1 0.128935 0.649456 0
609 1 0.131558 0.674912 0
581 1 0.170372 0.642321 0
580 1 0.150996 0.658962 0
611 1 0.174488 0.668408 0
582 1 0.19181 0.652334 0
584 1 0.215593 0.654645 0
613 1 0.200285 0.678443 0
585 1 0.239662 0.646436 0
586 1 0.263093 0.639679 0
615 1 0.232055 0.671875 0
617 1 0.256417 0.664599 0
588 1 0.280832 0.657338 0
590 1 0.304671 0.651098 0
619 1 0.298032 0.674951 0
564 1 0.352248 0.636774 0
593 1 0.328751 0.644071 0
621 1 0.322739 0.668569 0
592 1 0.346305 0.662273 0
594 1 0.369866 0.654791 0
595 1 0.393996 0.647827 0
625 1 0.389249 0.672789 0
623 1 0.365195 0.679589 0
627 1 0.413809 0.666769 0
596 1 0.417232 0.640365 0
598 1 0.43711 0.659787 0
628 1 0.454697 0.677642 0
599 1 0.45981 0.652398 0
600 1 0.48338 0.642978 0
629 1 0.477633 0.667749 0
602 1 0.00438344 0.701928 0
633 1 0.0278461 0.699791 0
634 1 0.0274595 0.72563 0
604 1 0.04668 0.684584 0
606 1 0.0696479 0.694358 0
635 1 0.0502346 0.709751 0
636 1 0.0728505 0.719673 0
637 1 0.0920408 0.704461 0
608 1 0.112178 0.690061 0
638 1 0.115028 0.714113 0
639 1 0.134683 0.699962 0
610 1 0.155317 0.684133 0
640 1 0.136985 0.723828 0
641 1 0.15728 0.709173 0
612 1 0.178129 0.693577 0
642 1 0.179701 0.719662 0
643 1 0.200839 0.704374 0
645 1 0.222689 0.719046 0
614 1 0.224227 0.694493 0
616 1 0.251283 0.688574 0
646 1 0.245302 0.712086 0
647 1 0.268789 0.706714 0
618 1 0.274624 0.682277 0
649 1 0.292961 0.700141 0
650 1 0.311166 0.718675 0
648 1 0.286897 0.724819 0
620 1 0.31726 0.693062 0
622 1 0.341366 0.68623 0
651 1 0.335024 0.709836 0
653 1 0.360073 0.704459 0
624 1 0.383459 0.697719 0
655 1 0.401095 0.716227 0
654 1 0.377608 0.722949 0
626 1 0.406863 0.690655 0
657 1 0.431415 0.684138 0
656 1 0.424656 0.708894 0
658 1 0.450167 0.70203 0
687 1 0.444271 0.726822 0
630 1 0.495539 0.683461 0
659 1 0.474249 0.694646 0
660 1 0.492759 0.712197 0
689 1 0.469451 0.719241 0
663 1 0.0112725 0.744762 0
662 1 0.00261601 0.767981 0
664 1 0.0347708 0.749529 0
665 1 0.0535027 0.734229 0
666 1 0.0760575 0.744368 0
695 1 0.057229 0.760165 0
697 1 0.0795516 0.769914 0
667 1 0.0954617 0.729368 0
669 1 0.117989 0.739282 0
668 1 0.0989731 0.754845 0
699 1 0.12058 0.765469 0
671 1 0.160117 0.734271 0
670 1 0.139864 0.748934 0
672 1 0.162637 0.759444 0
644 1 0.202077 0.730498 0
673 1 0.182466 0.745196 0
674 1 0.206086 0.754812 0
703 1 0.186143 0.769194 0
675 1 0.23863 0.738449 0
705 1 0.231346 0.762888 0
677 1 0.262597 0.730738 0
676 1 0.257808 0.756253 0
679 1 0.305168 0.742548 0
678 1 0.280871 0.749259 0
709 1 0.298823 0.766233 0
707 1 0.275577 0.77481 0
680 1 0.323217 0.760044 0
652 1 0.352911 0.728197 0
681 1 0.329455 0.735566 0
682 1 0.347228 0.752987 0
683 1 0.370376 0.746706 0
685 1 0.395754 0.74071 0
684 1 0.388861 0.765415 0
713 1 0.365266 0.772143 0
715 1 0.412489 0.75817 0
686 1 0.419713 0.733233 0
717 1 0.437449 0.750549 0
688 1 0.463783 0.742802 0
690 1 0.488395 0.736861 0
719 1 0.480703 0.76131 0
718 1 0.45509 0.767479 0
694 1 0.0368284 0.773516 0
693 1 0.0180679 0.788464 0
692 1 0.0128785 0.813852 0
723 1 0.0392939 0.798797 0
696 1 0.0587682 0.784831 0
725 1 0.0605353 0.81012 0
727 1 0.0808669 0.795004 0
698 1 0.100943 0.780452 0
728 1 0.10366 0.805142 0
729 1 0.126166 0.814655 0
700 1 0.123642 0.789412 0
701 1 0.142912 0.775148 0
731 1 0.146797 0.800329 0
732 1 0.168986 0.810035 0
702 1 0.166188 0.784024 0
704 1 0.207851 0.77955 0
733 1 0.187975 0.794455 0
734 1 0.212396 0.804362 0
735 1 0.229744 0.787252 0
706 1 0.25212 0.779907 0
736 1 0.24606 0.804984 0
737 1 0.269271 0.798265 0
708 1 0.29253 0.791597 0
739 1 0.309844 0.808723 0
738 1 0.285463 0.81609 0
710 1 0.316685 0.783964 0
711 1 0.340462 0.777844 0
741 1 0.33339 0.803148 0
712 1 0.357205 0.796524 0
743 1 0.381964 0.790145 0
745 1 0.399078 0.807932 0
744 1 0.376249 0.814644 0
714 1 0.407538 0.783427 0
716 1 0.431451 0.774664 0
747 1 0.449425 0.7924 0
746 1 0.424739 0.799895 0
720 1 0.488752 0.784382 0
749 1 0.47166 0.803197 0
1621 1 0.495469 0.808993 0
722 1 0.0367992 0.823819 0
751 1 0.0157972 0.839451 0
753 1 0.0397916 0.849041 0
726 1 0.0825951 0.818785 0
724 1 0.0595274 0.833894 0
755 1 0.0835946 0.843598 0
754 1 0.0624021 0.859074 0
756 1 0.106504 0.853401 0
757 1 0.104352 0.829102 0
759 1 0.127148 0.83866 0
730 1 0.149229 0.824463 0
760 1 0.150137 0.848891 0
761 1 0.172051 0.834861 0
791 1 0.173369 0.85977 0
763 1 0.19242 0.819315 0
762 1 0.194665 0.844801 0
764 1 0.21396 0.830322 0
795 1 0.219088 0.855763 0
767 1 0.262827 0.822567 0
765 1 0.237984 0.830096 0
766 1 0.256115 0.846821 0
768 1 0.279831 0.840369 0
769 1 0.302788 0.833193 0
799 1 0.296636 0.858347 0
770 1 0.320194 0.85189 0
740 1 0.3267 0.827639 0
771 1 0.344678 0.846252 0
742 1 0.351571 0.821731 0
773 1 0.368923 0.83854 0
774 1 0.393889 0.83359 0
803 1 0.385679 0.857542 0
748 1 0.453503 0.819331 0
775 1 0.417372 0.824455 0
777 1 0.436507 0.839272 0
776 1 0.411979 0.85121 0
778 1 0.443561 0.86384 0
750 1 0.47856 0.827111 0
779 1 0.460987 0.844269 0
780 1 0.485781 0.850929 0
752 1 0.0195215 0.863255 0
782 1 0.0220238 0.888835 0
811 1 0.00207061 0.904272 0
783 1 0.0419408 0.873503 0
813 1 0.045627 0.898173 0
784 1 0.0655747 0.883647 0
785 1 0.0853891 0.868261 0
815 1 0.0690315 0.907705 0
786 1 0.0886934 0.892979 0
758 1 0.129488 0.863855 0
787 1 0.108358 0.878192 0
817 1 0.111444 0.903656 0
788 1 0.13193 0.888305 0
789 1 0.152211 0.873397 0
790 1 0.153978 0.899057 0
792 1 0.175454 0.884638 0
821 1 0.177486 0.910053 0
793 1 0.19659 0.868928 0
823 1 0.197329 0.894731 0
794 1 0.218733 0.88004 0
824 1 0.219999 0.905509 0
797 1 0.272141 0.864761 0
796 1 0.242381 0.868938 0
825 1 0.240724 0.89415 0
827 1 0.265305 0.888975 0
798 1 0.28956 0.883438 0
829 1 0.30686 0.901408 0
828 1 0.282934 0.906819 0
800 1 0.313052 0.877225 0
772 1 0.361755 0.863999 0
801 1 0.336433 0.870248 0
831 1 0.330999 0.896486 0
802 1 0.353873 0.888335 0
805 1 0.402365 0.875101 0
804 1 0.378406 0.882498 0
833 1 0.372635 0.907413 0
806 1 0.408401 0.899939 0
807 1 0.426043 0.881797 0
837 1 0.434422 0.904817 0
808 1 0.451459 0.886793 0
1711 1 0.501051 0.898377 0
809 1 0.468665 0.868138 0
1681 1 0.493177 0.87432 0
810 1 0.476669 0.892209 0
812 1 0.0253706 0.913143 0
843 1 0.028487 0.937989 0
842 1 0.00848203 0.950968 0
814 1 0.0484057 0.922671 0
844 1 0.0518335 0.947698 0
845 1 0.0722647 0.933542 0
816 1 0.0917241 0.917616 0
847 1 0.0948204 0.943473 0
818 1 0.114641 0.928228 0
848 1 0.117531 0.952434 0
819 1 0.133853 0.91368 0
849 1 0.137375 0.938236 0
820 1 0.157856 0.92452 0
850 1 0.160686 0.948949 0
851 1 0.180732 0.934984 0
822 1 0.200281 0.919948 0
853 1 0.204024 0.944485 0
855 1 0.224097 0.929378 0
826 1 0.257818 0.91333 0
856 1 0.24729 0.938179 0
887 1 0.267664 0.953807 0
857 1 0.27498 0.931154 0
859 1 0.298975 0.926265 0
858 1 0.291474 0.949591 0
860 1 0.316056 0.944257 0
830 1 0.323183 0.920608 0
861 1 0.340894 0.938757 0
832 1 0.347784 0.915046 0
863 1 0.367514 0.932031 0
834 1 0.392355 0.922647 0
865 1 0.402601 0.945942 0
864 1 0.379656 0.952713 0
835 1 0.418392 0.924079 0
838 1 0.442704 0.929064 0
836 1 0.426126 0.946985 0
867 1 0.450161 0.952299 0
839 1 0.459731 0.910189 0
1741 1 0.490477 0.939277 0
840 1 0.483342 0.915938 0
869 1 0.466205 0.934555 0
872 1 0.0329902 0.987229 0
873 1 0.0310173 0.962675 0
871 1 0.0102633 0.976306 0
846 1 0.074595 0.958228 0
874 1 0.0562346 0.997059 0
875 1 0.0541494 0.971733 0
876 1 0.0760326 0.983183 0
7 1 0.100183 0.993715 0
877 1 0.0977311 0.968687 0
878 1 0.120267 0.977707 0
879 1 0.14049 0.963297 0
880 1 0.143047 0.989575 0
881 1 0.163049 0.974749 0
11 1 0.16602 0.999741 0
854 1 0.226616 0.95413 0
852 1 0.182805 0.960028 0
882 1 0.185498 0.984629 0
883 1 0.205331 0.969533 0
13 1 0.206941 0.995926 0
884 1 0.227109 0.979494 0
885 1 0.247308 0.96513 0
886 1 0.249968 0.988662 0
888 1 0.282927 0.973562 0
889 1 0.30749 0.968738 0
19 1 0.299349 0.993084 0
17 1 0.273469 0.997134 0
862 1 0.356271 0.957263 0
890 1 0.32506 0.988023 0
891 1 0.332127 0.963812 0
892 1 0.348916 0.981995 0
893 1 0.373139 0.976993 0
895 1 0.397907 0.970845 0
894 1 0.39118 0.995212 0
896 1 0.415174 0.988309 0
866 1 0.433557 0.970518 0
897 1 0.44051 0.993761 0
1771 1 0.49863 0.964445 0
870 1 0.474127 0.958636 0
868 1 0.457325 0.976518 0
899 1 0.481652 0.981769 0
902 1 0.537324 0.018677 0
931 1 0.520077 0.0368142 0
901 1 0.513615 0.0124756 0
933 1 0.544114 0.0427534 0
904 1 0.561721 0.0248433 0
935 1 0.586184 0.0302853 0
906 1 0.578777 0.00619153 0
905 1 0.554928 0.000881885 0
908 1 0.603306 0.0116576 0
937 1 0.610441 0.0360988 0
939 1 0.627965 0.018015 0
938 1 0.634809 0.0431354 0
941 1 0.651804 0.0246304 0
912 1 0.668825 0.00732299 0
942 1 0.677129 0.0301641 0
910 1 0.64431 -0.000230307 0
943 1 0.695453 0.0127302 0
944 1 0.700722 0.0365742 0
975 1 0.724192 0.0418831 0
945 1 0.728359 0.0151266 0
947 1 0.747237 0.0321199 0
918 1 0.757099 0.0101884 0
948 1 0.772337 0.0297411 0
919 1 0.781707 0.00658927 0
949 1 0.797682 0.0255843 0
1790 1 0.805487 0.00167245 0
920 1 0.821771 0.0210433 0
951 1 0.838879 0.0398118 0
922 1 0.846604 0.0169221 0
953 1 0.863152 0.0372969 0
924 1 0.870271 0.0130165 0
955 1 0.887717 0.0319527 0
925 1 0.895214 0.00905513 0
926 1 0.91186 0.0288019 0
928 1 0.936117 0.0245415 0
927 1 0.91982 0.00480937 0
959 1 0.951425 0.0449786 0
1798 1 0.945789 0.00155611 0
930 1 0.98619 0.0176765 0
929 1 0.961066 0.0209217 0
960 1 0.97625 0.0405518 0
60 1 0.503121 0.0554294 0
932 1 0.527242 0.0614461 0
962 1 0.534535 0.0852875 0
961 1 0.510619 0.079473 0
963 1 0.55234 0.0676437 0
934 1 0.568034 0.0488674 0
965 1 0.576129 0.0739805 0
964 1 0.558801 0.0913731 0
936 1 0.592213 0.0541096 0
966 1 0.600142 0.0778723 0
967 1 0.616738 0.0594926 0
968 1 0.624572 0.0841581 0
940 1 0.65991 0.0486524 0
969 1 0.641718 0.0667516 0
970 1 0.665719 0.0727657 0
999 1 0.647426 0.0910794 0
971 1 0.68358 0.0548914 0
972 1 0.689163 0.0786688 0
973 1 0.707105 0.0604348 0
1003 1 0.713223 0.0847758 0
946 1 0.76245 0.0528774 0
974 1 0.731703 0.0671331 0
976 1 0.756674 0.0772032 0
1005 1 0.737173 0.0914999 0
950 1 0.813399 0.0447666 0
979 1 0.788674 0.0490989 0
977 1 0.78036 0.0722867 0
980 1 0.805518 0.0687545 0
981 1 0.830021 0.0634571 0
982 1 0.84554 0.0845459 0
1011 1 0.821352 0.0879578 0
952 1 0.854227 0.0613513 0
954 1 0.878918 0.0560802 0
983 1 0.870632 0.0796212 0
985 1 0.895378 0.0760319 0
956 1 0.902487 0.0516555 0
957 1 0.927739 0.049182 0
987 1 0.918848 0.0727231 0
958 1 0.943774 0.0689487 0
989 1 0.967896 0.0643909 0
990 1 0.985872 0.0823908 0
1019 1 0.961675 0.0880346 0
61 1 0.993278 0.0591076 0
991 1 0.516752 0.10345 0
992 1 0.522679 0.127481 0
993 1 0.539931 0.109168 0
120 1 0.499506 0.120691 0
1023 1 0.546469 0.133069 0
994 1 0.564386 0.116083 0
995 1 0.58342 0.0972299 0
996 1 0.588792 0.122058 0
997 1 0.607363 0.103395 0
998 1 0.630845 0.108442 0
1027 1 0.61424 0.12768 0
1029 1 0.63714 0.133843 0
1000 1 0.654059 0.116064 0
1001 1 0.671913 0.0966488 0
1031 1 0.677931 0.121243 0
1002 1 0.694702 0.103844 0
1004 1 0.71909 0.108713 0
1033 1 0.70216 0.127476 0
1034 1 0.725881 0.133703 0
1006 1 0.767076 0.120784 0
1035 1 0.743453 0.115264 0
1007 1 0.772778 0.09695 0
978 1 0.796445 0.0921348 0
1008 1 0.790947 0.116519 0
1009 1 0.814377 0.112152 0
1039 1 0.804046 0.136898 0
1010 1 0.828603 0.131853 0
1012 1 0.854149 0.128336 0
1013 1 0.837859 0.108812 0
984 1 0.861312 0.103422 0
1015 1 0.88672 0.0990394 0
1014 1 0.877699 0.122522 0
1016 1 0.903387 0.119127 0
988 1 0.937317 0.0921458 0
986 1 0.911962 0.0963268 0
1017 1 0.928141 0.114546 0
1049 1 0.943936 0.134736 0
1018 1 0.952921 0.110632 0
1020 1 0.977662 0.106652 0
1050 1 0.969585 0.129724 0
121 1 0.994157 0.125542 0
1051 1 0.513161 0.169765 0
1022 1 0.53037 0.151448 0
1053 1 0.53675 0.176102 0
1021 1 0.506649 0.144971 0
1024 1 0.554216 0.157728 0
1025 1 0.570915 0.13914 0
1055 1 0.579187 0.16427 0
1026 1 0.59618 0.145504 0
1028 1 0.619782 0.151896 0
1057 1 0.602423 0.170898 0
1058 1 0.626161 0.176432 0
1059 1 0.643461 0.158198 0
1030 1 0.661571 0.14083 0
1061 1 0.667887 0.163986 0
1032 1 0.684804 0.14683 0
1063 1 0.709177 0.151783 0
1064 1 0.71575 0.175798 0
1062 1 0.691719 0.170439 0
1036 1 0.751325 0.138998 0
1065 1 0.73326 0.157197 0
1067 1 0.757453 0.162655 0
1095 1 0.739692 0.181074 0
1037 1 0.776248 0.144102 0
1038 1 0.795728 0.160007 0
1069 1 0.812907 0.17922 0
1040 1 0.820767 0.155968 0
1041 1 0.845231 0.15144 0
1071 1 0.838356 0.174345 0
1042 1 0.862654 0.169908 0
1045 1 0.895263 0.14246 0
1043 1 0.870225 0.146813 0
1044 1 0.887795 0.165183 0
1047 1 0.91955 0.138237 0
1046 1 0.911709 0.162221 0
1048 1 0.936122 0.157799 0
1078 1 0.952753 0.177372 0
1077 1 0.928172 0.181611 0
1079 1 0.961368 0.15318 0
151 1 0.984806 0.148389 0
1080 1 0.976424 0.171708 0
1052 1 0.520283 0.194241 0
1082 1 0.527124 0.218814 0
1083 1 0.543679 0.201066 0
1081 1 0.503983 0.212411 0
1054 1 0.560575 0.182235 0
1056 1 0.584408 0.188917 0
1085 1 0.567199 0.206504 0
1084 1 0.551005 0.224876 0
1086 1 0.591924 0.212355 0
1087 1 0.609037 0.195553 0
1088 1 0.617105 0.219829 0
1089 1 0.632968 0.20011 0
1060 1 0.65073 0.181696 0
1091 1 0.674729 0.187966 0
1090 1 0.657866 0.206487 0
1092 1 0.681303 0.213048 0
1119 1 0.640829 0.223716 0
1093 1 0.698196 0.193916 0
1094 1 0.722629 0.199989 0
1123 1 0.705481 0.218 0
1125 1 0.729323 0.223129 0
1066 1 0.764102 0.186861 0
1096 1 0.746639 0.205466 0
1068 1 0.788487 0.18375 0
1097 1 0.780327 0.207502 0
1099 1 0.8046 0.203097 0
1098 1 0.798067 0.22675 0
1100 1 0.821648 0.221776 0
1072 1 0.853296 0.19291 0
1070 1 0.829038 0.197627 0
1101 1 0.845155 0.217571 0
1075 1 0.902768 0.186217 0
1073 1 0.878786 0.189016 0
1103 1 0.869091 0.212581 0
1074 1 0.893172 0.208968 0
1076 1 0.918775 0.204393 0
1107 1 0.942437 0.201276 0
1108 1 0.933539 0.225536 0
1109 1 0.967011 0.197319 0
1110 1 0.958505 0.219798 0
181 1 0.99247 0.191266 0
211 1 0.984469 0.214563 0
1111 1 0.510558 0.236817 0
1113 1 0.534136 0.243606 0
1112 1 0.516034 0.261336 0
1143 1 0.539407 0.268329 0
1114 1 0.557723 0.249185 0
1115 1 0.575036 0.231669 0
1116 1 0.580827 0.255288 0
1117 1 0.598878 0.237559 0
1118 1 0.622825 0.243712 0
1147 1 0.60535 0.262265 0
1149 1 0.630367 0.266882 0
1121 1 0.664603 0.230503 0
1120 1 0.647465 0.247895 0
1151 1 0.671343 0.253978 0
1122 1 0.688694 0.236671 0
1124 1 0.713986 0.24304 0
1153 1 0.696231 0.260003 0
1154 1 0.721045 0.266543 0
1126 1 0.7514 0.228984 0
1155 1 0.738247 0.249295 0
1157 1 0.762328 0.252962 0
1156 1 0.745545 0.273324 0
1127 1 0.774553 0.231729 0
1128 1 0.788079 0.250952 0
1129 1 0.812193 0.246347 0
1159 1 0.804408 0.269983 0
1102 1 0.860945 0.236653 0
1131 1 0.836877 0.240918 0
1132 1 0.85384 0.261207 0
1130 1 0.828743 0.264819 0