ITEM: TIMESTEP
10000
ITEM: NUMBER OF ATOMS
1800
ITEM: BOX BOUNDS pp pp pp
-7.2096976106793420e-01 1.6572096976107053e+02
-7.2096976106793420e-01 1.6572096976107053e+02
0.0000000000000000e+00 5.5000000000000000e+00
ITEM: ATOMS id type xs ys zs
2 1 0.0170522 0.016355 0
3 1 0.0409475 0.0105724 0
33 1 0.0340389 0.0337905 0
31 1 0.0103815 0.0399644 0
4 1 0.0578264 0.0272276 0
5 1 0.0645249 0.00354506 0
6 1 0.0819797 0.0198134 0
8 1 0.104974 0.0138505 0
37 1 0.0988479 0.0382318 0
9 1 0.12657 0.00479028 0
39 1 0.123646 0.0298305 0
10 1 0.146462 0.0193123 0
11 1 0.16781 0.00317734 0
41 1 0.169223 0.0282847 0
12 1 0.188791 0.0140822 0
43 1 0.192853 0.0365618 0
14 1 0.211686 0.021574 0
44 1 0.224748 0.0428891 0
45 1 0.235633 0.0191377 0
16 1 0.260665 0.0177512 0
46 1 0.251708 0.0387141 0
47 1 0.275249 0.0365526 0
18 1 0.285012 0.0143353 0
20 1 0.314118 0.012548 0
49 1 0.300841 0.0320234 0
51 1 0.330567 0.0328377 0
22 1 0.356705 0.0242092 0
21 1 0.337956 0.00895006 0
24 1 0.379398 0.0139987 0
25 1 0.405573 0.0101349 0
55 1 0.401343 0.0340735 0
53 1 0.375641 0.0405107 0
26 1 0.428258 0.0252047 0
28 1 0.455012 0.0263811 0
27 1 0.428264 1.00089 0
898 1 0.452797 0.00420523 0
29 1 0.474497 0.0155093 0
30 1 0.499028 0.0216318 0
59 1 0.47964 0.0403114 0
32 1 0.0279726 0.057249 0
62 1 0.0209811 0.0806505 0
63 1 0.04491 0.0748321 0
61 1 0.0048023 0.0625721 0
35 1 0.0756859 0.0435775 0
34 1 0.0519918 0.0516883 0
65 1 0.0680148 0.0688682 0
36 1 0.0920031 0.0620562 0
38 1 0.116811 0.0554517 0
67 1 0.107821 0.080439 0
69 1 0.130665 0.0753382 0
40 1 0.144218 0.0463471 0
71 1 0.15496 0.0673098 0
42 1 0.174703 0.0518824 0
72 1 0.178238 0.0745826 0
73 1 0.199701 0.0595273 0
74 1 0.220955 0.0698942 0
103 1 0.200327 0.084014 0
75 1 0.242126 0.059197 0
77 1 0.266482 0.059748 0
76 1 0.243623 0.0837509 0
48 1 0.29031 0.0550073 0
78 1 0.283137 0.0785773 0
50 1 0.315624 0.0520519 0
79 1 0.309656 0.0762661 0
81 1 0.334215 0.0660614 0
52 1 0.350724 0.0497418 0
82 1 0.354196 0.0764347 0
83 1 0.374012 0.0642987 0
54 1 0.397074 0.0595722 0
84 1 0.398582 0.0898357 0
57 1 0.446904 0.049966 0
85 1 0.420183 0.0750451 0
56 1 0.42089 0.0496423 0
87 1 0.446035 0.074258 0
58 1 0.467584 0.0637997 0
88 1 0.472612 0.0880351 0
89 1 0.49222 0.0703874 0
92 1 0.0266057 0.121679 0
93 1 0.0365494 0.0987319 0
91 1 0.00421046 0.109422 0
66 1 0.0848303 0.0860176 0
94 1 0.053199 0.117794 0
64 1 0.0619693 0.0932438 0
95 1 0.0774111 0.111835 0
68 1 0.124875 0.0975973 0
97 1 0.102472 0.104113 0
98 1 0.117717 0.123067 0
99 1 0.140262 0.115968 0
70 1 0.149548 0.0915131 0
100 1 0.162647 0.111986 0
101 1 0.180936 0.0989154 0
131 1 0.18194 0.125449 0
102 1 0.202387 0.111165 0
105 1 0.223008 0.095841 0
104 1 0.224515 0.122319 0
106 1 0.244464 0.108176 0
107 1 0.265923 0.0939842 0
137 1 0.266918 0.11677 0
108 1 0.289589 0.123541 0
109 1 0.298527 0.098873 0
80 1 0.330603 0.0912492 0
110 1 0.333421 0.117607 0
111 1 0.352914 0.101398 0
141 1 0.356374 0.124278 0
112 1 0.376711 0.112708 0
113 1 0.373693 0.0888107 0
114 1 0.397814 0.126024 0
115 1 0.414215 0.10986 0
86 1 0.433454 0.0954246 0
116 1 0.437412 0.120826 0
117 1 0.455065 0.105757 0
118 1 0.459963 0.129141 0
90 1 0.496182 0.0949485 0
119 1 0.479138 0.11189 0
1771 1 0.488317 0.969536 0
122 1 0.0147836 0.148954 0
123 1 0.0430265 0.139799 0
153 1 0.0340952 0.163651 0
152 1 0.00792306 0.173382 0
124 1 0.0591857 0.158375 0
125 1 0.0688439 0.134681 0
126 1 0.0856347 0.153072 0
96 1 0.0936286 0.129575 0
127 1 0.110054 0.146366 0
128 1 0.125724 0.162555 0
129 1 0.134794 0.140016 0
157 1 0.101713 0.169048 0
159 1 0.151437 0.15934 0
130 1 0.15863 0.134965 0
132 1 0.178364 0.150712 0
161 1 0.171088 0.175501 0
133 1 0.202904 0.13835 0
163 1 0.199988 0.162557 0
134 1 0.226818 0.146089 0
164 1 0.226838 0.170609 0
135 1 0.246662 0.131172 0
136 1 0.268857 0.140995 0
165 1 0.248699 0.155985 0
167 1 0.270281 0.166509 0
138 1 0.292443 0.150825 0
139 1 0.311507 0.133939 0
169 1 0.314623 0.157581 0
140 1 0.333315 0.143783 0
142 1 0.356987 0.150834 0
171 1 0.336224 0.166983 0
143 1 0.376896 0.136913 0
173 1 0.379009 0.160236 0
144 1 0.401987 0.153825 0
145 1 0.419555 0.136635 0
146 1 0.423691 0.162769 0
147 1 0.441272 0.146774 0
177 1 0.445549 0.170764 0
149 1 0.482656 0.135087 0
148 1 0.465009 0.153576 0
150 1 0.488534 0.160617 0
183 1 0.0275205 0.189218 0
182 1 0.0209587 0.214064 0
184 1 0.044667 0.208392 0
155 1 0.075425 0.175915 0
154 1 0.0510297 0.18306 0
185 1 0.069416 0.199547 0
156 1 0.0949175 0.193977 0
158 1 0.118515 0.185299 0
187 1 0.110839 0.211039 0
189 1 0.133403 0.206897 0
160 1 0.14194 0.181633 0
191 1 0.16065 0.197049 0
162 1 0.184771 0.193638 0
193 1 0.208503 0.185975 0
192 1 0.20185 0.210565 0
195 1 0.231743 0.200701 0
166 1 0.249096 0.183314 0
196 1 0.255342 0.210448 0
168 1 0.29506 0.174138 0
197 1 0.271138 0.192089 0
170 1 0.317627 0.182227 0
199 1 0.297254 0.199089 0
172 1 0.358368 0.175308 0
201 1 0.340416 0.191962 0
203 1 0.362482 0.200627 0
200 1 0.321166 0.207419 0
202 1 0.342816 0.216648 0
175 1 0.404945 0.177788 0
174 1 0.381807 0.184838 0
204 1 0.384697 0.209065 0
205 1 0.408481 0.204125 0
176 1 0.42858 0.187761 0
178 1 0.453244 0.1942 0
207 1 0.431203 0.211097 0
179 1 0.469327 0.177243 0
180 1 0.493457 0.18515 0
209 1 0.476387 0.20141 0
1081 1 0.49961 0.208966 0
213 1 0.037962 0.231304 0
212 1 0.0138578 0.241867 0
243 1 0.0325504 0.256088 0
186 1 0.0871587 0.216232 0
215 1 0.0609395 0.224682 0
216 1 0.08039 0.23985 0
214 1 0.0549293 0.247468 0
188 1 0.129235 0.229188 0
217 1 0.105097 0.234482 0
218 1 0.119627 0.25299 0
247 1 0.0961057 0.259252 0
219 1 0.144757 0.247759 0
190 1 0.153379 0.221482 0
220 1 0.169104 0.240472 0
221 1 0.175731 0.216499 0
222 1 0.183783 0.259501 0
223 1 0.194985 0.23627 0
194 1 0.219325 0.224925 0
224 1 0.22329 0.247451 0
225 1 0.241981 0.229118 0
227 1 0.264372 0.234948 0
226 1 0.245797 0.253281 0
198 1 0.280045 0.216215 0
228 1 0.287578 0.24363 0
229 1 0.302416 0.224988 0
230 1 0.308696 0.251325 0
231 1 0.325784 0.233911 0
232 1 0.349632 0.239746 0
261 1 0.33167 0.2566 0
233 1 0.365391 0.223515 0
234 1 0.373144 0.245616 0
235 1 0.392435 0.231408 0
265 1 0.399584 0.252999 0
236 1 0.422392 0.253087 0
206 1 0.415144 0.229024 0
237 1 0.440417 0.233515 0
238 1 0.44615 0.259211 0
208 1 0.458748 0.217793 0
210 1 0.481715 0.224455 0
239 1 0.463093 0.24055 0
240 1 0.486685 0.247239 0
242 1 0.0232621 0.278983 0
241 1 0.00436118 0.264556 0
271 1 0.0104967 0.300852 0
273 1 0.0420933 0.293167 0
245 1 0.0727886 0.265294 0
244 1 0.0500594 0.270782 0
275 1 0.0668285 0.288719 0
246 1 0.0900814 0.283545 0
248 1 0.113015 0.278987 0
277 1 0.107194 0.302588 0
279 1 0.129739 0.296125 0
249 1 0.136198 0.271845 0
250 1 0.154353 0.288364 0
251 1 0.160778 0.265767 0
252 1 0.180078 0.286099 0
253 1 0.205615 0.26527 0
254 1 0.209602 0.287994 0
257 1 0.269663 0.259178 0
255 1 0.229637 0.270945 0
256 1 0.251769 0.276839 0
285 1 0.234838 0.295334 0
287 1 0.259208 0.303476 0
258 1 0.273504 0.284106 0
259 1 0.291524 0.267902 0
260 1 0.316358 0.273558 0
289 1 0.298514 0.291555 0
262 1 0.338514 0.280139 0
263 1 0.356822 0.264994 0
291 1 0.321497 0.297952 0
292 1 0.344315 0.302768 0
264 1 0.381186 0.270407 0
293 1 0.367228 0.294357 0
295 1 0.392881 0.295975 0
266 1 0.405069 0.275444 0
267 1 0.428707 0.275173 0
297 1 0.417774 0.295626 0
268 1 0.452747 0.283009 0
1141 1 0.492642 0.270375 0
269 1 0.469517 0.264633 0
270 1 0.476004 0.288431 0
900 1 0.495261 0.9967 0
272 1 0.0311034 0.313864 0
301 1 0.0136855 0.32927 0
303 1 0.0390316 0.337445 0
276 1 0.0821214 0.307464 0
274 1 0.0573874 0.312209 0
305 1 0.0736061 0.328856 0
304 1 0.0605792 0.34724 0
278 1 0.121587 0.321219 0
307 1 0.096848 0.328085 0
308 1 0.11198 0.349915 0
309 1 0.1366 0.339275 0
280 1 0.145783 0.31434 0
311 1 0.160172 0.336243 0
281 1 0.168533 0.307105 0
282 1 0.182287 0.328434 0
283 1 0.193545 0.30761 0
284 1 0.218181 0.314002 0
313 1 0.202122 0.339172 0
315 1 0.225454 0.338094 0
286 1 0.242256 0.320033 0
317 1 0.265339 0.327478 0
316 1 0.248832 0.344197 0
288 1 0.281826 0.310687 0
290 1 0.305093 0.316877 0
319 1 0.290405 0.335238 0
321 1 0.329898 0.323162 0
320 1 0.31756 0.347998 0
322 1 0.345152 0.34615 0
323 1 0.354204 0.323929 0
294 1 0.378334 0.318278 0
325 1 0.393973 0.336693 0
324 1 0.369852 0.34258 0
296 1 0.404685 0.315952 0
298 1 0.435349 0.311015 0
327 1 0.42321 0.331692 0
328 1 0.442448 0.346691 0
299 1 0.458174 0.306657 0
300 1 0.482075 0.311992 0
329 1 0.462854 0.331147 0
1201 1 0.486631 0.337187 0
302 1 0.0211106 0.353592 0
333 1 0.0433033 0.363659 0
332 1 0.0249442 0.378 0
331 1 0.000384 0.369594 0
306 1 0.087073 0.350724 0
335 1 0.0669038 0.370776 0
334 1 0.048507 0.385855 0
337 1 0.0910316 0.374967 0
339 1 0.132277 0.363179 0
338 1 0.113823 0.378192 0
310 1 0.155371 0.359528 0
340 1 0.137805 0.386046 0
341 1 0.162384 0.381734 0
312 1 0.180208 0.352734 0
343 1 0.186198 0.37741 0
314 1 0.205314 0.363069 0
344 1 0.206873 0.387763 0
345 1 0.230994 0.3607 0
347 1 0.256459 0.36864 0
346 1 0.237355 0.384429 0
318 1 0.271247 0.350849 0
349 1 0.295333 0.359442 0
348 1 0.284365 0.381644 0
350 1 0.312518 0.375558 0
351 1 0.336463 0.369158 0
352 1 0.352768 0.387697 0
353 1 0.361948 0.364508 0
355 1 0.386077 0.360276 0
354 1 0.379488 0.382705 0
356 1 0.404089 0.378706 0
326 1 0.411113 0.35405 0
357 1 0.42675 0.371979 0
359 1 0.450598 0.369048 0
358 1 0.443636 0.390874 0
330 1 0.469083 0.354172 0
1231 1 0.492639 0.362013 0
360 1 0.474138 0.378334 0
363 1 0.0307627 0.402168 0
361 1 0.0064746 0.395802 0
362 1 0.0177576 0.421303 0
364 1 0.0426437 0.428565 0
336 1 0.0736995 0.392502 0
365 1 0.0569648 0.409494 0
366 1 0.0862192 0.420635 0
395 1 0.0664372 0.43363 0
367 1 0.0973151 0.398399 0
369 1 0.120131 0.402897 0
368 1 0.113712 0.431293 0
370 1 0.135465 0.420316 0
371 1 0.153726 0.404176 0
401 1 0.157915 0.427645 0
342 1 0.178801 0.402322 0
372 1 0.181452 0.429537 0
373 1 0.200862 0.412965 0
375 1 0.22388 0.403504 0
374 1 0.225013 0.426241 0
377 1 0.259776 0.393111 0
376 1 0.246928 0.4142 0
407 1 0.274052 0.431334 0
378 1 0.27844 0.406791 0
379 1 0.30685 0.399277 0
409 1 0.297336 0.423656 0
381 1 0.330242 0.393998 0
382 1 0.347502 0.411918 0
380 1 0.322085 0.417622 0
411 1 0.340563 0.434519 0
413 1 0.365605 0.428085 0
383 1 0.371447 0.405835 0
385 1 0.396269 0.401615 0
384 1 0.388793 0.424476 0
387 1 0.420169 0.396454 0
388 1 0.437097 0.414555 0
386 1 0.413814 0.420123 0
389 1 0.461026 0.408153 0
1261 1 0.484022 0.401079 0
390 1 0.480263 0.424013 0
419 1 0.455723 0.432338 0
393 1 0.0237408 0.443637 0
392 1 0.00122573 0.452672 0
423 1 0.0324108 0.469383 0
422 1 0.00939064 0.475802 0
394 1 0.0488768 0.45272 0
396 1 0.0730813 0.458226 0
425 1 0.0586693 0.477631 0
397 1 0.0931411 0.44413 0
398 1 0.113186 0.456455 0
427 1 0.0948431 0.471906 0
399 1 0.134353 0.443743 0
400 1 0.15856 0.450454 0
429 1 0.140399 0.466763 0
431 1 0.165823 0.47336 0
403 1 0.203835 0.437816 0
402 1 0.183723 0.453502 0
404 1 0.227364 0.449933 0
433 1 0.207174 0.461409 0
432 1 0.189802 0.477959 0
405 1 0.247732 0.438725 0
406 1 0.266358 0.455592 0
435 1 0.243403 0.466942 0
408 1 0.291442 0.44823 0
410 1 0.315816 0.441605 0
437 1 0.28609 0.470928 0
439 1 0.310111 0.46435 0
412 1 0.358112 0.451436 0
441 1 0.333573 0.457132 0
442 1 0.350981 0.473803 0
415 1 0.405108 0.441925 0
414 1 0.381625 0.446803 0
443 1 0.374863 0.470122 0
445 1 0.397604 0.46464 0
417 1 0.432716 0.436984 0
418 1 0.450759 0.456366 0
416 1 0.422439 0.459359 0
447 1 0.438026 0.477239 0
420 1 0.47717 0.447878 0
1321 1 0.497091 0.459491 0
449 1 0.472936 0.471666 0
453 1 0.0155266 0.498703 0
454 1 0.0388326 0.516928 0
424 1 0.0385039 0.49149 0
426 1 0.0785951 0.489099 0
455 1 0.0591639 0.502735 0
456 1 0.0819037 0.513184 0
428 1 0.120324 0.479217 0
457 1 0.102609 0.497625 0
459 1 0.126777 0.503954 0
430 1 0.145794 0.488846 0
461 1 0.173941 0.495576 0
460 1 0.15526 0.512467 0
462 1 0.179545 0.518227 0
434 1 0.217699 0.48373 0
463 1 0.200435 0.50105 0
464 1 0.222222 0.50698 0
436 1 0.26431 0.481782 0
465 1 0.242622 0.493223 0
466 1 0.245858 0.518106 0
467 1 0.276702 0.502209 0
438 1 0.301921 0.489061 0
468 1 0.296174 0.516218 0
469 1 0.319326 0.503554 0
440 1 0.327916 0.48175 0
470 1 0.335804 0.519381 0
471 1 0.347766 0.497167 0
444 1 0.391487 0.491441 0
473 1 0.371418 0.505052 0
474 1 0.392704 0.520743 0
475 1 0.411413 0.505964 0
446 1 0.413954 0.481245 0
477 1 0.434488 0.508724 0
448 1 0.457113 0.492352 0
450 1 0.497699 0.483013 0
479 1 0.479026 0.502128 0
478 1 0.457478 0.51715 0
452 1 0.0160488 0.523167 0
483 1 0.0334354 0.540131 0
482 1 0.010294 0.546966 0
485 1 0.0593573 0.528273 0
484 1 0.0509602 0.555143 0
486 1 0.0744048 0.547051 0
458 1 0.110649 0.5201 0
487 1 0.0957844 0.538388 0
488 1 0.120523 0.544834 0
489 1 0.136947 0.527777 0
491 1 0.162204 0.536123 0
490 1 0.145817 0.55305 0
521 1 0.168219 0.560331 0
493 1 0.203135 0.524932 0
492 1 0.184342 0.542386 0
494 1 0.207668 0.549907 0
495 1 0.226893 0.533592 0
525 1 0.23196 0.557685 0
496 1 0.250847 0.542395 0
497 1 0.270174 0.52726 0
527 1 0.273363 0.551579 0
499 1 0.315231 0.531052 0
498 1 0.29462 0.540704 0
529 1 0.297915 0.566994 0
500 1 0.318839 0.555369 0
472 1 0.358277 0.527575 0
501 1 0.338108 0.542633 0
502 1 0.359958 0.554304 0
503 1 0.378505 0.539136 0
505 1 0.400655 0.54787 0
504 1 0.38261 0.562916 0
476 1 0.416665 0.529785 0
507 1 0.440141 0.53391 0
506 1 0.423678 0.554643 0
508 1 0.445801 0.562386 0
480 1 0.480783 0.525431 0
509 1 0.463483 0.541761 0
510 1 0.492918 0.546291 0
539 1 0.46782 0.565587 0
513 1 0.0248186 0.567042 0
512 1 0.0272089 0.592972 0
541 1 0.00718446 0.606251 0
511 1 0.00352767 0.583139 0
543 1 0.0481722 0.605345 0
514 1 0.0481697 0.579955 0
515 1 0.069934 0.570399 0
545 1 0.067949 0.594487 0
516 1 0.0901265 0.583907 0
517 1 0.102546 0.563282 0
519 1 0.128105 0.568809 0
518 1 0.113287 0.587023 0
547 1 0.0948739 0.609896 0
549 1 0.135109 0.595893 0
520 1 0.150418 0.577367 0
551 1 0.159645 0.603215 0
522 1 0.173084 0.584353 0
523 1 0.190613 0.567597 0
524 1 0.212569 0.575915 0
553 1 0.193847 0.593061 0
554 1 0.217962 0.598672 0
526 1 0.25451 0.565707 0
555 1 0.237491 0.582221 0
557 1 0.25851 0.593373 0
528 1 0.276708 0.57796 0
558 1 0.279569 0.604799 0
559 1 0.298294 0.590591 0
531 1 0.341229 0.568395 0
530 1 0.320467 0.581681 0
561 1 0.325071 0.606688 0
532 1 0.345174 0.591899 0
533 1 0.364841 0.577749 0
563 1 0.368466 0.602722 0
534 1 0.38688 0.588164 0
535 1 0.404058 0.572019 0
537 1 0.426884 0.578597 0
536 1 0.409887 0.596005 0
567 1 0.434428 0.602246 0
538 1 0.453209 0.586068 0
540 1 0.487796 0.576617 0
569 1 0.476085 0.597428 0
542 1 0.0276193 0.617839 0
571 1 0.00606511 0.631852 0
573 1 0.0279874 0.643657 0
544 1 0.0485678 0.630509 0
546 1 0.0701291 0.617464 0
575 1 0.0708593 0.640372 0
548 1 0.118047 0.611751 0
577 1 0.112049 0.634544 0
579 1 0.134494 0.644549 0
576 1 0.0923428 0.648118 0
550 1 0.140972 0.621675 0
581 1 0.163161 0.62928 0
552 1 0.181641 0.613726 0
582 1 0.185466 0.637225 0
583 1 0.211603 0.622881 0
584 1 0.214091 0.650002 0
556 1 0.239607 0.608754 0
585 1 0.234295 0.633041 0
586 1 0.256518 0.642944 0
587 1 0.261055 0.61848 0
560 1 0.301756 0.613432 0
589 1 0.283426 0.62862 0
590 1 0.305921 0.637068 0
562 1 0.348597 0.61713 0
591 1 0.33001 0.639046 0
593 1 0.353234 0.639561 0
565 1 0.39109 0.611979 0
564 1 0.372493 0.626868 0
595 1 0.394093 0.636154 0
566 1 0.413778 0.620171 0
596 1 0.418102 0.644283 0
597 1 0.437478 0.625952 0
568 1 0.456421 0.609912 0
570 1 0.484133 0.621319 0
599 1 0.461714 0.634033 0
600 1 0.484381 0.647697 0
572 1 0.00913033 0.657806 0
602 1 0.0120355 0.68223 0
603 1 0.0312464 0.668634 0
633 1 0.0366113 0.694143 0
574 1 0.0509171 0.655152 0
605 1 0.0738402 0.663958 0
604 1 0.0551286 0.678705 0
606 1 0.07669 0.689402 0
578 1 0.115543 0.658946 0
607 1 0.0963234 0.673338 0
608 1 0.118274 0.68294 0
580 1 0.156823 0.653718 0
609 1 0.136862 0.668661 0
611 1 0.178001 0.663096 0
610 1 0.159754 0.678231 0
639 1 0.141156 0.6924 0
612 1 0.181428 0.68755 0
613 1 0.200768 0.670985 0
614 1 0.223267 0.679023 0
615 1 0.236333 0.658304 0
616 1 0.244337 0.686985 0
617 1 0.25932 0.667822 0
647 1 0.269135 0.694987 0
588 1 0.278015 0.653469 0
619 1 0.301217 0.66022 0
618 1 0.284077 0.676246 0
620 1 0.308202 0.682727 0
621 1 0.326122 0.663683 0
592 1 0.351097 0.663208 0
622 1 0.338886 0.684391 0
594 1 0.374274 0.651259 0
625 1 0.396174 0.662705 0
623 1 0.370274 0.677309 0
624 1 0.38517 0.696882 0
626 1 0.408751 0.690185 0
598 1 0.439514 0.654535 0
627 1 0.418695 0.668043 0
657 1 0.433452 0.689572 0
628 1 0.458425 0.684335 0
629 1 0.464672 0.661051 0
630 1 0.48487 0.67793 0
899 1 0.472683 0.990937 0
870 1 0.466918 0.957742 0
632 1 0.0151679 0.705749 0
663 1 0.0157153 0.728877 0
634 1 0.0380556 0.719065 0
635 1 0.0576355 0.704616 0
665 1 0.0593029 0.730854 0
636 1 0.0792259 0.71544 0
637 1 0.0979393 0.699477 0
638 1 0.121037 0.707609 0
667 1 0.101819 0.723533 0
669 1 0.124571 0.73486 0
641 1 0.162077 0.703507 0
640 1 0.143282 0.716264 0
671 1 0.166222 0.72801 0
643 1 0.204747 0.696911 0
642 1 0.185784 0.711267 0
673 1 0.191134 0.734345 0
644 1 0.210414 0.720362 0
645 1 0.227789 0.704387 0
675 1 0.232971 0.728106 0
646 1 0.251408 0.711109 0
677 1 0.258081 0.736115 0
649 1 0.292513 0.700162 0
650 1 0.315307 0.704942 0
648 1 0.27675 0.717908 0
679 1 0.302606 0.725055 0
653 1 0.361653 0.701259 0
651 1 0.339089 0.708437 0
681 1 0.328933 0.731099 0
652 1 0.355384 0.72632 0
655 1 0.402961 0.712359 0
654 1 0.379522 0.719688 0
685 1 0.396917 0.736845 0
656 1 0.426899 0.714971 0
658 1 0.450326 0.706521 0
687 1 0.444249 0.731326 0
686 1 0.419822 0.73884 0
659 1 0.47543 0.701331 0
660 1 0.49122 0.720677 0
689 1 0.467074 0.724133 0
662 1 0.0210587 0.751558 0
691 1 0.00405024 0.769539 0
693 1 0.0272617 0.775164 0
664 1 0.0450481 0.751059 0
666 1 0.0834739 0.739194 0
695 1 0.0681314 0.758421 0
694 1 0.052019 0.776259 0
697 1 0.0912863 0.768039 0
668 1 0.105713 0.750624 0
698 1 0.11354 0.776709 0
699 1 0.129865 0.760289 0
670 1 0.147452 0.745185 0
701 1 0.153653 0.768563 0
672 1 0.17188 0.750782 0
702 1 0.176254 0.775839 0
674 1 0.214574 0.743493 0
703 1 0.196141 0.757331 0
705 1 0.218273 0.767929 0
704 1 0.19968 0.78102 0
676 1 0.237312 0.752401 0
706 1 0.243964 0.777342 0
707 1 0.261459 0.760316 0
678 1 0.281097 0.740824 0
680 1 0.3057 0.752667 0
709 1 0.284512 0.765975 0
710 1 0.3065 0.777816 0
682 1 0.346747 0.749689 0
711 1 0.326628 0.763825 0
712 1 0.34639 0.778128 0
683 1 0.372701 0.743392 0
713 1 0.367403 0.766902 0
684 1 0.391243 0.759507 0
714 1 0.386893 0.782639 0
715 1 0.415747 0.763721 0
717 1 0.437718 0.754365 0
718 1 0.447092 0.775853 0
690 1 0.49065 0.756322 0
688 1 0.462324 0.755074 0
719 1 0.476475 0.776373 0
1591 1 0.5004 0.779984 0
692 1 0.0102581 0.793159 0
722 1 0.0187488 0.817127 0
723 1 0.0339426 0.797477 0
696 1 0.0736451 0.785387 0
725 1 0.0564833 0.800739 0
726 1 0.078722 0.809713 0
724 1 0.0458797 0.822599 0
700 1 0.135127 0.784927 0
727 1 0.0961116 0.79275 0
728 1 0.11988 0.803707 0
757 1 0.101121 0.818209 0
729 1 0.142374 0.81381 0
730 1 0.166391 0.816401 0
731 1 0.157632 0.793037 0
732 1 0.181547 0.79818 0
733 1 0.203826 0.804612 0
735 1 0.223086 0.790627 0
734 1 0.21641 0.824426 0
763 1 0.190872 0.826077 0
736 1 0.236988 0.809971 0
737 1 0.25817 0.799134 0
767 1 0.257508 0.824217 0
708 1 0.282916 0.789721 0
738 1 0.278521 0.812671 0
739 1 0.304651 0.802011 0
740 1 0.323383 0.816472 0
741 1 0.326047 0.790691 0
742 1 0.345173 0.804676 0
743 1 0.367306 0.795886 0
744 1 0.37361 0.820353 0
745 1 0.392933 0.806032 0
716 1 0.409227 0.787261 0
746 1 0.41738 0.81115 0
747 1 0.435942 0.79713 0
748 1 0.444542 0.822654 0
720 1 0.48464 0.79862 0
749 1 0.460367 0.795251 0
750 1 0.469282 0.81721 0
1621 1 0.492459 0.822953 0
751 1 0.0015954 0.833932 0
752 1 0.0105505 0.856388 0
753 1 0.0281568 0.83961 0
783 1 0.0340211 0.86345 0
754 1 0.0528984 0.849064 0
755 1 0.0721834 0.832717 0
785 1 0.0767985 0.857693 0
756 1 0.097263 0.84251 0
759 1 0.123991 0.831284 0
758 1 0.118165 0.854572 0
787 1 0.098436 0.869078 0
789 1 0.139188 0.866875 0
760 1 0.146316 0.840196 0
791 1 0.162473 0.861467 0
761 1 0.170203 0.839549 0
762 1 0.186422 0.857957 0
764 1 0.207461 0.846027 0
765 1 0.236044 0.835948 0
795 1 0.229865 0.85896 0
766 1 0.257203 0.848979 0
797 1 0.277583 0.863738 0
769 1 0.300286 0.826864 0
768 1 0.278976 0.837489 0
799 1 0.299467 0.851977 0
770 1 0.323346 0.84373 0
801 1 0.321467 0.868228 0
771 1 0.343068 0.831003 0
772 1 0.344643 0.856895 0
773 1 0.363478 0.842602 0
775 1 0.397509 0.82977 0
774 1 0.385049 0.853842 0
776 1 0.40963 0.853692 0
777 1 0.42267 0.834039 0
778 1 0.441083 0.852138 0
779 1 0.464169 0.842618 0
780 1 0.482439 0.861515 0
809 1 0.458557 0.868043 0
782 1 0.0138011 0.88032 0
813 1 0.0372875 0.887282 0
812 1 0.0209477 0.902856 0
784 1 0.0570974 0.873997 0
786 1 0.0797342 0.88329 0
815 1 0.0590024 0.897841 0
816 1 0.0798337 0.90862 0
817 1 0.0999185 0.89422 0
788 1 0.11924 0.88053 0
819 1 0.122881 0.904015 0
790 1 0.143507 0.890761 0
821 1 0.165557 0.903024 0
792 1 0.176419 0.881363 0
793 1 0.208169 0.871279 0
823 1 0.19766 0.894261 0
794 1 0.232093 0.884798 0
796 1 0.254385 0.872405 0
825 1 0.232047 0.910228 0
827 1 0.252728 0.896622 0
798 1 0.275117 0.887455 0
828 1 0.273866 0.910814 0
800 1 0.298305 0.876427 0
829 1 0.298701 0.900731 0
831 1 0.322181 0.891711 0
802 1 0.346369 0.883524 0
832 1 0.340703 0.910352 0
805 1 0.396239 0.87519 0
803 1 0.370604 0.876779 0
833 1 0.364422 0.902433 0
804 1 0.387629 0.896616 0
807 1 0.425259 0.871238 0
806 1 0.413273 0.892795 0
808 1 0.443301 0.889145 0
837 1 0.431141 0.911322 0
839 1 0.455935 0.910411 0
1681 1 0.495223 0.885825 0
810 1 0.469953 0.890261 0
840 1 0.48014 0.912607 0
842 1 0.0101556 0.949018 0
843 1 0.0182864 0.927197 0
814 1 0.0403879 0.91803 0
844 1 0.0339509 0.944392 0
845 1 0.0575547 0.93605 0
846 1 0.0757419 0.955805 0
847 1 0.0802768 0.932301 0
818 1 0.101176 0.919555 0
848 1 0.100503 0.946058 0
849 1 0.124137 0.928209 0
879 1 0.122554 0.952286 0
820 1 0.14559 0.916362 0
850 1 0.144956 0.943864 0
851 1 0.166614 0.929945 0
852 1 0.165266 0.954182 0
824 1 0.209295 0.91976 0
822 1 0.185514 0.915193 0
853 1 0.187398 0.939495 0
854 1 0.208875 0.950587 0
855 1 0.230035 0.93793 0
826 1 0.250969 0.923619 0
856 1 0.252312 0.949295 0
857 1 0.271373 0.935015 0
858 1 0.288743 0.950627 0
859 1 0.295807 0.926877 0
860 1 0.31319 0.943389 0
830 1 0.317197 0.91747 0
861 1 0.333977 0.9332 0
862 1 0.347908 0.952295 0
863 1 0.357184 0.926919 0
835 1 0.404816 0.914971 0
834 1 0.380362 0.922201 0
864 1 0.372014 0.946954 0
865 1 0.398119 0.939456 0
838 1 0.444235 0.932319 0
836 1 0.42047 0.933591 0
867 1 0.439689 0.954971 0
866 1 0.413623 0.957454 0
1741 1 0.488274 0.944757 0
869 1 0.467684 0.934026 0
872 1 0.0235298 0.992808 0
873 1 0.028658 0.96792 0
871 1 0.00669976 0.974749 0
874 1 0.0470464 0.986892 0
875 1 0.0529283 0.962312 0
876 1 0.0696147 0.980378 0
7 1 0.089214 0.99697 0
877 1 0.0954556 0.971836 0
878 1 0.122361 0.978754 0
880 1 0.146516 0.991146 0
881 1 0.144308 0.967591 0
882 1 0.166904 0.978044 0
15 1 0.220204 0.999575 0
13 1 0.189108 0.990325 0
883 1 0.187513 0.963761 0
884 1 0.209329 0.976296 0
885 1 0.230862 0.964126 0
886 1 0.245018 0.997045 0
17 1 0.270368 0.994571 0
887 1 0.25461 0.97496 0
888 1 0.278511 0.972365 0
19 1 0.296079 0.993974 0
889 1 0.303848 0.96878 0
891 1 0.327069 0.96419 0
890 1 0.321249 0.988021 0
23 1 0.360259 0.999151 0
892 1 0.344658 0.980503 0
893 1 0.367512 0.972743 0
895 1 0.389701 0.966024 0
894 1 0.384414 0.989791 0
896 1 0.407398 0.985727 0
868 1 0.452778 0.978766 0
897 1 0.428841 0.976471 0
1441 1 0.500094 0.5976 0
1 1 -0.000169525 0.998895 0
902 1 0.538929 0.0157743 0
933 1 0.546011 0.0404442 0
931 1 0.522466 0.0321084 0
901 1 0.518119 0.00553419 0
904 1 0.563729 0.022569 0
935 1 0.584784 0.0336111 0
906 1 0.583005 0.00814091 0
908 1 0.605066 0.0160625 0
937 1 0.609224 0.0394168 0
939 1 0.627939 0.0241743 0
909 1 0.627751 0.998698 0
910 1 0.649277 0.00804007 0
941 1 0.652724 0.0315389 0
912 1 0.671714 0.0171321 0
942 1 0.677777 0.0407544 0
943 1 0.694154 0.0247666 0
914 1 0.712264 0.0105585 0
945 1 0.720521 0.0334381 0
913 1 0.690937 -6.05107e-05 0
916 1 0.752258 0.00518524 0
947 1 0.747891 0.0292022 0
948 1 0.771156 0.0420687 0
918 1 0.774191 0.0165734 0
919 1 0.796542 0.00274983 0
949 1 0.793035 0.0323596 0
920 1 0.819847 0.00806888 0
951 1 0.817296 0.0318539 0
922 1 0.839056 0.0225486 0
923 1 0.862325 0.0138697 0
953 1 0.860596 0.0383437 0
924 1 0.886022 0.00550099 0
955 1 0.902596 0.0228827 0
954 1 0.883683 0.0376878 0
925 1 0.909645 1.00023 0
926 1 0.927757 0.0178056 0
928 1 0.951339 0.011301 0
957 1 0.945861 0.0361984 0
930 1 0.992156 0.0231627 0
959 1 0.96998 0.0295618 0
929 1 0.975665 0.00514893 0
932 1 0.52736 0.0548891 0
962 1 0.536944 0.0866782 0
961 1 0.515122 0.0790664 0
60 1 0.502831 0.0467561 0
963 1 0.550753 0.0650524 0
934 1 0.568747 0.0502593 0
936 1 0.592886 0.057132 0
965 1 0.574141 0.0746384 0
966 1 0.597092 0.0828084 0
938 1 0.632049 0.0484283 0
967 1 0.615394 0.066697 0
969 1 0.638142 0.0746878 0
940 1 0.654903 0.0554528 0
970 1 0.662398 0.0821008 0
971 1 0.679251 0.0650063 0
944 1 0.701707 0.0475747 0
973 1 0.702401 0.0727798 0
975 1 0.722882 0.0583955 0
974 1 0.725573 0.0815279 0
976 1 0.748287 0.0767023 0
946 1 0.748649 0.052865 0
977 1 0.769541 0.0665417 0
979 1 0.790801 0.0580848 0
950 1 0.81529 0.0546387 0
980 1 0.810738 0.0778566 0
978 1 0.788178 0.0848407 0
981 1 0.834397 0.0720875 0
952 1 0.837837 0.0474538 0
983 1 0.862957 0.0634681 0
985 1 0.887962 0.0621308 0
984 1 0.876286 0.0834333 0
956 1 0.908373 0.0458966 0
986 1 0.91094 0.0700933 0
987 1 0.931003 0.0553511 0
1017 1 0.933391 0.0809164 0
960 1 0.986256 0.0466665 0
988 1 0.957332 0.0769689 0
958 1 0.963184 0.0531372 0
989 1 0.980012 0.0694284 0
991 1 0.51901 0.102806 0
992 1 0.526655 0.129057 0
993 1 0.54297 0.110539 0
964 1 0.559182 0.0931816 0
994 1 0.567466 0.119063 0
995 1 0.582894 0.101708 0
996 1 0.589797 0.12575 0
968 1 0.620808 0.0904294 0
997 1 0.606115 0.108498 0
998 1 0.6301 0.114884 0
972 1 0.685791 0.0898714 0
999 1 0.645147 0.0975684 0
1000 1 0.652179 0.122514 0
1001 1 0.669656 0.105667 0
1031 1 0.673839 0.132059 0
1002 1 0.690533 0.11508 0
1003 1 0.707904 0.0957143 0
1004 1 0.714685 0.119318 0
1005 1 0.742048 0.0996931 0
1006 1 0.760409 0.116373 0
1007 1 0.766133 0.0928661 0
1035 1 0.738161 0.123502 0
1008 1 0.78438 0.108694 0
1009 1 0.806877 0.10241 0
1039 1 0.800945 0.126045 0
982 1 0.853776 0.0877232 0
1010 1 0.824111 0.119527 0
1011 1 0.830117 0.0962597 0
1012 1 0.847369 0.113092 0
1043 1 0.863969 0.131716 0
1013 1 0.869633 0.108321 0
1014 1 0.886736 0.12445 0
1015 1 0.90106 0.0933407 0
1016 1 0.908828 0.118098 0
1018 1 0.953328 0.101074 0
1047 1 0.930791 0.106995 0
1049 1 0.95121 0.125525 0
1046 1 0.928622 0.131489 0
990 1 0.998341 0.0859173 0
1019 1 0.975835 0.0932905 0
1020 1 0.974473 0.116159 0
1022 1 0.533348 0.153258 0
1023 1 0.548914 0.135041 0
1051 1 0.511679 0.169397 0
1021 1 0.506562 0.144756 0
1024 1 0.555289 0.160338 0
1025 1 0.572202 0.14266 0
1055 1 0.578461 0.167622 0
1026 1 0.596533 0.149438 0
1027 1 0.612568 0.131689 0
1028 1 0.618414 0.157114 0
1029 1 0.634535 0.139598 0
1059 1 0.64038 0.165652 0
1030 1 0.657226 0.149354 0
1061 1 0.66787 0.17095 0
1032 1 0.683723 0.153741 0
1033 1 0.70201 0.138675 0
1063 1 0.711207 0.161979 0
1034 1 0.727753 0.144414 0
1036 1 0.753184 0.143531 0
1067 1 0.772432 0.155992 0
1065 1 0.735333 0.168003 0
1037 1 0.777641 0.133366 0
1038 1 0.795521 0.150253 0
1040 1 0.81832 0.142941 0
1069 1 0.811484 0.166289 0
1071 1 0.83442 0.159204 0
1041 1 0.840277 0.136506 0
1042 1 0.859235 0.154276 0
1044 1 0.882135 0.147828 0
1045 1 0.904248 0.140622 0
1075 1 0.900197 0.165349 0
1073 1 0.875794 0.170321 0
1048 1 0.947797 0.150036 0
1077 1 0.923248 0.157033 0
121 1 0.994992 0.131359 0
1050 1 0.971524 0.140216 0
151 1 0.991406 0.155546 0
1079 1 0.96498 0.164857 0
1053 1 0.536528 0.177374 0
1052 1 0.517887 0.191502 0
1083 1 0.543683 0.200294 0
1054 1 0.560895 0.18353 0
1056 1 0.584637 0.19193 0
1085 1 0.566684 0.208686 0
1086 1 0.590472 0.215877 0
1057 1 0.602166 0.174821 0
1058 1 0.624285 0.182727 0
1087 1 0.607854 0.200806 0
1089 1 0.6322 0.207833 0
1060 1 0.648828 0.188346 0
1091 1 0.672235 0.193792 0
1090 1 0.655189 0.211066 0
1062 1 0.691412 0.177891 0
1093 1 0.696772 0.201429 0
1064 1 0.716315 0.183944 0
1094 1 0.722113 0.207441 0
1095 1 0.742364 0.193297 0
1066 1 0.7597 0.174887 0
1097 1 0.765053 0.199103 0
1096 1 0.747316 0.217108 0
1068 1 0.787928 0.175069 0
1098 1 0.78834 0.203834 0
1099 1 0.807567 0.189641 0
1100 1 0.823305 0.207557 0
1070 1 0.829948 0.183434 0
1072 1 0.851753 0.177828 0
1101 1 0.847119 0.202382 0
1103 1 0.870267 0.19515 0
1074 1 0.89239 0.187702 0
1104 1 0.887575 0.2126 0
1105 1 0.913296 0.205203 0
1076 1 0.918337 0.180853 0
1078 1 0.942294 0.173134 0
1107 1 0.936463 0.197411 0
1080 1 0.983225 0.178484 0
1109 1 0.963587 0.196025 0
181 1 0.988399 0.201746 0
1082 1 0.526363 0.215832 0
1111 1 0.507494 0.230567 0
1113 1 0.529867 0.238241 0
1112 1 0.511245 0.254516 0
1084 1 0.549423 0.226284 0
1114 1 0.556097 0.249558 0
1115 1 0.574258 0.233676 0
1116 1 0.580334 0.257997 0
1088 1 0.613618 0.224179 0
1117 1 0.596735 0.24003 0
1118 1 0.619787 0.247679 0
1119 1 0.63816 0.229984 0
1121 1 0.662746 0.234754 0
1120 1 0.644711 0.253255 0
1092 1 0.679021 0.218378 0
1151 1 0.667288 0.260675 0
1122 1 0.686236 0.242115 0
1123 1 0.70414 0.224108 0
1124 1 0.711178 0.249274 0
1125 1 0.728267 0.232288 0
1126 1 0.753792 0.239881 0
1155 1 0.734484 0.25677 0
1127 1 0.771482 0.222922 0
1129 1 0.79446 0.227674 0
1128 1 0.778068 0.246313 0
1159 1 0.801967 0.251888 0
1130 1 0.817333 0.232069 0
1131 1 0.840504 0.225823 0
1132 1 0.854353 0.245187 0
1161 1 0.829396 0.252338 0
1102 1 0.864372 0.218721 0
1133 1 0.877889 0.241044 0
1135 1 0.901401 0.231462 0
1134 1 0.893057 0.259433 0
1108 1 0.950769 0.2179 0
1136 1 0.915658 0.250433 0
1106 1 0.92494 0.225901 0
1137 1 0.939837 0.245131 0
1110 1 0.974467 0.220851 0
1139 1 0.965523 0.244347 0
1140 1 0.990181 0.245744 0
211 1 0.999226 0.222722 0
1142 1 0.517897 0.27873 0
1143 1 0.536431 0.261409 0
1144 1 0.541506 0.287881 0