ITEM: TIMESTEP
168000
ITEM: NUMBER OF ATOMS
1800
ITEM: BOX BOUNDS pp pp pp
9.3840104552525361e-01 1.6406159895447462e+02
9.3840104552525361e-01 1.6406159895447462e+02
0.0000000000000000e+00 5.5000000000000000e+00
ITEM: ATOMS id type xs ys zs
2 1 0.0128234 0.00714101 0
33 1 0.0283972 0.0266205 0
31 1 0.00428332 0.030666 0
3 1 0.0370642 0.00206282 0
34 1 0.044958 0.0443844 0
4 1 0.0531637 0.0208715 0
6 1 0.0781634 0.0158653 0
35 1 0.0693194 0.0408998 0
8 1 0.101768 0.0127388 0
39 1 0.125933 0.0358287 0
37 1 0.0924093 0.0355768 0
9 1 0.125616 0.00811705 0
10 1 0.146801 0.0199823 0
41 1 0.169571 0.028913 0
40 1 0.149456 0.0449889 0
11 1 0.166305 0.00280723 0
12 1 0.18924 0.0135635 0
43 1 0.193394 0.0380007 0
14 1 0.212449 0.0230741 0
15 1 0.232764 0.00845755 0
45 1 0.234731 0.03335 0
16 1 0.255969 0.0184246 0
46 1 0.258211 0.0430484 0
18 1 0.280512 0.0273892 0
49 1 0.305421 0.0208404 0
17 1 0.276786 0.00235321 0
51 1 0.318129 0.0424861 0
20 1 0.333096 0.0235109 0
22 1 0.357202 0.0292066 0
21 1 0.34961 0.00459173 0
24 1 0.382262 0.0335668 0
23 1 0.373177 0.00946802 0
55 1 0.406823 0.0395296 0
894 1 0.398691 0.0144219 0
25 1 0.423323 0.0200016 0
26 1 0.432162 0.0439149 0
27 1 0.447523 0.0252421 0
897 1 0.440334 0.00198337 0
29 1 0.472545 0.0303289 0
900 1 0.48871 0.011914 0
898 1 0.464569 0.00736092 0
30 1 0.497358 0.0346934 0
32 1 0.0208112 0.0495616 0
62 1 0.0132284 0.0732108 0
63 1 0.0374808 0.0681086 0
65 1 0.0619933 0.0645945 0
36 1 0.085683 0.0604451 0
66 1 0.0786031 0.0842318 0
64 1 0.0540304 0.0876355 0
38 1 0.108676 0.0529494 0
68 1 0.129288 0.0877846 0
69 1 0.130692 0.0630124 0
67 1 0.104798 0.0774927 0
71 1 0.153218 0.0705172 0
42 1 0.172496 0.0546397 0
72 1 0.174702 0.0802991 0
44 1 0.216166 0.0492367 0
73 1 0.196291 0.0641438 0
74 1 0.218491 0.075249 0
103 1 0.198778 0.0901765 0
75 1 0.238668 0.0584251 0
77 1 0.261215 0.0679011 0
76 1 0.241639 0.0833581 0
47 1 0.280329 0.0527513 0
48 1 0.283638 0.0772143 0
79 1 0.307171 0.084787 0
50 1 0.302747 0.0608265 0
52 1 0.342067 0.0472263 0
81 1 0.325658 0.0665536 0
82 1 0.349137 0.0723006 0
83 1 0.366333 0.0524159 0
53 1 0.390063 0.0568449 0
54 1 0.397573 0.080133 0
113 1 0.373036 0.0761492 0
57 1 0.439427 0.0675329 0
56 1 0.415357 0.0627878 0
85 1 0.421804 0.0861 0
28 1 0.455402 0.0487825 0
59 1 0.480472 0.0539503 0
58 1 0.463988 0.07218 0
89 1 0.487137 0.0785628 0
93 1 0.0290661 0.0923921 0
92 1 0.0198241 0.115804 0
91 1 0.0049497 0.0961073 0
123 1 0.0359186 0.134049 0
94 1 0.0449632 0.110873 0
95 1 0.0698086 0.106443 0
96 1 0.0882239 0.124121 0
125 1 0.0618579 0.129841 0
97 1 0.0975438 0.101218 0
98 1 0.112549 0.121448 0
99 1 0.134115 0.111698 0
70 1 0.154076 0.0961964 0
100 1 0.157189 0.120545 0
101 1 0.178078 0.10466 0
131 1 0.181415 0.129402 0
102 1 0.201655 0.114561 0
104 1 0.22562 0.122768 0
105 1 0.222562 0.0989032 0
107 1 0.264874 0.0922734 0
106 1 0.245518 0.108363 0
135 1 0.248566 0.131921 0
137 1 0.268867 0.116738 0
78 1 0.289144 0.101248 0
108 1 0.291109 0.125359 0
109 1 0.312302 0.109527 0
139 1 0.313317 0.134155 0
80 1 0.331549 0.090669 0
111 1 0.354719 0.096835 0
110 1 0.337692 0.116016 0
141 1 0.359806 0.123658 0
112 1 0.379935 0.0993591 0
143 1 0.386545 0.122473 0
84 1 0.403942 0.103437 0
87 1 0.446682 0.0906898 0
115 1 0.414534 0.126051 0
86 1 0.430546 0.108363 0
116 1 0.437955 0.132146 0
117 1 0.454375 0.114138 0
88 1 0.471219 0.096727 0
90 1 0.495571 0.101217 0
119 1 0.478802 0.119992 0
122 1 0.0115674 0.13873 0
153 1 0.0288501 0.15709 0
152 1 0.0041277 0.161527 0
183 1 0.0195368 0.180511 0
154 1 0.0449232 0.176567 0
124 1 0.0534682 0.152929 0
126 1 0.0787918 0.147984 0
155 1 0.0695276 0.172156 0
129 1 0.135896 0.138257 0
127 1 0.103815 0.144249 0
128 1 0.118669 0.16284 0
157 1 0.0939786 0.167579 0
159 1 0.143386 0.161601 0
130 1 0.161978 0.144877 0
161 1 0.165883 0.170707 0
132 1 0.185327 0.153916 0
133 1 0.205337 0.13942 0
163 1 0.207909 0.164401 0
162 1 0.187975 0.180996 0
134 1 0.229088 0.148471 0
164 1 0.232199 0.173298 0
165 1 0.251896 0.158619 0
136 1 0.271987 0.142071 0
167 1 0.276109 0.166003 0
138 1 0.29496 0.15044 0
168 1 0.299403 0.175205 0
169 1 0.318466 0.158194 0
140 1 0.33642 0.141017 0
171 1 0.340936 0.167015 0
172 1 0.363284 0.175905 0
142 1 0.359958 0.148043 0
114 1 0.398349 0.142863 0
144 1 0.403992 0.166442 0
173 1 0.381349 0.159555 0
145 1 0.421852 0.150043 0
147 1 0.444878 0.155368 0
146 1 0.427616 0.174103 0
177 1 0.451333 0.180368 0
118 1 0.462445 0.137445 0
149 1 0.48685 0.143906 0
148 1 0.468821 0.161579 0
150 1 0.492815 0.168502 0
182 1 0.0103199 0.203926 0
184 1 0.0355032 0.199537 0
213 1 0.027466 0.222446 0
212 1 0.00233001 0.227765 0
185 1 0.0615024 0.195441 0
156 1 0.0863377 0.192078 0
186 1 0.0765782 0.214849 0
215 1 0.0511011 0.218296 0
158 1 0.110574 0.186248 0
189 1 0.126512 0.205717 0
187 1 0.107561 0.221999 0
160 1 0.14441 0.185514 0
191 1 0.169425 0.196357 0
190 1 0.150451 0.214227 0
221 1 0.174573 0.221412 0
193 1 0.212338 0.189056 0
192 1 0.194058 0.205155 0
194 1 0.216744 0.214782 0
166 1 0.256227 0.182231 0
195 1 0.236587 0.197479 0
196 1 0.261028 0.207153 0
225 1 0.240882 0.221726 0
197 1 0.279941 0.190381 0
199 1 0.303534 0.199422 0
198 1 0.285002 0.215578 0
229 1 0.308427 0.224338 0
170 1 0.323122 0.183651 0
201 1 0.345484 0.19219 0
200 1 0.326435 0.208165 0
202 1 0.350128 0.216021 0
174 1 0.386778 0.183668 0
203 1 0.368441 0.200399 0
204 1 0.391776 0.207597 0
233 1 0.373902 0.224058 0
175 1 0.410394 0.191619 0
205 1 0.416427 0.215457 0
176 1 0.433767 0.197503 0
207 1 0.440368 0.2208 0
178 1 0.458172 0.204001 0
179 1 0.474932 0.185518 0
209 1 0.481918 0.209743 0
180 1 0.499467 0.191811 0
243 1 0.0183503 0.246354 0
214 1 0.0421721 0.242164 0
244 1 0.0332248 0.266313 0
242 1 0.00953586 0.270018 0
216 1 0.0662305 0.236624 0
245 1 0.0739382 0.259425 0
217 1 0.0900017 0.240527 0
218 1 0.114318 0.246235 0
247 1 0.0969115 0.264754 0
188 1 0.132582 0.230842 0
249 1 0.120327 0.270708 0
219 1 0.138913 0.254788 0
220 1 0.157092 0.238231 0
251 1 0.161885 0.263431 0
222 1 0.180421 0.246119 0
223 1 0.198751 0.230768 0
224 1 0.222304 0.239107 0
253 1 0.20448 0.255766 0
252 1 0.185462 0.272006 0
255 1 0.227964 0.263903 0
227 1 0.265829 0.231087 0
226 1 0.245604 0.24664 0
257 1 0.270463 0.255721 0
256 1 0.252108 0.271685 0
228 1 0.289464 0.240021 0
230 1 0.313021 0.248223 0
259 1 0.294127 0.264015 0
231 1 0.332157 0.232299 0
232 1 0.355731 0.240041 0
261 1 0.337699 0.256612 0
263 1 0.361206 0.263507 0
235 1 0.398479 0.231117 0
234 1 0.379747 0.248285 0
265 1 0.405104 0.25471 0
264 1 0.384921 0.271568 0
206 1 0.423277 0.238412 0
237 1 0.446775 0.245937 0
236 1 0.428792 0.262364 0
238 1 0.452172 0.270198 0
208 1 0.464519 0.229051 0
210 1 0.488853 0.234257 0
239 1 0.470477 0.251968 0
240 1 0.494554 0.258325 0
271 1 0.0368247 0.291365 0
1200 1 0.0193971 0.30957 0
272 1 0.0427799 0.316376 0
1170 1 0.00147695 0.293869 0
273 1 0.055961 0.275067 0
246 1 0.0786458 0.283584 0
275 1 0.0597997 0.299539 0
276 1 0.0836424 0.307574 0
248 1 0.102178 0.288805 0
279 1 0.12631 0.296273 0
277 1 0.107498 0.314056 0
250 1 0.143703 0.279778 0
280 1 0.148722 0.306313 0
281 1 0.165929 0.289249 0
282 1 0.172958 0.313432 0
254 1 0.209124 0.280563 0
283 1 0.190485 0.297135 0
284 1 0.214325 0.304838 0
285 1 0.233181 0.287746 0
287 1 0.257171 0.29675 0
286 1 0.238289 0.312547 0
260 1 0.318124 0.272307 0
258 1 0.275699 0.280521 0
288 1 0.27977 0.305291 0
289 1 0.299345 0.289873 0
290 1 0.304009 0.313629 0
262 1 0.341733 0.281132 0
291 1 0.323299 0.297448 0
292 1 0.347695 0.305298 0
293 1 0.365925 0.288119 0
295 1 0.390922 0.295819 0
294 1 0.371722 0.312703 0
266 1 0.409612 0.279067 0
267 1 0.433009 0.286367 0
297 1 0.414256 0.30283 0
298 1 0.438816 0.309919 0
268 1 0.457201 0.293604 0
269 1 0.475814 0.276902 0
270 1 0.481342 0.300042 0
299 1 0.463792 0.317738 0
1230 1 0.00643546 0.350872 0
301 1 0.023716 0.333579 0
302 1 0.0291756 0.358349 0
303 1 0.047506 0.340883 0
274 1 0.0655554 0.324382 0
304 1 0.0706724 0.349161 0
305 1 0.0888686 0.332029 0
306 1 0.0944853 0.357204 0
278 1 0.131195 0.322762 0
307 1 0.112488 0.339082 0
309 1 0.135589 0.346757 0
308 1 0.118 0.364907 0
311 1 0.154816 0.3301 0
310 1 0.159197 0.355264 0
312 1 0.178054 0.339291 0
313 1 0.196051 0.321589 0
314 1 0.20111 0.346814 0
315 1 0.21896 0.33022 0
345 1 0.223726 0.353991 0
343 1 0.182753 0.363041 0
317 1 0.262065 0.321185 0
316 1 0.242732 0.337094 0
318 1 0.265666 0.34601 0
347 1 0.247595 0.362516 0
319 1 0.285884 0.329655 0
320 1 0.290528 0.353753 0
321 1 0.309572 0.337508 0
351 1 0.314865 0.361678 0
323 1 0.328488 0.321541 0
322 1 0.33373 0.345043 0
324 1 0.352666 0.329182 0
355 1 0.358676 0.353291 0
296 1 0.396514 0.320277 0
325 1 0.378319 0.336904 0
326 1 0.403704 0.344137 0
356 1 0.383555 0.36127 0
327 1 0.421766 0.327422 0
328 1 0.426252 0.352188 0
329 1 0.445802 0.333312 0
359 1 0.450349 0.357021 0
300 1 0.487369 0.323818 0
1201 1 0.494232 0.350334 0
330 1 0.470037 0.341853 0
332 1 0.0338514 0.382759 0
361 1 0.0144629 0.398964 0
331 1 0.00988846 0.374854 0
363 1 0.0384856 0.406868 0
333 1 0.0525492 0.366147 0
335 1 0.0769006 0.374078 0
334 1 0.0576548 0.390556 0
336 1 0.0810295 0.398695 0
337 1 0.0997953 0.382163 0
338 1 0.123108 0.389059 0
367 1 0.104181 0.406407 0
339 1 0.140707 0.372168 0
341 1 0.16419 0.380007 0
340 1 0.146076 0.397878 0
371 1 0.169841 0.404257 0
342 1 0.187421 0.38782 0
344 1 0.206229 0.371485 0
375 1 0.211011 0.395873 0
346 1 0.229845 0.378146 0
377 1 0.253089 0.386733 0
376 1 0.234479 0.402964 0
349 1 0.272195 0.369989 0
348 1 0.275943 0.394382 0
350 1 0.296004 0.37743 0
379 1 0.299075 0.401803 0
381 1 0.319333 0.386276 0
353 1 0.339644 0.368296 0
352 1 0.342201 0.392263 0
354 1 0.362431 0.378255 0
385 1 0.379164 0.399056 0
357 1 0.407514 0.368314 0
387 1 0.402605 0.392065 0
358 1 0.427932 0.384262 0
389 1 0.446195 0.402839 0
360 1 0.451656 0.380551 0
388 1 0.423164 0.409323 0
1231 1 0.474432 0.367434 0
1232 1 0.473789 0.391372 0
1263 1 0.497385 0.382787 0
362 1 0.0197625 0.423281 0
393 1 0.0248045 0.448373 0
364 1 0.0438314 0.431017 0
392 1 0.00185644 0.440603 0
365 1 0.0624741 0.414339 0
395 1 0.0677265 0.438255 0
366 1 0.086428 0.422485 0
397 1 0.0916713 0.446613 0
369 1 0.127676 0.414674 0
368 1 0.109863 0.430611 0
399 1 0.132642 0.438316 0
370 1 0.151722 0.421735 0
401 1 0.174561 0.429561 0
400 1 0.156532 0.446149 0
372 1 0.197821 0.43789 0
373 1 0.1927 0.412873 0
374 1 0.216151 0.420142 0
403 1 0.220591 0.445475 0
405 1 0.239024 0.427507 0
407 1 0.264308 0.43586 0
378 1 0.258153 0.410795 0
406 1 0.245303 0.451657 0
409 1 0.282478 0.418916 0
410 1 0.297853 0.449856 0
380 1 0.307015 0.425525 0
383 1 0.358231 0.410305 0
382 1 0.333115 0.416645 0
411 1 0.327445 0.440931 0
413 1 0.351458 0.433813 0
384 1 0.376781 0.425332 0
414 1 0.369888 0.449112 0
415 1 0.394631 0.441632 0
386 1 0.39945 0.415955 0
417 1 0.417281 0.432873 0
419 1 0.442015 0.42568 0
418 1 0.4376 0.449218 0
1262 1 0.491294 0.408539 0
1291 1 0.485893 0.433561 0
1261 1 0.467681 0.415597 0
390 1 0.461643 0.441046 0
422 1 0.0305664 0.472994 0
453 1 0.0350003 0.497773 0
451 1 0.0114658 0.489551 0
421 1 0.00653151 0.465142 0
394 1 0.0485785 0.455522 0
423 1 0.0532734 0.480929 0
396 1 0.0722051 0.462496 0
425 1 0.0773941 0.488783 0
398 1 0.114689 0.455776 0
427 1 0.0955009 0.471005 0
428 1 0.118744 0.480743 0
457 1 0.100808 0.496714 0
402 1 0.178836 0.454607 0
429 1 0.138596 0.46221 0
430 1 0.142244 0.488237 0
431 1 0.160706 0.471002 0
461 1 0.165206 0.49589 0
432 1 0.183559 0.479345 0
433 1 0.203366 0.463346 0
434 1 0.206535 0.487706 0
404 1 0.226835 0.469738 0
436 1 0.250063 0.476153 0
435 1 0.228988 0.494564 0
408 1 0.270506 0.460369 0
437 1 0.273175 0.485524 0
438 1 0.295193 0.499389 0
439 1 0.29607 0.474217 0
440 1 0.318203 0.489508 0
412 1 0.345667 0.457378 0
441 1 0.319617 0.464299 0
442 1 0.34136 0.480912 0
473 1 0.360509 0.498766 0
443 1 0.365098 0.473147 0
445 1 0.389474 0.465375 0
444 1 0.383219 0.490349 0
446 1 0.406875 0.482119 0
449 1 0.450625 0.490702 0
416 1 0.413588 0.457313 0
447 1 0.431932 0.473797 0
448 1 0.425385 0.49784 0
450 1 0.474023 0.482656 0
1321 1 0.479659 0.458263 0
1322 1 0.499051 0.474794 0
420 1 0.455933 0.465817 0
452 1 0.0170886 0.514465 0
483 1 0.0219211 0.538461 0
454 1 0.0410552 0.52167 0
456 1 0.0868614 0.538203 0
455 1 0.0636978 0.53071 0
426 1 0.0820592 0.513299 0
424 1 0.058924 0.504793 0
458 1 0.105421 0.521237 0
459 1 0.123949 0.504987 0
489 1 0.128312 0.529088 0
460 1 0.146726 0.513418 0
462 1 0.170582 0.520215 0
491 1 0.151874 0.53664 0
463 1 0.188371 0.503982 0
493 1 0.194251 0.529513 0
464 1 0.211692 0.512521 0
495 1 0.217862 0.537274 0
466 1 0.237265 0.52007 0
497 1 0.260084 0.530441 0
465 1 0.251264 0.500733 0
468 1 0.29149 0.524782 0
469 1 0.314136 0.51463 0
499 1 0.309623 0.540186 0
467 1 0.272691 0.510044 0
470 1 0.332692 0.531938 0
472 1 0.355069 0.522966 0
471 1 0.337156 0.507047 0
503 1 0.373239 0.540736 0
474 1 0.379009 0.515921 0
475 1 0.401978 0.506407 0
476 1 0.396532 0.531001 0
477 1 0.420355 0.523307 0
478 1 0.444401 0.515396 0
507 1 0.438968 0.540366 0
480 1 0.462913 0.532494 0
479 1 0.468444 0.507611 0
1381 1 0.486437 0.52378 0
1351 1 0.492395 0.498954 0
513 1 0.0265157 0.563134 0
512 1 0.0311359 0.587976 0
541 1 0.00809636 0.579607 0
482 1 0.00287069 0.554663 0
485 1 0.0445886 0.54688 0
486 1 0.0684786 0.553953 0
484 1 0.0494664 0.571611 0
515 1 0.0731532 0.579416 0
487 1 0.0911891 0.562661 0
488 1 0.108718 0.546266 0
517 1 0.0957845 0.588407 0
519 1 0.113634 0.569471 0
490 1 0.132259 0.553515 0
492 1 0.17481 0.544931 0
520 1 0.137073 0.578507 0
521 1 0.155799 0.561182 0
522 1 0.160068 0.58624 0
523 1 0.179345 0.569749 0
494 1 0.198099 0.553658 0
524 1 0.203421 0.578142 0
525 1 0.221521 0.561305 0
555 1 0.226322 0.586918 0
496 1 0.240374 0.546118 0
526 1 0.245338 0.571478 0
527 1 0.262935 0.555333 0
498 1 0.286207 0.547744 0
528 1 0.279564 0.573069 0
529 1 0.303055 0.564705 0
559 1 0.297073 0.590283 0
501 1 0.35024 0.549148 0
530 1 0.321085 0.581181 0
500 1 0.326984 0.556502 0
531 1 0.34469 0.574585 0
502 1 0.367702 0.565864 0
505 1 0.391834 0.556556 0
504 1 0.387637 0.581262 0
533 1 0.362764 0.590155 0
535 1 0.410718 0.5732 0
506 1 0.414676 0.54798 0
508 1 0.434557 0.565149 0
539 1 0.45214 0.581879 0
537 1 0.428569 0.589053 0
509 1 0.458259 0.556899 0
510 1 0.48186 0.548928 0
540 1 0.476491 0.574174 0
1411 1 0.499073 0.565996 0
542 1 0.0103242 0.603892 0
571 1 0.0141487 0.62852 0
543 1 0.0349361 0.612417 0
544 1 0.0384384 0.636903 0
514 1 0.0545661 0.5954 0
516 1 0.0769202 0.604446 0
545 1 0.0579764 0.620283 0
546 1 0.0810069 0.628621 0
518 1 0.11822 0.595306 0
547 1 0.100083 0.612987 0
548 1 0.123528 0.619871 0
549 1 0.142579 0.603704 0
551 1 0.165597 0.611445 0
550 1 0.146182 0.62876 0
581 1 0.170644 0.637108 0
553 1 0.183379 0.594582 0
552 1 0.188301 0.618672 0
554 1 0.206957 0.602079 0
583 1 0.212308 0.627511 0
557 1 0.249768 0.597095 0
556 1 0.230663 0.61111 0
587 1 0.266123 0.622245 0
585 1 0.24255 0.632412 0
558 1 0.273538 0.598695 0
560 1 0.290888 0.615605 0
591 1 0.310187 0.631172 0
561 1 0.316294 0.607005 0
532 1 0.339278 0.598441 0
562 1 0.334623 0.623715 0
563 1 0.357537 0.614786 0
534 1 0.381152 0.606709 0
536 1 0.40538 0.59843 0
566 1 0.399575 0.622664 0
565 1 0.376504 0.63111 0
567 1 0.422845 0.615676 0
538 1 0.445746 0.607102 0
597 1 0.441114 0.632917 0
1441 1 0.494559 0.590633 0
568 1 0.463814 0.623089 0
569 1 0.470334 0.598553 0
570 1 0.488117 0.615622 0
573 1 0.0199724 0.652225 0
603 1 0.0241232 0.676902 0
574 1 0.043359 0.662119 0
601 1 -0.000100888 0.667904 0
575 1 0.061598 0.644661 0
605 1 0.0673707 0.669801 0
576 1 0.0847207 0.65294 0
607 1 0.0906443 0.677772 0
577 1 0.10429 0.63671 0
578 1 0.108437 0.660788 0
579 1 0.128216 0.64536 0
609 1 0.133871 0.669978 0
580 1 0.151989 0.652616 0
611 1 0.176987 0.661253 0
610 1 0.157429 0.677989 0
582 1 0.193899 0.64355 0
584 1 0.217141 0.652422 0
613 1 0.200663 0.670331 0
614 1 0.223935 0.678231 0
586 1 0.263261 0.647243 0
615 1 0.240739 0.65708 0
617 1 0.259216 0.671749 0
589 1 0.286606 0.640187 0
588 1 0.281874 0.663994 0
590 1 0.306157 0.655654 0
564 1 0.353117 0.640033 0
593 1 0.329894 0.647981 0
621 1 0.323379 0.672956 0
592 1 0.348565 0.664505 0
595 1 0.393914 0.648187 0
594 1 0.371797 0.657078 0
625 1 0.389795 0.673795 0
623 1 0.367269 0.681509 0
627 1 0.412618 0.665682 0
596 1 0.41727 0.640822 0
598 1 0.436599 0.65769 0
628 1 0.454915 0.674657 0
599 1 0.45957 0.650181 0
600 1 0.483031 0.640973 0
629 1 0.478759 0.666313 0
630 1 0.497425 0.682549 0
602 1 0.00313722 0.69224 0
633 1 0.0271106 0.702144 0
634 1 0.0325911 0.726001 0
632 1 0.000929476 0.718637 0
604 1 0.0477648 0.686799 0
606 1 0.07182 0.693921 0
635 1 0.0536612 0.710892 0
636 1 0.0778419 0.71855 0
637 1 0.0960662 0.702353 0
608 1 0.114533 0.684895 0
638 1 0.119685 0.710097 0
667 1 0.101347 0.72714 0
639 1 0.138848 0.694117 0
640 1 0.142952 0.719285 0
641 1 0.16268 0.704271 0
612 1 0.181207 0.686875 0
642 1 0.187023 0.712588 0
643 1 0.205731 0.696174 0
644 1 0.216156 0.725377 0
645 1 0.228774 0.702624 0
616 1 0.252067 0.695387 0
646 1 0.246188 0.718749 0
647 1 0.269699 0.71225 0
619 1 0.299877 0.680102 0
618 1 0.276289 0.687999 0
649 1 0.293831 0.704747 0
650 1 0.312588 0.721556 0
620 1 0.318362 0.697807 0
622 1 0.342271 0.688965 0
651 1 0.336546 0.713884 0
653 1 0.359702 0.705695 0
624 1 0.383867 0.698361 0
655 1 0.402152 0.715008 0
654 1 0.377707 0.722884 0
626 1 0.407878 0.690652 0
657 1 0.432518 0.683057 0
656 1 0.425646 0.707561 0
658 1 0.450481 0.699426 0
687 1 0.444091 0.723564 0
659 1 0.474349 0.69118 0
660 1 0.49285 0.70942 0
689 1 0.468972 0.716052 0
691 1 0.00112692 0.7648 0
663 1 0.0129737 0.741829 0
662 1 0.0239538 0.764201 0
664 1 0.0409166 0.748771 0
665 1 0.0598574 0.734208 0
666 1 0.0830367 0.7435 0
695 1 0.0636913 0.758794 0
697 1 0.0876044 0.767864 0
669 1 0.125006 0.73497 0
668 1 0.106448 0.751604 0
699 1 0.13105 0.761169 0
671 1 0.167593 0.728644 0
670 1 0.147777 0.743795 0
672 1 0.169902 0.753605 0
701 1 0.153781 0.772263 0
673 1 0.191905 0.737053 0
674 1 0.213407 0.751254 0
703 1 0.191947 0.761913 0
675 1 0.238301 0.743669 0
705 1 0.233515 0.76787 0
677 1 0.264216 0.736486 0
676 1 0.258077 0.759784 0
648 1 0.287819 0.729014 0
679 1 0.306643 0.745245 0
678 1 0.282866 0.753001 0
709 1 0.30173 0.769885 0
680 1 0.324867 0.762164 0
652 1 0.354904 0.730171 0
681 1 0.330742 0.738011 0
682 1 0.348577 0.754987 0
683 1 0.373165 0.74696 0
684 1 0.389862 0.764061 0
685 1 0.396505 0.738747 0
713 1 0.36715 0.770741 0
715 1 0.415076 0.756347 0
686 1 0.421032 0.73184 0
717 1 0.439168 0.748459 0
688 1 0.462788 0.741358 0
690 1 0.486829 0.733845 0
719 1 0.48047 0.75933 0
718 1 0.456265 0.76529 0
693 1 0.0236118 0.788423 0
692 1 0.0121852 0.810048 0
694 1 0.0452218 0.773991 0
723 1 0.0478247 0.798356 0
696 1 0.0681876 0.782464 0
725 1 0.0709361 0.806967 0
727 1 0.0905501 0.791674 0
698 1 0.111175 0.775645 0
728 1 0.113815 0.80132 0
700 1 0.133193 0.787133 0
729 1 0.136173 0.812692 0
726 1 0.0932212 0.816374 0
731 1 0.157282 0.798156 0
732 1 0.180954 0.812278 0
702 1 0.177981 0.782971 0
704 1 0.210807 0.777127 0
733 1 0.205134 0.800853 0
734 1 0.225141 0.817157 0
735 1 0.229278 0.792866 0
706 1 0.252989 0.784294 0
736 1 0.248737 0.809313 0
737 1 0.271673 0.801946 0
707 1 0.276206 0.776677 0
708 1 0.295811 0.794876 0
739 1 0.313594 0.812602 0
710 1 0.319386 0.787463 0
711 1 0.343007 0.778941 0
741 1 0.338142 0.804194 0
712 1 0.361311 0.795953 0
743 1 0.385837 0.788777 0
745 1 0.403379 0.805074 0
744 1 0.379217 0.813336 0
716 1 0.433646 0.774741 0
714 1 0.40937 0.780335 0
746 1 0.427415 0.798149 0
748 1 0.445228 0.816046 0
747 1 0.452786 0.790742 0
720 1 0.478299 0.785777 0
749 1 0.469854 0.809242 0
1621 1 0.494181 0.816319 0
751 1 0.0281525 0.828704 0
752 1 0.0214192 0.851732 0
1680 1 0.00379601 0.832848 0
753 1 0.0479329 0.846887 0
722 1 0.0514793 0.822689 0
724 1 0.0732306 0.83157 0
754 1 0.0708968 0.857058 0
755 1 0.0953892 0.841565 0
756 1 0.11663 0.852774 0
757 1 0.115113 0.827325 0
759 1 0.137034 0.838669 0
730 1 0.157646 0.824002 0
760 1 0.157371 0.851339 0
761 1 0.179152 0.837707 0
791 1 0.178779 0.862376 0
763 1 0.201984 0.826467 0
762 1 0.199558 0.850151 0
764 1 0.221511 0.841672 0
795 1 0.235863 0.86265 0
767 1 0.266977 0.827905 0
765 1 0.244189 0.8347 0
766 1 0.26017 0.852807 0
738 1 0.290495 0.819709 0
768 1 0.284793 0.844192 0
769 1 0.309584 0.837285 0
799 1 0.30271 0.861327 0
770 1 0.327628 0.854396 0
740 1 0.332546 0.8292 0
771 1 0.350687 0.845708 0
742 1 0.355887 0.821361 0
773 1 0.374545 0.838319 0
774 1 0.397952 0.829786 0
803 1 0.392641 0.854316 0
772 1 0.369563 0.862647 0
775 1 0.421167 0.821631 0
777 1 0.440124 0.839761 0
776 1 0.416476 0.845618 0
750 1 0.476838 0.833519 0
779 1 0.460675 0.852911 0
780 1 0.485199 0.857721 0
782 1 0.0134874 0.874999 0
813 1 0.0295305 0.894386 0
812 1 0.00452605 0.897824 0
783 1 0.0384954 0.870345 0
784 1 0.0733258 0.88137 0
815 1 0.0723614 0.906641 0
785 1 0.094097 0.866138 0
786 1 0.0947832 0.892201 0
787 1 0.115984 0.878345 0
817 1 0.118142 0.903866 0
758 1 0.136419 0.865698 0
788 1 0.138167 0.890122 0
789 1 0.159123 0.876265 0
790 1 0.160056 0.901365 0
792 1 0.181718 0.886902 0
793 1 0.204896 0.873675 0
823 1 0.204398 0.898974 0
794 1 0.229296 0.886349 0
796 1 0.255045 0.878337 0
825 1 0.25026 0.902283 0
827 1 0.273424 0.894735 0
797 1 0.278744 0.869682 0
798 1 0.297666 0.88566 0
829 1 0.315993 0.902369 0
800 1 0.321208 0.87826 0
801 1 0.345801 0.869709 0
831 1 0.340507 0.89499 0
802 1 0.363768 0.887459 0
804 1 0.390644 0.880194 0
833 1 0.382032 0.90291 0
806 1 0.408452 0.906158 0
778 1 0.440539 0.866843 0
805 1 0.413115 0.870102 0
807 1 0.427206 0.88931 0
808 1 0.451307 0.894294 0
809 1 0.468284 0.87635 0
1681 1 0.491237 0.881895 0
810 1 0.475566 0.900891 0
842 1 0.0130748 0.941032 0
843 1 0.020474 0.91761 0
844 1 0.0379701 0.936407 0
814 1 0.0462488 0.912817 0
845 1 0.063469 0.931453 0
846 1 0.0789118 0.951001 0
816 1 0.0951414 0.917102 0
847 1 0.100801 0.942757 0
818 1 0.120426 0.928713 0
819 1 0.140265 0.915372 0
849 1 0.141491 0.940971 0
820 1 0.162683 0.927168 0
850 1 0.164219 0.951958 0
824 1 0.226918 0.911131 0
821 1 0.183851 0.912256 0
851 1 0.185464 0.937457 0
822 1 0.206647 0.924324 0
853 1 0.207736 0.948809 0
855 1 0.22909 0.935541 0
826 1 0.267678 0.919619 0
856 1 0.252912 0.942611 0
828 1 0.292655 0.910147 0
857 1 0.289258 0.935204 0
859 1 0.311939 0.927993 0
858 1 0.307162 0.954112 0
887 1 0.274117 0.955427 0
830 1 0.33505 0.918819 0
861 1 0.350248 0.938277 0
832 1 0.359836 0.91309 0
863 1 0.375271 0.944023 0
834 1 0.391564 0.92573 0
865 1 0.40021 0.948648 0
837 1 0.433768 0.912509 0
835 1 0.416227 0.929946 0
838 1 0.441218 0.936415 0
836 1 0.424281 0.954347 0
839 1 0.457683 0.917695 0
1741 1 0.490489 0.947079 0
840 1 0.483215 0.923964 0
869 1 0.466001 0.941468 0
872 1 0.0219677 0.983145 0
873 1 0.029755 0.959323 0
871 1 0.00577803 0.963534 0
875 1 0.0543537 0.954829 0
874 1 0.0460932 0.978531 0
876 1 0.0708433 0.973729 0
5 1 0.0619688 0.997231 0
7 1 0.0878354 0.99201 0
848 1 0.120531 0.956715 0
877 1 0.0966105 0.968562 0
878 1 0.121373 0.982796 0
879 1 0.14257 0.966178 0
880 1 0.14385 0.991867 0
881 1 0.165932 0.977433 0
852 1 0.186613 0.962187 0
882 1 0.187434 0.989148 0
883 1 0.208527 0.973603 0
13 1 0.209431 0.998547 0
854 1 0.229955 0.959668 0
884 1 0.231312 0.984493 0
885 1 0.253837 0.968606 0
886 1 0.254023 0.99349 0
888 1 0.291244 0.973846 0
19 1 0.300134 0.996456 0
889 1 0.317111 0.97656 0
860 1 0.331457 0.955892 0
862 1 0.357735 0.961811 0
891 1 0.342387 0.980771 0
890 1 0.325744 0.999852 0
892 1 0.367091 0.985172 0
864 1 0.38283 0.967273 0
893 1 0.390434 0.990938 0
895 1 0.407863 0.972573 0
867 1 0.449564 0.9602 0
866 1 0.432363 0.978017 0
896 1 0.415919 0.996508 0
899 1 0.481628 0.98922 0
868 1 0.457265 0.983965 0
1771 1 0.498707 0.971285 0
870 1 0.473916 0.965413 0
902 1 0.538935 0.022855 0
931 1 0.520931 0.040658 0
901 1 0.514199 0.017708 0
904 1 0.56326 0.0285626 0
906 1 0.580535 0.0115053 0
905 1 0.555937 0.00504729 0
935 1 0.58772 0.0349822 0
908 1 0.604891 0.0167933 0
937 1 0.612868 0.0411001 0
939 1 0.629177 0.0221496 0
941 1 0.654729 0.0286959 0
912 1 0.671794 0.0116716 0
942 1 0.679688 0.0345583 0
910 1 0.647402 0.00468274 0
943 1 0.697741 0.0166607 0
944 1 0.704617 0.0399702 0
945 1 0.722093 0.0224837 0
914 1 0.713177 -0.00179039 0
947 1 0.746389 0.0275887 0
918 1 0.765638 0.00769503 0
948 1 0.770684 0.0322159 0
916 1 0.740242 0.00300604 0
919 1 0.795351 0.0229475 0
920 1 0.813932 0.0424981 0
1790 1 0.805183 0.000643771 0
922 1 0.822281 0.0197159 0
951 1 0.839275 0.0385922 0
924 1 0.847777 0.0154709 0
953 1 0.864816 0.0336238 0
955 1 0.871996 0.00978035 0
954 1 0.889116 0.0283448 0
925 1 0.896468 0.00557415 0
957 1 0.938375 0.0193263 0
956 1 0.913784 0.0238428 0
987 1 0.931021 0.0435134 0
926 1 0.922154 0.00155683 0
958 1 0.95468 0.038568 0
930 1 0.98808 0.0118069 0
959 1 0.963753 0.0161225 0
960 1 0.979116 0.0351886 0
60 1 0.503786 0.0593116 0
932 1 0.52929 0.0648396 0
961 1 0.512029 0.0827559 0
962 1 0.536865 0.0892405 0
933 1 0.546155 0.0457221 0
963 1 0.553257 0.0701987 0
934 1 0.570472 0.0521023 0
965 1 0.577641 0.0759331 0
936 1 0.595438 0.0581392 0
966 1 0.601963 0.0823746 0
967 1 0.62071 0.0646675 0
968 1 0.627584 0.088192 0
938 1 0.638231 0.0458534 0
940 1 0.66299 0.0519145 0
969 1 0.645342 0.0692259 0
970 1 0.669559 0.0754272 0
971 1 0.687129 0.0578577 0
972 1 0.693325 0.0813836 0
973 1 0.710745 0.0647404 0
1003 1 0.716788 0.0884727 0
975 1 0.72855 0.0468296 0
946 1 0.753622 0.0507035 0
974 1 0.736024 0.0705636 0
976 1 0.759071 0.0781007 0
949 1 0.790168 0.0474239 0
977 1 0.781902 0.0714199 0
979 1 0.806547 0.066141 0
978 1 0.800752 0.0905228 0
980 1 0.825107 0.0851321 0
950 1 0.830903 0.0620169 0
981 1 0.848189 0.0803074 0
952 1 0.855081 0.0568083 0
983 1 0.880416 0.0525936 0
984 1 0.872496 0.076123 0
1015 1 0.897547 0.0721127 0
985 1 0.905436 0.0477946 0
986 1 0.922327 0.0673729 0
988 1 0.946452 0.0637638 0
1018 1 0.937779 0.0871918 0
1017 1 0.91301 0.0912544 0
989 1 0.971451 0.0591357 0
990 1 0.987393 0.0773788 0
1019 1 0.963239 0.0825845 0
61 1 0.996453 0.0543419 0
120 1 0.502991 0.125716 0
991 1 0.519136 0.106898 0
992 1 0.526727 0.131624 0
993 1 0.543466 0.113055 0
964 1 0.561631 0.0942186 0
994 1 0.567853 0.119081 0
995 1 0.585073 0.100881 0
996 1 0.591107 0.12538 0
997 1 0.610542 0.106186 0
998 1 0.634127 0.111519 0
1027 1 0.617068 0.130105 0
999 1 0.651279 0.0936411 0
1000 1 0.657235 0.117955 0
1001 1 0.675443 0.0998973 0
1029 1 0.640296 0.136158 0
1031 1 0.681029 0.123765 0
1002 1 0.700566 0.106713 0
1004 1 0.722723 0.114435 0
1033 1 0.705619 0.131907 0
1005 1 0.741207 0.0956343 0
1006 1 0.769998 0.118071 0
1035 1 0.746677 0.120633 0
1007 1 0.776518 0.0952969 0
1008 1 0.793058 0.114033 0
1039 1 0.807635 0.132711 0
1009 1 0.817739 0.109826 0
1010 1 0.833123 0.128684 0
1011 1 0.841227 0.104161 0
1012 1 0.856084 0.123209 0
982 1 0.864638 0.0992587 0
1013 1 0.880653 0.119431 0
1014 1 0.889622 0.0962405 0
1016 1 0.905692 0.114964 0
1049 1 0.945596 0.127269 0
1047 1 0.922138 0.133206 0
1020 1 0.979794 0.100374 0
1050 1 0.970405 0.124525 0
121 1 0.995763 0.120142 0
1022 1 0.534063 0.155467 0
1051 1 0.517239 0.173465 0
1021 1 0.510096 0.150182 0
1053 1 0.540603 0.17926 0
1023 1 0.550786 0.137219 0
1024 1 0.558363 0.161231 0
1025 1 0.57426 0.143123 0
1055 1 0.581423 0.167417 0
1026 1 0.598659 0.149023 0
1028 1 0.622912 0.154256 0
1057 1 0.60556 0.173353 0
1058 1 0.629698 0.179453 0
1059 1 0.64734 0.160945 0
1030 1 0.664173 0.142858 0
1061 1 0.672216 0.167613 0
1032 1 0.688373 0.149365 0
1063 1 0.713569 0.156165 0
1062 1 0.695576 0.173667 0
1064 1 0.719201 0.180704 0
1034 1 0.730217 0.138363 0
1036 1 0.756415 0.144132 0
1065 1 0.73776 0.161987 0
1037 1 0.782892 0.138848 0
1067 1 0.773726 0.161864 0
1038 1 0.799592 0.15657 0
1069 1 0.816751 0.175568 0
1068 1 0.791485 0.178505 0
1040 1 0.824371 0.151835 0
1041 1 0.848466 0.147885 0
1071 1 0.84102 0.171055 0
1045 1 0.897279 0.13756 0
1042 1 0.864777 0.166234 0
1043 1 0.873078 0.142716 0
1044 1 0.889161 0.161754 0
1075 1 0.905149 0.180694 0
1046 1 0.912844 0.156424 0
1048 1 0.937317 0.152658 0
1077 1 0.928689 0.175933 0
1078 1 0.953622 0.171322 0
1079 1 0.961871 0.146695 0
1080 1 0.978582 0.165815 0
151 1 0.987 0.142373 0
1052 1 0.522739 0.197604 0
1082 1 0.529967 0.22233 0
1081 1 0.505993 0.215722 0
1083 1 0.547199 0.204537 0
1054 1 0.565249 0.185907 0
1056 1 0.588945 0.191089 0
1085 1 0.570978 0.210832 0
1086 1 0.595694 0.216186 0
1087 1 0.61237 0.197372 0
1088 1 0.619281 0.221143 0
1089 1 0.636189 0.20232 0
1060 1 0.653517 0.18466 0
1091 1 0.677388 0.190699 0
1090 1 0.659599 0.20835 0
1119 1 0.643488 0.226401 0
1092 1 0.683729 0.215011 0
1093 1 0.701734 0.198037 0
1094 1 0.725905 0.20525 0
1123 1 0.706978 0.22219 0
1066 1 0.766863 0.184779 0
1095 1 0.742444 0.186673 0
1096 1 0.756312 0.207798 0
1097 1 0.783653 0.202424 0
1099 1 0.808041 0.198308 0
1098 1 0.800314 0.222708 0
1127 1 0.776391 0.225881 0
1100 1 0.823972 0.217428 0
1072 1 0.856974 0.190267 0
1070 1 0.832534 0.194175 0
1101 1 0.848277 0.213676 0
1073 1 0.881024 0.185533 0
1103 1 0.872589 0.209526 0
1074 1 0.897157 0.204478 0
1105 1 0.912917 0.223644 0
1076 1 0.921243 0.199334 0
1107 1 0.94495 0.195047 0
1108 1 0.937222 0.218735 0
211 1 0.985846 0.208805 0
1109 1 0.970112 0.189945 0
1110 1 0.96185 0.212835 0
181 1 0.994756 0.185788 0
1111 1 0.512622 0.23985 0
1113 1 0.536036 0.246422 0
1112 1 0.518262 0.264005 0
1143 1 0.542016 0.270643 0
1084 1 0.55322 0.228312 0
1114 1 0.55957 0.252151 0
1115 1 0.578811 0.234166 0
1116 1 0.583596 0.258276 0
1117 1 0.602136 0.239562 0
1118 1 0.625859 0.245078 0
1147 1 0.607723 0.263095 0
1149 1 0.631743 0.269097 0
1121 1 0.666663 0.232719 0
1120 1 0.649477 0.250978 0
1151 1 0.672904 0.257202 0
1122 1 0.690147 0.240069 0
1124 1 0.713753 0.247142 0
1153 1 0.697099 0.263557 0
1154 1 0.722326 0.270983 0
1125 1 0.729991 0.228687 0
1126 1 0.753035 0.232511 0
1155 1 0.739131 0.252181 0
1157 1 0.766822 0.251435 0
1128 1 0.79065 0.246187 0
1129 1 0.815441 0.242858 0
1159 1 0.807215 0.265702 0
1158 1 0.782351 0.270246 0
1131 1 0.839262 0.237563 0