ITEM: TIMESTEP
34000
ITEM: NUMBER OF ATOMS
1800
ITEM: BOX BOUNDS pp pp pp
7.5661893365662536e-01 1.6424338106634232e+02
7.5661893365662536e-01 1.6424338106634232e+02
0.0000000000000000e+00 5.5000000000000000e+00
ITEM: ATOMS id type xs ys zs
2 1 0.0157247 0.01525 0
3 1 0.040131 0.00723063 0
31 1 0.00717305 0.0384543 0
33 1 0.0325384 0.0314421 0
4 1 0.0568712 0.0261116 0
5 1 0.0648248 0.00200708 0
6 1 0.0820521 0.021511 0
35 1 0.0739243 0.04476 0
8 1 0.106707 0.0164799 0
37 1 0.0980432 0.0405417 0
9 1 0.132283 0.00775864 0
39 1 0.123241 0.0340643 0
10 1 0.155956 0.0184512 0
41 1 0.179488 0.0304139 0
12 1 0.178809 0.00623899 0
40 1 0.158568 0.0427377 0
43 1 0.200214 0.0421844 0
14 1 0.200581 0.0179402 0
45 1 0.22249 0.0309396 0
15 1 0.220567 0.00585826 0
16 1 0.256803 0.013041 0
46 1 0.24719 0.0382926 0
47 1 0.272757 0.0322319 0
19 1 0.303704 0.00227736 0
18 1 0.280209 0.00810398 0
49 1 0.29649 0.0261536 0
50 1 0.313896 0.0436319 0
20 1 0.321155 0.0196121 0
51 1 0.338391 0.0372872 0
21 1 0.345421 0.013616 0
22 1 0.362441 0.0322396 0
24 1 0.386612 0.0267127 0
23 1 0.369309 0.00880752 0
894 1 0.393188 0.00383782 0
55 1 0.403835 0.0449999 0
25 1 0.418092 0.0235838 0
27 1 0.446657 0.0293822 0
897 1 0.441096 0.0053676 0
896 1 0.417251 -0.00145949 0
29 1 0.475859 0.0311389 0
900 1 0.492403 0.0123228 0
898 1 0.465703 0.00902272 0
32 1 0.0239777 0.0558465 0
63 1 0.041531 0.0731531 0
62 1 0.0174949 0.0806302 0
61 1 -0.000826832 0.0630772 0
34 1 0.0479345 0.0495913 0
65 1 0.0662331 0.0680267 0
66 1 0.0830668 0.0871212 0
36 1 0.0909148 0.0638784 0
38 1 0.115067 0.0580141 0
67 1 0.108331 0.0817458 0
68 1 0.134495 0.0781661 0
69 1 0.137968 0.0547173 0
71 1 0.156945 0.0685357 0
42 1 0.17875 0.0564427 0
72 1 0.178381 0.0819692 0
44 1 0.220663 0.0547768 0
73 1 0.19972 0.068222 0
74 1 0.222018 0.0803952 0
75 1 0.242199 0.0625902 0
77 1 0.265685 0.0568901 0
76 1 0.257076 0.0812909 0
48 1 0.289031 0.051377 0
78 1 0.281736 0.0755708 0
79 1 0.306352 0.0679399 0
81 1 0.330624 0.0613102 0
52 1 0.355547 0.0552025 0
82 1 0.347582 0.0796626 0
80 1 0.323714 0.0853468 0
53 1 0.37974 0.0499589 0
83 1 0.371442 0.0732881 0
54 1 0.396091 0.0679824 0
84 1 0.38864 0.0912833 0
26 1 0.42792 0.0469026 0
57 1 0.443415 0.0661868 0
56 1 0.419979 0.072841 0
87 1 0.450173 0.0898995 0
28 1 0.459944 0.0491929 0
59 1 0.484299 0.0545618 0
58 1 0.46691 0.0716186 0
89 1 0.491177 0.0778965 0
92 1 0.0276457 0.121645 0
93 1 0.034929 0.0975363 0
91 1 0.0103961 0.104518 0
121 1 0.00383309 0.129659 0
64 1 0.0589572 0.091233 0
94 1 0.05202 0.115762 0
95 1 0.0753925 0.110051 0
125 1 0.0696271 0.133958 0
96 1 0.0928256 0.127077 0
97 1 0.100833 0.104359 0
98 1 0.116975 0.121785 0
99 1 0.12583 0.10053 0
70 1 0.156578 0.0931996 0
100 1 0.146248 0.115866 0
101 1 0.179003 0.107224 0
130 1 0.161416 0.135576 0
131 1 0.184592 0.131467 0
103 1 0.200407 0.0936428 0
102 1 0.202995 0.116718 0
104 1 0.224238 0.130071 0
105 1 0.224098 0.104923 0
106 1 0.248844 0.106461 0
137 1 0.268996 0.121764 0
135 1 0.247944 0.135099 0
109 1 0.299725 0.0930749 0
107 1 0.274116 0.0985089 0
108 1 0.293073 0.116557 0
139 1 0.310481 0.134563 0
110 1 0.317827 0.110506 0
111 1 0.340802 0.102556 0
141 1 0.35195 0.124015 0
113 1 0.365766 0.101871 0
112 1 0.392736 0.114965 0
143 1 0.37484 0.13125 0
85 1 0.411376 0.0979311 0
115 1 0.415735 0.122922 0
86 1 0.433475 0.106584 0
116 1 0.439044 0.130599 0
88 1 0.474534 0.0958798 0
117 1 0.456632 0.113303 0
90 1 0.49823 0.101638 0
119 1 0.480299 0.119041 0
123 1 0.0458584 0.139534 0
122 1 0.0211992 0.146374 0
153 1 0.0376854 0.164971 0
152 1 0.0136418 0.171117 0
124 1 0.0617635 0.158016 0
126 1 0.0867224 0.151033 0
155 1 0.07877 0.174573 0
127 1 0.110569 0.145178 0
128 1 0.128372 0.16252 0
157 1 0.10339 0.168403 0
129 1 0.135151 0.139235 0
159 1 0.153258 0.157486 0
132 1 0.181453 0.156951 0
161 1 0.168521 0.177498 0
133 1 0.204837 0.145 0
163 1 0.20933 0.171464 0
134 1 0.227944 0.154914 0
164 1 0.232044 0.178829 0
136 1 0.269529 0.14542 0
165 1 0.251195 0.161581 0
167 1 0.274701 0.169362 0
138 1 0.292429 0.150776 0
169 1 0.317121 0.158723 0
168 1 0.299126 0.175801 0
140 1 0.334307 0.141562 0
142 1 0.357431 0.148872 0
171 1 0.340173 0.165863 0
172 1 0.363368 0.173365 0
114 1 0.398506 0.139814 0
144 1 0.404213 0.164432 0
173 1 0.38086 0.156317 0
174 1 0.386292 0.181292 0
145 1 0.421767 0.147299 0
146 1 0.427617 0.171112 0
147 1 0.445515 0.154122 0
177 1 0.451201 0.177654 0
118 1 0.462931 0.136682 0
149 1 0.487221 0.14226 0
148 1 0.469701 0.159536 0
150 1 0.493855 0.165092 0
183 1 0.0304551 0.188393 0
182 1 0.0244113 0.212414 0
181 1 0.00578515 0.196796 0
184 1 0.0490202 0.206258 0
154 1 0.0547127 0.181846 0
185 1 0.0722967 0.199322 0
186 1 0.0901162 0.217034 0
215 1 0.0664593 0.223175 0
156 1 0.09634 0.192174 0
158 1 0.120755 0.186901 0
187 1 0.113837 0.210359 0
189 1 0.13788 0.204276 0
160 1 0.144329 0.180931 0
191 1 0.1698 0.203131 0
190 1 0.152122 0.222586 0
162 1 0.190265 0.187787 0
193 1 0.213174 0.195764 0
192 1 0.193975 0.211819 0
194 1 0.217076 0.220331 0
195 1 0.236457 0.20284 0
166 1 0.255912 0.185807 0
196 1 0.260003 0.210319 0
225 1 0.241335 0.22724 0
197 1 0.279504 0.193844 0
199 1 0.303762 0.199752 0
198 1 0.283869 0.217172 0
229 1 0.308638 0.224555 0
170 1 0.322677 0.18346 0
201 1 0.345452 0.190779 0
200 1 0.327972 0.208187 0
202 1 0.351197 0.215824 0
203 1 0.369003 0.197831 0
233 1 0.374626 0.221821 0
204 1 0.392621 0.205846 0
175 1 0.410023 0.188345 0
205 1 0.41665 0.212376 0
176 1 0.433723 0.195037 0
207 1 0.440922 0.219063 0
179 1 0.476012 0.184196 0
178 1 0.458304 0.201933 0
208 1 0.465369 0.225273 0
209 1 0.483816 0.207724 0
213 1 0.0351164 0.235002 0
212 1 0.0157033 0.255856 0
243 1 0.0393651 0.26004 0
211 1 0.00824737 0.232446 0
216 1 0.0838953 0.244772 0
214 1 0.0577256 0.245108 0
245 1 0.0682427 0.267019 0
217 1 0.107164 0.234169 0
218 1 0.114077 0.257381 0
188 1 0.131898 0.238355 0
247 1 0.0933631 0.273834 0
221 1 0.175479 0.228971 0
219 1 0.138391 0.264257 0
220 1 0.155782 0.246692 0
251 1 0.162183 0.270859 0
222 1 0.179945 0.252677 0
223 1 0.19902 0.237605 0
224 1 0.223604 0.244849 0
253 1 0.204783 0.26142 0
227 1 0.26549 0.234857 0
226 1 0.246798 0.252587 0
255 1 0.228761 0.268975 0
257 1 0.271093 0.258405 0
228 1 0.289365 0.241496 0
230 1 0.313949 0.247798 0
259 1 0.295177 0.264877 0
231 1 0.332729 0.231767 0
232 1 0.357224 0.239271 0
261 1 0.337785 0.255237 0
263 1 0.36134 0.263185 0
260 1 0.318617 0.271704 0
235 1 0.399059 0.229314 0
234 1 0.380977 0.246117 0
265 1 0.40503 0.253381 0
264 1 0.387172 0.26985 0
206 1 0.42299 0.237057 0
237 1 0.447482 0.24293 0
236 1 0.429613 0.260441 0
238 1 0.454172 0.266444 0
210 1 0.49018 0.231064 0
239 1 0.472743 0.248347 0
240 1 0.496676 0.2547 0
269 1 0.479251 0.272456 0
242 1 0.0233831 0.279669 0
271 1 0.00719799 0.297329 0
273 1 0.0320686 0.303024 0
244 1 0.0503248 0.285003 0
246 1 0.0755291 0.291799 0
275 1 0.0571146 0.308572 0
276 1 0.0819056 0.316076 0
249 1 0.119084 0.280911 0
248 1 0.100076 0.298002 0
279 1 0.124708 0.305288 0
250 1 0.143615 0.288191 0
280 1 0.148829 0.312205 0
281 1 0.167797 0.294828 0
252 1 0.186596 0.27847 0
254 1 0.210249 0.285819 0
283 1 0.193208 0.302535 0
284 1 0.217368 0.309887 0
256 1 0.253739 0.27669 0
285 1 0.235342 0.293063 0
287 1 0.259745 0.300918 0
286 1 0.24058 0.317184 0
258 1 0.277758 0.282688 0
288 1 0.283406 0.306906 0
289 1 0.301155 0.2895 0
290 1 0.307746 0.31354 0
262 1 0.343165 0.279553 0
291 1 0.325325 0.295786 0
292 1 0.350568 0.302998 0
293 1 0.367498 0.286095 0
295 1 0.393637 0.293071 0
294 1 0.374557 0.308673 0
296 1 0.40192 0.316671 0
266 1 0.412706 0.27749 0
267 1 0.437242 0.283438 0
297 1 0.41943 0.300082 0
298 1 0.442879 0.308304 0
268 1 0.460786 0.290668 0
270 1 0.48499 0.296064 0
299 1 0.466335 0.314925 0
1200 1 0.0145593 0.322278 0
272 1 0.03904 0.326693 0
301 1 0.0203029 0.345955 0
303 1 0.045489 0.350514 0
274 1 0.0633309 0.332428 0
304 1 0.0700782 0.356439 0
305 1 0.0884551 0.339723 0
277 1 0.106954 0.32214 0
278 1 0.131762 0.32973 0
307 1 0.111826 0.34624 0
309 1 0.137063 0.354072 0
282 1 0.174033 0.318871 0
311 1 0.156392 0.336 0
310 1 0.160032 0.360768 0
312 1 0.180537 0.34333 0
313 1 0.198827 0.326167 0
314 1 0.202764 0.350957 0
315 1 0.222343 0.333153 0
345 1 0.225828 0.358832 0
317 1 0.265574 0.324309 0
316 1 0.245938 0.340863 0
318 1 0.270826 0.34719 0
319 1 0.290144 0.330575 0
349 1 0.29709 0.355747 0
320 1 0.313528 0.337346 0
321 1 0.332374 0.320259 0
323 1 0.357549 0.327458 0
322 1 0.338112 0.343818 0
324 1 0.362008 0.353241 0
325 1 0.382374 0.330986 0
355 1 0.386402 0.354131 0
326 1 0.406793 0.340819 0
327 1 0.425762 0.325453 0
328 1 0.430696 0.352348 0
329 1 0.449015 0.333698 0
359 1 0.455403 0.358377 0
300 1 0.49144 0.319485 0
1201 1 0.498599 0.34448 0
330 1 0.474302 0.339183 0
360 1 0.479938 0.363152 0
1230 1 0.0016495 0.362611 0
302 1 0.0273925 0.368707 0
332 1 0.0331659 0.393425 0
331 1 0.00916528 0.386705 0
333 1 0.0520729 0.373611 0
335 1 0.0756769 0.381155 0
334 1 0.0579649 0.397953 0
336 1 0.081534 0.404664 0
306 1 0.0940548 0.36389 0
308 1 0.118313 0.371046 0
337 1 0.10067 0.389316 0
338 1 0.124602 0.394789 0
339 1 0.142335 0.37803 0
341 1 0.165655 0.38553 0
340 1 0.148683 0.40276 0
343 1 0.183854 0.368087 0
342 1 0.189564 0.393168 0
344 1 0.207427 0.376292 0
373 1 0.213846 0.40047 0
347 1 0.251092 0.365306 0
346 1 0.230762 0.38264 0
377 1 0.253763 0.38915 0
375 1 0.236626 0.408649 0
348 1 0.274899 0.371031 0
350 1 0.297376 0.381267 0
378 1 0.276561 0.394803 0
379 1 0.297268 0.406241 0
381 1 0.318555 0.395884 0
351 1 0.318974 0.369486 0
353 1 0.342703 0.367689 0
352 1 0.341775 0.391644 0
383 1 0.360434 0.406197 0
354 1 0.364733 0.380369 0
385 1 0.38333 0.399683 0
356 1 0.387736 0.377156 0
387 1 0.407883 0.389961 0
357 1 0.409609 0.365432 0
358 1 0.432184 0.37834 0
388 1 0.42807 0.403459 0
389 1 0.450872 0.394261 0
1232 1 0.486638 0.38661 0
1262 1 0.496948 0.409527 0
361 1 0.015367 0.410461 0
362 1 0.0226156 0.433934 0
363 1 0.039991 0.417279 0
392 1 0.00649621 0.453445 0
364 1 0.0464918 0.440483 0
365 1 0.0640456 0.422412 0
395 1 0.0702823 0.446819 0
366 1 0.0880957 0.429994 0
367 1 0.106495 0.413613 0
368 1 0.113228 0.437506 0
397 1 0.095097 0.453926 0
369 1 0.130675 0.420392 0
399 1 0.136787 0.445725 0
371 1 0.173288 0.409589 0
370 1 0.15379 0.427132 0
401 1 0.178102 0.434831 0
400 1 0.160287 0.452279 0
372 1 0.196182 0.41808 0
403 1 0.202017 0.442756 0
374 1 0.218803 0.425817 0
404 1 0.226472 0.449683 0
376 1 0.26072 0.413947 0
405 1 0.244374 0.432679 0
407 1 0.267549 0.439082 0
409 1 0.289577 0.429658 0
410 1 0.306449 0.449717 0
380 1 0.31334 0.424814 0
411 1 0.331586 0.44008 0
382 1 0.335832 0.41481 0
413 1 0.354416 0.43054 0
384 1 0.378447 0.42327 0
414 1 0.374266 0.446742 0
415 1 0.398298 0.437194 0
386 1 0.403405 0.413095 0
417 1 0.423214 0.427781 0
418 1 0.441187 0.445216 0
419 1 0.446923 0.419463 0
416 1 0.417015 0.452348 0
1261 1 0.47135 0.412364 0
390 1 0.465044 0.437215 0
1291 1 0.489838 0.432015 0
393 1 0.0302727 0.45878 0
422 1 0.0140018 0.477177 0
423 1 0.038329 0.482124 0
394 1 0.0535285 0.463792 0
396 1 0.0777886 0.470451 0
425 1 0.0620478 0.487799 0
398 1 0.11869 0.461408 0
427 1 0.0956572 0.488354 0
428 1 0.121266 0.486739 0
429 1 0.141063 0.470081 0
431 1 0.164166 0.477068 0
430 1 0.146516 0.493967 0
402 1 0.183875 0.458719 0
432 1 0.187566 0.484408 0
433 1 0.207132 0.468508 0
434 1 0.21229 0.492775 0
406 1 0.250059 0.459202 0
435 1 0.230897 0.476336 0
436 1 0.255059 0.483478 0
408 1 0.282707 0.457518 0
437 1 0.27857 0.482696 0
439 1 0.301615 0.473369 0
412 1 0.351856 0.454953 0
440 1 0.319905 0.489979 0
441 1 0.326041 0.464152 0
442 1 0.345352 0.480261 0
473 1 0.364899 0.494617 0
443 1 0.369581 0.470858 0
444 1 0.388477 0.486807 0
445 1 0.393794 0.461835 0
446 1 0.411835 0.47753 0
447 1 0.435699 0.470017 0
448 1 0.429256 0.49378 0
449 1 0.453706 0.485498 0
450 1 0.477849 0.478115 0
1321 1 0.484709 0.45524 0
420 1 0.460138 0.460738 0
1351 1 0.496088 0.495453 0
452 1 0.00633997 0.519088 0
483 1 0.0160285 0.542334 0
454 1 0.0308892 0.523868 0
485 1 0.0434091 0.54559 0
453 1 0.0219043 0.50048 0
455 1 0.0590503 0.526072 0
456 1 0.0841456 0.531525 0
426 1 0.0759992 0.507247 0
424 1 0.0462588 0.505552 0
458 1 0.109288 0.534426 0
459 1 0.126364 0.512808 0
457 1 0.101048 0.511762 0
489 1 0.134219 0.536643 0
460 1 0.151513 0.51924 0
461 1 0.170663 0.502481 0
462 1 0.176587 0.528204 0
491 1 0.158202 0.543434 0
493 1 0.200775 0.534066 0
464 1 0.220182 0.517484 0
463 1 0.194803 0.50968 0
495 1 0.224782 0.543744 0
466 1 0.244827 0.528818 0
467 1 0.265061 0.507178 0
497 1 0.269329 0.540008 0
465 1 0.238733 0.502139 0
468 1 0.292009 0.526298 0
499 1 0.313531 0.538815 0
469 1 0.315328 0.514098 0
438 1 0.295198 0.500525 0
470 1 0.336226 0.527878 0
472 1 0.359197 0.517613 0
503 1 0.356913 0.540093 0
471 1 0.339905 0.504344 0
474 1 0.383838 0.513921 0
475 1 0.406861 0.504117 0
476 1 0.403046 0.529161 0
505 1 0.381444 0.53943 0
477 1 0.425911 0.518749 0
478 1 0.447962 0.50928 0
507 1 0.423347 0.542931 0
1381 1 0.487826 0.51985 0
480 1 0.462818 0.52769 0
479 1 0.471643 0.502826 0
510 1 0.480823 0.543695 0
482 1 0.00112762 0.56224 0
513 1 0.026701 0.563762 0
514 1 0.0345288 0.585669 0
512 1 0.0102548 0.584533 0
486 1 0.0692266 0.550842 0
484 1 0.0528131 0.568474 0
515 1 0.0790008 0.575542 0
487 1 0.0942376 0.555573 0
488 1 0.117018 0.565193 0
517 1 0.102109 0.58441 0
490 1 0.139911 0.560431 0
520 1 0.144528 0.58424 0
521 1 0.163358 0.56813 0
492 1 0.182917 0.551944 0
523 1 0.186745 0.577092 0
494 1 0.207054 0.560714 0
524 1 0.209784 0.585498 0
496 1 0.248205 0.553785 0
525 1 0.229431 0.570183 0
526 1 0.2518 0.582145 0
527 1 0.272315 0.567892 0
498 1 0.292697 0.552668 0
529 1 0.294512 0.578089 0
500 1 0.314088 0.563885 0
530 1 0.317418 0.589088 0
501 1 0.335774 0.552993 0
531 1 0.338322 0.576661 0
502 1 0.360576 0.563029 0
533 1 0.361857 0.587185 0
504 1 0.382955 0.570874 0
535 1 0.404591 0.582919 0
506 1 0.40223 0.555265 0
508 1 0.425491 0.56715 0
539 1 0.447264 0.578271 0
509 1 0.447909 0.549709 0
540 1 0.468978 0.565971 0
1411 1 0.497486 0.559687 0
1441 1 0.490228 0.582268 0
542 1 0.0196503 0.617991 0
571 1 -0.000194 0.633531 0
543 1 0.0410745 0.607712 0
544 1 0.0444843 0.631195 0
545 1 0.0587772 0.591795 0
516 1 0.08227 0.60021 0
546 1 0.06365 0.616603 0
547 1 0.0854073 0.625877 0
519 1 0.123098 0.597141 0
518 1 0.104137 0.611263 0
548 1 0.127007 0.621628 0
522 1 0.167438 0.593014 0
549 1 0.147217 0.608221 0
550 1 0.150616 0.631831 0
551 1 0.170594 0.617386 0
553 1 0.190333 0.602318 0
552 1 0.193466 0.627305 0
554 1 0.213599 0.611761 0
555 1 0.232874 0.596843 0
556 1 0.235876 0.621879 0
557 1 0.255454 0.606977 0
587 1 0.258124 0.632982 0
528 1 0.275118 0.59227 0
559 1 0.29812 0.602942 0
558 1 0.277924 0.617815 0
560 1 0.300708 0.628142 0
561 1 0.320447 0.614339 0
532 1 0.340181 0.599806 0
562 1 0.342878 0.624385 0
563 1 0.363374 0.610857 0
534 1 0.384138 0.596201 0
565 1 0.386924 0.621326 0
536 1 0.406881 0.607102 0
566 1 0.408581 0.632544 0
564 1 0.365587 0.635362 0
537 1 0.426899 0.592538 0
538 1 0.448231 0.604015 0
567 1 0.428449 0.618569 0
568 1 0.44987 0.628868 0
569 1 0.46851 0.590773 0
570 1 0.470866 0.615407 0
1471 1 0.494652 0.626303 0
573 1 0.0225241 0.643183 0
572 1 0.00296198 0.658624 0
603 1 0.0248666 0.668191 0
574 1 0.0462343 0.65585 0
575 1 0.066243 0.641179 0
605 1 0.0694307 0.665465 0
576 1 0.0890626 0.65167 0
604 1 0.048087 0.680116 0
577 1 0.109213 0.637355 0
607 1 0.0914381 0.67711 0
578 1 0.111813 0.662255 0
579 1 0.131509 0.647917 0
609 1 0.13389 0.672854 0
581 1 0.17385 0.641522 0
580 1 0.154562 0.65737 0
611 1 0.176966 0.666484 0
583 1 0.216637 0.637075 0
582 1 0.196663 0.651955 0
584 1 0.219563 0.662083 0
613 1 0.199207 0.677538 0
585 1 0.239121 0.647259 0
586 1 0.262193 0.657701 0
615 1 0.242293 0.672866 0
589 1 0.281617 0.642783 0
588 1 0.284664 0.668442 0
590 1 0.304586 0.653982 0
619 1 0.307747 0.679819 0
591 1 0.322595 0.638902 0
593 1 0.346248 0.650785 0
621 1 0.326412 0.665288 0
592 1 0.349864 0.675493 0
594 1 0.369089 0.661288 0
595 1 0.388566 0.646797 0
625 1 0.391253 0.671058 0
596 1 0.411874 0.658246 0
597 1 0.431137 0.644293 0
598 1 0.434997 0.671835 0
599 1 0.453235 0.655407 0
600 1 0.471264 0.639174 0
629 1 0.473455 0.669447 0
1501 1 0.491257 0.652707 0
602 1 0.0057165 0.683751 0
633 1 0.0281251 0.693299 0
632 1 0.0083369 0.708358 0
634 1 0.0299597 0.718444 0
606 1 0.0709794 0.691044 0
635 1 0.0511482 0.704571 0
636 1 0.0729826 0.714887 0
608 1 0.114155 0.68699 0
637 1 0.0937385 0.701253 0
638 1 0.116767 0.711918 0
667 1 0.0967111 0.725453 0
639 1 0.136205 0.69753 0
610 1 0.156812 0.682997 0
641 1 0.15892 0.707556 0
640 1 0.139171 0.723401 0
612 1 0.178971 0.692165 0
642 1 0.181614 0.717502 0
614 1 0.221833 0.687004 0
643 1 0.201802 0.702128 0
645 1 0.224948 0.71174 0
644 1 0.2039 0.727205 0
617 1 0.265141 0.683037 0
616 1 0.244228 0.697336 0
647 1 0.266695 0.708119 0
646 1 0.247157 0.721846 0
618 1 0.287328 0.693588 0
620 1 0.31095 0.70589 0
649 1 0.288962 0.717697 0
622 1 0.331281 0.690439 0
651 1 0.333872 0.720255 0
653 1 0.352666 0.702661 0
623 1 0.371623 0.686357 0
624 1 0.378961 0.711686 0
626 1 0.404017 0.705743 0
627 1 0.412556 0.682525 0
657 1 0.432359 0.697067 0
656 1 0.421817 0.722193 0
658 1 0.446098 0.71716 0
628 1 0.456024 0.688257 0
630 1 0.485576 0.690205 0
659 1 0.469482 0.709478 0
663 1 0.00913764 0.73265 0
662 1 0.0131712 0.756535 0
664 1 0.0330303 0.742354 0
694 1 0.0355841 0.766933 0
665 1 0.0531369 0.728478 0
666 1 0.0763992 0.739493 0
695 1 0.0565081 0.753565 0
697 1 0.0784328 0.763314 0
669 1 0.11874 0.736929 0
668 1 0.0987307 0.750566 0
699 1 0.121158 0.761753 0
671 1 0.160861 0.732751 0
670 1 0.141656 0.7473 0
672 1 0.163921 0.757405 0
673 1 0.183806 0.742822 0
674 1 0.208065 0.75136 0
703 1 0.186178 0.767819 0
675 1 0.226954 0.737021 0
705 1 0.229976 0.763092 0
677 1 0.248967 0.746007 0
676 1 0.255382 0.768942 0
648 1 0.269664 0.733466 0
650 1 0.309609 0.730632 0
679 1 0.302579 0.754604 0
678 1 0.278489 0.75756 0
652 1 0.350034 0.741341 0
681 1 0.326696 0.748602 0
682 1 0.344756 0.765649 0
680 1 0.320767 0.773265 0
655 1 0.39805 0.729542 0
654 1 0.373851 0.736013 0
683 1 0.368675 0.759774 0
685 1 0.392299 0.753246 0
715 1 0.410883 0.771627 0
686 1 0.416233 0.747029 0
687 1 0.439374 0.740519 0
717 1 0.434587 0.765201 0
660 1 0.486762 0.727325 0
689 1 0.462775 0.734064 0
688 1 0.458256 0.758206 0
690 1 0.49361 0.75116 0
719 1 0.478821 0.770355 0
693 1 0.015507 0.781581 0
692 1 0.011629 0.805817 0
723 1 0.0369464 0.791432 0
722 1 0.0368714 0.815741 0
696 1 0.0579134 0.777502 0
725 1 0.0581536 0.802296 0
727 1 0.0795231 0.788916 0
726 1 0.079858 0.813261 0
698 1 0.100437 0.775365 0
728 1 0.101681 0.799951 0
729 1 0.123456 0.811483 0
700 1 0.123651 0.786008 0
701 1 0.145573 0.773617 0
702 1 0.167492 0.784522 0
731 1 0.146091 0.798652 0
732 1 0.169004 0.810022 0
704 1 0.208538 0.776817 0
733 1 0.199022 0.800726 0
735 1 0.223297 0.796346 0
706 1 0.248233 0.791248 0
737 1 0.266143 0.808806 0
736 1 0.24085 0.814926 0
707 1 0.272737 0.784531 0
709 1 0.29593 0.778689 0
708 1 0.290623 0.802756 0
710 1 0.314547 0.797207 0
713 1 0.363091 0.784478 0
711 1 0.338457 0.790836 0
712 1 0.356286 0.808374 0
741 1 0.333441 0.815089 0
684 1 0.386934 0.777418 0
714 1 0.405479 0.795918 0
743 1 0.381673 0.801926 0
716 1 0.42831 0.789994 0
747 1 0.446853 0.806613 0
746 1 0.423182 0.814623 0
718 1 0.453248 0.783257 0
720 1 0.486845 0.793961 0
749 1 0.470568 0.81314 0
751 1 0.0167735 0.829037 0
752 1 0.0133952 0.855004 0
753 1 0.0369853 0.841284 0
724 1 0.0578641 0.827243 0
755 1 0.0796644 0.837678 0
754 1 0.0583518 0.852448 0
756 1 0.100652 0.850178 0
757 1 0.10148 0.825292 0
759 1 0.123231 0.836374 0
758 1 0.122148 0.861029 0
730 1 0.146636 0.823675 0
760 1 0.143911 0.848536 0
761 1 0.167951 0.836071 0
791 1 0.164977 0.860594 0
734 1 0.215652 0.819308 0
763 1 0.191268 0.825981 0
762 1 0.188482 0.850929 0
764 1 0.21218 0.844131 0
767 1 0.259289 0.831831 0
765 1 0.235761 0.838849 0
766 1 0.255078 0.856616 0
795 1 0.230794 0.862522 0
739 1 0.30882 0.821731 0
738 1 0.284771 0.826745 0
768 1 0.278659 0.850988 0
769 1 0.302109 0.844454 0
740 1 0.327182 0.839212 0
771 1 0.343994 0.856939 0
742 1 0.35119 0.832353 0
770 1 0.319392 0.863858 0
745 1 0.399088 0.819493 0
744 1 0.375338 0.825255 0
773 1 0.367824 0.849961 0
774 1 0.39188 0.843984 0
775 1 0.415113 0.837706 0
777 1 0.436085 0.849279 0
748 1 0.453452 0.830194 0
1621 1 0.494692 0.817583 0
750 1 0.477787 0.835923 0
779 1 0.460981 0.853877 0
780 1 0.484809 0.859535 0
783 1 0.0344141 0.868942 0
782 1 0.0108785 0.879824 0
813 1 0.0291605 0.89578 0
812 1 0.0033458 0.904834 0
785 1 0.0803101 0.862784 0
784 1 0.0584657 0.876711 0
786 1 0.0800209 0.88775 0
815 1 0.0586326 0.900986 0
787 1 0.10084 0.875436 0
788 1 0.122058 0.886616 0
817 1 0.100888 0.900927 0
819 1 0.143699 0.898372 0
789 1 0.143831 0.873485 0
790 1 0.164147 0.886089 0
792 1 0.184572 0.874913 0
793 1 0.207376 0.86855 0
823 1 0.200477 0.893046 0
794 1 0.224876 0.886603 0
796 1 0.248449 0.880974 0
825 1 0.240461 0.905489 0
827 1 0.265041 0.899748 0
797 1 0.272414 0.874644 0
799 1 0.296329 0.869123 0
798 1 0.288746 0.892868 0
800 1 0.312701 0.887865 0
772 1 0.361651 0.874701 0
801 1 0.337892 0.881093 0
831 1 0.330631 0.90567 0
802 1 0.355204 0.898515 0
803 1 0.386471 0.867156 0
805 1 0.402526 0.885625 0
804 1 0.379845 0.89292 0
776 1 0.417975 0.865886 0
778 1 0.444671 0.872373 0
807 1 0.427289 0.891415 0
808 1 0.451645 0.896681 0
809 1 0.468135 0.877933 0
1681 1 0.493038 0.883087 0
810 1 0.475612 0.901327 0
842 1 0.0136612 0.946493 0
843 1 0.0200691 0.922272 0
844 1 0.0372037 0.940829 0
814 1 0.0425472 0.917947 0
816 1 0.0799244 0.913651 0
845 1 0.0626824 0.933434 0
846 1 0.0812234 0.951976 0
818 1 0.123118 0.912013 0
847 1 0.102483 0.926359 0
849 1 0.126507 0.936111 0
848 1 0.107507 0.951532 0
821 1 0.169783 0.908937 0
820 1 0.147416 0.921966 0
850 1 0.152968 0.94593 0
851 1 0.173572 0.933 0
824 1 0.216632 0.911877 0
822 1 0.192947 0.916956 0
853 1 0.199088 0.941936 0
854 1 0.226242 0.954103 0
855 1 0.233115 0.929743 0
826 1 0.257869 0.923338 0
856 1 0.251127 0.94716 0
829 1 0.306429 0.910809 0
828 1 0.282986 0.917116 0
857 1 0.275521 0.940687 0
859 1 0.29977 0.935143 0
860 1 0.317423 0.953288 0
830 1 0.325078 0.929351 0
832 1 0.349103 0.923026 0
861 1 0.342222 0.946897 0
806 1 0.407531 0.910266 0
863 1 0.367004 0.941049 0
833 1 0.373254 0.91691 0
834 1 0.392912 0.933209 0
837 1 0.434293 0.9161 0
835 1 0.417949 0.934502 0
838 1 0.442988 0.938774 0
839 1 0.459649 0.919967 0
1741 1 0.492113 0.947702 0
840 1 0.483847 0.92475 0
869 1 0.467347 0.94363 0
872 1 0.022768 0.988633 0
873 1 0.0309953 0.96481 0
871 1 0.00678014 0.971375 0
874 1 0.0475838 0.983218 0
875 1 0.0564425 0.95907 0
876 1 0.0723561 0.978126 0
7 1 0.0893385 0.998179 0
877 1 0.0965589 0.973154 0
878 1 0.112402 0.991855 0
879 1 0.131758 0.959657 0
880 1 0.135597 0.983903 0
852 1 0.177899 0.956658 0
881 1 0.155758 0.970385 0
882 1 0.178432 0.981245 0
11 1 0.157643 0.994612 0
883 1 0.200241 0.967365 0
13 1 0.199998 0.992907 0
884 1 0.221707 0.979002 0
885 1 0.244624 0.970908 0
886 1 0.240958 0.994704 0
17 1 0.264004 0.989945 0
887 1 0.270002 0.965732 0
858 1 0.292882 0.959389 0
888 1 0.287236 0.983371 0
889 1 0.311519 0.97785 0
862 1 0.35881 0.965128 0
890 1 0.328888 0.996342 0
891 1 0.334616 0.972128 0
892 1 0.352832 0.990213 0
865 1 0.405551 0.955078 0
864 1 0.38239 0.959756 0
893 1 0.376032 0.984666 0
895 1 0.400105 0.979692 0
836 1 0.428383 0.95726 0
866 1 0.434559 0.980718 0
867 1 0.451358 0.9624 0
868 1 0.458911 0.985294 0
899 1 0.483326 0.990252 0
870 1 0.475562 0.966471 0
902 1 0.540498 0.0230651 0
931 1 0.524271 0.0420925 0
901 1 0.517118 0.0174182 0
30 1 0.500706 0.0355028 0
904 1 0.565171 0.0288258 0
906 1 0.582326 0.0100978 0
905 1 0.558021 0.00446349 0
935 1 0.589035 0.0341864 0
908 1 0.60626 0.0159668 0
937 1 0.612109 0.0407183 0
939 1 0.62874 0.0232233 0
940 1 0.662998 0.0276154 0
910 1 0.647271 0.00840028 0
941 1 0.670179 0.001819 0
942 1 0.686922 0.0194795 0
943 1 0.7108 0.0108152 0
944 1 0.706405 0.0350091 0
971 1 0.683986 0.0433762 0
945 1 0.730557 0.0276069 0
914 1 0.734295 0.00339933 0
947 1 0.754067 0.0195336 0
946 1 0.749521 0.042901 0
948 1 0.77493 0.0358259 0
918 1 0.777709 0.0112482 0
919 1 0.801292 0.00391985 0
949 1 0.798504 0.0298399 0
920 1 0.821294 0.0210104 0
951 1 0.843218 0.0125954 0
952 1 0.845133 0.0371681 0
922 1 0.865215 0.00459664 0
953 1 0.872392 0.0280845 0
955 1 0.897878 0.0215609 0
926 1 0.923613 0.0160302 0
928 1 0.948194 0.0100449 0
957 1 0.939862 0.0340252 0
956 1 0.915069 0.0390846 0
930 1 0.989813 0.0219364 0
959 1 0.965937 0.0286605 0
929 1 0.972521 0.00420279 0
932 1 0.531575 0.0652268 0
962 1 0.539206 0.0885971 0
961 1 0.515101 0.0830343 0
60 1 0.50834 0.0597487 0
933 1 0.547976 0.0475972 0
934 1 0.572166 0.0531501 0
963 1 0.556025 0.0708342 0
965 1 0.580009 0.0768547 0
936 1 0.59614 0.0583149 0
966 1 0.603502 0.0821057 0
967 1 0.62032 0.0641383 0
968 1 0.627802 0.087988 0
938 1 0.636565 0.0458353 0
969 1 0.644937 0.0706828 0
970 1 0.661769 0.0525106 0
972 1 0.671514 0.0761223 0
973 1 0.702102 0.0601814 0
974 1 0.721691 0.0759291 0
1003 1 0.695144 0.084197 0
975 1 0.72617 0.0522022 0
976 1 0.745505 0.0674327 0
977 1 0.769709 0.0601283 0
1007 1 0.76574 0.0841741 0
979 1 0.793759 0.0525156 0
980 1 0.813016 0.068113 0
978 1 0.789468 0.0764191 0
950 1 0.819115 0.0447725 0
981 1 0.839105 0.0609866 0
982 1 0.857209 0.0779157 0
1011 1 0.832246 0.0849915 0
983 1 0.864209 0.0525747 0
954 1 0.889307 0.0459838 0
984 1 0.882367 0.0705938 0
1015 1 0.900063 0.08825 0
985 1 0.907057 0.0640422 0
986 1 0.924997 0.0823392 0
987 1 0.932638 0.0588483 0
988 1 0.950368 0.0757457 0
960 1 0.98254 0.0462867 0
958 1 0.958441 0.052453 0
989 1 0.975541 0.0698252 0
990 1 0.993059 0.0875598 0
991 1 0.521565 0.106647 0
992 1 0.528378 0.130615 0
120 1 0.504794 0.124521 0
993 1 0.545845 0.111849 0
964 1 0.563861 0.0949318 0
994 1 0.569876 0.118433 0
995 1 0.587589 0.100787 0
1023 1 0.552603 0.135757 0
996 1 0.594134 0.124989 0
997 1 0.611049 0.106602 0
1027 1 0.618478 0.130481 0
998 1 0.635797 0.112006 0
999 1 0.651699 0.0934176 0
1000 1 0.659447 0.11833 0
1001 1 0.675711 0.10016 0
1029 1 0.642683 0.135877 0
1031 1 0.682986 0.125498 0
1002 1 0.698577 0.108327 0
1004 1 0.720212 0.0992808 0
1033 1 0.709918 0.129811 0
1005 1 0.742685 0.0917 0
1006 1 0.761065 0.109165 0
1035 1 0.737189 0.116259 0
1036 1 0.755518 0.133143 0
1037 1 0.779989 0.125059 0
1008 1 0.784105 0.100779 0
1009 1 0.808202 0.092528 0
1039 1 0.803808 0.116889 0
1010 1 0.827977 0.109957 0
1012 1 0.850633 0.101709 0
1041 1 0.84629 0.127479 0
1040 1 0.821794 0.134676 0
1043 1 0.871402 0.119863 0
1013 1 0.876063 0.0952731 0
1014 1 0.895384 0.11315 0
1016 1 0.914395 0.130821 0
1017 1 0.919253 0.105896 0
1018 1 0.943408 0.099028 0
1047 1 0.937855 0.122771 0
1019 1 0.968769 0.094656 0
1020 1 0.986876 0.112503 0
1049 1 0.962232 0.118007 0
1021 1 0.511245 0.148286 0
1022 1 0.535079 0.154138 0
1053 1 0.542204 0.177283 0
1051 1 0.517996 0.171899 0
1025 1 0.57673 0.142602 0
1024 1 0.559611 0.159697 0
1055 1 0.58365 0.165759 0
1026 1 0.601065 0.14804 0
1028 1 0.625594 0.154183 0
1057 1 0.60768 0.172238 0
1058 1 0.631825 0.17861 0
1059 1 0.649173 0.160967 0
1030 1 0.666622 0.14255 0
1061 1 0.673388 0.166078 0
1032 1 0.690212 0.148189 0
1063 1 0.713471 0.154659 0
1064 1 0.721918 0.178475 0
1062 1 0.69687 0.172607 0
1034 1 0.732619 0.139857 0
1065 1 0.74949 0.158574 0
1066 1 0.767716 0.175353 0
1067 1 0.773403 0.149755 0
1038 1 0.797592 0.141708 0
1068 1 0.791321 0.16608 0
1069 1 0.815671 0.1589 0
1071 1 0.840985 0.150729 0
1072 1 0.858187 0.16864 0
1070 1 0.833884 0.174811 0
1042 1 0.866041 0.144985 0
1045 1 0.908152 0.155317 0
1044 1 0.890401 0.137249 0
1073 1 0.884043 0.162146 0
1074 1 0.900873 0.180921 0
1075 1 0.925593 0.174762 0
1046 1 0.931778 0.14789 0
1077 1 0.94799 0.166043 0
1050 1 0.979242 0.135248 0
1048 1 0.955374 0.141623 0
1079 1 0.971669 0.159416 0
151 1 0.996372 0.153333 0
1080 1 0.988923 0.176897 0
1052 1 0.525387 0.194338 0
1082 1 0.532362 0.218863 0
1081 1 0.50723 0.213281 0
180 1 0.500303 0.188826 0
1054 1 0.566535 0.182555 0
1083 1 0.548811 0.201329 0
1084 1 0.556471 0.224353 0
1085 1 0.573322 0.206292 0
1056 1 0.590853 0.189625 0
1086 1 0.59835 0.213028 0
1087 1 0.615075 0.195583 0
1088 1 0.622446 0.219715 0
1089 1 0.639124 0.202151 0
1060 1 0.655326 0.184245 0
1091 1 0.680217 0.190778 0
1090 1 0.663421 0.207911 0
1119 1 0.646109 0.225439 0
1092 1 0.687339 0.214717 0
1093 1 0.704041 0.196664 0
1123 1 0.71243 0.219627 0
1095 1 0.745352 0.183698 0
1094 1 0.72942 0.202334 0
1096 1 0.754247 0.207973 0
1125 1 0.7372 0.226278 0
1127 1 0.778766 0.21496 0
1097 1 0.785184 0.191135 0
1099 1 0.809531 0.183011 0
1098 1 0.803524 0.208127 0
1100 1 0.82824 0.199645 0
1101 1 0.851173 0.191701 0
1131 1 0.845619 0.217792 0
1129 1 0.821534 0.224561 0
1102 1 0.868896 0.210336 0
1103 1 0.87645 0.186394 0
1104 1 0.893407 0.205346 0
1105 1 0.917044 0.199211 0
1076 1 0.94259 0.191917 0
1135 1 0.913916 0.224711 0
1107 1 0.958077 0.216233 0
1078 1 0.965571 0.182833 0
1109 1 0.980246 0.201951 0
1110 1 0.98335 0.225684 0
1111 1 0.514819 0.236892 0
1113 1 0.539224 0.24275 0
1112 1 0.520315 0.260865 0
1143 1 0.545689 0.266492 0
1114 1 0.563233 0.248675 0
1115 1 0.580006 0.230205 0
1116 1 0.587384 0.255172 0
1145 1 0.569652 0.272784 0
1117 1 0.605345 0.237741 0
1118 1 0.629916 0.243373 0
1147 1 0.611752 0.261373 0
1149 1 0.635961 0.266924 0
1121 1 0.670336 0.231898 0
1120 1 0.653812 0.249668 0
1151 1 0.677609 0.255328 0
1122 1 0.695003 0.237893 0
1124 1 0.719292 0.243059 0
1153 1 0.702042 0.262087 0
1154 1 0.72628 0.267351 0
1126 1 0.760738 0.232198 0
1155 1 0.743458 0.249941 0
1157 1 0.767465 0.256004 0
1128 1 0.786342 0.239024 0
1159 1 0.811281 0.245533 0
1158 1 0.792703 0.262766 0
1160 1 0.817925 0.269326 0
1130 1 0.835393 0.250577 0
1161 1 0.860704 0.260521 0
1132 1 0.861952 0.234803 0
1133 1 0.886108 0.22898 0
1163 1 0.884438 0.265709 0
1134 1 0.902619 0.248286 0
1165 1 0.909162 0.272201 0
1106 1 0.940538 0.23532 0
1136 1 0.925692 0.254523 0