ITEM: TIMESTEP
148000
ITEM: NUMBER OF ATOMS
1800
ITEM: BOX BOUNDS pp pp pp
1.2289105135870102e+00 1.6377108948641927e+02
1.2289105135870102e+00 1.6377108948641927e+02
0.0000000000000000e+00 5.5000000000000000e+00
ITEM: ATOMS id type xs ys zs
2 1 0.0241137 0.00884494 0
31 1 0.0183747 0.0324221 0
33 1 0.0422035 0.025854 0
930 1 0.000408568 0.0161486 0
4 1 0.0656697 0.019075 0
35 1 0.0833176 0.0370901 0
34 1 0.0593833 0.0436827 0
3 1 0.0477697 0.00077369 0
6 1 0.0896889 0.0116602 0
8 1 0.114599 0.0052098 0
37 1 0.10757 0.0297212 0
39 1 0.131843 0.0228155 0
10 1 0.157218 0.0177875 0
41 1 0.174184 0.0351357 0
40 1 0.149474 0.0413981 0
12 1 0.181927 0.0104778 0
14 1 0.199302 0.0283494 0
15 1 0.223453 0.0211354 0
13 1 0.206586 0.00351183 0
45 1 0.216406 0.0450745 0
16 1 0.247389 0.0160647 0
46 1 0.241218 0.0399677 0
47 1 0.265111 0.0329847 0
18 1 0.270967 0.0087241 0
49 1 0.289063 0.0272774 0
20 1 0.313573 0.0218657 0
19 1 0.295387 0.00370196 0
50 1 0.30685 0.0445563 0
51 1 0.331874 0.0391416 0
22 1 0.356874 0.034799 0
21 1 0.33846 0.0161323 0
23 1 0.362635 0.00914264 0
24 1 0.379464 0.0276098 0
894 1 0.386032 0.00377652 0
25 1 0.405759 0.0245274 0
26 1 0.433685 0.0346318 0
27 1 0.429268 0.0106099 0
898 1 0.453044 0.0172564 0
28 1 0.45804 0.0407608 0
29 1 0.477146 0.0226492 0
900 1 0.494187 0.00505942 0
30 1 0.499827 0.0301614 0
32 1 0.0354333 0.0507428 0
62 1 0.0285558 0.0755774 0
61 1 0.0115388 0.0574241 0
990 1 0.00451313 0.0816845 0
63 1 0.0525345 0.068526 0
65 1 0.0768381 0.0615253 0
66 1 0.0704825 0.0865066 0
38 1 0.124911 0.047469 0
36 1 0.100786 0.0537531 0
67 1 0.0947564 0.0788387 0
69 1 0.119116 0.0715422 0
71 1 0.142458 0.064758 0
42 1 0.168217 0.058437 0
72 1 0.160993 0.0820288 0
70 1 0.137375 0.0894083 0
43 1 0.193122 0.0524961 0
44 1 0.21061 0.0698689 0
73 1 0.185769 0.075815 0
74 1 0.228429 0.0877056 0
75 1 0.234896 0.0638493 0
77 1 0.259324 0.0572864 0
76 1 0.252445 0.0812218 0
48 1 0.28325 0.0514455 0
78 1 0.276892 0.0753664 0
79 1 0.300447 0.0686512 0
80 1 0.317417 0.0861777 0
81 1 0.325249 0.062236 0
52 1 0.35 0.0580971 0
82 1 0.355343 0.0821351 0
53 1 0.393184 0.0479971 0
83 1 0.373594 0.0650101 0
54 1 0.398542 0.0714426 0
84 1 0.3799 0.0890248 0
55 1 0.416882 0.0523539 0
57 1 0.440827 0.058539 0
56 1 0.422448 0.0764919 0
87 1 0.446774 0.0828152 0
59 1 0.482248 0.0469982 0
58 1 0.464365 0.065799 0
89 1 0.487726 0.0713107 0
88 1 0.470893 0.0903796 0
92 1 0.0163017 0.124086 0
93 1 0.022623 0.0996838 0
94 1 0.0408722 0.116472 0
64 1 0.0465311 0.0923041 0
95 1 0.0650579 0.110199 0
96 1 0.0827352 0.127496 0
125 1 0.058895 0.134338 0
97 1 0.0882606 0.103503 0
68 1 0.113354 0.0960278 0
98 1 0.107347 0.119681 0
99 1 0.130665 0.113452 0
100 1 0.155187 0.106173 0
131 1 0.1722 0.12425 0
130 1 0.148392 0.131132 0
101 1 0.179129 0.0995355 0
103 1 0.203953 0.0928569 0
102 1 0.197008 0.117985 0
105 1 0.221862 0.111951 0
104 1 0.214761 0.135784 0
106 1 0.246667 0.105368 0
137 1 0.265031 0.124866 0
135 1 0.239644 0.129514 0
107 1 0.269987 0.0993303 0
109 1 0.294027 0.0931695 0
108 1 0.287429 0.116424 0
139 1 0.304216 0.133492 0
110 1 0.313179 0.110512 0
111 1 0.337459 0.100664 0
141 1 0.343799 0.124219 0
113 1 0.361853 0.106989 0
85 1 0.404375 0.0951512 0
112 1 0.386621 0.112627 0
143 1 0.367857 0.130856 0
115 1 0.411011 0.119789 0
86 1 0.428484 0.100543 0
116 1 0.435461 0.124317 0
117 1 0.452943 0.107359 0
118 1 0.46014 0.131723 0
90 1 0.494416 0.0957053 0
119 1 0.476795 0.114512 0
123 1 0.034956 0.141232 0
122 1 0.0112092 0.147802 0
153 1 0.0289129 0.165489 0
152 1 0.00452556 0.172374 0
124 1 0.0524517 0.158771 0
126 1 0.0767381 0.151615 0
155 1 0.0709783 0.175901 0
129 1 0.123878 0.13739 0
127 1 0.100336 0.144064 0
128 1 0.117948 0.16119 0
157 1 0.0942765 0.168566 0
160 1 0.135528 0.17955 0
159 1 0.141822 0.154893 0
161 1 0.16009 0.172377 0
132 1 0.165908 0.148719 0
133 1 0.190103 0.142198 0
163 1 0.183879 0.166074 0
134 1 0.20856 0.15942 0
164 1 0.22669 0.177194 0
136 1 0.257537 0.148636 0
165 1 0.232614 0.152715 0
167 1 0.266228 0.170492 0
138 1 0.28339 0.148991 0
169 1 0.307735 0.158165 0
168 1 0.290465 0.1766 0
140 1 0.326868 0.141012 0
142 1 0.349873 0.148722 0
171 1 0.332019 0.165837 0
172 1 0.355915 0.172489 0
114 1 0.392639 0.136551 0
173 1 0.374346 0.154986 0
144 1 0.398984 0.160893 0
174 1 0.380944 0.178794 0
145 1 0.416688 0.143883 0
146 1 0.423679 0.166861 0
147 1 0.440906 0.148919 0
177 1 0.447672 0.174525 0
149 1 0.483535 0.139151 0
148 1 0.465227 0.156217 0
150 1 0.490498 0.164284 0
179 1 0.472235 0.180865 0
183 1 0.0223104 0.189982 0
182 1 0.0153266 0.215309 0
184 1 0.038739 0.208519 0
154 1 0.0459486 0.182689 0
185 1 0.0634342 0.200406 0
186 1 0.080878 0.217827 0
215 1 0.0566954 0.22592 0
156 1 0.088142 0.19406 0
158 1 0.111379 0.186529 0
187 1 0.105612 0.210585 0
189 1 0.129599 0.203016 0
191 1 0.153605 0.195534 0
190 1 0.147037 0.219511 0
221 1 0.171985 0.213326 0
162 1 0.177592 0.189537 0
193 1 0.203007 0.183728 0
192 1 0.194829 0.206823 0
194 1 0.213449 0.222725 0
195 1 0.23028 0.205026 0
166 1 0.248481 0.188362 0
196 1 0.254989 0.211354 0
170 1 0.31498 0.183132 0
197 1 0.272755 0.193996 0
199 1 0.297053 0.201306 0
198 1 0.278614 0.218458 0
229 1 0.302458 0.224986 0
201 1 0.338233 0.19043 0
200 1 0.320162 0.206895 0
202 1 0.344234 0.214781 0
203 1 0.362707 0.196796 0
175 1 0.404817 0.183834 0
233 1 0.368963 0.220721 0
204 1 0.386732 0.203311 0
205 1 0.410914 0.208833 0
176 1 0.429609 0.191345 0
207 1 0.435695 0.216258 0
178 1 0.453357 0.197685 0
208 1 0.45988 0.221965 0
180 1 0.496356 0.187063 0
209 1 0.477316 0.205096 0
212 1 0.00929747 0.23962 0
243 1 0.0276765 0.257352 0
241 1 0.00408072 0.264888 0
213 1 0.0339209 0.233336 0
216 1 0.0754424 0.242665 0
214 1 0.0517754 0.250982 0
245 1 0.0696296 0.267564 0
188 1 0.124272 0.227805 0
217 1 0.0988492 0.234275 0
218 1 0.116814 0.250958 0
247 1 0.0942614 0.259202 0
249 1 0.135037 0.266984 0
219 1 0.142549 0.243796 0
220 1 0.166265 0.236118 0
222 1 0.178075 0.257481 0
223 1 0.192482 0.23675 0
224 1 0.219104 0.246835 0
253 1 0.200875 0.263946 0
255 1 0.225687 0.270474 0
225 1 0.238216 0.228611 0
227 1 0.26149 0.236667 0
226 1 0.243226 0.25289 0
257 1 0.267529 0.260961 0
228 1 0.285436 0.243369 0
230 1 0.308969 0.250743 0
259 1 0.29036 0.268109 0
231 1 0.326262 0.232072 0
232 1 0.350474 0.238342 0
261 1 0.333568 0.255643 0
263 1 0.356957 0.262669 0
235 1 0.393891 0.227585 0
234 1 0.374563 0.2449 0
265 1 0.399549 0.251835 0
264 1 0.38022 0.269568 0
206 1 0.417555 0.233877 0
237 1 0.441955 0.240012 0
236 1 0.423283 0.257997 0
238 1 0.447549 0.263903 0
210 1 0.484985 0.230283 0
239 1 0.466901 0.246585 0
240 1 0.491019 0.25388 0
269 1 0.472276 0.270546 0
242 1 0.0218787 0.281977 0
271 1 0.0164171 0.307587 0
273 1 0.0398034 0.297998 0
244 1 0.0460164 0.274669 0
275 1 0.0634107 0.291134 0
276 1 0.0779725 0.311718 0
246 1 0.0885268 0.286066 0
248 1 0.112938 0.276297 0
279 1 0.119259 0.302153 0
251 1 0.15818 0.273189 0
250 1 0.140608 0.289329 0
281 1 0.162766 0.298227 0
280 1 0.143419 0.31394 0
252 1 0.181824 0.281426 0
254 1 0.206402 0.28786 0
283 1 0.188321 0.304595 0
284 1 0.211556 0.312803 0
256 1 0.249347 0.277995 0
285 1 0.230302 0.294952 0
287 1 0.255025 0.3021 0
258 1 0.272963 0.285379 0
260 1 0.314665 0.274302 0
288 1 0.278216 0.310055 0
289 1 0.29549 0.293194 0
290 1 0.302194 0.316977 0
262 1 0.337968 0.28089 0
291 1 0.319512 0.299016 0
292 1 0.344532 0.304851 0
293 1 0.362313 0.286751 0
266 1 0.403998 0.275378 0
295 1 0.38615 0.293753 0
294 1 0.36883 0.310923 0
296 1 0.393275 0.31806 0
267 1 0.429766 0.282364 0
297 1 0.412009 0.300084 0
298 1 0.436172 0.306105 0
268 1 0.454355 0.288044 0
270 1 0.477989 0.295114 0
299 1 0.459877 0.31295 0
1141 1 0.495844 0.278245 0
272 1 0.0353323 0.322405 0
301 1 0.0134191 0.333249 0
303 1 0.0379341 0.346726 0
302 1 0.0164072 0.359041 0
274 1 0.0589912 0.327279 0
304 1 0.0628367 0.351875 0
305 1 0.0827563 0.33657 0
306 1 0.0869391 0.360282 0
277 1 0.101506 0.320025 0
278 1 0.124985 0.328494 0
307 1 0.106685 0.34479 0
309 1 0.130121 0.353259 0
282 1 0.169504 0.321205 0
311 1 0.148442 0.337546 0
312 1 0.173907 0.3459 0
310 1 0.153993 0.361771 0
313 1 0.193295 0.329536 0
314 1 0.197863 0.35422 0
315 1 0.216548 0.337075 0
345 1 0.222564 0.361454 0
286 1 0.235702 0.320048 0
317 1 0.259613 0.326298 0
316 1 0.240533 0.344958 0
318 1 0.265019 0.351235 0
319 1 0.283774 0.333218 0
320 1 0.308121 0.341053 0
349 1 0.288971 0.358515 0
321 1 0.326382 0.322918 0
322 1 0.332718 0.347848 0
323 1 0.350439 0.328843 0
353 1 0.356071 0.354525 0
324 1 0.374334 0.33494 0
325 1 0.398928 0.342195 0
355 1 0.381092 0.359662 0
326 1 0.42291 0.34884 0
327 1 0.418207 0.324362 0
328 1 0.441941 0.330824 0
359 1 0.446846 0.355719 0
300 1 0.48303 0.319232 0
329 1 0.465277 0.337535 0
1201 1 0.489551 0.34326 0
330 1 0.471751 0.362051 0
332 1 0.02223 0.383484 0
333 1 0.0435975 0.369654 0
361 1 0.00343423 0.400857 0
363 1 0.0275269 0.408985 0
334 1 0.0468198 0.392997 0
335 1 0.0668843 0.378127 0
336 1 0.0706193 0.401327 0
337 1 0.0899049 0.385208 0
308 1 0.110741 0.369201 0
338 1 0.114376 0.393642 0
339 1 0.134412 0.377501 0
340 1 0.138868 0.401842 0
341 1 0.157818 0.386015 0
343 1 0.178627 0.370144 0
342 1 0.182425 0.394327 0
344 1 0.203094 0.377863 0
373 1 0.206577 0.402243 0
346 1 0.227287 0.386086 0
347 1 0.246925 0.369147 0
377 1 0.250699 0.393297 0
348 1 0.270674 0.376775 0
350 1 0.31359 0.364869 0
376 1 0.275676 0.40088 0
378 1 0.294395 0.383472 0
409 1 0.299296 0.408008 0
379 1 0.3188 0.389062 0
351 1 0.337944 0.372388 0
381 1 0.343303 0.397291 0
352 1 0.362755 0.37864 0
382 1 0.366861 0.404048 0
356 1 0.404784 0.366789 0
354 1 0.387587 0.383566 0
383 1 0.391769 0.407092 0
385 1 0.411545 0.391279 0
357 1 0.429607 0.372925 0
387 1 0.436294 0.396263 0
358 1 0.454347 0.379769 0
1231 1 0.495847 0.367395 0
360 1 0.478686 0.386678 0
389 1 0.461324 0.40417 0
362 1 0.00908237 0.425914 0
364 1 0.0335978 0.434096 0
393 1 0.0134967 0.450637 0
365 1 0.0520579 0.417558 0
366 1 0.0759379 0.425747 0
395 1 0.0570037 0.44237 0
397 1 0.0801468 0.450846 0
367 1 0.0952165 0.410265 0
369 1 0.119535 0.418375 0
368 1 0.0996712 0.434968 0
399 1 0.12433 0.442742 0
371 1 0.163297 0.410083 0
370 1 0.14389 0.426571 0
401 1 0.168263 0.434121 0
400 1 0.149206 0.450229 0
372 1 0.187359 0.418276 0
403 1 0.191863 0.442382 0
374 1 0.212251 0.425446 0
433 1 0.215677 0.45022 0
375 1 0.231177 0.410023 0
404 1 0.235535 0.434001 0
405 1 0.255685 0.417538 0
406 1 0.260131 0.441513 0
407 1 0.280055 0.42493 0
408 1 0.303465 0.433306 0
437 1 0.284135 0.449819 0
380 1 0.323402 0.414053 0
410 1 0.327727 0.438022 0
411 1 0.347917 0.422003 0
412 1 0.366594 0.453775 0
413 1 0.373592 0.428721 0
384 1 0.399288 0.430226 0
414 1 0.391209 0.452369 0
415 1 0.416721 0.446537 0
388 1 0.442871 0.420893 0
386 1 0.419181 0.414328 0
417 1 0.44168 0.444424 0
1261 1 0.485177 0.410388 0
419 1 0.467167 0.430614 0
390 1 0.492198 0.433843 0
423 1 0.0189055 0.475248 0
394 1 0.0374832 0.458551 0
425 1 0.0429604 0.483341 0
424 1 0.0243642 0.499856 0
453 1 0.000207566 0.491968 0
396 1 0.0616614 0.467974 0
427 1 0.0867343 0.475584 0
426 1 0.0662025 0.491717 0
398 1 0.104483 0.459477 0
428 1 0.110942 0.484822 0
429 1 0.128634 0.466887 0
430 1 0.135253 0.491295 0
402 1 0.172312 0.458746 0
431 1 0.153935 0.47486 0
461 1 0.177345 0.483739 0
460 1 0.158351 0.499959 0
432 1 0.195444 0.46699 0
434 1 0.220761 0.474646 0
463 1 0.201423 0.490946 0
464 1 0.225047 0.498914 0
435 1 0.240065 0.458508 0
465 1 0.243508 0.48237 0
436 1 0.263543 0.466268 0
467 1 0.267971 0.491209 0
439 1 0.309823 0.458024 0
438 1 0.287678 0.473963 0
469 1 0.310026 0.483946 0
468 1 0.291519 0.499337 0
441 1 0.341699 0.457937 0
440 1 0.333961 0.480576 0
442 1 0.358315 0.477299 0
443 1 0.382404 0.474869 0
445 1 0.406309 0.471031 0
444 1 0.398462 0.494239 0
473 1 0.373396 0.497854 0
446 1 0.422741 0.491108 0
447 1 0.446801 0.487043 0
416 1 0.431352 0.467195 0
420 1 0.478329 0.455824 0
1321 1 0.496141 0.479307 0
449 1 0.471664 0.482725 0
418 1 0.455904 0.464067 0
452 1 0.00578143 0.516487 0
454 1 0.0298298 0.52438 0
483 1 0.0112565 0.540814 0
455 1 0.0480875 0.508662 0
485 1 0.0537674 0.533032 0
456 1 0.0716902 0.515849 0
487 1 0.0780111 0.539799 0
457 1 0.0906703 0.500123 0
458 1 0.0966036 0.524327 0
459 1 0.115574 0.508819 0
488 1 0.121181 0.532163 0
489 1 0.139949 0.517477 0
491 1 0.16402 0.524049 0
490 1 0.144836 0.541398 0
462 1 0.182578 0.50781 0
492 1 0.18776 0.532205 0
493 1 0.205813 0.514775 0
494 1 0.211521 0.540568 0
495 1 0.229667 0.523717 0
466 1 0.248039 0.507693 0
496 1 0.253324 0.532439 0
497 1 0.271388 0.515172 0
527 1 0.277259 0.540194 0
498 1 0.294048 0.522519 0
501 1 0.316956 0.527314 0
499 1 0.323342 0.50402 0
470 1 0.340279 0.52398 0
471 1 0.348284 0.50124 0
502 1 0.353709 0.544265 0
472 1 0.36495 0.520838 0
503 1 0.378666 0.54137 0
474 1 0.389078 0.51712 0
476 1 0.403354 0.537502 0
475 1 0.413082 0.513537 0
507 1 0.428275 0.534183 0
477 1 0.437271 0.510596 0
478 1 0.453622 0.529619 0
479 1 0.479584 0.524743 0
1381 1 0.495178 0.544578 0
448 1 0.462741 0.50675 0
450 1 0.489312 0.502465 0
513 1 0.016413 0.565355 0
484 1 0.0351019 0.548407 0
514 1 0.0408525 0.573276 0
512 1 0.0230107 0.590569 0
486 1 0.0590935 0.556674 0
515 1 0.0831797 0.564326 0
543 1 0.0641949 0.580853 0
545 1 0.0876925 0.588954 0
517 1 0.102387 0.548869 0
519 1 0.126576 0.557756 0
516 1 0.107106 0.572939 0
518 1 0.132125 0.581452 0
520 1 0.150123 0.564658 0
521 1 0.169134 0.548826 0
522 1 0.174229 0.574391 0
549 1 0.156193 0.589778 0
523 1 0.193299 0.556707 0
524 1 0.216952 0.565786 0
553 1 0.197539 0.581985 0
554 1 0.221471 0.589938 0
525 1 0.234597 0.549051 0
526 1 0.258952 0.556442 0
555 1 0.240454 0.572957 0
557 1 0.264315 0.580507 0
529 1 0.301513 0.546468 0
528 1 0.282944 0.563894 0
558 1 0.288012 0.587939 0
559 1 0.314163 0.570497 0
500 1 0.328291 0.548925 0
531 1 0.343686 0.568058 0
533 1 0.358965 0.587804 0
505 1 0.393461 0.560966 0
504 1 0.368157 0.565082 0
534 1 0.384443 0.584517 0
535 1 0.40922 0.580581 0
509 1 0.444727 0.552886 0
506 1 0.418538 0.557688 0
508 1 0.434892 0.576015 0
480 1 0.470135 0.547589 0
510 1 0.485891 0.56691 0
539 1 0.460499 0.571724 0
540 1 0.476458 0.589986 0
571 1 0.0288573 0.614657 0
1500 1 0.00920939 0.63146 0
541 1 0.0039401 0.60725 0
542 1 0.0470237 0.598638 0
573 1 0.0527691 0.62302 0
544 1 0.0709562 0.606358 0
575 1 0.0759971 0.630746 0
546 1 0.0937102 0.614162 0
547 1 0.112172 0.597589 0
577 1 0.117107 0.622613 0
548 1 0.136695 0.605489 0
579 1 0.140913 0.631034 0
550 1 0.160252 0.614996 0
551 1 0.179216 0.598497 0
581 1 0.183741 0.622888 0
552 1 0.20299 0.606367 0
582 1 0.207645 0.630363 0
583 1 0.227748 0.613637 0
556 1 0.247422 0.597828 0
587 1 0.270091 0.605189 0
585 1 0.251272 0.622739 0
586 1 0.274811 0.629092 0
560 1 0.310319 0.597441 0
589 1 0.298582 0.621616 0
530 1 0.333675 0.590709 0
532 1 0.349516 0.611008 0
561 1 0.325341 0.616857 0
562 1 0.340662 0.635896 0
564 1 0.364719 0.630359 0
536 1 0.399864 0.603304 0
563 1 0.374543 0.607345 0
565 1 0.390656 0.626251 0
538 1 0.450609 0.594954 0
537 1 0.425125 0.5988 0
566 1 0.415856 0.621918 0
567 1 0.44065 0.617731 0
569 1 0.465626 0.613879 0
570 1 0.481201 0.632917 0
1441 1 0.491499 0.609757 0
572 1 0.0324481 0.63934 0
602 1 0.0146574 0.657482 0
603 1 0.0386846 0.664369 0
632 1 0.0197803 0.680642 0
574 1 0.0560786 0.647223 0
605 1 0.0810002 0.654856 0
604 1 0.0616706 0.671509 0
606 1 0.0851063 0.679829 0
576 1 0.100247 0.639783 0
578 1 0.123617 0.648329 0
607 1 0.104425 0.664518 0
608 1 0.128333 0.672578 0
609 1 0.146736 0.656593 0
580 1 0.164713 0.639754 0
610 1 0.169813 0.663621 0
639 1 0.151979 0.680668 0
611 1 0.188562 0.647154 0
613 1 0.212465 0.655028 0
612 1 0.193677 0.671552 0
643 1 0.217424 0.679917 0
584 1 0.232231 0.639184 0
614 1 0.235757 0.662783 0
615 1 0.257602 0.648784 0
616 1 0.258816 0.674333 0
590 1 0.315624 0.639476 0
617 1 0.282921 0.669425 0
588 1 0.290954 0.646681 0
619 1 0.308337 0.664148 0
591 1 0.332214 0.65977 0
593 1 0.35683 0.654342 0
621 1 0.348612 0.678502 0
592 1 0.372717 0.673028 0
594 1 0.382098 0.649747 0
625 1 0.397602 0.669245 0
595 1 0.406467 0.645057 0
597 1 0.431263 0.640911 0
596 1 0.422187 0.664326 0
599 1 0.447612 0.661181 0
568 1 0.45608 0.637371 0
1501 1 0.488081 0.675965 0
600 1 0.471929 0.657134 0
629 1 0.463108 0.680084 0
1471 1 0.496654 0.651935 0
633 1 0.042995 0.688767 0
663 1 0.024326 0.705888 0
661 1 0.0066267 0.722059 0
1560 1 0.000288426 0.697514 0
634 1 0.0475728 0.712309 0
635 1 0.0673039 0.696053 0
665 1 0.0725129 0.721338 0
636 1 0.0902568 0.704367 0
637 1 0.108873 0.688494 0
638 1 0.132936 0.697257 0
667 1 0.11433 0.711902 0
669 1 0.143642 0.72582 0
641 1 0.175217 0.688026 0
640 1 0.156991 0.704613 0
671 1 0.178945 0.714815 0
642 1 0.198284 0.696388 0
644 1 0.2218 0.704548 0
645 1 0.246749 0.699142 0
646 1 0.263595 0.717616 0
675 1 0.238402 0.723166 0
647 1 0.274048 0.69281 0
618 1 0.298806 0.687195 0
648 1 0.288857 0.71197 0
649 1 0.314123 0.707124 0
620 1 0.323597 0.684019 0
650 1 0.329386 0.726598 0
622 1 0.339539 0.702527 0
651 1 0.354817 0.721749 0
653 1 0.36409 0.697042 0
623 1 0.388501 0.693306 0
624 1 0.380106 0.716151 0
626 1 0.404711 0.71182 0
598 1 0.438465 0.684286 0
627 1 0.412967 0.688027 0
657 1 0.42869 0.707064 0
658 1 0.445088 0.725961 0
628 1 0.45341 0.703208 0
1531 1 0.494591 0.719273 0
630 1 0.478394 0.699524 0
659 1 0.470072 0.722629 0
662 1 0.0304923 0.729868 0
691 1 0.0124901 0.746635 0
693 1 0.0372802 0.754275 0
692 1 0.0186384 0.770947 0
664 1 0.0540569 0.736467 0
695 1 0.0767984 0.746046 0
694 1 0.0666982 0.770905 0
696 1 0.0907523 0.766112 0
666 1 0.0960629 0.729619 0
697 1 0.115643 0.759741 0
668 1 0.121333 0.736227 0
699 1 0.141467 0.752009 0
670 1 0.165155 0.744578 0
700 1 0.158555 0.769482 0
701 1 0.18206 0.762373 0
673 1 0.213683 0.728174 0
672 1 0.190358 0.73685 0
703 1 0.206963 0.754916 0
705 1 0.224489 0.772456 0
674 1 0.231263 0.747179 0
676 1 0.255797 0.741806 0
707 1 0.272082 0.761694 0
679 1 0.305109 0.730821 0
677 1 0.279899 0.73525 0
678 1 0.295913 0.754829 0
681 1 0.32132 0.750418 0
652 1 0.346727 0.745265 0
682 1 0.338802 0.768805 0
683 1 0.362645 0.764296 0
655 1 0.395745 0.735724 0
654 1 0.371122 0.740239 0
685 1 0.38762 0.758925 0
656 1 0.420993 0.731309 0
686 1 0.411973 0.754497 0
687 1 0.436679 0.748567 0
688 1 0.453767 0.76836 0
717 1 0.429188 0.772106 0
660 1 0.485198 0.74141 0
689 1 0.46124 0.745311 0
690 1 0.477789 0.765282 0
722 1 0.011769 0.809018 0
723 1 0.0424856 0.777814 0
724 1 0.035522 0.802082 0
721 1 0.000169863 0.787929 0
725 1 0.0601995 0.795347 0
726 1 0.0844737 0.789859 0
755 1 0.0772447 0.813929 0
698 1 0.133276 0.776013 0
727 1 0.10977 0.783783 0
728 1 0.1269 0.801182 0
757 1 0.101734 0.80756 0
729 1 0.151899 0.793206 0
731 1 0.176085 0.786741 0
732 1 0.168905 0.811109 0
702 1 0.199982 0.779566 0
704 1 0.216465 0.797972 0
733 1 0.193311 0.80405 0
735 1 0.241139 0.791883 0
706 1 0.264458 0.785729 0
737 1 0.257131 0.810085 0
736 1 0.234183 0.816849 0
680 1 0.314107 0.773952 0
709 1 0.288671 0.78012 0
708 1 0.281491 0.804342 0
710 1 0.305622 0.798483 0
713 1 0.355377 0.787738 0
711 1 0.33113 0.793033 0
712 1 0.348716 0.811407 0
741 1 0.324667 0.817372 0
715 1 0.404016 0.777503 0
684 1 0.379771 0.782294 0
714 1 0.373034 0.805329 0
716 1 0.396382 0.800808 0
718 1 0.444116 0.790457 0
747 1 0.420587 0.795926 0
748 1 0.437541 0.813267 0
719 1 0.468479 0.789058 0
720 1 0.490161 0.798818 0
749 1 0.468907 0.81345 0
751 1 0.00379846 0.832931 0
752 1 0.0227278 0.850432 0
753 1 0.0286848 0.826727 0
783 1 0.0462386 0.844761 0
754 1 0.0538117 0.819374 0
785 1 0.070469 0.837508 0
787 1 0.0888633 0.856131 0
784 1 0.064628 0.861852 0
756 1 0.094597 0.831714 0
759 1 0.119738 0.824089 0
758 1 0.113051 0.848737 0
730 1 0.144298 0.818726 0
760 1 0.137466 0.842974 0
761 1 0.161731 0.83573 0
791 1 0.155187 0.860409 0
762 1 0.179731 0.854021 0
734 1 0.210663 0.823716 0
763 1 0.185136 0.830105 0
764 1 0.203792 0.847213 0
765 1 0.227065 0.841695 0
767 1 0.250871 0.835097 0
766 1 0.244001 0.85928 0
768 1 0.268998 0.853191 0
739 1 0.299596 0.823014 0
738 1 0.275462 0.828494 0
769 1 0.292719 0.847032 0
740 1 0.317453 0.840408 0
742 1 0.341239 0.834983 0
771 1 0.333707 0.858709 0
773 1 0.358133 0.853442 0
743 1 0.365233 0.829725 0
745 1 0.388964 0.82411 0
744 1 0.382161 0.847835 0
775 1 0.406052 0.842421 0
746 1 0.413277 0.818623 0
777 1 0.429602 0.836537 0
778 1 0.423208 0.860433 0
779 1 0.453926 0.832583 0
809 1 0.457357 0.857943 0
1621 1 0.494582 0.822576 0
750 1 0.476597 0.839864 0
811 1 0.00873694 0.899625 0
782 1 0.0158653 0.875311 0
813 1 0.0400196 0.868104 0
812 1 0.0337408 0.892243 0
815 1 0.0575825 0.886177 0
786 1 0.0816105 0.880491 0
816 1 0.0754223 0.904011 0
789 1 0.129463 0.866199 0
817 1 0.0998662 0.898081 0
788 1 0.106472 0.873577 0
819 1 0.123846 0.89124 0
790 1 0.147374 0.88429 0
792 1 0.172054 0.877529 0
821 1 0.165648 0.901842 0
820 1 0.1424 0.908576 0
795 1 0.220514 0.866386 0
793 1 0.196509 0.871902 0
823 1 0.190303 0.895598 0
794 1 0.213735 0.89017 0
797 1 0.261849 0.877079 0
796 1 0.238357 0.884093 0
825 1 0.232491 0.907503 0
827 1 0.255588 0.901291 0
770 1 0.310278 0.863776 0
799 1 0.285666 0.871771 0
798 1 0.278673 0.895953 0
800 1 0.302756 0.889762 0
772 1 0.352211 0.877793 0
801 1 0.327704 0.883113 0
831 1 0.321399 0.907039 0
802 1 0.345579 0.901983 0
776 1 0.399951 0.866877 0
774 1 0.376483 0.871719 0
803 1 0.369027 0.895981 0
805 1 0.393399 0.889691 0
807 1 0.417532 0.885032 0
808 1 0.44091 0.877228 0
839 1 0.435002 0.902912 0
806 1 0.410144 0.908458 0
780 1 0.481389 0.863664 0
1681 1 0.487412 0.887835 0
810 1 0.464142 0.882103 0
840 1 0.469973 0.906706 0
841 1 0.00148275 0.924856 0
842 1 0.0198322 0.941135 0
843 1 0.0263364 0.916613 0
844 1 0.0435237 0.934145 0
814 1 0.0508582 0.909762 0
845 1 0.0683207 0.927903 0
846 1 0.085732 0.946255 0
875 1 0.0617214 0.951943 0
847 1 0.0928953 0.921264 0
818 1 0.117575 0.915639 0
848 1 0.110493 0.939059 0
849 1 0.134952 0.933343 0
850 1 0.152019 0.951235 0
851 1 0.158794 0.926655 0
852 1 0.175266 0.945266 0
822 1 0.182431 0.919618 0
824 1 0.207011 0.913661 0
853 1 0.200485 0.937519 0
855 1 0.225794 0.931868 0
826 1 0.249303 0.925828 0
856 1 0.242929 0.949474 0
857 1 0.266955 0.943504 0
828 1 0.273652 0.919749 0
829 1 0.297121 0.914035 0
859 1 0.291454 0.938092 0
830 1 0.315236 0.931638 0
832 1 0.33907 0.924928 0
861 1 0.332919 0.949277 0
863 1 0.35614 0.94329 0
833 1 0.363327 0.920205 0
804 1 0.38591 0.913902 0
834 1 0.381089 0.937977 0
835 1 0.404709 0.932073 0
837 1 0.42787 0.925846 0
836 1 0.42455 0.950089 0
838 1 0.451926 0.923246 0
870 1 0.453794 0.948489 0
1712 1 0.498666 0.936682 0
869 1 0.474542 0.932177 0
1711 1 0.493861 0.913094 0
872 1 0.0301088 0.983661 0
873 1 0.0372739 0.958771 0
871 1 0.0124982 0.965967 0
1 1 0.00704789 0.991696 0
874 1 0.0546145 0.976584 0
876 1 0.0782146 0.969732 0
5 1 0.0720239 0.9944 0
879 1 0.127335 0.957331 0
7 1 0.0970672 0.988038 0
877 1 0.103042 0.963819 0
878 1 0.120452 0.981503 0
880 1 0.145782 0.974917 0
881 1 0.170054 0.969028 0
11 1 0.164295 0.992712 0
9 1 0.139259 0.999172 0
854 1 0.217686 0.95513 0
882 1 0.188674 0.986671 0
883 1 0.194751 0.96211 0
884 1 0.212447 0.979055 0
885 1 0.235945 0.973053 0
886 1 0.231232 0.997415 0
17 1 0.254047 0.990637 0
887 1 0.259953 0.966694 0
860 1 0.309744 0.955923 0
858 1 0.285244 0.961608 0
888 1 0.278632 0.985447 0
889 1 0.302386 0.980025 0
890 1 0.319345 0.997658 0
862 1 0.350531 0.968095 0
891 1 0.326705 0.974311 0
892 1 0.343741 0.992402 0
865 1 0.398429 0.955611 0
864 1 0.373895 0.961796 0
893 1 0.368534 0.985138 0
895 1 0.392204 0.979374 0
896 1 0.40925 0.997821 0
866 1 0.416204 0.974621 0
897 1 0.444942 0.992322 0
867 1 0.439595 0.968767 0
1741 1 0.480579 0.95556 0
1771 1 0.48704 0.980038 0
899 1 0.469409 0.998014 0
868 1 0.4628 0.973571 0
931 1 0.524036 0.0358171 0
901 1 0.518043 0.0110094 0
902 1 0.541936 0.0175864 0
904 1 0.565964 0.0248101 0
906 1 0.583703 0.00670869 0
933 1 0.548045 0.04234 0
935 1 0.590493 0.0320218 0
905 1 0.560189 0.000216756 0
908 1 0.608145 0.0139436 0
937 1 0.613952 0.0378909 0
939 1 0.631542 0.0211597 0
941 1 0.656414 0.0278004 0
912 1 0.674578 0.00994326 0
910 1 0.64984 0.00364833 0
942 1 0.681221 0.0335461 0
938 1 0.637986 0.0445415 0
943 1 0.698814 0.0157044 0
944 1 0.705708 0.0412968 0
975 1 0.723055 0.0230011 0
947 1 0.748948 0.0305 0
945 1 0.740221 0.00653525 0
948 1 0.772868 0.0384534 0
918 1 0.779258 0.0139377 0
919 1 0.803769 0.0060547 0
949 1 0.796738 0.0305094 0
951 1 0.822024 0.0222931 0
922 1 0.845658 0.0158615 0
952 1 0.839118 0.0408331 0
953 1 0.864098 0.0338258 0
923 1 0.869805 0.0100117 0
954 1 0.888202 0.02712 0
924 1 0.89397 0.00254757 0
956 1 0.905588 0.0445997 0
955 1 0.911436 0.0191974 0
926 1 0.935064 0.0128249 0
957 1 0.952399 0.0292341 0
928 1 0.959593 0.00533974 0
959 1 0.976707 0.0230203 0
960 1 0.992701 0.0403978 0
932 1 0.530583 0.0598011 0
962 1 0.536477 0.0843738 0
961 1 0.512228 0.0777996 0
60 1 0.506245 0.0541083 0
934 1 0.572056 0.0490741 0
963 1 0.554681 0.0664809 0
965 1 0.579239 0.0730173 0
964 1 0.560663 0.0901694 0
936 1 0.597119 0.0559529 0
966 1 0.603647 0.0799035 0
967 1 0.620953 0.0621422 0
968 1 0.627291 0.0871523 0
940 1 0.662627 0.0522052 0
969 1 0.645345 0.0694944 0
970 1 0.670033 0.0761682 0
971 1 0.68687 0.0578245 0
972 1 0.693946 0.0833113 0
973 1 0.711795 0.0661019 0
1003 1 0.717554 0.0898546 0
946 1 0.730232 0.0472392 0
974 1 0.735509 0.0723754 0
977 1 0.755288 0.0558945 0
1007 1 0.760948 0.0808384 0
950 1 0.815159 0.0470222 0
979 1 0.790509 0.0547266 0
980 1 0.808463 0.0705058 0
978 1 0.784912 0.0779423 0
981 1 0.832839 0.0645952 0
983 1 0.857477 0.0578447 0
982 1 0.850311 0.0825236 0
1011 1 0.825839 0.0893578 0
985 1 0.881583 0.0514649 0
984 1 0.876297 0.0748641 0
986 1 0.899896 0.0689799 0
987 1 0.944537 0.0548418 0
1017 1 0.939751 0.0790195 0
958 1 0.9689 0.047941 0
988 1 0.963648 0.0717164 0
989 1 0.987068 0.0640811 0
1019 1 0.981241 0.0895464 0
991 1 0.517961 0.103166 0
992 1 0.525919 0.127036 0
993 1 0.542177 0.108913 0
120 1 0.50066 0.120431 0
994 1 0.566594 0.115056 0
995 1 0.585247 0.0962011 0
1023 1 0.550073 0.133578 0
996 1 0.590713 0.12257 0
997 1 0.609471 0.104031 0
1027 1 0.614977 0.128019 0
998 1 0.633587 0.110689 0
999 1 0.6512 0.0942384 0
1000 1 0.657709 0.118739 0
1001 1 0.676254 0.0998654 0
1029 1 0.639996 0.13531 0
1031 1 0.682174 0.124221 0
1002 1 0.699959 0.10729 0
1033 1 0.70628 0.131398 0
1004 1 0.72454 0.114325 0
976 1 0.742128 0.0966965 0
1005 1 0.747955 0.120395 0
1037 1 0.772253 0.126209 0
1008 1 0.777887 0.101546 0
1009 1 0.802154 0.0947666 0
1039 1 0.795949 0.120352 0
1010 1 0.819438 0.113165 0
1012 1 0.842961 0.106903 0
1041 1 0.836726 0.131176 0
1043 1 0.860288 0.124028 0
1015 1 0.892365 0.0937862 0
1013 1 0.868681 0.0992152 0
1014 1 0.884627 0.118078 0
1045 1 0.903422 0.135432 0
1016 1 0.908904 0.112302 0
1047 1 0.931104 0.10319 0
1046 1 0.927399 0.128793 0
1049 1 0.949559 0.12022 0
91 1 0.999173 0.105685 0
1018 1 0.956806 0.0959725 0
1020 1 0.97436 0.113231 0
121 1 0.992514 0.129727 0
1022 1 0.532294 0.151161 0
1051 1 0.513884 0.168877 0
1053 1 0.538152 0.175373 0
1021 1 0.507808 0.145247 0
1025 1 0.573147 0.139113 0
1024 1 0.556521 0.157629 0
1055 1 0.580299 0.164428 0
1026 1 0.598584 0.146527 0
1028 1 0.622531 0.152626 0
1057 1 0.604792 0.170799 0
1058 1 0.62868 0.177934 0
1030 1 0.664831 0.142575 0
1059 1 0.646103 0.159734 0
1061 1 0.670463 0.167719 0
1032 1 0.688848 0.149733 0
1063 1 0.712148 0.156837 0
1062 1 0.694608 0.174383 0
1034 1 0.719276 0.180718 0
1035 1 0.730323 0.139518 0
1006 1 0.755874 0.145489 0
1036 1 0.736703 0.163185 0
1067 1 0.759756 0.170019 0
1040 1 0.812983 0.13798 0
1038 1 0.788295 0.144459 0
1069 1 0.80638 0.16094 0
1068 1 0.782667 0.1687 0
1071 1 0.830174 0.154886 0
1042 1 0.855212 0.148995 0
1072 1 0.847988 0.173308 0
1070 1 0.823884 0.179249 0
1044 1 0.879015 0.142438 0
1075 1 0.89688 0.15928 0
1073 1 0.871563 0.167032 0
1048 1 0.945107 0.145646 0
1077 1 0.920722 0.152365 0
1078 1 0.938328 0.170131 0
1076 1 0.913931 0.176788 0
1050 1 0.968736 0.136734 0
1079 1 0.962963 0.163149 0
151 1 0.986617 0.154585 0
1080 1 0.981023 0.179402 0
1081 1 0.502577 0.211785 0
1052 1 0.520491 0.19403 0
1082 1 0.527394 0.217531 0
1083 1 0.544617 0.199562 0
1054 1 0.561912 0.182374 0
1085 1 0.567877 0.207442 0
1056 1 0.585394 0.188368 0
1084 1 0.550318 0.224396 0
1086 1 0.592352 0.213142 0
1087 1 0.610411 0.195417 0
1088 1 0.616265 0.220498 0
1089 1 0.633942 0.201866 0
1060 1 0.652248 0.184493 0
1090 1 0.658531 0.208649 0
1091 1 0.676633 0.192601 0
1119 1 0.641475 0.226125 0
1092 1 0.683546 0.216837 0
1093 1 0.701 0.199242 0
1123 1 0.708328 0.22414 0
1064 1 0.7256 0.205459 0
1065 1 0.743422 0.187985 0
1095 1 0.750565 0.212362 0
1066 1 0.772635 0.194565 0
1097 1 0.773647 0.219841 0
1099 1 0.800742 0.185185 0
1098 1 0.794625 0.20907 0
1100 1 0.818585 0.203857 0
1101 1 0.842034 0.197182 0
1131 1 0.834875 0.221484 0
1102 1 0.859078 0.215142 0
1074 1 0.889942 0.185107 0
1103 1 0.865531 0.190628 0
1104 1 0.883082 0.208618 0
1135 1 0.90177 0.225997 0
1105 1 0.907712 0.202148 0
1107 1 0.931746 0.194514 0
1106 1 0.924935 0.219653 0
1108 1 0.948308 0.212939 0
1109 1 0.956409 0.187159 0
1110 1 0.97376 0.204776 0
211 1 0.991745 0.222665 0
181 1 0.997539 0.197949 0
1111 1 0.509337 0.234503 0
1113 1 0.532853 0.242539 0
1112 1 0.514269 0.260294 0
1143 1 0.539118 0.26602 0
1115 1 0.575079 0.231574 0
1114 1 0.557186 0.248904 0
1116 1 0.581541 0.255619 0
1117 1 0.599433 0.238035 0
1118 1 0.623436 0.244183 0
1147 1 0.6062 0.263069 0
1149 1 0.630285 0.268483 0
1121 1 0.66513 0.233001 0
1120 1 0.647752 0.250726 0
1151 1 0.671345 0.258646 0
1122 1 0.689134 0.241154 0
1124 1 0.714327 0.248344 0
1153 1 0.696292 0.265434 0
1154 1 0.72114 0.272329 0
1094 1 0.733205 0.229557 0
1096 1 0.757236 0.23726 0
1125 1 0.739324 0.254293 0
1126 1 0.763078 0.261755 0
1130 1 0.810035 0.227573 0
1127 1 0.781104 0.244409 0
1129 1 0.80496 0.252278 0
1128 1 0.788064 0.269182 0
1161 1 0.828621 0.244961 0
1162 1 0.845542 0.263877 0
1132 1 0.852186 0.239809 0
1133 1 0.877677 0.232732 0
1163 1 0.871189 0.256781 0
1134 1 0.895124 0.25024 0