ITEM: TIMESTEP
152000
ITEM: NUMBER OF ATOMS
1800
ITEM: BOX BOUNDS pp pp pp
1.3075668004972982e+00 1.6369243319950823e+02
1.3075668004972982e+00 1.6369243319950823e+02
0.0000000000000000e+00 5.5000000000000000e+00
ITEM: ATOMS id type xs ys zs
2 1 0.0248787 0.00728152 0
31 1 0.0175385 0.0324087 0
33 1 0.0412622 0.025241 0
930 1 0.00109069 0.0144369 0
4 1 0.0661597 0.0188615 0
35 1 0.083049 0.0365698 0
34 1 0.0586541 0.0431609 0
3 1 0.0486575 0.000515389 0
6 1 0.090046 0.0125419 0
8 1 0.113901 0.00587747 0
37 1 0.107853 0.0301503 0
39 1 0.131243 0.0238002 0
10 1 0.155371 0.0168568 0
41 1 0.173075 0.0343972 0
40 1 0.149317 0.0407982 0
12 1 0.179191 0.00963747 0
14 1 0.195662 0.0270637 0
15 1 0.221414 0.0223674 0
13 1 0.204053 0.00328479 0
16 1 0.245878 0.0161699 0
46 1 0.23943 0.0398995 0
47 1 0.26373 0.0336474 0
18 1 0.269664 0.00908286 0
49 1 0.287513 0.0271911 0
20 1 0.311299 0.0212741 0
19 1 0.293289 0.00291763 0
51 1 0.328429 0.0400273 0
22 1 0.353337 0.0337316 0
21 1 0.33484 0.0159528 0
23 1 0.358439 0.00857603 0
24 1 0.376797 0.0263457 0
894 1 0.382734 0.00268039 0
25 1 0.406412 0.0259907 0
26 1 0.431746 0.0337359 0
27 1 0.428444 0.00920154 0
898 1 0.451824 0.0167849 0
28 1 0.458538 0.0408542 0
29 1 0.476251 0.0229561 0
900 1 0.493936 0.0043846 0
30 1 0.50067 0.028967 0
32 1 0.034508 0.0494729 0
62 1 0.0290785 0.0740268 0
61 1 0.0115759 0.0572202 0
990 1 0.0057271 0.0815584 0
63 1 0.0528275 0.0680751 0
65 1 0.0773461 0.0601482 0
66 1 0.070191 0.085592 0
38 1 0.125457 0.048131 0
36 1 0.101639 0.0550454 0
67 1 0.0947968 0.0786947 0
69 1 0.118995 0.0718068 0
71 1 0.142915 0.0661683 0
42 1 0.16626 0.0588853 0
72 1 0.160669 0.0832845 0
70 1 0.136291 0.0890449 0
45 1 0.214699 0.0461283 0
43 1 0.190126 0.0519736 0
44 1 0.208545 0.0703143 0
73 1 0.184981 0.0763607 0
74 1 0.22679 0.0884912 0
75 1 0.232742 0.0633987 0
77 1 0.256697 0.0577417 0
76 1 0.250456 0.082672 0
50 1 0.304982 0.0452218 0
48 1 0.281061 0.0512975 0
78 1 0.274515 0.0758436 0
79 1 0.299027 0.069096 0
80 1 0.317657 0.0882558 0
81 1 0.32286 0.0644777 0
52 1 0.34705 0.0577261 0
82 1 0.355455 0.0819007 0
53 1 0.391414 0.0465706 0
83 1 0.372347 0.0631646 0
54 1 0.397144 0.0712518 0
84 1 0.379828 0.0880327 0
55 1 0.41515 0.0510133 0
57 1 0.439971 0.0579554 0
56 1 0.421782 0.0756829 0
87 1 0.44586 0.0816765 0
59 1 0.483163 0.0473881 0
58 1 0.464883 0.0647667 0
89 1 0.488551 0.0723948 0
88 1 0.469566 0.0886932 0
92 1 0.016849 0.122662 0
93 1 0.0233745 0.0989005 0
94 1 0.0412419 0.116918 0
64 1 0.0467586 0.0915477 0
95 1 0.0648073 0.109628 0
96 1 0.0823823 0.12695 0
125 1 0.059199 0.134097 0
97 1 0.0886956 0.102552 0
68 1 0.111848 0.0967834 0
98 1 0.105881 0.120991 0
99 1 0.129478 0.11334 0
100 1 0.153412 0.106567 0
131 1 0.1718 0.123877 0
130 1 0.148191 0.129992 0
101 1 0.178988 0.100167 0
103 1 0.202965 0.0952327 0
102 1 0.196696 0.118741 0
105 1 0.220686 0.113364 0
104 1 0.215778 0.137458 0
106 1 0.245186 0.106783 0
137 1 0.264615 0.124839 0
135 1 0.240018 0.130831 0
107 1 0.269135 0.100765 0
109 1 0.293762 0.0936466 0
108 1 0.287952 0.116865 0
139 1 0.302758 0.135957 0
110 1 0.317092 0.11496 0
111 1 0.339079 0.0997985 0
141 1 0.343427 0.124223 0
113 1 0.362137 0.106222 0
85 1 0.404091 0.0949593 0
112 1 0.385667 0.112339 0
143 1 0.367925 0.13033 0
115 1 0.40975 0.118861 0
86 1 0.428502 0.0998619 0
116 1 0.434221 0.124859 0
117 1 0.452081 0.106796 0
118 1 0.458268 0.13111 0
90 1 0.493784 0.0959266 0
119 1 0.47609 0.113653 0
123 1 0.0348177 0.141455 0
122 1 0.0111919 0.147383 0
153 1 0.0278167 0.16544 0
152 1 0.00480706 0.171911 0
124 1 0.0514622 0.159825 0
126 1 0.0767578 0.15133 0
155 1 0.0693066 0.17627 0
129 1 0.123845 0.137661 0
127 1 0.100661 0.144462 0
128 1 0.117929 0.162314 0
157 1 0.0939788 0.169101 0
160 1 0.135441 0.179822 0
159 1 0.141612 0.155699 0
161 1 0.160094 0.172332 0
132 1 0.166087 0.147618 0
133 1 0.191198 0.142365 0
163 1 0.183577 0.166182 0
134 1 0.207796 0.161101 0
164 1 0.225914 0.179997 0
136 1 0.257764 0.148945 0
165 1 0.232569 0.155962 0
167 1 0.266984 0.171098 0
138 1 0.282692 0.150587 0
169 1 0.308783 0.159609 0
168 1 0.290785 0.176966 0
140 1 0.326923 0.142133 0
142 1 0.350348 0.148692 0
171 1 0.332962 0.166109 0
172 1 0.356883 0.172873 0
114 1 0.392984 0.137875 0
173 1 0.374322 0.154519 0
144 1 0.398463 0.162181 0
174 1 0.380084 0.178629 0
145 1 0.417034 0.143022 0
146 1 0.422042 0.167826 0
147 1 0.440965 0.148965 0
177 1 0.447437 0.173725 0
149 1 0.482146 0.138162 0
148 1 0.465228 0.155287 0
150 1 0.489292 0.162561 0
179 1 0.471359 0.180174 0
183 1 0.0223526 0.190661 0
182 1 0.015666 0.214651 0
184 1 0.0398584 0.207517 0
154 1 0.0455438 0.183748 0
185 1 0.0638512 0.200854 0
186 1 0.081013 0.219206 0
215 1 0.0571666 0.2256 0
156 1 0.0874061 0.193282 0
158 1 0.11128 0.18654 0
187 1 0.104751 0.21142 0
189 1 0.128484 0.204228 0
188 1 0.122361 0.227839 0
191 1 0.153611 0.196963 0
190 1 0.146778 0.22035 0
221 1 0.172688 0.214667 0
162 1 0.177569 0.190731 0
193 1 0.201892 0.184578 0
192 1 0.195767 0.207731 0
194 1 0.21408 0.223148 0
195 1 0.230745 0.204968 0
166 1 0.249176 0.187352 0
196 1 0.254497 0.21237 0
197 1 0.273786 0.195728 0
170 1 0.315747 0.184707 0
199 1 0.297869 0.2015 0
198 1 0.279606 0.218998 0
229 1 0.303276 0.226039 0
201 1 0.339094 0.191537 0
200 1 0.32109 0.20904 0
202 1 0.345065 0.215201 0
203 1 0.363114 0.197497 0
175 1 0.403891 0.186368 0
233 1 0.368651 0.222284 0
204 1 0.387115 0.203838 0
205 1 0.410927 0.210216 0
176 1 0.428606 0.192392 0
207 1 0.434619 0.216433 0
178 1 0.452099 0.198135 0
208 1 0.459094 0.222115 0
180 1 0.495653 0.186909 0
209 1 0.476228 0.204295 0
212 1 0.00883875 0.239153 0
243 1 0.027075 0.258122 0
241 1 0.00320841 0.263753 0
213 1 0.0336679 0.232022 0
216 1 0.0743429 0.242881 0
214 1 0.051145 0.250769 0
245 1 0.0690872 0.268477 0
217 1 0.0982748 0.235494 0
218 1 0.115385 0.251925 0
247 1 0.0922725 0.261789 0
249 1 0.133974 0.267146 0
219 1 0.140631 0.24413 0
220 1 0.163841 0.237085 0
222 1 0.17788 0.257043 0
251 1 0.158556 0.272084 0
223 1 0.190274 0.233859 0
224 1 0.219079 0.246931 0
253 1 0.201272 0.26415 0
255 1 0.224624 0.271588 0
225 1 0.237468 0.229456 0
227 1 0.261237 0.236459 0
226 1 0.243263 0.254041 0
257 1 0.26751 0.261211 0
228 1 0.284878 0.243009 0
230 1 0.310346 0.250287 0
259 1 0.291348 0.268839 0
231 1 0.328194 0.233363 0
232 1 0.351957 0.239817 0
261 1 0.333919 0.258452 0
263 1 0.357568 0.263451 0
235 1 0.392985 0.227809 0
234 1 0.375959 0.246205 0
265 1 0.399215 0.251389 0
264 1 0.381852 0.270218 0
206 1 0.415914 0.234034 0
237 1 0.440536 0.240268 0
236 1 0.423233 0.258924 0
238 1 0.448234 0.264414 0
210 1 0.484213 0.227994 0
239 1 0.465794 0.245912 0
240 1 0.48986 0.252408 0
269 1 0.471595 0.271317 0
242 1 0.0206575 0.28234 0
271 1 0.0153155 0.30618 0
273 1 0.0393447 0.298409 0
244 1 0.0444603 0.274636 0
275 1 0.0647306 0.29205 0
276 1 0.0778581 0.312567 0
246 1 0.0885847 0.285764 0
248 1 0.112207 0.278255 0
279 1 0.118854 0.303465 0
250 1 0.141072 0.290138 0
281 1 0.164873 0.297175 0
280 1 0.145436 0.314138 0
252 1 0.182647 0.280421 0
254 1 0.207115 0.288557 0
283 1 0.188775 0.30502 0
284 1 0.213506 0.311741 0
256 1 0.248586 0.278258 0
285 1 0.231448 0.295328 0
287 1 0.254056 0.302089 0
258 1 0.272523 0.285322 0
260 1 0.315231 0.275034 0
288 1 0.2777 0.309617 0
289 1 0.297216 0.293087 0
290 1 0.30299 0.316621 0
262 1 0.339212 0.282509 0
291 1 0.320618 0.300213 0
292 1 0.344265 0.306431 0
293 1 0.363334 0.28757 0
266 1 0.405177 0.275923 0
295 1 0.387059 0.294494 0
294 1 0.369198 0.312309 0
267 1 0.42952 0.282137 0
297 1 0.411664 0.300401 0
298 1 0.436006 0.306472 0
268 1 0.453336 0.288663 0
270 1 0.477903 0.294764 0
299 1 0.460422 0.312568 0
1141 1 0.496134 0.277147 0
272 1 0.0331336 0.322503 0
301 1 0.0111464 0.334752 0
303 1 0.0374578 0.34699 0
302 1 0.0165042 0.360167 0
274 1 0.0575258 0.328477 0
304 1 0.0625027 0.353466 0
305 1 0.0806154 0.337827 0
306 1 0.0864075 0.361613 0
277 1 0.101058 0.321573 0
278 1 0.12455 0.327679 0
307 1 0.105703 0.344996 0
309 1 0.129819 0.351677 0
282 1 0.169093 0.32122 0
311 1 0.149905 0.338095 0
312 1 0.174295 0.34547 0
310 1 0.153357 0.361801 0
313 1 0.193537 0.329016 0
314 1 0.198724 0.353072 0
315 1 0.216985 0.336549 0
345 1 0.222092 0.360319 0
286 1 0.236082 0.320408 0
317 1 0.260222 0.326166 0
316 1 0.241759 0.344058 0
318 1 0.266143 0.351159 0
319 1 0.285137 0.333729 0
320 1 0.308929 0.34104 0
349 1 0.290755 0.357249 0
321 1 0.326012 0.324204 0
322 1 0.333138 0.34759 0
323 1 0.350963 0.330214 0
353 1 0.358721 0.353725 0
296 1 0.393686 0.318776 0
324 1 0.375913 0.335951 0
325 1 0.400923 0.342988 0
355 1 0.38288 0.359737 0
326 1 0.424325 0.348946 0
327 1 0.418719 0.325193 0
328 1 0.442635 0.330661 0
359 1 0.448946 0.354513 0
300 1 0.484688 0.319248 0
329 1 0.467284 0.336925 0
1201 1 0.491806 0.342547 0
330 1 0.473816 0.360972 0
332 1 0.022803 0.384824 0
333 1 0.0435129 0.370638 0
361 1 0.00263168 0.400616 0
334 1 0.0485318 0.394617 0
335 1 0.0670542 0.377013 0
336 1 0.0719945 0.402086 0
337 1 0.091407 0.385338 0
308 1 0.110504 0.369295 0
338 1 0.115422 0.393822 0
339 1 0.134248 0.377049 0
340 1 0.139263 0.401155 0
341 1 0.158455 0.38553 0
343 1 0.177843 0.369426 0
342 1 0.183962 0.393103 0
344 1 0.202934 0.376868 0
373 1 0.208073 0.400489 0
346 1 0.228347 0.384802 0
347 1 0.248075 0.368102 0
377 1 0.252795 0.392733 0
348 1 0.271763 0.375535 0
375 1 0.232532 0.408765 0
350 1 0.3141 0.365221 0
376 1 0.276543 0.399825 0
378 1 0.295204 0.382917 0
409 1 0.301189 0.4077 0
379 1 0.319634 0.389225 0
351 1 0.33954 0.372128 0
381 1 0.34482 0.395797 0
352 1 0.36373 0.377917 0
382 1 0.368768 0.403042 0
356 1 0.407605 0.367483 0
354 1 0.388384 0.383755 0
383 1 0.393229 0.407537 0
385 1 0.414577 0.391627 0
357 1 0.431953 0.37276 0
387 1 0.439291 0.397521 0
358 1 0.455192 0.378941 0
1231 1 0.497823 0.366221 0
360 1 0.480617 0.384655 0
389 1 0.46359 0.402871 0
363 1 0.0279358 0.410295 0
362 1 0.00922337 0.427433 0
364 1 0.0338685 0.434518 0
393 1 0.0157826 0.451143 0
365 1 0.052336 0.419061 0
366 1 0.0773122 0.426614 0
395 1 0.0584397 0.442153 0
397 1 0.0832764 0.451164 0
367 1 0.096279 0.410041 0
369 1 0.120049 0.417981 0
368 1 0.101098 0.434496 0
399 1 0.124359 0.44255 0
371 1 0.164036 0.409017 0
370 1 0.144404 0.425845 0
401 1 0.168371 0.433592 0
400 1 0.148242 0.450297 0
372 1 0.188878 0.418162 0
403 1 0.192493 0.442296 0
374 1 0.212353 0.426114 0
433 1 0.217474 0.450501 0
404 1 0.238305 0.433079 0
405 1 0.256925 0.416948 0
406 1 0.262385 0.440946 0
407 1 0.281063 0.424235 0
408 1 0.304878 0.433225 0
437 1 0.28611 0.44928 0
380 1 0.326229 0.413022 0
410 1 0.328555 0.437489 0
411 1 0.350053 0.421894 0
412 1 0.368242 0.452869 0
413 1 0.37621 0.428088 0
384 1 0.40141 0.429624 0
414 1 0.392985 0.45209 0
415 1 0.418911 0.447066 0
388 1 0.447578 0.421171 0
386 1 0.422462 0.416716 0
417 1 0.442856 0.444824 0
1261 1 0.486758 0.408931 0
419 1 0.467123 0.438706 0
390 1 0.493366 0.433935 0
423 1 0.020412 0.476736 0
394 1 0.0394719 0.458989 0
425 1 0.0439318 0.485193 0
453 1 0.00141788 0.493146 0
396 1 0.0631966 0.467212 0
427 1 0.0871889 0.476051 0
426 1 0.0675141 0.492454 0
398 1 0.106705 0.4603 0
428 1 0.111868 0.484311 0
429 1 0.130284 0.466799 0
430 1 0.135288 0.491691 0
457 1 0.092968 0.500154 0
402 1 0.172401 0.458476 0
431 1 0.154623 0.474844 0
461 1 0.178855 0.482714 0
460 1 0.159598 0.499263 0
432 1 0.198058 0.466432 0
434 1 0.221343 0.47546 0
463 1 0.202349 0.490514 0
464 1 0.226143 0.49851 0
435 1 0.241788 0.4581 0
465 1 0.246143 0.48263 0
436 1 0.265202 0.466079 0
467 1 0.270931 0.489921 0
439 1 0.31222 0.457019 0
438 1 0.289462 0.473624 0
469 1 0.312031 0.481308 0
468 1 0.294433 0.498585 0
441 1 0.343504 0.456554 0
440 1 0.336727 0.479779 0
442 1 0.360111 0.476269 0
443 1 0.384137 0.474704 0
445 1 0.408773 0.470447 0
444 1 0.398616 0.494771 0
473 1 0.373922 0.497227 0
446 1 0.423816 0.490024 0
447 1 0.449545 0.487562 0
416 1 0.432974 0.467373 0
418 1 0.458313 0.464589 0
449 1 0.473886 0.483886 0
420 1 0.481953 0.459041 0
1321 1 0.498958 0.481178 0
452 1 0.00667679 0.517078 0
454 1 0.0304717 0.525008 0
483 1 0.0114023 0.541831 0
424 1 0.0249771 0.500645 0
455 1 0.0492466 0.50957 0
485 1 0.0543709 0.534229 0
456 1 0.0736543 0.515959 0
487 1 0.0782596 0.540878 0
458 1 0.0967637 0.524982 0
459 1 0.116041 0.508343 0
488 1 0.121462 0.531942 0
489 1 0.140146 0.515715 0
491 1 0.165109 0.523487 0
490 1 0.144852 0.540623 0
462 1 0.18327 0.50715 0
492 1 0.189283 0.530149 0
493 1 0.20881 0.514862 0
494 1 0.212792 0.539648 0
495 1 0.23171 0.523621 0
466 1 0.249818 0.5069 0
496 1 0.255955 0.531262 0
497 1 0.272623 0.514097 0
527 1 0.279016 0.540998 0
498 1 0.294975 0.5231 0
501 1 0.318139 0.526864 0
499 1 0.325462 0.503885 0
470 1 0.341567 0.524114 0
471 1 0.349641 0.500303 0
502 1 0.355278 0.544982 0
472 1 0.365138 0.521138 0
503 1 0.379384 0.54117 0
474 1 0.3886 0.517466 0
476 1 0.404247 0.53651 0
475 1 0.41451 0.512998 0
507 1 0.429389 0.532874 0
477 1 0.438191 0.510593 0
478 1 0.454143 0.529199 0
479 1 0.48 0.526319 0
448 1 0.464119 0.506988 0
450 1 0.48935 0.503525 0
513 1 0.0173007 0.566463 0
484 1 0.0355671 0.550309 0
514 1 0.0416366 0.573813 0
512 1 0.023135 0.590886 0
486 1 0.0604674 0.55782 0
515 1 0.0843003 0.564864 0
543 1 0.0655513 0.58191 0
545 1 0.0889653 0.58958 0
517 1 0.103535 0.548688 0
519 1 0.126835 0.55723 0
516 1 0.107578 0.573371 0
518 1 0.131813 0.581235 0
520 1 0.150464 0.564963 0
521 1 0.169352 0.54841 0
522 1 0.173489 0.572593 0
549 1 0.155772 0.589717 0
523 1 0.193181 0.555409 0
524 1 0.216607 0.564255 0
553 1 0.197719 0.579867 0
554 1 0.221563 0.588076 0
525 1 0.236337 0.547634 0
526 1 0.259809 0.556501 0
555 1 0.240117 0.572169 0
557 1 0.26454 0.58023 0
529 1 0.305095 0.547857 0
528 1 0.284068 0.565229 0
558 1 0.286741 0.590597 0
559 1 0.32037 0.569895 0
500 1 0.330566 0.547478 0
531 1 0.345164 0.567927 0
533 1 0.359186 0.587684 0
505 1 0.394412 0.560863 0
504 1 0.370345 0.564393 0
534 1 0.384689 0.58474 0
535 1 0.411089 0.579778 0
509 1 0.445074 0.55275 0
506 1 0.419506 0.556694 0
508 1 0.435233 0.576089 0
1381 1 0.496091 0.544986 0
480 1 0.470687 0.54841 0
510 1 0.486574 0.568477 0
539 1 0.460877 0.571896 0
571 1 0.0276638 0.614808 0
1500 1 0.00849779 0.631699 0
541 1 0.00416157 0.607896 0
542 1 0.0466771 0.598619 0
573 1 0.0506512 0.622639 0
544 1 0.0702835 0.60643 0
575 1 0.0750739 0.630738 0
546 1 0.0943717 0.614737 0
547 1 0.112651 0.597543 0
577 1 0.118194 0.622658 0
548 1 0.136671 0.605816 0
579 1 0.142703 0.631109 0
550 1 0.16029 0.613892 0
551 1 0.179312 0.597127 0
581 1 0.184915 0.621397 0
552 1 0.20323 0.604369 0
582 1 0.207636 0.630075 0
583 1 0.226127 0.61271 0
556 1 0.244907 0.596357 0
587 1 0.267415 0.606128 0
585 1 0.249042 0.622875 0
586 1 0.273138 0.629402 0
560 1 0.311124 0.595469 0
589 1 0.298396 0.617726 0
530 1 0.334994 0.591642 0
532 1 0.350142 0.610711 0
561 1 0.324618 0.615306 0
562 1 0.340721 0.63377 0
564 1 0.366187 0.629994 0
536 1 0.402014 0.603008 0
563 1 0.374838 0.606693 0
565 1 0.391051 0.626356 0
538 1 0.451004 0.594992 0
537 1 0.426384 0.599645 0
566 1 0.416127 0.622771 0
567 1 0.441721 0.619257 0
540 1 0.476487 0.591557 0
569 1 0.4671 0.614761 0
570 1 0.482229 0.633276 0
1441 1 0.492449 0.61062 0
568 1 0.457232 0.638101 0
572 1 0.0321401 0.640287 0
602 1 0.0136182 0.656256 0
603 1 0.0375954 0.664065 0
632 1 0.0195634 0.68041 0
574 1 0.0560164 0.646758 0
605 1 0.0804823 0.65519 0
604 1 0.0609121 0.671816 0
606 1 0.0848022 0.680357 0
576 1 0.0999306 0.638984 0
578 1 0.123578 0.647208 0
607 1 0.103664 0.663216 0
608 1 0.128226 0.671002 0
609 1 0.147208 0.655028 0
580 1 0.166032 0.63839 0
610 1 0.170894 0.664158 0
639 1 0.150557 0.679793 0
611 1 0.189356 0.647534 0
613 1 0.21226 0.656321 0
612 1 0.194062 0.672183 0
643 1 0.218642 0.67981 0
584 1 0.230211 0.639125 0
614 1 0.236077 0.663903 0
615 1 0.257047 0.648238 0
616 1 0.257822 0.67445 0
590 1 0.315453 0.638947 0
617 1 0.282375 0.66751 0
588 1 0.291752 0.643934 0
619 1 0.30645 0.664073 0
591 1 0.331018 0.658334 0
593 1 0.357068 0.65303 0
621 1 0.348517 0.67707 0
592 1 0.373032 0.672843 0
594 1 0.381761 0.649481 0
625 1 0.397737 0.668943 0
595 1 0.40756 0.645791 0
597 1 0.43181 0.641991 0
596 1 0.422834 0.665051 0
599 1 0.447266 0.660183 0
1501 1 0.489202 0.676189 0
600 1 0.47329 0.656192 0
629 1 0.464172 0.679784 0
1471 1 0.498072 0.652557 0
633 1 0.0428952 0.688193 0
663 1 0.0241618 0.705651 0
661 1 0.00522189 0.722208 0
1560 1 0.00124812 0.69724 0
634 1 0.0475028 0.712955 0
635 1 0.0663758 0.696815 0
665 1 0.0705005 0.720861 0
636 1 0.0890563 0.704301 0
637 1 0.10798 0.687522 0
638 1 0.133055 0.697053 0
667 1 0.11261 0.710787 0
669 1 0.140869 0.723656 0
641 1 0.17568 0.688775 0
640 1 0.156351 0.70475 0
671 1 0.180117 0.714941 0
642 1 0.198953 0.696377 0
644 1 0.222802 0.705883 0
645 1 0.247875 0.70071 0
646 1 0.265926 0.717233 0
675 1 0.239352 0.72426 0
647 1 0.27346 0.692678 0
618 1 0.297868 0.68716 0
648 1 0.290366 0.711684 0
649 1 0.314429 0.707262 0
620 1 0.322853 0.683174 0
650 1 0.330696 0.725676 0
622 1 0.339239 0.701707 0
651 1 0.354937 0.719841 0
653 1 0.364428 0.696162 0
623 1 0.388877 0.691639 0
624 1 0.380364 0.716224 0
626 1 0.404831 0.711728 0
598 1 0.438704 0.683551 0
627 1 0.413968 0.687629 0
657 1 0.430221 0.706374 0
658 1 0.446373 0.725841 0
628 1 0.454482 0.703283 0
1531 1 0.49624 0.719785 0
630 1 0.479402 0.699139 0
659 1 0.470507 0.721311 0
662 1 0.0288163 0.729362 0
691 1 0.0111377 0.746165 0
693 1 0.0346464 0.75413 0
692 1 0.0160314 0.770328 0
664 1 0.0518911 0.737394 0
695 1 0.0758381 0.745288 0
694 1 0.0637837 0.768586 0
696 1 0.0902001 0.763865 0
666 1 0.0941741 0.728926 0
697 1 0.11482 0.757972 0
668 1 0.118407 0.734333 0
699 1 0.139204 0.749546 0
670 1 0.163105 0.739963 0
700 1 0.156925 0.767552 0
701 1 0.181778 0.760435 0
673 1 0.214839 0.730139 0
672 1 0.190037 0.736521 0
703 1 0.206988 0.75457 0
705 1 0.224173 0.772638 0
674 1 0.231494 0.748494 0
676 1 0.257355 0.741586 0
707 1 0.272157 0.760538 0
679 1 0.306199 0.731865 0
677 1 0.281619 0.736326 0
678 1 0.297068 0.754732 0
681 1 0.321429 0.750913 0
652 1 0.346535 0.744149 0
682 1 0.337757 0.768127 0
683 1 0.363289 0.762798 0
655 1 0.396586 0.73496 0
654 1 0.371745 0.739317 0
685 1 0.388862 0.757931 0
656 1 0.420563 0.730518 0
686 1 0.413095 0.753251 0
687 1 0.437273 0.749064 0
688 1 0.453712 0.767657 0
717 1 0.428806 0.772246 0
660 1 0.48578 0.741422 0
689 1 0.460955 0.744978 0
690 1 0.477644 0.764582 0
722 1 0.00921566 0.809291 0
723 1 0.0396784 0.778449 0
724 1 0.0326393 0.802796 0
725 1 0.0576946 0.795137 0
726 1 0.0822831 0.78783 0
755 1 0.0751307 0.813115 0
754 1 0.0511597 0.819549 0
698 1 0.132661 0.775383 0
727 1 0.108142 0.782412 0
728 1 0.124335 0.799461 0
757 1 0.0996808 0.806454 0
729 1 0.149606 0.792042 0
731 1 0.1745 0.785441 0
732 1 0.166224 0.809771 0
730 1 0.141833 0.816604 0
702 1 0.199542 0.778886 0
704 1 0.215705 0.797701 0
733 1 0.191451 0.802157 0
735 1 0.240357 0.79193 0
706 1 0.264494 0.785139 0
737 1 0.257344 0.81039 0
736 1 0.233248 0.815482 0
680 1 0.313783 0.774988 0
709 1 0.289274 0.779202 0
708 1 0.282146 0.804673 0
710 1 0.306169 0.797922 0
713 1 0.355724 0.786628 0
711 1 0.331292 0.792741 0
712 1 0.348565 0.811037 0
741 1 0.323274 0.816689 0
715 1 0.404489 0.776551 0
684 1 0.379621 0.781462 0
714 1 0.372641 0.805752 0
716 1 0.396669 0.799811 0
718 1 0.44514 0.789453 0
747 1 0.421598 0.795471 0
748 1 0.439459 0.813634 0
719 1 0.469201 0.786982 0
720 1 0.490667 0.798727 0
749 1 0.47152 0.81424 0
751 1 0.00138257 0.832709 0
752 1 0.0194115 0.850302 0
753 1 0.0263422 0.827165 0
783 1 0.0450837 0.844326 0
785 1 0.0690834 0.837809 0
787 1 0.0866692 0.855125 0
784 1 0.0623703 0.861877 0
756 1 0.0931214 0.831152 0
759 1 0.117459 0.822692 0
758 1 0.110575 0.847371 0
760 1 0.136149 0.841272 0
761 1 0.160032 0.83346 0
791 1 0.153454 0.859444 0
762 1 0.178079 0.852244 0
734 1 0.209189 0.821498 0
763 1 0.183962 0.826808 0
764 1 0.201255 0.846023 0
765 1 0.226683 0.840189 0
767 1 0.250638 0.834684 0
766 1 0.243287 0.858446 0
768 1 0.268028 0.852711 0
739 1 0.300093 0.822403 0
738 1 0.275075 0.828072 0
769 1 0.29215 0.846265 0
740 1 0.316913 0.841431 0
742 1 0.340471 0.834968 0
771 1 0.333709 0.858959 0
773 1 0.358009 0.853474 0
743 1 0.366142 0.828809 0
745 1 0.391115 0.82398 0
744 1 0.382842 0.847602 0
775 1 0.407653 0.842353 0
746 1 0.414333 0.818793 0
777 1 0.431509 0.837109 0
778 1 0.426016 0.860606 0
779 1 0.454922 0.831892 0
809 1 0.458668 0.857872 0
1621 1 0.495893 0.822673 0
750 1 0.478281 0.839667 0
811 1 0.00745891 0.899128 0
782 1 0.0127412 0.875035 0
813 1 0.0370765 0.868081 0
812 1 0.0314876 0.893007 0
815 1 0.0562278 0.885969 0
786 1 0.0817662 0.878917 0
816 1 0.07336 0.903564 0
789 1 0.128579 0.86553 0
817 1 0.098025 0.896459 0
788 1 0.105253 0.872056 0
819 1 0.12199 0.889779 0
790 1 0.145917 0.883423 0
792 1 0.170897 0.876512 0
821 1 0.163808 0.900884 0
820 1 0.140338 0.907561 0
795 1 0.218574 0.863867 0
793 1 0.195332 0.870162 0
823 1 0.187909 0.894336 0
794 1 0.212486 0.888027 0
797 1 0.261264 0.877253 0
796 1 0.236179 0.881956 0
825 1 0.229542 0.906117 0
827 1 0.253328 0.900686 0
770 1 0.309595 0.865504 0
799 1 0.285066 0.871609 0
798 1 0.27762 0.895085 0
800 1 0.302916 0.889223 0
772 1 0.35129 0.87754 0
801 1 0.327053 0.882869 0
831 1 0.320691 0.907427 0
802 1 0.345381 0.900828 0
776 1 0.400672 0.866153 0
774 1 0.376527 0.871693 0
803 1 0.369995 0.895651 0
805 1 0.394437 0.890054 0
807 1 0.418313 0.883939 0
808 1 0.442315 0.878703 0
839 1 0.435908 0.903666 0
806 1 0.411545 0.907138 0
780 1 0.483758 0.864715 0
1681 1 0.488997 0.889677 0
810 1 0.466175 0.881279 0
840 1 0.469414 0.905725 0
841 1 0.00079201 0.924269 0
842 1 0.0197559 0.941047 0
843 1 0.0251616 0.917253 0
844 1 0.0430913 0.934318 0
814 1 0.0495938 0.910262 0
845 1 0.067395 0.927173 0
846 1 0.0854121 0.944889 0
875 1 0.0610266 0.951598 0
847 1 0.0918402 0.920208 0
818 1 0.11569 0.914645 0
848 1 0.109542 0.938453 0
849 1 0.133033 0.932318 0
850 1 0.150606 0.949836 0
851 1 0.156867 0.925296 0
852 1 0.175842 0.943514 0
822 1 0.181386 0.918952 0
824 1 0.205259 0.913487 0
853 1 0.198882 0.937398 0
855 1 0.222791 0.931053 0
854 1 0.216892 0.955101 0
826 1 0.246717 0.924828 0
856 1 0.241161 0.948643 0
857 1 0.265366 0.942469 0
828 1 0.271426 0.918517 0
829 1 0.295241 0.912452 0
859 1 0.289122 0.936272 0
830 1 0.313942 0.930238 0
832 1 0.338302 0.925001 0
861 1 0.330285 0.948979 0
863 1 0.355218 0.942951 0
833 1 0.362342 0.918887 0
804 1 0.387169 0.91378 0
834 1 0.37982 0.938128 0
835 1 0.404378 0.931568 0
837 1 0.427767 0.926092 0
836 1 0.42293 0.949312 0
838 1 0.452717 0.923727 0
870 1 0.457285 0.948715 0
1712 1 0.500206 0.938003 0
869 1 0.476614 0.930728 0
1711 1 0.493861 0.913363 0
872 1 0.0306926 0.98298 0
873 1 0.0369276 0.957833 0
871 1 0.0129465 0.966331 0
1 1 0.00637494 0.990015 0
874 1 0.0544151 0.976339 0
876 1 0.0775045 0.969622 0
5 1 0.072519 0.99467 0
879 1 0.126654 0.955779 0
7 1 0.0965212 0.9884 0
877 1 0.102269 0.963 0
878 1 0.120111 0.981442 0
880 1 0.144237 0.974249 0
881 1 0.168198 0.967112 0
11 1 0.161339 0.992929 0
9 1 0.137701 0.998661 0
882 1 0.185215 0.98454 0
883 1 0.192512 0.961769 0
884 1 0.210179 0.979404 0
886 1 0.228419 0.998626 0
885 1 0.235292 0.973825 0
17 1 0.252164 0.99071 0
887 1 0.258022 0.966632 0
860 1 0.3065 0.95519 0
858 1 0.282799 0.959877 0
888 1 0.275806 0.984814 0
889 1 0.299861 0.978612 0
890 1 0.317121 0.997563 0
862 1 0.347595 0.965843 0
891 1 0.323426 0.973385 0
892 1 0.340908 0.991178 0
865 1 0.398126 0.956436 0
864 1 0.373624 0.961296 0
893 1 0.365172 0.984295 0
895 1 0.390719 0.979486 0
896 1 0.406938 0.999199 0
866 1 0.415432 0.974289 0
897 1 0.446378 0.991498 0
867 1 0.440298 0.966658 0
1771 1 0.487613 0.980522 0
899 1 0.469865 0.999069 0
868 1 0.463887 0.974435 0
1741 1 0.481988 0.955162 0
931 1 0.524373 0.0362586 0
901 1 0.518542 0.0116629 0
902 1 0.541899 0.0181343 0
904 1 0.566496 0.0252624 0
906 1 0.58557 0.00846583 0
933 1 0.548817 0.0425321 0
905 1 0.560937 0.000500921 0
935 1 0.590771 0.0325439 0
908 1 0.609443 0.0149426 0
937 1 0.614851 0.0389012 0
939 1 0.633554 0.0206769 0
941 1 0.657059 0.027115 0
912 1 0.674779 0.00926976 0
910 1 0.650708 0.00270651 0
942 1 0.681088 0.0337044 0
938 1 0.638679 0.0454438 0
943 1 0.697944 0.0157042 0
944 1 0.70477 0.0400412 0
975 1 0.721582 0.0231096 0
947 1 0.747149 0.0288531 0
945 1 0.739191 0.00561838 0
948 1 0.772481 0.0364022 0
918 1 0.779591 0.0123904 0
919 1 0.804064 0.00697111 0
949 1 0.797366 0.0302181 0
951 1 0.822331 0.0233657 0
922 1 0.846061 0.0164539 0
952 1 0.84023 0.0400159 0
953 1 0.863836 0.0331408 0
923 1 0.870282 0.00938173 0
954 1 0.888164 0.0265139 0
924 1 0.893766 0.00195523 0
956 1 0.905535 0.0451568 0
955 1 0.913156 0.0207163 0
926 1 0.935364 0.0127218 0
957 1 0.954204 0.0291208 0
928 1 0.958912 0.00426111 0
959 1 0.977359 0.0225194 0
960 1 0.994238 0.0385333 0
932 1 0.530561 0.0605407 0
962 1 0.53612 0.0846288 0
961 1 0.512332 0.0782608 0
60 1 0.506979 0.0532913 0
934 1 0.572141 0.0498001 0
963 1 0.554026 0.0670271 0
965 1 0.578861 0.0739397 0
936 1 0.596772 0.0563785 0
966 1 0.603043 0.0805494 0
967 1 0.620825 0.0625635 0
968 1 0.62793 0.0876213 0
940 1 0.663003 0.0513766 0
969 1 0.64436 0.0689539 0
970 1 0.668906 0.0758657 0
971 1 0.686849 0.0583938 0
972 1 0.692603 0.0824162 0
973 1 0.710828 0.0643378 0
1003 1 0.717487 0.0889535 0
946 1 0.728997 0.0472191 0
974 1 0.734772 0.0715305 0
977 1 0.754955 0.0535403 0
1007 1 0.759252 0.0785878 0
950 1 0.815132 0.047536 0
979 1 0.790223 0.053923 0
980 1 0.807987 0.0721384 0
978 1 0.782981 0.0781967 0
981 1 0.833343 0.0638973 0
983 1 0.858176 0.0577853 0
982 1 0.850323 0.0808432 0
1011 1 0.826646 0.0878322 0
985 1 0.882346 0.0505584 0
984 1 0.87543 0.0742488 0
986 1 0.899132 0.0692186 0
987 1 0.946535 0.0528232 0
1017 1 0.938308 0.0773866 0
958 1 0.970905 0.0477418 0
988 1 0.962836 0.0707181 0
989 1 0.987856 0.064032 0
1019 1 0.98067 0.0880064 0
991 1 0.517577 0.10232 0
992 1 0.524389 0.127081 0
993 1 0.54193 0.108721 0
120 1 0.501309 0.120594 0
964 1 0.56053 0.0909653 0
994 1 0.566383 0.115441 0
995 1 0.58406 0.0973963 0
1023 1 0.54854 0.134384 0
996 1 0.591102 0.121895 0
997 1 0.608514 0.104708 0
1027 1 0.615226 0.128604 0
998 1 0.633695 0.111568 0
999 1 0.651373 0.0941271 0
1000 1 0.658211 0.118187 0
1001 1 0.674909 0.100037 0
1031 1 0.682109 0.124871 0
1002 1 0.699472 0.106437 0
1033 1 0.706352 0.130809 0
1004 1 0.723967 0.113455 0
976 1 0.742467 0.0958332 0
1005 1 0.74789 0.120039 0
1037 1 0.771303 0.1269 0
1008 1 0.773161 0.101296 0
1009 1 0.80068 0.0947664 0
1039 1 0.79404 0.118671 0
1010 1 0.820017 0.112066 0
1012 1 0.843943 0.105434 0
1041 1 0.837386 0.129757 0
1043 1 0.861085 0.122725 0
1015 1 0.892224 0.0929991 0
1013 1 0.867823 0.0981621 0
1014 1 0.884964 0.116335 0
1045 1 0.903473 0.133559 0
1016 1 0.909972 0.109949 0
1047 1 0.932986 0.101632 0
1046 1 0.927946 0.126859 0
1049 1 0.951215 0.119604 0
91 1 0.998716 0.105952 0
1018 1 0.956866 0.0952987 0
1020 1 0.975205 0.111908 0
121 1 0.992218 0.130366 0
1022 1 0.529934 0.152101 0
1051 1 0.512716 0.169261 0
1053 1 0.536544 0.175848 0
1021 1 0.505687 0.144641 0
1025 1 0.574054 0.139736 0
1024 1 0.554751 0.157722 0
1055 1 0.579237 0.163271 0
1026 1 0.598988 0.146448 0
1028 1 0.622205 0.15356 0
1057 1 0.603843 0.16998 0
1058 1 0.628669 0.177583 0
1029 1 0.639819 0.135069 0
1030 1 0.663947 0.141702 0
1059 1 0.646441 0.159644 0
1061 1 0.670419 0.167285 0
1032 1 0.687625 0.149786 0
1063 1 0.714148 0.154309 0
1062 1 0.695296 0.172515 0
1034 1 0.718327 0.180071 0
1035 1 0.732446 0.138521 0
1006 1 0.755105 0.14611 0
1036 1 0.73669 0.162987 0
1067 1 0.760085 0.170035 0
1040 1 0.811552 0.136893 0
1038 1 0.787749 0.145021 0
1069 1 0.807043 0.160159 0
1068 1 0.783959 0.168894 0
1071 1 0.831104 0.153573 0
1042 1 0.855102 0.147437 0
1072 1 0.849506 0.172401 0
1070 1 0.824892 0.177353 0
1044 1 0.8793 0.14065 0
1075 1 0.897046 0.15747 0
1073 1 0.872797 0.165247 0
1048 1 0.944804 0.144041 0
1077 1 0.920974 0.150998 0
1078 1 0.93826 0.168972 0
1076 1 0.914617 0.175509 0
1050 1 0.96941 0.137103 0
1079 1 0.964537 0.161737 0
151 1 0.987718 0.154936 0
1080 1 0.981477 0.179444 0
1081 1 0.501827 0.211067 0
1052 1 0.519718 0.19358 0
1082 1 0.526387 0.217803 0
1083 1 0.543555 0.200405 0
1054 1 0.561022 0.182375 0
1085 1 0.569196 0.206271 0
1056 1 0.585382 0.188 0
1084 1 0.550636 0.223826 0
1086 1 0.593001 0.213028 0
1087 1 0.609986 0.195167 0
1088 1 0.616814 0.220609 0
1089 1 0.634992 0.202924 0
1060 1 0.652449 0.183857 0
1090 1 0.659151 0.209129 0
1091 1 0.676903 0.191343 0
1119 1 0.6407 0.227215 0
1092 1 0.683032 0.215656 0
1093 1 0.701447 0.197837 0
1123 1 0.708073 0.223018 0
1064 1 0.725067 0.205124 0
1065 1 0.742632 0.188405 0
1095 1 0.74902 0.212135 0
1066 1 0.775215 0.193565 0
1097 1 0.773392 0.218968 0
1099 1 0.80137 0.184895 0
1098 1 0.795435 0.208703 0
1130 1 0.811069 0.227145 0
1100 1 0.818283 0.202255 0
1101 1 0.842447 0.196069 0
1131 1 0.836464 0.220167 0
1102 1 0.860361 0.213752 0
1074 1 0.891286 0.182529 0
1103 1 0.867375 0.189977 0
1104 1 0.884443 0.207824 0
1135 1 0.903389 0.224893 0
1105 1 0.908817 0.200331 0
1107 1 0.933044 0.193392 0
1106 1 0.926912 0.217633 0
1108 1 0.950886 0.210328 0
1109 1 0.95706 0.185408 0
1110 1 0.975005 0.204077 0
211 1 0.991823 0.221196 0
181 1 0.998589 0.196637 0
1111 1 0.508479 0.235217 0
1113 1 0.532895 0.242386 0
1112 1 0.514896 0.259687 0
1143 1 0.538639 0.266257 0
1115 1 0.574931 0.231353 0
1114 1 0.557217 0.248525 0
1116 1 0.580997 0.25531 0
1145 1 0.563045 0.2724 0
1117 1 0.599326 0.23795 0
1118 1 0.622454 0.24552 0
1147 1 0.605111 0.262424 0
1149 1 0.629435 0.269348 0
1121 1 0.665471 0.233134 0
1120 1 0.647132 0.251716 0
1151 1 0.671269 0.257675 0
1122 1 0.689709 0.240249 0
1124 1 0.713411 0.247447 0
1153 1 0.695992 0.264762 0
1154 1 0.719699 0.271586 0
1094 1 0.731462 0.230057 0
1096 1 0.75639 0.236544 0
1125 1 0.738314 0.25326 0
1126 1 0.762837 0.260722 0
1127 1 0.781121 0.242811 0
1129 1 0.806533 0.250808 0
1128 1 0.788115 0.267171 0
1161 1 0.830199 0.243687 0
1162 1 0.848323 0.262118 0
1132 1 0.854342 0.237173 0
1133 1 0.878344 0.232129 0
1163 1 0.87282 0.256728 0
1134 1 0.896361 0.250665 0