ITEM: TIMESTEP
18000
ITEM: NUMBER OF ATOMS
1800
ITEM: BOX BOUNDS pp pp pp
6.3983845466701439e-01 1.6436016154533181e+02
6.3983845466701439e-01 1.6436016154533181e+02
0.0000000000000000e+00 5.5000000000000000e+00
ITEM: ATOMS id type xs ys zs
2 1 0.0184907 0.0111741 0
3 1 0.0430636 0.0047875 0
33 1 0.0360149 0.0288275 0
31 1 0.0127519 0.0364413 0
4 1 0.0594307 0.0229248 0
6 1 0.0835961 0.0155545 0
35 1 0.0778051 0.0399072 0
8 1 0.106593 0.00939968 0
37 1 0.10184 0.0327204 0
9 1 0.129692 0.00130078 0
39 1 0.126074 0.0262307 0
10 1 0.149339 0.0160012 0
41 1 0.170616 0.0274609 0
12 1 0.17113 0.00282526 0
40 1 0.146818 0.0427652 0
43 1 0.196649 0.0401744 0
14 1 0.191738 0.0160657 0
45 1 0.217945 0.027719 0
15 1 0.213801 0.00470518 0
16 1 0.251095 0.0138452 0
46 1 0.243172 0.0376877 0
47 1 0.269122 0.0291236 0
18 1 0.275304 0.00467968 0
49 1 0.292768 0.0215729 0
50 1 0.311046 0.0389284 0
48 1 0.28754 0.045117 0
20 1 0.317123 0.015577 0
51 1 0.335859 0.0328159 0
22 1 0.359244 0.0258207 0
21 1 0.341833 0.00871516 0
53 1 0.377152 0.0440985 0
24 1 0.382794 0.0202393 0
55 1 0.40124 0.037887 0
25 1 0.40592 0.0126554 0
23 1 0.365386 0.00194728 0
26 1 0.425346 0.0309118 0
28 1 0.448988 0.0251879 0
27 1 0.429501 0.00658971 0
29 1 0.475535 0.0211519 0
900 1 0.498192 0.00372566 0
449 1 0.463244 0.475533 0
32 1 0.0303934 0.0533724 0
62 1 0.0253729 0.0776939 0
61 1 0.00662294 0.0598869 0
990 1 0.00209175 0.0838413 0
63 1 0.0481607 0.0702776 0
34 1 0.0536659 0.0468956 0
65 1 0.0726924 0.0647707 0
66 1 0.0786634 0.0888886 0
36 1 0.0967999 0.0576014 0
38 1 0.121017 0.0498932 0
67 1 0.10333 0.082347 0
69 1 0.127959 0.0747305 0
71 1 0.153663 0.0666917 0
42 1 0.174255 0.0521822 0
72 1 0.176705 0.0772293 0
44 1 0.22025 0.0526083 0
73 1 0.198252 0.065191 0
74 1 0.222068 0.0769896 0
103 1 0.20149 0.089339 0
75 1 0.242026 0.0628775 0
77 1 0.26348 0.0523577 0
76 1 0.245114 0.0862696 0
78 1 0.281301 0.0690903 0
79 1 0.304879 0.0632274 0
109 1 0.297787 0.0869928 0
81 1 0.32929 0.0571543 0
52 1 0.353079 0.0502417 0
82 1 0.346587 0.0745212 0
80 1 0.321805 0.0809111 0
83 1 0.370791 0.0687269 0
54 1 0.395166 0.0619604 0
84 1 0.388021 0.0852938 0
57 1 0.443442 0.0488466 0
56 1 0.418775 0.0551587 0
85 1 0.41219 0.0789046 0
87 1 0.438994 0.0752099 0
59 1 0.481028 0.0455952 0
88 1 0.469661 0.0872901 0
58 1 0.462681 0.0638592 0
89 1 0.487798 0.07018 0
92 1 0.0192612 0.124618 0
93 1 0.0266568 0.101237 0
64 1 0.0532758 0.0943803 0
94 1 0.0472427 0.11824 0
95 1 0.0715987 0.111801 0
125 1 0.0638732 0.13637 0
96 1 0.089105 0.130073 0
68 1 0.12144 0.0991563 0
97 1 0.0974052 0.105805 0
98 1 0.113893 0.123859 0
99 1 0.13765 0.11848 0
70 1 0.145628 0.0929498 0
100 1 0.160387 0.112708 0
131 1 0.179353 0.128178 0
101 1 0.1815 0.101966 0
102 1 0.200921 0.116488 0
104 1 0.223249 0.126582 0
105 1 0.222141 0.101396 0
106 1 0.243962 0.110554 0
107 1 0.270339 0.0923937 0
137 1 0.267131 0.117828 0
135 1 0.245705 0.134766 0
108 1 0.290641 0.109634 0
139 1 0.306969 0.128328 0
110 1 0.315001 0.104624 0
111 1 0.338465 0.0981288 0
141 1 0.348002 0.12046 0
113 1 0.363858 0.0941745 0
112 1 0.386605 0.108827 0
114 1 0.394688 0.134139 0
143 1 0.371516 0.127199 0
115 1 0.410669 0.116001 0
86 1 0.42759 0.0983643 0
116 1 0.435017 0.123159 0
117 1 0.452034 0.105773 0
118 1 0.458905 0.129874 0
90 1 0.494106 0.0944218 0
119 1 0.476103 0.111391 0
123 1 0.0386675 0.141641 0
122 1 0.0145076 0.148312 0
153 1 0.0321046 0.165302 0
152 1 0.00878136 0.172992 0
124 1 0.0563084 0.159611 0
126 1 0.0811926 0.153698 0
155 1 0.0746879 0.177633 0
129 1 0.131779 0.141807 0
127 1 0.106973 0.148112 0
128 1 0.12404 0.166279 0
157 1 0.0983858 0.171306 0
130 1 0.157184 0.137599 0
159 1 0.147803 0.159974 0
161 1 0.165939 0.176982 0
132 1 0.178208 0.154267 0
133 1 0.201332 0.141677 0
163 1 0.206268 0.167288 0
134 1 0.225305 0.151193 0
164 1 0.230672 0.17516 0
136 1 0.267996 0.142049 0
165 1 0.248954 0.159003 0
167 1 0.272083 0.165864 0
138 1 0.291243 0.147976 0
169 1 0.314035 0.155331 0
168 1 0.295531 0.171942 0
140 1 0.33025 0.138033 0
142 1 0.354106 0.145 0
171 1 0.336899 0.162532 0
172 1 0.359211 0.169641 0
170 1 0.318028 0.179511 0
173 1 0.377519 0.151662 0
144 1 0.401611 0.157371 0
174 1 0.38338 0.175611 0
145 1 0.418355 0.140142 0
146 1 0.424375 0.165445 0
147 1 0.442087 0.147855 0
177 1 0.447446 0.172463 0
149 1 0.483257 0.136409 0
148 1 0.465239 0.15486 0
150 1 0.489191 0.160936 0
179 1 0.471634 0.178432 0
183 1 0.0253633 0.190765 0
182 1 0.018848 0.215295 0
181 1 0.00153731 0.197771 0
184 1 0.043404 0.208654 0
154 1 0.0497851 0.183859 0
185 1 0.066827 0.201556 0
186 1 0.0853492 0.220292 0
215 1 0.0611929 0.225916 0
156 1 0.0913093 0.195904 0
158 1 0.115714 0.18934 0
187 1 0.108682 0.212974 0
189 1 0.133349 0.207242 0
160 1 0.142058 0.183737 0
191 1 0.158635 0.201234 0
190 1 0.150197 0.224303 0
221 1 0.174815 0.220652 0
162 1 0.188812 0.185006 0
193 1 0.212685 0.192136 0
192 1 0.195287 0.208892 0
194 1 0.218029 0.216738 0
166 1 0.25368 0.183492 0
195 1 0.236158 0.200224 0
196 1 0.259368 0.207927 0
225 1 0.24139 0.225117 0
197 1 0.277149 0.19004 0
199 1 0.300325 0.196643 0
198 1 0.282767 0.214162 0
229 1 0.306824 0.220438 0
201 1 0.341778 0.186654 0
200 1 0.324122 0.203672 0
202 1 0.347516 0.210022 0
175 1 0.40675 0.182678 0
203 1 0.365882 0.193353 0
233 1 0.37101 0.217512 0
204 1 0.389172 0.200222 0
235 1 0.395275 0.224417 0
205 1 0.41248 0.207673 0
176 1 0.430119 0.190139 0
207 1 0.436102 0.213792 0
178 1 0.454576 0.196322 0
208 1 0.460363 0.220343 0
180 1 0.495679 0.185813 0
209 1 0.478248 0.202669 0
212 1 0.0132975 0.239324 0
213 1 0.0369684 0.233033 0
243 1 0.0306118 0.256955 0
241 1 0.00733051 0.263572 0
216 1 0.0774269 0.243949 0
214 1 0.0538466 0.250477 0
245 1 0.0718461 0.268569 0
188 1 0.12513 0.231431 0
217 1 0.101451 0.238108 0
218 1 0.118252 0.255959 0
247 1 0.0948299 0.263423 0
249 1 0.135725 0.272735 0
219 1 0.141692 0.249301 0
220 1 0.164794 0.243075 0
251 1 0.163328 0.266857 0
222 1 0.185449 0.253643 0
223 1 0.199362 0.233212 0
224 1 0.222723 0.241171 0
253 1 0.208113 0.260714 0
227 1 0.265099 0.23186 0
226 1 0.247605 0.249079 0
257 1 0.271907 0.255699 0
255 1 0.230641 0.267389 0
228 1 0.289427 0.238356 0
230 1 0.312712 0.245614 0
259 1 0.295304 0.262675 0
231 1 0.330105 0.227661 0
232 1 0.353165 0.23474 0
261 1 0.33617 0.252423 0
263 1 0.359724 0.258382 0
260 1 0.319044 0.269639 0
234 1 0.377173 0.241352 0
265 1 0.400804 0.24838 0
264 1 0.38355 0.265289 0
266 1 0.406813 0.272699 0
206 1 0.419331 0.231385 0
237 1 0.443196 0.238205 0
236 1 0.424791 0.255876 0
238 1 0.44806 0.262444 0
210 1 0.484258 0.227286 0
239 1 0.466528 0.24518 0
240 1 0.490279 0.251496 0
269 1 0.472048 0.268626 0
242 1 0.0247868 0.281249 0
271 1 0.0186997 0.304933 0
273 1 0.0428464 0.299256 0
1170 1 0.001407 0.287541 0
244 1 0.0486344 0.275745 0
246 1 0.0895674 0.287225 0
275 1 0.0661045 0.293478 0
276 1 0.0838409 0.310282 0
274 1 0.0606912 0.320416 0
248 1 0.112752 0.281271 0
277 1 0.10796 0.306608 0
279 1 0.131003 0.297332 0
250 1 0.152621 0.288268 0
280 1 0.154324 0.311807 0
281 1 0.174183 0.296745 0
252 1 0.189955 0.278184 0
254 1 0.2135 0.285586 0
283 1 0.196798 0.303373 0
284 1 0.219675 0.309693 0
256 1 0.253998 0.273995 0
285 1 0.2378 0.292355 0
287 1 0.261137 0.299323 0
286 1 0.243935 0.316923 0
258 1 0.27758 0.280407 0
288 1 0.284807 0.305677 0
289 1 0.301257 0.287468 0
290 1 0.308811 0.311165 0
262 1 0.342786 0.276098 0
291 1 0.324871 0.293347 0
292 1 0.347938 0.299988 0
293 1 0.366242 0.283157 0
295 1 0.389478 0.289307 0
296 1 0.394677 0.313217 0
294 1 0.37099 0.307519 0
267 1 0.430457 0.279977 0
297 1 0.413143 0.297089 0
298 1 0.436275 0.30524 0
268 1 0.453425 0.286632 0
1141 1 0.495855 0.275575 0
270 1 0.478146 0.292385 0
299 1 0.460421 0.311074 0
300 1 0.485077 0.316054 0
272 1 0.034319 0.321844 0
301 1 0.01369 0.335648 0
302 1 0.0212603 0.360924 0
303 1 0.0409254 0.344587 0
305 1 0.0827969 0.333733 0
304 1 0.0658836 0.350947 0
306 1 0.0909276 0.356701 0
278 1 0.130322 0.321502 0
307 1 0.109703 0.335311 0
308 1 0.115739 0.361864 0
309 1 0.134575 0.345056 0
311 1 0.158596 0.335223 0
310 1 0.161618 0.359036 0
282 1 0.178267 0.320399 0
312 1 0.182647 0.344998 0
313 1 0.202264 0.327742 0
314 1 0.208973 0.350667 0
315 1 0.226209 0.333545 0
317 1 0.267936 0.323242 0
316 1 0.250103 0.340603 0
345 1 0.231889 0.357792 0
347 1 0.258014 0.363558 0
318 1 0.273994 0.346694 0
319 1 0.293221 0.330834 0
349 1 0.296565 0.356359 0
320 1 0.320844 0.352602 0
321 1 0.327907 0.32866 0
322 1 0.34502 0.347526 0
323 1 0.352298 0.324004 0
324 1 0.369995 0.341158 0
325 1 0.395662 0.337217 0
355 1 0.386519 0.35949 0
326 1 0.41525 0.351745 0
327 1 0.417846 0.323475 0
328 1 0.441957 0.329062 0
359 1 0.444986 0.353548 0
329 1 0.465976 0.334784 0
1201 1 0.489585 0.340066 0
330 1 0.470376 0.358487 0
331 1 0.00336639 0.378807 0
332 1 0.028616 0.385103 0
363 1 0.0341081 0.410221 0
361 1 0.0102888 0.402972 0
333 1 0.0472767 0.368223 0
335 1 0.0717559 0.374805 0
334 1 0.0527682 0.391904 0
336 1 0.0764462 0.398953 0
337 1 0.0967226 0.381163 0
338 1 0.121444 0.386733 0
367 1 0.100559 0.405839 0
339 1 0.139372 0.369313 0
341 1 0.171386 0.38197 0
340 1 0.148794 0.392871 0
371 1 0.172529 0.40643 0
343 1 0.191491 0.367883 0
342 1 0.194072 0.393057 0
344 1 0.214378 0.377985 0
375 1 0.230157 0.400251 0
346 1 0.240709 0.379752 0
377 1 0.264056 0.387557 0
348 1 0.288364 0.380962 0
350 1 0.312656 0.376433 0
379 1 0.305429 0.400208 0
378 1 0.280215 0.40525 0
351 1 0.337566 0.371832 0
353 1 0.362085 0.365666 0
381 1 0.330481 0.395199 0
352 1 0.355017 0.389835 0
354 1 0.379334 0.384184 0
385 1 0.39658 0.402051 0
356 1 0.403671 0.377838 0
383 1 0.372261 0.407642 0
357 1 0.428406 0.372779 0
358 1 0.445758 0.389024 0
387 1 0.420447 0.39701 0
1231 1 0.493978 0.36456 0
1232 1 0.499923 0.387686 0
1261 1 0.483742 0.405097 0
360 1 0.472986 0.382829 0
362 1 0.0154481 0.427239 0
393 1 0.0212983 0.450895 0
364 1 0.0400672 0.433783 0
365 1 0.0586217 0.416199 0
366 1 0.0828874 0.423498 0
395 1 0.0645567 0.440409 0
397 1 0.0897295 0.447955 0
369 1 0.124833 0.41178 0
368 1 0.108524 0.43119 0
399 1 0.132224 0.438691 0
370 1 0.148278 0.417178 0
401 1 0.168227 0.431265 0
400 1 0.15407 0.450088 0
402 1 0.184497 0.451525 0
372 1 0.190366 0.424614 0
373 1 0.209705 0.411603 0
403 1 0.210199 0.437593 0
376 1 0.255365 0.411392 0
374 1 0.230345 0.423863 0
404 1 0.231102 0.449021 0
405 1 0.250942 0.435975 0
407 1 0.273393 0.428915 0
408 1 0.289831 0.448147 0
409 1 0.297541 0.424352 0
410 1 0.314026 0.44275 0
382 1 0.347034 0.413291 0
380 1 0.32185 0.418822 0
411 1 0.338906 0.436691 0
413 1 0.363804 0.431149 0
384 1 0.388162 0.426026 0
414 1 0.37943 0.449652 0
415 1 0.403878 0.44437 0
386 1 0.412915 0.420589 0
388 1 0.436833 0.415351 0
417 1 0.428683 0.439244 0
419 1 0.452141 0.434246 0
389 1 0.460079 0.408863 0
390 1 0.475725 0.427921 0
420 1 0.470021 0.451902 0
1291 1 0.495019 0.443576 0
422 1 0.00417007 0.467874 0
423 1 0.0291305 0.474334 0
453 1 0.0124544 0.491865 0
424 1 0.0368363 0.498585 0
394 1 0.0471912 0.458206 0
396 1 0.0710901 0.464832 0
425 1 0.0536906 0.482232 0
426 1 0.077799 0.488736 0
398 1 0.113805 0.456066 0
457 1 0.101248 0.498578 0
427 1 0.0943972 0.472184 0
428 1 0.117795 0.481176 0
429 1 0.136124 0.465328 0
430 1 0.14384 0.488722 0
431 1 0.163855 0.472388 0
461 1 0.170213 0.496228 0
432 1 0.189127 0.478406 0
433 1 0.208746 0.46295 0
434 1 0.212445 0.488266 0
406 1 0.26619 0.453978 0
465 1 0.23813 0.496949 0
435 1 0.231739 0.472875 0
436 1 0.256946 0.478848 0
437 1 0.28157 0.473116 0
438 1 0.298305 0.491748 0
439 1 0.305934 0.467282 0
467 1 0.274106 0.497478 0
412 1 0.354945 0.455661 0
440 1 0.322496 0.485728 0
441 1 0.330231 0.461783 0
442 1 0.347114 0.479237 0
473 1 0.36494 0.497113 0
443 1 0.372166 0.473705 0
445 1 0.395965 0.468257 0
444 1 0.389457 0.492212 0
418 1 0.445291 0.458395 0
416 1 0.420726 0.462799 0
446 1 0.413572 0.486082 0
447 1 0.437412 0.481789 0
448 1 0.456749 0.498804 0
450 1 0.482066 0.491951 0
1321 1 0.488463 0.467891 0
120 1 0.499986 0.118148 0
91 1 0.000843677 0.107869 0
452 1 0.0185167 0.515498 0
483 1 0.0238875 0.539658 0
454 1 0.0415773 0.522909 0
485 1 0.0646609 0.531737 0
455 1 0.0602864 0.506756 0
456 1 0.0830853 0.515335 0
487 1 0.0892712 0.539373 0
458 1 0.10827 0.522511 0
459 1 0.12503 0.505533 0
489 1 0.130513 0.530083 0
460 1 0.150084 0.512984 0
491 1 0.155357 0.536958 0
462 1 0.174802 0.520134 0
463 1 0.193969 0.503343 0
493 1 0.199591 0.527677 0
464 1 0.219392 0.512616 0
495 1 0.223988 0.536838 0
466 1 0.243546 0.520789 0
497 1 0.267599 0.528734 0
468 1 0.291848 0.516448 0
499 1 0.310584 0.534239 0
498 1 0.287902 0.542147 0
469 1 0.316306 0.510116 0
470 1 0.334264 0.527934 0
472 1 0.35819 0.520965 0
471 1 0.339908 0.50301 0
503 1 0.370783 0.542811 0
474 1 0.382977 0.51714 0
476 1 0.40326 0.533157 0
475 1 0.407523 0.509563 0
507 1 0.427346 0.529633 0
477 1 0.43192 0.506051 0
478 1 0.45179 0.5221 0
480 1 0.470516 0.540249 0
479 1 0.475624 0.515353 0
1381 1 0.493947 0.531143 0
482 1 0.0037993 0.555204 0
513 1 0.0263382 0.563721 0
511 1 0.00623112 0.579807 0
484 1 0.0455804 0.548063 0
512 1 0.0291585 0.588566 0
486 1 0.0708564 0.556316 0
514 1 0.0489444 0.573834 0
515 1 0.0734578 0.581113 0
488 1 0.113428 0.547241 0
516 1 0.0998762 0.588262 0
517 1 0.093356 0.565104 0
519 1 0.117896 0.571378 0
490 1 0.137615 0.553984 0
520 1 0.143466 0.578326 0
521 1 0.161516 0.560864 0
522 1 0.167795 0.58619 0
492 1 0.181243 0.544132 0
523 1 0.185784 0.569152 0
494 1 0.20461 0.55292 0
524 1 0.209627 0.577591 0
496 1 0.247214 0.545978 0
525 1 0.228583 0.562523 0
526 1 0.250472 0.573164 0
555 1 0.231904 0.588174 0
527 1 0.268643 0.55746 0
529 1 0.291237 0.56616 0
528 1 0.273082 0.582433 0
500 1 0.314698 0.573483 0
501 1 0.327471 0.55279 0
531 1 0.33682 0.581155 0
502 1 0.351041 0.561678 0
533 1 0.359197 0.588414 0
505 1 0.392406 0.554651 0
504 1 0.374148 0.570179 0
535 1 0.399309 0.577701 0
506 1 0.417584 0.55306 0
508 1 0.437071 0.567018 0
537 1 0.422228 0.585367 0
509 1 0.446853 0.545266 0
510 1 0.489525 0.554999 0
539 1 0.461356 0.568913 0
540 1 0.483608 0.577924 0
541 1 0.00854137 0.604911 0
542 1 0.0319944 0.614532 0
571 1 0.0117215 0.630099 0
543 1 0.0527737 0.598208 0
544 1 0.0548131 0.626045 0
545 1 0.080903 0.604702 0
546 1 0.0907267 0.62863 0
518 1 0.12428 0.594875 0
547 1 0.107052 0.611369 0
548 1 0.130984 0.619556 0
577 1 0.113791 0.6361 0
549 1 0.148525 0.601911 0
550 1 0.154458 0.627874 0
551 1 0.172082 0.611211 0
581 1 0.177157 0.637885 0
553 1 0.190759 0.593521 0
552 1 0.195507 0.621002 0
554 1 0.213317 0.603938 0
583 1 0.218331 0.629894 0
556 1 0.236338 0.613879 0
557 1 0.254168 0.597666 0
587 1 0.259516 0.622422 0
559 1 0.296576 0.590508 0
558 1 0.278139 0.606685 0
560 1 0.30189 0.614622 0
589 1 0.283889 0.631739 0
530 1 0.320024 0.598839 0
532 1 0.342965 0.606261 0
561 1 0.32455 0.623566 0
562 1 0.347708 0.629464 0
534 1 0.382242 0.595361 0
563 1 0.366923 0.613664 0
565 1 0.389741 0.620995 0
536 1 0.405519 0.603044 0
538 1 0.4463 0.590417 0
566 1 0.41343 0.627652 0
567 1 0.429497 0.609204 0
597 1 0.436203 0.633856 0
568 1 0.453577 0.614911 0
569 1 0.469805 0.596991 0
570 1 0.481352 0.618426 0
1441 1 0.497414 0.597545 0
573 1 0.03345 0.641085 0
572 1 0.0143293 0.656228 0
603 1 0.0349908 0.670155 0
602 1 0.0142162 0.681027 0
575 1 0.0736241 0.643631 0
574 1 0.0538931 0.6562 0
605 1 0.0774489 0.668109 0
604 1 0.0578406 0.681497 0
576 1 0.0970195 0.652837 0
578 1 0.119531 0.661568 0
579 1 0.137503 0.64538 0
607 1 0.0997626 0.677641 0
609 1 0.141606 0.670657 0
580 1 0.159659 0.654513 0
610 1 0.164455 0.678757 0
611 1 0.18279 0.663022 0
582 1 0.200306 0.646874 0
584 1 0.223422 0.655307 0
613 1 0.205596 0.671531 0
585 1 0.241315 0.638917 0
614 1 0.228295 0.680299 0
586 1 0.264481 0.647025 0
615 1 0.245905 0.662994 0
617 1 0.269068 0.670984 0
590 1 0.306937 0.639418 0
588 1 0.288651 0.655867 0
619 1 0.31153 0.663979 0
618 1 0.293301 0.680056 0
591 1 0.330421 0.647063 0
593 1 0.353903 0.653735 0
621 1 0.336103 0.670215 0
592 1 0.359127 0.677594 0
564 1 0.372344 0.638101 0
595 1 0.395964 0.645343 0
594 1 0.377788 0.66175 0
625 1 0.401741 0.670624 0
596 1 0.4196 0.652049 0
598 1 0.443527 0.659389 0
627 1 0.424733 0.675404 0
1501 1 0.497167 0.660768 0
599 1 0.459765 0.639863 0
600 1 0.483226 0.641971 0
629 1 0.470146 0.664721 0
633 1 0.0384367 0.695281 0
632 1 0.0161116 0.705353 0
634 1 0.0421805 0.721671 0
606 1 0.0804934 0.692452 0
635 1 0.0613727 0.707023 0
636 1 0.0836561 0.717066 0
608 1 0.123031 0.686941 0
637 1 0.103663 0.701995 0
638 1 0.127081 0.711788 0
667 1 0.107405 0.725889 0
639 1 0.146529 0.695853 0
641 1 0.169404 0.705124 0
640 1 0.150184 0.720921 0
612 1 0.187503 0.687981 0
643 1 0.210224 0.696942 0
642 1 0.192767 0.713078 0
644 1 0.215453 0.72233 0
645 1 0.2333 0.705742 0
616 1 0.251322 0.688994 0
646 1 0.2577 0.713349 0
647 1 0.275012 0.696229 0
649 1 0.299273 0.703792 0
648 1 0.28134 0.720941 0
620 1 0.317645 0.687968 0
650 1 0.322754 0.712268 0
622 1 0.341026 0.694427 0
651 1 0.34726 0.717942 0
623 1 0.383286 0.685591 0
653 1 0.364972 0.701679 0
624 1 0.388714 0.708797 0
626 1 0.409088 0.695251 0
657 1 0.435567 0.697107 0
656 1 0.42378 0.720487 0
658 1 0.453561 0.714736 0
630 1 0.487347 0.684116 0
628 1 0.460199 0.687698 0
659 1 0.476839 0.707357 0
660 1 0.492137 0.726247 0
663 1 0.0191217 0.728916 0
662 1 0.0213281 0.752075 0
691 1 0.000811794 0.765549 0
664 1 0.0450661 0.746292 0
665 1 0.0644988 0.732187 0
666 1 0.0884254 0.741135 0
695 1 0.0689791 0.755831 0
694 1 0.048073 0.77083 0
697 1 0.0919817 0.766016 0
669 1 0.131295 0.736091 0
668 1 0.11189 0.750133 0
699 1 0.134443 0.760017 0
671 1 0.17402 0.729464 0
670 1 0.154585 0.745332 0
701 1 0.159185 0.771129 0
672 1 0.178346 0.754742 0
673 1 0.197641 0.739318 0
674 1 0.221185 0.746881 0
703 1 0.202656 0.764321 0
705 1 0.225697 0.769999 0
675 1 0.240198 0.730837 0
677 1 0.263117 0.737683 0
676 1 0.246037 0.755464 0
707 1 0.269471 0.761586 0
678 1 0.288419 0.746125 0
679 1 0.305194 0.72836 0
680 1 0.314798 0.768805 0
652 1 0.347741 0.742348 0
681 1 0.323017 0.744797 0
682 1 0.338399 0.764991 0
655 1 0.400617 0.729606 0
654 1 0.371161 0.727238 0
683 1 0.363882 0.758864 0
685 1 0.386839 0.74991 0
715 1 0.407876 0.767258 0
686 1 0.418352 0.744988 0
687 1 0.442637 0.737976 0
717 1 0.434262 0.76336 0
689 1 0.46845 0.734389 0
690 1 0.485319 0.7525 0
688 1 0.459216 0.758194 0
693 1 0.0244517 0.775848 0
692 1 0.00340256 0.789811 0
722 1 0.00628778 0.813139 0
723 1 0.025543 0.799914 0
696 1 0.071273 0.779843 0
725 1 0.0500719 0.794573 0
726 1 0.0741291 0.804893 0
698 1 0.114394 0.775523 0
727 1 0.0954839 0.791035 0
728 1 0.118617 0.800582 0
757 1 0.0979074 0.817085 0
700 1 0.137995 0.783935 0
729 1 0.142649 0.806829 0
731 1 0.163819 0.795906 0
702 1 0.184467 0.782652 0
704 1 0.20916 0.79627 0
733 1 0.185733 0.807751 0
735 1 0.23359 0.79252 0
706 1 0.256377 0.782727 0
736 1 0.22972 0.816546 0
737 1 0.256313 0.806795 0
709 1 0.29103 0.772666 0
708 1 0.279966 0.796544 0
710 1 0.306207 0.792301 0
739 1 0.298343 0.816459 0
713 1 0.355725 0.781957 0
711 1 0.33167 0.788372 0
712 1 0.349844 0.805165 0
741 1 0.32385 0.811364 0
684 1 0.381644 0.774511 0
714 1 0.374335 0.797749 0
745 1 0.391597 0.816431 0
716 1 0.39981 0.79082 0
718 1 0.44986 0.782413 0
746 1 0.415005 0.811053 0
747 1 0.424514 0.78641 0
748 1 0.44015 0.805319 0
719 1 0.476927 0.776969 0
720 1 0.488691 0.799643 0
749 1 0.465029 0.80074 0
752 1 0.00925738 0.858734 0
753 1 0.00992804 0.836206 0
783 1 0.0311828 0.848342 0
724 1 0.0311718 0.823168 0
755 1 0.0755968 0.829866 0
754 1 0.0522806 0.836681 0
785 1 0.0709184 0.855163 0
756 1 0.0936986 0.845607 0
759 1 0.116519 0.835946 0
758 1 0.111667 0.862189 0
760 1 0.135098 0.85375 0
732 1 0.163199 0.820004 0
730 1 0.140078 0.830331 0
761 1 0.159314 0.844544 0
762 1 0.178101 0.859739 0
734 1 0.206288 0.823296 0
763 1 0.182675 0.833882 0
764 1 0.201636 0.849029 0
765 1 0.224342 0.840272 0
767 1 0.249159 0.83241 0
766 1 0.244177 0.856906 0
768 1 0.268547 0.8485 0
738 1 0.274333 0.82391 0
769 1 0.292266 0.84145 0
770 1 0.31065 0.858853 0
740 1 0.317455 0.834952 0
742 1 0.342496 0.82857 0
771 1 0.335041 0.852339 0
773 1 0.359915 0.845432 0
743 1 0.367822 0.82188 0
744 1 0.384427 0.839823 0
775 1 0.407758 0.835611 0
774 1 0.376521 0.864097 0
776 1 0.401332 0.858732 0
777 1 0.431426 0.82863 0
778 1 0.433346 0.853918 0
779 1 0.453212 0.837552 0
750 1 0.473587 0.824801 0
1621 1 0.496896 0.822993 0
809 1 0.459123 0.860816 0
782 1 0.0042147 0.882688 0
813 1 0.026781 0.87404 0
812 1 0.0221992 0.899516 0
815 1 0.044769 0.891064 0
784 1 0.0486758 0.863977 0
786 1 0.0665389 0.88001 0
817 1 0.0858729 0.896341 0
816 1 0.0632651 0.906083 0
787 1 0.08941 0.870736 0
788 1 0.107839 0.886728 0
819 1 0.126473 0.902616 0
789 1 0.130605 0.8781 0
791 1 0.154748 0.86826 0
790 1 0.149248 0.893293 0
821 1 0.166564 0.909108 0
792 1 0.173231 0.88402 0
795 1 0.220555 0.864728 0
793 1 0.197141 0.87417 0
823 1 0.191368 0.899121 0
794 1 0.215159 0.890078 0
797 1 0.262214 0.874464 0
796 1 0.238191 0.881086 0
825 1 0.231923 0.907332 0
827 1 0.25539 0.899066 0
799 1 0.286536 0.865903 0
798 1 0.279901 0.891028 0
800 1 0.304221 0.882911 0
829 1 0.297559 0.90773 0
772 1 0.352917 0.870243 0
801 1 0.328539 0.876185 0
831 1 0.321942 0.900875 0
802 1 0.345635 0.893601 0
803 1 0.369478 0.887742 0
805 1 0.393774 0.882843 0
804 1 0.387578 0.905418 0
806 1 0.412093 0.898973 0
807 1 0.418172 0.875381 0
808 1 0.442965 0.878464 0
839 1 0.44993 0.902809 0
780 1 0.483108 0.866424 0
1681 1 0.490537 0.890738 0
810 1 0.466795 0.885109 0
840 1 0.473969 0.909304 0
842 1 0.0114312 0.946951 0
843 1 0.0170459 0.923772 0
844 1 0.0348755 0.940234 0
814 1 0.0399972 0.915449 0
845 1 0.0580912 0.930779 0
846 1 0.0767954 0.947441 0
847 1 0.0812816 0.921834 0
818 1 0.103774 0.911806 0
848 1 0.0992863 0.937552 0
849 1 0.1225 0.927682 0
879 1 0.117286 0.954198 0
820 1 0.144898 0.918597 0
850 1 0.140171 0.942862 0
851 1 0.162616 0.934414 0
852 1 0.179265 0.952006 0
824 1 0.208822 0.915461 0
822 1 0.184945 0.92414 0
853 1 0.203537 0.940976 0
855 1 0.226526 0.932383 0
826 1 0.25007 0.924206 0
856 1 0.245241 0.948417 0
857 1 0.268557 0.940124 0
828 1 0.273835 0.915608 0
859 1 0.292022 0.93184 0
860 1 0.311084 0.949248 0
830 1 0.315734 0.924622 0
832 1 0.33949 0.918289 0
861 1 0.333819 0.943069 0
863 1 0.356457 0.935803 0
833 1 0.363147 0.912226 0
835 1 0.40518 0.922592 0
834 1 0.381044 0.929097 0
864 1 0.375506 0.953294 0
865 1 0.399341 0.946306 0
837 1 0.429897 0.916094 0
836 1 0.423271 0.93973 0
838 1 0.452054 0.928707 0
869 1 0.480601 0.932454 0
870 1 0.465264 0.950619 0
1711 1 0.498141 0.914561 0
872 1 0.0236512 0.987769 0
873 1 0.0303248 0.964395 0
871 1 0.00653574 0.970242 0
1 1 0.000271678 0.994047 0
874 1 0.0474711 0.980926 0
875 1 0.0533228 0.955347 0
876 1 0.0707628 0.973529 0
7 1 0.0900238 0.990385 0
5 1 0.0667089 0.997875 0
877 1 0.0941122 0.964239 0
878 1 0.112585 0.983138 0
880 1 0.134031 0.972236 0
881 1 0.156037 0.961443 0
882 1 0.174423 0.975949 0
11 1 0.152761 0.986876 0
854 1 0.221782 0.955802 0
883 1 0.198491 0.966516 0
13 1 0.193282 0.991114 0
884 1 0.217799 0.981305 0
885 1 0.23995 0.972355 0
886 1 0.235459 0.996184 0
17 1 0.257625 0.98842 0
887 1 0.263078 0.964901 0
19 1 0.300299 0.997939 0
858 1 0.287465 0.9566 0
888 1 0.281696 0.98118 0
889 1 0.305182 0.973085 0
862 1 0.351388 0.960525 0
890 1 0.322691 0.991586 0
891 1 0.328634 0.967989 0
892 1 0.346992 0.985416 0
893 1 0.370445 0.976501 0
895 1 0.394168 0.970268 0
894 1 0.388596 0.994889 0
867 1 0.441869 0.955865 0
896 1 0.412767 0.987384 0
866 1 0.418156 0.963391 0
897 1 0.437005 0.980239 0
898 1 0.452461 1.00002 0
899 1 0.475656 0.996437 0
1771 1 0.492639 0.980104 0
868 1 0.461943 0.974743 0
1741 1 0.487726 0.956319 0
902 1 0.543579 0.0172333 0
931 1 0.524078 0.0352862 0
901 1 0.521124 0.0100884 0
933 1 0.547909 0.0423385 0
904 1 0.567269 0.0241142 0
906 1 0.585427 0.00697576 0
30 1 0.500474 0.0283211 0
935 1 0.590388 0.0307882 0
908 1 0.609493 0.0132449 0
937 1 0.613645 0.0378546 0
939 1 0.633016 0.0207697 0
910 1 0.651643 0.00369613 0
941 1 0.656547 0.0275442 0
912 1 0.67562 0.0113082 0
942 1 0.67956 0.035085 0
943 1 0.699132 0.0180315 0
914 1 0.718355 0.000801484 0
945 1 0.72475 0.0237419 0
944 1 0.702991 0.0416031 0
916 1 0.756409 0.0014424 0
947 1 0.751024 0.0275848 0
948 1 0.773406 0.0441477 0
918 1 0.775705 0.019428 0
919 1 0.800363 0.0111574 0
949 1 0.796808 0.0347599 0
951 1 0.820374 0.0284536 0
920 1 0.8237 0.00324603 0
922 1 0.843139 0.0200316 0
953 1 0.8626 0.0387022 0
952 1 0.839514 0.0452536 0
923 1 0.866309 0.0136885 0
924 1 0.89052 0.00773844 0
955 1 0.907894 0.0237858 0
954 1 0.886546 0.0329131 0
926 1 0.930996 0.0146213 0
928 1 0.95419 0.00847592 0
957 1 0.947153 0.0327033 0
930 1 0.994848 0.0184533 0
959 1 0.972028 0.0255946 0
929 1 0.977303 0.000969934 0
960 1 0.989001 0.0421407 0
932 1 0.53045 0.0597521 0
962 1 0.536606 0.0834782 0
961 1 0.51225 0.0769623 0
60 1 0.505645 0.0526629 0
963 1 0.554278 0.0662794 0
934 1 0.572317 0.0492662 0
965 1 0.578171 0.0742199 0
936 1 0.595333 0.0554614 0
966 1 0.601108 0.0803883 0
967 1 0.618425 0.0629433 0
968 1 0.624034 0.0878986 0
938 1 0.637276 0.0451388 0
969 1 0.642141 0.0695347 0
940 1 0.661251 0.0524098 0
970 1 0.665563 0.0766299 0
971 1 0.684306 0.0587069 0
972 1 0.689161 0.0825742 0
973 1 0.70687 0.0653778 0
975 1 0.728127 0.0474408 0
974 1 0.729049 0.071235 0
976 1 0.75033 0.0795404 0
946 1 0.751729 0.0540869 0
977 1 0.771752 0.0687753 0
950 1 0.816321 0.0525177 0
979 1 0.793948 0.0604239 0
980 1 0.811338 0.0780728 0
978 1 0.787768 0.0865001 0
981 1 0.835478 0.070686 0
982 1 0.852532 0.0881998 0
983 1 0.858453 0.0634294 0
985 1 0.884099 0.0570962 0
984 1 0.875876 0.0806439 0
986 1 0.903993 0.0736514 0
956 1 0.909422 0.0492808 0
987 1 0.937273 0.0553333 0
1017 1 0.935741 0.0810616 0
988 1 0.959074 0.0729027 0
958 1 0.964635 0.0489082 0
989 1 0.98272 0.0660422 0
1019 1 0.978713 0.0899528 0
451 1 0.988105 0.48605 0
991 1 0.518289 0.10085 0
992 1 0.52425 0.125128 0
993 1 0.542711 0.108687 0
964 1 0.560292 0.0913011 0
1023 1 0.547424 0.133723 0
994 1 0.565642 0.116966 0
995 1 0.583917 0.0986545 0
996 1 0.589168 0.124072 0
997 1 0.607034 0.106191 0
998 1 0.630187 0.11213 0
1027 1 0.613705 0.130163 0
999 1 0.647041 0.0933626 0
1000 1 0.654111 0.11818 0
1001 1 0.671081 0.100049 0
1031 1 0.680057 0.124989 0
1002 1 0.694373 0.105553 0
1003 1 0.713469 0.0902003 0
1004 1 0.716345 0.114792 0
1005 1 0.736768 0.101683 0
1006 1 0.758493 0.120289 0
1007 1 0.764977 0.0976694 0
1035 1 0.735684 0.128214 0
1037 1 0.776703 0.136927 0
1008 1 0.783091 0.113543 0
1009 1 0.805102 0.10275 0
1039 1 0.80078 0.128819 0
1010 1 0.823523 0.120636 0
1011 1 0.828883 0.0960959 0
1012 1 0.847183 0.112749 0
1043 1 0.863461 0.130299 0
1013 1 0.870456 0.104794 0
1014 1 0.886667 0.122904 0
1015 1 0.894125 0.0965764 0
1016 1 0.910017 0.115069 0
1047 1 0.933231 0.105657 0
1049 1 0.952346 0.122185 0
1046 1 0.928863 0.130469 0
1018 1 0.95557 0.0974424 0
1020 1 0.976125 0.114419 0
121 1 0.995705 0.131777 0
1350 1 0.964305 0.478292 0
1022 1 0.530145 0.150186 0
1051 1 0.51262 0.167947 0
1053 1 0.535895 0.175308 0
1021 1 0.506892 0.143424 0
1024 1 0.553441 0.158686 0
1025 1 0.572093 0.141592 0
1055 1 0.577523 0.165777 0
1026 1 0.595815 0.148342 0
1028 1 0.619437 0.154525 0
1057 1 0.601377 0.172502 0
1058 1 0.62539 0.178769 0
1029 1 0.637348 0.136547 0
1059 1 0.643142 0.160335 0
1030 1 0.661801 0.141934 0
1061 1 0.666077 0.166967 0
1033 1 0.707251 0.137627 0
1032 1 0.685636 0.150448 0
1063 1 0.709392 0.163198 0
1062 1 0.688799 0.1749 0
1034 1 0.729834 0.151456 0
1036 1 0.75321 0.144271 0
1065 1 0.745614 0.170263 0
1067 1 0.77005 0.161779 0
1038 1 0.793843 0.153219 0
1069 1 0.81082 0.169878 0
1068 1 0.787901 0.177932 0
1040 1 0.817082 0.14555 0
1041 1 0.840357 0.137424 0
1071 1 0.83467 0.161825 0
1042 1 0.857947 0.154194 0
1072 1 0.851834 0.179029 0
1045 1 0.905389 0.139091 0
1044 1 0.881843 0.146874 0
1075 1 0.899394 0.163363 0
1073 1 0.875102 0.170614 0
1048 1 0.947717 0.146511 0
1077 1 0.923652 0.154511 0
1078 1 0.943002 0.170296 0
1076 1 0.918271 0.178054 0
1050 1 0.971559 0.13818 0
1079 1 0.966501 0.162448 0
151 1 0.990333 0.155951 0
1080 1 0.984452 0.179805 0
1081 1 0.501791 0.210658 0
1052 1 0.519006 0.192683 0
1083 1 0.54303 0.200606 0
1082 1 0.52562 0.217476 0
1054 1 0.559651 0.18324 0
1084 1 0.549551 0.225107 0
1085 1 0.567165 0.207274 0
1056 1 0.583733 0.18955 0
1086 1 0.590068 0.213659 0
1087 1 0.607484 0.196484 0
1089 1 0.631103 0.202748 0
1088 1 0.61378 0.220159 0
1060 1 0.648679 0.185055 0
1091 1 0.67173 0.191674 0
1090 1 0.65424 0.209298 0
1092 1 0.679056 0.215387 0
1064 1 0.719668 0.18797 0
1093 1 0.696789 0.197587 0
1094 1 0.725893 0.21337 0
1123 1 0.702424 0.221319 0
1066 1 0.765812 0.186181 0
1095 1 0.743274 0.19547 0
1097 1 0.763307 0.210144 0
1099 1 0.804888 0.194654 0
1098 1 0.788851 0.212709 0
1100 1 0.81589 0.218173 0
1070 1 0.828495 0.186624 0
1101 1 0.845344 0.203566 0
1131 1 0.840665 0.227455 0
1102 1 0.864325 0.219 0
1103 1 0.870024 0.194951 0
1074 1 0.893756 0.186223 0
1104 1 0.888729 0.209996 0
1105 1 0.913095 0.20179 0
1107 1 0.936491 0.194107 0
1108 1 0.953964 0.210946 0
1106 1 0.930282 0.218916 0
1109 1 0.960698 0.187041 0
1110 1 0.977649 0.204929 0
211 1 0.995105 0.221806 0
1111 1 0.508398 0.234397 0
1113 1 0.531851 0.241954 0
1112 1 0.514084 0.259108 0
1143 1 0.538232 0.266491 0
1114 1 0.555455 0.249349 0
1115 1 0.573289 0.231946 0
1116 1 0.580096 0.255741 0
1117 1 0.597683 0.238375 0
1118 1 0.621224 0.244455 0
1147 1 0.604398 0.262526 0
1149 1 0.62846 0.268701 0
1119 1 0.637962 0.227379 0
1121 1 0.661187 0.232753 0
1120 1 0.645313 0.25123 0
1151 1 0.669288 0.257011 0
1122 1 0.685507 0.238581 0
1124 1 0.709333 0.244115 0
1153 1 0.693159 0.262963 0
1154 1 0.71719 0.267824 0
1096 1 0.747148 0.22772 0
1125 1 0.733189 0.248081 0
1126 1 0.757187 0.252213 0
1155 1 0.741789 0.271225 0
1127 1 0.772924 0.233405 0
1129 1 0.797179 0.236457 0
1128 1 0.781392 0.256163 0
1159 1 0.805941 0.260811 0
1130 1 0.820846 0.241985 0
1132 1 0.858513 0.243892 0
1161 1 0.831897 0.264555 0
1162 1 0.855718 0.269275 0
1133 1 0.882396 0.234837 0