ITEM: TIMESTEP
24000
ITEM: NUMBER OF ATOMS
1800
ITEM: BOX BOUNDS pp pp pp
6.3262643007669794e-01 1.6436737356992205e+02
6.3262643007669794e-01 1.6436737356992205e+02
0.0000000000000000e+00 5.5000000000000000e+00
ITEM: ATOMS id type xs ys zs
2 1 0.0137845 0.0161261 0
3 1 0.0379029 0.0108722 0
33 1 0.0294642 0.0348777 0
31 1 0.00570268 0.0399007 0
4 1 0.0542573 0.0287257 0
5 1 0.0632843 0.00442107 0
6 1 0.078972 0.0229617 0
8 1 0.103601 0.0163822 0
37 1 0.0957963 0.0398104 0
9 1 0.123066 0.00176572 0
39 1 0.126241 0.0267544 0
10 1 0.146066 0.0121274 0
41 1 0.168254 0.0226102 0
40 1 0.148987 0.037085 0
12 1 0.188305 0.00811737 0
43 1 0.190733 0.0346669 0
14 1 0.210787 0.0189676 0
44 1 0.213231 0.0441265 0
15 1 0.230815 0.00401743 0
45 1 0.233418 0.0289319 0
16 1 0.253956 0.0140725 0
46 1 0.255385 0.0387156 0
18 1 0.278177 0.025898 0
49 1 0.304686 0.0348615 0
20 1 0.316823 0.0126613 0
51 1 0.332622 0.0314739 0
22 1 0.357195 0.0264324 0
21 1 0.341632 0.00781851 0
24 1 0.381795 0.0233603 0
55 1 0.397586 0.0415791 0
23 1 0.365713 0.00329468 0
894 1 0.391264 0.000517565 0
25 1 0.408801 0.0199321 0
26 1 0.424542 0.0392819 0
27 1 0.435955 0.0170079 0
28 1 0.452782 0.0417357 0
30 1 0.497454 0.0314505 0
29 1 0.472237 0.0259355 0
900 1 0.49045 0.00849544 0
898 1 0.465703 0.0020639 0
32 1 0.0222567 0.0582594 0
62 1 0.015226 0.0820064 0
63 1 0.038745 0.0761676 0
35 1 0.0716282 0.0466839 0
34 1 0.0467059 0.052284 0
36 1 0.0863503 0.0667569 0
65 1 0.0629503 0.0707675 0
66 1 0.0801875 0.089957 0
38 1 0.109161 0.0609718 0
67 1 0.105183 0.0848583 0
68 1 0.128719 0.0761635 0
69 1 0.12997 0.0511846 0
71 1 0.150445 0.0641397 0
42 1 0.170023 0.0485991 0
72 1 0.17176 0.0748914 0
73 1 0.19188 0.0591413 0
74 1 0.213546 0.0697263 0
103 1 0.193902 0.0846559 0
75 1 0.234487 0.0544137 0
77 1 0.25597 0.0638093 0
76 1 0.236088 0.0784133 0
107 1 0.258703 0.0882492 0
47 1 0.27675 0.0495881 0
48 1 0.278342 0.0733382 0
79 1 0.300278 0.0826841 0
50 1 0.299349 0.0585457 0
81 1 0.32317 0.0537901 0
52 1 0.34866 0.0497726 0
82 1 0.339116 0.0722925 0
80 1 0.323605 0.0899119 0
83 1 0.363878 0.0698997 0
53 1 0.373072 0.0460066 0
54 1 0.38767 0.0665482 0
84 1 0.401152 0.0868056 0
113 1 0.376197 0.0909941 0
57 1 0.438069 0.0607534 0
56 1 0.411896 0.0606189 0
85 1 0.423826 0.0810412 0
87 1 0.447907 0.0842001 0
59 1 0.479889 0.0490757 0
58 1 0.462118 0.0653709 0
89 1 0.487251 0.0735016 0
92 1 0.024252 0.123244 0
93 1 0.0317855 0.0998795 0
91 1 0.00754259 0.10546 0
450 1 0.477765 0.487227 0
64 1 0.0563416 0.0944203 0
94 1 0.0486407 0.117903 0
95 1 0.0732288 0.112678 0
125 1 0.065847 0.136608 0
96 1 0.0907576 0.131373 0
97 1 0.0981399 0.10754 0
98 1 0.116387 0.124751 0
99 1 0.125911 0.101755 0
70 1 0.149462 0.0894665 0
100 1 0.149152 0.116074 0
101 1 0.172659 0.100163 0
131 1 0.176215 0.124972 0
102 1 0.195599 0.109888 0
104 1 0.218591 0.12071 0
105 1 0.215902 0.0942609 0
106 1 0.238746 0.10387 0
135 1 0.24209 0.129808 0
137 1 0.260356 0.113477 0
78 1 0.281414 0.0974213 0
108 1 0.284381 0.122112 0
109 1 0.304547 0.106856 0
139 1 0.308855 0.131016 0
110 1 0.328381 0.113363 0
111 1 0.348541 0.0941627 0
141 1 0.351096 0.119882 0
112 1 0.391024 0.111325 0
143 1 0.374517 0.129011 0
115 1 0.413794 0.119465 0
86 1 0.431191 0.103125 0
116 1 0.4376 0.12646 0
117 1 0.454582 0.108621 0
88 1 0.471379 0.0912926 0
118 1 0.460278 0.132901 0
90 1 0.494559 0.0981365 0
119 1 0.477475 0.116797 0
122 1 0.0160098 0.14697 0
153 1 0.0333488 0.165002 0
152 1 0.00904825 0.170241 0
123 1 0.0412823 0.141552 0
124 1 0.0576755 0.160401 0
126 1 0.0822174 0.154614 0
155 1 0.0739774 0.178022 0
127 1 0.107624 0.148961 0
128 1 0.122488 0.167979 0
157 1 0.098385 0.173142 0
129 1 0.132504 0.14296 0
159 1 0.145905 0.163745 0
130 1 0.158172 0.141872 0
161 1 0.166484 0.175043 0
132 1 0.180036 0.153598 0
133 1 0.198302 0.136349 0
134 1 0.222273 0.145664 0
163 1 0.2047 0.162438 0
136 1 0.266264 0.138355 0
164 1 0.228886 0.170883 0
165 1 0.246614 0.154328 0
166 1 0.252476 0.178828 0
167 1 0.270142 0.162003 0
138 1 0.28925 0.146743 0
169 1 0.313744 0.15462 0
168 1 0.294092 0.170437 0
170 1 0.318408 0.178208 0
140 1 0.331932 0.13717 0
142 1 0.355188 0.144659 0
171 1 0.337281 0.161613 0
172 1 0.360592 0.168817 0
114 1 0.396724 0.13563 0
144 1 0.402489 0.159599 0
173 1 0.378436 0.152585 0
174 1 0.384852 0.176763 0
145 1 0.420395 0.143418 0
146 1 0.426159 0.167698 0
147 1 0.443411 0.150353 0
177 1 0.449752 0.174669 0
149 1 0.483787 0.140546 0
148 1 0.46667 0.158021 0
150 1 0.490768 0.165315 0
179 1 0.472954 0.181545 0
183 1 0.0248479 0.189014 0
182 1 0.0182079 0.213118 0
184 1 0.0419336 0.207329 0
154 1 0.0490129 0.183594 0
185 1 0.066453 0.201629 0
186 1 0.0825076 0.22029 0
215 1 0.0590366 0.22562 0
156 1 0.0899756 0.196589 0
158 1 0.114663 0.191198 0
187 1 0.106142 0.214496 0
189 1 0.130443 0.210784 0
160 1 0.145511 0.19021 0
191 1 0.169951 0.199273 0
190 1 0.153616 0.217386 0
221 1 0.177479 0.223857 0
162 1 0.189339 0.181614 0
193 1 0.212504 0.189905 0
192 1 0.195441 0.206489 0
194 1 0.218733 0.213618 0
195 1 0.235977 0.196938 0
196 1 0.259199 0.203625 0
225 1 0.24264 0.221677 0
197 1 0.276667 0.186965 0
199 1 0.300175 0.195121 0
198 1 0.282249 0.211441 0
229 1 0.306246 0.218988 0
201 1 0.342149 0.185569 0
200 1 0.324146 0.202165 0
202 1 0.349083 0.209555 0
231 1 0.330403 0.226504 0
203 1 0.366754 0.192197 0
233 1 0.372219 0.216989 0
204 1 0.390425 0.200749 0
235 1 0.396948 0.224594 0
175 1 0.407847 0.184635 0
205 1 0.413396 0.208164 0
176 1 0.431493 0.191847 0
207 1 0.437343 0.215315 0
178 1 0.454806 0.198497 0
208 1 0.461825 0.223031 0
180 1 0.496322 0.188632 0
209 1 0.478703 0.20549 0
213 1 0.034856 0.230933 0
212 1 0.0113756 0.237073 0
243 1 0.0279694 0.255456 0
241 1 0.00475713 0.261777 0
216 1 0.077099 0.243913 0
214 1 0.0523648 0.249202 0
245 1 0.0701072 0.266661 0
188 1 0.136417 0.235167 0
217 1 0.100732 0.237546 0
218 1 0.119217 0.252106 0
247 1 0.0976764 0.263508 0
219 1 0.143403 0.258486 0
220 1 0.159995 0.24136 0
251 1 0.166499 0.266871 0
222 1 0.184956 0.249845 0
223 1 0.201115 0.230957 0
224 1 0.224636 0.238619 0
253 1 0.20834 0.256775 0
227 1 0.265672 0.228397 0
226 1 0.247257 0.24662 0
257 1 0.270747 0.252182 0
255 1 0.231049 0.263541 0
256 1 0.253759 0.270193 0
228 1 0.289744 0.236148 0
230 1 0.312929 0.242832 0
259 1 0.294349 0.260505 0
260 1 0.317835 0.266621 0
232 1 0.354085 0.233563 0
261 1 0.335871 0.24953 0
263 1 0.360019 0.256773 0
234 1 0.377926 0.240376 0
265 1 0.40327 0.249018 0
264 1 0.383301 0.264607 0
206 1 0.420458 0.232617 0
236 1 0.426652 0.257351 0
237 1 0.443995 0.240405 0
238 1 0.4499 0.264627 0
210 1 0.484761 0.229988 0
239 1 0.466877 0.247183 0
240 1 0.490594 0.254238 0
269 1 0.473214 0.272143 0
244 1 0.0459668 0.271818 0
242 1 0.0210363 0.281602 0
273 1 0.040515 0.295491 0
271 1 0.0216626 0.310976 0
420 1 0.461534 0.468778 0
246 1 0.083575 0.286094 0
275 1 0.064669 0.302999 0
276 1 0.0879216 0.309659 0
249 1 0.125261 0.275728 0
248 1 0.107427 0.290711 0
277 1 0.111659 0.316225 0
279 1 0.130214 0.299682 0
250 1 0.148027 0.282631 0
280 1 0.153602 0.307511 0
281 1 0.172574 0.290438 0
282 1 0.177464 0.313952 0
252 1 0.18993 0.273584 0
254 1 0.213058 0.280838 0
283 1 0.195648 0.297363 0
284 1 0.218799 0.305791 0
285 1 0.236328 0.288503 0
287 1 0.260392 0.294952 0
286 1 0.242033 0.312804 0
258 1 0.276624 0.277235 0
288 1 0.283101 0.303017 0
289 1 0.299327 0.28493 0
290 1 0.306911 0.308807 0
262 1 0.340395 0.273879 0
291 1 0.323036 0.291189 0
292 1 0.345856 0.2978 0
293 1 0.364123 0.281409 0
295 1 0.387216 0.28771 0
296 1 0.392105 0.311203 0
294 1 0.369076 0.30533 0
266 1 0.406762 0.273881 0
267 1 0.43045 0.282094 0
297 1 0.414733 0.300607 0
298 1 0.435583 0.318034 0
268 1 0.455017 0.288813 0
1141 1 0.496894 0.278228 0
270 1 0.478862 0.295408 0
299 1 0.460526 0.31258 0
272 1 0.0467473 0.319333 0
301 1 0.0237834 0.336482 0
1230 1 0.00671889 0.356367 0
302 1 0.0330331 0.360421 0
1321 1 0.485158 0.463397 0
303 1 0.0515059 0.343432 0
274 1 0.0702509 0.327256 0
304 1 0.0773127 0.350799 0
305 1 0.0942899 0.333545 0
306 1 0.101041 0.35732 0
307 1 0.118047 0.34039 0
278 1 0.13626 0.32396 0
309 1 0.142083 0.34758 0
311 1 0.160228 0.331511 0
310 1 0.165861 0.355016 0
312 1 0.183877 0.337732 0
313 1 0.201793 0.322309 0
314 1 0.208401 0.347017 0
315 1 0.224948 0.329868 0
343 1 0.18986 0.363048 0
345 1 0.23173 0.354899 0
317 1 0.265772 0.320091 0
316 1 0.248541 0.33757 0
318 1 0.271774 0.345147 0
347 1 0.254901 0.363385 0
319 1 0.290259 0.328449 0
349 1 0.293203 0.355938 0
320 1 0.317327 0.348958 0
321 1 0.326423 0.323587 0
323 1 0.350171 0.32238 0
322 1 0.341395 0.345238 0
353 1 0.358113 0.364059 0
324 1 0.36575 0.340521 0
325 1 0.389269 0.335328 0
355 1 0.381923 0.3587 0
326 1 0.407477 0.351089 0
327 1 0.411723 0.32593 0
328 1 0.430661 0.342926 0
359 1 0.447193 0.361414 0
300 1 0.483825 0.320149 0
329 1 0.454302 0.336729 0
1201 1 0.491465 0.343542 0
330 1 0.470592 0.35476 0
332 1 0.0397973 0.385153 0
361 1 0.0240053 0.403472 0
331 1 0.0152578 0.379237 0
333 1 0.0575475 0.366756 0
335 1 0.0826266 0.374649 0
334 1 0.0645962 0.390695 0
336 1 0.0884084 0.397792 0
363 1 0.0476727 0.409878 0
308 1 0.124241 0.363919 0
337 1 0.107353 0.380868 0
338 1 0.131316 0.387897 0
367 1 0.112585 0.404446 0
339 1 0.148315 0.371359 0
341 1 0.171454 0.37942 0
340 1 0.154907 0.396668 0
371 1 0.178494 0.407449 0
342 1 0.193799 0.388671 0
344 1 0.212163 0.371185 0
375 1 0.216566 0.395198 0
346 1 0.235314 0.378955 0
377 1 0.260027 0.387887 0
348 1 0.284471 0.381157 0
350 1 0.309687 0.375171 0
379 1 0.301732 0.398681 0
378 1 0.27721 0.405208 0
351 1 0.333636 0.37023 0
381 1 0.326269 0.393583 0
352 1 0.350635 0.387772 0
383 1 0.36824 0.405515 0
354 1 0.374984 0.382292 0
385 1 0.392609 0.398723 0
356 1 0.399775 0.375837 0
357 1 0.423246 0.369141 0
358 1 0.441102 0.385141 0
387 1 0.41664 0.392637 0
1231 1 0.491275 0.3697 0
360 1 0.467049 0.378706 0
389 1 0.458056 0.403572 0
1232 1 0.482274 0.398422 0
362 1 0.0309731 0.427532 0
393 1 0.038525 0.451767 0
392 1 0.0149236 0.446362 0
391 1 0.00734239 0.423086 0
364 1 0.0553033 0.433091 0
365 1 0.0721115 0.415906 0
395 1 0.0786988 0.43975 0
369 1 0.136252 0.411208 0
366 1 0.09574 0.421744 0
397 1 0.102252 0.446163 0
368 1 0.119435 0.428555 0
399 1 0.129242 0.453087 0
370 1 0.144591 0.434192 0
401 1 0.168628 0.435708 0
372 1 0.192935 0.441525 0
373 1 0.202788 0.417388 0
403 1 0.21716 0.439034 0
376 1 0.252456 0.411533 0
374 1 0.228419 0.416092 0
405 1 0.243683 0.435781 0
407 1 0.268762 0.429296 0
406 1 0.26201 0.453228 0
408 1 0.286701 0.44637 0
409 1 0.294287 0.422611 0
410 1 0.310444 0.441733 0
382 1 0.343304 0.411253 0
380 1 0.318842 0.417193 0
411 1 0.334686 0.435396 0
412 1 0.351571 0.453946 0
413 1 0.359834 0.429122 0
384 1 0.384314 0.423571 0
414 1 0.376796 0.447393 0
415 1 0.401554 0.440138 0
386 1 0.408593 0.416408 0
388 1 0.432425 0.409983 0
417 1 0.426135 0.433999 0
418 1 0.4437 0.450886 0
419 1 0.450408 0.426894 0
1261 1 0.475268 0.421235 0
390 1 0.467528 0.444684 0
1291 1 0.492139 0.439799 0
449 1 0.453298 0.492059 0
453 1 0.0295196 0.494024 0
422 1 0.0214756 0.470013 0
451 1 0.00556183 0.488706 0
423 1 0.0456306 0.475818 0
424 1 0.0530796 0.499543 0
394 1 0.0621293 0.457966 0
396 1 0.0865209 0.463953 0
425 1 0.0701501 0.481569 0
398 1 0.110784 0.469615 0
427 1 0.093953 0.486758 0
428 1 0.118473 0.492909 0
400 1 0.154853 0.456943 0
429 1 0.136662 0.475754 0
430 1 0.143127 0.498303 0
431 1 0.162071 0.480796 0
402 1 0.178444 0.462642 0
432 1 0.186475 0.486814 0
433 1 0.203131 0.468273 0
434 1 0.208998 0.495331 0
404 1 0.234209 0.458669 0
435 1 0.230166 0.48317 0
436 1 0.254187 0.477193 0
467 1 0.271714 0.49608 0
437 1 0.279304 0.471547 0
438 1 0.296139 0.490339 0
439 1 0.302734 0.465471 0
440 1 0.320301 0.483364 0
441 1 0.327277 0.458993 0
442 1 0.344798 0.478399 0
473 1 0.362161 0.495688 0
443 1 0.369046 0.471112 0
445 1 0.394034 0.464544 0
444 1 0.386729 0.487974 0
448 1 0.428554 0.499272 0
416 1 0.419063 0.458165 0
446 1 0.410827 0.482801 0
447 1 0.436649 0.475101 0
181 1 0.000485865 0.19288 0
17 1 0.275527 0.000427312 0
452 1 0.0123608 0.513091 0
483 1 0.019045 0.537097 0
454 1 0.0356761 0.518567 0
485 1 0.0413697 0.543132 0
455 1 0.0592308 0.524229 0
456 1 0.0844968 0.529577 0
426 1 0.0764578 0.505863 0
458 1 0.108139 0.533529 0
459 1 0.125202 0.515531 0
457 1 0.0998927 0.510689 0
489 1 0.131789 0.538526 0
460 1 0.149898 0.522295 0
491 1 0.157348 0.545277 0
462 1 0.174386 0.528796 0
461 1 0.168227 0.504899 0
463 1 0.192036 0.513267 0
493 1 0.198987 0.536576 0
464 1 0.218477 0.520596 0
466 1 0.242228 0.532148 0
497 1 0.264797 0.519958 0
465 1 0.247144 0.50301 0
468 1 0.288494 0.514378 0
499 1 0.303866 0.534725 0
498 1 0.280643 0.544835 0
469 1 0.31292 0.50981 0
470 1 0.329433 0.527669 0
472 1 0.354647 0.520698 0
501 1 0.346534 0.545786 0
471 1 0.336937 0.503434 0
503 1 0.372094 0.537078 0
474 1 0.379722 0.512935 0
475 1 0.403541 0.505959 0
476 1 0.397205 0.530878 0
477 1 0.422066 0.523165 0
478 1 0.447449 0.516923 0
507 1 0.439176 0.54084 0
480 1 0.464139 0.535191 0
479 1 0.470945 0.511075 0
1381 1 0.488378 0.528733 0
1351 1 0.495423 0.50416 0
482 1 0.0029757 0.555378 0
513 1 0.0259206 0.562138 0
512 1 0.0339874 0.585762 0
541 1 0.00922145 0.584839 0
486 1 0.0662032 0.548051 0
484 1 0.0499287 0.566451 0
514 1 0.0603359 0.590138 0
515 1 0.074947 0.57129 0
487 1 0.0902029 0.55319 0
488 1 0.113555 0.55651 0
517 1 0.0983482 0.577303 0
519 1 0.121478 0.578976 0
490 1 0.138312 0.562554 0
520 1 0.143508 0.586356 0
521 1 0.161506 0.57 0
492 1 0.179832 0.553365 0
495 1 0.222005 0.545195 0
523 1 0.184598 0.577897 0
494 1 0.202773 0.562077 0
524 1 0.206658 0.587766 0
525 1 0.224661 0.571049 0
496 1 0.245419 0.55689 0
526 1 0.24794 0.581218 0
527 1 0.269557 0.567437 0
529 1 0.299217 0.561546 0
530 1 0.312961 0.584723 0
500 1 0.321301 0.551367 0
531 1 0.337954 0.569868 0
533 1 0.359003 0.584688 0
502 1 0.366086 0.560905 0
505 1 0.390178 0.554203 0
504 1 0.384215 0.577408 0
535 1 0.408234 0.573703 0
506 1 0.415527 0.548283 0
508 1 0.432434 0.566969 0
539 1 0.45056 0.583684 0
537 1 0.427503 0.591592 0
509 1 0.456891 0.558841 0
510 1 0.481933 0.552665 0
540 1 0.474721 0.576729 0
1411 1 0.497843 0.571833 0
542 1 0.0182051 0.608002 0
571 1 0.00729079 0.630288 0
544 1 0.0350548 0.631473 0
543 1 0.0420646 0.609061 0
516 1 0.0839832 0.598492 0
545 1 0.06493 0.614401 0
546 1 0.0827479 0.629652 0
518 1 0.123419 0.601959 0
547 1 0.102467 0.614536 0
548 1 0.125776 0.625983 0
522 1 0.164836 0.595134 0
549 1 0.145969 0.609971 0
550 1 0.148208 0.634618 0
551 1 0.167728 0.619908 0
553 1 0.186715 0.603478 0
552 1 0.190158 0.628524 0
554 1 0.208993 0.612459 0
528 1 0.271077 0.591939 0
555 1 0.22875 0.597208 0
556 1 0.231527 0.622383 0
557 1 0.251494 0.607209 0
587 1 0.25421 0.631395 0
558 1 0.274368 0.61683 0
559 1 0.293985 0.600015 0
560 1 0.296368 0.625943 0
561 1 0.315998 0.609995 0
532 1 0.335404 0.59561 0
562 1 0.336449 0.623214 0
563 1 0.355984 0.609451 0
534 1 0.379241 0.600578 0
565 1 0.376631 0.624005 0
536 1 0.403658 0.597767 0
566 1 0.400259 0.624552 0
567 1 0.422611 0.615643 0
538 1 0.445254 0.6078 0
568 1 0.460494 0.626365 0
569 1 0.467854 0.600167 0
570 1 0.486155 0.619175 0
1441 1 0.492096 0.595439 0
573 1 0.0198908 0.651039 0
603 1 0.011475 0.673604 0
574 1 0.0434428 0.656505 0
604 1 0.0451568 0.680702 0
575 1 0.0610138 0.640548 0
605 1 0.0655326 0.667087 0
576 1 0.0856634 0.653425 0
607 1 0.0886495 0.678451 0
577 1 0.10509 0.639199 0
578 1 0.10863 0.664272 0
579 1 0.127577 0.650074 0
609 1 0.131388 0.674452 0
581 1 0.169672 0.644402 0
580 1 0.15035 0.658917 0
611 1 0.173056 0.668958 0
583 1 0.212434 0.637927 0
582 1 0.192104 0.654233 0
584 1 0.215253 0.663001 0
613 1 0.195902 0.678733 0
585 1 0.234492 0.647347 0
586 1 0.256734 0.656709 0
615 1 0.23704 0.671976 0
617 1 0.258962 0.68069 0
591 1 0.31721 0.637055 0
589 1 0.277273 0.64166 0
588 1 0.279843 0.667932 0
590 1 0.299014 0.652585 0
619 1 0.300681 0.681918 0
564 1 0.360051 0.639927 0
593 1 0.338071 0.648586 0
621 1 0.319508 0.665823 0
592 1 0.344556 0.672149 0
594 1 0.36751 0.662384 0
595 1 0.387399 0.647955 0
625 1 0.385716 0.679013 0
627 1 0.408032 0.669062 0
596 1 0.413094 0.645152 0
597 1 0.43661 0.636327 0
598 1 0.43141 0.661748 0
628 1 0.448921 0.678541 0
599 1 0.453833 0.653235 0
600 1 0.477345 0.644619 0
629 1 0.471871 0.670268 0
1501 1 0.495053 0.66229 0
602 1 0.00164393 0.694799 0
633 1 0.0253001 0.695546 0
634 1 0.0287833 0.720592 0
606 1 0.0677861 0.691758 0
635 1 0.048769 0.706444 0
636 1 0.0707275 0.717028 0
637 1 0.0910407 0.702693 0
608 1 0.111075 0.688246 0
638 1 0.114389 0.71231 0
639 1 0.13405 0.698807 0
640 1 0.136451 0.724128 0
610 1 0.15408 0.684364 0
641 1 0.156887 0.709172 0
612 1 0.175944 0.693968 0
642 1 0.179788 0.71798 0
614 1 0.218358 0.688183 0
643 1 0.198762 0.703 0
645 1 0.222257 0.712627 0
616 1 0.241913 0.697408 0
647 1 0.270419 0.715971 0
646 1 0.245772 0.722059 0
618 1 0.279197 0.692851 0
620 1 0.316338 0.701424 0
649 1 0.295218 0.71101 0
622 1 0.339513 0.69602 0
651 1 0.33433 0.720448 0
653 1 0.357399 0.712238 0
623 1 0.36293 0.688191 0
624 1 0.380775 0.70437 0
655 1 0.398954 0.721409 0
626 1 0.404055 0.695674 0
657 1 0.426273 0.685723 0
656 1 0.421847 0.712878 0
658 1 0.44407 0.703836 0
630 1 0.490354 0.687365 0
659 1 0.467683 0.695413 0
660 1 0.485261 0.713136 0
689 1 0.462658 0.721497 0
662 1 0.00481845 0.759051 0
663 1 0.00911273 0.73446 0
664 1 0.0308768 0.745414 0
694 1 0.0329518 0.770425 0
665 1 0.0514738 0.732176 0
666 1 0.0738888 0.741919 0
695 1 0.0529208 0.756082 0
697 1 0.0756045 0.766037 0
667 1 0.0943621 0.727181 0
669 1 0.116092 0.737301 0
668 1 0.0958774 0.752688 0
699 1 0.119208 0.762766 0
671 1 0.159769 0.733041 0
670 1 0.139416 0.748297 0
672 1 0.162741 0.758156 0
701 1 0.142328 0.772566 0
644 1 0.202991 0.726851 0
673 1 0.183358 0.742051 0
674 1 0.206624 0.751628 0
703 1 0.185237 0.767937 0
675 1 0.226777 0.737267 0
705 1 0.229958 0.765084 0
677 1 0.262592 0.739147 0
676 1 0.2554 0.762706 0
650 1 0.311571 0.728095 0
648 1 0.286876 0.733731 0
679 1 0.303515 0.75218 0
678 1 0.279712 0.757231 0
680 1 0.322436 0.768726 0
652 1 0.352396 0.737733 0
681 1 0.328772 0.745256 0
682 1 0.347403 0.76189 0
654 1 0.376267 0.729107 0
683 1 0.371366 0.753616 0
684 1 0.38878 0.770597 0
685 1 0.394409 0.746103 0
715 1 0.411932 0.762622 0
686 1 0.416953 0.737577 0
687 1 0.439652 0.729943 0
717 1 0.434404 0.754786 0
688 1 0.458272 0.746798 0
690 1 0.481331 0.737873 0
719 1 0.476741 0.763264 0
693 1 0.0143361 0.78639 0
692 1 0.0151438 0.810784 0
723 1 0.0359291 0.795601 0
696 1 0.055353 0.78034 0
725 1 0.0587037 0.805344 0
727 1 0.0780245 0.791022 0
726 1 0.0810131 0.816521 0
698 1 0.0994876 0.777326 0
728 1 0.101582 0.801427 0
700 1 0.12295 0.787475 0
729 1 0.124545 0.812966 0
731 1 0.145269 0.798601 0
732 1 0.17091 0.808122 0
702 1 0.165132 0.7844 0
704 1 0.207704 0.776027 0
733 1 0.198384 0.798706 0
735 1 0.224542 0.793647 0
734 1 0.216756 0.817279 0
706 1 0.249189 0.786607 0
736 1 0.242416 0.810899 0
737 1 0.266204 0.805781 0
707 1 0.273262 0.780957 0
709 1 0.297839 0.776385 0
708 1 0.289927 0.799791 0
710 1 0.316275 0.792897 0
739 1 0.309214 0.815708 0
711 1 0.340518 0.785784 0
712 1 0.358766 0.802858 0
741 1 0.334118 0.809828 0
713 1 0.366107 0.778482 0
714 1 0.406944 0.786963 0
743 1 0.38431 0.803747 0
745 1 0.409235 0.81097 0
716 1 0.431248 0.779912 0
747 1 0.450807 0.798465 0
746 1 0.433937 0.817532 0
718 1 0.454272 0.773188 0
720 1 0.489787 0.786971 0
749 1 0.474243 0.805978 0
1621 1 0.499304 0.812171 0
722 1 0.0381457 0.820509 0
751 1 0.0176278 0.834893 0
752 1 0.0201185 0.859629 0
753 1 0.0410741 0.844882 0
724 1 0.0606294 0.830841 0
755 1 0.0838261 0.840691 0
754 1 0.0643072 0.855355 0
756 1 0.106202 0.851966 0
757 1 0.103964 0.82651 0
759 1 0.12599 0.836934 0
758 1 0.128895 0.861795 0
730 1 0.148063 0.822727 0
760 1 0.149105 0.847907 0
761 1 0.169908 0.833979 0
791 1 0.17028 0.858648 0
763 1 0.192676 0.822619 0
762 1 0.190225 0.8468 0
764 1 0.213483 0.840366 0
795 1 0.229924 0.858529 0
767 1 0.261166 0.82959 0
765 1 0.236995 0.834402 0
766 1 0.253999 0.85319 0
738 1 0.284956 0.823266 0
768 1 0.27892 0.846834 0
769 1 0.303429 0.839905 0
799 1 0.296864 0.863587 0
770 1 0.322391 0.857041 0
740 1 0.327117 0.833394 0
771 1 0.348896 0.845848 0
742 1 0.366429 0.825403 0
744 1 0.392248 0.829491 0
773 1 0.375813 0.84823 0
774 1 0.399998 0.853805 0
775 1 0.416548 0.83599 0
777 1 0.440584 0.842467 0
776 1 0.424457 0.86046 0
748 1 0.457646 0.823462 0
750 1 0.48231 0.830062 0
779 1 0.465108 0.848693 0
780 1 0.48927 0.854066 0
783 1 0.0431944 0.869218 0
782 1 0.0227735 0.884138 0
813 1 0.0457935 0.89328 0
812 1 0.0238381 0.908488 0
868 1 0.461807 0.97786 0
785 1 0.086758 0.865659 0
784 1 0.0666436 0.879807 0
815 1 0.0682957 0.904652 0
786 1 0.0895158 0.890446 0
787 1 0.109302 0.876241 0
788 1 0.131897 0.886872 0
817 1 0.111645 0.901352 0
789 1 0.151046 0.872524 0
790 1 0.154077 0.896732 0
821 1 0.175661 0.907278 0
792 1 0.174887 0.882123 0
793 1 0.204573 0.86641 0
823 1 0.197998 0.891416 0
794 1 0.223737 0.882558 0
824 1 0.218828 0.906466 0
796 1 0.248068 0.876608 0
825 1 0.242003 0.899715 0
827 1 0.266951 0.894043 0
797 1 0.272446 0.870803 0
798 1 0.290004 0.887193 0
800 1 0.314142 0.881726 0
829 1 0.307631 0.904977 0
772 1 0.360083 0.867263 0
801 1 0.338204 0.876229 0
831 1 0.33256 0.899624 0
802 1 0.362433 0.89338 0
803 1 0.383391 0.872041 0
805 1 0.4064 0.878512 0
804 1 0.388783 0.895441 0
778 1 0.447826 0.866423 0
806 1 0.411856 0.903095 0
807 1 0.430614 0.884538 0
837 1 0.437492 0.907692 0
808 1 0.455168 0.890062 0
809 1 0.472218 0.871784 0
1681 1 0.497135 0.877331 0
810 1 0.479988 0.895431 0
842 1 0.0112156 0.95149 0
843 1 0.028518 0.933438 0
844 1 0.0510702 0.941964 0
814 1 0.0472893 0.917721 0
816 1 0.091882 0.914975 0
845 1 0.0713062 0.928978 0
846 1 0.0733047 0.953648 0
847 1 0.0934075 0.940415 0
819 1 0.133215 0.911335 0
818 1 0.11362 0.926518 0
848 1 0.114971 0.952226 0
849 1 0.136169 0.937417 0
820 1 0.155847 0.922379 0
850 1 0.159063 0.947906 0
851 1 0.178167 0.932895 0
822 1 0.197659 0.917621 0
853 1 0.203168 0.941705 0
854 1 0.225888 0.953005 0
855 1 0.23073 0.927773 0
826 1 0.259157 0.91777 0
856 1 0.252232 0.940967 0
828 1 0.283973 0.910647 0
857 1 0.27667 0.93404 0
858 1 0.29368 0.951541 0
859 1 0.301117 0.928598 0
860 1 0.31832 0.947043 0
832 1 0.351439 0.917042 0
830 1 0.324571 0.923475 0
861 1 0.342971 0.941496 0
863 1 0.366927 0.937648 0
833 1 0.376188 0.915844 0
834 1 0.393424 0.932989 0
865 1 0.407748 0.953711 0
835 1 0.420574 0.926676 0
838 1 0.446741 0.930529 0
836 1 0.431607 0.949444 0
867 1 0.454547 0.954313 0
839 1 0.463293 0.913572 0
1741 1 0.495532 0.942314 0
840 1 0.487886 0.918574 0
869 1 0.471055 0.936705 0
872 1 0.0207524 0.993035 0
873 1 0.0290749 0.968428 0
871 1 0.00477602 0.974884 0
874 1 0.0453011 0.988378 0
875 1 0.0523281 0.966011 0
876 1 0.0720819 0.980051 0
7 1 0.0876437 0.998255 0
877 1 0.0945684 0.968402 0
878 1 0.118853 0.977096 0
879 1 0.138574 0.962569 0
880 1 0.142321 0.986768 0
881 1 0.162102 0.972743 0
11 1 0.166078 0.997416 0
852 1 0.182776 0.95771 0
882 1 0.185759 0.98181 0
883 1 0.205177 0.96713 0
13 1 0.207987 0.992956 0
884 1 0.227451 0.978826 0
885 1 0.247424 0.965132 0
886 1 0.251644 0.989365 0
887 1 0.270253 0.957502 0
888 1 0.284508 0.976382 0
889 1 0.30932 0.970339 0
19 1 0.299765 0.995534 0
899 1 0.484482 0.984456 0
862 1 0.359373 0.961291 0
890 1 0.325524 0.988696 0
891 1 0.334783 0.964832 0
892 1 0.349694 0.983646 0
864 1 0.384434 0.957396 0
893 1 0.375483 0.980217 0
895 1 0.401077 0.977684 0
896 1 0.417261 0.996758 0
866 1 0.425937 0.973139 0
897 1 0.44189 0.993352 0
870 1 0.478351 0.960516 0
902 1 0.538419 0.0203785 0
931 1 0.520445 0.0380929 0
901 1 0.515203 0.0140213 0
933 1 0.54449 0.0446657 0
904 1 0.562981 0.025715 0
935 1 0.586722 0.0323683 0
906 1 0.581049 0.00861301 0
905 1 0.557194 0.00262498 0
908 1 0.605266 0.0148454 0
937 1 0.610107 0.0388938 0
939 1 0.628967 0.0214827 0
941 1 0.652398 0.0291435 0
912 1 0.671423 0.0112812 0
942 1 0.67654 0.0348922 0
910 1 0.647525 0.00441997 0
943 1 0.702311 0.0168563 0
944 1 0.703673 0.0419952 0
945 1 0.726613 0.0310996 0
914 1 0.734878 0.00710606 0
947 1 0.753563 0.0240689 0
948 1 0.77447 0.04069 0
918 1 0.776642 0.0155202 0
919 1 0.799317 0.00791376 0
949 1 0.797681 0.0337085 0
920 1 0.820153 0.0239229 0
951 1 0.839772 0.0386928 0
922 1 0.843475 0.015006 0
953 1 0.865609 0.0259828 0
924 1 0.881894 0.00574878 0
955 1 0.900928 0.0205128 0
954 1 0.886103 0.0393481 0
926 1 0.925038 0.0157007 0
928 1 0.948469 0.00974826 0
957 1 0.941775 0.0336422 0
956 1 0.916484 0.0387109 0
930 1 0.989489 0.0218428 0
959 1 0.964963 0.0270623 0
929 1 0.972899 0.0038362 0
960 1 0.981742 0.0458415 0
932 1 0.526989 0.0621985 0
962 1 0.535168 0.086408 0
961 1 0.510722 0.0801473 0
60 1 0.503358 0.0559945 0
963 1 0.551873 0.0689169 0
934 1 0.568514 0.0508974 0
965 1 0.575453 0.0750116 0
938 1 0.633357 0.0462964 0
936 1 0.592286 0.0564498 0
966 1 0.598256 0.0818904 0
967 1 0.615262 0.0639276 0
968 1 0.621991 0.0877862 0
940 1 0.658259 0.0534645 0
969 1 0.638951 0.0696485 0
970 1 0.662378 0.077321 0
971 1 0.682434 0.0578106 0
972 1 0.685255 0.0820574 0
973 1 0.705791 0.0668392 0
974 1 0.726375 0.0806369 0
975 1 0.727358 0.0556567 0
946 1 0.750818 0.0482613 0
976 1 0.749049 0.0735293 0
977 1 0.770962 0.0657076 0
1007 1 0.768031 0.0905113 0
950 1 0.817773 0.0488825 0
979 1 0.794823 0.0580901 0
980 1 0.815147 0.0753683 0
978 1 0.79098 0.0820059 0
981 1 0.83823 0.0636092 0
952 1 0.860605 0.0502384 0
982 1 0.859471 0.0757583 0
1011 1 0.839113 0.0928236 0
983 1 0.881583 0.0626631 0
985 1 0.906659 0.0623852 0
984 1 0.884768 0.0859251 0
986 1 0.924778 0.077795 0
987 1 0.933428 0.0554761 0
988 1 0.94877 0.074577 0
958 1 0.958064 0.0508258 0
989 1 0.973772 0.0690984 0
990 1 0.990387 0.0876587 0
61 1 0.998278 0.0641561 0
991 1 0.517487 0.103746 0
992 1 0.52383 0.129299 0
993 1 0.540723 0.111413 0
120 1 0.500642 0.122826 0
964 1 0.558246 0.0936299 0
1023 1 0.547091 0.135861 0
994 1 0.564425 0.118215 0
995 1 0.581712 0.100187 0
996 1 0.587823 0.124384 0
997 1 0.604725 0.105379 0
998 1 0.629239 0.112988 0
1027 1 0.611405 0.131127 0
999 1 0.645845 0.0945801 0
1000 1 0.652787 0.118481 0
1001 1 0.670747 0.101994 0
1031 1 0.675631 0.12618 0
1003 1 0.705934 0.0915891 0
1002 1 0.693721 0.111413 0
1004 1 0.71924 0.111117 0
1033 1 0.70737 0.13251 0
1005 1 0.743637 0.098174 0
1006 1 0.763151 0.114921 0
1035 1 0.739874 0.12298 0
1037 1 0.780037 0.13328 0
1008 1 0.786508 0.107452 0
1009 1 0.810342 0.100199 0
1039 1 0.802661 0.125957 0
1010 1 0.826469 0.11936 0
1012 1 0.850718 0.117567 0
1013 1 0.864954 0.0991418 0
1043 1 0.87083 0.131722 0
1014 1 0.887817 0.110787 0
1015 1 0.906858 0.0935493 0
1045 1 0.895758 0.133972 0
1016 1 0.912258 0.116953 0
1017 1 0.930669 0.100733 0
1018 1 0.95232 0.111417 0
1047 1 0.927546 0.13566 0
1049 1 0.952236 0.13541 0
1019 1 0.966192 0.0917338 0
1020 1 0.98233 0.110102 0
1050 1 0.975886 0.133086 0
1022 1 0.530654 0.153393 0
1053 1 0.537456 0.177917 0
1051 1 0.513436 0.170903 0
1021 1 0.507165 0.147325 0
1024 1 0.553668 0.159943 0
1025 1 0.570322 0.142268 0
1055 1 0.577944 0.166422 0
1026 1 0.594658 0.14792 0
1028 1 0.619263 0.154317 0
1057 1 0.602271 0.17185 0
1058 1 0.626555 0.178489 0
1029 1 0.636191 0.13651 0
1059 1 0.643032 0.161096 0
1030 1 0.659606 0.143918 0
1061 1 0.667487 0.167736 0
1032 1 0.685369 0.149175 0
1063 1 0.708892 0.157509 0
1064 1 0.716337 0.181149 0
1062 1 0.690876 0.174124 0
1034 1 0.729801 0.144698 0
1036 1 0.756161 0.140111 0
1065 1 0.746803 0.162978 0
1067 1 0.772732 0.157097 0
1066 1 0.764124 0.180316 0
1038 1 0.797696 0.150693 0
1069 1 0.813929 0.169394 0
1068 1 0.790263 0.174176 0
1040 1 0.821792 0.144498 0
1041 1 0.846401 0.14085 0
1071 1 0.838261 0.163752 0
1042 1 0.865631 0.157084 0
1044 1 0.89184 0.158374 0
1075 1 0.90756 0.17897 0
1073 1 0.879136 0.178569 0
1046 1 0.917017 0.157493 0
1048 1 0.942041 0.156818 0
1077 1 0.93318 0.179625 0
1078 1 0.958831 0.178163 0
1079 1 0.967099 0.155533 0
1080 1 0.98269 0.175182 0
151 1 0.991229 0.152429 0
1052 1 0.519749 0.195438 0
1082 1 0.526163 0.219373 0
1081 1 0.502706 0.212595 0
1083 1 0.543943 0.20096 0
1054 1 0.560967 0.183691 0
1084 1 0.550791 0.225495 0
1056 1 0.585038 0.189963 0
1085 1 0.567722 0.207824 0
1086 1 0.591812 0.213836 0
1087 1 0.608421 0.195496 0
1088 1 0.614795 0.220543 0
1089 1 0.632612 0.202892 0
1060 1 0.6501 0.185252 0
1091 1 0.674212 0.192242 0
1090 1 0.657119 0.20922 0
1092 1 0.68062 0.215707 0
1093 1 0.698633 0.198401 0
1094 1 0.722894 0.204731 0
1123 1 0.703987 0.221625 0
1095 1 0.74044 0.187223 0
1096 1 0.746246 0.211979 0
1127 1 0.770719 0.219999 0
1097 1 0.782224 0.197297 0
1099 1 0.806081 0.193105 0
1098 1 0.796267 0.216717 0
1100 1 0.821274 0.212768 0
1072 1 0.854699 0.181789 0
1070 1 0.829995 0.187907 0
1101 1 0.845501 0.206853 0
1102 1 0.859059 0.227317 0
1103 1 0.86909 0.202525 0
1074 1 0.893801 0.198991 0
1105 1 0.906224 0.218623 0
1104 1 0.882322 0.222864 0
1076 1 0.921473 0.199923 0
1107 1 0.951898 0.202863 0
1349 1 0.972911 0.459942 0
1109 1 0.975909 0.198598 0
1110 1 0.969237 0.221456 0
211 1 0.993669 0.21591 0
1111 1 0.508902 0.236528 0
1113 1 0.533619 0.24317 0
1112 1 0.514885 0.260129 0
1143 1 0.53822 0.266993 0
1114 1 0.556562 0.249584 0
1115 1 0.574194 0.231529 0
1116 1 0.579888 0.25557 0
1117 1 0.59752 0.23757 0
1118 1 0.621119 0.244853 0
1147 1 0.603533 0.262385 0
1149 1 0.627637 0.269358 0
1119 1 0.639193 0.226649 0
1121 1 0.662941 0.233019 0
1120 1 0.645443 0.250446 0
1151 1 0.669274 0.257388 0
1122 1 0.68692 0.239692 0
1124 1 0.71083 0.245505 0
1153 1 0.693411 0.263699 0
1154 1 0.716654 0.270763 0
1125 1 0.72869 0.228443 0
1126 1 0.752475 0.236104 0
1155 1 0.734231 0.252767 0
1157 1 0.757168 0.259948 0
1128 1 0.786647 0.240401 0
1129 1 0.811728 0.236791 0
1159 1 0.80334 0.260711 0
1158 1 0.780082 0.264843 0
1131 1 0.835645 0.232078 0
1130 1 0.826768 0.256337 0
1132 1 0.850898 0.252051 0
1133 1 0.874169 0.246482 0
1135 1 0.897968 0.2421 0
1163 1 0.866225 0.271777 0
1134 1 0.889565 0.265236 0
1108 1 0.945592 0.226622 0
1106 1 0.923536 0.235774 0
1136 1 0.91497 0.260045 0