ITEM: TIMESTEP
8000
ITEM: NUMBER OF ATOMS
1800
ITEM: BOX BOUNDS pp pp pp
-7.3619143301712597e-02 1.6507361914330170e+02
-7.3619143301712597e-02 1.6507361914330170e+02
0.0000000000000000e+00 5.5000000000000000e+00
ITEM: ATOMS id type xs ys zs
2 1 0.0156265 0.0144127 0
3 1 0.0401289 0.00934849 0
33 1 0.0330242 0.0328149 0
31 1 0.00864734 0.0392406 0
4 1 0.0564973 0.0272851 0
35 1 0.0742051 0.0457397 0
6 1 0.0795801 0.021846 0
5 1 0.0627381 0.0033983 0
8 1 0.10238 0.0154945 0
37 1 0.098047 0.0394283 0
9 1 0.124582 0.00904324 0
39 1 0.121379 0.0329562 0
10 1 0.14555 0.020457 0
11 1 0.163378 0.00283593 0
41 1 0.168366 0.0283345 0
12 1 0.186496 0.0123693 0
43 1 0.194042 0.0374777 0
14 1 0.210256 0.0200808 0
15 1 0.223482 -0.000165139 0
45 1 0.233592 0.0219755 0
16 1 0.256329 0.0142543 0
46 1 0.250049 0.0391804 0
47 1 0.273306 0.0348536 0
18 1 0.280362 0.0116848 0
20 1 0.315861 0.0142459 0
49 1 0.296815 0.0292827 0
51 1 0.333524 0.0321068 0
22 1 0.358823 0.0249066 0
21 1 0.339954 0.00650362 0
53 1 0.377021 0.0417076 0
24 1 0.380763 0.0153346 0
55 1 0.399303 0.0322855 0
25 1 0.404875 0.00786461 0
26 1 0.42502 0.0236734 0
28 1 0.449817 0.0182824 0
57 1 0.442888 0.041983 0
27 1 0.428762 -0.000533932 0
29 1 0.472786 0.00868504 0
30 1 0.494214 0.021851 0
59 1 0.470931 0.0334857 0
60 1 0.495271 0.0454455 0
32 1 0.0260717 0.0570938 0
63 1 0.0423192 0.0764525 0
62 1 0.018716 0.0816615 0
61 1 0.0020763 0.0629716 0
34 1 0.0503236 0.0509612 0
36 1 0.0907642 0.0639687 0
65 1 0.0663563 0.0702012 0
66 1 0.0829109 0.0880522 0
38 1 0.114051 0.0562793 0
67 1 0.106649 0.0819177 0
69 1 0.129956 0.0750138 0
40 1 0.142198 0.0449088 0
71 1 0.154567 0.0688169 0
42 1 0.175297 0.0529216 0
72 1 0.178709 0.0769254 0
44 1 0.218639 0.0473619 0
73 1 0.198546 0.0622521 0
74 1 0.22081 0.0718962 0
103 1 0.201961 0.0860763 0
75 1 0.241119 0.0609806 0
77 1 0.265419 0.0589215 0
76 1 0.243045 0.0856927 0
50 1 0.314727 0.04628 0
48 1 0.289797 0.052902 0
78 1 0.282402 0.0764905 0
79 1 0.306428 0.0701266 0
81 1 0.331383 0.0633631 0
52 1 0.352563 0.0510424 0
82 1 0.351911 0.0774604 0
80 1 0.324221 0.0881888 0
83 1 0.375168 0.0669119 0
54 1 0.397263 0.0566024 0
84 1 0.395596 0.0821093 0
113 1 0.372786 0.0915232 0
56 1 0.4192 0.047467 0
85 1 0.418152 0.0710647 0
87 1 0.443682 0.0715326 0
88 1 0.465642 0.0832757 0
58 1 0.46323 0.0562105 0
89 1 0.484564 0.0673719 0
92 1 0.0249785 0.124041 0
93 1 0.0344947 0.101261 0
91 1 0.00875033 0.106439 0
64 1 0.0584439 0.0944933 0
94 1 0.0511373 0.118514 0
95 1 0.0750638 0.111594 0
125 1 0.0670308 0.135484 0
96 1 0.0915339 0.129742 0
68 1 0.123136 0.099811 0
97 1 0.098511 0.106146 0
98 1 0.115388 0.12403 0
99 1 0.139085 0.118361 0
70 1 0.14647 0.092877 0
100 1 0.161601 0.11223 0
101 1 0.182405 0.101027 0
131 1 0.180462 0.125549 0
130 1 0.155936 0.135275 0
102 1 0.202183 0.113255 0
104 1 0.222539 0.124574 0
105 1 0.222085 0.09843 0
106 1 0.243669 0.110122 0
107 1 0.267005 0.0974586 0
137 1 0.265195 0.121587 0
108 1 0.289797 0.117974 0
109 1 0.300382 0.0952519 0
110 1 0.317419 0.113677 0
139 1 0.305875 0.136262 0
111 1 0.343425 0.103827 0
141 1 0.346833 0.128982 0
112 1 0.366656 0.114093 0
114 1 0.389649 0.122905 0
115 1 0.408652 0.105935 0
86 1 0.427782 0.0925678 0
145 1 0.413011 0.131811 0
116 1 0.430842 0.116996 0
117 1 0.449525 0.10154 0
118 1 0.453847 0.126034 0
90 1 0.489205 0.093288 0
119 1 0.471965 0.109478 0
120 1 0.494779 0.118468 0
149 1 0.477409 0.134539 0
123 1 0.042501 0.141388 0
122 1 0.0154189 0.149269 0
153 1 0.0341208 0.163917 0
152 1 0.00466509 0.173202 0
124 1 0.0591122 0.158222 0
126 1 0.0841882 0.153047 0
155 1 0.0752677 0.175869 0
154 1 0.0503698 0.181788 0
129 1 0.13262 0.14316 0
127 1 0.108136 0.148016 0
128 1 0.126464 0.166281 0
157 1 0.100396 0.171375 0
159 1 0.150296 0.158569 0
132 1 0.175428 0.149591 0
161 1 0.168538 0.174147 0
133 1 0.201802 0.138583 0
163 1 0.201476 0.166042 0
134 1 0.222646 0.150682 0
164 1 0.226611 0.177778 0
135 1 0.244253 0.134953 0
136 1 0.265981 0.14527 0
165 1 0.245414 0.159855 0
167 1 0.269753 0.168907 0
138 1 0.287873 0.153121 0
169 1 0.310046 0.161225 0
168 1 0.293124 0.177134 0
140 1 0.327985 0.145087 0
142 1 0.351112 0.153714 0
171 1 0.332607 0.1699 0
172 1 0.356572 0.177214 0
143 1 0.370434 0.137948 0
173 1 0.375699 0.16163 0
144 1 0.394136 0.147111 0
175 1 0.398619 0.171988 0
146 1 0.416489 0.156407 0
147 1 0.435787 0.14175 0
177 1 0.4404 0.165467 0
148 1 0.459262 0.15044 0
1021 1 0.4997 0.144175 0
150 1 0.481826 0.160175 0
179 1 0.463582 0.176708 0
183 1 0.0253466 0.186647 0
182 1 0.0193813 0.211066 0
184 1 0.0423806 0.205916 0
185 1 0.0667982 0.198508 0
156 1 0.091393 0.193569 0
186 1 0.0836606 0.216471 0
215 1 0.0604228 0.221888 0
158 1 0.117288 0.189435 0
187 1 0.107273 0.210902 0
189 1 0.136878 0.205714 0
188 1 0.124961 0.226531 0
160 1 0.14609 0.183051 0
191 1 0.163693 0.19964 0
190 1 0.155163 0.222734 0
162 1 0.186802 0.188451 0
193 1 0.20959 0.196138 0
192 1 0.191391 0.213529 0
194 1 0.217095 0.221842 0
195 1 0.232704 0.203408 0
166 1 0.249618 0.183862 0
196 1 0.255867 0.210168 0
197 1 0.274074 0.194012 0
170 1 0.315136 0.186942 0
199 1 0.296946 0.202733 0
198 1 0.278838 0.218967 0
201 1 0.338813 0.19346 0
203 1 0.362153 0.202031 0
200 1 0.320676 0.21043 0
202 1 0.344031 0.218257 0
174 1 0.379999 0.186049 0
205 1 0.405194 0.197716 0
233 1 0.366833 0.22534 0
204 1 0.384553 0.208995 0
176 1 0.423234 0.182046 0
178 1 0.446987 0.19474 0
207 1 0.428658 0.211837 0
208 1 0.453268 0.218747 0
180 1 0.489206 0.185167 0
209 1 0.471885 0.20211 0
210 1 0.47821 0.2259 0
1081 1 0.495844 0.210179 0
212 1 0.00928552 0.242626 0
213 1 0.035768 0.228429 0
243 1 0.0301099 0.252771 0
241 1 0.0042383 0.267079 0
216 1 0.0782988 0.238841 0
214 1 0.0538824 0.244622 0
245 1 0.0716289 0.262032 0
244 1 0.0485977 0.268363 0
217 1 0.10136 0.234993 0
218 1 0.119097 0.252536 0
247 1 0.0958366 0.25843 0
219 1 0.140662 0.242764 0
249 1 0.142119 0.267915 0
221 1 0.177011 0.233406 0
220 1 0.161386 0.251841 0
222 1 0.184167 0.258147 0
223 1 0.200558 0.239591 0
224 1 0.223306 0.246441 0
253 1 0.207622 0.265384 0
255 1 0.231 0.273255 0
225 1 0.241027 0.229867 0
227 1 0.263343 0.237585 0
226 1 0.246969 0.254749 0
257 1 0.268719 0.262944 0
229 1 0.301795 0.226695 0
228 1 0.285756 0.245027 0
230 1 0.308741 0.250486 0
259 1 0.292613 0.268441 0
231 1 0.326237 0.233538 0
232 1 0.350314 0.242096 0
261 1 0.332247 0.256889 0
263 1 0.356563 0.26596 0
235 1 0.390086 0.231996 0
234 1 0.373975 0.2495 0
265 1 0.397352 0.254375 0
206 1 0.413822 0.232972 0
237 1 0.437411 0.237589 0
236 1 0.42143 0.257251 0
238 1 0.445962 0.261111 0
239 1 0.460868 0.243503 0
240 1 0.485497 0.24957 0
269 1 0.470111 0.268768 0
242 1 0.0258153 0.27689 0
271 1 0.0122396 0.298127 0
272 1 0.0297794 0.314178 0
273 1 0.043216 0.293192 0
246 1 0.0885566 0.281433 0
275 1 0.0655634 0.284808 0
276 1 0.0807338 0.303968 0
248 1 0.112085 0.276047 0
277 1 0.104261 0.300421 0
279 1 0.127835 0.295646 0
251 1 0.167961 0.275133 0
250 1 0.150127 0.290496 0
280 1 0.145753 0.314738 0
281 1 0.171414 0.299585 0
252 1 0.190702 0.283393 0
254 1 0.213747 0.29024 0
283 1 0.195269 0.306709 0
284 1 0.217932 0.314281 0
256 1 0.252818 0.281132 0
285 1 0.235975 0.297699 0
287 1 0.259885 0.304143 0
258 1 0.276217 0.286798 0
260 1 0.315488 0.274447 0
288 1 0.282947 0.310199 0
289 1 0.299521 0.292649 0
262 1 0.338037 0.279894 0
291 1 0.321641 0.298723 0
292 1 0.345947 0.302688 0
264 1 0.382376 0.273379 0
293 1 0.368304 0.294522 0
295 1 0.392822 0.296147 0
266 1 0.406705 0.276792 0
296 1 0.404178 0.316285 0
267 1 0.430365 0.278751 0
297 1 0.418586 0.298696 0
268 1 0.452894 0.286167 0
298 1 0.436193 0.31502 0
1141 1 0.494126 0.275388 0
270 1 0.476623 0.292526 0
299 1 0.459292 0.309927 0
300 1 0.483044 0.315743 0
301 1 0.0132738 0.331515 0
302 1 0.020768 0.355684 0
303 1 0.0372744 0.337655 0
333 1 0.0431963 0.36286 0
274 1 0.0527895 0.318526 0
305 1 0.0747111 0.326463 0
304 1 0.0594798 0.344998 0
306 1 0.0856421 0.347722 0
278 1 0.120851 0.318763 0
307 1 0.0976524 0.325442 0
308 1 0.111316 0.347396 0
339 1 0.134679 0.363125 0
309 1 0.134025 0.339037 0
311 1 0.157603 0.336543 0
310 1 0.158245 0.360002 0
312 1 0.181009 0.34719 0
282 1 0.177079 0.322599 0
313 1 0.199971 0.330945 0
314 1 0.203923 0.356074 0
315 1 0.223819 0.339879 0
286 1 0.242371 0.321232 0
317 1 0.265993 0.327911 0
316 1 0.247842 0.344324 0
290 1 0.307166 0.317343 0
318 1 0.273682 0.351728 0
319 1 0.28877 0.332849 0
349 1 0.297493 0.354401 0
321 1 0.332299 0.323516 0
320 1 0.322621 0.348514 0
322 1 0.346788 0.345543 0
323 1 0.357249 0.323533 0
294 1 0.37998 0.317695 0
324 1 0.371572 0.343407 0
325 1 0.395205 0.338504 0
355 1 0.387004 0.361364 0
326 1 0.410966 0.355907 0
327 1 0.420684 0.334068 0
328 1 0.443786 0.341224 0
329 1 0.466544 0.333245 0
1201 1 0.489385 0.340049 0
330 1 0.472711 0.357691 0
331 1 0.00221471 0.371887 0
332 1 0.025622 0.379825 0
363 1 0.0348469 0.404049 0
361 1 0.009061 0.397025 0
335 1 0.0685441 0.367286 0
334 1 0.0508206 0.385953 0
336 1 0.0750722 0.390018 0
365 1 0.0595573 0.408879 0
337 1 0.0929854 0.370489 0
338 1 0.116933 0.378936 0
367 1 0.0985136 0.39489 0
369 1 0.120084 0.40345 0
341 1 0.163636 0.38336 0
340 1 0.140152 0.389113 0
371 1 0.163282 0.407093 0
343 1 0.184562 0.371167 0
342 1 0.185117 0.3959 0
344 1 0.207727 0.383427 0
375 1 0.224707 0.400369 0
345 1 0.229299 0.363422 0
347 1 0.255199 0.366076 0
346 1 0.242545 0.38539 0
377 1 0.266853 0.38663 0
348 1 0.289566 0.378392 0
350 1 0.313083 0.37252 0
379 1 0.3057 0.397363 0
378 1 0.282303 0.404295 0
351 1 0.337858 0.368022 0
353 1 0.362188 0.364841 0
381 1 0.329062 0.392257 0
352 1 0.353915 0.387865 0
383 1 0.370466 0.406152 0
354 1 0.379289 0.383683 0
385 1 0.39637 0.401382 0
356 1 0.403393 0.379105 0
357 1 0.427524 0.372544 0
358 1 0.446231 0.388701 0
387 1 0.422422 0.396132 0
359 1 0.450623 0.365198 0
1231 1 0.495517 0.363583 0
1261 1 0.489142 0.407842 0
360 1 0.478572 0.38299 0
389 1 0.464176 0.405275 0
362 1 0.0200725 0.422372 0
393 1 0.0278769 0.445011 0
392 1 0.00362122 0.450553 0
364 1 0.0446834 0.427475 0
366 1 0.0840186 0.413803 0
394 1 0.0533641 0.451158 0
395 1 0.0691825 0.433151 0
368 1 0.115709 0.42737 0
397 1 0.0943145 0.437747 0
398 1 0.113489 0.451936 0
399 1 0.135951 0.441244 0
370 1 0.140143 0.417172 0
400 1 0.15502 0.454907 0
401 1 0.160626 0.431353 0
402 1 0.180184 0.447598 0
372 1 0.182785 0.422569 0
373 1 0.203587 0.411415 0
403 1 0.203444 0.435655 0
374 1 0.226141 0.423933 0
404 1 0.224562 0.447972 0
376 1 0.248103 0.410646 0
405 1 0.246926 0.436068 0
407 1 0.270605 0.426513 0
406 1 0.265942 0.452712 0
408 1 0.289625 0.445245 0
409 1 0.297018 0.422464 0
410 1 0.315108 0.438919 0
382 1 0.346229 0.410514 0
380 1 0.322824 0.416044 0
411 1 0.339311 0.434319 0
412 1 0.357113 0.451487 0
413 1 0.363378 0.429355 0
384 1 0.388074 0.42324 0
414 1 0.381517 0.446221 0
415 1 0.405299 0.44122 0
386 1 0.414043 0.418224 0
388 1 0.440238 0.413294 0
417 1 0.431479 0.435567 0
418 1 0.448609 0.453446 0
390 1 0.481857 0.430642 0
419 1 0.45705 0.431 0
420 1 0.473261 0.453047 0
422 1 0.0130665 0.47384 0
423 1 0.0364156 0.467761 0
453 1 0.0192327 0.49656 0
424 1 0.0444925 0.490755 0
396 1 0.0795111 0.456635 0
425 1 0.0612056 0.473736 0
426 1 0.0803676 0.487731 0
427 1 0.0998547 0.471574 0
428 1 0.118938 0.487137 0
429 1 0.134064 0.467345 0
430 1 0.146412 0.488504 0
431 1 0.168464 0.474094 0
461 1 0.172988 0.497443 0
432 1 0.191408 0.479912 0
433 1 0.203795 0.45935 0
434 1 0.217394 0.481894 0
465 1 0.24121 0.490418 0
435 1 0.23969 0.466409 0
436 1 0.261314 0.476996 0
467 1 0.277858 0.495034 0
437 1 0.284584 0.470722 0
438 1 0.301651 0.487347 0
439 1 0.307809 0.463164 0
471 1 0.341752 0.49719 0
440 1 0.325383 0.480573 0
441 1 0.332022 0.456966 0
442 1 0.348409 0.474764 0
473 1 0.365331 0.493522 0
443 1 0.372968 0.468779 0
445 1 0.39789 0.464714 0
444 1 0.389453 0.486953 0
448 1 0.449754 0.494962 0
416 1 0.422282 0.457765 0
446 1 0.41466 0.482322 0
447 1 0.437954 0.474929 0
449 1 0.463971 0.47574 0
1321 1 0.497898 0.455678 0
479 1 0.474012 0.498108 0
450 1 0.4891 0.478478 0
452 1 0.0170645 0.520451 0
483 1 0.0345392 0.538558 0
454 1 0.0394553 0.513819 0
485 1 0.0576074 0.530071 0
455 1 0.0636929 0.506122 0
456 1 0.0835437 0.522599 0
458 1 0.11429 0.526292 0
487 1 0.0991114 0.544952 0
459 1 0.130688 0.508879 0
457 1 0.100756 0.504523 0
489 1 0.138459 0.532207 0
460 1 0.154855 0.513216 0
491 1 0.16351 0.538087 0
462 1 0.180797 0.519624 0
463 1 0.198833 0.50185 0
493 1 0.205788 0.524311 0
464 1 0.224286 0.507315 0
492 1 0.187004 0.542847 0
495 1 0.230017 0.530812 0
466 1 0.24891 0.514232 0
497 1 0.272278 0.522883 0
496 1 0.253016 0.539062 0
468 1 0.295777 0.51217 0
499 1 0.314973 0.530511 0
498 1 0.291027 0.538346 0
469 1 0.318234 0.504064 0
470 1 0.336828 0.520425 0
501 1 0.340025 0.543655 0
472 1 0.359863 0.520885 0
503 1 0.379934 0.535308 0
474 1 0.382487 0.511353 0
475 1 0.406123 0.506476 0
476 1 0.415576 0.528706 0
507 1 0.439111 0.534069 0
477 1 0.430856 0.509308 0
478 1 0.455742 0.517171 0
480 1 0.47857 0.522591 0
509 1 0.463578 0.540331 0
510 1 0.48886 0.544502 0
482 1 0.0111075 0.546013 0
512 1 0.024777 0.589857 0
513 1 0.0288715 0.563878 0
484 1 0.0521497 0.554867 0
486 1 0.0755331 0.545792 0
514 1 0.0477765 0.57947 0
515 1 0.0710412 0.569891 0
516 1 0.090114 0.588352 0
488 1 0.123181 0.550805 0
517 1 0.106398 0.569163 0
519 1 0.129607 0.575456 0
490 1 0.146166 0.55637 0
520 1 0.153526 0.580782 0
521 1 0.16992 0.562585 0
522 1 0.176542 0.586161 0
523 1 0.193657 0.565692 0
494 1 0.211697 0.547572 0
524 1 0.216602 0.571507 0
553 1 0.200068 0.589379 0
525 1 0.234804 0.555837 0
526 1 0.254202 0.570223 0
527 1 0.272639 0.55347 0
555 1 0.233192 0.588363 0
529 1 0.29585 0.562898 0
528 1 0.277047 0.57764 0
559 1 0.298414 0.5881 0
500 1 0.3186 0.555053 0
530 1 0.321261 0.580554 0
531 1 0.34182 0.567382 0
502 1 0.361735 0.552686 0
532 1 0.344759 0.591511 0
505 1 0.40158 0.547239 0
533 1 0.365625 0.577626 0
504 1 0.384599 0.563131 0
535 1 0.40803 0.571154 0
534 1 0.389092 0.586442 0
506 1 0.424385 0.553949 0
508 1 0.447221 0.558836 0
537 1 0.431463 0.578 0
538 1 0.456171 0.582918 0
539 1 0.470105 0.562554 0
540 1 0.488172 0.576565 0
541 1 0.00497058 0.605439 0
542 1 0.0263535 0.619045 0
543 1 0.0455545 0.604432 0
571 1 0.00575672 0.630551 0
544 1 0.0490012 0.630096 0
545 1 0.0669857 0.593705 0
546 1 0.070343 0.617393 0
518 1 0.112847 0.592878 0
547 1 0.0966927 0.612587 0
548 1 0.121388 0.616123 0
549 1 0.137236 0.598598 0
550 1 0.144391 0.623663 0
551 1 0.161055 0.6048 0
581 1 0.167753 0.627601 0
552 1 0.188653 0.611797 0
554 1 0.216095 0.606807 0
583 1 0.208898 0.629111 0
556 1 0.239519 0.611456 0
557 1 0.256865 0.594472 0
587 1 0.261329 0.619338 0
585 1 0.232398 0.634562 0
558 1 0.279322 0.60286 0
560 1 0.301267 0.612035 0
589 1 0.283259 0.628181 0
590 1 0.307663 0.636048 0
561 1 0.324491 0.604606 0
562 1 0.347684 0.615375 0
591 1 0.332269 0.636061 0
593 1 0.35694 0.637121 0
563 1 0.369436 0.601663 0
564 1 0.376732 0.623806 0
565 1 0.395117 0.608843 0
595 1 0.398746 0.635556 0
536 1 0.413291 0.594415 0
566 1 0.417531 0.618812 0
567 1 0.435852 0.602359 0
597 1 0.439925 0.626834 0
568 1 0.45904 0.611796 0
569 1 0.476342 0.596394 0
570 1 0.489723 0.618689 0
1441 1 0.500369 0.596515 0
599 1 0.462596 0.635802 0
573 1 0.0278576 0.644127 0
572 1 0.00660165 0.655252 0
603 1 0.0324234 0.668584 0
602 1 0.010038 0.679486 0
575 1 0.0726446 0.641767 0
574 1 0.0517535 0.653903 0
605 1 0.0726689 0.665625 0
604 1 0.0528826 0.679551 0
577 1 0.110246 0.637265 0
576 1 0.0925333 0.652606 0
578 1 0.114256 0.662123 0
579 1 0.133286 0.646361 0
607 1 0.0941974 0.676653 0
609 1 0.13641 0.670402 0
580 1 0.156695 0.651002 0
611 1 0.177666 0.662836 0
610 1 0.158905 0.677467 0
582 1 0.188252 0.640982 0
584 1 0.216523 0.652137 0
613 1 0.200538 0.670628 0
614 1 0.223619 0.679152 0
586 1 0.25586 0.641848 0
615 1 0.239034 0.659812 0
617 1 0.262184 0.668931 0
588 1 0.277668 0.651451 0
619 1 0.299418 0.659086 0
618 1 0.284878 0.677837 0
621 1 0.323354 0.659854 0
592 1 0.347064 0.657894 0
622 1 0.338883 0.680311 0
594 1 0.377826 0.650588 0
625 1 0.401857 0.660713 0
623 1 0.367097 0.673019 0
596 1 0.421625 0.643671 0
598 1 0.444554 0.651643 0
627 1 0.425926 0.667931 0
628 1 0.449902 0.6766 0
600 1 0.48512 0.643412 0
629 1 0.467848 0.660394 0
630 1 0.481886 0.681512 0
1501 1 0.499659 0.662813 0
633 1 0.0341065 0.695727 0
632 1 0.0117372 0.703629 0
634 1 0.0398117 0.727736 0
606 1 0.0743416 0.692701 0
635 1 0.0549404 0.708263 0
636 1 0.0789943 0.716199 0
608 1 0.117931 0.686429 0
637 1 0.0980436 0.700146 0
638 1 0.121065 0.710465 0
667 1 0.102785 0.725105 0
639 1 0.140939 0.694803 0
641 1 0.164314 0.702064 0
640 1 0.146189 0.718096 0
671 1 0.169629 0.727016 0
612 1 0.181691 0.686445 0
643 1 0.205885 0.696472 0
642 1 0.187337 0.711325 0
644 1 0.211244 0.720212 0
616 1 0.246132 0.687604 0
645 1 0.228702 0.703908 0
647 1 0.268652 0.695412 0
646 1 0.252418 0.713294 0
620 1 0.309613 0.682232 0
649 1 0.292242 0.701295 0
648 1 0.276504 0.719538 0
650 1 0.313953 0.708747 0
651 1 0.33693 0.704584 0
653 1 0.358843 0.69764 0
652 1 0.351683 0.723385 0
626 1 0.406888 0.684921 0
624 1 0.383158 0.691588 0
655 1 0.400435 0.70946 0
654 1 0.375564 0.715502 0
657 1 0.430406 0.691802 0
656 1 0.423968 0.714849 0
658 1 0.447269 0.708255 0
659 1 0.470411 0.702015 0
660 1 0.489838 0.71749 0
689 1 0.466853 0.726418 0
663 1 0.0154669 0.727152 0
662 1 0.0202477 0.751069 0
691 1 0.00327045 0.768486 0
664 1 0.0435426 0.752179 0
665 1 0.06189 0.734728 0
666 1 0.0843201 0.741802 0
695 1 0.0665733 0.759511 0
697 1 0.0888652 0.765496 0
669 1 0.126814 0.7333 0
668 1 0.10763 0.74901 0
699 1 0.130452 0.756797 0
670 1 0.149432 0.741927 0
701 1 0.153912 0.765496 0
672 1 0.173411 0.750048 0
673 1 0.19331 0.735807 0
674 1 0.216454 0.745567 0
703 1 0.19646 0.759462 0
705 1 0.21962 0.769934 0
675 1 0.23453 0.729657 0
677 1 0.257436 0.73823 0
676 1 0.240445 0.756323 0
707 1 0.264674 0.764399 0
678 1 0.281601 0.742786 0
679 1 0.30101 0.728739 0
680 1 0.315477 0.752504 0
709 1 0.290068 0.765137 0
681 1 0.327735 0.729183 0
711 1 0.333493 0.770666 0
682 1 0.34539 0.749047 0
683 1 0.370158 0.73944 0
684 1 0.386042 0.756681 0
685 1 0.39429 0.733348 0
713 1 0.363211 0.766376 0
715 1 0.409992 0.762613 0
686 1 0.417944 0.738738 0
687 1 0.442224 0.732223 0
717 1 0.435078 0.756277 0
690 1 0.483206 0.744351 0
688 1 0.459584 0.749982 0
719 1 0.477468 0.768815 0
693 1 0.0268559 0.773982 0
692 1 0.0100683 0.792419 0
722 1 0.0211167 0.817049 0
723 1 0.0344464 0.796299 0
694 1 0.0499043 0.776291 0
696 1 0.0723108 0.783005 0
725 1 0.0572317 0.801696 0
726 1 0.0811679 0.807003 0
698 1 0.112068 0.772356 0
727 1 0.0953408 0.7883 0
728 1 0.111411 0.805599 0
729 1 0.134339 0.803834 0
700 1 0.13443 0.78039 0
731 1 0.156005 0.79224 0
732 1 0.172002 0.811135 0
702 1 0.175887 0.775451 0
704 1 0.199172 0.782798 0
733 1 0.19644 0.805895 0
735 1 0.219606 0.795198 0
706 1 0.242466 0.782428 0
736 1 0.239235 0.810382 0
737 1 0.260857 0.798891 0
708 1 0.284138 0.788387 0
710 1 0.309458 0.780044 0
739 1 0.303625 0.804289 0
738 1 0.279983 0.814061 0
712 1 0.350177 0.788986 0
741 1 0.326715 0.796363 0
742 1 0.353731 0.815111 0
714 1 0.390777 0.780516 0
743 1 0.373337 0.797658 0
745 1 0.397121 0.805261 0
716 1 0.414717 0.786764 0
718 1 0.453219 0.772878 0
746 1 0.421489 0.811325 0
747 1 0.438799 0.792577 0
748 1 0.446147 0.816484 0
720 1 0.486367 0.79419 0
749 1 0.46182 0.795866 0
1621 1 0.496506 0.817149 0
751 1 0.00291177 0.832734 0
752 1 0.00901284 0.856979 0
753 1 0.0279748 0.841262 0
724 1 0.0457225 0.823976 0
755 1 0.0730127 0.833642 0
754 1 0.0527873 0.849313 0
785 1 0.0750789 0.859589 0
756 1 0.0961484 0.848452 0
757 1 0.0977823 0.824999 0
759 1 0.122684 0.828893 0
758 1 0.119031 0.856153 0
730 1 0.149367 0.822156 0
760 1 0.1424 0.844877 0
761 1 0.167867 0.837478 0
791 1 0.161748 0.861301 0
763 1 0.190626 0.828731 0
734 1 0.215752 0.819162 0
762 1 0.185211 0.85411 0
764 1 0.209493 0.843116 0
795 1 0.227381 0.85987 0
767 1 0.257782 0.82555 0
765 1 0.232926 0.835703 0
766 1 0.251291 0.850827 0
768 1 0.275019 0.84215 0
769 1 0.298234 0.829938 0
799 1 0.294641 0.855731 0
770 1 0.317372 0.845687 0
740 1 0.321604 0.821088 0
771 1 0.340681 0.838286 0
772 1 0.353815 0.861615 0
773 1 0.364625 0.839489 0
744 1 0.379354 0.821511 0
775 1 0.403715 0.828839 0
774 1 0.386872 0.848331 0
777 1 0.428651 0.835143 0
776 1 0.410895 0.851684 0
778 1 0.441792 0.855701 0
750 1 0.472186 0.817287 0
779 1 0.458246 0.837823 0
780 1 0.487542 0.856688 0
783 1 0.0329752 0.865042 0
782 1 0.0147275 0.882335 0
813 1 0.0367211 0.889781 0
812 1 0.0196822 0.905592 0
784 1 0.0562783 0.87407 0
815 1 0.0591479 0.899256 0
786 1 0.0791858 0.885844 0
787 1 0.0987194 0.872469 0
788 1 0.120977 0.883156 0
817 1 0.100596 0.89778 0
819 1 0.132875 0.903934 0
789 1 0.139717 0.868679 0
790 1 0.152619 0.887909 0
821 1 0.1679 0.907886 0
792 1 0.176817 0.880513 0
793 1 0.204033 0.868194 0
823 1 0.197684 0.894194 0
794 1 0.220915 0.885247 0
797 1 0.268999 0.866452 0
796 1 0.244236 0.876769 0
825 1 0.238168 0.902031 0
827 1 0.26187 0.892935 0
798 1 0.284901 0.884545 0
800 1 0.307134 0.876525 0
829 1 0.302603 0.901414 0
801 1 0.329961 0.867433 0
831 1 0.325209 0.893437 0
802 1 0.348508 0.885831 0
833 1 0.366063 0.902601 0
803 1 0.372602 0.877613 0
805 1 0.397382 0.872494 0
804 1 0.389044 0.895847 0
806 1 0.412561 0.891714 0
807 1 0.424538 0.871735 0
808 1 0.446409 0.881665 0
837 1 0.429503 0.908441 0
839 1 0.45388 0.904732 0
809 1 0.464949 0.863638 0
1681 1 0.494913 0.881526 0
810 1 0.471377 0.887779 0
842 1 0.00780473 0.949851 0
843 1 0.0201787 0.929235 0
844 1 0.0407392 0.940493 0
814 1 0.0419724 0.915797 0
816 1 0.0795723 0.91185 0
845 1 0.0667092 0.933575 0
818 1 0.113933 0.919124 0
847 1 0.0931525 0.932579 0
848 1 0.106614 0.954059 0
849 1 0.127208 0.939358 0
820 1 0.146603 0.923707 0
850 1 0.150191 0.948482 0
851 1 0.16889 0.932704 0
822 1 0.190218 0.91779 0
853 1 0.192149 0.942193 0
824 1 0.215359 0.910494 0
854 1 0.214562 0.948738 0
855 1 0.231457 0.928878 0
826 1 0.256065 0.917622 0
856 1 0.251134 0.942447 0
828 1 0.278719 0.909869 0
857 1 0.273916 0.934676 0
858 1 0.290845 0.951355 0
859 1 0.29657 0.926524 0
860 1 0.313625 0.943448 0
832 1 0.343059 0.911351 0
830 1 0.319803 0.918861 0
861 1 0.336446 0.937308 0
863 1 0.359115 0.929408 0
862 1 0.353404 0.954539 0
835 1 0.405253 0.914968 0
834 1 0.381719 0.921138 0
864 1 0.375942 0.946614 0
865 1 0.398027 0.938484 0
838 1 0.445394 0.928293 0
836 1 0.422211 0.93288 0
867 1 0.439341 0.951475 0
840 1 0.477942 0.911406 0
1741 1 0.491613 0.94232 0
869 1 0.468522 0.933507 0
872 1 0.0230627 0.99003 0
873 1 0.0291952 0.963517 0
871 1 0.00391312 0.973567 0
874 1 0.0467684 0.982911 0
846 1 0.0809337 0.954755 0
875 1 0.0561696 0.959092 0
876 1 0.0702818 0.978486 0
7 1 0.0860849 0.998136 0
877 1 0.0945827 0.975552 0
878 1 0.116744 0.985576 0
879 1 0.130932 0.965163 0
852 1 0.174175 0.957275 0
880 1 0.140687 0.991234 0
881 1 0.154846 0.972579 0
882 1 0.177133 0.981941 0
883 1 0.196391 0.966404 0
13 1 0.199714 0.991693 0
884 1 0.219204 0.976574 0
885 1 0.236635 0.961035 0
886 1 0.242943 0.984911 0
17 1 0.266527 0.991825 0
887 1 0.2607 0.966906 0
888 1 0.282839 0.9749 0
889 1 0.306342 0.969989 0
19 1 0.297053 0.994311 0
890 1 0.321478 0.990153 0
891 1 0.328624 0.96257 0
892 1 0.344377 0.982122 0
23 1 0.3629 0.999347 0
893 1 0.3678 0.973831 0
895 1 0.391675 0.96463 0
894 1 0.387001 0.99104 0
896 1 0.40915 0.983296 0
866 1 0.414622 0.956992 0
897 1 0.432067 0.976088 0
898 1 0.452368 0.993623 0
868 1 0.454395 0.969449 0
1771 1 0.493288 0.969754 0
870 1 0.473611 0.957109 0
899 1 0.47389 0.983133 0
900 1 0.493572 0.995427 0
902 1 0.539057 0.0144757 0
933 1 0.54066 0.0397964 0
931 1 0.517301 0.0324662 0
901 1 0.515053 0.00719708 0
904 1 0.561209 0.0237844 0
935 1 0.582073 0.0342647 0
906 1 0.581039 0.00900204 0
908 1 0.605179 0.0167947 0
937 1 0.60422 0.0411997 0
909 1 0.625215 0.000308545 0
939 1 0.629334 0.0241526 0
910 1 0.649834 0.00695259 0
941 1 0.656956 0.0308268 0
912 1 0.674721 0.0140695 0
943 1 0.69991 0.0218617 0
914 1 0.72291 0.0146048 0
942 1 0.680935 0.0378099 0
945 1 0.727304 0.0375276 0
916 1 0.7544 0.00529414 0
947 1 0.750983 0.0291701 0
948 1 0.772291 0.0431729 0
918 1 0.774718 0.0190097 0
919 1 0.794885 0.00473986 0
949 1 0.796794 0.0348308 0
920 1 0.817395 0.0123284 0
951 1 0.821484 0.0355325 0
922 1 0.841467 0.0234571 0
923 1 0.860666 0.00819338 0
953 1 0.862507 0.0341344 0
924 1 0.883119 0.0155714 0
925 1 0.906862 0.00152407 0
955 1 0.904394 0.025961 0
954 1 0.884885 0.0406706 0
926 1 0.926409 0.0180727 0
928 1 0.949835 0.0114958 0
957 1 0.943447 0.0348262 0
930 1 0.991451 0.0219363 0
959 1 0.967685 0.0275226 0
929 1 0.973598 0.00440175 0
960 1 0.985148 0.0451112 0
932 1 0.521911 0.0574086 0
962 1 0.528417 0.0854175 0
963 1 0.545489 0.0667007 0
961 1 0.506428 0.0771424 0
934 1 0.562972 0.0494847 0
936 1 0.585931 0.0590301 0
965 1 0.568518 0.0755239 0
966 1 0.593268 0.0828676 0
938 1 0.627256 0.0475489 0
967 1 0.609733 0.0653384 0
969 1 0.632875 0.0720411 0
968 1 0.616673 0.0897359 0
940 1 0.650874 0.053531 0
970 1 0.655941 0.0773822 0
971 1 0.673933 0.0597442 0
972 1 0.678385 0.0824795 0
944 1 0.704544 0.0450569 0
973 1 0.6988 0.0690774 0
974 1 0.721289 0.085669 0
975 1 0.723795 0.0620285 0
976 1 0.743053 0.0766598 0
946 1 0.746981 0.0524299 0
977 1 0.765838 0.0680352 0
950 1 0.812034 0.056578 0
979 1 0.788923 0.0611766 0
980 1 0.807137 0.079577 0
978 1 0.784042 0.0851967 0
981 1 0.831405 0.0709982 0
952 1 0.842363 0.0487899 0
982 1 0.849386 0.0872175 0
983 1 0.866649 0.0572304 0
985 1 0.889712 0.0649944 0
984 1 0.872155 0.0813298 0
986 1 0.91181 0.0738675 0
956 1 0.908106 0.0494428 0
987 1 0.93274 0.0569092 0
988 1 0.952804 0.0735576 0
958 1 0.961701 0.0510477 0
989 1 0.978526 0.0681527 0
990 1 0.9953 0.0859801 0
1019 1 0.97211 0.0913511 0
991 1 0.511231 0.101881 0
992 1 0.517277 0.126257 0
993 1 0.534602 0.109216 0
1023 1 0.540997 0.132972 0
964 1 0.550696 0.0916111 0
994 1 0.558076 0.115442 0
995 1 0.575294 0.0992023 0
996 1 0.582462 0.123859 0
997 1 0.59969 0.106629 0
998 1 0.623374 0.11432 0
1027 1 0.608059 0.133221 0
999 1 0.640243 0.0964343 0
1000 1 0.646621 0.11942 0
1001 1 0.663894 0.100984 0
1031 1 0.670366 0.12441 0
1002 1 0.692587 0.116284 0
1003 1 0.69902 0.0932366 0
1004 1 0.715293 0.110024 0
1033 1 0.708099 0.134586 0
1005 1 0.738739 0.101776 0
1006 1 0.75571 0.11762 0
1007 1 0.760699 0.0926153 0
1035 1 0.732549 0.125951 0
1037 1 0.773163 0.133347 0
1008 1 0.778823 0.109492 0
1009 1 0.801732 0.102444 0
1039 1 0.796984 0.125529 0
1010 1 0.820398 0.119289 0
1011 1 0.826001 0.0953696 0
1012 1 0.84441 0.111519 0
1043 1 0.86222 0.129341 0
1041 1 0.838199 0.135189 0
1013 1 0.868682 0.105171 0
1014 1 0.885417 0.122027 0
1015 1 0.894365 0.0931071 0
1016 1 0.907866 0.113881 0
1017 1 0.928724 0.089067 0
1018 1 0.950468 0.0981277 0
1047 1 0.932039 0.112817 0
121 1 0.99877 0.129904 0
1020 1 0.980085 0.114177 0
1049 1 0.954376 0.122523 0
1022 1 0.52378 0.150711 0
1051 1 0.506929 0.168083 0
1053 1 0.52996 0.175498 0
1024 1 0.546506 0.157509 0
1025 1 0.564192 0.139894 0
1055 1 0.571707 0.164997 0
1026 1 0.587978 0.147083 0
1028 1 0.618072 0.158165 0
1029 1 0.632798 0.139668 0
1057 1 0.597472 0.170141 0
1058 1 0.626077 0.181916 0
1059 1 0.642441 0.163318 0
1030 1 0.657104 0.144035 0
1061 1 0.66826 0.167694 0
1032 1 0.683844 0.145524 0
1063 1 0.705547 0.158522 0
1034 1 0.727312 0.14904 0
1062 1 0.692342 0.178603 0
1064 1 0.719607 0.182617 0
1036 1 0.750336 0.1409 0
1067 1 0.769027 0.156889 0
1065 1 0.742252 0.167846 0
1066 1 0.764281 0.179795 0
1038 1 0.792083 0.149367 0
1040 1 0.815432 0.142529 0
1069 1 0.810635 0.166393 0
1068 1 0.786685 0.173105 0
1071 1 0.833359 0.159384 0
1042 1 0.856645 0.152595 0
1072 1 0.851059 0.175873 0
1045 1 0.903635 0.140317 0
1044 1 0.880766 0.147448 0
1075 1 0.899725 0.165256 0
1073 1 0.875222 0.17161 0
1046 1 0.926804 0.135499 0
1048 1 0.947428 0.146974 0
1077 1 0.924701 0.159926 0
1078 1 0.943452 0.176307 0
1050 1 0.973406 0.137666 0
1079 1 0.967154 0.162267 0
151 1 0.990691 0.154099 0
1080 1 0.980472 0.181825 0
1052 1 0.5124 0.19294 0
1083 1 0.538038 0.199281 0
1082 1 0.520975 0.216852 0
1054 1 0.555402 0.181946 0
1084 1 0.546107 0.224947 0
1085 1 0.563008 0.205997 0
1056 1 0.579717 0.188171 0
1086 1 0.587619 0.213273 0
1087 1 0.605514 0.195451 0
1089 1 0.6329 0.204744 0
1088 1 0.61431 0.220203 0
1060 1 0.65098 0.187173 0
1091 1 0.67559 0.195764 0
1090 1 0.657006 0.211574 0
1092 1 0.682956 0.2189 0
1093 1 0.700965 0.202429 0
1094 1 0.724933 0.207875 0
1123 1 0.706239 0.226447 0
1095 1 0.743544 0.192701 0
1097 1 0.767057 0.202972 0
1096 1 0.748051 0.217836 0
1127 1 0.773338 0.22631 0
1099 1 0.804113 0.190486 0
1098 1 0.790648 0.209088 0
1100 1 0.816973 0.211434 0
1070 1 0.827506 0.183644 0
1101 1 0.844932 0.200103 0
1102 1 0.862489 0.218059 0
1131 1 0.838871 0.223338 0
1103 1 0.869554 0.194971 0
1074 1 0.89339 0.189369 0
1104 1 0.886388 0.21307 0
1105 1 0.91047 0.208258 0
1076 1 0.91719 0.182991 0
1107 1 0.934421 0.199868 0
1108 1 0.948694 0.219138 0
1109 1 0.958925 0.196057 0
1110 1 0.974706 0.216254 0
211 1 0.997791 0.221875 0
181 1 0.998635 0.197643 0
1111 1 0.50412 0.23433 0
1113 1 0.528718 0.241101 0
1112 1 0.51056 0.257002 0
1143 1 0.536994 0.264957 0
1114 1 0.554406 0.248229 0
1115 1 0.571716 0.231354 0
1116 1 0.580145 0.255415 0
1145 1 0.561281 0.272942 0
1117 1 0.596866 0.23792 0
1118 1 0.621858 0.245337 0
1147 1 0.603541 0.263094 0
1149 1 0.628388 0.270279 0
1119 1 0.638999 0.228642 0
1121 1 0.664144 0.235429 0
1120 1 0.646724 0.252692 0
1151 1 0.669699 0.260137 0
1122 1 0.689133 0.243246 0
1124 1 0.713115 0.250977 0
1153 1 0.695066 0.26769 0
1125 1 0.730405 0.23327 0
1126 1 0.754491 0.241484 0
1155 1 0.737578 0.258937 0
1157 1 0.762666 0.266111 0
1129 1 0.79789 0.232412 0
1128 1 0.780423 0.249563 0
1159 1 0.804908 0.256849 0
1130 1 0.821 0.238528 0
1132 1 0.85379 0.242004 0
1161 1 0.834806 0.259658 0
1133 1 0.87756 0.237241 0
1135 1 0.901033 0.232737 0
1163 1 0.869631 0.260813 0
1134 1 0.892841 0.256697 0
1106 1 0.925104 0.227582 0
1136 1 0.916343 0.2516 0
1137 1 0.939602 0.246512 0