ITEM: TIMESTEP
196000
ITEM: NUMBER OF ATOMS
1800
ITEM: BOX BOUNDS pp pp pp
1.2149805996418053e+00 1.6378501940035909e+02
1.2149805996418053e+00 1.6378501940035909e+02
0.0000000000000000e+00 5.5000000000000000e+00
ITEM: ATOMS id type xs ys zs
2 1 0.0146694 0.011741 0
3 1 0.0387312 0.00637578 0
31 1 0.0080693 0.0356535 0
33 1 0.0322756 0.0299823 0
4 1 0.0568672 0.0234571 0
6 1 0.0812756 0.0175397 0
35 1 0.074627 0.0413831 0
8 1 0.106032 0.0111191 0
37 1 0.0977465 0.0356326 0
39 1 0.122648 0.0298659 0
880 1 0.129429 0.00339767 0
9 1 0.145982 0.0224464 0
10 1 0.170451 0.0163573 0
40 1 0.162926 0.0405871 0
41 1 0.187057 0.0350891 0
12 1 0.193886 0.0109921 0
14 1 0.210895 0.0294113 0
13 1 0.218129 0.00588906 0
15 1 0.234937 0.0254452 0
16 1 0.258438 0.0194796 0
46 1 0.252291 0.0437351 0
886 1 0.242749 0.000740761 0
47 1 0.276778 0.0378092 0
19 1 0.307141 0.00911391 0
18 1 0.283374 0.0140458 0
49 1 0.300523 0.0328026 0
20 1 0.323251 0.0265691 0
21 1 0.354687 0.0209568 0
890 1 0.335098 0.00501674 0
51 1 0.341263 0.0422764 0
892 1 0.374269 0.00617738 0
23 1 0.38283 0.0290712 0
894 1 0.398819 0.0103141 0
24 1 0.407061 0.0343277 0
25 1 0.423657 0.0155422 0
27 1 0.447132 0.0214652 0
26 1 0.430775 0.0394623 0
28 1 0.45512 0.0446867 0
29 1 0.472168 0.0272363 0
900 1 0.488281 0.00864935 0
898 1 0.464661 0.00319734 0
30 1 0.496718 0.0316231 0
61 1 0.000480123 0.0608037 0
32 1 0.0248424 0.0538972 0
63 1 0.0425658 0.0711297 0
62 1 0.017554 0.0785382 0
34 1 0.0506076 0.0474347 0
65 1 0.0665089 0.0652515 0
66 1 0.0835149 0.083085 0
64 1 0.0586989 0.0890459 0
36 1 0.090566 0.0596513 0
38 1 0.114937 0.0536937 0
67 1 0.107972 0.0772256 0
68 1 0.13193 0.0712274 0
69 1 0.13943 0.0474204 0
71 1 0.156541 0.0644329 0
72 1 0.173581 0.0826153 0
70 1 0.149131 0.0882362 0
42 1 0.180272 0.0593968 0
43 1 0.204457 0.0543025 0
44 1 0.223091 0.0738789 0
73 1 0.198475 0.0786253 0
45 1 0.228301 0.0500504 0
75 1 0.246744 0.0675622 0
77 1 0.270424 0.0622043 0
76 1 0.263269 0.0858803 0
48 1 0.293601 0.0555254 0
79 1 0.307503 0.0752275 0
78 1 0.288897 0.0909395 0
50 1 0.318102 0.0531587 0
81 1 0.331338 0.0820539 0
52 1 0.34844 0.0646273 0
82 1 0.356294 0.0884912 0
22 1 0.365336 0.0458756 0
53 1 0.39059 0.0531252 0
83 1 0.373365 0.0698971 0
54 1 0.397196 0.0761193 0
55 1 0.414587 0.0574194 0
57 1 0.439211 0.063183 0
56 1 0.421839 0.0814588 0
87 1 0.445433 0.0871163 0
59 1 0.479591 0.0499814 0
58 1 0.462953 0.0686601 0
89 1 0.487022 0.0734965 0
92 1 0.0277601 0.119939 0
93 1 0.0348273 0.0953622 0
91 1 0.0106613 0.102752 0
121 1 0.00334973 0.127461 0
94 1 0.0512343 0.113186 0
95 1 0.0761508 0.106946 0
125 1 0.0699709 0.131781 0
96 1 0.0939015 0.125393 0
97 1 0.100238 0.101696 0
98 1 0.117775 0.118968 0
99 1 0.1247 0.0948375 0
100 1 0.141385 0.111683 0
101 1 0.166287 0.106236 0
130 1 0.158141 0.129541 0
103 1 0.190797 0.10295 0
102 1 0.18665 0.127951 0
105 1 0.21593 0.0981374 0
104 1 0.21218 0.135974 0
74 1 0.24113 0.094961 0
106 1 0.231222 0.117901 0
137 1 0.254583 0.125799 0
107 1 0.272148 0.109198 0
109 1 0.296307 0.115822 0
108 1 0.279479 0.133045 0
80 1 0.313848 0.0991811 0
110 1 0.321131 0.122838 0
111 1 0.338638 0.105574 0
141 1 0.344989 0.129924 0
113 1 0.362848 0.112485 0
84 1 0.379597 0.0944281 0
112 1 0.387233 0.117941 0
85 1 0.404613 0.100077 0
143 1 0.368461 0.136855 0
115 1 0.410678 0.123997 0
86 1 0.42858 0.105231 0
116 1 0.434466 0.129488 0
117 1 0.451943 0.111696 0
88 1 0.47079 0.0927519 0
119 1 0.477034 0.117126 0
90 1 0.49451 0.0976664 0
118 1 0.459456 0.135735 0
122 1 0.0211041 0.144327 0
153 1 0.040243 0.163036 0
152 1 0.0147633 0.169442 0
123 1 0.0452877 0.137585 0
124 1 0.0631027 0.156209 0
126 1 0.0867869 0.149343 0
155 1 0.0808088 0.172399 0
154 1 0.0585047 0.180441 0
127 1 0.110232 0.143214 0
128 1 0.128098 0.159904 0
157 1 0.104949 0.168176 0
129 1 0.135277 0.136997 0
159 1 0.151891 0.162881 0
131 1 0.172404 0.148865 0
132 1 0.177966 0.172334 0
160 1 0.136976 0.182004 0
133 1 0.19634 0.154238 0
163 1 0.201866 0.17791 0
134 1 0.220666 0.161321 0
135 1 0.23689 0.142142 0
136 1 0.261109 0.150282 0
165 1 0.243921 0.167638 0
167 1 0.268149 0.17347 0
139 1 0.303716 0.139793 0
138 1 0.286711 0.156537 0
169 1 0.309542 0.16404 0
168 1 0.290874 0.181241 0
140 1 0.327584 0.147423 0
142 1 0.351347 0.154275 0
171 1 0.334306 0.171152 0
172 1 0.35876 0.177715 0
114 1 0.392974 0.142268 0
144 1 0.401213 0.165991 0
173 1 0.376358 0.160502 0
145 1 0.417249 0.148166 0
146 1 0.425537 0.17096 0
147 1 0.443071 0.153401 0
177 1 0.44859 0.177456 0
149 1 0.484043 0.140497 0
148 1 0.466939 0.159758 0
150 1 0.491365 0.164904 0
1110 1 0.00221573 0.219043 0
183 1 0.0335822 0.187053 0
182 1 0.0274647 0.211622 0
181 1 0.00890733 0.194522 0
184 1 0.0511585 0.205266 0
185 1 0.0749399 0.198766 0
215 1 0.0712555 0.223924 0
186 1 0.0972175 0.215807 0
156 1 0.0968286 0.19084 0
158 1 0.119374 0.198307 0
187 1 0.123408 0.223046 0
161 1 0.160314 0.188976 0
189 1 0.142648 0.207036 0
191 1 0.167131 0.213205 0
162 1 0.18499 0.195598 0
193 1 0.208781 0.202019 0
192 1 0.191531 0.219318 0
164 1 0.226057 0.185607 0
195 1 0.232128 0.208772 0
166 1 0.250757 0.191765 0
196 1 0.256009 0.215039 0
197 1 0.27484 0.198928 0
199 1 0.298723 0.20523 0
198 1 0.280969 0.223303 0
170 1 0.316171 0.18767 0
201 1 0.340634 0.195279 0
200 1 0.322891 0.212567 0
202 1 0.348722 0.219675 0
174 1 0.383448 0.1841 0
203 1 0.365795 0.201626 0
233 1 0.373462 0.225212 0
204 1 0.390646 0.208658 0
175 1 0.407481 0.189376 0
205 1 0.414124 0.214265 0
176 1 0.430946 0.194748 0
207 1 0.438669 0.218843 0
179 1 0.472891 0.183269 0
178 1 0.455455 0.201616 0
209 1 0.47999 0.207774 0
208 1 0.462721 0.225398 0
180 1 0.497671 0.189307 0
212 1 0.0234877 0.258033 0
211 1 0.0202852 0.234727 0
213 1 0.0465717 0.230013 0
243 1 0.0467484 0.264452 0
214 1 0.0654765 0.248351 0
216 1 0.0881987 0.25521 0
217 1 0.106395 0.23911 0
218 1 0.111918 0.263379 0
188 1 0.12986 0.246105 0
219 1 0.136045 0.271202 0
190 1 0.148929 0.231109 0
221 1 0.17269 0.237825 0
220 1 0.155004 0.254857 0
222 1 0.179342 0.261096 0
194 1 0.215135 0.227058 0
223 1 0.196764 0.243884 0
253 1 0.204183 0.267795 0
224 1 0.222184 0.250661 0
225 1 0.239143 0.232838 0
227 1 0.263425 0.240381 0
226 1 0.245519 0.258174 0
257 1 0.270463 0.264008 0
229 1 0.305245 0.230516 0
228 1 0.288324 0.246531 0
230 1 0.312901 0.253269 0
259 1 0.294683 0.270538 0
231 1 0.330907 0.237193 0
232 1 0.355289 0.243847 0
261 1 0.337875 0.261822 0
263 1 0.361974 0.268242 0
235 1 0.397097 0.232244 0
234 1 0.378861 0.250109 0
265 1 0.403352 0.255642 0
206 1 0.421873 0.237702 0
237 1 0.445699 0.241917 0
236 1 0.427385 0.261615 0
238 1 0.451885 0.266894 0
210 1 0.48731 0.231336 0
239 1 0.470668 0.249328 0
240 1 0.493928 0.256642 0
241 1 0.00438846 0.274165 0
242 1 0.028635 0.282689 0
271 1 0.0102274 0.300056 0
273 1 0.0346291 0.306832 0
245 1 0.0704681 0.273489 0
244 1 0.0517697 0.289549 0
246 1 0.0767025 0.29738 0
275 1 0.0584595 0.314609 0
247 1 0.0941008 0.280048 0
249 1 0.119209 0.288472 0
248 1 0.100602 0.304961 0
279 1 0.124442 0.312895 0
251 1 0.161216 0.278093 0
250 1 0.142587 0.294749 0
281 1 0.167139 0.303366 0
252 1 0.185038 0.285642 0
254 1 0.209071 0.292375 0
283 1 0.191313 0.309587 0
284 1 0.21613 0.315765 0
255 1 0.227094 0.274637 0
256 1 0.251184 0.281316 0
285 1 0.233637 0.298434 0
287 1 0.257645 0.304888 0
258 1 0.275364 0.288398 0
288 1 0.28117 0.312098 0
289 1 0.300728 0.294932 0
260 1 0.319136 0.27881 0
262 1 0.343746 0.286691 0
291 1 0.325913 0.303186 0
292 1 0.349926 0.31072 0
264 1 0.385628 0.274111 0
293 1 0.367478 0.292651 0
295 1 0.392393 0.29809 0
294 1 0.373666 0.317249 0
266 1 0.409121 0.279719 0
267 1 0.434271 0.285553 0
297 1 0.417009 0.304635 0
298 1 0.441576 0.310226 0
269 1 0.476265 0.274307 0
268 1 0.458425 0.292059 0
270 1 0.482473 0.298481 0
299 1 0.465235 0.317288 0
1200 1 0.0169082 0.324581 0
272 1 0.0411501 0.331229 0
301 1 0.0225905 0.348531 0
303 1 0.0464336 0.355363 0
276 1 0.0830085 0.321935 0
274 1 0.0643264 0.339406 0
305 1 0.0886735 0.346687 0
304 1 0.0703976 0.363126 0
277 1 0.107056 0.329616 0
278 1 0.1314 0.33674 0
307 1 0.112953 0.354023 0
309 1 0.137234 0.362439 0
280 1 0.149216 0.319702 0
282 1 0.17368 0.327396 0
311 1 0.155373 0.344319 0
312 1 0.178788 0.351265 0
313 1 0.198065 0.334057 0
314 1 0.203806 0.358561 0
315 1 0.221651 0.340007 0
286 1 0.239304 0.322924 0
317 1 0.263024 0.328896 0
316 1 0.245211 0.347132 0
318 1 0.270002 0.353271 0
290 1 0.3062 0.319143 0
319 1 0.286988 0.336642 0
349 1 0.294269 0.36059 0
320 1 0.312053 0.343738 0
321 1 0.331214 0.327315 0
323 1 0.355665 0.334653 0
322 1 0.338467 0.351243 0
324 1 0.363289 0.358182 0
296 1 0.398401 0.321592 0
325 1 0.380763 0.339938 0
326 1 0.405289 0.346366 0
327 1 0.423277 0.328244 0
328 1 0.430041 0.352337 0
329 1 0.447576 0.33519 0
359 1 0.454672 0.359204 0
300 1 0.490178 0.322926 0
330 1 0.472412 0.340502 0
1201 1 0.497487 0.346856 0
1230 1 0.00329033 0.364868 0
302 1 0.0276581 0.373224 0
332 1 0.034259 0.397354 0
331 1 0.00932359 0.389536 0
333 1 0.05196 0.38035 0
335 1 0.0760746 0.386691 0
334 1 0.0577102 0.404531 0
306 1 0.0946723 0.370818 0
308 1 0.118495 0.379265 0
337 1 0.100663 0.395794 0
338 1 0.124622 0.403767 0
310 1 0.1614 0.369075 0
339 1 0.142818 0.386193 0
341 1 0.166667 0.393483 0
343 1 0.185006 0.374356 0
342 1 0.191666 0.398558 0
344 1 0.210071 0.381592 0
373 1 0.216329 0.40645 0
345 1 0.227993 0.36406 0
347 1 0.253019 0.370867 0
346 1 0.23428 0.387702 0
377 1 0.259142 0.395201 0
348 1 0.277237 0.377763 0
350 1 0.3013 0.383962 0
378 1 0.283427 0.401143 0
379 1 0.308167 0.407886 0
351 1 0.320013 0.368243 0
381 1 0.326605 0.39144 0
353 1 0.344686 0.374752 0
352 1 0.351859 0.399008 0
355 1 0.387743 0.363914 0
354 1 0.369919 0.380953 0
385 1 0.3761 0.405631 0
356 1 0.395408 0.388741 0
387 1 0.419232 0.394683 0
357 1 0.412406 0.370321 0
358 1 0.436458 0.376473 0
389 1 0.443233 0.400685 0
360 1 0.480536 0.364982 0
1232 1 0.460787 0.382748 0
1262 1 0.486055 0.38877 0
1261 1 0.468033 0.407113 0
361 1 0.0168137 0.415452 0
362 1 0.0222204 0.439384 0
363 1 0.039877 0.422709 0
364 1 0.0465223 0.446713 0
336 1 0.0824066 0.412819 0
365 1 0.06501 0.429796 0
366 1 0.0881396 0.436984 0
395 1 0.0706621 0.454185 0
367 1 0.105699 0.420263 0
368 1 0.112131 0.444135 0
369 1 0.131437 0.427088 0
340 1 0.148328 0.410352 0
371 1 0.17318 0.416648 0
399 1 0.137381 0.450819 0
370 1 0.1555 0.43337 0
401 1 0.180852 0.439682 0
372 1 0.19877 0.42293 0
403 1 0.204055 0.447651 0
374 1 0.222881 0.430237 0
375 1 0.241047 0.412365 0
376 1 0.265391 0.418528 0
405 1 0.24685 0.435712 0
407 1 0.271657 0.442298 0
404 1 0.227899 0.454302 0
409 1 0.290453 0.425258 0
410 1 0.296505 0.448863 0
380 1 0.315047 0.431559 0
382 1 0.334023 0.416723 0
383 1 0.358387 0.424069 0
413 1 0.338798 0.440651 0
414 1 0.364083 0.447744 0
386 1 0.400535 0.413174 0
384 1 0.383155 0.431013 0
417 1 0.407715 0.436797 0
388 1 0.425304 0.419217 0
418 1 0.431125 0.443341 0
419 1 0.449997 0.425057 0
390 1 0.457443 0.448444 0
1291 1 0.476094 0.43022 0
1293 1 0.492626 0.411878 0
1321 1 0.482561 0.454931 0
392 1 0.00438585 0.456104 0
393 1 0.0278961 0.464191 0
422 1 0.0104717 0.481777 0
423 1 0.0346136 0.488558 0
394 1 0.0523561 0.471185 0
396 1 0.0763469 0.478999 0
425 1 0.0578592 0.49553 0
397 1 0.0943308 0.461865 0
398 1 0.120126 0.468715 0
427 1 0.100994 0.485433 0
428 1 0.125067 0.493329 0
400 1 0.16195 0.457635 0
429 1 0.143453 0.47545 0
431 1 0.168066 0.481481 0
402 1 0.185968 0.464112 0
432 1 0.192597 0.488643 0
433 1 0.211511 0.472579 0
434 1 0.217055 0.496337 0
406 1 0.253562 0.458883 0
435 1 0.235301 0.478343 0
436 1 0.25961 0.482289 0
408 1 0.278769 0.465086 0
439 1 0.283986 0.489506 0
440 1 0.30814 0.497584 0
441 1 0.302419 0.47299 0
411 1 0.320666 0.456406 0
412 1 0.345096 0.464779 0
442 1 0.327074 0.480722 0
473 1 0.350959 0.488301 0
415 1 0.389435 0.455793 0
443 1 0.370601 0.473362 0
444 1 0.375467 0.497797 0
445 1 0.395686 0.479844 0
448 1 0.445632 0.491726 0
446 1 0.420538 0.486127 0
416 1 0.414177 0.461688 0
447 1 0.440105 0.467594 0
420 1 0.464812 0.472812 0
449 1 0.471873 0.495868 0
450 1 0.489357 0.478289 0
454 1 0.0206555 0.530473 0
453 1 0.0161977 0.505761 0
424 1 0.0403204 0.51381 0
485 1 0.0456646 0.537702 0
455 1 0.0635281 0.519847 0
426 1 0.0828652 0.503294 0
456 1 0.0869875 0.52753 0
457 1 0.106168 0.50952 0
458 1 0.111006 0.533883 0
459 1 0.129812 0.51792 0
489 1 0.135672 0.541116 0
460 1 0.15464 0.524239 0
461 1 0.173243 0.507197 0
430 1 0.148512 0.500064 0
462 1 0.178884 0.531959 0
493 1 0.202086 0.539944 0
463 1 0.197256 0.513511 0
464 1 0.221369 0.521911 0
466 1 0.245418 0.528647 0
465 1 0.240534 0.502807 0
437 1 0.264717 0.506415 0
467 1 0.26972 0.529517 0
468 1 0.292845 0.538151 0
438 1 0.288923 0.514272 0
469 1 0.312487 0.521865 0
470 1 0.33728 0.530651 0
472 1 0.357034 0.514911 0
471 1 0.333334 0.505678 0
503 1 0.359705 0.539525 0
474 1 0.380588 0.521948 0
475 1 0.401415 0.505032 0
476 1 0.404251 0.532374 0
477 1 0.428014 0.510554 0
507 1 0.436585 0.534043 0
478 1 0.454042 0.515312 0
480 1 0.463371 0.538485 0
479 1 0.48017 0.519559 0
1351 1 0.497802 0.501262 0
510 1 0.488682 0.544011 0
483 1 0.00277938 0.547808 0
513 1 0.0284133 0.555165 0
514 1 0.0342029 0.580338 0
482 1 0.00991037 0.571585 0
486 1 0.0693046 0.545342 0
484 1 0.052011 0.563062 0
515 1 0.0748174 0.570352 0
545 1 0.0589094 0.588869 0
487 1 0.0928188 0.55214 0
488 1 0.116998 0.558634 0
517 1 0.0990291 0.577748 0
519 1 0.121976 0.58472 0
491 1 0.159534 0.54885 0
490 1 0.140571 0.565336 0
520 1 0.145709 0.589788 0
521 1 0.164984 0.573563 0
492 1 0.183079 0.556663 0
523 1 0.188481 0.581947 0
494 1 0.206916 0.564843 0
495 1 0.225637 0.547057 0
496 1 0.251613 0.561601 0
525 1 0.230317 0.575078 0
526 1 0.253904 0.588026 0
499 1 0.31651 0.545904 0
497 1 0.27359 0.552264 0
527 1 0.274413 0.576887 0
498 1 0.294594 0.563026 0
529 1 0.297801 0.58774 0
500 1 0.31823 0.570636 0
501 1 0.339546 0.555392 0
531 1 0.34057 0.580508 0
502 1 0.361751 0.56436 0
533 1 0.36361 0.589552 0
505 1 0.38297 0.548041 0
504 1 0.384818 0.572887 0
535 1 0.40751 0.583405 0
506 1 0.406026 0.558331 0
508 1 0.42861 0.569556 0
509 1 0.449031 0.557444 0
539 1 0.453701 0.582076 0
540 1 0.472347 0.563536 0
1441 1 0.497286 0.568688 0
569 1 0.480927 0.587785 0
512 1 0.016111 0.595571 0
542 1 0.0213701 0.620233 0
543 1 0.0403532 0.605157 0
544 1 0.0449282 0.630795 0
516 1 0.0850084 0.598065 0
546 1 0.0645843 0.615136 0
547 1 0.0877208 0.624569 0
518 1 0.106834 0.608188 0
548 1 0.128496 0.624115 0
522 1 0.169673 0.597559 0
549 1 0.150669 0.613747 0
551 1 0.172535 0.623033 0
524 1 0.211788 0.592551 0
553 1 0.192027 0.607543 0
552 1 0.194098 0.633249 0
554 1 0.214396 0.618681 0
555 1 0.233535 0.602699 0
556 1 0.236082 0.62917 0
557 1 0.255591 0.614619 0
528 1 0.276935 0.600927 0
559 1 0.299244 0.612314 0
558 1 0.278802 0.625835 0
560 1 0.302662 0.635988 0
530 1 0.320494 0.595073 0
561 1 0.323496 0.620321 0
532 1 0.34264 0.605356 0
562 1 0.34656 0.630499 0
563 1 0.365464 0.613731 0
534 1 0.386286 0.597624 0
565 1 0.388458 0.623403 0
536 1 0.408118 0.608302 0
537 1 0.431028 0.593598 0
567 1 0.429935 0.618311 0
568 1 0.451465 0.625839 0
566 1 0.410493 0.63437 0
538 1 0.464204 0.606143 0
570 1 0.489474 0.610779 0
600 1 0.474884 0.629927 0
1501 1 0.499219 0.633968 0
571 1 0.00121545 0.636588 0
572 1 0.00499086 0.660938 0
573 1 0.0244378 0.645674 0
603 1 0.0267093 0.671899 0
574 1 0.0469474 0.656118 0
575 1 0.0674255 0.640901 0
605 1 0.0690023 0.668118 0
576 1 0.0886048 0.652917 0
607 1 0.0913365 0.679934 0
577 1 0.109088 0.638071 0
578 1 0.110438 0.665873 0
579 1 0.131548 0.651794 0
609 1 0.132986 0.676245 0
550 1 0.151762 0.637695 0
581 1 0.174454 0.647692 0
580 1 0.15391 0.662203 0
611 1 0.176163 0.672743 0
583 1 0.216463 0.642828 0
582 1 0.196803 0.658617 0
584 1 0.219732 0.668577 0
587 1 0.25858 0.639307 0
585 1 0.239017 0.653659 0
586 1 0.262282 0.664207 0
615 1 0.241928 0.67936 0
589 1 0.282203 0.649721 0
588 1 0.284221 0.675015 0
590 1 0.30524 0.660227 0
591 1 0.325729 0.644323 0
593 1 0.348565 0.655517 0
621 1 0.329012 0.67011 0
592 1 0.35216 0.680541 0
564 1 0.368708 0.640236 0
594 1 0.372332 0.66595 0
595 1 0.391464 0.65054 0
625 1 0.395541 0.675063 0
596 1 0.415478 0.658857 0
597 1 0.433843 0.643433 0
598 1 0.439751 0.667783 0
599 1 0.457844 0.648572 0
629 1 0.482515 0.653644 0
628 1 0.465767 0.672289 0
630 1 0.489763 0.677299 0
602 1 0.0063295 0.686257 0
633 1 0.0287647 0.697625 0
632 1 0.00816393 0.711932 0
634 1 0.0307641 0.722033 0
604 1 0.048627 0.682362 0
606 1 0.070487 0.693887 0
635 1 0.0505297 0.708609 0
636 1 0.0723832 0.719298 0
637 1 0.0925608 0.706283 0
608 1 0.113114 0.691147 0
638 1 0.115458 0.716301 0
639 1 0.13577 0.70112 0
610 1 0.156259 0.68775 0
641 1 0.157985 0.713939 0
612 1 0.179113 0.698434 0
642 1 0.181572 0.724308 0
613 1 0.199188 0.684432 0
614 1 0.222217 0.69512 0
643 1 0.201146 0.709607 0
645 1 0.224275 0.719372 0
617 1 0.2648 0.690394 0
616 1 0.244791 0.704973 0
647 1 0.266937 0.716186 0
619 1 0.306449 0.685931 0
618 1 0.28619 0.701073 0
620 1 0.309076 0.711312 0
649 1 0.28985 0.726165 0
622 1 0.32988 0.694899 0
651 1 0.332859 0.719041 0
653 1 0.352908 0.705048 0
623 1 0.375064 0.69048 0
624 1 0.374497 0.715116 0
626 1 0.400579 0.699517 0
655 1 0.396203 0.723561 0
627 1 0.420784 0.683541 0
657 1 0.44893 0.691718 0
656 1 0.430141 0.708423 0
658 1 0.458212 0.716439 0
659 1 0.473862 0.697139 0
660 1 0.482349 0.720019 0
1531 1 0.498491 0.700282 0
663 1 0.00967662 0.737135 0
662 1 0.0106418 0.762082 0
664 1 0.0319813 0.748355 0
665 1 0.052265 0.733623 0
666 1 0.0749576 0.744528 0
695 1 0.0543008 0.759253 0
697 1 0.0777351 0.770775 0
667 1 0.0946992 0.731333 0
669 1 0.117492 0.741994 0
668 1 0.0983843 0.756752 0
699 1 0.121131 0.767934 0
640 1 0.137639 0.727426 0
671 1 0.160017 0.738999 0
670 1 0.140579 0.753001 0
672 1 0.163506 0.763977 0
673 1 0.184214 0.749577 0
644 1 0.204564 0.734341 0
674 1 0.205965 0.760548 0
675 1 0.227146 0.745637 0
705 1 0.228207 0.770664 0
646 1 0.246374 0.73063 0
677 1 0.248727 0.756384 0
648 1 0.269427 0.741383 0
678 1 0.272488 0.765583 0
650 1 0.313034 0.735372 0
679 1 0.293259 0.751024 0
681 1 0.316348 0.759972 0
652 1 0.336728 0.745435 0
683 1 0.360078 0.755614 0
654 1 0.355682 0.730766 0
682 1 0.340089 0.769843 0
685 1 0.378221 0.741117 0
715 1 0.400943 0.747849 0
684 1 0.383999 0.766345 0
714 1 0.408459 0.771183 0
686 1 0.418655 0.731018 0
687 1 0.44243 0.734439 0
717 1 0.425355 0.753432 0
688 1 0.449736 0.758652 0
689 1 0.466268 0.739521 0
690 1 0.491116 0.743455 0
719 1 0.474597 0.762599 0
1591 1 0.497878 0.767329 0
694 1 0.0330819 0.774417 0
693 1 0.0115817 0.789427 0
692 1 0.00468347 0.814414 0
723 1 0.0362109 0.798419 0
696 1 0.0562873 0.784252 0
725 1 0.0596397 0.808698 0
727 1 0.0793324 0.795531 0
698 1 0.10047 0.782345 0
728 1 0.102569 0.808057 0
700 1 0.123962 0.792809 0
701 1 0.143192 0.778582 0
702 1 0.165113 0.790272 0
731 1 0.144683 0.804645 0
732 1 0.167238 0.815512 0
703 1 0.185287 0.774836 0
704 1 0.207962 0.785231 0
733 1 0.187671 0.79957 0
735 1 0.21051 0.811196 0
706 1 0.230927 0.795777 0
676 1 0.250938 0.781089 0
737 1 0.253839 0.806135 0
707 1 0.273191 0.790623 0
709 1 0.294918 0.775444 0
708 1 0.29675 0.799044 0
738 1 0.276644 0.815127 0
710 1 0.31797 0.810281 0
680 1 0.318439 0.785651 0
711 1 0.34157 0.793917 0
741 1 0.340972 0.817975 0
713 1 0.363767 0.781921 0
712 1 0.37446 0.80678 0
743 1 0.391732 0.789954 0
745 1 0.400415 0.813082 0
716 1 0.433527 0.777447 0
747 1 0.442093 0.800404 0
746 1 0.416375 0.795041 0
718 1 0.458984 0.781418 0
720 1 0.482691 0.786402 0
749 1 0.466998 0.80506 0
1621 1 0.490506 0.810888 0
722 1 0.0406149 0.823241 0
751 1 0.0194552 0.834364 0
752 1 0.0153189 0.85836 0
753 1 0.0402364 0.848558 0
726 1 0.0820075 0.820626 0
724 1 0.0617276 0.835674 0
755 1 0.0826316 0.847729 0
754 1 0.0603744 0.861443 0
729 1 0.12418 0.819574 0
756 1 0.105168 0.858542 0
757 1 0.102827 0.833697 0
759 1 0.125434 0.844505 0
730 1 0.146912 0.830016 0
760 1 0.147449 0.855793 0
761 1 0.169595 0.84001 0
763 1 0.189462 0.825508 0
734 1 0.212533 0.836687 0
762 1 0.192466 0.850685 0
764 1 0.215783 0.861679 0
736 1 0.232827 0.821411 0
767 1 0.255641 0.831168 0
765 1 0.235688 0.846401 0
766 1 0.258818 0.856218 0
739 1 0.299002 0.825851 0
769 1 0.30236 0.849933 0
768 1 0.279349 0.840562 0
740 1 0.321794 0.83512 0
742 1 0.362007 0.827653 0
771 1 0.344416 0.844705 0
770 1 0.325644 0.861139 0
773 1 0.367692 0.852007 0
744 1 0.385435 0.832091 0
803 1 0.39232 0.855826 0
775 1 0.425851 0.819357 0
774 1 0.40974 0.837458 0
777 1 0.433701 0.843182 0
748 1 0.450584 0.823392 0
776 1 0.416726 0.860967 0
750 1 0.474175 0.829274 0
779 1 0.45781 0.847786 0
780 1 0.482993 0.853078 0
1651 1 0.499266 0.834724 0
783 1 0.0359216 0.872013 0
782 1 0.00795297 0.881766 0
813 1 0.0277989 0.89693 0
812 1 0.00103058 0.905654 0
785 1 0.0824658 0.873122 0
784 1 0.0574035 0.886404 0
786 1 0.0876483 0.897573 0
758 1 0.127861 0.86945 0
787 1 0.107852 0.883658 0
788 1 0.128896 0.896317 0
791 1 0.170851 0.865013 0
819 1 0.152971 0.906447 0
789 1 0.150671 0.881308 0
790 1 0.173826 0.890194 0
792 1 0.195727 0.876524 0
793 1 0.218349 0.886647 0
823 1 0.196162 0.901003 0
794 1 0.241269 0.896573 0
795 1 0.238561 0.872456 0
796 1 0.26188 0.881361 0
825 1 0.264849 0.905117 0
827 1 0.284631 0.890649 0
797 1 0.281384 0.865733 0
799 1 0.304656 0.874021 0
798 1 0.307501 0.897451 0
800 1 0.331687 0.887539 0
801 1 0.3499 0.869269 0
802 1 0.357227 0.892839 0
772 1 0.375754 0.875128 0
805 1 0.400534 0.879723 0
804 1 0.384139 0.898446 0
806 1 0.408999 0.902794 0
778 1 0.441991 0.866717 0
807 1 0.425226 0.88431 0
808 1 0.450132 0.889545 0
837 1 0.43383 0.907755 0
809 1 0.466468 0.871785 0
1681 1 0.491 0.877457 0
810 1 0.474415 0.895642 0
1711 1 0.499495 0.900448 0
842 1 0.0119104 0.946337 0
843 1 0.0196455 0.921563 0
844 1 0.0367654 0.93993 0
814 1 0.0438823 0.916141 0
815 1 0.0666814 0.909574 0
816 1 0.0866183 0.924158 0
845 1 0.0615726 0.934162 0
846 1 0.0819803 0.950132 0
817 1 0.108039 0.911513 0
818 1 0.132519 0.921024 0
847 1 0.106016 0.938877 0
821 1 0.175592 0.916082 0
820 1 0.156108 0.931116 0
851 1 0.177954 0.94256 0
849 1 0.143754 0.953667 0
824 1 0.219584 0.911683 0
822 1 0.197875 0.925411 0
853 1 0.220272 0.936626 0
855 1 0.24264 0.921568 0
826 1 0.266669 0.928864 0
856 1 0.25683 0.951069 0
828 1 0.29203 0.920812 0
857 1 0.282017 0.946769 0
859 1 0.305454 0.941721 0
829 1 0.317689 0.919657 0
831 1 0.340906 0.911908 0
830 1 0.329615 0.941067 0
832 1 0.351976 0.934836 0
863 1 0.375196 0.941189 0
833 1 0.367895 0.916044 0
834 1 0.391875 0.922461 0
865 1 0.398059 0.946428 0
835 1 0.417028 0.926572 0
838 1 0.440574 0.932661 0
836 1 0.423011 0.950692 0
839 1 0.456977 0.91425 0
1741 1 0.490168 0.942435 0
840 1 0.482697 0.919848 0
869 1 0.465523 0.938421 0
872 1 0.0214979 0.987836 0
873 1 0.0294635 0.964357 0
871 1 0.00455809 0.970711 0
874 1 0.047175 0.98208 0
875 1 0.0535612 0.957757 0
876 1 0.0709586 0.973486 0
7 1 0.0888427 0.993938 0
5 1 0.0654405 0.999007 0
877 1 0.0955977 0.969067 0
848 1 0.119206 0.959634 0
878 1 0.112248 0.986635 0
879 1 0.136857 0.978334 0
850 1 0.160963 0.972713 0
11 1 0.17784 0.991772 0
881 1 0.153415 0.996081 0
852 1 0.185424 0.967169 0
882 1 0.201942 0.985943 0
883 1 0.210052 0.961928 0
884 1 0.225738 0.982497 0
854 1 0.233706 0.958272 0
885 1 0.250664 0.976775 0
17 1 0.266833 0.995547 0
887 1 0.274525 0.970387 0
858 1 0.299464 0.966012 0
888 1 0.291257 0.989573 0
889 1 0.315442 0.986147 0
861 1 0.355483 0.960004 0
860 1 0.323802 0.963735 0
891 1 0.340545 0.98127 0
862 1 0.364899 0.983235 0
864 1 0.381283 0.964101 0
893 1 0.389707 0.98756 0
895 1 0.406249 0.96898 0
866 1 0.431099 0.974159 0
896 1 0.414521 0.992217 0
867 1 0.448245 0.956059 0
897 1 0.43944 0.996661 0
1771 1 0.498045 0.966986 0
870 1 0.474091 0.960977 0
868 1 0.456839 0.978642 0
899 1 0.481443 0.985159 0
902 1 0.538932 0.0196956 0
931 1 0.520825 0.0375557 0
901 1 0.513263 0.0136194 0
933 1 0.546254 0.043279 0
904 1 0.563665 0.024978 0
906 1 0.580236 0.00665965 0
935 1 0.588084 0.0313835 0
905 1 0.555267 0.00125869 0
908 1 0.60367 0.0121357 0
937 1 0.612256 0.036714 0
939 1 0.627893 0.0179742 0
938 1 0.637989 0.0423091 0
940 1 0.652065 0.0169732 0
971 1 0.6698 0.0347105 0
942 1 0.676259 0.0108268 0
944 1 0.694875 0.028693 0
945 1 0.718626 0.0226784 0
943 1 0.701318 0.00487383 0
947 1 0.742437 0.0165207 0
946 1 0.735829 0.0411542 0
948 1 0.760524 0.0344766 0
918 1 0.767279 0.0104226 0
919 1 0.791912 0.00445984 0
949 1 0.784913 0.029538 0
920 1 0.809109 0.0229874 0
951 1 0.832789 0.0158368 0
952 1 0.849886 0.0334806 0
922 1 0.857021 0.00961709 0
950 1 0.826177 0.0406745 0
953 1 0.874376 0.027547 0
955 1 0.898841 0.0207898 0
924 1 0.881286 0.00391077 0
954 1 0.892418 0.0451819 0
926 1 0.924772 0.0149951 0
928 1 0.948478 0.00876643 0
957 1 0.941299 0.0328924 0
956 1 0.916864 0.0391108 0
930 1 0.990059 0.0197905 0
959 1 0.966348 0.0256167 0
929 1 0.9735 0.00142886 0
960 1 0.983939 0.043253 0
932 1 0.528698 0.0608218 0
962 1 0.536109 0.0856883 0
961 1 0.511721 0.0793028 0
60 1 0.504259 0.054939 0
934 1 0.570636 0.049513 0
963 1 0.553298 0.0677316 0
965 1 0.57713 0.0736084 0
936 1 0.594605 0.055167 0
966 1 0.600669 0.0798995 0
967 1 0.618353 0.0602661 0
968 1 0.625079 0.0857084 0
969 1 0.641216 0.0671948 0
970 1 0.664216 0.0587015 0
972 1 0.681058 0.0763607 0
975 1 0.71296 0.0476699 0
973 1 0.688069 0.0527272 0
1003 1 0.704282 0.0715119 0
1004 1 0.721083 0.0903859 0
974 1 0.729755 0.0653908 0
976 1 0.753962 0.0587272 0
1005 1 0.745743 0.0843524 0
1007 1 0.770006 0.0783621 0
979 1 0.802538 0.0475989 0
977 1 0.777875 0.0541282 0
978 1 0.7944 0.0723541 0
1009 1 0.812051 0.0895717 0
980 1 0.819817 0.0655668 0
981 1 0.844214 0.0589646 0
982 1 0.860938 0.0763928 0
1011 1 0.836446 0.0832855 0
983 1 0.868115 0.0510515 0
984 1 0.88588 0.0684694 0
1015 1 0.902816 0.0862253 0
985 1 0.910174 0.0621137 0
986 1 0.926969 0.0806806 0
987 1 0.93467 0.0562777 0
988 1 0.951554 0.0740895 0
958 1 0.959218 0.0496253 0
989 1 0.975587 0.0679396 0
990 1 0.993433 0.0849233 0
991 1 0.518338 0.103671 0
992 1 0.526022 0.127471 0
120 1 0.501369 0.122244 0
993 1 0.543102 0.109991 0
964 1 0.55982 0.0922071 0
994 1 0.567048 0.11515 0
995 1 0.583928 0.0979207 0
1023 1 0.549762 0.133611 0
996 1 0.590999 0.121945 0
997 1 0.607981 0.103677 0
1027 1 0.615572 0.127902 0
998 1 0.632207 0.1105 0
999 1 0.648659 0.0912868 0
1000 1 0.655839 0.116446 0
1001 1 0.671554 0.0989357 0
1029 1 0.640034 0.134511 0
1031 1 0.682357 0.120965 0
1002 1 0.697187 0.0981425 0
1033 1 0.708072 0.125335 0
1035 1 0.736905 0.110356 0
1006 1 0.76242 0.102912 0
1036 1 0.756838 0.127889 0
1034 1 0.73291 0.13453 0
1008 1 0.786878 0.0965218 0
1037 1 0.781072 0.120569 0
1039 1 0.806398 0.113733 0
1040 1 0.823812 0.131922 0
1010 1 0.829579 0.106556 0
1012 1 0.854758 0.100197 0
1041 1 0.847357 0.124528 0
1043 1 0.871452 0.118391 0
1013 1 0.878674 0.0931929 0
1014 1 0.896286 0.11076 0
1044 1 0.889277 0.1354 0
1016 1 0.913682 0.128514 0
1017 1 0.920323 0.10403 0
1018 1 0.944395 0.0973941 0
1047 1 0.937611 0.12221 0
1019 1 0.969251 0.0916241 0
1020 1 0.986561 0.108973 0
1049 1 0.962749 0.116025 0
1050 1 0.980092 0.133459 0
1021 1 0.508986 0.146571 0
1022 1 0.533303 0.153061 0
1053 1 0.539694 0.176978 0
1051 1 0.515817 0.171707 0
1025 1 0.573622 0.139732 0
1024 1 0.557168 0.159026 0
1055 1 0.580325 0.164005 0
1026 1 0.598153 0.146108 0
1028 1 0.622579 0.151629 0
1057 1 0.605734 0.171209 0
1058 1 0.630441 0.176572 0
1059 1 0.647278 0.157816 0
1030 1 0.664688 0.138887 0
1061 1 0.671787 0.162681 0
1060 1 0.655057 0.181582 0
1032 1 0.688946 0.144446 0
1063 1 0.713498 0.150305 0
1062 1 0.696321 0.168602 0
1064 1 0.721113 0.174007 0
1065 1 0.751638 0.152646 0
1066 1 0.7693 0.169563 0
1095 1 0.746255 0.178442 0
1038 1 0.79975 0.138342 0
1067 1 0.7755 0.145523 0
1068 1 0.793016 0.162969 0
1069 1 0.817303 0.155693 0
1099 1 0.810031 0.181007 0
1071 1 0.841634 0.149005 0
1072 1 0.859013 0.166855 0
1070 1 0.834454 0.173277 0
1042 1 0.865031 0.142159 0
1073 1 0.883155 0.160437 0
1074 1 0.901287 0.179396 0
1045 1 0.907496 0.153165 0
1075 1 0.925045 0.17101 0
1046 1 0.931746 0.146502 0
1077 1 0.949747 0.163851 0
1048 1 0.956209 0.139819 0
1079 1 0.974673 0.157208 0
1080 1 0.990732 0.175922 0
151 1 0.997634 0.151605 0
1052 1 0.521189 0.195201 0
1082 1 0.528775 0.21911 0
1081 1 0.504218 0.213476 0
1054 1 0.563689 0.183472 0
1083 1 0.545781 0.200826 0
1085 1 0.571385 0.207083 0
1084 1 0.553858 0.225079 0
1056 1 0.588401 0.188487 0
1086 1 0.595796 0.212553 0
1087 1 0.613281 0.194255 0
1088 1 0.619405 0.218383 0
1089 1 0.637558 0.200059 0
1090 1 0.661861 0.205631 0
1119 1 0.645144 0.224146 0
1091 1 0.67984 0.187444 0
1092 1 0.688543 0.21131 0
1093 1 0.705368 0.192402 0
1123 1 0.71334 0.216968 0
1094 1 0.729643 0.198497 0
1096 1 0.754508 0.204147 0
1125 1 0.738413 0.222424 0
1097 1 0.785966 0.187647 0
1127 1 0.778908 0.211118 0
1098 1 0.802923 0.205155 0
1129 1 0.82311 0.221094 0
1100 1 0.829149 0.196802 0
1101 1 0.852537 0.190476 0
1131 1 0.847199 0.21469 0
1102 1 0.871009 0.209122 0
1103 1 0.877213 0.184789 0
1104 1 0.894864 0.203781 0
1135 1 0.916619 0.219965 0
1105 1 0.919131 0.196152 0
1076 1 0.94274 0.187367 0
1107 1 0.959879 0.207284 0
1078 1 0.96711 0.181511 0
1109 1 0.984553 0.202052 0
1108 1 0.977794 0.225972 0
1111 1 0.510255 0.237825 0
1113 1 0.534255 0.24307 0
1112 1 0.518497 0.262571 0
1143 1 0.542289 0.266966 0
1114 1 0.559488 0.249227 0
1115 1 0.577665 0.231627 0
1116 1 0.584371 0.2553 0
1117 1 0.602675 0.236744 0
1118 1 0.627097 0.242142 0
1147 1 0.609364 0.260124 0
1149 1 0.635241 0.266157 0
1121 1 0.669873 0.229046 0
1120 1 0.651772 0.248028 0
1151 1 0.677748 0.252552 0
1150 1 0.659777 0.27072 0
1122 1 0.695539 0.234387 0
1124 1 0.719504 0.240959 0
1153 1 0.702019 0.258835 0
1154 1 0.725944 0.264843 0
1126 1 0.761576 0.228007 0
1155 1 0.743835 0.246534 0
1157 1 0.769393 0.252765 0
1156 1 0.752004 0.27112 0
1128 1 0.787978 0.235641 0
1159 1 0.813 0.242352 0
1158 1 0.794176 0.259601 0
1160 1 0.819947 0.266356 0
1130 1 0.840601 0.240183 0
1161 1 0.863234 0.256306 0
1191 1 0.844622 0.271588 0
1133 1 0.889308 0.227653 0