ITEM: TIMESTEP
46000
ITEM: NUMBER OF ATOMS
1800
ITEM: BOX BOUNDS pp pp pp
8.7034591204081835e-01 1.6412965408795770e+02
8.7034591204081835e-01 1.6412965408795770e+02
0.0000000000000000e+00 5.5000000000000000e+00
ITEM: ATOMS id type xs ys zs
2 1 0.00841904 0.0202931 0
3 1 0.0329407 0.0145774 0
33 1 0.0247931 0.0380637 0
31 1 0.000827863 0.0436806 0
4 1 0.0500707 0.0320237 0
5 1 0.0572552 0.00752377 0
6 1 0.0758704 0.0242055 0
8 1 0.100706 0.0203652 0
37 1 0.091043 0.0435526 0
9 1 0.120399 0.00490233 0
39 1 0.123369 0.0298678 0
10 1 0.144351 0.0143962 0
41 1 0.167838 0.0245336 0
40 1 0.148212 0.0389991 0
12 1 0.18733 0.00976121 0
43 1 0.190026 0.0354187 0
14 1 0.20998 0.0211262 0
15 1 0.23071 0.00584687 0
45 1 0.232308 0.0311811 0
16 1 0.253936 0.0147031 0
46 1 0.253587 0.0406256 0
18 1 0.276826 0.0272941 0
49 1 0.302374 0.0342267 0
20 1 0.313807 0.0107658 0
17 1 0.27523 0.000426414 0
51 1 0.331087 0.0285261 0
22 1 0.355498 0.02236 0
21 1 0.338877 0.00416999 0
24 1 0.381685 0.0180899 0
55 1 0.39788 0.0359697 0
53 1 0.374 0.0423753 0
25 1 0.40791 0.0132319 0
26 1 0.426488 0.0344977 0
27 1 0.44555 0.0182243 0
28 1 0.453073 0.040855 0
898 1 0.462734 -0.000470744 0
30 1 0.495343 0.0290946 0
29 1 0.47044 0.023302 0
900 1 0.48754 0.00525671 0
32 1 0.0176606 0.0618495 0
62 1 0.0109118 0.0853294 0
63 1 0.0355193 0.0806079 0
34 1 0.0430596 0.0548879 0
35 1 0.0675439 0.0493922 0
36 1 0.0833493 0.0683693 0
65 1 0.0597471 0.0737577 0
38 1 0.106356 0.062063 0
67 1 0.101426 0.0854884 0
68 1 0.126199 0.0775189 0
69 1 0.128803 0.0534008 0
71 1 0.148687 0.0659064 0
42 1 0.169541 0.0506607 0
72 1 0.170595 0.0775789 0
70 1 0.148474 0.0907906 0
44 1 0.211701 0.0461708 0
73 1 0.191372 0.0620446 0
74 1 0.212895 0.0720914 0
103 1 0.192561 0.0878013 0
75 1 0.233072 0.0564916 0
77 1 0.255335 0.0659443 0
76 1 0.234831 0.0813395 0
47 1 0.275909 0.0518889 0
48 1 0.278466 0.0757469 0
79 1 0.301355 0.0841952 0
50 1 0.299337 0.060232 0
81 1 0.322225 0.0511263 0
52 1 0.348802 0.0463832 0
82 1 0.339569 0.0688402 0
80 1 0.325435 0.0890647 0
83 1 0.364588 0.0655673 0
54 1 0.390927 0.0685806 0
113 1 0.374457 0.088254 0
56 1 0.412034 0.0546178 0
57 1 0.436279 0.0582179 0
85 1 0.420862 0.0769047 0
87 1 0.444477 0.0832487 0
59 1 0.477686 0.0461031 0
58 1 0.461121 0.0643683 0
89 1 0.485155 0.0709186 0
88 1 0.468483 0.0887577 0
92 1 0.0220762 0.127846 0
93 1 0.0278683 0.10337 0
91 1 0.0041964 0.109399 0
94 1 0.0466646 0.121817 0
66 1 0.0780514 0.0920126 0
64 1 0.0529519 0.098578 0
95 1 0.0717534 0.11539 0
96 1 0.0894445 0.132928 0
97 1 0.0964469 0.109179 0
98 1 0.114731 0.126156 0
99 1 0.125272 0.103665 0
100 1 0.149092 0.116514 0
101 1 0.171025 0.102819 0
131 1 0.175729 0.12772 0
102 1 0.194224 0.112713 0
104 1 0.217723 0.122539 0
105 1 0.214772 0.0978152 0
107 1 0.257368 0.0904 0
106 1 0.237113 0.106021 0
135 1 0.240337 0.131188 0
137 1 0.259836 0.115044 0
78 1 0.280356 0.0999187 0
108 1 0.283055 0.12432 0
109 1 0.303304 0.107566 0
139 1 0.306665 0.132611 0
110 1 0.325769 0.114067 0
111 1 0.348953 0.0938733 0
141 1 0.349352 0.119297 0
84 1 0.401149 0.0911255 0
112 1 0.386836 0.110761 0
143 1 0.371076 0.129191 0
114 1 0.394439 0.13543 0
115 1 0.410491 0.117509 0
86 1 0.426986 0.100579 0
116 1 0.435214 0.123744 0
117 1 0.452306 0.10653 0
118 1 0.459136 0.130576 0
90 1 0.492333 0.095121 0
119 1 0.475882 0.112333 0
120 1 0.49924 0.119565 0
122 1 0.0156191 0.151959 0
153 1 0.0332093 0.16887 0
152 1 0.00824304 0.175466 0
123 1 0.0402874 0.145502 0
125 1 0.0648752 0.138699 0
124 1 0.0574233 0.162803 0
126 1 0.0804927 0.156559 0
155 1 0.0727831 0.181146 0
127 1 0.10541 0.151087 0
128 1 0.123246 0.168775 0
157 1 0.0976975 0.174394 0
129 1 0.130013 0.144703 0
159 1 0.147007 0.162543 0
130 1 0.15543 0.140196 0
161 1 0.165848 0.17668 0
132 1 0.178751 0.153436 0
133 1 0.198016 0.138364 0
134 1 0.221617 0.147396 0
163 1 0.20237 0.163592 0
164 1 0.226544 0.173213 0
136 1 0.264379 0.13931 0
165 1 0.244742 0.156856 0
166 1 0.250078 0.181246 0
167 1 0.269056 0.165766 0
138 1 0.287901 0.149194 0
169 1 0.311942 0.155903 0
168 1 0.293476 0.173539 0
170 1 0.317838 0.179336 0
140 1 0.33083 0.137804 0
142 1 0.353472 0.145493 0
171 1 0.336315 0.162304 0
172 1 0.360072 0.169266 0
144 1 0.40113 0.159265 0
173 1 0.378214 0.152743 0
174 1 0.383856 0.176423 0
145 1 0.418514 0.141415 0
146 1 0.42497 0.16595 0
147 1 0.441605 0.147957 0
177 1 0.449178 0.172743 0
149 1 0.482477 0.136938 0
148 1 0.465843 0.154974 0
150 1 0.490241 0.161165 0
179 1 0.473221 0.179073 0
183 1 0.0254211 0.193602 0
182 1 0.0188386 0.217549 0
184 1 0.0426593 0.211457 0
181 1 0.00167295 0.198524 0
154 1 0.0494808 0.186697 0
185 1 0.0662753 0.205009 0
186 1 0.0833511 0.222616 0
156 1 0.0907557 0.198236 0
158 1 0.115201 0.19196 0
187 1 0.10765 0.215746 0
189 1 0.130315 0.210083 0
160 1 0.143257 0.188063 0
191 1 0.166617 0.201593 0
190 1 0.151488 0.220616 0
221 1 0.175452 0.22731 0
162 1 0.187419 0.184683 0
193 1 0.210495 0.191751 0
192 1 0.191437 0.210006 0
194 1 0.215474 0.215593 0
195 1 0.233705 0.199239 0
196 1 0.257044 0.206187 0
225 1 0.238842 0.223251 0
197 1 0.275258 0.190369 0
199 1 0.299756 0.196447 0
198 1 0.28226 0.213706 0
229 1 0.305708 0.220703 0
201 1 0.341937 0.185767 0
200 1 0.324178 0.203551 0
202 1 0.347154 0.210843 0
203 1 0.365508 0.194054 0
233 1 0.371488 0.217335 0
204 1 0.390334 0.201122 0
175 1 0.408053 0.183856 0
235 1 0.396587 0.224985 0
205 1 0.414127 0.207115 0
176 1 0.432552 0.190335 0
207 1 0.438007 0.215498 0
178 1 0.456202 0.197613 0
208 1 0.461384 0.222363 0
180 1 0.495617 0.186388 0
209 1 0.479331 0.203999 0
213 1 0.0364241 0.235796 0
212 1 0.0113843 0.240427 0
243 1 0.0295115 0.259034 0
241 1 0.00581498 0.265404 0
215 1 0.0595824 0.228461 0
216 1 0.0781564 0.246923 0
214 1 0.053629 0.253408 0
245 1 0.071488 0.269701 0
217 1 0.100982 0.239139 0
218 1 0.115062 0.257723 0
188 1 0.13075 0.23621 0
219 1 0.138929 0.262354 0
220 1 0.15693 0.244936 0
251 1 0.16235 0.269233 0
222 1 0.18036 0.251159 0
223 1 0.198972 0.233603 0
224 1 0.222179 0.24034 0
253 1 0.203782 0.25808 0
255 1 0.227904 0.264686 0
227 1 0.264042 0.230064 0
226 1 0.245786 0.246488 0
257 1 0.270419 0.254293 0
256 1 0.251647 0.27153 0
228 1 0.288434 0.237786 0
230 1 0.31262 0.244968 0
259 1 0.294901 0.261841 0
260 1 0.317918 0.269527 0
231 1 0.329834 0.227984 0
232 1 0.35389 0.235054 0
261 1 0.336265 0.252223 0
263 1 0.359921 0.258822 0
234 1 0.377887 0.241203 0
265 1 0.401888 0.249672 0
264 1 0.383298 0.264939 0
206 1 0.420057 0.232788 0
236 1 0.425934 0.258362 0
237 1 0.443772 0.240556 0
238 1 0.449936 0.264649 0
210 1 0.485916 0.229505 0
239 1 0.467879 0.245988 0
240 1 0.49208 0.253694 0
269 1 0.473173 0.270907 0
242 1 0.0230744 0.282973 0
273 1 0.0361201 0.303487 0
244 1 0.0490607 0.279682 0
246 1 0.0786523 0.292981 0
275 1 0.0601846 0.310634 0
276 1 0.0842028 0.316225 0
247 1 0.0957894 0.272613 0
249 1 0.120714 0.281563 0
248 1 0.102542 0.297845 0
279 1 0.126689 0.304825 0
250 1 0.14488 0.287552 0
280 1 0.151176 0.311193 0
281 1 0.168395 0.292938 0
282 1 0.174678 0.317259 0
252 1 0.186405 0.275358 0
254 1 0.211036 0.282981 0
283 1 0.192811 0.299236 0
284 1 0.216859 0.307477 0
285 1 0.234999 0.289535 0
287 1 0.258349 0.296535 0
286 1 0.241277 0.314151 0
258 1 0.275573 0.27811 0
288 1 0.281384 0.302367 0
289 1 0.299633 0.286206 0
290 1 0.303853 0.311373 0
262 1 0.341028 0.276443 0
291 1 0.322879 0.294682 0
292 1 0.347936 0.300162 0
266 1 0.407691 0.274107 0
293 1 0.36491 0.281957 0
294 1 0.365761 0.31719 0
295 1 0.388374 0.287711 0
296 1 0.389723 0.311662 0
267 1 0.431564 0.282818 0
297 1 0.412083 0.29907 0
298 1 0.43184 0.315781 0
268 1 0.455594 0.288786 0
1141 1 0.497815 0.277726 0
270 1 0.480646 0.296074 0
299 1 0.461532 0.313201 0
1200 1 0.00137252 0.339109 0
271 1 0.0178796 0.321156 0
272 1 0.0420824 0.327834 0
301 1 0.0248734 0.345359 0
303 1 0.0497994 0.351364 0
274 1 0.066649 0.333765 0
304 1 0.0749899 0.356676 0
305 1 0.0921371 0.339209 0
277 1 0.109463 0.321687 0
307 1 0.116921 0.345052 0
278 1 0.134389 0.329268 0
306 1 0.0990347 0.36201 0
309 1 0.140494 0.352587 0
311 1 0.15753 0.335448 0
310 1 0.164945 0.359787 0
312 1 0.182548 0.341926 0
313 1 0.19878 0.323948 0
314 1 0.206178 0.348601 0
315 1 0.223192 0.33188 0
345 1 0.229301 0.357666 0
317 1 0.264825 0.321488 0
316 1 0.246783 0.339798 0
318 1 0.270064 0.345197 0
319 1 0.293011 0.334821 0
320 1 0.312444 0.354013 0
349 1 0.289094 0.359763 0
321 1 0.317606 0.331157 0
323 1 0.341475 0.324147 0
322 1 0.336949 0.349007 0
324 1 0.360675 0.341201 0
325 1 0.383942 0.334451 0
355 1 0.379146 0.358693 0
326 1 0.403148 0.350536 0
327 1 0.409164 0.325757 0
328 1 0.427144 0.343139 0
329 1 0.449432 0.33482 0
359 1 0.445925 0.359916 0
300 1 0.485783 0.320775 0
1201 1 0.493965 0.344016 0
330 1 0.4697 0.351386 0
1230 1 0.00792378 0.363081 0
302 1 0.031991 0.369063 0
332 1 0.0389203 0.39271 0
331 1 0.0140917 0.386796 0
333 1 0.0562111 0.37422 0
335 1 0.0802787 0.379716 0
334 1 0.063848 0.397568 0
336 1 0.0876052 0.402768 0
308 1 0.123101 0.369007 0
337 1 0.104501 0.385496 0
338 1 0.129247 0.392882 0
339 1 0.147369 0.376914 0
341 1 0.171514 0.383877 0
340 1 0.154473 0.400232 0
343 1 0.189031 0.365949 0
342 1 0.193767 0.393685 0
344 1 0.211704 0.375756 0
375 1 0.218012 0.399346 0
347 1 0.253783 0.364679 0
346 1 0.235262 0.381136 0
377 1 0.258558 0.389911 0
348 1 0.282183 0.384197 0
350 1 0.307106 0.379179 0
379 1 0.29956 0.403065 0
378 1 0.275815 0.408155 0
353 1 0.35522 0.365509 0
351 1 0.331349 0.372552 0
381 1 0.325369 0.396331 0
352 1 0.34929 0.389172 0
383 1 0.367182 0.406622 0
354 1 0.372791 0.382082 0
385 1 0.391268 0.398331 0
356 1 0.397797 0.374777 0
357 1 0.422329 0.368104 0
358 1 0.440432 0.384573 0
387 1 0.415232 0.39244 0
388 1 0.432588 0.409215 0
389 1 0.457326 0.401593 0
1231 1 0.487667 0.36874 0
360 1 0.463216 0.376725 0
1232 1 0.480856 0.393999 0
361 1 0.0218985 0.410579 0
362 1 0.0297119 0.433701 0
392 1 0.0120198 0.452009 0
391 1 0.00474826 0.42786 0
363 1 0.0466157 0.415174 0
364 1 0.0541856 0.438154 0
365 1 0.0707578 0.42121 0
395 1 0.0786694 0.444374 0
367 1 0.111897 0.409507 0
366 1 0.0952574 0.426445 0
397 1 0.102344 0.450756 0
368 1 0.119993 0.433199 0
369 1 0.136855 0.415707 0
371 1 0.178118 0.412725 0
370 1 0.145144 0.437974 0
401 1 0.170783 0.439787 0
372 1 0.195165 0.443056 0
373 1 0.202932 0.418503 0
403 1 0.219665 0.445596 0
374 1 0.227563 0.421491 0
376 1 0.252165 0.414396 0
405 1 0.244854 0.439469 0
407 1 0.269156 0.432191 0
409 1 0.293336 0.425729 0
410 1 0.311061 0.443692 0
380 1 0.318783 0.419552 0
408 1 0.286008 0.450445 0
382 1 0.343171 0.412181 0
411 1 0.33586 0.436739 0
413 1 0.360085 0.431201 0
412 1 0.353501 0.455602 0
384 1 0.385053 0.424008 0
414 1 0.377814 0.44859 0
415 1 0.402994 0.440393 0
386 1 0.408121 0.416363 0
417 1 0.4271 0.433763 0
418 1 0.444941 0.451431 0
419 1 0.450903 0.4262 0
1261 1 0.475534 0.419161 0
390 1 0.469111 0.443732 0
1291 1 0.494293 0.435378 0
1262 1 0.500462 0.410153 0
393 1 0.0374412 0.457911 0
422 1 0.0205765 0.475245 0
451 1 0.00421563 0.493961 0
423 1 0.0456386 0.481038 0
453 1 0.0288086 0.499007 0
394 1 0.0616698 0.462355 0
396 1 0.0863364 0.468442 0
425 1 0.0695529 0.4862 0
399 1 0.128593 0.455965 0
398 1 0.111312 0.474075 0
427 1 0.0934349 0.491609 0
428 1 0.118854 0.496313 0
429 1 0.137347 0.478367 0
400 1 0.154521 0.460532 0
431 1 0.162871 0.484336 0
402 1 0.179598 0.464193 0
432 1 0.18713 0.488312 0
433 1 0.204269 0.467976 0
434 1 0.210689 0.494085 0
406 1 0.262278 0.457679 0
404 1 0.238681 0.465326 0
436 1 0.257396 0.481697 0
435 1 0.23402 0.48893 0
437 1 0.281003 0.474489 0
438 1 0.298609 0.492244 0
439 1 0.305418 0.46758 0
467 1 0.274463 0.499581 0
440 1 0.323222 0.485214 0
441 1 0.32998 0.460706 0
442 1 0.348187 0.479276 0
443 1 0.371396 0.471784 0
445 1 0.397077 0.464244 0
444 1 0.390333 0.488522 0
473 1 0.36664 0.495816 0
416 1 0.420838 0.457654 0
446 1 0.414697 0.481324 0
447 1 0.439427 0.475435 0
448 1 0.432554 0.498843 0
1321 1 0.488406 0.459317 0
450 1 0.48214 0.484497 0
449 1 0.457415 0.492424 0
420 1 0.46393 0.467911 0
452 1 0.0126943 0.51758 0
483 1 0.019368 0.542128 0
454 1 0.0366902 0.524155 0
455 1 0.0615675 0.529149 0
456 1 0.0856554 0.535202 0
426 1 0.0780142 0.510441 0
424 1 0.0531926 0.5048 0
458 1 0.110274 0.535362 0
459 1 0.127103 0.518355 0
457 1 0.101746 0.514027 0
489 1 0.135281 0.541353 0
460 1 0.152508 0.524712 0
462 1 0.175885 0.531552 0
461 1 0.169504 0.50764 0
430 1 0.145024 0.501007 0
463 1 0.193748 0.512919 0
493 1 0.200137 0.537795 0
464 1 0.220168 0.517304 0
495 1 0.223412 0.541117 0
466 1 0.245558 0.530784 0
497 1 0.269451 0.523518 0
465 1 0.250363 0.506734 0
468 1 0.293436 0.515759 0
499 1 0.310904 0.533031 0
498 1 0.287586 0.539868 0
469 1 0.317395 0.509405 0
470 1 0.33502 0.525841 0
472 1 0.359276 0.521022 0
471 1 0.342552 0.502229 0
501 1 0.352415 0.544898 0
503 1 0.37741 0.537656 0
474 1 0.384165 0.512924 0
475 1 0.408408 0.505659 0
476 1 0.401629 0.529415 0
477 1 0.426468 0.52238 0
478 1 0.451025 0.515857 0
507 1 0.444737 0.54051 0
1351 1 0.499521 0.501479 0
480 1 0.468621 0.533869 0
479 1 0.47514 0.509475 0
1381 1 0.492282 0.526502 0
485 1 0.0443958 0.548076 0
482 1 0.00280335 0.559388 0
513 1 0.026767 0.566272 0
512 1 0.0327475 0.589472 0
541 1 0.00873313 0.584311 0
486 1 0.0687938 0.554635 0
484 1 0.051681 0.572765 0
515 1 0.0764658 0.580586 0
487 1 0.0927947 0.560588 0
488 1 0.11758 0.557717 0
519 1 0.120945 0.580358 0
491 1 0.158574 0.548949 0
490 1 0.140202 0.565348 0
521 1 0.164102 0.57333 0
520 1 0.143832 0.589024 0
492 1 0.183758 0.557071 0
523 1 0.186891 0.582428 0
494 1 0.211395 0.563816 0
524 1 0.209826 0.589853 0
525 1 0.233261 0.580152 0
496 1 0.241114 0.556841 0
526 1 0.258041 0.574222 0
527 1 0.264846 0.54848 0
529 1 0.305669 0.558152 0
528 1 0.281906 0.565494 0
559 1 0.299908 0.583081 0
558 1 0.275795 0.589913 0
530 1 0.323761 0.574975 0
500 1 0.329427 0.551284 0
531 1 0.348018 0.568276 0
502 1 0.371322 0.562627 0
505 1 0.395318 0.554051 0
504 1 0.389517 0.578244 0
533 1 0.365359 0.586655 0
506 1 0.419129 0.547079 0
535 1 0.413288 0.57118 0
508 1 0.437446 0.563861 0
537 1 0.431634 0.589434 0
539 1 0.455205 0.581593 0
509 1 0.46236 0.557803 0
510 1 0.486372 0.551201 0
540 1 0.480144 0.575866 0
542 1 0.0153137 0.607391 0
571 1 0.00750641 0.631936 0
543 1 0.0383671 0.613374 0
514 1 0.0568743 0.596891 0
516 1 0.079811 0.607665 0
545 1 0.0608802 0.623459 0
546 1 0.0828534 0.632327 0
517 1 0.0991246 0.592435 0
518 1 0.123428 0.604565 0
547 1 0.102207 0.617608 0
548 1 0.125612 0.629159 0
522 1 0.166626 0.598279 0
549 1 0.146058 0.613008 0
551 1 0.168602 0.622897 0
553 1 0.189018 0.607663 0
552 1 0.190636 0.633256 0
554 1 0.210347 0.619011 0
555 1 0.229213 0.605274 0
556 1 0.247046 0.621349 0
557 1 0.251895 0.597719 0
587 1 0.2701 0.614941 0
560 1 0.293244 0.606944 0
591 1 0.311315 0.624827 0
589 1 0.287489 0.632801 0
561 1 0.317615 0.600326 0
532 1 0.34122 0.593079 0
562 1 0.336043 0.617153 0
563 1 0.359789 0.610534 0
564 1 0.354349 0.634403 0
534 1 0.383806 0.603743 0
565 1 0.378195 0.62821 0
566 1 0.402008 0.620677 0
536 1 0.407324 0.595897 0
567 1 0.425637 0.613525 0
538 1 0.450107 0.607352 0
597 1 0.443066 0.631942 0
1441 1 0.498189 0.593072 0
568 1 0.46733 0.624207 0
569 1 0.473188 0.599826 0
570 1 0.491734 0.616662 0
544 1 0.0394433 0.638204 0
573 1 0.0196909 0.652792 0
603 1 0.021393 0.678105 0
574 1 0.0423335 0.662417 0
575 1 0.0626228 0.647474 0
605 1 0.0646766 0.672873 0
576 1 0.0851777 0.657676 0
577 1 0.105602 0.643454 0
578 1 0.107935 0.668324 0
579 1 0.128233 0.653675 0
609 1 0.130879 0.678443 0
550 1 0.148248 0.63837 0
581 1 0.170083 0.648506 0
580 1 0.150497 0.663671 0
611 1 0.172929 0.673231 0
583 1 0.213285 0.643168 0
582 1 0.192331 0.658068 0
584 1 0.214291 0.667824 0
585 1 0.238642 0.648248 0
586 1 0.26388 0.639762 0
615 1 0.237269 0.672271 0
617 1 0.260128 0.663474 0
588 1 0.283598 0.656749 0
590 1 0.306117 0.649166 0
619 1 0.300615 0.673668 0
618 1 0.277022 0.681252 0
593 1 0.329008 0.64138 0
621 1 0.324022 0.6662 0
592 1 0.347602 0.658605 0
594 1 0.371891 0.652146 0
595 1 0.396281 0.645702 0
625 1 0.389296 0.670617 0
623 1 0.365357 0.675922 0
627 1 0.41395 0.662991 0
596 1 0.419817 0.637818 0
598 1 0.437226 0.656499 0
657 1 0.430669 0.6806 0
628 1 0.455609 0.673431 0
599 1 0.46086 0.64845 0
600 1 0.484958 0.641169 0
629 1 0.478366 0.666276 0
602 1 0.00283383 0.69454 0
633 1 0.0253558 0.703244 0
604 1 0.0449214 0.688922 0
607 1 0.0887659 0.683036 0
606 1 0.0685263 0.697371 0
635 1 0.048974 0.71271 0
636 1 0.0720802 0.722109 0
637 1 0.091683 0.707546 0
608 1 0.111489 0.692821 0
638 1 0.11474 0.71741 0
639 1 0.134787 0.703442 0
610 1 0.15355 0.68889 0
641 1 0.157103 0.713247 0
612 1 0.177583 0.697993 0
642 1 0.180414 0.723788 0
613 1 0.196638 0.682945 0
614 1 0.222015 0.692821 0
643 1 0.199674 0.707629 0
645 1 0.223479 0.7188 0
616 1 0.254496 0.688722 0
646 1 0.246383 0.7116 0
647 1 0.271237 0.706101 0
649 1 0.294054 0.697659 0
650 1 0.310744 0.716009 0
648 1 0.286941 0.72425 0
620 1 0.317954 0.691004 0
622 1 0.34219 0.684153 0
651 1 0.335233 0.7078 0
653 1 0.359324 0.701607 0
652 1 0.35267 0.72623 0
624 1 0.383442 0.69492 0
655 1 0.401215 0.712184 0
654 1 0.376248 0.7194 0
626 1 0.406906 0.68803 0
656 1 0.42505 0.70522 0
658 1 0.448592 0.697467 0
687 1 0.44229 0.723 0
630 1 0.496052 0.683265 0
659 1 0.47245 0.691547 0
660 1 0.490018 0.709194 0
689 1 0.466287 0.717252 0
634 1 0.0289874 0.72777 0
662 1 0.0103241 0.76694 0
663 1 0.00904 0.741824 0
664 1 0.0317788 0.752332 0
665 1 0.05232 0.736834 0
666 1 0.075089 0.746776 0
695 1 0.0544713 0.761879 0
697 1 0.0770631 0.771386 0
667 1 0.0951685 0.732649 0
669 1 0.11708 0.742301 0
668 1 0.0977388 0.757122 0
699 1 0.120147 0.76705 0
640 1 0.13766 0.728205 0
671 1 0.159682 0.737946 0
670 1 0.139816 0.752928 0
672 1 0.162687 0.763049 0
644 1 0.2042 0.733939 0
673 1 0.183672 0.74788 0
674 1 0.206452 0.757827 0
703 1 0.185147 0.77307 0
675 1 0.235123 0.740326 0
705 1 0.230323 0.766005 0
677 1 0.26268 0.7308 0
676 1 0.254065 0.756149 0
679 1 0.304401 0.740558 0
678 1 0.2798 0.748322 0
709 1 0.298581 0.765254 0
707 1 0.27417 0.772559 0
680 1 0.322993 0.757353 0
681 1 0.328671 0.73378 0
682 1 0.347315 0.750273 0
683 1 0.370961 0.743158 0
684 1 0.387755 0.760592 0
685 1 0.395884 0.736526 0
713 1 0.36479 0.767858 0
715 1 0.412865 0.753289 0
686 1 0.418675 0.729569 0
717 1 0.437191 0.748258 0
716 1 0.430669 0.771981 0
718 1 0.454862 0.766951 0
688 1 0.460545 0.742792 0
690 1 0.485192 0.735774 0
719 1 0.478567 0.761226 0
694 1 0.0326233 0.776445 0
693 1 0.0139928 0.791556 0
692 1 0.0125179 0.815831 0
723 1 0.0360315 0.800841 0
696 1 0.0563086 0.786045 0
725 1 0.0594878 0.810727 0
727 1 0.0794343 0.796815 0
698 1 0.0996756 0.782362 0
728 1 0.100792 0.807509 0
700 1 0.122083 0.792612 0
729 1 0.124221 0.817656 0
701 1 0.141935 0.778022 0
731 1 0.144615 0.803102 0
732 1 0.167265 0.812661 0
702 1 0.164995 0.787748 0
704 1 0.208199 0.781685 0
733 1 0.187356 0.796926 0
734 1 0.21191 0.808253 0
735 1 0.22958 0.790431 0
706 1 0.251799 0.781139 0
736 1 0.246855 0.807152 0
737 1 0.270003 0.797622 0
708 1 0.293045 0.790098 0
739 1 0.311658 0.80606 0
738 1 0.287998 0.814632 0
710 1 0.31721 0.781491 0
711 1 0.340411 0.775088 0
741 1 0.335489 0.79882 0
712 1 0.359444 0.792242 0
742 1 0.352031 0.817737 0
743 1 0.382254 0.785861 0
745 1 0.400154 0.804078 0
744 1 0.376566 0.811466 0
714 1 0.407049 0.778477 0
747 1 0.448926 0.790379 0
746 1 0.424167 0.795397 0
748 1 0.450659 0.816445 0
720 1 0.488241 0.784012 0
749 1 0.470912 0.801293 0
1621 1 0.495042 0.80778 0
722 1 0.0375936 0.824999 0
751 1 0.0171649 0.839261 0
753 1 0.0391576 0.84913 0
752 1 0.0175901 0.863719 0
726 1 0.0813643 0.822371 0
724 1 0.0598654 0.835047 0
755 1 0.0824048 0.847102 0
754 1 0.0616869 0.86075 0
756 1 0.106544 0.85811 0
757 1 0.10363 0.832896 0
759 1 0.127052 0.842142 0
730 1 0.146466 0.827415 0
760 1 0.150593 0.852061 0
761 1 0.169689 0.836496 0
791 1 0.173187 0.861829 0
763 1 0.189954 0.822658 0
762 1 0.19329 0.84697 0
764 1 0.213277 0.832112 0
795 1 0.228528 0.852675 0
767 1 0.26458 0.823283 0
765 1 0.238144 0.830129 0
766 1 0.256391 0.846558 0
768 1 0.280998 0.841467 0
769 1 0.30518 0.833327 0
799 1 0.298679 0.858572 0
770 1 0.323586 0.850216 0
740 1 0.328191 0.823955 0
771 1 0.345857 0.842112 0
772 1 0.362778 0.860202 0
773 1 0.370845 0.836499 0
774 1 0.395969 0.829799 0
803 1 0.387746 0.85473 0
775 1 0.420335 0.819404 0
777 1 0.435825 0.837836 0
776 1 0.417603 0.853805 0
778 1 0.442641 0.862939 0
750 1 0.475911 0.825276 0
779 1 0.459371 0.842736 0
780 1 0.483639 0.848876 0
783 1 0.0396518 0.873768 0
782 1 0.0188672 0.888243 0
813 1 0.041237 0.898998 0
785 1 0.0837765 0.871569 0
784 1 0.0624116 0.885009 0
786 1 0.0860888 0.895955 0
758 1 0.128733 0.867511 0
787 1 0.107218 0.882987 0
788 1 0.130597 0.892046 0
817 1 0.109341 0.906765 0
789 1 0.152071 0.876777 0
790 1 0.153401 0.901142 0
792 1 0.174806 0.885897 0
793 1 0.195118 0.871527 0
823 1 0.198746 0.895402 0
794 1 0.22 0.879546 0
824 1 0.22119 0.906103 0
796 1 0.248631 0.8693 0
825 1 0.241693 0.893051 0
827 1 0.266035 0.887449 0
797 1 0.273554 0.86465 0
798 1 0.290956 0.882557 0
800 1 0.316843 0.875425 0
829 1 0.308181 0.899192 0
828 1 0.283497 0.905675 0
801 1 0.340019 0.867706 0
831 1 0.332501 0.894154 0
802 1 0.355416 0.887702 0
804 1 0.378991 0.87973 0
805 1 0.403351 0.874728 0
833 1 0.374327 0.903343 0
806 1 0.408468 0.898907 0
807 1 0.427064 0.881769 0
837 1 0.433526 0.904888 0
808 1 0.450448 0.885694 0
809 1 0.467202 0.867525 0
1681 1 0.491565 0.872724 0
810 1 0.474033 0.89132 0
1711 1 0.498399 0.896472 0
812 1 0.0206481 0.913475 0
843 1 0.0246659 0.93722 0
841 1 -0.000749555 0.927736 0
842 1 0.00550837 0.951768 0
815 1 0.0659722 0.910495 0
814 1 0.0449141 0.923941 0
844 1 0.0479468 0.94752 0
845 1 0.0690795 0.93558 0
816 1 0.0890279 0.920969 0
847 1 0.0934235 0.946589 0
819 1 0.13173 0.916085 0
818 1 0.112395 0.931028 0
849 1 0.135851 0.940028 0
821 1 0.177005 0.910501 0
820 1 0.15532 0.925206 0
850 1 0.159423 0.949908 0
851 1 0.178908 0.934752 0
822 1 0.200845 0.920855 0
853 1 0.20219 0.945589 0
855 1 0.222701 0.930624 0
826 1 0.25824 0.911408 0
856 1 0.24803 0.938275 0
887 1 0.269154 0.951853 0
857 1 0.27566 0.92827 0
858 1 0.29303 0.946723 0
859 1 0.300849 0.923334 0
860 1 0.31691 0.941877 0
832 1 0.350554 0.912855 0
830 1 0.324906 0.918039 0
861 1 0.341056 0.936528 0
863 1 0.370243 0.930329 0
834 1 0.393181 0.919164 0
865 1 0.401436 0.941681 0
864 1 0.381429 0.953012 0
835 1 0.417614 0.923495 0
838 1 0.441972 0.9288 0
836 1 0.424504 0.946778 0
867 1 0.448285 0.952783 0
839 1 0.457795 0.909639 0
1741 1 0.489335 0.939421 0
840 1 0.482792 0.915961 0
869 1 0.465723 0.934515 0
872 1 0.0154072 0.996257 0
873 1 0.026283 0.968655 0
871 1 0.000196131 0.977739 0
874 1 0.0391655 0.991558 0
846 1 0.0726578 0.960157 0
875 1 0.0519613 0.972195 0
876 1 0.0727539 0.986858 0
848 1 0.115841 0.95648 0
7 1 0.0964345 0.996196 0
877 1 0.0942176 0.972118 0
878 1 0.116957 0.980888 0
879 1 0.139146 0.965709 0
880 1 0.141981 0.990833 0
881 1 0.1615 0.974683 0
11 1 0.165083 0.999876 0
852 1 0.182688 0.960119 0
854 1 0.226215 0.954398 0
882 1 0.184572 0.98452 0
883 1 0.205566 0.970408 0
13 1 0.20778 0.994728 0
884 1 0.230024 0.979626 0
885 1 0.248528 0.964759 0
886 1 0.252127 0.989207 0
888 1 0.282829 0.972132 0
889 1 0.307944 0.965813 0
19 1 0.298369 0.990946 0
862 1 0.357488 0.956528 0
890 1 0.322982 0.98502 0
891 1 0.332059 0.961029 0
892 1 0.347871 0.980725 0
23 1 0.363974 0.999471 0
893 1 0.373652 0.976796 0
895 1 0.405646 0.96512 0
894 1 0.389007 0.995334 0
896 1 0.412427 0.988911 0
866 1 0.430635 0.970591 0
897 1 0.437745 0.994836 0
868 1 0.454449 0.976662 0
870 1 0.472519 0.958342 0
1771 1 0.49706 0.964006 0
899 1 0.479598 0.981615 0
902 1 0.536105 0.0179111 0
931 1 0.5197 0.0354619 0
901 1 0.512117 0.0118524 0
933 1 0.544328 0.0423357 0
904 1 0.561376 0.0252046 0
935 1 0.585146 0.0299592 0
906 1 0.577339 0.00616524 0
905 1 0.553245 -0.000217112 0
908 1 0.601561 0.0117532 0
937 1 0.608928 0.0356928 0
939 1 0.625681 0.0182606 0
938 1 0.634222 0.0415826 0
941 1 0.651087 0.0233737 0
912 1 0.667488 0.00406396 0
942 1 0.67635 0.0281877 0
943 1 0.691607 0.00837778 0
944 1 0.699928 0.0363162 0
945 1 0.714806 0.0181201 0
975 1 0.725063 0.0403485 0
947 1 0.739347 0.0183151 0
918 1 0.764208 0.0149917 0
946 1 0.749687 0.0424497 0
948 1 0.77355 0.039617 0
919 1 0.789816 0.0104366 0
949 1 0.7988 0.0394025 0
920 1 0.832059 0.0159324 0
951 1 0.848296 0.0352565 0
922 1 0.855279 0.0111032 0
950 1 0.82294 0.0381084 0
953 1 0.871398 0.0295768 0
924 1 0.879281 0.00522546 0
955 1 0.895314 0.0242734 0
925 1 0.902832 -0.000462878 0
926 1 0.920182 0.0179484 0
928 1 0.943377 0.0134199 0
957 1 0.936217 0.0371738 0
956 1 0.912503 0.0422853 0
930 1 0.98417 0.025535 0
959 1 0.960336 0.0315662 0
929 1 0.967763 0.007406 0
1 1 0.991695 0.0016007 0
932 1 0.526615 0.0595241 0
962 1 0.533799 0.0837706 0
961 1 0.509543 0.0772718 0
60 1 0.502446 0.0536508 0
963 1 0.551569 0.0659993 0
934 1 0.568376 0.0481296 0
965 1 0.575106 0.0716832 0
964 1 0.557702 0.0906897 0
936 1 0.592247 0.052974 0
966 1 0.599529 0.0776049 0
967 1 0.616918 0.0589572 0
968 1 0.623265 0.0835466 0
940 1 0.658792 0.0473713 0
969 1 0.641216 0.0652515 0
970 1 0.665435 0.0712035 0
999 1 0.646976 0.0896866 0
971 1 0.683021 0.0550526 0
972 1 0.690457 0.0780958 0
973 1 0.709221 0.0603676 0
1003 1 0.719516 0.0828931 0
974 1 0.736841 0.0635194 0
976 1 0.763384 0.0626912 0
1005 1 0.754047 0.0868314 0
1007 1 0.778966 0.0838186 0
977 1 0.789342 0.0612019 0
979 1 0.813691 0.0611053 0
978 1 0.804547 0.0829076 0
980 1 0.829341 0.0816419 0
981 1 0.8381 0.0581844 0
952 1 0.862734 0.0539006 0
954 1 0.888098 0.0483867 0
982 1 0.879822 0.0709458 0
983 1 0.905094 0.066334 0
984 1 0.895703 0.0900456 0
985 1 0.919967 0.08474 0
987 1 0.929628 0.0611383 0
988 1 0.945862 0.0793644 0
958 1 0.95397 0.055207 0
960 1 0.977462 0.0486433 0
989 1 0.97018 0.0730212 0
61 1 0.993865 0.0674047 0
991 1 0.515742 0.101212 0
992 1 0.523269 0.125908 0
993 1 0.54058 0.108588 0
994 1 0.564896 0.114336 0
995 1 0.582592 0.0962818 0
1023 1 0.547956 0.131709 0
996 1 0.588965 0.12008 0
997 1 0.606141 0.101823 0
998 1 0.630748 0.108413 0
1027 1 0.613553 0.12551 0
1029 1 0.638427 0.132035 0
1000 1 0.655736 0.114902 0
1001 1 0.672035 0.0958275 0
1031 1 0.680239 0.119739 0
1002 1 0.69715 0.10131 0
1004 1 0.721364 0.10804 0
1033 1 0.705234 0.125341 0
1034 1 0.732423 0.1315 0
1006 1 0.77029 0.107321 0
1035 1 0.745518 0.110121 0
1036 1 0.758909 0.130516 0
1037 1 0.783653 0.128348 0
1008 1 0.795269 0.1063 0
1039 1 0.808813 0.127407 0
1009 1 0.820388 0.104711 0
1011 1 0.846267 0.100828 0
1010 1 0.837189 0.125152 0
1012 1 0.863486 0.119427 0
1013 1 0.870779 0.0939525 0
1014 1 0.888391 0.113795 0
1016 1 0.906473 0.132725 0
1015 1 0.913192 0.108514 0
986 1 0.936829 0.101971 0
1017 1 0.931004 0.126012 0
990 1 0.986424 0.0913764 0
121 1 0.997732 0.133375 0
1018 1 0.955433 0.120154 0
1019 1 0.962479 0.0968228 0
1020 1 0.979923 0.114812 0
1022 1 0.530779 0.150239 0
1053 1 0.537488 0.174877 0
1051 1 0.513581 0.169119 0
1021 1 0.506952 0.143586 0
1024 1 0.554658 0.15666 0
1025 1 0.572133 0.138222 0
1055 1 0.578766 0.161615 0
1054 1 0.562254 0.18036 0
1026 1 0.596781 0.144399 0
1028 1 0.62086 0.149263 0
1057 1 0.602867 0.167819 0
1058 1 0.627148 0.174348 0
1059 1 0.645201 0.156272 0
1030 1 0.663584 0.138403 0
1061 1 0.669289 0.162317 0
1060 1 0.651647 0.181178 0
1032 1 0.688034 0.143322 0
1063 1 0.712396 0.148689 0
1064 1 0.716874 0.172711 0
1062 1 0.692891 0.16749 0
1065 1 0.748632 0.154618 0
1066 1 0.764918 0.17494 0
1095 1 0.740958 0.180662 0
1067 1 0.774222 0.1515 0
1038 1 0.798715 0.14989 0
1069 1 0.813921 0.169163 0
1068 1 0.788656 0.173107 0
1040 1 0.824171 0.146113 0
1041 1 0.856383 0.144176 0
1071 1 0.841562 0.164339 0
1043 1 0.881455 0.136977 0
1042 1 0.876118 0.161786 0
1045 1 0.899699 0.155593 0
1044 1 0.896153 0.180996 0
1047 1 0.926332 0.151265 0
1049 1 0.950023 0.144609 0
1046 1 0.919194 0.174621 0
1048 1 0.943603 0.169324 0
1050 1 0.974173 0.138916 0
1079 1 0.967837 0.162546 0
151 1 0.992035 0.157007 0
1080 1 0.984188 0.180931 0
1052 1 0.51991 0.193055 0
1082 1 0.527194 0.217025 0
1081 1 0.502827 0.211362 0
1083 1 0.544739 0.199292 0
1084 1 0.550801 0.223128 0
1056 1 0.585446 0.186704 0
1085 1 0.568254 0.20508 0
1086 1 0.592024 0.210878 0
1087 1 0.609275 0.192078 0
1088 1 0.615116 0.216325 0
1089 1 0.633071 0.198667 0
1119 1 0.639337 0.22265 0
1091 1 0.675718 0.186731 0
1090 1 0.657254 0.205141 0
1092 1 0.681119 0.211111 0
1093 1 0.699364 0.191046 0
1094 1 0.72292 0.197686 0
1123 1 0.703935 0.216064 0
1125 1 0.726155 0.22171 0
1096 1 0.753772 0.201935 0
1127 1 0.771174 0.219843 0
1126 1 0.748677 0.22631 0
1097 1 0.777302 0.195752 0
1099 1 0.802401 0.19372 0
1098 1 0.794544 0.217322 0
1100 1 0.817978 0.215712 0
1072 1 0.849682 0.187975 0
1070 1 0.826275 0.191616 0
1101 1 0.840906 0.212271 0
1103 1 0.864687 0.208327 0
1073 1 0.873193 0.185427 0
1074 1 0.888986 0.20534 0
1105 1 0.906204 0.222535 0
1075 1 0.91322 0.198464 0
1077 1 0.937054 0.192636 0
1076 1 0.930305 0.21687 0
1107 1 0.954539 0.210892 0
1078 1 0.960822 0.187351 0
1109 1 0.978534 0.204929 0
211 1 0.994588 0.222336 0
1111 1 0.50997 0.23565 0
1113 1 0.533879 0.240911 0
1112 1 0.515657 0.26007 0
1143 1 0.540733 0.266126 0
1114 1 0.557798 0.247525 0
1115 1 0.574967 0.229271 0
1116 1 0.580874 0.253594 0
1145 1 0.563896 0.272019 0
1117 1 0.598528 0.234885 0
1118 1 0.622112 0.240388 0
1147 1 0.604941 0.259218 0
1149 1 0.629744 0.264522 0
1121 1 0.663366 0.228433 0
1120 1 0.646063 0.245926 0
1151 1 0.669554 0.252063 0
1150 1 0.652814 0.270482 0
1122 1 0.687134 0.234398 0
1124 1 0.710339 0.239699 0
1153 1 0.693665 0.258188 0
1154 1 0.718401 0.263837 0
1155 1 0.734896 0.245637 0
1157 1 0.760142 0.248169 0
1156 1 0.744943 0.268835 0
1128 1 0.784464 0.241153 0
1129 1 0.80944 0.239049 0
1159 1 0.800432 0.263412 0
1158 1 0.774859 0.26798 0
1102 1 0.856433 0.231947 0
1131 1 0.832953 0.237 0
1130 1 0.825078 0.261454 0
1132 1 0.848761 0.256143 0
1104 1 0.880677 0.227874 0
1133 1 0.873052 0.251355 0
1135 1 0.897375 0.246051 0
1134 1 0.891452 0.269943 0