ITEM: TIMESTEP
132000
ITEM: NUMBER OF ATOMS
1800
ITEM: BOX BOUNDS pp pp pp
1.1709888757059872e+00 1.6382901112429073e+02
1.1709888757059872e+00 1.6382901112429073e+02
0.0000000000000000e+00 5.5000000000000000e+00
ITEM: ATOMS id type xs ys zs
2 1 0.0127541 0.0146071 0
3 1 0.0367767 0.00755629 0
31 1 0.00455165 0.0391695 0
33 1 0.0292791 0.0327221 0
4 1 0.0534244 0.0257638 0
6 1 0.0778413 0.0187992 0
5 1 0.0607772 0.0022394 0
35 1 0.071327 0.0433414 0
8 1 0.102553 0.0124082 0
37 1 0.0953508 0.0369531 0
39 1 0.120011 0.0290509 0
880 1 0.125602 0.00404029 0
9 1 0.143701 0.0235423 0
10 1 0.167458 0.0177327 0
40 1 0.159911 0.0423569 0
41 1 0.185108 0.0371286 0
12 1 0.191513 0.0127402 0
14 1 0.209199 0.0310357 0
13 1 0.216744 0.00774949 0
15 1 0.234039 0.026206 0
16 1 0.258581 0.0205424 0
886 1 0.240316 0.00265824 0
46 1 0.25107 0.0445561 0
47 1 0.276338 0.038397 0
19 1 0.307539 0.00857414 0
18 1 0.282036 0.0148284 0
49 1 0.300051 0.0327538 0
20 1 0.324613 0.0258721 0
51 1 0.341539 0.0425121 0
21 1 0.348956 0.0200142 0
890 1 0.332323 0.00173495 0
22 1 0.366978 0.0402386 0
23 1 0.374274 0.0145 0
894 1 0.398999 0.0100042 0
24 1 0.408747 0.0335287 0
25 1 0.425383 0.0162449 0
27 1 0.449602 0.0220245 0
26 1 0.433 0.0390018 0
29 1 0.474677 0.0276961 0
900 1 0.491079 0.00916452 0
898 1 0.467028 0.00415097 0
30 1 0.498199 0.0329336 0
32 1 0.021407 0.0571914 0
63 1 0.0400558 0.0749441 0
62 1 0.0157195 0.0812169 0
34 1 0.0458361 0.0510017 0
65 1 0.0640344 0.066744 0
66 1 0.0811554 0.0851467 0
36 1 0.0877517 0.0611366 0
38 1 0.112159 0.0537418 0
67 1 0.105089 0.0781125 0
68 1 0.128883 0.0720326 0
69 1 0.135498 0.0483642 0
71 1 0.153492 0.065802 0
42 1 0.178096 0.061234 0
72 1 0.170163 0.0845578 0
70 1 0.145835 0.0901939 0
43 1 0.202407 0.0553135 0
44 1 0.219944 0.0729877 0
73 1 0.19568 0.0785818 0
45 1 0.227289 0.0500896 0
75 1 0.245079 0.0675556 0
77 1 0.268724 0.0625263 0
76 1 0.260926 0.086846 0
74 1 0.237213 0.0905901 0
48 1 0.292012 0.0567907 0
78 1 0.286755 0.081801 0
79 1 0.30989 0.0729355 0
50 1 0.31826 0.0499281 0
81 1 0.335813 0.0772726 0
52 1 0.354341 0.0627546 0
82 1 0.359269 0.0868442 0
53 1 0.391608 0.0513434 0
83 1 0.377031 0.0699804 0
54 1 0.400429 0.0750393 0
55 1 0.416997 0.0563715 0
57 1 0.440961 0.0632764 0
56 1 0.42485 0.0815443 0
87 1 0.447798 0.0876272 0
28 1 0.458596 0.0458144 0
59 1 0.482418 0.0514285 0
58 1 0.465752 0.0695006 0
89 1 0.489983 0.0754214 0
92 1 0.0263607 0.123697 0
93 1 0.0336659 0.0994708 0
91 1 0.00953916 0.105698 0
121 1 0.00195989 0.129539 0
64 1 0.057069 0.0914513 0
94 1 0.0504454 0.117328 0
95 1 0.0742815 0.110085 0
125 1 0.0669348 0.135365 0
96 1 0.0906077 0.128457 0
97 1 0.0981831 0.103878 0
98 1 0.115164 0.121326 0
99 1 0.121473 0.0961054 0
100 1 0.138945 0.113196 0
101 1 0.164438 0.107857 0
130 1 0.156008 0.131413 0
103 1 0.189099 0.102395 0
102 1 0.187847 0.126115 0
105 1 0.213474 0.0971346 0
104 1 0.213245 0.129206 0
106 1 0.233217 0.114893 0
137 1 0.258218 0.122661 0
109 1 0.299627 0.113489 0
107 1 0.276023 0.105872 0
108 1 0.282218 0.130428 0
80 1 0.317133 0.0961228 0
110 1 0.323822 0.120686 0
111 1 0.34123 0.102958 0
141 1 0.347177 0.127564 0
113 1 0.365546 0.110524 0
84 1 0.383441 0.0935294 0
112 1 0.389452 0.117803 0
85 1 0.407512 0.0992113 0
143 1 0.372324 0.134417 0
115 1 0.413205 0.123607 0
86 1 0.430382 0.105367 0
116 1 0.436567 0.12952 0
117 1 0.455045 0.111699 0
88 1 0.471927 0.093476 0
119 1 0.479411 0.117582 0
90 1 0.49651 0.0988666 0
118 1 0.461765 0.135404 0
122 1 0.0192248 0.148272 0
153 1 0.0353093 0.16629 0
152 1 0.0108214 0.172163 0
123 1 0.0427717 0.14199 0
124 1 0.0604854 0.159399 0
126 1 0.0841574 0.153277 0
155 1 0.078076 0.17768 0
129 1 0.132495 0.138224 0
127 1 0.107051 0.144935 0
128 1 0.125004 0.161082 0
157 1 0.101445 0.169907 0
159 1 0.151512 0.155914 0
131 1 0.175092 0.146513 0
160 1 0.141141 0.178651 0
132 1 0.18285 0.169096 0
133 1 0.199244 0.14995 0
163 1 0.205462 0.176298 0
134 1 0.222575 0.158131 0
135 1 0.239594 0.138799 0
136 1 0.263814 0.146681 0
165 1 0.246969 0.164527 0
167 1 0.270049 0.170704 0
139 1 0.306248 0.137631 0
138 1 0.28809 0.154791 0
169 1 0.312 0.161635 0
168 1 0.293418 0.178884 0
140 1 0.330046 0.144802 0
142 1 0.354336 0.151544 0
171 1 0.335734 0.168868 0
172 1 0.359896 0.176272 0
114 1 0.396321 0.140579 0
144 1 0.40195 0.164127 0
173 1 0.377922 0.158639 0
145 1 0.419948 0.147349 0
146 1 0.426112 0.170775 0
147 1 0.444098 0.152971 0
177 1 0.449825 0.177188 0
149 1 0.485497 0.141366 0
148 1 0.467769 0.159722 0
150 1 0.492296 0.164617 0
183 1 0.0288734 0.189872 0
182 1 0.0231017 0.212828 0
181 1 0.00500177 0.196752 0
154 1 0.0535189 0.18355 0
184 1 0.0463029 0.206727 0
185 1 0.0714224 0.201274 0
215 1 0.0645461 0.224052 0
186 1 0.0893048 0.218828 0
156 1 0.0959393 0.195306 0
158 1 0.120443 0.192481 0
187 1 0.125351 0.218808 0
161 1 0.164848 0.185338 0
189 1 0.145946 0.203114 0
191 1 0.169743 0.210994 0
190 1 0.15058 0.227176 0
162 1 0.187627 0.193532 0
193 1 0.212168 0.199797 0
192 1 0.193057 0.217979 0
194 1 0.216964 0.224885 0
164 1 0.229773 0.182247 0
195 1 0.235344 0.20648 0
166 1 0.252373 0.189798 0
196 1 0.258673 0.214372 0
197 1 0.276532 0.196202 0
199 1 0.299895 0.203303 0
198 1 0.282959 0.220817 0
170 1 0.317669 0.185741 0
201 1 0.342096 0.19326 0
200 1 0.323803 0.210296 0
202 1 0.348496 0.217535 0
174 1 0.383717 0.182219 0
203 1 0.366585 0.200004 0
233 1 0.372396 0.224677 0
204 1 0.389808 0.206791 0
175 1 0.408017 0.188119 0
205 1 0.413589 0.212979 0
176 1 0.431438 0.195967 0
207 1 0.437848 0.21895 0
179 1 0.47448 0.183097 0
178 1 0.456494 0.200728 0
208 1 0.462086 0.224558 0
209 1 0.480313 0.207332 0
180 1 0.499074 0.188909 0
212 1 0.0253923 0.259207 0
211 1 0.0178622 0.236718 0
213 1 0.0432653 0.239309 0
243 1 0.0489362 0.265203 0
214 1 0.0668114 0.248171 0
245 1 0.072499 0.271922 0
216 1 0.0905917 0.254803 0
217 1 0.107414 0.235013 0
218 1 0.115446 0.260743 0
188 1 0.132919 0.243618 0
221 1 0.17479 0.235286 0
219 1 0.13837 0.268897 0
220 1 0.156553 0.251792 0
222 1 0.180423 0.259505 0
223 1 0.198679 0.241822 0
253 1 0.2043 0.265485 0
224 1 0.222407 0.248483 0
225 1 0.240592 0.23161 0
227 1 0.264671 0.238024 0
226 1 0.247103 0.255922 0
257 1 0.27031 0.262278 0
229 1 0.306066 0.227701 0
228 1 0.288946 0.245445 0
230 1 0.312715 0.252914 0
259 1 0.294566 0.269832 0
231 1 0.330131 0.234796 0
232 1 0.354852 0.24249 0
261 1 0.336807 0.259432 0
263 1 0.361261 0.266782 0
235 1 0.396288 0.231168 0
234 1 0.379077 0.249552 0
265 1 0.403562 0.255491 0
206 1 0.420754 0.237689 0
237 1 0.445571 0.243372 0
236 1 0.428083 0.261635 0
238 1 0.451344 0.267246 0
210 1 0.487106 0.230915 0
239 1 0.469595 0.247828 0
240 1 0.493248 0.254522 0
269 1 0.476243 0.271497 0
241 1 0.00513309 0.273256 0
242 1 0.0309746 0.282782 0
271 1 0.0118308 0.300132 0
273 1 0.0359274 0.307239 0
244 1 0.0549546 0.290266 0
246 1 0.0782891 0.297423 0
275 1 0.060202 0.314904 0
247 1 0.0971842 0.278835 0
249 1 0.120787 0.28574 0
248 1 0.102188 0.304033 0
279 1 0.12646 0.310591 0
251 1 0.162624 0.275526 0
250 1 0.143737 0.293709 0
281 1 0.168279 0.301277 0
252 1 0.185402 0.284009 0
254 1 0.209899 0.289561 0
283 1 0.19262 0.30743 0
284 1 0.216812 0.314189 0
255 1 0.229308 0.272898 0
256 1 0.252578 0.2797 0
285 1 0.234143 0.296953 0
287 1 0.259173 0.304487 0
258 1 0.276034 0.28686 0
288 1 0.283018 0.310714 0
289 1 0.301777 0.293453 0
260 1 0.31897 0.276674 0
262 1 0.343435 0.283712 0
291 1 0.325066 0.300641 0
292 1 0.349451 0.307903 0
264 1 0.385569 0.273686 0
293 1 0.367834 0.290723 0
295 1 0.392098 0.297174 0
294 1 0.375243 0.314689 0
266 1 0.410073 0.280163 0
267 1 0.434553 0.285697 0
297 1 0.416966 0.303334 0
298 1 0.441141 0.309082 0
268 1 0.458464 0.29023 0
270 1 0.482843 0.296271 0
299 1 0.465855 0.315352 0
1200 1 0.018225 0.325297 0
272 1 0.0428329 0.332945 0
301 1 0.0248012 0.349316 0
303 1 0.0482061 0.356788 0
276 1 0.0840149 0.322213 0
274 1 0.0673909 0.339677 0
305 1 0.0911352 0.346835 0
277 1 0.109128 0.328347 0
278 1 0.132869 0.335497 0
307 1 0.114798 0.352631 0
280 1 0.15037 0.317962 0
282 1 0.173852 0.325278 0
309 1 0.138041 0.36101 0
311 1 0.156595 0.342418 0
312 1 0.18105 0.349185 0
313 1 0.197993 0.331341 0
314 1 0.204379 0.355036 0
315 1 0.223432 0.338387 0
286 1 0.24199 0.321439 0
317 1 0.266516 0.329324 0
316 1 0.247604 0.345818 0
318 1 0.271922 0.353713 0
345 1 0.228543 0.361978 0
290 1 0.308137 0.318732 0
319 1 0.289296 0.336104 0
349 1 0.296231 0.360086 0
320 1 0.31416 0.342072 0
321 1 0.332599 0.325806 0
323 1 0.356464 0.332609 0
322 1 0.337937 0.34881 0
324 1 0.36281 0.356644 0
296 1 0.399044 0.32134 0
325 1 0.380905 0.339757 0
326 1 0.405813 0.345953 0
355 1 0.388143 0.364072 0
327 1 0.423465 0.326822 0
328 1 0.430096 0.351638 0
329 1 0.447227 0.333169 0
359 1 0.454975 0.35753 0
300 1 0.490104 0.320905 0
330 1 0.472906 0.339353 0
1201 1 0.496723 0.345826 0
360 1 0.478628 0.363859 0
1230 1 0.0059612 0.365375 0
302 1 0.0294979 0.37334 0
332 1 0.0353065 0.398263 0
331 1 0.012052 0.390303 0
304 1 0.0720026 0.364045 0
333 1 0.0531315 0.381086 0
335 1 0.0770486 0.388652 0
334 1 0.0594968 0.406422 0
306 1 0.0961185 0.371052 0
308 1 0.119485 0.378094 0
337 1 0.101085 0.39509 0
338 1 0.125806 0.402377 0
310 1 0.162729 0.36715 0
339 1 0.144379 0.385704 0
341 1 0.168852 0.391358 0
340 1 0.150246 0.409126 0
343 1 0.186463 0.374308 0
342 1 0.193019 0.398103 0
344 1 0.210706 0.380592 0
373 1 0.216786 0.404152 0
347 1 0.252337 0.369953 0
346 1 0.234098 0.386719 0
377 1 0.259144 0.394339 0
348 1 0.277725 0.377029 0
350 1 0.301583 0.384211 0
378 1 0.283464 0.400943 0
379 1 0.309149 0.408001 0
351 1 0.321085 0.366816 0
381 1 0.326979 0.39143 0
353 1 0.3442 0.374142 0
352 1 0.352153 0.39774 0
354 1 0.369914 0.380287 0
385 1 0.376242 0.405237 0
356 1 0.393628 0.387793 0
387 1 0.418344 0.394277 0
357 1 0.412918 0.370557 0
358 1 0.437779 0.375547 0
389 1 0.442075 0.400228 0
1232 1 0.460713 0.382273 0
1262 1 0.485738 0.388204 0
1261 1 0.467728 0.406045 0
361 1 0.0162462 0.415319 0
362 1 0.0233269 0.439863 0
363 1 0.0408428 0.42279 0
364 1 0.0472453 0.4471 0
336 1 0.0833132 0.412692 0
365 1 0.0652889 0.430149 0
395 1 0.0715332 0.454857 0
366 1 0.0900002 0.43689 0
367 1 0.107641 0.418848 0
368 1 0.113574 0.444263 0
369 1 0.13225 0.426668 0
371 1 0.173836 0.415642 0
399 1 0.137669 0.451402 0
370 1 0.156054 0.433578 0
401 1 0.180446 0.440515 0
372 1 0.199236 0.422362 0
403 1 0.205268 0.44723 0
374 1 0.223607 0.428401 0
375 1 0.240727 0.411239 0
376 1 0.265323 0.417786 0
405 1 0.247066 0.434895 0
407 1 0.272581 0.44201 0
404 1 0.228755 0.452992 0
409 1 0.289646 0.424838 0
410 1 0.297202 0.44894 0
380 1 0.315793 0.432276 0
382 1 0.333404 0.415367 0
383 1 0.358112 0.423242 0
413 1 0.340722 0.440239 0
386 1 0.400401 0.412128 0
414 1 0.364871 0.44871 0
384 1 0.382054 0.429756 0
417 1 0.407926 0.437308 0
388 1 0.423977 0.418893 0
418 1 0.432085 0.44316 0
419 1 0.449792 0.424791 0
390 1 0.455955 0.448797 0
1291 1 0.474752 0.429279 0
1293 1 0.492619 0.411142 0
1321 1 0.480607 0.453647 0
392 1 0.00542559 0.45649 0
393 1 0.0288165 0.464589 0
422 1 0.0103645 0.481181 0
423 1 0.0351423 0.488547 0
394 1 0.0526139 0.471699 0
396 1 0.0780419 0.478384 0
425 1 0.0606314 0.495304 0
397 1 0.0959807 0.461536 0
398 1 0.12043 0.468461 0
427 1 0.102586 0.485231 0
428 1 0.126623 0.492591 0
400 1 0.162081 0.458109 0
429 1 0.144635 0.475142 0
431 1 0.168353 0.48184 0
430 1 0.150484 0.498943 0
402 1 0.186863 0.464573 0
432 1 0.192949 0.488764 0
433 1 0.211405 0.471396 0
434 1 0.217186 0.49606 0
406 1 0.254527 0.458895 0
435 1 0.235418 0.477064 0
436 1 0.259724 0.482753 0
408 1 0.277769 0.465461 0
439 1 0.284537 0.48874 0
440 1 0.309353 0.49636 0
441 1 0.303212 0.473168 0
411 1 0.32192 0.456224 0
412 1 0.347012 0.465518 0
442 1 0.327606 0.480443 0
473 1 0.352724 0.489334 0
415 1 0.389559 0.453227 0
443 1 0.371443 0.47284 0
444 1 0.377046 0.497089 0
445 1 0.395521 0.480355 0
448 1 0.444564 0.491536 0
446 1 0.419735 0.486174 0
416 1 0.413395 0.461666 0
447 1 0.437722 0.466887 0
449 1 0.470072 0.49585 0
420 1 0.462828 0.471681 0
450 1 0.487357 0.478328 0
454 1 0.0235955 0.529721 0
453 1 0.0175575 0.505614 0
424 1 0.0418494 0.513143 0
485 1 0.0475973 0.538162 0
455 1 0.0662934 0.520627 0
426 1 0.0849861 0.502622 0
456 1 0.0907764 0.527782 0
486 1 0.0718537 0.545135 0
457 1 0.108716 0.510535 0
458 1 0.114328 0.536171 0
459 1 0.132614 0.516332 0
489 1 0.137761 0.541625 0
460 1 0.157285 0.523623 0
461 1 0.174968 0.506193 0
462 1 0.180684 0.530499 0
493 1 0.206066 0.53963 0
463 1 0.19859 0.513401 0
464 1 0.223377 0.521706 0
466 1 0.245536 0.533002 0
465 1 0.24113 0.503115 0
437 1 0.26608 0.505295 0
467 1 0.269745 0.528642 0
468 1 0.294518 0.53662 0
438 1 0.2901 0.512428 0
469 1 0.313322 0.520783 0
470 1 0.33763 0.529827 0
472 1 0.357896 0.513812 0
471 1 0.33393 0.505727 0
503 1 0.362629 0.537531 0
474 1 0.382408 0.522828 0
475 1 0.403023 0.505451 0
476 1 0.407667 0.532918 0
477 1 0.427868 0.510994 0
507 1 0.436671 0.534369 0
478 1 0.452966 0.515749 0
480 1 0.462021 0.539162 0
479 1 0.477788 0.520175 0
1351 1 0.495932 0.502581 0
510 1 0.487617 0.544085 0
483 1 0.00564597 0.546943 0
513 1 0.0304002 0.555634 0
514 1 0.0363754 0.579775 0
482 1 0.012091 0.572702 0
484 1 0.0552164 0.563624 0
515 1 0.0785697 0.571791 0
545 1 0.0618971 0.588778 0
487 1 0.0948794 0.553813 0
488 1 0.119887 0.561279 0
517 1 0.102248 0.578884 0
491 1 0.162428 0.547632 0
490 1 0.143194 0.565296 0
520 1 0.146638 0.589285 0
521 1 0.166751 0.572139 0
492 1 0.186586 0.556167 0
523 1 0.189892 0.581668 0
494 1 0.209355 0.565546 0
495 1 0.228265 0.549929 0
496 1 0.251391 0.561677 0
525 1 0.232216 0.576194 0
526 1 0.253832 0.587344 0
499 1 0.31728 0.545777 0
497 1 0.27427 0.551803 0
527 1 0.275123 0.57586 0
498 1 0.297057 0.561561 0
529 1 0.299024 0.585481 0
500 1 0.319454 0.570587 0
501 1 0.340084 0.554328 0
531 1 0.342115 0.578972 0
502 1 0.363875 0.563135 0
533 1 0.364603 0.588515 0
505 1 0.385876 0.548356 0
504 1 0.386489 0.573562 0
535 1 0.408214 0.585628 0
506 1 0.407839 0.560047 0
508 1 0.429883 0.573471 0
509 1 0.448076 0.558398 0
539 1 0.453625 0.58257 0
540 1 0.471811 0.563634 0
1441 1 0.495831 0.568542 0
569 1 0.479775 0.587392 0
512 1 0.0177184 0.595842 0
542 1 0.0222403 0.619652 0
543 1 0.0424017 0.6034 0
544 1 0.0449181 0.630344 0
516 1 0.0852177 0.598666 0
546 1 0.064999 0.613379 0
547 1 0.0860644 0.62721 0
519 1 0.121491 0.594333 0
518 1 0.106331 0.612918 0
548 1 0.129959 0.625311 0
522 1 0.170162 0.596994 0
549 1 0.150882 0.612547 0
551 1 0.172886 0.622201 0
524 1 0.212739 0.591594 0
553 1 0.193425 0.607381 0
552 1 0.194302 0.632749 0
554 1 0.214728 0.618612 0
555 1 0.23474 0.603706 0
556 1 0.23783 0.628342 0
557 1 0.259453 0.612793 0
528 1 0.279102 0.599444 0
559 1 0.301392 0.610018 0
558 1 0.280873 0.623995 0
560 1 0.3039 0.634289 0
530 1 0.320962 0.594779 0
561 1 0.323785 0.619095 0
532 1 0.343635 0.604159 0
562 1 0.346301 0.630788 0
563 1 0.365579 0.614334 0
534 1 0.38623 0.599614 0
565 1 0.387506 0.625969 0
536 1 0.407462 0.60995 0
537 1 0.431912 0.597316 0
567 1 0.427884 0.621383 0
568 1 0.450616 0.627156 0
566 1 0.409728 0.636832 0
538 1 0.463124 0.606175 0
570 1 0.488605 0.611133 0
600 1 0.473596 0.631179 0
1501 1 0.497601 0.635863 0
571 1 0.00321759 0.636561 0
572 1 0.00600826 0.661687 0
573 1 0.0253775 0.645761 0
603 1 0.0282558 0.672743 0
574 1 0.0471233 0.657435 0
575 1 0.0669355 0.641666 0
605 1 0.068787 0.668113 0
576 1 0.0890626 0.653689 0
607 1 0.091303 0.679626 0
577 1 0.109121 0.63875 0
578 1 0.110909 0.665604 0
579 1 0.131515 0.651657 0
609 1 0.133414 0.676626 0
550 1 0.151812 0.636944 0
581 1 0.174605 0.647659 0
580 1 0.153886 0.662021 0
611 1 0.17704 0.671949 0
583 1 0.217224 0.642698 0
582 1 0.197299 0.658509 0
584 1 0.219905 0.668982 0
587 1 0.260394 0.638322 0
585 1 0.239319 0.653763 0
586 1 0.262687 0.663938 0
615 1 0.242049 0.679249 0
589 1 0.282755 0.649054 0
588 1 0.285353 0.674342 0
590 1 0.305936 0.659271 0
591 1 0.326746 0.644775 0
593 1 0.348628 0.655716 0
621 1 0.327834 0.670645 0
592 1 0.350427 0.680204 0
564 1 0.368597 0.641383 0
594 1 0.370613 0.666184 0
595 1 0.390948 0.651404 0
625 1 0.393335 0.675572 0
596 1 0.413864 0.661647 0
597 1 0.432657 0.64611 0
598 1 0.439331 0.66949 0
599 1 0.456929 0.651103 0
629 1 0.481354 0.654553 0
628 1 0.463999 0.673972 0
630 1 0.490011 0.678836 0
602 1 0.0077136 0.685596 0
633 1 0.0292263 0.698781 0
632 1 0.0092006 0.713365 0
634 1 0.0307775 0.724839 0
604 1 0.0492007 0.683723 0
606 1 0.0715131 0.694411 0
635 1 0.0518582 0.708471 0
636 1 0.0740216 0.720122 0
637 1 0.0936256 0.705956 0
608 1 0.113056 0.690906 0
638 1 0.117368 0.717064 0
639 1 0.137259 0.702763 0
610 1 0.15692 0.686725 0
641 1 0.159842 0.712022 0
612 1 0.179595 0.697243 0
642 1 0.182348 0.723361 0
613 1 0.19997 0.682765 0
614 1 0.221985 0.695125 0
643 1 0.201963 0.709158 0
645 1 0.224522 0.71937 0
617 1 0.265176 0.688446 0
616 1 0.244866 0.704182 0
647 1 0.26644 0.713911 0
619 1 0.307632 0.6861 0
618 1 0.287175 0.699968 0
620 1 0.310324 0.710459 0
649 1 0.289445 0.725244 0
622 1 0.330653 0.69587 0
651 1 0.333106 0.72073 0
653 1 0.353089 0.705484 0
623 1 0.373742 0.690709 0
624 1 0.374646 0.716451 0
626 1 0.39682 0.700875 0
655 1 0.395533 0.726464 0
627 1 0.420963 0.688637 0
657 1 0.448174 0.692898 0
656 1 0.431334 0.711734 0
658 1 0.45687 0.715524 0
659 1 0.473091 0.697222 0
660 1 0.481589 0.721944 0
1531 1 0.498021 0.7027 0
663 1 0.00902934 0.738086 0
662 1 0.0125425 0.762215 0
664 1 0.0330338 0.749268 0
665 1 0.0527738 0.734513 0
666 1 0.0754265 0.744884 0
695 1 0.0550877 0.759709 0
697 1 0.0781953 0.770041 0
667 1 0.0964127 0.730841 0
669 1 0.119778 0.74163 0
668 1 0.0980061 0.755895 0
699 1 0.121367 0.766586 0
640 1 0.140107 0.727069 0
671 1 0.162916 0.737512 0
670 1 0.142081 0.752807 0
672 1 0.165033 0.764766 0
673 1 0.18458 0.748643 0
644 1 0.205387 0.734564 0
674 1 0.20813 0.759327 0
675 1 0.227217 0.744546 0
705 1 0.230093 0.769984 0
646 1 0.247169 0.729664 0
677 1 0.250575 0.754653 0
648 1 0.269425 0.739657 0
678 1 0.272634 0.765609 0
650 1 0.313041 0.735857 0
679 1 0.293067 0.750595 0
681 1 0.315887 0.76054 0
652 1 0.336696 0.746619 0
683 1 0.35977 0.758477 0
654 1 0.355137 0.73098 0
682 1 0.339052 0.771676 0
685 1 0.377391 0.741614 0
715 1 0.401281 0.750456 0
684 1 0.384068 0.767408 0
686 1 0.418659 0.732393 0
687 1 0.442333 0.736108 0
717 1 0.425634 0.755202 0
688 1 0.449007 0.760351 0
689 1 0.465651 0.741865 0
690 1 0.489957 0.746917 0
719 1 0.473676 0.766172 0
1591 1 0.497526 0.770213 0
694 1 0.0337751 0.773936 0
693 1 0.0106997 0.787507 0
692 1 0.00744723 0.814253 0
723 1 0.0362559 0.79851 0
696 1 0.0570852 0.783664 0
725 1 0.0604145 0.809394 0
727 1 0.0797536 0.795052 0
698 1 0.100692 0.780521 0
728 1 0.1018 0.806376 0
700 1 0.122414 0.792721 0
701 1 0.144027 0.777701 0
702 1 0.166526 0.789675 0
731 1 0.144863 0.803453 0
732 1 0.167699 0.813999 0
703 1 0.187188 0.774769 0
704 1 0.209663 0.785354 0
733 1 0.188971 0.799845 0
735 1 0.213272 0.809525 0
706 1 0.233579 0.796301 0
676 1 0.251723 0.780166 0
737 1 0.266392 0.815034 0
709 1 0.295307 0.776013 0
707 1 0.274913 0.791108 0
708 1 0.292257 0.808231 0
710 1 0.317483 0.806892 0
680 1 0.317962 0.783997 0
711 1 0.341035 0.796483 0
712 1 0.362668 0.811772 0
713 1 0.363787 0.783817 0
714 1 0.408178 0.774461 0
743 1 0.388715 0.792227 0
745 1 0.397567 0.815761 0
716 1 0.432079 0.778718 0
747 1 0.440668 0.80256 0
746 1 0.415286 0.798657 0
718 1 0.456943 0.784632 0
720 1 0.481894 0.789419 0
749 1 0.466199 0.807725 0
1621 1 0.490591 0.812948 0
722 1 0.0402854 0.822552 0
751 1 0.0204773 0.835173 0
752 1 0.0168004 0.859677 0
753 1 0.0392314 0.849558 0
726 1 0.0811946 0.820725 0
724 1 0.0604763 0.835399 0
755 1 0.0820971 0.846465 0
754 1 0.0602827 0.861339 0
729 1 0.123092 0.81753 0
756 1 0.104179 0.857241 0
757 1 0.102373 0.831714 0
759 1 0.124579 0.843339 0
730 1 0.144835 0.828354 0
760 1 0.146104 0.854392 0
761 1 0.166921 0.838711 0
763 1 0.191322 0.825244 0
734 1 0.214963 0.833907 0
762 1 0.189175 0.850001 0
764 1 0.212944 0.858258 0
736 1 0.240972 0.823568 0
767 1 0.261764 0.840152 0
765 1 0.236118 0.847686 0
739 1 0.310296 0.829171 0
738 1 0.286547 0.832214 0
769 1 0.304201 0.851988 0
768 1 0.280774 0.857646 0
741 1 0.337066 0.82157 0
740 1 0.328342 0.845224 0
742 1 0.35505 0.837024 0
771 1 0.346143 0.862158 0
773 1 0.369651 0.855698 0
744 1 0.380279 0.833598 0
803 1 0.393306 0.857685 0
774 1 0.407129 0.838388 0
775 1 0.424842 0.822136 0
777 1 0.433967 0.844215 0
748 1 0.450474 0.826172 0
776 1 0.416992 0.862054 0
750 1 0.474438 0.830623 0
779 1 0.45932 0.849396 0
780 1 0.483798 0.853456 0
1651 1 0.4996 0.83576 0
783 1 0.0375256 0.874496 0
782 1 0.00806754 0.882556 0
813 1 0.0261672 0.89927 0
812 1 0.000283434 0.90614 0
785 1 0.083614 0.871881 0
784 1 0.0622097 0.885761 0
786 1 0.08465 0.896512 0
758 1 0.125695 0.868576 0
787 1 0.105945 0.883431 0
788 1 0.128336 0.89576 0
791 1 0.167756 0.86401 0
819 1 0.150347 0.905358 0
789 1 0.148027 0.880877 0
790 1 0.170739 0.889082 0
792 1 0.189449 0.874028 0
793 1 0.210717 0.882352 0
823 1 0.193626 0.899521 0
766 1 0.25648 0.863924 0
794 1 0.229553 0.896656 0
795 1 0.233473 0.872053 0
796 1 0.252443 0.88883 0
827 1 0.269824 0.906556 0
797 1 0.276353 0.882255 0
799 1 0.299222 0.877016 0
798 1 0.293284 0.900669 0
800 1 0.317583 0.894366 0
770 1 0.322614 0.870347 0
801 1 0.340759 0.886106 0
802 1 0.359271 0.902784 0
772 1 0.365703 0.879863 0
805 1 0.40059 0.881437 0
804 1 0.383637 0.899791 0
806 1 0.410604 0.904035 0
778 1 0.443141 0.867531 0
807 1 0.426452 0.885775 0
808 1 0.451363 0.89031 0
837 1 0.434743 0.908781 0
809 1 0.468804 0.872137 0
1681 1 0.492831 0.877464 0
810 1 0.476275 0.895214 0
842 1 0.0102307 0.948441 0
843 1 0.0166225 0.923972 0
844 1 0.033808 0.941832 0
814 1 0.0412075 0.918379 0
815 1 0.0648054 0.911462 0
816 1 0.0850037 0.926736 0
845 1 0.0579883 0.934848 0
846 1 0.0754563 0.952788 0
817 1 0.10604 0.908883 0
818 1 0.129619 0.920085 0
847 1 0.110318 0.936071 0
849 1 0.133992 0.946083 0
821 1 0.173616 0.914185 0
820 1 0.153435 0.930563 0
851 1 0.178327 0.94292 0
824 1 0.220516 0.919185 0
822 1 0.196087 0.925048 0
853 1 0.213132 0.941985 0
825 1 0.245932 0.913703 0
855 1 0.238743 0.936984 0
826 1 0.262659 0.930862 0
856 1 0.255447 0.955311 0
829 1 0.309983 0.917202 0
828 1 0.286811 0.924106 0
857 1 0.27858 0.948588 0
859 1 0.30232 0.942684 0
831 1 0.335348 0.910598 0
830 1 0.326224 0.935147 0
832 1 0.349745 0.929019 0
861 1 0.343797 0.95392 0
863 1 0.369542 0.946521 0
833 1 0.373093 0.922534 0
834 1 0.396944 0.922693 0
865 1 0.40223 0.946903 0
835 1 0.419959 0.927873 0
838 1 0.444099 0.932468 0
836 1 0.426951 0.95196 0
839 1 0.459296 0.913518 0
1741 1 0.491815 0.943014 0
840 1 0.483827 0.919446 0
869 1 0.467578 0.937979 0
872 1 0.0193667 0.990762 0
873 1 0.0272355 0.965881 0
871 1 0.00162553 0.972549 0
874 1 0.0434448 0.983948 0
875 1 0.051129 0.959173 0
876 1 0.0680981 0.977495 0
7 1 0.0863741 0.994497 0
877 1 0.0917777 0.970507 0
848 1 0.115034 0.961374 0
878 1 0.10988 0.986642 0
879 1 0.133827 0.979292 0
850 1 0.15629 0.957908 0
852 1 0.179291 0.970078 0
11 1 0.174847 0.994911 0
881 1 0.150178 0.999497 0
882 1 0.198664 0.988834 0
883 1 0.205131 0.966104 0
884 1 0.222366 0.983777 0
854 1 0.229982 0.961561 0
885 1 0.247016 0.979496 0
17 1 0.264215 0.996686 0
887 1 0.271217 0.973467 0
858 1 0.295651 0.967016 0
888 1 0.289011 0.990759 0
889 1 0.313504 0.984395 0
860 1 0.320495 0.959951 0
891 1 0.339366 0.978057 0
892 1 0.35672 0.996239 0
862 1 0.363061 0.971582 0
864 1 0.386355 0.966164 0
893 1 0.381252 0.989989 0
895 1 0.410628 0.969647 0
897 1 0.44249 0.998645 0
866 1 0.434873 0.975464 0
896 1 0.418126 0.993207 0
867 1 0.450515 0.956803 0
899 1 0.483343 0.985326 0
870 1 0.475135 0.962081 0
868 1 0.458997 0.980972 0
1771 1 0.500713 0.966181 0
902 1 0.539579 0.0202155 0
931 1 0.523111 0.0388642 0
901 1 0.515172 0.0136752 0
904 1 0.565053 0.0251635 0
906 1 0.58126 0.00734015 0
905 1 0.557617 0.00189534 0
935 1 0.588629 0.0318485 0
933 1 0.547566 0.043795 0
908 1 0.604886 0.0135292 0
937 1 0.613622 0.0368481 0
939 1 0.628736 0.0169721 0
938 1 0.63986 0.039337 0
940 1 0.652133 0.0156729 0
971 1 0.670784 0.0308758 0
942 1 0.676605 0.00768938 0
944 1 0.693937 0.0258282 0
945 1 0.716995 0.0198162 0
943 1 0.699683 0.00233072 0
975 1 0.709119 0.0454439 0
947 1 0.741268 0.013991 0
946 1 0.733495 0.0389516 0
948 1 0.758017 0.032227 0
918 1 0.765517 0.0088276 0
919 1 0.790252 0.00242579 0
949 1 0.783434 0.0262644 0
920 1 0.809221 0.0203213 0
979 1 0.801218 0.0445949 0
951 1 0.833135 0.0152049 0
952 1 0.850001 0.0341466 0
922 1 0.857167 0.00902235 0
950 1 0.825585 0.0390432 0
953 1 0.874616 0.0268201 0
955 1 0.898734 0.0221122 0
924 1 0.881383 0.00248035 0
926 1 0.922424 0.0158324 0
928 1 0.946672 0.00923441 0
957 1 0.939848 0.0330468 0
956 1 0.915713 0.0399815 0
930 1 0.987587 0.0211186 0
959 1 0.963224 0.0270852 0
929 1 0.970166 0.00308261 0
960 1 0.9799 0.0462666 0
932 1 0.530668 0.0629213 0
962 1 0.537728 0.0869747 0
961 1 0.514226 0.0805562 0
60 1 0.50598 0.0564723 0
934 1 0.571526 0.0508569 0
963 1 0.554501 0.0680992 0
965 1 0.578876 0.0741491 0
936 1 0.597613 0.0551397 0
966 1 0.603877 0.0789332 0
967 1 0.621573 0.0612825 0
968 1 0.627493 0.0864382 0
969 1 0.643921 0.0690981 0
970 1 0.660788 0.0528407 0
972 1 0.670968 0.0745152 0
973 1 0.686271 0.0541535 0
1003 1 0.695967 0.0773762 0
1004 1 0.720182 0.0871929 0
974 1 0.726683 0.0640127 0
976 1 0.751197 0.057601 0
1005 1 0.744381 0.0821917 0
1007 1 0.768311 0.0747752 0
977 1 0.77629 0.0499102 0
978 1 0.792746 0.0677213 0
1009 1 0.811196 0.0874887 0
980 1 0.817764 0.0639674 0
981 1 0.842176 0.0578448 0
982 1 0.860524 0.0762276 0
1011 1 0.836354 0.0825288 0
954 1 0.891574 0.0453295 0
983 1 0.867223 0.0514402 0
984 1 0.88459 0.0701994 0
1015 1 0.902209 0.0888668 0
985 1 0.908718 0.0648038 0
986 1 0.925937 0.0837022 0
987 1 0.932583 0.0588998 0
988 1 0.95025 0.075877 0
958 1 0.955983 0.0520434 0
989 1 0.972582 0.0694937 0
990 1 0.991834 0.0870722 0
61 1 0.997632 0.0633703 0
991 1 0.520503 0.104181 0
992 1 0.527798 0.128232 0
120 1 0.503048 0.123085 0
993 1 0.545265 0.110598 0
964 1 0.56258 0.0925988 0
994 1 0.570417 0.115597 0
995 1 0.586976 0.0974373 0
1023 1 0.552622 0.134327 0
996 1 0.593987 0.122875 0
997 1 0.610805 0.105136 0
1027 1 0.618593 0.129088 0
998 1 0.63578 0.110487 0
999 1 0.65198 0.0929088 0
1000 1 0.659971 0.116415 0
1001 1 0.678056 0.0980144 0
1029 1 0.642772 0.1329 0
1031 1 0.684718 0.1219 0
1002 1 0.702082 0.103137 0
1033 1 0.709846 0.126458 0
1035 1 0.736899 0.105723 0
1006 1 0.761917 0.0996858 0
1036 1 0.754922 0.123647 0
1034 1 0.732496 0.132987 0
1008 1 0.786129 0.0922942 0
1037 1 0.778941 0.117092 0
1039 1 0.803279 0.111169 0
1038 1 0.796724 0.135509 0
1040 1 0.821207 0.129919 0
1010 1 0.827734 0.106637 0
1012 1 0.852973 0.09991 0
1041 1 0.845635 0.123612 0
1043 1 0.870815 0.118287 0
1013 1 0.878027 0.0939195 0
1014 1 0.894805 0.112443 0
1016 1 0.911367 0.132552 0
1017 1 0.919006 0.108246 0
1018 1 0.942954 0.100898 0
1047 1 0.935447 0.125794 0
1019 1 0.966848 0.0939576 0
1020 1 0.984349 0.111488 0
1049 1 0.959802 0.117672 0
1021 1 0.51073 0.146785 0
1022 1 0.534708 0.152597 0
1053 1 0.540658 0.176311 0
1051 1 0.516275 0.171732 0
1025 1 0.576939 0.140856 0
1024 1 0.559443 0.158669 0
1055 1 0.584058 0.164377 0
1026 1 0.60153 0.146219 0
1028 1 0.625996 0.152647 0
1057 1 0.607491 0.170497 0
1058 1 0.632187 0.176384 0
1059 1 0.650196 0.157538 0
1030 1 0.66731 0.139882 0
1061 1 0.674842 0.163398 0
1032 1 0.692172 0.145617 0
1063 1 0.716457 0.152043 0
1062 1 0.699287 0.170954 0
1064 1 0.72484 0.176017 0
1065 1 0.741908 0.157877 0
1066 1 0.766497 0.164551 0
1067 1 0.772306 0.141223 0
1068 1 0.789566 0.158598 0
1069 1 0.814032 0.153398 0
1099 1 0.80769 0.176646 0
1071 1 0.839033 0.148074 0
1072 1 0.855751 0.167143 0
1070 1 0.832307 0.171988 0
1042 1 0.863782 0.141524 0
1044 1 0.887727 0.13731 0
1073 1 0.880209 0.161233 0
1045 1 0.904294 0.157371 0
1074 1 0.897198 0.180788 0
1075 1 0.922626 0.174352 0
1046 1 0.928095 0.149896 0
1077 1 0.946378 0.168113 0
1048 1 0.953798 0.143074 0
1050 1 0.977285 0.13553 0
1079 1 0.970526 0.161843 0
1080 1 0.987128 0.179058 0
151 1 0.99418 0.154514 0
1052 1 0.522382 0.196073 0
1082 1 0.529857 0.219864 0
1081 1 0.504775 0.213698 0
1054 1 0.564954 0.182772 0
1083 1 0.547311 0.199275 0
1085 1 0.571606 0.20625 0
1084 1 0.554632 0.224503 0
1056 1 0.589529 0.188877 0
1086 1 0.596623 0.212426 0
1087 1 0.614666 0.19415 0
1088 1 0.621951 0.218747 0
1060 1 0.656264 0.180776 0
1089 1 0.640471 0.199395 0
1090 1 0.664171 0.205638 0
1119 1 0.646456 0.223458 0
1091 1 0.68133 0.188092 0
1092 1 0.688844 0.21167 0
1093 1 0.707989 0.193889 0
1123 1 0.712914 0.218478 0
1095 1 0.7497 0.182546 0
1094 1 0.732318 0.20144 0
1096 1 0.757042 0.207044 0
1125 1 0.738392 0.224362 0
1097 1 0.77678 0.189077 0
1127 1 0.780483 0.214187 0
1098 1 0.798978 0.19933 0
1129 1 0.811057 0.220565 0
1100 1 0.823535 0.196891 0
1101 1 0.848098 0.19179 0
1131 1 0.840196 0.215803 0
1102 1 0.865367 0.209717 0
1103 1 0.871827 0.185023 0
1104 1 0.889875 0.204475 0
1135 1 0.907448 0.22286 0
1105 1 0.915341 0.199008 0
1076 1 0.939807 0.192411 0
1107 1 0.957915 0.210552 0
1078 1 0.963257 0.186437 0
1109 1 0.981307 0.204125 0
1110 1 0.998529 0.221328 0
1111 1 0.511862 0.237125 0
1113 1 0.536972 0.243227 0
1112 1 0.518453 0.260798 0
1143 1 0.543443 0.267013 0
1114 1 0.561274 0.24787 0
1115 1 0.578484 0.230405 0
1116 1 0.586785 0.254223 0
1145 1 0.568373 0.271658 0
1117 1 0.604443 0.236348 0
1118 1 0.629436 0.243003 0
1147 1 0.611431 0.259045 0
1149 1 0.636537 0.266393 0
1121 1 0.67093 0.229859 0
1120 1 0.653573 0.247081 0
1151 1 0.6783 0.253161 0
1150 1 0.661084 0.271429 0
1122 1 0.695691 0.235577 0
1124 1 0.721089 0.242472 0
1153 1 0.703084 0.259142 0
1154 1 0.728258 0.265728 0
1126 1 0.764435 0.231182 0
1155 1 0.746585 0.248715 0
1157 1 0.773258 0.254192 0
1156 1 0.753177 0.272468 0
1128 1 0.791648 0.236031 0
1159 1 0.816497 0.244725 0
1158 1 0.797694 0.26131 0
1160 1 0.821693 0.268953 0
1130 1 0.840471 0.250738 0
1132 1 0.859696 0.233421 0
1161 1 0.864993 0.257101 0
1133 1 0.883774 0.23835 0
1163 1 0.88919 0.26483 0