ITEM: TIMESTEP
4000
ITEM: NUMBER OF ATOMS
1800
ITEM: BOX BOUNDS pp pp pp
-6.5889948097000683e-01 1.6565889948096947e+02
-6.5889948097000683e-01 1.6565889948096947e+02
0.0000000000000000e+00 5.5000000000000000e+00
ITEM: ATOMS id type xs ys zs
2 1 0.0120827 0.0125804 0
3 1 0.0358251 0.00575013 0
33 1 0.0288749 0.0293427 0
31 1 0.00314298 0.0359288 0
4 1 0.0521732 0.0223462 0
35 1 0.0708739 0.0365265 0
5 1 0.0646175 0.00170864 0
6 1 0.0844931 0.0166009 0
34 1 0.0470333 0.0455438 0
8 1 0.109291 0.0184091 0
37 1 0.0972551 0.0381076 0
9 1 0.130413 0.00800669 0
39 1 0.129549 0.0328615 0
10 1 0.150801 0.0205584 0
41 1 0.172035 0.0320755 0
11 1 0.166305 0.00137865 0
40 1 0.150978 0.0462173 0
12 1 0.1877 0.0140584 0
43 1 0.197058 0.0383742 0
14 1 0.211197 0.019031 0
15 1 0.228374 0.00275382 0
45 1 0.234582 0.0260668 0
16 1 0.254729 0.0130928 0
47 1 0.271029 0.035808 0
18 1 0.279239 0.0134347 0
20 1 0.315345 0.01175 0
49 1 0.296194 0.0304506 0
51 1 0.334857 0.0265135 0
22 1 0.357519 0.0181225 0
21 1 0.339006 0.00200014 0
53 1 0.370539 0.0389216 0
24 1 0.380588 0.00999844 0
55 1 0.394311 0.0294919 0
25 1 0.404285 0.00652299 0
26 1 0.422154 0.0226397 0
28 1 0.445204 0.0162112 0
57 1 0.437413 0.0405807 0
56 1 0.412804 0.0448801 0
30 1 0.486908 0.017504 0
59 1 0.466209 0.0307775 0
29 1 0.466757 0.00180528 0
32 1 0.0205697 0.0514766 0
62 1 0.014936 0.0743282 0
63 1 0.0374501 0.0680272 0
36 1 0.0822478 0.0570536 0
65 1 0.0608705 0.0661413 0
66 1 0.0780587 0.0826273 0
64 1 0.0497355 0.0883345 0
38 1 0.116681 0.0537305 0
67 1 0.10007 0.0717656 0
68 1 0.119112 0.0853087 0
69 1 0.136845 0.0681979 0
71 1 0.160539 0.0691124 0
42 1 0.179466 0.0547177 0
70 1 0.150373 0.0913718 0
72 1 0.182218 0.0793081 0
73 1 0.202001 0.0631524 0
44 1 0.220744 0.0458552 0
74 1 0.218713 0.0808292 0
75 1 0.236105 0.0649806 0
46 1 0.248997 0.0450782 0
77 1 0.261112 0.0661062 0
76 1 0.245773 0.0868773 0
48 1 0.285067 0.0545683 0
78 1 0.282957 0.078693 0
50 1 0.317536 0.0442172 0
79 1 0.305698 0.0680601 0
81 1 0.329712 0.0658235 0
52 1 0.346767 0.0482615 0
82 1 0.34799 0.0818826 0
80 1 0.318594 0.0899201 0
83 1 0.367184 0.0644529 0
54 1 0.389569 0.0537539 0
84 1 0.387313 0.0803277 0
85 1 0.408085 0.0690348 0
87 1 0.432222 0.0641257 0
88 1 0.45501 0.0786103 0
86 1 0.417533 0.0903384 0
58 1 0.456478 0.0541784 0
60 1 0.488777 0.0458704 0
89 1 0.476366 0.0664492 0
961 1 0.498539 0.0734975 0
90 1 0.48116 0.0898965 0
92 1 0.020558 0.119891 0
93 1 0.0248153 0.0955556 0
91 1 0.000728044 0.105853 0
94 1 0.0431754 0.111484 0
123 1 0.039524 0.13531 0
95 1 0.0675508 0.103816 0
96 1 0.0865106 0.118679 0
125 1 0.0623381 0.126758 0
97 1 0.0971953 0.0965817 0
98 1 0.110216 0.117216 0
99 1 0.130718 0.105871 0
129 1 0.131966 0.132116 0
100 1 0.152265 0.117294 0
101 1 0.172753 0.102438 0
131 1 0.172612 0.130918 0
102 1 0.192299 0.117397 0
103 1 0.199893 0.0953172 0
104 1 0.214142 0.126141 0
105 1 0.223534 0.104258 0
106 1 0.247037 0.110708 0
107 1 0.269971 0.0992423 0
135 1 0.23755 0.133805 0
137 1 0.261063 0.129905 0
108 1 0.282718 0.121075 0
109 1 0.295619 0.100406 0
110 1 0.317356 0.117949 0
111 1 0.337785 0.104715 0
112 1 0.357716 0.117709 0
141 1 0.338223 0.132081 0
113 1 0.368248 0.0960924 0
114 1 0.381832 0.121766 0
115 1 0.397286 0.104008 0
145 1 0.405352 0.128748 0
116 1 0.422854 0.113381 0
117 1 0.440653 0.0978789 0
118 1 0.446569 0.121371 0
119 1 0.464382 0.105834 0
120 1 0.487658 0.113387 0
1021 1 0.492085 0.137301 0
149 1 0.469658 0.128798 0
122 1 0.0177555 0.145426 0
450 1 0.486462 0.476086 0
153 1 0.0314297 0.165915 0
124 1 0.0531582 0.15486 0
126 1 0.0768866 0.14523 0
155 1 0.0719596 0.168302 0
154 1 0.0518605 0.180572 0
127 1 0.0999361 0.139176 0
128 1 0.118511 0.153733 0
157 1 0.0957629 0.163721 0
158 1 0.117121 0.17805 0
159 1 0.13942 0.16517 0
130 1 0.153107 0.145365 0
132 1 0.175562 0.155365 0
161 1 0.167673 0.177755 0
133 1 0.194839 0.14069 0
134 1 0.218798 0.150419 0
163 1 0.198983 0.16394 0
164 1 0.215932 0.180937 0
136 1 0.25272 0.151929 0
165 1 0.235244 0.168015 0
167 1 0.267982 0.171267 0
138 1 0.278315 0.14744 0
139 1 0.301119 0.136221 0
169 1 0.299737 0.160259 0
140 1 0.321773 0.149968 0
142 1 0.347631 0.155056 0
171 1 0.33067 0.171926 0
172 1 0.355718 0.178808 0
143 1 0.36596 0.139992 0
144 1 0.389392 0.146281 0
173 1 0.372498 0.163013 0
175 1 0.395698 0.170113 0
146 1 0.413591 0.154718 0
147 1 0.429393 0.137469 0
148 1 0.45283 0.145487 0
177 1 0.437602 0.164384 0
176 1 0.418804 0.179731 0
150 1 0.475712 0.15383 0
179 1 0.462558 0.1725 0
180 1 0.486514 0.179783 0
152 1 0.012188 0.182097 0
183 1 0.0325261 0.194406 0
449 1 0.465128 0.46754 0
182 1 0.0203376 0.215159 0
184 1 0.0439121 0.215796 0
185 1 0.0636821 0.20223 0
156 1 0.083092 0.188616 0
186 1 0.0851109 0.213801 0
187 1 0.104076 0.198663 0
189 1 0.126734 0.200815 0
188 1 0.115206 0.221628 0
160 1 0.145671 0.187753 0
191 1 0.16419 0.201918 0
190 1 0.144226 0.216398 0
221 1 0.166813 0.226191 0
162 1 0.190055 0.186041 0
193 1 0.207308 0.202626 0
192 1 0.185752 0.211477 0
194 1 0.218441 0.223118 0
195 1 0.231058 0.201003 0
166 1 0.251082 0.188006 0
197 1 0.272993 0.198673 0
196 1 0.25341 0.21305 0
168 1 0.290157 0.181817 0
170 1 0.313393 0.188872 0
199 1 0.296369 0.20531 0
198 1 0.280043 0.222529 0
201 1 0.338095 0.19458 0
203 1 0.36163 0.202292 0
200 1 0.320106 0.210457 0
202 1 0.343189 0.217981 0
174 1 0.381737 0.189279 0
205 1 0.405193 0.199016 0
233 1 0.365706 0.225913 0
204 1 0.38577 0.21335 0
178 1 0.445926 0.187811 0
207 1 0.428621 0.20316 0
206 1 0.417675 0.223879 0
208 1 0.451439 0.212627 0
209 1 0.470311 0.197871 0
210 1 0.483859 0.221753 0
1081 1 0.496894 0.201927 0
212 1 0.00922943 0.249054 0
213 1 0.0316712 0.236112 0
243 1 0.0304652 0.259239 0
479 1 0.475536 0.497196 0
215 1 0.0643787 0.227357 0
216 1 0.0761368 0.247476 0
214 1 0.0530641 0.25102 0
245 1 0.0699147 0.270752 0
217 1 0.0966479 0.236819 0
219 1 0.133757 0.238165 0
218 1 0.115789 0.25396 0
247 1 0.0936381 0.2627 0
220 1 0.155593 0.247385 0
222 1 0.179686 0.250257 0
249 1 0.137532 0.26686 0
251 1 0.165527 0.269719 0
223 1 0.196793 0.234023 0
224 1 0.219062 0.247431 0
253 1 0.201512 0.265205 0
225 1 0.239591 0.234069 0
227 1 0.263439 0.239608 0
226 1 0.247355 0.257213 0
255 1 0.227678 0.270474 0
257 1 0.271134 0.262359 0
228 1 0.288727 0.245809 0
229 1 0.304912 0.228631 0
230 1 0.311959 0.253095 0
259 1 0.294576 0.268755 0
231 1 0.32778 0.235448 0
232 1 0.351015 0.24414 0
261 1 0.336576 0.262334 0
234 1 0.375888 0.247162 0
235 1 0.396187 0.234243 0
263 1 0.362994 0.267201 0
265 1 0.396984 0.258314 0
236 1 0.419321 0.24898 0
237 1 0.43978 0.234721 0
267 1 0.433396 0.269717 0
239 1 0.463703 0.234174 0
240 1 0.485473 0.247887 0
238 1 0.452748 0.256039 0
1141 1 0.498114 0.273908 0
269 1 0.473307 0.269542 0
242 1 0.0207919 0.28086 0
272 1 0.0237909 0.317753 0
273 1 0.0368616 0.298228 0
271 1 0.00722871 0.299951 0
244 1 0.0467707 0.276375 0
246 1 0.0878353 0.286198 0
275 1 0.0617052 0.297065 0
276 1 0.082344 0.310024 0
248 1 0.111857 0.278782 0
277 1 0.105508 0.303032 0
279 1 0.128599 0.295829 0
250 1 0.151019 0.288117 0
280 1 0.147344 0.312436 0
281 1 0.171155 0.302997 0
252 1 0.18618 0.283896 0
254 1 0.213163 0.288758 0
283 1 0.197098 0.305277 0
284 1 0.220048 0.314482 0
256 1 0.253625 0.279841 0
285 1 0.236393 0.296904 0
287 1 0.260156 0.303212 0
258 1 0.277339 0.286082 0
260 1 0.31776 0.276092 0
288 1 0.283915 0.309687 0
289 1 0.300454 0.291926 0
290 1 0.308113 0.313875 0
262 1 0.345719 0.283991 0
291 1 0.325906 0.29791 0
292 1 0.346673 0.308042 0
264 1 0.385561 0.279159 0
293 1 0.371208 0.299328 0
295 1 0.400358 0.29969 0
266 1 0.410659 0.277442 0
268 1 0.453496 0.283303 0
296 1 0.417594 0.316502 0
297 1 0.428838 0.293605 0
298 1 0.441971 0.316087 0
270 1 0.482555 0.292245 0
299 1 0.462676 0.30535 0
300 1 0.487391 0.315964 0
302 1 0.0136084 0.354337 0
303 1 0.0329123 0.339985 0
301 1 0.00519466 0.331723 0
274 1 0.0483897 0.320662 0
304 1 0.0553046 0.348478 0
305 1 0.0711331 0.330535 0
306 1 0.08815 0.347773 0
278 1 0.123606 0.319634 0
307 1 0.101008 0.327529 0
308 1 0.112285 0.351322 0
339 1 0.135224 0.358861 0
311 1 0.162712 0.330819 0
309 1 0.139891 0.336174 0
310 1 0.15877 0.354638 0
312 1 0.181796 0.346921 0
282 1 0.184307 0.323528 0
313 1 0.205576 0.334121 0
314 1 0.211993 0.357462 0
286 1 0.24427 0.321068 0
317 1 0.267754 0.32741 0
315 1 0.22942 0.340645 0
316 1 0.253049 0.346652 0
318 1 0.278567 0.348455 0
319 1 0.298201 0.334989 0
349 1 0.298872 0.3593 0
321 1 0.329671 0.325832 0
323 1 0.362727 0.325095 0
320 1 0.322457 0.350679 0
322 1 0.346743 0.344094 0
294 1 0.385908 0.31997 0
324 1 0.376664 0.344154 0
325 1 0.401922 0.337724 0
326 1 0.416614 0.356627 0
327 1 0.429828 0.337362 0
328 1 0.451315 0.348307 0
329 1 0.466647 0.329847 0
1201 1 0.495203 0.339623 0
330 1 0.475833 0.353459 0
333 1 0.0372661 0.364261 0
332 1 0.0185666 0.37866 0
363 1 0.0361145 0.396653 0
361 1 0.00495769 0.398801 0
335 1 0.0717587 0.36536 0
334 1 0.0549178 0.382115 0
336 1 0.0793233 0.388566 0
365 1 0.0626936 0.405655 0
337 1 0.0956373 0.370487 0
338 1 0.119233 0.375766 0
367 1 0.103311 0.393943 0
369 1 0.126782 0.398847 0
341 1 0.16874 0.37583 0
340 1 0.144125 0.381711 0
371 1 0.163051 0.399825 0
343 1 0.191226 0.36819 0
342 1 0.186672 0.390714 0
373 1 0.205535 0.404803 0
344 1 0.212419 0.381686 0
345 1 0.235453 0.363671 0
347 1 0.264549 0.368298 0
346 1 0.24629 0.384617 0
375 1 0.228889 0.40006 0
377 1 0.26771 0.393648 0
348 1 0.288223 0.381155 0
350 1 0.312026 0.379195 0
379 1 0.302861 0.402382 0
351 1 0.335586 0.371772 0
353 1 0.36005 0.364733 0
381 1 0.328671 0.396491 0
352 1 0.353057 0.389024 0
355 1 0.392543 0.361946 0
383 1 0.371407 0.404703 0
354 1 0.377934 0.381277 0
385 1 0.39495 0.39896 0
357 1 0.434814 0.37278 0
356 1 0.409778 0.379683 0
358 1 0.450355 0.391833 0
387 1 0.426772 0.396098 0
1231 1 0.499004 0.363849 0
359 1 0.45919 0.370322 0
1261 1 0.492529 0.400995 0
360 1 0.480901 0.3799 0
389 1 0.46905 0.40628 0
362 1 0.0225488 0.4162 0
391 1 0.00459863 0.431917 0
393 1 0.0298337 0.439409 0
364 1 0.0464257 0.422729 0
366 1 0.0874553 0.411831 0
394 1 0.0532875 0.446333 0
395 1 0.0709835 0.429284 0
396 1 0.0791808 0.452144 0
368 1 0.11619 0.420028 0
397 1 0.0966027 0.434587 0
398 1 0.114538 0.452153 0
399 1 0.134168 0.436827 0
370 1 0.144339 0.414977 0
400 1 0.156136 0.448384 0
401 1 0.165037 0.426742 0
402 1 0.180346 0.448347 0
372 1 0.183734 0.413854 0
403 1 0.199157 0.432141 0
374 1 0.220786 0.422232 0
404 1 0.219742 0.44621 0
376 1 0.250641 0.410938 0
405 1 0.240956 0.435262 0
407 1 0.264532 0.430444 0
378 1 0.280976 0.413386 0
408 1 0.280182 0.448277 0
409 1 0.297526 0.43058 0
410 1 0.314513 0.447454 0
380 1 0.319727 0.419528 0
411 1 0.337112 0.436345 0
382 1 0.345261 0.413498 0
412 1 0.35686 0.450755 0
413 1 0.3645 0.427879 0
384 1 0.388901 0.422045 0
414 1 0.381463 0.445838 0
415 1 0.404578 0.44024 0
386 1 0.413179 0.416025 0
388 1 0.442603 0.415374 0
417 1 0.428254 0.435261 0
418 1 0.449165 0.4482 0
390 1 0.486311 0.424459 0
419 1 0.463042 0.429254 0
420 1 0.479302 0.44799 0
392 1 0.0123459 0.455014 0
422 1 0.0154881 0.478369 0
423 1 0.0358002 0.464713 0
453 1 0.0266705 0.499041 0
451 1 0.00237538 0.499191 0
424 1 0.0470752 0.487652 0
425 1 0.0617364 0.469067 0
426 1 0.081203 0.485909 0
427 1 0.0980124 0.469446 0
428 1 0.121197 0.479359 0
457 1 0.104827 0.497312 0
429 1 0.137521 0.461672 0
430 1 0.146369 0.485673 0
431 1 0.165103 0.470152 0
461 1 0.170124 0.495408 0
432 1 0.187876 0.479723 0
433 1 0.201428 0.460704 0
434 1 0.212657 0.481805 0
406 1 0.256065 0.45455 0
465 1 0.233486 0.492928 0
435 1 0.232156 0.466387 0
467 1 0.266529 0.498765 0
436 1 0.252282 0.479346 0
437 1 0.274224 0.471704 0
438 1 0.290114 0.488991 0
440 1 0.317924 0.47974 0
439 1 0.297705 0.465614 0
441 1 0.334481 0.461005 0
442 1 0.34893 0.479698 0
443 1 0.371158 0.468999 0
445 1 0.395037 0.468408 0
444 1 0.38187 0.490164 0
475 1 0.404647 0.499025 0
416 1 0.421146 0.457187 0
446 1 0.419681 0.48123 0
447 1 0.440992 0.470692 0
448 1 0.451978 0.49085 0
1051 1 0.499828 0.160236 0
471 1 0.333658 0.499616 0
452 1 0.0160145 0.520161 0
483 1 0.0333279 0.53634 0
454 1 0.0449251 0.514494 0
485 1 0.0651647 0.528901 0
455 1 0.0660474 0.504004 0
456 1 0.0886414 0.517461 0
458 1 0.114016 0.521631 0
487 1 0.100068 0.540111 0
459 1 0.130897 0.504878 0
489 1 0.138967 0.531337 0
460 1 0.154633 0.513245 0
491 1 0.163739 0.537036 0
462 1 0.179912 0.518868 0
463 1 0.197788 0.502336 0
493 1 0.202887 0.527143 0
464 1 0.221144 0.512689 0
466 1 0.246293 0.513999 0
495 1 0.232887 0.534737 0
497 1 0.266261 0.526704 0
468 1 0.286153 0.512708 0
469 1 0.308359 0.503382 0
499 1 0.30107 0.531413 0
498 1 0.281689 0.545334 0
470 1 0.323092 0.522096 0
1771 1 0.495122 0.967567 0
472 1 0.347187 0.521625 0
501 1 0.335292 0.542151 0
473 1 0.359597 0.501202 0
503 1 0.369286 0.532297 0
474 1 0.384852 0.514129 0
505 1 0.394504 0.536624 0
476 1 0.413902 0.521061 0
477 1 0.4296 0.502376 0
507 1 0.43794 0.52768 0
478 1 0.457136 0.51458 0
480 1 0.479846 0.520979 0
509 1 0.463206 0.537632 0
1351 1 0.499846 0.503685 0
482 1 0.00949405 0.549638 0
512 1 0.0217964 0.5825 0
513 1 0.0308195 0.560343 0
484 1 0.0529773 0.551338 0
486 1 0.0779492 0.549855 0
514 1 0.0464044 0.578698 0
515 1 0.0691988 0.571794 0
516 1 0.0879426 0.585701 0
488 1 0.123527 0.549423 0
517 1 0.0998956 0.56473 0
519 1 0.130765 0.572568 0
518 1 0.111935 0.586704 0
490 1 0.147472 0.554827 0
520 1 0.154423 0.579579 0
521 1 0.171352 0.563039 0
522 1 0.178925 0.586444 0
492 1 0.187379 0.544894 0
523 1 0.196817 0.570141 0
494 1 0.21159 0.550189 0
524 1 0.219655 0.580201 0
525 1 0.234143 0.559902 0
496 1 0.254286 0.548252 0
526 1 0.250844 0.578161 0
527 1 0.270819 0.566159 0
500 1 0.314251 0.553268 0
529 1 0.294692 0.566651 0
530 1 0.316165 0.577653 0
528 1 0.281443 0.587519 0
531 1 0.33729 0.566445 0
502 1 0.356482 0.552396 0
532 1 0.347449 0.588108 0
533 1 0.366627 0.57496 0
504 1 0.379996 0.555448 0
535 1 0.403507 0.561398 0
534 1 0.388432 0.583597 0
506 1 0.420019 0.544609 0
508 1 0.443863 0.551707 0
537 1 0.429864 0.571127 0
538 1 0.451841 0.58199 0
536 1 0.412406 0.587553 0
510 1 0.486918 0.549609 0
539 1 0.465512 0.561841 0
540 1 0.48368 0.576756 0
541 1 0.00271906 0.596248 0
542 1 0.0183077 0.614459 0
543 1 0.0379037 0.601513 0
571 1 0.00476783 0.633822 0
544 1 0.0486345 0.623184 0
545 1 0.0619263 0.596933 0
546 1 0.0757484 0.615695 0
547 1 0.0982067 0.607039 0
548 1 0.121104 0.6123 0
577 1 0.104696 0.629631 0
549 1 0.138201 0.595968 0
550 1 0.144112 0.618616 0
551 1 0.16335 0.604355 0
581 1 0.165153 0.630117 0
552 1 0.185748 0.616424 0
553 1 0.201117 0.596033 0
554 1 0.220042 0.612955 0
583 1 0.205295 0.631817 0
555 1 0.237726 0.597557 0
556 1 0.246447 0.619874 0
557 1 0.261773 0.601767 0
587 1 0.269152 0.629761 0
558 1 0.284247 0.61181 0
559 1 0.303647 0.598171 0
560 1 0.314014 0.620505 0
589 1 0.293797 0.63406 0
561 1 0.327436 0.599974 0
562 1 0.348206 0.611311 0
591 1 0.33533 0.631335 0
593 1 0.358746 0.632232 0
563 1 0.370205 0.600064 0
564 1 0.380074 0.621764 0
565 1 0.398291 0.607081 0
595 1 0.400961 0.633398 0
566 1 0.420241 0.618105 0
567 1 0.433931 0.598458 0
597 1 0.440098 0.631927 0
568 1 0.455707 0.614813 0
569 1 0.471129 0.597461 0
570 1 0.481396 0.62075 0
1441 1 0.495246 0.598658 0
573 1 0.0283284 0.63655 0
572 1 0.0143741 0.656617 0
603 1 0.0351046 0.671024 0
575 1 0.0671945 0.63831 0
574 1 0.0475125 0.651145 0
605 1 0.0693617 0.662644 0
576 1 0.0886556 0.648592 0
578 1 0.112343 0.651653 0
579 1 0.130907 0.637763 0
607 1 0.0999441 0.670735 0
609 1 0.131885 0.665012 0
580 1 0.15214 0.65081 0
611 1 0.173525 0.664503 0
610 1 0.153681 0.676723 0
582 1 0.185627 0.644575 0
584 1 0.214414 0.654255 0
613 1 0.196748 0.670054 0
614 1 0.220058 0.680126 0
585 1 0.230255 0.636645 0
586 1 0.253222 0.64658 0
615 1 0.236952 0.663748 0
617 1 0.261095 0.668814 0
588 1 0.279059 0.653185 0
590 1 0.315186 0.644078 0
619 1 0.303796 0.664202 0
618 1 0.284653 0.677087 0
621 1 0.328252 0.663722 0
592 1 0.349313 0.653196 0
622 1 0.347647 0.677489 0
594 1 0.379467 0.645259 0
625 1 0.400411 0.659368 0
623 1 0.36989 0.667039 0
596 1 0.420771 0.645675 0
598 1 0.44558 0.655494 0
627 1 0.426688 0.669342 0
599 1 0.463271 0.638763 0
600 1 0.485656 0.646424 0
629 1 0.468368 0.663485 0
630 1 0.485177 0.680965 0
602 1 0.0150496 0.682741 0
633 1 0.0356899 0.695683 0
632 1 0.0158706 0.710998 0
604 1 0.056416 0.682715 0
606 1 0.0810633 0.684097 0
635 1 0.0675825 0.703334 0
634 1 0.048298 0.716192 0
636 1 0.0820856 0.722049 0
608 1 0.11837 0.686598 0
637 1 0.0981952 0.703228 0
638 1 0.121928 0.711749 0
639 1 0.141003 0.697267 0
641 1 0.164381 0.705015 0
640 1 0.147097 0.721227 0
612 1 0.180775 0.68802 0
643 1 0.205096 0.697695 0
642 1 0.187837 0.713792 0
644 1 0.213485 0.721195 0
616 1 0.246357 0.687386 0
645 1 0.230488 0.70457 0
647 1 0.270229 0.695449 0
646 1 0.254179 0.713089 0
620 1 0.317721 0.685747 0
649 1 0.295609 0.699824 0
648 1 0.279364 0.718898 0
650 1 0.317844 0.709305 0
651 1 0.339844 0.700139 0
653 1 0.362733 0.695876 0
652 1 0.352439 0.72074 0
624 1 0.384452 0.686467 0
655 1 0.3991 0.705941 0
654 1 0.376987 0.714804 0
626 1 0.407796 0.683409 0
657 1 0.429366 0.694508 0
656 1 0.420184 0.717922 0
658 1 0.448083 0.709787 0
628 1 0.453171 0.684053 0
1531 1 0.498033 0.70177 0
659 1 0.472023 0.702546 0
660 1 0.486519 0.722786 0
662 1 0.0170991 0.750981 0
663 1 0.030192 0.731339 0
693 1 0.0291815 0.771803 0
691 1 0.00362168 0.769993 0
664 1 0.0444782 0.752798 0
665 1 0.0628507 0.736543 0
666 1 0.0882105 0.745498 0
695 1 0.0696597 0.759999 0
667 1 0.105774 0.729159 0
669 1 0.129214 0.736507 0
668 1 0.111627 0.752447 0
697 1 0.094504 0.769413 0
699 1 0.134513 0.760506 0
670 1 0.153967 0.747188 0
671 1 0.170098 0.729902 0
701 1 0.161671 0.771013 0
672 1 0.17786 0.753088 0
673 1 0.195478 0.736797 0
674 1 0.219383 0.745033 0
703 1 0.200638 0.760467 0
675 1 0.238782 0.731128 0
677 1 0.263722 0.737273 0
676 1 0.248553 0.755056 0
705 1 0.22832 0.768075 0
707 1 0.271674 0.765532 0
679 1 0.302717 0.727395 0
678 1 0.286943 0.74541 0
680 1 0.31175 0.750929 0
709 1 0.295279 0.76923 0
681 1 0.328851 0.731587 0
711 1 0.330354 0.767986 0
682 1 0.346363 0.748464 0
683 1 0.36933 0.738064 0
684 1 0.387839 0.752968 0
685 1 0.395894 0.729998 0
713 1 0.365973 0.764132 0
715 1 0.408579 0.764248 0
686 1 0.416696 0.741846 0
687 1 0.439181 0.733533 0
688 1 0.45629 0.751594 0
717 1 0.432313 0.760125 0
689 1 0.463346 0.728209 0
690 1 0.479633 0.746746 0
719 1 0.47374 0.76976 0
1591 1 0.498276 0.765703 0
692 1 0.0143677 0.790926 0
722 1 0.0226678 0.813055 0
723 1 0.0372084 0.794262 0
694 1 0.0531922 0.776877 0
696 1 0.076392 0.784343 0
725 1 0.0594104 0.800775 0
726 1 0.0794676 0.812517 0
698 1 0.116485 0.782103 0
727 1 0.0970399 0.795175 0
728 1 0.114268 0.81264 0
700 1 0.14076 0.782826 0
729 1 0.137366 0.805783 0
731 1 0.160799 0.795017 0
732 1 0.179839 0.809976 0
702 1 0.183648 0.784028 0
704 1 0.209157 0.782361 0
733 1 0.203025 0.804563 0
706 1 0.250373 0.77935 0
735 1 0.230277 0.794443 0
736 1 0.24266 0.815576 0
737 1 0.260918 0.800579 0
708 1 0.283446 0.791056 0
710 1 0.313137 0.786199 0
738 1 0.278444 0.818317 0
739 1 0.30074 0.808184 0
712 1 0.350622 0.783552 0
741 1 0.333794 0.801221 0
742 1 0.355318 0.814249 0
714 1 0.388098 0.777152 0
743 1 0.37204 0.796013 0
745 1 0.396823 0.801109 0
716 1 0.417782 0.785532 0
718 1 0.45065 0.77542 0
746 1 0.419892 0.808728 0
747 1 0.439582 0.796092 0
748 1 0.45095 0.818445 0
720 1 0.487763 0.78904 0
899 1 0.471969 0.977042 0
749 1 0.463997 0.795611 0
750 1 0.476863 0.816251 0
751 1 0.00447021 0.828222 0
752 1 0.0115122 0.852875 0
753 1 0.0277054 0.836161 0
724 1 0.0478026 0.822852 0
755 1 0.0706015 0.836266 0
754 1 0.0481748 0.848477 0
785 1 0.0676476 0.862069 0
756 1 0.088647 0.851897 0
757 1 0.0963908 0.829398 0
759 1 0.13181 0.83077 0
758 1 0.112871 0.84802 0
789 1 0.135003 0.858045 0
730 1 0.156939 0.818813 0
760 1 0.153093 0.842693 0
761 1 0.174998 0.834888 0
763 1 0.197156 0.827323 0
734 1 0.220273 0.82175 0
762 1 0.187187 0.855526 0
764 1 0.210403 0.84673 0
767 1 0.258706 0.833131 0
765 1 0.235242 0.839753 0
795 1 0.227529 0.863076 0
766 1 0.252349 0.855468 0
768 1 0.277648 0.848917 0
769 1 0.298167 0.833756 0
799 1 0.298444 0.859657 0
740 1 0.319622 0.821824 0
770 1 0.318799 0.846872 0
771 1 0.340369 0.83359 0
772 1 0.349127 0.856024 0
744 1 0.379996 0.819504 0
775 1 0.403834 0.82563 0
773 1 0.364063 0.837975 0
774 1 0.387585 0.84314 0
777 1 0.429995 0.830622 0
776 1 0.414555 0.848433 0
778 1 0.442655 0.851664 0
779 1 0.465185 0.838699 0
780 1 0.48768 0.851444 0
783 1 0.0323401 0.868714 0
782 1 0.015257 0.886751 0
813 1 0.0368162 0.898225 0
784 1 0.0544918 0.881769 0
815 1 0.0643567 0.904318 0
786 1 0.0805786 0.884422 0
787 1 0.101994 0.871156 0
788 1 0.12469 0.880183 0
817 1 0.105145 0.894742 0
819 1 0.134525 0.903381 0
791 1 0.164604 0.863282 0
790 1 0.148573 0.88159 0
821 1 0.161757 0.901628 0
792 1 0.178834 0.883965 0
793 1 0.204543 0.871935 0
823 1 0.20091 0.896061 0
794 1 0.223019 0.886545 0
797 1 0.269163 0.871758 0
796 1 0.245415 0.878597 0
825 1 0.23683 0.90512 0
827 1 0.260326 0.896234 0
798 1 0.286435 0.887586 0
800 1 0.308925 0.880726 0
829 1 0.304809 0.904379 0
801 1 0.329501 0.86883 0
831 1 0.328315 0.894216 0
802 1 0.34968 0.881106 0
803 1 0.371733 0.86629 0
805 1 0.396561 0.865272 0
833 1 0.362943 0.901273 0
804 1 0.384485 0.890462 0
835 1 0.40339 0.909136 0
807 1 0.426003 0.870689 0
806 1 0.408158 0.885905 0
808 1 0.449225 0.881306 0
837 1 0.429029 0.897553 0
1681 1 0.49918 0.872712 0
809 1 0.465759 0.862886 0
810 1 0.478199 0.884925 0
839 1 0.463959 0.903782 0
812 1 0.0170517 0.912647 0
842 1 0.0109141 0.951334 0
843 1 0.0266615 0.934151 0
816 1 0.087366 0.911457 0
814 1 0.0473971 0.920906 0
844 1 0.0481753 0.945206 0
845 1 0.0699134 0.93149 0
818 1 0.112933 0.917482 0
847 1 0.0956105 0.93424 0
848 1 0.112677 0.951925 0
849 1 0.129328 0.934519 0
820 1 0.149691 0.922119 0
850 1 0.150586 0.946722 0
851 1 0.171673 0.934009 0
822 1 0.183738 0.912863 0
853 1 0.19539 0.93839 0
824 1 0.210014 0.9185 0
854 1 0.216879 0.948544 0
855 1 0.23202 0.930327 0
826 1 0.254669 0.919988 0
856 1 0.253025 0.944113 0
828 1 0.279637 0.910104 0
857 1 0.273446 0.933609 0
858 1 0.289812 0.950603 0
859 1 0.296294 0.927203 0
860 1 0.312748 0.944259 0
832 1 0.342064 0.913407 0
830 1 0.319913 0.921818 0
861 1 0.337719 0.937619 0
862 1 0.355016 0.954073 0
863 1 0.359763 0.929429 0
834 1 0.380349 0.917816 0
864 1 0.378151 0.945297 0
865 1 0.398837 0.933407 0
838 1 0.444512 0.916589 0
836 1 0.422203 0.923747 0
866 1 0.417325 0.947784 0
867 1 0.440918 0.940696 0
1741 1 0.49685 0.939887 0
840 1 0.486229 0.914847 0
869 1 0.464971 0.930312 0
870 1 0.476804 0.952188 0
872 1 0.0206901 0.987835 0
873 1 0.0324607 0.963855 0
871 1 0.00167539 0.973686 0
846 1 0.0838547 0.955054 0
874 1 0.0468301 0.983856 0
875 1 0.0616402 0.964551 0
876 1 0.0782751 0.982058 0
877 1 0.100486 0.972354 0
878 1 0.12105 0.985394 0
7 1 0.0987731 0.996597 0
879 1 0.134147 0.964529 0
852 1 0.180134 0.956613 0
880 1 0.145171 0.988572 0
881 1 0.15923 0.969212 0
882 1 0.180961 0.981694 0
883 1 0.201281 0.968357 0
13 1 0.203398 0.994911 0
884 1 0.222048 0.979701 0
885 1 0.237217 0.961629 0
886 1 0.245497 0.985651 0
17 1 0.268643 0.991906 0
887 1 0.261064 0.967215 0
888 1 0.284618 0.974438 0
889 1 0.306927 0.967994 0
19 1 0.296813 0.995384 0
890 1 0.321463 0.986164 0
891 1 0.329968 0.960365 0
892 1 0.345532 0.977749 0
23 1 0.363467 0.993044 0
893 1 0.373044 0.969827 0
895 1 0.395896 0.961591 0
894 1 0.389288 0.98725 0
27 1 0.427573 0.998599 0
898 1 0.448263 0.984817 0
897 1 0.431781 0.966451 0
896 1 0.411439 0.980147 0
868 1 0.454786 0.960558 0
900 1 0.489667 0.992057 0
902 1 0.529387 0.0169501 0
933 1 0.532147 0.0410517 0
931 1 0.508408 0.0309474 0
901 1 0.508763 0.00630068 0
904 1 0.550677 0.0253688 0
935 1 0.57396 0.0315374 0
906 1 0.58876 0.0134619 0
905 1 0.565673 0.00559863 0
908 1 0.612556 0.0211693 0
937 1 0.596063 0.0380162 0
909 1 0.629381 0.00512883 0
938 1 0.620277 0.0454755 0
939 1 0.637214 0.0283665 0
910 1 0.653034 0.0107094 0
941 1 0.663722 0.0370631 0
912 1 0.676316 0.0171698 0
913 1 0.697574 0.00500271 0
943 1 0.697212 0.0285527 0
914 1 0.719283 0.0189716 0
945 1 0.734224 0.0391452 0
916 1 0.750524 0.0132273 0
947 1 0.758675 0.0354372 0
918 1 0.777927 0.0221114 0
919 1 0.795973 0.00607755 0
949 1 0.800813 0.0319785 0
920 1 0.81994 0.01512 0
951 1 0.83444 0.0352508 0
922 1 0.845497 0.0136156 0
953 1 0.859955 0.0338914 0
924 1 0.881887 0.0183412 0
925 1 0.903757 0.00414233 0
955 1 0.903665 0.0294642 0
954 1 0.883448 0.0432921 0
926 1 0.925109 0.0165075 0
928 1 0.948278 0.00886964 0
957 1 0.934698 0.0393471 0
930 1 0.98473 0.0214395 0
959 1 0.959706 0.0292654 0
929 1 0.970926 0.00210556 0
932 1 0.512606 0.0549258 0
962 1 0.521964 0.0801298 0
963 1 0.539515 0.0641774 0
964 1 0.544479 0.0877711 0
934 1 0.556119 0.0477091 0
936 1 0.579201 0.0549103 0
965 1 0.56256 0.0717774 0
966 1 0.587147 0.0803892 0
967 1 0.603368 0.0626424 0
969 1 0.628057 0.0696697 0
968 1 0.611611 0.0867759 0
940 1 0.644568 0.0519459 0
970 1 0.651223 0.0781328 0
971 1 0.666803 0.0607203 0
972 1 0.676224 0.0820966 0
942 1 0.687765 0.0502244 0
973 1 0.702685 0.0699154 0
944 1 0.711604 0.0473322 0
975 1 0.726954 0.0651043 0
974 1 0.72056 0.0881999 0
946 1 0.749936 0.0572664 0
976 1 0.745155 0.0805136 0
977 1 0.768898 0.0715857 0
948 1 0.7798 0.0464243 0
950 1 0.81649 0.05303 0
979 1 0.793692 0.0654628 0
980 1 0.809309 0.083208 0
978 1 0.785243 0.0888141 0
981 1 0.83113 0.0729652 0
952 1 0.847826 0.0552458 0
982 1 0.853965 0.0821897 0
983 1 0.870441 0.063966 0
985 1 0.893968 0.0657773 0
984 1 0.882479 0.0867303 0
986 1 0.91412 0.0797582 0
956 1 0.913672 0.0519227 0
958 1 0.954461 0.0536602 0
987 1 0.933748 0.0654594 0
988 1 0.949434 0.0847251 0
61 1 0.996054 0.0594588 0
960 1 0.977733 0.0449892 0
989 1 0.973041 0.0695717 0
990 1 0.993244 0.0832162 0
991 1 0.504585 0.0966956 0
992 1 0.510512 0.122751 0
993 1 0.527185 0.104882 0
1023 1 0.534687 0.127677 0
994 1 0.551248 0.111016 0
995 1 0.568698 0.095163 0
996 1 0.576034 0.117715 0
997 1 0.596693 0.104889 0
998 1 0.62049 0.115848 0
999 1 0.634287 0.0950565 0
1027 1 0.599666 0.129003 0
1000 1 0.645112 0.117868 0
1001 1 0.662887 0.10145 0
1031 1 0.667062 0.129187 0
1002 1 0.686418 0.115199 0
1003 1 0.697189 0.0932626 0
1004 1 0.711135 0.113652 0
1033 1 0.69805 0.136875 0
1005 1 0.738459 0.103628 0
1006 1 0.755145 0.120701 0
1007 1 0.762299 0.0961622 0
1035 1 0.731991 0.126724 0
1008 1 0.778794 0.112821 0
1009 1 0.802457 0.106132 0
1039 1 0.796235 0.129674 0
1010 1 0.820054 0.122164 0
1011 1 0.828225 0.0974212 0
1012 1 0.843354 0.115413 0
1043 1 0.862296 0.130345 0
1013 1 0.864733 0.104275 0
1014 1 0.884322 0.118867 0
1015 1 0.902024 0.10105 0
1016 1 0.915928 0.121321 0
1017 1 0.929407 0.100022 0
1018 1 0.953395 0.109691 0
1047 1 0.938956 0.129237 0
1019 1 0.971828 0.093706 0
1020 1 0.979203 0.116566 0
121 1 0.999337 0.130259 0
1049 1 0.962003 0.132946 0
1022 1 0.519814 0.146788 0
1349 1 0.969222 0.464934 0
1053 1 0.531422 0.170483 0
1052 1 0.511178 0.182767 0
1025 1 0.564644 0.138239 0
1024 1 0.543972 0.150276 0
1055 1 0.566754 0.16264 0
1026 1 0.586925 0.149483 0
1028 1 0.612062 0.151442 0
1029 1 0.6323 0.138689 0
1059 1 0.634626 0.164101 0
1057 1 0.600053 0.172142 0
1030 1 0.654167 0.149639 0
1032 1 0.678333 0.152103 0
1061 1 0.665019 0.172558 0
1063 1 0.701418 0.161018 0
1034 1 0.721836 0.148185 0
1036 1 0.748486 0.145347 0
1065 1 0.7357 0.168175 0
1037 1 0.772778 0.136456 0
1067 1 0.767841 0.159955 0
1066 1 0.756766 0.180364 0
1038 1 0.79084 0.152711 0
1040 1 0.813923 0.145968 0
1069 1 0.805537 0.170535 0
1071 1 0.831052 0.161923 0
1041 1 0.837497 0.138271 0
1042 1 0.854725 0.154563 0
1045 1 0.898568 0.138389 0
1044 1 0.878691 0.150977 0
1075 1 0.902684 0.162278 0
1073 1 0.869063 0.172655 0
1046 1 0.921348 0.145255 0
1048 1 0.947986 0.153035 0
1077 1 0.928846 0.167465 0
1078 1 0.949627 0.17882 0
1050 1 0.981608 0.145813 0
1079 1 0.969319 0.16615 0
1083 1 0.533756 0.195432 0
1082 1 0.519568 0.214339 0
1084 1 0.545842 0.21792 0
1054 1 0.553825 0.182652 0
1056 1 0.579378 0.184457 0
1085 1 0.566457 0.204609 0
1086 1 0.588227 0.216469 0
1058 1 0.621799 0.184235 0
1087 1 0.601553 0.197095 0
1089 1 0.631134 0.207232 0
1088 1 0.613007 0.221976 0
1060 1 0.646375 0.188192 0
1091 1 0.670953 0.19684 0
1090 1 0.657309 0.217369 0
1092 1 0.681465 0.219511 0
1062 1 0.690135 0.181978 0
1093 1 0.700764 0.204933 0
1064 1 0.714927 0.183276 0
1094 1 0.724232 0.214452 0
1095 1 0.738181 0.194815 0
1097 1 0.765821 0.203053 0
1096 1 0.747939 0.219751 0
1068 1 0.781559 0.180979 0
1099 1 0.802155 0.194231 0
1098 1 0.788114 0.212881 0
1100 1 0.812631 0.216471 0
1070 1 0.823381 0.185085 0
1072 1 0.846694 0.182208 0
1101 1 0.835638 0.205246 0
1102 1 0.856032 0.217705 0
1103 1 0.866234 0.196208 0
1074 1 0.889023 0.185689 0
1105 1 0.902512 0.205821 0
1104 1 0.880203 0.215444 0
1076 1 0.9132 0.184584 0
1107 1 0.933765 0.196975 0
1106 1 0.922536 0.21884 0
1108 1 0.952172 0.214128 0
1080 1 0.987236 0.182464 0
1109 1 0.966921 0.194414 0
1110 1 0.97841 0.215731 0
1111 1 0.505062 0.233002 0
1113 1 0.530276 0.236614 0
1112 1 0.514224 0.255371 0
1143 1 0.536989 0.264448 0
1114 1 0.552661 0.247206 0
1115 1 0.569349 0.230782 0
1116 1 0.57695 0.253887 0
1145 1 0.560968 0.271843 0
1117 1 0.595482 0.239175 0
1119 1 0.638321 0.230888 0
1118 1 0.620127 0.245597 0
1147 1 0.60336 0.261906 0
1149 1 0.629239 0.268675 0
1121 1 0.669669 0.240695 0
1120 1 0.649372 0.254589 0
1151 1 0.672964 0.265043 0
1122 1 0.692165 0.249714 0
1123 1 0.705242 0.229493 0
1124 1 0.715894 0.255545 0
1125 1 0.731189 0.237282 0
1126 1 0.754934 0.245957 0
1127 1 0.770646 0.228392 0
1155 1 0.738445 0.262511 0
1157 1 0.763195 0.269479 0
1128 1 0.779172 0.251358 0
1129 1 0.798351 0.235332 0
1159 1 0.802052 0.260394 0
1130 1 0.8208 0.246934 0
1131 1 0.834099 0.228221 0
1132 1 0.846815 0.247763 0
1161 1 0.832043 0.268207 0
1133 1 0.869786 0.237232 0
1135 1 0.899766 0.229556 0
1163 1 0.866345 0.261091 0
1134 1 0.889714 0.25084 0
1165 1 0.903732 0.269462 0
1136 1 0.915765 0.247103 0
1137 1 0.938689 0.236742 0