ITEM: TIMESTEP
72000
ITEM: NUMBER OF ATOMS
1800
ITEM: BOX BOUNDS pp pp pp
1.1181081349018740e+00 1.6388189186509675e+02
1.1181081349018740e+00 1.6388189186509675e+02
0.0000000000000000e+00 5.5000000000000000e+00
ITEM: ATOMS id type xs ys zs
2 1 0.0126075 0.0148936 0
3 1 0.0369932 0.00876534 0
31 1 0.00471642 0.0388301 0
33 1 0.0290121 0.0329638 0
4 1 0.0531005 0.0272796 0
6 1 0.078024 0.0203681 0
5 1 0.0612154 0.00333005 0
35 1 0.0704387 0.0447304 0
8 1 0.113046 0.00801417 0
37 1 0.0943152 0.0392899 0
39 1 0.118608 0.03286 0
9 1 0.139479 0.0171477 0
10 1 0.162107 0.026352 0
11 1 0.159348 0.00244193 0
12 1 0.183835 0.0147675 0
41 1 0.182893 0.0398918 0
14 1 0.205303 0.0307051 0
13 1 0.205408 0.00443639 0
15 1 0.22999 0.026748 0
16 1 0.256106 0.021538 0
46 1 0.24863 0.0452739 0
886 1 0.239658 0.00413671 0
47 1 0.272809 0.0406882 0
19 1 0.306706 0.0096265 0
18 1 0.280873 0.0170154 0
49 1 0.299278 0.0331214 0
20 1 0.323377 0.0271414 0
51 1 0.340635 0.0434592 0
21 1 0.350829 0.0212173 0
890 1 0.331867 0.00358977 0
22 1 0.366256 0.0409852 0
24 1 0.407706 0.031771 0
23 1 0.375014 0.0153693 0
894 1 0.399132 0.00832988 0
25 1 0.426199 0.0156882 0
27 1 0.450027 0.021081 0
26 1 0.432964 0.0395161 0
29 1 0.474719 0.0271134 0
900 1 0.491466 0.00823336 0
898 1 0.467484 0.00342688 0
30 1 0.498731 0.0324433 0
28 1 0.457196 0.0444311 0
32 1 0.0225836 0.0558781 0
63 1 0.0384231 0.074208 0
62 1 0.0148454 0.0813055 0
34 1 0.0465501 0.0503576 0
65 1 0.0620743 0.0686595 0
66 1 0.0787123 0.0867627 0
36 1 0.0866831 0.0636261 0
38 1 0.110933 0.0576434 0
67 1 0.103357 0.0814811 0
68 1 0.127216 0.0766398 0
69 1 0.135786 0.0523993 0
40 1 0.160297 0.0500243 0
71 1 0.151306 0.0725705 0
72 1 0.168165 0.0899199 0
42 1 0.177201 0.0671408 0
45 1 0.223281 0.0509006 0
43 1 0.200422 0.0587364 0
44 1 0.21747 0.0761846 0
73 1 0.19432 0.0852019 0
75 1 0.242285 0.0694652 0
77 1 0.266424 0.0645861 0
76 1 0.259096 0.0870578 0
50 1 0.316769 0.0511875 0
48 1 0.291018 0.0569239 0
78 1 0.284237 0.0812442 0
79 1 0.308193 0.0740758 0
81 1 0.332943 0.0789473 0
52 1 0.351835 0.0634551 0
82 1 0.357975 0.0870407 0
53 1 0.389778 0.0492464 0
83 1 0.37508 0.068905 0
54 1 0.398426 0.074577 0
55 1 0.414292 0.0555681 0
57 1 0.439782 0.0641849 0
56 1 0.422507 0.0807973 0
87 1 0.446849 0.0876949 0
59 1 0.481611 0.0508131 0
58 1 0.463608 0.068637 0
89 1 0.488085 0.0748457 0
92 1 0.0232777 0.123225 0
93 1 0.0309709 0.0998359 0
91 1 0.00594243 0.105031 0
64 1 0.0549214 0.0933951 0
94 1 0.0484152 0.117846 0
95 1 0.0718629 0.110723 0
96 1 0.0883537 0.130213 0
97 1 0.0952504 0.105149 0
98 1 0.111724 0.124016 0
99 1 0.119232 0.100143 0
70 1 0.143347 0.0954846 0
100 1 0.135916 0.118708 0
101 1 0.160573 0.115012 0
103 1 0.184815 0.107494 0
102 1 0.192385 0.130266 0
104 1 0.21611 0.134528 0
105 1 0.209417 0.107536 0
74 1 0.235172 0.0932667 0
106 1 0.231383 0.117205 0
137 1 0.256775 0.123503 0
109 1 0.29861 0.114205 0
107 1 0.274526 0.10502 0
108 1 0.280482 0.130499 0
80 1 0.315902 0.0964061 0
110 1 0.321646 0.121233 0
111 1 0.338863 0.103308 0
141 1 0.34593 0.128419 0
84 1 0.381364 0.0932026 0
113 1 0.363487 0.111387 0
112 1 0.386954 0.11721 0
143 1 0.369466 0.13499 0
85 1 0.405004 0.0994641 0
115 1 0.41117 0.12317 0
86 1 0.4292 0.104987 0
116 1 0.434959 0.129125 0
117 1 0.453047 0.111705 0
88 1 0.470315 0.0929339 0
119 1 0.476937 0.116456 0
90 1 0.494378 0.0992191 0
118 1 0.459472 0.135436 0
122 1 0.0159295 0.146989 0
153 1 0.0326914 0.164695 0
152 1 0.0087321 0.170652 0
123 1 0.0401026 0.141195 0
125 1 0.0641618 0.135797 0
124 1 0.0570905 0.15876 0
126 1 0.0810766 0.154318 0
155 1 0.0738989 0.17748 0
129 1 0.12814 0.142298 0
127 1 0.105085 0.148446 0
128 1 0.121554 0.166195 0
157 1 0.0987762 0.175105 0
130 1 0.151982 0.138053 0
159 1 0.155988 0.163114 0
131 1 0.174852 0.147458 0
132 1 0.18135 0.170583 0
133 1 0.19908 0.153562 0
163 1 0.205647 0.177204 0
134 1 0.222773 0.15977 0
135 1 0.239437 0.141075 0
136 1 0.263116 0.148338 0
165 1 0.246257 0.166638 0
167 1 0.269245 0.17324 0
139 1 0.30356 0.137925 0
138 1 0.285967 0.155057 0
169 1 0.310461 0.161938 0
168 1 0.293594 0.179181 0
140 1 0.327488 0.144924 0
142 1 0.352125 0.151709 0
171 1 0.334312 0.168406 0
172 1 0.358501 0.175974 0
114 1 0.394079 0.14086 0
144 1 0.400416 0.164837 0
173 1 0.376374 0.158496 0
174 1 0.382911 0.182735 0
145 1 0.418162 0.147522 0
146 1 0.425576 0.171245 0
147 1 0.442 0.153244 0
177 1 0.449084 0.177408 0
149 1 0.483427 0.141129 0
148 1 0.466427 0.159063 0
150 1 0.491162 0.165255 0
183 1 0.0260335 0.188363 0
182 1 0.0174239 0.211744 0
181 1 0.0013735 0.194309 0
184 1 0.0427493 0.206863 0
154 1 0.0499269 0.182984 0
185 1 0.0662085 0.201126 0
215 1 0.0597889 0.224438 0
156 1 0.091701 0.199364 0
158 1 0.117604 0.193766 0
187 1 0.124083 0.220526 0
160 1 0.140093 0.181436 0
161 1 0.16333 0.187834 0
189 1 0.144429 0.205349 0
191 1 0.168415 0.212276 0
162 1 0.187087 0.194039 0
193 1 0.211061 0.20086 0
192 1 0.19214 0.218021 0
194 1 0.216214 0.225543 0
164 1 0.228556 0.18405 0
195 1 0.234461 0.209164 0
166 1 0.251607 0.191609 0
196 1 0.258054 0.21492 0
197 1 0.275298 0.197642 0
199 1 0.298826 0.204268 0
198 1 0.281452 0.22217 0
170 1 0.31671 0.186562 0
201 1 0.34055 0.192316 0
200 1 0.324221 0.209923 0
202 1 0.347658 0.217137 0
203 1 0.365173 0.19992 0
233 1 0.372886 0.223975 0
204 1 0.389662 0.206863 0
175 1 0.407612 0.188774 0
205 1 0.41378 0.212945 0
176 1 0.431367 0.195478 0
207 1 0.437775 0.219902 0
179 1 0.474172 0.182346 0
178 1 0.455259 0.200541 0
208 1 0.462433 0.225386 0
209 1 0.480905 0.206709 0
180 1 0.498533 0.190146 0
212 1 0.0228428 0.25876 0
211 1 0.0180665 0.234953 0
213 1 0.0417078 0.240944 0
186 1 0.0840327 0.229587 0
243 1 0.0473618 0.265964 0
214 1 0.0655112 0.248989 0
216 1 0.0900623 0.256032 0
217 1 0.10794 0.238806 0
218 1 0.113705 0.262684 0
188 1 0.13083 0.245328 0
190 1 0.150488 0.229748 0
221 1 0.174294 0.235855 0
219 1 0.138309 0.269279 0
220 1 0.156092 0.253494 0
222 1 0.180586 0.26063 0
223 1 0.198252 0.242487 0
253 1 0.204493 0.267501 0
224 1 0.222258 0.249643 0
225 1 0.239898 0.232985 0
227 1 0.263392 0.238817 0
226 1 0.246609 0.256833 0
257 1 0.270722 0.262247 0
229 1 0.306986 0.227612 0
228 1 0.289175 0.244583 0
259 1 0.295365 0.269161 0
230 1 0.312975 0.252154 0
231 1 0.331107 0.233822 0
232 1 0.355765 0.241636 0
261 1 0.337369 0.25899 0
263 1 0.361902 0.265792 0
235 1 0.396692 0.230813 0
234 1 0.37903 0.248182 0
265 1 0.40269 0.255303 0
206 1 0.42099 0.237178 0
237 1 0.44535 0.243359 0
236 1 0.427879 0.261942 0
238 1 0.451852 0.267056 0
210 1 0.487486 0.230685 0
239 1 0.469061 0.249117 0
240 1 0.493329 0.255334 0
241 1 0.00318918 0.274348 0
242 1 0.0288643 0.282919 0
271 1 0.0104162 0.298697 0
273 1 0.0354245 0.306821 0
245 1 0.0710921 0.273488 0
244 1 0.0531436 0.289982 0
246 1 0.0777067 0.297135 0
275 1 0.0600411 0.314206 0
247 1 0.0960219 0.279646 0
249 1 0.120749 0.286666 0
248 1 0.102472 0.302958 0
279 1 0.126534 0.310242 0
251 1 0.162468 0.278327 0
250 1 0.145149 0.294634 0
281 1 0.169915 0.302103 0
280 1 0.15067 0.318054 0
252 1 0.186933 0.284995 0
254 1 0.210994 0.29173 0
283 1 0.193718 0.309118 0
284 1 0.217291 0.31579 0
255 1 0.229019 0.27388 0
256 1 0.253516 0.28011 0
285 1 0.235114 0.297974 0
287 1 0.258766 0.304249 0
258 1 0.277636 0.285915 0
288 1 0.283578 0.311496 0
289 1 0.301816 0.293822 0
290 1 0.308445 0.317444 0
260 1 0.319268 0.275933 0
262 1 0.343984 0.283037 0
291 1 0.324319 0.299867 0
292 1 0.35101 0.308345 0
264 1 0.385413 0.27293 0
293 1 0.368052 0.290729 0
295 1 0.392783 0.296673 0
294 1 0.375055 0.314996 0
266 1 0.40987 0.279469 0
267 1 0.434004 0.285566 0
297 1 0.4168 0.302836 0
298 1 0.43987 0.309673 0
269 1 0.475792 0.273533 0
268 1 0.458706 0.291824 0
270 1 0.481819 0.298719 0
299 1 0.463703 0.316415 0
1200 1 0.0174447 0.323807 0
272 1 0.0426261 0.331378 0
301 1 0.0244935 0.347725 0
276 1 0.0852386 0.321365 0
303 1 0.0487036 0.35657 0
274 1 0.0672549 0.338578 0
304 1 0.0728811 0.362925 0
305 1 0.0910898 0.345392 0
277 1 0.10859 0.327359 0
278 1 0.13283 0.335576 0
307 1 0.114595 0.352725 0
282 1 0.17577 0.32603 0
309 1 0.138239 0.360614 0
311 1 0.156917 0.342853 0
312 1 0.181718 0.349618 0
313 1 0.20006 0.333392 0
314 1 0.205903 0.357263 0
315 1 0.223807 0.339913 0
286 1 0.241115 0.32293 0
317 1 0.266287 0.328427 0
316 1 0.248299 0.345446 0
345 1 0.230884 0.364046 0
318 1 0.271972 0.352241 0
319 1 0.290176 0.334754 0
349 1 0.296516 0.358983 0
320 1 0.314358 0.342076 0
321 1 0.332401 0.324355 0
323 1 0.35737 0.332541 0
322 1 0.338593 0.349489 0
324 1 0.363571 0.356622 0
296 1 0.398235 0.321236 0
325 1 0.381026 0.339104 0
326 1 0.405022 0.345578 0
327 1 0.422358 0.327163 0
328 1 0.428757 0.351997 0
329 1 0.44665 0.334148 0
359 1 0.452517 0.357737 0
300 1 0.488415 0.32212 0
330 1 0.470091 0.33979 0
1201 1 0.495399 0.345646 0
1230 1 0.00657507 0.364546 0
302 1 0.0301703 0.372861 0
332 1 0.0367542 0.39742 0
331 1 0.0125329 0.389147 0
333 1 0.0550405 0.380623 0
335 1 0.0786071 0.387716 0
334 1 0.0598136 0.405442 0
306 1 0.0969187 0.369315 0
308 1 0.120436 0.376404 0
337 1 0.103411 0.394674 0
338 1 0.126972 0.401219 0
310 1 0.161998 0.367362 0
339 1 0.144601 0.38508 0
341 1 0.168571 0.390304 0
340 1 0.150762 0.408918 0
343 1 0.187501 0.373856 0
342 1 0.193371 0.398119 0
344 1 0.21228 0.380829 0
373 1 0.218911 0.40448 0
347 1 0.254989 0.369962 0
346 1 0.237098 0.38721 0
377 1 0.26129 0.393927 0
348 1 0.278788 0.376298 0
350 1 0.302556 0.383755 0
378 1 0.285402 0.40074 0
379 1 0.309052 0.408584 0
351 1 0.320897 0.366305 0
381 1 0.326453 0.391013 0
353 1 0.345196 0.373772 0
352 1 0.35206 0.397889 0
355 1 0.387579 0.363909 0
354 1 0.369358 0.381276 0
385 1 0.376589 0.406236 0
356 1 0.393448 0.387808 0
387 1 0.418484 0.393882 0
357 1 0.411724 0.37084 0
358 1 0.434644 0.376016 0
389 1 0.442522 0.401546 0
360 1 0.478131 0.363787 0
1232 1 0.460921 0.382224 0
1262 1 0.485656 0.387894 0
1261 1 0.467816 0.406079 0
361 1 0.0188828 0.414978 0
362 1 0.024909 0.439587 0
363 1 0.0422575 0.422796 0
391 1 0.00100334 0.431445 0
336 1 0.0847926 0.411323 0
364 1 0.0491849 0.446391 0
365 1 0.0676854 0.429888 0
395 1 0.0732698 0.454714 0
366 1 0.0916779 0.437636 0
367 1 0.109387 0.419596 0
368 1 0.115145 0.444455 0
369 1 0.133279 0.426385 0
371 1 0.17563 0.415507 0
399 1 0.139298 0.450451 0
370 1 0.158644 0.433491 0
401 1 0.181949 0.438993 0
372 1 0.201717 0.421173 0
403 1 0.20677 0.444781 0
374 1 0.224641 0.427866 0
375 1 0.242997 0.410998 0
404 1 0.23129 0.452259 0
376 1 0.267412 0.417444 0
405 1 0.249705 0.434756 0
407 1 0.27276 0.44169 0
409 1 0.291158 0.425367 0
410 1 0.297591 0.449692 0
380 1 0.315048 0.432796 0
382 1 0.333159 0.415134 0
383 1 0.357197 0.422024 0
413 1 0.339092 0.439859 0
386 1 0.400133 0.412871 0
414 1 0.363464 0.446572 0
384 1 0.382025 0.4304 0
417 1 0.406491 0.438299 0
415 1 0.388093 0.455043 0
388 1 0.423604 0.419159 0
418 1 0.430183 0.44393 0
419 1 0.449919 0.42471 0
390 1 0.455362 0.450161 0
1291 1 0.472972 0.431375 0
1293 1 0.491974 0.412617 0
1292 1 0.499135 0.436982 0
392 1 0.00700124 0.456918 0
393 1 0.0317464 0.464605 0
422 1 0.0131421 0.482149 0
423 1 0.0379587 0.48837 0
394 1 0.0558232 0.47168 0
396 1 0.0802153 0.478588 0
425 1 0.0626577 0.496055 0
397 1 0.0975966 0.461985 0
398 1 0.121581 0.46869 0
427 1 0.103829 0.48587 0
428 1 0.127109 0.492357 0
400 1 0.1643 0.457545 0
429 1 0.145326 0.474995 0
431 1 0.1713 0.481736 0
430 1 0.152905 0.499534 0
402 1 0.188402 0.4626 0
432 1 0.194525 0.486544 0
433 1 0.212578 0.468665 0
434 1 0.218803 0.493291 0
406 1 0.254933 0.459017 0
435 1 0.237012 0.476303 0
436 1 0.261023 0.483473 0
408 1 0.278586 0.465854 0
439 1 0.285764 0.490883 0
440 1 0.311092 0.497252 0
441 1 0.303578 0.473904 0
411 1 0.32229 0.45822 0
412 1 0.346634 0.464306 0
442 1 0.329023 0.48115 0
473 1 0.354979 0.488988 0
443 1 0.371947 0.4724 0
444 1 0.378036 0.497568 0
445 1 0.396061 0.480108 0
446 1 0.42135 0.488646 0
416 1 0.413377 0.4624 0
447 1 0.437382 0.469307 0
448 1 0.445779 0.492479 0
449 1 0.471555 0.497711 0
1321 1 0.480432 0.455816 0
450 1 0.48889 0.478666 0
420 1 0.462404 0.473692 0
454 1 0.0279139 0.529463 0
453 1 0.0201985 0.506053 0
424 1 0.0451007 0.512732 0
452 1 0.00252396 0.523231 0
483 1 0.00901358 0.546763 0
485 1 0.0530007 0.539144 0
455 1 0.0690973 0.520508 0
426 1 0.0869811 0.503343 0
456 1 0.092803 0.528107 0
457 1 0.110991 0.510571 0
458 1 0.117445 0.533859 0
459 1 0.135322 0.516301 0
489 1 0.141147 0.539488 0
460 1 0.160752 0.523286 0
461 1 0.177317 0.505234 0
462 1 0.185539 0.530782 0
493 1 0.209925 0.539618 0
463 1 0.201742 0.512001 0
464 1 0.22556 0.519942 0
466 1 0.249031 0.526802 0
465 1 0.243443 0.501588 0
437 1 0.268034 0.506679 0
467 1 0.272698 0.52999 0
468 1 0.296497 0.53697 0
469 1 0.316474 0.521655 0
438 1 0.292927 0.513405 0
470 1 0.340676 0.529294 0
472 1 0.359841 0.513887 0
503 1 0.36397 0.538685 0
471 1 0.335374 0.505292 0
474 1 0.384472 0.522894 0
475 1 0.402776 0.505121 0
476 1 0.411108 0.535025 0
477 1 0.428604 0.513029 0
507 1 0.439466 0.534875 0
478 1 0.454106 0.516191 0
480 1 0.464193 0.539547 0
479 1 0.480081 0.520565 0
510 1 0.487762 0.545143 0
1351 1 0.496625 0.50267 0
513 1 0.0344889 0.555214 0
514 1 0.0400794 0.57985 0
482 1 0.0151895 0.571684 0
486 1 0.0775321 0.547373 0
484 1 0.0590933 0.563343 0
515 1 0.0829935 0.573606 0
545 1 0.0634517 0.588693 0
487 1 0.102153 0.554168 0
488 1 0.127115 0.575047 0
517 1 0.105577 0.586935 0
491 1 0.166562 0.546579 0
490 1 0.147725 0.562246 0
520 1 0.149595 0.585657 0
521 1 0.170063 0.57093 0
492 1 0.189851 0.555722 0
523 1 0.193699 0.580474 0
494 1 0.214237 0.564511 0
495 1 0.235075 0.547841 0
496 1 0.25591 0.56492 0
525 1 0.235776 0.578882 0
526 1 0.25881 0.590702 0
497 1 0.278008 0.553575 0
527 1 0.279407 0.57721 0
498 1 0.299998 0.561749 0
529 1 0.301849 0.586342 0
499 1 0.319454 0.545485 0
500 1 0.322126 0.571709 0
501 1 0.34224 0.554579 0
531 1 0.345403 0.579936 0
502 1 0.365487 0.564299 0
505 1 0.387728 0.547931 0
504 1 0.389495 0.575355 0
506 1 0.409931 0.561102 0
535 1 0.40983 0.587365 0
508 1 0.43104 0.575102 0
539 1 0.453977 0.584811 0
509 1 0.448759 0.557939 0
540 1 0.471905 0.564441 0
1441 1 0.496052 0.568939 0
569 1 0.479494 0.587744 0
512 1 0.0199805 0.595499 0
542 1 0.0229118 0.62031 0
543 1 0.0427417 0.605036 0
544 1 0.0469471 0.630004 0
571 1 0.00229334 0.634425 0
516 1 0.0871147 0.602401 0
546 1 0.0665628 0.615523 0
547 1 0.0891104 0.626943 0
519 1 0.128902 0.599265 0
518 1 0.10894 0.613051 0
548 1 0.131818 0.624409 0
522 1 0.172911 0.595974 0
549 1 0.151925 0.610015 0
550 1 0.154124 0.635103 0
551 1 0.174808 0.620589 0
524 1 0.216026 0.592722 0
553 1 0.1952 0.606336 0
552 1 0.196716 0.631526 0
554 1 0.217111 0.617869 0
555 1 0.23774 0.604531 0
556 1 0.238893 0.629514 0
557 1 0.259414 0.615648 0
528 1 0.281226 0.602622 0
559 1 0.30401 0.610883 0
558 1 0.283589 0.627135 0
560 1 0.306892 0.636765 0
530 1 0.324465 0.596087 0
561 1 0.326571 0.621224 0
532 1 0.346644 0.606495 0
562 1 0.349368 0.631629 0
533 1 0.36787 0.589645 0
563 1 0.368247 0.616015 0
534 1 0.388628 0.602159 0
565 1 0.390932 0.627439 0
536 1 0.411139 0.61268 0
537 1 0.432487 0.5992 0
567 1 0.43157 0.624368 0
568 1 0.453692 0.630057 0
538 1 0.467003 0.608986 0
570 1 0.490917 0.611617 0
600 1 0.477206 0.632186 0
870 1 0.477598 0.961556 0
572 1 0.00553355 0.657983 0
573 1 0.0263032 0.643952 0
603 1 0.0292028 0.668724 0
574 1 0.0488375 0.654867 0
575 1 0.0692717 0.641633 0
605 1 0.0713392 0.666075 0
576 1 0.0913621 0.652791 0
604 1 0.0508655 0.67962 0
607 1 0.0928544 0.677457 0
577 1 0.111426 0.637676 0
578 1 0.113371 0.663218 0
579 1 0.133814 0.649166 0
609 1 0.135024 0.674102 0
581 1 0.176647 0.645897 0
580 1 0.156426 0.660456 0
611 1 0.178443 0.67163 0
583 1 0.21906 0.643497 0
582 1 0.198626 0.657703 0
584 1 0.221932 0.668299 0
587 1 0.26161 0.640618 0
585 1 0.241292 0.654618 0
586 1 0.263859 0.66575 0
615 1 0.242875 0.679466 0
589 1 0.28503 0.650852 0
588 1 0.286476 0.675915 0
590 1 0.306923 0.661241 0
591 1 0.328766 0.646002 0
593 1 0.351207 0.656861 0
621 1 0.329546 0.671384 0
592 1 0.351386 0.682605 0
564 1 0.371674 0.64186 0
594 1 0.373934 0.669134 0
595 1 0.39356 0.654706 0
625 1 0.396436 0.680601 0
566 1 0.412655 0.638852 0
596 1 0.416146 0.664451 0
597 1 0.435066 0.649013 0
598 1 0.440228 0.671902 0
599 1 0.458686 0.653644 0
629 1 0.482738 0.656138 0
628 1 0.465064 0.676691 0
630 1 0.48962 0.679816 0
602 1 0.00830844 0.684128 0
633 1 0.030472 0.694924 0
632 1 0.00980914 0.709429 0
634 1 0.0321505 0.720299 0
606 1 0.0729242 0.691604 0
635 1 0.0525478 0.705377 0
636 1 0.0742477 0.717091 0
637 1 0.0945333 0.702866 0
608 1 0.114783 0.688139 0
638 1 0.116773 0.713484 0
639 1 0.137264 0.699042 0
640 1 0.13937 0.725179 0
610 1 0.158167 0.685208 0
641 1 0.158878 0.711021 0
612 1 0.179725 0.696689 0
642 1 0.181702 0.723531 0
613 1 0.201183 0.68322 0
614 1 0.223133 0.694687 0
643 1 0.20186 0.70861 0
645 1 0.224584 0.720056 0
617 1 0.265377 0.689949 0
616 1 0.244941 0.704875 0
647 1 0.267237 0.715957 0
619 1 0.309249 0.685666 0
618 1 0.28767 0.701791 0
620 1 0.310534 0.710461 0
649 1 0.29015 0.726419 0
622 1 0.330688 0.696966 0
651 1 0.333065 0.721129 0
653 1 0.353084 0.707195 0
623 1 0.374812 0.693409 0
624 1 0.374481 0.717209 0
626 1 0.396661 0.705953 0
627 1 0.42 0.689565 0
657 1 0.448363 0.694749 0
656 1 0.431838 0.713519 0
658 1 0.456632 0.719041 0
659 1 0.473639 0.699474 0
1531 1 0.497593 0.703256 0
660 1 0.48127 0.721747 0
663 1 0.0110388 0.734248 0
662 1 0.01222 0.759021 0
664 1 0.0328851 0.745277 0
694 1 0.0340259 0.770404 0
665 1 0.0536652 0.731257 0
666 1 0.0761373 0.742477 0
695 1 0.055186 0.755344 0
697 1 0.0781605 0.7668 0
667 1 0.0973119 0.728904 0
669 1 0.119801 0.740135 0
668 1 0.0984297 0.753574 0
699 1 0.1202 0.765261 0
671 1 0.16144 0.736344 0
670 1 0.141637 0.75074 0
672 1 0.162918 0.762347 0
673 1 0.184025 0.747446 0
644 1 0.204404 0.733878 0
674 1 0.205425 0.758795 0
675 1 0.225855 0.744846 0
705 1 0.226683 0.769825 0
646 1 0.246989 0.729934 0
677 1 0.248069 0.755341 0
648 1 0.269427 0.740572 0
678 1 0.270284 0.767282 0
650 1 0.312942 0.735188 0
679 1 0.292063 0.751406 0
681 1 0.314809 0.759143 0
652 1 0.336091 0.746287 0
682 1 0.334125 0.772384 0
683 1 0.356648 0.762193 0
654 1 0.358721 0.73561 0
655 1 0.393201 0.731498 0
685 1 0.37854 0.750862 0
715 1 0.398719 0.764943 0
686 1 0.416429 0.733158 0
687 1 0.440871 0.736892 0
717 1 0.422255 0.756767 0
688 1 0.447101 0.761687 0
689 1 0.464273 0.742553 0
690 1 0.487736 0.744997 0
719 1 0.472677 0.764867 0
1591 1 0.497113 0.769072 0
693 1 0.0120349 0.784822 0
692 1 0.014044 0.810069 0
723 1 0.0347848 0.795874 0
696 1 0.0564484 0.78098 0
725 1 0.0577171 0.806343 0
727 1 0.0787291 0.792777 0
726 1 0.0794833 0.818454 0
698 1 0.0992985 0.779392 0
728 1 0.100207 0.804059 0
729 1 0.121981 0.815545 0
700 1 0.121543 0.790523 0
701 1 0.141789 0.77683 0
702 1 0.164233 0.788165 0
731 1 0.143378 0.801349 0
732 1 0.165761 0.81293 0
703 1 0.185164 0.774472 0
704 1 0.208131 0.78518 0
733 1 0.186672 0.799414 0
735 1 0.209576 0.810233 0
706 1 0.230698 0.796636 0
676 1 0.24837 0.779684 0
737 1 0.259813 0.818995 0
707 1 0.266609 0.795179 0
680 1 0.313021 0.782552 0
709 1 0.289168 0.786628 0
708 1 0.284973 0.811709 0
710 1 0.308671 0.806502 0
713 1 0.355183 0.786595 0
711 1 0.332409 0.796521 0
712 1 0.351364 0.811925 0
684 1 0.37703 0.775851 0
714 1 0.397819 0.790374 0
743 1 0.374477 0.802153 0
716 1 0.425914 0.782634 0
747 1 0.441172 0.803905 0
746 1 0.417713 0.806539 0
718 1 0.456413 0.784506 0
720 1 0.481187 0.788318 0
749 1 0.465347 0.807993 0
1621 1 0.490999 0.811907 0
722 1 0.0376657 0.820217 0
751 1 0.0180778 0.833951 0
752 1 0.0157066 0.85848 0
753 1 0.0382276 0.846721 0
724 1 0.0591454 0.832237 0
755 1 0.0811976 0.844665 0
754 1 0.0597133 0.858014 0
756 1 0.102942 0.855147 0
757 1 0.101201 0.830163 0
759 1 0.123034 0.840062 0
730 1 0.144423 0.826459 0
760 1 0.14407 0.851776 0
761 1 0.166342 0.837783 0
791 1 0.164988 0.862821 0
763 1 0.18795 0.823824 0
734 1 0.21049 0.834758 0
762 1 0.187874 0.848303 0
764 1 0.210179 0.860208 0
736 1 0.233399 0.822727 0
767 1 0.255758 0.842607 0
765 1 0.232908 0.849154 0
739 1 0.303034 0.82943 0
738 1 0.278878 0.834971 0
768 1 0.276192 0.860408 0
769 1 0.299408 0.853611 0
741 1 0.327229 0.821262 0
740 1 0.323791 0.846262 0
771 1 0.34237 0.861606 0
742 1 0.347796 0.837031 0
745 1 0.394457 0.816742 0
773 1 0.365825 0.852732 0
744 1 0.371707 0.826935 0
774 1 0.389165 0.84361 0
776 1 0.410996 0.85919 0
775 1 0.412583 0.833399 0
777 1 0.433141 0.846443 0
748 1 0.45074 0.828176 0
750 1 0.476016 0.83096 0
779 1 0.460676 0.850308 0
780 1 0.485483 0.854488 0
783 1 0.0351984 0.87361 0
782 1 0.00876443 0.882752 0
813 1 0.0269011 0.898905 0
812 1 0.00173916 0.906678 0
785 1 0.0813153 0.869788 0
784 1 0.058639 0.883819 0
786 1 0.0830588 0.893751 0
815 1 0.062858 0.908059 0
758 1 0.124276 0.867006 0
787 1 0.103437 0.880538 0
788 1 0.125049 0.892932 0
817 1 0.104283 0.905809 0
819 1 0.147672 0.903818 0
789 1 0.14599 0.877981 0
790 1 0.167572 0.888712 0
792 1 0.186725 0.873202 0
793 1 0.207721 0.88371 0
823 1 0.189807 0.899777 0
794 1 0.224118 0.899807 0
766 1 0.253657 0.867512 0
795 1 0.230205 0.873933 0
796 1 0.247865 0.892124 0
797 1 0.27117 0.884696 0
799 1 0.295265 0.877818 0
798 1 0.290257 0.902211 0
800 1 0.313525 0.894612 0
770 1 0.318544 0.870446 0
801 1 0.337249 0.886681 0
802 1 0.355462 0.903818 0
772 1 0.361458 0.878476 0
803 1 0.384903 0.86829 0
805 1 0.403374 0.883842 0
804 1 0.380297 0.896278 0
806 1 0.411964 0.905857 0
778 1 0.444937 0.868114 0
807 1 0.427971 0.885837 0
808 1 0.452627 0.891122 0
809 1 0.469796 0.873437 0
1681 1 0.494526 0.878595 0
810 1 0.478093 0.896365 0
842 1 0.0107195 0.949016 0
843 1 0.0174227 0.92526 0
844 1 0.0353045 0.942548 0
814 1 0.0410305 0.918463 0
816 1 0.083622 0.919912 0
845 1 0.0609182 0.934386 0
846 1 0.0852373 0.94647 0
818 1 0.127311 0.918276 0
847 1 0.105641 0.931931 0
849 1 0.12958 0.942601 0
821 1 0.17006 0.914165 0
820 1 0.150759 0.929141 0
850 1 0.15404 0.953474 0
851 1 0.173777 0.939672 0
824 1 0.216638 0.92405 0
822 1 0.192263 0.924406 0
853 1 0.202974 0.947898 0
827 1 0.265733 0.908553 0
825 1 0.241156 0.916363 0
855 1 0.234656 0.940399 0
826 1 0.259407 0.93292 0
829 1 0.308765 0.919055 0
828 1 0.283365 0.926199 0
857 1 0.277245 0.950303 0
859 1 0.301489 0.943449 0
831 1 0.331784 0.911703 0
830 1 0.325459 0.937115 0
832 1 0.348728 0.929451 0
863 1 0.367739 0.946735 0
833 1 0.371538 0.922376 0
834 1 0.395296 0.92394 0
865 1 0.402914 0.946761 0
837 1 0.436597 0.909186 0
835 1 0.420147 0.92919 0
838 1 0.444867 0.933721 0
836 1 0.427502 0.952006 0
839 1 0.460884 0.914152 0
1741 1 0.493994 0.942354 0
840 1 0.485479 0.919381 0
869 1 0.469333 0.937648 0
872 1 0.0199893 0.990444 0
873 1 0.0284261 0.966599 0
871 1 0.00288599 0.97228 0
874 1 0.0448419 0.984569 0
875 1 0.0525256 0.958896 0
876 1 0.0682841 0.979743 0
7 1 0.0883716 0.996363 0
877 1 0.0907544 0.971253 0
848 1 0.110946 0.958073 0
878 1 0.112785 0.982654 0
879 1 0.133403 0.968205 0
880 1 0.136052 0.992588 0
852 1 0.178262 0.964106 0
881 1 0.157811 0.977572 0
882 1 0.182504 0.989147 0
854 1 0.225003 0.962828 0
883 1 0.201904 0.974238 0
884 1 0.222538 0.986941 0
856 1 0.252918 0.957016 0
885 1 0.246696 0.980652 0
17 1 0.264471 0.997594 0
887 1 0.271672 0.974387 0
858 1 0.296017 0.967899 0
888 1 0.289573 0.992855 0
889 1 0.314379 0.986162 0
861 1 0.343405 0.954051 0
860 1 0.320209 0.961579 0
862 1 0.3623 0.971982 0
891 1 0.338542 0.978656 0
892 1 0.356792 0.997467 0
864 1 0.385618 0.964251 0
893 1 0.380384 0.989941 0
895 1 0.409261 0.970236 0
866 1 0.43538 0.974434 0
896 1 0.418212 0.992468 0
867 1 0.453096 0.957409 0
897 1 0.44325 0.997561 0
868 1 0.46062 0.980054 0
899 1 0.484383 0.984752 0
902 1 0.540188 0.0201122 0
931 1 0.522759 0.0384926 0
901 1 0.515327 0.0129301 0
904 1 0.563899 0.0243917 0
906 1 0.581432 0.00775164 0
905 1 0.557573 0.00116162 0
935 1 0.587954 0.031133 0
933 1 0.546994 0.0438329 0
908 1 0.605656 0.0131038 0
937 1 0.612604 0.0369795 0
939 1 0.629227 0.0178007 0
938 1 0.63752 0.0409267 0
940 1 0.651995 0.00855649 0
971 1 0.669227 0.0256162 0
942 1 0.676168 0.00197898 0
944 1 0.69352 0.0227538 0
945 1 0.717963 0.0177018 0
975 1 0.708571 0.0414934 0
947 1 0.742497 0.0114632 0
946 1 0.73411 0.0357883 0
948 1 0.759023 0.0300852 0
918 1 0.76691 0.00671158 0
919 1 0.790509 0.000105864 0
949 1 0.783408 0.0243898 0
920 1 0.807932 0.0185436 0
979 1 0.800967 0.0436582 0
951 1 0.832928 0.0141224 0
952 1 0.849769 0.0321034 0
922 1 0.856675 0.00806974 0
950 1 0.824607 0.0373253 0
953 1 0.87375 0.0265592 0
955 1 0.899139 0.0205353 0
924 1 0.881411 0.00224398 0
954 1 0.890759 0.0441136 0
926 1 0.922489 0.0152819 0
928 1 0.947944 0.00885023 0
957 1 0.940194 0.0322348 0
956 1 0.91471 0.0389913 0
930 1 0.988353 0.0209374 0
959 1 0.964443 0.0273287 0
929 1 0.971679 0.00269876 0
960 1 0.980895 0.0446846 0
932 1 0.529123 0.0634492 0
962 1 0.536835 0.0868007 0
961 1 0.511732 0.0812647 0
60 1 0.505829 0.0574227 0
934 1 0.570985 0.0494358 0
963 1 0.553519 0.067621 0
965 1 0.578269 0.0729785 0
964 1 0.561459 0.0913359 0
936 1 0.59502 0.0542615 0
966 1 0.602711 0.0776747 0
967 1 0.620542 0.0598585 0
968 1 0.627093 0.0842954 0
969 1 0.643939 0.0658424 0
970 1 0.661017 0.0487408 0
972 1 0.670065 0.0717731 0
999 1 0.652164 0.0900743 0
973 1 0.685182 0.0494546 0
1003 1 0.693478 0.0768629 0
1004 1 0.718999 0.0837786 0
974 1 0.726878 0.0586891 0
976 1 0.750418 0.0543485 0
1005 1 0.743188 0.0779984 0
1007 1 0.767784 0.0728839 0
977 1 0.775893 0.0482864 0
978 1 0.79215 0.066777 0
1009 1 0.809082 0.0856092 0
980 1 0.817562 0.0617419 0
981 1 0.842005 0.0559666 0
982 1 0.857809 0.0743964 0
1011 1 0.834046 0.0808729 0
983 1 0.866139 0.0502494 0
984 1 0.882578 0.0682179 0
1015 1 0.900011 0.0858803 0
985 1 0.906733 0.0619314 0
986 1 0.924893 0.0794698 0
987 1 0.93143 0.0562895 0
988 1 0.948831 0.0744435 0
958 1 0.95682 0.050764 0
989 1 0.973955 0.0684007 0
990 1 0.990686 0.0862306 0
61 1 0.998298 0.0623906 0
991 1 0.519774 0.104033 0
992 1 0.526796 0.128537 0
120 1 0.500982 0.123627 0
993 1 0.54377 0.110415 0
994 1 0.567999 0.115405 0
995 1 0.585759 0.0966159 0
1023 1 0.550643 0.133809 0
996 1 0.592821 0.119915 0
997 1 0.609622 0.10159 0
1027 1 0.617098 0.12618 0
998 1 0.634819 0.107771 0
1000 1 0.659867 0.113577 0
1001 1 0.676687 0.0954438 0
1029 1 0.641772 0.132104 0
1031 1 0.683696 0.120117 0
1002 1 0.701116 0.100636 0
1033 1 0.709794 0.12532 0
1006 1 0.760145 0.096609 0
1035 1 0.731535 0.105664 0
1036 1 0.754182 0.120281 0
1034 1 0.733419 0.133411 0
1037 1 0.777934 0.116197 0
1008 1 0.784579 0.0917415 0
1039 1 0.801359 0.110124 0
1038 1 0.795176 0.135048 0
1010 1 0.825888 0.103816 0
1012 1 0.851131 0.0992008 0
1041 1 0.843965 0.123142 0
1040 1 0.819533 0.128476 0
1043 1 0.868405 0.115973 0
1013 1 0.875875 0.0920256 0
1014 1 0.893504 0.109213 0
1044 1 0.885695 0.133207 0
1016 1 0.909899 0.127673 0
1017 1 0.917582 0.103504 0
1018 1 0.941751 0.0978158 0
1047 1 0.934388 0.122554 0
1019 1 0.965816 0.0921417 0
1020 1 0.982544 0.109409 0
1049 1 0.958373 0.116471 0
121 1 0.999117 0.12888 0
1050 1 0.974824 0.134218 0
1021 1 0.508134 0.146969 0
1022 1 0.531959 0.15266 0
1053 1 0.54083 0.17634 0
1051 1 0.516115 0.172009 0
1025 1 0.575614 0.139595 0
1024 1 0.557443 0.158247 0
1055 1 0.582427 0.163029 0
1054 1 0.56525 0.181002 0
1026 1 0.599757 0.144012 0
1028 1 0.62417 0.149731 0
1057 1 0.606671 0.168333 0
1058 1 0.630544 0.174605 0
1059 1 0.648418 0.156051 0
1030 1 0.66604 0.138119 0
1061 1 0.672496 0.162682 0
1060 1 0.65491 0.180877 0
1032 1 0.690438 0.144212 0
1063 1 0.714597 0.150862 0
1062 1 0.697119 0.168633 0
1064 1 0.721683 0.175044 0
1065 1 0.739656 0.158342 0
1066 1 0.764035 0.163813 0
1067 1 0.769676 0.140158 0
1068 1 0.788599 0.158944 0
1069 1 0.812282 0.153112 0
1099 1 0.805248 0.176834 0
1071 1 0.836557 0.147078 0
1072 1 0.854125 0.164594 0
1070 1 0.829415 0.171107 0
1042 1 0.86105 0.139923 0
1073 1 0.877984 0.158275 0
1045 1 0.901935 0.153118 0
1074 1 0.895252 0.177745 0
1075 1 0.91926 0.171646 0
1046 1 0.925673 0.146513 0
1077 1 0.942993 0.164073 0
1048 1 0.951117 0.140665 0
1079 1 0.967644 0.158352 0
1080 1 0.984242 0.176712 0
151 1 0.99165 0.152296 0
1052 1 0.523344 0.194777 0
1082 1 0.530072 0.218736 0
1081 1 0.50517 0.213793 0
1083 1 0.547576 0.199698 0
1085 1 0.571228 0.206059 0
1084 1 0.554297 0.223742 0
1056 1 0.589286 0.187835 0
1086 1 0.596133 0.212833 0
1087 1 0.61308 0.19363 0
1088 1 0.61993 0.218508 0
1089 1 0.637494 0.200472 0
1090 1 0.661515 0.205341 0
1119 1 0.644456 0.22457 0
1091 1 0.6787 0.186991 0
1092 1 0.686525 0.210628 0
1093 1 0.703087 0.192723 0
1123 1 0.710872 0.216277 0
1095 1 0.747056 0.182185 0
1094 1 0.72864 0.198754 0
1096 1 0.754458 0.205793 0
1125 1 0.736589 0.222822 0
1097 1 0.776976 0.185737 0
1127 1 0.777243 0.211659 0
1098 1 0.798217 0.199934 0
1129 1 0.814571 0.218781 0
1100 1 0.822394 0.194381 0
1101 1 0.848423 0.189785 0
1131 1 0.839619 0.213943 0
1102 1 0.864804 0.209232 0
1103 1 0.872009 0.183067 0
1104 1 0.889192 0.202309 0
1135 1 0.90369 0.222353 0
1105 1 0.913755 0.197305 0
1076 1 0.93705 0.189012 0
1107 1 0.953201 0.208324 0
1078 1 0.960209 0.182613 0
1109 1 0.977621 0.203275 0
1110 1 0.993871 0.224455 0
1111 1 0.512105 0.237799 0
1113 1 0.53597 0.242284 0
1112 1 0.518624 0.261196 0
1143 1 0.541995 0.266469 0
1114 1 0.561198 0.248767 0
1115 1 0.578396 0.230021 0
1116 1 0.585275 0.254466 0
1117 1 0.602216 0.236729 0
1118 1 0.626743 0.242486 0
1147 1 0.609612 0.260135 0
1149 1 0.633715 0.265744 0
1121 1 0.669319 0.229409 0
1120 1 0.651822 0.248268 0
1151 1 0.676301 0.253665 0
1150 1 0.65875 0.270837 0
1122 1 0.693746 0.235179 0
1124 1 0.718613 0.241231 0
1153 1 0.700227 0.259867 0
1154 1 0.726125 0.265435 0
1126 1 0.762253 0.230488 0
1155 1 0.743367 0.247395 0
1156 1 0.750658 0.271209 0
1157 1 0.76941 0.253423 0
1128 1 0.788271 0.234871 0
1159 1 0.814358 0.242822 0
1158 1 0.795037 0.259576 0
1160 1 0.821392 0.266504 0
1130 1 0.838543 0.249423 0
1132 1 0.855726 0.231894 0
1161 1 0.863387 0.255648 0
1133 1 0.881201 0.237785 0
1163 1 0.888114 0.262543 0
1134 1 0.906574 0.246781 0
1165 1 0.913523 0.27028 0
1136 1 0.931386 0.253056 0