ITEM: TIMESTEP
198000
ITEM: NUMBER OF ATOMS
1800
ITEM: BOX BOUNDS pp pp pp
1.2207197317543290e+00 1.6377928026824634e+02
1.2207197317543290e+00 1.6377928026824634e+02
0.0000000000000000e+00 5.5000000000000000e+00
ITEM: ATOMS id type xs ys zs
2 1 0.013753 0.0118146 0
3 1 0.0377831 0.00560566 0
31 1 0.00709424 0.036872 0
33 1 0.0315764 0.0299176 0
4 1 0.056175 0.0227854 0
6 1 0.0796509 0.0179037 0
35 1 0.0727096 0.0416392 0
8 1 0.104733 0.0109349 0
37 1 0.0982678 0.035089 0
39 1 0.122763 0.0280912 0
880 1 0.129078 0.00388534 0
9 1 0.1463 0.0219573 0
10 1 0.170249 0.0165181 0
40 1 0.163122 0.0397961 0
41 1 0.18774 0.0339524 0
12 1 0.194556 0.0101187 0
14 1 0.21208 0.0286753 0
13 1 0.218101 0.00369198 0
15 1 0.235429 0.0225342 0
16 1 0.259971 0.0180342 0
46 1 0.252701 0.0420654 0
47 1 0.276864 0.0369869 0
19 1 0.308685 0.00714607 0
18 1 0.284784 0.0131783 0
49 1 0.301574 0.0314043 0
20 1 0.32647 0.0238083 0
21 1 0.355054 0.021974 0
890 1 0.337094 0.00135896 0
51 1 0.341563 0.0428351 0
892 1 0.374342 0.00623266 0
23 1 0.38284 0.0290944 0
894 1 0.399151 0.0107843 0
24 1 0.407407 0.0352052 0
25 1 0.423802 0.0162089 0
27 1 0.447946 0.0218918 0
26 1 0.431187 0.0400244 0
28 1 0.455207 0.045705 0
29 1 0.472194 0.0265414 0
900 1 0.489544 0.0089378 0
898 1 0.464967 0.00346947 0
30 1 0.497048 0.0328319 0
32 1 0.0247659 0.0551645 0
63 1 0.0421935 0.0721509 0
62 1 0.0175252 0.0788914 0
34 1 0.0489738 0.0476674 0
65 1 0.0662513 0.0654762 0
66 1 0.0839028 0.0835067 0
64 1 0.0596213 0.0900168 0
36 1 0.0911097 0.0589938 0
38 1 0.115111 0.0529486 0
67 1 0.108015 0.0771601 0
68 1 0.132193 0.0701854 0
69 1 0.139174 0.045871 0
71 1 0.157336 0.0647211 0
72 1 0.174759 0.0835476 0
70 1 0.149321 0.088277 0
42 1 0.18169 0.0591117 0
43 1 0.20575 0.0535059 0
44 1 0.222984 0.072064 0
73 1 0.198561 0.0775273 0
45 1 0.229343 0.0479341 0
75 1 0.246134 0.0660712 0
77 1 0.270135 0.0608678 0
76 1 0.264672 0.0844279 0
48 1 0.294618 0.055257 0
79 1 0.308505 0.0746487 0
50 1 0.318516 0.0499965 0
81 1 0.331868 0.0818727 0
52 1 0.349167 0.0654349 0
82 1 0.356911 0.0885294 0
22 1 0.365886 0.0461496 0
53 1 0.389393 0.0532166 0
83 1 0.37227 0.070375 0
54 1 0.3966 0.0763943 0
55 1 0.413639 0.0582796 0
57 1 0.438999 0.0633146 0
56 1 0.421939 0.0821584 0
87 1 0.44594 0.0874789 0
59 1 0.480304 0.0504339 0
58 1 0.46335 0.069236 0
89 1 0.487429 0.075692 0
92 1 0.0282208 0.120082 0
93 1 0.0350627 0.0967003 0
91 1 0.0101396 0.102182 0
121 1 0.0039963 0.126635 0
94 1 0.0521869 0.113252 0
95 1 0.0770533 0.107268 0
125 1 0.0697032 0.132089 0
96 1 0.0944266 0.124671 0
97 1 0.10162 0.101043 0
98 1 0.118366 0.118364 0
99 1 0.125577 0.0946757 0
100 1 0.143014 0.111968 0
101 1 0.167439 0.106785 0
130 1 0.159395 0.129696 0
103 1 0.191447 0.102703 0
102 1 0.18494 0.127292 0
105 1 0.215504 0.0958932 0
104 1 0.210369 0.132354 0
74 1 0.240774 0.0916302 0
106 1 0.230956 0.115747 0
137 1 0.25444 0.125984 0
107 1 0.27223 0.107891 0
78 1 0.288656 0.0892549 0
109 1 0.296018 0.115188 0
108 1 0.278521 0.132731 0
80 1 0.312817 0.0982918 0
110 1 0.320028 0.120957 0
111 1 0.3382 0.105052 0
141 1 0.344937 0.129451 0
113 1 0.362355 0.112375 0
84 1 0.379882 0.0946466 0
112 1 0.386482 0.118024 0
85 1 0.40459 0.100447 0
143 1 0.369603 0.135884 0
115 1 0.410027 0.123559 0
86 1 0.428501 0.105605 0
116 1 0.434971 0.129172 0
117 1 0.451505 0.111373 0
88 1 0.46969 0.093969 0
119 1 0.476276 0.117962 0
90 1 0.494203 0.0994995 0
118 1 0.458847 0.135534 0
122 1 0.0213464 0.144849 0
153 1 0.0389099 0.163383 0
152 1 0.0143698 0.170366 0
123 1 0.0456958 0.137452 0
124 1 0.0625503 0.156614 0
126 1 0.0875609 0.148924 0
155 1 0.0803105 0.173039 0
154 1 0.0571144 0.180878 0
127 1 0.11126 0.142949 0
128 1 0.129679 0.159523 0
157 1 0.105833 0.167413 0
129 1 0.135057 0.136185 0
159 1 0.153193 0.165405 0
131 1 0.172613 0.149336 0
132 1 0.178157 0.172679 0
133 1 0.196627 0.154639 0
163 1 0.2026 0.178996 0
134 1 0.220157 0.160722 0
135 1 0.234673 0.141243 0
136 1 0.259817 0.150167 0
165 1 0.243783 0.168762 0
167 1 0.268363 0.175819 0
139 1 0.302266 0.1401 0
138 1 0.284818 0.15664 0
169 1 0.309248 0.163244 0
140 1 0.326725 0.145849 0
142 1 0.352359 0.152566 0
171 1 0.334005 0.169866 0
172 1 0.358567 0.176341 0
114 1 0.393841 0.142168 0
144 1 0.400297 0.165696 0
173 1 0.376078 0.15996 0
145 1 0.417698 0.148398 0
146 1 0.423884 0.17182 0
147 1 0.442593 0.154172 0
177 1 0.448622 0.178043 0
149 1 0.483179 0.142707 0
148 1 0.466247 0.1607 0
150 1 0.490082 0.16626 0
1110 1 0.00130695 0.219673 0
183 1 0.0325691 0.186783 0
182 1 0.0266487 0.211858 0
181 1 0.00853883 0.19463 0
184 1 0.0503417 0.205945 0
185 1 0.0760292 0.19944 0
215 1 0.0702343 0.223232 0
186 1 0.0967637 0.215509 0
156 1 0.0980748 0.189755 0
158 1 0.119282 0.201081 0
187 1 0.125397 0.224053 0
160 1 0.136322 0.183211 0
161 1 0.160506 0.188779 0
189 1 0.14339 0.206345 0
191 1 0.167159 0.213743 0
162 1 0.184601 0.196003 0
193 1 0.208624 0.202876 0
192 1 0.191174 0.220902 0
164 1 0.227159 0.186036 0
194 1 0.215996 0.226616 0
195 1 0.23294 0.210429 0
166 1 0.250439 0.193232 0
196 1 0.256571 0.217131 0
168 1 0.29119 0.181371 0
197 1 0.273894 0.199533 0
199 1 0.298358 0.204955 0
198 1 0.280841 0.223197 0
170 1 0.31593 0.187979 0
201 1 0.340084 0.193865 0
200 1 0.322931 0.21204 0
202 1 0.346584 0.2177 0
174 1 0.382889 0.183674 0
203 1 0.364375 0.200567 0
233 1 0.371158 0.224592 0
204 1 0.38887 0.207488 0
175 1 0.407276 0.189981 0
205 1 0.412623 0.214102 0
176 1 0.430608 0.195918 0
207 1 0.437504 0.219899 0
179 1 0.472398 0.184027 0
178 1 0.454552 0.201702 0
209 1 0.479117 0.207948 0
208 1 0.46227 0.22577 0
180 1 0.496726 0.18968 0
212 1 0.0232166 0.2583 0
211 1 0.0210101 0.234745 0
213 1 0.0451416 0.230765 0
243 1 0.0465613 0.264603 0
214 1 0.0638422 0.246934 0
216 1 0.0885923 0.256347 0
245 1 0.0698539 0.272846 0
217 1 0.106737 0.239966 0
218 1 0.112338 0.264134 0
188 1 0.131233 0.247887 0
219 1 0.137137 0.270891 0
190 1 0.149324 0.230469 0
221 1 0.173416 0.23805 0
220 1 0.155993 0.254431 0
222 1 0.179874 0.261573 0
223 1 0.19854 0.24441 0
253 1 0.203184 0.268308 0
224 1 0.222254 0.252018 0
225 1 0.239391 0.234802 0
227 1 0.263527 0.241252 0
226 1 0.246337 0.258269 0
257 1 0.269599 0.264869 0
229 1 0.304632 0.230496 0
228 1 0.287186 0.247488 0
230 1 0.311517 0.254115 0
259 1 0.294869 0.271525 0
231 1 0.329401 0.236271 0
232 1 0.353229 0.242452 0
261 1 0.336072 0.260688 0
263 1 0.360757 0.266825 0
235 1 0.39606 0.23138 0
234 1 0.377833 0.248647 0
265 1 0.40295 0.256013 0
206 1 0.421002 0.237698 0
237 1 0.445544 0.243203 0
236 1 0.427024 0.261032 0
238 1 0.451243 0.267782 0
210 1 0.486899 0.231265 0
239 1 0.469594 0.249304 0
240 1 0.49394 0.255524 0
241 1 0.00331625 0.273881 0
242 1 0.0271417 0.282823 0
271 1 0.00864756 0.2986 0
273 1 0.0338513 0.306812 0
244 1 0.0516215 0.289596 0
246 1 0.0764217 0.297747 0
275 1 0.0584314 0.31456 0
247 1 0.0932358 0.280574 0
249 1 0.118293 0.288248 0
248 1 0.0998107 0.304834 0
279 1 0.124984 0.3123 0
251 1 0.161652 0.278988 0
250 1 0.142953 0.295169 0
281 1 0.167861 0.302502 0
252 1 0.18563 0.286124 0
254 1 0.209798 0.29274 0
283 1 0.191901 0.310122 0
284 1 0.216943 0.316045 0
255 1 0.228332 0.276218 0
256 1 0.252406 0.283051 0
285 1 0.234564 0.299522 0
287 1 0.258775 0.306091 0
258 1 0.276606 0.289603 0
288 1 0.283013 0.313875 0
289 1 0.300815 0.296749 0
260 1 0.318458 0.279357 0
262 1 0.34377 0.284685 0
291 1 0.326274 0.302219 0
292 1 0.350126 0.308196 0
264 1 0.385054 0.272312 0
293 1 0.367885 0.289742 0
295 1 0.391689 0.296751 0
294 1 0.374189 0.314625 0
266 1 0.409316 0.279651 0
267 1 0.433745 0.285655 0
297 1 0.415957 0.30371 0
298 1 0.441221 0.30988 0
269 1 0.477366 0.27377 0
268 1 0.458354 0.291614 0
270 1 0.483678 0.296437 0
299 1 0.466252 0.314588 0
1141 1 0.501257 0.278614 0
1200 1 0.015365 0.323679 0
272 1 0.0408735 0.331105 0
301 1 0.0225519 0.347467 0
303 1 0.0468404 0.355732 0
276 1 0.081867 0.322107 0
274 1 0.0646046 0.339193 0
305 1 0.089511 0.346389 0
304 1 0.0709558 0.363135 0
277 1 0.106879 0.329023 0
278 1 0.130253 0.33642 0
307 1 0.113161 0.353665 0
309 1 0.137551 0.360411 0
280 1 0.149639 0.319205 0
282 1 0.173564 0.326809 0
311 1 0.155546 0.342935 0
312 1 0.179659 0.350245 0
313 1 0.198469 0.333168 0
314 1 0.204066 0.358126 0
315 1 0.223154 0.340616 0
286 1 0.241072 0.324349 0
317 1 0.2656 0.33088 0
316 1 0.247232 0.347732 0
318 1 0.27283 0.354677 0
290 1 0.308842 0.319856 0
319 1 0.290732 0.337768 0
349 1 0.297737 0.361011 0
320 1 0.315754 0.343622 0
321 1 0.332805 0.325527 0
323 1 0.357311 0.332131 0
322 1 0.340119 0.349593 0
324 1 0.364501 0.356285 0
296 1 0.398542 0.320895 0
325 1 0.381053 0.338287 0
326 1 0.404921 0.345567 0
355 1 0.389191 0.363369 0
327 1 0.423599 0.32819 0
328 1 0.43069 0.352408 0
329 1 0.448197 0.333652 0
359 1 0.454375 0.356816 0
300 1 0.490144 0.320622 0
330 1 0.472427 0.339248 0
1201 1 0.49833 0.344587 0
1230 1 0.00354623 0.364734 0
302 1 0.0281586 0.372866 0
332 1 0.0341636 0.397582 0
331 1 0.00958686 0.388849 0
333 1 0.0521766 0.380392 0
335 1 0.0762548 0.386929 0
334 1 0.0586095 0.403756 0
306 1 0.0948961 0.370658 0
308 1 0.118466 0.377534 0
337 1 0.100143 0.394396 0
338 1 0.125056 0.401371 0
310 1 0.160966 0.366969 0
339 1 0.142497 0.38436 0
341 1 0.166674 0.391132 0
343 1 0.185601 0.375053 0
342 1 0.190932 0.399467 0
344 1 0.210048 0.382046 0
373 1 0.216647 0.40699 0
345 1 0.228888 0.364885 0
347 1 0.253767 0.371583 0
346 1 0.235144 0.388288 0
377 1 0.260855 0.395693 0
348 1 0.279536 0.37826 0
350 1 0.303982 0.385704 0
378 1 0.285185 0.402432 0
351 1 0.322632 0.367817 0
381 1 0.327449 0.392646 0
353 1 0.347192 0.373834 0
352 1 0.35191 0.398368 0
354 1 0.370923 0.379797 0
385 1 0.377104 0.404742 0
356 1 0.395527 0.387435 0
387 1 0.41987 0.394514 0
357 1 0.413151 0.369624 0
358 1 0.437698 0.376049 0
389 1 0.44496 0.399358 0
360 1 0.479664 0.362114 0
1232 1 0.461326 0.380476 0
1262 1 0.484607 0.386584 0
1261 1 0.467984 0.40657 0
361 1 0.0155501 0.413879 0
362 1 0.0209062 0.438007 0
363 1 0.0404296 0.421239 0
364 1 0.0454875 0.446475 0
336 1 0.0831389 0.413008 0
365 1 0.0654384 0.43054 0
366 1 0.0895246 0.436513 0
395 1 0.0706825 0.454948 0
367 1 0.107585 0.418524 0
368 1 0.11301 0.44343 0
369 1 0.131322 0.426115 0
340 1 0.149167 0.409268 0
371 1 0.172795 0.416027 0
399 1 0.13651 0.449889 0
370 1 0.155193 0.433504 0
401 1 0.179937 0.441116 0
372 1 0.197769 0.423513 0
403 1 0.204446 0.447393 0
374 1 0.222689 0.431267 0
375 1 0.241085 0.413257 0
376 1 0.265473 0.419404 0
405 1 0.247545 0.436876 0
407 1 0.273027 0.443417 0
404 1 0.228767 0.455991 0
379 1 0.309855 0.410304 0
409 1 0.290974 0.426966 0
410 1 0.297877 0.450888 0
380 1 0.316695 0.43293 0
382 1 0.335342 0.416916 0
383 1 0.35972 0.422946 0
413 1 0.341017 0.440108 0
414 1 0.366594 0.44729 0
386 1 0.401489 0.411562 0
384 1 0.383569 0.429898 0
417 1 0.408004 0.436477 0
388 1 0.426299 0.419247 0
418 1 0.432157 0.444607 0
419 1 0.450741 0.425033 0
1292 1 0.499843 0.434441 0
390 1 0.456372 0.449042 0
1291 1 0.474712 0.430139 0
1293 1 0.492276 0.410727 0
392 1 0.00277569 0.455126 0
393 1 0.0269487 0.463193 0
422 1 0.00920293 0.480559 0
423 1 0.0330325 0.487878 0
394 1 0.0515116 0.471271 0
396 1 0.0756405 0.47856 0
425 1 0.0568684 0.495602 0
397 1 0.0939969 0.461575 0
398 1 0.118618 0.467869 0
427 1 0.099483 0.48512 0
428 1 0.122775 0.492608 0
400 1 0.161412 0.45892 0
429 1 0.142026 0.475266 0
431 1 0.166646 0.483317 0
430 1 0.147145 0.49932 0
402 1 0.185438 0.465871 0
432 1 0.191352 0.490246 0
433 1 0.209949 0.472551 0
434 1 0.216284 0.49656 0
406 1 0.253092 0.459735 0
435 1 0.234352 0.479595 0
436 1 0.259823 0.483408 0
408 1 0.278181 0.4665 0
439 1 0.284485 0.489519 0
440 1 0.309095 0.497941 0
441 1 0.304261 0.475035 0
411 1 0.321985 0.45791 0
412 1 0.348471 0.464699 0
442 1 0.329227 0.482186 0
473 1 0.35352 0.488364 0
415 1 0.390081 0.454733 0
443 1 0.373029 0.473103 0
444 1 0.377185 0.497362 0
445 1 0.396863 0.480192 0
448 1 0.445402 0.492514 0
446 1 0.421088 0.486744 0
416 1 0.414524 0.461684 0
447 1 0.43964 0.468704 0
450 1 0.4897 0.47801 0
1321 1 0.481878 0.454009 0
420 1 0.463733 0.473158 0
449 1 0.471617 0.496146 0
454 1 0.0228685 0.530203 0
453 1 0.0157446 0.505212 0
424 1 0.0403204 0.512638 0
485 1 0.0465646 0.537366 0
455 1 0.0643298 0.519627 0
426 1 0.0824747 0.502372 0
456 1 0.0878355 0.527938 0
486 1 0.0699036 0.545127 0
457 1 0.104568 0.510051 0
458 1 0.111699 0.534628 0
459 1 0.129725 0.51656 0
489 1 0.135647 0.540685 0
460 1 0.155219 0.523623 0
461 1 0.174173 0.507194 0
462 1 0.180859 0.531416 0
493 1 0.205838 0.540049 0
463 1 0.198522 0.514685 0
464 1 0.222887 0.521101 0
466 1 0.24619 0.528421 0
465 1 0.240051 0.503485 0
437 1 0.264733 0.506304 0
467 1 0.270746 0.529595 0
468 1 0.294087 0.537681 0
438 1 0.289373 0.513917 0
469 1 0.313255 0.521432 0
470 1 0.336343 0.530497 0
472 1 0.357229 0.514369 0
471 1 0.332975 0.506012 0
503 1 0.360124 0.539617 0
474 1 0.381219 0.523577 0
475 1 0.402669 0.504641 0
476 1 0.40405 0.532196 0
477 1 0.427033 0.511255 0
507 1 0.438658 0.534956 0
478 1 0.454979 0.51491 0
480 1 0.463591 0.539039 0
479 1 0.480063 0.520414 0
1351 1 0.496681 0.501227 0
510 1 0.488023 0.544235 0
483 1 0.00340622 0.54614 0
513 1 0.0286277 0.554357 0
514 1 0.0346077 0.579369 0
482 1 0.0106316 0.571088 0
484 1 0.0526227 0.562204 0
515 1 0.0757305 0.570167 0
545 1 0.058844 0.588013 0
487 1 0.0932223 0.552807 0
488 1 0.117584 0.558812 0
517 1 0.0987392 0.577691 0
519 1 0.121364 0.584712 0
491 1 0.161636 0.547405 0
490 1 0.141777 0.563585 0
520 1 0.146008 0.587432 0
521 1 0.165571 0.572334 0
492 1 0.185499 0.556384 0
523 1 0.189292 0.581303 0
494 1 0.209167 0.566135 0
524 1 0.211887 0.592239 0
495 1 0.229734 0.550111 0
496 1 0.251863 0.563599 0
525 1 0.23155 0.576911 0
526 1 0.254932 0.58875 0
499 1 0.316899 0.545603 0
497 1 0.274693 0.552738 0
527 1 0.276343 0.576578 0
498 1 0.29698 0.56248 0
529 1 0.298936 0.586714 0
500 1 0.318754 0.570274 0
501 1 0.339136 0.555607 0
531 1 0.342254 0.580112 0
502 1 0.36225 0.564498 0
533 1 0.363562 0.589904 0
505 1 0.383391 0.548401 0
504 1 0.384594 0.574168 0
535 1 0.406904 0.585772 0
506 1 0.405123 0.559136 0
508 1 0.426575 0.570563 0
509 1 0.447952 0.558813 0
539 1 0.453027 0.582711 0
540 1 0.472318 0.563522 0
1441 1 0.497746 0.568866 0
569 1 0.479499 0.586143 0
512 1 0.0161924 0.595341 0
542 1 0.020189 0.620656 0
543 1 0.039323 0.604761 0
544 1 0.0432669 0.629633 0
571 1 0.000627658 0.63672 0
516 1 0.0837757 0.59897 0
546 1 0.0629425 0.612207 0
547 1 0.086503 0.623575 0
518 1 0.107572 0.607903 0
548 1 0.129466 0.626531 0
522 1 0.169099 0.596159 0
549 1 0.148756 0.612091 0
551 1 0.171153 0.621525 0
553 1 0.192654 0.607254 0
552 1 0.19409 0.632771 0
554 1 0.214103 0.618057 0
555 1 0.234482 0.603668 0
556 1 0.237675 0.628392 0
557 1 0.257432 0.613723 0
528 1 0.278067 0.600596 0
559 1 0.301473 0.611028 0
558 1 0.279521 0.62426 0
560 1 0.30282 0.635582 0
530 1 0.322361 0.594487 0
561 1 0.324858 0.62058 0
532 1 0.344453 0.605318 0
562 1 0.347698 0.631098 0
563 1 0.367128 0.615979 0
534 1 0.38584 0.600165 0
565 1 0.389111 0.62536 0
536 1 0.408717 0.609641 0
537 1 0.430111 0.595485 0
567 1 0.430373 0.619236 0
568 1 0.452529 0.626129 0
566 1 0.411531 0.634707 0
538 1 0.464737 0.604795 0
570 1 0.488817 0.611465 0
600 1 0.475527 0.631368 0
1501 1 0.498605 0.636485 0
572 1 0.00480718 0.660858 0
573 1 0.0236009 0.645181 0
603 1 0.0271305 0.669494 0
574 1 0.0467523 0.65644 0
575 1 0.0662718 0.639355 0
605 1 0.0679608 0.668469 0
576 1 0.0873786 0.6531 0
607 1 0.0906342 0.679913 0
577 1 0.10787 0.638044 0
578 1 0.109811 0.664974 0
579 1 0.131044 0.650595 0
609 1 0.13322 0.676381 0
550 1 0.151941 0.636962 0
581 1 0.174541 0.647085 0
580 1 0.154226 0.66241 0
611 1 0.177205 0.672418 0
583 1 0.217204 0.644003 0
582 1 0.197372 0.658271 0
584 1 0.220036 0.668831 0
587 1 0.259938 0.639992 0
585 1 0.239242 0.65415 0
586 1 0.262338 0.664711 0
615 1 0.242293 0.679469 0
589 1 0.2828 0.649321 0
588 1 0.28559 0.674459 0
590 1 0.306318 0.6606 0
591 1 0.326931 0.645216 0
593 1 0.350164 0.656229 0
621 1 0.328707 0.670336 0
592 1 0.351625 0.681275 0
564 1 0.369356 0.640553 0
594 1 0.372151 0.666372 0
595 1 0.391955 0.650774 0
625 1 0.395372 0.675296 0
596 1 0.415792 0.659849 0
597 1 0.434197 0.643217 0
598 1 0.439761 0.667003 0
599 1 0.457375 0.649913 0
629 1 0.481141 0.654812 0
628 1 0.463608 0.673175 0
630 1 0.488301 0.677637 0
602 1 0.00823357 0.686395 0
633 1 0.0284299 0.699331 0
632 1 0.0086922 0.713114 0
634 1 0.0307119 0.723935 0
604 1 0.0482094 0.684503 0
606 1 0.0714065 0.693744 0
635 1 0.0511608 0.708833 0
636 1 0.0727756 0.719311 0
637 1 0.0934264 0.705107 0
608 1 0.113652 0.690648 0
638 1 0.116141 0.716221 0
639 1 0.135672 0.701419 0
610 1 0.155734 0.687193 0
641 1 0.158397 0.71291 0
612 1 0.178163 0.696885 0
642 1 0.181143 0.723994 0
613 1 0.199126 0.683036 0
614 1 0.221648 0.693581 0
643 1 0.201112 0.708248 0
645 1 0.224277 0.718847 0
617 1 0.265056 0.689092 0
616 1 0.244453 0.704282 0
647 1 0.267122 0.714111 0
619 1 0.308312 0.685413 0
618 1 0.287327 0.699286 0
620 1 0.310427 0.710681 0
649 1 0.29 0.725135 0
622 1 0.331145 0.694448 0
651 1 0.333421 0.720625 0
653 1 0.352832 0.705708 0
623 1 0.375676 0.690148 0
624 1 0.374739 0.715607 0
626 1 0.39763 0.699702 0
655 1 0.397454 0.723663 0
627 1 0.420019 0.685684 0
657 1 0.446046 0.691003 0
656 1 0.430757 0.709858 0
658 1 0.456727 0.715351 0
659 1 0.472137 0.696644 0
660 1 0.480526 0.72085 0
1531 1 0.496677 0.70242 0
663 1 0.00956156 0.738762 0
662 1 0.0109339 0.763213 0
664 1 0.03177 0.749157 0
665 1 0.0533977 0.735008 0
666 1 0.0753868 0.745001 0
695 1 0.0540954 0.760352 0
697 1 0.0772093 0.771484 0
667 1 0.095379 0.730443 0
669 1 0.117981 0.741839 0
668 1 0.0972819 0.756076 0
699 1 0.120031 0.767849 0
640 1 0.138615 0.726529 0
671 1 0.160111 0.738431 0
670 1 0.140198 0.751426 0
672 1 0.163418 0.763033 0
673 1 0.183078 0.748271 0
644 1 0.203842 0.734178 0
674 1 0.205246 0.759716 0
675 1 0.226751 0.743465 0
705 1 0.227823 0.768787 0
646 1 0.246862 0.729143 0
677 1 0.24855 0.752962 0
648 1 0.269061 0.739841 0
678 1 0.271557 0.764142 0
650 1 0.313051 0.736003 0
679 1 0.292868 0.749582 0
681 1 0.314928 0.761418 0
652 1 0.336348 0.746854 0
683 1 0.360478 0.757686 0
654 1 0.355756 0.731287 0
682 1 0.340847 0.771871 0
685 1 0.378432 0.740883 0
715 1 0.402199 0.747889 0
684 1 0.383561 0.765653 0
714 1 0.408791 0.771847 0
686 1 0.420159 0.731459 0
687 1 0.443511 0.736004 0
717 1 0.426045 0.7542 0
688 1 0.450587 0.759512 0
689 1 0.46683 0.740391 0
690 1 0.490846 0.745608 0
719 1 0.475488 0.764745 0
1591 1 0.499182 0.769807 0
694 1 0.033514 0.774744 0
693 1 0.0114903 0.78967 0
692 1 0.00468221 0.813958 0
723 1 0.0359007 0.800221 0
696 1 0.0563384 0.785672 0
725 1 0.0597516 0.810006 0
727 1 0.0795123 0.796453 0
698 1 0.0993151 0.782041 0
728 1 0.102304 0.808231 0
700 1 0.122637 0.792026 0
701 1 0.142927 0.777576 0
702 1 0.165024 0.788642 0
731 1 0.14423 0.803032 0
732 1 0.167792 0.813548 0
703 1 0.185499 0.774771 0
704 1 0.208477 0.784345 0
733 1 0.187613 0.798853 0
735 1 0.211388 0.80866 0
706 1 0.231545 0.793468 0
676 1 0.251343 0.777934 0
737 1 0.254511 0.804174 0
707 1 0.273918 0.789155 0
709 1 0.294296 0.774344 0
708 1 0.296325 0.799805 0
738 1 0.276981 0.815423 0
680 1 0.318093 0.786115 0
710 1 0.318314 0.811066 0
711 1 0.340995 0.796757 0
713 1 0.365174 0.783284 0
712 1 0.374327 0.807374 0
743 1 0.392073 0.790778 0
745 1 0.401072 0.813727 0
716 1 0.433047 0.777573 0
747 1 0.441834 0.800808 0
746 1 0.416266 0.794779 0
718 1 0.458286 0.782953 0
720 1 0.482793 0.788485 0
749 1 0.466253 0.80747 0
1621 1 0.490315 0.812124 0
722 1 0.0401857 0.824339 0
751 1 0.0187288 0.834348 0
752 1 0.0148393 0.857953 0
753 1 0.0386023 0.849231 0
726 1 0.0821611 0.821854 0
724 1 0.0610637 0.835858 0
755 1 0.0830278 0.847126 0
754 1 0.0618077 0.860256 0
729 1 0.124152 0.817559 0
756 1 0.105646 0.859075 0
757 1 0.103663 0.8334 0
759 1 0.1269 0.843162 0
730 1 0.147716 0.829394 0
760 1 0.149045 0.855311 0
761 1 0.169488 0.840222 0
763 1 0.189907 0.825523 0
734 1 0.212915 0.835232 0
762 1 0.191812 0.851301 0
764 1 0.215433 0.861261 0
736 1 0.233297 0.820186 0
767 1 0.255906 0.829572 0
765 1 0.235896 0.845749 0
766 1 0.258391 0.856504 0
739 1 0.299135 0.826395 0
769 1 0.300663 0.850449 0
768 1 0.278018 0.840957 0
741 1 0.3393 0.821264 0
740 1 0.321853 0.837665 0
742 1 0.361504 0.828221 0
771 1 0.344917 0.845668 0
770 1 0.326016 0.863062 0
773 1 0.368266 0.852366 0
744 1 0.386091 0.832945 0
803 1 0.392283 0.856544 0
775 1 0.425319 0.818594 0
774 1 0.409988 0.837571 0
777 1 0.433109 0.843134 0
748 1 0.449721 0.825031 0
776 1 0.416189 0.861392 0
750 1 0.473936 0.830575 0
779 1 0.458271 0.848992 0
780 1 0.482174 0.854017 0
1651 1 0.498413 0.835203 0
783 1 0.0348226 0.875388 0
782 1 0.00647792 0.88213 0
813 1 0.0251895 0.898905 0
812 1 2.23217e-05 0.905913 0
785 1 0.0835902 0.871976 0
784 1 0.060337 0.885073 0
786 1 0.0859195 0.896368 0
815 1 0.0654975 0.908655 0
758 1 0.127837 0.870738 0
787 1 0.106754 0.884483 0
788 1 0.129644 0.896637 0
791 1 0.170981 0.866282 0
819 1 0.153399 0.90732 0
789 1 0.150548 0.881481 0
790 1 0.173161 0.891716 0
792 1 0.193552 0.877333 0
793 1 0.216429 0.886821 0
823 1 0.195981 0.902005 0
794 1 0.240989 0.896885 0
795 1 0.237778 0.871667 0
796 1 0.260351 0.881932 0
825 1 0.264262 0.905941 0
827 1 0.283792 0.889914 0
797 1 0.280429 0.865525 0
799 1 0.30371 0.874062 0
798 1 0.308569 0.896835 0
800 1 0.331429 0.887661 0
801 1 0.349956 0.869787 0
802 1 0.35629 0.893702 0
772 1 0.374622 0.875813 0
805 1 0.399513 0.879617 0
804 1 0.384816 0.898077 0
806 1 0.408775 0.903222 0
778 1 0.441498 0.866406 0
807 1 0.424867 0.884797 0
808 1 0.449639 0.890313 0
809 1 0.465949 0.871595 0
1681 1 0.49046 0.87758 0
810 1 0.47376 0.894966 0
1711 1 0.498379 0.900566 0
842 1 0.0110668 0.946966 0
843 1 0.0175554 0.92269 0
844 1 0.0348374 0.939718 0
814 1 0.0422009 0.916235 0
816 1 0.085905 0.923379 0
845 1 0.0606862 0.932888 0
846 1 0.0786575 0.949423 0
817 1 0.107836 0.909847 0
818 1 0.129233 0.924641 0
847 1 0.107021 0.938216 0
821 1 0.174978 0.917145 0
820 1 0.15386 0.932204 0
851 1 0.17771 0.943803 0
849 1 0.143542 0.954115 0
824 1 0.219579 0.911381 0
822 1 0.197082 0.927763 0
853 1 0.219776 0.937553 0
855 1 0.24221 0.928349 0
826 1 0.268143 0.929393 0
856 1 0.258295 0.95131 0
828 1 0.288617 0.914431 0
857 1 0.283617 0.947874 0
859 1 0.306743 0.942616 0
829 1 0.314317 0.919953 0
831 1 0.339578 0.913265 0
830 1 0.330756 0.937277 0
832 1 0.353796 0.934006 0
863 1 0.376652 0.939846 0
833 1 0.368696 0.915139 0
834 1 0.392955 0.921506 0
865 1 0.401105 0.945321 0
837 1 0.43355 0.907997 0
835 1 0.417705 0.926369 0
838 1 0.442008 0.932583 0
836 1 0.425753 0.951534 0
839 1 0.457875 0.914108 0
1741 1 0.490753 0.942086 0
840 1 0.481972 0.918457 0
869 1 0.466806 0.93762 0
872 1 0.021823 0.987427 0
873 1 0.0288773 0.963162 0
871 1 0.00396135 0.970322 0
874 1 0.046283 0.980759 0
875 1 0.0525835 0.956619 0
876 1 0.0710076 0.9742 0
7 1 0.0877168 0.993262 0
5 1 0.062991 0.998794 0
877 1 0.0947045 0.967243 0
848 1 0.118381 0.960211 0
878 1 0.111997 0.986662 0
879 1 0.135742 0.978502 0
850 1 0.15994 0.973621 0
11 1 0.177748 0.991798 0
881 1 0.15386 0.99777 0
852 1 0.184756 0.966642 0
882 1 0.201745 0.984667 0
883 1 0.20831 0.96058 0
884 1 0.225709 0.979747 0
854 1 0.234296 0.957177 0
885 1 0.250931 0.975556 0
17 1 0.267634 0.994866 0
886 1 0.243806 0.999727 0
887 1 0.275393 0.971028 0
858 1 0.299467 0.966632 0
888 1 0.292554 0.989738 0
889 1 0.31696 0.984045 0
861 1 0.359488 0.957743 0
860 1 0.324121 0.961875 0
891 1 0.343332 0.978011 0
862 1 0.367457 0.981252 0
864 1 0.384248 0.963326 0
893 1 0.391074 0.987233 0
895 1 0.408178 0.969641 0
866 1 0.433781 0.974729 0
896 1 0.41649 0.992844 0
867 1 0.450552 0.956299 0
897 1 0.441195 0.998647 0
899 1 0.482315 0.985427 0
1771 1 0.49918 0.966742 0
870 1 0.475068 0.961041 0
868 1 0.458252 0.979824 0
902 1 0.538664 0.0206885 0
931 1 0.521551 0.0388655 0
901 1 0.51337 0.0143655 0
933 1 0.545228 0.0445749 0
904 1 0.563382 0.0254436 0
906 1 0.580314 0.0069099 0
935 1 0.587543 0.031582 0
905 1 0.555527 0.00192932 0
908 1 0.604707 0.0123733 0
937 1 0.611722 0.0374317 0
939 1 0.628524 0.0193238 0
938 1 0.638541 0.0433348 0
940 1 0.65317 0.0172743 0
971 1 0.671548 0.0339779 0
942 1 0.676519 0.0103876 0
944 1 0.694513 0.0286124 0
945 1 0.718728 0.0223642 0
943 1 0.700044 0.00367731 0
947 1 0.742493 0.0175346 0
946 1 0.736266 0.0418939 0
948 1 0.760504 0.0357557 0
918 1 0.765816 0.0115257 0
919 1 0.790631 0.00493347 0
949 1 0.784527 0.0299473 0
920 1 0.808661 0.0235711 0
951 1 0.83213 0.0169143 0
952 1 0.850277 0.035124 0
922 1 0.856584 0.011051 0
950 1 0.826493 0.0410472 0
953 1 0.874591 0.029439 0
955 1 0.898179 0.022308 0
924 1 0.880726 0.00367834 0
926 1 0.922383 0.0144139 0
928 1 0.946571 0.00717711 0
957 1 0.940205 0.0314869 0
956 1 0.916783 0.0381416 0
930 1 0.98945 0.019079 0
959 1 0.964591 0.0250995 0
929 1 0.970561 0.00128991 0
960 1 0.983556 0.0427598 0
932 1 0.528261 0.0625869 0
962 1 0.534814 0.0873177 0
961 1 0.511543 0.0813164 0
60 1 0.504463 0.057435 0
934 1 0.569431 0.0500888 0
963 1 0.552237 0.0682741 0
965 1 0.576833 0.0740252 0
936 1 0.593225 0.055561 0
966 1 0.601156 0.0787716 0
967 1 0.618719 0.0606893 0
968 1 0.624975 0.0853838 0
969 1 0.642438 0.0672154 0
970 1 0.663954 0.0560781 0
972 1 0.681857 0.0750153 0
975 1 0.712803 0.0469142 0
973 1 0.689414 0.0525455 0
1003 1 0.70611 0.0712361 0
1004 1 0.72242 0.0896756 0
974 1 0.730402 0.0660755 0
976 1 0.754047 0.0587627 0
1005 1 0.747478 0.0835411 0
1007 1 0.771495 0.0775939 0
979 1 0.802876 0.0479194 0
977 1 0.777952 0.0536167 0
978 1 0.794929 0.0716707 0
1009 1 0.813089 0.0891616 0
980 1 0.819383 0.06537 0
981 1 0.843599 0.0596286 0
982 1 0.861476 0.0771566 0
1011 1 0.836851 0.0827947 0
954 1 0.892299 0.0458635 0
983 1 0.867381 0.0528747 0
984 1 0.88547 0.0698673 0
1015 1 0.903613 0.0868436 0
985 1 0.90959 0.0632488 0
986 1 0.928076 0.080898 0
987 1 0.9349 0.0561674 0
988 1 0.95215 0.0736863 0
958 1 0.959291 0.0493843 0
989 1 0.976181 0.067338 0
990 1 0.993275 0.0845637 0
1019 1 0.969815 0.0911189 0
61 1 1.00004 0.0606805 0
991 1 0.517871 0.105844 0
992 1 0.524889 0.129122 0
120 1 0.500703 0.123756 0
993 1 0.542597 0.110565 0
964 1 0.559573 0.0914631 0
994 1 0.5667 0.116024 0
995 1 0.584585 0.0976978 0
1023 1 0.550108 0.134593 0
996 1 0.591445 0.122398 0
997 1 0.608244 0.104124 0
1027 1 0.6157 0.128442 0
998 1 0.63242 0.11014 0
999 1 0.649662 0.0915703 0
1000 1 0.656591 0.116141 0
1001 1 0.67427 0.0976026 0
1029 1 0.639684 0.133636 0
1031 1 0.681849 0.121869 0
1002 1 0.698876 0.0956322 0
1033 1 0.70726 0.123328 0
1035 1 0.739766 0.107335 0
1006 1 0.763729 0.102503 0
1036 1 0.757032 0.126083 0
1034 1 0.732952 0.131198 0
1008 1 0.788403 0.0969119 0
1037 1 0.781292 0.120382 0
1039 1 0.805883 0.114363 0
1040 1 0.823982 0.131226 0
1010 1 0.829799 0.106902 0
1012 1 0.854539 0.100583 0
1041 1 0.84881 0.125446 0
1043 1 0.87219 0.11851 0
1013 1 0.879312 0.0939989 0
1014 1 0.897398 0.111347 0
1044 1 0.890607 0.1359 0
1016 1 0.914933 0.129008 0
1017 1 0.921751 0.105413 0
1018 1 0.946075 0.0983086 0
1047 1 0.938944 0.123533 0
1020 1 0.986362 0.108919 0
1049 1 0.962872 0.115764 0
1050 1 0.980311 0.132696 0
1021 1 0.507857 0.147467 0
1022 1 0.532415 0.153214 0
1053 1 0.539194 0.177442 0
1051 1 0.514401 0.17182 0
1025 1 0.573848 0.140546 0
1024 1 0.55639 0.158374 0
1055 1 0.580835 0.16419 0
1026 1 0.597376 0.146112 0
1028 1 0.622123 0.151336 0
1057 1 0.604828 0.170218 0
1058 1 0.629591 0.175302 0
1059 1 0.647639 0.157614 0
1030 1 0.664915 0.139798 0
1061 1 0.673338 0.162535 0
1032 1 0.690866 0.144583 0
1063 1 0.71519 0.149259 0
1062 1 0.697518 0.168754 0
1064 1 0.721296 0.173738 0
1065 1 0.74641 0.154346 0
1066 1 0.767448 0.170385 0
1095 1 0.745045 0.180258 0
1038 1 0.79929 0.138268 0
1067 1 0.774121 0.146106 0
1068 1 0.792713 0.161837 0
1069 1 0.816816 0.155533 0
1099 1 0.810841 0.179925 0
1071 1 0.842074 0.149636 0
1072 1 0.86074 0.166795 0
1070 1 0.836385 0.173427 0
1042 1 0.866603 0.142612 0
1073 1 0.885204 0.160603 0
1074 1 0.903138 0.177848 0
1045 1 0.908732 0.153768 0
1075 1 0.926961 0.172195 0
1046 1 0.932643 0.147255 0
1077 1 0.950683 0.164904 0
1048 1 0.95644 0.140701 0
1079 1 0.974756 0.158547 0
1080 1 0.991304 0.17737 0
151 1 0.997751 0.151511 0
1052 1 0.521495 0.195028 0
1082 1 0.528579 0.218854 0
1081 1 0.504015 0.212994 0
1054 1 0.563573 0.181637 0
1083 1 0.545682 0.200986 0
1085 1 0.56982 0.207245 0
1084 1 0.553146 0.22494 0
1056 1 0.587443 0.188441 0
1086 1 0.595017 0.211824 0
1087 1 0.61262 0.193589 0
1088 1 0.619295 0.21771 0
1060 1 0.655754 0.180517 0
1089 1 0.637733 0.19825 0
1090 1 0.661597 0.204844 0
1119 1 0.643496 0.22367 0
1091 1 0.680486 0.18659 0
1092 1 0.687343 0.210551 0
1093 1 0.704533 0.193345 0
1123 1 0.712548 0.216597 0
1094 1 0.729164 0.198961 0
1096 1 0.754045 0.203829 0
1125 1 0.737085 0.222833 0
1097 1 0.786485 0.186181 0
1127 1 0.780228 0.210525 0
1098 1 0.804505 0.204737 0
1129 1 0.823642 0.221557 0
1100 1 0.828509 0.197499 0
1101 1 0.852991 0.190475 0
1131 1 0.846782 0.214226 0
1102 1 0.871389 0.207817 0
1103 1 0.877937 0.183957 0
1104 1 0.895367 0.200699 0
1135 1 0.912871 0.219783 0
1105 1 0.919799 0.195907 0
1076 1 0.943148 0.190673 0
1107 1 0.958406 0.209465 0
1078 1 0.967132 0.184662 0
1109 1 0.983958 0.202438 0
1111 1 0.511288 0.236484 0
1113 1 0.535413 0.241531 0
1112 1 0.518777 0.260751 0
1143 1 0.543035 0.265005 0
1114 1 0.559282 0.247767 0
1115 1 0.577509 0.231161 0
1116 1 0.584154 0.25429 0
1117 1 0.602479 0.235748 0
1118 1 0.62702 0.241661 0
1147 1 0.608734 0.2588 0
1149 1 0.634727 0.266429 0
1121 1 0.669052 0.228229 0
1120 1 0.651578 0.247925 0
1151 1 0.675679 0.252666 0
1150 1 0.659537 0.271029 0
1122 1 0.694443 0.235105 0
1124 1 0.719665 0.241337 0
1153 1 0.7023 0.25886 0
1154 1 0.726852 0.264609 0
1126 1 0.761692 0.228618 0
1155 1 0.744368 0.246343 0
1157 1 0.768357 0.251849 0
1156 1 0.750306 0.270436 0
1128 1 0.786124 0.23394 0
1159 1 0.811384 0.242044 0
1158 1 0.792715 0.260453 0
1160 1 0.818974 0.265455 0
1130 1 0.839091 0.244686 0
1161 1 0.862256 0.255876 0
1191 1 0.843342 0.272179 0
1133 1 0.888599 0.225639 0
1132 1 0.865224 0.232276 0