ITEM: TIMESTEP
72000
ITEM: NUMBER OF ATOMS
1800
ITEM: BOX BOUNDS pp pp pp
8.7847027867368865e-01 1.6412152972132623e+02
8.7847027867368865e-01 1.6412152972132623e+02
0.0000000000000000e+00 5.5000000000000000e+00
ITEM: ATOMS id type xs ys zs
2 1 0.00779021 0.0181543 0
3 1 0.0323531 0.01229 0
33 1 0.0247017 0.0356111 0
31 1 0.0006302 0.0416484 0
4 1 0.0506199 0.0294157 0
5 1 0.0574226 0.00560565 0
6 1 0.075628 0.0227061 0
37 1 0.0924186 0.0420489 0
8 1 0.102654 0.0188763 0
9 1 0.123914 0.00476683 0
39 1 0.126025 0.0290373 0
10 1 0.146984 0.0152565 0
41 1 0.169509 0.0254717 0
40 1 0.1498 0.0398757 0
11 1 0.167378 0.00127662 0
12 1 0.190086 0.0114287 0
43 1 0.191669 0.0366526 0
14 1 0.212878 0.0218661 0
15 1 0.233216 0.00575823 0
45 1 0.236303 0.030665 0
16 1 0.256173 0.0161847 0
46 1 0.258063 0.0404929 0
18 1 0.278656 0.0257047 0
49 1 0.302022 0.0345777 0
17 1 0.277993 0.000723405 0
20 1 0.319329 0.0126391 0
51 1 0.33882 0.0277125 0
22 1 0.363565 0.0271124 0
21 1 0.343629 0.00408435 0
24 1 0.386772 0.0190527 0
55 1 0.408366 0.0309671 0
53 1 0.383983 0.0437092 0
23 1 0.367751 0.0021454 0
25 1 0.425015 0.0142191 0
26 1 0.432059 0.0376914 0
27 1 0.449789 0.0191019 0
28 1 0.456528 0.0432617 0
898 1 0.467901 0.00197989 0
30 1 0.498363 0.0324919 0
29 1 0.474292 0.0262065 0
900 1 0.491578 0.00836981 0
32 1 0.0178047 0.059827 0
62 1 0.00985987 0.0832376 0
63 1 0.0351398 0.0774179 0
34 1 0.042858 0.0533845 0
35 1 0.0678615 0.0465511 0
36 1 0.0832602 0.065803 0
65 1 0.0592853 0.0710943 0
66 1 0.0757292 0.0894003 0
38 1 0.107354 0.0611351 0
67 1 0.100956 0.0851193 0
68 1 0.127124 0.078196 0
69 1 0.129558 0.05266 0
71 1 0.149526 0.0664547 0
42 1 0.171367 0.0511931 0
72 1 0.172678 0.0770069 0
44 1 0.215098 0.0462627 0
73 1 0.193805 0.0611832 0
74 1 0.216932 0.0719266 0
103 1 0.195731 0.0873502 0
75 1 0.237373 0.055426 0
77 1 0.260352 0.0654368 0
76 1 0.239652 0.0810036 0
107 1 0.262151 0.0902173 0
47 1 0.281155 0.0502385 0
48 1 0.283141 0.0747616 0
79 1 0.305783 0.0860784 0
50 1 0.304426 0.0614198 0
52 1 0.349813 0.0499774 0
81 1 0.324199 0.0470341 0
82 1 0.333881 0.0694836 0
111 1 0.353168 0.0843622 0
83 1 0.370903 0.0651996 0
54 1 0.395389 0.0721902 0
113 1 0.378541 0.0894611 0
56 1 0.412361 0.0544146 0
57 1 0.438987 0.0614755 0
85 1 0.420576 0.0777368 0
87 1 0.445531 0.0851729 0
59 1 0.480985 0.0491742 0
58 1 0.463947 0.0664937 0
89 1 0.487935 0.072865 0
88 1 0.470118 0.0908255 0
92 1 0.0200574 0.125585 0
93 1 0.02662 0.101159 0
91 1 0.0025598 0.107602 0
94 1 0.0435536 0.119398 0
64 1 0.0515699 0.0962491 0
95 1 0.0680126 0.113836 0
96 1 0.0860983 0.130808 0
97 1 0.092314 0.107098 0
98 1 0.110846 0.125427 0
99 1 0.118992 0.102573 0
70 1 0.151216 0.091228 0
100 1 0.153653 0.114989 0
101 1 0.174247 0.102183 0
131 1 0.177021 0.127217 0
102 1 0.196657 0.112459 0
104 1 0.219519 0.122507 0
105 1 0.218763 0.0975289 0
106 1 0.241125 0.106146 0
135 1 0.243537 0.132516 0
137 1 0.264514 0.114525 0
78 1 0.285296 0.100105 0
108 1 0.286677 0.125529 0
109 1 0.310097 0.109975 0
139 1 0.308438 0.133476 0
80 1 0.329184 0.0932969 0
110 1 0.33716 0.115616 0
141 1 0.360303 0.108173 0
84 1 0.403865 0.0957166 0
112 1 0.385721 0.112399 0
143 1 0.370085 0.130524 0
115 1 0.411102 0.118688 0
86 1 0.429125 0.102639 0
116 1 0.434694 0.12647 0
117 1 0.452528 0.108989 0
118 1 0.458312 0.13233 0
90 1 0.493851 0.0965306 0
119 1 0.477272 0.113937 0
122 1 0.0125193 0.148962 0
153 1 0.0279335 0.167009 0
152 1 0.00390202 0.173282 0
123 1 0.0367564 0.143724 0
125 1 0.0615677 0.137291 0
124 1 0.0535156 0.161865 0
126 1 0.0784454 0.154551 0
155 1 0.0722803 0.178398 0
127 1 0.103085 0.149218 0
128 1 0.119388 0.167244 0
157 1 0.0954594 0.172021 0
129 1 0.128194 0.142962 0
159 1 0.143905 0.160987 0
130 1 0.154576 0.139277 0
161 1 0.163969 0.17477 0
132 1 0.180478 0.155365 0
133 1 0.200066 0.138308 0
134 1 0.223617 0.147208 0
163 1 0.206077 0.164414 0
162 1 0.187163 0.180578 0
164 1 0.228314 0.173717 0
136 1 0.266203 0.140887 0
165 1 0.247289 0.157114 0
166 1 0.252755 0.181708 0
167 1 0.270911 0.164958 0
138 1 0.289355 0.149195 0
169 1 0.312163 0.157727 0
168 1 0.294543 0.17429 0
140 1 0.331786 0.139921 0
142 1 0.354424 0.148037 0
171 1 0.336488 0.164315 0
172 1 0.359956 0.17198 0
170 1 0.318381 0.181457 0
114 1 0.394352 0.136705 0
144 1 0.400321 0.160852 0
173 1 0.377475 0.154015 0
174 1 0.38345 0.178181 0
145 1 0.417972 0.1431 0
146 1 0.424182 0.167931 0
147 1 0.442165 0.150781 0
177 1 0.447971 0.175218 0
149 1 0.483052 0.138274 0
148 1 0.465434 0.157529 0
150 1 0.489774 0.162755 0
179 1 0.471491 0.181143 0
183 1 0.0222199 0.190403 0
182 1 0.0142857 0.213761 0
184 1 0.0388859 0.208248 0
154 1 0.0462036 0.184809 0
185 1 0.0634279 0.202466 0
186 1 0.0802526 0.220291 0
215 1 0.0551936 0.227058 0
156 1 0.0880129 0.197493 0
158 1 0.112759 0.191097 0
187 1 0.105535 0.21543 0
189 1 0.129958 0.208906 0
160 1 0.137994 0.185317 0
191 1 0.168595 0.198914 0
190 1 0.152338 0.217036 0
221 1 0.17552 0.223573 0
193 1 0.209856 0.189648 0
192 1 0.192171 0.206252 0
194 1 0.216235 0.213679 0
195 1 0.234395 0.198048 0
196 1 0.258275 0.206736 0
225 1 0.240376 0.223097 0
197 1 0.276623 0.189906 0
199 1 0.300302 0.198554 0
198 1 0.282312 0.214653 0
229 1 0.306456 0.2213 0
201 1 0.342289 0.18934 0
200 1 0.324195 0.205138 0
202 1 0.347756 0.213015 0
203 1 0.365964 0.19529 0
233 1 0.371626 0.219919 0
204 1 0.389316 0.203624 0
175 1 0.406806 0.185293 0
235 1 0.395215 0.227158 0
205 1 0.413353 0.209905 0
176 1 0.430718 0.192673 0
207 1 0.437232 0.217301 0
178 1 0.454607 0.199418 0
208 1 0.460015 0.224356 0
180 1 0.496507 0.187363 0
209 1 0.478047 0.205294 0
213 1 0.0303502 0.232591 0
212 1 0.00635836 0.238288 0
243 1 0.0240438 0.257021 0
241 1 0.000351396 0.261682 0
216 1 0.0727586 0.244463 0
214 1 0.0478367 0.250647 0
245 1 0.0655279 0.267141 0
217 1 0.0962521 0.238984 0
218 1 0.11549 0.252675 0
188 1 0.132299 0.233989 0
247 1 0.0921602 0.264175 0
219 1 0.138871 0.258604 0
220 1 0.15752 0.241637 0
251 1 0.162894 0.265836 0
222 1 0.181656 0.248831 0
223 1 0.199091 0.230997 0
224 1 0.222356 0.238554 0
253 1 0.204525 0.256331 0
255 1 0.227778 0.264612 0
227 1 0.264614 0.231192 0
226 1 0.246029 0.24788 0
257 1 0.269846 0.25531 0
256 1 0.251815 0.271893 0
228 1 0.288253 0.238509 0
230 1 0.311519 0.246307 0
259 1 0.292748 0.26269 0
260 1 0.317784 0.27104 0
231 1 0.330275 0.229371 0
232 1 0.354088 0.236888 0
261 1 0.335903 0.253916 0
263 1 0.359673 0.261007 0
234 1 0.377414 0.244291 0
265 1 0.402425 0.251322 0
264 1 0.383638 0.268584 0
206 1 0.419187 0.23404 0
236 1 0.425304 0.258885 0
237 1 0.442913 0.241716 0
238 1 0.44899 0.265477 0
210 1 0.484766 0.228836 0
239 1 0.467405 0.246885 0
240 1 0.490895 0.25376 0
269 1 0.473331 0.271193 0
242 1 0.0168643 0.281536 0
273 1 0.0339794 0.298812 0
271 1 0.00950062 0.307709 0
244 1 0.0427392 0.275646 0
246 1 0.0784754 0.28725 0
275 1 0.0589922 0.30215 0
276 1 0.0837707 0.310376 0
249 1 0.120699 0.275568 0
248 1 0.102381 0.292847 0
279 1 0.126034 0.300172 0
277 1 0.107785 0.316992 0
250 1 0.144527 0.283388 0
280 1 0.15108 0.306951 0
281 1 0.169018 0.290414 0
282 1 0.17435 0.315617 0
252 1 0.186661 0.273672 0
254 1 0.210697 0.281273 0
283 1 0.192475 0.298745 0
284 1 0.215977 0.306174 0
285 1 0.234372 0.289385 0
287 1 0.257306 0.297891 0
286 1 0.239619 0.313929 0
258 1 0.275202 0.279871 0
288 1 0.281043 0.303467 0
289 1 0.299061 0.287011 0
290 1 0.305532 0.310793 0
262 1 0.341357 0.278336 0
291 1 0.324376 0.296792 0
292 1 0.346683 0.303764 0
293 1 0.365219 0.285672 0
294 1 0.370887 0.310726 0
295 1 0.388818 0.29351 0
296 1 0.395008 0.316943 0
266 1 0.407446 0.275096 0
267 1 0.430751 0.282757 0
297 1 0.413056 0.300251 0
298 1 0.437842 0.307103 0
268 1 0.454922 0.289032 0
1141 1 0.496986 0.278345 0
270 1 0.47833 0.295603 0
299 1 0.461887 0.314468 0
301 1 0.0236453 0.340905 0
1230 1 0.00573038 0.359446 0
272 1 0.0410799 0.322512 0
303 1 0.0483947 0.346803 0
274 1 0.0659145 0.328856 0
304 1 0.072933 0.352423 0
305 1 0.0904294 0.334706 0
307 1 0.114283 0.340738 0
306 1 0.0968768 0.358387 0
278 1 0.133643 0.324036 0
309 1 0.13856 0.348388 0
311 1 0.157005 0.332399 0
310 1 0.162981 0.356747 0
312 1 0.180617 0.33974 0
313 1 0.198325 0.323542 0
314 1 0.204653 0.348381 0
315 1 0.221458 0.331039 0
345 1 0.228609 0.358653 0
317 1 0.262469 0.322111 0
316 1 0.244323 0.340004 0
318 1 0.268081 0.345515 0
319 1 0.286358 0.328646 0
320 1 0.307731 0.358176 0
321 1 0.309218 0.334588 0
323 1 0.331816 0.32363 0
322 1 0.330947 0.348488 0
324 1 0.354912 0.341539 0
325 1 0.378641 0.334834 0
355 1 0.374145 0.358302 0
326 1 0.397939 0.351557 0
327 1 0.419419 0.323071 0
328 1 0.422844 0.346446 0
329 1 0.445744 0.334239 0
359 1 0.442061 0.360772 0
300 1 0.485058 0.319573 0
1201 1 0.491114 0.343474 0
330 1 0.466039 0.349409 0
302 1 0.0301754 0.365253 0
332 1 0.036133 0.389145 0
331 1 0.0124214 0.38407 0
361 1 0.0192245 0.407687 0
333 1 0.0549825 0.371329 0
335 1 0.0791316 0.376224 0
334 1 0.0613924 0.394442 0
336 1 0.0860299 0.400098 0
308 1 0.121628 0.365038 0
337 1 0.104189 0.382001 0
338 1 0.127035 0.389051 0
367 1 0.109744 0.405727 0
339 1 0.145255 0.372963 0
341 1 0.169135 0.381785 0
340 1 0.151379 0.396781 0
343 1 0.187221 0.364698 0
342 1 0.191129 0.391881 0
344 1 0.20933 0.374341 0
375 1 0.213744 0.401747 0
347 1 0.25265 0.36722 0
346 1 0.232204 0.383913 0
377 1 0.253714 0.394377 0
349 1 0.283549 0.36418 0
348 1 0.27809 0.388305 0
350 1 0.301766 0.381415 0
379 1 0.295336 0.405611 0
353 1 0.350086 0.365475 0
351 1 0.327156 0.373408 0
381 1 0.320236 0.399081 0
352 1 0.343683 0.390674 0
383 1 0.361138 0.407676 0
354 1 0.367553 0.383292 0
385 1 0.385498 0.40024 0
356 1 0.391691 0.375757 0
357 1 0.415704 0.369925 0
358 1 0.434171 0.384645 0
387 1 0.409234 0.393356 0
389 1 0.452698 0.40191 0
388 1 0.428782 0.408694 0
1231 1 0.484412 0.369 0
360 1 0.458829 0.378257 0
1232 1 0.476818 0.393802 0
362 1 0.0279361 0.43152 0
392 1 0.0117846 0.44869 0
391 1 0.00333357 0.426095 0
363 1 0.0446549 0.412778 0
364 1 0.0523163 0.43665 0
365 1 0.0687929 0.417939 0
395 1 0.075856 0.441035 0
366 1 0.0925782 0.42306 0
397 1 0.100088 0.447839 0
368 1 0.116844 0.429859 0
399 1 0.12596 0.451967 0
369 1 0.133789 0.412404 0
371 1 0.17353 0.410207 0
370 1 0.143239 0.434002 0
401 1 0.169692 0.436135 0
372 1 0.193737 0.444263 0
373 1 0.196762 0.419689 0
403 1 0.217558 0.449939 0
374 1 0.222461 0.424616 0
378 1 0.271073 0.412048 0
376 1 0.246664 0.418506 0
405 1 0.240796 0.443016 0
407 1 0.265015 0.436861 0
409 1 0.289448 0.430204 0
410 1 0.307899 0.446855 0
408 1 0.283281 0.454085 0
380 1 0.313087 0.42265 0
382 1 0.338289 0.415865 0
411 1 0.332619 0.439311 0
413 1 0.357054 0.431696 0
384 1 0.379982 0.42366 0
414 1 0.375346 0.448229 0
415 1 0.39871 0.440616 0
386 1 0.404883 0.417046 0
417 1 0.422392 0.433467 0
418 1 0.44182 0.450799 0
419 1 0.446071 0.426298 0
1261 1 0.471099 0.418565 0
390 1 0.465034 0.443199 0
1291 1 0.489919 0.436477 0
1262 1 0.495302 0.411634 0
393 1 0.0352463 0.454741 0
422 1 0.0182049 0.472902 0
451 1 0.003003 0.491672 0
453 1 0.0273646 0.497131 0
423 1 0.043665 0.478277 0
394 1 0.05951 0.460326 0
396 1 0.084366 0.465311 0
425 1 0.0673745 0.483748 0
427 1 0.0919275 0.489196 0
398 1 0.109335 0.470896 0
428 1 0.117394 0.494717 0
429 1 0.134745 0.476132 0
400 1 0.15173 0.456928 0
431 1 0.159181 0.482099 0
402 1 0.176081 0.462508 0
430 1 0.142427 0.499995 0
432 1 0.183827 0.486356 0
433 1 0.199918 0.467329 0
434 1 0.207056 0.492298 0
406 1 0.259328 0.460673 0
404 1 0.234335 0.467787 0
436 1 0.254511 0.485018 0
435 1 0.231193 0.492743 0
437 1 0.279525 0.478231 0
438 1 0.297829 0.495464 0
439 1 0.303315 0.471822 0
412 1 0.350781 0.455232 0
440 1 0.321638 0.488094 0
441 1 0.327446 0.463236 0
442 1 0.344925 0.480097 0
473 1 0.362151 0.496598 0
443 1 0.368724 0.47227 0
445 1 0.39308 0.464827 0
444 1 0.386849 0.489543 0
416 1 0.417009 0.457357 0
446 1 0.411913 0.481924 0
447 1 0.435324 0.47543 0
449 1 0.453406 0.492324 0
448 1 0.429873 0.499827 0
420 1 0.459591 0.467797 0
1321 1 0.483969 0.460365 0
450 1 0.47818 0.484286 0
452 1 0.0100531 0.514913 0
483 1 0.0184037 0.53853 0
454 1 0.0356389 0.520964 0
485 1 0.0429072 0.544262 0
455 1 0.0601375 0.526743 0
456 1 0.083977 0.531582 0
426 1 0.0751251 0.507363 0
424 1 0.0517644 0.502381 0
458 1 0.108989 0.534749 0
459 1 0.126067 0.517408 0
457 1 0.0997659 0.511854 0
489 1 0.133932 0.540996 0
460 1 0.150618 0.524177 0
462 1 0.174731 0.52951 0
461 1 0.167257 0.505172 0
463 1 0.191785 0.510548 0
493 1 0.198306 0.534721 0
495 1 0.220875 0.541798 0
464 1 0.216309 0.517094 0
466 1 0.24326 0.53386 0
497 1 0.269858 0.527302 0
465 1 0.249421 0.510038 0
467 1 0.273792 0.502514 0
468 1 0.293072 0.519768 0
499 1 0.311148 0.536407 0
498 1 0.287497 0.544243 0
469 1 0.316068 0.512785 0
470 1 0.334641 0.529556 0
472 1 0.358469 0.520856 0
471 1 0.338932 0.504556 0
501 1 0.353227 0.545331 0
503 1 0.376153 0.537591 0
474 1 0.382023 0.513354 0
475 1 0.405681 0.50566 0
476 1 0.399233 0.530317 0
477 1 0.423027 0.522979 0
478 1 0.447188 0.516446 0
507 1 0.44014 0.539382 0
480 1 0.465338 0.532006 0
479 1 0.471382 0.507953 0
1381 1 0.489028 0.52502 0
1351 1 0.496012 0.501192 0
513 1 0.0259192 0.562764 0
541 1 0.00930278 0.580184 0
512 1 0.0326613 0.586825 0
482 1 0.00280849 0.556084 0
486 1 0.0672413 0.550393 0
484 1 0.0500059 0.568781 0
515 1 0.0735571 0.574954 0
487 1 0.0922703 0.555174 0
488 1 0.116295 0.558246 0
519 1 0.121203 0.580914 0
517 1 0.097213 0.580141 0
491 1 0.158296 0.547019 0
490 1 0.140096 0.565481 0
521 1 0.163172 0.57188 0
520 1 0.144584 0.589143 0
492 1 0.183139 0.55511 0
523 1 0.187178 0.581794 0
494 1 0.210109 0.567188 0
525 1 0.232154 0.581935 0
496 1 0.238178 0.557896 0
526 1 0.256252 0.575375 0
527 1 0.26273 0.550243 0
529 1 0.305667 0.561397 0
528 1 0.281611 0.569274 0
559 1 0.300064 0.58592 0
530 1 0.323063 0.578847 0
500 1 0.328805 0.554124 0
531 1 0.346862 0.571622 0
502 1 0.369702 0.563115 0
505 1 0.393055 0.556137 0
504 1 0.387919 0.580935 0
533 1 0.364608 0.588496 0
506 1 0.416288 0.547684 0
535 1 0.411188 0.573272 0
508 1 0.434734 0.564203 0
539 1 0.452309 0.581562 0
537 1 0.428799 0.589671 0
509 1 0.45841 0.556799 0
510 1 0.482584 0.54921 0
540 1 0.476429 0.573838 0
1441 1 0.495825 0.589993 0
542 1 0.0147411 0.60523 0
571 1 0.00814227 0.629413 0
543 1 0.0386645 0.61041 0
544 1 0.0417563 0.634664 0
514 1 0.0577435 0.594393 0
516 1 0.0829202 0.601767 0
545 1 0.062453 0.620269 0
546 1 0.0836947 0.632822 0
518 1 0.12312 0.60429 0
547 1 0.102809 0.617301 0
548 1 0.126199 0.628877 0
522 1 0.166932 0.597314 0
549 1 0.1458 0.613584 0
551 1 0.168507 0.622947 0
524 1 0.209267 0.592042 0
553 1 0.189086 0.607681 0
552 1 0.190931 0.633957 0
554 1 0.210474 0.618479 0
555 1 0.230865 0.606838 0
556 1 0.245164 0.626421 0
557 1 0.253289 0.599876 0
587 1 0.270947 0.619012 0
558 1 0.276356 0.593252 0
560 1 0.2947 0.610546 0
591 1 0.311905 0.628748 0
561 1 0.318839 0.603214 0
532 1 0.341826 0.595878 0
562 1 0.336327 0.620727 0
563 1 0.359221 0.613555 0
534 1 0.38293 0.60584 0
565 1 0.377958 0.631204 0
566 1 0.400813 0.623131 0
536 1 0.406033 0.597718 0
567 1 0.42358 0.614046 0
538 1 0.447176 0.60657 0
597 1 0.44225 0.631022 0
568 1 0.466293 0.622725 0
569 1 0.470694 0.598643 0
570 1 0.489886 0.614169 0
573 1 0.0211679 0.650627 0
603 1 0.0229034 0.675247 0
574 1 0.0432142 0.660315 0
575 1 0.0632807 0.646079 0
605 1 0.065046 0.671313 0
576 1 0.0866511 0.65659 0
607 1 0.0896199 0.681391 0
577 1 0.106489 0.642406 0
578 1 0.109792 0.666967 0
579 1 0.129245 0.652625 0
609 1 0.132711 0.677152 0
550 1 0.148461 0.637871 0
581 1 0.170959 0.646971 0
580 1 0.151514 0.662602 0
611 1 0.174721 0.672638 0
583 1 0.213851 0.64311 0
582 1 0.193001 0.657596 0
584 1 0.216201 0.666673 0
585 1 0.238636 0.649878 0
586 1 0.26406 0.643482 0
615 1 0.237804 0.674906 0
617 1 0.260646 0.668167 0
589 1 0.28789 0.636665 0
588 1 0.283715 0.661204 0
590 1 0.306517 0.653104 0
619 1 0.30109 0.678496 0
564 1 0.353617 0.638451 0
593 1 0.330139 0.644846 0
621 1 0.324511 0.66995 0
592 1 0.347843 0.662564 0
594 1 0.371058 0.655961 0
595 1 0.396137 0.648508 0
625 1 0.390691 0.672883 0
623 1 0.367278 0.680211 0
627 1 0.41457 0.664753 0
596 1 0.418887 0.63915 0
598 1 0.437102 0.655539 0
628 1 0.454822 0.673549 0
599 1 0.460779 0.64812 0
600 1 0.483567 0.638673 0
629 1 0.478279 0.66561 0
602 1 0.00333453 0.690744 0
633 1 0.0253814 0.701635 0
634 1 0.0303311 0.725303 0
604 1 0.0445379 0.686437 0
632 1 0.00146153 0.716311 0
606 1 0.0693782 0.695492 0
635 1 0.049564 0.710995 0
636 1 0.0727741 0.720769 0
637 1 0.0928224 0.705773 0
608 1 0.112791 0.691405 0
638 1 0.116 0.716762 0
639 1 0.134574 0.701731 0
640 1 0.139289 0.726532 0
610 1 0.155828 0.687759 0
641 1 0.158926 0.712326 0
612 1 0.178714 0.697434 0
613 1 0.197732 0.682022 0
642 1 0.182077 0.721429 0
614 1 0.222262 0.692665 0
643 1 0.201882 0.706229 0
645 1 0.22339 0.71737 0
616 1 0.253523 0.69299 0
646 1 0.248047 0.717321 0
647 1 0.272104 0.709483 0
618 1 0.278542 0.685597 0
649 1 0.295977 0.702217 0
650 1 0.31384 0.719721 0
648 1 0.290038 0.726396 0
620 1 0.319473 0.694753 0
622 1 0.343409 0.688189 0
651 1 0.336847 0.711818 0
653 1 0.361704 0.705409 0
624 1 0.384631 0.698249 0
655 1 0.403475 0.71487 0
654 1 0.379427 0.722495 0
626 1 0.408139 0.690479 0
657 1 0.431448 0.682323 0
656 1 0.426273 0.706984 0
658 1 0.449541 0.698962 0
687 1 0.444389 0.723924 0
630 1 0.496361 0.682033 0
659 1 0.473511 0.691623 0
660 1 0.492021 0.709246 0
689 1 0.467206 0.715776 0
662 1 0.0115014 0.763703 0
663 1 0.0117082 0.739462 0
664 1 0.0329806 0.750289 0
665 1 0.0537532 0.736052 0
666 1 0.0762875 0.745703 0
695 1 0.056529 0.760724 0
697 1 0.0793957 0.770382 0
667 1 0.0962284 0.731102 0
669 1 0.119098 0.741297 0
668 1 0.0982374 0.755649 0
699 1 0.121644 0.766783 0
671 1 0.16232 0.736861 0
670 1 0.14157 0.751704 0
672 1 0.164681 0.760698 0
673 1 0.185195 0.746362 0
644 1 0.204036 0.731651 0
674 1 0.211065 0.755834 0
703 1 0.188884 0.770192 0
675 1 0.240792 0.741376 0
705 1 0.235429 0.765881 0
677 1 0.266581 0.733938 0
676 1 0.259597 0.757392 0
679 1 0.30641 0.744177 0
678 1 0.283637 0.751144 0
709 1 0.301751 0.76794 0
652 1 0.355746 0.729689 0
680 1 0.325828 0.761176 0
681 1 0.331922 0.737577 0
682 1 0.350173 0.75507 0
683 1 0.374255 0.746075 0
684 1 0.392309 0.764399 0
685 1 0.398047 0.740148 0
713 1 0.368828 0.770812 0
715 1 0.415673 0.757012 0
686 1 0.421744 0.733137 0
717 1 0.439735 0.74984 0
718 1 0.4586 0.765987 0
688 1 0.46377 0.741563 0
690 1 0.486095 0.733518 0
719 1 0.483265 0.758371 0
694 1 0.0359721 0.774993 0
693 1 0.0172184 0.790141 0
692 1 0.015289 0.814863 0
723 1 0.0389721 0.800299 0
696 1 0.0587055 0.785528 0
725 1 0.0602887 0.811349 0
727 1 0.0809376 0.795662 0
698 1 0.101753 0.781096 0
728 1 0.103967 0.806269 0
700 1 0.124469 0.791854 0
729 1 0.126859 0.816329 0
701 1 0.144833 0.776343 0
731 1 0.147292 0.80115 0
732 1 0.170017 0.810725 0
702 1 0.167337 0.785506 0
704 1 0.21016 0.781172 0
733 1 0.18968 0.795539 0
734 1 0.213751 0.80625 0
735 1 0.231934 0.790187 0
706 1 0.254788 0.781677 0
736 1 0.249246 0.806232 0
737 1 0.272731 0.79881 0
707 1 0.278486 0.775157 0
708 1 0.296523 0.792462 0
739 1 0.315051 0.810394 0
738 1 0.291343 0.817659 0
710 1 0.320219 0.785754 0
711 1 0.343957 0.778486 0
741 1 0.338473 0.803191 0
712 1 0.362987 0.79593 0
743 1 0.387339 0.788798 0
745 1 0.405918 0.806154 0
744 1 0.382182 0.812884 0
714 1 0.41142 0.781978 0
716 1 0.434914 0.774643 0
747 1 0.453236 0.79123 0
746 1 0.429581 0.799098 0
748 1 0.448071 0.81604 0
720 1 0.486911 0.787008 0
749 1 0.472408 0.805934 0
1621 1 0.49701 0.811418 0
722 1 0.0406595 0.8253 0
751 1 0.0203861 0.839091 0
753 1 0.0428042 0.84947 0
726 1 0.0836079 0.821243 0
724 1 0.0638445 0.835812 0
755 1 0.0871104 0.846274 0
754 1 0.0659703 0.860365 0
756 1 0.110483 0.856123 0
757 1 0.107429 0.830832 0
759 1 0.130327 0.84097 0
730 1 0.14998 0.82556 0
760 1 0.153691 0.850694 0
761 1 0.172754 0.835395 0
791 1 0.177101 0.859575 0
763 1 0.193963 0.820876 0
762 1 0.195394 0.845085 0
764 1 0.216516 0.831774 0
795 1 0.231897 0.852246 0
767 1 0.266613 0.823119 0
765 1 0.240748 0.828489 0
766 1 0.25866 0.847131 0
768 1 0.283628 0.841446 0
769 1 0.308261 0.835216 0
799 1 0.301445 0.85821 0
742 1 0.356681 0.821174 0
770 1 0.325651 0.852979 0
740 1 0.33222 0.828215 0
771 1 0.349265 0.846145 0
773 1 0.374504 0.838666 0
774 1 0.398876 0.831812 0
803 1 0.390146 0.856341 0
772 1 0.367 0.863417 0
776 1 0.418283 0.8496 0
775 1 0.423391 0.824191 0
777 1 0.440801 0.840793 0
750 1 0.480187 0.829823 0
779 1 0.463632 0.848303 0
780 1 0.487638 0.852958 0
752 1 0.0223127 0.864411 0
811 1 0.00129027 0.902983 0
782 1 0.0223485 0.889067 0
783 1 0.0450635 0.874179 0
813 1 0.0471801 0.898553 0
785 1 0.0893687 0.870513 0
784 1 0.0686445 0.884453 0
786 1 0.090675 0.895292 0
758 1 0.133718 0.866604 0
787 1 0.112034 0.880959 0
788 1 0.135238 0.890538 0
817 1 0.114047 0.905197 0
789 1 0.156159 0.875904 0
790 1 0.158247 0.899686 0
792 1 0.179394 0.885139 0
793 1 0.199761 0.869542 0
823 1 0.202942 0.894338 0
794 1 0.223311 0.879697 0
824 1 0.224333 0.905423 0
796 1 0.250617 0.869186 0
825 1 0.24463 0.892118 0
827 1 0.268884 0.8884 0
797 1 0.275794 0.864592 0
798 1 0.2941 0.882078 0
829 1 0.310894 0.900799 0
828 1 0.285772 0.905989 0
800 1 0.318456 0.876888 0
801 1 0.342848 0.870926 0
831 1 0.335322 0.895451 0
802 1 0.359348 0.889193 0
804 1 0.384214 0.883404 0
805 1 0.408019 0.873958 0
833 1 0.376447 0.908312 0
806 1 0.407248 0.904129 0
778 1 0.444759 0.865849 0
807 1 0.428663 0.885396 0
837 1 0.436831 0.907904 0
808 1 0.452993 0.88939 0
809 1 0.470217 0.87159 0
1681 1 0.494804 0.877242 0
810 1 0.477468 0.895 0
812 1 0.0248309 0.913851 0
843 1 0.0282988 0.937706 0
842 1 0.00834115 0.953934 0
841 1 0.00407062 0.928938 0
815 1 0.0694604 0.908999 0
814 1 0.0484109 0.923794 0
844 1 0.0520843 0.94851 0
845 1 0.0712783 0.933127 0
816 1 0.0926208 0.920222 0
847 1 0.0965353 0.944272 0
818 1 0.116348 0.929589 0
848 1 0.119313 0.954256 0
821 1 0.181168 0.910527 0
819 1 0.137478 0.915039 0
849 1 0.139184 0.939624 0
820 1 0.160507 0.924606 0
850 1 0.162428 0.950049 0
851 1 0.183488 0.934684 0
822 1 0.20429 0.920138 0
853 1 0.205767 0.945848 0
855 1 0.227785 0.930479 0
826 1 0.261227 0.912547 0
856 1 0.250523 0.940573 0
857 1 0.27769 0.930895 0
858 1 0.294835 0.949548 0
859 1 0.302232 0.925009 0
860 1 0.31986 0.944615 0
832 1 0.351314 0.914419 0
830 1 0.326451 0.920484 0
861 1 0.343951 0.937448 0
863 1 0.368623 0.933117 0
834 1 0.393599 0.925722 0
865 1 0.405261 0.946506 0
864 1 0.382068 0.95286 0
835 1 0.418434 0.926098 0
838 1 0.444624 0.931739 0
836 1 0.428799 0.948678 0
839 1 0.461231 0.913618 0
1741 1 0.494626 0.942382 0
840 1 0.485274 0.918791 0
869 1 0.469984 0.937905 0
872 1 0.0153015 0.995239 0
873 1 0.0313282 0.963751 0
874 1 0.0382354 0.988101 0
846 1 0.0750633 0.957422 0
875 1 0.0564447 0.972391 0
876 1 0.077336 0.985184 0
7 1 0.101147 0.994085 0
877 1 0.0983453 0.969567 0
878 1 0.120726 0.979931 0
879 1 0.142034 0.964993 0
880 1 0.144256 0.990579 0
881 1 0.164589 0.974766 0
852 1 0.185155 0.959834 0
882 1 0.187427 0.986193 0
883 1 0.208196 0.970695 0
13 1 0.210141 0.99655 0
887 1 0.271848 0.954894 0
854 1 0.228649 0.955365 0
884 1 0.229662 0.980772 0
885 1 0.250573 0.967032 0
886 1 0.254166 0.991226 0
888 1 0.286032 0.975855 0
889 1 0.309994 0.969371 0
19 1 0.302005 0.994583 0
862 1 0.358563 0.957447 0
890 1 0.326893 0.987343 0
891 1 0.334149 0.963864 0
892 1 0.352113 0.981445 0
893 1 0.375712 0.976667 0
895 1 0.401686 0.970968 0
894 1 0.392317 0.995375 0
867 1 0.452222 0.955121 0
866 1 0.433812 0.973038 0
897 1 0.441782 0.996157 0
896 1 0.416817 0.99051 0
899 1 0.485434 0.984994 0
870 1 0.477777 0.960781 0
868 1 0.459208 0.978673 0
902 1 0.540049 0.0207284 0
931 1 0.522789 0.0374611 0
901 1 0.515955 0.0139988 0
933 1 0.548225 0.0445643 0
904 1 0.563964 0.0262569 0
935 1 0.589172 0.0319506 0
906 1 0.580606 0.00796732 0
905 1 0.557235 0.00257758 0
908 1 0.605607 0.0139293 0
937 1 0.613498 0.0374851 0
939 1 0.630601 0.0206825 0
938 1 0.637882 0.0435671 0
941 1 0.655712 0.0260759 0
912 1 0.672588 0.00850994 0
942 1 0.679626 0.0313314 0
910 1 0.647803 0.00298543 0
943 1 0.696541 0.0128102 0
944 1 0.702975 0.0388389 0
945 1 0.719007 0.0202017 0
947 1 0.744425 0.0255865 0
918 1 0.762992 0.00868271 0
975 1 0.728392 0.0444092 0
948 1 0.769011 0.032058 0
919 1 0.787815 0.00340669 0
949 1 0.792664 0.0420933 0
950 1 0.816489 0.0371036 0
920 1 0.827039 0.0139554 0
951 1 0.841974 0.0321672 0
922 1 0.851728 0.00939786 0
953 1 0.867855 0.0279293 0
924 1 0.876477 0.00490728 0
955 1 0.892439 0.0226762 0
956 1 0.909763 0.039494 0
926 1 0.918291 0.0170958 0
928 1 0.942119 0.0115036 0
957 1 0.934199 0.0341648 0
930 1 0.983869 0.0230824 0
959 1 0.959631 0.028825 0
929 1 0.966731 0.00526335 0
932 1 0.530436 0.062144 0
962 1 0.537096 0.0861325 0
961 1 0.51209 0.080042 0
60 1 0.505604 0.0556821 0
963 1 0.55498 0.0686749 0
934 1 0.57195 0.050336 0
965 1 0.579081 0.0739184 0
936 1 0.596431 0.0557837 0
966 1 0.602991 0.0798553 0
967 1 0.620284 0.0618434 0
968 1 0.627404 0.0846934 0
940 1 0.662078 0.0502604 0
969 1 0.64447 0.0673067 0
970 1 0.669043 0.0747337 0
971 1 0.685907 0.0575674 0
972 1 0.693103 0.0809527 0
973 1 0.71105 0.0635677 0
1003 1 0.717814 0.0878082 0
946 1 0.752633 0.0503746 0
974 1 0.735451 0.0697524 0
976 1 0.760867 0.0732722 0
977 1 0.784941 0.0666314 0
979 1 0.810405 0.0615056 0
978 1 0.802105 0.0849136 0
1007 1 0.778243 0.0905018 0
980 1 0.8279 0.0788665 0
981 1 0.834251 0.0559831 0
952 1 0.859734 0.0508654 0
954 1 0.884816 0.0455683 0
982 1 0.877776 0.0687464 0
983 1 0.901989 0.0631345 0
984 1 0.894747 0.087188 0
985 1 0.919362 0.0813129 0
987 1 0.926429 0.0581468 0
988 1 0.943813 0.0763474 0
958 1 0.951103 0.0522835 0
960 1 0.975512 0.0468125 0
989 1 0.967769 0.0708482 0
61 1 0.992154 0.0653778 0
990 1 0.985359 0.089176 0
991 1 0.518624 0.104001 0
992 1 0.524728 0.127589 0
993 1 0.542932 0.110933 0
120 1 0.500982 0.121329 0
964 1 0.56054 0.0923483 0
994 1 0.567713 0.115799 0
995 1 0.584498 0.0976475 0
1023 1 0.549623 0.13411 0
996 1 0.591997 0.121581 0
997 1 0.608635 0.103565 0
998 1 0.632779 0.108884 0
1027 1 0.616363 0.127099 0
999 1 0.651118 0.0917979 0
1029 1 0.640527 0.134091 0
1000 1 0.656771 0.116595 0
1001 1 0.675404 0.09855 0
1031 1 0.681218 0.122453 0
1002 1 0.69969 0.104997 0
1004 1 0.7238 0.111844 0
1033 1 0.706155 0.129532 0
1005 1 0.742985 0.0938792 0
1035 1 0.748189 0.119329 0
1034 1 0.729609 0.136003 0
1006 1 0.77281 0.114687 0
1008 1 0.796881 0.108234 0
1039 1 0.814115 0.126396 0
1037 1 0.789552 0.132384 0
1009 1 0.821186 0.102871 0
1011 1 0.845566 0.096435 0
1010 1 0.838569 0.120891 0
1012 1 0.863087 0.116585 0
1013 1 0.869814 0.0921489 0
1014 1 0.886611 0.110724 0
1016 1 0.904442 0.129068 0
1043 1 0.87992 0.133022 0
1015 1 0.912199 0.105426 0
986 1 0.935994 0.100363 0
1017 1 0.929143 0.124147 0
1018 1 0.954027 0.118238 0
121 1 0.995228 0.130516 0
1019 1 0.960764 0.0951814 0
1020 1 0.978624 0.112349 0
1022 1 0.531917 0.151845 0
1053 1 0.538353 0.175571 0
1051 1 0.514864 0.16888 0
1021 1 0.507082 0.145591 0
1025 1 0.574182 0.140148 0
1024 1 0.556218 0.157365 0
1055 1 0.581484 0.16345 0
1054 1 0.563698 0.181415 0
1026 1 0.5988 0.145761 0
1028 1 0.622403 0.152633 0
1057 1 0.604196 0.171153 0
1058 1 0.627921 0.177134 0
1030 1 0.663774 0.140467 0
1059 1 0.646001 0.158409 0
1061 1 0.670458 0.16391 0
1032 1 0.687768 0.14685 0
1063 1 0.712842 0.153637 0
1064 1 0.719452 0.177306 0
1062 1 0.694003 0.170784 0
1036 1 0.765337 0.138717 0
1065 1 0.73604 0.160113 0
1066 1 0.760521 0.164206 0
1067 1 0.783411 0.156707 0
1038 1 0.806774 0.14989 0
1068 1 0.801241 0.174487 0
1097 1 0.777747 0.180623 0
1069 1 0.825731 0.168117 0
1040 1 0.831114 0.14417 0
1041 1 0.856014 0.139574 0
1071 1 0.849733 0.162957 0
1042 1 0.874467 0.157758 0
1045 1 0.898118 0.152292 0
1044 1 0.890555 0.176469 0
1073 1 0.866557 0.181676 0
1047 1 0.921839 0.147677 0
1049 1 0.946321 0.141757 0
1046 1 0.913823 0.171014 0
1048 1 0.939163 0.165032 0
1050 1 0.971185 0.136582 0
1079 1 0.963282 0.160726 0
151 1 0.988164 0.154755 0
1080 1 0.979923 0.178619 0
1052 1 0.520622 0.193096 0
1082 1 0.52659 0.21729 0
1081 1 0.502597 0.210843 0
1083 1 0.544526 0.19912 0
1084 1 0.550292 0.22479 0
1056 1 0.586733 0.187671 0
1085 1 0.568485 0.205327 0
1086 1 0.592411 0.212719 0
1087 1 0.610572 0.194819 0
1088 1 0.61689 0.219055 0
1089 1 0.634855 0.201671 0
1060 1 0.651619 0.182209 0
1119 1 0.640692 0.225234 0
1091 1 0.675769 0.187945 0
1090 1 0.659512 0.206639 0
1092 1 0.683336 0.213549 0
1093 1 0.700552 0.195624 0
1094 1 0.724364 0.201462 0
1123 1 0.707976 0.219848 0
1095 1 0.744434 0.183518 0
1096 1 0.747798 0.207111 0
1127 1 0.771118 0.203849 0
1125 1 0.731963 0.22665 0
1099 1 0.796037 0.199398 0
1100 1 0.810987 0.217102 0
1098 1 0.786263 0.222579 0
1070 1 0.819469 0.192048 0
1072 1 0.842986 0.186871 0
1101 1 0.834679 0.210848 0
1103 1 0.859273 0.205837 0
1074 1 0.883654 0.200686 0
1105 1 0.901362 0.220064 0
1104 1 0.876685 0.225212 0
1075 1 0.907234 0.195211 0
1077 1 0.931664 0.189488 0
1076 1 0.924716 0.213834 0
1107 1 0.948718 0.207703 0
1078 1 0.955189 0.183602 0
1109 1 0.972106 0.201956 0
211 1 0.989712 0.220339 0
1110 1 0.965055 0.225818 0
181 1 0.996917 0.196993 0
1111 1 0.508875 0.235318 0
1113 1 0.532628 0.241603 0
1112 1 0.514712 0.259309 0
1143 1 0.539681 0.266333 0
1115 1 0.574198 0.230262 0
1114 1 0.556615 0.248745 0
1116 1 0.580884 0.254728 0
1145 1 0.562981 0.271427 0
1117 1 0.599447 0.237888 0
1118 1 0.623283 0.243294 0
1147 1 0.605824 0.261133 0
1149 1 0.630022 0.267013 0
1121 1 0.663987 0.231008 0
1120 1 0.64704 0.24915 0
1151 1 0.670852 0.255865 0
1122 1 0.688372 0.23728 0
1124 1 0.711209 0.244181 0
1153 1 0.694502 0.261541 0
1154 1 0.718055 0.268909 0
1126 1 0.762287 0.228111 0
1155 1 0.734506 0.251194 0
1157 1 0.757542 0.252436 0
1128 1 0.7815 0.247574 0
1129 1 0.804699 0.241478 0
1159 1 0.797506 0.265821 0
1158 1 0.774563 0.272637 0
1102 1 0.852832 0.230041 0
1131 1 0.828833 0.235673 0
1130 1 0.821302 0.262082 0
1132 1 0.844588 0.255273 0
1133 1 0.869889 0.248981 0
1135 1 0.893437 0.24421 0
1134 1 0.886737 0.268155 0
1108 1 0.941951 0.232039 0
1106 1 0.917195 0.237898 0