ITEM: TIMESTEP
62000
ITEM: NUMBER OF ATOMS
1800
ITEM: BOX BOUNDS pp pp pp
8.9363991409337018e-01 1.6410636008590527e+02
8.9363991409337018e-01 1.6410636008590527e+02
0.0000000000000000e+00 5.5000000000000000e+00
ITEM: ATOMS id type xs ys zs
2 1 0.0113468 0.0197246 0
3 1 0.035095 0.0134433 0
33 1 0.0288179 0.0368443 0
31 1 0.00305807 0.0423147 0
4 1 0.0532692 0.0298409 0
5 1 0.0590332 0.00511183 0
6 1 0.0780057 0.0238228 0
37 1 0.0958928 0.0419236 0
8 1 0.102318 0.0176496 0
9 1 0.1223 0.00156966 0
39 1 0.124853 0.0263491 0
10 1 0.144747 0.0120234 0
41 1 0.168192 0.0222182 0
40 1 0.148353 0.0363726 0
12 1 0.187847 0.00723935 0
43 1 0.191294 0.03186 0
14 1 0.211518 0.01664 0
44 1 0.213869 0.0416564 0
15 1 0.231421 0.00259559 0
45 1 0.23501 0.0271261 0
16 1 0.25505 0.0119548 0
46 1 0.257244 0.0368567 0
18 1 0.280077 0.0205685 0
49 1 0.304988 0.031191 0
20 1 0.315105 0.00780509 0
51 1 0.332763 0.0251705 0
22 1 0.357451 0.021109 0
21 1 0.341679 0.00222357 0
52 1 0.349763 0.0440317 0
24 1 0.382048 0.016293 0
55 1 0.398986 0.0370814 0
25 1 0.407014 0.0133077 0
53 1 0.374601 0.0409579 0
26 1 0.428011 0.0335326 0
27 1 0.448472 0.0200455 0
28 1 0.454113 0.0433394 0
898 1 0.465645 0.00120141 0
30 1 0.496663 0.0310981 0
29 1 0.472701 0.0248584 0
900 1 0.48979 0.00732819 0
32 1 0.0211433 0.0603658 0
62 1 0.0136226 0.0845345 0
63 1 0.0385734 0.0787395 0
34 1 0.0450735 0.0543674 0
35 1 0.0701508 0.0476339 0
36 1 0.0862341 0.0672455 0
65 1 0.0624697 0.0710857 0
66 1 0.0789753 0.0907159 0
38 1 0.109504 0.0619901 0
67 1 0.104406 0.0855898 0
68 1 0.129437 0.0767541 0
69 1 0.129913 0.0506331 0
71 1 0.151168 0.0629064 0
42 1 0.170759 0.0467896 0
72 1 0.174177 0.0725421 0
70 1 0.151458 0.0884146 0
73 1 0.194633 0.0563575 0
74 1 0.216518 0.0678563 0
103 1 0.195953 0.0830689 0
75 1 0.23634 0.0525193 0
77 1 0.259539 0.0616469 0
76 1 0.239386 0.0772176 0
107 1 0.262287 0.086836 0
47 1 0.280453 0.0467552 0
48 1 0.282645 0.0719891 0
79 1 0.305301 0.0816336 0
50 1 0.302724 0.0568578 0
81 1 0.324746 0.0475472 0
82 1 0.34028 0.0665341 0
80 1 0.328629 0.0905043 0
111 1 0.354396 0.085751 0
83 1 0.366377 0.064495 0
54 1 0.392653 0.0664201 0
113 1 0.378231 0.0872674 0
56 1 0.414059 0.054994 0
57 1 0.438218 0.0607354 0
85 1 0.420915 0.0775753 0
87 1 0.446264 0.0838901 0
59 1 0.479304 0.0475927 0
58 1 0.463247 0.0666126 0
89 1 0.487082 0.0723364 0
88 1 0.46998 0.0904254 0
92 1 0.0239752 0.126957 0
93 1 0.0314564 0.102611 0
91 1 0.00680604 0.107699 0
94 1 0.0481496 0.120721 0
64 1 0.0558424 0.0961047 0
95 1 0.0723662 0.114082 0
96 1 0.088757 0.132507 0
97 1 0.0957744 0.108383 0
98 1 0.114077 0.125007 0
99 1 0.129959 0.102939 0
100 1 0.154532 0.114064 0
101 1 0.1749 0.0985942 0
131 1 0.177554 0.124384 0
102 1 0.19779 0.108661 0
104 1 0.221082 0.11765 0
105 1 0.218804 0.0926067 0
133 1 0.201032 0.135016 0
106 1 0.241217 0.102036 0
135 1 0.24377 0.127912 0
137 1 0.263606 0.112131 0
78 1 0.284712 0.0963839 0
108 1 0.286771 0.121301 0
109 1 0.307884 0.106243 0
139 1 0.30973 0.130734 0
110 1 0.332076 0.114226 0
141 1 0.359782 0.109037 0
84 1 0.401762 0.0924852 0
112 1 0.385542 0.111224 0
143 1 0.371014 0.129689 0
114 1 0.394816 0.134661 0
115 1 0.410632 0.116604 0
86 1 0.428531 0.100783 0
116 1 0.435722 0.124443 0
117 1 0.453318 0.107664 0
118 1 0.459271 0.132009 0
90 1 0.494195 0.0966381 0
119 1 0.476873 0.114015 0
122 1 0.0175654 0.149975 0
153 1 0.0347127 0.167426 0
152 1 0.0092819 0.173315 0
123 1 0.0413811 0.144363 0
125 1 0.0652008 0.139221 0
124 1 0.0582874 0.162882 0
126 1 0.082143 0.156282 0
155 1 0.075123 0.180251 0
127 1 0.106797 0.149008 0
128 1 0.123392 0.167952 0
157 1 0.0993163 0.172743 0
129 1 0.131009 0.142576 0
159 1 0.146681 0.161353 0
130 1 0.156954 0.139036 0
161 1 0.166561 0.174374 0
132 1 0.179895 0.151561 0
134 1 0.224388 0.143253 0
163 1 0.205225 0.160119 0
164 1 0.228673 0.170928 0
136 1 0.266464 0.138587 0
165 1 0.247298 0.154196 0
166 1 0.251948 0.179563 0
167 1 0.270175 0.162843 0
138 1 0.289183 0.147401 0
169 1 0.312497 0.154799 0
168 1 0.293582 0.17152 0
170 1 0.317649 0.178855 0
140 1 0.332175 0.138767 0
142 1 0.355074 0.147635 0
171 1 0.336395 0.162703 0
172 1 0.360111 0.170827 0
144 1 0.400342 0.158902 0
173 1 0.3775 0.153005 0
174 1 0.383534 0.17637 0
145 1 0.417895 0.141858 0
146 1 0.42523 0.165849 0
147 1 0.441966 0.148697 0
177 1 0.448854 0.173624 0
149 1 0.483541 0.138186 0
148 1 0.465905 0.155765 0
150 1 0.489155 0.16153 0
179 1 0.472031 0.179263 0
183 1 0.0262936 0.190726 0
182 1 0.018807 0.215312 0
184 1 0.0429342 0.209158 0
181 1 0.0026573 0.196996 0
154 1 0.0509178 0.185602 0
185 1 0.0665388 0.20366 0
186 1 0.0833196 0.22189 0
156 1 0.0923463 0.198793 0
158 1 0.115574 0.191212 0
187 1 0.108668 0.217355 0
189 1 0.132123 0.208777 0
160 1 0.143435 0.186701 0
191 1 0.169866 0.198866 0
190 1 0.153433 0.218825 0
221 1 0.177362 0.224424 0
162 1 0.188713 0.182386 0
193 1 0.212145 0.189429 0
192 1 0.194269 0.20696 0
194 1 0.218365 0.21466 0
195 1 0.235233 0.197338 0
196 1 0.258668 0.205534 0
225 1 0.241536 0.222938 0
197 1 0.275849 0.188044 0
199 1 0.2997 0.195557 0
198 1 0.281991 0.212914 0
229 1 0.305598 0.220576 0
201 1 0.341327 0.186739 0
200 1 0.322857 0.20288 0
202 1 0.347101 0.210103 0
203 1 0.365738 0.194269 0
233 1 0.371735 0.21802 0
204 1 0.389487 0.199468 0
235 1 0.395352 0.224817 0
175 1 0.407165 0.183199 0
205 1 0.413282 0.207613 0
176 1 0.430116 0.189837 0
207 1 0.436562 0.214808 0
178 1 0.454218 0.197187 0
208 1 0.459822 0.221575 0
180 1 0.495565 0.18603 0
209 1 0.478822 0.203993 0
213 1 0.0341674 0.23346 0
212 1 0.0104129 0.239501 0
243 1 0.0277742 0.258142 0
241 1 0.00402551 0.263917 0
215 1 0.059345 0.228678 0
216 1 0.0763872 0.246113 0
214 1 0.0509368 0.252258 0
245 1 0.0676936 0.270033 0
217 1 0.0990527 0.239932 0
218 1 0.11759 0.254427 0
188 1 0.132759 0.234853 0
247 1 0.0930324 0.2661 0
219 1 0.14136 0.261114 0
220 1 0.159295 0.242615 0
251 1 0.164113 0.26881 0
222 1 0.182345 0.249361 0
223 1 0.200229 0.231858 0
224 1 0.223227 0.239707 0
253 1 0.205325 0.256939 0
255 1 0.228886 0.263882 0
227 1 0.264502 0.230254 0
226 1 0.247131 0.247093 0
257 1 0.270797 0.254968 0
256 1 0.252372 0.271757 0
228 1 0.288118 0.237667 0
230 1 0.31183 0.245519 0
259 1 0.293939 0.261794 0
260 1 0.317592 0.269942 0
231 1 0.32914 0.227589 0
232 1 0.353856 0.234078 0
261 1 0.33552 0.251912 0
263 1 0.360341 0.259312 0
234 1 0.377776 0.242134 0
265 1 0.401147 0.250425 0
264 1 0.382836 0.266745 0
206 1 0.418846 0.233046 0
236 1 0.424376 0.257118 0
237 1 0.442698 0.240122 0
238 1 0.449191 0.263531 0
210 1 0.484598 0.227958 0
239 1 0.467542 0.246194 0
240 1 0.490444 0.252897 0
269 1 0.471924 0.271237 0
242 1 0.0198327 0.28258 0
273 1 0.0359509 0.301153 0
271 1 0.0159305 0.317297 0
244 1 0.0449624 0.277846 0
246 1 0.0811922 0.288684 0
275 1 0.0606062 0.305541 0
276 1 0.0855328 0.313655 0
249 1 0.121718 0.278266 0
248 1 0.104348 0.295049 0
279 1 0.127196 0.30238 0
250 1 0.145925 0.28516 0
280 1 0.152674 0.309693 0
281 1 0.169979 0.292874 0
282 1 0.176307 0.317211 0
252 1 0.187842 0.27514 0
254 1 0.211422 0.282071 0
283 1 0.194083 0.299348 0
284 1 0.217699 0.30746 0
285 1 0.234586 0.289231 0
287 1 0.258488 0.296849 0
286 1 0.241647 0.313434 0
258 1 0.275932 0.279613 0
288 1 0.282178 0.304003 0
289 1 0.299172 0.285945 0
290 1 0.305769 0.31077 0
262 1 0.340885 0.276918 0
291 1 0.32379 0.293687 0
292 1 0.347323 0.300491 0
293 1 0.364471 0.283551 0
294 1 0.366397 0.317222 0
295 1 0.388291 0.290789 0
296 1 0.392865 0.313797 0
266 1 0.406303 0.274432 0
267 1 0.43057 0.281738 0
297 1 0.411843 0.298316 0
298 1 0.436027 0.306284 0
268 1 0.454172 0.287695 0
1141 1 0.496164 0.277301 0
270 1 0.477989 0.295067 0
299 1 0.460486 0.312282 0
301 1 0.0242517 0.342003 0
1230 1 0.00580165 0.361905 0
272 1 0.041831 0.324907 0
1200 1 0.00080475 0.337238 0
303 1 0.049322 0.34862 0
274 1 0.0663864 0.329711 0
304 1 0.0732055 0.355148 0
277 1 0.109535 0.319451 0
305 1 0.0910707 0.33689 0
307 1 0.114961 0.343765 0
306 1 0.0976962 0.360818 0
278 1 0.133826 0.326755 0
309 1 0.1401 0.350056 0
311 1 0.158112 0.333996 0
310 1 0.164173 0.358485 0
312 1 0.181889 0.341629 0
313 1 0.199491 0.324939 0
314 1 0.205881 0.348853 0
315 1 0.22379 0.331337 0
345 1 0.231183 0.35564 0
317 1 0.26556 0.321693 0
316 1 0.247328 0.337672 0
318 1 0.271352 0.345502 0
319 1 0.294108 0.333093 0
320 1 0.310025 0.35535 0
321 1 0.31799 0.33101 0
349 1 0.287274 0.363525 0
323 1 0.340739 0.324689 0
322 1 0.334187 0.349311 0
324 1 0.358501 0.342041 0
325 1 0.382556 0.335605 0
355 1 0.377331 0.358979 0
326 1 0.401446 0.351253 0
327 1 0.416178 0.322592 0
328 1 0.426038 0.344383 0
329 1 0.44992 0.335158 0
359 1 0.444098 0.360845 0
300 1 0.484656 0.318869 0
1201 1 0.490968 0.343229 0
330 1 0.468111 0.353607 0
302 1 0.0303278 0.366242 0
332 1 0.0384151 0.390609 0
331 1 0.0141201 0.384879 0
361 1 0.0210908 0.408308 0
333 1 0.0546642 0.372221 0
335 1 0.0791499 0.378164 0
334 1 0.0624403 0.396317 0
336 1 0.0870801 0.401192 0
308 1 0.122315 0.367256 0
337 1 0.104216 0.384146 0
338 1 0.127463 0.390939 0
367 1 0.110879 0.407897 0
339 1 0.146189 0.3748 0
341 1 0.171004 0.38277 0
340 1 0.153641 0.399735 0
343 1 0.187717 0.366126 0
342 1 0.193686 0.39233 0
344 1 0.213284 0.373262 0
375 1 0.218652 0.398753 0
347 1 0.255475 0.364683 0
346 1 0.236514 0.3797 0
377 1 0.256878 0.392329 0
348 1 0.280936 0.386846 0
350 1 0.305459 0.380198 0
379 1 0.297939 0.402993 0
353 1 0.353122 0.365676 0
351 1 0.329272 0.373446 0
381 1 0.322872 0.39687 0
352 1 0.347322 0.389782 0
383 1 0.365453 0.406676 0
354 1 0.371273 0.382615 0
385 1 0.389493 0.39924 0
356 1 0.396094 0.375318 0
357 1 0.420093 0.368312 0
358 1 0.438282 0.385286 0
387 1 0.414668 0.39192 0
389 1 0.455824 0.402075 0
1231 1 0.487571 0.370003 0
360 1 0.46266 0.377615 0
1232 1 0.479667 0.394866 0
362 1 0.0293437 0.432285 0
392 1 0.0116856 0.449984 0
391 1 0.0041928 0.426734 0
363 1 0.045629 0.414434 0
364 1 0.0527757 0.438006 0
365 1 0.0698848 0.419332 0
395 1 0.076674 0.443144 0
366 1 0.094029 0.42512 0
397 1 0.10185 0.448461 0
368 1 0.118554 0.430388 0
399 1 0.12755 0.452198 0
369 1 0.134478 0.41314 0
371 1 0.175175 0.411562 0
370 1 0.144999 0.434715 0
401 1 0.17045 0.436883 0
372 1 0.1949 0.44246 0
373 1 0.200059 0.417672 0
403 1 0.219666 0.449153 0
374 1 0.224141 0.424964 0
376 1 0.249221 0.416296 0
405 1 0.242991 0.440978 0
407 1 0.26727 0.434225 0
378 1 0.274167 0.41073 0
409 1 0.29202 0.427493 0
410 1 0.309841 0.444889 0
408 1 0.285592 0.451733 0
380 1 0.315772 0.420768 0
382 1 0.341366 0.41438 0
411 1 0.335072 0.437688 0
413 1 0.358866 0.431049 0
384 1 0.382637 0.423315 0
414 1 0.376963 0.447727 0
415 1 0.401322 0.440043 0
386 1 0.407284 0.416015 0
388 1 0.432135 0.409425 0
417 1 0.425013 0.43408 0
418 1 0.443478 0.450305 0
419 1 0.449038 0.425954 0
1261 1 0.474493 0.419551 0
390 1 0.467072 0.443757 0
1291 1 0.490917 0.437492 0
1262 1 0.497949 0.413532 0
393 1 0.0353256 0.456336 0
422 1 0.0194314 0.473719 0
451 1 0.002555 0.492081 0
453 1 0.0274459 0.497919 0
423 1 0.0436699 0.479759 0
394 1 0.0604104 0.461403 0
396 1 0.0848406 0.466749 0
425 1 0.0682883 0.484834 0
398 1 0.111057 0.470512 0
427 1 0.092755 0.489738 0
428 1 0.118521 0.493394 0
429 1 0.136291 0.475469 0
400 1 0.152662 0.456994 0
431 1 0.160966 0.480401 0
402 1 0.177863 0.46228 0
430 1 0.143633 0.498566 0
432 1 0.184384 0.485747 0
433 1 0.201435 0.466623 0
434 1 0.208574 0.49302 0
406 1 0.262137 0.459097 0
404 1 0.237722 0.466113 0
436 1 0.256384 0.483408 0
435 1 0.232892 0.48984 0
437 1 0.28047 0.476836 0
438 1 0.297826 0.492856 0
439 1 0.303755 0.468608 0
412 1 0.35215 0.454928 0
440 1 0.32202 0.485486 0
441 1 0.328417 0.461863 0
442 1 0.346404 0.479177 0
443 1 0.370451 0.47234 0
445 1 0.394807 0.465511 0
444 1 0.387173 0.489562 0
473 1 0.364007 0.496428 0
416 1 0.418937 0.456825 0
446 1 0.412268 0.482562 0
447 1 0.436664 0.475202 0
448 1 0.430025 0.499342 0
449 1 0.454972 0.491778 0
420 1 0.460644 0.467946 0
1321 1 0.484692 0.461547 0
450 1 0.478574 0.484998 0
452 1 0.0115344 0.515936 0
483 1 0.0199582 0.540542 0
454 1 0.0349264 0.521721 0
485 1 0.0439622 0.545283 0
455 1 0.0598725 0.526316 0
456 1 0.0837397 0.532334 0
426 1 0.0769296 0.507824 0
424 1 0.0521111 0.503644 0
458 1 0.107966 0.53455 0
459 1 0.126225 0.516688 0
457 1 0.101609 0.512091 0
489 1 0.133115 0.540098 0
460 1 0.150564 0.522444 0
462 1 0.175222 0.529286 0
461 1 0.16898 0.504318 0
463 1 0.19407 0.513055 0
493 1 0.198406 0.537231 0
495 1 0.221944 0.541077 0
464 1 0.227524 0.515809 0
466 1 0.245895 0.533263 0
497 1 0.268836 0.525567 0
465 1 0.250355 0.507476 0
468 1 0.29328 0.517808 0
499 1 0.31163 0.535213 0
498 1 0.28789 0.542252 0
469 1 0.316439 0.510209 0
467 1 0.274535 0.501127 0
470 1 0.335113 0.528372 0
472 1 0.358818 0.521503 0
471 1 0.340286 0.504073 0
503 1 0.377071 0.537801 0
474 1 0.382561 0.514703 0
475 1 0.406415 0.506607 0
476 1 0.40114 0.5303 0
477 1 0.425071 0.523836 0
478 1 0.448896 0.51629 0
507 1 0.442465 0.540243 0
480 1 0.465609 0.533112 0
479 1 0.47286 0.508847 0
1381 1 0.491323 0.526909 0
1351 1 0.497165 0.501881 0
482 1 0.00286437 0.557913 0
513 1 0.0269302 0.563515 0
541 1 0.0090086 0.581456 0
512 1 0.0327379 0.587323 0
486 1 0.0678586 0.551033 0
484 1 0.0517788 0.570312 0
515 1 0.0754234 0.575437 0
487 1 0.0917641 0.554995 0
488 1 0.115903 0.556809 0
519 1 0.121266 0.579213 0
517 1 0.0984443 0.587353 0
491 1 0.156768 0.545932 0
490 1 0.139066 0.563176 0
521 1 0.162479 0.570563 0
520 1 0.143744 0.587897 0
492 1 0.18198 0.555087 0
523 1 0.187361 0.580228 0
494 1 0.206387 0.561063 0
525 1 0.233344 0.580992 0
496 1 0.239601 0.557673 0
526 1 0.256915 0.574563 0
527 1 0.263782 0.550279 0
529 1 0.306043 0.559897 0
528 1 0.282463 0.567625 0
559 1 0.300986 0.584702 0
501 1 0.353377 0.545299 0
530 1 0.324148 0.577253 0
500 1 0.329336 0.552428 0
531 1 0.346862 0.569456 0
502 1 0.371616 0.562213 0
505 1 0.394628 0.555158 0
504 1 0.389253 0.579213 0
533 1 0.364874 0.586831 0
506 1 0.418603 0.54741 0
535 1 0.413279 0.571723 0
508 1 0.436759 0.563511 0
537 1 0.4307 0.588363 0
539 1 0.454388 0.581495 0
509 1 0.461261 0.557588 0
510 1 0.484112 0.549818 0
540 1 0.478985 0.575508 0
542 1 0.0130033 0.604957 0
571 1 0.00587321 0.629016 0
543 1 0.0366902 0.611455 0
544 1 0.0393652 0.636191 0
514 1 0.0565086 0.594794 0
516 1 0.0795297 0.603794 0
545 1 0.0590698 0.619314 0
546 1 0.0813902 0.629575 0
518 1 0.122778 0.602594 0
547 1 0.102258 0.615237 0
548 1 0.124708 0.627188 0
522 1 0.16571 0.596787 0
549 1 0.144828 0.612245 0
551 1 0.168002 0.622473 0
550 1 0.147494 0.635935 0
524 1 0.209776 0.591244 0
553 1 0.188607 0.605958 0
552 1 0.190245 0.632386 0
554 1 0.210187 0.617891 0
555 1 0.229894 0.604454 0
556 1 0.245607 0.623468 0
557 1 0.253341 0.598716 0
587 1 0.270024 0.616912 0
558 1 0.276144 0.590806 0
560 1 0.293862 0.609213 0
591 1 0.312018 0.626793 0
589 1 0.289029 0.634788 0
561 1 0.318532 0.601949 0
532 1 0.341491 0.59501 0
562 1 0.336163 0.619611 0
563 1 0.36003 0.611753 0
534 1 0.384367 0.605277 0
565 1 0.377777 0.62876 0
566 1 0.403079 0.621474 0
536 1 0.407676 0.59653 0
567 1 0.425739 0.61331 0
538 1 0.447765 0.605968 0
597 1 0.442997 0.631468 0
1441 1 0.495834 0.592443 0
568 1 0.466107 0.623787 0
569 1 0.471609 0.599095 0
570 1 0.490004 0.616703 0
573 1 0.0197206 0.650148 0
603 1 0.0199876 0.676324 0
574 1 0.0409469 0.660571 0
575 1 0.0616627 0.645252 0
605 1 0.0636544 0.669947 0
576 1 0.0850044 0.655293 0
607 1 0.0872886 0.680038 0
577 1 0.104021 0.639994 0
578 1 0.107755 0.665044 0
579 1 0.128521 0.651607 0
609 1 0.129521 0.675764 0
581 1 0.169122 0.647165 0
580 1 0.149688 0.662394 0
611 1 0.172059 0.671865 0
583 1 0.213714 0.642468 0
582 1 0.192595 0.656676 0
584 1 0.214269 0.666425 0
585 1 0.239472 0.64831 0
586 1 0.264529 0.640862 0
615 1 0.236995 0.674015 0
617 1 0.259204 0.664446 0
588 1 0.282825 0.658986 0
590 1 0.306701 0.652599 0
619 1 0.300414 0.676503 0
564 1 0.353624 0.63686 0
593 1 0.330004 0.64471 0
621 1 0.324624 0.668896 0
592 1 0.347684 0.661539 0
594 1 0.371922 0.654974 0
595 1 0.395069 0.646235 0
625 1 0.389845 0.671016 0
623 1 0.366321 0.679021 0
627 1 0.412726 0.663152 0
596 1 0.419422 0.63912 0
598 1 0.436769 0.656539 0
628 1 0.453961 0.673893 0
657 1 0.429724 0.680466 0
599 1 0.460523 0.649322 0
600 1 0.484034 0.641334 0
629 1 0.478075 0.666566 0
602 1 0.00225889 0.693023 0
633 1 0.0249731 0.700979 0
634 1 0.027787 0.72537 0
604 1 0.0443164 0.685236 0
606 1 0.0673707 0.694747 0
635 1 0.0476745 0.710465 0
636 1 0.0714154 0.720183 0
637 1 0.0902189 0.7049 0
608 1 0.110013 0.690942 0
638 1 0.112769 0.714881 0
639 1 0.132902 0.700623 0
640 1 0.136113 0.725896 0
610 1 0.152146 0.68673 0
641 1 0.156357 0.711699 0
612 1 0.175652 0.697286 0
642 1 0.180099 0.721796 0
613 1 0.194412 0.682397 0
614 1 0.218472 0.69054 0
643 1 0.198998 0.706949 0
645 1 0.222024 0.715325 0
616 1 0.25387 0.690014 0
646 1 0.24707 0.713409 0
647 1 0.270676 0.706688 0
618 1 0.276949 0.68255 0
649 1 0.294231 0.701029 0
650 1 0.312208 0.717724 0
648 1 0.288672 0.724616 0
620 1 0.318738 0.693216 0
622 1 0.341828 0.685482 0
651 1 0.336256 0.71068 0
653 1 0.360526 0.704074 0
624 1 0.383465 0.697103 0
655 1 0.402198 0.713691 0
654 1 0.378268 0.722156 0
626 1 0.407456 0.688882 0
656 1 0.425911 0.705513 0
658 1 0.44955 0.698892 0
687 1 0.444685 0.724462 0
630 1 0.496813 0.68361 0
659 1 0.472602 0.690497 0
660 1 0.491152 0.707704 0
689 1 0.467735 0.716019 0
662 1 0.0104419 0.76513 0
663 1 0.00830117 0.739588 0
664 1 0.030406 0.750847 0
665 1 0.0503409 0.735234 0
666 1 0.0728672 0.745045 0
695 1 0.0536358 0.760032 0
697 1 0.075873 0.770325 0
667 1 0.0931845 0.730083 0
669 1 0.114906 0.740123 0
668 1 0.0955864 0.754944 0
699 1 0.118449 0.764441 0
671 1 0.159634 0.735977 0
670 1 0.138072 0.750235 0
672 1 0.161404 0.760995 0
673 1 0.183112 0.746853 0
644 1 0.20264 0.731807 0
674 1 0.20782 0.755442 0
703 1 0.183318 0.771001 0
675 1 0.239314 0.736806 0
705 1 0.232227 0.761854 0
677 1 0.26436 0.730746 0
676 1 0.256751 0.755116 0
679 1 0.30704 0.741488 0
678 1 0.282388 0.748594 0
709 1 0.300043 0.766754 0
707 1 0.276032 0.772213 0
652 1 0.354617 0.728866 0
680 1 0.323675 0.75943 0
681 1 0.330675 0.734394 0
682 1 0.347988 0.753009 0
683 1 0.37249 0.745877 0
684 1 0.389445 0.763436 0
685 1 0.396089 0.738498 0
713 1 0.365302 0.770728 0
715 1 0.413791 0.756007 0
686 1 0.421075 0.73117 0
717 1 0.437918 0.749527 0
718 1 0.45572 0.767078 0
688 1 0.462029 0.741269 0
690 1 0.486213 0.733197 0
719 1 0.479436 0.759698 0
694 1 0.0333634 0.775115 0
693 1 0.0151741 0.789598 0
692 1 0.0139541 0.813894 0
723 1 0.0368736 0.80083 0
696 1 0.0557939 0.785545 0
725 1 0.0591587 0.810091 0
727 1 0.079134 0.794771 0
698 1 0.0985782 0.77971 0
728 1 0.101114 0.804568 0
700 1 0.121328 0.789941 0
729 1 0.12395 0.814231 0
701 1 0.141293 0.774447 0
731 1 0.143948 0.800108 0
732 1 0.166502 0.809305 0
702 1 0.163787 0.785376 0
704 1 0.206744 0.779426 0
733 1 0.186741 0.794664 0
734 1 0.209788 0.803957 0
735 1 0.229546 0.786995 0
706 1 0.252 0.779083 0
736 1 0.247018 0.803073 0
737 1 0.270321 0.795934 0
708 1 0.294038 0.790992 0
739 1 0.31203 0.808296 0
738 1 0.287915 0.814276 0
710 1 0.317952 0.783169 0
711 1 0.342018 0.776846 0
741 1 0.336439 0.801631 0
712 1 0.361313 0.794842 0
743 1 0.384473 0.788433 0
745 1 0.403295 0.805022 0
744 1 0.379582 0.813675 0
714 1 0.408212 0.780908 0
716 1 0.431709 0.773881 0
747 1 0.451663 0.791162 0
746 1 0.427351 0.798972 0
748 1 0.445916 0.815876 0
720 1 0.484324 0.785566 0
749 1 0.470073 0.806812 0
1621 1 0.494286 0.809986 0
722 1 0.0382482 0.824727 0
751 1 0.0181196 0.837873 0
753 1 0.0402011 0.849084 0
726 1 0.0807219 0.819346 0
724 1 0.0602543 0.834994 0
755 1 0.0844619 0.843958 0
754 1 0.062264 0.859347 0
756 1 0.107017 0.853779 0
757 1 0.103549 0.828916 0
759 1 0.126805 0.838627 0
758 1 0.129492 0.863157 0
730 1 0.14704 0.823467 0
760 1 0.15006 0.848244 0
761 1 0.170189 0.83385 0
791 1 0.172304 0.858722 0
763 1 0.189968 0.818655 0
762 1 0.194713 0.842941 0
764 1 0.214197 0.828286 0
795 1 0.229659 0.849849 0
767 1 0.26441 0.820417 0
765 1 0.2388 0.826135 0
766 1 0.255577 0.844087 0
797 1 0.273138 0.862551 0
768 1 0.281325 0.839111 0
769 1 0.305871 0.832204 0
799 1 0.298554 0.856144 0
742 1 0.354453 0.819748 0
770 1 0.322451 0.850836 0
740 1 0.33033 0.825391 0
771 1 0.347442 0.84427 0
772 1 0.365399 0.862929 0
773 1 0.37184 0.837578 0
774 1 0.397425 0.831312 0
803 1 0.389799 0.855285 0
776 1 0.414678 0.849109 0
775 1 0.421144 0.823215 0
777 1 0.438349 0.840285 0
750 1 0.478651 0.829602 0
779 1 0.462233 0.847071 0
780 1 0.486793 0.853788 0
752 1 0.0186412 0.863838 0
783 1 0.0420378 0.874044 0
782 1 0.0195634 0.888884 0
813 1 0.043502 0.899685 0
785 1 0.0859918 0.868047 0
784 1 0.0648791 0.883872 0
786 1 0.088051 0.893049 0
815 1 0.0662014 0.908544 0
787 1 0.108775 0.879296 0
788 1 0.13157 0.887665 0
817 1 0.112199 0.903167 0
789 1 0.151647 0.872929 0
790 1 0.154361 0.897708 0
792 1 0.174764 0.882915 0
821 1 0.17803 0.907863 0
793 1 0.196633 0.867841 0
823 1 0.19776 0.893031 0
794 1 0.220026 0.876218 0
824 1 0.22055 0.902348 0
796 1 0.248437 0.867009 0
825 1 0.241688 0.889943 0
827 1 0.265658 0.886445 0
798 1 0.290777 0.880195 0
800 1 0.315087 0.874446 0
829 1 0.307744 0.898229 0
828 1 0.283556 0.903325 0
801 1 0.340264 0.867983 0
831 1 0.332571 0.892555 0
802 1 0.357585 0.886715 0
804 1 0.38251 0.881304 0
805 1 0.407003 0.873868 0
806 1 0.407233 0.90064 0
833 1 0.375004 0.904798 0
778 1 0.445265 0.864904 0
807 1 0.429202 0.883715 0
837 1 0.435529 0.90702 0
808 1 0.452926 0.888576 0
809 1 0.469926 0.871352 0
1681 1 0.494501 0.87724 0
810 1 0.477353 0.894915 0
812 1 0.0209668 0.914041 0
843 1 0.0276919 0.938595 0
842 1 0.00780852 0.951621 0
814 1 0.0460101 0.923149 0
844 1 0.0512727 0.94716 0
845 1 0.0707941 0.931819 0
816 1 0.0905079 0.916753 0
847 1 0.0935036 0.940922 0
819 1 0.134748 0.912652 0
818 1 0.113801 0.927423 0
848 1 0.117064 0.952213 0
849 1 0.137105 0.937449 0
820 1 0.157326 0.923085 0
850 1 0.160412 0.948108 0
851 1 0.180303 0.932002 0
822 1 0.20065 0.917933 0
853 1 0.203532 0.941655 0
855 1 0.224714 0.926905 0
854 1 0.226234 0.951646 0
826 1 0.257113 0.908895 0
856 1 0.247707 0.935214 0
887 1 0.268457 0.951135 0
857 1 0.275256 0.926804 0
858 1 0.29217 0.946433 0
859 1 0.299731 0.922777 0
860 1 0.315956 0.941054 0
832 1 0.350116 0.910716 0
830 1 0.324343 0.91609 0
861 1 0.34012 0.934627 0
862 1 0.356122 0.952996 0
863 1 0.365541 0.929272 0
834 1 0.392239 0.921903 0
865 1 0.40332 0.944806 0
864 1 0.379902 0.948278 0
835 1 0.418476 0.924677 0
838 1 0.44318 0.931195 0
836 1 0.426978 0.949543 0
839 1 0.460117 0.913024 0
1741 1 0.491293 0.94176 0
840 1 0.48415 0.918399 0
869 1 0.467248 0.936852 0
872 1 0.0178226 0.996131 0
873 1 0.0297409 0.965613 0
874 1 0.0402005 0.989092 0
871 1 0.00318718 0.975991 0
846 1 0.0752536 0.956874 0
875 1 0.0562019 0.971508 0
876 1 0.0773923 0.984316 0
7 1 0.0992781 0.992608 0
877 1 0.0964856 0.967545 0
878 1 0.119939 0.977024 0
879 1 0.14032 0.962971 0
880 1 0.142795 0.98736 0
881 1 0.16374 0.972881 0
11 1 0.165608 0.997547 0
852 1 0.183829 0.956718 0
882 1 0.185867 0.982733 0
883 1 0.206112 0.966451 0
13 1 0.208373 0.992054 0
884 1 0.227392 0.97766 0
885 1 0.247712 0.96361 0
886 1 0.25051 0.987803 0
17 1 0.275553 0.995308 0
888 1 0.283008 0.970702 0
889 1 0.307893 0.965064 0
19 1 0.300431 0.988589 0
890 1 0.324208 0.984226 0
891 1 0.332183 0.958759 0
892 1 0.349554 0.977988 0
893 1 0.37347 0.973171 0
895 1 0.397479 0.969145 0
894 1 0.390268 0.993926 0
23 1 0.366111 0.997344 0
867 1 0.450693 0.954931 0
897 1 0.439937 0.996598 0
866 1 0.433871 0.972721 0
896 1 0.415693 0.989661 0
1771 1 0.498805 0.965791 0
870 1 0.475227 0.959874 0
868 1 0.458929 0.978143 0
899 1 0.482613 0.983593 0
902 1 0.538111 0.0191512 0
931 1 0.521157 0.0371346 0
901 1 0.513808 0.012917 0
933 1 0.545565 0.0433089 0
904 1 0.562175 0.026234 0
935 1 0.587606 0.0329135 0
906 1 0.579994 0.00927325 0
905 1 0.555639 0.00221499 0
908 1 0.604553 0.0153915 0
937 1 0.612177 0.0387122 0
939 1 0.629411 0.0208115 0
938 1 0.636236 0.0453078 0
941 1 0.652818 0.0269898 0
912 1 0.671038 0.00938192 0
942 1 0.677827 0.0328845 0
910 1 0.646468 0.0027398 0
943 1 0.69572 0.0146651 0
944 1 0.702026 0.040186 0
945 1 0.718418 0.0221164 0
975 1 0.725718 0.044843 0
947 1 0.742929 0.0230171 0
918 1 0.766229 0.0121848 0
948 1 0.771887 0.036242 0
919 1 0.790885 0.00613982 0
949 1 0.796602 0.0403797 0
920 1 0.831969 0.0168638 0
951 1 0.847877 0.0353249 0
922 1 0.855662 0.0109442 0
950 1 0.823071 0.0396678 0
953 1 0.872123 0.0301041 0
924 1 0.879542 0.00606378 0
955 1 0.895868 0.0239507 0
925 1 0.904369 0.000230286 0
956 1 0.91345 0.0424156 0
926 1 0.920648 0.0183001 0
928 1 0.94538 0.0132813 0
957 1 0.937685 0.037055 0
930 1 0.985809 0.0253744 0
959 1 0.961891 0.0307052 0
929 1 0.969363 0.00728188 0
1 1 0.993137 0.00199139 0
932 1 0.528145 0.0604425 0
962 1 0.535835 0.0850218 0
961 1 0.511528 0.0782349 0
60 1 0.503744 0.0546676 0
963 1 0.552478 0.0676354 0
934 1 0.569849 0.0494352 0
965 1 0.576686 0.0733138 0
936 1 0.594462 0.0562498 0
966 1 0.601041 0.0800057 0
967 1 0.619154 0.0633192 0
968 1 0.625523 0.0873341 0
940 1 0.66029 0.0515177 0
969 1 0.643698 0.0697999 0
970 1 0.666469 0.0762191 0
971 1 0.684802 0.0574942 0
972 1 0.691317 0.0814295 0
973 1 0.708839 0.063911 0
1003 1 0.717871 0.0866815 0
946 1 0.750777 0.0478759 0
974 1 0.735081 0.0678654 0
976 1 0.761759 0.07042 0
1005 1 0.744514 0.0910891 0
1007 1 0.778706 0.0882356 0
977 1 0.785301 0.0632669 0
979 1 0.811421 0.0605632 0
978 1 0.802486 0.0832983 0
980 1 0.827572 0.0806232 0
981 1 0.839255 0.0588963 0
952 1 0.863863 0.0531775 0
954 1 0.888632 0.0480702 0
982 1 0.880346 0.0710318 0
983 1 0.904925 0.0664798 0
984 1 0.89771 0.0894711 0
985 1 0.922781 0.0838463 0
987 1 0.930442 0.0604393 0
988 1 0.947534 0.078521 0
958 1 0.954943 0.0550045 0
960 1 0.979358 0.0489702 0
989 1 0.972089 0.0728238 0
61 1 0.997095 0.0665788 0
990 1 0.989283 0.0903921 0
991 1 0.518367 0.102117 0
992 1 0.525293 0.127412 0
993 1 0.54256 0.108298 0
120 1 0.501246 0.120685 0
964 1 0.559522 0.0911129 0
994 1 0.566013 0.115312 0
995 1 0.583824 0.0976035 0
1023 1 0.548849 0.132875 0
996 1 0.590598 0.12193 0
997 1 0.608219 0.104835 0
998 1 0.63206 0.111972 0
1027 1 0.614157 0.128699 0
999 1 0.649507 0.0942133 0
1029 1 0.638376 0.135274 0
1000 1 0.656065 0.11752 0
1001 1 0.673803 0.100176 0
1031 1 0.682032 0.124078 0
1002 1 0.698872 0.104648 0
1004 1 0.723411 0.111309 0
1033 1 0.70643 0.13037 0
1006 1 0.772066 0.112492 0
1035 1 0.74775 0.116442 0
1036 1 0.761585 0.135843 0
1034 1 0.732331 0.135991 0
1037 1 0.787748 0.131684 0
1008 1 0.797085 0.107879 0
1039 1 0.813692 0.127209 0
1009 1 0.82048 0.103867 0
1011 1 0.846369 0.099405 0
1010 1 0.838772 0.123023 0
1012 1 0.86382 0.118095 0
1013 1 0.872352 0.0940675 0
1014 1 0.890446 0.11324 0
1016 1 0.907755 0.13022 0
1043 1 0.880206 0.136128 0
1015 1 0.915014 0.107296 0
986 1 0.939107 0.10203 0
1017 1 0.931561 0.125301 0
121 1 0.999345 0.132014 0
1018 1 0.956767 0.1202 0
1019 1 0.963231 0.0965135 0
1020 1 0.982218 0.113506 0
1022 1 0.530643 0.150806 0
1053 1 0.537429 0.17538 0
1051 1 0.513144 0.1686 0
1021 1 0.507693 0.144575 0
1025 1 0.572743 0.139826 0
1024 1 0.555095 0.157385 0
1055 1 0.579206 0.163467 0
1054 1 0.561403 0.180643 0
1026 1 0.596438 0.146102 0
1028 1 0.620072 0.152735 0
1057 1 0.602623 0.170603 0
1058 1 0.626714 0.176677 0
1030 1 0.662967 0.141132 0
1059 1 0.645024 0.158449 0
1061 1 0.669659 0.165534 0
1032 1 0.687775 0.148382 0
1063 1 0.713487 0.154037 0
1064 1 0.718357 0.177882 0
1062 1 0.693487 0.171935 0
1065 1 0.749072 0.157623 0
1066 1 0.766545 0.173914 0
1067 1 0.778054 0.153654 0
1038 1 0.803302 0.150554 0
1069 1 0.817926 0.170069 0
1068 1 0.792585 0.175034 0
1040 1 0.828774 0.147359 0
1041 1 0.856067 0.141137 0
1071 1 0.848943 0.165005 0
1042 1 0.874307 0.159896 0
1045 1 0.898839 0.154417 0
1044 1 0.895212 0.178103 0
1047 1 0.92463 0.148939 0
1049 1 0.950263 0.143383 0
1046 1 0.918969 0.172227 0
1048 1 0.942588 0.166544 0
1050 1 0.974338 0.137835 0
1079 1 0.967191 0.16106 0
151 1 0.991556 0.155735 0
1080 1 0.985154 0.17987 0
1052 1 0.519389 0.192189 0
1082 1 0.525635 0.217343 0
1081 1 0.502252 0.211113 0
1083 1 0.543717 0.199733 0
1084 1 0.549875 0.22373 0
1056 1 0.584453 0.18851 0
1085 1 0.567202 0.205937 0
1086 1 0.591586 0.212216 0
1087 1 0.60978 0.194348 0
1088 1 0.615596 0.218602 0
1089 1 0.633899 0.200284 0
1060 1 0.651529 0.183203 0
1119 1 0.639386 0.225038 0
1091 1 0.675206 0.189282 0
1090 1 0.656538 0.206698 0
1092 1 0.680228 0.213212 0
1093 1 0.700554 0.19628 0
1094 1 0.724872 0.200836 0
1123 1 0.703542 0.220001 0
1125 1 0.726439 0.225537 0
1095 1 0.742688 0.182105 0
1096 1 0.750164 0.205796 0
1127 1 0.77137 0.221904 0
1097 1 0.775638 0.196796 0
1099 1 0.800094 0.198377 0
1098 1 0.794906 0.222761 0
1100 1 0.817848 0.21854 0
1072 1 0.847497 0.189412 0
1070 1 0.823444 0.19366 0
1101 1 0.841234 0.213174 0
1103 1 0.864384 0.207655 0
1073 1 0.870976 0.183959 0
1074 1 0.88811 0.201865 0
1105 1 0.905897 0.220062 0
1104 1 0.880781 0.225472 0
1075 1 0.912429 0.196618 0
1077 1 0.936698 0.190218 0
1076 1 0.929483 0.21433 0
1107 1 0.953441 0.209039 0
1078 1 0.960773 0.184978 0
1109 1 0.977412 0.20308 0
211 1 0.994437 0.220951 0
1110 1 0.96985 0.227309 0
1111 1 0.508197 0.235046 0
1113 1 0.533142 0.240855 0
1112 1 0.514583 0.258576 0
1143 1 0.538273 0.265708 0
1115 1 0.573428 0.230966 0
1114 1 0.555775 0.248554 0
1116 1 0.579657 0.254765 0
1145 1 0.562357 0.272634 0
1117 1 0.597726 0.237303 0
1118 1 0.621639 0.242356 0
1147 1 0.604666 0.261002 0
1149 1 0.628253 0.26741 0
1121 1 0.662681 0.2311 0
1120 1 0.645988 0.249235 0
1151 1 0.669407 0.255234 0
1122 1 0.685646 0.237011 0
1124 1 0.709589 0.243493 0
1153 1 0.693263 0.261371 0
1154 1 0.717569 0.267031 0
1126 1 0.750007 0.231041 0
1155 1 0.733179 0.249167 0
1157 1 0.757839 0.253836 0
1128 1 0.783045 0.245642 0
1129 1 0.808922 0.242664 0
1159 1 0.800307 0.26507 0
1158 1 0.776303 0.269987 0
1102 1 0.857729 0.231364 0
1131 1 0.833685 0.237701 0
1130 1 0.825555 0.261104 0
1132 1 0.849804 0.256289 0
1133 1 0.872725 0.250054 0
1135 1 0.897192 0.244636 0
1134 1 0.888492 0.268413 0
1108 1 0.945209 0.232668 0