ITEM: TIMESTEP
92000
ITEM: NUMBER OF ATOMS
1800
ITEM: BOX BOUNDS pp pp pp
8.0839648868561653e-01 1.6419160351131580e+02
8.0839648868561653e-01 1.6419160351131580e+02
0.0000000000000000e+00 5.5000000000000000e+00
ITEM: ATOMS id type xs ys zs
2 1 0.0152758 0.0200862 0
3 1 0.0395624 0.0153695 0
33 1 0.03157 0.038872 0
31 1 0.00643193 0.0436868 0
4 1 0.0557959 0.0344514 0
5 1 0.0666052 0.00984817 0
6 1 0.0801536 0.0313645 0
8 1 0.101712 0.0199176 0
9 1 0.121442 0.00432501 0
39 1 0.125144 0.0283316 0
10 1 0.14525 0.0138491 0
41 1 0.169165 0.0240833 0
40 1 0.148221 0.0386952 0
12 1 0.188329 0.00944835 0
43 1 0.191169 0.0354886 0
14 1 0.210981 0.0201434 0
15 1 0.232104 0.0048804 0
45 1 0.234297 0.029308 0
16 1 0.255386 0.0131162 0
46 1 0.257075 0.0373798 0
18 1 0.278862 0.0217621 0
49 1 0.302198 0.031052 0
20 1 0.313801 0.00902032 0
51 1 0.328032 0.0297227 0
22 1 0.35298 0.0253111 0
21 1 0.338663 0.00581678 0
23 1 0.362397 0.00285686 0
24 1 0.378856 0.0209316 0
25 1 0.403001 0.0207439 0
53 1 0.369595 0.0433626 0
55 1 0.393622 0.0460156 0
26 1 0.434494 0.0369316 0
27 1 0.426767 0.0143062 0
898 1 0.451677 0.0181534 0
28 1 0.458296 0.0420128 0
29 1 0.475998 0.0254899 0
900 1 0.493322 0.00895802 0
30 1 0.500491 0.0329509 0
32 1 0.0230038 0.0620242 0
63 1 0.0402205 0.0806242 0
62 1 0.0154454 0.0846513 0
34 1 0.0478106 0.0570898 0
35 1 0.0739065 0.0544765 0
65 1 0.0648563 0.0776323 0
36 1 0.0897129 0.0739158 0
37 1 0.101743 0.0485313 0
38 1 0.113606 0.0710195 0
69 1 0.128738 0.0526876 0
68 1 0.12932 0.090886 0
71 1 0.15003 0.0649574 0
42 1 0.170045 0.0503368 0
72 1 0.172438 0.0765468 0
70 1 0.153451 0.0911998 0
44 1 0.212987 0.0443678 0
73 1 0.192168 0.0606796 0
74 1 0.216351 0.0695399 0
103 1 0.195719 0.0844466 0
75 1 0.236449 0.0533655 0
77 1 0.260168 0.0621527 0
76 1 0.239703 0.0787678 0
107 1 0.262853 0.0863599 0
47 1 0.280758 0.0468494 0
48 1 0.282984 0.0705184 0
79 1 0.30625 0.0804193 0
50 1 0.304204 0.0560453 0
52 1 0.345909 0.0483418 0
81 1 0.327699 0.0642996 0
82 1 0.351074 0.0735661 0
80 1 0.329631 0.0890996 0
83 1 0.374706 0.0669271 0
54 1 0.398538 0.0707269 0
113 1 0.380423 0.0908987 0
57 1 0.441195 0.0603271 0
56 1 0.416719 0.053121 0
85 1 0.423551 0.0780087 0
87 1 0.448484 0.0838292 0
59 1 0.483211 0.0501651 0
58 1 0.46524 0.0670751 0
89 1 0.49065 0.0739965 0
92 1 0.0230225 0.128055 0
93 1 0.0304289 0.104838 0
91 1 0.00618971 0.108926 0
94 1 0.0474938 0.123694 0
66 1 0.0799208 0.0974141 0
64 1 0.0554504 0.100023 0
95 1 0.0724217 0.120773 0
67 1 0.105021 0.0940549 0
97 1 0.0974517 0.117412 0
99 1 0.121666 0.113422 0
129 1 0.136895 0.133351 0
100 1 0.155022 0.115957 0
101 1 0.175674 0.100907 0
131 1 0.178315 0.125886 0
102 1 0.198624 0.110073 0
104 1 0.22167 0.119599 0
105 1 0.218809 0.0942916 0
133 1 0.20219 0.134426 0
106 1 0.241604 0.10363 0
135 1 0.244997 0.127973 0
137 1 0.265457 0.11159 0
136 1 0.268816 0.13645 0
78 1 0.285738 0.0955621 0
108 1 0.28833 0.12008 0
109 1 0.308592 0.104873 0
139 1 0.311459 0.129029 0
110 1 0.33039 0.113742 0
111 1 0.353842 0.0980355 0
141 1 0.352777 0.121677 0
84 1 0.406923 0.0949635 0
112 1 0.390991 0.112908 0
143 1 0.37503 0.130116 0
115 1 0.414485 0.118632 0
86 1 0.43174 0.101541 0
116 1 0.438615 0.125474 0
117 1 0.455283 0.108508 0
88 1 0.47326 0.0913725 0
118 1 0.461956 0.133101 0
90 1 0.496153 0.0979644 0
119 1 0.478098 0.115595 0
123 1 0.0372385 0.147665 0
122 1 0.0118282 0.151755 0
153 1 0.0270288 0.170533 0
152 1 0.00276327 0.174994 0
125 1 0.0620922 0.143439 0
124 1 0.0525909 0.166646 0
126 1 0.0776874 0.162734 0
96 1 0.0868617 0.140386 0
98 1 0.111746 0.136902 0
127 1 0.102533 0.159454 0
128 1 0.119404 0.180171 0
159 1 0.127167 0.156988 0
157 1 0.0931068 0.182152 0
130 1 0.159707 0.143018 0
161 1 0.164287 0.168475 0
132 1 0.183684 0.151353 0
163 1 0.207219 0.160705 0
162 1 0.188076 0.178136 0
134 1 0.225653 0.14382 0
164 1 0.23007 0.168602 0
165 1 0.2491 0.152274 0
166 1 0.253332 0.177894 0
167 1 0.272611 0.160955 0
138 1 0.29183 0.144992 0
169 1 0.314706 0.153565 0
168 1 0.296426 0.169851 0
140 1 0.334703 0.137724 0
170 1 0.320729 0.177927 0
142 1 0.357957 0.146305 0
171 1 0.33877 0.162037 0
172 1 0.362403 0.170082 0
114 1 0.398946 0.136414 0
144 1 0.404733 0.161232 0
173 1 0.380825 0.153456 0
174 1 0.385791 0.177115 0
145 1 0.421958 0.143435 0
146 1 0.427926 0.16872 0
147 1 0.44489 0.15019 0
177 1 0.451256 0.174969 0
149 1 0.48562 0.139823 0
148 1 0.468409 0.15695 0
150 1 0.491882 0.163135 0
179 1 0.474729 0.181679 0
183 1 0.0182789 0.194085 0
182 1 0.00802471 0.216985 0
184 1 0.0335156 0.213647 0
154 1 0.0435823 0.190028 0
155 1 0.0679014 0.185534 0
185 1 0.0579571 0.209116 0
156 1 0.0823357 0.205555 0
158 1 0.106812 0.200593 0
187 1 0.110955 0.224607 0
189 1 0.129472 0.206483 0
160 1 0.145446 0.187109 0
191 1 0.170178 0.195255 0
190 1 0.153133 0.212689 0
221 1 0.176157 0.220341 0
193 1 0.211725 0.184892 0
192 1 0.194241 0.202195 0
194 1 0.217121 0.211041 0
195 1 0.234633 0.194085 0
196 1 0.260097 0.20128 0
225 1 0.241681 0.218488 0
227 1 0.265964 0.225617 0
197 1 0.277704 0.185436 0
199 1 0.302441 0.194471 0
198 1 0.28433 0.209103 0
229 1 0.307864 0.21807 0
201 1 0.344086 0.186414 0
200 1 0.326091 0.202352 0
202 1 0.349438 0.210325 0
231 1 0.331471 0.226173 0
203 1 0.367879 0.193527 0
233 1 0.373043 0.218397 0
204 1 0.391397 0.201554 0
235 1 0.397183 0.226074 0
175 1 0.409121 0.184672 0
176 1 0.433345 0.192693 0
205 1 0.415721 0.20943 0
207 1 0.43931 0.217121 0
178 1 0.457741 0.200073 0
208 1 0.462918 0.225127 0
209 1 0.481253 0.206167 0
180 1 0.498073 0.187906 0
213 1 0.023625 0.236164 0
243 1 0.0145838 0.25962 0
214 1 0.0399273 0.255557 0
186 1 0.0727557 0.229231 0
215 1 0.0483206 0.233606 0
216 1 0.0708497 0.258054 0
217 1 0.0928961 0.24351 0
218 1 0.116916 0.248957 0
247 1 0.0974361 0.267743 0
188 1 0.134591 0.23112 0
219 1 0.141444 0.25519 0
220 1 0.159024 0.237785 0
251 1 0.164313 0.26287 0
223 1 0.199934 0.227321 0
222 1 0.182398 0.244947 0
224 1 0.223574 0.235193 0
253 1 0.206795 0.252445 0
252 1 0.188465 0.268833 0
255 1 0.230309 0.259178 0
226 1 0.248463 0.242477 0
256 1 0.254399 0.267248 0
257 1 0.272014 0.2505 0
228 1 0.28916 0.233953 0
230 1 0.313225 0.241894 0
259 1 0.295027 0.258701 0
260 1 0.319801 0.266919 0
232 1 0.35514 0.234934 0
261 1 0.337261 0.25078 0
263 1 0.361151 0.259001 0
234 1 0.379065 0.243076 0
265 1 0.404049 0.250317 0
264 1 0.384968 0.266192 0
206 1 0.421209 0.233117 0
236 1 0.427155 0.25882 0
237 1 0.445085 0.242376 0
238 1 0.450227 0.265927 0
210 1 0.486037 0.230933 0
239 1 0.468802 0.248216 0
240 1 0.493188 0.255445 0
244 1 0.0293681 0.277817 0
242 1 0.00668411 0.285593 0
271 1 0.0211717 0.315249 0
273 1 0.0385503 0.299605 0
245 1 0.0538497 0.279289 0
246 1 0.0790439 0.285018 0
275 1 0.0621894 0.304777 0
276 1 0.0875392 0.309657 0
249 1 0.122485 0.272883 0
248 1 0.103903 0.291118 0
277 1 0.11136 0.316039 0
279 1 0.128483 0.297573 0
250 1 0.146415 0.279746 0
280 1 0.153777 0.303558 0
281 1 0.170369 0.286164 0
282 1 0.176515 0.310319 0
254 1 0.211597 0.276743 0
283 1 0.194524 0.293519 0
284 1 0.217426 0.300924 0
285 1 0.235808 0.283327 0
287 1 0.259483 0.291457 0
286 1 0.240865 0.307964 0
317 1 0.265132 0.316305 0
258 1 0.277318 0.27498 0
288 1 0.282622 0.299802 0
289 1 0.301397 0.283138 0
290 1 0.305415 0.307222 0
262 1 0.342964 0.276326 0
291 1 0.323726 0.292068 0
292 1 0.348596 0.30045 0
293 1 0.366207 0.283492 0
294 1 0.371913 0.308722 0
295 1 0.389625 0.292096 0
296 1 0.396908 0.317599 0
266 1 0.407738 0.27406 0
297 1 0.412893 0.298364 0
267 1 0.432126 0.282434 0
298 1 0.438506 0.305339 0
269 1 0.476363 0.27249 0
268 1 0.456818 0.288934 0
299 1 0.462231 0.316494 0
1141 1 0.499996 0.279169 0
270 1 0.481127 0.297205 0
1200 1 0.00439141 0.333728 0
301 1 0.0278872 0.340075 0
1230 1 0.0108579 0.358673 0
272 1 0.0447572 0.32358 0
303 1 0.0526032 0.346581 0
274 1 0.0695242 0.328414 0
304 1 0.0768817 0.351603 0
305 1 0.0933638 0.333917 0
306 1 0.101439 0.357275 0
307 1 0.118303 0.339575 0
278 1 0.135585 0.321072 0
308 1 0.125153 0.363389 0
309 1 0.142005 0.344099 0
311 1 0.159613 0.328116 0
310 1 0.165453 0.351706 0
313 1 0.200013 0.317924 0
312 1 0.18275 0.335199 0
314 1 0.206112 0.342331 0
315 1 0.223313 0.325725 0
343 1 0.188395 0.360056 0
345 1 0.231038 0.350021 0
316 1 0.247031 0.332462 0
318 1 0.268548 0.341569 0
319 1 0.288138 0.325233 0
320 1 0.305959 0.352563 0
321 1 0.312293 0.330116 0
349 1 0.283005 0.360432 0
323 1 0.334174 0.319941 0
322 1 0.330136 0.345865 0
324 1 0.353099 0.336468 0
353 1 0.346629 0.363432 0
325 1 0.377676 0.332893 0
355 1 0.370013 0.356796 0
326 1 0.395224 0.349567 0
327 1 0.420767 0.320846 0
328 1 0.42075 0.344266 0
329 1 0.442513 0.3317 0
359 1 0.440916 0.357607 0
300 1 0.487001 0.321404 0
1201 1 0.492741 0.345628 0
330 1 0.466259 0.343345 0
302 1 0.0360186 0.364883 0
1290 1 0.00154887 0.401614 0
332 1 0.0432555 0.38843 0
361 1 0.0263227 0.406402 0
331 1 0.019274 0.382645 0
333 1 0.0598262 0.369247 0
335 1 0.0836732 0.375218 0
334 1 0.0671969 0.394135 0
336 1 0.0910896 0.399668 0
337 1 0.107999 0.380997 0
338 1 0.132096 0.38732 0
367 1 0.115051 0.404666 0
339 1 0.149089 0.369017 0
341 1 0.172437 0.377144 0
340 1 0.154992 0.39395 0
371 1 0.177488 0.404333 0
342 1 0.19562 0.384172 0
344 1 0.212485 0.366234 0
373 1 0.203082 0.407342 0
347 1 0.258704 0.366098 0
375 1 0.227613 0.398556 0
346 1 0.23638 0.375127 0
377 1 0.252618 0.393022 0
378 1 0.270373 0.410633 0
348 1 0.276093 0.384324 0
350 1 0.299573 0.377853 0
379 1 0.295524 0.401744 0
381 1 0.318977 0.395124 0
351 1 0.322831 0.371406 0
352 1 0.341964 0.387312 0
383 1 0.36088 0.404834 0
354 1 0.365914 0.380995 0
385 1 0.384383 0.397902 0
356 1 0.389201 0.373191 0
387 1 0.407881 0.391028 0
357 1 0.413537 0.367406 0
358 1 0.432665 0.382094 0
389 1 0.450897 0.400833 0
388 1 0.42752 0.405944 0
1231 1 0.479988 0.366725 0
360 1 0.457234 0.376295 0
1232 1 0.475294 0.39293 0
1262 1 0.495052 0.409051 0
1263 1 0.498635 0.383415 0
362 1 0.0333724 0.430108 0
392 1 0.0161329 0.44874 0
391 1 0.00896812 0.425276 0
363 1 0.0499888 0.412781 0
364 1 0.05744 0.436641 0
365 1 0.0739479 0.417793 0
395 1 0.0816643 0.441886 0
366 1 0.0996112 0.423367 0
397 1 0.106046 0.447109 0
368 1 0.123501 0.429013 0
399 1 0.130605 0.452739 0
369 1 0.139456 0.411862 0
370 1 0.147134 0.435766 0
401 1 0.172742 0.437094 0
372 1 0.19703 0.430778 0
403 1 0.216741 0.447701 0
374 1 0.222078 0.422973 0
376 1 0.245987 0.416966 0
405 1 0.240563 0.440885 0
407 1 0.263611 0.434213 0
409 1 0.288923 0.42545 0
410 1 0.306821 0.442645 0
380 1 0.312815 0.418605 0
408 1 0.282393 0.449647 0
382 1 0.336683 0.411911 0
411 1 0.331118 0.436484 0
413 1 0.355514 0.428917 0
412 1 0.349014 0.453047 0
384 1 0.379399 0.422688 0
414 1 0.373286 0.445888 0
415 1 0.398238 0.439129 0
386 1 0.40289 0.415045 0
417 1 0.421707 0.43168 0
419 1 0.444954 0.424651 0
418 1 0.440113 0.44818 0
1261 1 0.469671 0.417257 0
390 1 0.463765 0.441683 0
1291 1 0.487847 0.433126 0
393 1 0.0398747 0.455221 0
451 1 0.00680155 0.491704 0
453 1 0.0315706 0.49773 0
422 1 0.0233485 0.473263 0
423 1 0.0479765 0.479347 0
394 1 0.0645968 0.460489 0
425 1 0.0720891 0.485028 0
396 1 0.0895958 0.464824 0
398 1 0.114441 0.470238 0
427 1 0.0971027 0.4877 0
428 1 0.121886 0.493017 0
400 1 0.160576 0.457666 0
429 1 0.140318 0.475087 0
431 1 0.164103 0.482104 0
430 1 0.1464 0.498614 0
402 1 0.189207 0.45445 0
432 1 0.187925 0.480458 0
433 1 0.21017 0.470867 0
434 1 0.206073 0.497478 0
435 1 0.229625 0.48838 0
404 1 0.233921 0.464236 0
406 1 0.258691 0.458135 0
436 1 0.254224 0.481649 0
437 1 0.277093 0.475108 0
438 1 0.296744 0.49271 0
439 1 0.300994 0.466925 0
440 1 0.319849 0.4843 0
441 1 0.325046 0.460277 0
442 1 0.343794 0.477632 0
473 1 0.363023 0.495298 0
443 1 0.367328 0.470743 0
445 1 0.392477 0.463554 0
444 1 0.386256 0.487394 0
416 1 0.416235 0.455711 0
446 1 0.411196 0.480248 0
447 1 0.434088 0.473228 0
448 1 0.428207 0.497941 0
449 1 0.451766 0.490442 0
420 1 0.457539 0.465462 0
1322 1 0.500363 0.476529 0
1321 1 0.482427 0.459156 0
1351 1 0.493639 0.500377 0
450 1 0.475703 0.483574 0
452 1 0.0140292 0.515931 0
483 1 0.020755 0.540103 0
454 1 0.0389297 0.522466 0
455 1 0.0626056 0.53034 0
456 1 0.0855741 0.537785 0
426 1 0.0789523 0.510707 0
424 1 0.0553585 0.504823 0
458 1 0.109715 0.532644 0
459 1 0.127939 0.515999 0
457 1 0.103658 0.510225 0
489 1 0.133544 0.54007 0
460 1 0.153971 0.522001 0
462 1 0.177236 0.531778 0
461 1 0.17891 0.505272 0
463 1 0.200552 0.521397 0
495 1 0.220381 0.537259 0
464 1 0.225562 0.512991 0
493 1 0.197463 0.54596 0
466 1 0.243374 0.531714 0
497 1 0.26688 0.524345 0
465 1 0.248956 0.506538 0
468 1 0.290769 0.51736 0
499 1 0.309131 0.534435 0
469 1 0.314536 0.50995 0
498 1 0.286054 0.541718 0
467 1 0.272384 0.499161 0
470 1 0.332891 0.525948 0
472 1 0.356577 0.519125 0
471 1 0.338237 0.501315 0
501 1 0.350853 0.544126 0
503 1 0.374355 0.535987 0
474 1 0.381411 0.512083 0
475 1 0.40449 0.504411 0
476 1 0.398839 0.530112 0
477 1 0.421821 0.522158 0
478 1 0.446077 0.515456 0
507 1 0.439211 0.539241 0
480 1 0.463428 0.533022 0
479 1 0.469558 0.508349 0
1381 1 0.487567 0.523616 0
513 1 0.0261753 0.564932 0
512 1 0.0300121 0.588559 0
541 1 0.00517688 0.582872 0
482 1 0.00306164 0.557336 0
485 1 0.0445737 0.547379 0
486 1 0.0675648 0.555589 0
484 1 0.0505403 0.572884 0
515 1 0.0738937 0.581123 0
487 1 0.0917835 0.564422 0
488 1 0.11484 0.555454 0
519 1 0.118069 0.579178 0
490 1 0.137563 0.56498 0
491 1 0.15719 0.547968 0
520 1 0.141094 0.588897 0
521 1 0.1604 0.573859 0
492 1 0.178406 0.559559 0
523 1 0.183454 0.583283 0
494 1 0.211941 0.566439 0
525 1 0.232509 0.5812 0
496 1 0.237255 0.556249 0
526 1 0.256062 0.574238 0
527 1 0.26116 0.548948 0
528 1 0.279707 0.565738 0
529 1 0.303939 0.558668 0
559 1 0.298665 0.583329 0
530 1 0.32234 0.575373 0
500 1 0.327452 0.550511 0
531 1 0.345862 0.568239 0
533 1 0.362239 0.586297 0
502 1 0.36901 0.56046 0
505 1 0.392257 0.554317 0
504 1 0.386659 0.579624 0
506 1 0.416109 0.546938 0
535 1 0.409559 0.571032 0
508 1 0.434413 0.563991 0
539 1 0.452077 0.581521 0
537 1 0.428515 0.587785 0
509 1 0.457512 0.556721 0
510 1 0.481206 0.548434 0
540 1 0.476065 0.572816 0
1411 1 0.499735 0.564563 0
1441 1 0.493626 0.590241 0
542 1 0.0122385 0.606414 0
571 1 0.00593491 0.630575 0
543 1 0.0350112 0.613342 0
514 1 0.0535311 0.596735 0
516 1 0.0764191 0.605457 0
545 1 0.0578191 0.622118 0
546 1 0.0815838 0.632037 0
517 1 0.0974124 0.591424 0
518 1 0.120446 0.602886 0
547 1 0.0994709 0.617155 0
548 1 0.122603 0.627422 0
522 1 0.163061 0.598913 0
549 1 0.143263 0.613476 0
551 1 0.165466 0.623653 0
524 1 0.207662 0.59157 0
553 1 0.186819 0.606909 0
552 1 0.188197 0.631611 0
554 1 0.208612 0.61756 0
555 1 0.228581 0.605145 0
556 1 0.243922 0.624512 0
557 1 0.251178 0.598699 0
587 1 0.269133 0.615355 0
558 1 0.274657 0.590546 0
560 1 0.29215 0.608431 0
591 1 0.310872 0.626003 0
561 1 0.315819 0.601723 0
589 1 0.287234 0.632895 0
532 1 0.338481 0.593689 0
562 1 0.334686 0.618712 0
563 1 0.357248 0.610946 0
534 1 0.381053 0.603685 0
536 1 0.405534 0.595404 0
566 1 0.400081 0.620449 0
565 1 0.376266 0.628371 0
567 1 0.423693 0.613083 0
538 1 0.446796 0.60581 0
597 1 0.441711 0.629939 0
568 1 0.463996 0.62232 0
569 1 0.47026 0.597657 0
570 1 0.487546 0.6155 0
544 1 0.0393739 0.637141 0
573 1 0.0196189 0.650942 0
603 1 0.0168313 0.675584 0
574 1 0.0412568 0.662414 0
575 1 0.0618098 0.647062 0
605 1 0.0647411 0.672695 0
576 1 0.0842982 0.65815 0
577 1 0.103532 0.643386 0
578 1 0.107254 0.667634 0
579 1 0.126505 0.653302 0
609 1 0.130282 0.677999 0
550 1 0.146222 0.638107 0
581 1 0.16889 0.647775 0
580 1 0.149315 0.662997 0
611 1 0.172514 0.672489 0
583 1 0.212142 0.641254 0
582 1 0.191494 0.656554 0
584 1 0.213799 0.664758 0
613 1 0.195595 0.68124 0
585 1 0.237371 0.648215 0
586 1 0.262649 0.641022 0
615 1 0.23602 0.673256 0
617 1 0.258626 0.665038 0
588 1 0.281242 0.65721 0
590 1 0.306084 0.650358 0
619 1 0.298253 0.675595 0
564 1 0.353085 0.635946 0
593 1 0.329147 0.64379 0
621 1 0.32263 0.669003 0
592 1 0.345936 0.661435 0
623 1 0.364475 0.679197 0
594 1 0.370299 0.654182 0
595 1 0.393959 0.645114 0
625 1 0.388038 0.671463 0
627 1 0.412131 0.66219 0
596 1 0.418572 0.63739 0
598 1 0.435709 0.656223 0
628 1 0.454042 0.672672 0
657 1 0.429721 0.680777 0
599 1 0.459349 0.647625 0
600 1 0.482967 0.639166 0
629 1 0.478252 0.664556 0
630 1 0.496578 0.680815 0
633 1 0.0266637 0.701455 0
602 1 0.00285202 0.698468 0
604 1 0.0460495 0.68696 0
634 1 0.0276264 0.726461 0
607 1 0.087474 0.683168 0
606 1 0.0673798 0.697081 0
635 1 0.0481584 0.712639 0
636 1 0.0712544 0.722303 0
637 1 0.0902242 0.707328 0
608 1 0.110018 0.69283 0
638 1 0.113278 0.717687 0
639 1 0.133536 0.702587 0
640 1 0.13625 0.726741 0
610 1 0.153263 0.68762 0
641 1 0.156454 0.711537 0
612 1 0.176757 0.696308 0
642 1 0.179238 0.721271 0
614 1 0.218717 0.690248 0
643 1 0.198708 0.70598 0
645 1 0.222271 0.716265 0
616 1 0.251818 0.692181 0
646 1 0.246476 0.71648 0
647 1 0.270423 0.708729 0
618 1 0.275548 0.683536 0
649 1 0.293919 0.700665 0
650 1 0.312366 0.718513 0
648 1 0.288536 0.725638 0
620 1 0.317768 0.693702 0
622 1 0.341312 0.68657 0
651 1 0.335686 0.711082 0
653 1 0.359569 0.704818 0
624 1 0.383114 0.697227 0
655 1 0.4026 0.71336 0
654 1 0.377759 0.721964 0
626 1 0.406192 0.688588 0
656 1 0.426101 0.704897 0
658 1 0.449816 0.697801 0
687 1 0.445465 0.722405 0
659 1 0.474749 0.690241 0
660 1 0.493919 0.70753 0
689 1 0.469146 0.714357 0
663 1 0.00950998 0.741689 0
662 1 0.0125752 0.766011 0
664 1 0.0323056 0.751709 0
665 1 0.0512547 0.737095 0
666 1 0.0740898 0.746919 0
695 1 0.0543502 0.762219 0
697 1 0.0767314 0.772465 0
667 1 0.0932511 0.732455 0
669 1 0.116468 0.741594 0
668 1 0.0963854 0.756241 0
699 1 0.119895 0.76612 0
671 1 0.159882 0.737069 0
670 1 0.139658 0.750838 0
672 1 0.162644 0.760731 0
673 1 0.183092 0.746375 0
644 1 0.202459 0.730987 0
674 1 0.205333 0.756036 0
703 1 0.184922 0.770419 0
675 1 0.234642 0.738759 0
705 1 0.229438 0.764857 0
677 1 0.264435 0.733162 0
676 1 0.255405 0.755711 0
679 1 0.305286 0.742879 0
678 1 0.280919 0.751138 0
709 1 0.299537 0.768272 0
652 1 0.353623 0.729036 0
680 1 0.323881 0.760651 0
681 1 0.329897 0.736147 0
682 1 0.347979 0.753598 0
683 1 0.372349 0.74679 0
685 1 0.396511 0.738759 0
684 1 0.391206 0.762403 0
713 1 0.366093 0.770571 0
715 1 0.415207 0.756088 0
686 1 0.420536 0.730138 0
717 1 0.439061 0.74702 0
716 1 0.433588 0.771213 0
718 1 0.457436 0.764228 0
688 1 0.463396 0.738898 0
690 1 0.487268 0.731783 0
719 1 0.481518 0.756928 0
694 1 0.0348784 0.775945 0
693 1 0.0155202 0.791035 0
692 1 0.0139196 0.815293 0
723 1 0.0368106 0.802012 0
696 1 0.0574902 0.787745 0
725 1 0.0596427 0.812128 0
727 1 0.0795356 0.798297 0
698 1 0.100151 0.782058 0
728 1 0.102915 0.806889 0
700 1 0.121978 0.79219 0
729 1 0.125915 0.815975 0
701 1 0.142022 0.775818 0
731 1 0.14502 0.800134 0
732 1 0.167251 0.810609 0
702 1 0.165191 0.785373 0
704 1 0.207517 0.780877 0
733 1 0.1876 0.795429 0
734 1 0.210261 0.805375 0
735 1 0.229572 0.789686 0
706 1 0.251738 0.781927 0
736 1 0.246166 0.807708 0
737 1 0.270205 0.799455 0
707 1 0.275157 0.774485 0
708 1 0.293087 0.791702 0
739 1 0.31231 0.808843 0
738 1 0.288813 0.815219 0
710 1 0.31732 0.784921 0
711 1 0.341704 0.777712 0
712 1 0.360811 0.794812 0
741 1 0.335841 0.801808 0
743 1 0.384419 0.786784 0
745 1 0.402993 0.803952 0
744 1 0.378782 0.812084 0
714 1 0.409221 0.780097 0
747 1 0.45069 0.78824 0
746 1 0.42789 0.797733 0
748 1 0.446721 0.814724 0
720 1 0.477563 0.780716 0
749 1 0.469557 0.803842 0
1621 1 0.493315 0.812571 0
722 1 0.0387819 0.826625 0
751 1 0.0187216 0.839362 0
753 1 0.0405492 0.852916 0
726 1 0.0819099 0.822767 0
724 1 0.060998 0.837054 0
754 1 0.0629817 0.861381 0
755 1 0.0838385 0.84744 0
756 1 0.107641 0.856535 0
757 1 0.105694 0.832017 0
759 1 0.128392 0.841406 0
730 1 0.148926 0.826053 0
760 1 0.152135 0.851178 0
761 1 0.17154 0.835539 0
791 1 0.175191 0.860568 0
763 1 0.190421 0.820621 0
762 1 0.194877 0.845753 0
764 1 0.214516 0.829852 0
795 1 0.219691 0.854475 0
767 1 0.264879 0.823703 0
765 1 0.239107 0.832992 0
766 1 0.258188 0.848329 0
768 1 0.282793 0.840563 0
769 1 0.306892 0.833328 0
799 1 0.300332 0.85831 0
742 1 0.353823 0.81931 0
770 1 0.324123 0.852117 0
740 1 0.330717 0.82689 0
771 1 0.34822 0.844194 0
773 1 0.372576 0.837414 0
774 1 0.398158 0.82964 0
803 1 0.389764 0.855877 0
772 1 0.365757 0.861797 0
775 1 0.421292 0.821584 0
777 1 0.437733 0.839717 0
776 1 0.414548 0.84895 0
750 1 0.47455 0.828936 0
779 1 0.459628 0.848174 0
780 1 0.484259 0.852645 0
752 1 0.0175737 0.864631 0
782 1 0.0203675 0.890977 0
783 1 0.0414139 0.876906 0
813 1 0.0453722 0.901231 0
785 1 0.0871189 0.871328 0
784 1 0.0663314 0.887056 0
786 1 0.0884669 0.896081 0
758 1 0.131664 0.866472 0
787 1 0.109383 0.88104 0
788 1 0.133824 0.890279 0
817 1 0.111816 0.905292 0
789 1 0.153922 0.87537 0
790 1 0.156017 0.899723 0
792 1 0.17782 0.884588 0
793 1 0.198539 0.87155 0
823 1 0.200014 0.895792 0
794 1 0.220544 0.880572 0
824 1 0.222454 0.905515 0
796 1 0.24146 0.865958 0
825 1 0.243416 0.891363 0
827 1 0.267447 0.887084 0
797 1 0.276142 0.864358 0
798 1 0.292381 0.882378 0
829 1 0.309675 0.900477 0
828 1 0.28439 0.904879 0
800 1 0.316894 0.876644 0
801 1 0.342475 0.869368 0
831 1 0.335047 0.893633 0
802 1 0.359735 0.887898 0
805 1 0.40706 0.873268 0
804 1 0.38324 0.880641 0
833 1 0.377191 0.907746 0
806 1 0.401056 0.897392 0
778 1 0.442419 0.865807 0
807 1 0.425515 0.888862 0
808 1 0.450472 0.889484 0
809 1 0.467851 0.871764 0
1681 1 0.493294 0.876647 0
810 1 0.475638 0.894722 0
812 1 0.00468663 0.911769 0
843 1 0.0216141 0.930404 0
844 1 0.0380707 0.94875 0
815 1 0.0685234 0.911286 0
814 1 0.0482923 0.92576 0
845 1 0.0711744 0.936121 0
816 1 0.092092 0.920832 0
847 1 0.0941703 0.945111 0
818 1 0.114195 0.93078 0
819 1 0.134671 0.914893 0
821 1 0.177992 0.909623 0
849 1 0.137506 0.940259 0
820 1 0.15693 0.925395 0
850 1 0.159732 0.95027 0
851 1 0.180381 0.934779 0
822 1 0.201249 0.920339 0
853 1 0.20406 0.945092 0
855 1 0.224693 0.930081 0
826 1 0.257159 0.911005 0
856 1 0.249427 0.937082 0
887 1 0.269199 0.951037 0
857 1 0.274617 0.9273 0
859 1 0.301457 0.923562 0
858 1 0.292138 0.947721 0
860 1 0.318146 0.942474 0
832 1 0.351303 0.912879 0
830 1 0.326752 0.918146 0
861 1 0.341956 0.937995 0
863 1 0.367272 0.934475 0
834 1 0.391428 0.931763 0
865 1 0.405497 0.952033 0
837 1 0.435684 0.911151 0
835 1 0.417603 0.929262 0
838 1 0.445138 0.933399 0
836 1 0.429288 0.952462 0
839 1 0.459959 0.91367 0
1741 1 0.493022 0.943479 0
840 1 0.484992 0.918551 0
869 1 0.468954 0.938034 0
842 1 0.0134162 0.953188 0
872 1 0.0225231 0.996684 0
873 1 0.0299782 0.971454 0
871 1 0.00558744 0.976878 0
874 1 0.0471276 0.992605 0
846 1 0.075226 0.960617 0
875 1 0.0534476 0.968216 0
876 1 0.0722547 0.985503 0
848 1 0.117603 0.954866 0
7 1 0.0972892 0.9955 0
877 1 0.096629 0.971239 0
878 1 0.118639 0.980732 0
879 1 0.139723 0.964855 0
880 1 0.142003 0.98941 0
881 1 0.162555 0.974498 0
11 1 0.165406 1.00001 0
854 1 0.226364 0.955226 0
852 1 0.182768 0.959252 0
882 1 0.185241 0.984459 0
883 1 0.204772 0.970661 0
13 1 0.2085 0.99615 0
884 1 0.228523 0.979858 0
885 1 0.248641 0.964976 0
886 1 0.251726 0.98841 0
17 1 0.275015 0.996386 0
888 1 0.281899 0.972521 0
889 1 0.307451 0.967148 0
19 1 0.298656 0.989892 0
862 1 0.35658 0.958154 0
890 1 0.323177 0.986338 0
891 1 0.331857 0.962227 0
892 1 0.347325 0.983233 0
864 1 0.381695 0.95568 0
893 1 0.37147 0.979041 0
895 1 0.396068 0.976169 0
894 1 0.385974 0.998364 0
867 1 0.454036 0.95686 0
896 1 0.410431 0.996559 0
866 1 0.420303 0.97358 0
897 1 0.437075 0.992355 0
899 1 0.484947 0.985632 0
870 1 0.477352 0.962621 0
868 1 0.460349 0.980315 0
902 1 0.541019 0.0192616 0
931 1 0.523975 0.03839 0
901 1 0.517098 0.0141561 0
933 1 0.547827 0.0439355 0
904 1 0.565445 0.0246057 0
935 1 0.589634 0.0326713 0
906 1 0.582477 0.00743863 0
905 1 0.557723 0.00104403 0
908 1 0.607338 0.0143066 0
937 1 0.613682 0.0389415 0
939 1 0.630909 0.0206003 0
938 1 0.636762 0.0447075 0
941 1 0.654734 0.0266025 0
912 1 0.672169 0.00986302 0
942 1 0.679901 0.0330119 0
910 1 0.648287 0.00171997 0
943 1 0.698363 0.0139142 0
944 1 0.703594 0.0401705 0
945 1 0.720762 0.0225289 0
947 1 0.744325 0.0178584 0
918 1 0.768053 0.0125376 0
946 1 0.760695 0.0366248 0
975 1 0.736557 0.0421067 0
948 1 0.784862 0.0308824 0
919 1 0.791849 0.00653257 0
949 1 0.809682 0.0240617 0
920 1 0.833633 0.0180611 0
951 1 0.850553 0.0374131 0
922 1 0.85764 0.0128476 0
950 1 0.8261 0.0423423 0
925 1 0.906391 0.0012336 0
953 1 0.874837 0.0303728 0
924 1 0.882061 0.00659591 0
955 1 0.898623 0.0248671 0
926 1 0.923093 0.0190764 0
928 1 0.947857 0.0120989 0
957 1 0.941564 0.0350768 0
956 1 0.916089 0.041399 0
930 1 0.990068 0.0249558 0
959 1 0.965151 0.0295792 0
929 1 0.973092 0.00591451 0
1 1 0.998335 0.000583014 0
60 1 0.507273 0.056019 0
932 1 0.53148 0.0621886 0
962 1 0.537458 0.0867851 0
961 1 0.514132 0.0806444 0
963 1 0.554943 0.0680348 0
934 1 0.572447 0.0504095 0
965 1 0.579343 0.0743507 0
936 1 0.596682 0.0563194 0
966 1 0.601959 0.0809921 0
967 1 0.619928 0.0635257 0
968 1 0.626682 0.0874813 0
940 1 0.661557 0.0506518 0
969 1 0.644325 0.0685449 0
970 1 0.667544 0.0746835 0
971 1 0.685206 0.0571089 0
972 1 0.691771 0.0820451 0
973 1 0.70782 0.0640291 0
1003 1 0.717046 0.0868133 0
974 1 0.732953 0.0675839 0
976 1 0.756357 0.0609893 0
1005 1 0.741001 0.0916913 0
1007 1 0.772643 0.0794183 0
977 1 0.778984 0.0552086 0
979 1 0.802488 0.048169 0
978 1 0.795855 0.0725991 0
1009 1 0.813673 0.0903857 0
980 1 0.819516 0.0659841 0
981 1 0.844783 0.060719 0
1011 1 0.838588 0.0849251 0
982 1 0.862976 0.0789381 0
954 1 0.892084 0.0494079 0
952 1 0.867885 0.0547887 0
983 1 0.886563 0.0750946 0
985 1 0.909748 0.0660024 0
986 1 0.927574 0.0822652 0
987 1 0.933595 0.0581803 0
988 1 0.951199 0.0766123 0
960 1 0.981174 0.047914 0
958 1 0.958031 0.0535922 0
989 1 0.97533 0.0717951 0
990 1 0.991568 0.0904113 0
61 1 0.999053 0.0663378 0
991 1 0.519747 0.104044 0
992 1 0.527031 0.128021 0
993 1 0.544466 0.110302 0
120 1 0.502554 0.121767 0
964 1 0.561699 0.0925997 0
1023 1 0.550941 0.135071 0
994 1 0.56868 0.117767 0
995 1 0.585237 0.0995235 0
996 1 0.592314 0.122712 0
997 1 0.609706 0.105222 0
998 1 0.633602 0.111524 0
1027 1 0.615732 0.129927 0
999 1 0.65014 0.0925769 0
1000 1 0.6581 0.116848 0
1001 1 0.674346 0.098003 0
1029 1 0.639345 0.13469 0
1031 1 0.681392 0.124139 0
1002 1 0.69879 0.105053 0
1004 1 0.722409 0.111597 0
1033 1 0.705304 0.129062 0
1006 1 0.765545 0.102915 0
1035 1 0.746813 0.11807 0
1034 1 0.729357 0.136077 0
1037 1 0.781782 0.122599 0
1008 1 0.789683 0.0979134 0
1039 1 0.806341 0.115296 0
1010 1 0.831202 0.108408 0
1012 1 0.855494 0.1028 0
1040 1 0.826052 0.132805 0
1015 1 0.90503 0.0934662 0
984 1 0.879979 0.0997063 0
1013 1 0.87537 0.122994 0
1014 1 0.900541 0.117521 0
1016 1 0.924608 0.114671 0
1017 1 0.943709 0.0988633 0
1018 1 0.958462 0.117555 0
1019 1 0.967696 0.0949465 0
1020 1 0.982336 0.113947 0
121 1 0.997821 0.132222 0
1050 1 0.973125 0.136234 0
1022 1 0.532907 0.152274 0
1053 1 0.539693 0.176845 0
1051 1 0.515656 0.170082 0
1021 1 0.509666 0.1453 0
1024 1 0.557385 0.159665 0
1025 1 0.574437 0.141235 0
1055 1 0.580663 0.166543 0
1026 1 0.598578 0.147134 0
1028 1 0.622976 0.15298 0
1057 1 0.605067 0.170843 0
1058 1 0.629421 0.177433 0
1059 1 0.647884 0.158962 0
1030 1 0.664598 0.141327 0
1061 1 0.67087 0.165188 0
1032 1 0.687971 0.14797 0
1063 1 0.711864 0.15331 0
1062 1 0.695082 0.171116 0
1064 1 0.718875 0.177 0
1036 1 0.755009 0.140928 0
1065 1 0.737194 0.158746 0
1066 1 0.761309 0.165098 0
1067 1 0.778133 0.147673 0
1038 1 0.802091 0.141696 0
1068 1 0.78533 0.17176 0
1069 1 0.810568 0.179026 0
1041 1 0.845017 0.150143 0
1071 1 0.835348 0.17435 0
1042 1 0.859929 0.170919 0
1043 1 0.8696 0.147135 0
1045 1 0.893757 0.14137 0
1044 1 0.88551 0.166002 0
1049 1 0.944178 0.137116 0
1046 1 0.910258 0.160881 0
1047 1 0.919014 0.13785 0
1048 1 0.935253 0.160025 0
1078 1 0.952332 0.181104 0
1079 1 0.959736 0.157 0
151 1 0.987155 0.155301 0
1080 1 0.976881 0.177962 0
1052 1 0.52256 0.194399 0
1082 1 0.528228 0.219088 0
1081 1 0.505054 0.212923 0
1083 1 0.546234 0.200664 0
1054 1 0.56344 0.183671 0
1056 1 0.587105 0.189723 0
1085 1 0.569804 0.207198 0
1084 1 0.551702 0.224714 0
1086 1 0.594188 0.213458 0
1087 1 0.611077 0.195448 0
1088 1 0.618108 0.219344 0
1089 1 0.635634 0.20141 0
1060 1 0.653183 0.182888 0
1091 1 0.677917 0.18843 0
1090 1 0.659279 0.205925 0
1119 1 0.641429 0.225392 0
1092 1 0.68298 0.212108 0
1093 1 0.700996 0.195547 0
1094 1 0.724695 0.20077 0
1123 1 0.707293 0.21906 0
1095 1 0.743303 0.182859 0
1096 1 0.748988 0.20637 0
1097 1 0.767413 0.188973 0
1125 1 0.731346 0.22505 0
1127 1 0.772904 0.211776 0
1099 1 0.792075 0.195613 0
1098 1 0.797102 0.21963 0
1100 1 0.821328 0.220789 0
1072 1 0.852547 0.193995 0
1070 1 0.827895 0.197376 0
1101 1 0.844898 0.216752 0
1075 1 0.902268 0.185922 0
1073 1 0.876618 0.189773 0
1103 1 0.86966 0.213231 0
1074 1 0.894209 0.209157 0
1077 1 0.927625 0.183695 0
1076 1 0.917748 0.205278 0
1107 1 0.943101 0.203152 0
1108 1 0.933774 0.226357 0
181 1 0.992895 0.197139 0
1109 1 0.967942 0.201158 0
1110 1 0.958416 0.223904 0
211 1 0.983077 0.219642 0
1111 1 0.509607 0.236975 0
1113 1 0.533944 0.243352 0
1112 1 0.517043 0.261184 0
1143 1 0.540703 0.266652 0
1114 1 0.558023 0.248599 0
1115 1 0.575359 0.230254 0
1116 1 0.581778 0.254619 0
1117 1 0.600127 0.236293 0
1118 1 0.624294 0.24229 0
1147 1 0.605494 0.26046 0
1149 1 0.628831 0.267195 0
1121 1 0.664987 0.230248 0
1120 1 0.64782 0.249575 0
1151 1 0.672773 0.254328 0
1122 1 0.689324 0.235866 0
1124 1 0.713199 0.242775 0
1153 1 0.696282 0.260105 0
1154 1 0.720451 0.266203 0
1126 1 0.755039 0.23047 0
1155 1 0.736965 0.248385 0
1157 1 0.760492 0.253812 0
1156 1 0.744276 0.273171 0
1128 1 0.778605 0.235468 0
1129 1 0.804889 0.243079 0
1158 1 0.78404 0.258918 0
1159 1 0.805482 0.268446 0
1102 1 0.860264 0.236616 0
1131 1 0.836065 0.240097 0
1130 1 0.828415 0.263433 0
1132 1 0.851706 0.259629 0
1104 1 0.884955 0.232685 0
1133 1 0.876626 0.255908 0
1135 1 0.900621 0.252604 0
1105 1 0.909806 0.229503 0