ITEM: TIMESTEP
104000
ITEM: NUMBER OF ATOMS
1800
ITEM: BOX BOUNDS pp pp pp
8.7237810558350759e-01 1.6412762189441617e+02
8.7237810558350759e-01 1.6412762189441617e+02
0.0000000000000000e+00 5.5000000000000000e+00
ITEM: ATOMS id type xs ys zs
2 1 0.00802843 0.0208788 0
3 1 0.0323551 0.0149237 0
33 1 0.0248019 0.0384746 0
31 1 0.000120026 0.0440928 0
4 1 0.0497482 0.0328075 0
5 1 0.0588242 0.00898492 0
6 1 0.0756927 0.027818 0
8 1 0.101527 0.0225666 0
9 1 0.121246 0.0072316 0
39 1 0.124682 0.0322804 0
10 1 0.145297 0.0160877 0
41 1 0.167805 0.0264004 0
40 1 0.148389 0.0411869 0
11 1 0.165594 0.00110215 0
12 1 0.188544 0.0110757 0
43 1 0.192427 0.0362367 0
14 1 0.211467 0.0194402 0
15 1 0.231223 0.00431771 0
45 1 0.234752 0.0295947 0
16 1 0.255259 0.0137101 0
46 1 0.258194 0.0396569 0
18 1 0.278561 0.0240241 0
49 1 0.301383 0.0342745 0
20 1 0.319636 0.0155919 0
51 1 0.342233 0.0277804 0
21 1 0.344692 0.00390252 0
81 1 0.323647 0.0428343 0
22 1 0.365613 0.0367591 0
24 1 0.381451 0.0178682 0
55 1 0.406019 0.0268816 0
53 1 0.388685 0.0438929 0
25 1 0.424113 0.00940485 0
26 1 0.430858 0.0337842 0
27 1 0.448233 0.0149655 0
28 1 0.455441 0.0392654 0
30 1 0.497836 0.0279764 0
29 1 0.473387 0.021883 0
900 1 0.490966 0.0034218 0
32 1 0.0167702 0.0622648 0
62 1 0.00938305 0.0850218 0
63 1 0.0341512 0.080027 0
34 1 0.0417582 0.0562371 0
35 1 0.0673978 0.0501817 0
36 1 0.0845676 0.0689463 0
65 1 0.0588098 0.0731099 0
37 1 0.0930099 0.046208 0
38 1 0.108144 0.068294 0
68 1 0.132171 0.0805681 0
69 1 0.1286 0.0564803 0
71 1 0.151797 0.0661856 0
42 1 0.171103 0.0506873 0
72 1 0.174215 0.0765104 0
44 1 0.214695 0.0462445 0
73 1 0.194524 0.0617108 0
74 1 0.216724 0.0716025 0
103 1 0.196236 0.0866427 0
75 1 0.238266 0.0545287 0
77 1 0.260661 0.0643886 0
76 1 0.239996 0.0789701 0
107 1 0.262881 0.088918 0
47 1 0.281328 0.049259 0
48 1 0.283512 0.07385 0
79 1 0.305967 0.0825748 0
50 1 0.304089 0.05895 0
52 1 0.346466 0.052152 0
82 1 0.327217 0.0678129 0
111 1 0.351977 0.0780736 0
83 1 0.369908 0.060966 0
54 1 0.395096 0.0682167 0
113 1 0.376967 0.0856302 0
56 1 0.413277 0.0512768 0
57 1 0.43807 0.0580968 0
85 1 0.419052 0.0749887 0
87 1 0.443801 0.081533 0
59 1 0.479724 0.0458684 0
58 1 0.462118 0.0628858 0
89 1 0.486262 0.0693619 0
88 1 0.468759 0.0877753 0
92 1 0.0195888 0.126643 0
93 1 0.0271171 0.103152 0
91 1 0.00199685 0.108403 0
94 1 0.0447112 0.121313 0
66 1 0.0760231 0.0917821 0
64 1 0.0511677 0.0972621 0
95 1 0.0697007 0.115501 0
96 1 0.0865188 0.133123 0
67 1 0.111662 0.0934756 0
97 1 0.0939513 0.109648 0
98 1 0.113305 0.12486 0
99 1 0.132921 0.106481 0
129 1 0.136627 0.133556 0
70 1 0.154278 0.092037 0
100 1 0.156507 0.11775 0
101 1 0.175991 0.102685 0
131 1 0.180543 0.128611 0
102 1 0.198714 0.11231 0
104 1 0.220969 0.121163 0
105 1 0.218856 0.0968892 0
106 1 0.242377 0.104759 0
135 1 0.24498 0.130553 0
137 1 0.264328 0.114184 0
78 1 0.286163 0.0991825 0
108 1 0.287387 0.124069 0
109 1 0.309972 0.107972 0
139 1 0.309975 0.132962 0
80 1 0.329657 0.0916787 0
110 1 0.334692 0.115529 0
141 1 0.35749 0.103212 0
84 1 0.401648 0.0923533 0
112 1 0.384737 0.109514 0
143 1 0.367461 0.126353 0
114 1 0.392571 0.133139 0
115 1 0.40985 0.116371 0
86 1 0.427319 0.0992041 0
116 1 0.434797 0.12231 0
117 1 0.451834 0.10503 0
118 1 0.459024 0.12872 0
90 1 0.493424 0.093584 0
119 1 0.476858 0.111902 0
149 1 0.483226 0.135686 0
122 1 0.0128439 0.150646 0
153 1 0.0294007 0.168091 0
152 1 0.00518948 0.174822 0
123 1 0.0362859 0.144689 0
125 1 0.060882 0.13893 0
124 1 0.0539807 0.162779 0
126 1 0.0787375 0.156241 0
155 1 0.071159 0.180493 0
127 1 0.105062 0.1499 0
128 1 0.12083 0.170693 0
157 1 0.0964018 0.17419 0
159 1 0.140752 0.158014 0
130 1 0.160469 0.143048 0
161 1 0.163264 0.169715 0
133 1 0.202746 0.137357 0
132 1 0.183548 0.153623 0
134 1 0.226025 0.145459 0
163 1 0.206925 0.162377 0
162 1 0.188001 0.178735 0
164 1 0.229868 0.170417 0
136 1 0.26777 0.139281 0
165 1 0.248445 0.155314 0
166 1 0.253629 0.179761 0
167 1 0.272036 0.163939 0
138 1 0.290923 0.147865 0
169 1 0.313705 0.156415 0
168 1 0.295553 0.171998 0
170 1 0.31908 0.181572 0
140 1 0.332408 0.139853 0
142 1 0.355293 0.148118 0
171 1 0.336777 0.16405 0
172 1 0.360034 0.171779 0
144 1 0.401823 0.159942 0
173 1 0.378612 0.154293 0
174 1 0.384118 0.178251 0
145 1 0.417009 0.140145 0
146 1 0.425498 0.165113 0
147 1 0.441902 0.145754 0
177 1 0.448835 0.172076 0
148 1 0.465396 0.153677 0
150 1 0.488641 0.160431 0
179 1 0.472305 0.178819 0
183 1 0.0213621 0.192622 0
182 1 0.0138893 0.216249 0
184 1 0.0394659 0.210154 0
154 1 0.0466927 0.187033 0
185 1 0.063717 0.204618 0
186 1 0.0817674 0.222861 0
156 1 0.0881707 0.198107 0
158 1 0.111552 0.193302 0
187 1 0.107491 0.218593 0
189 1 0.13 0.209088 0
160 1 0.142042 0.185775 0
191 1 0.169005 0.195215 0
190 1 0.15356 0.213892 0
221 1 0.176202 0.22269 0
193 1 0.211448 0.187813 0
192 1 0.192605 0.203791 0
194 1 0.216412 0.212642 0
195 1 0.234591 0.195279 0
196 1 0.258425 0.204972 0
225 1 0.240524 0.221112 0
197 1 0.276634 0.188282 0
199 1 0.300143 0.197032 0
198 1 0.282175 0.212909 0
229 1 0.306997 0.221192 0
201 1 0.343024 0.188415 0
200 1 0.324547 0.204633 0
202 1 0.348663 0.212702 0
203 1 0.366194 0.195421 0
233 1 0.371994 0.219246 0
204 1 0.390351 0.201456 0
175 1 0.407626 0.1833 0
235 1 0.396202 0.225599 0
205 1 0.414098 0.208352 0
176 1 0.431435 0.189593 0
207 1 0.437622 0.214236 0
178 1 0.454035 0.196717 0
208 1 0.46142 0.221093 0
180 1 0.496069 0.184966 0
209 1 0.478075 0.203108 0
213 1 0.031327 0.233953 0
212 1 0.00648871 0.240435 0
243 1 0.0237455 0.258493 0
214 1 0.0492113 0.251715 0
215 1 0.0557719 0.229495 0
216 1 0.0731921 0.24722 0
245 1 0.065107 0.270239 0
247 1 0.0972862 0.26784 0
217 1 0.0970554 0.242357 0
218 1 0.118753 0.252582 0
188 1 0.135031 0.23295 0
219 1 0.141738 0.258683 0
220 1 0.158916 0.240445 0
251 1 0.165193 0.26561 0
222 1 0.181915 0.2482 0
223 1 0.199318 0.230514 0
224 1 0.222876 0.239104 0
253 1 0.205126 0.255785 0
227 1 0.264044 0.230029 0
255 1 0.228419 0.262665 0
226 1 0.246563 0.246447 0
257 1 0.269986 0.25431 0
256 1 0.25186 0.271538 0
228 1 0.288349 0.237669 0
230 1 0.311867 0.246557 0
259 1 0.293118 0.261618 0
260 1 0.31764 0.271036 0
231 1 0.33093 0.229071 0
232 1 0.354025 0.236478 0
261 1 0.335511 0.254192 0
263 1 0.359719 0.259998 0
234 1 0.377181 0.242797 0
265 1 0.40099 0.249878 0
264 1 0.383124 0.266836 0
206 1 0.419664 0.232248 0
236 1 0.4248 0.25569 0
237 1 0.443519 0.237983 0
238 1 0.448782 0.262585 0
210 1 0.485083 0.228365 0
239 1 0.466533 0.246035 0
240 1 0.489669 0.252675 0
269 1 0.472628 0.270242 0
242 1 0.0169329 0.283183 0
273 1 0.0349469 0.299633 0
271 1 0.012297 0.308908 0
244 1 0.0418378 0.276318 0
246 1 0.0796335 0.288908 0
275 1 0.0600154 0.304046 0
276 1 0.0857421 0.311855 0
249 1 0.122 0.276481 0
248 1 0.104132 0.294423 0
279 1 0.128213 0.300338 0
277 1 0.109952 0.318266 0
250 1 0.14744 0.283637 0
280 1 0.152205 0.308586 0
281 1 0.170491 0.290658 0
282 1 0.176205 0.315656 0
252 1 0.188047 0.273261 0
254 1 0.211175 0.280183 0
283 1 0.193385 0.297603 0
284 1 0.216429 0.305231 0
285 1 0.234275 0.288683 0
287 1 0.257736 0.295656 0
286 1 0.240294 0.313069 0
258 1 0.27619 0.27866 0
288 1 0.281244 0.303378 0
289 1 0.29938 0.286513 0
290 1 0.304527 0.310059 0
262 1 0.342252 0.278309 0
291 1 0.324092 0.294961 0
292 1 0.347888 0.302708 0
266 1 0.406555 0.272572 0
293 1 0.365831 0.284153 0
294 1 0.371509 0.308756 0
295 1 0.389409 0.291536 0
296 1 0.39561 0.315712 0
267 1 0.431254 0.279777 0
297 1 0.4137 0.297342 0
298 1 0.437946 0.30382 0
268 1 0.454837 0.286665 0
1141 1 0.49647 0.276364 0
270 1 0.478615 0.294212 0
299 1 0.460809 0.311811 0
301 1 0.0248938 0.341214 0
1230 1 0.00685129 0.359572 0
272 1 0.0421592 0.322512 0
1200 1 0.00188217 0.332748 0
303 1 0.0491912 0.346154 0
274 1 0.0672238 0.328571 0
304 1 0.0728934 0.353167 0
305 1 0.0912725 0.334988 0
307 1 0.116187 0.342 0
306 1 0.0988387 0.358707 0
278 1 0.134579 0.324614 0
309 1 0.140603 0.349454 0
311 1 0.158722 0.3324 0
310 1 0.164942 0.357141 0
312 1 0.183438 0.340753 0
313 1 0.200146 0.323485 0
314 1 0.206706 0.347932 0
315 1 0.222771 0.329998 0
345 1 0.230351 0.356581 0
317 1 0.263501 0.320832 0
316 1 0.245596 0.338373 0
318 1 0.26835 0.345185 0
319 1 0.286484 0.327965 0
320 1 0.307827 0.358058 0
321 1 0.310535 0.334559 0
323 1 0.329053 0.318883 0
322 1 0.332926 0.345155 0
324 1 0.352692 0.326154 0
325 1 0.37725 0.333096 0
355 1 0.372688 0.35735 0
326 1 0.397555 0.348944 0
327 1 0.419778 0.320488 0
328 1 0.421431 0.344223 0
329 1 0.443366 0.331365 0
359 1 0.440419 0.3596 0
300 1 0.483746 0.319754 0
1201 1 0.490681 0.344113 0
330 1 0.46349 0.349741 0
302 1 0.0315988 0.365184 0
332 1 0.0395838 0.38859 0
331 1 0.014956 0.383167 0
361 1 0.02158 0.406167 0
333 1 0.0558846 0.37058 0
335 1 0.0797913 0.376508 0
334 1 0.0633097 0.394494 0
336 1 0.0874802 0.400654 0
308 1 0.123037 0.366408 0
337 1 0.104316 0.382486 0
338 1 0.128465 0.390026 0
367 1 0.111897 0.406869 0
339 1 0.147399 0.373548 0
341 1 0.172865 0.384493 0
340 1 0.15356 0.397933 0
343 1 0.18902 0.364613 0
342 1 0.195178 0.395065 0
344 1 0.211451 0.375031 0
375 1 0.219711 0.399682 0
347 1 0.259065 0.371105 0
346 1 0.235726 0.380351 0
377 1 0.253943 0.396533 0
349 1 0.283706 0.3641 0
348 1 0.277726 0.388377 0
350 1 0.301682 0.381558 0
379 1 0.2963 0.405288 0
353 1 0.349274 0.366006 0
381 1 0.321011 0.398669 0
351 1 0.326116 0.374085 0
352 1 0.344626 0.390409 0
383 1 0.362298 0.406144 0
354 1 0.369065 0.382156 0
385 1 0.386779 0.39967 0
356 1 0.392285 0.374159 0
357 1 0.416049 0.367928 0
358 1 0.435327 0.384505 0
387 1 0.411204 0.39208 0
389 1 0.452598 0.400892 0
1231 1 0.481259 0.368661 0
360 1 0.45751 0.375888 0
1232 1 0.476704 0.393229 0
362 1 0.029944 0.430734 0
392 1 0.0134756 0.448357 0
391 1 0.00409828 0.425584 0
363 1 0.0461985 0.412656 0
364 1 0.0543856 0.436248 0
365 1 0.070766 0.418113 0
395 1 0.0783672 0.442292 0
366 1 0.0961268 0.425095 0
397 1 0.103636 0.448736 0
368 1 0.120385 0.431201 0
369 1 0.135404 0.413431 0
399 1 0.128237 0.453856 0
371 1 0.17621 0.410007 0
370 1 0.1457 0.435247 0
401 1 0.170599 0.435644 0
372 1 0.193684 0.445026 0
373 1 0.19962 0.42049 0
403 1 0.217967 0.449116 0
374 1 0.224177 0.425678 0
376 1 0.248048 0.420831 0
405 1 0.241447 0.444341 0
407 1 0.267308 0.43673 0
378 1 0.272164 0.412684 0
409 1 0.291118 0.429823 0
410 1 0.309705 0.447819 0
380 1 0.31464 0.422004 0
382 1 0.338482 0.415901 0
411 1 0.333016 0.440108 0
413 1 0.356514 0.432095 0
384 1 0.379664 0.4235 0
414 1 0.37502 0.448684 0
415 1 0.399048 0.440969 0
386 1 0.404669 0.416634 0
388 1 0.428288 0.409048 0
417 1 0.422741 0.433511 0
418 1 0.442029 0.450304 0
419 1 0.446822 0.426522 0
1262 1 0.493978 0.410704 0
1261 1 0.470388 0.418094 0
390 1 0.466092 0.443836 0
1291 1 0.489861 0.434792 0
393 1 0.0374602 0.455104 0
422 1 0.0219053 0.473749 0
451 1 0.00514808 0.491238 0
453 1 0.0293435 0.497727 0
423 1 0.0459808 0.478976 0
394 1 0.0623841 0.461082 0
396 1 0.0861585 0.466315 0
425 1 0.0700513 0.484788 0
427 1 0.0950172 0.489762 0
398 1 0.111816 0.47207 0
428 1 0.120218 0.494969 0
429 1 0.135639 0.47654 0
400 1 0.153641 0.458342 0
431 1 0.160772 0.481881 0
402 1 0.176805 0.462908 0
432 1 0.185021 0.486436 0
433 1 0.203587 0.468349 0
434 1 0.209069 0.492169 0
406 1 0.259621 0.461001 0
404 1 0.235998 0.469672 0
436 1 0.255865 0.486351 0
435 1 0.232533 0.49484 0
408 1 0.284116 0.454079 0
437 1 0.279552 0.479736 0
438 1 0.298438 0.496044 0
439 1 0.303122 0.471586 0
412 1 0.350721 0.45689 0
440 1 0.322981 0.489876 0
441 1 0.327136 0.465407 0
442 1 0.346422 0.481368 0
473 1 0.364275 0.498681 0
443 1 0.369494 0.473466 0
445 1 0.393175 0.465334 0
444 1 0.387816 0.491251 0
447 1 0.436285 0.474784 0
416 1 0.417351 0.458243 0
446 1 0.411137 0.482769 0
448 1 0.430088 0.499416 0
449 1 0.454664 0.491803 0
420 1 0.460585 0.468027 0
1321 1 0.485011 0.459787 0
450 1 0.47847 0.484373 0
452 1 0.0124456 0.515026 0
483 1 0.0205108 0.539431 0
454 1 0.0370437 0.521303 0
455 1 0.0607097 0.527992 0
456 1 0.0869088 0.533386 0
426 1 0.0777093 0.508823 0
424 1 0.0529204 0.502598 0
458 1 0.111259 0.535277 0
459 1 0.127885 0.518284 0
457 1 0.103049 0.512396 0
489 1 0.136207 0.541108 0
460 1 0.152699 0.523958 0
462 1 0.176544 0.530062 0
461 1 0.16896 0.505235 0
430 1 0.144386 0.499817 0
463 1 0.194219 0.511481 0
493 1 0.200119 0.535963 0
495 1 0.222284 0.544901 0
464 1 0.221053 0.518587 0
466 1 0.244677 0.534243 0
497 1 0.268967 0.527969 0
465 1 0.250008 0.510833 0
467 1 0.273717 0.503761 0
468 1 0.293086 0.519601 0
499 1 0.311959 0.537269 0
469 1 0.316688 0.5131 0
498 1 0.288457 0.544837 0
470 1 0.335398 0.530521 0
472 1 0.358782 0.523381 0
471 1 0.341431 0.505698 0
503 1 0.377672 0.539774 0
474 1 0.382995 0.515169 0
475 1 0.406867 0.507606 0
476 1 0.401459 0.531983 0
477 1 0.424618 0.525189 0
478 1 0.447806 0.51647 0
507 1 0.443023 0.540448 0
480 1 0.466329 0.533343 0
479 1 0.472168 0.508314 0
1381 1 0.489512 0.526633 0
1351 1 0.496245 0.501397 0
513 1 0.0267465 0.564319 0
541 1 0.00973587 0.581857 0
512 1 0.0333187 0.587988 0
482 1 0.00381435 0.557346 0
485 1 0.0451465 0.547108 0
486 1 0.0713856 0.555316 0
484 1 0.0518901 0.572001 0
515 1 0.075546 0.582195 0
487 1 0.0953094 0.568171 0
488 1 0.11776 0.558118 0
519 1 0.120907 0.580883 0
491 1 0.160046 0.548579 0
490 1 0.141175 0.565055 0
521 1 0.164871 0.573535 0
520 1 0.144383 0.589197 0
492 1 0.185363 0.556147 0
523 1 0.188264 0.583364 0
494 1 0.214711 0.567604 0
525 1 0.233746 0.583166 0
496 1 0.241235 0.559411 0
526 1 0.258351 0.576869 0
527 1 0.264716 0.55252 0
529 1 0.305924 0.562997 0
528 1 0.282156 0.569862 0
559 1 0.300098 0.588623 0
501 1 0.353152 0.54798 0
530 1 0.323586 0.580392 0
500 1 0.32989 0.555548 0
531 1 0.347812 0.572842 0
502 1 0.371307 0.56538 0
505 1 0.39478 0.55774 0
504 1 0.390009 0.58127 0
533 1 0.365714 0.590404 0
506 1 0.418508 0.549368 0
535 1 0.413313 0.57386 0
508 1 0.437321 0.565239 0
539 1 0.454392 0.583154 0
509 1 0.460195 0.559118 0
510 1 0.482947 0.551721 0
540 1 0.478239 0.576002 0
542 1 0.0143709 0.605419 0
571 1 0.00506754 0.628771 0
543 1 0.0375752 0.613234 0
514 1 0.0565859 0.597111 0
516 1 0.0795419 0.607408 0
545 1 0.0597492 0.621744 0
546 1 0.0823904 0.631487 0
517 1 0.0995536 0.592274 0
518 1 0.123356 0.603737 0
547 1 0.102964 0.617436 0
548 1 0.125273 0.628426 0
522 1 0.166374 0.598901 0
549 1 0.145383 0.613666 0
551 1 0.168547 0.623295 0
524 1 0.210774 0.593455 0
553 1 0.188401 0.607966 0
552 1 0.190442 0.633721 0
554 1 0.209562 0.619391 0
555 1 0.230387 0.607259 0
556 1 0.245815 0.626243 0
557 1 0.253221 0.600505 0
587 1 0.269223 0.618067 0
558 1 0.276573 0.594214 0
560 1 0.293669 0.612808 0
591 1 0.312872 0.628238 0
561 1 0.318428 0.604715 0
532 1 0.341498 0.596614 0
562 1 0.336006 0.621209 0
563 1 0.359993 0.613724 0
534 1 0.383716 0.606838 0
565 1 0.376949 0.631077 0
566 1 0.401238 0.623969 0
536 1 0.407583 0.599531 0
537 1 0.430944 0.590783 0
567 1 0.425462 0.615968 0
538 1 0.449066 0.607554 0
597 1 0.443457 0.63338 0
1441 1 0.495948 0.593347 0
568 1 0.466428 0.625942 0
569 1 0.472574 0.601254 0
570 1 0.489341 0.617989 0
544 1 0.0397299 0.637618 0
573 1 0.0205961 0.652514 0
603 1 0.021878 0.677958 0
574 1 0.0424289 0.662759 0
575 1 0.0622404 0.647238 0
605 1 0.065069 0.671492 0
576 1 0.0850489 0.657062 0
607 1 0.0885911 0.68153 0
577 1 0.104859 0.642246 0
578 1 0.108598 0.666638 0
579 1 0.128165 0.652912 0
609 1 0.130493 0.677487 0
550 1 0.148818 0.638049 0
581 1 0.17088 0.64953 0
580 1 0.150666 0.663191 0
611 1 0.173804 0.673266 0
583 1 0.215329 0.643088 0
582 1 0.194289 0.658443 0
584 1 0.215704 0.668835 0
585 1 0.239543 0.651196 0
586 1 0.264518 0.643365 0
615 1 0.238147 0.675715 0
617 1 0.259789 0.666498 0
589 1 0.288627 0.6373 0
588 1 0.282726 0.660629 0
590 1 0.307306 0.653157 0
619 1 0.301569 0.677155 0
564 1 0.353812 0.638195 0
593 1 0.330656 0.645559 0
621 1 0.325779 0.670523 0
592 1 0.348395 0.662229 0
594 1 0.371744 0.655558 0
595 1 0.39541 0.648279 0
625 1 0.389489 0.673231 0
623 1 0.366718 0.680698 0
627 1 0.413253 0.666376 0
596 1 0.418579 0.640935 0
598 1 0.436934 0.658468 0
628 1 0.455275 0.675767 0
599 1 0.460249 0.65129 0
600 1 0.48477 0.642378 0
629 1 0.478029 0.667726 0
602 1 0.00318225 0.693363 0
633 1 0.0260174 0.70258 0
634 1 0.0301811 0.726571 0
604 1 0.0450687 0.68747 0
606 1 0.0693408 0.696105 0
635 1 0.0493402 0.711311 0
636 1 0.0720607 0.721732 0
637 1 0.0918027 0.707104 0
608 1 0.110686 0.692073 0
638 1 0.114751 0.716688 0
639 1 0.134975 0.702719 0
610 1 0.153622 0.68817 0
641 1 0.157048 0.713194 0
612 1 0.176723 0.698582 0
642 1 0.179829 0.722621 0
613 1 0.196182 0.683753 0
614 1 0.220595 0.693382 0
643 1 0.200972 0.708522 0
645 1 0.224339 0.718225 0
616 1 0.254271 0.692602 0
646 1 0.247625 0.716072 0
647 1 0.271708 0.709863 0
618 1 0.277592 0.685457 0
649 1 0.295684 0.703898 0
650 1 0.312871 0.720546 0
620 1 0.318479 0.695779 0
622 1 0.342727 0.688111 0
651 1 0.337357 0.712967 0
653 1 0.359951 0.705565 0
624 1 0.383315 0.698624 0
655 1 0.402739 0.716611 0
654 1 0.379121 0.722838 0
626 1 0.406865 0.691529 0
657 1 0.431166 0.68389 0
656 1 0.425962 0.708415 0
658 1 0.44896 0.700658 0
687 1 0.444935 0.725203 0
630 1 0.495811 0.685163 0
659 1 0.47338 0.69383 0
660 1 0.491101 0.710354 0
689 1 0.467666 0.718045 0
662 1 0.0124427 0.765232 0
663 1 0.0110523 0.74041 0
664 1 0.0329126 0.751512 0
665 1 0.0523821 0.736157 0
666 1 0.0751874 0.747105 0
695 1 0.0554976 0.761818 0
697 1 0.0777648 0.772451 0
667 1 0.0946806 0.732872 0
669 1 0.117461 0.742291 0
668 1 0.0968515 0.757329 0
699 1 0.119906 0.766258 0
640 1 0.13668 0.727287 0
671 1 0.159889 0.737048 0
670 1 0.139766 0.752146 0
672 1 0.162101 0.761505 0
673 1 0.182814 0.746504 0
644 1 0.203413 0.733221 0
674 1 0.206528 0.75743 0
703 1 0.184243 0.771431 0
675 1 0.23957 0.738806 0
705 1 0.230397 0.764222 0
677 1 0.263739 0.733802 0
676 1 0.257607 0.758348 0
648 1 0.288909 0.72769 0
679 1 0.306834 0.745152 0
678 1 0.28236 0.751583 0
709 1 0.300733 0.769701 0
652 1 0.354525 0.730659 0
680 1 0.324966 0.762045 0
681 1 0.33101 0.736891 0
682 1 0.348572 0.755141 0
683 1 0.372563 0.747044 0
684 1 0.390597 0.766277 0
685 1 0.396368 0.74163 0
713 1 0.365803 0.773532 0
715 1 0.415081 0.757622 0
686 1 0.421371 0.733323 0
717 1 0.439427 0.751047 0
718 1 0.457586 0.768346 0
688 1 0.463003 0.742565 0
690 1 0.48622 0.735001 0
719 1 0.481425 0.759836 0
694 1 0.0351159 0.775916 0
693 1 0.0151313 0.791144 0
692 1 0.0166712 0.814798 0
723 1 0.0381545 0.800815 0
696 1 0.0577015 0.785766 0
725 1 0.05974 0.811646 0
727 1 0.0799937 0.797355 0
698 1 0.100307 0.781464 0
728 1 0.102806 0.806985 0
700 1 0.122343 0.792097 0
729 1 0.124953 0.817384 0
701 1 0.142255 0.776 0
731 1 0.144087 0.802234 0
732 1 0.167406 0.811449 0
702 1 0.164464 0.786647 0
704 1 0.206157 0.781741 0
733 1 0.187268 0.797309 0
734 1 0.212029 0.806483 0
735 1 0.229006 0.788634 0
706 1 0.252983 0.782214 0
736 1 0.246216 0.80572 0
737 1 0.269589 0.800441 0
707 1 0.277256 0.775472 0
708 1 0.293823 0.794974 0
739 1 0.311593 0.811648 0
710 1 0.318181 0.787269 0
711 1 0.341774 0.780042 0
741 1 0.33595 0.804973 0
712 1 0.359639 0.797928 0
743 1 0.384465 0.790648 0
745 1 0.402591 0.807434 0
744 1 0.377696 0.816274 0
714 1 0.409267 0.783281 0
716 1 0.433459 0.775899 0
747 1 0.450556 0.793028 0
746 1 0.427699 0.801228 0
720 1 0.489562 0.782711 0
749 1 0.47376 0.802259 0
1621 1 0.49794 0.807195 0
722 1 0.0390214 0.825815 0
751 1 0.0189664 0.839971 0
753 1 0.041132 0.850181 0
726 1 0.0822621 0.821677 0
724 1 0.0623353 0.836118 0
755 1 0.0842015 0.846868 0
754 1 0.0637128 0.861033 0
756 1 0.106717 0.857042 0
757 1 0.104482 0.831638 0
759 1 0.127149 0.841437 0
730 1 0.147722 0.82716 0
760 1 0.151508 0.851058 0
761 1 0.170495 0.83624 0
791 1 0.174019 0.860931 0
763 1 0.190713 0.821488 0
762 1 0.19387 0.845655 0
764 1 0.214313 0.83113 0
795 1 0.227884 0.852723 0
767 1 0.263678 0.824039 0
765 1 0.238736 0.829931 0
766 1 0.256119 0.848007 0
738 1 0.287716 0.819294 0
768 1 0.281063 0.84251 0
769 1 0.305513 0.83656 0
799 1 0.297876 0.860176 0
742 1 0.35312 0.822311 0
770 1 0.322522 0.853607 0
740 1 0.32952 0.828612 0
771 1 0.346628 0.845973 0
773 1 0.370627 0.839792 0
774 1 0.395618 0.833415 0
803 1 0.387505 0.858003 0
776 1 0.420407 0.854314 0
775 1 0.418946 0.826413 0
777 1 0.439798 0.837541 0
778 1 0.446861 0.860707 0
748 1 0.454938 0.817711 0
750 1 0.481388 0.825782 0
779 1 0.46357 0.841772 0
780 1 0.488919 0.848929 0
752 1 0.0197835 0.864866 0
782 1 0.0221431 0.888386 0
783 1 0.0431246 0.874396 0
813 1 0.0455558 0.899393 0
785 1 0.0861749 0.871661 0
784 1 0.0654391 0.884987 0
786 1 0.0892722 0.896208 0
758 1 0.129173 0.866016 0
787 1 0.109967 0.881907 0
788 1 0.13311 0.8906 0
817 1 0.112129 0.90672 0
789 1 0.153248 0.875413 0
790 1 0.155048 0.900608 0
792 1 0.175815 0.885346 0
793 1 0.196309 0.870809 0
823 1 0.198435 0.894773 0
794 1 0.221026 0.881371 0
824 1 0.219739 0.90595 0
796 1 0.247175 0.872002 0
825 1 0.241751 0.897249 0
827 1 0.265322 0.890077 0
797 1 0.272394 0.866457 0
798 1 0.290169 0.883836 0
829 1 0.307339 0.901572 0
800 1 0.315513 0.877893 0
828 1 0.282797 0.907899 0
801 1 0.339073 0.871086 0
831 1 0.332154 0.895066 0
802 1 0.356659 0.88819 0
772 1 0.364212 0.864606 0
804 1 0.381951 0.883241 0
833 1 0.372628 0.906735 0
805 1 0.404918 0.87521 0
806 1 0.399449 0.899729 0
807 1 0.430056 0.878669 0
837 1 0.438126 0.901717 0
808 1 0.454232 0.883762 0
809 1 0.471696 0.865771 0
1681 1 0.496841 0.872957 0
810 1 0.479359 0.889754 0
839 1 0.462479 0.908316 0
812 1 0.0230795 0.914727 0
843 1 0.0269133 0.938765 0
841 1 0.0022765 0.928568 0
842 1 0.00753538 0.954855 0
815 1 0.0687021 0.909799 0
814 1 0.0485177 0.925073 0
844 1 0.0496366 0.94937 0
845 1 0.0703783 0.935644 0
816 1 0.0900808 0.921143 0
847 1 0.0941766 0.94577 0
818 1 0.113751 0.930665 0
819 1 0.135325 0.915713 0
849 1 0.137217 0.940278 0
821 1 0.177849 0.909799 0
820 1 0.157495 0.925277 0
850 1 0.159458 0.950754 0
851 1 0.179346 0.93569 0
822 1 0.199683 0.920481 0
853 1 0.202753 0.945677 0
855 1 0.22647 0.92954 0
854 1 0.224952 0.954579 0
826 1 0.258191 0.914854 0
856 1 0.249098 0.940517 0
857 1 0.275146 0.933021 0
858 1 0.294038 0.949528 0
859 1 0.300369 0.925321 0
860 1 0.317472 0.942604 0
832 1 0.349142 0.912756 0
830 1 0.325016 0.918225 0
861 1 0.341559 0.937177 0
863 1 0.364317 0.931387 0
834 1 0.389249 0.923806 0
865 1 0.40495 0.943404 0
864 1 0.381735 0.948923 0
835 1 0.417469 0.919666 0
838 1 0.445468 0.925894 0
836 1 0.428873 0.94269 0
867 1 0.452886 0.949511 0
1741 1 0.494386 0.937694 0
840 1 0.486836 0.912831 0
869 1 0.470291 0.931146 0
872 1 0.0162892 0.997482 0
873 1 0.0299584 0.967328 0
874 1 0.0394087 0.991725 0
846 1 0.0740916 0.959843 0
875 1 0.0537132 0.973324 0
876 1 0.0746647 0.986657 0
848 1 0.116022 0.95728 0
7 1 0.0982776 0.997478 0
877 1 0.0956101 0.972345 0
878 1 0.118886 0.982168 0
879 1 0.139124 0.966227 0
880 1 0.141721 0.99113 0
881 1 0.162587 0.975558 0
852 1 0.183128 0.960748 0
882 1 0.184711 0.986124 0
883 1 0.205644 0.970074 0
13 1 0.207164 0.995112 0
887 1 0.270085 0.956628 0
884 1 0.228084 0.979099 0
885 1 0.247238 0.965283 0
886 1 0.251769 0.98941 0
888 1 0.285612 0.97634 0
889 1 0.309058 0.968538 0
19 1 0.30241 0.994874 0
17 1 0.274787 0.999458 0
862 1 0.35762 0.955307 0
890 1 0.325892 0.987015 0
891 1 0.333261 0.961467 0
892 1 0.350349 0.980056 0
893 1 0.375091 0.97325 0
895 1 0.399762 0.967554 0
894 1 0.393846 0.992995 0
23 1 0.368435 0.997146 0
866 1 0.433872 0.967391 0
897 1 0.441428 0.990748 0
896 1 0.417347 0.985245 0
898 1 0.465873 0.997935 0
868 1 0.458899 0.973311 0
899 1 0.483502 0.9792 0
870 1 0.476484 0.956183 0
902 1 0.53848 0.016376 0
931 1 0.521628 0.0339767 0
901 1 0.514734 0.010407 0
933 1 0.54593 0.0394704 0
904 1 0.564145 0.0222388 0
935 1 0.589033 0.0293629 0
906 1 0.581439 0.00510133 0
934 1 0.570367 0.0460806 0
908 1 0.606844 0.0112338 0
937 1 0.612686 0.0348756 0
939 1 0.630496 0.0175568 0
938 1 0.63724 0.0414983 0
941 1 0.654821 0.0239775 0
912 1 0.672331 0.00614189 0
942 1 0.680036 0.0297325 0
910 1 0.648379 -0.0001592 0
943 1 0.697289 0.0131575 0
944 1 0.704537 0.0371945 0
945 1 0.721745 0.0202512 0
975 1 0.730159 0.0447916 0
947 1 0.745839 0.0263711 0
918 1 0.762587 0.00805436 0
948 1 0.771139 0.0312072 0
919 1 0.786981 0.00517498 0
949 1 0.793733 0.0418584 0
950 1 0.818666 0.038361 0
920 1 0.827988 0.0153803 0
951 1 0.843713 0.0343321 0
922 1 0.852868 0.0106224 0
953 1 0.867452 0.0294733 0
924 1 0.877039 0.0053267 0
955 1 0.892295 0.0243155 0
925 1 0.901129 0.000599554 0
956 1 0.909517 0.0422309 0
926 1 0.917478 0.0188567 0
928 1 0.941434 0.0136488 0
957 1 0.934103 0.0373124 0
930 1 0.983375 0.0257457 0
959 1 0.957828 0.0323268 0
929 1 0.966326 0.00847995 0
1 1 0.991575 0.00278164 0
932 1 0.528602 0.0579495 0
962 1 0.535793 0.0820862 0
961 1 0.511522 0.0756663 0
60 1 0.503955 0.0520868 0
963 1 0.553588 0.0638313 0
965 1 0.577418 0.0709054 0
964 1 0.559932 0.0887599 0
936 1 0.595068 0.0529126 0
966 1 0.601378 0.076141 0
967 1 0.61969 0.0590018 0
968 1 0.625415 0.0827639 0
940 1 0.662106 0.0479599 0
969 1 0.643587 0.0643664 0
970 1 0.668583 0.0716368 0
999 1 0.649617 0.0881049 0
971 1 0.686433 0.0539662 0
972 1 0.692673 0.0782114 0
973 1 0.71119 0.0610776 0
1003 1 0.717242 0.0849749 0
946 1 0.754211 0.0511995 0
974 1 0.735131 0.0686382 0
976 1 0.760443 0.0750134 0
977 1 0.782549 0.0652237 0
979 1 0.808094 0.0616502 0
978 1 0.800023 0.085815 0
980 1 0.824495 0.0806586 0
981 1 0.834456 0.057868 0
952 1 0.859758 0.0529072 0
954 1 0.884819 0.0471089 0
982 1 0.87794 0.0710927 0
983 1 0.902709 0.0659571 0
984 1 0.89389 0.0891288 0
985 1 0.918969 0.084166 0
987 1 0.925761 0.0609087 0
988 1 0.942484 0.0787447 0
958 1 0.951119 0.0558273 0
960 1 0.975825 0.049147 0
989 1 0.968038 0.0733537 0
61 1 0.99303 0.0671608 0
990 1 0.985516 0.0900326 0
991 1 0.517353 0.0996241 0
992 1 0.523962 0.124075 0
993 1 0.542494 0.106488 0
120 1 0.500764 0.117617 0
994 1 0.566062 0.112663 0
995 1 0.583674 0.0955334 0
1023 1 0.547918 0.130386 0
996 1 0.590733 0.118647 0
997 1 0.608733 0.100931 0
998 1 0.632264 0.106807 0
1027 1 0.614036 0.125378 0
1029 1 0.637786 0.130639 0
1000 1 0.656224 0.112837 0
1001 1 0.674762 0.0963721 0
1031 1 0.680947 0.120351 0
1002 1 0.698736 0.101938 0
1004 1 0.722824 0.109595 0
1033 1 0.705505 0.127267 0
1005 1 0.741869 0.0924797 0
1035 1 0.746905 0.116987 0
1034 1 0.72968 0.134535 0
1006 1 0.770914 0.120273 0
1007 1 0.773868 0.0950796 0
1008 1 0.795609 0.111801 0
1039 1 0.813232 0.129808 0
1009 1 0.820136 0.104901 0
1011 1 0.844579 0.0995887 0
1010 1 0.837922 0.123873 0
1012 1 0.861748 0.118531 0
1013 1 0.870127 0.0944591 0
1014 1 0.88717 0.112383 0
1016 1 0.903729 0.130605 0
1015 1 0.912072 0.107543 0
986 1 0.93675 0.103024 0
1017 1 0.928284 0.126137 0
1018 1 0.953115 0.120969 0
121 1 0.995244 0.131459 0
1019 1 0.960469 0.0967164 0
1020 1 0.978532 0.114011 0
1022 1 0.530304 0.148454 0
1053 1 0.536457 0.173673 0
1051 1 0.512589 0.166579 0
1021 1 0.506959 0.142126 0
1025 1 0.572333 0.137077 0
1024 1 0.553335 0.154624 0
1055 1 0.57813 0.161718 0
1054 1 0.561045 0.179035 0
1026 1 0.597094 0.143209 0
1028 1 0.620515 0.150069 0
1057 1 0.602586 0.168441 0
1058 1 0.626835 0.173971 0
1030 1 0.662542 0.137996 0
1059 1 0.644188 0.156229 0
1061 1 0.668703 0.16246 0
1060 1 0.651586 0.180608 0
1032 1 0.685964 0.144602 0
1063 1 0.710907 0.150434 0
1064 1 0.715795 0.174703 0
1062 1 0.691941 0.169266 0
1036 1 0.754783 0.141426 0
1065 1 0.734797 0.158699 0
1066 1 0.758126 0.166114 0
1037 1 0.789313 0.136234 0
1067 1 0.781616 0.161503 0
1038 1 0.805718 0.154453 0
1068 1 0.799404 0.17918 0
1069 1 0.823077 0.17256 0
1040 1 0.831 0.148174 0
1041 1 0.855071 0.142789 0
1071 1 0.847281 0.166345 0
1043 1 0.878922 0.136509 0
1042 1 0.872164 0.160646 0
1045 1 0.897686 0.154434 0
1044 1 0.890599 0.177716 0
1047 1 0.921516 0.149709 0
1049 1 0.946581 0.143621 0
1046 1 0.91379 0.173361 0
1048 1 0.938927 0.167682 0
1050 1 0.970792 0.137734 0
1079 1 0.963738 0.162061 0
151 1 0.988584 0.154799 0
1080 1 0.981431 0.179461 0
1052 1 0.519628 0.190952 0
1082 1 0.526136 0.215877 0
1081 1 0.502536 0.209618 0
1083 1 0.542875 0.197457 0
1084 1 0.549613 0.221489 0
1056 1 0.584381 0.185434 0
1085 1 0.567483 0.204764 0
1086 1 0.590906 0.209802 0
1087 1 0.608915 0.192419 0
1088 1 0.614273 0.216814 0
1089 1 0.633247 0.198822 0
1119 1 0.637351 0.222985 0
1091 1 0.674735 0.187099 0
1090 1 0.656488 0.204767 0
1092 1 0.680433 0.211197 0
1093 1 0.698445 0.193618 0
1094 1 0.722569 0.199706 0
1123 1 0.704077 0.2176 0
1095 1 0.73972 0.182429 0
1125 1 0.727384 0.225212 0
1096 1 0.745391 0.207166 0
1127 1 0.76946 0.209412 0
1097 1 0.774607 0.184317 0
1099 1 0.792978 0.203371 0
1100 1 0.810701 0.221103 0
1070 1 0.816531 0.197065 0
1072 1 0.841485 0.190727 0
1101 1 0.83412 0.213906 0
1103 1 0.858461 0.20823 0
1073 1 0.865646 0.184234 0
1074 1 0.882717 0.201632 0
1105 1 0.899478 0.221596 0
1075 1 0.906336 0.196853 0
1104 1 0.876099 0.226407 0
1077 1 0.931349 0.191151 0
1076 1 0.923924 0.214607 0
1107 1 0.948226 0.208991 0
1078 1 0.955892 0.185701 0
1109 1 0.972771 0.202874 0
211 1 0.990222 0.221945 0
181 1 0.997875 0.19832 0
1110 1 0.965778 0.227498 0
1111 1 0.508817 0.234202 0
1113 1 0.53203 0.240853 0
1112 1 0.513094 0.259234 0
1143 1 0.538108 0.264855 0
1115 1 0.573565 0.228822 0
1114 1 0.555583 0.246271 0
1116 1 0.579321 0.252905 0
1145 1 0.561392 0.270065 0
1117 1 0.597312 0.234491 0
1118 1 0.620853 0.241635 0
1147 1 0.601919 0.259802 0
1149 1 0.626817 0.265249 0
1121 1 0.661542 0.228717 0
1120 1 0.64421 0.246857 0
1151 1 0.667851 0.252883 0
1150 1 0.650147 0.27144 0
1122 1 0.685736 0.234953 0
1124 1 0.709907 0.242725 0
1153 1 0.691701 0.258553 0
1154 1 0.715713 0.266234 0
1126 1 0.753266 0.230331 0
1155 1 0.734312 0.248888 0
1157 1 0.756965 0.25805 0
1098 1 0.785628 0.228124 0
1128 1 0.780907 0.253194 0
1129 1 0.804363 0.246922 0
1159 1 0.797863 0.270361 0
1102 1 0.851656 0.232323 0
1131 1 0.82837 0.239109 0
1130 1 0.82202 0.265076 0
1132 1 0.844979 0.257198 0
1133 1 0.86928 0.249913 0
1135 1 0.892989 0.245408 0
1134 1 0.886646 0.268671 0
1136 1 0.910595 0.262897 0
1108 1 0.941715 0.234382 0
1106 1 0.917616 0.239264 0