ITEM: TIMESTEP
78000
ITEM: NUMBER OF ATOMS
1800
ITEM: BOX BOUNDS pp pp pp
8.0797515803376996e-01 1.6419202484196725e+02
8.0797515803376996e-01 1.6419202484196725e+02
0.0000000000000000e+00 5.5000000000000000e+00
ITEM: ATOMS id type xs ys zs
2 1 0.0158628 0.0196497 0
3 1 0.0405347 0.01444 0
33 1 0.0317564 0.0382346 0
31 1 0.00708847 0.0428587 0
4 1 0.0560417 0.0337729 0
5 1 0.0657301 0.0113293 0
6 1 0.0808094 0.0326593 0
8 1 0.102285 0.0204587 0
9 1 0.120924 0.00619491 0
39 1 0.124786 0.0309254 0
10 1 0.144155 0.015727 0
41 1 0.166532 0.0255595 0
40 1 0.147845 0.0405371 0
11 1 0.163093 0.00057894 0
12 1 0.185544 0.0111325 0
43 1 0.189359 0.0352193 0
14 1 0.209166 0.0194615 0
44 1 0.212564 0.0433065 0
15 1 0.229134 0.00360755 0
45 1 0.233045 0.0281354 0
16 1 0.254061 0.011808 0
46 1 0.256155 0.0368346 0
18 1 0.276895 0.0200437 0
49 1 0.301615 0.0284508 0
20 1 0.313738 0.00623554 0
47 1 0.279152 0.0450092 0
51 1 0.326824 0.0264701 0
22 1 0.35188 0.0219066 0
21 1 0.338511 0.00241904 0
24 1 0.378189 0.0186101 0
25 1 0.403086 0.016348 0
55 1 0.39216 0.04319 0
53 1 0.367691 0.0413858 0
26 1 0.435347 0.0360658 0
27 1 0.426644 0.0121492 0
28 1 0.458807 0.0412029 0
29 1 0.475499 0.0239044 0
900 1 0.492605 0.00648435 0
898 1 0.463726 0.00304568 0
32 1 0.0235232 0.061986 0
63 1 0.0387838 0.0821556 0
62 1 0.0148563 0.0858224 0
34 1 0.048237 0.0577103 0
35 1 0.0725434 0.0548808 0
65 1 0.0634874 0.0782511 0
36 1 0.0870945 0.0748942 0
37 1 0.103945 0.0461749 0
38 1 0.110699 0.0707492 0
69 1 0.129038 0.0549523 0
68 1 0.128745 0.0883952 0
71 1 0.150403 0.0670227 0
42 1 0.170077 0.0508494 0
72 1 0.173556 0.0769489 0
73 1 0.193275 0.0601472 0
74 1 0.215835 0.0686979 0
103 1 0.196186 0.0863108 0
75 1 0.235358 0.0519624 0
77 1 0.258056 0.0614259 0
76 1 0.238817 0.0772022 0
107 1 0.260898 0.0860799 0
48 1 0.281401 0.0696724 0
79 1 0.304533 0.0777227 0
50 1 0.30181 0.0537033 0
52 1 0.34241 0.0449219 0
81 1 0.32416 0.0627577 0
82 1 0.349194 0.0690202 0
80 1 0.328343 0.0869761 0
83 1 0.374579 0.0643766 0
54 1 0.398569 0.0686251 0
113 1 0.381695 0.0880399 0
57 1 0.441335 0.0592677 0
56 1 0.417043 0.0516935 0
85 1 0.423156 0.0752692 0
87 1 0.447778 0.0819543 0
59 1 0.482241 0.0472742 0
58 1 0.465877 0.0642873 0
89 1 0.488761 0.0715147 0
88 1 0.471822 0.0889782 0
92 1 0.0212681 0.129463 0
93 1 0.0299251 0.105189 0
91 1 0.00680276 0.109552 0
94 1 0.045759 0.124861 0
66 1 0.0797501 0.098345 0
64 1 0.0555105 0.101374 0
95 1 0.0708251 0.121912 0
67 1 0.103911 0.0944702 0
97 1 0.094974 0.117487 0
99 1 0.121273 0.113535 0
70 1 0.153452 0.0913856 0
100 1 0.154611 0.118421 0
101 1 0.176159 0.102283 0
131 1 0.178179 0.127309 0
102 1 0.198821 0.111158 0
104 1 0.222517 0.119131 0
105 1 0.21924 0.0945095 0
133 1 0.202153 0.134459 0
106 1 0.242374 0.101789 0
135 1 0.245715 0.127516 0
137 1 0.265024 0.109762 0
136 1 0.268791 0.134584 0
78 1 0.283942 0.0935337 0
108 1 0.287339 0.118709 0
109 1 0.306484 0.103418 0
139 1 0.309619 0.128624 0
110 1 0.328665 0.111406 0
111 1 0.352854 0.094711 0
141 1 0.352125 0.119184 0
140 1 0.333715 0.136977 0
84 1 0.406494 0.0928245 0
112 1 0.389956 0.110167 0
143 1 0.374467 0.128414 0
114 1 0.397168 0.134489 0
115 1 0.413592 0.117087 0
86 1 0.430994 0.100153 0
116 1 0.43683 0.124091 0
117 1 0.454754 0.106173 0
118 1 0.46133 0.13017 0
90 1 0.495519 0.0963466 0
119 1 0.478405 0.113131 0
123 1 0.0376954 0.14844 0
122 1 0.012832 0.152074 0
153 1 0.0269269 0.172508 0
152 1 0.00235416 0.175903 0
125 1 0.0612134 0.14458 0
124 1 0.0517162 0.168397 0
126 1 0.0762396 0.164334 0
96 1 0.0850147 0.141703 0
129 1 0.135744 0.136954 0
98 1 0.110324 0.136508 0
127 1 0.103351 0.160169 0
128 1 0.120154 0.180918 0
159 1 0.140772 0.162101 0
130 1 0.160081 0.144854 0
161 1 0.164857 0.168765 0
132 1 0.183828 0.151146 0
163 1 0.208586 0.158479 0
162 1 0.189202 0.177133 0
134 1 0.22654 0.142698 0
164 1 0.231362 0.16859 0
165 1 0.249564 0.15146 0
166 1 0.254983 0.177542 0
167 1 0.272917 0.160585 0
138 1 0.291536 0.144272 0
169 1 0.315315 0.152436 0
168 1 0.296769 0.168555 0
170 1 0.320187 0.177465 0
142 1 0.356829 0.144587 0
171 1 0.338188 0.160849 0
172 1 0.361928 0.169453 0
144 1 0.402878 0.15929 0
173 1 0.37998 0.15259 0
174 1 0.386302 0.176671 0
145 1 0.419971 0.141042 0
146 1 0.426582 0.165903 0
147 1 0.443642 0.148828 0
177 1 0.449792 0.172829 0
149 1 0.484148 0.138275 0
148 1 0.467488 0.155326 0
150 1 0.491712 0.162499 0
179 1 0.473705 0.179477 0
183 1 0.0183292 0.195373 0
182 1 0.0088191 0.217439 0
184 1 0.0331517 0.214029 0
154 1 0.0439604 0.192062 0
155 1 0.0686482 0.188205 0
185 1 0.0594601 0.211396 0
156 1 0.0835314 0.208777 0
157 1 0.0927499 0.182773 0
158 1 0.10699 0.202407 0
187 1 0.111749 0.226021 0
189 1 0.131183 0.207504 0
160 1 0.146729 0.186809 0
191 1 0.17045 0.194806 0
190 1 0.154324 0.213975 0
221 1 0.176988 0.219809 0
193 1 0.212954 0.186058 0
192 1 0.19422 0.203139 0
194 1 0.21835 0.210033 0
195 1 0.236997 0.193976 0
196 1 0.260763 0.202927 0
225 1 0.241776 0.218678 0
197 1 0.27861 0.186519 0
199 1 0.302307 0.193893 0
198 1 0.284271 0.210404 0
229 1 0.307477 0.218705 0
201 1 0.343552 0.18527 0
200 1 0.325094 0.202123 0
202 1 0.349409 0.210172 0
231 1 0.332109 0.226974 0
203 1 0.367155 0.193 0
233 1 0.372929 0.217058 0
204 1 0.391486 0.200972 0
235 1 0.396851 0.224957 0
175 1 0.410152 0.183356 0
176 1 0.432903 0.189938 0
205 1 0.415135 0.207786 0
207 1 0.438381 0.21407 0
178 1 0.456687 0.196542 0
208 1 0.461239 0.221252 0
209 1 0.480678 0.203356 0
180 1 0.497465 0.186206 0
213 1 0.0233776 0.237041 0
243 1 0.0138535 0.259916 0
214 1 0.0404413 0.255972 0
186 1 0.0735308 0.233664 0
215 1 0.0484033 0.232981 0
216 1 0.0749598 0.26052 0
217 1 0.0946221 0.24383 0
218 1 0.118851 0.250814 0
247 1 0.0994758 0.267437 0
188 1 0.135586 0.232245 0
219 1 0.141883 0.256457 0
220 1 0.159388 0.239144 0
251 1 0.164965 0.263804 0
222 1 0.182452 0.245354 0
223 1 0.200565 0.22759 0
224 1 0.224874 0.235891 0
253 1 0.205753 0.25232 0
252 1 0.188144 0.269686 0
227 1 0.266132 0.227376 0
255 1 0.229491 0.260954 0
226 1 0.247804 0.243765 0
256 1 0.252424 0.269186 0
257 1 0.270991 0.252627 0
228 1 0.288144 0.234895 0
230 1 0.313616 0.243224 0
259 1 0.295381 0.259439 0
260 1 0.319581 0.266862 0
232 1 0.355207 0.234811 0
261 1 0.337041 0.250804 0
263 1 0.360831 0.258913 0
234 1 0.378236 0.242038 0
265 1 0.401648 0.248809 0
264 1 0.3845 0.266239 0
266 1 0.408152 0.272313 0
206 1 0.419508 0.232183 0
236 1 0.426566 0.255683 0
237 1 0.444001 0.238549 0
238 1 0.450386 0.262676 0
210 1 0.485894 0.227419 0
239 1 0.468246 0.245684 0
240 1 0.491564 0.251348 0
269 1 0.475037 0.26921 0
244 1 0.0302659 0.277779 0
242 1 0.0060622 0.284783 0
271 1 0.0216263 0.317035 0
273 1 0.0401523 0.299726 0
245 1 0.0559766 0.277228 0
246 1 0.0812851 0.284251 0
275 1 0.0652174 0.302878 0
276 1 0.0886335 0.310056 0
249 1 0.122702 0.27456 0
248 1 0.105742 0.292171 0
277 1 0.112636 0.317043 0
279 1 0.1299 0.29898 0
250 1 0.146734 0.281023 0
280 1 0.153606 0.305699 0
281 1 0.171167 0.287725 0
282 1 0.176583 0.313066 0
254 1 0.212201 0.278164 0
283 1 0.194201 0.295661 0
284 1 0.217489 0.302996 0
285 1 0.234765 0.285474 0
287 1 0.258818 0.293007 0
286 1 0.241466 0.309966 0
258 1 0.277535 0.276762 0
288 1 0.283982 0.301029 0
289 1 0.301441 0.284628 0
290 1 0.307182 0.308473 0
262 1 0.343272 0.275736 0
291 1 0.325363 0.290985 0
292 1 0.348438 0.299985 0
293 1 0.367088 0.282457 0
294 1 0.372822 0.307088 0
295 1 0.390679 0.289899 0
296 1 0.397638 0.31393 0
297 1 0.414165 0.295958 0
267 1 0.432425 0.279808 0
298 1 0.438844 0.30279 0
268 1 0.457334 0.286632 0
299 1 0.4613 0.311835 0
1141 1 0.497993 0.276009 0
270 1 0.480949 0.294417 0
300 1 0.486271 0.318766 0
1200 1 0.00360842 0.33437 0
301 1 0.0289611 0.340295 0
1230 1 0.0119765 0.357937 0
272 1 0.0465657 0.322839 0
303 1 0.0533339 0.346884 0
274 1 0.0706271 0.32691 0
304 1 0.0773408 0.352458 0
305 1 0.0939858 0.333728 0
306 1 0.100815 0.358722 0
307 1 0.118546 0.34134 0
278 1 0.135886 0.323607 0
309 1 0.141928 0.347057 0
311 1 0.159345 0.329923 0
310 1 0.165669 0.354268 0
313 1 0.200648 0.320483 0
312 1 0.182993 0.336879 0
314 1 0.206493 0.344238 0
315 1 0.224276 0.327244 0
343 1 0.189221 0.360619 0
317 1 0.265779 0.316787 0
345 1 0.232074 0.351341 0
316 1 0.248265 0.334121 0
318 1 0.270679 0.341749 0
319 1 0.289058 0.32517 0
320 1 0.307972 0.354965 0
321 1 0.311924 0.332199 0
349 1 0.285411 0.36097 0
323 1 0.333381 0.318947 0
322 1 0.332374 0.344794 0
324 1 0.355812 0.335183 0
353 1 0.350278 0.362501 0
325 1 0.380569 0.330814 0
355 1 0.374046 0.355268 0
326 1 0.397653 0.349613 0
327 1 0.421241 0.318299 0
328 1 0.420656 0.341338 0
329 1 0.443644 0.330055 0
359 1 0.439929 0.355805 0
1201 1 0.489282 0.342327 0
330 1 0.463508 0.347123 0
302 1 0.0354007 0.363736 0
1290 1 0.00148513 0.401678 0
332 1 0.0424619 0.387864 0
361 1 0.0256178 0.406374 0
331 1 0.0171896 0.382045 0
333 1 0.0606892 0.370257 0
335 1 0.0851537 0.377033 0
334 1 0.0665579 0.394698 0
336 1 0.0920853 0.401046 0
308 1 0.1258 0.365016 0
337 1 0.109116 0.383415 0
338 1 0.133179 0.390127 0
367 1 0.116542 0.406641 0
339 1 0.149103 0.371863 0
341 1 0.17264 0.37739 0
340 1 0.157955 0.396181 0
371 1 0.181365 0.405961 0
342 1 0.194907 0.38499 0
344 1 0.21268 0.367677 0
373 1 0.207069 0.406545 0
375 1 0.230873 0.398414 0
347 1 0.259963 0.366465 0
346 1 0.237237 0.375381 0
377 1 0.255056 0.391265 0
378 1 0.27228 0.408894 0
348 1 0.27849 0.384219 0
350 1 0.302683 0.378614 0
379 1 0.296462 0.401709 0
381 1 0.31972 0.395484 0
351 1 0.32623 0.370932 0
352 1 0.343833 0.386777 0
383 1 0.362408 0.403251 0
354 1 0.368623 0.379293 0
385 1 0.386665 0.396867 0
356 1 0.391952 0.37283 0
387 1 0.410098 0.389189 0
357 1 0.4156 0.365116 0
358 1 0.434614 0.381792 0
389 1 0.452814 0.398155 0
388 1 0.428485 0.406168 0
1263 1 0.49999 0.383405 0
1231 1 0.482117 0.365427 0
360 1 0.458024 0.373944 0
1232 1 0.475764 0.389937 0
1262 1 0.493204 0.40781 0
362 1 0.0334506 0.430221 0
392 1 0.0172311 0.448093 0
391 1 0.00885968 0.424743 0
393 1 0.0412728 0.453912 0
363 1 0.0491741 0.412658 0
364 1 0.0577538 0.435552 0
365 1 0.075336 0.417823 0
395 1 0.0820385 0.441526 0
366 1 0.0992695 0.423927 0
397 1 0.107344 0.447147 0
368 1 0.124231 0.430132 0
399 1 0.133258 0.453895 0
369 1 0.140796 0.413227 0
370 1 0.149624 0.436028 0
401 1 0.175667 0.432171 0
372 1 0.200548 0.429652 0
403 1 0.218174 0.446523 0
374 1 0.225079 0.422297 0
402 1 0.193417 0.453577 0
376 1 0.248548 0.415607 0
405 1 0.241691 0.440728 0
407 1 0.26603 0.432784 0
409 1 0.289809 0.425825 0
410 1 0.307789 0.443424 0
380 1 0.314355 0.419515 0
408 1 0.284832 0.450403 0
382 1 0.338163 0.411478 0
411 1 0.333155 0.435374 0
413 1 0.356785 0.427689 0
412 1 0.350431 0.45319 0
384 1 0.379953 0.420147 0
414 1 0.374667 0.444194 0
415 1 0.398632 0.436945 0
386 1 0.404694 0.413656 0
417 1 0.422318 0.430085 0
419 1 0.447526 0.422586 0
418 1 0.440359 0.447672 0
1261 1 0.470154 0.415213 0
390 1 0.464613 0.440087 0
1291 1 0.48854 0.433285 0
451 1 0.00833731 0.49161 0
453 1 0.0329698 0.497505 0
422 1 0.0254632 0.47395 0
421 1 0.00189256 0.46751 0
423 1 0.0492688 0.477642 0
394 1 0.0657247 0.458963 0
396 1 0.0899427 0.464237 0
425 1 0.0729608 0.483941 0
398 1 0.11504 0.469527 0
427 1 0.0974708 0.486692 0
428 1 0.122494 0.492343 0
429 1 0.140972 0.475868 0
400 1 0.161084 0.458313 0
431 1 0.164793 0.482279 0
430 1 0.147438 0.499803 0
432 1 0.188209 0.478185 0
433 1 0.212173 0.471257 0
434 1 0.2063 0.495103 0
435 1 0.229899 0.488271 0
404 1 0.235606 0.464285 0
406 1 0.259414 0.458123 0
436 1 0.253686 0.481625 0
467 1 0.273651 0.498497 0
437 1 0.278994 0.474115 0
438 1 0.296566 0.492342 0
439 1 0.302939 0.466651 0
440 1 0.320702 0.484284 0
441 1 0.326817 0.459917 0
442 1 0.345452 0.476857 0
473 1 0.363902 0.493326 0
443 1 0.368826 0.468937 0
445 1 0.392249 0.462156 0
444 1 0.387521 0.48595 0
446 1 0.410837 0.479302 0
416 1 0.415975 0.454499 0
447 1 0.434654 0.471507 0
448 1 0.42821 0.497437 0
449 1 0.452168 0.489387 0
1351 1 0.494785 0.498693 0
450 1 0.475925 0.481763 0
1321 1 0.482125 0.457469 0
420 1 0.459067 0.464386 0
452 1 0.0154544 0.514833 0
483 1 0.0216817 0.53829 0
454 1 0.0396456 0.522636 0
455 1 0.064321 0.529102 0
456 1 0.0877528 0.540283 0
426 1 0.0789508 0.509068 0
424 1 0.0564073 0.503662 0
458 1 0.110539 0.53171 0
459 1 0.128808 0.515885 0
457 1 0.104245 0.509538 0
489 1 0.134218 0.539846 0
460 1 0.152701 0.523804 0
462 1 0.1774 0.530935 0
461 1 0.18119 0.502413 0
463 1 0.200633 0.518618 0
495 1 0.22115 0.535777 0
464 1 0.224666 0.511993 0
493 1 0.197793 0.543316 0
466 1 0.244672 0.53051 0
497 1 0.267908 0.522492 0
465 1 0.248253 0.505791 0
468 1 0.291584 0.517185 0
499 1 0.310018 0.534635 0
469 1 0.315252 0.50897 0
498 1 0.285446 0.540749 0
470 1 0.333043 0.52725 0
472 1 0.357339 0.519845 0
471 1 0.33872 0.502034 0
501 1 0.352191 0.54432 0
503 1 0.375421 0.537147 0
474 1 0.381619 0.511992 0
475 1 0.404554 0.503891 0
476 1 0.398825 0.529305 0
477 1 0.422889 0.520837 0
478 1 0.446809 0.513925 0
507 1 0.44137 0.537894 0
480 1 0.464694 0.531231 0
479 1 0.469862 0.505882 0
1381 1 0.4883 0.521725 0
513 1 0.0255171 0.562427 0
512 1 0.0287873 0.587643 0
541 1 0.00541557 0.579777 0
482 1 0.00250878 0.556282 0
485 1 0.0458703 0.546377 0
486 1 0.0680769 0.557883 0
484 1 0.048453 0.571985 0
515 1 0.0722765 0.581789 0
487 1 0.0920877 0.566366 0
488 1 0.114006 0.555699 0
519 1 0.117079 0.579511 0
490 1 0.137638 0.563774 0
491 1 0.157696 0.548503 0
520 1 0.140641 0.588028 0
521 1 0.16072 0.573503 0
492 1 0.180145 0.558287 0
523 1 0.183914 0.582072 0
494 1 0.207131 0.567431 0
525 1 0.230319 0.578244 0
496 1 0.237203 0.555048 0
526 1 0.255512 0.572453 0
527 1 0.262201 0.548236 0
528 1 0.279662 0.566415 0
529 1 0.303907 0.55873 0
559 1 0.298075 0.583376 0
558 1 0.274771 0.591375 0
530 1 0.321442 0.575613 0
500 1 0.328196 0.551558 0
531 1 0.345737 0.568713 0
533 1 0.363171 0.585642 0
502 1 0.369336 0.561722 0
505 1 0.393557 0.554332 0
504 1 0.387028 0.578098 0
535 1 0.410998 0.570914 0
506 1 0.417616 0.54583 0
508 1 0.434814 0.563272 0
539 1 0.451893 0.581097 0
537 1 0.42809 0.588211 0
1411 1 0.500159 0.565067 0
509 1 0.458573 0.555379 0
510 1 0.482546 0.547603 0
540 1 0.475343 0.573026 0
1441 1 0.49265 0.590862 0
542 1 0.0106396 0.603452 0
571 1 0.0128367 0.628365 0
543 1 0.0334723 0.613454 0
514 1 0.0521918 0.597659 0
516 1 0.077771 0.607807 0
545 1 0.0568495 0.622718 0
546 1 0.0804427 0.632738 0
517 1 0.0961869 0.59219 0
518 1 0.121049 0.604533 0
547 1 0.100389 0.618824 0
548 1 0.12387 0.628474 0
522 1 0.163701 0.597444 0
549 1 0.143871 0.612675 0
551 1 0.166508 0.621975 0
524 1 0.206613 0.592019 0
553 1 0.18583 0.60646 0
552 1 0.188834 0.632292 0
554 1 0.20782 0.61755 0
555 1 0.228247 0.603975 0
556 1 0.243994 0.623692 0
557 1 0.251033 0.597007 0
587 1 0.266825 0.616052 0
560 1 0.291583 0.608591 0
591 1 0.310651 0.626372 0
561 1 0.315174 0.601134 0
589 1 0.28606 0.632411 0
532 1 0.339234 0.593805 0
562 1 0.333068 0.618358 0
563 1 0.356401 0.611622 0
564 1 0.351703 0.63588 0
534 1 0.380611 0.603223 0
536 1 0.404089 0.596381 0
566 1 0.398242 0.62173 0
565 1 0.37433 0.629074 0
567 1 0.421909 0.614309 0
538 1 0.445733 0.605357 0
597 1 0.43987 0.63114 0
568 1 0.463436 0.623189 0
569 1 0.468641 0.597984 0
570 1 0.487143 0.615887 0
544 1 0.0383123 0.637283 0
573 1 0.0190537 0.652536 0
603 1 0.0218409 0.677734 0
574 1 0.041889 0.662391 0
575 1 0.0611653 0.646921 0
605 1 0.0657638 0.671649 0
576 1 0.0847582 0.656901 0
607 1 0.0881136 0.681691 0
577 1 0.103102 0.64229 0
578 1 0.107336 0.666936 0
579 1 0.126844 0.652443 0
609 1 0.130178 0.67638 0
550 1 0.146303 0.636828 0
581 1 0.16915 0.646374 0
580 1 0.149433 0.660939 0
611 1 0.171898 0.671483 0
583 1 0.211921 0.641897 0
582 1 0.190538 0.656129 0
584 1 0.212769 0.66601 0
613 1 0.194102 0.681074 0
585 1 0.235856 0.649095 0
586 1 0.261306 0.640881 0
615 1 0.23502 0.674405 0
617 1 0.258626 0.6655 0
588 1 0.280908 0.656258 0
590 1 0.304981 0.650271 0
619 1 0.298636 0.674698 0
618 1 0.275607 0.682677 0
593 1 0.32865 0.643751 0
621 1 0.322185 0.66838 0
592 1 0.345303 0.66125 0
623 1 0.36386 0.678424 0
594 1 0.369369 0.653319 0
595 1 0.392861 0.646283 0
625 1 0.387493 0.67106 0
627 1 0.411146 0.664338 0
596 1 0.415893 0.6394 0
598 1 0.434601 0.656647 0
628 1 0.453632 0.674585 0
599 1 0.45776 0.649485 0
600 1 0.481875 0.641 0
629 1 0.476328 0.665382 0
633 1 0.0275718 0.701289 0
602 1 0.00364326 0.695771 0
634 1 0.029551 0.72557 0
604 1 0.0464023 0.686227 0
606 1 0.0699311 0.696827 0
635 1 0.0496642 0.711755 0
636 1 0.0718588 0.721864 0
637 1 0.091879 0.707452 0
608 1 0.110618 0.691197 0
638 1 0.114408 0.716438 0
639 1 0.13325 0.701634 0
610 1 0.152783 0.685984 0
641 1 0.15644 0.71128 0
612 1 0.17533 0.695607 0
642 1 0.178959 0.721198 0
640 1 0.136486 0.727589 0
614 1 0.217765 0.691005 0
643 1 0.198177 0.706123 0
645 1 0.220749 0.71482 0
616 1 0.25232 0.690721 0
646 1 0.245834 0.71517 0
647 1 0.270008 0.707799 0
649 1 0.292634 0.699464 0
650 1 0.311899 0.717812 0
648 1 0.288495 0.724355 0
620 1 0.316594 0.693287 0
622 1 0.339605 0.685528 0
651 1 0.335254 0.711465 0
653 1 0.357779 0.703488 0
624 1 0.381787 0.695919 0
655 1 0.401835 0.713645 0
654 1 0.37713 0.720372 0
626 1 0.405799 0.689332 0
657 1 0.429766 0.683058 0
656 1 0.425465 0.70806 0
658 1 0.448507 0.69891 0
687 1 0.443599 0.7243 0
630 1 0.494878 0.682377 0
659 1 0.471546 0.6911 0
660 1 0.490845 0.708164 0
689 1 0.467871 0.716125 0
663 1 0.0104363 0.740898 0
662 1 0.0120156 0.765856 0
664 1 0.0323845 0.750575 0
665 1 0.0517997 0.735701 0
666 1 0.0742405 0.747011 0
695 1 0.0544028 0.76146 0
697 1 0.0768094 0.772261 0
667 1 0.0941525 0.731384 0
669 1 0.116367 0.741943 0
668 1 0.0963706 0.756776 0
699 1 0.119622 0.766441 0
671 1 0.160067 0.737082 0
670 1 0.139248 0.751314 0
672 1 0.162811 0.761313 0
673 1 0.183597 0.74572 0
644 1 0.202761 0.730977 0
674 1 0.207641 0.754856 0
703 1 0.185843 0.770464 0
675 1 0.228032 0.739317 0
705 1 0.232134 0.764351 0
677 1 0.263891 0.731111 0
676 1 0.257024 0.756517 0
679 1 0.30624 0.742093 0
678 1 0.280794 0.749361 0
709 1 0.300755 0.766192 0
707 1 0.276888 0.773829 0
680 1 0.324395 0.759934 0
652 1 0.354261 0.728041 0
681 1 0.329206 0.735361 0
682 1 0.348161 0.752329 0
683 1 0.372525 0.744876 0
685 1 0.396889 0.738053 0
684 1 0.391328 0.762771 0
713 1 0.36739 0.770278 0
715 1 0.415024 0.757252 0
686 1 0.420373 0.732434 0
717 1 0.439933 0.749183 0
718 1 0.457987 0.767073 0
688 1 0.463766 0.740614 0
690 1 0.488325 0.733741 0
719 1 0.481517 0.758079 0
694 1 0.0338635 0.776442 0
693 1 0.0149298 0.792571 0
692 1 0.013962 0.816524 0
723 1 0.0377342 0.801528 0
696 1 0.0569592 0.785653 0
725 1 0.0588408 0.81251 0
727 1 0.078961 0.796533 0
698 1 0.0993484 0.781039 0
728 1 0.10172 0.806495 0
700 1 0.121898 0.791705 0
729 1 0.12533 0.815827 0
701 1 0.14201 0.775665 0
731 1 0.145417 0.800763 0
732 1 0.168107 0.809925 0
702 1 0.164924 0.785616 0
704 1 0.207717 0.780561 0
733 1 0.187993 0.795404 0
734 1 0.211079 0.805388 0
735 1 0.230017 0.78865 0
706 1 0.252586 0.780241 0
736 1 0.24782 0.804381 0
737 1 0.27037 0.798695 0
708 1 0.295054 0.790917 0
739 1 0.312613 0.809481 0
738 1 0.288619 0.815191 0
710 1 0.318367 0.784474 0
711 1 0.343169 0.777342 0
712 1 0.361289 0.794268 0
741 1 0.336975 0.801258 0
743 1 0.384404 0.787338 0
745 1 0.402984 0.805934 0
744 1 0.378995 0.813346 0
716 1 0.433146 0.774229 0
714 1 0.408999 0.78164 0
747 1 0.452117 0.790392 0
746 1 0.427467 0.798302 0
748 1 0.446445 0.815448 0
720 1 0.476989 0.782585 0
749 1 0.469903 0.806691 0
1621 1 0.496833 0.811435 0
722 1 0.0394888 0.825848 0
751 1 0.0201097 0.840103 0
753 1 0.0419674 0.851539 0
726 1 0.0816617 0.821292 0
724 1 0.0616444 0.836689 0
754 1 0.0640314 0.861227 0
755 1 0.0841465 0.845485 0
756 1 0.105991 0.855958 0
757 1 0.105401 0.83163 0
759 1 0.127349 0.841625 0
730 1 0.147875 0.825509 0
760 1 0.149627 0.85091 0
761 1 0.171021 0.835127 0
791 1 0.17266 0.860515 0
763 1 0.190161 0.820263 0
762 1 0.193268 0.846818 0
764 1 0.213787 0.830025 0
795 1 0.216966 0.855724 0
767 1 0.264813 0.822391 0
765 1 0.238487 0.827674 0
766 1 0.256768 0.846035 0
768 1 0.28111 0.839764 0
769 1 0.306132 0.834335 0
799 1 0.298876 0.858171 0
797 1 0.273688 0.864603 0
770 1 0.324385 0.852393 0
740 1 0.330999 0.826587 0
771 1 0.348709 0.844493 0
742 1 0.355353 0.819322 0
773 1 0.371929 0.838014 0
774 1 0.396296 0.831895 0
803 1 0.389005 0.856731 0
772 1 0.365759 0.864603 0
775 1 0.42119 0.822738 0
777 1 0.439507 0.839872 0
776 1 0.414625 0.849016 0
750 1 0.481047 0.829983 0
779 1 0.462926 0.84716 0
780 1 0.488005 0.853883 0
752 1 0.0185674 0.864241 0
782 1 0.0175579 0.888959 0
783 1 0.0422666 0.875785 0
813 1 0.0435136 0.901322 0
785 1 0.0856084 0.871229 0
784 1 0.0645587 0.887315 0
786 1 0.0871641 0.897031 0
758 1 0.129309 0.866162 0
787 1 0.10888 0.881306 0
788 1 0.131028 0.891322 0
817 1 0.109394 0.90633 0
789 1 0.151998 0.8755 0
790 1 0.153757 0.900552 0
792 1 0.173593 0.88527 0
793 1 0.195463 0.871308 0
823 1 0.196443 0.895288 0
794 1 0.218285 0.880437 0
824 1 0.218582 0.905726 0
796 1 0.241694 0.866263 0
825 1 0.240392 0.891935 0
827 1 0.265195 0.887683 0
798 1 0.290912 0.881106 0
829 1 0.307256 0.89926 0
828 1 0.281923 0.904465 0
800 1 0.316273 0.875248 0
801 1 0.341 0.870714 0
831 1 0.331501 0.895282 0
802 1 0.356549 0.889071 0
805 1 0.406324 0.874259 0
804 1 0.383099 0.882968 0
806 1 0.411707 0.901334 0
778 1 0.446646 0.864451 0
807 1 0.429535 0.883301 0
808 1 0.453946 0.888509 0
837 1 0.437346 0.906706 0
809 1 0.470421 0.870594 0
1681 1 0.495464 0.876525 0
810 1 0.479049 0.894689 0
812 1 0.00540524 0.911434 0
843 1 0.0227875 0.928102 0
844 1 0.0369552 0.948673 0
842 1 0.012817 0.953826 0
814 1 0.0473025 0.926295 0
815 1 0.0666508 0.911994 0
845 1 0.0697541 0.93731 0
816 1 0.0894428 0.921309 0
847 1 0.0937032 0.946085 0
818 1 0.112205 0.930741 0
819 1 0.132903 0.915178 0
849 1 0.135034 0.94135 0
821 1 0.176068 0.909897 0
820 1 0.15573 0.924967 0
850 1 0.157795 0.950571 0
851 1 0.177297 0.934807 0
822 1 0.197335 0.920113 0
853 1 0.199854 0.944637 0
855 1 0.219793 0.9307 0
826 1 0.256118 0.911766 0
856 1 0.245603 0.936912 0
887 1 0.265953 0.951247 0
857 1 0.274225 0.927642 0
859 1 0.299175 0.922371 0
858 1 0.290426 0.945951 0
860 1 0.314876 0.941843 0
832 1 0.348306 0.913113 0
830 1 0.323808 0.918118 0
861 1 0.339929 0.937298 0
833 1 0.373795 0.906497 0
863 1 0.365026 0.931995 0
834 1 0.390108 0.928009 0
865 1 0.405028 0.948913 0
864 1 0.380687 0.9508 0
835 1 0.418143 0.925283 0
838 1 0.445007 0.930929 0
836 1 0.428882 0.94754 0
867 1 0.451945 0.95571 0
839 1 0.462103 0.911995 0
1741 1 0.493622 0.942141 0
840 1 0.486242 0.918628 0
869 1 0.468711 0.936156 0
872 1 0.02277 0.99671 0
873 1 0.0285662 0.972213 0
871 1 0.00494191 0.978338 0
874 1 0.0476973 0.992209 0
846 1 0.0745792 0.961194 0
875 1 0.05194 0.968618 0
876 1 0.0728786 0.985841 0
848 1 0.116133 0.956646 0
7 1 0.0957526 0.998061 0
877 1 0.0961721 0.97183 0
878 1 0.118383 0.981568 0
879 1 0.138001 0.966553 0
880 1 0.140855 0.991291 0
881 1 0.160646 0.976465 0
852 1 0.179939 0.960164 0
882 1 0.183353 0.986582 0
883 1 0.202092 0.970461 0
13 1 0.205683 0.995101 0
854 1 0.222183 0.955251 0
884 1 0.224593 0.979148 0
885 1 0.245121 0.962902 0
886 1 0.248815 0.987376 0
17 1 0.271997 0.994561 0
888 1 0.280388 0.970785 0
889 1 0.305949 0.965139 0
19 1 0.297142 0.98885 0
862 1 0.356103 0.955009 0
890 1 0.322547 0.983639 0
891 1 0.331052 0.960691 0
892 1 0.347747 0.978295 0
23 1 0.363289 0.998552 0
893 1 0.372441 0.974894 0
895 1 0.396505 0.97228 0
894 1 0.387687 0.996804 0
896 1 0.411257 0.993425 0
866 1 0.420934 0.970411 0
897 1 0.437615 0.990997 0
899 1 0.484366 0.983603 0
868 1 0.459255 0.978642 0
870 1 0.476356 0.960416 0
902 1 0.541598 0.020099 0
931 1 0.52415 0.0365211 0
901 1 0.516478 0.012363 0
30 1 0.499425 0.0306802 0
933 1 0.547783 0.0442225 0
904 1 0.56485 0.0262923 0
935 1 0.59008 0.0313967 0
906 1 0.582809 0.0077992 0
905 1 0.559346 0.00206325 0
908 1 0.607835 0.0133543 0
937 1 0.614166 0.038018 0
939 1 0.631861 0.019096 0
938 1 0.637756 0.0442364 0
941 1 0.655134 0.0265282 0
912 1 0.672327 0.00928334 0
942 1 0.679476 0.0340494 0
910 1 0.648409 0.00156869 0
943 1 0.696301 0.0168725 0
944 1 0.703867 0.0404217 0
945 1 0.720024 0.0230452 0
947 1 0.743773 0.0176096 0
918 1 0.767365 0.012269 0
946 1 0.759584 0.0372077 0
975 1 0.73428 0.0449475 0
948 1 0.78431 0.0316362 0
919 1 0.79144 0.00701708 0
949 1 0.809143 0.0252478 0
1790 1 0.817383 0.00123709 0
920 1 0.834071 0.019741 0
951 1 0.851313 0.0375565 0
922 1 0.858163 0.0134678 0
950 1 0.827656 0.0436156 0
953 1 0.875176 0.0306101 0
924 1 0.882373 0.00700933 0
955 1 0.899355 0.0246957 0
925 1 0.906921 0.00149643 0
926 1 0.92339 0.0192134 0
928 1 0.94867 0.0127747 0
957 1 0.941205 0.0362308 0
956 1 0.916255 0.0427745 0
930 1 0.990749 0.0246786 0
959 1 0.965571 0.0308526 0
929 1 0.973195 0.00698294 0
1 1 0.998204 0.00155664 0
60 1 0.506582 0.0541072 0
932 1 0.530609 0.061095 0
962 1 0.536626 0.0854118 0
961 1 0.512429 0.0780434 0
963 1 0.554455 0.0684028 0
934 1 0.571502 0.0497697 0
965 1 0.578641 0.0739154 0
936 1 0.595466 0.0557909 0
966 1 0.602725 0.0803163 0
967 1 0.619767 0.0612058 0
968 1 0.62623 0.0866346 0
940 1 0.661584 0.0516245 0
969 1 0.643716 0.0686567 0
970 1 0.66834 0.0752646 0
971 1 0.685518 0.057562 0
972 1 0.692589 0.0816489 0
973 1 0.710226 0.0639349 0
1003 1 0.717227 0.0885584 0
974 1 0.732966 0.0713242 0
976 1 0.754783 0.0613343 0
1007 1 0.772121 0.0797051 0
977 1 0.778977 0.0560407 0
979 1 0.803524 0.0503058 0
978 1 0.797329 0.0757889 0
980 1 0.82087 0.0684286 0
981 1 0.844436 0.0617608 0
1011 1 0.839701 0.0865542 0
982 1 0.862826 0.0801368 0
954 1 0.891666 0.0489034 0
952 1 0.868945 0.0556393 0
983 1 0.885677 0.0744143 0
985 1 0.908126 0.0671571 0
986 1 0.926706 0.0828566 0
987 1 0.933944 0.0598523 0
988 1 0.951246 0.0776349 0
960 1 0.982667 0.0486275 0
958 1 0.958245 0.0539393 0
989 1 0.975478 0.0720734 0
990 1 0.990517 0.0914858 0
61 1 0.998761 0.0664612 0
991 1 0.518856 0.102341 0
992 1 0.526276 0.127554 0
993 1 0.543276 0.109997 0
120 1 0.501879 0.120418 0
964 1 0.561547 0.0912628 0
1023 1 0.550683 0.133417 0
994 1 0.568011 0.115486 0
995 1 0.584573 0.0984576 0
996 1 0.591726 0.12316 0
997 1 0.608355 0.104825 0
998 1 0.634087 0.110605 0
1027 1 0.616574 0.127828 0
999 1 0.650509 0.0920929 0
1000 1 0.65726 0.11747 0
1001 1 0.67518 0.0991821 0
1029 1 0.639763 0.134385 0
1031 1 0.681116 0.123035 0
1002 1 0.699573 0.105435 0
1004 1 0.724248 0.111957 0
1033 1 0.705557 0.128928 0
1005 1 0.742481 0.0943991 0
1006 1 0.766351 0.104455 0
1035 1 0.7474 0.11965 0
1034 1 0.73001 0.136078 0
1009 1 0.814235 0.093172 0
1037 1 0.783685 0.124519 0
1008 1 0.789678 0.0980913 0
1039 1 0.806543 0.116332 0
1010 1 0.831949 0.110676 0
1012 1 0.856217 0.105931 0
1040 1 0.825388 0.135115 0
1015 1 0.903718 0.0946066 0
984 1 0.880185 0.0996521 0
1013 1 0.878366 0.124585 0
1014 1 0.903386 0.120485 0
1016 1 0.928511 0.119408 0
1017 1 0.942064 0.100741 0
1018 1 0.957412 0.118668 0
1019 1 0.966532 0.0954158 0
1020 1 0.981555 0.114385 0
121 1 0.996772 0.132378 0
1022 1 0.533185 0.151713 0
1053 1 0.539364 0.175591 0
1051 1 0.515485 0.169284 0
1021 1 0.508547 0.144417 0
1024 1 0.556951 0.158151 0
1025 1 0.573958 0.140339 0
1055 1 0.58058 0.164578 0
1054 1 0.562972 0.18181 0
1026 1 0.598416 0.146425 0
1028 1 0.621742 0.152668 0
1057 1 0.604057 0.171108 0
1058 1 0.628925 0.175919 0
1059 1 0.645684 0.158202 0
1030 1 0.66435 0.140974 0
1061 1 0.669254 0.164917 0
1032 1 0.68895 0.146422 0
1063 1 0.711714 0.153143 0
1062 1 0.694347 0.170607 0
1064 1 0.718131 0.176535 0
1036 1 0.753583 0.142837 0
1065 1 0.736041 0.160442 0
1066 1 0.759998 0.167631 0
1067 1 0.777168 0.149038 0
1038 1 0.801381 0.14177 0
1068 1 0.784813 0.173943 0
1069 1 0.8096 0.18077 0
1041 1 0.844421 0.152571 0
1071 1 0.836233 0.175937 0
1042 1 0.860017 0.171285 0
1043 1 0.870468 0.147868 0
1045 1 0.896592 0.14596 0
1044 1 0.884949 0.168078 0
1046 1 0.911982 0.165161 0
1049 1 0.946704 0.139969 0
1047 1 0.920742 0.142002 0
1048 1 0.93693 0.161524 0
1050 1 0.972633 0.137457 0
1079 1 0.962445 0.159122 0
151 1 0.987545 0.156212 0
1080 1 0.977273 0.179091 0
1052 1 0.521375 0.192824 0
1082 1 0.52686 0.216922 0
1081 1 0.503463 0.210481 0
1083 1 0.54502 0.199265 0
1056 1 0.586897 0.188755 0
1085 1 0.567756 0.205642 0
1084 1 0.550118 0.22378 0
1086 1 0.59235 0.213208 0
1087 1 0.610935 0.194701 0
1088 1 0.61636 0.218796 0
1089 1 0.63485 0.200463 0
1060 1 0.652228 0.182024 0
1091 1 0.677208 0.188166 0
1090 1 0.658799 0.206331 0
1119 1 0.640491 0.224071 0
1092 1 0.682851 0.212391 0
1093 1 0.700395 0.1951 0
1094 1 0.723789 0.201684 0
1123 1 0.706328 0.219353 0
1095 1 0.741423 0.184358 0
1096 1 0.748237 0.207642 0
1097 1 0.766801 0.190986 0
1125 1 0.730316 0.224858 0
1127 1 0.773382 0.215137 0
1099 1 0.7915 0.197755 0
1098 1 0.796568 0.221092 0
1100 1 0.820583 0.221344 0
1072 1 0.853305 0.195547 0
1070 1 0.827917 0.198591 0
1101 1 0.844398 0.218776 0
1075 1 0.902667 0.187504 0
1073 1 0.878313 0.191316 0
1103 1 0.86913 0.214239 0
1074 1 0.893423 0.210285 0
1078 1 0.952271 0.181739 0
1077 1 0.927609 0.184955 0
1076 1 0.918379 0.208199 0
1107 1 0.94316 0.204674 0
181 1 0.992856 0.197825 0
1109 1 0.967664 0.200538 0
1110 1 0.959048 0.224303 0
211 1 0.983702 0.220978 0
1111 1 0.509873 0.234398 0
1113 1 0.533626 0.241435 0
1112 1 0.515684 0.259347 0
1143 1 0.539138 0.266188 0
1114 1 0.556856 0.248538 0
1115 1 0.57396 0.229336 0
1116 1 0.580792 0.254415 0
1145 1 0.563011 0.272632 0
1117 1 0.598231 0.236939 0
1118 1 0.622702 0.242534 0
1147 1 0.604082 0.260856 0
1149 1 0.628796 0.265797 0
1121 1 0.664792 0.230187 0
1120 1 0.646481 0.247853 0
1151 1 0.670027 0.25415 0
1150 1 0.652325 0.271547 0
1122 1 0.68762 0.237366 0
1124 1 0.711969 0.242779 0
1153 1 0.69377 0.260147 0
1154 1 0.717403 0.267042 0
1126 1 0.753222 0.231169 0
1155 1 0.735521 0.249146 0
1157 1 0.759009 0.25593 0
1128 1 0.779651 0.239261 0
1129 1 0.80846 0.243166 0
1159 1 0.804176 0.267229 0
1158 1 0.781025 0.264314 0
1102 1 0.860221 0.237503 0
1131 1 0.835284 0.2423 0
1130 1 0.827961 0.265919 0
1132 1 0.850983 0.261634 0
1104 1 0.884125 0.234584 0
1133 1 0.875739 0.257937 0
1135 1 0.900268 0.254021 0