ITEM: TIMESTEP
104000
ITEM: NUMBER OF ATOMS
1800
ITEM: BOX BOUNDS pp pp pp
1.2181292471725982e+00 1.6378187075282545e+02
1.2181292471725982e+00 1.6378187075282545e+02
0.0000000000000000e+00 5.5000000000000000e+00
ITEM: ATOMS id type xs ys zs
2 1 0.0121795 0.00575304 0
33 1 0.0301354 0.0235099 0
31 1 0.00639226 0.0307751 0
4 1 0.053447 0.0157038 0
6 1 0.0768072 0.00879011 0
35 1 0.0725572 0.0324978 0
34 1 0.0481382 0.0407904 0
37 1 0.0963975 0.0237314 0
39 1 0.120401 0.0163126 0
38 1 0.11428 0.041065 0
8 1 0.101492 0.999396 0
40 1 0.138934 0.0343414 0
10 1 0.143542 0.0107339 0
41 1 0.167172 0.00258153 0
42 1 0.16217 0.0270555 0
43 1 0.186481 0.019051 0
14 1 0.209442 0.0107589 0
44 1 0.204485 0.0366259 0
45 1 0.228603 0.028083 0
16 1 0.25176 0.0198132 0
886 1 0.232779 0.00282927 0
46 1 0.269668 0.0374982 0
18 1 0.27542 0.0121198 0
49 1 0.295242 0.0304472 0
20 1 0.29891 0.00537805 0
51 1 0.317945 0.0225968 0
22 1 0.341419 0.0330079 0
21 1 0.35931 0.0147894 0
24 1 0.384608 0.0210822 0
53 1 0.366914 0.0386233 0
894 1 0.401978 0.00271491 0
25 1 0.408828 0.0271794 0
26 1 0.433048 0.0345746 0
27 1 0.426383 0.0102467 0
898 1 0.45121 0.0176468 0
29 1 0.475069 0.0230998 0
900 1 0.494077 0.00569728 0
28 1 0.45703 0.041387 0
32 1 0.0238302 0.0483062 0
62 1 0.0183607 0.0723032 0
63 1 0.0417305 0.0647558 0
65 1 0.0667673 0.0566309 0
66 1 0.0854271 0.0734423 0
64 1 0.061428 0.0807817 0
36 1 0.0902944 0.0484795 0
67 1 0.108659 0.0657063 0
69 1 0.132743 0.0587386 0
68 1 0.125775 0.0830532 0
73 1 0.180293 0.0437372 0
71 1 0.157186 0.0516113 0
72 1 0.174713 0.0695413 0
70 1 0.150176 0.0771378 0
74 1 0.22274 0.053383 0
103 1 0.199338 0.0606457 0
105 1 0.216463 0.0777331 0
101 1 0.193456 0.0862687 0
75 1 0.247226 0.0452438 0
77 1 0.263714 0.0633114 0
76 1 0.24026 0.070267 0
47 1 0.287941 0.0547677 0
48 1 0.307743 0.0704381 0
78 1 0.2833 0.0794619 0
50 1 0.324707 0.0505515 0
81 1 0.331837 0.07464 0
52 1 0.349152 0.0563932 0
82 1 0.355884 0.0806925 0
55 1 0.391316 0.044288 0
83 1 0.37396 0.0635759 0
54 1 0.399067 0.0690963 0
57 1 0.439279 0.0586074 0
85 1 0.42289 0.0772501 0
56 1 0.415807 0.0521722 0
87 1 0.446786 0.0826697 0
59 1 0.480919 0.0468556 0
58 1 0.464215 0.0652863 0
89 1 0.488119 0.0720616 0
990 1 0.0129083 0.0962782 0
92 1 0.0312999 0.113914 0
93 1 0.0368243 0.088912 0
91 1 0.00661695 0.120763 0
94 1 0.054791 0.105508 0
95 1 0.0780279 0.0987789 0
125 1 0.0730097 0.123395 0
123 1 0.0484942 0.130378 0
96 1 0.0966778 0.115373 0
97 1 0.102369 0.0906519 0
98 1 0.119348 0.108845 0
99 1 0.14426 0.100887 0
100 1 0.168352 0.0940268 0
130 1 0.162084 0.118501 0
129 1 0.138446 0.125819 0
131 1 0.186837 0.110486 0
102 1 0.210872 0.102891 0
133 1 0.204929 0.12715 0
137 1 0.258143 0.0874465 0
104 1 0.228116 0.119864 0
106 1 0.234401 0.0953266 0
135 1 0.253978 0.114305 0
107 1 0.276181 0.103327 0
109 1 0.299253 0.111455 0
79 1 0.315094 0.0937922 0
108 1 0.279226 0.12813 0
80 1 0.339755 0.0992827 0
110 1 0.323041 0.118279 0
141 1 0.346637 0.123101 0
111 1 0.363763 0.104737 0
113 1 0.382407 0.0874203 0
84 1 0.405666 0.0946856 0
112 1 0.387537 0.111902 0
115 1 0.411866 0.118303 0
86 1 0.429637 0.101571 0
116 1 0.435567 0.125345 0
117 1 0.453386 0.106913 0
88 1 0.471275 0.0898265 0
90 1 0.495169 0.0953826 0
119 1 0.476858 0.113866 0
122 1 0.0243547 0.137793 0
153 1 0.0433121 0.153774 0
152 1 0.0206785 0.162165 0
121 1 0.00160808 0.145631 0
124 1 0.0672538 0.147774 0
155 1 0.0852275 0.16386 0
154 1 0.0620758 0.172194 0
126 1 0.0908817 0.14039 0
127 1 0.114278 0.13282 0
128 1 0.132069 0.150271 0
157 1 0.108504 0.157523 0
158 1 0.127435 0.174579 0
159 1 0.15626 0.143186 0
161 1 0.174592 0.159171 0
160 1 0.150249 0.16682 0
132 1 0.180601 0.134813 0
163 1 0.198897 0.152919 0
134 1 0.221933 0.144482 0
193 1 0.218557 0.170494 0
136 1 0.265383 0.148959 0
165 1 0.245085 0.137143 0
164 1 0.243591 0.162265 0
167 1 0.272094 0.171879 0
139 1 0.305618 0.134812 0
138 1 0.28918 0.153775 0
169 1 0.313545 0.159908 0
140 1 0.330511 0.141997 0
142 1 0.354055 0.148344 0
171 1 0.337303 0.166511 0
172 1 0.360617 0.172822 0
143 1 0.36986 0.128829 0
114 1 0.393807 0.135121 0
173 1 0.377306 0.154411 0
144 1 0.40097 0.161829 0
145 1 0.418744 0.144052 0
146 1 0.425079 0.167521 0
147 1 0.442654 0.149654 0
177 1 0.44889 0.174823 0
118 1 0.459086 0.131411 0
149 1 0.483328 0.137943 0
148 1 0.466342 0.156071 0
150 1 0.490338 0.163079 0
183 1 0.0383732 0.178998 0
182 1 0.0320196 0.20321 0
1080 1 0.0141468 0.186639 0
211 1 0.0092578 0.210888 0
184 1 0.0573971 0.195908 0
185 1 0.0807784 0.188547 0
215 1 0.0756357 0.213219 0
186 1 0.0993167 0.20605 0
156 1 0.103869 0.182201 0
187 1 0.122953 0.198965 0
189 1 0.146511 0.190752 0
191 1 0.169554 0.183574 0
190 1 0.163668 0.207536 0
188 1 0.141095 0.214212 0
221 1 0.187536 0.203021 0
162 1 0.194097 0.176605 0
192 1 0.211692 0.195263 0
195 1 0.236045 0.203294 0
166 1 0.254261 0.188139 0
196 1 0.259479 0.211782 0
168 1 0.296136 0.177688 0
197 1 0.277828 0.195602 0
199 1 0.301737 0.201827 0
170 1 0.320308 0.184287 0
201 1 0.343814 0.190973 0
200 1 0.325687 0.209503 0
202 1 0.349609 0.215721 0
203 1 0.367758 0.198389 0
174 1 0.384092 0.180209 0
204 1 0.391389 0.204625 0
175 1 0.407804 0.186714 0
205 1 0.414611 0.211455 0
176 1 0.431476 0.191996 0
207 1 0.437825 0.218741 0
178 1 0.455243 0.199735 0
179 1 0.472875 0.180803 0
180 1 0.496695 0.187816 0
209 1 0.479648 0.206141 0
212 1 0.0274651 0.227309 0
241 1 0.0218172 0.250935 0
1140 1 0.00273996 0.234169 0
243 1 0.0460022 0.243033 0
213 1 0.0509775 0.219352 0
214 1 0.0708023 0.237353 0
245 1 0.0910071 0.256041 0
216 1 0.094831 0.231814 0
217 1 0.117679 0.223478 0
218 1 0.136718 0.238269 0
247 1 0.114906 0.249464 0
219 1 0.160275 0.245693 0
220 1 0.177985 0.22788 0
222 1 0.182587 0.253118 0
194 1 0.217903 0.220445 0
223 1 0.200847 0.236959 0
224 1 0.224304 0.245047 0
225 1 0.241357 0.228375 0
227 1 0.264996 0.235814 0
226 1 0.247688 0.253489 0
198 1 0.283298 0.219949 0
228 1 0.289992 0.243919 0
229 1 0.307685 0.225883 0
230 1 0.313271 0.251015 0
231 1 0.331146 0.233735 0
232 1 0.354518 0.240311 0
261 1 0.337338 0.257991 0
233 1 0.373204 0.223127 0
234 1 0.378697 0.247165 0
235 1 0.397035 0.229596 0
265 1 0.403318 0.254158 0
206 1 0.421082 0.236833 0
237 1 0.444302 0.24334 0
236 1 0.427092 0.261059 0
208 1 0.461189 0.225781 0
210 1 0.486198 0.231542 0
239 1 0.46948 0.249268 0
240 1 0.492749 0.256208 0
242 1 0.0405125 0.266581 0
271 1 0.0353015 0.290079 0
1170 1 0.016407 0.275214 0
1200 1 0.0124993 0.300165 0
244 1 0.0648704 0.260931 0
273 1 0.0596359 0.2949 0
275 1 0.0796368 0.280844 0
246 1 0.10228 0.291547 0
248 1 0.119554 0.275113 0
279 1 0.125109 0.299631 0
249 1 0.140132 0.262467 0
251 1 0.164162 0.270037 0
250 1 0.145389 0.286802 0
281 1 0.169089 0.294264 0
253 1 0.206125 0.260867 0
252 1 0.188267 0.278482 0
254 1 0.211304 0.286196 0
283 1 0.192669 0.303182 0
257 1 0.271936 0.260445 0
255 1 0.23004 0.270569 0
256 1 0.253344 0.278699 0
285 1 0.235495 0.295853 0
287 1 0.258828 0.303596 0
259 1 0.295379 0.268842 0
258 1 0.276862 0.286768 0
289 1 0.301607 0.293543 0
260 1 0.318471 0.275478 0
263 1 0.361405 0.265146 0
262 1 0.343901 0.282277 0
291 1 0.325413 0.300071 0
293 1 0.367557 0.289734 0
264 1 0.385222 0.271705 0
295 1 0.391504 0.296696 0
266 1 0.409992 0.278638 0
238 1 0.450657 0.267567 0
267 1 0.433254 0.285147 0
297 1 0.41585 0.302979 0
268 1 0.457422 0.29144 0
1141 1 0.49919 0.281657 0
269 1 0.474646 0.273414 0
270 1 0.481567 0.298161 0
301 1 0.0202322 0.324946 0
272 1 0.0420718 0.31273 0
1230 1 0.00311296 0.342236 0
303 1 0.0446798 0.337142 0
276 1 0.0826853 0.305829 0
274 1 0.0649934 0.322657 0
305 1 0.0874878 0.331107 0
304 1 0.0681521 0.346792 0
277 1 0.106898 0.315676 0
278 1 0.130157 0.324468 0
307 1 0.110841 0.340798 0
280 1 0.15019 0.310487 0
311 1 0.153694 0.334873 0
282 1 0.173494 0.320043 0
312 1 0.178093 0.34465 0
284 1 0.216104 0.312763 0
313 1 0.197586 0.328019 0
315 1 0.221632 0.337122 0
286 1 0.240621 0.320152 0
317 1 0.264096 0.328252 0
316 1 0.245377 0.346547 0
288 1 0.283354 0.311227 0
318 1 0.28807 0.334557 0
290 1 0.307494 0.317697 0
319 1 0.312817 0.342184 0
292 1 0.349341 0.306658 0
321 1 0.331035 0.324457 0
323 1 0.354366 0.3305 0
324 1 0.379683 0.337268 0
294 1 0.373402 0.31399 0
325 1 0.404608 0.344875 0
296 1 0.398399 0.321497 0
298 1 0.439983 0.309207 0
327 1 0.422366 0.327079 0
328 1 0.446361 0.334067 0
329 1 0.469656 0.341374 0
299 1 0.464265 0.316288 0
300 1 0.487442 0.323351 0
302 1 0.0249459 0.350805 0
332 1 0.0272806 0.375246 0
331 1 0.00460588 0.366024 0
361 1 0.00768755 0.390543 0
333 1 0.0474426 0.361327 0
335 1 0.0703067 0.37066 0
334 1 0.0508233 0.385751 0
306 1 0.090788 0.355625 0
337 1 0.0945811 0.380012 0
308 1 0.113773 0.36453 0
309 1 0.134797 0.350105 0
338 1 0.117029 0.389755 0
339 1 0.13751 0.374058 0
310 1 0.158629 0.359657 0
341 1 0.162018 0.383805 0
343 1 0.181392 0.369766 0
314 1 0.201221 0.353349 0
344 1 0.205714 0.37928 0
345 1 0.223914 0.362216 0
375 1 0.2292 0.389105 0
347 1 0.269166 0.352676 0
346 1 0.24906 0.371662 0
377 1 0.274354 0.376551 0
349 1 0.293382 0.358188 0
348 1 0.300412 0.381518 0
350 1 0.319715 0.365914 0
320 1 0.337095 0.348154 0
351 1 0.344001 0.372559 0
381 1 0.325733 0.389535 0
322 1 0.361577 0.355072 0
353 1 0.368561 0.380676 0
355 1 0.385126 0.362363 0
354 1 0.391715 0.386673 0
356 1 0.408743 0.368556 0
326 1 0.428044 0.351101 0
357 1 0.432401 0.3765 0
359 1 0.451751 0.35897 0
1201 1 0.493651 0.347422 0
358 1 0.456843 0.383837 0
330 1 0.474586 0.366318 0
360 1 0.480855 0.390794 0
1231 1 0.498689 0.372972 0
363 1 0.0306691 0.400644 0
362 1 0.0106194 0.414962 0
364 1 0.0338078 0.425198 0
336 1 0.0747242 0.395132 0
365 1 0.0537698 0.410387 0
366 1 0.0772393 0.420548 0
367 1 0.0972658 0.405195 0
369 1 0.120049 0.415004 0
368 1 0.100196 0.430223 0
340 1 0.141854 0.398872 0
370 1 0.143605 0.424529 0
371 1 0.1643 0.408779 0
401 1 0.166158 0.433975 0
342 1 0.185844 0.393678 0
372 1 0.186448 0.419901 0
373 1 0.208359 0.404022 0
403 1 0.208846 0.428616 0
374 1 0.231027 0.413993 0
376 1 0.254067 0.399097 0
405 1 0.252727 0.424473 0
378 1 0.282558 0.399072 0
379 1 0.307853 0.406101 0
409 1 0.29117 0.42332 0
410 1 0.314324 0.431073 0
352 1 0.349247 0.396984 0
382 1 0.356549 0.421319 0
380 1 0.332473 0.41362 0
383 1 0.375307 0.404878 0
385 1 0.398651 0.412228 0
384 1 0.380164 0.430428 0
387 1 0.41526 0.394188 0
386 1 0.422493 0.419175 0
388 1 0.439296 0.40127 0
419 1 0.445241 0.426673 0
389 1 0.463269 0.408494 0
1261 1 0.4868 0.415766 0
390 1 0.469652 0.432567 0
393 1 0.0118578 0.439312 0
423 1 0.0150518 0.463675 0
394 1 0.0352986 0.450013 0
425 1 0.0384464 0.47444 0
395 1 0.0561847 0.435048 0
396 1 0.058144 0.459712 0
397 1 0.0790589 0.445184 0
427 1 0.0813588 0.469767 0
399 1 0.123275 0.439737 0
398 1 0.101855 0.454675 0
429 1 0.125322 0.465067 0
400 1 0.145984 0.449983 0
431 1 0.168434 0.459874 0
430 1 0.148661 0.475125 0
402 1 0.188585 0.44531 0
433 1 0.210581 0.454289 0
432 1 0.190583 0.469756 0
404 1 0.231476 0.439319 0
406 1 0.252975 0.451879 0
435 1 0.233629 0.465998 0
436 1 0.256928 0.476936 0
407 1 0.27279 0.439048 0
437 1 0.276301 0.463591 0
408 1 0.296235 0.447491 0
439 1 0.299791 0.471464 0
441 1 0.319257 0.455488 0
413 1 0.362112 0.447406 0
411 1 0.337999 0.438149 0
412 1 0.342864 0.463824 0
415 1 0.40447 0.436783 0
414 1 0.386134 0.454334 0
443 1 0.367462 0.471131 0
416 1 0.409549 0.461081 0
417 1 0.427852 0.444486 0
418 1 0.452187 0.450307 0
447 1 0.433438 0.468184 0
1291 1 0.493414 0.440143 0
420 1 0.475518 0.458415 0
449 1 0.457071 0.476534 0
1321 1 0.498923 0.464183 0
454 1 0.0212563 0.513593 0
424 1 0.0179374 0.488411 0
455 1 0.0416645 0.499412 0
426 1 0.0619392 0.483684 0
456 1 0.0649407 0.50902 0
457 1 0.0845763 0.494302 0
487 1 0.0878984 0.519673 0
428 1 0.104641 0.479124 0
459 1 0.12851 0.489305 0
458 1 0.107833 0.504663 0
489 1 0.130582 0.514951 0
461 1 0.171252 0.484773 0
460 1 0.150786 0.500329 0
462 1 0.17469 0.510919 0
434 1 0.213465 0.480175 0
463 1 0.193847 0.494985 0
464 1 0.217422 0.505838 0
493 1 0.197619 0.520555 0
465 1 0.236704 0.491154 0
467 1 0.259896 0.50266 0
466 1 0.239354 0.517232 0
438 1 0.280001 0.487382 0
469 1 0.302696 0.496334 0
468 1 0.283437 0.512114 0
470 1 0.306388 0.521043 0
440 1 0.323023 0.480396 0
442 1 0.348352 0.488443 0
471 1 0.326353 0.505868 0
473 1 0.351145 0.513237 0
445 1 0.390164 0.47914 0
444 1 0.371376 0.4969 0
475 1 0.395455 0.504944 0
474 1 0.375434 0.522305 0
446 1 0.413815 0.487094 0
477 1 0.420016 0.511318 0
448 1 0.438382 0.493082 0
478 1 0.445271 0.518371 0
450 1 0.480713 0.482611 0
479 1 0.463034 0.500965 0
1381 1 0.487222 0.50727 0
452 1 0.00124474 0.528141 0
483 1 0.0248587 0.537791 0
482 1 0.00481635 0.552999 0
513 1 0.0278426 0.563301 0
485 1 0.0455611 0.523363 0
484 1 0.0478522 0.547557 0
486 1 0.0683041 0.534377 0
515 1 0.0704501 0.559337 0
517 1 0.0907308 0.544376 0
488 1 0.110916 0.529985 0
519 1 0.113591 0.555243 0
490 1 0.133696 0.540467 0
520 1 0.136413 0.565364 0
491 1 0.154262 0.525725 0
521 1 0.15632 0.550827 0
492 1 0.177338 0.536568 0
523 1 0.178873 0.561217 0
494 1 0.199767 0.54693 0
495 1 0.219546 0.531393 0
525 1 0.22191 0.558355 0
496 1 0.241755 0.54219 0
497 1 0.262181 0.527291 0
527 1 0.264767 0.551814 0
499 1 0.307417 0.545462 0
498 1 0.284781 0.536429 0
529 1 0.287501 0.561174 0
472 1 0.329699 0.529706 0
501 1 0.3297 0.554155 0
502 1 0.351963 0.56239 0
503 1 0.354722 0.538042 0
505 1 0.383443 0.546051 0
476 1 0.401626 0.528703 0
506 1 0.408068 0.553045 0
507 1 0.428384 0.536917 0
508 1 0.434846 0.561776 0
509 1 0.452874 0.544267 0
480 1 0.469879 0.526193 0
510 1 0.476588 0.550216 0
1382 1 0.493897 0.531816 0
512 1 0.0305795 0.587397 0
511 1 0.00789492 0.577371 0
541 1 0.0103782 0.60287 0
514 1 0.0503433 0.574038 0
545 1 0.0733411 0.584269 0
543 1 0.0531837 0.597925 0
516 1 0.0937394 0.570032 0
518 1 0.116407 0.580712 0
547 1 0.0958487 0.594739 0
548 1 0.118505 0.605012 0
549 1 0.139918 0.590858 0
522 1 0.159502 0.57625 0
551 1 0.16265 0.60097 0
553 1 0.18304 0.587332 0
524 1 0.202715 0.571555 0
554 1 0.206192 0.597471 0
555 1 0.225615 0.583214 0
526 1 0.245109 0.567816 0
556 1 0.2293 0.608698 0
557 1 0.248463 0.593184 0
528 1 0.268106 0.577056 0
558 1 0.272156 0.601435 0
500 1 0.310076 0.569996 0
559 1 0.290959 0.585736 0
530 1 0.314952 0.595162 0
531 1 0.333335 0.579286 0
532 1 0.338043 0.603644 0
533 1 0.356026 0.587026 0
504 1 0.374368 0.569137 0
534 1 0.379322 0.593916 0
535 1 0.396728 0.574897 0
536 1 0.402411 0.599825 0
537 1 0.41904 0.581972 0
567 1 0.426463 0.6064 0
538 1 0.443246 0.587404 0
539 1 0.459873 0.569294 0
540 1 0.484128 0.575383 0
569 1 0.466875 0.59361 0
1441 1 0.491211 0.598606 0
542 1 0.0333399 0.612974 0
571 1 0.0123864 0.627666 0
573 1 0.0348233 0.637938 0
546 1 0.0756953 0.609666 0
544 1 0.0549576 0.623241 0
575 1 0.0789544 0.634123 0
574 1 0.0578308 0.649107 0
577 1 0.0985654 0.620541 0
579 1 0.121797 0.630925 0
576 1 0.10199 0.645007 0
550 1 0.142152 0.615954 0
581 1 0.165489 0.625794 0
580 1 0.144985 0.64072 0
611 1 0.16764 0.651519 0
552 1 0.185689 0.611686 0
582 1 0.188523 0.637462 0
583 1 0.208252 0.622962 0
584 1 0.210637 0.64821 0
585 1 0.232184 0.633075 0
586 1 0.256142 0.641302 0
587 1 0.252637 0.617593 0
560 1 0.295711 0.610882 0
589 1 0.276185 0.626234 0
590 1 0.299628 0.637069 0
588 1 0.279204 0.652093 0
561 1 0.317989 0.620139 0
563 1 0.361459 0.611846 0
562 1 0.341856 0.627749 0
591 1 0.32363 0.645216 0
565 1 0.384815 0.618102 0
564 1 0.366536 0.635288 0
595 1 0.389879 0.642848 0
566 1 0.408572 0.625026 0
568 1 0.450332 0.611765 0
596 1 0.413808 0.648865 0
597 1 0.432483 0.629983 0
570 1 0.474085 0.61672 0
600 1 0.457491 0.635539 0
1471 1 0.480755 0.641477 0
1442 1 0.498407 0.622927 0
572 1 0.0153996 0.653158 0
602 1 0.0180609 0.677941 0
603 1 0.037853 0.663567 0
633 1 0.0413638 0.689753 0
605 1 0.0812604 0.658863 0
604 1 0.0618928 0.67387 0
606 1 0.084524 0.684801 0
578 1 0.124504 0.655933 0
607 1 0.103571 0.669351 0
608 1 0.126691 0.681055 0
637 1 0.106702 0.694749 0
609 1 0.146882 0.666788 0
610 1 0.169923 0.676552 0
639 1 0.150387 0.691679 0
612 1 0.192792 0.687865 0
613 1 0.19038 0.663295 0
614 1 0.212772 0.67337 0
615 1 0.234863 0.657015 0
616 1 0.237473 0.682067 0
617 1 0.257572 0.666629 0
647 1 0.261756 0.692012 0
619 1 0.304495 0.660845 0
618 1 0.283124 0.677142 0
620 1 0.310296 0.687787 0
593 1 0.346964 0.653737 0
621 1 0.32919 0.670519 0
592 1 0.354245 0.678215 0
622 1 0.336968 0.69485 0
594 1 0.371672 0.65957 0
625 1 0.396278 0.666781 0
623 1 0.378333 0.683048 0
626 1 0.405281 0.690266 0
599 1 0.439349 0.653969 0
598 1 0.446866 0.678006 0
627 1 0.421731 0.671898 0
628 1 0.472156 0.684205 0
629 1 0.464721 0.660485 0
1501 1 0.489174 0.665779 0
630 1 0.496406 0.689632 0
632 1 0.0202129 0.703816 0
663 1 0.0238986 0.728882 0
899 1 0.469218 1.00002 0
634 1 0.044111 0.715252 0
635 1 0.0647653 0.699535 0
636 1 0.0868288 0.709927 0
665 1 0.066002 0.724728 0
666 1 0.0893611 0.734412 0
638 1 0.129717 0.705893 0
667 1 0.109512 0.72036 0
669 1 0.132095 0.730827 0
641 1 0.17265 0.702461 0
640 1 0.1527 0.71772 0
671 1 0.175168 0.727762 0
643 1 0.215632 0.697829 0
642 1 0.195104 0.713843 0
673 1 0.197966 0.737785 0
644 1 0.218633 0.722204 0
645 1 0.238466 0.706994 0
675 1 0.240883 0.73197 0
646 1 0.261741 0.715804 0
649 1 0.2854 0.701776 0
648 1 0.283636 0.726192 0
679 1 0.306383 0.73344 0
650 1 0.320751 0.713207 0
651 1 0.345538 0.718964 0
681 1 0.33018 0.737621 0
653 1 0.362228 0.701505 0
624 1 0.38821 0.707999 0
654 1 0.371492 0.72521 0
685 1 0.396303 0.731073 0
657 1 0.42978 0.695789 0
655 1 0.413715 0.714103 0
656 1 0.438052 0.719237 0
686 1 0.421928 0.737331 0
658 1 0.455024 0.701772 0
687 1 0.462725 0.725333 0
659 1 0.478656 0.707792 0
689 1 0.48642 0.733435 0
662 1 0.0249169 0.755906 0
693 1 0.0296549 0.78256 0
691 1 0.00480947 0.769299 0
661 1 0.0022714 0.742839 0
664 1 0.0449118 0.740153 0
695 1 0.0695516 0.749726 0
694 1 0.0484853 0.765385 0
696 1 0.0728743 0.774085 0
697 1 0.0922861 0.759064 0
668 1 0.112443 0.745078 0
698 1 0.115618 0.770217 0
699 1 0.136256 0.756174 0
670 1 0.155734 0.742457 0
701 1 0.15792 0.767844 0
700 1 0.136583 0.781058 0
672 1 0.178182 0.753634 0
702 1 0.181356 0.779873 0
674 1 0.220277 0.74758 0
703 1 0.201338 0.764549 0
705 1 0.224905 0.772143 0
677 1 0.263577 0.741769 0
676 1 0.243524 0.756987 0
707 1 0.269415 0.766005 0
735 1 0.250708 0.782734 0
678 1 0.288186 0.749656 0
709 1 0.293549 0.77377 0
680 1 0.312974 0.756522 0
710 1 0.319184 0.780001 0
652 1 0.353958 0.743938 0
682 1 0.361715 0.767006 0
711 1 0.337047 0.761953 0
683 1 0.37946 0.74871 0
713 1 0.384702 0.772629 0
684 1 0.403659 0.755644 0
716 1 0.409959 0.780047 0
717 1 0.444679 0.743636 0
715 1 0.427811 0.762495 0
718 1 0.451164 0.768885 0
690 1 0.492339 0.758166 0
688 1 0.468113 0.750965 0
719 1 0.475436 0.775509 0
692 1 0.00786212 0.793632 0
722 1 0.00674335 0.821686 0
723 1 0.0281176 0.808837 0
725 1 0.0517291 0.798975 0
726 1 0.0763614 0.797934 0
755 1 0.0719264 0.822005 0
727 1 0.0961318 0.783731 0
728 1 0.116192 0.796257 0
757 1 0.0949754 0.812862 0
729 1 0.140221 0.805155 0
730 1 0.161674 0.819164 0
731 1 0.160648 0.792399 0
704 1 0.205082 0.789855 0
732 1 0.18436 0.806765 0
734 1 0.226779 0.820039 0
763 1 0.202975 0.826897 0
733 1 0.229443 0.795443 0
736 1 0.251426 0.808292 0
737 1 0.282486 0.812887 0
706 1 0.275082 0.789658 0
708 1 0.300849 0.797253 0
738 1 0.308209 0.819733 0
739 1 0.325943 0.802779 0
741 1 0.343765 0.785386 0
742 1 0.350673 0.809819 0
712 1 0.368275 0.79217 0
714 1 0.392134 0.797998 0
743 1 0.375256 0.815976 0
745 1 0.399443 0.822381 0
746 1 0.415882 0.803853 0
747 1 0.43417 0.786545 0
748 1 0.440775 0.811722 0
749 1 0.458084 0.792773 0
720 1 0.481559 0.79933 0
750 1 0.465423 0.81811 0
1621 1 0.489394 0.82349 0
724 1 0.0461488 0.830586 0
752 1 0.000700461 0.849434 0
753 1 0.0242742 0.842277 0
783 1 0.0187626 0.866017 0
754 1 0.0423192 0.857519 0
785 1 0.0647218 0.846853 0
756 1 0.0891259 0.841883 0
786 1 0.0835149 0.864314 0
758 1 0.112439 0.831551 0
787 1 0.107467 0.85755 0
789 1 0.131388 0.851595 0
759 1 0.137083 0.828041 0
760 1 0.156221 0.843703 0
791 1 0.173517 0.861011 0
761 1 0.179783 0.835215 0
762 1 0.195852 0.85384 0
764 1 0.219269 0.846157 0
765 1 0.242977 0.838397 0
795 1 0.238488 0.862293 0
766 1 0.262901 0.854066 0
767 1 0.265222 0.829929 0
769 1 0.316138 0.843067 0
768 1 0.289488 0.836478 0
799 1 0.299327 0.859327 0
740 1 0.33384 0.826152 0
770 1 0.340124 0.851637 0
771 1 0.358713 0.833718 0
773 1 0.362518 0.858742 0
744 1 0.381869 0.841191 0
774 1 0.387446 0.864224 0
775 1 0.405376 0.846046 0
777 1 0.422804 0.828583 0
807 1 0.429291 0.852613 0
778 1 0.447193 0.835381 0
809 1 0.453676 0.860134 0
779 1 0.471436 0.841538 0
780 1 0.478112 0.866383 0
1651 1 0.496814 0.847791 0
812 1 0.0137173 0.890652 0
814 1 0.0318864 0.907563 0
813 1 0.0374587 0.882642 0
784 1 0.0614538 0.872529 0
815 1 0.0555838 0.898446 0
816 1 0.0790994 0.889663 0
788 1 0.126259 0.874954 0
817 1 0.102479 0.881 0
819 1 0.120772 0.899489 0
818 1 0.0972604 0.907368 0
790 1 0.149572 0.867589 0
821 1 0.168221 0.885924 0
820 1 0.144493 0.892522 0
851 1 0.161633 0.909954 0
793 1 0.214771 0.870274 0
792 1 0.192369 0.878647 0
823 1 0.209934 0.894884 0
822 1 0.186497 0.90259 0
794 1 0.232601 0.886537 0
796 1 0.255973 0.879098 0
827 1 0.251964 0.903639 0
825 1 0.228129 0.911364 0
797 1 0.279125 0.871708 0
798 1 0.277734 0.895478 0
800 1 0.301939 0.885685 0
829 1 0.297563 0.910304 0
831 1 0.325799 0.895149 0
772 1 0.345209 0.875657 0
801 1 0.3214 0.868792 0
802 1 0.35081 0.899341 0
803 1 0.369538 0.881694 0
804 1 0.376403 0.906548 0
805 1 0.39312 0.888484 0
835 1 0.401155 0.912307 0
776 1 0.411939 0.870826 0
806 1 0.418363 0.895389 0
808 1 0.436144 0.877559 0
839 1 0.442638 0.901463 0
1681 1 0.484976 0.890317 0
810 1 0.460783 0.884754 0
840 1 0.466859 0.908525 0
842 1 0.0035915 0.939954 0
843 1 0.00874403 0.914825 0
844 1 0.0262188 0.932218 0
875 1 0.0452825 0.948838 0
845 1 0.0495824 0.924537 0
846 1 0.0689207 0.941529 0
847 1 0.0731743 0.916104 0
848 1 0.0913609 0.933138 0
849 1 0.114844 0.925096 0
879 1 0.110003 0.949656 0
881 1 0.133643 0.942278 0
850 1 0.138273 0.917291 0
852 1 0.157271 0.935585 0
883 1 0.176122 0.952237 0
853 1 0.180429 0.926747 0
824 1 0.204413 0.919308 0
854 1 0.199792 0.945221 0
855 1 0.223513 0.936714 0
826 1 0.247214 0.927407 0
857 1 0.265566 0.944572 0
856 1 0.242886 0.953264 0
828 1 0.272425 0.919519 0
859 1 0.289302 0.937947 0
830 1 0.311671 0.930572 0
860 1 0.30837 0.954947 0
833 1 0.359291 0.923018 0
832 1 0.334132 0.919474 0
861 1 0.332151 0.945304 0
863 1 0.366304 0.946046 0
834 1 0.383977 0.929644 0
865 1 0.407252 0.936762 0
864 1 0.389714 0.954076 0
837 1 0.425188 0.919393 0
836 1 0.431428 0.94322 0
838 1 0.449013 0.926105 0
870 1 0.45656 0.949832 0
869 1 0.473823 0.932038 0
1711 1 0.492296 0.913966 0
1712 1 0.498063 0.938542 0
3 1 0.0354314 0.999088 0
873 1 0.0215421 0.956862 0
872 1 0.0174013 0.981489 0
874 1 0.0404522 0.973505 0
5 1 0.0588221 0.990944 0
876 1 0.0647369 0.96666 0
7 1 0.0825316 0.9834 0
877 1 0.0870986 0.957397 0
9 1 0.124655 0.992229 0
878 1 0.104981 0.974856 0
880 1 0.128443 0.966527 0
11 1 0.148337 0.984313 0
882 1 0.15252 0.959054 0
13 1 0.171916 0.97645 0
12 1 0.191261 0.994068 0
15 1 0.213761 0.986164 0
884 1 0.196045 0.969391 0
885 1 0.219859 0.960951 0
17 1 0.25594 0.995676 0
887 1 0.237641 0.979039 0
888 1 0.260494 0.970929 0
858 1 0.283518 0.962883 0
19 1 0.278472 0.987992 0
889 1 0.301756 0.980611 0
890 1 0.322705 0.997167 0
862 1 0.349174 0.96292 0
891 1 0.325664 0.972679 0
892 1 0.351796 0.988701 0
23 1 0.376786 0.995778 0
893 1 0.371488 0.97144 0
895 1 0.396473 0.978117 0
896 1 0.420075 0.98616 0
866 1 0.414143 0.961347 0
867 1 0.437878 0.967617 0
897 1 0.444531 0.993079 0
868 1 0.462005 0.975298 0
1741 1 0.479918 0.956576 0
1771 1 0.486683 0.981004 0
30 1 0.499296 0.0288978 0
1591 1 0.499166 0.782031 0
931 1 0.523312 0.0359016 0
901 1 0.517624 0.0120179 0
902 1 0.541751 0.0179744 0
929 1 0.96985 0.995551 0
904 1 0.565765 0.0242118 0
906 1 0.5841 0.00714784 0
935 1 0.589284 0.0314701 0
908 1 0.608183 0.0135654 0
939 1 0.631122 0.0210289 0
937 1 0.613545 0.0389069 0
910 1 0.648796 0.0029491 0
941 1 0.655455 0.0275482 0
912 1 0.671867 0.010428 0
942 1 0.679684 0.0353966 0
943 1 0.695768 0.0171111 0
945 1 0.718839 0.0247092 0
944 1 0.703034 0.0420091 0
914 1 0.742054 0.0212553 0
916 1 0.765214 0.0136738 0
947 1 0.760374 0.0377273 0
918 1 0.783842 0.0311881 0
919 1 0.807269 0.0239118 0
917 1 0.788818 0.00680407 0
951 1 0.825763 0.0402323 0
920 1 0.831447 0.0165004 0
922 1 0.849902 0.0328165 0
921 1 0.854755 0.0080466 0
923 1 0.873562 0.0251844 0
924 1 0.897061 0.0176031 0
1792 1 0.878378 0.000220897 0
954 1 0.891958 0.0422175 0
955 1 0.915791 0.0352217 0
925 1 0.922023 0.0115099 0
926 1 0.940239 0.0283161 0
928 1 0.945298 0.00353192 0
930 1 0.98827 0.012345 0
959 1 0.964596 0.0203439 0
960 1 0.982315 0.0375494 0
932 1 0.529475 0.0605918 0
961 1 0.513092 0.0783795 0
60 1 0.505469 0.0540123 0
962 1 0.537199 0.0854051 0
933 1 0.547665 0.0416139 0
963 1 0.553836 0.0672823 0
934 1 0.571215 0.0493621 0
965 1 0.578671 0.0745526 0
936 1 0.595875 0.056241 0
967 1 0.619323 0.063028 0
966 1 0.602297 0.0827337 0
938 1 0.637536 0.0467963 0
969 1 0.644477 0.0708853 0
940 1 0.661201 0.0530377 0
970 1 0.668524 0.0770908 0
971 1 0.684899 0.0595883 0
973 1 0.710404 0.0657596 0
972 1 0.692706 0.0828762 0
975 1 0.731496 0.0493994 0
974 1 0.733578 0.0738287 0
946 1 0.754458 0.0616564 0
977 1 0.77147 0.0796432 0
949 1 0.80147 0.048053 0
948 1 0.777738 0.0549445 0
979 1 0.795349 0.0731994 0
950 1 0.819497 0.0646806 0
980 1 0.837768 0.0818567 0
952 1 0.844652 0.057487 0
981 1 0.862092 0.0749465 0
953 1 0.868483 0.0498483 0
983 1 0.885729 0.0672891 0
984 1 0.904733 0.0844623 0
985 1 0.909412 0.059615 0
956 1 0.933593 0.052719 0
986 1 0.928617 0.0766646 0
987 1 0.951404 0.0696231 0
957 1 0.958515 0.0455645 0
958 1 0.975906 0.0616928 0
989 1 0.993697 0.0788039 0
61 1 0.999791 0.0548345 0
988 1 0.969518 0.0869382 0
991 1 0.519153 0.102698 0
993 1 0.543345 0.110476 0
120 1 0.500865 0.119882 0
992 1 0.525035 0.12805 0
964 1 0.560677 0.0917986 0
994 1 0.56681 0.116437 0
995 1 0.584026 0.0989373 0
996 1 0.591015 0.123291 0
968 1 0.626833 0.0893655 0
997 1 0.609341 0.106475 0
998 1 0.634348 0.113035 0
999 1 0.651555 0.0949053 0
1000 1 0.658067 0.120197 0
1001 1 0.676197 0.101693 0
1031 1 0.682035 0.125485 0
1002 1 0.699961 0.108626 0
1003 1 0.716506 0.0910001 0
1004 1 0.724156 0.116005 0
976 1 0.765379 0.103374 0
1005 1 0.740625 0.0976607 0
1035 1 0.748418 0.122644 0
978 1 0.813921 0.0883164 0
1007 1 0.79002 0.0961538 0
1006 1 0.783687 0.12076 0
1008 1 0.807822 0.112796 0
1009 1 0.833544 0.105182 0
1010 1 0.850786 0.122948 0
1011 1 0.85749 0.0992404 0
982 1 0.880778 0.0911773 0
1012 1 0.875525 0.116189 0
1013 1 0.899736 0.108644 0
1016 1 0.917246 0.126089 0
1017 1 0.945677 0.0933658 0
1015 1 0.922934 0.10199 0
1047 1 0.940683 0.119062 0
1018 1 0.963789 0.110947 0
1019 1 0.988341 0.103175 0
1020 1 0.98274 0.128054 0
1022 1 0.532926 0.152237 0
1021 1 0.507878 0.144645 0
1051 1 0.514621 0.169937 0
1023 1 0.549311 0.134032 0
1024 1 0.556861 0.158947 0
1025 1 0.573996 0.141392 0
1055 1 0.580664 0.166349 0
1027 1 0.615668 0.130809 0
1026 1 0.597821 0.148714 0
1028 1 0.622663 0.156154 0
1057 1 0.604375 0.174557 0
1029 1 0.640094 0.137365 0
1059 1 0.646856 0.162535 0
1030 1 0.663765 0.144237 0
1061 1 0.670801 0.169393 0
1032 1 0.68774 0.151084 0
1033 1 0.70562 0.133728 0
1063 1 0.711437 0.157642 0
1034 1 0.730544 0.140273 0
1036 1 0.753523 0.146898 0
1065 1 0.735887 0.164457 0
1066 1 0.75936 0.170912 0
1067 1 0.778527 0.144994 0
1037 1 0.802512 0.137497 0
1038 1 0.798333 0.161699 0
1039 1 0.826315 0.129201 0
1040 1 0.821831 0.154282 0
1041 1 0.845328 0.147366 0
1042 1 0.864309 0.164635 0
1071 1 0.840218 0.171918 0
1014 1 0.894006 0.132939 0
1043 1 0.869884 0.140637 0
1044 1 0.888085 0.157547 0
1045 1 0.912074 0.150192 0
1046 1 0.934967 0.143188 0
1077 1 0.929983 0.167217 0
1048 1 0.953569 0.159578 0
1049 1 0.958809 0.136115 0
1050 1 0.977761 0.152463 0
151 1 0.996705 0.169028 0
1053 1 0.538929 0.17682 0
1052 1 0.521697 0.195562 0
1081 1 0.504096 0.213505 0
1083 1 0.544837 0.201546 0
1054 1 0.5627 0.1836 0
1056 1 0.585843 0.191812 0
1085 1 0.56948 0.209395 0
1058 1 0.629384 0.180302 0
1087 1 0.611325 0.198904 0
1089 1 0.635781 0.205659 0
1086 1 0.593419 0.216934 0
1060 1 0.652948 0.18767 0
1091 1 0.676312 0.195181 0
1090 1 0.65983 0.212605 0
1062 1 0.694383 0.177217 0
1093 1 0.699902 0.200538 0
1064 1 0.717828 0.183245 0
1094 1 0.724302 0.206909 0
1095 1 0.741495 0.188829 0
1097 1 0.764841 0.196774 0
1096 1 0.747511 0.214783 0
1069 1 0.815546 0.179558 0
1068 1 0.781625 0.179988 0
1098 1 0.788382 0.20316 0
1099 1 0.811874 0.204601 0
1070 1 0.835088 0.196756 0
1072 1 0.858685 0.189882 0
1101 1 0.853168 0.213775 0
1075 1 0.905795 0.175586 0
1073 1 0.881443 0.182027 0
1103 1 0.876614 0.206927 0
1074 1 0.900659 0.199408 0
1078 1 0.948874 0.18437 0
1076 1 0.925127 0.191791 0
1107 1 0.943316 0.20946 0
1105 1 0.918897 0.216312 0
1079 1 0.971733 0.176592 0
1109 1 0.967089 0.201118 0
181 1 0.990165 0.193364 0
1082 1 0.528246 0.221312 0
1111 1 0.510497 0.238182 0
1113 1 0.534998 0.245381 0
1084 1 0.552479 0.228256 0
1114 1 0.558516 0.253379 0
1115 1 0.575924 0.23476 0
1116 1 0.582732 0.25927 0
1088 1 0.617991 0.222822 0
1117 1 0.60037 0.241775 0
1118 1 0.622693 0.247609 0
1119 1 0.642048 0.23061 0
1121 1 0.665894 0.23827 0
1120 1 0.647514 0.255713 0
1092 1 0.683772 0.219432 0
1122 1 0.68983 0.243742 0
1123 1 0.70689 0.224807 0
1124 1 0.713584 0.249546 0
1125 1 0.730675 0.231935 0
1126 1 0.754415 0.239808 0
1155 1 0.73778 0.257805 0
1127 1 0.77113 0.221132 0
1129 1 0.797826 0.226156 0
1128 1 0.778994 0.244196 0
1159 1 0.801809 0.250899 0
1100 1 0.829421 0.22194 0
1130 1 0.825279 0.245874 0
1131 1 0.848922 0.237956 0
1132 1 0.865354 0.256961 0
1102 1 0.872564 0.232442 0
1104 1 0.895206 0.224757 0
1133 1 0.890004 0.249413 0
1135 1 0.913932 0.241678 0
1136 1 0.931506 0.258196 0
1106 1 0.937265 0.233593 0
1137 1 0.956002 0.249969 0
1110 1 0.984963 0.217677 0
1108 1 0.961882 0.225295 0