ITEM: TIMESTEP
108000
ITEM: NUMBER OF ATOMS
1800
ITEM: BOX BOUNDS pp pp pp
1.3093021619897769e+00 1.6369069783800768e+02
1.3093021619897769e+00 1.6369069783800768e+02
0.0000000000000000e+00 5.5000000000000000e+00
ITEM: ATOMS id type xs ys zs
2 1 0.011335 0.00592695 0
33 1 0.029375 0.0223355 0
31 1 0.0049619 0.0295219 0
4 1 0.0531999 0.0146201 0
6 1 0.0773451 0.00694976 0
35 1 0.0720365 0.0311223 0
34 1 0.0481823 0.0388293 0
37 1 0.0963346 0.0241729 0
39 1 0.119473 0.0165062 0
38 1 0.114181 0.0412204 0
40 1 0.13832 0.0339338 0
10 1 0.14321 0.00886317 0
42 1 0.161856 0.0268767 0
73 1 0.181434 0.0425813 0
41 1 0.167437 0.00143941 0
43 1 0.186065 0.0184592 0
14 1 0.20983 0.0110223 0
44 1 0.204404 0.0348433 0
45 1 0.227543 0.0275614 0
16 1 0.252053 0.0195563 0
886 1 0.23288 0.00316434 0
46 1 0.269774 0.037372 0
18 1 0.276073 0.0127143 0
49 1 0.293653 0.0314988 0
20 1 0.302472 0.00731757 0
51 1 0.3182 0.028196 0
22 1 0.342856 0.0330555 0
21 1 0.359399 0.0150591 0
890 1 0.331433 0.0053664 0
24 1 0.38398 0.0211756 0
53 1 0.367512 0.0381019 0
894 1 0.402218 0.00430382 0
25 1 0.408954 0.0276838 0
26 1 0.433581 0.0354951 0
27 1 0.427243 0.0103666 0
898 1 0.450312 0.0176882 0
29 1 0.474281 0.0235023 0
900 1 0.491522 0.005774 0
28 1 0.456928 0.0428483 0
30 1 0.497733 0.0305151 0
32 1 0.0232854 0.0463922 0
62 1 0.0174858 0.0713816 0
63 1 0.0417426 0.0632137 0
65 1 0.0661851 0.0556112 0
66 1 0.0842577 0.0734987 0
64 1 0.0607594 0.0808986 0
36 1 0.0901748 0.0480227 0
67 1 0.107658 0.0660618 0
69 1 0.132557 0.0575378 0
68 1 0.126725 0.0833483 0
71 1 0.157251 0.0508129 0
72 1 0.174835 0.0677563 0
70 1 0.149989 0.0751281 0
74 1 0.222653 0.05275 0
103 1 0.199174 0.0606406 0
105 1 0.217172 0.0777624 0
101 1 0.193046 0.085213 0
75 1 0.246463 0.0448498 0
77 1 0.264895 0.0614328 0
76 1 0.240993 0.0699299 0
137 1 0.259024 0.0855361 0
47 1 0.288312 0.0545403 0
48 1 0.30719 0.0700265 0
78 1 0.28401 0.0792265 0
50 1 0.32639 0.0515739 0
81 1 0.333522 0.0762653 0
52 1 0.350704 0.0577011 0
82 1 0.358033 0.0819386 0
55 1 0.391408 0.0454774 0
83 1 0.374481 0.0627305 0
54 1 0.398367 0.0699026 0
57 1 0.439328 0.0598493 0
85 1 0.421387 0.0768108 0
56 1 0.415398 0.0518497 0
87 1 0.44732 0.0844744 0
59 1 0.480569 0.0490555 0
58 1 0.463016 0.0670281 0
89 1 0.48805 0.0735634 0
990 1 0.0134946 0.0958332 0
92 1 0.032333 0.112303 0
93 1 0.0365749 0.087202 0
91 1 0.00830643 0.120617 0
94 1 0.0554859 0.104995 0
95 1 0.0789627 0.0991059 0
125 1 0.0737072 0.121868 0
123 1 0.0503789 0.129382 0
96 1 0.0980019 0.11688 0
97 1 0.103234 0.091546 0
98 1 0.121744 0.107708 0
99 1 0.145203 0.100013 0
100 1 0.169463 0.092814 0
130 1 0.164121 0.116941 0
129 1 0.139925 0.124133 0
131 1 0.188499 0.110344 0
102 1 0.21211 0.101802 0
133 1 0.206572 0.126464 0
104 1 0.229974 0.117987 0
106 1 0.234856 0.0945662 0
135 1 0.253805 0.110312 0
107 1 0.276751 0.1019 0
109 1 0.299745 0.110741 0
79 1 0.316251 0.0932141 0
108 1 0.281119 0.127447 0
80 1 0.340558 0.100525 0
110 1 0.323081 0.118252 0
141 1 0.347995 0.124229 0
113 1 0.380804 0.0871234 0
111 1 0.364132 0.105749 0
84 1 0.404271 0.0950503 0
112 1 0.387158 0.112496 0
143 1 0.371495 0.13066 0
115 1 0.411526 0.118746 0
86 1 0.428954 0.100577 0
116 1 0.435543 0.125912 0
117 1 0.452398 0.108574 0
88 1 0.470948 0.0908642 0
90 1 0.494366 0.0982098 0
119 1 0.476237 0.11528 0
122 1 0.0275447 0.136758 0
152 1 0.0218737 0.16137 0
121 1 0.00320433 0.144831 0
153 1 0.0463322 0.154211 0
124 1 0.0695426 0.146514 0
155 1 0.0873291 0.164357 0
154 1 0.0639646 0.171456 0
126 1 0.0924418 0.140433 0
127 1 0.116433 0.13249 0
128 1 0.135319 0.14918 0
157 1 0.110667 0.156751 0
159 1 0.158691 0.141485 0
161 1 0.178151 0.159386 0
160 1 0.154275 0.165827 0
132 1 0.182613 0.135478 0
163 1 0.20188 0.152398 0
134 1 0.225121 0.143336 0
193 1 0.222406 0.169362 0
136 1 0.267539 0.148389 0
165 1 0.247928 0.134163 0
164 1 0.24524 0.160257 0
167 1 0.272579 0.171574 0
139 1 0.305529 0.134714 0
138 1 0.290592 0.154197 0
169 1 0.313684 0.159697 0
140 1 0.330788 0.142275 0
142 1 0.353843 0.148511 0
171 1 0.33689 0.166103 0
172 1 0.361115 0.17187 0
114 1 0.39441 0.136854 0
173 1 0.377523 0.154894 0
144 1 0.401527 0.161609 0
145 1 0.417511 0.143745 0
146 1 0.42487 0.16942 0
147 1 0.441979 0.150832 0
118 1 0.459614 0.133471 0
149 1 0.482915 0.140102 0
148 1 0.465115 0.157469 0
150 1 0.489711 0.165063 0
183 1 0.039994 0.178019 0
182 1 0.0345981 0.203073 0
1080 1 0.0160034 0.186638 0
211 1 0.0102257 0.210106 0
184 1 0.0578703 0.195816 0
185 1 0.0818308 0.18895 0
215 1 0.0766155 0.213396 0
158 1 0.129256 0.174265 0
186 1 0.100802 0.206063 0
156 1 0.105885 0.181645 0
187 1 0.124379 0.198714 0
189 1 0.14819 0.189978 0
191 1 0.173494 0.183633 0
190 1 0.166632 0.207086 0
188 1 0.143717 0.215561 0
221 1 0.190989 0.203405 0
162 1 0.197072 0.176427 0
192 1 0.214323 0.194145 0
195 1 0.237256 0.203576 0
166 1 0.252331 0.185056 0
196 1 0.260161 0.211767 0
168 1 0.29558 0.17853 0
197 1 0.277182 0.194965 0
199 1 0.300688 0.202148 0
170 1 0.3193 0.183923 0
201 1 0.342994 0.190588 0
200 1 0.324928 0.208646 0
202 1 0.349172 0.214612 0
203 1 0.366934 0.197348 0
174 1 0.384105 0.178671 0
204 1 0.390606 0.204198 0
175 1 0.407425 0.186803 0
177 1 0.4483 0.175942 0
205 1 0.414066 0.212073 0
176 1 0.43109 0.193726 0
178 1 0.454861 0.200709 0
179 1 0.472828 0.182828 0
180 1 0.497221 0.189636 0
209 1 0.478975 0.207009 0
212 1 0.0279376 0.227293 0
241 1 0.0223949 0.25169 0
1140 1 0.00445532 0.234383 0
243 1 0.0462323 0.244357 0
213 1 0.0525047 0.220341 0
214 1 0.0698884 0.237894 0
245 1 0.0874538 0.2547 0
216 1 0.094519 0.23024 0
217 1 0.119626 0.222465 0
218 1 0.136033 0.239668 0
247 1 0.11234 0.24984 0
219 1 0.160921 0.242372 0
220 1 0.180486 0.227063 0
222 1 0.183109 0.253513 0
194 1 0.217482 0.219935 0
223 1 0.202383 0.238754 0
224 1 0.225163 0.246962 0
225 1 0.241835 0.228961 0
227 1 0.264754 0.236239 0
226 1 0.247469 0.254253 0
198 1 0.28317 0.219985 0
228 1 0.288723 0.243444 0
229 1 0.306988 0.225898 0
230 1 0.312795 0.251061 0
231 1 0.331765 0.232768 0
232 1 0.355038 0.23944 0
261 1 0.337025 0.257729 0
233 1 0.372175 0.2225 0
234 1 0.379313 0.246746 0
235 1 0.397 0.228934 0
265 1 0.402759 0.254938 0
207 1 0.43777 0.219877 0
206 1 0.420324 0.237375 0
237 1 0.444593 0.244591 0
208 1 0.461836 0.225294 0
210 1 0.485869 0.233105 0
239 1 0.468878 0.250282 0
240 1 0.492344 0.256641 0
242 1 0.0402201 0.26857 0
271 1 0.0334104 0.292371 0
1170 1 0.0159005 0.275914 0
1200 1 0.0104443 0.302035 0
244 1 0.0637358 0.2629 0
273 1 0.0608469 0.291052 0
275 1 0.0823166 0.279246 0
246 1 0.104907 0.291372 0
248 1 0.123125 0.27487 0
279 1 0.127435 0.301638 0
249 1 0.144062 0.26249 0
251 1 0.166473 0.271086 0
250 1 0.147114 0.287522 0
281 1 0.169955 0.296002 0
253 1 0.20648 0.263453 0
252 1 0.188415 0.28057 0
254 1 0.212131 0.288455 0
257 1 0.270881 0.260433 0
255 1 0.229666 0.271957 0
256 1 0.253228 0.278991 0
285 1 0.235415 0.296206 0
287 1 0.258346 0.303324 0
259 1 0.294885 0.268075 0
258 1 0.276809 0.285063 0
289 1 0.301312 0.292578 0
260 1 0.318306 0.275465 0
263 1 0.361181 0.264627 0
262 1 0.342289 0.282116 0
291 1 0.324337 0.300249 0
293 1 0.365667 0.2893 0
264 1 0.384532 0.271805 0
295 1 0.389962 0.296475 0
266 1 0.408557 0.279406 0
236 1 0.426371 0.261382 0
238 1 0.449652 0.269224 0
267 1 0.431557 0.285959 0
297 1 0.414488 0.303516 0
268 1 0.455534 0.292851 0
1141 1 0.498459 0.281378 0
269 1 0.474907 0.275057 0
270 1 0.479629 0.300071 0
301 1 0.0238161 0.324544 0
1230 1 0.00450229 0.34062 0
272 1 0.0459307 0.311894 0
303 1 0.0476048 0.336397 0
276 1 0.0839902 0.304844 0
274 1 0.0675116 0.32266 0
305 1 0.0896921 0.331406 0
304 1 0.069733 0.347507 0
277 1 0.108608 0.316562 0
278 1 0.131436 0.326583 0
307 1 0.112354 0.341809 0
280 1 0.151332 0.311232 0
311 1 0.154202 0.335309 0
282 1 0.174358 0.320036 0
312 1 0.178046 0.34498 0
283 1 0.192599 0.304477 0
284 1 0.216306 0.312832 0
313 1 0.19654 0.328351 0
315 1 0.220923 0.338443 0
286 1 0.239843 0.321455 0
317 1 0.26348 0.328272 0
316 1 0.244859 0.347139 0
288 1 0.282122 0.310128 0
318 1 0.288194 0.334754 0
290 1 0.307091 0.318298 0
319 1 0.313167 0.342075 0
292 1 0.348363 0.306998 0
321 1 0.331343 0.324743 0
323 1 0.355175 0.331913 0
324 1 0.378097 0.338959 0
294 1 0.372481 0.314258 0
325 1 0.401817 0.34567 0
296 1 0.396172 0.320609 0
298 1 0.437721 0.310331 0
327 1 0.419527 0.328345 0
328 1 0.444164 0.33421 0
329 1 0.468208 0.341655 0
299 1 0.461762 0.317239 0
300 1 0.485608 0.324545 0
302 1 0.0271411 0.351198 0
332 1 0.0295497 0.376187 0
331 1 0.00710034 0.365711 0
361 1 0.00958676 0.390819 0
333 1 0.0499786 0.361381 0
335 1 0.0724209 0.371855 0
334 1 0.0520789 0.386252 0
306 1 0.0933642 0.357523 0
337 1 0.0950376 0.382582 0
308 1 0.115689 0.367022 0
309 1 0.135461 0.35172 0
339 1 0.138672 0.376514 0
310 1 0.158853 0.359559 0
341 1 0.162164 0.384965 0
343 1 0.182268 0.370026 0
314 1 0.201737 0.354238 0
344 1 0.204919 0.37908 0
345 1 0.22615 0.363286 0
375 1 0.229014 0.388125 0
347 1 0.269478 0.351962 0
346 1 0.250135 0.372762 0
377 1 0.275775 0.377397 0
349 1 0.293896 0.359398 0
348 1 0.300357 0.383929 0
350 1 0.31846 0.366275 0
320 1 0.336255 0.349064 0
351 1 0.342371 0.373021 0
381 1 0.325249 0.390395 0
322 1 0.360655 0.355546 0
353 1 0.366201 0.379892 0
355 1 0.384582 0.363765 0
354 1 0.391133 0.387762 0
356 1 0.408792 0.369922 0
326 1 0.42614 0.352033 0
357 1 0.432682 0.377388 0
359 1 0.45037 0.358882 0
1201 1 0.492845 0.348163 0
358 1 0.456795 0.383612 0
330 1 0.475245 0.366023 0
1231 1 0.499682 0.37307 0
360 1 0.481637 0.390492 0
363 1 0.0325177 0.401067 0
362 1 0.0115539 0.41547 0
364 1 0.0341353 0.425386 0
336 1 0.0744004 0.39688 0
365 1 0.0551839 0.4119 0
366 1 0.0774269 0.420937 0
338 1 0.117794 0.391796 0
367 1 0.0980179 0.407322 0
369 1 0.121135 0.416899 0
368 1 0.100747 0.431443 0
340 1 0.141264 0.401286 0
370 1 0.143458 0.426166 0
371 1 0.163711 0.410908 0
342 1 0.184967 0.395132 0
372 1 0.187117 0.419762 0
373 1 0.208157 0.404736 0
403 1 0.210579 0.429247 0
374 1 0.231292 0.413857 0
376 1 0.255785 0.395913 0
405 1 0.253417 0.42285 0
378 1 0.280431 0.401307 0
379 1 0.307073 0.406703 0
409 1 0.290585 0.42338 0
410 1 0.31388 0.432414 0
352 1 0.349188 0.397466 0
382 1 0.355295 0.423245 0
380 1 0.331508 0.415159 0
383 1 0.37264 0.405116 0
385 1 0.396905 0.412164 0
384 1 0.379521 0.428966 0
387 1 0.414214 0.394868 0
386 1 0.421132 0.41908 0
388 1 0.438748 0.401516 0
419 1 0.445509 0.426631 0
389 1 0.463547 0.408054 0
1261 1 0.488049 0.414577 0
390 1 0.469458 0.431651 0
393 1 0.013756 0.440325 0
423 1 0.0155383 0.465278 0
394 1 0.037137 0.450054 0
425 1 0.0398142 0.474684 0
395 1 0.057793 0.435717 0
396 1 0.0594949 0.461035 0
397 1 0.0801314 0.446987 0
427 1 0.0831845 0.471277 0
399 1 0.122978 0.44212 0
398 1 0.102529 0.457071 0
429 1 0.125627 0.466707 0
401 1 0.166809 0.435514 0
400 1 0.146118 0.450411 0
431 1 0.168341 0.460666 0
430 1 0.148424 0.475874 0
402 1 0.188948 0.445066 0
433 1 0.211923 0.455 0
432 1 0.191348 0.469496 0
404 1 0.233138 0.440816 0
406 1 0.253476 0.453588 0
435 1 0.233946 0.467713 0
407 1 0.271949 0.438364 0
437 1 0.275177 0.462801 0
408 1 0.295453 0.447337 0
439 1 0.299095 0.472403 0
441 1 0.318584 0.45682 0
413 1 0.361046 0.447703 0
411 1 0.33725 0.440842 0
412 1 0.341735 0.466225 0
415 1 0.403124 0.436822 0
414 1 0.385715 0.455069 0
443 1 0.365731 0.473037 0
416 1 0.410506 0.461183 0
417 1 0.427361 0.443581 0
418 1 0.4512 0.451148 0
447 1 0.434176 0.469457 0
1291 1 0.494468 0.438792 0
420 1 0.476123 0.456039 0
449 1 0.460166 0.47541 0
454 1 0.0216808 0.513034 0
424 1 0.0191585 0.488844 0
455 1 0.042184 0.499408 0
426 1 0.0629954 0.485282 0
456 1 0.0651289 0.510268 0
457 1 0.0855944 0.495914 0
487 1 0.0876674 0.520545 0
428 1 0.105548 0.481701 0
459 1 0.128632 0.491425 0
458 1 0.107379 0.506091 0
489 1 0.130445 0.515885 0
461 1 0.171409 0.485042 0
460 1 0.151664 0.500654 0
462 1 0.173821 0.51054 0
434 1 0.213394 0.481639 0
463 1 0.193499 0.495324 0
464 1 0.215975 0.506579 0
493 1 0.196353 0.521236 0
436 1 0.256696 0.478209 0
465 1 0.23695 0.493013 0
467 1 0.260393 0.502895 0
466 1 0.239848 0.51783 0
438 1 0.280334 0.486929 0
469 1 0.303821 0.497448 0
468 1 0.283459 0.512266 0
440 1 0.322296 0.481189 0
442 1 0.347787 0.490191 0
471 1 0.327591 0.505343 0
473 1 0.352274 0.514167 0
445 1 0.389985 0.480068 0
444 1 0.372464 0.497521 0
475 1 0.39669 0.504938 0
446 1 0.414026 0.486139 0
477 1 0.422316 0.510211 0
448 1 0.441444 0.492798 0
478 1 0.447764 0.516951 0
450 1 0.483883 0.481825 0
479 1 0.466233 0.499751 0
1381 1 0.490051 0.506163 0
483 1 0.0236676 0.537675 0
482 1 0.00356847 0.552169 0
513 1 0.0258193 0.562945 0
485 1 0.0440258 0.52372 0
452 1 0.0010653 0.527495 0
484 1 0.0464241 0.548297 0
486 1 0.0665176 0.53491 0
515 1 0.0694341 0.559482 0
517 1 0.0895452 0.545276 0
488 1 0.110275 0.530245 0
519 1 0.112665 0.554662 0
490 1 0.13353 0.540194 0
491 1 0.15463 0.52584 0
521 1 0.156452 0.551151 0
492 1 0.176517 0.536638 0
523 1 0.179251 0.561043 0
494 1 0.199704 0.547205 0
495 1 0.219179 0.531348 0
525 1 0.222471 0.557161 0
496 1 0.24229 0.541566 0
497 1 0.262436 0.527378 0
527 1 0.266106 0.551782 0
470 1 0.307111 0.521599 0
499 1 0.308466 0.545549 0
498 1 0.285581 0.536616 0
529 1 0.2885 0.561327 0
472 1 0.331439 0.529848 0
501 1 0.330984 0.553678 0
502 1 0.352856 0.561882 0
503 1 0.355647 0.538299 0
474 1 0.378403 0.523705 0
505 1 0.388279 0.548045 0
476 1 0.405214 0.52875 0
506 1 0.414264 0.553643 0
507 1 0.4306 0.534677 0
508 1 0.437469 0.559797 0
509 1 0.45383 0.54146 0
480 1 0.472638 0.52485 0
510 1 0.479012 0.549436 0
1382 1 0.496335 0.530056 0
512 1 0.029021 0.589259 0
511 1 0.00539504 0.577142 0
541 1 0.00881115 0.603667 0
514 1 0.0486168 0.573271 0
545 1 0.0726366 0.585078 0
543 1 0.052211 0.59944 0
516 1 0.0922202 0.569915 0
518 1 0.114503 0.579362 0
547 1 0.0950724 0.595413 0
548 1 0.117215 0.605714 0
520 1 0.136019 0.565173 0
549 1 0.138056 0.590205 0
522 1 0.158755 0.576884 0
551 1 0.161785 0.601012 0
553 1 0.18168 0.586277 0
524 1 0.202247 0.571317 0
554 1 0.205184 0.596103 0
555 1 0.226664 0.581789 0
526 1 0.24641 0.567217 0
556 1 0.227914 0.607026 0
557 1 0.248159 0.59298 0
528 1 0.269103 0.577852 0
558 1 0.270837 0.60299 0
500 1 0.311223 0.57055 0
559 1 0.291542 0.586691 0
530 1 0.314312 0.595208 0
531 1 0.334321 0.578795 0
532 1 0.338327 0.603149 0
533 1 0.357102 0.585876 0
504 1 0.375584 0.568099 0
534 1 0.380606 0.592107 0
535 1 0.398634 0.572828 0
536 1 0.403968 0.597559 0
537 1 0.421724 0.579384 0
567 1 0.428663 0.604082 0
538 1 0.445261 0.584875 0
539 1 0.460848 0.566621 0
540 1 0.484774 0.573518 0
569 1 0.468728 0.593016 0
1441 1 0.493256 0.598033 0
542 1 0.0313403 0.614132 0
571 1 0.0111966 0.629148 0
573 1 0.0344605 0.638576 0
546 1 0.0751962 0.610784 0
544 1 0.0540826 0.623531 0
575 1 0.0777257 0.635288 0
574 1 0.0577939 0.650206 0
577 1 0.0978472 0.621383 0
579 1 0.120352 0.630813 0
576 1 0.100207 0.646135 0
550 1 0.141477 0.615671 0
581 1 0.164059 0.626032 0
580 1 0.142621 0.640591 0
611 1 0.16596 0.650604 0
552 1 0.185213 0.611687 0
582 1 0.187522 0.636077 0
583 1 0.208413 0.622435 0
584 1 0.211907 0.647462 0
585 1 0.232058 0.632816 0
586 1 0.255503 0.643076 0
587 1 0.251927 0.618632 0
560 1 0.294999 0.611044 0
589 1 0.276669 0.627195 0
590 1 0.300165 0.636287 0
561 1 0.318979 0.619423 0
563 1 0.362123 0.610263 0
562 1 0.343524 0.627785 0
591 1 0.324083 0.644163 0
565 1 0.385418 0.616007 0
564 1 0.365767 0.634879 0
595 1 0.391108 0.640527 0
566 1 0.410102 0.621843 0
568 1 0.45137 0.609655 0
596 1 0.415446 0.646435 0
597 1 0.434267 0.627754 0
599 1 0.439569 0.653058 0
1442 1 0.499843 0.621874 0
570 1 0.475061 0.61589 0
600 1 0.458225 0.635162 0
1471 1 0.48169 0.640092 0
572 1 0.0146553 0.65406 0
602 1 0.0168842 0.67913 0
603 1 0.0375455 0.664217 0
633 1 0.0389031 0.689973 0
605 1 0.0803348 0.661196 0
604 1 0.0595848 0.676224 0
606 1 0.0825663 0.685886 0
578 1 0.12235 0.657269 0
607 1 0.103058 0.671068 0
608 1 0.125839 0.681745 0
609 1 0.14572 0.665893 0
610 1 0.168772 0.675502 0
639 1 0.148435 0.691186 0
612 1 0.191995 0.686195 0
613 1 0.189955 0.660826 0
614 1 0.213871 0.672178 0
615 1 0.235598 0.657934 0
616 1 0.236474 0.682236 0
617 1 0.260919 0.667947 0
647 1 0.25902 0.691611 0
588 1 0.280265 0.652828 0
619 1 0.305009 0.661011 0
618 1 0.287397 0.67976 0
620 1 0.311841 0.685857 0
593 1 0.348187 0.651923 0
621 1 0.330205 0.668875 0
592 1 0.355176 0.675472 0
622 1 0.336973 0.693422 0
594 1 0.374307 0.658164 0
625 1 0.398273 0.664648 0
623 1 0.38054 0.683132 0
626 1 0.405609 0.68922 0
598 1 0.447634 0.676487 0
627 1 0.422897 0.67079 0
657 1 0.430814 0.694643 0
628 1 0.472797 0.682348 0
629 1 0.464372 0.658083 0
1501 1 0.489669 0.664219 0
630 1 0.497044 0.689318 0
632 1 0.0182664 0.70324 0
663 1 0.0202635 0.728467 0
634 1 0.0410634 0.715128 0
635 1 0.0610004 0.701121 0
636 1 0.0841781 0.710548 0
665 1 0.0634067 0.725692 0
666 1 0.0873963 0.734944 0
637 1 0.105441 0.695608 0
638 1 0.128851 0.706581 0
667 1 0.109454 0.71953 0
669 1 0.131398 0.731404 0
641 1 0.171197 0.701377 0
640 1 0.151511 0.717133 0
671 1 0.173977 0.727294 0
643 1 0.214499 0.696599 0
642 1 0.193104 0.711763 0
673 1 0.197181 0.737159 0
644 1 0.216548 0.721891 0
645 1 0.236404 0.706651 0
675 1 0.23899 0.731496 0
646 1 0.258301 0.716292 0
649 1 0.296056 0.706026 0
648 1 0.280973 0.724275 0
679 1 0.304234 0.731802 0
650 1 0.320237 0.711821 0
651 1 0.343526 0.717386 0
681 1 0.328225 0.736994 0
653 1 0.361245 0.699129 0
624 1 0.386991 0.706372 0
654 1 0.369129 0.723017 0
685 1 0.394272 0.729315 0
655 1 0.414017 0.711765 0
656 1 0.437484 0.719364 0
686 1 0.419811 0.73641 0
658 1 0.454524 0.70132 0
687 1 0.46162 0.724708 0
659 1 0.479371 0.706855 0
689 1 0.48672 0.732272 0
662 1 0.021454 0.754534 0
693 1 0.0240361 0.778315 0
691 1 0.000666877 0.768491 0
664 1 0.0437371 0.740394 0
694 1 0.0458229 0.765838 0
695 1 0.0666578 0.750801 0
696 1 0.0675884 0.776071 0
697 1 0.0889442 0.761094 0
668 1 0.110178 0.746357 0
698 1 0.11353 0.771494 0
699 1 0.133345 0.756207 0
670 1 0.153933 0.74214 0
701 1 0.157091 0.767041 0
700 1 0.135972 0.781031 0
672 1 0.177205 0.752564 0
702 1 0.180492 0.77727 0
674 1 0.219828 0.746779 0
703 1 0.200043 0.761941 0
705 1 0.224264 0.771864 0
677 1 0.263214 0.740525 0
676 1 0.24336 0.755923 0
707 1 0.2689 0.765781 0
735 1 0.249379 0.780867 0
678 1 0.287563 0.749729 0
709 1 0.293143 0.774593 0
680 1 0.31155 0.755667 0
710 1 0.319078 0.778579 0
652 1 0.352544 0.741371 0
682 1 0.359679 0.76565 0
711 1 0.335666 0.75973 0
683 1 0.377007 0.747784 0
713 1 0.384429 0.771562 0
684 1 0.401771 0.753803 0
716 1 0.40877 0.777781 0
717 1 0.444446 0.74405 0
715 1 0.425514 0.760858 0
718 1 0.450517 0.767822 0
1591 1 0.50005 0.781066 0
690 1 0.493614 0.756575 0
688 1 0.468374 0.749711 0
719 1 0.47518 0.774283 0
692 1 0.00313034 0.792672 0
722 1 0.0053275 0.821692 0
723 1 0.0288203 0.81197 0
725 1 0.0464423 0.792779 0
726 1 0.0711114 0.799264 0
755 1 0.0708548 0.823844 0
727 1 0.0920705 0.786819 0
728 1 0.114523 0.796817 0
757 1 0.0949829 0.813392 0
729 1 0.138021 0.804903 0
730 1 0.161418 0.818454 0
731 1 0.159438 0.792751 0
704 1 0.203882 0.786668 0
732 1 0.184006 0.804814 0
763 1 0.203647 0.821019 0
734 1 0.228784 0.820692 0
733 1 0.229126 0.796221 0
736 1 0.252358 0.807917 0
706 1 0.274793 0.790449 0
737 1 0.284138 0.812814 0
708 1 0.301732 0.79741 0
738 1 0.308058 0.82052 0
739 1 0.326213 0.80213 0
741 1 0.342884 0.78369 0
742 1 0.349752 0.808493 0
712 1 0.366726 0.78961 0
714 1 0.390677 0.795601 0
743 1 0.373239 0.814629 0
745 1 0.397709 0.820198 0
746 1 0.414779 0.802131 0
747 1 0.432967 0.784665 0
748 1 0.438719 0.808658 0
749 1 0.458731 0.792087 0
720 1 0.481906 0.798537 0
750 1 0.463544 0.81624 0
1621 1 0.487377 0.822712 0
753 1 0.0239542 0.838563 0
783 1 0.0198211 0.864669 0
754 1 0.0418463 0.855931 0
752 1 -0.000200187 0.84846 0
724 1 0.0471169 0.831223 0
785 1 0.0660937 0.847904 0
756 1 0.0897703 0.839663 0
786 1 0.0848621 0.865753 0
758 1 0.115116 0.831895 0
787 1 0.109436 0.859451 0
789 1 0.13247 0.852741 0
759 1 0.138952 0.829367 0
760 1 0.157867 0.8447 0
791 1 0.17531 0.862676 0
761 1 0.182624 0.833799 0
790 1 0.151573 0.868427 0
762 1 0.197708 0.853908 0
764 1 0.220624 0.845107 0
765 1 0.244766 0.839607 0
795 1 0.240969 0.863311 0
766 1 0.264964 0.855967 0
767 1 0.266822 0.829563 0
769 1 0.314789 0.843517 0
768 1 0.290504 0.838139 0
799 1 0.299545 0.86229 0
740 1 0.33206 0.826569 0
770 1 0.339157 0.850994 0
771 1 0.355997 0.833151 0
773 1 0.36383 0.857105 0
744 1 0.379609 0.838513 0
774 1 0.387341 0.862979 0
775 1 0.403798 0.84479 0
777 1 0.421174 0.826344 0
807 1 0.428598 0.850954 0
778 1 0.445914 0.833671 0
809 1 0.452735 0.858836 0
779 1 0.470163 0.841027 0
780 1 0.477732 0.863853 0
1651 1 0.495061 0.846839 0
812 1 0.013289 0.890015 0
814 1 0.0315978 0.907131 0
813 1 0.0375786 0.882275 0
784 1 0.0616284 0.874132 0
815 1 0.0555133 0.899129 0
816 1 0.0793777 0.891438 0
788 1 0.127711 0.876142 0
817 1 0.103212 0.883378 0
819 1 0.122407 0.901492 0
818 1 0.0978763 0.908025 0
821 1 0.169807 0.886939 0
820 1 0.1457 0.893383 0
851 1 0.164509 0.910969 0
793 1 0.216817 0.871022 0
792 1 0.193443 0.879439 0
823 1 0.212409 0.896714 0
822 1 0.188601 0.903701 0
794 1 0.234634 0.887898 0
796 1 0.25722 0.880852 0
827 1 0.257946 0.905852 0
825 1 0.231948 0.912676 0
797 1 0.280249 0.876369 0
798 1 0.283635 0.900051 0
800 1 0.303908 0.886161 0
801 1 0.322753 0.868496 0
831 1 0.328123 0.892984 0
772 1 0.347032 0.874973 0
802 1 0.353282 0.898993 0
803 1 0.37029 0.880842 0
804 1 0.377526 0.905048 0
805 1 0.394392 0.886412 0
835 1 0.401533 0.911406 0
776 1 0.411949 0.868491 0
806 1 0.418761 0.893417 0
808 1 0.43589 0.876736 0
839 1 0.442331 0.90135 0
1681 1 0.484165 0.888832 0
810 1 0.460038 0.883271 0
840 1 0.467518 0.90721 0
842 1 0.00319877 0.939914 0
843 1 0.00786407 0.914905 0
844 1 0.0258428 0.931068 0
873 1 0.0219378 0.956518 0
875 1 0.0449464 0.948225 0
845 1 0.0503669 0.923736 0
846 1 0.0691389 0.941428 0
847 1 0.0741706 0.916736 0
848 1 0.0928964 0.933308 0
849 1 0.116813 0.924495 0
879 1 0.11222 0.949025 0
881 1 0.136511 0.942721 0
850 1 0.141 0.918022 0
852 1 0.158837 0.934718 0
883 1 0.177368 0.952485 0
853 1 0.183127 0.927876 0
824 1 0.207611 0.921135 0
854 1 0.20185 0.945276 0
855 1 0.22649 0.937103 0
826 1 0.250864 0.929972 0
857 1 0.269337 0.947612 0
856 1 0.244739 0.954215 0
828 1 0.276794 0.92313 0
829 1 0.303426 0.915507 0
859 1 0.293492 0.940784 0
830 1 0.317135 0.935129 0
833 1 0.360012 0.923376 0
832 1 0.336133 0.917548 0
861 1 0.340943 0.942448 0
863 1 0.364852 0.946745 0
834 1 0.384122 0.929815 0
865 1 0.408059 0.936144 0
864 1 0.390691 0.953856 0
837 1 0.425724 0.918839 0
836 1 0.432053 0.94326 0
838 1 0.449151 0.924749 0
870 1 0.455707 0.949807 0
869 1 0.47219 0.931765 0
1711 1 0.490704 0.914503 0
1712 1 0.497125 0.938712 0
1741 1 0.48009 0.956431 0
3 1 0.0354623 0.998342 0
872 1 0.0167002 0.981507 0
874 1 0.0400279 0.97358 0
5 1 0.0583179 0.989952 0
876 1 0.0641413 0.965614 0
7 1 0.0816807 0.981973 0
877 1 0.0880637 0.957304 0
8 1 0.100699 0.999805 0
9 1 0.124495 0.992123 0
878 1 0.106276 0.974751 0
880 1 0.130782 0.967476 0
11 1 0.148304 0.984092 0
882 1 0.153983 0.960561 0
13 1 0.173027 0.977501 0
12 1 0.191548 0.993877 0
15 1 0.214489 0.985286 0
884 1 0.196007 0.969035 0
885 1 0.220161 0.961092 0
17 1 0.256736 0.995138 0
887 1 0.238832 0.978696 0
888 1 0.26285 0.971079 0
860 1 0.312052 0.959876 0
858 1 0.287981 0.96479 0
19 1 0.282273 0.989169 0
889 1 0.305999 0.983591 0
862 1 0.348913 0.965599 0
891 1 0.329569 0.980249 0
892 1 0.351917 0.990425 0
23 1 0.37739 0.996256 0
893 1 0.372585 0.971146 0
895 1 0.396884 0.978386 0
896 1 0.420356 0.985732 0
866 1 0.414711 0.960443 0
867 1 0.438116 0.967806 0
897 1 0.444729 0.993536 0
868 1 0.461324 0.974919 0
899 1 0.468588 0.999794 0
1771 1 0.484978 0.981294 0
931 1 0.521092 0.0372713 0
901 1 0.514395 0.0126403 0
902 1 0.539677 0.0200199 0
904 1 0.56346 0.0266958 0
906 1 0.580755 0.00851279 0
935 1 0.587502 0.0337432 0
905 1 0.557642 0.00149313 0
908 1 0.604675 0.0153892 0
939 1 0.628924 0.0213365 0
937 1 0.611058 0.0395556 0
910 1 0.647112 0.00416451 0
941 1 0.652341 0.0288808 0
912 1 0.670181 0.0113722 0
942 1 0.676503 0.0356578 0
943 1 0.694623 0.0181213 0
945 1 0.717842 0.0261423 0
944 1 0.700095 0.0423203 0
1784 1 0.714151 0.000179923 0
914 1 0.742073 0.0219859 0
916 1 0.766549 0.0141009 0
947 1 0.759756 0.038646 0
918 1 0.784425 0.031801 0
919 1 0.807281 0.0243282 0
917 1 0.789759 0.00658343 0
951 1 0.827064 0.0416803 0
920 1 0.831318 0.0174039 0
922 1 0.850005 0.0339671 0
921 1 0.855545 0.00973594 0
923 1 0.873655 0.0265461 0
924 1 0.897898 0.0197811 0
1792 1 0.879505 0.00270797 0
954 1 0.891591 0.043634 0
955 1 0.915712 0.0358863 0
925 1 0.921621 0.0112532 0
926 1 0.939702 0.0279691 0
928 1 0.944976 0.00311182 0
930 1 0.986782 0.0134564 0
959 1 0.962759 0.0200119 0
960 1 0.981632 0.0371714 0
933 1 0.545402 0.0443082 0
932 1 0.527863 0.0620435 0
961 1 0.511571 0.0799652 0
60 1 0.504236 0.0552963 0
962 1 0.535034 0.0872783 0
963 1 0.552117 0.068811 0
934 1 0.570308 0.0516295 0
965 1 0.577078 0.0775961 0
936 1 0.593412 0.0586073 0
967 1 0.617793 0.0635243 0
966 1 0.601095 0.083054 0
938 1 0.634914 0.0455819 0
969 1 0.641923 0.0711459 0
940 1 0.658622 0.0533179 0
970 1 0.666109 0.0779537 0
971 1 0.683374 0.0592817 0
973 1 0.708726 0.0648188 0
972 1 0.691199 0.0832175 0
975 1 0.734345 0.0462968 0
974 1 0.732368 0.0718613 0
946 1 0.754366 0.0630049 0
977 1 0.771389 0.0806117 0
949 1 0.803265 0.0486171 0
948 1 0.777957 0.0558568 0
979 1 0.795417 0.0736851 0
950 1 0.819893 0.0664865 0
980 1 0.838092 0.0837604 0
952 1 0.844118 0.058905 0
981 1 0.862801 0.0767712 0
953 1 0.868 0.0524921 0
983 1 0.886928 0.0682521 0
984 1 0.904671 0.0847124 0
985 1 0.910578 0.0598715 0
956 1 0.933583 0.0523078 0
986 1 0.928225 0.0768855 0
987 1 0.951948 0.0690286 0
957 1 0.957227 0.0448629 0
958 1 0.976191 0.0612495 0
989 1 0.994305 0.0802607 0
988 1 0.970958 0.0861634 0
61 1 0.99979 0.0545535 0
991 1 0.517701 0.103854 0
993 1 0.541687 0.11069 0
120 1 0.50016 0.122656 0
992 1 0.524655 0.128965 0
964 1 0.559405 0.0943311 0
994 1 0.566044 0.119196 0
995 1 0.583769 0.101393 0
996 1 0.591247 0.125368 0
968 1 0.625442 0.0896907 0
997 1 0.608299 0.106794 0
998 1 0.632663 0.113184 0
999 1 0.649708 0.0946461 0
1000 1 0.655919 0.118779 0
1001 1 0.673987 0.101812 0
1031 1 0.679982 0.125844 0
1002 1 0.69851 0.107766 0
1003 1 0.715759 0.0905078 0
1004 1 0.723033 0.114926 0
976 1 0.766018 0.105154 0
1005 1 0.742113 0.0968117 0
1035 1 0.747105 0.120802 0
978 1 0.813656 0.091465 0
1007 1 0.789981 0.0983884 0
1006 1 0.782644 0.123776 0
1008 1 0.808051 0.115739 0
1009 1 0.832165 0.108282 0
1010 1 0.85116 0.125716 0
1011 1 0.856658 0.101531 0
982 1 0.881032 0.0940554 0
1012 1 0.875657 0.118263 0
1013 1 0.899226 0.109788 0
1016 1 0.917682 0.12611 0
1017 1 0.94696 0.0940362 0
1015 1 0.922568 0.101272 0
1047 1 0.942584 0.117976 0
1018 1 0.966513 0.110991 0
1019 1 0.989486 0.104174 0
1020 1 0.984072 0.12788 0
1022 1 0.53165 0.154579 0
1021 1 0.506773 0.147142 0
1051 1 0.514 0.171426 0
1023 1 0.548611 0.136815 0
1024 1 0.555441 0.16183 0
1025 1 0.573201 0.14267 0
1055 1 0.580977 0.165802 0
1027 1 0.614941 0.130723 0
1026 1 0.597698 0.149076 0
1028 1 0.621339 0.155385 0
1057 1 0.604394 0.172773 0
1029 1 0.639021 0.137052 0
1059 1 0.645376 0.1618 0
1030 1 0.662906 0.143639 0
1061 1 0.670188 0.168453 0
1032 1 0.687423 0.150408 0
1033 1 0.704567 0.132524 0
1063 1 0.711673 0.157296 0
1034 1 0.729193 0.139515 0
1036 1 0.75315 0.145506 0
1065 1 0.735528 0.163346 0
1066 1 0.758706 0.169316 0
1067 1 0.777204 0.150829 0
1037 1 0.80187 0.139319 0
1038 1 0.799626 0.16246 0
1039 1 0.825798 0.133151 0
1040 1 0.82308 0.157113 0
1041 1 0.84584 0.149478 0
1071 1 0.84137 0.173679 0
1042 1 0.864805 0.165944 0
1014 1 0.894065 0.135261 0
1043 1 0.869104 0.142253 0
1044 1 0.888842 0.159201 0
1045 1 0.913821 0.151077 0
1046 1 0.937026 0.143018 0
1077 1 0.931685 0.167501 0
1048 1 0.955846 0.159581 0
1049 1 0.960526 0.135045 0
1050 1 0.979259 0.152908 0
151 1 0.998439 0.169401 0
1053 1 0.538074 0.179029 0
1052 1 0.521235 0.196979 0
1081 1 0.502805 0.215064 0
1083 1 0.544383 0.20339 0
1054 1 0.563121 0.185222 0
1056 1 0.586857 0.191723 0
1085 1 0.56985 0.209984 0
1058 1 0.628942 0.179856 0
1087 1 0.611683 0.198269 0
1089 1 0.635761 0.205901 0
1086 1 0.594164 0.2158 0
1060 1 0.65247 0.187292 0
1091 1 0.676194 0.193267 0
1090 1 0.660191 0.210989 0
1062 1 0.694554 0.175834 0
1093 1 0.700088 0.199585 0
1064 1 0.718037 0.182596 0
1094 1 0.723933 0.206584 0
1095 1 0.74134 0.188842 0
1097 1 0.764518 0.195412 0
1096 1 0.747808 0.213327 0
1069 1 0.816421 0.181806 0
1068 1 0.781696 0.177856 0
1098 1 0.788762 0.202087 0
1099 1 0.812195 0.206949 0
1070 1 0.83501 0.198033 0
1072 1 0.858697 0.190835 0
1101 1 0.854202 0.216112 0
1075 1 0.907718 0.17535 0
1073 1 0.882896 0.182906 0
1103 1 0.877933 0.208053 0
1074 1 0.902214 0.20001 0
1078 1 0.950046 0.183837 0
1076 1 0.925515 0.19224 0
1107 1 0.943787 0.209045 0
1105 1 0.920061 0.217113 0
1079 1 0.973092 0.17617 0
1109 1 0.967991 0.200766 0
181 1 0.991868 0.193461 0
1082 1 0.527364 0.221981 0
1111 1 0.510805 0.240091 0
1113 1 0.53474 0.245957 0
1084 1 0.551826 0.22771 0
1114 1 0.558471 0.252104 0
1115 1 0.576247 0.234409 0
1116 1 0.58262 0.259535 0
1088 1 0.618156 0.223643 0
1117 1 0.600461 0.240685 0
1118 1 0.62522 0.247163 0
1119 1 0.643409 0.229288 0
1121 1 0.667085 0.235991 0
1120 1 0.649118 0.253996 0
1092 1 0.684099 0.218616 0
1122 1 0.690698 0.243827 0
1123 1 0.707626 0.225316 0
1124 1 0.714284 0.249703 0
1125 1 0.731533 0.232134 0
1126 1 0.755521 0.238767 0
1155 1 0.738535 0.257106 0
1127 1 0.771334 0.219596 0
1129 1 0.796746 0.226479 0
1128 1 0.779224 0.245449 0
1159 1 0.802881 0.251008 0
1100 1 0.830141 0.22276 0
1130 1 0.826461 0.247384 0
1131 1 0.849113 0.239852 0
1132 1 0.867067 0.257337 0
1102 1 0.872618 0.232362 0
1104 1 0.896811 0.224751 0
1133 1 0.891 0.249557 0
1135 1 0.914824 0.242147 0
1136 1 0.933095 0.258395 0
1106 1 0.937942 0.233465 0
1137 1 0.956589 0.249498 0
1110 1 0.985795 0.217949 0
1108 1 0.962041 0.225915 0
1139 1 0.980467 0.242383 0
1169 1 0.998131 0.258648 0