ITEM: TIMESTEP
110000
ITEM: NUMBER OF ATOMS
1800
ITEM: BOX BOUNDS pp pp pp
1.2573319339527842e+00 1.6374266806604456e+02
1.2573319339527842e+00 1.6374266806604456e+02
0.0000000000000000e+00 5.5000000000000000e+00
ITEM: ATOMS id type xs ys zs
2 1 0.0106352 0.00608583 0
33 1 0.0299246 0.023132 0
31 1 0.00589456 0.0303023 0
4 1 0.0533314 0.0151096 0
6 1 0.0773139 0.00657839 0
35 1 0.0723516 0.0322873 0
34 1 0.0492827 0.039556 0
37 1 0.0961757 0.0237933 0
39 1 0.119511 0.0165911 0
38 1 0.11473 0.0408077 0
8 1 0.100721 -0.000222372 0
40 1 0.139069 0.0327615 0
10 1 0.143281 0.00861091 0
42 1 0.163041 0.0250181 0
41 1 0.167908 0.0012354 0
73 1 0.180386 0.042521 0
43 1 0.186512 0.0184601 0
14 1 0.210987 0.0118641 0
44 1 0.205386 0.0355006 0
45 1 0.229235 0.0285812 0
16 1 0.253174 0.0205805 0
886 1 0.235158 0.00389182 0
46 1 0.270672 0.0387297 0
18 1 0.276827 0.0142183 0
49 1 0.295834 0.0316163 0
20 1 0.300991 0.00738573 0
51 1 0.319949 0.0251708 0
22 1 0.343012 0.0341299 0
21 1 0.361401 0.0170088 0
890 1 0.337818 0.00901746 0
24 1 0.3854 0.0226438 0
53 1 0.367026 0.0415403 0
894 1 0.401885 0.00440277 0
25 1 0.409156 0.0285508 0
26 1 0.433351 0.0344949 0
27 1 0.426104 0.0112973 0
898 1 0.450996 0.0169135 0
29 1 0.474597 0.0242736 0
900 1 0.492571 0.00549335 0
28 1 0.456812 0.0421846 0
30 1 0.498904 0.0306379 0
32 1 0.0243531 0.047346 0
62 1 0.0197771 0.0716168 0
63 1 0.0434358 0.0636561 0
61 1 0.000522867 0.0544494 0
65 1 0.0673104 0.0565642 0
66 1 0.0859172 0.0730784 0
64 1 0.062269 0.0811296 0
36 1 0.0912752 0.0489115 0
67 1 0.109682 0.0652427 0
69 1 0.133471 0.0575865 0
68 1 0.127634 0.0823539 0
71 1 0.157064 0.0499419 0
72 1 0.175499 0.0670588 0
70 1 0.152145 0.0744639 0
74 1 0.22392 0.0522644 0
103 1 0.199419 0.0590477 0
105 1 0.217466 0.0762619 0
101 1 0.194414 0.0838289 0
75 1 0.247513 0.0457791 0
77 1 0.265403 0.0632737 0
76 1 0.241323 0.069331 0
47 1 0.289854 0.0552157 0
48 1 0.307626 0.0708958 0
78 1 0.285395 0.0814092 0
50 1 0.323234 0.0511413 0
81 1 0.332324 0.0762348 0
52 1 0.348134 0.0583889 0
82 1 0.356259 0.0821363 0
55 1 0.391487 0.046773 0
83 1 0.374457 0.0657426 0
54 1 0.399071 0.0707218 0
57 1 0.440318 0.0592078 0
85 1 0.422771 0.0785866 0
56 1 0.416934 0.0542925 0
87 1 0.447141 0.0839731 0
59 1 0.480971 0.0492187 0
58 1 0.464025 0.0664966 0
89 1 0.488473 0.0737933 0
990 1 0.0129826 0.0961083 0
92 1 0.0320348 0.113432 0
93 1 0.0375863 0.0884292 0
91 1 0.00785408 0.121614 0
94 1 0.0565383 0.104563 0
95 1 0.0813958 0.0972865 0
125 1 0.0743845 0.121986 0
123 1 0.0499157 0.129817 0
96 1 0.0992769 0.115157 0
97 1 0.103943 0.090164 0
98 1 0.122065 0.107198 0
99 1 0.146324 0.0988018 0
100 1 0.17015 0.0919542 0
130 1 0.164774 0.117433 0
129 1 0.140641 0.124291 0
131 1 0.188455 0.108019 0
102 1 0.211916 0.10011 0
133 1 0.205874 0.12719 0
137 1 0.259782 0.0876427 0
104 1 0.228875 0.117449 0
106 1 0.23602 0.093176 0
135 1 0.253011 0.112369 0
107 1 0.277109 0.105733 0
109 1 0.299563 0.112878 0
79 1 0.31548 0.0945003 0
108 1 0.280978 0.129355 0
80 1 0.339486 0.100267 0
110 1 0.323224 0.119514 0
141 1 0.34727 0.124983 0
113 1 0.381189 0.0890983 0
111 1 0.363832 0.106104 0
84 1 0.404811 0.0963112 0
112 1 0.38846 0.114672 0
115 1 0.412569 0.120523 0
86 1 0.429806 0.103508 0
116 1 0.437508 0.126766 0
117 1 0.453671 0.108081 0
88 1 0.470832 0.0912092 0
90 1 0.494713 0.0982468 0
119 1 0.477906 0.116221 0
122 1 0.0263237 0.137666 0
152 1 0.0213713 0.162516 0
121 1 0.00320989 0.145224 0
153 1 0.0448367 0.154578 0
124 1 0.06863 0.146338 0
155 1 0.0872612 0.163037 0
154 1 0.0639461 0.171289 0
126 1 0.0931868 0.138433 0
127 1 0.117403 0.132928 0
128 1 0.134928 0.148995 0
157 1 0.109964 0.15577 0
158 1 0.127943 0.172243 0
159 1 0.159165 0.141411 0
161 1 0.176535 0.158694 0
160 1 0.152812 0.165313 0
132 1 0.183333 0.134842 0
163 1 0.200155 0.152288 0
134 1 0.224124 0.145353 0
193 1 0.220207 0.16945 0
136 1 0.264636 0.148635 0
165 1 0.245802 0.134484 0
164 1 0.243969 0.164221 0
167 1 0.269957 0.171564 0
139 1 0.305326 0.136502 0
138 1 0.288591 0.153667 0
169 1 0.312227 0.160686 0
140 1 0.329885 0.142599 0
142 1 0.353349 0.150413 0
171 1 0.335724 0.166723 0
143 1 0.371339 0.132995 0
114 1 0.394997 0.138918 0
173 1 0.377334 0.157697 0
144 1 0.40152 0.163353 0
145 1 0.418978 0.144554 0
146 1 0.425237 0.170165 0
147 1 0.443126 0.151978 0
118 1 0.461246 0.133934 0
149 1 0.484775 0.141501 0
148 1 0.466841 0.158749 0
150 1 0.49084 0.165846 0
183 1 0.0404812 0.179205 0
182 1 0.0349459 0.20329 0
1080 1 0.0160056 0.186163 0
211 1 0.0104473 0.211057 0
184 1 0.0584369 0.195292 0
185 1 0.0819593 0.187985 0
215 1 0.0774594 0.213063 0
186 1 0.100739 0.206243 0
156 1 0.105133 0.179887 0
187 1 0.123874 0.196276 0
189 1 0.148074 0.189171 0
191 1 0.1727 0.183435 0
190 1 0.165259 0.207466 0
188 1 0.142205 0.212931 0
221 1 0.189461 0.203261 0
162 1 0.195637 0.176875 0
192 1 0.213362 0.193158 0
195 1 0.235128 0.205442 0
166 1 0.252378 0.18811 0
196 1 0.259546 0.212531 0
168 1 0.29502 0.178011 0
197 1 0.276927 0.195249 0
199 1 0.300158 0.202967 0
170 1 0.317832 0.185425 0
172 1 0.359522 0.174775 0
201 1 0.341931 0.192796 0
200 1 0.324105 0.209609 0
202 1 0.347577 0.216867 0
203 1 0.365395 0.199405 0
174 1 0.383051 0.180794 0
204 1 0.38911 0.20475 0
175 1 0.406893 0.186966 0
177 1 0.449526 0.176229 0
205 1 0.413358 0.211201 0
176 1 0.431192 0.193503 0
178 1 0.455343 0.200568 0
179 1 0.473824 0.183065 0
180 1 0.497187 0.189481 0
209 1 0.479222 0.207099 0
212 1 0.0297847 0.227108 0
241 1 0.0237931 0.251595 0
1140 1 0.00548923 0.235248 0
243 1 0.0488223 0.243507 0
213 1 0.0533494 0.21997 0
214 1 0.0732661 0.238321 0
245 1 0.0927828 0.255678 0
216 1 0.0966299 0.231939 0
217 1 0.119432 0.221642 0
247 1 0.116768 0.250369 0
218 1 0.137552 0.238167 0
219 1 0.160703 0.246299 0
220 1 0.178577 0.2278 0
222 1 0.182761 0.254608 0
194 1 0.215187 0.219153 0
223 1 0.200137 0.238324 0
224 1 0.22325 0.245866 0
225 1 0.241353 0.229585 0
227 1 0.26488 0.237413 0
226 1 0.246986 0.25459 0
198 1 0.28281 0.220936 0
228 1 0.28894 0.244984 0
229 1 0.306806 0.227403 0
230 1 0.31248 0.251832 0
231 1 0.33085 0.233891 0
232 1 0.35441 0.241429 0
261 1 0.336441 0.259758 0
233 1 0.371536 0.223175 0
234 1 0.378141 0.247717 0
235 1 0.395928 0.229501 0
265 1 0.402518 0.254353 0
207 1 0.437611 0.218532 0
206 1 0.419631 0.235981 0
237 1 0.443314 0.242353 0
236 1 0.426694 0.259897 0
208 1 0.462239 0.224904 0
210 1 0.485322 0.231377 0
239 1 0.467036 0.248987 0
240 1 0.490962 0.256249 0
242 1 0.0430471 0.267585 0
271 1 0.0356488 0.290019 0
1170 1 0.017389 0.274589 0
1200 1 0.0146369 0.301524 0
244 1 0.0666363 0.261805 0
273 1 0.0603076 0.28914 0
275 1 0.0833518 0.280096 0
246 1 0.104219 0.292602 0
248 1 0.120206 0.274554 0
279 1 0.127071 0.301607 0
249 1 0.140239 0.261969 0
251 1 0.1639 0.27082 0
250 1 0.14456 0.285264 0
281 1 0.169257 0.295486 0
253 1 0.205736 0.262918 0
252 1 0.187468 0.279624 0
254 1 0.211795 0.28784 0
283 1 0.192594 0.303912 0
257 1 0.270481 0.261505 0
255 1 0.228877 0.270851 0
256 1 0.252788 0.279476 0
285 1 0.23507 0.296172 0
287 1 0.258581 0.303671 0
259 1 0.294462 0.269054 0
258 1 0.276678 0.286067 0
289 1 0.300242 0.29324 0
260 1 0.317639 0.276833 0
263 1 0.360642 0.265764 0
262 1 0.342313 0.28305 0
291 1 0.323866 0.300468 0
293 1 0.366523 0.290182 0
264 1 0.384526 0.272951 0
295 1 0.391105 0.296531 0
266 1 0.408958 0.278059 0
238 1 0.44999 0.267023 0
267 1 0.432421 0.284493 0
297 1 0.415046 0.30271 0
268 1 0.456501 0.29127 0
1141 1 0.497973 0.280383 0
269 1 0.474278 0.273656 0
270 1 0.480817 0.296732 0
301 1 0.0236436 0.325409 0
1230 1 0.00390816 0.340443 0
272 1 0.0443887 0.312016 0
303 1 0.045639 0.336533 0
276 1 0.0837777 0.306558 0
274 1 0.0657168 0.322438 0
305 1 0.088625 0.332083 0
304 1 0.068221 0.346622 0
277 1 0.10759 0.31686 0
278 1 0.130991 0.325654 0
307 1 0.112597 0.341445 0
280 1 0.150132 0.310474 0
311 1 0.155008 0.335894 0
282 1 0.174121 0.319377 0
312 1 0.178787 0.344201 0
284 1 0.215423 0.312128 0
313 1 0.197085 0.328385 0
315 1 0.22005 0.337208 0
286 1 0.238879 0.321188 0
317 1 0.262716 0.32835 0
316 1 0.243887 0.346549 0
288 1 0.282535 0.310935 0
318 1 0.286078 0.336037 0
290 1 0.306097 0.318321 0
319 1 0.31115 0.342774 0
292 1 0.348887 0.307371 0
321 1 0.329397 0.325425 0
323 1 0.354356 0.331347 0
324 1 0.379009 0.337899 0
294 1 0.37243 0.314363 0
325 1 0.403535 0.344235 0
296 1 0.396923 0.319728 0
298 1 0.439179 0.308906 0
327 1 0.421394 0.326565 0
328 1 0.44593 0.332884 0
329 1 0.469683 0.340226 0
299 1 0.46349 0.315708 0
300 1 0.48751 0.321753 0
1201 1 0.493502 0.346995 0
302 1 0.0271895 0.35137 0
332 1 0.0288181 0.375482 0
331 1 0.00610451 0.365116 0
361 1 0.00799425 0.389418 0
333 1 0.0488327 0.361345 0
335 1 0.0717797 0.370864 0
334 1 0.0514507 0.385948 0
306 1 0.0927528 0.356126 0
337 1 0.0949034 0.380881 0
308 1 0.116154 0.365776 0
309 1 0.134949 0.35119 0
338 1 0.119242 0.390832 0
339 1 0.139455 0.374858 0
310 1 0.158931 0.359649 0
341 1 0.16314 0.38461 0
343 1 0.183201 0.370383 0
314 1 0.201795 0.353754 0
344 1 0.206271 0.380944 0
345 1 0.225124 0.36328 0
375 1 0.229947 0.388569 0
347 1 0.267385 0.353709 0
346 1 0.249409 0.372593 0
377 1 0.274209 0.377813 0
349 1 0.292314 0.360014 0
348 1 0.299319 0.385051 0
350 1 0.317375 0.3675 0
320 1 0.335493 0.348995 0
351 1 0.342422 0.37255 0
381 1 0.326079 0.390749 0
322 1 0.360768 0.354864 0
353 1 0.365955 0.378965 0
355 1 0.384587 0.362385 0
354 1 0.392054 0.386632 0
356 1 0.40946 0.369121 0
326 1 0.427458 0.35149 0
357 1 0.433571 0.37652 0
359 1 0.451302 0.357941 0
358 1 0.457134 0.383133 0
330 1 0.475461 0.364548 0
1231 1 0.499559 0.3724 0
360 1 0.480748 0.389403 0
363 1 0.031061 0.400186 0
362 1 0.0118437 0.414752 0
364 1 0.0347685 0.425245 0
336 1 0.0754122 0.396252 0
365 1 0.0547712 0.41046 0
366 1 0.0776282 0.420391 0
367 1 0.0985997 0.405592 0
369 1 0.121434 0.415601 0
368 1 0.101563 0.430706 0
340 1 0.142033 0.399593 0
370 1 0.143879 0.42452 0
371 1 0.164739 0.410478 0
342 1 0.185383 0.396523 0
372 1 0.187755 0.421386 0
373 1 0.209512 0.40516 0
403 1 0.21038 0.430542 0
374 1 0.233098 0.412914 0
376 1 0.255509 0.39828 0
405 1 0.252825 0.427287 0
378 1 0.281408 0.401651 0
379 1 0.307878 0.407322 0
409 1 0.291373 0.423761 0
410 1 0.315136 0.431145 0
352 1 0.350425 0.396858 0
382 1 0.356106 0.421588 0
380 1 0.332939 0.414431 0
383 1 0.374151 0.404592 0
385 1 0.398028 0.411994 0
384 1 0.380949 0.43026 0
387 1 0.415501 0.393116 0
386 1 0.422206 0.420304 0
388 1 0.438654 0.401699 0
419 1 0.44693 0.42632 0
389 1 0.463032 0.407768 0
1261 1 0.487384 0.413372 0
390 1 0.46998 0.431796 0
393 1 0.0141122 0.440071 0
423 1 0.01638 0.465174 0
394 1 0.0371126 0.450327 0
425 1 0.039159 0.475038 0
395 1 0.0571704 0.43464 0
396 1 0.0596966 0.460026 0
397 1 0.0800341 0.445581 0
427 1 0.0822649 0.470136 0
399 1 0.124156 0.440358 0
398 1 0.103075 0.455637 0
429 1 0.126853 0.465134 0
401 1 0.167071 0.435222 0
400 1 0.14645 0.450457 0
431 1 0.169913 0.46021 0
430 1 0.149026 0.475416 0
402 1 0.189636 0.445569 0
433 1 0.212837 0.45658 0
432 1 0.192246 0.470881 0
404 1 0.232345 0.441504 0
406 1 0.253934 0.452795 0
435 1 0.234187 0.467522 0
436 1 0.258073 0.478396 0
407 1 0.273904 0.439714 0
437 1 0.27721 0.463392 0
408 1 0.296407 0.447682 0
439 1 0.300889 0.471666 0
441 1 0.319712 0.456484 0
413 1 0.362892 0.446942 0
411 1 0.338499 0.439713 0
412 1 0.344253 0.464101 0
415 1 0.404875 0.437251 0
414 1 0.387627 0.455434 0
443 1 0.367853 0.471775 0
416 1 0.411606 0.460979 0
417 1 0.429432 0.443974 0
418 1 0.452908 0.450385 0
447 1 0.435025 0.468838 0
1291 1 0.494414 0.437937 0
420 1 0.476844 0.456889 0
449 1 0.459709 0.475435 0
454 1 0.021524 0.515149 0
424 1 0.0185035 0.490626 0
455 1 0.0410272 0.500339 0
426 1 0.0612929 0.484797 0
456 1 0.0635715 0.510834 0
457 1 0.0847517 0.495364 0
487 1 0.0871741 0.520113 0
428 1 0.105471 0.479567 0
459 1 0.128828 0.490324 0
458 1 0.10729 0.504479 0
489 1 0.130191 0.515677 0
461 1 0.171582 0.486416 0
460 1 0.151687 0.500752 0
462 1 0.173644 0.511762 0
434 1 0.214388 0.482433 0
463 1 0.194042 0.496199 0
464 1 0.215864 0.50739 0
465 1 0.237132 0.492526 0
467 1 0.261263 0.501935 0
466 1 0.238379 0.516909 0
438 1 0.281999 0.488034 0
469 1 0.305551 0.497588 0
468 1 0.284782 0.511827 0
470 1 0.3079 0.521809 0
440 1 0.325048 0.479752 0
442 1 0.349173 0.489582 0
471 1 0.329681 0.506553 0
473 1 0.353768 0.515193 0
445 1 0.391639 0.479379 0
444 1 0.373802 0.497963 0
475 1 0.398737 0.505266 0
474 1 0.381079 0.521476 0
446 1 0.415215 0.486242 0
477 1 0.42262 0.512015 0
448 1 0.440746 0.49314 0
478 1 0.447334 0.517521 0
450 1 0.48374 0.481204 0
479 1 0.465979 0.499966 0
1381 1 0.488982 0.505503 0
483 1 0.0239252 0.539847 0
482 1 0.00338808 0.554464 0
513 1 0.0266303 0.564134 0
485 1 0.0435304 0.524953 0
484 1 0.0471509 0.549825 0
486 1 0.0670982 0.535814 0
515 1 0.0697842 0.560248 0
517 1 0.0903266 0.54601 0
488 1 0.110427 0.530355 0
519 1 0.113288 0.555193 0
490 1 0.133704 0.540549 0
491 1 0.153889 0.526465 0
521 1 0.15583 0.551503 0
492 1 0.17543 0.537748 0
523 1 0.178547 0.563176 0
493 1 0.195298 0.522514 0
494 1 0.198898 0.548086 0
495 1 0.21814 0.532106 0
525 1 0.221474 0.557659 0
496 1 0.240662 0.542197 0
497 1 0.260704 0.526987 0
527 1 0.263755 0.551675 0
499 1 0.303961 0.546518 0
498 1 0.282398 0.536388 0
529 1 0.285873 0.562148 0
472 1 0.333306 0.530413 0
501 1 0.326643 0.553977 0
502 1 0.349659 0.559888 0
503 1 0.362578 0.538243 0
505 1 0.387076 0.54735 0
476 1 0.404995 0.529394 0
506 1 0.412914 0.554562 0
507 1 0.430846 0.536089 0
508 1 0.437069 0.560543 0
509 1 0.455241 0.541851 0
480 1 0.472657 0.523869 0
510 1 0.480321 0.548404 0
1382 1 0.497039 0.529706 0
512 1 0.0289733 0.589086 0
511 1 0.00515051 0.578804 0
541 1 0.00698589 0.604119 0
514 1 0.0503877 0.574762 0
545 1 0.0729062 0.58519 0
543 1 0.0514164 0.599753 0
516 1 0.0930682 0.570913 0
518 1 0.115813 0.581129 0
547 1 0.0961442 0.595874 0
548 1 0.118096 0.606008 0
520 1 0.134904 0.566406 0
549 1 0.138691 0.591092 0
522 1 0.157971 0.576656 0
551 1 0.161718 0.602158 0
553 1 0.181158 0.587098 0
524 1 0.201418 0.572326 0
554 1 0.204581 0.597834 0
555 1 0.224678 0.582358 0
556 1 0.227192 0.606832 0
526 1 0.244102 0.567662 0
557 1 0.246984 0.593022 0
528 1 0.266543 0.577287 0
558 1 0.27111 0.602803 0
500 1 0.309072 0.571762 0
559 1 0.290141 0.587098 0
530 1 0.313392 0.595493 0
531 1 0.332308 0.578443 0
532 1 0.337223 0.602745 0
533 1 0.355655 0.585147 0
504 1 0.372355 0.566947 0
534 1 0.378608 0.590909 0
535 1 0.395971 0.572097 0
536 1 0.402775 0.597411 0
537 1 0.419376 0.579097 0
567 1 0.427215 0.603401 0
538 1 0.44363 0.585107 0
539 1 0.461638 0.566461 0
540 1 0.486556 0.574079 0
569 1 0.468398 0.590913 0
1441 1 0.493408 0.59844 0
542 1 0.0298695 0.613581 0
571 1 0.00988 0.6291 0
573 1 0.0327694 0.638576 0
546 1 0.0750421 0.60968 0
544 1 0.0529685 0.623753 0
575 1 0.076147 0.63557 0
574 1 0.0566226 0.648516 0
577 1 0.0983436 0.620572 0
579 1 0.120161 0.630564 0
576 1 0.0993078 0.646029 0
550 1 0.141243 0.61633 0
581 1 0.164151 0.627212 0
580 1 0.1437 0.640923 0
611 1 0.165946 0.652571 0
552 1 0.184665 0.613127 0
582 1 0.18741 0.637579 0
583 1 0.2074 0.622863 0
584 1 0.209821 0.647472 0
585 1 0.229932 0.632946 0
586 1 0.254051 0.642647 0
587 1 0.25009 0.617938 0
560 1 0.295301 0.611644 0
589 1 0.274631 0.629185 0
590 1 0.299488 0.637223 0
561 1 0.318405 0.620099 0
563 1 0.361734 0.609113 0
562 1 0.342618 0.626436 0
591 1 0.324396 0.644619 0
593 1 0.348851 0.650382 0
565 1 0.386425 0.615463 0
564 1 0.366599 0.633316 0
595 1 0.391274 0.638785 0
566 1 0.410165 0.620681 0
568 1 0.451198 0.609522 0
596 1 0.415066 0.645663 0
597 1 0.433349 0.627686 0
1442 1 0.500328 0.622208 0
570 1 0.475741 0.616096 0
600 1 0.457747 0.634438 0
1471 1 0.482355 0.641008 0
572 1 0.0127558 0.653996 0
602 1 0.0158532 0.678331 0
603 1 0.037111 0.66255 0
633 1 0.0387112 0.687267 0
605 1 0.079259 0.659335 0
604 1 0.0591012 0.673197 0
606 1 0.0818881 0.682991 0
578 1 0.122459 0.655686 0
607 1 0.102519 0.669576 0
608 1 0.125117 0.680455 0
637 1 0.105089 0.69441 0
609 1 0.145631 0.666725 0
610 1 0.167997 0.676958 0
639 1 0.148067 0.692202 0
612 1 0.190509 0.687313 0
613 1 0.189118 0.662121 0
614 1 0.212032 0.67236 0
615 1 0.23287 0.657259 0
616 1 0.234661 0.682383 0
617 1 0.255019 0.666965 0
647 1 0.258465 0.691902 0
588 1 0.277119 0.654193 0
619 1 0.30484 0.661223 0
618 1 0.285785 0.67909 0
620 1 0.314272 0.685249 0
621 1 0.332132 0.6676 0
592 1 0.357392 0.674952 0
622 1 0.339206 0.691251 0
594 1 0.374484 0.656942 0
625 1 0.398582 0.662616 0
623 1 0.381665 0.681358 0
626 1 0.404766 0.687928 0
599 1 0.440035 0.652271 0
598 1 0.446957 0.676241 0
627 1 0.423279 0.670038 0
657 1 0.428798 0.694909 0
628 1 0.471666 0.682684 0
629 1 0.465013 0.658172 0
1501 1 0.489426 0.665358 0
630 1 0.495048 0.689099 0
632 1 0.0178567 0.702758 0
663 1 0.0209777 0.728045 0
634 1 0.0415813 0.713852 0
635 1 0.0609039 0.698983 0
636 1 0.0848031 0.708402 0
665 1 0.0641847 0.724458 0
666 1 0.0873917 0.73438 0
638 1 0.128355 0.707172 0
667 1 0.107202 0.720063 0
669 1 0.130063 0.732945 0
641 1 0.170756 0.702397 0
640 1 0.150731 0.718089 0
671 1 0.174077 0.728263 0
643 1 0.212689 0.697725 0
642 1 0.192834 0.71267 0
673 1 0.19676 0.738081 0
644 1 0.216154 0.723192 0
645 1 0.235795 0.707631 0
675 1 0.23934 0.732842 0
646 1 0.25824 0.716519 0
649 1 0.296355 0.702153 0
648 1 0.28161 0.722217 0
679 1 0.305122 0.727132 0
650 1 0.32216 0.70892 0
651 1 0.346579 0.717155 0
681 1 0.328475 0.73295 0
653 1 0.363728 0.698842 0
624 1 0.388013 0.706063 0
654 1 0.371194 0.723255 0
685 1 0.394772 0.730022 0
655 1 0.411827 0.711771 0
656 1 0.436408 0.718264 0
686 1 0.418353 0.735304 0
658 1 0.45372 0.70051 0
687 1 0.459957 0.724655 0
659 1 0.477826 0.706843 0
689 1 0.485074 0.730857 0
664 1 0.0438133 0.739164 0
662 1 0.0231502 0.753862 0
693 1 0.0261689 0.779455 0
691 1 0.00448089 0.768336 0
661 1 0.000821197 0.743286 0
694 1 0.0460908 0.763081 0
695 1 0.0680149 0.748624 0
696 1 0.0690793 0.774939 0
697 1 0.0897228 0.760476 0
668 1 0.10941 0.746251 0
698 1 0.112788 0.771237 0
699 1 0.133206 0.75779 0
700 1 0.136122 0.78195 0
670 1 0.154659 0.743214 0
701 1 0.156868 0.76752 0
672 1 0.176908 0.753723 0
702 1 0.180827 0.78018 0
674 1 0.219113 0.748674 0
703 1 0.199351 0.763623 0
705 1 0.22342 0.774538 0
677 1 0.262845 0.740157 0
676 1 0.242677 0.757386 0
707 1 0.267658 0.763747 0
735 1 0.248522 0.781849 0
678 1 0.286496 0.746058 0
709 1 0.291085 0.770567 0
680 1 0.310332 0.751203 0
710 1 0.315828 0.775339 0
652 1 0.353065 0.742025 0
682 1 0.360324 0.766184 0
711 1 0.333957 0.757888 0
741 1 0.340614 0.781901 0
683 1 0.377935 0.747682 0
713 1 0.384958 0.772381 0
684 1 0.401316 0.753736 0
716 1 0.409577 0.777868 0
717 1 0.442431 0.742529 0
715 1 0.425775 0.76037 0
718 1 0.450968 0.76687 0
1591 1 0.498976 0.779164 0
690 1 0.492799 0.755035 0
688 1 0.467404 0.74827 0
719 1 0.474679 0.773348 0
692 1 0.00636844 0.794194 0
722 1 0.00485146 0.820748 0
723 1 0.0277387 0.807741 0
725 1 0.0486582 0.789321 0
726 1 0.0727491 0.799285 0
755 1 0.0722694 0.824441 0
727 1 0.0931837 0.786093 0
728 1 0.116141 0.796703 0
757 1 0.0953439 0.812298 0
729 1 0.138185 0.805979 0
730 1 0.160807 0.818598 0
731 1 0.159573 0.794113 0
704 1 0.204798 0.793068 0
732 1 0.182797 0.806822 0
763 1 0.207251 0.820381 0
734 1 0.232948 0.821525 0
733 1 0.229577 0.797796 0
736 1 0.254416 0.80579 0
706 1 0.273564 0.78841 0
737 1 0.282251 0.811478 0
708 1 0.299495 0.794141 0
738 1 0.306765 0.817926 0
739 1 0.324527 0.800203 0
742 1 0.348797 0.806669 0
740 1 0.331999 0.824455 0
712 1 0.368723 0.79011 0
714 1 0.392903 0.797595 0
743 1 0.374121 0.814621 0
745 1 0.399508 0.821933 0
746 1 0.417049 0.803564 0
747 1 0.433371 0.784794 0
748 1 0.440589 0.809684 0
749 1 0.458395 0.791718 0
720 1 0.482286 0.798048 0
750 1 0.464781 0.814898 0
1621 1 0.488625 0.822725 0
753 1 0.0239488 0.836131 0
783 1 0.0194681 0.863118 0
754 1 0.0423791 0.855092 0
752 1 0.0012253 0.846986 0
724 1 0.0481121 0.830832 0
785 1 0.0663253 0.847878 0
786 1 0.0852821 0.864306 0
756 1 0.0901901 0.839616 0
758 1 0.112926 0.832284 0
787 1 0.110516 0.858903 0
789 1 0.133813 0.852903 0
759 1 0.138261 0.829666 0
760 1 0.158216 0.844323 0
791 1 0.175162 0.861368 0
761 1 0.18176 0.832714 0
762 1 0.198433 0.852951 0
764 1 0.22089 0.843391 0
765 1 0.246171 0.841763 0
795 1 0.23948 0.864855 0
766 1 0.268558 0.854779 0
767 1 0.266436 0.829388 0
769 1 0.314475 0.841054 0
768 1 0.289252 0.835472 0
799 1 0.2977 0.858543 0
770 1 0.338843 0.848187 0
771 1 0.356874 0.830866 0
773 1 0.363171 0.855782 0
801 1 0.32074 0.866786 0
744 1 0.381126 0.83848 0
774 1 0.387288 0.863363 0
775 1 0.405759 0.845669 0
777 1 0.42314 0.827527 0
807 1 0.429961 0.852038 0
778 1 0.447334 0.833792 0
809 1 0.453458 0.859099 0
779 1 0.470587 0.841162 0
780 1 0.478192 0.865044 0
1651 1 0.494374 0.847258 0
812 1 0.0134628 0.889572 0
814 1 0.0325454 0.905657 0
813 1 0.0368441 0.880528 0
784 1 0.0606829 0.873068 0
815 1 0.0557526 0.897664 0
816 1 0.0800805 0.890388 0
788 1 0.127976 0.876663 0
817 1 0.103979 0.882921 0
819 1 0.121556 0.900521 0
818 1 0.0974741 0.908102 0
790 1 0.151978 0.869455 0
821 1 0.170165 0.886881 0
820 1 0.145993 0.894866 0
851 1 0.164995 0.912106 0
793 1 0.215771 0.870486 0
792 1 0.193451 0.879127 0
823 1 0.21231 0.894977 0
822 1 0.18878 0.903901 0
794 1 0.235558 0.889112 0
796 1 0.257802 0.879726 0
827 1 0.256801 0.904393 0
825 1 0.231803 0.91314 0
797 1 0.280972 0.876126 0
798 1 0.283598 0.900049 0
800 1 0.304551 0.884756 0
829 1 0.309903 0.909562 0
831 1 0.327597 0.892388 0
772 1 0.344819 0.872537 0
802 1 0.351441 0.897973 0
803 1 0.369069 0.881416 0
804 1 0.375498 0.905863 0
805 1 0.393906 0.887489 0
835 1 0.399073 0.912294 0
776 1 0.411706 0.86967 0
806 1 0.416925 0.894563 0
808 1 0.435191 0.876947 0
839 1 0.440307 0.901171 0
1681 1 0.483479 0.890358 0
810 1 0.459886 0.883887 0
840 1 0.465428 0.908234 0
842 1 0.00285387 0.93786 0
843 1 0.00804499 0.913687 0
844 1 0.0266052 0.929983 0
875 1 0.045399 0.94784 0
873 1 0.0211548 0.954714 0
845 1 0.0506577 0.922525 0
846 1 0.0691492 0.941505 0
847 1 0.0744123 0.915599 0
848 1 0.0925191 0.932299 0
849 1 0.116227 0.925524 0
879 1 0.11054 0.950325 0
881 1 0.135783 0.942801 0
850 1 0.140336 0.9184 0
852 1 0.159994 0.935882 0
883 1 0.179695 0.952872 0
853 1 0.184742 0.928033 0
824 1 0.20817 0.920606 0
854 1 0.20299 0.945206 0
855 1 0.227495 0.937317 0
826 1 0.251768 0.929066 0
857 1 0.269817 0.948477 0
856 1 0.246193 0.954908 0
828 1 0.275274 0.923026 0
859 1 0.29272 0.941513 0
830 1 0.316954 0.933677 0
833 1 0.358459 0.923597 0
832 1 0.334303 0.916986 0
861 1 0.339367 0.941968 0
863 1 0.363821 0.948243 0
834 1 0.38271 0.929606 0
865 1 0.406316 0.936818 0
864 1 0.38745 0.954854 0
837 1 0.423362 0.918822 0
836 1 0.430449 0.942942 0
838 1 0.44822 0.925119 0
870 1 0.453888 0.950292 0
869 1 0.471673 0.932422 0
1711 1 0.488835 0.914116 0
1712 1 0.496013 0.93951 0
3 1 0.033447 0.997463 0
872 1 0.0158856 0.979879 0
874 1 0.0397693 0.972705 0
5 1 0.0581192 0.990191 0
876 1 0.063537 0.966405 0
7 1 0.0821992 0.983014 0
877 1 0.0872513 0.9586 0
9 1 0.124639 0.991718 0
878 1 0.10568 0.975043 0
880 1 0.130279 0.96789 0
11 1 0.148977 0.984241 0
882 1 0.155496 0.960638 0
13 1 0.173761 0.977556 0
12 1 0.19228 0.99348 0
15 1 0.216642 0.98637 0
884 1 0.198302 0.969263 0
885 1 0.221716 0.96132 0
17 1 0.258996 0.996589 0
887 1 0.241318 0.979213 0
888 1 0.265212 0.972032 0
858 1 0.289414 0.965381 0
19 1 0.283548 0.990163 0
889 1 0.306448 0.983041 0
860 1 0.321428 0.95902 0
862 1 0.344173 0.966734 0
891 1 0.329615 0.986306 0
892 1 0.353831 0.991349 0
23 1 0.377498 0.997103 0
893 1 0.369622 0.972975 0
895 1 0.395238 0.979466 0
896 1 0.418915 0.98675 0
866 1 0.412211 0.961599 0
867 1 0.436723 0.968469 0
897 1 0.443917 0.992722 0
1771 1 0.486087 0.981384 0
1741 1 0.479911 0.957297 0
868 1 0.461087 0.9747 0
899 1 0.467811 0.999107 0
931 1 0.522081 0.0378077 0
901 1 0.516113 0.0131888 0
902 1 0.54007 0.0203445 0
904 1 0.564264 0.0268412 0
906 1 0.581399 0.00829765 0
935 1 0.588411 0.0339145 0
905 1 0.557543 0.00220085 0
908 1 0.60595 0.0147935 0
939 1 0.630488 0.0220862 0
937 1 0.612616 0.0400341 0
910 1 0.647738 0.00426322 0
941 1 0.653092 0.0293838 0
912 1 0.670864 0.0121502 0
942 1 0.677476 0.0372836 0
943 1 0.694286 0.0176292 0
945 1 0.71839 0.0234442 0
944 1 0.701667 0.0410924 0
914 1 0.742537 0.0217717 0
916 1 0.765559 0.015291 0
947 1 0.758988 0.0393278 0
918 1 0.782903 0.0326156 0
919 1 0.805936 0.0246312 0
917 1 0.787528 0.00678512 0
951 1 0.824483 0.0428604 0
920 1 0.829858 0.0171211 0
922 1 0.848575 0.033885 0
921 1 0.854885 0.00947138 0
923 1 0.873254 0.0267905 0
924 1 0.896794 0.0194496 0
1792 1 0.877617 0.00295828 0
955 1 0.914838 0.0358038 0
925 1 0.919919 0.0115192 0
926 1 0.938265 0.0281639 0
928 1 0.944273 0.00440867 0
930 1 0.986162 0.0131998 0
959 1 0.962208 0.0214884 0
960 1 0.982246 0.0373153 0
932 1 0.528962 0.0624947 0
961 1 0.511777 0.0805849 0
60 1 0.504826 0.0551405 0
962 1 0.535217 0.0869695 0
933 1 0.546234 0.0447381 0
963 1 0.553077 0.0689419 0
934 1 0.571242 0.0516345 0
965 1 0.577671 0.0755136 0
936 1 0.594836 0.0586883 0
967 1 0.6191 0.0647023 0
966 1 0.600397 0.0827772 0
938 1 0.636424 0.0470996 0
969 1 0.643252 0.0715725 0
940 1 0.660009 0.0539125 0
970 1 0.666743 0.0786155 0
971 1 0.684569 0.0605205 0
973 1 0.708281 0.0663699 0
972 1 0.692439 0.084296 0
975 1 0.732423 0.0456173 0
974 1 0.731675 0.071315 0
946 1 0.754298 0.0632916 0
977 1 0.771234 0.0808336 0
949 1 0.800714 0.0496417 0
948 1 0.777569 0.0566842 0
979 1 0.795244 0.074055 0
950 1 0.819314 0.0665482 0
980 1 0.837956 0.0829654 0
952 1 0.842907 0.059077 0
981 1 0.86188 0.0751568 0
954 1 0.891682 0.0439856 0
953 1 0.866504 0.0511277 0
983 1 0.885139 0.0676168 0
984 1 0.90383 0.085727 0
985 1 0.910065 0.0604838 0
956 1 0.93416 0.0528045 0
986 1 0.927741 0.0780891 0
987 1 0.952158 0.0706589 0
957 1 0.957853 0.0456458 0
958 1 0.976241 0.0621228 0
989 1 0.995379 0.0791176 0
988 1 0.971406 0.0866357 0
991 1 0.518605 0.10505 0
993 1 0.542055 0.111687 0
120 1 0.501947 0.123641 0
992 1 0.525724 0.129159 0
964 1 0.559411 0.0933758 0
994 1 0.566388 0.118936 0
995 1 0.583163 0.101013 0
996 1 0.590432 0.126243 0
968 1 0.625309 0.089167 0
997 1 0.607357 0.107849 0
998 1 0.630982 0.113637 0
999 1 0.649144 0.0959516 0
1000 1 0.655475 0.12115 0
1001 1 0.674041 0.102061 0
1031 1 0.680227 0.127207 0
1002 1 0.697843 0.108575 0
1003 1 0.715789 0.0909893 0
1004 1 0.722881 0.114469 0
976 1 0.766473 0.104687 0
1005 1 0.739884 0.096711 0
1035 1 0.748114 0.121369 0
978 1 0.813727 0.0907354 0
1007 1 0.79041 0.0992072 0
1006 1 0.783167 0.123958 0
1008 1 0.809138 0.116314 0
1009 1 0.832041 0.107025 0
1010 1 0.850919 0.123088 0
1011 1 0.856586 0.0990281 0
982 1 0.879995 0.0919009 0
1012 1 0.874182 0.117119 0
1013 1 0.898609 0.109738 0
1016 1 0.917064 0.127193 0
1017 1 0.946747 0.094377 0
1015 1 0.923029 0.10279 0
1047 1 0.941032 0.119492 0
1018 1 0.965516 0.111464 0
1019 1 0.98911 0.104598 0
1020 1 0.983607 0.128406 0
1022 1 0.532567 0.15399 0
1021 1 0.508836 0.147442 0
1051 1 0.514808 0.172441 0
1023 1 0.549608 0.136926 0
1024 1 0.55522 0.161886 0
1025 1 0.572899 0.144616 0
1055 1 0.580573 0.168232 0
1027 1 0.614552 0.132276 0
1026 1 0.597355 0.150552 0
1028 1 0.621315 0.158134 0
1029 1 0.63816 0.1383 0
1059 1 0.645566 0.163508 0
1030 1 0.662213 0.144892 0
1061 1 0.669344 0.168977 0
1032 1 0.686936 0.151495 0
1033 1 0.704643 0.132878 0
1063 1 0.712316 0.157372 0
1034 1 0.729385 0.138701 0
1036 1 0.753983 0.145386 0
1065 1 0.736874 0.163319 0
1066 1 0.760316 0.170329 0
1067 1 0.779203 0.150043 0
1037 1 0.803519 0.139656 0
1038 1 0.799925 0.163606 0
1039 1 0.826625 0.132612 0
1040 1 0.823071 0.156979 0
1041 1 0.845891 0.148634 0
1042 1 0.86419 0.166036 0
1014 1 0.894223 0.134344 0
1043 1 0.869467 0.141619 0
1044 1 0.888165 0.15876 0
1045 1 0.911822 0.151797 0
1046 1 0.935792 0.144055 0
1077 1 0.929924 0.168403 0
1048 1 0.954487 0.159968 0
1049 1 0.959415 0.135131 0
1050 1 0.97836 0.152948 0
151 1 0.997716 0.168694 0
1053 1 0.538173 0.179267 0
1052 1 0.521222 0.196803 0
1081 1 0.502934 0.214207 0
1083 1 0.544268 0.203132 0
1054 1 0.562624 0.186599 0
1056 1 0.586623 0.192371 0
1085 1 0.569187 0.210418 0
1057 1 0.603976 0.174242 0
1058 1 0.627903 0.181344 0
1087 1 0.610249 0.199845 0
1089 1 0.634323 0.206937 0
1086 1 0.592551 0.216719 0
1060 1 0.651729 0.187833 0
1091 1 0.675947 0.19347 0
1090 1 0.658963 0.211143 0
1062 1 0.693961 0.175917 0
1093 1 0.699148 0.199992 0
1064 1 0.718807 0.18223 0
1094 1 0.722912 0.206782 0
1095 1 0.741752 0.189046 0
1097 1 0.765232 0.195696 0
1096 1 0.746368 0.212967 0
1069 1 0.817246 0.181571 0
1068 1 0.781803 0.178987 0
1098 1 0.789099 0.202699 0
1099 1 0.81328 0.206504 0
1071 1 0.840767 0.173876 0
1070 1 0.836313 0.198001 0
1072 1 0.859601 0.190662 0
1101 1 0.854779 0.21495 0
1075 1 0.906443 0.175503 0
1073 1 0.882986 0.183041 0
1103 1 0.878621 0.208683 0
1074 1 0.901434 0.200935 0
1078 1 0.949179 0.184349 0
1076 1 0.924237 0.192938 0
1107 1 0.944046 0.208728 0
1079 1 0.972471 0.176529 0
1109 1 0.967613 0.201211 0
181 1 0.9919 0.193308 0
1082 1 0.526902 0.221277 0
1111 1 0.510112 0.238552 0
1113 1 0.534199 0.245601 0
1084 1 0.550909 0.227589 0
1114 1 0.557566 0.252593 0
1115 1 0.575563 0.234591 0
1116 1 0.580908 0.259061 0
1088 1 0.616355 0.223905 0
1117 1 0.600112 0.242564 0
1118 1 0.624788 0.248347 0
1119 1 0.641396 0.230742 0
1121 1 0.665503 0.23627 0
1120 1 0.647882 0.254365 0
1092 1 0.682454 0.218403 0
1122 1 0.689543 0.243377 0
1123 1 0.706043 0.225323 0
1124 1 0.713052 0.249626 0
1125 1 0.730642 0.231164 0
1126 1 0.755132 0.237206 0
1155 1 0.738305 0.256549 0
1127 1 0.771405 0.218794 0
1129 1 0.798358 0.226275 0
1128 1 0.779031 0.243023 0
1159 1 0.801821 0.251642 0
1100 1 0.831299 0.222955 0
1130 1 0.825924 0.247107 0
1131 1 0.850346 0.239636 0
1132 1 0.867388 0.257745 0
1102 1 0.873014 0.231904 0
1104 1 0.896867 0.22488 0
1133 1 0.890853 0.249405 0
1105 1 0.920522 0.217687 0
1135 1 0.914904 0.241696 0
1136 1 0.933916 0.257655 0
1106 1 0.939255 0.233087 0
1137 1 0.957465 0.250208 0
1110 1 0.986642 0.217603 0
1108 1 0.962969 0.22637 0
1139 1 0.981411 0.241987 0
1169 1 0.999216 0.258702 0