ITEM: TIMESTEP
116000
ITEM: NUMBER OF ATOMS
1800
ITEM: BOX BOUNDS pp pp pp
1.3411596592676318e+00 1.6365884034073150e+02
1.3411596592676318e+00 1.6365884034073150e+02
0.0000000000000000e+00 5.5000000000000000e+00
ITEM: ATOMS id type xs ys zs
2 1 0.00994375 0.0045353 0
33 1 0.0277508 0.0214617 0
31 1 0.00494615 0.0289609 0
4 1 0.0522506 0.0135058 0
6 1 0.0761892 0.00706611 0
35 1 0.070905 0.0316529 0
34 1 0.047332 0.0381858 0
37 1 0.0947727 0.0234425 0
39 1 0.118233 0.0158388 0
38 1 0.112348 0.0408482 0
40 1 0.13683 0.0331712 0
10 1 0.142199 0.00880393 0
42 1 0.161158 0.0251093 0
41 1 0.166509 0.000401059 0
73 1 0.179493 0.0422898 0
43 1 0.184709 0.0170851 0
14 1 0.208786 0.00923263 0
44 1 0.202743 0.0348756 0
45 1 0.227051 0.0270745 0
16 1 0.251095 0.0196921 0
886 1 0.232978 0.00216991 0
46 1 0.268979 0.0366821 0
18 1 0.275252 0.0132948 0
49 1 0.292634 0.0297398 0
20 1 0.300574 0.00628998 0
51 1 0.317087 0.0268113 0
22 1 0.342522 0.0346558 0
21 1 0.360151 0.0168108 0
890 1 0.334962 0.0106392 0
24 1 0.383687 0.0221273 0
53 1 0.366534 0.0403098 0
894 1 0.401231 0.00371696 0
25 1 0.408191 0.0284527 0
26 1 0.432954 0.0342925 0
27 1 0.426085 0.00996783 0
898 1 0.450815 0.0166655 0
29 1 0.473911 0.0238609 0
900 1 0.49085 0.00673457 0
28 1 0.456971 0.0412068 0
30 1 0.498363 0.0302332 0
32 1 0.0239981 0.0459403 0
62 1 0.0182591 0.0697709 0
63 1 0.0416088 0.0634962 0
93 1 0.0373914 0.087736 0
65 1 0.065055 0.0559649 0
66 1 0.0839523 0.0719037 0
64 1 0.0602778 0.0800291 0
36 1 0.0889513 0.0478762 0
67 1 0.107192 0.0650438 0
69 1 0.131178 0.0573691 0
68 1 0.125459 0.08091 0
71 1 0.155072 0.0504132 0
72 1 0.173376 0.0670972 0
70 1 0.149366 0.0750048 0
74 1 0.221207 0.0514626 0
103 1 0.197364 0.0595359 0
105 1 0.216497 0.0765021 0
101 1 0.192695 0.084069 0
75 1 0.245546 0.0448221 0
77 1 0.264048 0.0621954 0
76 1 0.239861 0.0685572 0
137 1 0.258446 0.0861656 0
47 1 0.287658 0.0542471 0
48 1 0.306535 0.0697806 0
78 1 0.283048 0.0791387 0
50 1 0.321851 0.0501193 0
81 1 0.330733 0.075506 0
52 1 0.348708 0.0583736 0
82 1 0.356038 0.0833732 0
55 1 0.391006 0.0471009 0
83 1 0.373122 0.0649374 0
54 1 0.39946 0.0703146 0
57 1 0.439783 0.0591628 0
85 1 0.422271 0.0777977 0
56 1 0.415838 0.0527817 0
87 1 0.446499 0.0850359 0
59 1 0.48094 0.0477264 0
58 1 0.464061 0.0667282 0
89 1 0.488054 0.072809 0
990 1 0.0135801 0.0937748 0
92 1 0.0322785 0.11205 0
91 1 0.009021 0.11903 0
94 1 0.0555487 0.104946 0
95 1 0.0791683 0.0967427 0
125 1 0.0739901 0.121467 0
123 1 0.0497157 0.12913 0
96 1 0.0982316 0.114048 0
97 1 0.102638 0.0898304 0
98 1 0.120886 0.106062 0
99 1 0.144802 0.0998946 0
100 1 0.169128 0.0908891 0
130 1 0.164124 0.116146 0
129 1 0.140072 0.124213 0
131 1 0.187333 0.10931 0
102 1 0.211398 0.101276 0
133 1 0.205786 0.125424 0
104 1 0.228207 0.118376 0
106 1 0.234464 0.0930708 0
135 1 0.252239 0.110279 0
107 1 0.275592 0.10293 0
109 1 0.298265 0.111898 0
79 1 0.314078 0.0937167 0
108 1 0.27959 0.127739 0
80 1 0.33806 0.100844 0
110 1 0.321665 0.118941 0
141 1 0.345004 0.124769 0
113 1 0.380766 0.0888228 0
111 1 0.362794 0.107305 0
84 1 0.404568 0.0957461 0
112 1 0.386296 0.112828 0
115 1 0.410749 0.120896 0
86 1 0.429246 0.102643 0
116 1 0.434424 0.126823 0
117 1 0.453264 0.109073 0
88 1 0.470566 0.0911722 0
90 1 0.494369 0.0975428 0
119 1 0.476143 0.116043 0
122 1 0.0267859 0.137061 0
152 1 0.0216964 0.160762 0
121 1 0.00322936 0.143793 0
153 1 0.0449772 0.153406 0
124 1 0.068349 0.145842 0
155 1 0.0878101 0.162565 0
154 1 0.0638632 0.170798 0
127 1 0.11647 0.131752 0
126 1 0.0926093 0.138364 0
128 1 0.135724 0.148258 0
157 1 0.111459 0.155437 0
159 1 0.158151 0.140688 0
161 1 0.17797 0.158043 0
160 1 0.154323 0.165182 0
132 1 0.182655 0.133947 0
163 1 0.201287 0.151703 0
134 1 0.2239 0.14429 0
193 1 0.222557 0.17181 0
136 1 0.265107 0.148097 0
165 1 0.246122 0.133941 0
164 1 0.243529 0.15884 0
167 1 0.27145 0.171999 0
139 1 0.30356 0.136054 0
138 1 0.288403 0.153993 0
169 1 0.311714 0.161435 0
140 1 0.327934 0.142979 0
142 1 0.352055 0.148841 0
171 1 0.335544 0.167388 0
143 1 0.369248 0.131451 0
114 1 0.392837 0.139104 0
173 1 0.375617 0.156595 0
144 1 0.3992 0.163542 0
145 1 0.416857 0.144999 0
146 1 0.424057 0.169302 0
147 1 0.441043 0.151286 0
118 1 0.458784 0.13357 0
149 1 0.482567 0.141236 0
148 1 0.465462 0.159276 0
150 1 0.48903 0.16585 0
183 1 0.0393257 0.178011 0
182 1 0.034249 0.202334 0
1080 1 0.0153714 0.185752 0
211 1 0.00978165 0.209674 0
184 1 0.0580234 0.19495 0
185 1 0.0824576 0.18773 0
215 1 0.0773948 0.213114 0
158 1 0.130514 0.172807 0
186 1 0.100344 0.204435 0
156 1 0.107 0.179457 0
187 1 0.12474 0.19626 0
189 1 0.148813 0.189319 0
191 1 0.17263 0.182779 0
190 1 0.168696 0.207157 0
188 1 0.14348 0.214258 0
221 1 0.194364 0.211159 0
162 1 0.196902 0.176981 0
192 1 0.213603 0.195551 0
195 1 0.236678 0.204349 0
166 1 0.25 0.183509 0
196 1 0.259711 0.212209 0
168 1 0.294979 0.17922 0
197 1 0.276671 0.195884 0
199 1 0.301176 0.202589 0
170 1 0.318548 0.185181 0
172 1 0.359249 0.17507 0
201 1 0.342036 0.192439 0
200 1 0.324535 0.209177 0
202 1 0.348548 0.21587 0
203 1 0.365669 0.198485 0
174 1 0.383035 0.181175 0
204 1 0.389195 0.205837 0
175 1 0.407174 0.188629 0
177 1 0.448162 0.176056 0
205 1 0.412971 0.21202 0
176 1 0.432275 0.19414 0
178 1 0.455015 0.201777 0
179 1 0.472163 0.183868 0
180 1 0.496359 0.190547 0
209 1 0.478834 0.208944 0
212 1 0.0286604 0.226134 0
241 1 0.0232066 0.250436 0
1140 1 0.00451487 0.233921 0
243 1 0.0479589 0.242826 0
213 1 0.053628 0.218865 0
214 1 0.0724247 0.237089 0
245 1 0.0896194 0.255315 0
244 1 0.0661604 0.261272 0
216 1 0.0967695 0.231534 0
217 1 0.11916 0.221002 0
247 1 0.114713 0.250955 0
218 1 0.136799 0.237857 0
219 1 0.159808 0.245838 0
220 1 0.177574 0.230148 0
222 1 0.182562 0.254272 0
194 1 0.218332 0.221544 0
223 1 0.200285 0.237781 0
224 1 0.223495 0.245841 0
225 1 0.241857 0.22883 0
227 1 0.265504 0.23669 0
226 1 0.246703 0.254201 0
198 1 0.283488 0.219515 0
228 1 0.289302 0.244151 0
229 1 0.307134 0.227178 0
230 1 0.312147 0.252178 0
231 1 0.33099 0.234764 0
232 1 0.353718 0.241084 0
261 1 0.336533 0.258955 0
233 1 0.371889 0.223378 0
234 1 0.376913 0.24807 0
235 1 0.396133 0.230491 0
265 1 0.402489 0.25532 0
207 1 0.438329 0.219408 0
206 1 0.420851 0.237816 0
237 1 0.444063 0.243612 0
208 1 0.461936 0.226475 0
210 1 0.48657 0.232636 0
239 1 0.468122 0.251045 0
240 1 0.49337 0.256905 0
242 1 0.0423553 0.265728 0
271 1 0.0373714 0.289057 0
1170 1 0.0186812 0.274442 0
1200 1 0.0156992 0.300749 0
273 1 0.0619289 0.296926 0
275 1 0.0810618 0.281355 0
246 1 0.104194 0.293016 0
248 1 0.121359 0.275927 0
279 1 0.126916 0.301413 0
249 1 0.141272 0.261666 0
251 1 0.165074 0.270913 0
250 1 0.146049 0.286077 0
281 1 0.169487 0.295706 0
253 1 0.205894 0.262606 0
252 1 0.188876 0.279807 0
254 1 0.21133 0.287836 0
283 1 0.193201 0.304176 0
257 1 0.270408 0.261251 0
255 1 0.229082 0.270969 0
256 1 0.252607 0.278901 0
285 1 0.235101 0.295547 0
259 1 0.294419 0.269699 0
258 1 0.276143 0.286061 0
289 1 0.299815 0.293475 0
260 1 0.318371 0.275887 0
263 1 0.359876 0.265852 0
262 1 0.341714 0.283727 0
291 1 0.323709 0.3014 0
293 1 0.365701 0.290756 0
264 1 0.38423 0.272923 0
295 1 0.38962 0.296903 0
266 1 0.409159 0.279778 0
236 1 0.426741 0.262018 0
238 1 0.45021 0.268763 0
267 1 0.431949 0.286514 0
297 1 0.413794 0.303777 0
268 1 0.455654 0.293096 0
1141 1 0.498584 0.281676 0
269 1 0.473913 0.274572 0
270 1 0.480011 0.299226 0
301 1 0.0217528 0.324969 0
1230 1 0.00284043 0.342018 0
272 1 0.0423497 0.312117 0
303 1 0.0448058 0.336412 0
276 1 0.0849134 0.30752 0
274 1 0.0647651 0.321761 0
305 1 0.0876914 0.332298 0
304 1 0.0685157 0.346281 0
277 1 0.107984 0.318142 0
278 1 0.13033 0.326811 0
307 1 0.1107 0.342584 0
280 1 0.150617 0.311605 0
311 1 0.154477 0.336477 0
282 1 0.174435 0.320219 0
312 1 0.178631 0.345788 0
284 1 0.21641 0.312343 0
313 1 0.197072 0.328839 0
315 1 0.22088 0.337846 0
287 1 0.258571 0.303367 0
286 1 0.239497 0.320617 0
317 1 0.262679 0.327794 0
288 1 0.28312 0.310835 0
318 1 0.287612 0.336988 0
290 1 0.306239 0.319356 0
319 1 0.311514 0.344244 0
292 1 0.3486 0.309204 0
321 1 0.330714 0.326644 0
323 1 0.354528 0.333472 0
324 1 0.380057 0.33967 0
294 1 0.372293 0.315716 0
325 1 0.403427 0.345728 0
296 1 0.396148 0.321325 0
298 1 0.438827 0.311052 0
327 1 0.420068 0.327866 0
328 1 0.445454 0.335351 0
329 1 0.470023 0.341279 0
299 1 0.462885 0.317079 0
300 1 0.487305 0.323072 0
302 1 0.0252978 0.351346 0
332 1 0.0289265 0.376383 0
331 1 0.00531462 0.365878 0
333 1 0.0481465 0.360992 0
335 1 0.071503 0.371725 0
334 1 0.0513509 0.385779 0
306 1 0.0911097 0.356688 0
337 1 0.0955331 0.381702 0
308 1 0.114788 0.367269 0
309 1 0.133937 0.351074 0
338 1 0.119156 0.391148 0
339 1 0.139395 0.375246 0
310 1 0.158561 0.360602 0
341 1 0.161522 0.385784 0
343 1 0.181937 0.370817 0
314 1 0.202343 0.354354 0
344 1 0.205546 0.379383 0
345 1 0.225733 0.363484 0
316 1 0.24446 0.345806 0
375 1 0.228482 0.38846 0
347 1 0.268633 0.352689 0
346 1 0.248996 0.370964 0
377 1 0.272884 0.378536 0
349 1 0.292115 0.362311 0
348 1 0.297184 0.386706 0
350 1 0.316725 0.368451 0
320 1 0.336288 0.35081 0
351 1 0.343681 0.375473 0
322 1 0.361252 0.35746 0
353 1 0.368944 0.381705 0
355 1 0.386225 0.363892 0
354 1 0.393334 0.388161 0
356 1 0.410993 0.370268 0
326 1 0.427201 0.352834 0
357 1 0.435672 0.3778 0
359 1 0.452646 0.35978 0
1201 1 0.493827 0.346286 0
358 1 0.459471 0.384134 0
330 1 0.477254 0.366042 0
360 1 0.483423 0.389696 0
361 1 0.00760886 0.390913 0
363 1 0.0309995 0.401047 0
362 1 0.0116985 0.415937 0
364 1 0.0341665 0.425492 0
336 1 0.0754371 0.39605 0
365 1 0.0535511 0.410451 0
366 1 0.0765944 0.420132 0
367 1 0.0975862 0.40624 0
369 1 0.119982 0.416416 0
368 1 0.0994469 0.431107 0
340 1 0.141966 0.400827 0
370 1 0.143695 0.425745 0
371 1 0.164923 0.410427 0
342 1 0.185975 0.395885 0
372 1 0.187435 0.420568 0
373 1 0.208483 0.404316 0
403 1 0.209659 0.430504 0
374 1 0.231819 0.415024 0
376 1 0.253665 0.396674 0
405 1 0.255509 0.423074 0
378 1 0.277408 0.403949 0
379 1 0.308578 0.408737 0
409 1 0.289547 0.424253 0
410 1 0.31381 0.43306 0
381 1 0.326079 0.39186 0
352 1 0.350565 0.399236 0
382 1 0.355774 0.423891 0
380 1 0.332066 0.416808 0
383 1 0.374451 0.406194 0
385 1 0.398642 0.412552 0
384 1 0.38059 0.43043 0
387 1 0.417607 0.394587 0
386 1 0.423798 0.419125 0
388 1 0.442309 0.40204 0
419 1 0.448846 0.426628 0
389 1 0.466287 0.408547 0
1261 1 0.490399 0.414196 0
390 1 0.472623 0.431672 0
393 1 0.0140151 0.440162 0
423 1 0.0160882 0.464386 0
394 1 0.0365803 0.450513 0
425 1 0.0381798 0.475794 0
395 1 0.0580009 0.436164 0
396 1 0.059021 0.461141 0
397 1 0.0790899 0.446236 0
427 1 0.082757 0.470441 0
399 1 0.12333 0.441278 0
398 1 0.103266 0.456728 0
429 1 0.12649 0.466114 0
401 1 0.165598 0.435624 0
400 1 0.146213 0.451458 0
431 1 0.168896 0.460343 0
430 1 0.148665 0.475461 0
402 1 0.188189 0.445565 0
433 1 0.211791 0.455817 0
432 1 0.190653 0.471335 0
404 1 0.232621 0.440457 0
406 1 0.25338 0.45453 0
435 1 0.232903 0.467391 0
407 1 0.273508 0.441806 0
437 1 0.277268 0.465671 0
408 1 0.296627 0.450712 0
439 1 0.300375 0.474808 0
441 1 0.320497 0.459924 0
413 1 0.36312 0.448345 0
411 1 0.338365 0.441889 0
412 1 0.344397 0.465875 0
415 1 0.406013 0.435812 0
414 1 0.387811 0.45444 0
443 1 0.37031 0.472882 0
416 1 0.412386 0.459564 0
417 1 0.430138 0.442449 0
418 1 0.455449 0.450355 0
447 1 0.436492 0.467144 0
1291 1 0.496627 0.438822 0
420 1 0.478853 0.457521 0
449 1 0.461012 0.473826 0
454 1 0.0212839 0.513779 0
424 1 0.0184535 0.489566 0
455 1 0.041515 0.499996 0
426 1 0.0623015 0.485796 0
456 1 0.0638943 0.510646 0
457 1 0.0845768 0.49568 0
487 1 0.0876016 0.520867 0
428 1 0.105956 0.481142 0
459 1 0.128196 0.491111 0
458 1 0.107387 0.50611 0
489 1 0.130481 0.515906 0
461 1 0.171565 0.486174 0
460 1 0.150695 0.50059 0
462 1 0.17275 0.511224 0
434 1 0.212977 0.482529 0
463 1 0.193358 0.497799 0
464 1 0.215872 0.507812 0
493 1 0.195382 0.521704 0
436 1 0.256765 0.478601 0
465 1 0.236226 0.492827 0
467 1 0.259479 0.503098 0
466 1 0.23822 0.517772 0
438 1 0.281157 0.489915 0
469 1 0.305514 0.500047 0
468 1 0.283544 0.514535 0
440 1 0.326265 0.48444 0
442 1 0.351623 0.489709 0
471 1 0.335105 0.508024 0
473 1 0.359433 0.514783 0
445 1 0.395428 0.479398 0
444 1 0.376799 0.497072 0
475 1 0.402004 0.503268 0
474 1 0.384447 0.521097 0
446 1 0.418957 0.485096 0
477 1 0.42629 0.509748 0
448 1 0.443205 0.491893 0
478 1 0.44996 0.516101 0
450 1 0.484889 0.48155 0
479 1 0.468005 0.498918 0
1381 1 0.492003 0.505859 0
483 1 0.0241181 0.540165 0
482 1 0.00321653 0.55356 0
513 1 0.026667 0.565935 0
485 1 0.0441435 0.525581 0
452 1 0.00146313 0.528684 0
484 1 0.0463762 0.551064 0
486 1 0.0675333 0.535257 0
515 1 0.070509 0.560016 0
517 1 0.0903772 0.545712 0
488 1 0.109956 0.531397 0
519 1 0.113029 0.556657 0
490 1 0.132528 0.541452 0
491 1 0.152706 0.525206 0
521 1 0.155291 0.551315 0
492 1 0.175231 0.536034 0
523 1 0.17775 0.561726 0
494 1 0.1978 0.546575 0
495 1 0.218252 0.53302 0
525 1 0.22068 0.557766 0
496 1 0.240284 0.542623 0
497 1 0.259963 0.527638 0
527 1 0.26274 0.553143 0
470 1 0.316023 0.523676 0
499 1 0.303568 0.545734 0
498 1 0.281492 0.538285 0
529 1 0.285639 0.562191 0
472 1 0.342345 0.531734 0
501 1 0.326847 0.550642 0
502 1 0.350294 0.556379 0
503 1 0.367553 0.538771 0
505 1 0.391463 0.545825 0
476 1 0.408083 0.528206 0
504 1 0.374223 0.563489 0
506 1 0.415093 0.552453 0
507 1 0.431657 0.534416 0
508 1 0.438989 0.559075 0
509 1 0.456702 0.541101 0
480 1 0.47366 0.523371 0
510 1 0.480191 0.548223 0
1382 1 0.498568 0.529694 0
512 1 0.0289682 0.590676 0
511 1 0.00624571 0.579119 0
541 1 0.00779778 0.6043 0
514 1 0.0492555 0.576008 0
545 1 0.0720359 0.585666 0
543 1 0.0522991 0.600995 0
520 1 0.135402 0.567135 0
516 1 0.0926872 0.571125 0
518 1 0.115381 0.581714 0
547 1 0.0956573 0.596269 0
548 1 0.118315 0.606685 0
549 1 0.138142 0.592409 0
522 1 0.158266 0.576954 0
551 1 0.161023 0.602248 0
553 1 0.180793 0.587369 0
524 1 0.200588 0.572316 0
554 1 0.20384 0.597584 0
555 1 0.223427 0.582816 0
556 1 0.226846 0.607279 0
526 1 0.243383 0.567955 0
557 1 0.247446 0.593113 0
528 1 0.267025 0.577381 0
558 1 0.27116 0.601815 0
500 1 0.308607 0.569175 0
559 1 0.290322 0.586398 0
530 1 0.314515 0.593399 0
531 1 0.332637 0.574754 0
532 1 0.338223 0.600781 0
533 1 0.35569 0.582341 0
563 1 0.361632 0.60689 0
534 1 0.379748 0.588916 0
535 1 0.397951 0.571139 0
536 1 0.402927 0.595537 0
537 1 0.421692 0.577215 0
567 1 0.426926 0.601441 0
538 1 0.445465 0.58343 0
568 1 0.451367 0.60803 0
539 1 0.463194 0.565962 0
540 1 0.487929 0.573124 0
569 1 0.469471 0.59032 0
1441 1 0.493722 0.598099 0
542 1 0.0316379 0.614432 0
571 1 0.0113381 0.628676 0
573 1 0.0345718 0.639777 0
546 1 0.0751445 0.61037 0
544 1 0.0551098 0.625775 0
575 1 0.0780797 0.635604 0
574 1 0.0574101 0.649812 0
577 1 0.0981469 0.621408 0
579 1 0.120563 0.631379 0
576 1 0.100855 0.645819 0
550 1 0.14089 0.616908 0
581 1 0.164431 0.627393 0
580 1 0.143333 0.641155 0
611 1 0.167797 0.652463 0
552 1 0.183306 0.612448 0
582 1 0.187902 0.636472 0
583 1 0.207807 0.622547 0
584 1 0.211418 0.647779 0
585 1 0.231011 0.63179 0
586 1 0.254271 0.641976 0
587 1 0.251794 0.617652 0
560 1 0.294599 0.611479 0
589 1 0.274649 0.62662 0
590 1 0.300154 0.635589 0
561 1 0.319633 0.617658 0
562 1 0.344137 0.624535 0
591 1 0.323604 0.643104 0
593 1 0.34877 0.649236 0
565 1 0.385332 0.613117 0
564 1 0.367256 0.631537 0
595 1 0.391283 0.637875 0
566 1 0.409847 0.619645 0
596 1 0.415354 0.644558 0
597 1 0.433223 0.626191 0
599 1 0.439875 0.650898 0
1442 1 0.499295 0.622138 0
570 1 0.475732 0.614925 0
600 1 0.457288 0.631511 0
1471 1 0.481497 0.639944 0
572 1 0.0139462 0.653676 0
602 1 0.0169356 0.678552 0
603 1 0.0373921 0.663972 0
633 1 0.0396143 0.688965 0
605 1 0.080568 0.6608 0
604 1 0.0603259 0.674963 0
606 1 0.0832591 0.686356 0
578 1 0.123594 0.656344 0
607 1 0.103268 0.670768 0
608 1 0.12719 0.681163 0
609 1 0.147175 0.665764 0
610 1 0.16936 0.676473 0
639 1 0.149593 0.691443 0
612 1 0.192947 0.685806 0
613 1 0.189776 0.66193 0
614 1 0.213388 0.672144 0
643 1 0.215414 0.696907 0
615 1 0.234987 0.657683 0
616 1 0.237589 0.682029 0
617 1 0.259714 0.666645 0
647 1 0.261153 0.68997 0
588 1 0.280294 0.650743 0
619 1 0.304663 0.660906 0
618 1 0.28415 0.675528 0
620 1 0.313458 0.68478 0
621 1 0.331693 0.667226 0
592 1 0.356008 0.674189 0
622 1 0.338153 0.691843 0
594 1 0.372775 0.656025 0
625 1 0.397127 0.662339 0
623 1 0.379557 0.680802 0
626 1 0.403817 0.685975 0
598 1 0.445631 0.675886 0
627 1 0.421213 0.66883 0
657 1 0.428351 0.693142 0
628 1 0.469205 0.681842 0
629 1 0.463653 0.657685 0
1501 1 0.488204 0.664337 0
630 1 0.493176 0.688097 0
632 1 0.0200047 0.703033 0
663 1 0.0227815 0.72789 0
634 1 0.043279 0.71457 0
635 1 0.0627097 0.699809 0
636 1 0.0847914 0.710482 0
665 1 0.0653167 0.724984 0
666 1 0.0878828 0.736131 0
637 1 0.105757 0.695317 0
638 1 0.129505 0.706337 0
667 1 0.107505 0.720758 0
669 1 0.131849 0.730918 0
641 1 0.172589 0.701585 0
640 1 0.151934 0.71724 0
671 1 0.174748 0.726751 0
642 1 0.195271 0.711684 0
673 1 0.197668 0.737591 0
644 1 0.217899 0.722272 0
645 1 0.237074 0.706617 0
675 1 0.241235 0.731716 0
646 1 0.259639 0.715241 0
677 1 0.264431 0.740258 0
649 1 0.296889 0.702557 0
648 1 0.282226 0.722262 0
679 1 0.305793 0.727954 0
650 1 0.320947 0.709386 0
651 1 0.345453 0.715534 0
681 1 0.328941 0.733951 0
653 1 0.362779 0.698556 0
624 1 0.386916 0.705738 0
654 1 0.36914 0.723459 0
685 1 0.393002 0.729899 0
655 1 0.410255 0.710428 0
656 1 0.434064 0.717798 0
686 1 0.416956 0.736093 0
658 1 0.451735 0.699612 0
687 1 0.458834 0.724438 0
659 1 0.475677 0.705896 0
689 1 0.482936 0.730535 0
664 1 0.0451868 0.739796 0
662 1 0.0255475 0.755152 0
693 1 0.0274293 0.781591 0
691 1 0.00512984 0.769525 0
661 1 0.0034174 0.744357 0
694 1 0.047321 0.766974 0
695 1 0.0673735 0.751364 0
696 1 0.0702119 0.776176 0
697 1 0.0899284 0.760853 0
668 1 0.110769 0.745533 0
698 1 0.113042 0.770909 0
699 1 0.133905 0.756361 0
700 1 0.135617 0.781375 0
670 1 0.154721 0.742022 0
701 1 0.156254 0.767949 0
672 1 0.176556 0.75266 0
702 1 0.182765 0.777954 0
674 1 0.222532 0.747452 0
703 1 0.200855 0.761993 0
705 1 0.22588 0.772007 0
676 1 0.24535 0.756574 0
707 1 0.268971 0.764221 0
735 1 0.250201 0.781479 0
678 1 0.287512 0.747307 0
709 1 0.292555 0.7716 0
680 1 0.311384 0.752012 0
710 1 0.317202 0.776729 0
652 1 0.352174 0.740823 0
682 1 0.358676 0.766392 0
711 1 0.335167 0.75851 0
683 1 0.37697 0.748454 0
713 1 0.384059 0.773227 0
684 1 0.400911 0.754524 0
716 1 0.407591 0.779637 0
717 1 0.441078 0.742736 0
715 1 0.424657 0.761326 0
718 1 0.447716 0.76718 0
1591 1 0.496792 0.780247 0
690 1 0.489689 0.75536 0
688 1 0.465621 0.750067 0
719 1 0.471856 0.773094 0
692 1 0.00566766 0.795116 0
722 1 0.00428189 0.82107 0
723 1 0.0296622 0.80971 0
725 1 0.0496129 0.792997 0
726 1 0.0744284 0.800186 0
755 1 0.0718928 0.823989 0
727 1 0.0931376 0.785746 0
728 1 0.116046 0.797535 0
757 1 0.0957045 0.813008 0
729 1 0.140204 0.804655 0
730 1 0.161115 0.817082 0
731 1 0.161745 0.791829 0
704 1 0.205405 0.78747 0
732 1 0.184148 0.804675 0
763 1 0.208395 0.812977 0
734 1 0.232319 0.821418 0
733 1 0.229062 0.796334 0
736 1 0.254339 0.805943 0
706 1 0.274003 0.788506 0
737 1 0.282965 0.812275 0
708 1 0.300224 0.794871 0
738 1 0.306287 0.819613 0
741 1 0.341362 0.784848 0
739 1 0.324979 0.802444 0
742 1 0.348187 0.809488 0
740 1 0.330147 0.825916 0
712 1 0.366449 0.79095 0
714 1 0.389929 0.797867 0
743 1 0.372759 0.816024 0
745 1 0.396525 0.821259 0
746 1 0.414173 0.8046 0
747 1 0.431356 0.785914 0
748 1 0.438238 0.810402 0
749 1 0.455766 0.79153 0
720 1 0.479142 0.797469 0
750 1 0.462833 0.815957 0
1621 1 0.48729 0.821905 0
753 1 0.0238389 0.836205 0
783 1 0.0177275 0.861352 0
754 1 0.0418224 0.855065 0
752 1 -0.000108288 0.845202 0
724 1 0.048168 0.83042 0
785 1 0.0659945 0.848051 0
786 1 0.0846909 0.864866 0
756 1 0.0900505 0.841108 0
758 1 0.11394 0.83224 0
787 1 0.108107 0.857653 0
789 1 0.131735 0.851416 0
759 1 0.138842 0.828314 0
760 1 0.156963 0.843898 0
791 1 0.174507 0.860942 0
790 1 0.150122 0.868261 0
761 1 0.180239 0.834577 0
762 1 0.198553 0.852666 0
764 1 0.220843 0.843263 0
765 1 0.246478 0.840836 0
795 1 0.237528 0.862755 0
766 1 0.267247 0.854789 0
767 1 0.266243 0.828414 0
769 1 0.312834 0.843108 0
768 1 0.288177 0.837629 0
799 1 0.296056 0.86126 0
770 1 0.336905 0.850194 0
771 1 0.35648 0.833767 0
773 1 0.361695 0.857661 0
744 1 0.379779 0.841255 0
774 1 0.386097 0.865724 0
775 1 0.403854 0.846899 0
777 1 0.419823 0.827674 0
807 1 0.428138 0.8525 0
778 1 0.445395 0.834265 0
809 1 0.451703 0.85937 0
779 1 0.469447 0.840635 0
780 1 0.47737 0.86542 0
1651 1 0.494311 0.84655 0
812 1 0.0126536 0.886596 0
814 1 0.031392 0.90373 0
813 1 0.0350016 0.879578 0
784 1 0.060265 0.872277 0
815 1 0.0541168 0.896904 0
816 1 0.0778891 0.889041 0
788 1 0.127038 0.875945 0
817 1 0.102806 0.883268 0
819 1 0.120539 0.900452 0
818 1 0.0966994 0.907403 0
821 1 0.168913 0.885223 0
820 1 0.144749 0.892658 0
851 1 0.162939 0.90961 0
793 1 0.215099 0.871064 0
792 1 0.192037 0.877362 0
823 1 0.210741 0.895723 0
822 1 0.187207 0.902362 0
794 1 0.233699 0.88892 0
796 1 0.256183 0.878722 0
827 1 0.254875 0.904374 0
825 1 0.229182 0.913125 0
797 1 0.279205 0.877486 0
798 1 0.282691 0.90133 0
800 1 0.302673 0.885594 0
801 1 0.319487 0.868421 0
831 1 0.326707 0.892382 0
772 1 0.344288 0.875033 0
802 1 0.35069 0.899818 0
803 1 0.368678 0.883124 0
804 1 0.374557 0.907115 0
805 1 0.392032 0.889231 0
776 1 0.4101 0.871041 0
806 1 0.416474 0.895016 0
808 1 0.433342 0.877405 0
839 1 0.440782 0.900472 0
1681 1 0.482686 0.889602 0
810 1 0.458323 0.883355 0
840 1 0.464554 0.907093 0
1652 1 0.501135 0.87136 0
842 1 0.00374794 0.937654 0
843 1 0.0074494 0.911706 0
844 1 0.0267582 0.928968 0
873 1 0.0213997 0.95512 0
875 1 0.0441736 0.946437 0
845 1 0.0496389 0.921096 0
846 1 0.0674054 0.938725 0
847 1 0.0736044 0.913899 0
848 1 0.0912694 0.932325 0
849 1 0.115995 0.925028 0
879 1 0.110201 0.949149 0
881 1 0.133924 0.942156 0
850 1 0.139239 0.917876 0
852 1 0.15788 0.934547 0
883 1 0.176023 0.951051 0
853 1 0.18108 0.926579 0
824 1 0.205415 0.919562 0
854 1 0.199717 0.94375 0
855 1 0.22362 0.937085 0
826 1 0.248393 0.928995 0
857 1 0.266921 0.946383 0
856 1 0.243069 0.953314 0
828 1 0.271513 0.922937 0
829 1 0.304877 0.912411 0
859 1 0.29134 0.93699 0
830 1 0.315361 0.936291 0
833 1 0.355936 0.924988 0
832 1 0.331382 0.917431 0
861 1 0.338542 0.94379 0
863 1 0.362569 0.948902 0
835 1 0.399514 0.912927 0
834 1 0.380257 0.930372 0
865 1 0.40394 0.936892 0
837 1 0.422993 0.91947 0
836 1 0.428809 0.942584 0
838 1 0.447566 0.92505 0
870 1 0.453166 0.949515 0
869 1 0.470184 0.932081 0
1711 1 0.488231 0.91361 0
1712 1 0.494375 0.938426 0
3 1 0.0343157 0.996868 0
872 1 0.015597 0.979363 0
874 1 0.038833 0.971704 0
5 1 0.0575932 0.9891 0
876 1 0.0619997 0.963237 0
7 1 0.0814376 0.98109 0
877 1 0.086132 0.956928 0
8 1 0.0993706 0.999412 0
9 1 0.122875 0.991651 0
878 1 0.105015 0.974479 0
880 1 0.129047 0.967108 0
11 1 0.14667 0.984077 0
882 1 0.152565 0.959042 0
13 1 0.171967 0.976235 0
12 1 0.191037 0.992679 0
15 1 0.215188 0.985693 0
884 1 0.195375 0.968201 0
885 1 0.219006 0.961447 0
17 1 0.257078 0.995339 0
887 1 0.239931 0.978378 0
888 1 0.263056 0.970842 0
858 1 0.287212 0.962621 0
19 1 0.281037 0.989032 0
889 1 0.30432 0.981158 0
860 1 0.320925 0.963214 0
862 1 0.344884 0.967677 0
891 1 0.328427 0.986757 0
892 1 0.352451 0.992196 0
864 1 0.386995 0.955658 0
23 1 0.376566 0.997996 0
893 1 0.369329 0.973329 0
895 1 0.393925 0.978886 0
896 1 0.418454 0.986573 0
866 1 0.412155 0.960871 0
867 1 0.435397 0.968452 0
897 1 0.442986 0.99229 0
899 1 0.467087 0.998818 0
1741 1 0.476814 0.956232 0
868 1 0.459371 0.973644 0
1771 1 0.48387 0.980958 0
931 1 0.522381 0.0374774 0
901 1 0.515623 0.0125974 0
902 1 0.5392 0.0191471 0
904 1 0.563706 0.0266333 0
906 1 0.581693 0.00805781 0
935 1 0.587983 0.0319868 0
905 1 0.556576 0.0021443 0
908 1 0.605406 0.0145781 0
939 1 0.6292 0.0213961 0
937 1 0.611507 0.0393468 0
910 1 0.646415 0.00358512 0
941 1 0.652344 0.0279742 0
912 1 0.669469 0.0106231 0
942 1 0.67706 0.034463 0
943 1 0.694091 0.0170611 0
945 1 0.717872 0.0237085 0
944 1 0.700532 0.0411477 0
914 1 0.742398 0.0240593 0
916 1 0.765862 0.0140857 0
947 1 0.761228 0.0399782 0
918 1 0.78464 0.0322546 0
919 1 0.807182 0.0245983 0
917 1 0.789184 0.00783267 0
1788 1 0.812829 0.000424343 0
951 1 0.82537 0.0425177 0
920 1 0.83094 0.0175093 0
922 1 0.849269 0.0338478 0
921 1 0.855208 0.00893242 0
923 1 0.872736 0.0259503 0
924 1 0.896675 0.0182282 0
1792 1 0.878362 0.00141323 0
954 1 0.890593 0.0424179 0
955 1 0.914788 0.0355376 0
925 1 0.919437 0.011339 0
926 1 0.938742 0.0273501 0
928 1 0.944231 0.00296165 0
930 1 0.98653 0.0120561 0
959 1 0.96263 0.0199656 0
960 1 0.981176 0.0364315 0
932 1 0.528669 0.062107 0
961 1 0.511422 0.0805717 0
60 1 0.50512 0.0552112 0
962 1 0.535595 0.0865637 0
933 1 0.545894 0.0443241 0
963 1 0.552494 0.0681778 0
934 1 0.570551 0.0501103 0
965 1 0.577373 0.0758358 0
936 1 0.593952 0.0570433 0
967 1 0.618509 0.0648679 0
966 1 0.600775 0.0814547 0
938 1 0.634573 0.0455632 0
969 1 0.642376 0.0707837 0
940 1 0.659026 0.0521165 0
970 1 0.666806 0.0764115 0
971 1 0.683872 0.0584901 0
973 1 0.709579 0.0643709 0
972 1 0.691285 0.0826994 0
975 1 0.730397 0.0479208 0
974 1 0.732915 0.0725438 0
946 1 0.754443 0.0630823 0
977 1 0.772256 0.0813086 0
949 1 0.802765 0.0500523 0
948 1 0.778845 0.0572122 0
979 1 0.797421 0.0749449 0
950 1 0.820634 0.0668953 0
980 1 0.839027 0.0831513 0
952 1 0.843614 0.0582876 0
981 1 0.861693 0.0754179 0
953 1 0.866958 0.0503862 0
983 1 0.885257 0.0676186 0
984 1 0.903945 0.0840565 0
985 1 0.909564 0.0596472 0
956 1 0.933932 0.0518114 0
986 1 0.928382 0.0765558 0
987 1 0.952781 0.068585 0
957 1 0.957795 0.0446281 0
958 1 0.976212 0.0611178 0
989 1 0.994652 0.0766568 0
988 1 0.971299 0.0858025 0
61 1 0.999569 0.0528617 0
991 1 0.518305 0.104572 0
993 1 0.54186 0.110897 0
120 1 0.499911 0.123096 0
992 1 0.524586 0.129306 0
964 1 0.560364 0.0938669 0
994 1 0.56629 0.118395 0
995 1 0.584547 0.100115 0
996 1 0.590625 0.12503 0
968 1 0.624711 0.0893756 0
997 1 0.607689 0.106852 0
998 1 0.630591 0.114029 0
999 1 0.648822 0.0959206 0
1000 1 0.656272 0.11881 0
1001 1 0.673621 0.100002 0
1031 1 0.680106 0.12441 0
1002 1 0.697824 0.107334 0
1003 1 0.715132 0.0896461 0
1004 1 0.72253 0.113444 0
976 1 0.765693 0.106107 0
1005 1 0.739431 0.0963288 0
1035 1 0.745242 0.120612 0
978 1 0.815483 0.0912881 0
1007 1 0.789799 0.0990456 0
1006 1 0.783183 0.123794 0
1008 1 0.808761 0.11506 0
1009 1 0.832806 0.107478 0
1010 1 0.851391 0.124695 0
1011 1 0.856917 0.100962 0
982 1 0.880442 0.0927506 0
1012 1 0.875799 0.116851 0
1013 1 0.899546 0.109121 0
1016 1 0.918642 0.12473 0
1017 1 0.947316 0.0926735 0
1015 1 0.923564 0.100181 0
1047 1 0.941633 0.116717 0
1018 1 0.965753 0.109876 0
1019 1 0.990593 0.101306 0
1020 1 0.985477 0.126086 0
1022 1 0.530677 0.154949 0
1021 1 0.506841 0.147397 0
1051 1 0.51304 0.172421 0
1023 1 0.548242 0.135899 0
1024 1 0.555435 0.160389 0
1025 1 0.572458 0.142519 0
1055 1 0.579249 0.167796 0
1027 1 0.61433 0.13287 0
1026 1 0.596713 0.149498 0
1028 1 0.621458 0.15579 0
1057 1 0.603883 0.174488 0
1029 1 0.638637 0.137261 0
1059 1 0.644946 0.162082 0
1030 1 0.662383 0.143182 0
1061 1 0.669581 0.168455 0
1032 1 0.687172 0.14957 0
1033 1 0.704378 0.131672 0
1063 1 0.710431 0.155716 0
1034 1 0.728236 0.137724 0
1036 1 0.753778 0.143668 0
1065 1 0.734198 0.161567 0
1066 1 0.758595 0.167938 0
1067 1 0.779346 0.151439 0
1037 1 0.803347 0.139807 0
1038 1 0.801564 0.163876 0
1039 1 0.827555 0.131428 0
1040 1 0.82414 0.15551 0
1041 1 0.847453 0.149059 0
1071 1 0.841344 0.173424 0
1042 1 0.865326 0.166235 0
1014 1 0.894373 0.133653 0
1043 1 0.871312 0.141284 0
1044 1 0.888866 0.158758 0
1045 1 0.912451 0.149466 0
1046 1 0.936055 0.142088 0
1077 1 0.930436 0.166676 0
1048 1 0.953836 0.158347 0
1049 1 0.95966 0.133567 0
1050 1 0.979208 0.150314 0
151 1 0.997946 0.167576 0
1053 1 0.538408 0.178745 0
1052 1 0.521138 0.197115 0
1081 1 0.504238 0.214749 0
1083 1 0.545788 0.203245 0
1054 1 0.562517 0.185676 0
1056 1 0.587466 0.192756 0
1085 1 0.57006 0.2092 0
1058 1 0.628247 0.180332 0
1087 1 0.611215 0.199715 0
1089 1 0.635876 0.204089 0
1086 1 0.593793 0.217258 0
1060 1 0.652455 0.186349 0
1091 1 0.676678 0.192499 0
1090 1 0.65946 0.210596 0
1062 1 0.693831 0.173713 0
1093 1 0.700543 0.198859 0
1064 1 0.717691 0.18088 0
1094 1 0.725638 0.204926 0
1095 1 0.743006 0.187677 0
1097 1 0.766237 0.195546 0
1096 1 0.749314 0.212985 0
1069 1 0.817446 0.181906 0
1068 1 0.782032 0.176898 0
1098 1 0.789659 0.200297 0
1099 1 0.813325 0.206144 0
1070 1 0.83638 0.198946 0
1072 1 0.860241 0.191171 0
1101 1 0.854489 0.215828 0
1075 1 0.9072 0.174678 0
1073 1 0.883538 0.183018 0
1103 1 0.878466 0.207529 0
1074 1 0.902353 0.198968 0
1078 1 0.950252 0.184357 0
1076 1 0.925547 0.190409 0
1107 1 0.94352 0.208153 0
1105 1 0.920071 0.216255 0
1079 1 0.974816 0.175433 0
1109 1 0.96764 0.200897 0
181 1 0.991808 0.192689 0
1110 1 0.985892 0.217074 0
1082 1 0.52839 0.221797 0
1111 1 0.510971 0.239187 0
1113 1 0.534872 0.245877 0
1084 1 0.551778 0.227449 0
1114 1 0.558673 0.252736 0
1115 1 0.575945 0.234696 0
1116 1 0.582895 0.25951 0
1088 1 0.618245 0.22358 0
1117 1 0.600471 0.241237 0
1118 1 0.625485 0.247268 0
1119 1 0.643078 0.229447 0
1121 1 0.666948 0.235983 0
1120 1 0.649207 0.253648 0
1151 1 0.673402 0.260012 0
1092 1 0.683454 0.217281 0
1122 1 0.69053 0.241429 0
1123 1 0.707174 0.223218 0
1124 1 0.713619 0.248451 0
1125 1 0.730979 0.229931 0
1126 1 0.755744 0.237371 0
1155 1 0.738501 0.254189 0
1127 1 0.773567 0.219459 0
1129 1 0.798147 0.225397 0
1128 1 0.779102 0.243409 0
1159 1 0.802072 0.251116 0
1100 1 0.830336 0.224346 0
1130 1 0.825753 0.249029 0
1131 1 0.849771 0.240119 0
1132 1 0.866451 0.257728 0
1102 1 0.872645 0.232286 0
1104 1 0.896538 0.22466 0
1133 1 0.890113 0.24796 0
1135 1 0.9153 0.240568 0
1136 1 0.932635 0.257515 0
1106 1 0.938377 0.233039 0
1137 1 0.956068 0.250108 0
1108 1 0.961636 0.224809 0