ITEM: TIMESTEP
120000
ITEM: NUMBER OF ATOMS
1800
ITEM: BOX BOUNDS pp pp pp
1.3854125447056447e+00 1.6361458745529194e+02
1.3854125447056447e+00 1.6361458745529194e+02
0.0000000000000000e+00 5.5000000000000000e+00
ITEM: ATOMS id type xs ys zs
2 1 0.0110392 0.00600134 0
33 1 0.0288986 0.0223461 0
31 1 0.00549955 0.0306018 0
4 1 0.0529286 0.0148278 0
6 1 0.0756549 0.00684301 0
35 1 0.0706159 0.0319535 0
34 1 0.0469437 0.0395432 0
37 1 0.0953695 0.0239909 0
39 1 0.118356 0.015344 0
38 1 0.1137 0.0406491 0
40 1 0.13757 0.0323208 0
10 1 0.141387 0.00786373 0
42 1 0.160249 0.0246795 0
41 1 0.165612 3.01058e-05 0
73 1 0.17965 0.0409124 0
43 1 0.184657 0.0172092 0
14 1 0.208711 0.0093167 0
44 1 0.203438 0.033071 0
45 1 0.227524 0.0255608 0
16 1 0.251959 0.0186064 0
886 1 0.23268 0.00152221 0
46 1 0.270389 0.0363811 0
75 1 0.246024 0.0433797 0
18 1 0.275933 0.0114698 0
49 1 0.294093 0.0283545 0
20 1 0.300482 0.00449841 0
51 1 0.317645 0.0261239 0
22 1 0.341881 0.0327846 0
21 1 0.358566 0.0147722 0
890 1 0.334331 0.0081293 0
24 1 0.383322 0.0213065 0
53 1 0.366458 0.0395926 0
894 1 0.401001 0.00313094 0
25 1 0.407987 0.0281083 0
26 1 0.431284 0.0354361 0
27 1 0.42469 0.0107623 0
898 1 0.449387 0.0169867 0
29 1 0.472672 0.0230529 0
900 1 0.48991 0.00559226 0
28 1 0.455844 0.0414385 0
30 1 0.497512 0.0296845 0
32 1 0.0236778 0.0472142 0
62 1 0.0183236 0.0711292 0
63 1 0.0422249 0.0638915 0
65 1 0.0662005 0.0566085 0
66 1 0.0852114 0.0726815 0
64 1 0.0606755 0.0804042 0
36 1 0.0897176 0.0482864 0
67 1 0.108623 0.0652221 0
69 1 0.132004 0.0577613 0
68 1 0.12765 0.0817928 0
71 1 0.15615 0.0493687 0
72 1 0.175139 0.065084 0
70 1 0.151756 0.0741339 0
74 1 0.222595 0.0507491 0
103 1 0.198769 0.0586151 0
105 1 0.216543 0.0753801 0
101 1 0.19284 0.0828342 0
77 1 0.265808 0.06067 0
76 1 0.24137 0.0679533 0
137 1 0.259817 0.0854557 0
47 1 0.289584 0.0526176 0
48 1 0.307548 0.0694311 0
78 1 0.284388 0.0765775 0
50 1 0.325116 0.0503849 0
81 1 0.332093 0.0754802 0
52 1 0.348829 0.0574972 0
82 1 0.355829 0.0818516 0
55 1 0.390442 0.0458749 0
83 1 0.372855 0.0641329 0
54 1 0.396811 0.0701341 0
57 1 0.438503 0.0598767 0
85 1 0.420746 0.0773106 0
56 1 0.414032 0.052321 0
87 1 0.444365 0.0838536 0
59 1 0.479648 0.0473921 0
58 1 0.46232 0.0657881 0
89 1 0.486278 0.0715181 0
93 1 0.037337 0.0880808 0
990 1 0.014592 0.0953589 0
92 1 0.0312544 0.113238 0
91 1 0.00811315 0.120323 0
94 1 0.0555727 0.104865 0
95 1 0.0790717 0.0972422 0
125 1 0.074005 0.122455 0
123 1 0.0498146 0.130013 0
96 1 0.0976612 0.114604 0
97 1 0.103864 0.0900394 0
98 1 0.121395 0.107774 0
99 1 0.14544 0.0989474 0
100 1 0.169353 0.0913474 0
130 1 0.163672 0.115572 0
129 1 0.140355 0.123431 0
131 1 0.187033 0.107237 0
102 1 0.211195 0.100729 0
133 1 0.205759 0.12541 0
104 1 0.229109 0.116925 0
106 1 0.235477 0.0927861 0
135 1 0.25467 0.110193 0
107 1 0.277961 0.101539 0
109 1 0.298794 0.112353 0
79 1 0.31438 0.0929491 0
108 1 0.277094 0.125956 0
80 1 0.338027 0.0999855 0
110 1 0.322895 0.118534 0
141 1 0.34568 0.125022 0
111 1 0.362717 0.106546 0
113 1 0.379876 0.0885255 0
84 1 0.404205 0.0952632 0
112 1 0.38685 0.113175 0
115 1 0.41024 0.120181 0
86 1 0.427733 0.101517 0
116 1 0.434643 0.126875 0
117 1 0.451686 0.108262 0
88 1 0.468845 0.0900588 0
90 1 0.49342 0.0962837 0
119 1 0.475826 0.115441 0
122 1 0.0262733 0.138276 0
152 1 0.0209935 0.162969 0
121 1 0.00313956 0.145517 0
153 1 0.0450153 0.15494 0
124 1 0.0684941 0.147108 0
155 1 0.0873508 0.163487 0
154 1 0.0638367 0.172153 0
127 1 0.116285 0.131463 0
126 1 0.0925661 0.138443 0
128 1 0.13465 0.147207 0
157 1 0.11091 0.155658 0
158 1 0.129583 0.171248 0
159 1 0.159255 0.140566 0
161 1 0.177344 0.157284 0
160 1 0.15283 0.164711 0
132 1 0.182466 0.132923 0
163 1 0.201604 0.150998 0
134 1 0.224476 0.142822 0
193 1 0.219936 0.169481 0
136 1 0.266237 0.148385 0
165 1 0.246985 0.133786 0
164 1 0.243485 0.159154 0
167 1 0.270347 0.172239 0
139 1 0.305375 0.136018 0
138 1 0.289025 0.155366 0
169 1 0.312369 0.161776 0
140 1 0.328925 0.143413 0
142 1 0.352175 0.150275 0
171 1 0.336079 0.168724 0
143 1 0.370066 0.131507 0
114 1 0.393521 0.13838 0
173 1 0.376543 0.1562 0
144 1 0.40101 0.163662 0
145 1 0.417177 0.144404 0
146 1 0.425258 0.169221 0
147 1 0.442216 0.152328 0
118 1 0.458971 0.134982 0
149 1 0.483558 0.140079 0
148 1 0.466147 0.158546 0
150 1 0.490621 0.163791 0
183 1 0.0394274 0.180034 0
182 1 0.0339767 0.204266 0
1080 1 0.0154487 0.187251 0
211 1 0.00976329 0.211215 0
184 1 0.0579553 0.196354 0
185 1 0.0825342 0.188935 0
215 1 0.0769161 0.213603 0
186 1 0.0999217 0.205852 0
156 1 0.105389 0.180383 0
187 1 0.124904 0.195526 0
189 1 0.148455 0.188824 0
191 1 0.171836 0.181192 0
190 1 0.167427 0.206015 0
188 1 0.14434 0.212724 0
221 1 0.192995 0.212374 0
162 1 0.195914 0.175311 0
192 1 0.211195 0.194563 0
195 1 0.235622 0.204733 0
166 1 0.249785 0.185088 0
196 1 0.258228 0.212313 0
168 1 0.294934 0.179138 0
197 1 0.275983 0.195974 0
199 1 0.299971 0.203601 0
170 1 0.318853 0.186802 0
172 1 0.359723 0.173791 0
201 1 0.342908 0.191936 0
200 1 0.324189 0.210696 0
202 1 0.348413 0.217234 0
203 1 0.366636 0.199093 0
174 1 0.38389 0.181107 0
204 1 0.390547 0.205591 0
175 1 0.407847 0.186891 0
177 1 0.449028 0.177086 0
205 1 0.414287 0.212277 0
176 1 0.431552 0.194343 0
178 1 0.456735 0.201214 0
179 1 0.473852 0.182417 0
180 1 0.497793 0.189033 0
209 1 0.480715 0.208056 0
212 1 0.0288729 0.22869 0
241 1 0.0227356 0.252028 0
1140 1 0.00435688 0.235469 0
243 1 0.0478919 0.244637 0
213 1 0.0531865 0.219947 0
214 1 0.0724879 0.237593 0
245 1 0.0915209 0.257072 0
216 1 0.0969584 0.231356 0
217 1 0.119415 0.219878 0
247 1 0.115398 0.248049 0
218 1 0.137894 0.235355 0
219 1 0.158255 0.248017 0
220 1 0.175242 0.230391 0
249 1 0.138074 0.260535 0
222 1 0.181645 0.255122 0
194 1 0.217095 0.220857 0
223 1 0.19951 0.238537 0
224 1 0.222954 0.247335 0
225 1 0.24031 0.230471 0
227 1 0.264227 0.237571 0
226 1 0.246386 0.254503 0
198 1 0.281696 0.220387 0
228 1 0.287512 0.245035 0
229 1 0.305747 0.227763 0
230 1 0.311246 0.252095 0
231 1 0.331189 0.234711 0
232 1 0.35485 0.241264 0
261 1 0.336129 0.25946 0
233 1 0.37229 0.223052 0
234 1 0.379266 0.247198 0
235 1 0.397363 0.230032 0
265 1 0.402345 0.255035 0
207 1 0.439146 0.218538 0
206 1 0.421356 0.236764 0
237 1 0.444802 0.242709 0
236 1 0.42696 0.261311 0
208 1 0.463612 0.225902 0
210 1 0.486966 0.232812 0
239 1 0.469003 0.250123 0
240 1 0.493605 0.256395 0
242 1 0.0412456 0.267749 0
271 1 0.0360367 0.290732 0
1170 1 0.0174299 0.275852 0
1200 1 0.0135718 0.302041 0
244 1 0.0658439 0.260801 0
273 1 0.0599501 0.298086 0
275 1 0.0801915 0.281547 0
246 1 0.102291 0.292772 0
248 1 0.11843 0.274772 0
279 1 0.125476 0.301264 0
251 1 0.163459 0.272228 0
250 1 0.142902 0.285514 0
281 1 0.168183 0.296487 0
253 1 0.204698 0.264241 0
252 1 0.186804 0.280215 0
254 1 0.210608 0.289193 0
257 1 0.270123 0.262852 0
255 1 0.228483 0.27255 0
256 1 0.251945 0.279994 0
285 1 0.23383 0.297208 0
259 1 0.293837 0.269522 0
258 1 0.275107 0.287385 0
289 1 0.299366 0.294694 0
260 1 0.317654 0.276896 0
263 1 0.361141 0.265653 0
262 1 0.342013 0.283599 0
291 1 0.324991 0.300903 0
293 1 0.367171 0.289427 0
264 1 0.384794 0.272186 0
295 1 0.391673 0.295859 0
266 1 0.408338 0.278062 0
238 1 0.451155 0.26781 0
267 1 0.431875 0.285326 0
297 1 0.415353 0.30299 0
268 1 0.457164 0.291287 0
1141 1 0.499832 0.281207 0
269 1 0.475392 0.273975 0
270 1 0.481387 0.298348 0
301 1 0.0198802 0.326959 0
1230 1 0.00093762 0.343293 0
272 1 0.0403539 0.313762 0
303 1 0.0448955 0.337903 0
276 1 0.082674 0.307232 0
274 1 0.0636713 0.322693 0
305 1 0.0861868 0.331836 0
304 1 0.0670285 0.347318 0
277 1 0.106592 0.316622 0
278 1 0.129281 0.326569 0
307 1 0.109475 0.340919 0
280 1 0.148745 0.311777 0
311 1 0.152699 0.336066 0
282 1 0.173377 0.321283 0
312 1 0.177123 0.345974 0
283 1 0.191557 0.30467 0
284 1 0.21512 0.313609 0
313 1 0.196445 0.329787 0
315 1 0.219922 0.339084 0
287 1 0.258124 0.305753 0
286 1 0.239035 0.322825 0
317 1 0.263172 0.330739 0
288 1 0.281577 0.312436 0
318 1 0.28769 0.337239 0
290 1 0.305923 0.317918 0
319 1 0.311788 0.342715 0
292 1 0.348741 0.307393 0
321 1 0.330449 0.325441 0
323 1 0.354993 0.33075 0
324 1 0.379528 0.338162 0
294 1 0.373628 0.313496 0
325 1 0.403904 0.343992 0
296 1 0.397259 0.319719 0
298 1 0.439924 0.309147 0
327 1 0.422311 0.327155 0
328 1 0.447144 0.334697 0
329 1 0.470809 0.341517 0
299 1 0.463399 0.315604 0
300 1 0.487515 0.324124 0
1201 1 0.494555 0.348242 0
302 1 0.0236022 0.351554 0
332 1 0.0276482 0.37649 0
331 1 0.00414721 0.367695 0
361 1 0.0078112 0.391593 0
333 1 0.0469797 0.361694 0
335 1 0.0701902 0.37168 0
334 1 0.0512063 0.387142 0
306 1 0.0898838 0.356746 0
337 1 0.0931186 0.381827 0
308 1 0.113322 0.366069 0
309 1 0.133228 0.350955 0
339 1 0.137058 0.376162 0
338 1 0.116559 0.390816 0
310 1 0.157581 0.361005 0
341 1 0.160661 0.385708 0
343 1 0.181008 0.369972 0
314 1 0.201309 0.355057 0
344 1 0.204887 0.379357 0
345 1 0.226663 0.364223 0
316 1 0.245529 0.347958 0
375 1 0.229351 0.389788 0
347 1 0.269482 0.355493 0
346 1 0.24996 0.373393 0
377 1 0.273391 0.38092 0
349 1 0.293273 0.36153 0
348 1 0.299677 0.384996 0
350 1 0.319241 0.367391 0
320 1 0.33701 0.349138 0
351 1 0.344984 0.371983 0
322 1 0.362294 0.354482 0
381 1 0.328124 0.390491 0
353 1 0.368791 0.379946 0
355 1 0.385872 0.36251 0
354 1 0.393377 0.387193 0
356 1 0.410814 0.369066 0
326 1 0.4292 0.35072 0
357 1 0.435209 0.376641 0
359 1 0.453025 0.360014 0
358 1 0.45971 0.383883 0
330 1 0.47634 0.36553 0
363 1 0.0308909 0.401587 0
362 1 0.0100786 0.415954 0
364 1 0.0329811 0.426113 0
336 1 0.0741325 0.396431 0
365 1 0.0540349 0.411662 0
366 1 0.076705 0.421328 0
367 1 0.0970753 0.406054 0
369 1 0.11985 0.415358 0
368 1 0.0994348 0.429959 0
340 1 0.140455 0.400292 0
370 1 0.142823 0.425035 0
371 1 0.164726 0.410554 0
342 1 0.18361 0.394388 0
372 1 0.186995 0.420368 0
373 1 0.207642 0.404522 0
403 1 0.210853 0.4296 0
374 1 0.230461 0.414976 0
376 1 0.252329 0.398909 0
405 1 0.254353 0.425363 0
378 1 0.275424 0.407128 0
379 1 0.310797 0.407334 0
409 1 0.292974 0.42302 0
410 1 0.316305 0.43252 0
352 1 0.352257 0.39879 0
382 1 0.358859 0.423804 0
380 1 0.335112 0.415841 0
383 1 0.376033 0.40621 0
385 1 0.400599 0.412866 0
384 1 0.381938 0.430488 0
387 1 0.417687 0.394 0
386 1 0.424323 0.418883 0
388 1 0.441909 0.400561 0
419 1 0.44853 0.426005 0
360 1 0.483711 0.389778 0
389 1 0.465546 0.408231 0
1261 1 0.490155 0.414621 0
390 1 0.472696 0.432996 0
393 1 0.0122237 0.440183 0
423 1 0.0152562 0.465033 0
394 1 0.0360917 0.450912 0
425 1 0.0391733 0.475638 0
395 1 0.0563405 0.43682 0
396 1 0.0598802 0.460817 0
397 1 0.0797665 0.44538 0
427 1 0.0823153 0.470908 0
399 1 0.121418 0.440299 0
398 1 0.102123 0.455793 0
429 1 0.125119 0.464761 0
401 1 0.166769 0.435065 0
400 1 0.145079 0.449224 0
431 1 0.168309 0.45962 0
430 1 0.147836 0.47448 0
402 1 0.189651 0.445155 0
433 1 0.212843 0.453918 0
432 1 0.191425 0.469008 0
404 1 0.233623 0.440277 0
406 1 0.25505 0.452323 0
435 1 0.234328 0.465154 0
436 1 0.257766 0.477179 0
407 1 0.275217 0.439022 0
437 1 0.278725 0.463545 0
408 1 0.298261 0.44772 0
439 1 0.302625 0.474385 0
441 1 0.321863 0.457542 0
411 1 0.340238 0.440679 0
412 1 0.346836 0.465799 0
413 1 0.364006 0.447992 0
415 1 0.406812 0.436639 0
414 1 0.388028 0.454865 0
443 1 0.370599 0.472957 0
416 1 0.411605 0.461149 0
417 1 0.430064 0.444075 0
447 1 0.436527 0.467437 0
418 1 0.454305 0.450462 0
1291 1 0.49692 0.439541 0
420 1 0.478003 0.45726 0
449 1 0.460164 0.474513 0
454 1 0.0203224 0.514259 0
424 1 0.0177628 0.489203 0
455 1 0.0412743 0.499655 0
426 1 0.0622298 0.485757 0
456 1 0.0633322 0.510899 0
457 1 0.0841514 0.495439 0
487 1 0.0866119 0.520348 0
428 1 0.105496 0.480115 0
459 1 0.127695 0.490205 0
458 1 0.106943 0.505376 0
489 1 0.130521 0.515204 0
461 1 0.170841 0.484307 0
460 1 0.150907 0.499886 0
462 1 0.174072 0.510014 0
434 1 0.213994 0.479412 0
463 1 0.19403 0.494097 0
464 1 0.216628 0.504536 0
493 1 0.19683 0.519071 0
465 1 0.2375 0.490965 0
467 1 0.260855 0.502321 0
466 1 0.240205 0.514686 0
438 1 0.281823 0.48839 0
469 1 0.30677 0.498601 0
468 1 0.284621 0.511617 0
440 1 0.327052 0.484179 0
442 1 0.351656 0.49011 0
471 1 0.332774 0.507545 0
473 1 0.35826 0.514277 0
445 1 0.395502 0.480354 0
444 1 0.37789 0.497557 0
475 1 0.401492 0.504577 0
446 1 0.419238 0.486169 0
477 1 0.425727 0.510408 0
448 1 0.442475 0.492839 0
478 1 0.449222 0.518099 0
450 1 0.484276 0.48137 0
479 1 0.466888 0.499617 0
1381 1 0.490697 0.505441 0
483 1 0.0233845 0.538718 0
482 1 0.00327893 0.553054 0
485 1 0.0436163 0.525198 0
452 1 0.000460615 0.528349 0
513 1 0.026601 0.56431 0
484 1 0.0466079 0.550002 0
486 1 0.0661644 0.53512 0
515 1 0.0707322 0.560349 0
517 1 0.0897063 0.544908 0
488 1 0.110362 0.529874 0
519 1 0.113283 0.554784 0
490 1 0.134988 0.539806 0
520 1 0.135913 0.564429 0
491 1 0.154195 0.52422 0
521 1 0.157098 0.549925 0
492 1 0.177305 0.535576 0
523 1 0.180319 0.56027 0
494 1 0.200785 0.544631 0
495 1 0.220198 0.529379 0
525 1 0.222647 0.556201 0
496 1 0.24224 0.540754 0
497 1 0.262472 0.526114 0
527 1 0.263999 0.551308 0
499 1 0.305499 0.545084 0
498 1 0.284066 0.536216 0
529 1 0.287035 0.560502 0
470 1 0.312784 0.522134 0
472 1 0.340643 0.530991 0
501 1 0.327725 0.552895 0
502 1 0.350196 0.559612 0
474 1 0.38285 0.522792 0
503 1 0.365262 0.53983 0
505 1 0.39041 0.547743 0
476 1 0.408085 0.530095 0
506 1 0.414699 0.55499 0
507 1 0.431344 0.536036 0
508 1 0.438247 0.560854 0
509 1 0.45552 0.542369 0
480 1 0.47372 0.523389 0
510 1 0.480227 0.547929 0
1382 1 0.497547 0.530667 0
512 1 0.0295195 0.588799 0
511 1 0.00638676 0.578394 0
541 1 0.00858166 0.602565 0
514 1 0.0503173 0.574452 0
545 1 0.0741131 0.585244 0
543 1 0.05229 0.598953 0
516 1 0.093669 0.569289 0
518 1 0.116817 0.579738 0
547 1 0.097223 0.594914 0
548 1 0.119211 0.605016 0
549 1 0.139503 0.58919 0
522 1 0.159333 0.574912 0
551 1 0.162478 0.599318 0
553 1 0.18237 0.585104 0
524 1 0.202434 0.570135 0
554 1 0.204588 0.59599 0
555 1 0.22523 0.581421 0
556 1 0.228207 0.606525 0
526 1 0.244632 0.566576 0
557 1 0.2487 0.592036 0
528 1 0.268644 0.576154 0
558 1 0.272287 0.601051 0
500 1 0.309023 0.570052 0
559 1 0.290718 0.585489 0
530 1 0.31362 0.594859 0
531 1 0.332715 0.577008 0
532 1 0.337356 0.601693 0
533 1 0.356096 0.583838 0
563 1 0.361356 0.608504 0
504 1 0.37363 0.565207 0
534 1 0.380349 0.589895 0
535 1 0.397236 0.572918 0
536 1 0.40356 0.597511 0
537 1 0.421033 0.579764 0
567 1 0.427209 0.603525 0
538 1 0.444445 0.585 0
539 1 0.462221 0.566465 0
540 1 0.487032 0.573209 0
569 1 0.468886 0.591113 0
1441 1 0.492317 0.598738 0
542 1 0.0310959 0.612972 0
571 1 0.0106998 0.627614 0
573 1 0.034572 0.637444 0
546 1 0.0761749 0.609252 0
544 1 0.0547298 0.62323 0
575 1 0.0782333 0.633969 0
574 1 0.0575861 0.648061 0
577 1 0.0999167 0.620239 0
579 1 0.122892 0.629793 0
576 1 0.101772 0.644842 0
550 1 0.142691 0.61475 0
581 1 0.165288 0.624446 0
580 1 0.145893 0.640219 0
611 1 0.168175 0.650261 0
552 1 0.185381 0.610887 0
582 1 0.188624 0.635779 0
583 1 0.209306 0.621667 0
584 1 0.212875 0.645722 0
585 1 0.233025 0.630894 0
586 1 0.256686 0.641495 0
587 1 0.252231 0.616416 0
560 1 0.295382 0.610446 0
589 1 0.276762 0.626308 0
590 1 0.300039 0.635704 0
561 1 0.318385 0.619435 0
562 1 0.343116 0.62635 0
591 1 0.324371 0.643815 0
593 1 0.348923 0.650183 0
565 1 0.386223 0.614827 0
564 1 0.367868 0.632124 0
595 1 0.391825 0.638989 0
568 1 0.451325 0.608771 0
566 1 0.410324 0.622237 0
596 1 0.415539 0.646775 0
597 1 0.433966 0.627594 0
570 1 0.474326 0.615882 0
600 1 0.457464 0.633808 0
1471 1 0.481832 0.639849 0
1442 1 0.499176 0.62224 0
572 1 0.0149082 0.652792 0
602 1 0.0175488 0.677811 0
603 1 0.0375704 0.662818 0
633 1 0.0392113 0.688009 0
605 1 0.0800885 0.659474 0
604 1 0.0601469 0.673218 0
606 1 0.082955 0.683875 0
578 1 0.125397 0.655167 0
607 1 0.10439 0.669773 0
608 1 0.126982 0.680367 0
609 1 0.147361 0.666307 0
610 1 0.170565 0.675309 0
639 1 0.149698 0.691908 0
612 1 0.192252 0.68626 0
613 1 0.192059 0.660473 0
614 1 0.216047 0.67051 0
643 1 0.214242 0.696407 0
615 1 0.236417 0.655775 0
616 1 0.237737 0.681205 0
617 1 0.259574 0.666852 0
647 1 0.263363 0.690897 0
588 1 0.281227 0.652364 0
619 1 0.305897 0.660908 0
618 1 0.287841 0.677559 0
620 1 0.314652 0.684175 0
621 1 0.331335 0.66657 0
592 1 0.356501 0.673963 0
622 1 0.338721 0.691639 0
594 1 0.37461 0.655685 0
625 1 0.398528 0.664096 0
623 1 0.380956 0.680774 0
626 1 0.404732 0.688338 0
599 1 0.44018 0.651796 0
598 1 0.44727 0.676743 0
627 1 0.422485 0.670696 0
657 1 0.430138 0.694174 0
628 1 0.471701 0.682031 0
629 1 0.464989 0.658065 0
1501 1 0.48935 0.664169 0
630 1 0.495386 0.689044 0
632 1 0.0192735 0.702621 0
663 1 0.021938 0.729031 0
634 1 0.0414167 0.714058 0
635 1 0.0624932 0.69951 0
636 1 0.0861131 0.709797 0
665 1 0.0642369 0.724721 0
666 1 0.0877071 0.734627 0
637 1 0.106167 0.694751 0
638 1 0.128995 0.705867 0
667 1 0.108206 0.721095 0
669 1 0.13054 0.731916 0
641 1 0.172208 0.701556 0
640 1 0.151049 0.717062 0
671 1 0.174618 0.72673 0
642 1 0.194463 0.711326 0
673 1 0.19686 0.737781 0
644 1 0.216594 0.721952 0
645 1 0.235531 0.706699 0
675 1 0.239232 0.732687 0
646 1 0.258478 0.715305 0
649 1 0.297375 0.701646 0
648 1 0.281631 0.721916 0
679 1 0.305084 0.72814 0
650 1 0.321476 0.708325 0
651 1 0.345186 0.715498 0
681 1 0.328847 0.734141 0
653 1 0.363089 0.698699 0
624 1 0.38815 0.70577 0
654 1 0.370124 0.722393 0
685 1 0.394538 0.729802 0
655 1 0.412186 0.71188 0
656 1 0.436946 0.718089 0
686 1 0.419502 0.734846 0
658 1 0.453492 0.701038 0
687 1 0.461521 0.725424 0
659 1 0.478258 0.706726 0
689 1 0.485813 0.731235 0
662 1 0.0240643 0.754351 0
693 1 0.0264323 0.780368 0
691 1 0.00383332 0.768383 0
661 1 0.00144509 0.743745 0
664 1 0.0439021 0.739394 0
694 1 0.0470171 0.764351 0
695 1 0.0674463 0.749746 0
696 1 0.0700995 0.77439 0
697 1 0.0908432 0.759803 0
668 1 0.110609 0.745417 0
698 1 0.114035 0.770692 0
699 1 0.134682 0.756302 0
700 1 0.137465 0.780399 0
670 1 0.15465 0.741801 0
701 1 0.156935 0.766634 0
672 1 0.177545 0.752383 0
702 1 0.181196 0.777019 0
674 1 0.220313 0.748115 0
703 1 0.200643 0.763899 0
705 1 0.225011 0.772962 0
677 1 0.262895 0.739418 0
676 1 0.243685 0.757358 0
707 1 0.268206 0.763357 0
735 1 0.249092 0.781868 0
678 1 0.28651 0.745951 0
709 1 0.292392 0.769262 0
680 1 0.310856 0.753203 0
710 1 0.317639 0.776976 0
652 1 0.352944 0.741 0
682 1 0.358657 0.764304 0
711 1 0.335378 0.758536 0
683 1 0.377715 0.747825 0
713 1 0.38421 0.771183 0
684 1 0.402911 0.753622 0
716 1 0.407979 0.778367 0
717 1 0.443893 0.742859 0
715 1 0.426214 0.760377 0
718 1 0.450506 0.767183 0
1591 1 0.499575 0.77958 0
690 1 0.492731 0.755436 0
688 1 0.468209 0.749314 0
719 1 0.475022 0.773429 0
692 1 0.00549661 0.794675 0
722 1 0.00425153 0.820851 0
723 1 0.0287444 0.80698 0
725 1 0.0497184 0.788777 0
726 1 0.0718625 0.799568 0
755 1 0.0691913 0.824203 0
727 1 0.0930943 0.785811 0
728 1 0.116015 0.796662 0
757 1 0.0931775 0.812833 0
729 1 0.139375 0.80379 0
730 1 0.161855 0.81664 0
731 1 0.161278 0.791475 0
704 1 0.203855 0.788726 0
732 1 0.183813 0.804685 0
763 1 0.206192 0.816971 0
734 1 0.231292 0.821336 0
733 1 0.228509 0.797054 0
736 1 0.253524 0.806763 0
706 1 0.27446 0.787587 0
737 1 0.283062 0.811465 0
708 1 0.300275 0.793815 0
738 1 0.306211 0.818581 0
741 1 0.341649 0.782949 0
739 1 0.324697 0.801511 0
742 1 0.34811 0.807191 0
740 1 0.331025 0.825029 0
712 1 0.36582 0.788223 0
714 1 0.389382 0.795341 0
743 1 0.372628 0.813231 0
745 1 0.396009 0.82043 0
746 1 0.41332 0.802513 0
747 1 0.432482 0.784092 0
748 1 0.437927 0.80873 0
749 1 0.456888 0.791631 0
720 1 0.481262 0.796911 0
750 1 0.462904 0.815711 0
1621 1 0.487978 0.822358 0
753 1 0.0223514 0.840111 0
783 1 0.0181293 0.865206 0
754 1 0.0423555 0.856299 0
724 1 0.0459487 0.830232 0
785 1 0.0655094 0.84791 0
786 1 0.0844003 0.864495 0
756 1 0.0893768 0.839649 0
758 1 0.113068 0.831385 0
787 1 0.108251 0.85671 0
789 1 0.13231 0.850218 0
759 1 0.138451 0.827115 0
760 1 0.158552 0.841698 0
791 1 0.173801 0.860114 0
790 1 0.150168 0.866588 0
761 1 0.184484 0.8305 0
762 1 0.196942 0.852793 0
764 1 0.221113 0.844895 0
765 1 0.246992 0.841648 0
795 1 0.238949 0.863737 0
766 1 0.2693 0.85335 0
767 1 0.266586 0.828436 0
769 1 0.312934 0.842828 0
768 1 0.289257 0.836632 0
799 1 0.29651 0.860519 0
770 1 0.337462 0.848767 0
771 1 0.355279 0.831352 0
773 1 0.360276 0.856034 0
801 1 0.320267 0.866614 0
744 1 0.378042 0.839615 0
774 1 0.385536 0.862562 0
775 1 0.403167 0.844676 0
777 1 0.41991 0.826041 0
807 1 0.427426 0.850686 0
778 1 0.445228 0.8333 0
809 1 0.451926 0.858169 0
779 1 0.469242 0.840025 0
780 1 0.476514 0.865143 0
1651 1 0.493707 0.847037 0
812 1 0.0131148 0.890038 0
814 1 0.0313759 0.90573 0
813 1 0.037158 0.881454 0
784 1 0.0607651 0.872628 0
815 1 0.0551008 0.897385 0
816 1 0.0788083 0.889392 0
788 1 0.12535 0.874833 0
817 1 0.102459 0.88106 0
819 1 0.120351 0.897931 0
818 1 0.096487 0.905953 0
821 1 0.167815 0.884235 0
820 1 0.144386 0.891319 0
851 1 0.161901 0.908954 0
793 1 0.215637 0.870539 0
792 1 0.191765 0.877679 0
823 1 0.209513 0.894894 0
822 1 0.185202 0.902001 0
794 1 0.233595 0.888377 0
796 1 0.256518 0.880705 0
827 1 0.25372 0.904978 0
825 1 0.22871 0.911613 0
797 1 0.279944 0.876985 0
798 1 0.284528 0.901374 0
800 1 0.303239 0.884684 0
829 1 0.307634 0.910115 0
831 1 0.326469 0.892357 0
772 1 0.34375 0.875389 0
802 1 0.350588 0.899513 0
803 1 0.367689 0.880602 0
804 1 0.374349 0.906198 0
805 1 0.390564 0.887476 0
835 1 0.397978 0.913091 0
776 1 0.409341 0.869639 0
806 1 0.415887 0.894717 0
808 1 0.434079 0.877512 0
839 1 0.439725 0.901897 0
1681 1 0.482928 0.890231 0
810 1 0.458378 0.884099 0
840 1 0.463797 0.907731 0
1652 1 0.50054 0.87118 0
843 1 0.00702897 0.914591 0
842 1 0.00250901 0.939225 0
844 1 0.0256649 0.931216 0
873 1 0.0202455 0.956342 0
875 1 0.0436248 0.947914 0
845 1 0.0492876 0.92259 0
846 1 0.066744 0.940459 0
847 1 0.0731673 0.91521 0
848 1 0.0910442 0.932144 0
849 1 0.114787 0.923779 0
879 1 0.11063 0.949075 0
881 1 0.133781 0.94085 0
850 1 0.138237 0.916438 0
852 1 0.156946 0.934284 0
883 1 0.175295 0.951403 0
853 1 0.180324 0.926633 0
824 1 0.204475 0.92041 0
854 1 0.198817 0.943816 0
855 1 0.223894 0.936475 0
826 1 0.247089 0.928154 0
857 1 0.267861 0.945782 0
856 1 0.242681 0.953072 0
828 1 0.271419 0.921243 0
859 1 0.29085 0.937465 0
830 1 0.314801 0.93505 0
833 1 0.356667 0.923516 0
832 1 0.332524 0.917477 0
861 1 0.338454 0.941951 0
863 1 0.362112 0.94812 0
834 1 0.37972 0.929826 0
865 1 0.404447 0.936723 0
864 1 0.385922 0.954495 0
837 1 0.421674 0.919476 0
836 1 0.428321 0.94358 0
838 1 0.447038 0.926379 0
870 1 0.452502 0.950544 0
869 1 0.470916 0.932754 0
1711 1 0.488559 0.915253 0
1712 1 0.495892 0.938574 0
3 1 0.0340674 0.998644 0
872 1 0.0160512 0.981152 0
874 1 0.0391251 0.973282 0
5 1 0.0574351 0.98992 0
876 1 0.0630415 0.965823 0
7 1 0.0810968 0.981842 0
877 1 0.0873972 0.956103 0
8 1 0.0993325 0.999614 0
9 1 0.122969 0.990966 0
878 1 0.104522 0.974564 0
880 1 0.128634 0.966661 0
11 1 0.146765 0.983265 0
882 1 0.152036 0.958508 0
13 1 0.170798 0.975833 0
12 1 0.188904 0.992857 0
15 1 0.212604 0.985261 0
884 1 0.194214 0.968677 0
885 1 0.218059 0.961281 0
17 1 0.256758 0.994154 0
887 1 0.237547 0.977338 0
888 1 0.261395 0.969312 0
858 1 0.286164 0.962308 0
19 1 0.281373 0.987036 0
889 1 0.303933 0.978427 0
860 1 0.319512 0.958569 0
862 1 0.344102 0.966392 0
891 1 0.327904 0.983481 0
892 1 0.352457 0.990566 0
23 1 0.376278 0.996584 0
893 1 0.369175 0.972105 0
895 1 0.393319 0.979079 0
896 1 0.417636 0.985794 0
866 1 0.40969 0.960868 0
867 1 0.434715 0.967444 0
897 1 0.442301 0.992402 0
1771 1 0.483841 0.98181 0
899 1 0.466628 0.998778 0
868 1 0.459511 0.974507 0
1741 1 0.478077 0.956649 0
931 1 0.522952 0.0363089 0
901 1 0.515481 0.012268 0
902 1 0.539896 0.0175943 0
904 1 0.564041 0.0237268 0
906 1 0.58078 0.00598295 0
935 1 0.588105 0.0302839 0
933 1 0.546719 0.0430038 0
908 1 0.603981 0.0120732 0
939 1 0.627172 0.0203744 0
937 1 0.611151 0.0386206 0
910 1 0.644812 0.00219149 0
941 1 0.651662 0.0267345 0
912 1 0.669385 0.00893136 0
942 1 0.676075 0.0328442 0
943 1 0.692857 0.0151068 0
945 1 0.717158 0.021272 0
944 1 0.701444 0.0401957 0
914 1 0.741611 0.0237548 0
916 1 0.763587 0.0148749 0
947 1 0.759448 0.0397556 0
918 1 0.783097 0.0318244 0
919 1 0.805847 0.0236734 0
917 1 0.786688 0.00695489 0
951 1 0.824373 0.0407877 0
920 1 0.829536 0.0163578 0
922 1 0.848293 0.0341489 0
921 1 0.852748 0.00892889 0
923 1 0.872141 0.0260946 0
924 1 0.896039 0.0193289 0
1792 1 0.87729 0.00188812 0
954 1 0.891015 0.0437148 0
955 1 0.914409 0.0364218 0
925 1 0.919368 0.0118805 0
926 1 0.937973 0.0281971 0
928 1 0.94497 0.00436779 0
930 1 0.987637 0.0136395 0
959 1 0.962791 0.0217127 0
960 1 0.981393 0.0379644 0
932 1 0.529426 0.0604251 0
961 1 0.511256 0.0781122 0
60 1 0.505157 0.0539812 0
962 1 0.536261 0.0847527 0
963 1 0.553069 0.066876 0
934 1 0.570231 0.0487038 0
965 1 0.577009 0.0729609 0
936 1 0.593971 0.056789 0
967 1 0.618108 0.0629339 0
966 1 0.601009 0.0807362 0
938 1 0.63519 0.0451497 0
969 1 0.642047 0.0695921 0
940 1 0.65975 0.0513822 0
970 1 0.666212 0.0760579 0
971 1 0.683752 0.0580004 0
973 1 0.70801 0.0643944 0
972 1 0.689647 0.0819983 0
975 1 0.726803 0.0456861 0
974 1 0.731476 0.0697749 0
946 1 0.754529 0.0638127 0
977 1 0.772142 0.0811288 0
949 1 0.801591 0.0487182 0
948 1 0.778367 0.0562362 0
979 1 0.795335 0.0742281 0
950 1 0.820099 0.0659327 0
980 1 0.838621 0.0827395 0
952 1 0.842787 0.0583714 0
981 1 0.862247 0.0758138 0
953 1 0.866789 0.0510609 0
983 1 0.885993 0.0679664 0
984 1 0.904583 0.0846661 0
985 1 0.909176 0.0602349 0
956 1 0.93244 0.0524059 0
986 1 0.928405 0.0782348 0
987 1 0.95082 0.0693554 0
957 1 0.956792 0.0451521 0
958 1 0.975513 0.0621554 0
989 1 0.994359 0.0792984 0
61 1 0.998977 0.0553319 0
991 1 0.517859 0.102517 0
993 1 0.541601 0.110256 0
120 1 0.500341 0.120724 0
992 1 0.523611 0.127838 0
964 1 0.559739 0.0910421 0
994 1 0.565846 0.116765 0
995 1 0.582929 0.098198 0
996 1 0.589808 0.12338 0
968 1 0.624952 0.0875338 0
997 1 0.607502 0.104948 0
998 1 0.631221 0.111271 0
1027 1 0.614604 0.129586 0
999 1 0.649162 0.0945905 0
1000 1 0.655456 0.11864 0
1001 1 0.673357 0.100193 0
1031 1 0.679617 0.124567 0
1002 1 0.698069 0.106032 0
1003 1 0.715092 0.0887792 0
1004 1 0.723005 0.112878 0
976 1 0.766733 0.104774 0
1005 1 0.742753 0.0941161 0
1035 1 0.747711 0.120573 0
978 1 0.815388 0.0914472 0
1007 1 0.79138 0.0981847 0
1006 1 0.783833 0.123619 0
1008 1 0.808882 0.1149 0
1009 1 0.833201 0.107196 0
1010 1 0.851435 0.123819 0
1011 1 0.856994 0.0997993 0
982 1 0.880425 0.0923037 0
1012 1 0.875582 0.116637 0
1013 1 0.899096 0.108608 0
1016 1 0.919252 0.125959 0
1017 1 0.947161 0.0939389 0
1015 1 0.924404 0.102204 0
1047 1 0.942727 0.118331 0
988 1 0.970711 0.0861721 0
1018 1 0.965875 0.111576 0
1019 1 0.989745 0.103705 0
1020 1 0.984655 0.127848 0
1022 1 0.531004 0.152947 0
1021 1 0.507316 0.145656 0
1051 1 0.514807 0.170784 0
1023 1 0.548708 0.13488 0
1024 1 0.554721 0.160235 0
1025 1 0.572161 0.141395 0
1055 1 0.579078 0.165678 0
1026 1 0.596174 0.146781 0
1028 1 0.620673 0.154592 0
1057 1 0.603969 0.172205 0
1029 1 0.637807 0.137699 0
1059 1 0.645767 0.161553 0
1030 1 0.662121 0.143224 0
1061 1 0.669846 0.16764 0
1032 1 0.686265 0.149136 0
1033 1 0.705143 0.131195 0
1063 1 0.710848 0.155349 0
1062 1 0.693139 0.174448 0
1034 1 0.7291 0.137543 0
1036 1 0.754235 0.145266 0
1065 1 0.735397 0.162307 0
1066 1 0.759698 0.168987 0
1067 1 0.779111 0.150108 0
1037 1 0.804991 0.139006 0
1038 1 0.800921 0.163361 0
1039 1 0.828273 0.13118 0
1040 1 0.824009 0.15636 0
1041 1 0.847677 0.149003 0
1071 1 0.842555 0.172904 0
1042 1 0.865966 0.165883 0
1014 1 0.895057 0.133582 0
1043 1 0.871373 0.14066 0
1044 1 0.889217 0.157907 0
1045 1 0.913722 0.149454 0
1046 1 0.937623 0.142877 0
1077 1 0.932249 0.166701 0
1048 1 0.955383 0.159589 0
1049 1 0.960489 0.135854 0
1050 1 0.979643 0.152117 0
151 1 0.99715 0.169201 0
1053 1 0.538325 0.177828 0
1052 1 0.521276 0.195288 0
1081 1 0.504375 0.213682 0
1083 1 0.545 0.201931 0
1054 1 0.562819 0.184014 0
1056 1 0.58686 0.190089 0
1085 1 0.569644 0.208383 0
1058 1 0.628031 0.178836 0
1087 1 0.611165 0.196606 0
1089 1 0.634639 0.204149 0
1086 1 0.593334 0.215185 0
1060 1 0.652167 0.186091 0
1091 1 0.676303 0.19303 0
1090 1 0.658885 0.211192 0
1093 1 0.700248 0.199428 0
1064 1 0.717097 0.180553 0
1094 1 0.724324 0.206751 0
1095 1 0.740556 0.187116 0
1097 1 0.764067 0.194202 0
1096 1 0.748804 0.213603 0
1069 1 0.819055 0.180973 0
1068 1 0.781981 0.177711 0
1098 1 0.788776 0.201511 0
1099 1 0.812776 0.204685 0
1070 1 0.836506 0.197655 0
1072 1 0.860706 0.190714 0
1101 1 0.854704 0.214884 0
1075 1 0.907752 0.174737 0
1073 1 0.884191 0.182594 0
1103 1 0.879064 0.207557 0
1074 1 0.902607 0.199491 0
1078 1 0.949898 0.184398 0
1076 1 0.9262 0.191884 0
1107 1 0.944066 0.207953 0
1105 1 0.920686 0.217275 0
1079 1 0.973749 0.177346 0
1109 1 0.967956 0.201382 0
181 1 0.991638 0.194665 0
1082 1 0.528604 0.219999 0
1111 1 0.511903 0.23838 0
1113 1 0.535535 0.244955 0
1084 1 0.552372 0.226331 0
1114 1 0.559499 0.251322 0
1115 1 0.576478 0.232587 0
1116 1 0.583518 0.257723 0
1088 1 0.617254 0.222202 0
1117 1 0.600523 0.240159 0
1118 1 0.624967 0.247283 0
1119 1 0.641723 0.229081 0
1121 1 0.665817 0.235925 0
1120 1 0.648459 0.253621 0
1151 1 0.672405 0.260296 0
1092 1 0.683638 0.218471 0
1122 1 0.689581 0.242626 0
1123 1 0.707644 0.225617 0
1124 1 0.713796 0.249413 0
1125 1 0.731315 0.231814 0
1126 1 0.755464 0.237457 0
1155 1 0.738272 0.256133 0
1127 1 0.773384 0.219808 0
1129 1 0.798849 0.225806 0
1128 1 0.779681 0.243327 0
1159 1 0.80216 0.251707 0
1100 1 0.828886 0.223059 0
1130 1 0.825915 0.246913 0
1131 1 0.848782 0.239861 0
1132 1 0.86644 0.258535 0
1102 1 0.872596 0.232712 0
1104 1 0.896231 0.225617 0
1133 1 0.890227 0.250638 0
1135 1 0.914245 0.242312 0
1136 1 0.933245 0.258314 0
1106 1 0.937958 0.234374 0
1110 1 0.985505 0.218379 0
1137 1 0.957474 0.250927 0
1108 1 0.961509 0.225644 0
1139 1 0.980949 0.242341 0
1169 1 0.998912 0.25992 0