ITEM: TIMESTEP
12000
ITEM: NUMBER OF ATOMS
1800
ITEM: BOX BOUNDS pp pp pp
-3.8583326650166327e-01 1.6538583326650399e+02
-3.8583326650166327e-01 1.6538583326650399e+02
0.0000000000000000e+00 5.5000000000000000e+00
ITEM: ATOMS id type xs ys zs
2 1 0.0174794 0.013791 0
3 1 0.0407285 0.00697096 0
33 1 0.0337216 0.0303337 0
31 1 0.00897688 0.0374126 0
4 1 0.058065 0.0242816 0
5 1 0.0636412 0.000520567 0
6 1 0.0829875 0.0170392 0
35 1 0.0757445 0.0410901 0
8 1 0.107474 0.013917 0
37 1 0.0994544 0.0362756 0
9 1 0.127819 0.00238325 0
39 1 0.127551 0.028347 0
10 1 0.149541 0.014093 0
11 1 0.169554 0.999717 0
41 1 0.170771 0.024122 0
40 1 0.151523 0.0388968 0
12 1 0.192746 0.00948172 0
43 1 0.192242 0.0352212 0
14 1 0.213287 0.0238201 0
45 1 0.23635 0.0217769 0
16 1 0.260186 0.0177964 0
46 1 0.252317 0.0402966 0
47 1 0.277118 0.0377942 0
18 1 0.285795 0.0133364 0
20 1 0.30976 0.00842982 0
49 1 0.302624 0.0317196 0
51 1 0.32621 0.0283254 0
22 1 0.354024 0.0267933 0
21 1 0.335075 0.00413103 0
23 1 0.360352 0.999086 0
24 1 0.378609 0.0152928 0
25 1 0.402588 0.00859803 0
55 1 0.39942 0.0323421 0
53 1 0.373919 0.0400042 0
26 1 0.423722 0.0268351 0
27 1 0.427216 0.00309329 0
898 1 0.451332 0.00337055 0
28 1 0.454107 0.0309485 0
29 1 0.474719 0.0148736 0
30 1 0.49914 0.0231743 0
59 1 0.479552 0.0392492 0
900 1 0.495675 -0.000495668 0
32 1 0.0262384 0.0536274 0
62 1 0.0206686 0.0754027 0
63 1 0.0453098 0.0707751 0
61 1 0.00280214 0.0604152 0
34 1 0.0502941 0.0475367 0
65 1 0.0679818 0.0650989 0
66 1 0.0829859 0.0844103 0
36 1 0.0918463 0.0604466 0
38 1 0.119105 0.0531412 0
67 1 0.107079 0.0793128 0
69 1 0.131262 0.0747398 0
71 1 0.155259 0.0678956 0
42 1 0.173995 0.0529261 0
72 1 0.178135 0.0765959 0
44 1 0.222509 0.0457994 0
73 1 0.197628 0.0597133 0
74 1 0.221017 0.0699151 0
103 1 0.203269 0.0848123 0
75 1 0.24297 0.0612385 0
77 1 0.268284 0.0625513 0
76 1 0.242605 0.0848404 0
48 1 0.292869 0.0567391 0
78 1 0.285768 0.0797489 0
50 1 0.316744 0.0515243 0
79 1 0.310149 0.0748022 0
81 1 0.334061 0.067741 0
52 1 0.351875 0.0507161 0
82 1 0.355881 0.0795907 0
83 1 0.373549 0.064022 0
54 1 0.398988 0.0642587 0
57 1 0.442423 0.0541569 0
85 1 0.426467 0.0716643 0
56 1 0.41784 0.0498853 0
87 1 0.449827 0.0780666 0
58 1 0.467063 0.0610327 0
89 1 0.491759 0.0691354 0
88 1 0.472161 0.0848741 0
92 1 0.0249891 0.121207 0
93 1 0.0351926 0.0952149 0
91 1 0.00518776 0.108094 0
94 1 0.0502321 0.115025 0
64 1 0.0596076 0.0911971 0
95 1 0.0758598 0.108483 0
68 1 0.123904 0.0983877 0
97 1 0.0990993 0.102392 0
98 1 0.113811 0.121416 0
96 1 0.0906177 0.127554 0
99 1 0.137945 0.118318 0
70 1 0.148041 0.0912724 0
100 1 0.161558 0.112692 0
101 1 0.182763 0.100579 0
131 1 0.180923 0.125003 0
102 1 0.203496 0.11173 0
105 1 0.222984 0.0981069 0
104 1 0.225084 0.123501 0
106 1 0.243814 0.109693 0
107 1 0.265751 0.094108 0
137 1 0.265802 0.11765 0
108 1 0.289418 0.124841 0
109 1 0.301381 0.103206 0
80 1 0.332967 0.0931196 0
110 1 0.32969 0.118602 0
111 1 0.360041 0.10316 0
141 1 0.352229 0.126629 0
84 1 0.406615 0.0896732 0
112 1 0.383002 0.113599 0
113 1 0.381489 0.088978 0
114 1 0.399953 0.130965 0
115 1 0.416581 0.113074 0
86 1 0.433974 0.0957187 0
116 1 0.439564 0.119539 0
117 1 0.456312 0.102852 0
118 1 0.463249 0.126783 0
90 1 0.49609 0.0927625 0
119 1 0.480451 0.109882 0
122 1 0.0170304 0.14758 0
123 1 0.0404398 0.140833 0
153 1 0.0339276 0.164295 0
124 1 0.0589026 0.158329 0
125 1 0.0651329 0.133385 0
126 1 0.0821431 0.15252 0
127 1 0.106809 0.146967 0
128 1 0.123447 0.16362 0
129 1 0.130583 0.139577 0
157 1 0.101028 0.170009 0
159 1 0.147197 0.157682 0
130 1 0.159437 0.137025 0
132 1 0.179825 0.152542 0
161 1 0.164425 0.173224 0
133 1 0.201961 0.137864 0
163 1 0.206747 0.161583 0
134 1 0.225867 0.149354 0
164 1 0.229944 0.1747 0
135 1 0.246507 0.133155 0
136 1 0.269098 0.141181 0
165 1 0.249972 0.156915 0
167 1 0.273031 0.166997 0
138 1 0.290992 0.150083 0
139 1 0.31253 0.133843 0
169 1 0.312878 0.158222 0
140 1 0.33359 0.144147 0
142 1 0.356572 0.150737 0
171 1 0.338052 0.167883 0
143 1 0.374571 0.135905 0
173 1 0.380726 0.158814 0
144 1 0.404962 0.153786 0
145 1 0.422897 0.137809 0
146 1 0.42876 0.161402 0
147 1 0.446188 0.144056 0
177 1 0.451979 0.168705 0
149 1 0.487295 0.133318 0
148 1 0.470235 0.150805 0
150 1 0.493121 0.159803 0
152 1 0.0107241 0.171422 0
183 1 0.0297767 0.188754 0
182 1 0.0231566 0.213006 0
184 1 0.0470807 0.206895 0
155 1 0.0753985 0.176993 0
154 1 0.0523868 0.181807 0
185 1 0.0714535 0.200794 0
156 1 0.0937979 0.193504 0
158 1 0.115946 0.188028 0
187 1 0.110089 0.211781 0
189 1 0.133131 0.20432 0
160 1 0.14092 0.180383 0
191 1 0.158076 0.196295 0
221 1 0.174243 0.214953 0
162 1 0.182889 0.188445 0
193 1 0.207385 0.185166 0
192 1 0.197457 0.207685 0
195 1 0.229151 0.20027 0
166 1 0.252721 0.182776 0
196 1 0.257895 0.207602 0
197 1 0.277758 0.192128 0
168 1 0.296478 0.175039 0
170 1 0.320139 0.184691 0
199 1 0.299973 0.200289 0
198 1 0.280481 0.216315 0
172 1 0.361882 0.175433 0
201 1 0.343623 0.192339 0
200 1 0.324334 0.20894 0
202 1 0.348345 0.215114 0
203 1 0.365905 0.199753 0
175 1 0.40892 0.17761 0
174 1 0.384871 0.182765 0
204 1 0.391641 0.206836 0
205 1 0.414558 0.200897 0
176 1 0.432822 0.185912 0
207 1 0.439242 0.209262 0
178 1 0.456511 0.191562 0
179 1 0.474255 0.175937 0
180 1 0.497018 0.183632 0
209 1 0.480761 0.200047 0
208 1 0.461904 0.215735 0
213 1 0.0400284 0.231865 0
212 1 0.0165403 0.237633 0
243 1 0.0323395 0.254892 0
899 1 0.473039 0.990634 0
186 1 0.0878813 0.218313 0
215 1 0.063675 0.225441 0
216 1 0.0809371 0.242178 0
214 1 0.0571569 0.249341 0
188 1 0.12851 0.228476 0
217 1 0.105536 0.235533 0
218 1 0.12147 0.254025 0
219 1 0.145683 0.245494 0
190 1 0.151891 0.220232 0
220 1 0.169495 0.239294 0
222 1 0.185547 0.25655 0
223 1 0.192196 0.232973 0
194 1 0.215461 0.222205 0
224 1 0.222976 0.246919 0
225 1 0.238965 0.224203 0
227 1 0.260926 0.235744 0
226 1 0.246471 0.254244 0
257 1 0.271291 0.25829 0
228 1 0.287649 0.239525 0
229 1 0.306684 0.225066 0
230 1 0.310632 0.24906 0
231 1 0.329287 0.232241 0
232 1 0.353097 0.237329 0
261 1 0.335049 0.256467 0
233 1 0.372112 0.221887 0
234 1 0.375906 0.245395 0
235 1 0.395229 0.230391 0
265 1 0.400374 0.253166 0
236 1 0.424567 0.250838 0
206 1 0.419107 0.226108 0
237 1 0.443649 0.23307 0
238 1 0.448692 0.258036 0
210 1 0.484404 0.225087 0
239 1 0.466391 0.239602 0
240 1 0.489724 0.250033 0
242 1 0.0231629 0.279177 0
241 1 0.00732786 0.259574 0
271 1 0.0147743 0.303659 0
273 1 0.0402804 0.295658 0
245 1 0.0738236 0.266247 0
244 1 0.0495522 0.272617 0
275 1 0.067316 0.288778 0
246 1 0.0904641 0.284121 0
247 1 0.0975266 0.259069 0
248 1 0.113864 0.279448 0
277 1 0.106318 0.303745 0
279 1 0.133284 0.294602 0
249 1 0.140031 0.268983 0
250 1 0.156511 0.285822 0
251 1 0.163116 0.263352 0
252 1 0.181513 0.281149 0
253 1 0.208918 0.267048 0
254 1 0.214532 0.290283 0
255 1 0.23205 0.272177 0
256 1 0.254814 0.278269 0
285 1 0.236827 0.296683 0
287 1 0.261412 0.301599 0
258 1 0.277942 0.283543 0
259 1 0.294063 0.266071 0
260 1 0.318472 0.273676 0
289 1 0.301634 0.28954 0
262 1 0.342957 0.280351 0
263 1 0.357806 0.261238 0
291 1 0.325455 0.296944 0
292 1 0.349583 0.30289 0
264 1 0.381337 0.268361 0
293 1 0.366381 0.286197 0
295 1 0.388767 0.292017 0
266 1 0.407779 0.275035 0
267 1 0.431707 0.276605 0
297 1 0.418214 0.297646 0
268 1 0.454279 0.280994 0
1141 1 0.49519 0.274526 0
269 1 0.472325 0.26521 0
270 1 0.477246 0.289393 0
1771 1 0.492085 0.975245 0
272 1 0.0343458 0.317872 0
301 1 0.0140025 0.330679 0
303 1 0.0350734 0.341723 0
276 1 0.0823734 0.306202 0
274 1 0.0576911 0.311276 0
305 1 0.0744687 0.328297 0
278 1 0.124054 0.319776 0
307 1 0.100625 0.328282 0
309 1 0.137961 0.337927 0
280 1 0.14891 0.312649 0
311 1 0.161603 0.33443 0
281 1 0.17156 0.304892 0
282 1 0.182978 0.32549 0
283 1 0.196343 0.305519 0
284 1 0.220442 0.314177 0
313 1 0.203917 0.33598 0
315 1 0.227357 0.338587 0
286 1 0.244529 0.320402 0
317 1 0.268577 0.325894 0
316 1 0.250359 0.345683 0
288 1 0.284512 0.307315 0
290 1 0.308182 0.31536 0
319 1 0.292367 0.334557 0
321 1 0.32907 0.326844 0
322 1 0.344502 0.34889 0
323 1 0.352908 0.326568 0
294 1 0.374208 0.312806 0
325 1 0.395183 0.335878 0
324 1 0.371165 0.342633 0
296 1 0.399923 0.312636 0
298 1 0.435043 0.315381 0
327 1 0.419265 0.333344 0
299 1 0.457562 0.306727 0
300 1 0.48158 0.313213 0
329 1 0.457628 0.330189 0
1201 1 0.486056 0.33678 0
302 1 0.0152259 0.355168 0
333 1 0.0421702 0.365467 0
332 1 0.0229829 0.379636 0
304 1 0.0599313 0.347579 0
306 1 0.0844577 0.350016 0
335 1 0.0659778 0.370777 0
334 1 0.0474564 0.389375 0
337 1 0.0897316 0.374865 0
308 1 0.109244 0.353095 0
339 1 0.131704 0.362504 0
338 1 0.113742 0.377817 0
310 1 0.155976 0.357206 0
340 1 0.138443 0.386356 0
341 1 0.164668 0.381167 0
312 1 0.182629 0.350968 0
343 1 0.188868 0.374833 0
314 1 0.208267 0.360966 0
344 1 0.20851 0.389052 0
345 1 0.232518 0.361064 0
347 1 0.258801 0.368595 0
346 1 0.237819 0.383568 0
318 1 0.273835 0.35089 0
349 1 0.296717 0.35865 0
348 1 0.284761 0.382856 0
350 1 0.310799 0.378244 0
320 1 0.320574 0.352672 0
351 1 0.335125 0.371336 0
352 1 0.352798 0.389796 0
353 1 0.361146 0.367006 0
355 1 0.386082 0.36129 0
354 1 0.37852 0.384608 0
356 1 0.402095 0.378031 0
328 1 0.436946 0.348686 0
326 1 0.410679 0.356097 0
357 1 0.426812 0.372392 0
359 1 0.451346 0.368418 0
358 1 0.443407 0.391227 0
330 1 0.469122 0.352916 0
1231 1 0.492385 0.361299 0
360 1 0.474999 0.377107 0
1232 1 0.498162 0.385805 0
363 1 0.0279809 0.402735 0
361 1 0.00357358 0.396615 0
362 1 0.0130149 0.422949 0
364 1 0.0364655 0.425407 0
336 1 0.0715666 0.39339 0
365 1 0.0582602 0.413118 0
366 1 0.0828423 0.419133 0
367 1 0.0952947 0.397922 0
369 1 0.118581 0.402346 0
368 1 0.113673 0.425956 0
370 1 0.138199 0.416161 0
371 1 0.158907 0.404057 0
401 1 0.159852 0.427678 0
342 1 0.184139 0.399071 0
372 1 0.18357 0.425195 0
373 1 0.205306 0.41385 0
375 1 0.227894 0.405418 0
374 1 0.226976 0.428392 0
377 1 0.25981 0.391691 0
376 1 0.251026 0.418759 0
407 1 0.271518 0.432794 0
378 1 0.278809 0.407639 0
379 1 0.304011 0.401885 0
409 1 0.295649 0.42585 0
381 1 0.329771 0.395938 0
382 1 0.347072 0.413672 0
380 1 0.321882 0.41931 0
413 1 0.364483 0.430689 0
383 1 0.37055 0.407513 0
385 1 0.394697 0.402018 0
384 1 0.387293 0.425563 0
387 1 0.417851 0.394876 0
388 1 0.434387 0.41383 0
386 1 0.411031 0.418973 0
419 1 0.452635 0.433414 0
389 1 0.457786 0.410106 0
1261 1 0.479433 0.400839 0
390 1 0.477347 0.424599 0
1291 1 0.49973 0.433954 0
393 1 0.0216909 0.444982 0
423 1 0.030416 0.468044 0
422 1 0.00844783 0.480407 0
395 1 0.0668522 0.436553 0
394 1 0.0475106 0.45112 0
396 1 0.0713588 0.459464 0
425 1 0.055202 0.478759 0
397 1 0.0920889 0.444375 0
398 1 0.115367 0.452955 0
427 1 0.0954135 0.469455 0
399 1 0.137227 0.439907 0
428 1 0.118903 0.479478 0
400 1 0.158695 0.452078 0
429 1 0.138322 0.465368 0
431 1 0.16899 0.473749 0
403 1 0.205403 0.439176 0
402 1 0.18416 0.450602 0
404 1 0.227953 0.452768 0
433 1 0.206877 0.463071 0
405 1 0.249831 0.442655 0
406 1 0.266487 0.458837 0
435 1 0.243797 0.469863 0
408 1 0.290296 0.450312 0
410 1 0.314151 0.443613 0
437 1 0.285149 0.472948 0
439 1 0.308391 0.467673 0
411 1 0.337556 0.436503 0
412 1 0.355422 0.454278 0
441 1 0.332023 0.461391 0
442 1 0.351292 0.477814 0
415 1 0.404329 0.443153 0
414 1 0.381294 0.450923 0
443 1 0.375499 0.474884 0
445 1 0.399531 0.468271 0
417 1 0.428353 0.436558 0
418 1 0.450164 0.457689 0
416 1 0.423777 0.459968 0
420 1 0.472558 0.448671 0
1321 1 0.496438 0.458324 0
449 1 0.468725 0.472569 0
453 1 0.0143846 0.504075 0
454 1 0.0361594 0.516211 0
424 1 0.0340826 0.491824 0
426 1 0.0783419 0.487812 0
455 1 0.0580857 0.503649 0
456 1 0.0824465 0.510964 0
457 1 0.100913 0.494442 0
459 1 0.128262 0.501538 0
458 1 0.109925 0.518533 0
430 1 0.149402 0.487354 0
461 1 0.172633 0.496635 0
460 1 0.15424 0.510727 0
462 1 0.178652 0.520031 0
432 1 0.191058 0.482355 0
434 1 0.21481 0.487419 0
463 1 0.197085 0.505159 0
464 1 0.221781 0.512695 0
436 1 0.26292 0.48514 0
465 1 0.239366 0.494272 0
466 1 0.251898 0.519294 0
467 1 0.273321 0.50754 0
438 1 0.29311 0.495197 0
468 1 0.293785 0.520446 0
469 1 0.313852 0.508942 0
440 1 0.326499 0.486189 0
470 1 0.335243 0.519546 0
471 1 0.34812 0.50111 0
444 1 0.393858 0.491999 0
473 1 0.373078 0.503326 0
474 1 0.393454 0.518869 0
447 1 0.442959 0.481885 0
475 1 0.413814 0.507764 0
446 1 0.418611 0.484854 0
477 1 0.438641 0.50685 0
448 1 0.463055 0.496693 0
450 1 0.4922 0.482612 0
479 1 0.484694 0.504675 0
478 1 0.461728 0.521661 0
452 1 0.0139887 0.527726 0
483 1 0.0337596 0.539663 0
482 1 0.0122833 0.551216 0
485 1 0.0569689 0.529136 0
484 1 0.050503 0.554996 0
486 1 0.072877 0.547614 0
487 1 0.093078 0.535837 0
488 1 0.116856 0.542949 0
517 1 0.0986419 0.558837 0
489 1 0.134529 0.525446 0
491 1 0.159443 0.533492 0
490 1 0.140729 0.548428 0
521 1 0.164359 0.557083 0
493 1 0.203906 0.528103 0
492 1 0.184421 0.542376 0
494 1 0.208875 0.551499 0
495 1 0.231672 0.5344 0
525 1 0.231546 0.560206 0
496 1 0.252362 0.545932 0
497 1 0.272744 0.531813 0
527 1 0.274309 0.556916 0
499 1 0.314221 0.533067 0
498 1 0.294823 0.545008 0
500 1 0.317897 0.557136 0
472 1 0.358329 0.525315 0
501 1 0.336998 0.543086 0
502 1 0.359303 0.553196 0
503 1 0.378333 0.538487 0
505 1 0.400618 0.546336 0
504 1 0.382199 0.563091 0
476 1 0.421182 0.530457 0
507 1 0.444329 0.541274 0
506 1 0.4244 0.555577 0
508 1 0.446819 0.564833 0
480 1 0.484754 0.533238 0
509 1 0.466486 0.549739 0
510 1 0.488498 0.558115 0
513 1 0.0287139 0.56791 0
512 1 0.0263835 0.592574 0
511 1 0.00533806 0.573944 0
543 1 0.0488832 0.606934 0
514 1 0.0480055 0.58224 0
515 1 0.0683653 0.569799 0
545 1 0.0695332 0.594155 0
516 1 0.0898975 0.580863 0
519 1 0.12067 0.566684 0
518 1 0.111853 0.588686 0
549 1 0.134407 0.594197 0
547 1 0.091167 0.605994 0
520 1 0.145426 0.571441 0
551 1 0.159709 0.603571 0
522 1 0.168271 0.581589 0
523 1 0.189239 0.566021 0
524 1 0.211201 0.575622 0
553 1 0.189744 0.589793 0
554 1 0.21114 0.602513 0
526 1 0.253638 0.570257 0
555 1 0.232583 0.585641 0
557 1 0.254446 0.595725 0
529 1 0.29761 0.568716 0
528 1 0.275445 0.580961 0
558 1 0.277722 0.607034 0
559 1 0.298163 0.593246 0
531 1 0.340525 0.56895 0
530 1 0.319813 0.5825 0
532 1 0.343442 0.593489 0
533 1 0.363148 0.578786 0
563 1 0.36584 0.604036 0
534 1 0.387207 0.587165 0
535 1 0.404808 0.570905 0
536 1 0.408994 0.595831 0
537 1 0.427986 0.58013 0
567 1 0.431657 0.604324 0
538 1 0.451022 0.588379 0
1441 1 0.496599 0.604597 0
539 1 0.470392 0.573566 0
540 1 0.491816 0.581764 0
569 1 0.474045 0.596787 0
541 1 0.00740469 0.60887 0
542 1 0.0284423 0.62097 0
571 1 0.0074392 0.633506 0
573 1 0.0293922 0.645779 0
544 1 0.0502363 0.631342 0
546 1 0.0701553 0.618831 0
575 1 0.0712887 0.643251 0
548 1 0.116652 0.611963 0
577 1 0.108636 0.634445 0
579 1 0.132159 0.640282 0
550 1 0.140146 0.618112 0
581 1 0.166731 0.629136 0
580 1 0.155877 0.651558 0
552 1 0.185966 0.613686 0
582 1 0.191286 0.637855 0
583 1 0.215606 0.626615 0
584 1 0.219955 0.651018 0
556 1 0.233638 0.612193 0
585 1 0.238573 0.63603 0
586 1 0.261645 0.644583 0
587 1 0.256827 0.619685 0
560 1 0.300529 0.616571 0
589 1 0.28039 0.630333 0
590 1 0.302239 0.639586 0
561 1 0.322628 0.605533 0
562 1 0.344495 0.619826 0
591 1 0.325628 0.633694 0
593 1 0.347883 0.64627 0
565 1 0.388072 0.612401 0
564 1 0.367169 0.628308 0
595 1 0.391255 0.636712 0
594 1 0.372975 0.6529 0
566 1 0.411498 0.619483 0
596 1 0.414034 0.645158 0
597 1 0.434012 0.630281 0
568 1 0.454379 0.61219 0
570 1 0.478139 0.620862 0
599 1 0.459591 0.63655 0
600 1 0.484451 0.644497 0
572 1 0.0102443 0.658716 0
602 1 0.0124977 0.683839 0
603 1 0.032982 0.671042 0
633 1 0.0360555 0.696146 0
574 1 0.0519589 0.657387 0
605 1 0.0742524 0.669141 0
604 1 0.0548901 0.682214 0
606 1 0.0775347 0.692455 0
576 1 0.0922663 0.653367 0
578 1 0.114536 0.659162 0
607 1 0.0968532 0.676483 0
608 1 0.120382 0.683553 0
609 1 0.137795 0.666609 0
611 1 0.178382 0.65605 0
610 1 0.162168 0.674146 0
639 1 0.142763 0.690478 0
612 1 0.184012 0.682617 0
613 1 0.201075 0.666185 0
614 1 0.224251 0.675116 0
643 1 0.206234 0.690847 0
615 1 0.242234 0.65875 0
616 1 0.245668 0.685063 0
617 1 0.264338 0.668031 0
647 1 0.269742 0.693446 0
588 1 0.284481 0.654152 0
619 1 0.308474 0.662302 0
618 1 0.288504 0.676842 0
620 1 0.312839 0.686378 0
621 1 0.332194 0.66322 0
592 1 0.354191 0.671771 0
622 1 0.337108 0.6892 0
625 1 0.398118 0.665307 0
623 1 0.377165 0.676287 0
626 1 0.411432 0.689836 0
598 1 0.443164 0.654883 0
627 1 0.422912 0.667714 0
657 1 0.4377 0.687348 0
628 1 0.461931 0.683547 0
629 1 0.466892 0.661017 0
630 1 0.485687 0.679205 0
632 1 0.0134327 0.705798 0
663 1 0.0165807 0.728449 0
634 1 0.0387754 0.721828 0
635 1 0.0576038 0.706127 0
665 1 0.0599265 0.733923 0
636 1 0.0791888 0.716249 0
637 1 0.0996151 0.70117 0
638 1 0.124808 0.707167 0
667 1 0.103711 0.724512 0
669 1 0.128022 0.732386 0
641 1 0.16469 0.699578 0
640 1 0.146394 0.715477 0
671 1 0.169599 0.723659 0
642 1 0.188086 0.709361 0
673 1 0.190589 0.734551 0
644 1 0.210424 0.717156 0
645 1 0.228673 0.701228 0
675 1 0.231833 0.725599 0
646 1 0.251025 0.709634 0
677 1 0.255732 0.73376 0
649 1 0.292451 0.703228 0
650 1 0.31663 0.711203 0
648 1 0.273772 0.717663 0
679 1 0.298648 0.727597 0
653 1 0.360536 0.696178 0
651 1 0.340634 0.713799 0
681 1 0.328829 0.740582 0
652 1 0.352762 0.733674 0
624 1 0.386099 0.697726 0
655 1 0.404338 0.713667 0
654 1 0.376111 0.720754 0
685 1 0.395429 0.737257 0
656 1 0.428652 0.709673 0
658 1 0.45247 0.705988 0
687 1 0.444228 0.728863 0
686 1 0.419943 0.732774 0
659 1 0.476653 0.701976 0
660 1 0.49191 0.719887 0
689 1 0.468816 0.726949 0
662 1 0.0215823 0.751655 0
691 1 0.00309664 0.767786 0
693 1 0.0277922 0.773424 0
666 1 0.0856617 0.740888 0
664 1 0.0461224 0.753746 0
695 1 0.0706642 0.760642 0
694 1 0.0515644 0.777291 0
697 1 0.0937304 0.767235 0
668 1 0.109382 0.749115 0
698 1 0.115387 0.775731 0
699 1 0.134383 0.758383 0
670 1 0.152101 0.739799 0
701 1 0.156352 0.769356 0
672 1 0.172468 0.750945 0
702 1 0.178611 0.77711 0
674 1 0.213882 0.742127 0
703 1 0.195454 0.759884 0
705 1 0.220629 0.767246 0
676 1 0.237845 0.750426 0
706 1 0.244891 0.77571 0
707 1 0.260002 0.756897 0
678 1 0.277878 0.740946 0
680 1 0.304668 0.751588 0
709 1 0.284089 0.763857 0
710 1 0.304761 0.777511 0
682 1 0.349258 0.756381 0
711 1 0.325998 0.766421 0
712 1 0.347704 0.780442 0
683 1 0.372759 0.745775 0
713 1 0.368507 0.770342 0
684 1 0.391575 0.761793 0
715 1 0.416342 0.758688 0
717 1 0.439077 0.751819 0
718 1 0.447237 0.776652 0
690 1 0.486843 0.759537 0
688 1 0.462967 0.75063 0
719 1 0.471305 0.779622 0
1591 1 0.49805 0.782057 0
692 1 0.0110837 0.790213 0
722 1 0.0133729 0.813201 0
723 1 0.033975 0.796427 0
724 1 0.0424324 0.819533 0
696 1 0.0743538 0.784442 0
725 1 0.057503 0.801483 0
726 1 0.0816434 0.808775 0
727 1 0.0980244 0.793408 0
728 1 0.120485 0.802786 0
757 1 0.103517 0.819736 0
700 1 0.137543 0.787049 0
729 1 0.143276 0.811305 0
730 1 0.167468 0.81932 0
731 1 0.160674 0.794857 0
704 1 0.201224 0.782858 0
732 1 0.184239 0.799908 0
733 1 0.208204 0.805546 0
763 1 0.192191 0.824024 0
735 1 0.226784 0.790958 0
736 1 0.2375 0.813491 0
737 1 0.259136 0.799568 0
767 1 0.259884 0.825201 0
708 1 0.282617 0.787746 0
738 1 0.28085 0.813228 0
739 1 0.30251 0.802652 0
740 1 0.323728 0.817047 0
741 1 0.324161 0.790843 0
742 1 0.343867 0.805629 0
714 1 0.386815 0.784828 0
743 1 0.365565 0.796224 0
744 1 0.364116 0.82064 0
745 1 0.386414 0.809272 0
716 1 0.411638 0.783332 0
746 1 0.411191 0.810491 0
747 1 0.432598 0.795866 0
748 1 0.439995 0.821498 0
720 1 0.480225 0.802847 0
749 1 0.456154 0.801196 0
750 1 0.464104 0.825178 0
1621 1 0.48932 0.825724 0
752 1 0.00420051 0.853253 0
753 1 0.023391 0.835807 0
783 1 0.027558 0.860103 0
754 1 0.0492788 0.84315 0
755 1 0.0706646 0.830748 0
785 1 0.0727296 0.853837 0
784 1 0.0513472 0.866599 0
756 1 0.0935242 0.840514 0
759 1 0.126185 0.828682 0
758 1 0.116932 0.851653 0
787 1 0.0948853 0.865039 0
789 1 0.140489 0.862778 0
760 1 0.150026 0.836223 0
791 1 0.167981 0.869458 0
761 1 0.174739 0.843624 0
734 1 0.217534 0.826815 0
762 1 0.190951 0.860423 0
764 1 0.214132 0.849899 0
765 1 0.238105 0.837629 0
795 1 0.23506 0.861686 0
766 1 0.257851 0.850134 0
797 1 0.277544 0.865145 0
769 1 0.300068 0.826876 0
768 1 0.280456 0.839896 0
799 1 0.300827 0.853173 0
770 1 0.322 0.842724 0
801 1 0.322238 0.86804 0
771 1 0.343205 0.831053 0
772 1 0.343866 0.855648 0
773 1 0.365093 0.843227 0
775 1 0.394147 0.834596 0
774 1 0.384381 0.858006 0
776 1 0.408209 0.854462 0
777 1 0.419771 0.834318 0
778 1 0.441576 0.846348 0
809 1 0.45279 0.868456 0
1651 1 0.493067 0.848335 0
779 1 0.46804 0.848696 0
780 1 0.481711 0.870047 0
782 1 0.0101826 0.878937 0
813 1 0.0343655 0.882511 0
812 1 0.0218212 0.902033 0
786 1 0.073224 0.879099 0
815 1 0.0533259 0.897503 0
816 1 0.0780785 0.905839 0
817 1 0.0977709 0.889056 0
788 1 0.119027 0.875706 0
819 1 0.122646 0.900527 0
790 1 0.141717 0.887551 0
821 1 0.165848 0.899485 0
792 1 0.187528 0.886275 0
793 1 0.209843 0.875032 0
823 1 0.208921 0.899333 0
825 1 0.228517 0.913365 0
794 1 0.229603 0.888737 0
796 1 0.254376 0.874758 0
827 1 0.251768 0.899273 0
828 1 0.270934 0.912449 0
798 1 0.274402 0.88849 0
800 1 0.298477 0.877924 0
829 1 0.295303 0.901529 0
831 1 0.319317 0.892856 0
802 1 0.342806 0.882468 0
832 1 0.338845 0.909321 0
833 1 0.36384 0.903144 0
805 1 0.398481 0.878819 0
803 1 0.373662 0.880045 0
804 1 0.388558 0.901608 0
807 1 0.42543 0.872718 0
806 1 0.415544 0.895868 0
808 1 0.441376 0.890999 0
839 1 0.453911 0.911529 0
1681 1 0.49225 0.890868 0
810 1 0.465549 0.890164 0
840 1 0.478207 0.90946 0
842 1 0.0114177 0.949854 0
843 1 0.0173656 0.92631 0
814 1 0.0410182 0.919431 0
844 1 0.0346614 0.943615 0
845 1 0.0578237 0.937206 0
846 1 0.0784064 0.954383 0
847 1 0.0810817 0.92891 0
818 1 0.102103 0.916296 0
848 1 0.100741 0.945161 0
849 1 0.122416 0.927906 0
879 1 0.123306 0.953432 0
820 1 0.14281 0.91381 0
850 1 0.144384 0.939616 0
851 1 0.166484 0.925222 0
852 1 0.166287 0.951234 0
824 1 0.207323 0.924911 0
822 1 0.185789 0.911033 0
853 1 0.187119 0.937337 0
854 1 0.20859 0.951226 0
855 1 0.228849 0.937774 0
826 1 0.249337 0.924492 0
856 1 0.249764 0.949597 0
857 1 0.269347 0.935572 0
858 1 0.286991 0.949585 0
859 1 0.29068 0.925277 0
860 1 0.310251 0.941884 0
830 1 0.314779 0.917705 0
861 1 0.333744 0.935061 0
862 1 0.351001 0.954743 0
863 1 0.35668 0.927334 0
835 1 0.40559 0.919303 0
834 1 0.380438 0.924043 0
864 1 0.373994 0.947184 0
865 1 0.397717 0.942589 0
837 1 0.431394 0.915198 0
838 1 0.447273 0.935082 0
836 1 0.421723 0.937964 0
867 1 0.438548 0.958091 0
1741 1 0.487894 0.951177 0
869 1 0.471843 0.931818 0
872 1 0.0236348 0.990246 0
873 1 0.029835 0.966653 0
871 1 0.00577611 0.97332 0
874 1 0.04778 0.984187 0
875 1 0.0533365 0.960072 0
876 1 0.0708366 0.977769 0
7 1 0.0922702 0.994142 0
877 1 0.0998416 0.969108 0
878 1 0.123586 0.978334 0
880 1 0.147983 0.989503 0
881 1 0.145365 0.965686 0
882 1 0.167776 0.974872 0
15 1 0.219683 0.999726 0
13 1 0.189373 0.986185 0
883 1 0.1879 0.961323 0
884 1 0.210688 0.97639 0
885 1 0.231308 0.965893 0
886 1 0.244127 0.99633 0
17 1 0.269566 0.994153 0
887 1 0.254122 0.97373 0
888 1 0.2785 0.972264 0
19 1 0.295543 0.989628 0
889 1 0.30251 0.966961 0
891 1 0.326272 0.962148 0
890 1 0.319523 0.985481 0
892 1 0.342898 0.980575 0
893 1 0.36713 0.975171 0
895 1 0.390375 0.967648 0
894 1 0.384166 0.991647 0
896 1 0.407705 0.986085 0
897 1 0.430938 0.979303 0
866 1 0.414851 0.960684 0
868 1 0.453927 0.977343 0
870 1 0.464787 0.954116 0
392 1 0.000499069 0.455506 0
811 1 -0.000306167 0.908809 0
902 1 0.54339 0.0149907 0
931 1 0.525141 0.031802 0
901 1 0.519953 0.00896549 0
933 1 0.548447 0.0406238 0
904 1 0.567334 0.0223098 0
935 1 0.590151 0.032698 0
906 1 0.58684 0.00899599 0
908 1 0.60901 0.0174718 0
937 1 0.612932 0.0413628 0
939 1 0.632134 0.0237928 0
910 1 0.649573 0.00784948 0
941 1 0.654835 0.0317748 0
912 1 0.674652 0.0176456 0
942 1 0.678332 0.0412934 0
943 1 0.696651 0.0241608 0
914 1 0.713125 0.0077569 0
945 1 0.71975 0.0313404 0
913 1 0.690601 0.999472 0
916 1 0.751779 0.00545081 0
947 1 0.749454 0.0299923 0
918 1 0.771971 0.0189879 0
919 1 0.795464 0.00791595 0
949 1 0.792658 0.0319584 0
920 1 0.822092 0.00583061 0
951 1 0.818136 0.0286375 0
922 1 0.842808 0.0248838 0
921 1 0.846019 0.999377 0
923 1 0.865501 0.0169371 0
953 1 0.864685 0.0414486 0
924 1 0.889122 0.0103418 0
955 1 0.90831 0.0248869 0
954 1 0.886778 0.0342173 0
926 1 0.929986 0.0167359 0
928 1 0.952151 0.0108902 0
957 1 0.94397 0.0359979 0
925 1 0.911007 0.00137836 0
930 1 0.990648 0.0212572 0
959 1 0.968034 0.0290682 0
929 1 0.974822 0.00423838 0
932 1 0.529753 0.0574637 0
962 1 0.539091 0.0829962 0
961 1 0.515076 0.0767855 0
60 1 0.504113 0.0481513 0
963 1 0.554777 0.0655235 0
934 1 0.571793 0.0494497 0
965 1 0.577375 0.0732245 0
936 1 0.596024 0.0584197 0
966 1 0.601018 0.0815154 0
967 1 0.619157 0.0654045 0
938 1 0.636139 0.0481218 0
969 1 0.642603 0.0722062 0
940 1 0.659612 0.0563227 0
970 1 0.664931 0.0799094 0
971 1 0.683676 0.0653597 0
944 1 0.702366 0.0485878 0
973 1 0.705194 0.0728941 0
975 1 0.72506 0.0561216 0
948 1 0.772181 0.0432499 0
974 1 0.728274 0.080085 0
976 1 0.751227 0.0781395 0
946 1 0.749969 0.0536118 0
977 1 0.77155 0.068285 0
979 1 0.794158 0.0577635 0
950 1 0.817577 0.0525383 0
980 1 0.814316 0.0780275 0
978 1 0.791189 0.0845595 0
981 1 0.838175 0.0731339 0
952 1 0.841845 0.0501275 0
983 1 0.861442 0.0660844 0
985 1 0.884431 0.056807 0
984 1 0.887526 0.0812406 0
956 1 0.906902 0.0480113 0
986 1 0.91001 0.0721373 0
987 1 0.937372 0.0620858 0
1017 1 0.931304 0.0858307 0
960 1 0.985331 0.0450182 0
988 1 0.956186 0.0770165 0
958 1 0.961459 0.0519801 0
989 1 0.980289 0.0679322 0
990 1 0.997779 0.0856257 0
991 1 0.521751 0.100812 0
992 1 0.529021 0.127873 0
120 1 0.505235 0.117902 0
993 1 0.544058 0.10843 0
964 1 0.561704 0.0911322 0
994 1 0.568208 0.115894 0
995 1 0.584799 0.0988614 0
996 1 0.59159 0.124415 0
968 1 0.624294 0.0894273 0
997 1 0.608004 0.107555 0
998 1 0.630031 0.113624 0
999 1 0.648016 0.0970172 0
1000 1 0.653542 0.122925 0
1001 1 0.671734 0.106268 0
1031 1 0.676227 0.130145 0
972 1 0.687729 0.0897711 0
1002 1 0.694656 0.112847 0
1003 1 0.711365 0.0967874 0
1004 1 0.719361 0.118603 0
1005 1 0.740691 0.101682 0
1006 1 0.761845 0.114754 0
1007 1 0.769026 0.0929902 0
1035 1 0.742325 0.127553 0
1008 1 0.786351 0.109759 0
1009 1 0.809978 0.104069 0
1039 1 0.801817 0.128078 0
982 1 0.857051 0.0890292 0
1010 1 0.82585 0.121406 0
1011 1 0.833126 0.095817 0
1012 1 0.851316 0.11345 0
1013 1 0.874173 0.103658 0
1014 1 0.888508 0.124802 0
1015 1 0.910029 0.0968977 0
1016 1 0.911271 0.119379 0
1018 1 0.953184 0.100248 0
1047 1 0.93256 0.109975 0
1049 1 0.954966 0.124152 0
1019 1 0.975302 0.0915535 0
1020 1 0.978087 0.11486 0
1022 1 0.534084 0.151381 0
1051 1 0.515908 0.168189 0
1021 1 0.510377 0.143829 0
1023 1 0.552575 0.134579 0
1024 1 0.557828 0.159986 0
1025 1 0.575126 0.141859 0
1055 1 0.581102 0.1669 0
1026 1 0.598754 0.15137 0
1027 1 0.614475 0.132891 0
1028 1 0.622648 0.15769 0
1029 1 0.637172 0.138546 0
1059 1 0.644862 0.165926 0
1030 1 0.660042 0.148752 0
1061 1 0.66818 0.172173 0
1032 1 0.684305 0.154159 0
1033 1 0.700754 0.135625 0
1063 1 0.706565 0.160307 0
1034 1 0.724593 0.142466 0
1036 1 0.747161 0.150447 0
1065 1 0.72865 0.167153 0
1066 1 0.75242 0.174051 0
1067 1 0.770001 0.157277 0
1037 1 0.777434 0.132734 0
1038 1 0.794365 0.152161 0
1069 1 0.810445 0.169685 0
1040 1 0.817918 0.146083 0
1071 1 0.83496 0.162211 0
1041 1 0.841994 0.140185 0
1042 1 0.858983 0.156046 0
1043 1 0.865689 0.133082 0
1044 1 0.884184 0.149315 0
1045 1 0.907276 0.14416 0
1075 1 0.901407 0.167661 0
1073 1 0.877515 0.172175 0
1046 1 0.930265 0.133843 0
1048 1 0.94943 0.149073 0
1077 1 0.925495 0.159831 0
121 1 0.996732 0.132224 0
1050 1 0.973162 0.139575 0
151 1 0.991578 0.155431 0
1079 1 0.967753 0.16415 0
1053 1 0.538853 0.177933 0
1052 1 0.519962 0.192891 0
1083 1 0.543285 0.201271 0
1081 1 0.502474 0.209464 0
1054 1 0.561283 0.183229 0
1056 1 0.585857 0.190975 0
1085 1 0.567893 0.207985 0
1086 1 0.591232 0.21535 0
1057 1 0.60492 0.175546 0
1058 1 0.627644 0.183362 0
1087 1 0.610077 0.201258 0
1089 1 0.632332 0.208732 0
1060 1 0.652158 0.189663 0
1091 1 0.673082 0.198598 0
1090 1 0.655688 0.214684 0
1062 1 0.690949 0.179454 0
1093 1 0.696732 0.20395 0
1064 1 0.712515 0.186868 0
1094 1 0.71947 0.20888 0
1095 1 0.736464 0.190785 0
1097 1 0.759108 0.196633 0
1096 1 0.744261 0.214664 0
1068 1 0.785371 0.178061 0
1098 1 0.781769 0.202091 0
1099 1 0.804683 0.192491 0
1100 1 0.821053 0.209778 0
1070 1 0.828176 0.185839 0
1072 1 0.851697 0.179066 0
1101 1 0.84527 0.202528 0
1103 1 0.87051 0.195704 0
1074 1 0.893555 0.190337 0
1104 1 0.886729 0.214476 0
1078 1 0.94304 0.17645 0
1105 1 0.910753 0.207215 0
1076 1 0.918822 0.184708 0
1107 1 0.936591 0.202928 0
1080 1 0.987081 0.177771 0
1109 1 0.960879 0.197797 0
181 1 0.987544 0.201114 0
1082 1 0.526401 0.21751 0
1111 1 0.508334 0.233091 0
1113 1 0.532481 0.241257 0
1112 1 0.513182 0.257956 0
1084 1 0.550077 0.225047 0
1114 1 0.555036 0.248685 0
1115 1 0.572835 0.23263 0
1116 1 0.578836 0.257346 0
1088 1 0.612912 0.225342 0
1117 1 0.594694 0.240071 0
1118 1 0.619171 0.248338 0
1119 1 0.637876 0.230929 0
1121 1 0.661806 0.239278 0
1120 1 0.643012 0.254793 0
1092 1 0.679777 0.221885 0
1122 1 0.685727 0.246271 0
1123 1 0.702536 0.227911 0
1124 1 0.709544 0.251643 0
1125 1 0.726575 0.231782 0
1126 1 0.750227 0.239111 0
1155 1 0.732911 0.257027 0
1127 1 0.76736 0.22029 0
1129 1 0.791604 0.223197 0
1128 1 0.774469 0.243119 0
1159 1 0.797321 0.250502 0
1130 1 0.814173 0.2324 0
1131 1 0.839102 0.227883 0
1132 1 0.852354 0.250852 0
1161 1 0.824978 0.25442 0
1102 1 0.862599 0.219106 0
1133 1 0.876355 0.237855 0
1135 1 0.904484 0.230449 0
1134 1 0.894236 0.253759 0
1108 1 0.952837 0.22207 0
1136 1 0.918851 0.249256 0
1106 1 0.929415 0.22566 0
1137 1 0.942514 0.24627 0
1110 1 0.976563 0.22248 0
1139 1 0.9664 0.244026 0
1140 1 0.990236 0.242545 0
1142 1 0.518307 0.281673 0
1143 1 0.537237 0.264517 0