ITEM: TIMESTEP
126000
ITEM: NUMBER OF ATOMS
1800
ITEM: BOX BOUNDS pp pp pp
1.2871424710056232e+00 1.6371285752899166e+02
1.2871424710056232e+00 1.6371285752899166e+02
0.0000000000000000e+00 5.5000000000000000e+00
ITEM: ATOMS id type xs ys zs
2 1 0.0112711 0.00738702 0
33 1 0.0293967 0.0237739 0
31 1 0.00614659 0.0320029 0
4 1 0.0532086 0.0160951 0
6 1 0.0769509 0.00731108 0
35 1 0.0718491 0.0322255 0
34 1 0.0483049 0.0396844 0
37 1 0.0955646 0.0237424 0
39 1 0.11942 0.0163428 0
38 1 0.113951 0.0406349 0
40 1 0.137891 0.0332855 0
10 1 0.14301 0.00834533 0
42 1 0.161643 0.0244625 0
41 1 0.167182 -0.000860286 0
73 1 0.180848 0.04316 0
43 1 0.184801 0.017523 0
14 1 0.209243 0.0100146 0
44 1 0.203958 0.0342622 0
45 1 0.228099 0.0268725 0
16 1 0.251953 0.0181174 0
886 1 0.232728 0.00174926 0
46 1 0.270662 0.0351196 0
18 1 0.276362 0.0103295 0
49 1 0.294342 0.0274163 0
20 1 0.300764 0.00270508 0
51 1 0.318947 0.0240991 0
22 1 0.342528 0.0324237 0
21 1 0.360534 0.014371 0
890 1 0.33685 0.00704326 0
24 1 0.384422 0.0219145 0
53 1 0.366096 0.0397513 0
894 1 0.401671 0.00477281 0
25 1 0.408941 0.0290746 0
26 1 0.434013 0.034407 0
27 1 0.426085 0.0111626 0
898 1 0.450822 0.0160582 0
29 1 0.473881 0.0240326 0
900 1 0.49185 0.00639771 0
28 1 0.456952 0.0417358 0
30 1 0.49769 0.0305055 0
32 1 0.0248 0.048456 0
62 1 0.0181968 0.0724563 0
63 1 0.0423846 0.064793 0
61 1 -0.00010082 0.0562652 0
65 1 0.0660427 0.0566264 0
66 1 0.0843602 0.0734003 0
64 1 0.0612102 0.0810291 0
36 1 0.0906759 0.0481227 0
67 1 0.108325 0.0655399 0
69 1 0.132592 0.0578146 0
68 1 0.126909 0.0818873 0
71 1 0.156447 0.0500476 0
72 1 0.175266 0.0672406 0
70 1 0.150931 0.0740807 0
74 1 0.222552 0.0513511 0
103 1 0.199073 0.0601092 0
105 1 0.218198 0.0762531 0
101 1 0.192928 0.0845413 0
75 1 0.246294 0.0438712 0
77 1 0.265134 0.0601952 0
76 1 0.241512 0.0698721 0
137 1 0.2596 0.0853716 0
47 1 0.290302 0.0519425 0
48 1 0.307395 0.0695434 0
78 1 0.283368 0.0761938 0
50 1 0.323285 0.0502417 0
81 1 0.331024 0.0751125 0
52 1 0.347874 0.0574379 0
82 1 0.355339 0.0816392 0
55 1 0.39137 0.0460371 0
83 1 0.372448 0.0637199 0
54 1 0.396691 0.0696567 0
57 1 0.439447 0.0590101 0
85 1 0.422431 0.0769603 0
56 1 0.415637 0.0526838 0
87 1 0.445573 0.0846433 0
59 1 0.480342 0.0482205 0
58 1 0.462668 0.0663948 0
89 1 0.487741 0.0725356 0
93 1 0.0372368 0.0882855 0
990 1 0.0127239 0.0976224 0
92 1 0.0318127 0.113243 0
91 1 0.00770565 0.121482 0
94 1 0.0553308 0.105678 0
95 1 0.0796294 0.0976486 0
125 1 0.0739947 0.122116 0
123 1 0.0502099 0.130265 0
96 1 0.0976107 0.114816 0
97 1 0.103314 0.0902381 0
98 1 0.1216 0.10629 0
99 1 0.145808 0.0986091 0
100 1 0.169517 0.0912212 0
130 1 0.164856 0.115552 0
129 1 0.139499 0.122716 0
131 1 0.187925 0.109014 0
102 1 0.211139 0.100903 0
133 1 0.207291 0.125604 0
104 1 0.22962 0.117526 0
106 1 0.235248 0.0945884 0
135 1 0.255991 0.110554 0
107 1 0.278448 0.0996018 0
109 1 0.298691 0.112821 0
79 1 0.31326 0.0934389 0
108 1 0.277078 0.12548 0
80 1 0.3376 0.0998581 0
110 1 0.321591 0.11975 0
141 1 0.346022 0.124782 0
111 1 0.361601 0.106314 0
113 1 0.379173 0.0877978 0
84 1 0.404277 0.0929775 0
112 1 0.386041 0.112143 0
115 1 0.410791 0.118041 0
86 1 0.428224 0.101119 0
116 1 0.435877 0.125467 0
117 1 0.452808 0.108399 0
88 1 0.469526 0.0900402 0
90 1 0.494114 0.0969252 0
119 1 0.477154 0.115403 0
122 1 0.0266032 0.138289 0
152 1 0.0204773 0.163264 0
121 1 0.00271489 0.146626 0
153 1 0.0449898 0.154951 0
124 1 0.0680844 0.146496 0
155 1 0.0869453 0.16316 0
154 1 0.0632224 0.171486 0
127 1 0.116119 0.130724 0
126 1 0.0915931 0.138829 0
128 1 0.134595 0.147108 0
157 1 0.109626 0.154512 0
158 1 0.128941 0.171768 0
159 1 0.158575 0.139543 0
161 1 0.17763 0.156149 0
160 1 0.153875 0.164452 0
132 1 0.183425 0.132889 0
163 1 0.20123 0.150226 0
134 1 0.224499 0.143915 0
193 1 0.221945 0.170099 0
136 1 0.266001 0.147518 0
165 1 0.247448 0.132769 0
164 1 0.244548 0.158898 0
167 1 0.269931 0.171475 0
139 1 0.304013 0.136531 0
138 1 0.288265 0.155912 0
169 1 0.31118 0.162039 0
140 1 0.328287 0.1435 0
142 1 0.352688 0.149433 0
171 1 0.335481 0.167492 0
172 1 0.359902 0.174405 0
143 1 0.369796 0.130415 0
114 1 0.393284 0.137131 0
173 1 0.377199 0.155697 0
144 1 0.40046 0.162146 0
145 1 0.41738 0.143695 0
146 1 0.424009 0.168885 0
147 1 0.441366 0.150789 0
118 1 0.459298 0.132258 0
149 1 0.483121 0.140078 0
148 1 0.465481 0.15688 0
150 1 0.489291 0.163978 0
183 1 0.0391516 0.179433 0
182 1 0.0340773 0.204161 0
1080 1 0.0159127 0.187137 0
211 1 0.0108303 0.211812 0
184 1 0.0586673 0.196904 0
185 1 0.0823429 0.188655 0
215 1 0.0769719 0.212701 0
186 1 0.101015 0.204612 0
156 1 0.105097 0.179658 0
187 1 0.125203 0.197183 0
189 1 0.1483 0.18773 0
191 1 0.171743 0.181067 0
190 1 0.168147 0.205546 0
188 1 0.144857 0.212285 0
221 1 0.192775 0.207373 0
162 1 0.1961 0.176146 0
192 1 0.213225 0.194701 0
195 1 0.235499 0.204303 0
166 1 0.248408 0.183531 0
196 1 0.258027 0.211948 0
168 1 0.293377 0.179444 0
197 1 0.27552 0.196122 0
199 1 0.300736 0.203007 0
170 1 0.318318 0.185977 0
201 1 0.342636 0.191468 0
200 1 0.325302 0.209549 0
202 1 0.349198 0.215555 0
203 1 0.366862 0.198675 0
174 1 0.383118 0.181073 0
204 1 0.390175 0.204899 0
175 1 0.40692 0.186758 0
177 1 0.447725 0.176178 0
205 1 0.413766 0.211247 0
176 1 0.431001 0.193908 0
178 1 0.454822 0.199815 0
179 1 0.471357 0.181647 0
180 1 0.494925 0.187551 0
209 1 0.479225 0.206606 0
212 1 0.0280946 0.228823 0
241 1 0.0231879 0.253474 0
1140 1 0.00490772 0.235424 0
243 1 0.0478904 0.24569 0
213 1 0.053563 0.220855 0
214 1 0.0723155 0.23853 0
245 1 0.0909273 0.256112 0
216 1 0.0958842 0.230181 0
217 1 0.119312 0.222088 0
247 1 0.11483 0.247778 0
218 1 0.138685 0.237004 0
219 1 0.160637 0.246188 0
220 1 0.177117 0.228749 0
222 1 0.182802 0.255459 0
194 1 0.216992 0.220341 0
223 1 0.199772 0.237707 0
224 1 0.222617 0.246107 0
225 1 0.240449 0.229259 0
227 1 0.263966 0.236321 0
226 1 0.246315 0.253946 0
198 1 0.282473 0.219334 0
228 1 0.287831 0.24474 0
229 1 0.306419 0.227318 0
230 1 0.312312 0.251963 0
231 1 0.330443 0.233838 0
232 1 0.354628 0.239833 0
261 1 0.336538 0.258818 0
233 1 0.373839 0.222843 0
234 1 0.378823 0.247797 0
235 1 0.397089 0.23033 0
265 1 0.402735 0.254396 0
207 1 0.437961 0.218131 0
206 1 0.420332 0.237338 0
237 1 0.444428 0.242529 0
208 1 0.461907 0.223687 0
210 1 0.486029 0.230787 0
239 1 0.467884 0.248837 0
240 1 0.49185 0.255532 0
242 1 0.0426073 0.269292 0
271 1 0.0352885 0.291787 0
1170 1 0.0170863 0.276661 0
1200 1 0.0136429 0.302357 0
244 1 0.065407 0.262443 0
273 1 0.0606165 0.295177 0
275 1 0.0818032 0.281617 0
246 1 0.104129 0.290738 0
248 1 0.121875 0.275151 0
279 1 0.126529 0.301637 0
249 1 0.141302 0.26153 0
251 1 0.164169 0.270651 0
250 1 0.145135 0.286064 0
281 1 0.168375 0.296019 0
253 1 0.205414 0.263182 0
252 1 0.187301 0.279564 0
254 1 0.210626 0.288671 0
257 1 0.269483 0.261416 0
255 1 0.228997 0.271075 0
256 1 0.252229 0.279664 0
285 1 0.234887 0.296977 0
259 1 0.292871 0.26917 0
258 1 0.276001 0.286841 0
289 1 0.299618 0.293955 0
260 1 0.318099 0.276197 0
263 1 0.361042 0.265004 0
262 1 0.343087 0.282201 0
291 1 0.323483 0.300708 0
293 1 0.366646 0.290755 0
264 1 0.385348 0.271589 0
295 1 0.389817 0.297008 0
266 1 0.409466 0.278785 0
236 1 0.426633 0.260903 0
238 1 0.450448 0.267728 0
267 1 0.432859 0.285842 0
297 1 0.414629 0.303159 0
268 1 0.456884 0.29184 0
1141 1 0.499335 0.28005 0
269 1 0.47505 0.273614 0
270 1 0.480607 0.298419 0
301 1 0.021635 0.326464 0
1230 1 0.00317534 0.342413 0
272 1 0.0421956 0.314251 0
303 1 0.0459983 0.337822 0
276 1 0.0846732 0.30624 0
274 1 0.0655518 0.321604 0
305 1 0.0879219 0.331496 0
304 1 0.0683904 0.346615 0
277 1 0.106594 0.316033 0
278 1 0.130235 0.326374 0
307 1 0.110236 0.341345 0
280 1 0.148915 0.310781 0
311 1 0.152935 0.335857 0
282 1 0.172015 0.320328 0
312 1 0.176645 0.344845 0
283 1 0.191817 0.304671 0
284 1 0.216409 0.313422 0
313 1 0.196717 0.329236 0
315 1 0.221201 0.337916 0
287 1 0.257835 0.305223 0
286 1 0.239879 0.321922 0
317 1 0.263918 0.3297 0
316 1 0.243562 0.347169 0
288 1 0.281726 0.311583 0
318 1 0.287736 0.337498 0
290 1 0.305863 0.319288 0
319 1 0.312502 0.343489 0
292 1 0.348104 0.306833 0
321 1 0.329752 0.324699 0
323 1 0.354898 0.331523 0
324 1 0.379217 0.337906 0
294 1 0.372237 0.314529 0
325 1 0.40388 0.346155 0
296 1 0.396376 0.321174 0
298 1 0.438066 0.309386 0
327 1 0.420315 0.32778 0
328 1 0.444588 0.333422 0
329 1 0.469341 0.341971 0
299 1 0.462852 0.316237 0
300 1 0.487358 0.323038 0
1201 1 0.493318 0.347649 0
302 1 0.0259885 0.351295 0
332 1 0.0283739 0.376279 0
331 1 0.00696641 0.366505 0
361 1 0.0096818 0.391332 0
333 1 0.0485823 0.361741 0
335 1 0.0709084 0.37081 0
334 1 0.0513677 0.386126 0
306 1 0.0903573 0.356152 0
337 1 0.0932254 0.380504 0
308 1 0.113933 0.366454 0
309 1 0.133806 0.350473 0
338 1 0.11672 0.390218 0
339 1 0.137775 0.374676 0
310 1 0.157283 0.360961 0
341 1 0.160735 0.38558 0
343 1 0.181859 0.368764 0
314 1 0.201611 0.353841 0
344 1 0.205094 0.379573 0
345 1 0.224311 0.363148 0
375 1 0.228246 0.388138 0
347 1 0.266622 0.354035 0
346 1 0.247436 0.371674 0
377 1 0.272414 0.378767 0
349 1 0.29192 0.361717 0
348 1 0.297975 0.385851 0
350 1 0.317567 0.367122 0
320 1 0.336601 0.349617 0
351 1 0.344105 0.371725 0
322 1 0.362036 0.355261 0
381 1 0.327596 0.389715 0
353 1 0.369286 0.380213 0
355 1 0.386707 0.363208 0
354 1 0.393188 0.387602 0
356 1 0.410228 0.369553 0
326 1 0.428575 0.352042 0
357 1 0.433811 0.377175 0
359 1 0.452497 0.359027 0
358 1 0.458199 0.383325 0
330 1 0.475755 0.366241 0
360 1 0.48246 0.389676 0
1231 1 0.500986 0.372044 0
363 1 0.0320001 0.401553 0
362 1 0.0125032 0.415902 0
364 1 0.0347408 0.4266 0
336 1 0.0748225 0.39614 0
365 1 0.0546493 0.410895 0
366 1 0.0779641 0.420246 0
367 1 0.0982855 0.406217 0
369 1 0.120986 0.415639 0
368 1 0.100642 0.430236 0
340 1 0.13949 0.399969 0
370 1 0.143105 0.425346 0
371 1 0.16243 0.410361 0
342 1 0.18473 0.394188 0
372 1 0.186992 0.419454 0
373 1 0.206753 0.404242 0
403 1 0.210021 0.428546 0
374 1 0.230842 0.413234 0
376 1 0.250954 0.396584 0
405 1 0.253756 0.422585 0
378 1 0.274476 0.404195 0
379 1 0.311001 0.407008 0
409 1 0.291916 0.421472 0
410 1 0.316157 0.43129 0
352 1 0.351707 0.396945 0
382 1 0.357612 0.422228 0
380 1 0.334518 0.414399 0
383 1 0.374814 0.404692 0
385 1 0.398695 0.412092 0
384 1 0.381614 0.42961 0
387 1 0.417392 0.394586 0
386 1 0.423248 0.418249 0
388 1 0.441201 0.401318 0
419 1 0.447829 0.425266 0
389 1 0.465252 0.40832 0
1261 1 0.489691 0.413808 0
390 1 0.472069 0.431764 0
393 1 0.014433 0.441063 0
423 1 0.0163523 0.466185 0
394 1 0.0363636 0.451666 0
425 1 0.0395112 0.475464 0
395 1 0.0581666 0.435617 0
396 1 0.05962 0.460207 0
397 1 0.0810088 0.445516 0
427 1 0.082678 0.470822 0
399 1 0.123491 0.440499 0
398 1 0.103104 0.455496 0
429 1 0.125374 0.465712 0
401 1 0.165792 0.434834 0
400 1 0.146203 0.450488 0
431 1 0.169142 0.459398 0
430 1 0.148088 0.474833 0
402 1 0.189222 0.444536 0
433 1 0.211993 0.454524 0
432 1 0.190768 0.471272 0
404 1 0.232484 0.440536 0
406 1 0.254565 0.451157 0
435 1 0.233449 0.464759 0
436 1 0.25683 0.47529 0
407 1 0.273782 0.436971 0
437 1 0.277775 0.460592 0
408 1 0.297352 0.446714 0
439 1 0.302011 0.47064 0
441 1 0.32201 0.455275 0
411 1 0.339737 0.438659 0
412 1 0.34509 0.463842 0
413 1 0.36338 0.447101 0
415 1 0.405371 0.436157 0
414 1 0.388239 0.453042 0
443 1 0.369118 0.471957 0
445 1 0.393691 0.478158 0
416 1 0.412554 0.461005 0
417 1 0.429874 0.442568 0
447 1 0.436217 0.467001 0
418 1 0.454844 0.449937 0
1291 1 0.496696 0.438348 0
420 1 0.478762 0.45618 0
449 1 0.459395 0.474352 0
454 1 0.0222178 0.515918 0
424 1 0.0196112 0.490292 0
455 1 0.0423674 0.500101 0
426 1 0.0623499 0.484754 0
456 1 0.0645018 0.510812 0
457 1 0.084234 0.495779 0
487 1 0.0874945 0.521028 0
428 1 0.104989 0.480664 0
459 1 0.127172 0.490473 0
458 1 0.107105 0.506018 0
489 1 0.130418 0.515165 0
461 1 0.170862 0.48481 0
460 1 0.151028 0.500338 0
462 1 0.173442 0.511716 0
434 1 0.213662 0.480602 0
463 1 0.193865 0.496149 0
464 1 0.217157 0.506081 0
493 1 0.196224 0.52053 0
465 1 0.236884 0.489383 0
467 1 0.260408 0.500469 0
466 1 0.240017 0.515076 0
438 1 0.280328 0.485024 0
469 1 0.304147 0.493984 0
468 1 0.28446 0.509366 0
470 1 0.308168 0.518641 0
440 1 0.326158 0.480311 0
442 1 0.349839 0.489768 0
471 1 0.329731 0.50472 0
473 1 0.355407 0.514974 0
444 1 0.375043 0.497642 0
475 1 0.399356 0.50268 0
474 1 0.381735 0.521869 0
446 1 0.418827 0.484867 0
477 1 0.42355 0.509081 0
448 1 0.441913 0.491606 0
478 1 0.447997 0.516142 0
450 1 0.484072 0.480023 0
479 1 0.466157 0.49868 0
1381 1 0.489374 0.505309 0
483 1 0.0242653 0.540513 0
482 1 0.00368179 0.553634 0
452 1 0.000724671 0.52857 0
485 1 0.044475 0.52607 0
484 1 0.0479903 0.551102 0
486 1 0.0671069 0.535848 0
515 1 0.0702008 0.561308 0
517 1 0.089838 0.545868 0
488 1 0.110082 0.530638 0
519 1 0.112798 0.555984 0
490 1 0.133296 0.540098 0
491 1 0.152607 0.526196 0
521 1 0.157016 0.55057 0
492 1 0.176877 0.535687 0
523 1 0.17984 0.561365 0
494 1 0.198939 0.545119 0
495 1 0.219958 0.53009 0
525 1 0.222605 0.554741 0
496 1 0.242563 0.53998 0
497 1 0.261991 0.52644 0
527 1 0.264514 0.550053 0
526 1 0.244965 0.56545 0
499 1 0.306928 0.543491 0
498 1 0.284947 0.534105 0
529 1 0.287222 0.558935 0
472 1 0.331979 0.528692 0
501 1 0.328406 0.553853 0
502 1 0.35085 0.559997 0
503 1 0.363284 0.538477 0
505 1 0.388799 0.545779 0
476 1 0.406118 0.528343 0
506 1 0.413971 0.552414 0
507 1 0.430197 0.534237 0
508 1 0.437722 0.559078 0
509 1 0.454777 0.541987 0
480 1 0.472277 0.524506 0
510 1 0.479049 0.548143 0
1382 1 0.497117 0.529457 0
513 1 0.0268651 0.565205 0
512 1 0.0289712 0.589607 0
511 1 0.00565547 0.578921 0
541 1 0.0086607 0.60422 0
514 1 0.0505048 0.576373 0
545 1 0.0733646 0.58644 0
543 1 0.0526759 0.60037 0
516 1 0.0932961 0.571042 0
518 1 0.115829 0.581024 0
547 1 0.0962645 0.595519 0
548 1 0.118203 0.605781 0
520 1 0.136103 0.565947 0
549 1 0.139173 0.590427 0
522 1 0.159524 0.575894 0
551 1 0.161537 0.600281 0
553 1 0.182753 0.586441 0
524 1 0.202714 0.570354 0
554 1 0.205804 0.595754 0
555 1 0.224998 0.5799 0
556 1 0.228392 0.604895 0
557 1 0.247846 0.590236 0
528 1 0.267461 0.574675 0
558 1 0.271899 0.600497 0
500 1 0.308576 0.569778 0
559 1 0.290243 0.584117 0
530 1 0.312836 0.593674 0
531 1 0.331888 0.57747 0
532 1 0.33721 0.601504 0
533 1 0.356344 0.584116 0
504 1 0.373591 0.565585 0
534 1 0.379929 0.590664 0
535 1 0.397272 0.571283 0
536 1 0.403715 0.596033 0
537 1 0.421302 0.577168 0
567 1 0.428405 0.601886 0
538 1 0.44565 0.583552 0
539 1 0.462011 0.566307 0
540 1 0.486597 0.572126 0
569 1 0.469 0.590094 0
1441 1 0.49289 0.596486 0
542 1 0.0328042 0.614798 0
571 1 0.0122729 0.629387 0
573 1 0.0344337 0.639317 0
546 1 0.0760821 0.612005 0
544 1 0.0557454 0.626524 0
575 1 0.0785023 0.636139 0
574 1 0.0587986 0.651255 0
577 1 0.0988097 0.621249 0
579 1 0.122385 0.629971 0
576 1 0.101884 0.645931 0
550 1 0.142071 0.615938 0
581 1 0.164886 0.625175 0
580 1 0.144856 0.640903 0
611 1 0.168179 0.651368 0
552 1 0.185465 0.610496 0
582 1 0.189419 0.636636 0
583 1 0.20857 0.621071 0
584 1 0.212181 0.646058 0
585 1 0.232154 0.629977 0
586 1 0.255405 0.640553 0
587 1 0.251426 0.614509 0
560 1 0.294648 0.610507 0
589 1 0.275179 0.625858 0
590 1 0.298396 0.636043 0
588 1 0.278845 0.651198 0
563 1 0.361603 0.608524 0
561 1 0.318075 0.618318 0
562 1 0.342731 0.626049 0
591 1 0.323824 0.642785 0
593 1 0.348393 0.649587 0
565 1 0.385656 0.614984 0
564 1 0.366881 0.632843 0
595 1 0.391542 0.639591 0
568 1 0.452504 0.607919 0
566 1 0.410948 0.620184 0
596 1 0.416197 0.644396 0
597 1 0.434623 0.626563 0
599 1 0.441091 0.651258 0
570 1 0.476899 0.614673 0
600 1 0.458533 0.63245 0
1471 1 0.483032 0.638949 0
572 1 0.0135685 0.654521 0
602 1 0.017749 0.678513 0
603 1 0.0379466 0.664065 0
633 1 0.0399336 0.688978 0
605 1 0.0823239 0.660873 0
604 1 0.0612161 0.675698 0
606 1 0.0842351 0.685368 0
578 1 0.124319 0.656477 0
607 1 0.10441 0.670897 0
608 1 0.127161 0.681266 0
609 1 0.147264 0.665823 0
610 1 0.169885 0.675837 0
639 1 0.149799 0.69226 0
612 1 0.193262 0.686532 0
613 1 0.191631 0.662099 0
614 1 0.214632 0.671041 0
615 1 0.235529 0.655436 0
616 1 0.238007 0.680961 0
617 1 0.258984 0.665591 0
647 1 0.26377 0.690205 0
619 1 0.305336 0.66061 0
618 1 0.286853 0.677469 0
620 1 0.313398 0.684687 0
621 1 0.330468 0.666697 0
592 1 0.356302 0.674442 0
622 1 0.337373 0.691991 0
594 1 0.373161 0.65627 0
625 1 0.398667 0.663023 0
623 1 0.380115 0.680156 0
626 1 0.405323 0.686282 0
598 1 0.446963 0.675158 0
627 1 0.422906 0.668479 0
657 1 0.429469 0.69328 0
628 1 0.471037 0.682208 0
629 1 0.464751 0.656788 0
1501 1 0.4887 0.663536 0
630 1 0.495422 0.68731 0
632 1 0.0206321 0.703559 0
663 1 0.0226681 0.729743 0
634 1 0.0432459 0.714791 0
635 1 0.0634012 0.700995 0
636 1 0.0861388 0.709207 0
665 1 0.065824 0.726004 0
666 1 0.0878976 0.735067 0
637 1 0.10756 0.695547 0
638 1 0.12987 0.706321 0
667 1 0.108523 0.720281 0
669 1 0.131396 0.731186 0
641 1 0.17258 0.701275 0
640 1 0.152312 0.717125 0
671 1 0.174565 0.727967 0
643 1 0.215093 0.69619 0
642 1 0.194634 0.712158 0
673 1 0.197459 0.737015 0
644 1 0.216498 0.721752 0
645 1 0.236594 0.706719 0
675 1 0.239724 0.731664 0
646 1 0.259086 0.714806 0
649 1 0.295541 0.701541 0
648 1 0.281572 0.722647 0
679 1 0.304531 0.728717 0
650 1 0.319244 0.70995 0
651 1 0.345542 0.717406 0
681 1 0.327937 0.735252 0
653 1 0.362791 0.698928 0
624 1 0.386691 0.704334 0
654 1 0.369242 0.722528 0
685 1 0.393287 0.729407 0
655 1 0.411079 0.710787 0
656 1 0.435767 0.716728 0
686 1 0.418264 0.734069 0
658 1 0.453667 0.699558 0
687 1 0.460311 0.723661 0
659 1 0.478612 0.705782 0
689 1 0.483691 0.730139 0
662 1 0.0262019 0.75526 0
693 1 0.0280693 0.781515 0
691 1 0.00672233 0.769978 0
661 1 0.00247451 0.744491 0
664 1 0.0455596 0.739466 0
694 1 0.0488453 0.764626 0
695 1 0.0692702 0.750624 0
696 1 0.0704712 0.775803 0
697 1 0.0914068 0.761054 0
668 1 0.111002 0.745338 0
698 1 0.1145 0.77007 0
699 1 0.134152 0.755686 0
700 1 0.137719 0.779979 0
670 1 0.154055 0.742061 0
701 1 0.157919 0.766677 0
672 1 0.178152 0.752466 0
702 1 0.180483 0.77796 0
674 1 0.219276 0.746607 0
703 1 0.199922 0.762596 0
705 1 0.22362 0.77176 0
677 1 0.263047 0.739466 0
676 1 0.243273 0.756358 0
707 1 0.26805 0.76378 0
735 1 0.24941 0.780868 0
678 1 0.286258 0.746599 0
709 1 0.292147 0.770888 0
680 1 0.310611 0.752478 0
710 1 0.317434 0.776523 0
652 1 0.353357 0.741286 0
682 1 0.360149 0.764966 0
711 1 0.334644 0.758834 0
683 1 0.376344 0.747158 0
713 1 0.383918 0.771669 0
684 1 0.401646 0.753681 0
716 1 0.408334 0.77935 0
717 1 0.442712 0.741736 0
715 1 0.425129 0.759912 0
718 1 0.449975 0.765863 0
1591 1 0.497267 0.778724 0
690 1 0.48985 0.754024 0
688 1 0.465984 0.748059 0
719 1 0.473355 0.773189 0
692 1 0.00664636 0.796204 0
722 1 0.00525802 0.821651 0
723 1 0.0285327 0.810201 0
725 1 0.0496323 0.79457 0
726 1 0.0742969 0.800139 0
755 1 0.0711733 0.824471 0
727 1 0.0933567 0.785256 0
728 1 0.115371 0.795707 0
757 1 0.0960385 0.81167 0
729 1 0.138822 0.804213 0
730 1 0.163058 0.816115 0
731 1 0.159909 0.791137 0
704 1 0.204668 0.788332 0
732 1 0.183825 0.802757 0
763 1 0.206489 0.814587 0
733 1 0.227994 0.796795 0
734 1 0.230975 0.820956 0
736 1 0.253816 0.807039 0
706 1 0.2741 0.78749 0
737 1 0.282792 0.811432 0
708 1 0.299032 0.793994 0
738 1 0.307422 0.818481 0
741 1 0.342778 0.782447 0
739 1 0.324749 0.800733 0
742 1 0.348447 0.807609 0
740 1 0.331345 0.824937 0
712 1 0.366585 0.790002 0
714 1 0.390078 0.797393 0
743 1 0.3722 0.813883 0
745 1 0.396502 0.820586 0
746 1 0.415181 0.803447 0
747 1 0.432957 0.784748 0
748 1 0.438784 0.80866 0
749 1 0.457358 0.791489 0
720 1 0.480736 0.798061 0
750 1 0.46354 0.816011 0
1621 1 0.487545 0.822253 0
753 1 0.0242613 0.839396 0
783 1 0.0197875 0.863928 0
754 1 0.0428068 0.855064 0
752 1 0.000107965 0.848751 0
724 1 0.0467719 0.828489 0
785 1 0.0661237 0.848555 0
786 1 0.0846119 0.864218 0
756 1 0.0912022 0.838313 0
758 1 0.115509 0.831963 0
787 1 0.108271 0.857605 0
789 1 0.132857 0.850856 0
759 1 0.139814 0.827917 0
760 1 0.161191 0.840934 0
791 1 0.174602 0.86117 0
790 1 0.150814 0.867848 0
761 1 0.184871 0.828445 0
762 1 0.197994 0.851823 0
764 1 0.221468 0.8448 0
793 1 0.214811 0.869299 0
765 1 0.245046 0.840407 0
795 1 0.239748 0.863671 0
766 1 0.26478 0.856599 0
767 1 0.265514 0.82867 0
769 1 0.313375 0.841659 0
768 1 0.28927 0.836612 0
799 1 0.297194 0.859493 0
770 1 0.337896 0.849766 0
771 1 0.354794 0.831441 0
773 1 0.361608 0.85671 0
801 1 0.320405 0.866513 0
744 1 0.379079 0.838571 0
774 1 0.386177 0.862658 0
775 1 0.402929 0.844281 0
777 1 0.421251 0.827414 0
807 1 0.427943 0.851673 0
778 1 0.44489 0.833657 0
809 1 0.452006 0.859437 0
779 1 0.469403 0.840338 0
780 1 0.476438 0.86548 0
1651 1 0.494844 0.848113 0
812 1 0.0140137 0.889899 0
814 1 0.0329993 0.906783 0
813 1 0.0372287 0.881962 0
784 1 0.0611858 0.872703 0
815 1 0.0564962 0.899606 0
816 1 0.078753 0.889845 0
788 1 0.126962 0.874715 0
817 1 0.103815 0.882428 0
819 1 0.121344 0.89911 0
818 1 0.0972897 0.906748 0
821 1 0.168147 0.885249 0
820 1 0.144981 0.892395 0
851 1 0.163213 0.90993 0
792 1 0.192102 0.878059 0
823 1 0.20991 0.895424 0
822 1 0.186581 0.903045 0
794 1 0.233378 0.88714 0
796 1 0.256763 0.880828 0
827 1 0.252875 0.90479 0
825 1 0.229002 0.911612 0
797 1 0.280138 0.876352 0
798 1 0.283934 0.900644 0
800 1 0.302942 0.884943 0
829 1 0.307466 0.910421 0
831 1 0.32632 0.892147 0
772 1 0.343384 0.874232 0
802 1 0.3514 0.899424 0
803 1 0.368244 0.880264 0
804 1 0.375116 0.90493 0
805 1 0.392415 0.887274 0
835 1 0.398469 0.911903 0
776 1 0.410237 0.869392 0
806 1 0.416983 0.893705 0
808 1 0.434248 0.876665 0
839 1 0.441505 0.902071 0
1681 1 0.482292 0.889809 0
810 1 0.458153 0.883652 0
840 1 0.465718 0.907998 0
843 1 0.0099278 0.914855 0
842 1 0.00365205 0.940383 0
844 1 0.0267951 0.932757 0
875 1 0.0455406 0.949158 0
845 1 0.0507181 0.924856 0
846 1 0.0684992 0.940932 0
847 1 0.0742772 0.916721 0
848 1 0.0933844 0.932352 0
849 1 0.116185 0.924239 0
879 1 0.110552 0.950105 0
881 1 0.133447 0.941674 0
850 1 0.138838 0.916825 0
852 1 0.156486 0.933719 0
883 1 0.175397 0.950852 0
853 1 0.180785 0.926448 0
824 1 0.205465 0.919908 0
854 1 0.199746 0.943167 0
855 1 0.223946 0.93544 0
826 1 0.248034 0.928636 0
857 1 0.266384 0.945682 0
856 1 0.242127 0.953108 0
828 1 0.27066 0.920667 0
859 1 0.29112 0.934496 0
830 1 0.315547 0.934041 0
833 1 0.356546 0.923359 0
832 1 0.332272 0.915186 0
861 1 0.339302 0.940635 0
863 1 0.363167 0.947402 0
834 1 0.380696 0.930254 0
865 1 0.405825 0.936261 0
864 1 0.387423 0.954104 0
837 1 0.422907 0.918785 0
836 1 0.430064 0.943929 0
838 1 0.447058 0.926993 0
870 1 0.453765 0.950929 0
1711 1 0.490219 0.91453 0
869 1 0.472791 0.932638 0
1712 1 0.495948 0.939502 0
873 1 0.0223145 0.957647 0
3 1 0.0356011 0.999411 0
872 1 0.0168551 0.983108 0
874 1 0.0397377 0.97431 0
5 1 0.0588556 0.99072 0
876 1 0.0626187 0.966566 0
7 1 0.0818821 0.982393 0
877 1 0.086318 0.957158 0
8 1 0.100263 0.999326 0
9 1 0.124609 0.991808 0
878 1 0.105458 0.974712 0
880 1 0.129022 0.96727 0
11 1 0.147065 0.983394 0
882 1 0.151751 0.958805 0
13 1 0.170445 0.974999 0
12 1 0.190998 0.993048 0
15 1 0.214095 0.986108 0
884 1 0.195329 0.968571 0
885 1 0.218704 0.960627 0
17 1 0.256264 0.994267 0
887 1 0.237195 0.977323 0
888 1 0.261139 0.969507 0
858 1 0.286048 0.961233 0
19 1 0.280226 0.986211 0
889 1 0.305684 0.977114 0
860 1 0.32305 0.958712 0
862 1 0.346885 0.965375 0
891 1 0.329514 0.983674 0
892 1 0.354157 0.989988 0
23 1 0.377722 0.99716 0
893 1 0.370999 0.971795 0
895 1 0.395812 0.97944 0
896 1 0.418188 0.986316 0
866 1 0.412227 0.961137 0
867 1 0.436378 0.968706 0
897 1 0.442506 0.992682 0
1771 1 0.486038 0.981492 0
868 1 0.461285 0.974818 0
899 1 0.468292 0.999062 0
1741 1 0.479497 0.95675 0
931 1 0.521708 0.0365873 0
901 1 0.516085 0.0121076 0
902 1 0.539616 0.0191799 0
904 1 0.564374 0.0252813 0
906 1 0.581461 0.00882275 0
935 1 0.587503 0.0330187 0
905 1 0.557942 0.00141767 0
908 1 0.605403 0.0154427 0
939 1 0.629396 0.0216338 0
937 1 0.611916 0.0398307 0
910 1 0.646904 0.00428513 0
941 1 0.653649 0.0290585 0
912 1 0.67091 0.0115947 0
942 1 0.677621 0.0355023 0
943 1 0.694727 0.0174384 0
945 1 0.717782 0.0230132 0
944 1 0.702387 0.0416653 0
914 1 0.741351 0.024893 0
916 1 0.764124 0.01667 0
947 1 0.759471 0.0410314 0
918 1 0.78257 0.0336592 0
919 1 0.80705 0.025539 0
917 1 0.788026 0.00862026 0
1788 1 0.812327 0.000697684 0
951 1 0.82522 0.0423887 0
920 1 0.830689 0.017756 0
922 1 0.84947 0.0344818 0
921 1 0.855945 0.0101967 0
923 1 0.872894 0.0280311 0
924 1 0.895542 0.0197983 0
1792 1 0.878945 0.00256086 0
955 1 0.915753 0.0368203 0
925 1 0.920223 0.0129767 0
926 1 0.939112 0.0293141 0
928 1 0.944856 0.00507557 0
930 1 0.987262 0.0137611 0
959 1 0.964309 0.0224715 0
960 1 0.982199 0.0390623 0
932 1 0.528751 0.0612596 0
961 1 0.510787 0.0791515 0
60 1 0.505036 0.0548413 0
962 1 0.534193 0.0864627 0
933 1 0.546098 0.0436027 0
963 1 0.552489 0.0682247 0
934 1 0.569833 0.0508703 0
965 1 0.575507 0.075023 0
936 1 0.594052 0.057423 0
967 1 0.618534 0.0648816 0
966 1 0.600132 0.0822893 0
938 1 0.635547 0.0465446 0
969 1 0.642315 0.0716389 0
940 1 0.660073 0.0533349 0
970 1 0.666352 0.0777121 0
971 1 0.684037 0.0605698 0
973 1 0.70831 0.0653657 0
972 1 0.690319 0.0850377 0
975 1 0.727183 0.0477808 0
974 1 0.731364 0.0736069 0
946 1 0.753741 0.0650892 0
977 1 0.771409 0.0823794 0
949 1 0.801235 0.0496331 0
948 1 0.777751 0.0573772 0
979 1 0.796035 0.0740608 0
950 1 0.819828 0.0671259 0
980 1 0.838572 0.0839684 0
952 1 0.843546 0.0591295 0
981 1 0.86286 0.0755409 0
954 1 0.891855 0.0443947 0
953 1 0.867973 0.0514313 0
983 1 0.887194 0.0685281 0
984 1 0.905522 0.0859181 0
985 1 0.9103 0.0611132 0
956 1 0.93428 0.0533335 0
986 1 0.92911 0.0773084 0
987 1 0.952707 0.0712672 0
957 1 0.957938 0.0467199 0
958 1 0.97547 0.0635514 0
989 1 0.994256 0.0806336 0
991 1 0.517697 0.104065 0
993 1 0.540966 0.11012 0
992 1 0.523999 0.128067 0
120 1 0.500242 0.121348 0
964 1 0.557931 0.0922699 0
994 1 0.564967 0.11677 0
995 1 0.582347 0.100124 0
996 1 0.588409 0.123399 0
968 1 0.624799 0.088338 0
997 1 0.606561 0.106168 0
998 1 0.630383 0.113138 0
999 1 0.648308 0.096337 0
1000 1 0.654382 0.12045 0
1001 1 0.672694 0.101774 0
1031 1 0.678563 0.126388 0
1002 1 0.696665 0.108932 0
1003 1 0.714004 0.0905129 0
1004 1 0.721059 0.115051 0
976 1 0.765571 0.107442 0
1005 1 0.739774 0.0976406 0
1035 1 0.744969 0.121358 0
978 1 0.814175 0.0914332 0
1007 1 0.789976 0.0985884 0
1006 1 0.782286 0.125505 0
1008 1 0.807949 0.116353 0
1009 1 0.833054 0.107406 0
1010 1 0.851833 0.125418 0
1011 1 0.857207 0.0993099 0
982 1 0.881778 0.0926392 0
1012 1 0.874995 0.117521 0
1013 1 0.899521 0.110734 0
1016 1 0.91847 0.127982 0
1017 1 0.947015 0.095364 0
1015 1 0.922783 0.103464 0
1047 1 0.94225 0.120108 0
988 1 0.970636 0.0875032 0
1018 1 0.96503 0.111896 0
1019 1 0.988813 0.105345 0
1020 1 0.984523 0.129678 0
1022 1 0.530885 0.152353 0
1021 1 0.507231 0.146381 0
1051 1 0.512827 0.170553 0
1023 1 0.548228 0.134536 0
1024 1 0.554124 0.159838 0
1025 1 0.571086 0.142207 0
1055 1 0.578606 0.166448 0
1027 1 0.612888 0.130604 0
1026 1 0.595592 0.148378 0
1028 1 0.619879 0.156125 0
1057 1 0.602471 0.174098 0
1029 1 0.637071 0.137386 0
1059 1 0.643604 0.161725 0
1030 1 0.661326 0.143888 0
1061 1 0.667191 0.167844 0
1032 1 0.685501 0.149826 0
1033 1 0.703315 0.132832 0
1063 1 0.709481 0.157139 0
1034 1 0.727464 0.138989 0
1036 1 0.752558 0.144196 0
1065 1 0.733493 0.162666 0
1066 1 0.758104 0.167825 0
1067 1 0.777299 0.150746 0
1037 1 0.802134 0.140071 0
1038 1 0.799412 0.16437 0
1039 1 0.827225 0.131564 0
1040 1 0.822094 0.15751 0
1041 1 0.846018 0.150184 0
1042 1 0.864203 0.167864 0
1014 1 0.894226 0.135351 0
1043 1 0.870512 0.14319 0
1044 1 0.888295 0.161097 0
1045 1 0.911973 0.151987 0
1046 1 0.9368 0.144678 0
1077 1 0.930468 0.168848 0
1048 1 0.954246 0.160852 0
1049 1 0.960179 0.13656 0
1050 1 0.977889 0.154621 0
151 1 0.996628 0.171829 0
1053 1 0.536371 0.176821 0
1052 1 0.519602 0.194477 0
1081 1 0.502463 0.212065 0
1083 1 0.543487 0.202698 0
1054 1 0.560481 0.184178 0
1056 1 0.584566 0.190323 0
1085 1 0.566998 0.209295 0
1058 1 0.62671 0.179795 0
1087 1 0.609513 0.196932 0
1089 1 0.633697 0.204491 0
1086 1 0.591456 0.215321 0
1060 1 0.650464 0.187439 0
1091 1 0.674656 0.192163 0
1090 1 0.65727 0.211976 0
1062 1 0.691658 0.17416 0
1093 1 0.698471 0.198495 0
1064 1 0.716243 0.180537 0
1094 1 0.722792 0.205146 0
1095 1 0.739993 0.186072 0
1097 1 0.763194 0.195076 0
1096 1 0.74648 0.212376 0
1069 1 0.814716 0.18414 0
1068 1 0.779655 0.177669 0
1098 1 0.787755 0.202105 0
1099 1 0.812041 0.208395 0
1071 1 0.839785 0.175623 0
1070 1 0.834871 0.199835 0
1072 1 0.858237 0.192264 0
1101 1 0.853661 0.217348 0
1075 1 0.906065 0.177548 0
1073 1 0.882604 0.185331 0
1103 1 0.877149 0.209424 0
1074 1 0.900918 0.20169 0
1078 1 0.948596 0.1859 0
1076 1 0.924383 0.19343 0
1107 1 0.942942 0.21056 0
1079 1 0.972106 0.1791 0
1109 1 0.966817 0.202999 0
181 1 0.991573 0.196501 0
1082 1 0.526036 0.220449 0
1111 1 0.50901 0.238838 0
1113 1 0.533557 0.244734 0
1084 1 0.550745 0.227677 0
1114 1 0.557545 0.252658 0
1115 1 0.574805 0.234486 0
1116 1 0.581855 0.258781 0
1088 1 0.615784 0.221783 0
1117 1 0.598575 0.240094 0
1118 1 0.623118 0.246508 0
1119 1 0.639458 0.22966 0
1121 1 0.664272 0.235687 0
1120 1 0.646984 0.253394 0
1092 1 0.681423 0.216542 0
1122 1 0.688786 0.242129 0
1123 1 0.706528 0.224425 0
1124 1 0.711851 0.248896 0
1125 1 0.729417 0.231348 0
1126 1 0.753298 0.238159 0
1155 1 0.735759 0.255632 0
1127 1 0.770495 0.220228 0
1129 1 0.794856 0.226952 0
1128 1 0.777045 0.24463 0
1159 1 0.800259 0.249883 0
1100 1 0.829594 0.226246 0
1130 1 0.82557 0.251503 0
1131 1 0.848595 0.242404 0
1132 1 0.86488 0.259639 0
1102 1 0.870937 0.234745 0
1104 1 0.895097 0.226232 0
1133 1 0.8893 0.251495 0
1105 1 0.919591 0.217862 0
1135 1 0.913851 0.24298 0
1136 1 0.932868 0.26023 0
1106 1 0.937849 0.234396 0
1110 1 0.985596 0.219524 0
1137 1 0.956299 0.252876 0
1108 1 0.960753 0.228124 0
1139 1 0.980576 0.243754 0