ITEM: TIMESTEP
128000
ITEM: NUMBER OF ATOMS
1800
ITEM: BOX BOUNDS pp pp pp
1.2896977613691405e+00 1.6371030223862786e+02
1.2896977613691405e+00 1.6371030223862786e+02
0.0000000000000000e+00 5.5000000000000000e+00
ITEM: ATOMS id type xs ys zs
2 1 0.0116545 0.0051607 0
33 1 0.0288856 0.0227538 0
31 1 0.005381 0.0299287 0
4 1 0.0529988 0.0149127 0
6 1 0.0764068 0.00606254 0
35 1 0.0703821 0.0318417 0
34 1 0.0469616 0.0392484 0
37 1 0.0936326 0.023606 0
39 1 0.118604 0.0163044 0
38 1 0.111602 0.0402035 0
40 1 0.136193 0.0333683 0
10 1 0.142226 0.00838588 0
42 1 0.160558 0.0254328 0
41 1 0.165996 0.000484045 0
73 1 0.179291 0.0423218 0
43 1 0.184489 0.0175372 0
14 1 0.208577 0.0103612 0
44 1 0.203266 0.0353387 0
45 1 0.227319 0.0268446 0
16 1 0.251439 0.0192751 0
886 1 0.233171 0.00236258 0
46 1 0.26938 0.0364329 0
18 1 0.276258 0.0124807 0
49 1 0.293384 0.0292531 0
20 1 0.302984 0.006976 0
51 1 0.318243 0.0278646 0
22 1 0.341765 0.0328813 0
21 1 0.359124 0.0144893 0
890 1 0.334476 0.00923427 0
24 1 0.383082 0.0214361 0
53 1 0.366201 0.038854 0
894 1 0.400798 0.00429341 0
25 1 0.407199 0.0282699 0
26 1 0.4317 0.0338319 0
27 1 0.425826 0.00984774 0
898 1 0.449913 0.0155823 0
29 1 0.473244 0.0233109 0
900 1 0.490745 0.00530591 0
28 1 0.455834 0.0401648 0
30 1 0.497467 0.0307818 0
32 1 0.022965 0.0478652 0
62 1 0.0193964 0.0719184 0
63 1 0.0425253 0.0646952 0
61 1 0.000562175 0.0562431 0
65 1 0.0657573 0.0565146 0
66 1 0.084549 0.0732591 0
64 1 0.0614886 0.081102 0
36 1 0.0888982 0.048879 0
67 1 0.108449 0.0652686 0
69 1 0.131347 0.0575985 0
68 1 0.12649 0.0821892 0
71 1 0.155335 0.0494514 0
72 1 0.174127 0.0664849 0
70 1 0.150067 0.0731618 0
74 1 0.221987 0.0504943 0
103 1 0.19796 0.0589673 0
105 1 0.216599 0.0745582 0
101 1 0.191905 0.0823543 0
75 1 0.245836 0.0434661 0
77 1 0.265267 0.0611791 0
76 1 0.239623 0.0666736 0
137 1 0.257532 0.0837251 0
47 1 0.288639 0.0536023 0
48 1 0.308479 0.0697312 0
78 1 0.284204 0.0777106 0
50 1 0.324986 0.0509738 0
81 1 0.332974 0.0748737 0
52 1 0.349646 0.056935 0
82 1 0.356846 0.0819126 0
55 1 0.390109 0.0457456 0
83 1 0.372945 0.0637053 0
54 1 0.397443 0.0694093 0
57 1 0.438337 0.0588567 0
85 1 0.421512 0.0763488 0
56 1 0.414435 0.0517428 0
87 1 0.444905 0.0837553 0
59 1 0.479792 0.0479271 0
58 1 0.461941 0.0650884 0
89 1 0.486639 0.0717282 0
93 1 0.0378161 0.0892636 0
990 1 0.0141172 0.0974078 0
92 1 0.0330358 0.113986 0
91 1 0.00870656 0.121718 0
94 1 0.0568393 0.10555 0
95 1 0.0799537 0.0979583 0
125 1 0.0753734 0.122906 0
123 1 0.0513266 0.13062 0
96 1 0.099166 0.114396 0
97 1 0.103318 0.0897445 0
98 1 0.122499 0.106328 0
99 1 0.145772 0.0990868 0
100 1 0.168576 0.0912015 0
130 1 0.164092 0.115474 0
129 1 0.140824 0.123745 0
131 1 0.187615 0.107248 0
102 1 0.210847 0.100615 0
133 1 0.206065 0.12459 0
104 1 0.22986 0.116015 0
106 1 0.234476 0.0911116 0
135 1 0.25299 0.108257 0
107 1 0.276963 0.0999262 0
109 1 0.298103 0.110219 0
79 1 0.315135 0.092504 0
108 1 0.277454 0.12511 0
80 1 0.339641 0.0995747 0
110 1 0.321748 0.116912 0
141 1 0.345234 0.124729 0
111 1 0.363015 0.106767 0
113 1 0.380137 0.0876894 0
84 1 0.404697 0.0954027 0
112 1 0.386815 0.112062 0
115 1 0.410807 0.120564 0
86 1 0.428391 0.102012 0
116 1 0.435448 0.126286 0
117 1 0.451984 0.108191 0
88 1 0.469431 0.0896705 0
90 1 0.493831 0.0958872 0
119 1 0.476544 0.11423 0
122 1 0.0277651 0.138331 0
152 1 0.0209885 0.161942 0
121 1 0.00298014 0.146358 0
153 1 0.0455954 0.154625 0
124 1 0.0696366 0.147504 0
155 1 0.0879213 0.163772 0
154 1 0.0646363 0.172397 0
127 1 0.118302 0.131365 0
126 1 0.0938129 0.138919 0
128 1 0.13639 0.148181 0
157 1 0.112259 0.155941 0
158 1 0.131281 0.173826 0
159 1 0.160143 0.139684 0
161 1 0.178906 0.156244 0
160 1 0.155024 0.164821 0
132 1 0.183487 0.131911 0
163 1 0.202586 0.149695 0
134 1 0.22558 0.140323 0
193 1 0.220319 0.166426 0
162 1 0.197154 0.174351 0
136 1 0.266183 0.146623 0
165 1 0.248388 0.131589 0
164 1 0.242626 0.157664 0
167 1 0.270662 0.170776 0
139 1 0.304843 0.134616 0
138 1 0.289321 0.153315 0
169 1 0.31238 0.160094 0
140 1 0.328083 0.142381 0
142 1 0.352483 0.148437 0
171 1 0.33532 0.166986 0
172 1 0.358755 0.173779 0
143 1 0.369611 0.130214 0
114 1 0.393378 0.138117 0
173 1 0.376348 0.156323 0
144 1 0.399877 0.162296 0
145 1 0.417569 0.144932 0
146 1 0.423242 0.168699 0
147 1 0.441716 0.151301 0
118 1 0.459268 0.133565 0
149 1 0.483318 0.139504 0
148 1 0.465981 0.157383 0
150 1 0.489204 0.163833 0
183 1 0.0401963 0.178612 0
182 1 0.0349394 0.202302 0
1080 1 0.0168396 0.186356 0
211 1 0.0112052 0.21006 0
184 1 0.0594723 0.196021 0
185 1 0.0836952 0.189206 0
215 1 0.0777052 0.212218 0
186 1 0.101604 0.206013 0
156 1 0.107062 0.180232 0
187 1 0.125257 0.198504 0
189 1 0.150566 0.189615 0
191 1 0.174052 0.183211 0
190 1 0.167096 0.207044 0
188 1 0.144274 0.213367 0
221 1 0.192218 0.20778 0
192 1 0.212801 0.194004 0
195 1 0.235245 0.203526 0
166 1 0.249547 0.18282 0
196 1 0.258609 0.212007 0
168 1 0.293825 0.177945 0
197 1 0.275454 0.194745 0
199 1 0.29944 0.202361 0
170 1 0.317006 0.184537 0
201 1 0.340872 0.191105 0
200 1 0.323637 0.209225 0
202 1 0.347352 0.216197 0
203 1 0.365181 0.198975 0
174 1 0.382361 0.181175 0
204 1 0.388869 0.204751 0
175 1 0.406295 0.186764 0
177 1 0.447143 0.176205 0
205 1 0.412521 0.21142 0
176 1 0.430333 0.194874 0
178 1 0.453788 0.20201 0
179 1 0.470913 0.182637 0
180 1 0.495622 0.189498 0
209 1 0.478139 0.20817 0
212 1 0.0295392 0.227261 0
241 1 0.0233406 0.251495 0
1140 1 0.00533356 0.234523 0
243 1 0.0484592 0.243605 0
213 1 0.0533283 0.219925 0
214 1 0.0715164 0.236543 0
245 1 0.0901462 0.257103 0
216 1 0.0963806 0.231125 0
217 1 0.118977 0.223098 0
247 1 0.115838 0.250497 0
218 1 0.137539 0.237311 0
219 1 0.159834 0.245567 0
220 1 0.177386 0.228963 0
222 1 0.182278 0.253532 0
194 1 0.218238 0.220769 0
223 1 0.200856 0.237178 0
224 1 0.22417 0.245932 0
225 1 0.241056 0.228937 0
227 1 0.264646 0.236309 0
226 1 0.247389 0.253073 0
198 1 0.282315 0.219678 0
228 1 0.287885 0.244213 0
229 1 0.305518 0.227442 0
230 1 0.311861 0.251947 0
231 1 0.329233 0.233818 0
232 1 0.352405 0.240268 0
261 1 0.335665 0.257832 0
233 1 0.371405 0.222619 0
234 1 0.375948 0.247218 0
235 1 0.394817 0.228696 0
265 1 0.39901 0.253339 0
207 1 0.436213 0.218138 0
206 1 0.41819 0.235388 0
237 1 0.441451 0.242429 0
236 1 0.423815 0.26005 0
208 1 0.459843 0.225782 0
210 1 0.483876 0.232575 0
239 1 0.465756 0.249628 0
240 1 0.490579 0.257 0
242 1 0.0414533 0.267651 0
271 1 0.03684 0.290677 0
1170 1 0.0175074 0.276406 0
1200 1 0.0137998 0.301542 0
244 1 0.0661457 0.261637 0
273 1 0.0610377 0.295671 0
275 1 0.0813435 0.282032 0
246 1 0.103912 0.292493 0
248 1 0.121285 0.274848 0
279 1 0.126121 0.299993 0
249 1 0.141061 0.260847 0
251 1 0.163791 0.270223 0
250 1 0.144859 0.285275 0
281 1 0.168661 0.294235 0
253 1 0.205363 0.261375 0
252 1 0.187164 0.277925 0
254 1 0.210262 0.286292 0
283 1 0.192385 0.302483 0
257 1 0.270701 0.261687 0
255 1 0.228624 0.270109 0
256 1 0.252057 0.277919 0
285 1 0.23377 0.295433 0
287 1 0.257243 0.302548 0
259 1 0.294082 0.270261 0
258 1 0.27594 0.286784 0
289 1 0.299414 0.294227 0
260 1 0.318395 0.276385 0
263 1 0.359662 0.265248 0
262 1 0.342348 0.283578 0
291 1 0.323094 0.300767 0
293 1 0.365956 0.289711 0
264 1 0.383212 0.271998 0
295 1 0.389902 0.296138 0
266 1 0.407092 0.277936 0
238 1 0.448772 0.266837 0
267 1 0.431479 0.28452 0
297 1 0.413948 0.30256 0
268 1 0.455527 0.292199 0
1141 1 0.496959 0.280564 0
269 1 0.472484 0.274032 0
270 1 0.480714 0.298272 0
301 1 0.0214928 0.326073 0
1230 1 0.00334173 0.34184 0
272 1 0.0429268 0.313592 0
303 1 0.0460664 0.337412 0
276 1 0.0841858 0.306559 0
274 1 0.0656343 0.323713 0
305 1 0.0890542 0.332518 0
277 1 0.10785 0.316658 0
278 1 0.131483 0.325048 0
307 1 0.112279 0.341426 0
280 1 0.150525 0.310567 0
311 1 0.154049 0.335593 0
282 1 0.173669 0.319093 0
312 1 0.178458 0.344663 0
284 1 0.215713 0.311656 0
313 1 0.19759 0.328207 0
315 1 0.220715 0.337212 0
286 1 0.239423 0.320058 0
317 1 0.262989 0.328704 0
316 1 0.244509 0.346584 0
288 1 0.281155 0.311825 0
318 1 0.286302 0.336344 0
290 1 0.305572 0.318326 0
319 1 0.311113 0.343761 0
292 1 0.347839 0.307835 0
321 1 0.32881 0.325034 0
323 1 0.3539 0.331264 0
324 1 0.379258 0.338062 0
294 1 0.371522 0.314188 0
325 1 0.403812 0.344543 0
296 1 0.395279 0.320786 0
298 1 0.437682 0.308329 0
327 1 0.420485 0.326931 0
328 1 0.445086 0.332497 0
329 1 0.468753 0.340534 0
299 1 0.462918 0.315555 0
300 1 0.48599 0.323538 0
1201 1 0.492699 0.348142 0
302 1 0.0251973 0.351332 0
332 1 0.0292515 0.376406 0
331 1 0.00544323 0.366806 0
361 1 0.00811087 0.391249 0
304 1 0.0694393 0.347452 0
333 1 0.0485073 0.362231 0
335 1 0.0721477 0.372482 0
334 1 0.0522572 0.386737 0
306 1 0.0924274 0.356673 0
337 1 0.0943835 0.381122 0
308 1 0.115647 0.366588 0
309 1 0.135332 0.350929 0
339 1 0.138838 0.376609 0
310 1 0.158236 0.36096 0
341 1 0.161298 0.385756 0
343 1 0.182096 0.369393 0
314 1 0.201832 0.353844 0
344 1 0.204914 0.378388 0
345 1 0.224882 0.362765 0
375 1 0.228843 0.387609 0
347 1 0.267921 0.354469 0
346 1 0.248773 0.372184 0
377 1 0.273785 0.379033 0
349 1 0.291976 0.361466 0
348 1 0.300995 0.384773 0
350 1 0.318577 0.367317 0
320 1 0.336677 0.34956 0
351 1 0.343325 0.373326 0
322 1 0.360746 0.354938 0
381 1 0.326874 0.391176 0
353 1 0.368935 0.380025 0
355 1 0.385616 0.362454 0
354 1 0.392312 0.387153 0
356 1 0.409033 0.368594 0
326 1 0.427085 0.350609 0
357 1 0.433702 0.37628 0
359 1 0.451449 0.357852 0
358 1 0.457325 0.38302 0
330 1 0.475015 0.366229 0
360 1 0.481907 0.389296 0
1231 1 0.499903 0.37215 0
363 1 0.0323003 0.40125 0
362 1 0.0113249 0.415234 0
364 1 0.03429 0.425703 0
336 1 0.0746584 0.396799 0
365 1 0.0550634 0.411691 0
366 1 0.0772598 0.422101 0
338 1 0.117715 0.390546 0
367 1 0.0972973 0.406804 0
369 1 0.121096 0.415622 0
368 1 0.0999267 0.431081 0
340 1 0.141343 0.401263 0
370 1 0.143267 0.426255 0
371 1 0.163155 0.412386 0
342 1 0.184824 0.395256 0
372 1 0.187629 0.420334 0
373 1 0.207893 0.403855 0
403 1 0.211404 0.427974 0
374 1 0.231118 0.41246 0
376 1 0.252383 0.396589 0
405 1 0.253791 0.421464 0
378 1 0.275162 0.405205 0
379 1 0.310175 0.407602 0
409 1 0.291994 0.423169 0
410 1 0.315502 0.431237 0
352 1 0.351035 0.397556 0
382 1 0.357025 0.422127 0
380 1 0.333331 0.41532 0
383 1 0.374417 0.404535 0
385 1 0.398149 0.412169 0
384 1 0.380576 0.429668 0
387 1 0.415787 0.393844 0
386 1 0.423094 0.41787 0
388 1 0.440348 0.401474 0
419 1 0.44618 0.426607 0
389 1 0.463275 0.408023 0
1261 1 0.487219 0.413813 0
390 1 0.469158 0.432495 0
393 1 0.014041 0.440496 0
423 1 0.0150787 0.464262 0
394 1 0.0361487 0.450759 0
425 1 0.0388601 0.474744 0
395 1 0.0571066 0.436452 0
396 1 0.0599116 0.460737 0
397 1 0.0803323 0.445956 0
427 1 0.0821089 0.471217 0
399 1 0.122643 0.441321 0
398 1 0.102678 0.456771 0
429 1 0.12546 0.465859 0
401 1 0.167175 0.436009 0
400 1 0.145731 0.450468 0
431 1 0.168999 0.460687 0
430 1 0.148766 0.474224 0
402 1 0.189187 0.444679 0
433 1 0.211667 0.453966 0
432 1 0.192361 0.470086 0
404 1 0.234232 0.437047 0
406 1 0.254344 0.451997 0
435 1 0.233519 0.462915 0
436 1 0.257632 0.476234 0
407 1 0.272889 0.437343 0
437 1 0.277168 0.46132 0
408 1 0.297299 0.447033 0
439 1 0.300864 0.471959 0
441 1 0.32008 0.455579 0
411 1 0.339526 0.439724 0
412 1 0.343839 0.464228 0
413 1 0.362057 0.446531 0
415 1 0.404539 0.436247 0
414 1 0.385521 0.454683 0
443 1 0.367718 0.472305 0
416 1 0.410182 0.461016 0
417 1 0.428013 0.444106 0
447 1 0.433944 0.469293 0
418 1 0.45194 0.450767 0
1291 1 0.493942 0.439074 0
420 1 0.476433 0.455904 0
449 1 0.457954 0.474517 0
454 1 0.0202156 0.514221 0
424 1 0.0172951 0.489252 0
455 1 0.0412565 0.499946 0
426 1 0.0622107 0.485198 0
456 1 0.0636725 0.510308 0
457 1 0.08447 0.495668 0
487 1 0.0874775 0.520746 0
428 1 0.105181 0.481573 0
459 1 0.127941 0.48963 0
458 1 0.108338 0.505649 0
489 1 0.130217 0.516161 0
461 1 0.171778 0.484917 0
460 1 0.150533 0.49986 0
462 1 0.173636 0.510919 0
434 1 0.214736 0.479836 0
463 1 0.194374 0.495672 0
464 1 0.217136 0.505521 0
493 1 0.196855 0.521705 0
465 1 0.236896 0.489485 0
467 1 0.26084 0.5005 0
466 1 0.240588 0.515167 0
438 1 0.280355 0.485354 0
469 1 0.304145 0.496636 0
468 1 0.283791 0.510296 0
470 1 0.309092 0.52138 0
440 1 0.325454 0.480676 0
442 1 0.34881 0.488708 0
471 1 0.328262 0.504589 0
473 1 0.355804 0.513441 0
445 1 0.391938 0.479094 0
444 1 0.37387 0.496592 0
475 1 0.397868 0.503692 0
474 1 0.381035 0.521904 0
446 1 0.415945 0.486709 0
477 1 0.422708 0.510408 0
448 1 0.440461 0.493669 0
478 1 0.448719 0.517246 0
450 1 0.482206 0.48053 0
479 1 0.465041 0.499186 0
1381 1 0.48979 0.505197 0
483 1 0.0234507 0.539126 0
482 1 0.00221281 0.552972 0
485 1 0.0434708 0.52459 0
513 1 0.0263837 0.563311 0
484 1 0.0458117 0.548781 0
486 1 0.0664457 0.534781 0
515 1 0.0689548 0.559654 0
517 1 0.0894851 0.544955 0
488 1 0.110727 0.530931 0
519 1 0.112619 0.555834 0
490 1 0.132761 0.54137 0
491 1 0.152962 0.525558 0
521 1 0.156424 0.550261 0
492 1 0.176565 0.536531 0
523 1 0.179975 0.561716 0
494 1 0.199612 0.546137 0
495 1 0.219884 0.530731 0
525 1 0.222356 0.556277 0
496 1 0.242583 0.540233 0
497 1 0.262442 0.525684 0
527 1 0.264034 0.551691 0
499 1 0.305703 0.544998 0
498 1 0.283966 0.535807 0
529 1 0.286302 0.562136 0
472 1 0.335076 0.527577 0
501 1 0.328183 0.551527 0
502 1 0.350239 0.560074 0
503 1 0.360755 0.537795 0
505 1 0.387876 0.545311 0
476 1 0.405782 0.52834 0
506 1 0.413605 0.551775 0
507 1 0.43073 0.534488 0
508 1 0.437647 0.559387 0
509 1 0.454771 0.540972 0
480 1 0.472618 0.523412 0
510 1 0.47856 0.548293 0
1382 1 0.497175 0.529821 0
512 1 0.0294646 0.587782 0
511 1 0.00644937 0.578579 0
541 1 0.00853763 0.604578 0
514 1 0.0489311 0.574008 0
545 1 0.072361 0.584301 0
543 1 0.0516328 0.598828 0
516 1 0.0929893 0.570135 0
518 1 0.115603 0.579825 0
547 1 0.0953972 0.594046 0
548 1 0.117626 0.605644 0
520 1 0.136398 0.565262 0
549 1 0.138305 0.590501 0
522 1 0.158943 0.576173 0
551 1 0.16269 0.601132 0
553 1 0.182554 0.586108 0
524 1 0.202363 0.571601 0
554 1 0.205973 0.596707 0
555 1 0.225653 0.581763 0
526 1 0.243975 0.566336 0
556 1 0.229251 0.606904 0
557 1 0.248166 0.593274 0
528 1 0.267051 0.577398 0
558 1 0.272491 0.601948 0
500 1 0.310145 0.569083 0
559 1 0.291449 0.586082 0
530 1 0.314404 0.59396 0
531 1 0.332949 0.577118 0
532 1 0.337889 0.601784 0
533 1 0.356156 0.584072 0
563 1 0.362521 0.607846 0
504 1 0.37394 0.56598 0
534 1 0.37977 0.590558 0
535 1 0.39674 0.571326 0
536 1 0.40353 0.596131 0
537 1 0.420204 0.57792 0
567 1 0.427286 0.603216 0
538 1 0.443684 0.584709 0
539 1 0.461187 0.567677 0
540 1 0.486186 0.572464 0
569 1 0.468129 0.591356 0
1441 1 0.49222 0.597226 0
542 1 0.0315494 0.613417 0
571 1 0.0125855 0.629803 0
573 1 0.0346506 0.638829 0
546 1 0.0737614 0.609016 0
544 1 0.0546242 0.624259 0
575 1 0.0773823 0.633877 0
574 1 0.0574412 0.650107 0
577 1 0.096718 0.618784 0
579 1 0.121209 0.630475 0
576 1 0.0995576 0.644228 0
550 1 0.141409 0.61609 0
581 1 0.164108 0.625882 0
580 1 0.144571 0.640763 0
611 1 0.167671 0.650914 0
552 1 0.185597 0.611452 0
582 1 0.1887 0.63635 0
583 1 0.209061 0.622092 0
584 1 0.212604 0.646648 0
585 1 0.232572 0.632072 0
586 1 0.256432 0.641878 0
587 1 0.25281 0.617555 0
560 1 0.295809 0.610764 0
589 1 0.276509 0.626486 0
590 1 0.2992 0.63525 0
588 1 0.279946 0.651795 0
561 1 0.319072 0.618369 0
562 1 0.343201 0.626107 0
591 1 0.324605 0.642684 0
593 1 0.349111 0.649834 0
565 1 0.386279 0.61507 0
564 1 0.367346 0.632438 0
595 1 0.392171 0.63891 0
566 1 0.41049 0.620646 0
568 1 0.451131 0.609077 0
596 1 0.416193 0.645486 0
597 1 0.433721 0.627559 0
599 1 0.440524 0.651886 0
570 1 0.474773 0.615538 0
600 1 0.457396 0.633907 0
1471 1 0.481721 0.639831 0
1442 1 0.499066 0.62126 0
572 1 0.0143134 0.654814 0
602 1 0.0175526 0.679247 0
603 1 0.0369266 0.664081 0
633 1 0.0405174 0.688797 0
605 1 0.0799983 0.659028 0
604 1 0.0599398 0.674986 0
606 1 0.0830753 0.684477 0
578 1 0.122533 0.655275 0
607 1 0.103187 0.669221 0
608 1 0.126211 0.680854 0
637 1 0.106085 0.694846 0
609 1 0.14651 0.664708 0
610 1 0.17039 0.675238 0
639 1 0.149887 0.690354 0
612 1 0.193045 0.685688 0
613 1 0.191546 0.660486 0
614 1 0.215319 0.671397 0
615 1 0.236699 0.656933 0
616 1 0.238116 0.681816 0
617 1 0.261064 0.666524 0
647 1 0.262639 0.691634 0
619 1 0.305332 0.659141 0
618 1 0.285928 0.677838 0
620 1 0.311846 0.683221 0
621 1 0.330705 0.667125 0
592 1 0.356216 0.673837 0
622 1 0.339199 0.69128 0
594 1 0.374276 0.656727 0
625 1 0.398852 0.662637 0
623 1 0.380737 0.680639 0
626 1 0.405015 0.687074 0
598 1 0.446858 0.676617 0
627 1 0.42276 0.669636 0
657 1 0.429362 0.694486 0
628 1 0.471184 0.68261 0
629 1 0.463388 0.657366 0
1501 1 0.487683 0.664972 0
630 1 0.495326 0.688005 0
632 1 0.0194507 0.704529 0
663 1 0.0209857 0.729191 0
634 1 0.0412469 0.714797 0
635 1 0.0622581 0.700299 0
636 1 0.0850819 0.709995 0
665 1 0.0654784 0.724972 0
666 1 0.088359 0.735856 0
638 1 0.130363 0.706287 0
667 1 0.108453 0.719773 0
669 1 0.131708 0.731363 0
641 1 0.173049 0.700794 0
640 1 0.153649 0.716172 0
671 1 0.176061 0.72695 0
643 1 0.216093 0.695819 0
642 1 0.196024 0.710685 0
673 1 0.198924 0.736705 0
644 1 0.218983 0.721836 0
645 1 0.237995 0.706392 0
675 1 0.241302 0.732342 0
646 1 0.260204 0.715599 0
649 1 0.293527 0.701365 0
648 1 0.282581 0.722904 0
679 1 0.305312 0.728744 0
650 1 0.319898 0.70788 0
651 1 0.344848 0.71466 0
681 1 0.328848 0.733279 0
653 1 0.363578 0.698183 0
624 1 0.386989 0.704421 0
654 1 0.370314 0.72184 0
685 1 0.394421 0.729054 0
655 1 0.412211 0.711316 0
656 1 0.436872 0.718301 0
686 1 0.419236 0.734943 0
658 1 0.454238 0.700633 0
687 1 0.462716 0.725558 0
659 1 0.478518 0.706289 0
689 1 0.485609 0.732137 0
662 1 0.0236867 0.754322 0
693 1 0.0259615 0.782158 0
691 1 0.00410116 0.769902 0
661 1 0.000821549 0.744567 0
664 1 0.0453504 0.739375 0
694 1 0.0466002 0.764721 0
695 1 0.0684741 0.750801 0
696 1 0.0701873 0.775181 0
697 1 0.0917882 0.760881 0
668 1 0.111429 0.745887 0
698 1 0.114996 0.77129 0
699 1 0.135203 0.75531 0
700 1 0.138915 0.780059 0
670 1 0.156007 0.741707 0
701 1 0.159005 0.767196 0
672 1 0.179855 0.752586 0
702 1 0.182215 0.778588 0
674 1 0.221352 0.747595 0
703 1 0.202349 0.762491 0
705 1 0.225673 0.771928 0
677 1 0.263918 0.739693 0
676 1 0.245574 0.756954 0
707 1 0.269951 0.764577 0
735 1 0.250318 0.782509 0
678 1 0.288049 0.746571 0
709 1 0.294421 0.771054 0
680 1 0.312233 0.752359 0
710 1 0.319145 0.776827 0
652 1 0.3522 0.739295 0
682 1 0.360524 0.764783 0
711 1 0.336392 0.759056 0
683 1 0.376933 0.746449 0
713 1 0.384671 0.770343 0
684 1 0.402308 0.753272 0
716 1 0.407733 0.777959 0
717 1 0.443883 0.742228 0
715 1 0.426116 0.760006 0
718 1 0.451421 0.766866 0
1591 1 0.499447 0.779708 0
690 1 0.492302 0.756753 0
688 1 0.468398 0.750133 0
719 1 0.475521 0.774531 0
692 1 0.00491776 0.796063 0
722 1 0.00545343 0.82189 0
723 1 0.0281379 0.809806 0
725 1 0.0482552 0.790949 0
726 1 0.0714984 0.800197 0
755 1 0.0707937 0.824825 0
727 1 0.0936106 0.786326 0
728 1 0.114969 0.801083 0
757 1 0.0927583 0.813445 0
729 1 0.139875 0.803819 0
730 1 0.162698 0.818228 0
731 1 0.162069 0.792553 0
704 1 0.204329 0.787661 0
732 1 0.184621 0.804058 0
763 1 0.207534 0.813536 0
733 1 0.228936 0.796479 0
734 1 0.231786 0.821245 0
736 1 0.255757 0.807804 0
706 1 0.276137 0.788956 0
737 1 0.283763 0.812655 0
708 1 0.301443 0.795157 0
738 1 0.308826 0.819729 0
741 1 0.342395 0.782666 0
739 1 0.325244 0.801342 0
742 1 0.349769 0.806688 0
712 1 0.36683 0.789504 0
714 1 0.391149 0.79609 0
743 1 0.373909 0.814159 0
745 1 0.398315 0.820331 0
746 1 0.415303 0.801859 0
747 1 0.432593 0.784206 0
748 1 0.438951 0.808944 0
749 1 0.457062 0.791512 0
720 1 0.481252 0.798383 0
750 1 0.463752 0.815935 0
1621 1 0.487592 0.823344 0
753 1 0.0224479 0.839709 0
783 1 0.0182597 0.864546 0
754 1 0.0415454 0.85564 0
752 1 0.000196378 0.848481 0
724 1 0.0447469 0.830166 0
785 1 0.0652912 0.848158 0
786 1 0.0844465 0.86504 0
756 1 0.0902108 0.840454 0
758 1 0.113783 0.831941 0
787 1 0.108321 0.857989 0
789 1 0.132325 0.850366 0
759 1 0.138835 0.827198 0
760 1 0.156525 0.843732 0
791 1 0.174939 0.860895 0
790 1 0.151142 0.867952 0
761 1 0.185575 0.829621 0
762 1 0.198506 0.852488 0
764 1 0.221976 0.846257 0
765 1 0.246404 0.841462 0
795 1 0.240473 0.865427 0
766 1 0.268095 0.85547 0
767 1 0.266582 0.830055 0
769 1 0.315031 0.842975 0
768 1 0.289957 0.837989 0
799 1 0.297665 0.861022 0
740 1 0.332628 0.824831 0
770 1 0.33936 0.851028 0
771 1 0.356042 0.83281 0
773 1 0.363335 0.857489 0
801 1 0.321904 0.868262 0
744 1 0.381247 0.838495 0
774 1 0.386725 0.862063 0
775 1 0.405171 0.845145 0
777 1 0.421614 0.826991 0
807 1 0.428908 0.851128 0
778 1 0.445942 0.833284 0
809 1 0.452421 0.85704 0
776 1 0.411136 0.869097 0
779 1 0.469708 0.840052 0
780 1 0.476834 0.864938 0
1651 1 0.495058 0.846882 0
812 1 0.0130604 0.889678 0
814 1 0.031149 0.906006 0
813 1 0.0365054 0.881786 0
784 1 0.0601921 0.872588 0
815 1 0.0552284 0.897979 0
816 1 0.0787626 0.888641 0
788 1 0.127133 0.875356 0
817 1 0.103185 0.88249 0
819 1 0.120982 0.89993 0
818 1 0.0968026 0.906726 0
821 1 0.168884 0.885187 0
820 1 0.144884 0.893229 0
851 1 0.163301 0.90966 0
793 1 0.216122 0.871093 0
792 1 0.192734 0.879401 0
823 1 0.211355 0.895967 0
822 1 0.187235 0.904629 0
794 1 0.234976 0.88847 0
796 1 0.258906 0.881789 0
827 1 0.255006 0.905694 0
797 1 0.281584 0.877751 0
798 1 0.283788 0.902063 0
800 1 0.304646 0.886821 0
829 1 0.306738 0.912282 0
831 1 0.327637 0.893705 0
772 1 0.345283 0.874881 0
802 1 0.351488 0.899703 0
803 1 0.36961 0.881258 0
804 1 0.375914 0.906392 0
805 1 0.393212 0.887016 0
835 1 0.400003 0.911349 0
806 1 0.417127 0.893216 0
808 1 0.435303 0.875602 0
839 1 0.441144 0.900167 0
1681 1 0.482981 0.889219 0
810 1 0.459055 0.882615 0
840 1 0.466124 0.906927 0
843 1 0.0075725 0.914309 0
842 1 0.00248105 0.939372 0
844 1 0.0256153 0.931776 0
875 1 0.0450746 0.948489 0
873 1 0.0214407 0.956635 0
845 1 0.0498191 0.923079 0
846 1 0.0683196 0.940096 0
847 1 0.0739711 0.9162 0
848 1 0.0935292 0.932422 0
849 1 0.116434 0.924066 0
879 1 0.111354 0.948632 0
881 1 0.134104 0.941882 0
850 1 0.140005 0.917998 0
852 1 0.158248 0.935109 0
883 1 0.177584 0.952171 0
853 1 0.182736 0.927828 0
824 1 0.206739 0.921047 0
854 1 0.200937 0.945843 0
855 1 0.224842 0.938296 0
825 1 0.231059 0.913339 0
826 1 0.249085 0.930658 0
857 1 0.267897 0.947791 0
856 1 0.24405 0.954627 0
828 1 0.272006 0.923089 0
859 1 0.291491 0.938925 0
830 1 0.315487 0.935124 0
833 1 0.357464 0.924669 0
832 1 0.334489 0.917316 0
861 1 0.339969 0.942948 0
863 1 0.364162 0.949114 0
834 1 0.380862 0.930791 0
865 1 0.405589 0.93593 0
864 1 0.388033 0.954244 0
837 1 0.423562 0.918071 0
836 1 0.43065 0.941799 0
838 1 0.447878 0.924056 0
870 1 0.455007 0.949954 0
1741 1 0.479104 0.955759 0
1711 1 0.490153 0.913245 0
869 1 0.472527 0.931336 0
1712 1 0.495683 0.937775 0
3 1 0.0349339 0.998059 0
872 1 0.016407 0.980875 0
874 1 0.0404124 0.973149 0
5 1 0.0583117 0.988984 0
876 1 0.0642885 0.964005 0
7 1 0.0824517 0.980815 0
877 1 0.0878536 0.956535 0
8 1 0.099306 0.999532 0
9 1 0.123227 0.99145 0
878 1 0.105783 0.973376 0
880 1 0.129682 0.967438 0
11 1 0.148091 0.984171 0
882 1 0.153426 0.959881 0
13 1 0.172616 0.976153 0
12 1 0.190214 0.99398 0
15 1 0.214382 0.986603 0
884 1 0.195918 0.969748 0
885 1 0.219182 0.962141 0
17 1 0.25736 0.996067 0
887 1 0.238412 0.978826 0
888 1 0.262072 0.971876 0
858 1 0.287183 0.963551 0
19 1 0.281243 0.987883 0
889 1 0.305079 0.981504 0
860 1 0.321489 0.960396 0
862 1 0.346324 0.966555 0
891 1 0.329485 0.98469 0
892 1 0.353801 0.991126 0
23 1 0.377376 0.997496 0
893 1 0.370422 0.972603 0
895 1 0.395134 0.978086 0
896 1 0.419186 0.986118 0
866 1 0.412945 0.960025 0
867 1 0.437243 0.96663 0
897 1 0.443685 0.990877 0
1771 1 0.484711 0.980395 0
868 1 0.461111 0.973482 0
899 1 0.467432 0.997477 0
931 1 0.521907 0.0373474 0
901 1 0.514488 0.0122509 0
902 1 0.537991 0.0183602 0
904 1 0.563007 0.0256525 0
906 1 0.579552 0.0082949 0
935 1 0.586837 0.0320488 0
905 1 0.556033 0.00101056 0
908 1 0.60384 0.0145856 0
939 1 0.628322 0.0207327 0
937 1 0.61133 0.0390065 0
910 1 0.645983 0.00324366 0
941 1 0.652291 0.0277491 0
912 1 0.669936 0.0105007 0
942 1 0.676866 0.0341054 0
943 1 0.694181 0.0173459 0
945 1 0.717981 0.0235549 0
944 1 0.700637 0.0407366 0
914 1 0.741249 0.0243305 0
916 1 0.765645 0.0163756 0
947 1 0.759883 0.0405263 0
918 1 0.784375 0.034283 0
919 1 0.808611 0.0257847 0
917 1 0.788963 0.00960158 0
1788 1 0.812783 0.000975903 0
920 1 0.832294 0.0182625 0
922 1 0.84975 0.035055 0
921 1 0.855529 0.0104121 0
923 1 0.873995 0.0273743 0
924 1 0.898056 0.0206964 0
1792 1 0.879192 0.0030648 0
955 1 0.916184 0.0377336 0
925 1 0.921733 0.0129004 0
926 1 0.939889 0.0302214 0
928 1 0.944333 0.00575619 0
930 1 0.987412 0.0132826 0
959 1 0.963288 0.022517 0
960 1 0.98257 0.0389163 0
932 1 0.52914 0.0618869 0
961 1 0.511295 0.0790031 0
60 1 0.505212 0.0552278 0
962 1 0.536297 0.087087 0
933 1 0.54659 0.0434095 0
963 1 0.552888 0.0681795 0
934 1 0.570854 0.0513214 0
965 1 0.577015 0.0749316 0
936 1 0.594336 0.0568534 0
967 1 0.617715 0.0639835 0
966 1 0.601413 0.082108 0
938 1 0.634746 0.0464844 0
969 1 0.642343 0.0699815 0
940 1 0.659649 0.0526042 0
970 1 0.666954 0.0777414 0
971 1 0.683843 0.0596114 0
973 1 0.708557 0.0649989 0
972 1 0.69023 0.0833305 0
975 1 0.730534 0.0469678 0
974 1 0.731283 0.0731637 0
946 1 0.754139 0.0651529 0
977 1 0.772442 0.0828797 0
949 1 0.80241 0.0504829 0
948 1 0.777725 0.0583937 0
979 1 0.795997 0.0750086 0
951 1 0.825896 0.0430025 0
950 1 0.820265 0.0682631 0
980 1 0.838167 0.084643 0
952 1 0.844438 0.0593636 0
981 1 0.862045 0.0763671 0
954 1 0.890734 0.0455458 0
953 1 0.86757 0.0521291 0
983 1 0.887232 0.069273 0
984 1 0.905185 0.0873053 0
985 1 0.910407 0.0622089 0
956 1 0.934746 0.0542386 0
986 1 0.929266 0.0793389 0
987 1 0.95329 0.0717557 0
957 1 0.959409 0.0478066 0
958 1 0.977731 0.0637119 0
989 1 0.995117 0.0804907 0
991 1 0.518087 0.104015 0
993 1 0.541609 0.111405 0
992 1 0.524659 0.1286 0
120 1 0.500486 0.121369 0
964 1 0.56038 0.0932608 0
994 1 0.566175 0.118431 0
995 1 0.583684 0.100531 0
996 1 0.589959 0.12431 0
968 1 0.624824 0.0877761 0
997 1 0.607651 0.105907 0
998 1 0.632435 0.112389 0
999 1 0.648954 0.0942762 0
1000 1 0.656339 0.120144 0
1001 1 0.67412 0.102387 0
1031 1 0.680253 0.126813 0
1002 1 0.697751 0.108864 0
1003 1 0.713894 0.0904088 0
1004 1 0.722368 0.115253 0
976 1 0.766004 0.107294 0
1005 1 0.740587 0.0962838 0
1035 1 0.746674 0.122423 0
978 1 0.813589 0.0919618 0
1007 1 0.789399 0.100343 0
1006 1 0.783898 0.124832 0
1008 1 0.807434 0.116698 0
1009 1 0.831485 0.108931 0
1010 1 0.850569 0.125715 0
1011 1 0.856922 0.101345 0
982 1 0.881082 0.0927404 0
1012 1 0.875607 0.117873 0
1013 1 0.899544 0.110671 0
1016 1 0.917414 0.127629 0
1017 1 0.947208 0.0953518 0
1015 1 0.923096 0.10398 0
1047 1 0.942375 0.119657 0
988 1 0.971236 0.0881067 0
1018 1 0.966646 0.111339 0
1019 1 0.990913 0.104936 0
1020 1 0.984858 0.12894 0
1022 1 0.531055 0.153365 0
1021 1 0.506835 0.146894 0
1051 1 0.513019 0.171436 0
1023 1 0.548755 0.13633 0
1024 1 0.55511 0.160001 0
1025 1 0.572524 0.14227 0
1055 1 0.57889 0.167472 0
1027 1 0.614449 0.128991 0
1026 1 0.596018 0.148805 0
1028 1 0.620387 0.153892 0
1057 1 0.603131 0.172423 0
1029 1 0.637827 0.137105 0
1059 1 0.643777 0.161446 0
1030 1 0.662177 0.142847 0
1061 1 0.668004 0.167465 0
1032 1 0.686764 0.149948 0
1033 1 0.70528 0.133146 0
1063 1 0.710646 0.15755 0
1034 1 0.729427 0.13971 0
1036 1 0.75338 0.145929 0
1065 1 0.73436 0.163662 0
1066 1 0.758782 0.170934 0
1067 1 0.777756 0.152039 0
1037 1 0.803697 0.140443 0
1038 1 0.800582 0.164648 0
1039 1 0.827515 0.133539 0
1040 1 0.823939 0.15751 0
1041 1 0.847485 0.1503 0
1042 1 0.865262 0.167331 0
1014 1 0.894321 0.135459 0
1043 1 0.870981 0.142901 0
1044 1 0.889606 0.159879 0
1045 1 0.913474 0.152265 0
1046 1 0.936921 0.144615 0
1077 1 0.931319 0.169372 0
1048 1 0.955188 0.161544 0
1049 1 0.960833 0.136835 0
1050 1 0.978426 0.154351 0
151 1 0.997618 0.170394 0
1053 1 0.537531 0.177741 0
1052 1 0.520403 0.195861 0
1081 1 0.502595 0.214128 0
1083 1 0.544045 0.202669 0
1054 1 0.561256 0.185859 0
1056 1 0.585468 0.191159 0
1085 1 0.567841 0.210344 0
1058 1 0.626368 0.179566 0
1087 1 0.609297 0.197225 0
1089 1 0.633546 0.204522 0
1086 1 0.591858 0.215512 0
1060 1 0.651049 0.185916 0
1091 1 0.674097 0.19332 0
1090 1 0.65705 0.211231 0
1092 1 0.680874 0.21826 0
1062 1 0.69137 0.175418 0
1093 1 0.697727 0.200999 0
1064 1 0.716353 0.181888 0
1094 1 0.72266 0.206808 0
1095 1 0.740734 0.18874 0
1097 1 0.765157 0.19585 0
1096 1 0.747909 0.212916 0
1069 1 0.817972 0.181699 0
1068 1 0.781355 0.178155 0
1098 1 0.788829 0.202003 0
1099 1 0.811724 0.205772 0
1071 1 0.841438 0.174541 0
1070 1 0.835729 0.199263 0
1072 1 0.859949 0.191427 0
1075 1 0.907433 0.177296 0
1073 1 0.883698 0.184384 0
1103 1 0.87767 0.209597 0
1074 1 0.901619 0.201162 0
1078 1 0.949786 0.186003 0
1076 1 0.925774 0.194544 0
1107 1 0.944271 0.210471 0
1079 1 0.972927 0.17883 0
1109 1 0.968161 0.202352 0
181 1 0.991994 0.194737 0
1082 1 0.52717 0.220404 0
1111 1 0.508614 0.238081 0
1113 1 0.531589 0.24496 0
1084 1 0.550362 0.227899 0
1114 1 0.555848 0.251647 0
1115 1 0.57415 0.234518 0
1116 1 0.580411 0.258963 0
1088 1 0.615866 0.221828 0
1117 1 0.598515 0.239336 0
1118 1 0.622499 0.246675 0
1119 1 0.639682 0.229527 0
1121 1 0.663035 0.236059 0
1120 1 0.646285 0.254416 0
1151 1 0.669954 0.260941 0
1122 1 0.687976 0.242492 0
1123 1 0.705483 0.225091 0
1124 1 0.710941 0.249208 0
1125 1 0.729739 0.230784 0
1126 1 0.75402 0.237043 0
1155 1 0.736041 0.255478 0
1127 1 0.772186 0.220447 0
1129 1 0.797866 0.226077 0
1128 1 0.778274 0.244023 0
1159 1 0.801897 0.249547 0
1101 1 0.853406 0.216782 0
1100 1 0.828636 0.224346 0
1130 1 0.825133 0.249602 0
1131 1 0.847988 0.241816 0
1132 1 0.865322 0.258607 0
1102 1 0.871133 0.234329 0
1104 1 0.895356 0.226403 0
1133 1 0.889725 0.251215 0
1105 1 0.919112 0.218463 0
1135 1 0.914401 0.242456 0
1136 1 0.931827 0.25995 0
1106 1 0.937958 0.235158 0
1110 1 0.987175 0.21901 0