ITEM: TIMESTEP
130000
ITEM: NUMBER OF ATOMS
1800
ITEM: BOX BOUNDS pp pp pp
1.3502130961711316e+00 1.6364978690382543e+02
1.3502130961711316e+00 1.6364978690382543e+02
0.0000000000000000e+00 5.5000000000000000e+00
ITEM: ATOMS id type xs ys zs
2 1 0.0106697 0.0041549 0
33 1 0.029291 0.0222175 0
31 1 0.00590734 0.0286711 0
4 1 0.052882 0.014818 0
6 1 0.076351 0.00697697 0
35 1 0.0726049 0.0306891 0
34 1 0.0494094 0.039529 0
37 1 0.0951795 0.0231672 0
39 1 0.118824 0.0161247 0
38 1 0.114832 0.0413311 0
40 1 0.138845 0.0320631 0
10 1 0.143212 0.00709526 0
42 1 0.161548 0.024185 0
73 1 0.179479 0.0414276 0
43 1 0.185241 0.0174331 0
14 1 0.208822 0.0092453 0
44 1 0.203577 0.0338286 0
45 1 0.227419 0.0257697 0
16 1 0.251393 0.0192485 0
886 1 0.233472 0.00207288 0
46 1 0.270265 0.0370396 0
75 1 0.245658 0.04312 0
18 1 0.275879 0.012423 0
49 1 0.294352 0.0292699 0
20 1 0.300999 0.00536631 0
51 1 0.318275 0.0250338 0
22 1 0.341538 0.032947 0
21 1 0.360861 0.0141231 0
890 1 0.336877 0.00893226 0
24 1 0.384272 0.0216489 0
53 1 0.366873 0.0392447 0
894 1 0.401003 0.00378615 0
25 1 0.408088 0.0287282 0
26 1 0.432419 0.0351851 0
27 1 0.425904 0.0106102 0
898 1 0.450199 0.0169899 0
29 1 0.474712 0.0225689 0
900 1 0.491804 0.00482717 0
28 1 0.456666 0.0403476 0
30 1 0.49817 0.0301982 0
32 1 0.0239715 0.0465148 0
62 1 0.0187675 0.0704996 0
63 1 0.0424231 0.063201 0
61 1 0.000843349 0.053378 0
65 1 0.0673993 0.0556019 0
66 1 0.0845933 0.0737089 0
64 1 0.0611118 0.0800387 0
36 1 0.0916022 0.0484867 0
67 1 0.109528 0.0657346 0
69 1 0.133408 0.0577534 0
68 1 0.127238 0.0822917 0
71 1 0.156587 0.0501479 0
72 1 0.174633 0.0668869 0
70 1 0.150246 0.0753011 0
74 1 0.222717 0.0503334 0
103 1 0.198612 0.0587972 0
105 1 0.216958 0.0751932 0
101 1 0.191902 0.0842129 0
77 1 0.264854 0.0611496 0
76 1 0.240388 0.0671817 0
137 1 0.258242 0.0864519 0
47 1 0.288593 0.053535 0
48 1 0.307632 0.069272 0
78 1 0.282814 0.0779164 0
50 1 0.323127 0.0499713 0
81 1 0.332585 0.0740147 0
52 1 0.34945 0.056697 0
82 1 0.356862 0.0817381 0
55 1 0.391047 0.0469661 0
83 1 0.373083 0.0639798 0
54 1 0.39749 0.0706575 0
57 1 0.438437 0.0604812 0
85 1 0.421672 0.0779194 0
56 1 0.415178 0.0527158 0
87 1 0.445658 0.0847767 0
59 1 0.480142 0.046911 0
58 1 0.463443 0.0667466 0
89 1 0.487046 0.0739654 0
93 1 0.0378352 0.0871115 0
990 1 0.0136104 0.0958028 0
92 1 0.0314748 0.112152 0
91 1 0.00818828 0.12008 0
94 1 0.0551588 0.104348 0
95 1 0.0791199 0.0973138 0
125 1 0.0748037 0.122512 0
123 1 0.0503487 0.129358 0
96 1 0.0980754 0.113687 0
97 1 0.104184 0.0894893 0
98 1 0.121986 0.10716 0
99 1 0.145353 0.100281 0
100 1 0.168795 0.0914384 0
130 1 0.163517 0.115534 0
129 1 0.140448 0.125082 0
131 1 0.187429 0.108876 0
102 1 0.210266 0.101183 0
133 1 0.206588 0.127023 0
104 1 0.228559 0.116494 0
106 1 0.234689 0.09256 0
135 1 0.252885 0.110998 0
107 1 0.276507 0.102586 0
109 1 0.298994 0.111178 0
79 1 0.316098 0.0927834 0
108 1 0.2807 0.128176 0
80 1 0.339836 0.0992791 0
110 1 0.322688 0.117401 0
141 1 0.346648 0.124621 0
111 1 0.363335 0.106171 0
113 1 0.380109 0.0881221 0
84 1 0.404539 0.0950086 0
112 1 0.387551 0.11235 0
143 1 0.37051 0.130342 0
115 1 0.410897 0.119861 0
86 1 0.428521 0.102525 0
116 1 0.434806 0.126904 0
117 1 0.451806 0.109564 0
88 1 0.469791 0.0916848 0
90 1 0.492949 0.098939 0
119 1 0.475556 0.115961 0
122 1 0.026579 0.137749 0
152 1 0.0219689 0.161603 0
121 1 0.00295578 0.145437 0
153 1 0.0453387 0.154787 0
124 1 0.0683718 0.147203 0
155 1 0.0870414 0.163752 0
154 1 0.063598 0.172626 0
127 1 0.116257 0.132021 0
126 1 0.0921414 0.139376 0
128 1 0.134236 0.149318 0
157 1 0.110508 0.15669 0
158 1 0.130139 0.173161 0
159 1 0.15853 0.1411 0
161 1 0.176855 0.158059 0
160 1 0.154052 0.165975 0
132 1 0.182386 0.133702 0
163 1 0.200964 0.151803 0
134 1 0.224112 0.145322 0
193 1 0.2209 0.170471 0
136 1 0.264494 0.147354 0
165 1 0.244905 0.134059 0
164 1 0.24483 0.161284 0
167 1 0.270085 0.16987 0
139 1 0.305915 0.135095 0
138 1 0.288859 0.152457 0
169 1 0.311094 0.159823 0
140 1 0.329045 0.142262 0
142 1 0.352876 0.14841 0
171 1 0.335871 0.165715 0
172 1 0.35863 0.173677 0
114 1 0.393866 0.137365 0
173 1 0.376722 0.154498 0
144 1 0.399351 0.161363 0
145 1 0.417134 0.144177 0
146 1 0.422864 0.168255 0
147 1 0.440719 0.15099 0
118 1 0.458867 0.134026 0
149 1 0.482007 0.140908 0
148 1 0.464437 0.158279 0
150 1 0.489483 0.164831 0
183 1 0.03949 0.179824 0
182 1 0.0343969 0.203244 0
1080 1 0.0169833 0.186913 0
211 1 0.0105301 0.211209 0
184 1 0.0587039 0.196418 0
185 1 0.081797 0.188892 0
215 1 0.07706 0.212904 0
186 1 0.101824 0.205236 0
156 1 0.105022 0.180718 0
187 1 0.12512 0.197451 0
189 1 0.148955 0.18954 0
191 1 0.172654 0.182861 0
190 1 0.168229 0.20584 0
188 1 0.143691 0.214512 0
162 1 0.19627 0.176293 0
221 1 0.1934 0.209766 0
192 1 0.211604 0.19556 0
195 1 0.234244 0.203968 0
166 1 0.251683 0.186641 0
196 1 0.25742 0.210748 0
168 1 0.293332 0.177088 0
197 1 0.275932 0.194387 0
199 1 0.300012 0.200019 0
170 1 0.317189 0.183066 0
201 1 0.341245 0.189978 0
200 1 0.323378 0.208195 0
202 1 0.347118 0.215336 0
203 1 0.364969 0.197755 0
174 1 0.382604 0.180015 0
204 1 0.388829 0.204514 0
175 1 0.405816 0.186914 0
177 1 0.447089 0.174729 0
205 1 0.412311 0.210862 0
176 1 0.429669 0.193084 0
178 1 0.453696 0.199582 0
179 1 0.471422 0.182305 0
180 1 0.495576 0.190082 0
209 1 0.478107 0.20728 0
212 1 0.0291062 0.228234 0
241 1 0.0228978 0.251733 0
1140 1 0.00434052 0.235573 0
243 1 0.0488892 0.243919 0
213 1 0.0538759 0.219818 0
214 1 0.0722649 0.23914 0
245 1 0.0909166 0.257246 0
216 1 0.0970801 0.231219 0
217 1 0.120214 0.221713 0
247 1 0.115639 0.252001 0
218 1 0.136881 0.238377 0
219 1 0.159675 0.246564 0
220 1 0.176438 0.228318 0
194 1 0.217074 0.220594 0
222 1 0.18248 0.254337 0
223 1 0.200044 0.238038 0
224 1 0.223087 0.245593 0
225 1 0.240538 0.229002 0
227 1 0.263639 0.235164 0
226 1 0.246542 0.253313 0
198 1 0.281395 0.218689 0
228 1 0.287542 0.242939 0
229 1 0.305165 0.225933 0
230 1 0.310805 0.250569 0
231 1 0.328975 0.232803 0
232 1 0.35272 0.23981 0
261 1 0.334324 0.25705 0
233 1 0.371459 0.221951 0
234 1 0.376593 0.247429 0
235 1 0.395103 0.229303 0
265 1 0.400958 0.254467 0
207 1 0.43647 0.217816 0
206 1 0.419234 0.234972 0
237 1 0.443333 0.242405 0
236 1 0.424411 0.259496 0
208 1 0.460497 0.22433 0
210 1 0.485062 0.231687 0
239 1 0.467526 0.250143 0
240 1 0.491378 0.256311 0
242 1 0.0421781 0.266957 0
271 1 0.0366997 0.2902 0
1170 1 0.0177207 0.276328 0
1200 1 0.0148149 0.303561 0
244 1 0.0659474 0.263365 0
273 1 0.0612987 0.297179 0
275 1 0.0815384 0.281726 0
246 1 0.10375 0.292759 0
248 1 0.121486 0.276794 0
279 1 0.12711 0.301317 0
249 1 0.14111 0.262313 0
251 1 0.164455 0.270559 0
250 1 0.145583 0.285547 0
281 1 0.168793 0.295214 0
253 1 0.205723 0.262745 0
252 1 0.187658 0.279393 0
254 1 0.210935 0.287412 0
283 1 0.192242 0.303808 0
257 1 0.270028 0.261121 0
255 1 0.228834 0.271053 0
256 1 0.2527 0.278428 0
285 1 0.234103 0.296117 0
287 1 0.257625 0.303642 0
259 1 0.293881 0.269035 0
258 1 0.276282 0.285282 0
289 1 0.299782 0.292006 0
260 1 0.317226 0.274769 0
263 1 0.358555 0.264492 0
262 1 0.341613 0.281724 0
291 1 0.322863 0.299491 0
293 1 0.365358 0.289182 0
264 1 0.383073 0.271633 0
295 1 0.390286 0.29536 0
266 1 0.407644 0.278303 0
238 1 0.44876 0.266736 0
267 1 0.431522 0.284982 0
297 1 0.413708 0.302856 0
268 1 0.455415 0.291224 0
1141 1 0.497156 0.280749 0
269 1 0.472793 0.2743 0
270 1 0.479887 0.298619 0
301 1 0.0215913 0.326953 0
1230 1 0.00262777 0.342216 0
272 1 0.041539 0.313184 0
303 1 0.044879 0.337264 0
276 1 0.0834228 0.307979 0
274 1 0.0643002 0.322607 0
305 1 0.0873027 0.332951 0
304 1 0.0675132 0.346851 0
277 1 0.106031 0.317806 0
278 1 0.129556 0.325908 0
307 1 0.109568 0.340993 0
280 1 0.149834 0.310019 0
311 1 0.152578 0.334026 0
282 1 0.172414 0.319795 0
312 1 0.175959 0.344727 0
284 1 0.214962 0.312924 0
313 1 0.1963 0.328683 0
315 1 0.22062 0.337924 0
286 1 0.239275 0.320903 0
317 1 0.264243 0.328225 0
316 1 0.244772 0.345948 0
288 1 0.281729 0.310088 0
318 1 0.287757 0.334242 0
290 1 0.306267 0.316891 0
319 1 0.311193 0.34278 0
292 1 0.346449 0.306217 0
321 1 0.328894 0.324262 0
323 1 0.353098 0.330873 0
324 1 0.376797 0.337658 0
294 1 0.370994 0.313035 0
325 1 0.401046 0.345696 0
296 1 0.395008 0.321251 0
298 1 0.437771 0.309718 0
327 1 0.418936 0.328282 0
328 1 0.443457 0.335634 0
329 1 0.46775 0.341848 0
299 1 0.461404 0.317657 0
300 1 0.484949 0.322588 0
1201 1 0.491538 0.346451 0
302 1 0.0252426 0.351987 0
332 1 0.028075 0.376567 0
331 1 0.00469315 0.366831 0
361 1 0.00710901 0.390119 0
333 1 0.048276 0.362218 0
335 1 0.0714103 0.371777 0
334 1 0.0507986 0.386667 0
306 1 0.0906329 0.357545 0
337 1 0.0936972 0.382235 0
308 1 0.113414 0.366797 0
309 1 0.133885 0.350837 0
339 1 0.137229 0.375786 0
310 1 0.157117 0.359866 0
341 1 0.161269 0.384374 0
343 1 0.181552 0.368813 0
314 1 0.200365 0.35317 0
344 1 0.204456 0.378487 0
345 1 0.224203 0.363188 0
375 1 0.228449 0.387684 0
347 1 0.268528 0.35272 0
346 1 0.248362 0.370844 0
377 1 0.271778 0.378838 0
349 1 0.292371 0.358772 0
348 1 0.296253 0.383571 0
350 1 0.317027 0.366962 0
320 1 0.334708 0.348572 0
351 1 0.341375 0.37186 0
322 1 0.359231 0.354771 0
381 1 0.325128 0.389768 0
353 1 0.365839 0.379095 0
355 1 0.383667 0.362527 0
354 1 0.38952 0.387072 0
356 1 0.407265 0.370357 0
326 1 0.425167 0.352306 0
357 1 0.432218 0.376764 0
359 1 0.450271 0.360692 0
358 1 0.457026 0.383783 0
330 1 0.474702 0.366501 0
360 1 0.482552 0.390365 0
1231 1 0.499566 0.37138 0
363 1 0.0309035 0.400694 0
362 1 0.0101842 0.414615 0
364 1 0.0331452 0.425964 0
336 1 0.0735309 0.397379 0
365 1 0.0540499 0.411159 0
366 1 0.0783391 0.421101 0
338 1 0.116851 0.391409 0
367 1 0.0967669 0.406233 0
369 1 0.121297 0.415519 0
368 1 0.101333 0.429686 0
340 1 0.140765 0.400339 0
370 1 0.144773 0.425056 0
371 1 0.16487 0.410703 0
342 1 0.184378 0.394164 0
372 1 0.18805 0.419077 0
373 1 0.207621 0.403091 0
403 1 0.210377 0.429859 0
374 1 0.231591 0.413601 0
376 1 0.251763 0.396533 0
405 1 0.254764 0.422287 0
378 1 0.275318 0.404569 0
379 1 0.306843 0.405974 0
409 1 0.290797 0.423653 0
410 1 0.313718 0.431335 0
352 1 0.349044 0.397298 0
382 1 0.354952 0.42234 0
380 1 0.331184 0.41413 0
383 1 0.373131 0.405061 0
385 1 0.397068 0.412436 0
384 1 0.37958 0.430559 0
387 1 0.413549 0.394721 0
386 1 0.42179 0.419804 0
388 1 0.439718 0.400922 0
419 1 0.446654 0.424622 0
389 1 0.46374 0.406976 0
1261 1 0.488549 0.414837 0
390 1 0.470427 0.432997 0
393 1 0.0134491 0.440198 0
423 1 0.0163256 0.465252 0
394 1 0.0364536 0.450605 0
425 1 0.0389011 0.475392 0
395 1 0.0565585 0.435844 0
396 1 0.0602439 0.460862 0
397 1 0.0804847 0.445129 0
427 1 0.0827322 0.469606 0
399 1 0.123235 0.439379 0
398 1 0.103195 0.45436 0
429 1 0.12603 0.464711 0
401 1 0.168218 0.43509 0
400 1 0.146902 0.449671 0
431 1 0.170174 0.459507 0
430 1 0.149517 0.473764 0
402 1 0.190056 0.44447 0
433 1 0.212657 0.454998 0
432 1 0.192577 0.471721 0
404 1 0.234769 0.439523 0
406 1 0.253873 0.454318 0
435 1 0.234176 0.467837 0
436 1 0.257435 0.478057 0
407 1 0.272251 0.439455 0
437 1 0.277098 0.463121 0
408 1 0.295945 0.447816 0
439 1 0.300733 0.472042 0
441 1 0.319925 0.457423 0
411 1 0.336809 0.439366 0
412 1 0.343059 0.464961 0
413 1 0.361052 0.447112 0
415 1 0.403702 0.436702 0
414 1 0.386935 0.455319 0
443 1 0.367292 0.472165 0
416 1 0.410317 0.460795 0
417 1 0.428229 0.443612 0
447 1 0.433692 0.469144 0
418 1 0.452526 0.451074 0
1291 1 0.494649 0.439029 0
420 1 0.476782 0.456876 0
449 1 0.458586 0.474089 0
454 1 0.0208361 0.514832 0
424 1 0.0182434 0.490584 0
455 1 0.0425936 0.500588 0
426 1 0.062862 0.485323 0
456 1 0.0660915 0.510122 0
457 1 0.086297 0.494528 0
487 1 0.0885334 0.520239 0
428 1 0.106787 0.480657 0
459 1 0.129625 0.489488 0
458 1 0.10941 0.505708 0
489 1 0.131258 0.51602 0
461 1 0.171771 0.48591 0
460 1 0.151525 0.499831 0
462 1 0.17373 0.510771 0
434 1 0.214769 0.482467 0
463 1 0.194337 0.496409 0
464 1 0.216392 0.507247 0
465 1 0.237783 0.49307 0
467 1 0.260747 0.502554 0
466 1 0.239361 0.517863 0
438 1 0.281527 0.487517 0
469 1 0.305671 0.498353 0
468 1 0.284045 0.511267 0
440 1 0.325294 0.481556 0
442 1 0.349011 0.490953 0
471 1 0.330443 0.506918 0
473 1 0.356099 0.515684 0
445 1 0.392174 0.478947 0
444 1 0.373644 0.496275 0
475 1 0.398525 0.50316 0
446 1 0.41642 0.486248 0
477 1 0.422289 0.510371 0
448 1 0.440424 0.49347 0
478 1 0.447722 0.518142 0
450 1 0.482671 0.481532 0
479 1 0.464262 0.498702 0
1381 1 0.489214 0.505571 0
483 1 0.0243128 0.539037 0
482 1 0.00365365 0.554279 0
485 1 0.0445259 0.525231 0
513 1 0.027173 0.564615 0
452 1 0.000464382 0.530248 0
484 1 0.0476201 0.550035 0
486 1 0.0685127 0.534525 0
515 1 0.0709302 0.559858 0
517 1 0.090612 0.544583 0
488 1 0.111013 0.53074 0
519 1 0.113384 0.555445 0
490 1 0.133851 0.540215 0
491 1 0.154276 0.524924 0
521 1 0.155809 0.550943 0
492 1 0.175742 0.536016 0
523 1 0.178369 0.561899 0
493 1 0.195858 0.521908 0
494 1 0.19824 0.5477 0
495 1 0.218958 0.532242 0
525 1 0.221208 0.557362 0
496 1 0.241716 0.543069 0
497 1 0.261617 0.528656 0
527 1 0.264344 0.552801 0
470 1 0.31033 0.522783 0
499 1 0.305739 0.546376 0
498 1 0.284844 0.535685 0
529 1 0.286122 0.561404 0
472 1 0.336678 0.530949 0
501 1 0.328105 0.55399 0
502 1 0.35088 0.560005 0
474 1 0.381359 0.521814 0
503 1 0.364302 0.539833 0
505 1 0.389161 0.546286 0
476 1 0.405622 0.528278 0
506 1 0.41286 0.553186 0
507 1 0.429996 0.535238 0
508 1 0.436835 0.560204 0
509 1 0.454746 0.541627 0
480 1 0.471291 0.522426 0
510 1 0.478279 0.547526 0
1382 1 0.496166 0.52989 0
512 1 0.0300735 0.588976 0
511 1 0.00612516 0.579503 0
541 1 0.00906085 0.604079 0
514 1 0.05016 0.575571 0
545 1 0.0731237 0.585281 0
543 1 0.0529476 0.600525 0
516 1 0.0929822 0.570298 0
518 1 0.115978 0.580394 0
547 1 0.095922 0.595384 0
548 1 0.119663 0.606424 0
520 1 0.136619 0.565665 0
549 1 0.139415 0.591015 0
522 1 0.159117 0.576258 0
551 1 0.161659 0.601522 0
553 1 0.180579 0.587265 0
524 1 0.20135 0.572577 0
554 1 0.203921 0.596459 0
555 1 0.224601 0.583623 0
526 1 0.244027 0.567985 0
556 1 0.228273 0.607692 0
557 1 0.247657 0.592609 0
528 1 0.266823 0.577664 0
558 1 0.271438 0.602813 0
500 1 0.309149 0.570534 0
559 1 0.290387 0.58582 0
530 1 0.313425 0.594946 0
531 1 0.332777 0.578174 0
532 1 0.337678 0.602261 0
533 1 0.356134 0.585269 0
504 1 0.373889 0.566397 0
534 1 0.379884 0.590612 0
535 1 0.397227 0.57305 0
536 1 0.403584 0.597532 0
537 1 0.420035 0.578226 0
567 1 0.426481 0.602789 0
538 1 0.444287 0.584656 0
568 1 0.451842 0.607967 0
539 1 0.460662 0.565881 0
540 1 0.485428 0.57189 0
569 1 0.468614 0.590227 0
1441 1 0.492442 0.596507 0
542 1 0.0319513 0.614374 0
571 1 0.0108028 0.628023 0
573 1 0.0333766 0.638711 0
546 1 0.0758698 0.610166 0
544 1 0.0551161 0.624976 0
575 1 0.0779286 0.635807 0
574 1 0.0572969 0.650005 0
577 1 0.0989674 0.620438 0
579 1 0.122156 0.631311 0
576 1 0.101313 0.645136 0
550 1 0.142148 0.616541 0
581 1 0.165184 0.626407 0
580 1 0.145209 0.640746 0
611 1 0.167614 0.651181 0
552 1 0.18441 0.611569 0
582 1 0.187669 0.635665 0
583 1 0.207411 0.621523 0
584 1 0.210064 0.646661 0
585 1 0.23032 0.632537 0
586 1 0.254771 0.642944 0
587 1 0.250701 0.617495 0
560 1 0.294597 0.610658 0
589 1 0.275726 0.627472 0
590 1 0.299746 0.635846 0
588 1 0.279861 0.652346 0
563 1 0.362332 0.608999 0
561 1 0.318806 0.619318 0
562 1 0.343409 0.626167 0
591 1 0.325011 0.644462 0
593 1 0.349085 0.650111 0
565 1 0.386359 0.615324 0
564 1 0.36866 0.632737 0
595 1 0.392852 0.639562 0
566 1 0.410405 0.621971 0
596 1 0.417094 0.645462 0
597 1 0.435428 0.625981 0
599 1 0.441157 0.65058 0
570 1 0.475659 0.614381 0
600 1 0.458464 0.632806 0
1471 1 0.481716 0.639634 0
1442 1 0.499292 0.621271 0
572 1 0.0139878 0.653111 0
602 1 0.0173483 0.678542 0
603 1 0.0370165 0.663695 0
633 1 0.0402959 0.688921 0
605 1 0.0805717 0.660877 0
604 1 0.0596884 0.674608 0
606 1 0.0822041 0.686772 0
578 1 0.124165 0.657005 0
607 1 0.102801 0.670104 0
608 1 0.125698 0.682205 0
609 1 0.147438 0.665911 0
610 1 0.170077 0.676289 0
639 1 0.149997 0.690877 0
612 1 0.192724 0.686955 0
613 1 0.190138 0.661667 0
614 1 0.213837 0.672338 0
615 1 0.234717 0.657057 0
616 1 0.238743 0.680872 0
617 1 0.2599 0.666919 0
647 1 0.26175 0.691663 0
619 1 0.305708 0.66032 0
618 1 0.286628 0.67998 0
620 1 0.31419 0.685891 0
621 1 0.331606 0.669091 0
592 1 0.356552 0.67458 0
622 1 0.339235 0.69321 0
594 1 0.374713 0.656211 0
625 1 0.398988 0.663141 0
623 1 0.380631 0.681179 0
626 1 0.405086 0.686896 0
598 1 0.447529 0.675691 0
627 1 0.423471 0.669621 0
657 1 0.430048 0.69329 0
628 1 0.471724 0.68253 0
629 1 0.464599 0.656933 0
1501 1 0.489001 0.664281 0
630 1 0.496704 0.688704 0
632 1 0.02026 0.703966 0
663 1 0.0225525 0.729875 0
634 1 0.0427918 0.714119 0
1560 1 0.000317208 0.718336 0
635 1 0.06266 0.700739 0
636 1 0.085182 0.711221 0
665 1 0.0659202 0.726138 0
666 1 0.0886138 0.736667 0
637 1 0.10608 0.69634 0
638 1 0.129227 0.706372 0
667 1 0.108353 0.721842 0
669 1 0.130872 0.732284 0
641 1 0.17246 0.701923 0
640 1 0.152543 0.716247 0
671 1 0.176097 0.727145 0
643 1 0.216696 0.696433 0
642 1 0.196467 0.711334 0
673 1 0.197893 0.738402 0
644 1 0.219168 0.722036 0
645 1 0.239229 0.705622 0
675 1 0.241906 0.73169 0
646 1 0.260871 0.715187 0
649 1 0.297491 0.704484 0
648 1 0.282662 0.723556 0
679 1 0.305973 0.730342 0
650 1 0.322377 0.710701 0
651 1 0.34662 0.717587 0
681 1 0.329178 0.735479 0
653 1 0.363961 0.699385 0
624 1 0.388258 0.706232 0
654 1 0.370664 0.723371 0
685 1 0.395235 0.729998 0
655 1 0.412837 0.71104 0
656 1 0.436594 0.717921 0
686 1 0.419936 0.736099 0
658 1 0.454934 0.700597 0
687 1 0.462252 0.724368 0
659 1 0.479013 0.706457 0
689 1 0.485329 0.73087 0
662 1 0.0255004 0.754743 0
693 1 0.0265899 0.781984 0
691 1 0.00494934 0.769451 0
661 1 0.0015866 0.743747 0
664 1 0.046499 0.74025 0
694 1 0.0472167 0.767195 0
695 1 0.0675967 0.752678 0
696 1 0.0702811 0.776227 0
697 1 0.0914213 0.762547 0
668 1 0.111132 0.746612 0
698 1 0.114328 0.772499 0
699 1 0.134116 0.756517 0
700 1 0.138088 0.781171 0
670 1 0.155026 0.741251 0
701 1 0.157437 0.766379 0
672 1 0.178361 0.752414 0
702 1 0.181613 0.778328 0
674 1 0.221733 0.747265 0
703 1 0.202007 0.762883 0
705 1 0.225728 0.772197 0
677 1 0.264472 0.741005 0
676 1 0.24519 0.756666 0
707 1 0.268929 0.765509 0
735 1 0.249713 0.781965 0
678 1 0.288692 0.74852 0
709 1 0.292309 0.772627 0
680 1 0.312096 0.75433 0
710 1 0.319134 0.777773 0
652 1 0.353646 0.741826 0
682 1 0.360096 0.765152 0
711 1 0.336403 0.758733 0
683 1 0.377622 0.748555 0
713 1 0.385586 0.772311 0
684 1 0.402068 0.754312 0
716 1 0.409214 0.778851 0
717 1 0.444592 0.742239 0
715 1 0.427306 0.760943 0
718 1 0.451862 0.768178 0
1591 1 0.499707 0.779986 0
690 1 0.492216 0.7565 0
688 1 0.468257 0.749545 0
719 1 0.475328 0.774865 0
692 1 0.00570837 0.795407 0
722 1 0.00574388 0.820515 0
723 1 0.027654 0.807913 0
725 1 0.0492171 0.792486 0
726 1 0.0724971 0.800507 0
755 1 0.0716956 0.824019 0
727 1 0.0937761 0.787532 0
728 1 0.116869 0.799113 0
757 1 0.0947319 0.81355 0
729 1 0.14173 0.805122 0
730 1 0.163497 0.816725 0
731 1 0.161946 0.791144 0
704 1 0.205624 0.788265 0
732 1 0.184874 0.803063 0
763 1 0.207822 0.813851 0
733 1 0.229041 0.797262 0
734 1 0.232816 0.820907 0
736 1 0.253857 0.80684 0
706 1 0.274014 0.790034 0
737 1 0.284717 0.812619 0
708 1 0.301137 0.795465 0
738 1 0.308674 0.82003 0
741 1 0.34315 0.783564 0
739 1 0.324964 0.802215 0
742 1 0.350646 0.809022 0
740 1 0.332706 0.825531 0
712 1 0.366892 0.789635 0
714 1 0.391636 0.797073 0
743 1 0.373974 0.816171 0
745 1 0.399209 0.82166 0
746 1 0.415516 0.802957 0
747 1 0.433722 0.785626 0
748 1 0.440233 0.809164 0
749 1 0.457681 0.792023 0
720 1 0.481457 0.798039 0
750 1 0.464892 0.815891 0
1621 1 0.488426 0.82293 0
753 1 0.0235653 0.838442 0
783 1 0.0181278 0.864492 0
754 1 0.040983 0.85553 0
752 1 0.00033323 0.848105 0
724 1 0.0476199 0.830546 0
785 1 0.0655787 0.847903 0
786 1 0.0840838 0.866697 0
756 1 0.0906362 0.841596 0
758 1 0.113885 0.833548 0
787 1 0.108415 0.859129 0
789 1 0.132496 0.851268 0
759 1 0.139453 0.828569 0
760 1 0.159534 0.841503 0
791 1 0.176432 0.859886 0
790 1 0.15208 0.866364 0
761 1 0.186022 0.829323 0
762 1 0.199335 0.850366 0
764 1 0.222396 0.844404 0
793 1 0.215057 0.869297 0
765 1 0.24702 0.84123 0
795 1 0.238173 0.863071 0
766 1 0.270238 0.855015 0
767 1 0.26713 0.828452 0
769 1 0.315998 0.843787 0
768 1 0.290058 0.837028 0
799 1 0.298164 0.859451 0
770 1 0.339668 0.849699 0
771 1 0.356949 0.833193 0
801 1 0.321397 0.868828 0
773 1 0.363315 0.857023 0
744 1 0.381859 0.839651 0
774 1 0.386614 0.863822 0
775 1 0.405077 0.846697 0
777 1 0.423017 0.828374 0
807 1 0.430114 0.853011 0
778 1 0.447724 0.834614 0
809 1 0.453919 0.858697 0
779 1 0.470739 0.840217 0
780 1 0.477015 0.86472 0
1651 1 0.495237 0.846375 0
812 1 0.012784 0.889336 0
814 1 0.032164 0.905594 0
813 1 0.0368143 0.881754 0
784 1 0.0594586 0.872409 0
815 1 0.0557513 0.898495 0
816 1 0.0803808 0.891176 0
788 1 0.127919 0.875811 0
817 1 0.103346 0.883955 0
819 1 0.122356 0.900218 0
818 1 0.0988382 0.908596 0
821 1 0.168884 0.88478 0
820 1 0.145718 0.892569 0
851 1 0.164053 0.909197 0
792 1 0.192192 0.878198 0
823 1 0.211486 0.895192 0
822 1 0.187833 0.902217 0
794 1 0.234788 0.887678 0
796 1 0.257121 0.879142 0
827 1 0.256469 0.903972 0
825 1 0.232221 0.912174 0
797 1 0.281309 0.876561 0
798 1 0.283252 0.90038 0
800 1 0.303456 0.885445 0
829 1 0.308509 0.911305 0
831 1 0.327878 0.893636 0
772 1 0.345183 0.87451 0
802 1 0.351855 0.898921 0
803 1 0.368737 0.881764 0
804 1 0.375707 0.905628 0
805 1 0.394001 0.886801 0
835 1 0.399699 0.911714 0
776 1 0.411595 0.869513 0
806 1 0.4178 0.89522 0
808 1 0.43537 0.877365 0
839 1 0.441496 0.901036 0
1681 1 0.484004 0.889159 0
810 1 0.459946 0.88275 0
840 1 0.466173 0.907219 0
843 1 0.0070756 0.913797 0
842 1 0.00281207 0.938124 0
844 1 0.026458 0.930235 0
873 1 0.021017 0.955142 0
875 1 0.0452648 0.948012 0
845 1 0.0502435 0.923603 0
846 1 0.0684785 0.940654 0
847 1 0.0737893 0.916362 0
848 1 0.0924972 0.933492 0
849 1 0.116533 0.925855 0
879 1 0.111582 0.950261 0
881 1 0.135785 0.942138 0
850 1 0.140154 0.917541 0
852 1 0.158894 0.93381 0
883 1 0.178024 0.950784 0
853 1 0.182348 0.926895 0
824 1 0.207372 0.919374 0
854 1 0.202154 0.943556 0
855 1 0.225758 0.936615 0
826 1 0.249567 0.928855 0
857 1 0.268242 0.946775 0
856 1 0.243063 0.95321 0
828 1 0.273744 0.923928 0
859 1 0.292677 0.938475 0
830 1 0.316491 0.934636 0
833 1 0.358149 0.923577 0
832 1 0.334159 0.916559 0
861 1 0.339483 0.941612 0
863 1 0.362906 0.948911 0
834 1 0.382261 0.930001 0
865 1 0.406185 0.936664 0
864 1 0.387983 0.954192 0
837 1 0.423811 0.918838 0
836 1 0.429457 0.943446 0
838 1 0.448422 0.924696 0
870 1 0.454283 0.949607 0
1741 1 0.478395 0.956607 0
1711 1 0.490272 0.913843 0
869 1 0.47245 0.93212 0
1712 1 0.496648 0.937642 0
3 1 0.0345233 0.998492 0
872 1 0.0166077 0.980179 0
874 1 0.039736 0.972793 0
5 1 0.0582028 0.989556 0
876 1 0.0634022 0.964583 0
7 1 0.0818378 0.981923 0
877 1 0.0874283 0.957681 0
8 1 0.100133 0.998298 0
9 1 0.124668 0.990734 0
878 1 0.105484 0.974985 0
880 1 0.128891 0.966865 0
41 1 0.167317 0.998923 0
11 1 0.148282 0.98246 0
882 1 0.154031 0.958155 0
13 1 0.172843 0.9752 0
12 1 0.190885 0.992773 0
15 1 0.214297 0.985497 0
884 1 0.197171 0.967791 0
885 1 0.220064 0.961648 0
17 1 0.257289 0.995401 0
887 1 0.23899 0.978094 0
888 1 0.262139 0.971062 0
858 1 0.287157 0.96306 0
19 1 0.282126 0.988187 0
889 1 0.305146 0.980308 0
860 1 0.320261 0.959457 0
862 1 0.344874 0.966347 0
891 1 0.328984 0.985374 0
892 1 0.353189 0.990137 0
23 1 0.377555 0.996858 0
893 1 0.37022 0.9726 0
895 1 0.394348 0.978873 0
896 1 0.418675 0.986147 0
866 1 0.412086 0.96125 0
867 1 0.436886 0.968092 0
897 1 0.443096 0.992337 0
899 1 0.466943 0.998531 0
1771 1 0.485603 0.981124 0
868 1 0.461418 0.973597 0
931 1 0.521714 0.0357978 0
901 1 0.515347 0.0118868 0
902 1 0.538749 0.0170936 0
904 1 0.562971 0.0260484 0
906 1 0.580982 0.00825085 0
935 1 0.587299 0.0327162 0
905 1 0.557053 0.000567639 0
933 1 0.54536 0.0434918 0
908 1 0.604814 0.0151883 0
939 1 0.628988 0.0219882 0
937 1 0.611646 0.0393964 0
910 1 0.646042 0.00474461 0
941 1 0.652148 0.0287194 0
912 1 0.669747 0.0114939 0
942 1 0.678112 0.0358711 0
943 1 0.693971 0.0174352 0
945 1 0.717951 0.0234569 0
944 1 0.701947 0.0416524 0
914 1 0.742616 0.022425 0
916 1 0.765944 0.0158283 0
947 1 0.7606 0.0401851 0
918 1 0.784197 0.0335066 0
919 1 0.807199 0.0273878 0
917 1 0.788953 0.00823915 0
1788 1 0.812485 0.00227251 0
920 1 0.830782 0.0201132 0
922 1 0.84938 0.0370555 0
921 1 0.85335 0.0122041 0
923 1 0.87275 0.0287538 0
924 1 0.895849 0.0217713 0
1792 1 0.876795 0.00431678 0
955 1 0.914939 0.0373281 0
925 1 0.920619 0.0130761 0
926 1 0.938106 0.0292601 0
928 1 0.944691 0.00464645 0
930 1 0.987456 0.0126973 0
959 1 0.962352 0.0209676 0
960 1 0.982355 0.0371821 0
932 1 0.527407 0.0607462 0
961 1 0.510423 0.0800855 0
60 1 0.503099 0.0551184 0
962 1 0.535538 0.086384 0
963 1 0.552299 0.0680851 0
934 1 0.569496 0.0498998 0
965 1 0.576044 0.0733177 0
936 1 0.594317 0.0575903 0
967 1 0.618515 0.0646067 0
966 1 0.600114 0.0817905 0
938 1 0.635621 0.0471607 0
969 1 0.642854 0.0703751 0
940 1 0.661641 0.0541744 0
970 1 0.667319 0.0776141 0
971 1 0.685423 0.0595715 0
973 1 0.709621 0.0660021 0
972 1 0.691391 0.0840164 0
975 1 0.728624 0.046827 0
974 1 0.73291 0.0722623 0
946 1 0.755412 0.0644741 0
977 1 0.772548 0.0817023 0
949 1 0.802861 0.0516161 0
948 1 0.778937 0.0576739 0
979 1 0.796529 0.075712 0
951 1 0.825831 0.0440845 0
950 1 0.820711 0.0691892 0
980 1 0.838939 0.0863853 0
952 1 0.844065 0.0617954 0
981 1 0.862722 0.0780764 0
954 1 0.89197 0.0453833 0
953 1 0.867875 0.0530689 0
983 1 0.88672 0.0698773 0
984 1 0.90539 0.0860589 0
985 1 0.910332 0.0616444 0
956 1 0.934244 0.0540962 0
986 1 0.929505 0.0787586 0
987 1 0.95232 0.0696576 0
957 1 0.958783 0.0439674 0
958 1 0.977243 0.0622468 0
989 1 0.995612 0.0787973 0
988 1 0.970657 0.0870915 0
991 1 0.517788 0.105129 0
993 1 0.542023 0.110807 0
992 1 0.524571 0.129083 0
120 1 0.500626 0.122589 0
964 1 0.559711 0.091919 0
994 1 0.566395 0.117788 0
995 1 0.583465 0.100541 0
996 1 0.590675 0.124275 0
968 1 0.624545 0.0885115 0
997 1 0.608116 0.106403 0
998 1 0.631762 0.113372 0
999 1 0.649475 0.094321 0
1000 1 0.655965 0.120329 0
1001 1 0.673116 0.101963 0
1031 1 0.679929 0.126107 0
1002 1 0.698056 0.107951 0
1003 1 0.716341 0.0905984 0
1004 1 0.722379 0.113419 0
976 1 0.766917 0.105911 0
1005 1 0.744723 0.0942514 0
1035 1 0.746281 0.120468 0
978 1 0.814013 0.0931184 0
1007 1 0.790714 0.101113 0
1006 1 0.784246 0.126401 0
1008 1 0.808289 0.117618 0
1009 1 0.83297 0.109866 0
1010 1 0.851451 0.125487 0
1011 1 0.856957 0.102095 0
982 1 0.881864 0.0939161 0
1012 1 0.875725 0.117493 0
1013 1 0.899763 0.110472 0
1016 1 0.918132 0.127716 0
1017 1 0.947663 0.0948294 0
1015 1 0.923228 0.103337 0
1047 1 0.942764 0.119869 0
1018 1 0.966042 0.111471 0
1019 1 0.989291 0.1037 0
1020 1 0.984831 0.128223 0
1022 1 0.531662 0.153069 0
1021 1 0.506579 0.146895 0
1051 1 0.513627 0.171093 0
1023 1 0.548874 0.13521 0
1024 1 0.555826 0.159419 0
1025 1 0.573462 0.142549 0
1055 1 0.579108 0.166877 0
1027 1 0.614497 0.131173 0
1026 1 0.597056 0.149621 0
1028 1 0.621262 0.156061 0
1057 1 0.603186 0.173603 0
1029 1 0.638507 0.137926 0
1059 1 0.644258 0.163909 0
1030 1 0.662305 0.144421 0
1061 1 0.670102 0.16797 0
1032 1 0.687331 0.149701 0
1033 1 0.705552 0.132329 0
1063 1 0.710887 0.156502 0
1034 1 0.729408 0.138757 0
1036 1 0.753158 0.145668 0
1065 1 0.735345 0.164524 0
1066 1 0.758202 0.170796 0
1067 1 0.777675 0.152415 0
1037 1 0.803512 0.140825 0
1038 1 0.800897 0.16387 0
1039 1 0.828199 0.133751 0
1040 1 0.824098 0.157545 0
1041 1 0.847208 0.149854 0
1042 1 0.865478 0.167138 0
1014 1 0.894387 0.134596 0
1043 1 0.870349 0.141943 0
1044 1 0.888489 0.158703 0
1045 1 0.912844 0.15182 0
1046 1 0.936725 0.143352 0
1077 1 0.932007 0.168126 0
1048 1 0.955454 0.160548 0
1049 1 0.96154 0.136701 0
1050 1 0.97965 0.152767 0
151 1 0.998299 0.169782 0
1053 1 0.537773 0.177275 0
1052 1 0.520111 0.195225 0
1081 1 0.50351 0.214509 0
1083 1 0.544069 0.20167 0
1054 1 0.561336 0.184143 0
1056 1 0.585489 0.190788 0
1085 1 0.568416 0.209452 0
1058 1 0.627024 0.18168 0
1087 1 0.609486 0.198487 0
1089 1 0.634146 0.20597 0
1086 1 0.591644 0.215918 0
1060 1 0.65186 0.186846 0
1091 1 0.675729 0.192911 0
1090 1 0.65881 0.211801 0
1062 1 0.693641 0.175303 0
1093 1 0.699871 0.200458 0
1064 1 0.717535 0.181807 0
1094 1 0.723945 0.207042 0
1095 1 0.740567 0.188904 0
1097 1 0.76472 0.19604 0
1096 1 0.74808 0.212694 0
1069 1 0.816959 0.183625 0
1068 1 0.781706 0.177724 0
1098 1 0.790323 0.200649 0
1099 1 0.81302 0.207896 0
1071 1 0.841145 0.175229 0
1070 1 0.836222 0.199514 0
1072 1 0.860544 0.191101 0
1101 1 0.855831 0.217027 0
1075 1 0.907163 0.176333 0
1073 1 0.883951 0.1833 0
1103 1 0.878649 0.208416 0
1074 1 0.9022 0.200771 0
1078 1 0.950109 0.184826 0
1076 1 0.926125 0.191879 0
1107 1 0.9448 0.209242 0
1105 1 0.920313 0.217477 0
1079 1 0.973751 0.17687 0
1109 1 0.969564 0.201189 0
181 1 0.992892 0.194258 0
1082 1 0.526975 0.219796 0
1111 1 0.508736 0.238276 0
1113 1 0.532695 0.244202 0
1084 1 0.55092 0.226875 0
1114 1 0.556014 0.251307 0
1115 1 0.573905 0.23399 0
1116 1 0.580777 0.258146 0
1088 1 0.615287 0.224134 0
1117 1 0.5974 0.240258 0
1118 1 0.622371 0.246876 0
1119 1 0.64152 0.230048 0
1121 1 0.664623 0.235872 0
1120 1 0.646876 0.254344 0
1151 1 0.671081 0.260104 0
1092 1 0.683086 0.218599 0
1122 1 0.689452 0.24302 0
1123 1 0.706743 0.22537 0
1124 1 0.713264 0.249737 0
1125 1 0.730299 0.231392 0
1126 1 0.753949 0.237287 0
1155 1 0.738079 0.256727 0
1127 1 0.771811 0.219908 0
1129 1 0.796017 0.225281 0
1128 1 0.778005 0.243961 0
1159 1 0.801459 0.248732 0
1100 1 0.832347 0.223323 0
1130 1 0.825657 0.246737 0
1131 1 0.849785 0.241084 0
1132 1 0.867099 0.258519 0
1102 1 0.87361 0.23457 0
1104 1 0.896848 0.225463 0
1133 1 0.891422 0.249961 0
1135 1 0.915268 0.242248 0
1136 1 0.932849 0.259413 0
1106 1 0.939851 0.233926 0
1110 1 0.987173 0.218828 0