ITEM: TIMESTEP
132000
ITEM: NUMBER OF ATOMS
1800
ITEM: BOX BOUNDS pp pp pp
1.3001023417336341e+00 1.6369989765826364e+02
1.3001023417336341e+00 1.6369989765826364e+02
0.0000000000000000e+00 5.5000000000000000e+00
ITEM: ATOMS id type xs ys zs
2 1 0.0108208 0.00555374 0
33 1 0.0302722 0.0212356 0
31 1 0.00612737 0.0299816 0
4 1 0.0539961 0.0144257 0
6 1 0.0777152 0.00532966 0
35 1 0.0724688 0.0301321 0
34 1 0.0483486 0.0384272 0
37 1 0.095756 0.023644 0
39 1 0.119894 0.0160712 0
38 1 0.114778 0.0405942 0
40 1 0.138682 0.0327671 0
10 1 0.143933 0.00772582 0
42 1 0.162763 0.0262211 0
73 1 0.180747 0.0433305 0
41 1 0.168365 0.00126954 0
43 1 0.186223 0.0181807 0
14 1 0.210153 0.010432 0
44 1 0.204679 0.0352146 0
45 1 0.228559 0.0267445 0
16 1 0.252945 0.0195744 0
886 1 0.234842 0.00236509 0
46 1 0.270786 0.0377005 0
18 1 0.275668 0.0120436 0
49 1 0.29416 0.0289532 0
20 1 0.30361 0.005433 0
51 1 0.318195 0.0254429 0
22 1 0.342723 0.0326406 0
21 1 0.359319 0.0137729 0
890 1 0.335343 0.00764376 0
24 1 0.384594 0.0207241 0
53 1 0.366704 0.0381629 0
894 1 0.402124 0.00313513 0
25 1 0.409129 0.0276701 0
26 1 0.432734 0.0351787 0
27 1 0.427084 0.011014 0
898 1 0.4512 0.0171183 0
29 1 0.475087 0.023673 0
900 1 0.492926 0.00625501 0
28 1 0.457247 0.0406763 0
30 1 0.499307 0.0306634 0
32 1 0.0240521 0.0468176 0
62 1 0.0188452 0.0712043 0
63 1 0.0430611 0.0628546 0
61 1 0.000652235 0.0550726 0
65 1 0.066418 0.0554796 0
66 1 0.0840694 0.0724524 0
64 1 0.0600217 0.0799089 0
36 1 0.0904722 0.047318 0
67 1 0.107768 0.0641875 0
69 1 0.132511 0.0580051 0
68 1 0.12649 0.0813638 0
71 1 0.156294 0.0496779 0
72 1 0.175337 0.0674879 0
70 1 0.151217 0.0741722 0
74 1 0.222995 0.0522642 0
103 1 0.19901 0.0604528 0
105 1 0.21721 0.0765722 0
101 1 0.193616 0.085279 0
75 1 0.247096 0.0441845 0
77 1 0.265402 0.0620144 0
76 1 0.240679 0.0695788 0
137 1 0.258733 0.0876036 0
47 1 0.289102 0.0529102 0
48 1 0.307006 0.0676866 0
78 1 0.283608 0.0793588 0
50 1 0.324131 0.048735 0
81 1 0.331322 0.0740356 0
52 1 0.349246 0.0565965 0
82 1 0.355823 0.0809885 0
55 1 0.39074 0.045147 0
83 1 0.373924 0.0634458 0
54 1 0.398128 0.0702425 0
57 1 0.440178 0.0588867 0
85 1 0.422531 0.0770477 0
56 1 0.416151 0.0530466 0
87 1 0.44564 0.0836184 0
59 1 0.481188 0.0477405 0
58 1 0.46409 0.0660621 0
89 1 0.488509 0.072484 0
93 1 0.036895 0.0880189 0
990 1 0.0130876 0.0963841 0
92 1 0.0324712 0.113066 0
91 1 0.00766259 0.120541 0
94 1 0.0554321 0.105143 0
95 1 0.0790015 0.0971676 0
125 1 0.0742196 0.121844 0
123 1 0.0511335 0.130514 0
96 1 0.0983631 0.113287 0
97 1 0.103353 0.0893647 0
98 1 0.121534 0.106202 0
99 1 0.145828 0.0988799 0
100 1 0.170005 0.0914377 0
130 1 0.162907 0.115316 0
129 1 0.140322 0.123728 0
131 1 0.187323 0.109174 0
102 1 0.211057 0.102118 0
133 1 0.205422 0.127364 0
104 1 0.228453 0.119142 0
106 1 0.235013 0.0949301 0
135 1 0.25286 0.112676 0
107 1 0.276147 0.103994 0
109 1 0.298574 0.111768 0
79 1 0.312593 0.0916383 0
108 1 0.280025 0.128227 0
80 1 0.337441 0.0984577 0
110 1 0.321478 0.118093 0
141 1 0.345572 0.124674 0
111 1 0.363005 0.106344 0
113 1 0.380135 0.0887045 0
84 1 0.404813 0.0952881 0
112 1 0.387996 0.113273 0
143 1 0.370747 0.130653 0
115 1 0.412108 0.119558 0
86 1 0.428634 0.101734 0
116 1 0.435516 0.125826 0
117 1 0.452903 0.10816 0
88 1 0.470227 0.0898764 0
90 1 0.494526 0.0966152 0
119 1 0.477042 0.113726 0
122 1 0.0266493 0.137682 0
152 1 0.0220327 0.16192 0
121 1 0.003616 0.145066 0
153 1 0.0451051 0.154156 0
124 1 0.0688225 0.146326 0
155 1 0.0865143 0.163087 0
154 1 0.0628759 0.171285 0
127 1 0.116898 0.130972 0
126 1 0.0932604 0.137679 0
128 1 0.134409 0.148253 0
157 1 0.109967 0.15529 0
158 1 0.128721 0.172175 0
159 1 0.158118 0.140789 0
161 1 0.175331 0.158828 0
160 1 0.152278 0.165075 0
132 1 0.181512 0.134115 0
163 1 0.199646 0.152041 0
134 1 0.222622 0.144963 0
193 1 0.217701 0.169455 0
136 1 0.264854 0.147088 0
165 1 0.244796 0.136107 0
164 1 0.244667 0.161469 0
167 1 0.269584 0.171188 0
139 1 0.304595 0.135636 0
138 1 0.287744 0.153091 0
169 1 0.311338 0.159732 0
140 1 0.3281 0.142631 0
142 1 0.353281 0.147625 0
171 1 0.334913 0.166362 0
172 1 0.360042 0.17232 0
114 1 0.394674 0.137209 0
173 1 0.377714 0.154246 0
144 1 0.401155 0.161323 0
145 1 0.418469 0.143815 0
146 1 0.42509 0.168278 0
147 1 0.443019 0.150537 0
118 1 0.46012 0.131697 0
149 1 0.483326 0.13877 0
148 1 0.46647 0.156322 0
150 1 0.490338 0.164743 0
183 1 0.0394904 0.178784 0
182 1 0.0331635 0.203055 0
1080 1 0.015409 0.185712 0
211 1 0.00961502 0.210112 0
184 1 0.0576275 0.19652 0
185 1 0.0810524 0.188929 0
215 1 0.0757385 0.213087 0
186 1 0.099075 0.205202 0
156 1 0.104369 0.179608 0
187 1 0.122587 0.196565 0
189 1 0.146401 0.190072 0
191 1 0.170541 0.182189 0
190 1 0.165825 0.206622 0
188 1 0.142231 0.215257 0
162 1 0.193643 0.176125 0
221 1 0.192736 0.212908 0
192 1 0.210697 0.193767 0
195 1 0.232807 0.202399 0
166 1 0.25079 0.185942 0
196 1 0.257061 0.211038 0
168 1 0.293578 0.178047 0
197 1 0.276597 0.194983 0
199 1 0.300715 0.201878 0
170 1 0.318 0.183896 0
201 1 0.341741 0.190356 0
200 1 0.324343 0.208778 0
202 1 0.348503 0.215421 0
203 1 0.366235 0.196653 0
174 1 0.383923 0.179655 0
204 1 0.389709 0.204525 0
175 1 0.407252 0.186372 0
177 1 0.449648 0.17442 0
205 1 0.413636 0.211543 0
176 1 0.431116 0.192685 0
178 1 0.455544 0.198948 0
179 1 0.472442 0.181842 0
180 1 0.496468 0.189522 0
209 1 0.478809 0.207064 0
212 1 0.028506 0.227254 0
241 1 0.0241076 0.250565 0
1140 1 0.00529282 0.234861 0
243 1 0.0471238 0.244484 0
213 1 0.0522825 0.22021 0
214 1 0.0704913 0.237103 0
245 1 0.0899755 0.258147 0
216 1 0.0943248 0.230442 0
217 1 0.117755 0.221682 0
247 1 0.112842 0.248437 0
218 1 0.13569 0.238686 0
219 1 0.157625 0.247996 0
220 1 0.174249 0.230481 0
222 1 0.181158 0.255469 0
194 1 0.216253 0.221764 0
223 1 0.198177 0.238344 0
224 1 0.221565 0.245857 0
225 1 0.240139 0.228131 0
227 1 0.264758 0.235909 0
226 1 0.246073 0.253 0
257 1 0.270277 0.261383 0
198 1 0.282641 0.219395 0
228 1 0.288234 0.243228 0
229 1 0.306386 0.226837 0
230 1 0.312104 0.25087 0
231 1 0.330135 0.233282 0
232 1 0.354985 0.23941 0
261 1 0.336263 0.257984 0
233 1 0.372309 0.222333 0
234 1 0.378297 0.24777 0
235 1 0.396601 0.229244 0
265 1 0.401831 0.254516 0
207 1 0.437307 0.217763 0
206 1 0.420419 0.237039 0
237 1 0.444044 0.242694 0
208 1 0.460867 0.225124 0
210 1 0.485111 0.231633 0
239 1 0.467427 0.249913 0
240 1 0.491418 0.256321 0
242 1 0.0416958 0.268337 0
271 1 0.0345876 0.291951 0
1170 1 0.017663 0.274812 0
1200 1 0.0118262 0.301832 0
244 1 0.0652728 0.261396 0
273 1 0.0585446 0.295989 0
275 1 0.0796522 0.281621 0
246 1 0.101268 0.293149 0
248 1 0.117822 0.274172 0
279 1 0.123354 0.301445 0
249 1 0.138629 0.263197 0
251 1 0.16257 0.271719 0
250 1 0.144064 0.287383 0
281 1 0.16734 0.295834 0
253 1 0.204595 0.262929 0
252 1 0.185468 0.279605 0
254 1 0.209287 0.287679 0
255 1 0.227514 0.269901 0
256 1 0.251758 0.278514 0
285 1 0.233088 0.294469 0
287 1 0.256655 0.304024 0
259 1 0.293765 0.269336 0
258 1 0.274654 0.286396 0
289 1 0.299253 0.293794 0
260 1 0.317868 0.275755 0
263 1 0.359839 0.264117 0
262 1 0.341793 0.282422 0
291 1 0.323795 0.300921 0
293 1 0.364848 0.289404 0
264 1 0.38336 0.272325 0
295 1 0.389887 0.296353 0
266 1 0.407677 0.278466 0
236 1 0.425513 0.2606 0
238 1 0.450009 0.267407 0
267 1 0.431477 0.28517 0
297 1 0.414147 0.303554 0
268 1 0.456089 0.290999 0
1141 1 0.497588 0.281264 0
269 1 0.473298 0.273849 0
270 1 0.481019 0.298744 0
301 1 0.0197242 0.326532 0
1230 1 0.00303578 0.343666 0
272 1 0.0404926 0.315004 0
303 1 0.0439987 0.338221 0
276 1 0.0813039 0.307804 0
274 1 0.0633844 0.323673 0
305 1 0.0860704 0.332993 0
277 1 0.105045 0.317752 0
278 1 0.128223 0.325823 0
307 1 0.110309 0.342176 0
280 1 0.148108 0.310901 0
311 1 0.152526 0.335399 0
282 1 0.171243 0.320731 0
312 1 0.17641 0.345597 0
283 1 0.190718 0.304664 0
284 1 0.213751 0.311935 0
313 1 0.194972 0.328816 0
315 1 0.218692 0.335947 0
286 1 0.237226 0.320229 0
317 1 0.261386 0.328295 0
316 1 0.242099 0.345291 0
288 1 0.281373 0.311076 0
318 1 0.28561 0.334797 0
290 1 0.305278 0.318899 0
319 1 0.310572 0.342344 0
292 1 0.347315 0.307356 0
321 1 0.328948 0.324814 0
323 1 0.354137 0.331441 0
324 1 0.377869 0.337973 0
294 1 0.37101 0.313294 0
325 1 0.402016 0.344699 0
296 1 0.395876 0.320227 0
298 1 0.439174 0.309634 0
327 1 0.420223 0.32756 0
328 1 0.444409 0.333573 0
329 1 0.468574 0.340461 0
299 1 0.46245 0.316445 0
300 1 0.486098 0.322702 0
302 1 0.02549 0.352965 0
332 1 0.0289597 0.377886 0
331 1 0.00545518 0.367637 0
304 1 0.0679062 0.347602 0
333 1 0.0481839 0.362836 0
335 1 0.0706901 0.372809 0
334 1 0.0511441 0.387134 0
306 1 0.0909004 0.356884 0
337 1 0.0941741 0.382066 0
308 1 0.113778 0.367431 0
309 1 0.133583 0.351051 0
338 1 0.117677 0.391565 0
339 1 0.136888 0.376489 0
310 1 0.156677 0.361763 0
341 1 0.161192 0.38628 0
343 1 0.181407 0.369059 0
314 1 0.200851 0.353679 0
344 1 0.206063 0.378601 0
345 1 0.224384 0.362125 0
375 1 0.229732 0.387733 0
347 1 0.267985 0.352991 0
346 1 0.247981 0.369698 0
377 1 0.273649 0.378622 0
349 1 0.292348 0.359497 0
348 1 0.298964 0.383757 0
350 1 0.317007 0.365559 0
320 1 0.335098 0.348382 0
351 1 0.341177 0.37201 0
322 1 0.360728 0.355462 0
381 1 0.324719 0.39029 0
353 1 0.365466 0.38053 0
355 1 0.384526 0.363133 0
354 1 0.389853 0.386222 0
356 1 0.408446 0.369482 0
326 1 0.426017 0.351405 0
357 1 0.433253 0.37581 0
359 1 0.450843 0.358647 0
1201 1 0.491975 0.348321 0
358 1 0.456041 0.383155 0
330 1 0.474075 0.36663 0
360 1 0.481092 0.390327 0
1231 1 0.499436 0.37302 0
361 1 0.00835656 0.392121 0
363 1 0.0307421 0.40164 0
362 1 0.0107013 0.416227 0
364 1 0.0329544 0.426207 0
336 1 0.0743441 0.396749 0
365 1 0.0526725 0.411863 0
366 1 0.0769338 0.420581 0
367 1 0.0973955 0.406195 0
369 1 0.120818 0.415561 0
368 1 0.101386 0.431517 0
340 1 0.140496 0.401921 0
370 1 0.142379 0.426231 0
371 1 0.165172 0.410913 0
342 1 0.185268 0.394264 0
372 1 0.188471 0.419234 0
373 1 0.208873 0.403755 0
403 1 0.211136 0.428819 0
374 1 0.233333 0.412052 0
376 1 0.254565 0.396128 0
405 1 0.255435 0.422715 0
378 1 0.281858 0.401684 0
379 1 0.307055 0.408204 0
409 1 0.289923 0.424946 0
410 1 0.313565 0.432844 0
352 1 0.348716 0.398178 0
382 1 0.354474 0.422959 0
380 1 0.330722 0.415374 0
383 1 0.372243 0.405516 0
385 1 0.396386 0.4112 0
384 1 0.378804 0.429908 0
387 1 0.413852 0.394077 0
386 1 0.420062 0.419025 0
388 1 0.438126 0.400713 0
419 1 0.444862 0.425918 0
389 1 0.461414 0.408353 0
1261 1 0.48681 0.415031 0
390 1 0.469469 0.433236 0
393 1 0.0137783 0.441134 0
423 1 0.0161278 0.465505 0
394 1 0.0367277 0.45138 0
425 1 0.0401359 0.476311 0
395 1 0.0569151 0.436475 0
396 1 0.0590484 0.461246 0
397 1 0.0794909 0.445727 0
427 1 0.0814854 0.470331 0
399 1 0.123647 0.442177 0
398 1 0.102072 0.455859 0
429 1 0.125548 0.467258 0
401 1 0.165597 0.435942 0
400 1 0.146729 0.451681 0
431 1 0.169762 0.46093 0
430 1 0.148455 0.475749 0
402 1 0.189451 0.443871 0
433 1 0.212379 0.454868 0
432 1 0.19208 0.46973 0
404 1 0.233811 0.438169 0
406 1 0.252383 0.453516 0
435 1 0.234065 0.469017 0
407 1 0.272668 0.441694 0
437 1 0.275989 0.466261 0
408 1 0.295343 0.450464 0
439 1 0.300307 0.475066 0
441 1 0.318569 0.458389 0
411 1 0.336809 0.440289 0
412 1 0.343607 0.464466 0
413 1 0.361504 0.447629 0
415 1 0.402881 0.43628 0
414 1 0.385764 0.455037 0
443 1 0.367856 0.47242 0
416 1 0.409536 0.461302 0
417 1 0.427293 0.44329 0
447 1 0.434924 0.468445 0
418 1 0.451537 0.450088 0
1291 1 0.493511 0.438869 0
420 1 0.476151 0.457001 0
449 1 0.458863 0.473583 0
454 1 0.0214755 0.514532 0
424 1 0.0190349 0.489693 0
455 1 0.0417361 0.501161 0
426 1 0.0627046 0.486414 0
456 1 0.0649365 0.510657 0
457 1 0.085744 0.495053 0
487 1 0.0877406 0.520887 0
428 1 0.10561 0.481143 0
459 1 0.127997 0.492172 0
458 1 0.108522 0.506327 0
489 1 0.130556 0.516923 0
461 1 0.171913 0.485171 0
460 1 0.151414 0.50103 0
462 1 0.174428 0.510464 0
434 1 0.213776 0.481402 0
463 1 0.194282 0.495782 0
464 1 0.217076 0.506886 0
493 1 0.196519 0.521063 0
436 1 0.257426 0.480286 0
465 1 0.236576 0.492831 0
467 1 0.260546 0.504378 0
466 1 0.239075 0.517515 0
438 1 0.280961 0.490895 0
469 1 0.306536 0.498795 0
468 1 0.284518 0.514372 0
440 1 0.324417 0.482622 0
442 1 0.349315 0.488878 0
471 1 0.331674 0.507791 0
473 1 0.355451 0.514102 0
445 1 0.392297 0.479712 0
444 1 0.372967 0.495944 0
475 1 0.398776 0.503873 0
474 1 0.380053 0.520857 0
446 1 0.416456 0.486423 0
477 1 0.42371 0.509808 0
448 1 0.441593 0.492124 0
478 1 0.448096 0.516897 0
450 1 0.483988 0.480971 0
479 1 0.465793 0.498076 0
1381 1 0.490597 0.505254 0
483 1 0.023789 0.5383 0
482 1 0.00392235 0.553421 0
485 1 0.0445238 0.525537 0
452 1 0.000785649 0.528584 0
513 1 0.0264765 0.563652 0
484 1 0.0466426 0.550197 0
486 1 0.0678237 0.53575 0
515 1 0.0694743 0.561034 0
517 1 0.089817 0.545872 0
488 1 0.110604 0.532907 0
519 1 0.11361 0.556775 0
490 1 0.134179 0.541671 0
491 1 0.154842 0.526147 0
521 1 0.156577 0.552217 0
492 1 0.176555 0.536718 0
523 1 0.179392 0.562808 0
494 1 0.198894 0.546918 0
495 1 0.219107 0.532103 0
525 1 0.220991 0.557217 0
496 1 0.241024 0.543473 0
497 1 0.261064 0.528671 0
527 1 0.263383 0.554622 0
470 1 0.31166 0.523669 0
499 1 0.30528 0.546623 0
498 1 0.283015 0.539016 0
529 1 0.287537 0.562879 0
472 1 0.336783 0.532745 0
501 1 0.327016 0.555937 0
502 1 0.350385 0.561665 0
503 1 0.361732 0.539066 0
505 1 0.388237 0.546666 0
476 1 0.404929 0.527643 0
506 1 0.412474 0.552286 0
507 1 0.429969 0.535259 0
508 1 0.437879 0.559087 0
509 1 0.456842 0.541711 0
480 1 0.472183 0.52288 0
510 1 0.479632 0.548053 0
1382 1 0.497317 0.529875 0
512 1 0.029774 0.589829 0
511 1 0.00660138 0.578393 0
541 1 0.0100023 0.604112 0
514 1 0.0493525 0.575871 0
545 1 0.0724575 0.585621 0
543 1 0.0527964 0.601241 0
516 1 0.0929001 0.570466 0
518 1 0.116519 0.581962 0
547 1 0.0954613 0.595288 0
548 1 0.119506 0.606464 0
520 1 0.136869 0.566231 0
549 1 0.139496 0.591623 0
522 1 0.159002 0.57705 0
551 1 0.161037 0.602717 0
553 1 0.181113 0.588218 0
524 1 0.201483 0.572256 0
554 1 0.204931 0.597442 0
555 1 0.223525 0.582641 0
556 1 0.227496 0.608079 0
526 1 0.244452 0.568952 0
557 1 0.24822 0.593036 0
528 1 0.268486 0.57939 0
558 1 0.271487 0.605282 0
500 1 0.309475 0.572719 0
559 1 0.29065 0.588843 0
530 1 0.313272 0.597554 0
531 1 0.332099 0.580109 0
532 1 0.336866 0.603645 0
533 1 0.355106 0.585945 0
504 1 0.373103 0.567251 0
534 1 0.379214 0.591261 0
535 1 0.396721 0.571687 0
536 1 0.403105 0.597319 0
537 1 0.421291 0.578259 0
567 1 0.427122 0.602445 0
538 1 0.445299 0.585161 0
539 1 0.462386 0.566467 0
540 1 0.48635 0.572891 0
569 1 0.46961 0.591057 0
1441 1 0.493974 0.597709 0
542 1 0.0323991 0.615935 0
571 1 0.0121601 0.629392 0
573 1 0.0350287 0.64032 0
546 1 0.0756525 0.611765 0
544 1 0.0558348 0.626501 0
575 1 0.0783946 0.637277 0
574 1 0.0579337 0.65247 0
577 1 0.0992483 0.620223 0
579 1 0.121428 0.632039 0
576 1 0.101135 0.646422 0
550 1 0.141473 0.617292 0
581 1 0.165148 0.628275 0
580 1 0.144055 0.642684 0
552 1 0.184296 0.612461 0
582 1 0.187952 0.637707 0
583 1 0.207113 0.623447 0
584 1 0.210406 0.647419 0
585 1 0.22986 0.632981 0
586 1 0.253048 0.643342 0
587 1 0.250496 0.619277 0
560 1 0.2947 0.613892 0
589 1 0.274413 0.630733 0
590 1 0.299153 0.639967 0
563 1 0.361152 0.610014 0
561 1 0.318617 0.622875 0
562 1 0.343567 0.627381 0
591 1 0.325157 0.647057 0
593 1 0.349876 0.651525 0
565 1 0.385729 0.615221 0
564 1 0.368238 0.634127 0
595 1 0.392349 0.639758 0
568 1 0.451339 0.608738 0
566 1 0.409197 0.622084 0
596 1 0.416827 0.645898 0
597 1 0.433328 0.626361 0
599 1 0.440171 0.651515 0
570 1 0.47557 0.615691 0
600 1 0.457338 0.632962 0
1471 1 0.48211 0.640205 0
572 1 0.0155725 0.6537 0
602 1 0.0178407 0.678762 0
603 1 0.0380776 0.665148 0
633 1 0.0398868 0.690484 0
605 1 0.0814856 0.661397 0
604 1 0.0620841 0.676549 0
606 1 0.0833398 0.687825 0
578 1 0.123772 0.657759 0
607 1 0.10382 0.67236 0
608 1 0.126819 0.68228 0
611 1 0.167719 0.652399 0
609 1 0.146819 0.667638 0
610 1 0.169282 0.677754 0
639 1 0.148707 0.692889 0
612 1 0.192329 0.68753 0
613 1 0.189676 0.663268 0
614 1 0.212651 0.671814 0
615 1 0.232647 0.657489 0
616 1 0.236604 0.681111 0
617 1 0.257987 0.666775 0
647 1 0.259198 0.692055 0
588 1 0.281221 0.65787 0
619 1 0.306569 0.664056 0
618 1 0.289037 0.682172 0
620 1 0.314588 0.688335 0
621 1 0.332019 0.670794 0
592 1 0.356588 0.675928 0
622 1 0.339598 0.694627 0
594 1 0.37447 0.657212 0
625 1 0.398328 0.663458 0
623 1 0.38096 0.682354 0
626 1 0.405886 0.688261 0
598 1 0.447381 0.675893 0
627 1 0.423212 0.670435 0
657 1 0.429926 0.694049 0
628 1 0.47205 0.682486 0
629 1 0.464334 0.6582 0
1501 1 0.489927 0.663662 0
630 1 0.49689 0.687406 0
632 1 0.0198066 0.70471 0
663 1 0.0219926 0.72968 0
634 1 0.0426061 0.715252 0
635 1 0.0635318 0.70179 0
636 1 0.0868101 0.713023 0
665 1 0.0659693 0.725663 0
666 1 0.0891885 0.736718 0
637 1 0.107163 0.696545 0
638 1 0.129332 0.706503 0
667 1 0.110561 0.721485 0
669 1 0.13234 0.732136 0
641 1 0.172745 0.702017 0
640 1 0.15231 0.717081 0
671 1 0.175762 0.727335 0
643 1 0.215657 0.697211 0
642 1 0.1955 0.713066 0
673 1 0.19792 0.739115 0
644 1 0.218146 0.721356 0
645 1 0.237804 0.706384 0
675 1 0.239698 0.731563 0
646 1 0.259496 0.717022 0
649 1 0.298784 0.705924 0
648 1 0.282659 0.724146 0
679 1 0.306596 0.730284 0
650 1 0.323006 0.711999 0
651 1 0.347238 0.717274 0
681 1 0.3295 0.73555 0
653 1 0.364231 0.700245 0
624 1 0.388394 0.70629 0
654 1 0.37142 0.724469 0
685 1 0.39633 0.730529 0
655 1 0.41285 0.712591 0
656 1 0.436628 0.718651 0
686 1 0.41997 0.736351 0
658 1 0.453945 0.700302 0
687 1 0.461664 0.724902 0
659 1 0.479148 0.706899 0
689 1 0.484899 0.731039 0
662 1 0.0254314 0.754212 0
693 1 0.0284689 0.780686 0
691 1 0.00545285 0.769381 0
661 1 0.00154807 0.744156 0
664 1 0.0462244 0.740645 0
694 1 0.047849 0.765197 0
695 1 0.0682438 0.751107 0
696 1 0.0703802 0.775885 0
697 1 0.0914225 0.76185 0
668 1 0.112059 0.745825 0
698 1 0.11433 0.771366 0
699 1 0.134629 0.756173 0
700 1 0.136823 0.781161 0
670 1 0.154773 0.741826 0
701 1 0.157785 0.766217 0
672 1 0.177671 0.7524 0
702 1 0.180411 0.779003 0
674 1 0.220739 0.747177 0
703 1 0.200087 0.763687 0
705 1 0.225099 0.771902 0
677 1 0.264479 0.741411 0
676 1 0.244325 0.755861 0
707 1 0.268503 0.764644 0
735 1 0.249218 0.780162 0
678 1 0.289039 0.747586 0
709 1 0.293429 0.771502 0
680 1 0.313381 0.754166 0
710 1 0.319547 0.777047 0
652 1 0.354065 0.742302 0
682 1 0.361891 0.76626 0
711 1 0.337323 0.759092 0
683 1 0.378865 0.748258 0
713 1 0.384671 0.772629 0
684 1 0.403269 0.755767 0
716 1 0.409634 0.780019 0
717 1 0.444298 0.742332 0
715 1 0.42704 0.760396 0
718 1 0.45148 0.766777 0
1591 1 0.499523 0.779606 0
690 1 0.492523 0.755343 0
688 1 0.467774 0.748917 0
719 1 0.474987 0.772912 0
692 1 0.00907289 0.796562 0
722 1 0.00579614 0.82214 0
723 1 0.0298309 0.812464 0
725 1 0.0506126 0.792271 0
726 1 0.0746673 0.800303 0
755 1 0.0726913 0.824718 0
727 1 0.0941754 0.786301 0
728 1 0.115297 0.797857 0
757 1 0.0957475 0.814662 0
729 1 0.13915 0.804455 0
730 1 0.162362 0.81758 0
731 1 0.159722 0.791305 0
704 1 0.204596 0.788231 0
732 1 0.182611 0.803548 0
763 1 0.206377 0.812582 0
733 1 0.228424 0.795322 0
734 1 0.230634 0.820425 0
736 1 0.252793 0.805604 0
706 1 0.274437 0.78803 0
737 1 0.284149 0.809948 0
708 1 0.3022 0.793793 0
738 1 0.30755 0.818586 0
741 1 0.343545 0.783427 0
739 1 0.325851 0.802001 0
742 1 0.349498 0.808455 0
740 1 0.33179 0.825345 0
712 1 0.366561 0.791251 0
714 1 0.392051 0.797038 0
743 1 0.374191 0.815174 0
745 1 0.399579 0.822196 0
746 1 0.416665 0.804229 0
747 1 0.433782 0.785334 0
748 1 0.44066 0.809415 0
749 1 0.458235 0.791469 0
720 1 0.482282 0.797509 0
750 1 0.464768 0.814908 0
1621 1 0.488865 0.822345 0
753 1 0.0244507 0.838426 0
783 1 0.0193261 0.865307 0
754 1 0.0426538 0.855321 0
752 1 0.00132986 0.84806 0
724 1 0.0486177 0.830281 0
785 1 0.0668176 0.847804 0
786 1 0.0848984 0.86541 0
756 1 0.0911121 0.840371 0
758 1 0.114191 0.833326 0
787 1 0.109167 0.857632 0
789 1 0.132703 0.851148 0
759 1 0.138688 0.827898 0
760 1 0.157309 0.842955 0
791 1 0.17445 0.861155 0
790 1 0.151505 0.868383 0
761 1 0.182261 0.83129 0
762 1 0.196776 0.851784 0
764 1 0.221297 0.843995 0
793 1 0.215024 0.867961 0
765 1 0.246415 0.839095 0
795 1 0.239324 0.86212 0
766 1 0.269631 0.854465 0
767 1 0.26676 0.826004 0
769 1 0.315577 0.842591 0
768 1 0.289624 0.835957 0
799 1 0.297492 0.859205 0
770 1 0.339162 0.849287 0
771 1 0.356341 0.831179 0
801 1 0.321447 0.867026 0
773 1 0.362698 0.85651 0
744 1 0.381101 0.839306 0
774 1 0.388187 0.863895 0
775 1 0.405615 0.846128 0
777 1 0.423392 0.828073 0
807 1 0.429007 0.852549 0
778 1 0.447637 0.83379 0
809 1 0.452641 0.859063 0
779 1 0.471103 0.839691 0
780 1 0.47668 0.864807 0
1651 1 0.495729 0.847089 0
812 1 0.0141103 0.889678 0
814 1 0.0323451 0.906708 0
813 1 0.0374122 0.881344 0
784 1 0.0609643 0.873335 0
815 1 0.0551286 0.898739 0
816 1 0.0805382 0.890498 0
788 1 0.127418 0.875066 0
817 1 0.103539 0.882973 0
819 1 0.121503 0.900211 0
818 1 0.0986446 0.908149 0
821 1 0.168784 0.885961 0
820 1 0.145838 0.892825 0
851 1 0.164035 0.910003 0
792 1 0.193072 0.877383 0
823 1 0.210511 0.893495 0
822 1 0.187406 0.901509 0
794 1 0.234178 0.886088 0
796 1 0.257959 0.877568 0
827 1 0.25377 0.902343 0
825 1 0.229447 0.910407 0
797 1 0.281662 0.876967 0
798 1 0.285329 0.901029 0
800 1 0.304869 0.884338 0
829 1 0.310231 0.910259 0
831 1 0.328593 0.891599 0
772 1 0.34561 0.873937 0
802 1 0.351971 0.900048 0
803 1 0.368255 0.881661 0
804 1 0.376138 0.90601 0
805 1 0.392958 0.888129 0
835 1 0.40017 0.912963 0
776 1 0.411622 0.869973 0
806 1 0.417502 0.894665 0
808 1 0.435036 0.877377 0
839 1 0.442433 0.900983 0
1681 1 0.48436 0.889363 0
810 1 0.460012 0.883504 0
840 1 0.467046 0.907548 0
843 1 0.00798691 0.914015 0
842 1 0.00273266 0.939054 0
844 1 0.0262527 0.931341 0
873 1 0.0208525 0.956478 0
875 1 0.0448382 0.948547 0
845 1 0.0515182 0.923894 0
846 1 0.0695667 0.94009 0
847 1 0.0749285 0.91508 0
848 1 0.0929201 0.931646 0
849 1 0.117091 0.924957 0
879 1 0.111513 0.948656 0
881 1 0.135747 0.94189 0
850 1 0.140205 0.916952 0
852 1 0.158982 0.934099 0
883 1 0.176563 0.951337 0
853 1 0.182878 0.926505 0
824 1 0.205906 0.918904 0
854 1 0.200012 0.943959 0
855 1 0.224291 0.934944 0
826 1 0.247621 0.927772 0
857 1 0.267513 0.944542 0
856 1 0.243042 0.953236 0
828 1 0.272243 0.920154 0
859 1 0.290903 0.935032 0
830 1 0.315677 0.934959 0
833 1 0.359947 0.923814 0
832 1 0.33452 0.917662 0
861 1 0.340412 0.941421 0
863 1 0.365024 0.948116 0
834 1 0.38284 0.930666 0
865 1 0.406563 0.937508 0
864 1 0.389352 0.955536 0
837 1 0.424566 0.918342 0
836 1 0.430001 0.943842 0
838 1 0.448648 0.925161 0
870 1 0.454512 0.949623 0
1711 1 0.490677 0.914275 0
869 1 0.472192 0.932131 0
1712 1 0.497049 0.93915 0
3 1 0.0339536 0.997595 0
872 1 0.016012 0.980224 0
874 1 0.0399397 0.973233 0
5 1 0.058103 0.989408 0
876 1 0.0647077 0.964127 0
7 1 0.0831887 0.97977 0
877 1 0.0883552 0.955556 0
8 1 0.101068 0.997722 0
9 1 0.125975 0.991007 0
878 1 0.107295 0.973773 0
880 1 0.130419 0.966089 0
11 1 0.149509 0.983322 0
882 1 0.15408 0.95833 0
13 1 0.173019 0.976209 0
12 1 0.191817 0.993062 0
15 1 0.215469 0.985905 0
884 1 0.196768 0.968446 0
885 1 0.219482 0.960556 0
17 1 0.257961 0.99453 0
887 1 0.239528 0.977309 0
888 1 0.263659 0.969603 0
858 1 0.28703 0.96088 0
19 1 0.282417 0.987264 0
889 1 0.305507 0.9785 0
860 1 0.322961 0.959659 0
862 1 0.346592 0.965296 0
891 1 0.329095 0.983797 0
892 1 0.353989 0.989605 0
23 1 0.377594 0.997189 0
893 1 0.371378 0.971805 0
895 1 0.395745 0.979462 0
896 1 0.420127 0.985889 0
866 1 0.413848 0.961613 0
867 1 0.438188 0.9688 0
897 1 0.444209 0.992924 0
899 1 0.468258 0.998858 0
1741 1 0.478146 0.956166 0
868 1 0.461987 0.975261 0
1771 1 0.48617 0.981781 0
931 1 0.523759 0.0367378 0
901 1 0.516787 0.0119453 0
902 1 0.540916 0.0195549 0
904 1 0.56401 0.0258404 0
906 1 0.581298 0.00837275 0
935 1 0.588011 0.0324749 0
905 1 0.557807 0.000773578 0
908 1 0.605448 0.0138425 0
939 1 0.629432 0.0209144 0
937 1 0.612653 0.0389412 0
910 1 0.646671 0.00372023 0
941 1 0.652184 0.0277876 0
912 1 0.670328 0.00954926 0
942 1 0.676808 0.0336382 0
943 1 0.694001 0.0159277 0
945 1 0.716521 0.0231374 0
944 1 0.699944 0.0411016 0
914 1 0.739586 0.025858 0
916 1 0.762627 0.0161508 0
947 1 0.756457 0.043844 0
915 1 0.741736 0.00102014 0
918 1 0.779925 0.0330147 0
919 1 0.80394 0.0259596 0
917 1 0.78667 0.00750958 0
1788 1 0.810274 0.000287196 0
920 1 0.82893 0.0171603 0
922 1 0.848309 0.0328816 0
921 1 0.853875 0.00914911 0
951 1 0.824608 0.0419003 0
923 1 0.873927 0.026655 0
924 1 0.89741 0.018817 0
1792 1 0.878155 0.00165823 0
955 1 0.914809 0.0361421 0
925 1 0.921507 0.0112927 0
926 1 0.939722 0.0278122 0
928 1 0.944869 0.00366859 0
930 1 0.987624 0.0135437 0
959 1 0.963282 0.0207499 0
960 1 0.98272 0.0377999 0
932 1 0.528938 0.0609945 0
961 1 0.512229 0.0796044 0
60 1 0.505484 0.054684 0
962 1 0.536648 0.0854686 0
933 1 0.547223 0.0446312 0
963 1 0.553748 0.0677493 0
934 1 0.571043 0.0510639 0
965 1 0.577006 0.0754882 0
936 1 0.594789 0.0564751 0
967 1 0.619306 0.0646274 0
966 1 0.601356 0.0835283 0
938 1 0.636075 0.0456253 0
969 1 0.643175 0.0704969 0
940 1 0.659546 0.0523518 0
970 1 0.667211 0.076571 0
971 1 0.682717 0.0583484 0
973 1 0.706313 0.0654873 0
972 1 0.691334 0.0849759 0
975 1 0.725774 0.0475571 0
974 1 0.730074 0.0715396 0
946 1 0.754176 0.0676634 0
977 1 0.771843 0.0833966 0
949 1 0.80029 0.0504601 0
948 1 0.776935 0.0584244 0
979 1 0.795473 0.0751004 0
950 1 0.819101 0.0663834 0
980 1 0.837383 0.0834175 0
952 1 0.843303 0.0589598 0
981 1 0.861266 0.0758841 0
954 1 0.89152 0.0432646 0
953 1 0.86633 0.0510526 0
983 1 0.885987 0.0679505 0
984 1 0.904372 0.0848237 0
985 1 0.909892 0.0607963 0
956 1 0.934039 0.0525967 0
986 1 0.928531 0.0771273 0
987 1 0.952742 0.0694814 0
957 1 0.957967 0.0447944 0
958 1 0.976087 0.0617021 0
989 1 0.994037 0.0789272 0
991 1 0.518102 0.104194 0
993 1 0.541638 0.110249 0
992 1 0.525383 0.127898 0
120 1 0.501182 0.121066 0
964 1 0.559257 0.0936372 0
994 1 0.565124 0.118102 0
995 1 0.583306 0.100863 0
996 1 0.589409 0.124802 0
968 1 0.625005 0.0892173 0
997 1 0.607362 0.107893 0
998 1 0.631533 0.114187 0
999 1 0.649683 0.0951231 0
1000 1 0.656938 0.119276 0
1001 1 0.673694 0.100787 0
1031 1 0.68038 0.126342 0
1002 1 0.697261 0.108823 0
1003 1 0.714513 0.0910496 0
1004 1 0.721516 0.114486 0
976 1 0.765677 0.107367 0
1005 1 0.739923 0.0972742 0
1035 1 0.745792 0.121551 0
978 1 0.813543 0.0908021 0
1007 1 0.790191 0.0999591 0
1006 1 0.784438 0.125127 0
1008 1 0.809281 0.116325 0
1009 1 0.833741 0.10803 0
1010 1 0.852415 0.125432 0
1011 1 0.856566 0.100697 0
982 1 0.880167 0.0931066 0
1012 1 0.87637 0.117841 0
1013 1 0.89974 0.109438 0
1016 1 0.918675 0.1276 0
1017 1 0.946844 0.0935252 0
1015 1 0.923161 0.102293 0
1047 1 0.942111 0.118696 0
988 1 0.97 0.086921 0
1018 1 0.965332 0.111254 0
1019 1 0.989098 0.103866 0
1020 1 0.983978 0.128587 0
1022 1 0.530713 0.153869 0
1021 1 0.50744 0.146099 0
1051 1 0.513751 0.171185 0
1023 1 0.548286 0.136469 0
1024 1 0.554844 0.161445 0
1025 1 0.571878 0.143559 0
1055 1 0.578499 0.167083 0
1027 1 0.613926 0.131695 0
1026 1 0.596307 0.148858 0
1028 1 0.620606 0.155865 0
1057 1 0.602739 0.173129 0
1029 1 0.639339 0.137482 0
1059 1 0.644215 0.162031 0
1030 1 0.66318 0.14364 0
1061 1 0.668979 0.168297 0
1032 1 0.687403 0.150486 0
1033 1 0.704734 0.132884 0
1063 1 0.711262 0.156966 0
1034 1 0.728913 0.139105 0
1036 1 0.756068 0.144503 0
1065 1 0.735371 0.163451 0
1066 1 0.75899 0.170041 0
1067 1 0.780815 0.152446 0
1037 1 0.805563 0.140193 0
1038 1 0.802201 0.16444 0
1039 1 0.829194 0.132739 0
1040 1 0.825189 0.157226 0
1041 1 0.847764 0.150446 0
1042 1 0.86619 0.166949 0
1014 1 0.895422 0.134442 0
1043 1 0.871753 0.142454 0
1044 1 0.88936 0.159695 0
1045 1 0.913426 0.150929 0
1046 1 0.93721 0.143423 0
1077 1 0.931509 0.167999 0
1048 1 0.955303 0.159939 0
1049 1 0.961233 0.136291 0
1050 1 0.979489 0.152234 0
151 1 0.997267 0.168436 0
1053 1 0.537637 0.178389 0
1052 1 0.521018 0.196424 0
1081 1 0.502756 0.214014 0
1083 1 0.545319 0.203391 0
1054 1 0.562126 0.185667 0
1056 1 0.586046 0.190818 0
1085 1 0.56952 0.209055 0
1058 1 0.626942 0.179594 0
1087 1 0.60978 0.197172 0
1089 1 0.633915 0.204102 0
1086 1 0.592933 0.21583 0
1060 1 0.651157 0.186269 0
1091 1 0.676487 0.192244 0
1090 1 0.658636 0.210001 0
1062 1 0.693215 0.17467 0
1093 1 0.699755 0.19946 0
1064 1 0.717062 0.182278 0
1094 1 0.723851 0.205515 0
1092 1 0.681764 0.217326 0
1095 1 0.740972 0.187328 0
1097 1 0.764711 0.194848 0
1096 1 0.747785 0.212258 0
1068 1 0.782245 0.177779 0
1098 1 0.789327 0.201119 0
1099 1 0.813698 0.205572 0
1069 1 0.819142 0.182319 0
1071 1 0.842265 0.175628 0
1070 1 0.837385 0.200006 0
1072 1 0.860716 0.191546 0
1101 1 0.855202 0.216803 0
1075 1 0.908383 0.17642 0
1073 1 0.883953 0.18355 0
1103 1 0.879229 0.208015 0
1074 1 0.902575 0.20166 0
1078 1 0.949452 0.184392 0
1076 1 0.92662 0.193639 0
1107 1 0.944734 0.210125 0
1079 1 0.973226 0.176857 0
1109 1 0.967816 0.201512 0
181 1 0.991515 0.193535 0
1082 1 0.52659 0.220782 0
1111 1 0.508885 0.2383 0
1113 1 0.533584 0.245412 0
1084 1 0.551458 0.227712 0
1114 1 0.55684 0.251909 0
1115 1 0.575125 0.233813 0
1116 1 0.581069 0.2586 0
1088 1 0.616613 0.221746 0
1117 1 0.599128 0.240018 0
1118 1 0.623236 0.246523 0
1119 1 0.641776 0.228613 0
1121 1 0.664892 0.235823 0
1120 1 0.647765 0.253704 0
1151 1 0.671172 0.260099 0
1122 1 0.689325 0.242576 0
1123 1 0.705924 0.224769 0
1124 1 0.713538 0.248905 0
1125 1 0.730129 0.229703 0
1126 1 0.754922 0.236308 0
1155 1 0.736788 0.253843 0
1157 1 0.761048 0.260336 0
1127 1 0.772394 0.219052 0
1129 1 0.798895 0.226997 0
1128 1 0.780268 0.243364 0
1159 1 0.803213 0.251371 0
1100 1 0.830134 0.225539 0
1130 1 0.826673 0.251201 0
1131 1 0.849758 0.241692 0
1132 1 0.867895 0.257451 0
1102 1 0.873364 0.233553 0
1104 1 0.897157 0.22578 0
1133 1 0.891531 0.249864 0
1105 1 0.922031 0.217673 0
1135 1 0.915797 0.241829 0
1136 1 0.933568 0.258911 0
1106 1 0.939652 0.235184 0
1110 1 0.987066 0.218378 0