ITEM: TIMESTEP
134000
ITEM: NUMBER OF ATOMS
1800
ITEM: BOX BOUNDS pp pp pp
1.3658015346412498e+00 1.6363419846535641e+02
1.3658015346412498e+00 1.6363419846535641e+02
0.0000000000000000e+00 5.5000000000000000e+00
ITEM: ATOMS id type xs ys zs
2 1 0.0100897 0.00403693 0
33 1 0.0281459 0.0201687 0
31 1 0.00489417 0.028196 0
4 1 0.0524724 0.013444 0
6 1 0.0771882 0.00709539 0
35 1 0.0711433 0.0308409 0
34 1 0.0468879 0.0372014 0
37 1 0.0950563 0.0244426 0
39 1 0.119398 0.0164526 0
38 1 0.113608 0.04068 0
40 1 0.13727 0.033314 0
10 1 0.142771 0.00837549 0
42 1 0.161556 0.0251167 0
73 1 0.179287 0.0416389 0
41 1 0.166811 0.00026436 0
43 1 0.185496 0.0176819 0
14 1 0.209974 0.00981866 0
44 1 0.203944 0.0347248 0
45 1 0.228025 0.026999 0
16 1 0.253595 0.0191421 0
886 1 0.235189 0.00310463 0
46 1 0.271573 0.0368149 0
18 1 0.277028 0.0115465 0
49 1 0.2944 0.0277325 0
20 1 0.302818 0.00480602 0
51 1 0.319332 0.0261115 0
22 1 0.342343 0.0339606 0
21 1 0.359772 0.0157006 0
890 1 0.336423 0.00828166 0
24 1 0.384356 0.020064 0
53 1 0.367329 0.0390492 0
894 1 0.402741 0.00292883 0
25 1 0.408631 0.0266021 0
26 1 0.433243 0.0337349 0
27 1 0.426441 0.00901003 0
898 1 0.450336 0.0156693 0
29 1 0.474394 0.0227109 0
900 1 0.492752 0.00484688 0
28 1 0.457589 0.0400925 0
30 1 0.498398 0.0294451 0
32 1 0.0230579 0.0452694 0
62 1 0.0188483 0.0695811 0
63 1 0.0422828 0.0624902 0
65 1 0.0659448 0.0556077 0
66 1 0.0848691 0.0720161 0
64 1 0.0610707 0.0803344 0
36 1 0.0903912 0.048247 0
67 1 0.108669 0.0657179 0
69 1 0.131998 0.0573627 0
68 1 0.126622 0.0819012 0
71 1 0.155743 0.0496501 0
72 1 0.174651 0.0664512 0
70 1 0.150774 0.0737847 0
74 1 0.222206 0.0513114 0
103 1 0.198494 0.0585928 0
105 1 0.217041 0.0752631 0
101 1 0.192821 0.0832811 0
75 1 0.246772 0.0440225 0
77 1 0.265917 0.060562 0
76 1 0.240927 0.0671205 0
137 1 0.259493 0.0846338 0
47 1 0.290585 0.0542134 0
48 1 0.307385 0.0713057 0
78 1 0.283264 0.0788006 0
50 1 0.323038 0.0511472 0
81 1 0.33222 0.0759306 0
52 1 0.349534 0.0579121 0
82 1 0.357075 0.0825099 0
55 1 0.392341 0.0439299 0
83 1 0.374326 0.0634588 0
54 1 0.398413 0.0698954 0
57 1 0.440267 0.0586316 0
85 1 0.42275 0.0759397 0
56 1 0.416625 0.0515231 0
87 1 0.446115 0.0838303 0
59 1 0.481519 0.047308 0
58 1 0.463976 0.0655722 0
89 1 0.489181 0.0728252 0
93 1 0.0373451 0.0875296 0
990 1 0.0127187 0.0939145 0
92 1 0.0308043 0.110993 0
91 1 0.00746697 0.117836 0
94 1 0.054724 0.10519 0
95 1 0.0799309 0.0974118 0
125 1 0.0734891 0.120984 0
123 1 0.0498267 0.129402 0
96 1 0.0978855 0.1142 0
97 1 0.103356 0.09004 0
98 1 0.12103 0.106917 0
99 1 0.145499 0.0980349 0
100 1 0.169347 0.0916806 0
130 1 0.163136 0.116083 0
129 1 0.13982 0.12355 0
131 1 0.187608 0.108576 0
102 1 0.210567 0.100609 0
133 1 0.20601 0.125958 0
104 1 0.229036 0.117367 0
106 1 0.234399 0.0918618 0
135 1 0.252686 0.108724 0
107 1 0.277675 0.1027 0
109 1 0.300311 0.112446 0
79 1 0.315509 0.0942566 0
108 1 0.281166 0.127564 0
80 1 0.339533 0.0997471 0
110 1 0.324029 0.11887 0
141 1 0.347198 0.125092 0
111 1 0.364153 0.106574 0
113 1 0.381083 0.0884339 0
84 1 0.405397 0.0946541 0
112 1 0.388104 0.113151 0
115 1 0.412041 0.119901 0
86 1 0.428885 0.101419 0
116 1 0.435594 0.126289 0
117 1 0.451996 0.107734 0
88 1 0.470375 0.0901237 0
90 1 0.494854 0.0981311 0
119 1 0.476008 0.115496 0
122 1 0.0259437 0.135623 0
152 1 0.0204256 0.161447 0
121 1 0.00234536 0.143926 0
153 1 0.0446263 0.153822 0
124 1 0.0682844 0.146025 0
155 1 0.0860028 0.163448 0
154 1 0.0622631 0.170448 0
127 1 0.115525 0.131919 0
126 1 0.0913055 0.138554 0
128 1 0.134579 0.149165 0
157 1 0.109529 0.15581 0
158 1 0.128432 0.173382 0
159 1 0.158277 0.141277 0
161 1 0.17783 0.157591 0
160 1 0.154284 0.165325 0
132 1 0.182095 0.132896 0
163 1 0.201276 0.151274 0
134 1 0.224902 0.144128 0
193 1 0.221302 0.168396 0
136 1 0.265486 0.14759 0
165 1 0.246546 0.134204 0
164 1 0.244979 0.161446 0
167 1 0.27137 0.170996 0
139 1 0.305589 0.136455 0
138 1 0.288889 0.1541 0
169 1 0.312755 0.161074 0
140 1 0.329655 0.143172 0
142 1 0.353958 0.149821 0
171 1 0.335408 0.168308 0
143 1 0.371137 0.132334 0
114 1 0.394473 0.137626 0
173 1 0.377436 0.155801 0
144 1 0.401314 0.162272 0
145 1 0.41849 0.144671 0
146 1 0.424593 0.169593 0
147 1 0.441843 0.15084 0
118 1 0.458681 0.132884 0
149 1 0.483271 0.139521 0
148 1 0.465114 0.157584 0
150 1 0.48987 0.164037 0
183 1 0.0389025 0.177759 0
182 1 0.0335459 0.202598 0
1080 1 0.0148078 0.186094 0
211 1 0.0094103 0.209832 0
184 1 0.0580339 0.196051 0
185 1 0.0808251 0.187222 0
215 1 0.0765139 0.213182 0
186 1 0.0993646 0.204212 0
156 1 0.104735 0.180139 0
187 1 0.123796 0.197162 0
189 1 0.147837 0.188973 0
191 1 0.171592 0.18172 0
190 1 0.165892 0.205812 0
188 1 0.142178 0.213461 0
162 1 0.195484 0.176463 0
221 1 0.192783 0.207691 0
192 1 0.213094 0.193719 0
195 1 0.235229 0.203455 0
166 1 0.252802 0.186583 0
196 1 0.258369 0.211589 0
168 1 0.295356 0.178274 0
197 1 0.276105 0.194849 0
199 1 0.299622 0.20269 0
170 1 0.318995 0.186094 0
172 1 0.359558 0.174001 0
201 1 0.341235 0.192465 0
200 1 0.324269 0.210543 0
202 1 0.347636 0.217111 0
203 1 0.364945 0.199124 0
174 1 0.383732 0.179917 0
204 1 0.389284 0.204657 0
175 1 0.407863 0.188127 0
177 1 0.448599 0.175676 0
205 1 0.413816 0.212366 0
176 1 0.431443 0.194203 0
178 1 0.454748 0.201128 0
179 1 0.47256 0.183787 0
180 1 0.496911 0.189595 0
209 1 0.479075 0.207883 0
212 1 0.0278737 0.22741 0
241 1 0.0212181 0.251346 0
1140 1 0.00334522 0.23445 0
243 1 0.045516 0.244336 0
213 1 0.0518318 0.220301 0
214 1 0.0699706 0.237543 0
245 1 0.0895241 0.256771 0
216 1 0.0935032 0.230869 0
217 1 0.116799 0.22115 0
247 1 0.11271 0.246781 0
218 1 0.134976 0.237209 0
219 1 0.157691 0.245122 0
220 1 0.175702 0.22849 0
222 1 0.179704 0.254133 0
194 1 0.215318 0.220352 0
223 1 0.19782 0.237528 0
224 1 0.221906 0.246081 0
225 1 0.238605 0.228167 0
227 1 0.263504 0.236538 0
226 1 0.244991 0.253811 0
198 1 0.281555 0.219768 0
228 1 0.287128 0.24509 0
229 1 0.305576 0.227426 0
230 1 0.311823 0.251773 0
231 1 0.329458 0.234799 0
232 1 0.353824 0.240973 0
261 1 0.335971 0.259352 0
233 1 0.371386 0.222722 0
234 1 0.378136 0.246208 0
235 1 0.396109 0.228948 0
265 1 0.402188 0.252752 0
207 1 0.437698 0.218838 0
206 1 0.420803 0.235878 0
237 1 0.444083 0.242352 0
236 1 0.425819 0.260274 0
208 1 0.462303 0.22561 0
210 1 0.485506 0.232363 0
239 1 0.467114 0.250156 0
240 1 0.491741 0.256952 0
242 1 0.0402975 0.267631 0
271 1 0.0369555 0.291529 0
1170 1 0.016654 0.276429 0
1200 1 0.015379 0.302287 0
244 1 0.0648176 0.262725 0
273 1 0.0602881 0.29777 0
275 1 0.0803621 0.281827 0
246 1 0.101528 0.294176 0
248 1 0.114007 0.271484 0
279 1 0.124358 0.302108 0
249 1 0.137619 0.260907 0
251 1 0.161185 0.270487 0
250 1 0.141169 0.285854 0
281 1 0.166828 0.294772 0
253 1 0.202357 0.262745 0
252 1 0.184757 0.278802 0
254 1 0.208849 0.287451 0
283 1 0.190425 0.303404 0
255 1 0.226796 0.270527 0
257 1 0.268682 0.26169 0
256 1 0.250971 0.279162 0
285 1 0.233207 0.295614 0
259 1 0.292701 0.269373 0
258 1 0.274701 0.286587 0
289 1 0.299812 0.292856 0
260 1 0.318121 0.27591 0
263 1 0.360216 0.264383 0
262 1 0.34166 0.282629 0
291 1 0.324238 0.299908 0
293 1 0.365992 0.28906 0
264 1 0.384098 0.270942 0
295 1 0.390757 0.295749 0
266 1 0.407689 0.277385 0
238 1 0.450201 0.267886 0
267 1 0.43155 0.284865 0
297 1 0.414343 0.302226 0
268 1 0.455672 0.291453 0
1141 1 0.498248 0.281265 0
269 1 0.474112 0.274608 0
270 1 0.481159 0.297911 0
301 1 0.0202484 0.32819 0
1230 1 0.00201581 0.34398 0
272 1 0.0412465 0.314789 0
303 1 0.0433511 0.339697 0
276 1 0.0831538 0.308946 0
274 1 0.0637772 0.323872 0
305 1 0.086664 0.3336 0
277 1 0.106056 0.318714 0
278 1 0.130428 0.325969 0
307 1 0.1107 0.341929 0
280 1 0.14901 0.310433 0
311 1 0.153058 0.336543 0
282 1 0.172161 0.320484 0
312 1 0.176905 0.345579 0
284 1 0.214574 0.312508 0
313 1 0.196172 0.328465 0
315 1 0.220597 0.33773 0
287 1 0.256993 0.304346 0
286 1 0.23893 0.320908 0
317 1 0.262496 0.32977 0
316 1 0.244346 0.345929 0
288 1 0.281269 0.309814 0
318 1 0.286671 0.334366 0
290 1 0.30601 0.317301 0
319 1 0.310561 0.342571 0
292 1 0.34787 0.307141 0
321 1 0.330269 0.3244 0
323 1 0.3546 0.331976 0
324 1 0.377882 0.338092 0
294 1 0.371535 0.313299 0
325 1 0.402034 0.34506 0
296 1 0.396632 0.319685 0
298 1 0.438522 0.309192 0
327 1 0.419576 0.326469 0
328 1 0.444121 0.33278 0
329 1 0.467737 0.340664 0
299 1 0.463025 0.315806 0
300 1 0.487284 0.323461 0
1201 1 0.492203 0.347748 0
302 1 0.0244558 0.353723 0
332 1 0.02757 0.378194 0
331 1 0.00366694 0.368223 0
304 1 0.0665701 0.348844 0
333 1 0.0478314 0.363841 0
335 1 0.0702123 0.374559 0
334 1 0.0501772 0.388957 0
306 1 0.0906711 0.358267 0
337 1 0.0926425 0.382829 0
308 1 0.113573 0.367088 0
309 1 0.133609 0.350913 0
339 1 0.137129 0.376273 0
310 1 0.156367 0.361662 0
341 1 0.161618 0.386077 0
343 1 0.18096 0.370205 0
314 1 0.201762 0.355395 0
344 1 0.205588 0.380036 0
345 1 0.225423 0.363404 0
375 1 0.228836 0.389251 0
347 1 0.268828 0.353455 0
346 1 0.249391 0.370839 0
377 1 0.274061 0.378077 0
349 1 0.292735 0.360532 0
348 1 0.299459 0.38492 0
350 1 0.317302 0.366193 0
320 1 0.335383 0.348695 0
351 1 0.342337 0.371994 0
322 1 0.361098 0.356139 0
381 1 0.325802 0.39 0
353 1 0.367222 0.380077 0
355 1 0.384832 0.363619 0
354 1 0.391663 0.38739 0
356 1 0.409853 0.370223 0
326 1 0.426387 0.351072 0
357 1 0.433865 0.376334 0
359 1 0.450849 0.358036 0
358 1 0.457707 0.38252 0
330 1 0.474877 0.364769 0
360 1 0.481318 0.388866 0
1231 1 0.499183 0.371537 0
361 1 0.00608353 0.392346 0
363 1 0.0295034 0.402554 0
362 1 0.00855305 0.416425 0
364 1 0.0330019 0.426867 0
336 1 0.072783 0.398054 0
365 1 0.0533611 0.4127 0
366 1 0.076949 0.422812 0
338 1 0.116945 0.392062 0
367 1 0.0968066 0.407267 0
369 1 0.120412 0.417417 0
368 1 0.100993 0.433251 0
340 1 0.14082 0.401315 0
370 1 0.143917 0.426581 0
371 1 0.165286 0.411788 0
342 1 0.185308 0.394629 0
372 1 0.18892 0.420426 0
373 1 0.208793 0.40583 0
403 1 0.211368 0.430591 0
374 1 0.232137 0.414244 0
376 1 0.253363 0.396574 0
405 1 0.256477 0.420661 0
378 1 0.278949 0.402158 0
379 1 0.30894 0.40737 0
409 1 0.291004 0.424062 0
410 1 0.314589 0.432612 0
352 1 0.349117 0.39746 0
382 1 0.355355 0.422804 0
380 1 0.332377 0.415131 0
383 1 0.373518 0.405065 0
385 1 0.398865 0.412561 0
384 1 0.379594 0.429947 0
387 1 0.415438 0.3936 0
386 1 0.422412 0.419976 0
388 1 0.439728 0.401802 0
419 1 0.445908 0.426075 0
389 1 0.463286 0.408342 0
1261 1 0.488379 0.414072 0
390 1 0.470811 0.432284 0
393 1 0.011939 0.441149 0
423 1 0.0152034 0.465433 0
394 1 0.0360876 0.453025 0
425 1 0.0387416 0.477496 0
395 1 0.0561193 0.43762 0
396 1 0.0588128 0.462148 0
397 1 0.0789298 0.447194 0
427 1 0.0811198 0.471849 0
399 1 0.124778 0.443141 0
398 1 0.102599 0.457535 0
429 1 0.126374 0.467043 0
401 1 0.167337 0.436437 0
400 1 0.147203 0.452433 0
431 1 0.170448 0.461906 0
430 1 0.14938 0.477647 0
402 1 0.191533 0.446348 0
433 1 0.213665 0.457645 0
432 1 0.19323 0.472664 0
404 1 0.233695 0.439805 0
406 1 0.252917 0.453444 0
435 1 0.235043 0.469394 0
407 1 0.272098 0.439597 0
437 1 0.277121 0.464101 0
408 1 0.295924 0.448509 0
439 1 0.300978 0.474414 0
441 1 0.319914 0.456908 0
411 1 0.338258 0.439815 0
412 1 0.344502 0.465609 0
413 1 0.362382 0.448413 0
415 1 0.403703 0.437125 0
414 1 0.385776 0.45582 0
443 1 0.367664 0.473868 0
416 1 0.408593 0.461603 0
417 1 0.427117 0.444487 0
447 1 0.433346 0.46817 0
418 1 0.45116 0.450537 0
1291 1 0.493679 0.43932 0
420 1 0.475296 0.457174 0
449 1 0.457246 0.475841 0
1321 1 0.500183 0.46325 0
454 1 0.0210356 0.515814 0
424 1 0.0173489 0.490516 0
455 1 0.0418735 0.50238 0
426 1 0.0605561 0.487193 0
456 1 0.0647248 0.512634 0
457 1 0.0839957 0.49648 0
487 1 0.0871968 0.521216 0
428 1 0.104516 0.482233 0
459 1 0.127169 0.491502 0
458 1 0.108014 0.507456 0
489 1 0.130677 0.517124 0
461 1 0.171812 0.487471 0
460 1 0.151005 0.502892 0
462 1 0.173843 0.513541 0
434 1 0.214518 0.482989 0
463 1 0.194022 0.498094 0
464 1 0.21607 0.507758 0
436 1 0.257519 0.479408 0
465 1 0.236551 0.493375 0
467 1 0.25964 0.503024 0
466 1 0.239191 0.517625 0
438 1 0.280759 0.489229 0
469 1 0.306078 0.499752 0
468 1 0.282584 0.514101 0
440 1 0.324765 0.482122 0
442 1 0.347841 0.491129 0
471 1 0.329207 0.508924 0
473 1 0.356114 0.515998 0
445 1 0.392097 0.480429 0
444 1 0.374023 0.498791 0
475 1 0.398273 0.505086 0
446 1 0.416035 0.48631 0
477 1 0.423043 0.510527 0
448 1 0.439391 0.492726 0
478 1 0.447226 0.517219 0
450 1 0.481531 0.482338 0
479 1 0.463858 0.500164 0
1381 1 0.489524 0.504931 0
483 1 0.02422 0.540461 0
482 1 0.00424243 0.554581 0
485 1 0.043955 0.526005 0
452 1 0.00118594 0.529046 0
513 1 0.0274151 0.564718 0
484 1 0.0475171 0.550599 0
486 1 0.0672685 0.53661 0
515 1 0.0698239 0.56122 0
517 1 0.0903825 0.546133 0
488 1 0.110671 0.531757 0
519 1 0.113025 0.555858 0
490 1 0.133107 0.542079 0
491 1 0.153517 0.527675 0
521 1 0.155695 0.551974 0
492 1 0.175675 0.538276 0
523 1 0.178265 0.56322 0
493 1 0.195681 0.523977 0
494 1 0.198139 0.548294 0
495 1 0.218965 0.532432 0
525 1 0.221652 0.558195 0
496 1 0.241543 0.542882 0
497 1 0.261735 0.528383 0
527 1 0.263618 0.554099 0
470 1 0.30862 0.523417 0
499 1 0.304631 0.547394 0
498 1 0.282944 0.538491 0
529 1 0.285524 0.564678 0
472 1 0.338318 0.53313 0
501 1 0.3271 0.554947 0
502 1 0.350111 0.561486 0
503 1 0.364248 0.54154 0
474 1 0.380706 0.523775 0
505 1 0.388791 0.549029 0
476 1 0.404708 0.528976 0
506 1 0.413496 0.553847 0
507 1 0.429945 0.535099 0
508 1 0.437233 0.560427 0
509 1 0.453396 0.541484 0
480 1 0.470814 0.523953 0
510 1 0.478645 0.547682 0
1382 1 0.496525 0.530084 0
512 1 0.0301544 0.589134 0
511 1 0.00646818 0.579275 0
541 1 0.00914159 0.603561 0
514 1 0.0499838 0.575773 0
545 1 0.0727385 0.586181 0
543 1 0.0525511 0.600523 0
516 1 0.0926066 0.570908 0
518 1 0.115748 0.581447 0
547 1 0.0958275 0.596604 0
548 1 0.118167 0.606707 0
520 1 0.136142 0.567005 0
549 1 0.138016 0.592356 0
522 1 0.158233 0.57703 0
551 1 0.161255 0.60196 0
553 1 0.18167 0.588033 0
524 1 0.201783 0.572969 0
554 1 0.204646 0.598496 0
555 1 0.224379 0.583374 0
526 1 0.244484 0.569327 0
557 1 0.247546 0.595455 0
528 1 0.266768 0.580196 0
558 1 0.271719 0.604336 0
500 1 0.308766 0.572685 0
559 1 0.290789 0.588707 0
530 1 0.315253 0.596561 0
531 1 0.332786 0.57875 0
532 1 0.338371 0.603007 0
533 1 0.356234 0.585515 0
504 1 0.372832 0.567355 0
534 1 0.379608 0.591079 0
535 1 0.396921 0.572904 0
536 1 0.403859 0.597026 0
537 1 0.420993 0.578881 0
567 1 0.428001 0.602648 0
538 1 0.445403 0.584781 0
539 1 0.461735 0.566514 0
540 1 0.486065 0.572271 0
569 1 0.470342 0.591686 0
1441 1 0.494762 0.597803 0
542 1 0.0320571 0.614086 0
571 1 0.0114921 0.628093 0
573 1 0.0335245 0.640349 0
546 1 0.0745952 0.610605 0
544 1 0.0540579 0.625685 0
575 1 0.0777966 0.635407 0
574 1 0.0574837 0.650182 0
577 1 0.0976865 0.620308 0
579 1 0.121177 0.630834 0
576 1 0.0995542 0.645944 0
550 1 0.141258 0.616595 0
581 1 0.164109 0.627114 0
580 1 0.144032 0.642395 0
611 1 0.167071 0.651332 0
552 1 0.18404 0.612893 0
582 1 0.187513 0.637744 0
583 1 0.208208 0.623866 0
584 1 0.211343 0.648756 0
556 1 0.227556 0.608802 0
585 1 0.23136 0.634167 0
586 1 0.25577 0.643715 0
587 1 0.25179 0.619334 0
560 1 0.29472 0.613713 0
589 1 0.2755 0.629235 0
590 1 0.299898 0.637474 0
563 1 0.361833 0.609517 0
561 1 0.319683 0.62186 0
562 1 0.344605 0.627351 0
591 1 0.324785 0.644915 0
593 1 0.350028 0.650661 0
565 1 0.385753 0.614825 0
564 1 0.369311 0.633757 0
595 1 0.392805 0.639419 0
568 1 0.451819 0.608168 0
566 1 0.410007 0.620914 0
596 1 0.416703 0.645404 0
597 1 0.434251 0.627392 0
599 1 0.441112 0.651159 0
570 1 0.476142 0.615414 0
600 1 0.459228 0.632545 0
1471 1 0.482504 0.640525 0
1442 1 0.500534 0.621351 0
572 1 0.014055 0.654384 0
602 1 0.0170391 0.679307 0
603 1 0.0370154 0.665291 0
633 1 0.0396665 0.690196 0
605 1 0.0791581 0.660331 0
604 1 0.0598344 0.675857 0
606 1 0.0822642 0.684717 0
578 1 0.123444 0.656181 0
607 1 0.102868 0.670286 0
608 1 0.126594 0.681341 0
637 1 0.10625 0.695729 0
609 1 0.146396 0.667231 0
610 1 0.169114 0.676875 0
639 1 0.148494 0.692142 0
612 1 0.191273 0.686789 0
613 1 0.189712 0.662768 0
614 1 0.213956 0.672583 0
615 1 0.235515 0.658785 0
616 1 0.237769 0.683474 0
617 1 0.258253 0.669215 0
647 1 0.263679 0.694272 0
588 1 0.28031 0.653191 0
619 1 0.305528 0.662768 0
618 1 0.285493 0.678943 0
620 1 0.314103 0.685893 0
621 1 0.33246 0.66866 0
592 1 0.357692 0.675185 0
622 1 0.33981 0.692939 0
594 1 0.374822 0.657228 0
625 1 0.399535 0.663235 0
623 1 0.382237 0.681877 0
626 1 0.406353 0.688329 0
598 1 0.448283 0.676701 0
627 1 0.424834 0.670262 0
657 1 0.431347 0.694144 0
628 1 0.472182 0.682635 0
629 1 0.465038 0.658685 0
1501 1 0.489319 0.66413 0
630 1 0.49581 0.688085 0
632 1 0.019162 0.704206 0
663 1 0.021432 0.72977 0
634 1 0.0414038 0.714832 0
635 1 0.0626571 0.700122 0
636 1 0.0849503 0.710608 0
665 1 0.0648539 0.72432 0
666 1 0.0876518 0.736307 0
638 1 0.128386 0.707055 0
667 1 0.108071 0.722236 0
669 1 0.132282 0.732195 0
641 1 0.171898 0.702289 0
640 1 0.151624 0.71685 0
671 1 0.17465 0.727203 0
643 1 0.215365 0.697345 0
642 1 0.195267 0.711784 0
673 1 0.1979 0.73773 0
644 1 0.217908 0.721719 0
645 1 0.237811 0.707574 0
675 1 0.240911 0.733093 0
646 1 0.259088 0.717566 0
649 1 0.296639 0.703445 0
648 1 0.282214 0.724029 0
679 1 0.305696 0.729778 0
650 1 0.321306 0.710423 0
651 1 0.346367 0.716387 0
681 1 0.32947 0.735486 0
653 1 0.364598 0.698979 0
624 1 0.388505 0.706086 0
654 1 0.37069 0.722862 0
685 1 0.396576 0.729735 0
655 1 0.413296 0.712026 0
656 1 0.436992 0.718142 0
686 1 0.419986 0.736257 0
658 1 0.455802 0.700823 0
687 1 0.461648 0.72521 0
659 1 0.479785 0.70754 0
689 1 0.485824 0.73189 0
662 1 0.024897 0.755096 0
693 1 0.0264112 0.781189 0
691 1 0.00451088 0.769412 0
661 1 0.00143744 0.743463 0
664 1 0.0450812 0.740657 0
694 1 0.0470128 0.767571 0
695 1 0.0676793 0.751047 0
696 1 0.0689242 0.776611 0
697 1 0.0899059 0.761853 0
668 1 0.110337 0.746616 0
698 1 0.113513 0.771562 0
699 1 0.13326 0.756274 0
700 1 0.138102 0.780021 0
670 1 0.154578 0.742482 0
701 1 0.158929 0.766947 0
672 1 0.178169 0.751671 0
702 1 0.181446 0.778358 0
674 1 0.220341 0.748336 0
703 1 0.20059 0.764628 0
705 1 0.224041 0.773418 0
677 1 0.264364 0.74196 0
676 1 0.244217 0.758067 0
707 1 0.267859 0.767026 0
678 1 0.288379 0.747573 0
709 1 0.293093 0.771936 0
680 1 0.312076 0.754253 0
710 1 0.318861 0.777868 0
652 1 0.353906 0.741172 0
682 1 0.360539 0.76543 0
711 1 0.335641 0.759763 0
683 1 0.378209 0.747618 0
713 1 0.384658 0.771421 0
684 1 0.402443 0.753965 0
716 1 0.409445 0.777535 0
717 1 0.444225 0.743049 0
715 1 0.426576 0.760708 0
718 1 0.450473 0.767216 0
1591 1 0.500025 0.780845 0
690 1 0.492557 0.7569 0
688 1 0.468308 0.749958 0
719 1 0.474361 0.774168 0
692 1 0.00658312 0.79473 0
722 1 0.00504715 0.821447 0
723 1 0.0284184 0.809487 0
725 1 0.0485185 0.792846 0
726 1 0.0717451 0.801091 0
755 1 0.0700527 0.825157 0
727 1 0.0931964 0.787347 0
728 1 0.116682 0.797534 0
757 1 0.0931683 0.814262 0
729 1 0.140769 0.804198 0
730 1 0.161432 0.818337 0
731 1 0.161606 0.791585 0
704 1 0.204803 0.79148 0
732 1 0.183482 0.805706 0
763 1 0.204545 0.820564 0
735 1 0.248803 0.783052 0
733 1 0.229669 0.79758 0
734 1 0.229222 0.821841 0
736 1 0.253252 0.809488 0
706 1 0.273272 0.790989 0
737 1 0.284866 0.813578 0
708 1 0.301708 0.795205 0
738 1 0.308092 0.820867 0
741 1 0.343302 0.784091 0
739 1 0.325218 0.802956 0
742 1 0.349178 0.80796 0
740 1 0.332563 0.827726 0
712 1 0.367108 0.789833 0
714 1 0.391787 0.795665 0
743 1 0.373809 0.814208 0
745 1 0.399279 0.82088 0
746 1 0.415912 0.802585 0
747 1 0.433029 0.785717 0
748 1 0.440507 0.80957 0
749 1 0.457653 0.792144 0
720 1 0.482202 0.798507 0
750 1 0.464416 0.816311 0
1621 1 0.488491 0.823467 0
753 1 0.0232152 0.838025 0
783 1 0.0193328 0.863891 0
754 1 0.042078 0.856825 0
752 1 -9.51099e-05 0.848426 0
724 1 0.0462773 0.830308 0
785 1 0.0657963 0.850003 0
786 1 0.0857016 0.866363 0
756 1 0.0889415 0.84185 0
758 1 0.112719 0.831122 0
787 1 0.108931 0.857796 0
789 1 0.132272 0.85064 0
759 1 0.137775 0.827823 0
760 1 0.156828 0.842319 0
791 1 0.174075 0.860563 0
790 1 0.151012 0.868382 0
761 1 0.182005 0.834084 0
762 1 0.198193 0.852995 0
764 1 0.22106 0.844715 0
793 1 0.216329 0.870497 0
765 1 0.246429 0.840563 0
795 1 0.239124 0.862911 0
766 1 0.267742 0.856483 0
767 1 0.268513 0.830848 0
769 1 0.314017 0.844556 0
768 1 0.290678 0.838293 0
799 1 0.297511 0.861589 0
770 1 0.341121 0.851058 0
771 1 0.357117 0.830998 0
801 1 0.322525 0.867593 0
773 1 0.364503 0.856621 0
744 1 0.38103 0.837668 0
774 1 0.388669 0.863448 0
775 1 0.404793 0.845531 0
777 1 0.423451 0.827472 0
807 1 0.428949 0.85208 0
778 1 0.447324 0.833499 0
809 1 0.452688 0.857994 0
779 1 0.471036 0.840537 0
780 1 0.477051 0.864869 0
1651 1 0.495581 0.847158 0
812 1 0.0149817 0.888536 0
814 1 0.0336265 0.905917 0
813 1 0.0380217 0.88144 0
784 1 0.0620129 0.874139 0
815 1 0.0562877 0.897752 0
816 1 0.0801563 0.891122 0
788 1 0.127416 0.875821 0
817 1 0.103576 0.882877 0
819 1 0.122802 0.900512 0
818 1 0.098834 0.90765 0
821 1 0.168604 0.885664 0
820 1 0.145587 0.893027 0
851 1 0.163389 0.909773 0
792 1 0.192046 0.878038 0
823 1 0.211256 0.894953 0
822 1 0.187187 0.903401 0
794 1 0.233906 0.887962 0
796 1 0.256709 0.879312 0
827 1 0.255431 0.90373 0
825 1 0.230923 0.912221 0
797 1 0.280566 0.877213 0
798 1 0.285854 0.900321 0
800 1 0.304801 0.885606 0
829 1 0.30885 0.911511 0
831 1 0.327795 0.893234 0
772 1 0.346122 0.875614 0
802 1 0.351374 0.899309 0
803 1 0.369952 0.880965 0
804 1 0.37686 0.905955 0
805 1 0.394097 0.887993 0
835 1 0.401122 0.911808 0
776 1 0.41224 0.87051 0
806 1 0.419199 0.894478 0
808 1 0.436674 0.87691 0
839 1 0.442918 0.901365 0
1681 1 0.484018 0.889708 0
810 1 0.460623 0.88291 0
840 1 0.467435 0.908146 0
843 1 0.00977009 0.914083 0
842 1 0.00409669 0.938548 0
844 1 0.0275396 0.931169 0
873 1 0.0223608 0.955544 0
875 1 0.046028 0.94808 0
845 1 0.0507958 0.923109 0
846 1 0.069117 0.940655 0
847 1 0.0744859 0.91525 0
848 1 0.0930509 0.93199 0
849 1 0.117063 0.925377 0
879 1 0.112516 0.950122 0
881 1 0.135816 0.941684 0
850 1 0.140251 0.917693 0
852 1 0.158821 0.934633 0
883 1 0.17746 0.951426 0
853 1 0.182941 0.927754 0
824 1 0.20674 0.920023 0
854 1 0.201164 0.944684 0
855 1 0.225308 0.937144 0
826 1 0.248294 0.929438 0
857 1 0.267919 0.944446 0
856 1 0.244474 0.953964 0
828 1 0.271217 0.92128 0
859 1 0.292172 0.934378 0
830 1 0.317011 0.935983 0
833 1 0.358987 0.923395 0
832 1 0.332654 0.916822 0
861 1 0.341167 0.940697 0
863 1 0.364917 0.948606 0
834 1 0.382892 0.93044 0
865 1 0.407697 0.936732 0
864 1 0.389132 0.954079 0
837 1 0.425096 0.918684 0
836 1 0.431281 0.942723 0
838 1 0.449829 0.925189 0
870 1 0.455621 0.949502 0
1711 1 0.491631 0.914558 0
869 1 0.473436 0.932392 0
1712 1 0.497738 0.938739 0
1741 1 0.479487 0.956095 0
3 1 0.0347169 0.996469 0
872 1 0.0163698 0.979604 0
874 1 0.0397995 0.97253 0
877 1 0.0876824 0.956886 0
5 1 0.0582796 0.989893 0
876 1 0.0644235 0.965471 0
7 1 0.082737 0.982168 0
8 1 0.100259 0.998989 0
9 1 0.124454 0.992133 0
878 1 0.105897 0.975092 0
880 1 0.13047 0.967532 0
11 1 0.148187 0.983852 0
882 1 0.153298 0.958286 0
13 1 0.171434 0.975818 0
12 1 0.191029 0.993986 0
15 1 0.215335 0.985361 0
884 1 0.195503 0.96926 0
885 1 0.220278 0.96102 0
17 1 0.258017 0.994201 0
887 1 0.239166 0.977721 0
888 1 0.264675 0.969201 0
858 1 0.288483 0.95965 0
19 1 0.282834 0.987196 0
889 1 0.305779 0.978791 0
860 1 0.324016 0.960842 0
862 1 0.347622 0.965227 0
891 1 0.329897 0.985008 0
892 1 0.354167 0.99136 0
23 1 0.378101 0.996736 0
893 1 0.370884 0.972557 0
895 1 0.395075 0.979044 0
896 1 0.419787 0.984357 0
866 1 0.414282 0.960415 0
867 1 0.438286 0.967474 0
897 1 0.444663 0.991402 0
868 1 0.462927 0.974058 0
1771 1 0.487188 0.980261 0
899 1 0.4687 0.998696 0
931 1 0.522777 0.0367403 0
901 1 0.516772 0.0122943 0
902 1 0.541327 0.0179869 0
904 1 0.564461 0.0254623 0
906 1 0.58158 0.0055306 0
935 1 0.588215 0.0302704 0
905 1 0.558144 0.00031968 0
908 1 0.605803 0.0124949 0
939 1 0.629816 0.019939 0
937 1 0.611752 0.0365005 0
910 1 0.647037 0.0023056 0
941 1 0.65371 0.0277646 0
912 1 0.670873 0.0097388 0
942 1 0.678205 0.0346454 0
943 1 0.694494 0.0160739 0
945 1 0.717959 0.0221354 0
944 1 0.702114 0.0407588 0
914 1 0.742502 0.0246855 0
916 1 0.76621 0.0160215 0
915 1 0.745993 0.000205512 0
947 1 0.759997 0.041203 0
918 1 0.784123 0.0334471 0
919 1 0.806697 0.0251526 0
917 1 0.788173 0.00735697 0
920 1 0.829606 0.0166156 0
922 1 0.848827 0.0334727 0
921 1 0.853561 0.00885004 0
951 1 0.826024 0.0414148 0
923 1 0.873215 0.0260884 0
924 1 0.896493 0.0180524 0
1792 1 0.878061 0.00117239 0
954 1 0.891702 0.042747 0
955 1 0.914585 0.0348454 0
925 1 0.920133 0.0104635 0
926 1 0.938903 0.0271777 0
928 1 0.944974 0.00393564 0
930 1 0.986253 0.0121352 0
959 1 0.962629 0.0193465 0
960 1 0.981362 0.035756 0
932 1 0.529233 0.0613952 0
961 1 0.51239 0.0796313 0
60 1 0.505647 0.0537902 0
962 1 0.536084 0.0866783 0
933 1 0.546296 0.0430338 0
963 1 0.553206 0.067619 0
934 1 0.570546 0.0495584 0
965 1 0.57725 0.0731841 0
936 1 0.594423 0.0558198 0
967 1 0.618469 0.0617323 0
966 1 0.601951 0.0799614 0
938 1 0.635691 0.0449074 0
969 1 0.642296 0.0699096 0
940 1 0.658808 0.0515287 0
970 1 0.667597 0.0770984 0
971 1 0.68391 0.0589607 0
973 1 0.707747 0.0658578 0
972 1 0.690918 0.0841919 0
975 1 0.728468 0.0452481 0
974 1 0.731736 0.0709242 0
946 1 0.754396 0.0660324 0
977 1 0.771877 0.0827558 0
949 1 0.802906 0.0500435 0
948 1 0.778962 0.0584624 0
979 1 0.796221 0.0745254 0
950 1 0.821109 0.0674448 0
980 1 0.839498 0.0830966 0
952 1 0.844235 0.0583862 0
981 1 0.862288 0.0759445 0
953 1 0.867865 0.0506401 0
983 1 0.885827 0.0674416 0
984 1 0.904834 0.0840907 0
985 1 0.909455 0.0601218 0
956 1 0.933692 0.0517774 0
986 1 0.927875 0.0757998 0
987 1 0.952063 0.0682193 0
957 1 0.956858 0.0442093 0
958 1 0.975443 0.0602719 0
989 1 0.994461 0.0779549 0
988 1 0.970054 0.0847919 0
61 1 0.999206 0.0527227 0
991 1 0.519178 0.104751 0
993 1 0.543138 0.110786 0
992 1 0.526839 0.128521 0
120 1 0.502042 0.122307 0
964 1 0.55984 0.0916821 0
994 1 0.566539 0.116863 0
995 1 0.583621 0.0987794 0
996 1 0.590695 0.123671 0
968 1 0.624899 0.0877879 0
997 1 0.607224 0.105564 0
998 1 0.632032 0.113201 0
1027 1 0.614825 0.130769 0
999 1 0.648219 0.0942863 0
1000 1 0.656004 0.119535 0
1001 1 0.673104 0.102176 0
1031 1 0.680167 0.125506 0
1002 1 0.697828 0.108009 0
1003 1 0.715431 0.0895519 0
1004 1 0.722511 0.113282 0
976 1 0.766056 0.10758 0
1005 1 0.746337 0.0922264 0
1035 1 0.745389 0.120746 0
978 1 0.815808 0.091747 0
1007 1 0.789802 0.100107 0
1006 1 0.784156 0.124039 0
1008 1 0.810077 0.115598 0
1009 1 0.833664 0.108854 0
1010 1 0.852242 0.124802 0
1011 1 0.857022 0.100748 0
982 1 0.881389 0.0925049 0
1012 1 0.875347 0.116078 0
1013 1 0.899166 0.108677 0
1016 1 0.917458 0.125086 0
1017 1 0.946902 0.093033 0
1015 1 0.923166 0.100441 0
1047 1 0.941035 0.118015 0
1018 1 0.965112 0.109895 0
1019 1 0.988102 0.102461 0
1020 1 0.983519 0.127858 0
1022 1 0.531945 0.153094 0
1021 1 0.50817 0.147202 0
1051 1 0.514479 0.170731 0
1023 1 0.549893 0.136284 0
1024 1 0.555823 0.16048 0
1025 1 0.57367 0.141802 0
1055 1 0.579939 0.166835 0
1026 1 0.597677 0.148509 0
1028 1 0.620981 0.155724 0
1057 1 0.603992 0.173057 0
1029 1 0.639368 0.13809 0
1059 1 0.644793 0.162178 0
1030 1 0.662795 0.144009 0
1061 1 0.668724 0.168765 0
1032 1 0.686666 0.15122 0
1033 1 0.703409 0.132311 0
1063 1 0.711126 0.156322 0
1034 1 0.728532 0.137446 0
1036 1 0.753424 0.144719 0
1065 1 0.734244 0.162029 0
1066 1 0.757618 0.168237 0
1067 1 0.778687 0.151694 0
1037 1 0.80394 0.138856 0
1038 1 0.800536 0.163788 0
1039 1 0.828005 0.132364 0
1040 1 0.822587 0.156417 0
1041 1 0.845924 0.148989 0
1071 1 0.841467 0.174657 0
1042 1 0.864634 0.165814 0
1014 1 0.894141 0.133013 0
1043 1 0.870097 0.141711 0
1044 1 0.888211 0.157716 0
1045 1 0.911138 0.149719 0
1046 1 0.935593 0.142996 0
1077 1 0.930186 0.167094 0
1048 1 0.954253 0.159549 0
1049 1 0.960471 0.134848 0
1050 1 0.978444 0.152389 0
151 1 0.996801 0.169517 0
1053 1 0.538181 0.177961 0
1052 1 0.521371 0.195583 0
1081 1 0.503239 0.213407 0
1083 1 0.544379 0.202197 0
1054 1 0.562708 0.184206 0
1056 1 0.585889 0.19086 0
1085 1 0.568972 0.209015 0
1058 1 0.627458 0.180617 0
1087 1 0.60967 0.197743 0
1089 1 0.633177 0.204163 0
1086 1 0.592739 0.216237 0
1060 1 0.651096 0.186357 0
1091 1 0.676513 0.192379 0
1090 1 0.65785 0.2103 0
1062 1 0.693322 0.174832 0
1093 1 0.700733 0.198848 0
1064 1 0.71789 0.181262 0
1094 1 0.724857 0.204829 0
1092 1 0.682738 0.216157 0
1095 1 0.741718 0.18746 0
1097 1 0.764969 0.195211 0
1096 1 0.748115 0.212415 0
1068 1 0.77999 0.175687 0
1098 1 0.789226 0.199994 0
1099 1 0.81318 0.206104 0
1069 1 0.817004 0.182148 0
1070 1 0.837101 0.199548 0
1072 1 0.859771 0.191184 0
1101 1 0.854378 0.215963 0
1075 1 0.906119 0.175531 0
1073 1 0.882533 0.182298 0
1103 1 0.877496 0.208036 0
1074 1 0.90075 0.200128 0
1078 1 0.947323 0.184569 0
1076 1 0.924197 0.19264 0
1107 1 0.942477 0.209546 0
1079 1 0.971821 0.176836 0
1109 1 0.966172 0.201537 0
181 1 0.990196 0.19396 0
1082 1 0.526542 0.220202 0
1111 1 0.509776 0.23798 0
1113 1 0.533932 0.244424 0
1084 1 0.551243 0.226937 0
1114 1 0.55785 0.251189 0
1115 1 0.575079 0.233654 0
1116 1 0.581489 0.258273 0
1088 1 0.616738 0.22264 0
1117 1 0.599158 0.240492 0
1118 1 0.622959 0.246814 0
1119 1 0.640493 0.228238 0
1121 1 0.665331 0.233871 0
1120 1 0.647408 0.252657 0
1151 1 0.67219 0.258368 0
1122 1 0.68995 0.241165 0
1123 1 0.707085 0.223499 0
1124 1 0.713348 0.24774 0
1125 1 0.730693 0.230227 0
1126 1 0.753735 0.237434 0
1155 1 0.736856 0.255074 0
1127 1 0.771738 0.219414 0
1129 1 0.795937 0.224936 0
1128 1 0.778467 0.242764 0
1159 1 0.80189 0.247761 0
1100 1 0.830637 0.224018 0
1130 1 0.826298 0.248915 0
1131 1 0.849114 0.240796 0
1132 1 0.865952 0.258654 0
1102 1 0.872038 0.233849 0
1104 1 0.89511 0.225921 0
1133 1 0.889435 0.251026 0
1105 1 0.918767 0.218169 0
1135 1 0.9129 0.243313 0
1136 1 0.932249 0.258954 0
1106 1 0.937181 0.234492 0
1110 1 0.984977 0.218383 0