ITEM: TIMESTEP
138000
ITEM: NUMBER OF ATOMS
1800
ITEM: BOX BOUNDS pp pp pp
1.3832565808213388e+00 1.6361674341917643e+02
1.3832565808213388e+00 1.6361674341917643e+02
0.0000000000000000e+00 5.5000000000000000e+00
ITEM: ATOMS id type xs ys zs
2 1 0.0102974 0.00566428 0
33 1 0.0290769 0.0219304 0
31 1 0.00473022 0.0307504 0
4 1 0.0529748 0.0145317 0
6 1 0.0767812 0.00671056 0
35 1 0.0710648 0.0311402 0
34 1 0.0470119 0.0388948 0
37 1 0.0960566 0.0232147 0
39 1 0.118817 0.0162878 0
38 1 0.113662 0.0405052 0
40 1 0.137497 0.0326283 0
10 1 0.142412 0.00833638 0
42 1 0.161261 0.0252151 0
73 1 0.18 0.0426603 0
43 1 0.185655 0.0177628 0
14 1 0.210064 0.0101676 0
44 1 0.203401 0.0351621 0
45 1 0.228465 0.0286091 0
16 1 0.252678 0.0198221 0
886 1 0.233593 0.00332948 0
46 1 0.270636 0.0372041 0
18 1 0.275831 0.0119414 0
49 1 0.294197 0.0281429 0
20 1 0.303437 0.00438747 0
51 1 0.318096 0.02711 0
22 1 0.342524 0.0336392 0
21 1 0.35991 0.0154539 0
890 1 0.336176 0.00879121 0
24 1 0.384679 0.0212168 0
53 1 0.366257 0.0391549 0
894 1 0.402277 0.00320761 0
25 1 0.409409 0.0284813 0
26 1 0.434322 0.0351235 0
27 1 0.426441 0.00882703 0
898 1 0.450115 0.0161365 0
29 1 0.474319 0.0231356 0
900 1 0.492246 0.00603851 0
28 1 0.457214 0.0409936 0
30 1 0.498338 0.0301919 0
32 1 0.0236976 0.0464976 0
62 1 0.018974 0.0717497 0
63 1 0.042803 0.0638673 0
61 1 0.000688026 0.0555592 0
65 1 0.0666837 0.0556628 0
66 1 0.0847894 0.0717819 0
64 1 0.0609141 0.0802816 0
36 1 0.0897663 0.0479384 0
67 1 0.108071 0.0648412 0
69 1 0.132538 0.0569049 0
68 1 0.126629 0.0818751 0
71 1 0.15655 0.0497091 0
72 1 0.174914 0.0666996 0
70 1 0.150756 0.0740156 0
74 1 0.221484 0.0520103 0
103 1 0.197967 0.0595834 0
105 1 0.216334 0.0774047 0
101 1 0.192968 0.0839985 0
75 1 0.246967 0.0457955 0
77 1 0.265191 0.0629626 0
76 1 0.239729 0.0694746 0
137 1 0.258023 0.0865624 0
47 1 0.288649 0.0548174 0
48 1 0.307898 0.0699947 0
78 1 0.283013 0.079795 0
50 1 0.325077 0.0526683 0
81 1 0.332384 0.0760383 0
52 1 0.349395 0.0581882 0
82 1 0.357679 0.0824093 0
55 1 0.390761 0.0451111 0
83 1 0.373945 0.0638093 0
54 1 0.398169 0.0704546 0
57 1 0.44019 0.0586473 0
85 1 0.422131 0.0759489 0
56 1 0.416055 0.0521998 0
87 1 0.445365 0.0832378 0
59 1 0.482143 0.0491014 0
58 1 0.464228 0.0662359 0
89 1 0.487698 0.0733839 0
93 1 0.0374816 0.0885647 0
990 1 0.0137851 0.0975637 0
92 1 0.0320129 0.113801 0
91 1 0.00881861 0.121553 0
94 1 0.0554369 0.105654 0
95 1 0.0789014 0.0967941 0
125 1 0.0747252 0.121856 0
123 1 0.0509853 0.130102 0
96 1 0.097329 0.112911 0
97 1 0.102875 0.0889936 0
98 1 0.121482 0.105932 0
127 1 0.116443 0.131149 0
99 1 0.145386 0.0989659 0
100 1 0.169293 0.0917581 0
130 1 0.162328 0.116479 0
129 1 0.139498 0.123221 0
131 1 0.186711 0.109145 0
102 1 0.210913 0.102121 0
133 1 0.20541 0.126953 0
104 1 0.228268 0.118449 0
106 1 0.233912 0.0938891 0
135 1 0.252136 0.112204 0
107 1 0.274924 0.104271 0
109 1 0.29891 0.11086 0
79 1 0.316093 0.0935141 0
108 1 0.280185 0.12798 0
80 1 0.33978 0.100447 0
110 1 0.321851 0.118369 0
141 1 0.345509 0.124762 0
111 1 0.363996 0.107173 0
113 1 0.381115 0.088214 0
84 1 0.405045 0.0951357 0
112 1 0.38747 0.113253 0
115 1 0.411111 0.119038 0
86 1 0.429075 0.10132 0
116 1 0.435256 0.12571 0
117 1 0.452953 0.108584 0
88 1 0.469879 0.0909739 0
90 1 0.494461 0.0973671 0
119 1 0.477546 0.11602 0
122 1 0.0275394 0.138086 0
152 1 0.0210418 0.162681 0
121 1 0.00290829 0.145591 0
153 1 0.0457486 0.154782 0
124 1 0.0693003 0.146959 0
155 1 0.0871361 0.163905 0
154 1 0.0630493 0.171427 0
126 1 0.0924535 0.138657 0
128 1 0.134754 0.148716 0
157 1 0.111177 0.156077 0
158 1 0.129558 0.173598 0
159 1 0.157784 0.141176 0
161 1 0.176312 0.158525 0
160 1 0.153742 0.166058 0
132 1 0.180811 0.134112 0
163 1 0.199268 0.151936 0
134 1 0.222478 0.146606 0
193 1 0.220116 0.172956 0
136 1 0.265262 0.146652 0
165 1 0.244607 0.135811 0
164 1 0.243577 0.16114 0
167 1 0.268439 0.170707 0
139 1 0.304578 0.135624 0
138 1 0.287986 0.153239 0
169 1 0.310947 0.160318 0
140 1 0.328725 0.142715 0
142 1 0.352231 0.149279 0
171 1 0.335469 0.16751 0
143 1 0.369682 0.13139 0
114 1 0.394631 0.137509 0
173 1 0.376172 0.155994 0
144 1 0.400327 0.162102 0
145 1 0.418294 0.143901 0
146 1 0.425294 0.168509 0
147 1 0.442408 0.150911 0
118 1 0.459166 0.13358 0
149 1 0.483378 0.140392 0
148 1 0.466022 0.157745 0
150 1 0.489777 0.164212 0
183 1 0.0385084 0.179104 0
182 1 0.0342269 0.203391 0
1080 1 0.0153082 0.187493 0
211 1 0.00977155 0.21076 0
184 1 0.0580327 0.196353 0
185 1 0.0811772 0.187871 0
215 1 0.076665 0.213777 0
186 1 0.101306 0.205547 0
156 1 0.105707 0.180388 0
187 1 0.124914 0.19722 0
189 1 0.148983 0.190701 0
191 1 0.171848 0.183237 0
190 1 0.166958 0.207281 0
188 1 0.14404 0.214384 0
162 1 0.195442 0.176227 0
221 1 0.192157 0.213814 0
192 1 0.209464 0.19599 0
195 1 0.233537 0.203437 0
166 1 0.250727 0.186296 0
196 1 0.25712 0.211943 0
168 1 0.29381 0.178533 0
197 1 0.274617 0.194339 0
199 1 0.298911 0.202974 0
170 1 0.317601 0.184906 0
172 1 0.358939 0.174238 0
201 1 0.342595 0.192701 0
200 1 0.323682 0.209322 0
203 1 0.365875 0.198802 0
174 1 0.382899 0.180696 0
204 1 0.389627 0.204745 0
175 1 0.407101 0.187077 0
177 1 0.448537 0.176305 0
205 1 0.413472 0.211248 0
176 1 0.431122 0.193446 0
178 1 0.455122 0.200034 0
179 1 0.472491 0.182677 0
180 1 0.496734 0.189071 0
209 1 0.47917 0.206475 0
212 1 0.0285698 0.226627 0
241 1 0.0223734 0.250885 0
1140 1 0.00415438 0.235346 0
243 1 0.0464739 0.243977 0
213 1 0.0530538 0.220088 0
214 1 0.0709627 0.238778 0
245 1 0.0899707 0.256706 0
216 1 0.0941298 0.231567 0
217 1 0.119786 0.221623 0
247 1 0.113376 0.246489 0
218 1 0.136992 0.23876 0
219 1 0.157479 0.250157 0
220 1 0.172828 0.230885 0
222 1 0.18098 0.255864 0
194 1 0.216314 0.2211 0
223 1 0.198208 0.238164 0
224 1 0.221891 0.246529 0
225 1 0.240142 0.230038 0
227 1 0.26382 0.237612 0
226 1 0.246088 0.255011 0
198 1 0.280816 0.219704 0
228 1 0.288298 0.244917 0
229 1 0.30582 0.227585 0
230 1 0.311568 0.2519 0
202 1 0.347765 0.216878 0
231 1 0.330155 0.233715 0
232 1 0.353624 0.240655 0
261 1 0.3348 0.258709 0
233 1 0.371442 0.222741 0
234 1 0.377939 0.246803 0
235 1 0.395369 0.228604 0
265 1 0.402173 0.254407 0
207 1 0.437479 0.218477 0
206 1 0.419462 0.236015 0
237 1 0.443699 0.242576 0
208 1 0.461971 0.225264 0
210 1 0.485145 0.231416 0
239 1 0.467673 0.248803 0
240 1 0.492193 0.254999 0
242 1 0.0406587 0.267521 0
271 1 0.0350934 0.290909 0
1170 1 0.0164243 0.275399 0
1200 1 0.0135134 0.301455 0
244 1 0.065165 0.263284 0
273 1 0.0592953 0.293616 0
275 1 0.0818079 0.281546 0
246 1 0.102827 0.294179 0
248 1 0.109948 0.271401 0
279 1 0.125825 0.30318 0
249 1 0.13491 0.262931 0
251 1 0.162883 0.273297 0
250 1 0.143366 0.287242 0
281 1 0.168243 0.296703 0
253 1 0.20434 0.263608 0
252 1 0.186422 0.280032 0
254 1 0.21055 0.288574 0
255 1 0.227615 0.270818 0
257 1 0.27009 0.26211 0
256 1 0.25137 0.278681 0
285 1 0.233817 0.296798 0
259 1 0.293551 0.269596 0
258 1 0.275315 0.287278 0
289 1 0.299349 0.294239 0
260 1 0.317486 0.276878 0
263 1 0.359813 0.265052 0
262 1 0.341212 0.282788 0
291 1 0.323275 0.301097 0
293 1 0.36529 0.289127 0
264 1 0.383932 0.270641 0
295 1 0.38953 0.294839 0
266 1 0.408614 0.278794 0
236 1 0.425861 0.261057 0
238 1 0.449643 0.267024 0
267 1 0.432388 0.285431 0
297 1 0.413764 0.303719 0
268 1 0.456067 0.291614 0
1141 1 0.49886 0.279423 0
269 1 0.474503 0.273011 0
270 1 0.480111 0.29819 0
301 1 0.0198305 0.325152 0
1230 1 0.000704744 0.340393 0
272 1 0.040707 0.313956 0
303 1 0.0438273 0.337667 0
276 1 0.0815693 0.307747 0
274 1 0.0631516 0.322623 0
305 1 0.0862822 0.332675 0
304 1 0.0663513 0.347766 0
277 1 0.105783 0.318162 0
278 1 0.129159 0.327669 0
307 1 0.109333 0.342298 0
280 1 0.148631 0.312269 0
311 1 0.152843 0.336823 0
282 1 0.172133 0.321319 0
312 1 0.175439 0.346405 0
283 1 0.190805 0.305329 0
284 1 0.214991 0.312915 0
313 1 0.195225 0.330053 0
315 1 0.219919 0.338542 0
287 1 0.257286 0.304587 0
286 1 0.238932 0.321697 0
317 1 0.262871 0.329778 0
316 1 0.244041 0.347368 0
288 1 0.281259 0.311348 0
318 1 0.287123 0.33624 0
290 1 0.305105 0.318672 0
319 1 0.310967 0.343282 0
292 1 0.347528 0.307681 0
321 1 0.329657 0.325554 0
323 1 0.354098 0.331908 0
324 1 0.378715 0.339084 0
294 1 0.371236 0.31293 0
325 1 0.403501 0.344442 0
296 1 0.396099 0.320204 0
298 1 0.438394 0.309783 0
327 1 0.420283 0.32719 0
328 1 0.445174 0.33368 0
329 1 0.470096 0.339978 0
299 1 0.46244 0.315387 0
300 1 0.487274 0.322615 0
1201 1 0.493851 0.346703 0
302 1 0.0229772 0.350251 0
332 1 0.0256812 0.376284 0
331 1 0.00294722 0.365235 0
361 1 0.00463658 0.390085 0
333 1 0.0456822 0.362464 0
335 1 0.0695325 0.371624 0
334 1 0.0492621 0.386234 0
306 1 0.08983 0.357319 0
337 1 0.09268 0.381436 0
308 1 0.11256 0.366913 0
309 1 0.132534 0.352164 0
338 1 0.115977 0.390437 0
339 1 0.136974 0.37621 0
310 1 0.156393 0.361064 0
341 1 0.160873 0.386282 0
343 1 0.180512 0.37094 0
314 1 0.200169 0.354449 0
344 1 0.204163 0.379277 0
345 1 0.224641 0.362753 0
375 1 0.227968 0.389627 0
347 1 0.26815 0.355816 0
346 1 0.248418 0.372323 0
377 1 0.272725 0.380426 0
349 1 0.292345 0.360881 0
348 1 0.297379 0.38544 0
350 1 0.316789 0.368636 0
320 1 0.336089 0.349623 0
351 1 0.343956 0.373441 0
322 1 0.361259 0.356327 0
353 1 0.368058 0.381017 0
355 1 0.385252 0.363347 0
354 1 0.393391 0.387871 0
356 1 0.409125 0.369472 0
326 1 0.426736 0.352577 0
357 1 0.434691 0.376334 0
359 1 0.452121 0.357789 0
358 1 0.458575 0.382089 0
330 1 0.476793 0.365018 0
360 1 0.482724 0.3899 0
363 1 0.0296223 0.400269 0
362 1 0.00824909 0.414177 0
364 1 0.0315795 0.425415 0
336 1 0.0719714 0.396196 0
365 1 0.0515744 0.410942 0
366 1 0.0748914 0.420138 0
367 1 0.096054 0.406546 0
369 1 0.118282 0.415994 0
368 1 0.0975334 0.430986 0
340 1 0.139986 0.400701 0
370 1 0.140573 0.425818 0
371 1 0.161867 0.411327 0
342 1 0.183461 0.395711 0
372 1 0.185371 0.420882 0
373 1 0.207116 0.404234 0
403 1 0.208594 0.429056 0
374 1 0.229564 0.41436 0
376 1 0.252405 0.397998 0
405 1 0.253798 0.423761 0
378 1 0.2778 0.405163 0
379 1 0.308439 0.40692 0
409 1 0.292111 0.425327 0
410 1 0.315385 0.432091 0
381 1 0.326439 0.391233 0
352 1 0.350615 0.398173 0
382 1 0.357676 0.42185 0
380 1 0.331823 0.415259 0
383 1 0.374463 0.404715 0
385 1 0.398743 0.412305 0
384 1 0.380993 0.429345 0
387 1 0.417081 0.394343 0
386 1 0.423769 0.418473 0
388 1 0.441395 0.40092 0
419 1 0.447599 0.425304 0
389 1 0.464625 0.407281 0
1261 1 0.489072 0.414301 0
390 1 0.472222 0.432638 0
393 1 0.0103759 0.439281 0
423 1 0.0146171 0.46535 0
394 1 0.0336465 0.450157 0
425 1 0.0370911 0.475893 0
395 1 0.0549911 0.435534 0
396 1 0.0559904 0.459908 0
397 1 0.0779104 0.445362 0
427 1 0.0796205 0.470445 0
399 1 0.120695 0.441283 0
398 1 0.100887 0.455496 0
429 1 0.123523 0.466433 0
401 1 0.163638 0.436017 0
400 1 0.144119 0.451018 0
431 1 0.167402 0.461178 0
430 1 0.147258 0.476432 0
402 1 0.188312 0.44462 0
433 1 0.210879 0.454715 0
432 1 0.190354 0.470405 0
404 1 0.231558 0.439907 0
406 1 0.252754 0.453731 0
435 1 0.232646 0.46762 0
436 1 0.256545 0.478486 0
407 1 0.271838 0.439906 0
437 1 0.277391 0.46411 0
408 1 0.296905 0.449041 0
439 1 0.301341 0.474112 0
441 1 0.320519 0.457861 0
411 1 0.338994 0.439912 0
412 1 0.345189 0.463965 0
413 1 0.363414 0.447228 0
415 1 0.405415 0.436083 0
414 1 0.386972 0.453949 0
443 1 0.369291 0.471366 0
416 1 0.412031 0.460651 0
417 1 0.429981 0.442338 0
447 1 0.436783 0.467784 0
418 1 0.454441 0.449866 0
1291 1 0.496795 0.438268 0
420 1 0.47907 0.456005 0
449 1 0.461145 0.473628 0
454 1 0.019673 0.514871 0
424 1 0.0162797 0.490262 0
455 1 0.0395792 0.500816 0
426 1 0.0594751 0.484873 0
456 1 0.0635471 0.509356 0
457 1 0.0827261 0.495802 0
487 1 0.0862195 0.520461 0
428 1 0.103283 0.480607 0
459 1 0.12604 0.490566 0
458 1 0.105599 0.505271 0
489 1 0.129344 0.516116 0
461 1 0.170356 0.486135 0
460 1 0.149447 0.500837 0
462 1 0.172765 0.510602 0
434 1 0.213379 0.481058 0
463 1 0.192859 0.495443 0
464 1 0.2159 0.505413 0
493 1 0.195532 0.520277 0
465 1 0.236022 0.492062 0
467 1 0.260049 0.50306 0
466 1 0.238153 0.517075 0
438 1 0.280401 0.488251 0
469 1 0.306214 0.500475 0
468 1 0.283957 0.512362 0
440 1 0.325525 0.482275 0
442 1 0.350523 0.488264 0
471 1 0.331733 0.506259 0
473 1 0.356805 0.512955 0
445 1 0.394314 0.479257 0
444 1 0.375055 0.495908 0
475 1 0.400878 0.503757 0
474 1 0.383216 0.521374 0
446 1 0.418949 0.485945 0
477 1 0.424148 0.511889 0
448 1 0.443032 0.491859 0
478 1 0.449503 0.516864 0
450 1 0.484515 0.480434 0
479 1 0.467412 0.498792 0
1381 1 0.492016 0.505513 0
483 1 0.0222543 0.539987 0
482 1 0.00285767 0.555557 0
485 1 0.0423455 0.524521 0
513 1 0.0260053 0.564067 0
484 1 0.045861 0.550091 0
486 1 0.0658829 0.535014 0
515 1 0.0678741 0.560675 0
517 1 0.0894431 0.546393 0
488 1 0.109953 0.530743 0
519 1 0.112913 0.556235 0
490 1 0.133478 0.541826 0
491 1 0.153253 0.526414 0
521 1 0.156861 0.551909 0
492 1 0.176371 0.535178 0
523 1 0.179831 0.562017 0
494 1 0.197999 0.546345 0
495 1 0.217912 0.531665 0
525 1 0.221004 0.556747 0
496 1 0.241235 0.541813 0
497 1 0.261158 0.527394 0
527 1 0.262987 0.552172 0
470 1 0.314138 0.523128 0
499 1 0.305143 0.545794 0
498 1 0.283112 0.537205 0
529 1 0.286507 0.561476 0
472 1 0.340735 0.531901 0
501 1 0.327668 0.552059 0
502 1 0.350585 0.558976 0
503 1 0.365894 0.5391 0
505 1 0.390412 0.545821 0
476 1 0.406971 0.529301 0
504 1 0.373649 0.564998 0
506 1 0.415558 0.553231 0
507 1 0.431749 0.534461 0
508 1 0.439361 0.559219 0
509 1 0.456893 0.541233 0
480 1 0.474181 0.523354 0
510 1 0.481074 0.548061 0
1382 1 0.49808 0.531021 0
512 1 0.0296893 0.589903 0
511 1 0.00684258 0.580367 0
541 1 0.00978814 0.604924 0
514 1 0.0498655 0.575973 0
545 1 0.0731899 0.585385 0
543 1 0.0531812 0.600315 0
516 1 0.0932908 0.570378 0
518 1 0.11669 0.581095 0
547 1 0.09622 0.5961 0
548 1 0.12066 0.606611 0
520 1 0.136554 0.566904 0
549 1 0.140626 0.592666 0
522 1 0.160111 0.576496 0
551 1 0.163022 0.602425 0
553 1 0.183302 0.586959 0
524 1 0.202683 0.572009 0
554 1 0.206223 0.598491 0
555 1 0.224566 0.583117 0
526 1 0.24292 0.567808 0
557 1 0.248244 0.593057 0
528 1 0.267238 0.577469 0
558 1 0.271692 0.603243 0
500 1 0.309727 0.569921 0
559 1 0.290449 0.586043 0
530 1 0.313933 0.594916 0
531 1 0.331954 0.57833 0
532 1 0.337987 0.602084 0
533 1 0.355574 0.583949 0
563 1 0.362039 0.60754 0
534 1 0.379464 0.588999 0
535 1 0.397982 0.571919 0
536 1 0.403053 0.59634 0
537 1 0.421816 0.577843 0
567 1 0.427504 0.602837 0
538 1 0.44635 0.583485 0
539 1 0.463484 0.565444 0
540 1 0.487727 0.57212 0
569 1 0.470474 0.589547 0
1441 1 0.493911 0.596714 0
542 1 0.032766 0.614729 0
571 1 0.0125841 0.629483 0
573 1 0.0357528 0.639588 0
546 1 0.0757006 0.610847 0
544 1 0.0557779 0.625291 0
575 1 0.0793665 0.635332 0
574 1 0.05917 0.649863 0
577 1 0.0991931 0.620821 0
579 1 0.122578 0.632057 0
576 1 0.102178 0.645514 0
550 1 0.142757 0.617358 0
581 1 0.165722 0.627431 0
580 1 0.145745 0.641765 0
552 1 0.186359 0.612738 0
582 1 0.18854 0.638187 0
583 1 0.2085 0.624253 0
584 1 0.211555 0.649159 0
556 1 0.228986 0.608354 0
585 1 0.232657 0.633595 0
586 1 0.256154 0.645384 0
587 1 0.252078 0.617637 0
560 1 0.29462 0.611865 0
589 1 0.275343 0.629232 0
590 1 0.299895 0.637307 0
561 1 0.318547 0.619299 0
562 1 0.342948 0.626235 0
591 1 0.324501 0.643747 0
593 1 0.349576 0.651255 0
565 1 0.385841 0.61432 0
564 1 0.366433 0.63238 0
595 1 0.390967 0.639911 0
568 1 0.450953 0.608455 0
566 1 0.410069 0.620389 0
596 1 0.415854 0.645464 0
597 1 0.433588 0.628168 0
570 1 0.4754 0.614075 0
600 1 0.457459 0.63434 0
1471 1 0.48209 0.63901 0
1442 1 0.500293 0.621257 0
572 1 0.0145856 0.65322 0
602 1 0.0170558 0.678612 0
603 1 0.0376649 0.664532 0
633 1 0.0401467 0.689652 0
605 1 0.0814485 0.660459 0
604 1 0.0599055 0.675529 0
606 1 0.0837817 0.685941 0
578 1 0.124849 0.655601 0
607 1 0.104035 0.670452 0
608 1 0.125976 0.680779 0
611 1 0.168009 0.65184 0
609 1 0.147288 0.66612 0
610 1 0.170606 0.676827 0
639 1 0.149089 0.691034 0
612 1 0.192538 0.688356 0
613 1 0.190492 0.662635 0
614 1 0.214332 0.673363 0
615 1 0.23484 0.658623 0
616 1 0.237718 0.682473 0
617 1 0.259462 0.669526 0
647 1 0.261942 0.693888 0
588 1 0.281499 0.65439 0
619 1 0.306469 0.661926 0
618 1 0.287592 0.679643 0
620 1 0.313681 0.686331 0
621 1 0.331631 0.668316 0
592 1 0.356824 0.675126 0
622 1 0.339009 0.692617 0
594 1 0.373373 0.657361 0
625 1 0.398355 0.664059 0
623 1 0.380547 0.682197 0
626 1 0.404696 0.688748 0
599 1 0.440559 0.652511 0
598 1 0.446279 0.67688 0
627 1 0.423018 0.670307 0
657 1 0.429008 0.694485 0
628 1 0.470481 0.682061 0
629 1 0.465046 0.657735 0
1501 1 0.489004 0.663014 0
630 1 0.495823 0.687545 0
632 1 0.0201974 0.704828 0
663 1 0.0230624 0.729805 0
634 1 0.0431654 0.714748 0
635 1 0.0637742 0.701101 0
636 1 0.0867781 0.711363 0
665 1 0.0666654 0.72593 0
666 1 0.089098 0.73697 0
637 1 0.107047 0.696659 0
638 1 0.128983 0.706546 0
667 1 0.109156 0.7218 0
669 1 0.13273 0.732551 0
641 1 0.172508 0.703131 0
640 1 0.152251 0.717019 0
671 1 0.17602 0.728348 0
643 1 0.215415 0.697936 0
642 1 0.196254 0.713542 0
644 1 0.218909 0.723848 0
645 1 0.238069 0.707599 0
675 1 0.240538 0.734642 0
646 1 0.259429 0.71811 0
649 1 0.297444 0.704426 0
648 1 0.281836 0.723579 0
679 1 0.304584 0.729168 0
650 1 0.321784 0.710706 0
651 1 0.345408 0.717852 0
681 1 0.329377 0.736101 0
653 1 0.362967 0.699669 0
624 1 0.387474 0.706122 0
654 1 0.370063 0.723889 0
685 1 0.393749 0.730289 0
655 1 0.411233 0.712965 0
656 1 0.436367 0.717894 0
686 1 0.418968 0.736049 0
658 1 0.453169 0.700229 0
687 1 0.460431 0.724107 0
659 1 0.47803 0.706396 0
689 1 0.485218 0.730405 0
662 1 0.0264002 0.754492 0
693 1 0.0274287 0.780037 0
691 1 0.00509987 0.768876 0
661 1 0.00218882 0.74427 0
664 1 0.0461941 0.74086 0
694 1 0.0488345 0.765957 0
695 1 0.068585 0.750753 0
696 1 0.0717599 0.776269 0
697 1 0.0917333 0.761692 0
668 1 0.112212 0.7474 0
698 1 0.114084 0.772586 0
699 1 0.135745 0.758076 0
670 1 0.155679 0.742622 0
701 1 0.159272 0.769351 0
672 1 0.179103 0.75451 0
702 1 0.183203 0.781845 0
673 1 0.198602 0.739862 0
674 1 0.220932 0.748766 0
703 1 0.201319 0.765634 0
705 1 0.2259 0.773461 0
677 1 0.26318 0.742378 0
676 1 0.24524 0.758969 0
707 1 0.269378 0.766382 0
678 1 0.287177 0.747732 0
709 1 0.29376 0.771356 0
680 1 0.311565 0.752674 0
710 1 0.318081 0.777928 0
652 1 0.352788 0.742102 0
682 1 0.359396 0.765896 0
711 1 0.335279 0.760117 0
683 1 0.376832 0.748268 0
713 1 0.383361 0.771461 0
684 1 0.401367 0.754739 0
716 1 0.407895 0.778648 0
717 1 0.443254 0.742125 0
715 1 0.425364 0.759661 0
718 1 0.450476 0.766397 0
1591 1 0.499201 0.778812 0
690 1 0.492887 0.754433 0
688 1 0.467461 0.749032 0
719 1 0.475413 0.772621 0
692 1 0.00823047 0.796752 0
722 1 0.00588315 0.821421 0
723 1 0.0297819 0.810737 0
725 1 0.0493156 0.790969 0
726 1 0.0728073 0.800292 0
755 1 0.0720141 0.824686 0
727 1 0.0939867 0.786819 0
728 1 0.116974 0.798355 0
757 1 0.0943429 0.814935 0
700 1 0.137003 0.782855 0
729 1 0.14089 0.806598 0
730 1 0.161218 0.820251 0
731 1 0.161745 0.793541 0
704 1 0.207135 0.791465 0
732 1 0.186188 0.809359 0
735 1 0.250758 0.783216 0
733 1 0.230998 0.797096 0
734 1 0.227774 0.822603 0
736 1 0.253322 0.80857 0
706 1 0.274427 0.79077 0
737 1 0.284598 0.813296 0
708 1 0.29985 0.79514 0
738 1 0.308335 0.819059 0
741 1 0.342844 0.784836 0
739 1 0.324909 0.802173 0
742 1 0.349899 0.808326 0
740 1 0.331837 0.825808 0
712 1 0.367285 0.790315 0
714 1 0.390495 0.79733 0
743 1 0.373556 0.816047 0
745 1 0.397569 0.821781 0
746 1 0.414352 0.80307 0
747 1 0.431625 0.784616 0
748 1 0.440041 0.808444 0
749 1 0.456847 0.790401 0
720 1 0.480791 0.797241 0
750 1 0.463512 0.815907 0
1621 1 0.488149 0.821568 0
753 1 0.0237678 0.839719 0
783 1 0.0183766 0.864875 0
754 1 0.0417506 0.856031 0
752 1 0.000852433 0.847799 0
724 1 0.0466158 0.830768 0
785 1 0.0660898 0.84955 0
786 1 0.0843141 0.865934 0
756 1 0.0904143 0.841103 0
758 1 0.113213 0.832198 0
787 1 0.107507 0.858353 0
789 1 0.131599 0.852815 0
759 1 0.136959 0.829625 0
760 1 0.157283 0.844867 0
791 1 0.174268 0.862254 0
790 1 0.150173 0.868639 0
761 1 0.179896 0.83682 0
763 1 0.20263 0.827361 0
762 1 0.197409 0.853721 0
764 1 0.219714 0.846733 0
765 1 0.244694 0.839686 0
795 1 0.239516 0.863082 0
766 1 0.268407 0.854751 0
767 1 0.266313 0.830062 0
769 1 0.314813 0.843891 0
768 1 0.290743 0.837962 0
799 1 0.297587 0.86135 0
770 1 0.338087 0.851277 0
771 1 0.355967 0.833755 0
773 1 0.363093 0.858171 0
744 1 0.381455 0.839507 0
774 1 0.386967 0.863649 0
775 1 0.405342 0.846535 0
777 1 0.422016 0.828129 0
807 1 0.429 0.85292 0
778 1 0.445568 0.83425 0
809 1 0.452824 0.859702 0
779 1 0.469769 0.840034 0
780 1 0.47696 0.865105 0
1651 1 0.494146 0.845786 0
812 1 0.0142448 0.888881 0
814 1 0.0316409 0.906905 0
813 1 0.037934 0.881488 0
784 1 0.0609864 0.87408 0
815 1 0.0556747 0.899337 0
816 1 0.0793683 0.890756 0
788 1 0.127316 0.876781 0
817 1 0.102858 0.88293 0
819 1 0.120743 0.900174 0
818 1 0.098112 0.908728 0
821 1 0.168235 0.885273 0
820 1 0.145019 0.89337 0
851 1 0.163346 0.910245 0
793 1 0.216514 0.87128 0
792 1 0.192424 0.878971 0
823 1 0.21143 0.896292 0
822 1 0.187507 0.903184 0
794 1 0.23505 0.888684 0
796 1 0.257359 0.879502 0
827 1 0.256628 0.904367 0
825 1 0.230279 0.912345 0
797 1 0.280793 0.877605 0
798 1 0.283401 0.90185 0
800 1 0.303936 0.88732 0
829 1 0.306758 0.912277 0
801 1 0.321047 0.869828 0
831 1 0.327622 0.893782 0
772 1 0.34479 0.875607 0
802 1 0.351006 0.900964 0
803 1 0.369751 0.881903 0
804 1 0.375165 0.90644 0
805 1 0.393727 0.888942 0
776 1 0.411548 0.871474 0
806 1 0.418019 0.896014 0
808 1 0.435324 0.876729 0
839 1 0.442178 0.902861 0
1681 1 0.48377 0.88983 0
810 1 0.459873 0.883728 0
840 1 0.466464 0.908421 0
843 1 0.00786118 0.913892 0
842 1 0.00281911 0.937959 0
844 1 0.026296 0.931275 0
875 1 0.0440393 0.947874 0
873 1 0.0210828 0.955454 0
845 1 0.0501792 0.923541 0
846 1 0.068542 0.94016 0
847 1 0.0747552 0.915837 0
848 1 0.0927763 0.933732 0
849 1 0.11651 0.92465 0
879 1 0.111668 0.949865 0
881 1 0.134799 0.942177 0
850 1 0.140288 0.91754 0
852 1 0.157819 0.934916 0
883 1 0.177458 0.952034 0
853 1 0.181978 0.92818 0
824 1 0.205953 0.920285 0
854 1 0.20075 0.944929 0
855 1 0.224625 0.936323 0
826 1 0.248422 0.928754 0
857 1 0.266969 0.946376 0
856 1 0.243249 0.954212 0
828 1 0.272185 0.923429 0
859 1 0.290686 0.938787 0
830 1 0.315695 0.935129 0
833 1 0.357922 0.924874 0
832 1 0.33265 0.918308 0
861 1 0.339988 0.941666 0
835 1 0.399851 0.913195 0
863 1 0.363928 0.948816 0
834 1 0.38183 0.931583 0
865 1 0.406224 0.937457 0
864 1 0.388043 0.956139 0
837 1 0.423914 0.920253 0
836 1 0.430417 0.944392 0
838 1 0.448368 0.926401 0
870 1 0.45593 0.950283 0
1711 1 0.490257 0.91458 0
869 1 0.471995 0.932804 0
1712 1 0.497587 0.939438 0
3 1 0.0338954 0.997573 0
872 1 0.0160764 0.980861 0
874 1 0.0391295 0.972909 0
877 1 0.08578 0.957391 0
5 1 0.0581994 0.990311 0
876 1 0.0628275 0.964961 0
7 1 0.0819574 0.98179 0
8 1 0.100121 0.997925 0
9 1 0.124554 0.991212 0
878 1 0.105922 0.97379 0
880 1 0.129887 0.967058 0
41 1 0.166762 1.0004 0
11 1 0.147931 0.984316 0
882 1 0.153747 0.959501 0
13 1 0.172734 0.977056 0
12 1 0.19212 0.994243 0
15 1 0.215778 0.986292 0
884 1 0.195837 0.969715 0
885 1 0.220054 0.962552 0
17 1 0.257204 0.995457 0
887 1 0.239709 0.979312 0
888 1 0.263195 0.97105 0
858 1 0.286528 0.963361 0
19 1 0.282294 0.988485 0
889 1 0.305105 0.979201 0
860 1 0.321493 0.959356 0
862 1 0.346126 0.966182 0
891 1 0.328374 0.983885 0
892 1 0.353239 0.991343 0
23 1 0.377235 0.997915 0
893 1 0.370978 0.973809 0
895 1 0.395489 0.979801 0
896 1 0.419992 0.984977 0
866 1 0.413089 0.962123 0
867 1 0.437602 0.967469 0
897 1 0.445388 0.992148 0
1771 1 0.485842 0.981265 0
1741 1 0.479591 0.956128 0
868 1 0.462329 0.974216 0
899 1 0.468601 0.998878 0
931 1 0.522572 0.0362194 0
901 1 0.516323 0.012728 0
902 1 0.540104 0.0186755 0
904 1 0.563951 0.0244315 0
906 1 0.58144 0.00592864 0
935 1 0.587707 0.0305605 0
933 1 0.546295 0.0438527 0
905 1 0.557741 0.000238913 0
908 1 0.604945 0.0131044 0
939 1 0.628858 0.0198202 0
937 1 0.612057 0.0376913 0
910 1 0.646836 0.0027546 0
941 1 0.653658 0.0270569 0
912 1 0.670221 0.00831129 0
942 1 0.677718 0.0325496 0
943 1 0.694355 0.0143859 0
945 1 0.717665 0.0223333 0
944 1 0.701545 0.0404577 0
914 1 0.741873 0.0219579 0
916 1 0.764183 0.0129544 0
947 1 0.76009 0.0380297 0
918 1 0.783043 0.0308764 0
919 1 0.807723 0.0229918 0
917 1 0.788448 0.00648407 0
920 1 0.830901 0.0167729 0
922 1 0.849601 0.0338727 0
921 1 0.854205 0.00926752 0
951 1 0.824839 0.0409214 0
923 1 0.872947 0.0260453 0
924 1 0.896735 0.0185388 0
1792 1 0.878856 0.00144889 0
954 1 0.892165 0.0434001 0
955 1 0.916024 0.0368898 0
925 1 0.920823 0.0116332 0
926 1 0.93974 0.0295577 0
928 1 0.944464 0.00431613 0
930 1 0.986723 0.0145032 0
959 1 0.962334 0.0216392 0
960 1 0.981327 0.0388589 0
932 1 0.529159 0.0609316 0
961 1 0.51256 0.0798836 0
60 1 0.50514 0.0551609 0
962 1 0.535931 0.0861576 0
963 1 0.55383 0.0675761 0
934 1 0.570443 0.049098 0
965 1 0.578406 0.0740005 0
936 1 0.594745 0.0559138 0
967 1 0.618544 0.0624159 0
966 1 0.601694 0.0817471 0
938 1 0.636147 0.0448377 0
969 1 0.64222 0.0694624 0
940 1 0.660368 0.0513012 0
970 1 0.666327 0.0753209 0
971 1 0.684843 0.0575362 0
973 1 0.708468 0.0640446 0
972 1 0.691681 0.0824628 0
975 1 0.730543 0.0448613 0
974 1 0.732932 0.0698046 0
946 1 0.754636 0.0627909 0
977 1 0.771085 0.0805313 0
949 1 0.801116 0.0474816 0
948 1 0.777545 0.055756 0
979 1 0.795309 0.0735878 0
950 1 0.819167 0.065332 0
980 1 0.838873 0.0815982 0
952 1 0.843649 0.0577716 0
981 1 0.862257 0.0747465 0
953 1 0.867646 0.050741 0
983 1 0.885944 0.0669273 0
984 1 0.904706 0.0855066 0
985 1 0.910217 0.0610034 0
956 1 0.933724 0.0543085 0
986 1 0.928866 0.0784641 0
987 1 0.952706 0.0714271 0
957 1 0.957398 0.046352 0
958 1 0.976187 0.0640596 0
989 1 0.995688 0.0794916 0
991 1 0.517726 0.104294 0
993 1 0.542218 0.110071 0
992 1 0.525456 0.128693 0
120 1 0.500308 0.122183 0
964 1 0.559679 0.0917266 0
994 1 0.567929 0.116508 0
995 1 0.583499 0.0979389 0
996 1 0.59098 0.122981 0
968 1 0.62572 0.0869969 0
997 1 0.608549 0.105508 0
998 1 0.632252 0.112352 0
1027 1 0.615274 0.130195 0
999 1 0.649345 0.0943655 0
1000 1 0.656306 0.118032 0
1001 1 0.673704 0.0998386 0
1031 1 0.681591 0.123781 0
1002 1 0.699072 0.105442 0
1003 1 0.717008 0.088339 0
1004 1 0.722277 0.111725 0
976 1 0.766287 0.104751 0
1005 1 0.741332 0.0930804 0
1035 1 0.745429 0.118132 0
978 1 0.813957 0.0902728 0
1007 1 0.790595 0.0976916 0
1006 1 0.785035 0.121857 0
1008 1 0.808971 0.113955 0
1009 1 0.83269 0.1064 0
1010 1 0.852553 0.124308 0
1011 1 0.856989 0.0995397 0
982 1 0.880822 0.0922228 0
1012 1 0.876735 0.117207 0
1013 1 0.899833 0.109648 0
1016 1 0.918468 0.126938 0
1017 1 0.947813 0.0954669 0
1015 1 0.92391 0.102891 0
1047 1 0.942112 0.120547 0
988 1 0.971956 0.0886485 0
1018 1 0.96609 0.112738 0
1019 1 0.990032 0.104976 0
1020 1 0.985123 0.128802 0
1022 1 0.532462 0.152789 0
1021 1 0.508816 0.145887 0
1051 1 0.51375 0.169835 0
1023 1 0.549657 0.133743 0
1024 1 0.555864 0.158573 0
1025 1 0.573931 0.140437 0
1055 1 0.580291 0.164569 0
1026 1 0.597529 0.14767 0
1028 1 0.622063 0.153556 0
1057 1 0.603619 0.172173 0
1029 1 0.638633 0.135796 0
1059 1 0.645668 0.160035 0
1030 1 0.663013 0.142209 0
1061 1 0.670092 0.165718 0
1032 1 0.6872 0.148436 0
1033 1 0.705718 0.130232 0
1063 1 0.711656 0.154632 0
1062 1 0.693887 0.172566 0
1034 1 0.729658 0.136977 0
1036 1 0.755496 0.142198 0
1065 1 0.735613 0.16092 0
1066 1 0.75936 0.167163 0
1067 1 0.779855 0.150138 0
1037 1 0.804507 0.137566 0
1038 1 0.801216 0.16177 0
1039 1 0.829174 0.13147 0
1040 1 0.823684 0.155557 0
1041 1 0.847375 0.148618 0
1071 1 0.841422 0.173689 0
1042 1 0.864894 0.165441 0
1014 1 0.895301 0.134744 0
1043 1 0.871253 0.141409 0
1044 1 0.888692 0.159577 0
1045 1 0.912691 0.152761 0
1046 1 0.936952 0.144001 0
1077 1 0.931747 0.169184 0
1048 1 0.955568 0.161356 0
1049 1 0.960853 0.137693 0
1050 1 0.979475 0.153521 0
151 1 0.997742 0.170818 0
1053 1 0.537537 0.176781 0
1052 1 0.520547 0.194589 0
1081 1 0.502921 0.213397 0
1083 1 0.544566 0.20143 0
1054 1 0.562049 0.183828 0
1056 1 0.585904 0.190104 0
1085 1 0.568816 0.207902 0
1058 1 0.627508 0.178403 0
1087 1 0.610558 0.196279 0
1089 1 0.63425 0.202391 0
1086 1 0.59241 0.214085 0
1060 1 0.651452 0.184078 0
1091 1 0.675638 0.190769 0
1090 1 0.658123 0.208939 0
1093 1 0.700028 0.196546 0
1064 1 0.717354 0.179078 0
1094 1 0.723955 0.20304 0
1092 1 0.683021 0.215299 0
1095 1 0.742074 0.185851 0
1097 1 0.765013 0.19345 0
1096 1 0.747949 0.210335 0
1127 1 0.772245 0.217417 0
1068 1 0.782447 0.175925 0
1098 1 0.788635 0.199605 0
1099 1 0.812597 0.205973 0
1069 1 0.817418 0.181526 0
1070 1 0.83585 0.198122 0
1072 1 0.859208 0.190203 0
1101 1 0.853991 0.21581 0
1075 1 0.906976 0.17703 0
1073 1 0.882772 0.182795 0
1103 1 0.877248 0.207461 0
1074 1 0.901351 0.201634 0
1078 1 0.949294 0.186149 0
1076 1 0.925188 0.193656 0
1107 1 0.942815 0.211028 0
1079 1 0.973196 0.178523 0
1109 1 0.966546 0.202866 0
181 1 0.990865 0.195231 0
1082 1 0.527676 0.219663 0
1111 1 0.510018 0.237501 0
1113 1 0.533578 0.244443 0
1084 1 0.551591 0.225839 0
1114 1 0.557778 0.250069 0
1115 1 0.574866 0.231738 0
1116 1 0.582002 0.2561 0
1088 1 0.616604 0.220097 0
1117 1 0.59929 0.238371 0
1118 1 0.623455 0.244995 0
1119 1 0.640695 0.226735 0
1121 1 0.665253 0.234206 0
1120 1 0.647635 0.251175 0
1151 1 0.671934 0.258089 0
1122 1 0.689363 0.240092 0
1123 1 0.706414 0.221845 0
1124 1 0.713494 0.245396 0
1125 1 0.730369 0.227473 0
1126 1 0.754021 0.234808 0
1155 1 0.737221 0.253501 0
1157 1 0.761789 0.258764 0
1129 1 0.796897 0.223962 0
1128 1 0.778101 0.240831 0
1159 1 0.801421 0.24827 0
1100 1 0.830965 0.223044 0
1130 1 0.824507 0.247307 0
1131 1 0.847746 0.241064 0
1132 1 0.865271 0.257615 0
1102 1 0.8711 0.233652 0
1104 1 0.894514 0.225476 0
1133 1 0.889478 0.250279 0
1105 1 0.918289 0.21894 0
1135 1 0.912681 0.242337 0
1136 1 0.93255 0.259757 0
1106 1 0.937096 0.235604 0
1110 1 0.985193 0.218978 0
1137 1 0.95692 0.251509 0
1108 1 0.961251 0.226921 0
1139 1 0.979787 0.243871 0