ITEM: TIMESTEP
14000
ITEM: NUMBER OF ATOMS
1800
ITEM: BOX BOUNDS pp pp pp
-1.2168559945801860e-01 1.6512168559946025e+02
-1.2168559945801860e-01 1.6512168559946025e+02
0.0000000000000000e+00 5.5000000000000000e+00
ITEM: ATOMS id type xs ys zs
2 1 0.0184759 0.0123298 0
3 1 0.0413877 0.00503478 0
33 1 0.0346635 0.0296637 0
31 1 0.01026 0.0356475 0
4 1 0.0579255 0.0243912 0
6 1 0.0828529 0.0186626 0
35 1 0.0761813 0.0411407 0
8 1 0.105933 0.0133219 0
37 1 0.0989879 0.037622 0
9 1 0.128291 0.00138106 0
39 1 0.125303 0.0272862 0
10 1 0.147005 0.0159072 0
11 1 0.167251 0.0011083 0
41 1 0.169196 0.0257244 0
40 1 0.148372 0.0404394 0
12 1 0.191867 0.012779 0
43 1 0.194244 0.0380969 0
14 1 0.21438 0.0235662 0
45 1 0.237963 0.0214031 0
16 1 0.261715 0.0181018 0
46 1 0.254175 0.0414696 0
47 1 0.279029 0.0376587 0
18 1 0.286676 0.0150823 0
20 1 0.311797 0.0102395 0
49 1 0.302819 0.0350982 0
51 1 0.328406 0.0297613 0
22 1 0.35246 0.021053 0
21 1 0.335409 0.00588658 0
24 1 0.377689 0.0145637 0
25 1 0.403129 0.0107664 0
55 1 0.393981 0.0340884 0
53 1 0.370238 0.0376217 0
26 1 0.419653 0.0282927 0
27 1 0.425874 0.00384041 0
898 1 0.450682 0.00831332 0
28 1 0.459631 0.0340323 0
29 1 0.480001 0.0179472 0
59 1 0.483548 0.0416636 0
900 1 0.498297 0.00229004 0
32 1 0.027801 0.0528389 0
62 1 0.0206634 0.0757728 0
63 1 0.044936 0.0725489 0
61 1 0.00366953 0.0594744 0
34 1 0.0506395 0.0487124 0
65 1 0.0678035 0.0647056 0
66 1 0.0813424 0.0857569 0
36 1 0.0914267 0.0609613 0
38 1 0.117571 0.0524672 0
67 1 0.105787 0.0802249 0
69 1 0.129656 0.0755092 0
71 1 0.152831 0.0660299 0
42 1 0.17213 0.0502621 0
72 1 0.178868 0.0736437 0
44 1 0.220179 0.0475669 0
73 1 0.199128 0.0614823 0
74 1 0.220051 0.072179 0
103 1 0.200971 0.0868256 0
75 1 0.243818 0.0629079 0
77 1 0.270336 0.0606239 0
76 1 0.242234 0.0860732 0
48 1 0.296154 0.0577164 0
78 1 0.287353 0.0824183 0
50 1 0.320692 0.053399 0
79 1 0.311377 0.0795289 0
81 1 0.334516 0.0730978 0
52 1 0.350194 0.0507388 0
82 1 0.357492 0.0779777 0
83 1 0.376494 0.0600425 0
54 1 0.398875 0.0696082 0
113 1 0.380842 0.0863265 0
57 1 0.439284 0.0535093 0
85 1 0.422433 0.0743199 0
56 1 0.414639 0.0517682 0
87 1 0.446202 0.0768695 0
58 1 0.462282 0.0580218 0
89 1 0.489688 0.0662379 0
88 1 0.471195 0.0815335 0
92 1 0.0237189 0.121593 0
93 1 0.0327872 0.0964383 0
91 1 0.00309792 0.106165 0
94 1 0.048297 0.114906 0
64 1 0.0569947 0.0928206 0
95 1 0.0744129 0.109693 0
96 1 0.0908227 0.128096 0
68 1 0.121576 0.0979804 0
97 1 0.0982099 0.10336 0
98 1 0.113814 0.122067 0
99 1 0.137521 0.116207 0
70 1 0.14583 0.0929576 0
100 1 0.160041 0.111148 0
101 1 0.179539 0.0980828 0
131 1 0.179263 0.126896 0
102 1 0.199842 0.112373 0
105 1 0.222076 0.0987577 0
104 1 0.222656 0.124254 0
106 1 0.244357 0.109849 0
107 1 0.265013 0.0939108 0
137 1 0.265525 0.119885 0
108 1 0.287715 0.127907 0
109 1 0.305729 0.102701 0
80 1 0.339906 0.097296 0
110 1 0.325481 0.116234 0
111 1 0.364619 0.102532 0
141 1 0.348915 0.121804 0
84 1 0.406379 0.0921821 0
112 1 0.390515 0.111552 0
115 1 0.415175 0.115931 0
86 1 0.430305 0.0981607 0
116 1 0.43922 0.122213 0
117 1 0.454915 0.102023 0
118 1 0.462658 0.124519 0
90 1 0.495227 0.0899835 0
119 1 0.479012 0.106844 0
122 1 0.0168549 0.14505 0
123 1 0.0430884 0.138485 0
153 1 0.0363771 0.16134 0
152 1 0.0130238 0.168228 0
124 1 0.0602246 0.157453 0
125 1 0.0662958 0.133038 0
126 1 0.0842154 0.150261 0
127 1 0.108233 0.145271 0
128 1 0.124178 0.163588 0
129 1 0.131389 0.14037 0
157 1 0.100042 0.16807 0
159 1 0.148851 0.158087 0
130 1 0.155182 0.134997 0
161 1 0.166279 0.173784 0
132 1 0.180429 0.152555 0
133 1 0.200469 0.137545 0
163 1 0.206207 0.163853 0
134 1 0.226119 0.149711 0
135 1 0.245424 0.133417 0
136 1 0.267049 0.143478 0
165 1 0.249035 0.159249 0
164 1 0.229942 0.174307 0
167 1 0.272172 0.168587 0
138 1 0.291102 0.151494 0
139 1 0.309994 0.134169 0
169 1 0.315725 0.158802 0
140 1 0.332225 0.141605 0
142 1 0.355299 0.146352 0
171 1 0.339979 0.165042 0
114 1 0.396459 0.134062 0
143 1 0.371334 0.125422 0
173 1 0.379573 0.150857 0
144 1 0.404573 0.157833 0
145 1 0.420757 0.139885 0
146 1 0.428959 0.16331 0
147 1 0.446752 0.144228 0
177 1 0.452233 0.170084 0
149 1 0.485022 0.133792 0
148 1 0.46952 0.15277 0
150 1 0.492086 0.158501 0
183 1 0.0277837 0.187834 0
182 1 0.0207799 0.211901 0
184 1 0.0442893 0.204802 0
155 1 0.0765914 0.17519 0
154 1 0.0529794 0.180672 0
185 1 0.0678173 0.199098 0
156 1 0.0919776 0.193514 0
158 1 0.115665 0.186077 0
187 1 0.109931 0.209706 0
189 1 0.134193 0.203797 0
160 1 0.140499 0.180719 0
191 1 0.158966 0.197103 0
221 1 0.177046 0.215038 0
162 1 0.184001 0.190864 0
193 1 0.210186 0.189244 0
192 1 0.199841 0.210175 0
195 1 0.234304 0.202605 0
166 1 0.252662 0.184766 0
196 1 0.260035 0.209855 0
197 1 0.277988 0.192655 0
168 1 0.296566 0.174978 0
199 1 0.302923 0.199031 0
198 1 0.282944 0.216798 0
170 1 0.321266 0.183281 0
172 1 0.36393 0.170054 0
201 1 0.345188 0.1888 0
200 1 0.327091 0.205906 0
202 1 0.350072 0.212845 0
203 1 0.368519 0.195462 0
174 1 0.387052 0.174921 0
204 1 0.393242 0.20109 0
175 1 0.411101 0.18329 0
205 1 0.416155 0.206084 0
176 1 0.434732 0.18841 0
207 1 0.439349 0.21294 0
178 1 0.457677 0.194227 0
179 1 0.475119 0.177486 0
180 1 0.498425 0.184072 0
209 1 0.481586 0.201473 0
213 1 0.0372824 0.23013 0
212 1 0.013406 0.2361 0
243 1 0.0304982 0.254297 0
186 1 0.0843642 0.216428 0
215 1 0.0609036 0.223424 0
216 1 0.0785063 0.239836 0
214 1 0.0546818 0.247492 0
188 1 0.12804 0.228379 0
217 1 0.102788 0.234806 0
218 1 0.120829 0.251773 0
247 1 0.0954227 0.257335 0
219 1 0.144635 0.245588 0
190 1 0.151943 0.219272 0
220 1 0.168535 0.237951 0
222 1 0.185433 0.255869 0
223 1 0.196336 0.235331 0
194 1 0.219232 0.222071 0
224 1 0.222323 0.245933 0
225 1 0.242791 0.227813 0
227 1 0.267868 0.236589 0
226 1 0.249218 0.254363 0
257 1 0.273577 0.259282 0
228 1 0.29136 0.239583 0
229 1 0.309322 0.223556 0
230 1 0.314582 0.246494 0
231 1 0.332751 0.230253 0
232 1 0.35624 0.236999 0
261 1 0.33853 0.253597 0
233 1 0.374781 0.219234 0
234 1 0.37951 0.243792 0
235 1 0.399859 0.225141 0
265 1 0.403118 0.250163 0
236 1 0.426988 0.254838 0
206 1 0.422684 0.230529 0
237 1 0.446392 0.236572 0
238 1 0.450157 0.261131 0
208 1 0.464566 0.218802 0
210 1 0.487271 0.226072 0
239 1 0.469373 0.243182 0
240 1 0.492061 0.251455 0
242 1 0.0238488 0.280001 0
241 1 0.00695135 0.260542 0
273 1 0.0438727 0.294427 0
245 1 0.0722685 0.264781 0
244 1 0.0480399 0.271193 0
275 1 0.0686457 0.290556 0
246 1 0.0919296 0.280672 0
248 1 0.114463 0.275372 0
277 1 0.10838 0.299402 0
279 1 0.131179 0.292517 0
249 1 0.137565 0.26945 0
250 1 0.1569 0.287489 0
251 1 0.162468 0.264226 0
252 1 0.184822 0.281447 0
253 1 0.208503 0.266078 0
254 1 0.215863 0.288712 0
255 1 0.232379 0.271662 0
256 1 0.25641 0.276844 0
285 1 0.239767 0.294702 0
287 1 0.262923 0.301436 0
258 1 0.280376 0.282974 0
259 1 0.297198 0.263896 0
289 1 0.303458 0.288258 0
260 1 0.321072 0.270899 0
262 1 0.345319 0.277751 0
263 1 0.361492 0.260127 0
291 1 0.326345 0.294408 0
292 1 0.348327 0.302251 0
264 1 0.384217 0.267532 0
293 1 0.368082 0.287031 0
295 1 0.392112 0.291072 0
266 1 0.409143 0.273158 0
267 1 0.432309 0.2794 0
297 1 0.416188 0.298415 0
268 1 0.454057 0.286265 0
1141 1 0.496838 0.275517 0
269 1 0.474377 0.266664 0
270 1 0.477958 0.291086 0
271 1 0.0138802 0.304859 0
272 1 0.0346865 0.316636 0
301 1 0.0156267 0.333593 0
303 1 0.0379372 0.340706 0
276 1 0.0853032 0.306997 0
274 1 0.0596884 0.314403 0
305 1 0.0787644 0.328911 0
304 1 0.0616018 0.345699 0
278 1 0.125004 0.317626 0
307 1 0.102873 0.331014 0
309 1 0.137077 0.339495 0
280 1 0.147683 0.312346 0
311 1 0.161133 0.332309 0
281 1 0.174031 0.305052 0
283 1 0.198412 0.304908 0
282 1 0.184338 0.326191 0
284 1 0.222451 0.311783 0
313 1 0.20596 0.334781 0
315 1 0.230193 0.335211 0
286 1 0.246818 0.319057 0
317 1 0.27142 0.325747 0
316 1 0.253149 0.342256 0
288 1 0.285761 0.307014 0
290 1 0.309762 0.313729 0
319 1 0.295363 0.335016 0
321 1 0.329021 0.329851 0
323 1 0.353608 0.327452 0
294 1 0.373637 0.311164 0
325 1 0.390248 0.338191 0
324 1 0.367451 0.346138 0
296 1 0.396788 0.314193 0
298 1 0.434865 0.316758 0
327 1 0.414044 0.330912 0
329 1 0.455158 0.334575 0
299 1 0.45837 0.310706 0
300 1 0.48208 0.315626 0
1201 1 0.485881 0.339397 0
302 1 0.0186662 0.35741 0
333 1 0.0437742 0.364447 0
332 1 0.0253719 0.382279 0
306 1 0.0850617 0.351928 0
335 1 0.0678555 0.369566 0
334 1 0.0500565 0.387647 0
337 1 0.0924066 0.375351 0
308 1 0.108895 0.356362 0
339 1 0.134461 0.364886 0
338 1 0.11571 0.379467 0
310 1 0.157421 0.356116 0
340 1 0.14322 0.387689 0
341 1 0.166873 0.378019 0
312 1 0.18433 0.351282 0
343 1 0.190965 0.375067 0
314 1 0.210461 0.358994 0
344 1 0.214302 0.387243 0
345 1 0.233308 0.358838 0
347 1 0.258703 0.368202 0
346 1 0.238709 0.381906 0
318 1 0.275114 0.349951 0
349 1 0.296119 0.361187 0
348 1 0.28582 0.38514 0
350 1 0.312357 0.379062 0
322 1 0.344511 0.350557 0
320 1 0.319932 0.354487 0
351 1 0.337024 0.372582 0
353 1 0.361418 0.368946 0
355 1 0.384469 0.362288 0
354 1 0.377423 0.386362 0
356 1 0.400048 0.379981 0
328 1 0.432468 0.348385 0
326 1 0.407727 0.357266 0
357 1 0.423842 0.374049 0
359 1 0.447964 0.367501 0
330 1 0.468738 0.355853 0
1231 1 0.492067 0.363558 0
360 1 0.471886 0.379603 0
1232 1 0.499145 0.38749 0
363 1 0.0336019 0.40433 0
361 1 0.00417559 0.394378 0
362 1 0.0135648 0.417912 0
364 1 0.0391712 0.426244 0
336 1 0.073738 0.392525 0
365 1 0.0575501 0.410135 0
366 1 0.0816584 0.416543 0
367 1 0.0984721 0.399225 0
369 1 0.123068 0.402658 0
368 1 0.112192 0.424891 0
370 1 0.145438 0.411661 0
371 1 0.166779 0.401649 0
401 1 0.164148 0.427327 0
342 1 0.190739 0.398489 0
372 1 0.187421 0.422129 0
373 1 0.209393 0.41351 0
375 1 0.231838 0.404808 0
374 1 0.229369 0.429303 0
377 1 0.261915 0.39208 0
376 1 0.253406 0.41719 0
407 1 0.273199 0.434819 0
378 1 0.278807 0.409364 0
379 1 0.303588 0.403139 0
409 1 0.297253 0.42605 0
352 1 0.353008 0.391945 0
381 1 0.328431 0.396935 0
382 1 0.345996 0.414831 0
380 1 0.321184 0.420636 0
413 1 0.363277 0.433527 0
383 1 0.370004 0.410558 0
385 1 0.394201 0.404291 0
384 1 0.387438 0.428507 0
358 1 0.441667 0.390334 0
387 1 0.417522 0.398119 0
388 1 0.434657 0.414587 0
386 1 0.41101 0.422896 0
419 1 0.451157 0.432423 0
389 1 0.457446 0.407634 0
1261 1 0.480921 0.402078 0
390 1 0.475199 0.42565 0
1291 1 0.497625 0.434731 0
393 1 0.0214908 0.44216 0
423 1 0.0239595 0.464714 0
899 1 0.473033 0.992834 0
395 1 0.0637844 0.434025 0
394 1 0.0454421 0.451569 0
396 1 0.0723568 0.457071 0
425 1 0.052787 0.474359 0
397 1 0.0906942 0.439376 0
398 1 0.114206 0.449522 0
427 1 0.0950841 0.466603 0
428 1 0.118698 0.47535 0
399 1 0.136878 0.435588 0
400 1 0.158196 0.449827 0
429 1 0.137135 0.461345 0
431 1 0.170311 0.469907 0
403 1 0.205998 0.438158 0
402 1 0.18297 0.44734 0
404 1 0.227209 0.453121 0
433 1 0.204488 0.462963 0
405 1 0.249252 0.443119 0
406 1 0.267499 0.460964 0
435 1 0.244769 0.472387 0
408 1 0.291312 0.451186 0
410 1 0.315681 0.446531 0
437 1 0.287276 0.473952 0
439 1 0.31117 0.470876 0
411 1 0.338479 0.438633 0
412 1 0.357239 0.456703 0
441 1 0.33423 0.463925 0
415 1 0.405301 0.446513 0
414 1 0.38117 0.453672 0
443 1 0.376841 0.478533 0
445 1 0.40061 0.470359 0
417 1 0.429178 0.4391 0
418 1 0.447183 0.458911 0
416 1 0.424627 0.463035 0
420 1 0.469749 0.448597 0
1321 1 0.490416 0.460157 0
449 1 0.468911 0.473423 0
422 1 0.00617471 0.482938 0
453 1 0.0118993 0.505411 0
454 1 0.0353269 0.513404 0
424 1 0.0303475 0.488192 0
426 1 0.0754582 0.48284 0
455 1 0.0542782 0.499245 0
456 1 0.0798614 0.506733 0
457 1 0.0997568 0.492466 0
459 1 0.128091 0.499136 0
458 1 0.109702 0.515227 0
430 1 0.148066 0.482761 0
461 1 0.17092 0.495727 0
460 1 0.150858 0.509142 0
462 1 0.178899 0.51738 0
432 1 0.191216 0.481441 0
434 1 0.221219 0.481535 0
463 1 0.199429 0.503342 0
464 1 0.222707 0.51326 0
436 1 0.26416 0.485438 0
465 1 0.242661 0.498729 0
466 1 0.246013 0.524512 0
467 1 0.265155 0.509097 0
438 1 0.285554 0.497408 0
469 1 0.309276 0.508715 0
468 1 0.289183 0.521631 0
442 1 0.351832 0.479785 0
440 1 0.329035 0.489397 0
470 1 0.332043 0.518217 0
471 1 0.349558 0.502586 0
444 1 0.395341 0.49545 0
473 1 0.373365 0.508019 0
474 1 0.396049 0.521948 0
447 1 0.442308 0.483469 0
475 1 0.41863 0.510116 0
446 1 0.418536 0.486379 0
477 1 0.441667 0.512786 0
448 1 0.463053 0.498313 0
450 1 0.488768 0.485243 0
479 1 0.484662 0.509434 0
452 1 0.0140227 0.528479 0
483 1 0.0349514 0.541167 0
482 1 0.011641 0.552999 0
485 1 0.059854 0.52257 0
484 1 0.0514061 0.558011 0
486 1 0.0712116 0.545083 0
487 1 0.0898591 0.529242 0
488 1 0.114551 0.539916 0
517 1 0.0944419 0.555637 0
489 1 0.132525 0.524644 0
519 1 0.116179 0.567423 0
491 1 0.157764 0.53323 0
490 1 0.137168 0.5495 0
521 1 0.159517 0.559732 0
493 1 0.200524 0.527803 0
492 1 0.179172 0.543341 0
494 1 0.203389 0.551387 0
495 1 0.223336 0.536701 0
525 1 0.227031 0.56204 0
496 1 0.247596 0.548659 0
497 1 0.26788 0.533852 0
527 1 0.271518 0.558846 0
499 1 0.312544 0.532764 0
498 1 0.292546 0.546022 0
500 1 0.315425 0.555816 0
472 1 0.356268 0.527765 0
501 1 0.33481 0.543124 0
502 1 0.357648 0.551405 0
503 1 0.378456 0.537667 0
505 1 0.400386 0.548577 0
504 1 0.380214 0.562488 0
476 1 0.418948 0.533171 0
507 1 0.442519 0.537066 0
506 1 0.422923 0.556502 0
508 1 0.44483 0.563375 0
478 1 0.464422 0.522743 0
480 1 0.485327 0.535362 0
509 1 0.464521 0.548286 0
510 1 0.489712 0.559401 0
513 1 0.0290382 0.571896 0
512 1 0.0303624 0.59526 0
511 1 0.00761413 0.584976 0
541 1 0.00842939 0.608212 0
543 1 0.053107 0.606199 0
514 1 0.0514824 0.581809 0
515 1 0.072845 0.569956 0
545 1 0.075188 0.593451 0
516 1 0.0991319 0.582966 0
518 1 0.12267 0.593515 0
547 1 0.0992231 0.606411 0
549 1 0.146694 0.600601 0
520 1 0.139333 0.574422 0
551 1 0.171149 0.609717 0
522 1 0.163092 0.583895 0
523 1 0.182189 0.567516 0
524 1 0.206481 0.575417 0
553 1 0.186842 0.59232 0
554 1 0.210336 0.600931 0
526 1 0.250612 0.572403 0
555 1 0.232421 0.586934 0
557 1 0.255061 0.597468 0
529 1 0.294559 0.568821 0
528 1 0.27417 0.583778 0
558 1 0.277651 0.607158 0
559 1 0.297529 0.593203 0
531 1 0.33914 0.568027 0
530 1 0.319605 0.582078 0
532 1 0.34176 0.592905 0
533 1 0.360776 0.57652 0
561 1 0.324035 0.608959 0
563 1 0.364287 0.601212 0
534 1 0.38455 0.586033 0
535 1 0.404092 0.571704 0
536 1 0.405859 0.596769 0
537 1 0.427002 0.581 0
567 1 0.429318 0.604832 0
538 1 0.44937 0.587299 0
539 1 0.469438 0.572746 0
540 1 0.492065 0.5853 0
569 1 0.471488 0.597319 0
542 1 0.0299893 0.619173 0
571 1 0.00730434 0.631368 0
573 1 0.0298575 0.643197 0
544 1 0.0512398 0.630457 0
546 1 0.074572 0.617712 0
575 1 0.0728026 0.641918 0
548 1 0.124937 0.618099 0
577 1 0.10012 0.630655 0
579 1 0.128316 0.64133 0
550 1 0.150873 0.624816 0
581 1 0.173327 0.63408 0
580 1 0.151519 0.65087 0
552 1 0.192076 0.617638 0
582 1 0.195935 0.643264 0
583 1 0.215477 0.626383 0
584 1 0.21984 0.652187 0
556 1 0.233864 0.613135 0
585 1 0.239616 0.636442 0
586 1 0.261447 0.64634 0
587 1 0.259417 0.622548 0
560 1 0.30097 0.617362 0
589 1 0.28214 0.632033 0
590 1 0.30521 0.640727 0
562 1 0.348977 0.619067 0
591 1 0.328811 0.634705 0
593 1 0.351746 0.64406 0
565 1 0.385955 0.611124 0
564 1 0.370504 0.629253 0
595 1 0.392344 0.636414 0
566 1 0.411651 0.621244 0
596 1 0.416142 0.646601 0
597 1 0.433799 0.629835 0
568 1 0.451447 0.612379 0
1441 1 0.494409 0.609719 0
570 1 0.473989 0.621211 0
599 1 0.456818 0.639519 0
600 1 0.481865 0.643068 0
572 1 0.0104141 0.656629 0
602 1 0.0100699 0.67963 0
603 1 0.0307817 0.669094 0
633 1 0.0365713 0.700215 0
574 1 0.0511145 0.655602 0
605 1 0.073183 0.667765 0
604 1 0.0538658 0.68183 0
606 1 0.0762537 0.69304 0
576 1 0.0931271 0.653252 0
578 1 0.114233 0.66235 0
607 1 0.0952611 0.678766 0
608 1 0.119121 0.686673 0
609 1 0.135932 0.669111 0
611 1 0.176337 0.658906 0
610 1 0.159913 0.676893 0
639 1 0.141022 0.694338 0
612 1 0.181925 0.683919 0
613 1 0.200061 0.66708 0
614 1 0.223213 0.676377 0
643 1 0.205231 0.690508 0
615 1 0.24301 0.661606 0
616 1 0.247907 0.686182 0
617 1 0.265883 0.671275 0
647 1 0.272253 0.694497 0
588 1 0.285206 0.656534 0
619 1 0.310357 0.663786 0
618 1 0.291163 0.679758 0
620 1 0.316743 0.686762 0
621 1 0.333238 0.657774 0
592 1 0.358137 0.670822 0
622 1 0.341116 0.688709 0
594 1 0.374564 0.65376 0
625 1 0.396686 0.660608 0
623 1 0.381237 0.677595 0
626 1 0.410497 0.6946 0
598 1 0.439155 0.659801 0
627 1 0.417882 0.671163 0
657 1 0.436873 0.686124 0
628 1 0.461122 0.684356 0
629 1 0.468463 0.662775 0
630 1 0.48935 0.679389 0
632 1 0.0120842 0.703289 0
663 1 0.0171567 0.726124 0
634 1 0.0405445 0.727237 0
635 1 0.058435 0.708168 0
665 1 0.063378 0.736565 0
636 1 0.0807709 0.718756 0
637 1 0.100454 0.703717 0
638 1 0.124288 0.710872 0
667 1 0.106142 0.726713 0
669 1 0.129605 0.734386 0
641 1 0.164709 0.700408 0
640 1 0.146946 0.717442 0
671 1 0.171929 0.724164 0
642 1 0.188693 0.706708 0
673 1 0.194598 0.732574 0
644 1 0.211568 0.716001 0
645 1 0.229317 0.700641 0
675 1 0.234808 0.725146 0
646 1 0.253782 0.709507 0
677 1 0.259495 0.732966 0
649 1 0.297718 0.702887 0
648 1 0.281787 0.720266 0
679 1 0.305313 0.729648 0
653 1 0.364036 0.694048 0
650 1 0.322718 0.713231 0
651 1 0.348124 0.71164 0
652 1 0.352188 0.735092 0
624 1 0.38684 0.702358 0
655 1 0.406415 0.71817 0
654 1 0.372276 0.721392 0
656 1 0.430446 0.710396 0
658 1 0.456041 0.708505 0
687 1 0.446102 0.729325 0
686 1 0.422699 0.733316 0
659 1 0.478889 0.701985 0
660 1 0.494142 0.721275 0
689 1 0.470526 0.727523 0
662 1 0.0216618 0.748596 0
691 1 0.0022253 0.76506 0
693 1 0.026262 0.771444 0
664 1 0.0466384 0.754214 0
666 1 0.0875256 0.74262 0
695 1 0.0695989 0.761319 0
694 1 0.0501399 0.778613 0
697 1 0.0931871 0.768223 0
668 1 0.110881 0.751383 0
698 1 0.116367 0.775134 0
699 1 0.134254 0.758338 0
670 1 0.153238 0.74168 0
701 1 0.158094 0.765296 0
672 1 0.176626 0.748824 0
702 1 0.182072 0.772704 0
674 1 0.216889 0.741137 0
703 1 0.199957 0.757497 0
705 1 0.223013 0.765539 0
704 1 0.203978 0.781703 0
676 1 0.241077 0.750404 0
706 1 0.248578 0.775323 0
707 1 0.263645 0.756435 0
678 1 0.284789 0.74409 0
680 1 0.30658 0.754551 0
709 1 0.285943 0.768543 0
710 1 0.304996 0.782384 0
681 1 0.326489 0.740849 0
682 1 0.348737 0.759087 0
711 1 0.325751 0.767889 0
712 1 0.346858 0.784 0
685 1 0.395217 0.738837 0
683 1 0.372212 0.748629 0
713 1 0.369981 0.774104 0
684 1 0.391852 0.763641 0
715 1 0.414895 0.755924 0
717 1 0.438446 0.752365 0
718 1 0.44538 0.775867 0
716 1 0.412268 0.781015 0
690 1 0.486658 0.760293 0
688 1 0.463609 0.750846 0
719 1 0.469921 0.778188 0
692 1 0.0083275 0.78902 0
722 1 0.0137724 0.81347 0
723 1 0.0321101 0.7961 0
724 1 0.0406464 0.819285 0
696 1 0.074015 0.786561 0
725 1 0.0569526 0.802331 0
726 1 0.0803257 0.812531 0
727 1 0.0966987 0.793259 0
728 1 0.121387 0.797664 0
757 1 0.104403 0.816477 0
759 1 0.126854 0.825176 0
700 1 0.140501 0.782157 0
729 1 0.145092 0.807227 0
730 1 0.170485 0.818664 0
731 1 0.162996 0.789945 0
732 1 0.184804 0.79967 0
733 1 0.209329 0.804754 0
735 1 0.228993 0.789464 0
736 1 0.232402 0.813764 0
737 1 0.254118 0.80211 0
708 1 0.278384 0.792624 0
738 1 0.277567 0.815958 0
739 1 0.301477 0.806023 0
740 1 0.322882 0.819392 0
741 1 0.324405 0.794226 0
742 1 0.345268 0.808859 0
714 1 0.389109 0.788141 0
743 1 0.367623 0.79892 0
744 1 0.365771 0.823153 0
745 1 0.388345 0.814152 0
746 1 0.409948 0.804743 0
747 1 0.431523 0.794857 0
748 1 0.435193 0.819748 0
749 1 0.455884 0.798357 0
1591 1 0.493332 0.78515 0
720 1 0.478153 0.804834 0
750 1 0.461016 0.821915 0
752 1 0.00242908 0.850773 0
753 1 0.0213385 0.836 0
783 1 0.0247728 0.861248 0
754 1 0.0453627 0.845064 0
755 1 0.0646168 0.828726 0
785 1 0.0706416 0.851989 0
784 1 0.0526166 0.867621 0
756 1 0.0891772 0.835551 0
758 1 0.113622 0.845261 0
787 1 0.093955 0.859122 0
789 1 0.136208 0.857318 0
760 1 0.150027 0.833784 0
761 1 0.169384 0.847554 0
763 1 0.189975 0.833926 0
734 1 0.213714 0.82802 0
762 1 0.188922 0.862509 0
764 1 0.210049 0.852295 0
767 1 0.25584 0.826904 0
765 1 0.234873 0.839762 0
795 1 0.233249 0.864018 0
766 1 0.25564 0.851292 0
797 1 0.27704 0.865184 0
769 1 0.299384 0.831249 0
768 1 0.278403 0.841425 0
799 1 0.299633 0.854385 0
770 1 0.321797 0.844043 0
801 1 0.32095 0.868499 0
771 1 0.342485 0.832386 0
772 1 0.341912 0.859153 0
773 1 0.363461 0.847118 0
775 1 0.38618 0.837994 0
774 1 0.3824 0.861811 0
776 1 0.4059 0.854068 0
777 1 0.410172 0.828417 0
778 1 0.445252 0.841645 0
809 1 0.452803 0.864241 0
1621 1 0.486018 0.827749 0
1651 1 0.496297 0.850877 0
779 1 0.469217 0.846123 0
782 1 0.00799413 0.880352 0
813 1 0.0350695 0.882514 0
812 1 0.0195101 0.901342 0
786 1 0.0759515 0.876418 0
815 1 0.0569219 0.892011 0
816 1 0.0789743 0.900322 0
817 1 0.0981269 0.886809 0
788 1 0.116108 0.871172 0
819 1 0.120994 0.895016 0
791 1 0.165466 0.873307 0
790 1 0.141374 0.882674 0
821 1 0.165331 0.898477 0
820 1 0.142976 0.908285 0
792 1 0.187802 0.887593 0
793 1 0.210115 0.876038 0
823 1 0.210986 0.901143 0
822 1 0.187488 0.911696 0
825 1 0.232342 0.912371 0
794 1 0.230659 0.888334 0
796 1 0.255342 0.876557 0
827 1 0.253338 0.90069 0
798 1 0.276553 0.890374 0
800 1 0.299442 0.878485 0
829 1 0.297398 0.902695 0
831 1 0.322252 0.893118 0
802 1 0.345957 0.88498 0
832 1 0.341979 0.910372 0
833 1 0.366908 0.90602 0
805 1 0.40036 0.877848 0
803 1 0.373487 0.883192 0
804 1 0.390645 0.901643 0
807 1 0.425207 0.871215 0
806 1 0.414812 0.896992 0
808 1 0.439374 0.892193 0
780 1 0.479427 0.867889 0
1681 1 0.49038 0.891119 0
810 1 0.465518 0.887689 0
840 1 0.474911 0.910007 0
839 1 0.452078 0.913207 0
842 1 0.0116231 0.948199 0
843 1 0.0169911 0.924244 0
814 1 0.0405769 0.913967 0
844 1 0.0342201 0.941086 0
845 1 0.0578746 0.93405 0
846 1 0.0787975 0.949235 0
847 1 0.0808217 0.924401 0
818 1 0.101341 0.910794 0
848 1 0.101122 0.93734 0
849 1 0.123526 0.923132 0
879 1 0.123679 0.949001 0
850 1 0.145026 0.934493 0
851 1 0.167436 0.923443 0
852 1 0.165708 0.948873 0
824 1 0.210757 0.924786 0
853 1 0.188496 0.936885 0
854 1 0.209961 0.949902 0
855 1 0.231566 0.937939 0
826 1 0.253363 0.924732 0
856 1 0.252851 0.949752 0
857 1 0.272958 0.935935 0
828 1 0.276293 0.913012 0
858 1 0.289717 0.951364 0
859 1 0.296104 0.927976 0
860 1 0.313031 0.9443 0
830 1 0.318114 0.916474 0
861 1 0.335065 0.933592 0
863 1 0.358773 0.930182 0
862 1 0.35049 0.954856 0
835 1 0.405987 0.920371 0
834 1 0.382749 0.92604 0
864 1 0.373927 0.94936 0
865 1 0.39899 0.944064 0
837 1 0.429633 0.917322 0
838 1 0.445998 0.936869 0
836 1 0.423524 0.940423 0
1741 1 0.488029 0.954045 0
869 1 0.470264 0.934262 0
870 1 0.462385 0.955879 0
872 1 0.0243744 0.989038 0
873 1 0.0307054 0.965854 0
871 1 0.0065115 0.971742 0
5 1 0.0648496 0.999476 0
874 1 0.0482788 0.982111 0
875 1 0.0543053 0.957556 0
876 1 0.0727063 0.973815 0
7 1 0.0890237 0.99405 0
877 1 0.099918 0.962866 0
878 1 0.125995 0.975938 0
880 1 0.146754 0.987045 0
881 1 0.145512 0.96144 0
882 1 0.167871 0.974938 0
15 1 0.215302 0.998584 0
13 1 0.188783 0.988584 0
883 1 0.18828 0.962803 0
884 1 0.209951 0.974277 0
885 1 0.231654 0.962033 0
886 1 0.244608 0.998338 0
17 1 0.27017 0.994792 0
887 1 0.252542 0.974827 0
888 1 0.278534 0.972359 0
19 1 0.295373 0.991199 0
889 1 0.305045 0.969032 0
23 1 0.360489 0.998005 0
891 1 0.328626 0.963435 0
890 1 0.319861 0.987539 0
892 1 0.343688 0.982066 0
893 1 0.368064 0.972737 0
895 1 0.391468 0.967516 0
894 1 0.383114 0.991087 0
896 1 0.407774 0.98693 0
867 1 0.437435 0.95835 0
897 1 0.430283 0.981182 0
866 1 0.414182 0.962793 0
868 1 0.453575 0.978179 0
1771 1 0.492522 0.978625 0
1501 1 0.499118 0.657378 0
392 1 0.000507686 0.459037 0
1 1 0.00173312 0.994806 0
1711 1 0.499138 0.914367 0
902 1 0.545412 0.0168685 0
931 1 0.527475 0.0339084 0
901 1 0.522486 0.0108562 0
30 1 0.502302 0.0269545 0
933 1 0.550243 0.0421959 0
904 1 0.568995 0.0254975 0
906 1 0.586474 0.00857906 0
905 1 0.563754 0.00144253 0
935 1 0.590966 0.0331924 0
908 1 0.609549 0.0155662 0
937 1 0.614865 0.0395728 0
939 1 0.633841 0.0225711 0
910 1 0.651621 0.00582767 0
941 1 0.65677 0.0295856 0
912 1 0.67473 0.014103 0
942 1 0.680789 0.0377296 0
943 1 0.698808 0.0218424 0
914 1 0.717664 0.00725024 0
945 1 0.725954 0.0300171 0
916 1 0.754364 0.00841757 0
947 1 0.752511 0.0327461 0
918 1 0.775235 0.0200201 0
919 1 0.798527 0.0144017 0
949 1 0.797304 0.0383845 0
951 1 0.820992 0.0320005 0
920 1 0.824632 0.00784974 0
922 1 0.843906 0.0243417 0
921 1 0.847427 0.999259 0
953 1 0.864911 0.0418481 0
923 1 0.865517 0.0152499 0
924 1 0.888794 0.00770636 0
955 1 0.907791 0.0229039 0
954 1 0.885832 0.0319558 0
926 1 0.930225 0.0142053 0
928 1 0.953357 0.00812909 0
957 1 0.943338 0.033322 0
930 1 0.99318 0.0188259 0
959 1 0.968392 0.0260391 0
929 1 0.976851 0.00159102 0
932 1 0.532023 0.0584562 0
962 1 0.537657 0.0827281 0
961 1 0.5143 0.0740855 0
60 1 0.508456 0.0501453 0
963 1 0.555482 0.0657798 0
934 1 0.573863 0.049092 0
965 1 0.579407 0.0718698 0
936 1 0.598769 0.0571325 0
966 1 0.603356 0.0821979 0
967 1 0.621878 0.065998 0
938 1 0.637776 0.0467719 0
969 1 0.64532 0.0732145 0
940 1 0.661312 0.0549652 0
970 1 0.669068 0.0805305 0
971 1 0.685089 0.0632065 0
944 1 0.703662 0.0445938 0
973 1 0.707032 0.0707875 0
972 1 0.69156 0.0892818 0
975 1 0.728139 0.053827 0
974 1 0.729382 0.077974 0
976 1 0.75194 0.0808859 0
946 1 0.750587 0.0561954 0
948 1 0.774533 0.0460836 0
977 1 0.772742 0.0697386 0
979 1 0.794424 0.0625914 0
980 1 0.816146 0.0778488 0
978 1 0.792913 0.0858364 0
950 1 0.817734 0.0548126 0
981 1 0.841788 0.0727818 0
952 1 0.84116 0.0479471 0
983 1 0.865209 0.0659042 0
985 1 0.887859 0.0553435 0
984 1 0.889651 0.0808237 0
956 1 0.910667 0.0466235 0
986 1 0.91225 0.0708184 0
987 1 0.934919 0.0578344 0
1017 1 0.934344 0.0860173 0
960 1 0.986167 0.0424841 0
988 1 0.956058 0.0755599 0
958 1 0.960398 0.0505413 0
989 1 0.980659 0.0666096 0
990 1 0.998899 0.082277 0
991 1 0.519274 0.100204 0
992 1 0.525 0.124074 0
120 1 0.502023 0.116181 0
993 1 0.544119 0.106471 0
964 1 0.56252 0.0896351 0
994 1 0.566801 0.112962 0
995 1 0.58619 0.0981248 0
996 1 0.590331 0.122556 0
968 1 0.626538 0.0901004 0
997 1 0.607609 0.105544 0
998 1 0.630197 0.114489 0
1027 1 0.612686 0.130917 0
999 1 0.649624 0.097331 0
1000 1 0.654473 0.121526 0
1001 1 0.672183 0.106376 0
1031 1 0.677894 0.129717 0
1002 1 0.696206 0.113355 0
1003 1 0.714236 0.0977222 0
1004 1 0.718561 0.120526 0
1005 1 0.737575 0.102306 0
1006 1 0.759562 0.114199 0
1007 1 0.770962 0.0936588 0
1035 1 0.74125 0.128295 0
1008 1 0.787465 0.109895 0
1009 1 0.810421 0.101213 0
1039 1 0.803359 0.125832 0
982 1 0.860292 0.0899325 0
1010 1 0.827404 0.119909 0
1011 1 0.834426 0.0964322 0
1012 1 0.852463 0.114388 0
1013 1 0.874795 0.110821 0
1014 1 0.88967 0.128987 0
1015 1 0.910883 0.0963723 0
1016 1 0.91179 0.121091 0
1018 1 0.95557 0.10177 0
1047 1 0.93359 0.112426 0
1049 1 0.953024 0.127039 0
1019 1 0.976649 0.0917039 0
1020 1 0.975734 0.117495 0
1799 1 0.963568 0.961225 0
1022 1 0.530448 0.148616 0
1051 1 0.5145 0.167331 0
1021 1 0.508456 0.139553 0
1023 1 0.548942 0.129071 0
1024 1 0.554259 0.153838 0
1025 1 0.571506 0.13765 0
1055 1 0.576883 0.165294 0
1026 1 0.595422 0.147672 0
1028 1 0.618129 0.155229 0
1057 1 0.601098 0.172781 0
1029 1 0.636754 0.13801 0
1059 1 0.641286 0.161639 0
1030 1 0.659958 0.144528 0
1061 1 0.664813 0.170208 0
1032 1 0.68279 0.153916 0
1033 1 0.70113 0.137709 0
1063 1 0.706385 0.161236 0
1034 1 0.724154 0.14528 0
1036 1 0.748896 0.150261 0
1065 1 0.731128 0.167783 0
1067 1 0.771766 0.156951 0
1037 1 0.777798 0.131454 0
1038 1 0.795661 0.150385 0
1069 1 0.8119 0.167623 0
1040 1 0.819926 0.14305 0
1071 1 0.836178 0.163032 0
1041 1 0.843008 0.139639 0
1042 1 0.859896 0.157879 0
1043 1 0.866584 0.133392 0
1044 1 0.883457 0.152349 0
1045 1 0.90832 0.146325 0
1075 1 0.902568 0.169637 0
1046 1 0.930789 0.137573 0
1048 1 0.948555 0.153847 0
1077 1 0.925533 0.162374 0
1050 1 0.97122 0.143111 0
151 1 0.992664 0.153533 0
1079 1 0.968653 0.168606 0
1053 1 0.539283 0.175481 0
1052 1 0.521339 0.192213 0
1083 1 0.544682 0.199742 0
1081 1 0.504775 0.208672 0
1082 1 0.52757 0.218685 0
1054 1 0.561545 0.183461 0
1056 1 0.585352 0.190533 0
1085 1 0.568615 0.207798 0
1086 1 0.592075 0.216207 0
1058 1 0.624234 0.179884 0
1087 1 0.607545 0.198499 0
1089 1 0.630966 0.204515 0
1060 1 0.647113 0.187483 0
1091 1 0.671138 0.193505 0
1090 1 0.654762 0.212083 0
1062 1 0.689934 0.178497 0
1093 1 0.695984 0.202832 0
1064 1 0.713071 0.185345 0
1094 1 0.71952 0.208701 0
1066 1 0.756381 0.17496 0
1095 1 0.736585 0.190356 0
1097 1 0.760107 0.198603 0
1068 1 0.785381 0.177822 0
1098 1 0.783723 0.202985 0
1099 1 0.805196 0.191907 0
1100 1 0.822109 0.208926 0
1070 1 0.829306 0.186172 0
1072 1 0.852399 0.181684 0
1101 1 0.845436 0.205858 0
1073 1 0.877235 0.175836 0
1103 1 0.869956 0.200652 0
1074 1 0.894779 0.192966 0
1104 1 0.887576 0.217159 0
1078 1 0.945516 0.179245 0
1105 1 0.910529 0.211955 0
1076 1 0.920353 0.186212 0
1107 1 0.934551 0.207115 0
1080 1 0.991132 0.178219 0
1109 1 0.957323 0.200629 0
181 1 0.981695 0.199872 0
1111 1 0.509948 0.234201 0
1113 1 0.533985 0.241495 0
1112 1 0.515976 0.258284 0
1084 1 0.55215 0.225399 0
1114 1 0.557559 0.251034 0
1115 1 0.574264 0.232569 0
1116 1 0.580683 0.25835 0
1088 1 0.614647 0.223257 0
1117 1 0.597989 0.240606 0
1118 1 0.620722 0.247164 0
1119 1 0.637941 0.230417 0
1121 1 0.660912 0.236375 0
1120 1 0.644173 0.254039 0
1092 1 0.678711 0.218787 0
1122 1 0.685467 0.243044 0
1123 1 0.703692 0.226389 0
1124 1 0.709232 0.250121 0
1125 1 0.726884 0.233616 0
1096 1 0.74254 0.215655 0
1126 1 0.750703 0.239996 0
1155 1 0.733413 0.257146 0
1127 1 0.76707 0.222457 0
1129 1 0.791491 0.224858 0
1128 1 0.775118 0.245879 0
1159 1 0.7989 0.248753 0
1130 1 0.814297 0.231253 0
1131 1 0.839187 0.230253 0
1132 1 0.847639 0.254651 0
1161 1 0.82363 0.253098 0
1102 1 0.863037 0.223507 0
1133 1 0.880134 0.240134 0
1135 1 0.902361 0.235554 0
1134 1 0.893865 0.260644 0
1108 1 0.950413 0.226433 0
1136 1 0.919254 0.254721 0
1106 1 0.926064 0.230274 0
1137 1 0.943022 0.249865 0
1110 1 0.972902 0.221211 0
1139 1 0.966618 0.244851 0
1140 1 0.990699 0.242631 0
211 1 0.996687 0.218355 0