ITEM: TIMESTEP
140000
ITEM: NUMBER OF ATOMS
1800
ITEM: BOX BOUNDS pp pp pp
1.3573242394261769e+00 1.6364267576057063e+02
1.3573242394261769e+00 1.6364267576057063e+02
0.0000000000000000e+00 5.5000000000000000e+00
ITEM: ATOMS id type xs ys zs
2 1 0.0109025 0.00512382 0
33 1 0.0300336 0.022981 0
31 1 0.00636332 0.0303709 0
4 1 0.0540986 0.0157578 0
6 1 0.0775175 0.00737723 0
35 1 0.072344 0.0327287 0
34 1 0.0485138 0.0395311 0
37 1 0.0952857 0.0254826 0
39 1 0.118738 0.0178177 0
38 1 0.114809 0.0420366 0
40 1 0.137559 0.0337507 0
10 1 0.142481 0.00899779 0
42 1 0.160471 0.0263842 0
41 1 0.16632 0.00176875 0
43 1 0.184627 0.0182701 0
14 1 0.208469 0.0113021 0
44 1 0.203328 0.0361237 0
45 1 0.228289 0.0289134 0
16 1 0.251779 0.0207734 0
886 1 0.233378 0.00314421 0
46 1 0.269825 0.0383256 0
18 1 0.274867 0.0134869 0
49 1 0.294437 0.0302141 0
20 1 0.300129 0.00680201 0
51 1 0.317808 0.0253268 0
22 1 0.340897 0.0338375 0
21 1 0.359213 0.0159847 0
890 1 0.335683 0.00858058 0
24 1 0.383666 0.0223091 0
53 1 0.365186 0.0399446 0
894 1 0.400723 0.00356897 0
25 1 0.407634 0.0291827 0
26 1 0.43217 0.0349934 0
27 1 0.424923 0.0104403 0
898 1 0.448746 0.0166083 0
29 1 0.474452 0.0231758 0
900 1 0.492118 0.00469298 0
28 1 0.457115 0.0410965 0
30 1 0.498649 0.0288338 0
899 1 0.467403 -0.000778592 0
32 1 0.024947 0.0473955 0
62 1 0.0191184 0.071799 0
63 1 0.0430728 0.0644816 0
61 1 0.00105732 0.0544065 0
65 1 0.0674441 0.0580569 0
66 1 0.0849786 0.0751163 0
64 1 0.0607953 0.081756 0
36 1 0.0914748 0.0501356 0
67 1 0.108824 0.0672755 0
69 1 0.132776 0.0596618 0
68 1 0.126742 0.0840261 0
73 1 0.179687 0.0432161 0
71 1 0.155495 0.0508728 0
72 1 0.174355 0.0672571 0
70 1 0.150616 0.0761112 0
74 1 0.222315 0.052514 0
103 1 0.197621 0.0601062 0
105 1 0.216545 0.077867 0
101 1 0.192957 0.0852528 0
75 1 0.24663 0.0453316 0
77 1 0.264641 0.0628683 0
76 1 0.240421 0.0695029 0
47 1 0.287627 0.055137 0
48 1 0.306414 0.0718141 0
78 1 0.283678 0.0808246 0
50 1 0.322595 0.0502994 0
81 1 0.330503 0.0770899 0
52 1 0.347251 0.0578548 0
82 1 0.355654 0.0819889 0
55 1 0.39003 0.0465084 0
83 1 0.371816 0.0641308 0
54 1 0.396367 0.0709777 0
57 1 0.438834 0.0586978 0
85 1 0.422115 0.0773317 0
56 1 0.414123 0.0527567 0
87 1 0.445995 0.0843887 0
59 1 0.481866 0.0483858 0
58 1 0.464171 0.0662412 0
89 1 0.487814 0.0719705 0
93 1 0.0370731 0.0899406 0
990 1 0.014001 0.0965452 0
92 1 0.0317789 0.114303 0
91 1 0.00764205 0.121208 0
94 1 0.0559596 0.106483 0
95 1 0.0795722 0.0991211 0
125 1 0.0744553 0.12356 0
123 1 0.0510138 0.13058 0
96 1 0.0979563 0.11549 0
97 1 0.103311 0.0918684 0
98 1 0.121848 0.107871 0
99 1 0.145315 0.100634 0
100 1 0.168294 0.0928248 0
130 1 0.162992 0.11763 0
129 1 0.140374 0.124573 0
131 1 0.18679 0.110692 0
102 1 0.210657 0.103147 0
133 1 0.205794 0.127922 0
137 1 0.259056 0.0871085 0
104 1 0.229105 0.118661 0
106 1 0.234469 0.0951367 0
135 1 0.253576 0.112109 0
107 1 0.276644 0.10461 0
109 1 0.298616 0.113263 0
79 1 0.313741 0.0949504 0
108 1 0.280582 0.129796 0
80 1 0.338215 0.100407 0
110 1 0.322043 0.11905 0
141 1 0.346443 0.124022 0
111 1 0.362438 0.10529 0
113 1 0.379919 0.0888845 0
84 1 0.405163 0.0960198 0
112 1 0.386883 0.113506 0
115 1 0.411302 0.120309 0
86 1 0.428177 0.101713 0
116 1 0.43503 0.126606 0
117 1 0.452158 0.108724 0
88 1 0.469463 0.0901893 0
90 1 0.494479 0.0965768 0
119 1 0.476482 0.114767 0
122 1 0.0273785 0.137521 0
152 1 0.0204132 0.161954 0
121 1 0.00346995 0.144743 0
153 1 0.0450429 0.154452 0
124 1 0.0684073 0.147368 0
155 1 0.0864968 0.165075 0
154 1 0.0628805 0.172063 0
127 1 0.116277 0.132387 0
126 1 0.0927245 0.140404 0
128 1 0.134709 0.149234 0
157 1 0.110528 0.157695 0
158 1 0.129843 0.174075 0
159 1 0.158266 0.141932 0
161 1 0.176556 0.159276 0
160 1 0.152878 0.167354 0
132 1 0.182209 0.135399 0
163 1 0.200352 0.152707 0
134 1 0.223586 0.146634 0
193 1 0.220118 0.173631 0
136 1 0.264321 0.148701 0
165 1 0.245372 0.135015 0
164 1 0.243688 0.163212 0
167 1 0.270669 0.171972 0
139 1 0.304836 0.136823 0
138 1 0.288576 0.154649 0
169 1 0.311932 0.161836 0
140 1 0.328448 0.143158 0
142 1 0.352687 0.148831 0
171 1 0.335579 0.16723 0
172 1 0.359315 0.173869 0
143 1 0.369839 0.130957 0
114 1 0.393957 0.138396 0
173 1 0.376442 0.156481 0
144 1 0.400498 0.162473 0
145 1 0.417708 0.145036 0
146 1 0.424185 0.169675 0
147 1 0.441668 0.150029 0
118 1 0.459393 0.132512 0
149 1 0.482842 0.138935 0
148 1 0.465241 0.157077 0
150 1 0.489574 0.163067 0
183 1 0.0395683 0.178763 0
182 1 0.0333137 0.20442 0
1080 1 0.0151977 0.187286 0
211 1 0.0100826 0.212455 0
184 1 0.0575558 0.197084 0
185 1 0.0816986 0.188631 0
215 1 0.0757672 0.212991 0
186 1 0.0999196 0.204951 0
156 1 0.105257 0.180578 0
187 1 0.124287 0.197565 0
189 1 0.148004 0.191372 0
191 1 0.171246 0.183935 0
190 1 0.166758 0.20814 0
188 1 0.142631 0.214952 0
162 1 0.194628 0.176575 0
221 1 0.191386 0.213954 0
192 1 0.20982 0.196605 0
195 1 0.232858 0.205685 0
166 1 0.251252 0.187928 0
196 1 0.257027 0.21374 0
168 1 0.294258 0.179315 0
197 1 0.274685 0.196846 0
199 1 0.29852 0.202974 0
170 1 0.316899 0.186452 0
201 1 0.341485 0.191388 0
200 1 0.323024 0.209842 0
202 1 0.34723 0.216204 0
203 1 0.364847 0.198426 0
174 1 0.382194 0.180255 0
204 1 0.389008 0.204665 0
175 1 0.406294 0.186831 0
177 1 0.447965 0.175305 0
205 1 0.412337 0.210302 0
176 1 0.430686 0.193511 0
178 1 0.455247 0.199185 0
179 1 0.472474 0.181234 0
180 1 0.496309 0.188133 0
209 1 0.478804 0.206131 0
212 1 0.0280563 0.2283 0
241 1 0.0221323 0.253582 0
1140 1 0.004626 0.236799 0
243 1 0.0468155 0.245344 0
213 1 0.0519442 0.221279 0
214 1 0.0706281 0.237911 0
245 1 0.0895721 0.254329 0
216 1 0.0945436 0.230095 0
217 1 0.11827 0.220963 0
247 1 0.112603 0.245856 0
218 1 0.135498 0.238047 0
219 1 0.157028 0.248433 0
220 1 0.174839 0.231269 0
222 1 0.180769 0.256578 0
194 1 0.214844 0.222645 0
223 1 0.197812 0.239203 0
224 1 0.221815 0.247658 0
225 1 0.238864 0.229829 0
227 1 0.26284 0.238277 0
226 1 0.245243 0.255144 0
198 1 0.280755 0.220876 0
228 1 0.287487 0.245888 0
229 1 0.304786 0.227997 0
230 1 0.310721 0.252611 0
231 1 0.329274 0.234516 0
232 1 0.352313 0.240779 0
261 1 0.334731 0.259158 0
233 1 0.370472 0.223198 0
234 1 0.377106 0.246553 0
235 1 0.394565 0.228896 0
265 1 0.401252 0.253369 0
207 1 0.435049 0.217339 0
206 1 0.417778 0.235514 0
237 1 0.441945 0.241562 0
236 1 0.425261 0.260287 0
208 1 0.459679 0.224388 0
210 1 0.484107 0.230973 0
239 1 0.467402 0.249658 0
240 1 0.491722 0.256055 0
242 1 0.0416057 0.268743 0
271 1 0.0360873 0.291124 0
1170 1 0.0166638 0.276929 0
1200 1 0.0142793 0.302879 0
244 1 0.065901 0.262994 0
273 1 0.0614435 0.294243 0
275 1 0.0838733 0.280215 0
246 1 0.104337 0.29347 0
248 1 0.109813 0.269307 0
279 1 0.125722 0.304137 0
249 1 0.135344 0.264399 0
251 1 0.161584 0.271729 0
250 1 0.1434 0.287722 0
281 1 0.166453 0.296821 0
253 1 0.203126 0.264395 0
252 1 0.184925 0.281231 0
254 1 0.209444 0.289848 0
255 1 0.227254 0.272312 0
257 1 0.269849 0.263084 0
256 1 0.250975 0.279592 0
285 1 0.233076 0.297502 0
259 1 0.293214 0.270116 0
258 1 0.274823 0.28682 0
289 1 0.298792 0.294403 0
260 1 0.31752 0.276818 0
263 1 0.360185 0.264455 0
262 1 0.341737 0.28299 0
291 1 0.323382 0.300205 0
293 1 0.366251 0.289262 0
264 1 0.384005 0.271295 0
295 1 0.39035 0.295553 0
266 1 0.408724 0.277996 0
238 1 0.449577 0.266397 0
267 1 0.432424 0.285319 0
297 1 0.414452 0.30276 0
268 1 0.457809 0.290425 0
1141 1 0.498564 0.280525 0
269 1 0.475081 0.273553 0
270 1 0.480713 0.298105 0
301 1 0.0194753 0.327977 0
1230 1 -6.23888e-05 0.342616 0
272 1 0.0386868 0.314178 0
303 1 0.0429325 0.338143 0
276 1 0.0837535 0.306436 0
274 1 0.0626994 0.322058 0
305 1 0.0857322 0.331758 0
304 1 0.0664701 0.346885 0
277 1 0.106167 0.31837 0
278 1 0.128575 0.32745 0
307 1 0.108599 0.342939 0
280 1 0.148311 0.312477 0
311 1 0.152631 0.336569 0
282 1 0.172274 0.321468 0
312 1 0.175548 0.34683 0
283 1 0.190786 0.306196 0
284 1 0.214624 0.315284 0
313 1 0.195286 0.330906 0
315 1 0.219282 0.340235 0
287 1 0.256806 0.304869 0
286 1 0.238472 0.321994 0
317 1 0.262125 0.329237 0
316 1 0.243564 0.347427 0
288 1 0.281049 0.311558 0
318 1 0.285966 0.336783 0
290 1 0.305802 0.318921 0
319 1 0.311305 0.343119 0
292 1 0.348737 0.307665 0
321 1 0.33007 0.324819 0
323 1 0.354699 0.331255 0
324 1 0.379397 0.338353 0
294 1 0.373103 0.313336 0
325 1 0.403565 0.344397 0
296 1 0.397475 0.320149 0
298 1 0.439396 0.308233 0
327 1 0.421098 0.327178 0
328 1 0.446484 0.333107 0
329 1 0.471072 0.339666 0
299 1 0.463537 0.315266 0
300 1 0.487501 0.322096 0
1201 1 0.494495 0.346822 0
302 1 0.0229317 0.352185 0
332 1 0.0255941 0.377865 0
331 1 0.00276491 0.366915 0
333 1 0.045617 0.362732 0
335 1 0.0683935 0.37115 0
334 1 0.0487459 0.386918 0
306 1 0.0891006 0.357035 0
337 1 0.0913449 0.381496 0
308 1 0.111645 0.367277 0
309 1 0.131664 0.351635 0
339 1 0.135168 0.375387 0
310 1 0.155403 0.360846 0
341 1 0.159871 0.38535 0
343 1 0.179751 0.37095 0
314 1 0.199375 0.356027 0
344 1 0.203186 0.380194 0
345 1 0.223643 0.365415 0
375 1 0.226907 0.390351 0
347 1 0.268459 0.354414 0
346 1 0.249655 0.373264 0
377 1 0.274617 0.377842 0
349 1 0.292827 0.360615 0
348 1 0.299256 0.38487 0
350 1 0.317998 0.367398 0
320 1 0.335624 0.348877 0
351 1 0.343703 0.372494 0
322 1 0.361213 0.3553 0
381 1 0.327836 0.390603 0
353 1 0.367612 0.379773 0
355 1 0.385842 0.362065 0
354 1 0.392367 0.385898 0
356 1 0.410645 0.368893 0
326 1 0.428723 0.351256 0
357 1 0.435078 0.375229 0
359 1 0.453222 0.357735 0
358 1 0.458998 0.381891 0
330 1 0.476762 0.364717 0
360 1 0.48302 0.389689 0
361 1 0.00488858 0.391352 0
363 1 0.0287876 0.402038 0
362 1 0.00899887 0.416243 0
364 1 0.0323975 0.426203 0
336 1 0.0718073 0.396628 0
365 1 0.0524145 0.411454 0
366 1 0.075418 0.421912 0
338 1 0.115425 0.39097 0
367 1 0.0951612 0.40663 0
369 1 0.1185 0.415438 0
368 1 0.0987062 0.43139 0
340 1 0.139678 0.400401 0
370 1 0.142595 0.425411 0
371 1 0.162031 0.410395 0
401 1 0.165682 0.435883 0
342 1 0.183537 0.395314 0
372 1 0.185292 0.419765 0
373 1 0.206808 0.404775 0
403 1 0.208248 0.429057 0
374 1 0.229818 0.414863 0
376 1 0.251294 0.399901 0
405 1 0.251814 0.426623 0
378 1 0.278597 0.402096 0
379 1 0.311066 0.407768 0
409 1 0.291907 0.422721 0
410 1 0.317088 0.432456 0
352 1 0.351388 0.398289 0
382 1 0.358072 0.423328 0
380 1 0.334483 0.415926 0
383 1 0.373978 0.404866 0
385 1 0.398961 0.411728 0
384 1 0.381941 0.429861 0
387 1 0.417342 0.394181 0
386 1 0.423702 0.418495 0
388 1 0.442063 0.40003 0
419 1 0.447531 0.424451 0
389 1 0.466058 0.406741 0
1261 1 0.489516 0.413388 0
390 1 0.472034 0.431067 0
393 1 0.0118859 0.44102 0
423 1 0.0146691 0.465326 0
394 1 0.0357908 0.451311 0
425 1 0.0372727 0.476209 0
395 1 0.0549592 0.435671 0
396 1 0.0580598 0.4612 0
397 1 0.0786016 0.445887 0
427 1 0.0806136 0.470552 0
399 1 0.121477 0.441131 0
398 1 0.101738 0.455845 0
429 1 0.125671 0.465718 0
400 1 0.145374 0.450372 0
431 1 0.16796 0.460391 0
430 1 0.148684 0.475729 0
402 1 0.188777 0.444254 0
433 1 0.210878 0.455161 0
432 1 0.190572 0.469997 0
404 1 0.230885 0.440536 0
406 1 0.253004 0.452667 0
435 1 0.234002 0.466696 0
436 1 0.25788 0.476798 0
407 1 0.273014 0.437495 0
437 1 0.277876 0.462529 0
408 1 0.298097 0.447621 0
439 1 0.301259 0.473623 0
441 1 0.321398 0.457711 0
411 1 0.340428 0.441329 0
412 1 0.345795 0.465767 0
413 1 0.36399 0.447889 0
415 1 0.405786 0.436338 0
414 1 0.388368 0.454782 0
443 1 0.370392 0.472459 0
445 1 0.3952 0.479086 0
416 1 0.41222 0.460887 0
417 1 0.429927 0.442165 0
447 1 0.43595 0.46782 0
418 1 0.455045 0.448787 0
1291 1 0.496104 0.437488 0
420 1 0.479154 0.45551 0
449 1 0.46135 0.47326 0
454 1 0.0207992 0.514714 0
424 1 0.0173619 0.49068 0
455 1 0.0414586 0.501674 0
426 1 0.0611913 0.486055 0
456 1 0.0641275 0.510196 0
457 1 0.0835071 0.495501 0
487 1 0.0865204 0.520079 0
428 1 0.104054 0.480611 0
459 1 0.126349 0.490143 0
458 1 0.106146 0.505314 0
489 1 0.129568 0.515971 0
461 1 0.170327 0.486258 0
460 1 0.149585 0.500444 0
462 1 0.172718 0.510625 0
434 1 0.213368 0.481487 0
463 1 0.193267 0.495591 0
464 1 0.21567 0.506433 0
493 1 0.194855 0.520143 0
465 1 0.236148 0.490914 0
467 1 0.259382 0.501172 0
466 1 0.237701 0.5159 0
438 1 0.280726 0.487019 0
469 1 0.305988 0.500164 0
468 1 0.282775 0.51122 0
440 1 0.325885 0.483747 0
442 1 0.352519 0.490985 0
471 1 0.333952 0.507009 0
473 1 0.359788 0.514366 0
444 1 0.377954 0.495805 0
475 1 0.401777 0.502941 0
474 1 0.383453 0.521302 0
446 1 0.419085 0.485142 0
477 1 0.425654 0.509763 0
448 1 0.44387 0.492446 0
478 1 0.449988 0.516274 0
450 1 0.485331 0.480764 0
479 1 0.468002 0.498891 0
1381 1 0.492235 0.504397 0
483 1 0.023704 0.539375 0
482 1 0.00309942 0.554731 0
485 1 0.0441159 0.525758 0
513 1 0.0268486 0.564853 0
452 1 0.000199206 0.529656 0
484 1 0.0459488 0.550151 0
486 1 0.0666372 0.535412 0
515 1 0.0685667 0.561145 0
517 1 0.0891934 0.545716 0
488 1 0.109842 0.530012 0
519 1 0.112525 0.554782 0
490 1 0.133145 0.539902 0
520 1 0.134876 0.565557 0
491 1 0.153105 0.525284 0
521 1 0.156699 0.550611 0
492 1 0.17567 0.534969 0
523 1 0.178212 0.561945 0
494 1 0.198172 0.546037 0
495 1 0.218019 0.5316 0
525 1 0.221089 0.557027 0
496 1 0.241196 0.541793 0
497 1 0.259767 0.525905 0
527 1 0.262925 0.551625 0
470 1 0.317188 0.524152 0
499 1 0.303715 0.545454 0
498 1 0.281463 0.535847 0
529 1 0.285413 0.561089 0
472 1 0.341656 0.53194 0
501 1 0.326856 0.551186 0
502 1 0.350038 0.559044 0
503 1 0.366163 0.539371 0
505 1 0.389919 0.545967 0
476 1 0.408515 0.528635 0
504 1 0.374203 0.563837 0
506 1 0.414216 0.552389 0
507 1 0.432938 0.534543 0
508 1 0.438693 0.558856 0
509 1 0.456598 0.539725 0
480 1 0.474375 0.522975 0
510 1 0.479989 0.547171 0
1382 1 0.497788 0.528609 0
512 1 0.02912 0.58998 0
511 1 0.0065017 0.579316 0
541 1 0.0088862 0.605072 0
514 1 0.0490317 0.575741 0
545 1 0.0715318 0.58589 0
543 1 0.0521556 0.600675 0
516 1 0.0923162 0.570566 0
518 1 0.114904 0.580701 0
547 1 0.0948517 0.596461 0
548 1 0.118901 0.60673 0
549 1 0.137176 0.59121 0
522 1 0.15803 0.576495 0
551 1 0.159785 0.600851 0
553 1 0.180292 0.586552 0
524 1 0.201429 0.572248 0
554 1 0.203605 0.596889 0
555 1 0.224653 0.582978 0
526 1 0.244026 0.566981 0
557 1 0.248212 0.593197 0
528 1 0.267451 0.577739 0
558 1 0.271537 0.601853 0
556 1 0.227678 0.607181 0
500 1 0.308474 0.569296 0
559 1 0.291416 0.586872 0
530 1 0.314231 0.594546 0
531 1 0.33092 0.577096 0
532 1 0.338501 0.601319 0
533 1 0.355718 0.582514 0
563 1 0.362081 0.60745 0
534 1 0.379504 0.58803 0
535 1 0.397474 0.569665 0
536 1 0.402877 0.593804 0
537 1 0.420712 0.576146 0
567 1 0.427377 0.601372 0
538 1 0.445237 0.582751 0
568 1 0.451383 0.607567 0
539 1 0.462969 0.564618 0
540 1 0.487411 0.571211 0
569 1 0.469483 0.589052 0
1441 1 0.494068 0.596279 0
542 1 0.0317842 0.61459 0
571 1 0.0122735 0.629951 0
573 1 0.0351297 0.639726 0
546 1 0.0755518 0.61118 0
544 1 0.0557273 0.625768 0
575 1 0.0787934 0.63607 0
574 1 0.0584254 0.651862 0
577 1 0.0978557 0.620899 0
579 1 0.120596 0.631402 0
576 1 0.101186 0.646689 0
550 1 0.141452 0.616311 0
581 1 0.164238 0.626097 0
580 1 0.144378 0.641493 0
611 1 0.167978 0.651801 0
552 1 0.183519 0.61112 0
582 1 0.187296 0.635328 0
583 1 0.207561 0.621907 0
584 1 0.210937 0.646349 0
585 1 0.231517 0.63182 0
586 1 0.255667 0.641686 0
587 1 0.251861 0.617232 0
560 1 0.295772 0.611906 0
589 1 0.276123 0.627317 0
590 1 0.30029 0.636502 0
561 1 0.319487 0.618352 0
562 1 0.344153 0.625034 0
591 1 0.323253 0.643715 0
593 1 0.349436 0.650494 0
565 1 0.385875 0.613154 0
564 1 0.367563 0.63178 0
595 1 0.391942 0.637311 0
566 1 0.410085 0.618806 0
596 1 0.415537 0.643666 0
597 1 0.434521 0.625322 0
599 1 0.440697 0.650144 0
570 1 0.476254 0.612723 0
600 1 0.458936 0.632132 0
1471 1 0.483196 0.638392 0
572 1 0.0161016 0.654808 0
602 1 0.0176327 0.679608 0
603 1 0.0381325 0.665967 0
633 1 0.0408479 0.690751 0
605 1 0.0814189 0.661354 0
604 1 0.061816 0.677061 0
606 1 0.0853877 0.687468 0
578 1 0.124413 0.656404 0
607 1 0.104331 0.671156 0
608 1 0.12833 0.682276 0
609 1 0.147953 0.666031 0
610 1 0.171258 0.677121 0
639 1 0.151124 0.690854 0
612 1 0.193205 0.686862 0
613 1 0.191413 0.66154 0
614 1 0.214362 0.671574 0
615 1 0.234981 0.656094 0
616 1 0.237766 0.680652 0
617 1 0.25966 0.666874 0
647 1 0.261117 0.691987 0
588 1 0.281153 0.65292 0
619 1 0.305373 0.66103 0
618 1 0.285878 0.678364 0
620 1 0.312699 0.685492 0
621 1 0.330823 0.667495 0
592 1 0.356348 0.674334 0
622 1 0.337575 0.691375 0
594 1 0.37472 0.655276 0
625 1 0.3984 0.66113 0
623 1 0.381713 0.679281 0
626 1 0.405606 0.686122 0
598 1 0.446908 0.675188 0
627 1 0.422593 0.667727 0
657 1 0.429728 0.692371 0
628 1 0.471892 0.681157 0
629 1 0.465663 0.6565 0
1501 1 0.490043 0.662727 0
630 1 0.495686 0.688187 0
632 1 0.020957 0.705128 0
663 1 0.023589 0.730585 0
634 1 0.0442021 0.716074 0
1560 1 0.000841427 0.71945 0
635 1 0.0647579 0.701327 0
636 1 0.0875029 0.713109 0
665 1 0.0673151 0.726822 0
666 1 0.0894388 0.737403 0
637 1 0.107479 0.696447 0
638 1 0.129498 0.706826 0
667 1 0.110176 0.7225 0
669 1 0.131579 0.731856 0
641 1 0.173718 0.701179 0
640 1 0.151685 0.716557 0
671 1 0.175625 0.726382 0
643 1 0.215589 0.697211 0
642 1 0.196411 0.712457 0
644 1 0.21908 0.72202 0
673 1 0.199402 0.737619 0
645 1 0.23796 0.706025 0
675 1 0.241939 0.732003 0
646 1 0.260255 0.716129 0
649 1 0.297035 0.704342 0
648 1 0.281882 0.723637 0
679 1 0.306278 0.730421 0
650 1 0.322286 0.710482 0
651 1 0.346625 0.715981 0
681 1 0.330051 0.736029 0
653 1 0.363926 0.697367 0
624 1 0.388951 0.703337 0
654 1 0.371542 0.721077 0
685 1 0.395201 0.72893 0
655 1 0.411857 0.711282 0
656 1 0.437058 0.718028 0
686 1 0.419752 0.735645 0
658 1 0.453018 0.698623 0
687 1 0.460954 0.725082 0
659 1 0.47651 0.7055 0
689 1 0.484101 0.730733 0
662 1 0.0268885 0.756512 0
691 1 0.00600167 0.770485 0
661 1 0.003055 0.744883 0
664 1 0.0463693 0.741468 0
694 1 0.048294 0.768095 0
695 1 0.0680352 0.752093 0
696 1 0.0721588 0.777253 0
697 1 0.0917038 0.76224 0
668 1 0.111871 0.747274 0
698 1 0.114704 0.770829 0
699 1 0.135013 0.7565 0
670 1 0.15526 0.741155 0
701 1 0.15744 0.766149 0
672 1 0.178792 0.752613 0
702 1 0.181765 0.777178 0
700 1 0.137764 0.781007 0
674 1 0.22283 0.747563 0
703 1 0.202792 0.76238 0
705 1 0.225172 0.774099 0
677 1 0.263923 0.741297 0
676 1 0.243984 0.757809 0
707 1 0.268649 0.764958 0
735 1 0.249633 0.782272 0
678 1 0.287631 0.747287 0
709 1 0.293809 0.772112 0
680 1 0.312315 0.75491 0
710 1 0.319075 0.778148 0
652 1 0.355074 0.741209 0
682 1 0.361251 0.765706 0
711 1 0.336501 0.760347 0
683 1 0.378835 0.746785 0
713 1 0.385444 0.770945 0
684 1 0.403516 0.754291 0
716 1 0.409197 0.779479 0
717 1 0.443541 0.742423 0
715 1 0.427166 0.761239 0
718 1 0.450469 0.767881 0
1591 1 0.498583 0.782 0
690 1 0.491348 0.755544 0
688 1 0.467431 0.750356 0
719 1 0.474602 0.774594 0
693 1 0.0275158 0.783132 0
692 1 0.00743368 0.797039 0
722 1 0.00629168 0.822206 0
723 1 0.0284993 0.810577 0
725 1 0.0504824 0.794295 0
726 1 0.0744053 0.802013 0
755 1 0.0724071 0.825966 0
727 1 0.0941465 0.787382 0
728 1 0.116406 0.796862 0
757 1 0.0957024 0.816296 0
729 1 0.140282 0.805146 0
730 1 0.161266 0.818628 0
731 1 0.161536 0.792518 0
704 1 0.204427 0.78819 0
732 1 0.182781 0.805719 0
733 1 0.231415 0.797719 0
734 1 0.228963 0.822338 0
736 1 0.256295 0.806289 0
706 1 0.275039 0.789023 0
737 1 0.282824 0.812053 0
708 1 0.300556 0.79544 0
738 1 0.30826 0.819706 0
741 1 0.343478 0.784235 0
739 1 0.325104 0.80247 0
742 1 0.349894 0.808348 0
712 1 0.367252 0.790282 0
714 1 0.391529 0.797459 0
743 1 0.373756 0.815048 0
745 1 0.398329 0.821282 0
746 1 0.415821 0.803193 0
747 1 0.432804 0.78612 0
748 1 0.44044 0.810317 0
749 1 0.456931 0.792573 0
720 1 0.481271 0.79929 0
750 1 0.463437 0.81721 0
1621 1 0.487671 0.823545 0
753 1 0.0238606 0.839819 0
783 1 0.0188319 0.866196 0
754 1 0.0421289 0.857005 0
752 1 0.00084056 0.849444 0
724 1 0.0477222 0.831904 0
785 1 0.0655419 0.850145 0
786 1 0.0847847 0.866908 0
756 1 0.0908686 0.842866 0
758 1 0.113767 0.833742 0
787 1 0.108663 0.859837 0
789 1 0.132016 0.852421 0
759 1 0.13778 0.828668 0
760 1 0.15627 0.844586 0
791 1 0.17449 0.861831 0
790 1 0.150192 0.869348 0
761 1 0.180258 0.834556 0
763 1 0.203542 0.82467 0
762 1 0.196875 0.852155 0
764 1 0.2211 0.846178 0
765 1 0.244773 0.840614 0
795 1 0.240244 0.864778 0
766 1 0.265451 0.856545 0
767 1 0.266309 0.830347 0
769 1 0.315624 0.844026 0
768 1 0.289712 0.837396 0
799 1 0.298573 0.860838 0
740 1 0.332719 0.826101 0
770 1 0.338453 0.851457 0
771 1 0.356108 0.832921 0
773 1 0.362536 0.856152 0
801 1 0.321165 0.869057 0
744 1 0.3805 0.839022 0
774 1 0.385812 0.863148 0
775 1 0.404926 0.844677 0
777 1 0.422505 0.82785 0
807 1 0.428565 0.852686 0
778 1 0.445716 0.83449 0
809 1 0.452398 0.85848 0
779 1 0.470502 0.841156 0
780 1 0.477975 0.865114 0
1651 1 0.495225 0.84687 0
812 1 0.0150396 0.891329 0
814 1 0.0324389 0.908299 0
813 1 0.0380414 0.883143 0
784 1 0.0609577 0.874465 0
815 1 0.0557095 0.900244 0
816 1 0.0790654 0.892069 0
788 1 0.127467 0.877053 0
817 1 0.102614 0.884286 0
819 1 0.120651 0.901249 0
818 1 0.0981372 0.90915 0
821 1 0.168955 0.886482 0
820 1 0.145723 0.893458 0
851 1 0.163477 0.911484 0
793 1 0.215672 0.870599 0
792 1 0.192436 0.878434 0
823 1 0.210739 0.896689 0
822 1 0.187431 0.902881 0
794 1 0.233814 0.888615 0
796 1 0.257438 0.881476 0
827 1 0.253267 0.905688 0
825 1 0.229258 0.913083 0
797 1 0.280506 0.876349 0
798 1 0.283049 0.901213 0
800 1 0.302964 0.886277 0
829 1 0.308148 0.911373 0
831 1 0.326665 0.893133 0
772 1 0.345094 0.87551 0
802 1 0.350761 0.899376 0
803 1 0.368318 0.880772 0
804 1 0.375382 0.9055 0
805 1 0.39284 0.887053 0
835 1 0.399066 0.911328 0
776 1 0.411084 0.870187 0
806 1 0.417064 0.894471 0
808 1 0.434973 0.876697 0
839 1 0.44138 0.900974 0
1681 1 0.482959 0.889286 0
810 1 0.459525 0.881798 0
840 1 0.465355 0.906746 0
843 1 0.00872861 0.915791 0
842 1 0.00382374 0.940239 0
844 1 0.0273261 0.9328 0
875 1 0.045257 0.949089 0
845 1 0.0507945 0.924709 0
846 1 0.0694425 0.941434 0
847 1 0.074553 0.917001 0
848 1 0.0926193 0.934095 0
849 1 0.116609 0.925631 0
879 1 0.111156 0.950489 0
881 1 0.134549 0.942129 0
850 1 0.140462 0.917841 0
852 1 0.157939 0.935535 0
883 1 0.176389 0.952658 0
853 1 0.181984 0.928123 0
824 1 0.205521 0.920657 0
854 1 0.200209 0.945036 0
855 1 0.224645 0.937177 0
826 1 0.248106 0.9294 0
857 1 0.26763 0.946977 0
856 1 0.244135 0.954533 0
828 1 0.27121 0.922769 0
859 1 0.290784 0.936438 0
830 1 0.315256 0.935427 0
833 1 0.356719 0.924105 0
832 1 0.333002 0.917758 0
861 1 0.339093 0.94192 0
863 1 0.363854 0.948154 0
834 1 0.38157 0.929471 0
865 1 0.406061 0.936268 0
864 1 0.388479 0.953903 0
837 1 0.423808 0.918647 0
836 1 0.429966 0.944098 0
838 1 0.448732 0.924748 0
870 1 0.455062 0.950117 0
1711 1 0.489411 0.913097 0
869 1 0.472185 0.931963 0
1712 1 0.496076 0.93789 0
873 1 0.0220687 0.956952 0
3 1 0.0353869 0.998735 0
872 1 0.0158115 0.981177 0
874 1 0.0399928 0.974325 0
877 1 0.0867317 0.958933 0
5 1 0.0588437 0.991837 0
876 1 0.0634341 0.965934 0
7 1 0.0824555 0.982855 0
8 1 0.100537 0.999833 0
9 1 0.124595 0.991789 0
878 1 0.105996 0.975171 0
880 1 0.12917 0.967069 0
11 1 0.148532 0.984704 0
882 1 0.153476 0.959814 0
13 1 0.17221 0.97736 0
12 1 0.191102 0.993631 0
15 1 0.21448 0.986576 0
884 1 0.196274 0.969096 0
885 1 0.220009 0.962382 0
17 1 0.256622 0.996235 0
887 1 0.239105 0.978491 0
888 1 0.263303 0.971517 0
858 1 0.28746 0.962733 0
19 1 0.28181 0.989123 0
889 1 0.304721 0.98083 0
860 1 0.320788 0.960576 0
862 1 0.345252 0.96595 0
891 1 0.328926 0.984047 0
892 1 0.352882 0.99095 0
23 1 0.376246 0.996979 0
893 1 0.370719 0.972554 0
895 1 0.395183 0.979242 0
896 1 0.418894 0.985832 0
866 1 0.412511 0.961657 0
867 1 0.437735 0.968513 0
897 1 0.443481 0.992814 0
1771 1 0.485811 0.980825 0
1741 1 0.478383 0.956241 0
868 1 0.46213 0.975536 0
931 1 0.522405 0.0357814 0
901 1 0.517022 0.0107337 0
902 1 0.54086 0.0182878 0
904 1 0.564294 0.0252149 0
906 1 0.581223 0.00651897 0
935 1 0.587777 0.0308243 0
933 1 0.546856 0.0425749 0
905 1 0.557625 -0.000238002 0
908 1 0.604886 0.0133415 0
939 1 0.628978 0.0201301 0
937 1 0.611402 0.0379399 0
910 1 0.646464 0.00126167 0
941 1 0.653817 0.0264761 0
912 1 0.670249 0.00807611 0
942 1 0.677871 0.0324656 0
943 1 0.6939 0.0139624 0
945 1 0.717751 0.0215032 0
944 1 0.702525 0.0394133 0
914 1 0.742298 0.0225114 0
916 1 0.765727 0.0146258 0
947 1 0.75948 0.039341 0
918 1 0.783232 0.0318579 0
919 1 0.808138 0.0242499 0
917 1 0.789478 0.00784145 0
920 1 0.83152 0.0172148 0
922 1 0.849196 0.0347725 0
921 1 0.855063 0.010318 0
951 1 0.824982 0.0422755 0
923 1 0.873672 0.0274074 0
924 1 0.8968 0.0195852 0
1792 1 0.878366 0.00267279 0
955 1 0.916503 0.0382018 0
925 1 0.921359 0.0125501 0
926 1 0.93961 0.0284241 0
928 1 0.944552 0.00389606 0
930 1 0.987318 0.0143159 0
959 1 0.963498 0.0207935 0
960 1 0.981934 0.0380831 0
932 1 0.529286 0.0606528 0
961 1 0.511749 0.0784222 0
60 1 0.505682 0.0534589 0
962 1 0.536019 0.0862021 0
963 1 0.553451 0.0674703 0
934 1 0.57035 0.049383 0
965 1 0.577309 0.0746465 0
936 1 0.594441 0.0565991 0
967 1 0.618312 0.0623236 0
966 1 0.601104 0.0800435 0
938 1 0.63558 0.0445214 0
968 1 0.625684 0.0866842 0
969 1 0.643121 0.0688424 0
940 1 0.661126 0.0512679 0
970 1 0.667823 0.0754846 0
971 1 0.684781 0.0580596 0
973 1 0.708393 0.0638949 0
972 1 0.691758 0.0815328 0
975 1 0.727409 0.0449934 0
974 1 0.731359 0.0707691 0
946 1 0.754763 0.063494 0
977 1 0.771939 0.0807959 0
949 1 0.801421 0.0488371 0
948 1 0.778107 0.0566198 0
979 1 0.795923 0.0736154 0
950 1 0.819897 0.0662279 0
980 1 0.839646 0.0830385 0
952 1 0.844323 0.0591241 0
981 1 0.86317 0.0760839 0
954 1 0.892506 0.0442702 0
953 1 0.86835 0.0520758 0
983 1 0.886988 0.0684461 0
984 1 0.904705 0.0853808 0
985 1 0.911659 0.0616302 0
956 1 0.935249 0.0533035 0
986 1 0.929734 0.0772652 0
987 1 0.953379 0.0701639 0
957 1 0.957874 0.0443365 0
958 1 0.977282 0.0621352 0
989 1 0.995217 0.078901 0
991 1 0.518315 0.103864 0
993 1 0.542338 0.110801 0
992 1 0.524736 0.128489 0
120 1 0.500198 0.120638 0
964 1 0.559807 0.0928504 0
994 1 0.566049 0.116191 0
995 1 0.583525 0.0982034 0
996 1 0.589988 0.122887 0
997 1 0.608026 0.1042 0
998 1 0.632694 0.110878 0
1027 1 0.615194 0.128949 0
999 1 0.650369 0.0931485 0
1000 1 0.65617 0.11768 0
1001 1 0.67406 0.0997345 0
1031 1 0.68014 0.123894 0
1002 1 0.697799 0.106322 0
1003 1 0.715249 0.0888872 0
1004 1 0.723883 0.114107 0
976 1 0.764411 0.103939 0
1005 1 0.742127 0.0940378 0
1035 1 0.747756 0.120511 0
978 1 0.814973 0.0906344 0
1007 1 0.790111 0.0973699 0
1006 1 0.782157 0.121131 0
1008 1 0.808426 0.11412 0
1009 1 0.833809 0.107928 0
1010 1 0.852506 0.123978 0
1011 1 0.856847 0.100006 0
982 1 0.881158 0.0927294 0
1012 1 0.876439 0.116601 0
1013 1 0.899844 0.109913 0
1016 1 0.91876 0.126216 0
1017 1 0.947591 0.0943944 0
1015 1 0.923113 0.101862 0
1047 1 0.94203 0.118318 0
988 1 0.972071 0.0862247 0
1018 1 0.966161 0.110988 0
1019 1 0.98965 0.104272 0
1020 1 0.984079 0.128537 0
1022 1 0.530975 0.153417 0
1021 1 0.507276 0.146177 0
1051 1 0.51414 0.171092 0
1023 1 0.548997 0.135978 0
1024 1 0.554805 0.159705 0
1025 1 0.573298 0.14112 0
1055 1 0.579124 0.165469 0
1026 1 0.596861 0.146727 0
1028 1 0.621427 0.154153 0
1057 1 0.603319 0.170691 0
1029 1 0.638477 0.135528 0
1059 1 0.644964 0.159297 0
1030 1 0.662544 0.14226 0
1061 1 0.66883 0.166297 0
1032 1 0.685838 0.148116 0
1033 1 0.704609 0.130812 0
1063 1 0.710929 0.155301 0
1062 1 0.692949 0.172489 0
1034 1 0.729333 0.138808 0
1036 1 0.753663 0.144143 0
1065 1 0.735101 0.162193 0
1066 1 0.757851 0.16844 0
1067 1 0.778386 0.148704 0
1037 1 0.802444 0.138539 0
1038 1 0.800424 0.162505 0
1039 1 0.827423 0.132027 0
1040 1 0.824168 0.156217 0
1041 1 0.847526 0.148109 0
1071 1 0.840911 0.173872 0
1042 1 0.865519 0.165706 0
1014 1 0.894346 0.133821 0
1043 1 0.871136 0.140842 0
1044 1 0.889926 0.158552 0
1045 1 0.912698 0.150969 0
1046 1 0.936791 0.142991 0
1077 1 0.931776 0.167459 0
1048 1 0.955773 0.160595 0
1049 1 0.960505 0.136294 0
1050 1 0.979778 0.152412 0
151 1 0.997858 0.169869 0
1053 1 0.537103 0.178748 0
1052 1 0.519242 0.195723 0
1081 1 0.502309 0.213029 0
1083 1 0.543491 0.20186 0
1054 1 0.561714 0.183566 0
1056 1 0.587202 0.189446 0
1085 1 0.568747 0.207511 0
1058 1 0.626969 0.178134 0
1087 1 0.610838 0.19681 0
1089 1 0.634665 0.202138 0
1086 1 0.592972 0.214903 0
1060 1 0.651165 0.184173 0
1091 1 0.674931 0.190494 0
1090 1 0.657567 0.207959 0
1093 1 0.699199 0.196958 0
1064 1 0.71667 0.180365 0
1094 1 0.723416 0.204418 0
1092 1 0.681868 0.214477 0
1095 1 0.740309 0.187342 0
1097 1 0.764512 0.192982 0
1096 1 0.747127 0.211598 0
1068 1 0.780498 0.17547 0
1098 1 0.788123 0.199359 0
1099 1 0.812083 0.203454 0
1069 1 0.817164 0.180482 0
1070 1 0.836203 0.19772 0
1072 1 0.859055 0.190149 0
1101 1 0.854798 0.215202 0
1075 1 0.907711 0.174782 0
1073 1 0.883628 0.182822 0
1103 1 0.877858 0.207091 0
1074 1 0.90239 0.199684 0
1078 1 0.950715 0.185138 0
1076 1 0.926496 0.191882 0
1107 1 0.94401 0.209317 0
1105 1 0.91941 0.216927 0
1079 1 0.974302 0.177542 0
1109 1 0.968081 0.201632 0
181 1 0.992145 0.195526 0
1082 1 0.526529 0.219985 0
1111 1 0.508661 0.237757 0
1113 1 0.533107 0.244501 0
1084 1 0.550692 0.226511 0
1114 1 0.557545 0.250467 0
1115 1 0.575213 0.233284 0
1116 1 0.581261 0.257209 0
1088 1 0.617198 0.221047 0
1117 1 0.599558 0.239576 0
1118 1 0.623602 0.24599 0
1119 1 0.640724 0.227722 0
1121 1 0.665062 0.233086 0
1120 1 0.647539 0.252009 0
1151 1 0.671456 0.25813 0
1122 1 0.688998 0.240254 0
1123 1 0.705443 0.221242 0
1124 1 0.713268 0.247302 0
1127 1 0.771602 0.217237 0
1125 1 0.730593 0.229465 0
1126 1 0.754459 0.235773 0
1155 1 0.736945 0.253989 0
1157 1 0.761562 0.259701 0
1129 1 0.796839 0.223029 0
1128 1 0.777926 0.241132 0
1159 1 0.801978 0.246822 0
1100 1 0.829228 0.222314 0
1130 1 0.824907 0.247476 0
1131 1 0.847866 0.238874 0
1132 1 0.865659 0.257002 0
1102 1 0.871732 0.232385 0
1104 1 0.895579 0.224666 0
1133 1 0.889769 0.249361 0
1135 1 0.914122 0.240822 0
1136 1 0.932772 0.259143 0
1106 1 0.938375 0.233932 0
1110 1 0.985947 0.21994 0
1137 1 0.95697 0.251919 0