ITEM: TIMESTEP
144000
ITEM: NUMBER OF ATOMS
1800
ITEM: BOX BOUNDS pp pp pp
1.3555781136238352e+00 1.6364442188637418e+02
1.3555781136238352e+00 1.6364442188637418e+02
0.0000000000000000e+00 5.5000000000000000e+00
ITEM: ATOMS id type xs ys zs
2 1 0.0114651 0.00546195 0
33 1 0.0290285 0.02302 0
31 1 0.00582196 0.0310085 0
4 1 0.0531887 0.0152395 0
6 1 0.0763414 0.00850265 0
35 1 0.0710549 0.0327349 0
34 1 0.0479661 0.0399373 0
37 1 0.094947 0.0256025 0
39 1 0.118168 0.0170808 0
38 1 0.113644 0.0419131 0
8 1 0.100114 0.000224832 0
40 1 0.136664 0.0342555 0
10 1 0.143151 0.00888694 0
42 1 0.162223 0.0265266 0
41 1 0.166985 0.0016311 0
43 1 0.184904 0.0188812 0
14 1 0.20935 0.0119851 0
44 1 0.203667 0.0361493 0
45 1 0.227382 0.0291904 0
16 1 0.25162 0.0201038 0
886 1 0.232663 0.0031729 0
46 1 0.26991 0.0376195 0
18 1 0.274743 0.0112112 0
49 1 0.293383 0.0284177 0
20 1 0.303078 0.00503784 0
51 1 0.317716 0.0271147 0
22 1 0.340592 0.0312352 0
21 1 0.35905 0.0149875 0
890 1 0.333071 0.00702143 0
24 1 0.383509 0.0221121 0
53 1 0.36518 0.0394453 0
894 1 0.400077 0.00372012 0
25 1 0.40777 0.028162 0
26 1 0.431118 0.0334404 0
27 1 0.424773 0.00851818 0
898 1 0.448941 0.016509 0
29 1 0.473876 0.0234319 0
900 1 0.491029 0.00537871 0
28 1 0.455532 0.0409357 0
30 1 0.497827 0.0289135 0
32 1 0.0237865 0.04709 0
62 1 0.0182899 0.0722066 0
63 1 0.0415989 0.0638419 0
61 1 -0.000464035 0.0544251 0
65 1 0.0656973 0.056765 0
66 1 0.0842275 0.074544 0
64 1 0.0604438 0.081418 0
36 1 0.0897886 0.0502729 0
67 1 0.108451 0.066705 0
69 1 0.132057 0.06001 0
68 1 0.125994 0.0843913 0
73 1 0.179679 0.0434428 0
71 1 0.155498 0.0512193 0
72 1 0.174174 0.0683454 0
70 1 0.150008 0.0759716 0
74 1 0.22221 0.0529556 0
103 1 0.19821 0.0604753 0
105 1 0.216249 0.0771854 0
101 1 0.19248 0.0854295 0
75 1 0.246763 0.0455681 0
77 1 0.265385 0.0623383 0
76 1 0.241437 0.0703587 0
137 1 0.258999 0.0869449 0
47 1 0.289949 0.0544666 0
48 1 0.307341 0.0712126 0
78 1 0.283385 0.0802602 0
50 1 0.323466 0.0522651 0
81 1 0.331826 0.0766087 0
52 1 0.347506 0.0568447 0
82 1 0.354965 0.0824859 0
55 1 0.389216 0.0469471 0
83 1 0.372261 0.064179 0
54 1 0.395544 0.0705163 0
57 1 0.436958 0.0587991 0
85 1 0.420188 0.0767929 0
56 1 0.413236 0.0522598 0
87 1 0.44428 0.0823559 0
59 1 0.479428 0.0475687 0
58 1 0.462579 0.0650817 0
89 1 0.486059 0.0720129 0
93 1 0.0365903 0.0884983 0
990 1 0.0126844 0.0970989 0
92 1 0.0314378 0.113613 0
91 1 0.00700608 0.121088 0
94 1 0.0549431 0.106151 0
95 1 0.0787353 0.099451 0
125 1 0.0744184 0.123498 0
96 1 0.0981086 0.116105 0
97 1 0.102536 0.091854 0
98 1 0.121678 0.108525 0
99 1 0.14577 0.100506 0
100 1 0.168534 0.0930966 0
130 1 0.164137 0.118462 0
129 1 0.140285 0.125175 0
131 1 0.187365 0.11094 0
102 1 0.211219 0.101909 0
133 1 0.205396 0.128032 0
104 1 0.228367 0.119328 0
106 1 0.235261 0.0951052 0
135 1 0.252179 0.112904 0
107 1 0.27521 0.104076 0
109 1 0.298472 0.112505 0
79 1 0.314709 0.0944188 0
108 1 0.28084 0.129555 0
80 1 0.339271 0.10127 0
110 1 0.32157 0.119452 0
141 1 0.346104 0.126058 0
111 1 0.363143 0.10718 0
113 1 0.378642 0.0881551 0
84 1 0.403646 0.0952828 0
112 1 0.387425 0.114519 0
115 1 0.410872 0.120529 0
86 1 0.428294 0.101753 0
116 1 0.435613 0.126242 0
117 1 0.452594 0.108223 0
88 1 0.468913 0.0896669 0
90 1 0.492889 0.0965157 0
119 1 0.476332 0.115845 0
120 1 0.499765 0.121203 0
122 1 0.0264189 0.138965 0
152 1 0.0210098 0.162659 0
121 1 0.00256032 0.146204 0
153 1 0.0449445 0.155366 0
123 1 0.0497104 0.130365 0
124 1 0.0679718 0.148128 0
155 1 0.0857005 0.164865 0
154 1 0.0616265 0.173071 0
127 1 0.116881 0.132564 0
126 1 0.0923374 0.140176 0
128 1 0.134693 0.150887 0
157 1 0.110322 0.157259 0
159 1 0.158491 0.142175 0
161 1 0.176445 0.159568 0
160 1 0.153166 0.167754 0
132 1 0.182302 0.135826 0
163 1 0.199993 0.152518 0
134 1 0.223881 0.14617 0
193 1 0.219138 0.171198 0
136 1 0.264685 0.149572 0
165 1 0.245973 0.136549 0
164 1 0.2436 0.164189 0
167 1 0.27052 0.172528 0
139 1 0.304724 0.136993 0
138 1 0.288454 0.154668 0
169 1 0.311237 0.16191 0
140 1 0.328608 0.143728 0
142 1 0.353233 0.149262 0
171 1 0.335094 0.167795 0
143 1 0.370593 0.131788 0
114 1 0.393569 0.138603 0
173 1 0.376884 0.156667 0
144 1 0.400211 0.162638 0
145 1 0.417953 0.144367 0
146 1 0.424434 0.167915 0
147 1 0.441831 0.150811 0
118 1 0.4581 0.132961 0
149 1 0.482045 0.139168 0
148 1 0.465543 0.157044 0
150 1 0.489529 0.163334 0
183 1 0.0385598 0.180215 0
182 1 0.033761 0.204335 0
1080 1 0.0157335 0.18739 0
211 1 0.00982074 0.210772 0
184 1 0.0577414 0.197334 0
185 1 0.0808285 0.189109 0
215 1 0.0751853 0.214955 0
158 1 0.128705 0.174614 0
186 1 0.0986996 0.206323 0
156 1 0.104352 0.182056 0
187 1 0.123858 0.199594 0
189 1 0.146671 0.192278 0
191 1 0.171302 0.184591 0
190 1 0.166629 0.209403 0
188 1 0.142544 0.216907 0
162 1 0.195258 0.177081 0
221 1 0.192182 0.214057 0
192 1 0.211464 0.19603 0
195 1 0.23403 0.204914 0
166 1 0.252072 0.188689 0
196 1 0.258035 0.213702 0
168 1 0.294378 0.179207 0
197 1 0.276289 0.196399 0
199 1 0.300395 0.202994 0
170 1 0.317399 0.185839 0
172 1 0.358745 0.174263 0
201 1 0.340596 0.19247 0
200 1 0.323666 0.210162 0
202 1 0.347353 0.217082 0
203 1 0.364211 0.198609 0
174 1 0.382662 0.181614 0
204 1 0.388732 0.205001 0
175 1 0.40643 0.18673 0
177 1 0.448562 0.175005 0
205 1 0.412644 0.211689 0
176 1 0.431061 0.193105 0
178 1 0.455347 0.200338 0
179 1 0.471704 0.181902 0
180 1 0.495698 0.18823 0
209 1 0.478927 0.205754 0
212 1 0.0275228 0.228311 0
241 1 0.0221183 0.252726 0
1140 1 0.00340622 0.234996 0
243 1 0.0458412 0.244962 0
213 1 0.0516739 0.221086 0
214 1 0.0692353 0.240149 0
245 1 0.0886204 0.259516 0
216 1 0.0925642 0.231857 0
217 1 0.116701 0.223175 0
247 1 0.110947 0.247651 0
218 1 0.134279 0.240129 0
219 1 0.157423 0.248163 0
220 1 0.176043 0.232616 0
222 1 0.181516 0.256851 0
194 1 0.216127 0.222395 0
223 1 0.198904 0.239084 0
224 1 0.222131 0.246777 0
225 1 0.240213 0.229984 0
227 1 0.264125 0.238032 0
226 1 0.245586 0.254712 0
198 1 0.281634 0.220277 0
228 1 0.28797 0.245848 0
229 1 0.305104 0.228646 0
230 1 0.312027 0.252401 0
231 1 0.329729 0.234717 0
232 1 0.353825 0.241658 0
261 1 0.336321 0.259841 0
233 1 0.371853 0.222621 0
234 1 0.378337 0.248651 0
235 1 0.395253 0.230711 0
265 1 0.40285 0.254193 0
207 1 0.437205 0.218188 0
206 1 0.419548 0.236369 0
237 1 0.443094 0.242723 0
236 1 0.426438 0.260943 0
208 1 0.460973 0.22489 0
210 1 0.485004 0.230018 0
239 1 0.468048 0.248425 0
240 1 0.491265 0.25517 0
242 1 0.0411824 0.26866 0
271 1 0.03627 0.292074 0
1170 1 0.0167593 0.276783 0
1200 1 0.0124123 0.302405 0
244 1 0.0650545 0.264652 0
273 1 0.0611438 0.298578 0
275 1 0.0805982 0.283608 0
246 1 0.103476 0.293791 0
248 1 0.115861 0.273013 0
279 1 0.125677 0.304137 0
249 1 0.138721 0.264515 0
251 1 0.162732 0.272782 0
250 1 0.143547 0.289115 0
281 1 0.167191 0.297623 0
253 1 0.205545 0.264234 0
252 1 0.186126 0.281098 0
254 1 0.210091 0.289628 0
255 1 0.227944 0.272094 0
257 1 0.269281 0.263514 0
256 1 0.251373 0.280458 0
285 1 0.233516 0.296506 0
259 1 0.293413 0.27006 0
258 1 0.275959 0.287418 0
289 1 0.300436 0.293664 0
260 1 0.318759 0.27708 0
263 1 0.360742 0.266117 0
262 1 0.342597 0.28406 0
291 1 0.324807 0.300349 0
293 1 0.367207 0.2891 0
264 1 0.384714 0.272071 0
295 1 0.390842 0.296257 0
266 1 0.408098 0.278214 0
238 1 0.450608 0.267045 0
267 1 0.432297 0.284979 0
297 1 0.41563 0.302333 0
268 1 0.457048 0.29153 0
1141 1 0.499575 0.279101 0
269 1 0.47403 0.272638 0
270 1 0.480968 0.296475 0
301 1 0.0203861 0.327301 0
1230 1 0.00205026 0.342764 0
272 1 0.0417931 0.315201 0
303 1 0.0438343 0.339444 0
276 1 0.0838756 0.307937 0
274 1 0.0645807 0.323157 0
305 1 0.0870408 0.33307 0
277 1 0.106311 0.318745 0
278 1 0.130336 0.328821 0
307 1 0.110459 0.342431 0
280 1 0.14805 0.313291 0
311 1 0.15298 0.337697 0
282 1 0.171837 0.322416 0
312 1 0.176846 0.346366 0
283 1 0.191705 0.306072 0
284 1 0.214494 0.314216 0
313 1 0.19603 0.331302 0
315 1 0.221062 0.339533 0
287 1 0.257849 0.304925 0
286 1 0.239325 0.322151 0
317 1 0.263421 0.330365 0
316 1 0.244301 0.347003 0
288 1 0.281733 0.311827 0
318 1 0.287268 0.33586 0
290 1 0.306347 0.317858 0
319 1 0.311857 0.342678 0
292 1 0.348704 0.308528 0
321 1 0.33076 0.325278 0
323 1 0.354595 0.332522 0
324 1 0.378518 0.338235 0
294 1 0.372559 0.313742 0
325 1 0.403944 0.34461 0
296 1 0.397783 0.320513 0
298 1 0.440035 0.309041 0
327 1 0.422005 0.326928 0
328 1 0.446349 0.333026 0
329 1 0.471201 0.339955 0
299 1 0.464316 0.315601 0
300 1 0.488219 0.321922 0
1201 1 0.494699 0.346069 0
302 1 0.0244592 0.35398 0
332 1 0.0269836 0.377976 0
331 1 0.00350652 0.367379 0
304 1 0.0672406 0.348004 0
333 1 0.0472486 0.36362 0
335 1 0.0703989 0.372704 0
334 1 0.0502896 0.387814 0
306 1 0.0901788 0.357828 0
337 1 0.094158 0.382588 0
308 1 0.114157 0.36778 0
309 1 0.133816 0.352996 0
339 1 0.138723 0.377568 0
310 1 0.157987 0.361728 0
341 1 0.161881 0.386527 0
343 1 0.182054 0.370753 0
314 1 0.202243 0.356244 0
344 1 0.205672 0.381426 0
345 1 0.225942 0.364657 0
375 1 0.229403 0.389779 0
347 1 0.267967 0.354678 0
346 1 0.248725 0.373352 0
377 1 0.274117 0.378295 0
349 1 0.292634 0.359779 0
348 1 0.299689 0.384789 0
350 1 0.316824 0.366984 0
320 1 0.33626 0.349591 0
351 1 0.343749 0.373158 0
322 1 0.360922 0.356517 0
381 1 0.326744 0.390155 0
353 1 0.367297 0.380504 0
355 1 0.385072 0.362521 0
354 1 0.391838 0.386726 0
356 1 0.409555 0.368678 0
326 1 0.427871 0.350461 0
357 1 0.433953 0.374765 0
359 1 0.451538 0.357588 0
358 1 0.458137 0.381588 0
330 1 0.47657 0.364346 0
360 1 0.483136 0.387946 0
361 1 0.0069312 0.392533 0
363 1 0.0303678 0.40262 0
362 1 0.0102799 0.417216 0
364 1 0.0339373 0.426788 0
336 1 0.0734617 0.396948 0
365 1 0.0538505 0.412552 0
366 1 0.0765116 0.422084 0
338 1 0.11759 0.392425 0
367 1 0.0969222 0.40785 0
369 1 0.120661 0.416103 0
368 1 0.100255 0.432094 0
340 1 0.140744 0.401698 0
370 1 0.143993 0.425578 0
371 1 0.164209 0.411214 0
342 1 0.185368 0.396138 0
372 1 0.187468 0.421514 0
373 1 0.208261 0.405709 0
403 1 0.210773 0.430579 0
374 1 0.230913 0.415477 0
376 1 0.253141 0.398901 0
405 1 0.252867 0.424806 0
378 1 0.277874 0.405713 0
379 1 0.309003 0.407644 0
409 1 0.292617 0.424907 0
410 1 0.316719 0.431741 0
352 1 0.350388 0.397721 0
382 1 0.357171 0.422946 0
380 1 0.333945 0.415272 0
383 1 0.374406 0.404778 0
385 1 0.399531 0.411078 0
384 1 0.381935 0.428352 0
387 1 0.416229 0.392825 0
386 1 0.423087 0.41781 0
388 1 0.440151 0.399215 0
419 1 0.448279 0.424735 0
389 1 0.465009 0.405856 0
1261 1 0.489871 0.412605 0
390 1 0.47232 0.430956 0
393 1 0.0125755 0.440875 0
423 1 0.0144506 0.465881 0
394 1 0.0362509 0.451262 0
425 1 0.0382972 0.475767 0
395 1 0.0564157 0.43766 0
396 1 0.0587636 0.461637 0
397 1 0.0792784 0.447206 0
427 1 0.0817618 0.471675 0
399 1 0.123138 0.44122 0
398 1 0.103063 0.455675 0
429 1 0.125878 0.465904 0
401 1 0.166367 0.436598 0
400 1 0.145589 0.450424 0
431 1 0.168421 0.460784 0
430 1 0.148382 0.476394 0
402 1 0.189954 0.445596 0
433 1 0.212455 0.455312 0
432 1 0.191954 0.469969 0
404 1 0.2331 0.440759 0
406 1 0.254747 0.453408 0
435 1 0.235023 0.467902 0
436 1 0.258253 0.477347 0
407 1 0.273911 0.439064 0
437 1 0.279125 0.463809 0
408 1 0.297759 0.448735 0
439 1 0.302652 0.473652 0
441 1 0.321395 0.456367 0
411 1 0.340021 0.440147 0
412 1 0.346018 0.464361 0
415 1 0.405806 0.436572 0
413 1 0.364499 0.446734 0
414 1 0.388275 0.454071 0
443 1 0.370725 0.47144 0
416 1 0.412632 0.460107 0
417 1 0.430657 0.441887 0
447 1 0.436887 0.467176 0
418 1 0.455386 0.449018 0
1291 1 0.496147 0.438288 0
420 1 0.478911 0.455841 0
449 1 0.460752 0.473824 0
454 1 0.020474 0.515293 0
424 1 0.0175651 0.489893 0
455 1 0.0410049 0.500377 0
426 1 0.061225 0.48625 0
456 1 0.0636026 0.510805 0
457 1 0.0846377 0.496604 0
487 1 0.0869965 0.521526 0
428 1 0.105033 0.481159 0
459 1 0.127643 0.490807 0
458 1 0.107059 0.507115 0
489 1 0.130005 0.516211 0
461 1 0.171985 0.485528 0
460 1 0.150604 0.500847 0
462 1 0.17353 0.510912 0
434 1 0.214816 0.481087 0
463 1 0.194115 0.495321 0
464 1 0.216348 0.506047 0
493 1 0.196575 0.521903 0
465 1 0.237636 0.492461 0
467 1 0.260032 0.502361 0
466 1 0.239196 0.516235 0
438 1 0.281947 0.488091 0
469 1 0.307905 0.497895 0
468 1 0.285415 0.512452 0
440 1 0.327005 0.481615 0
442 1 0.3524 0.487935 0
471 1 0.334825 0.505724 0
473 1 0.358558 0.513128 0
445 1 0.39518 0.478024 0
444 1 0.37616 0.495762 0
475 1 0.400892 0.502075 0
474 1 0.383183 0.520127 0
446 1 0.418559 0.48458 0
477 1 0.425537 0.50904 0
448 1 0.442202 0.491365 0
478 1 0.449622 0.515741 0
450 1 0.484843 0.481531 0
479 1 0.467412 0.498926 0
1381 1 0.492045 0.505384 0
483 1 0.023306 0.540232 0
482 1 0.0033562 0.554192 0
485 1 0.0440734 0.525394 0
452 1 -2.10855e-05 0.529638 0
484 1 0.046412 0.550155 0
486 1 0.0665199 0.535974 0
515 1 0.0689457 0.561201 0
517 1 0.0892238 0.546103 0
488 1 0.110108 0.532009 0
519 1 0.112389 0.557486 0
490 1 0.133817 0.541316 0
491 1 0.153183 0.526178 0
521 1 0.15621 0.551351 0
492 1 0.176109 0.535927 0
523 1 0.178832 0.561646 0
494 1 0.199129 0.547214 0
495 1 0.219212 0.531472 0
525 1 0.221916 0.557614 0
496 1 0.24095 0.542391 0
497 1 0.260491 0.527443 0
527 1 0.262859 0.552131 0
470 1 0.315747 0.522183 0
499 1 0.304841 0.544398 0
498 1 0.283089 0.536305 0
529 1 0.286187 0.561469 0
472 1 0.340681 0.530128 0
501 1 0.326769 0.551165 0
502 1 0.350704 0.555816 0
503 1 0.366685 0.537189 0
505 1 0.39051 0.54485 0
476 1 0.407658 0.527136 0
504 1 0.373494 0.562014 0
506 1 0.414162 0.550502 0
507 1 0.432122 0.533375 0
508 1 0.438527 0.557182 0
480 1 0.474391 0.522983 0
509 1 0.45613 0.540027 0
510 1 0.48058 0.546904 0
1382 1 0.498418 0.529663 0
539 1 0.463296 0.564762 0
513 1 0.0265179 0.565533 0
512 1 0.0301761 0.590734 0
511 1 0.00715075 0.579711 0
541 1 0.00942907 0.60408 0
514 1 0.049402 0.575421 0
545 1 0.0714369 0.586996 0
543 1 0.0519348 0.601702 0
520 1 0.135877 0.566983 0
516 1 0.0916664 0.571151 0
518 1 0.115112 0.581477 0
547 1 0.0956603 0.596296 0
548 1 0.118309 0.606542 0
549 1 0.137918 0.591424 0
522 1 0.159496 0.576375 0
551 1 0.161805 0.601643 0
553 1 0.181609 0.586723 0
524 1 0.201421 0.571851 0
554 1 0.204485 0.596806 0
555 1 0.224836 0.582699 0
556 1 0.228127 0.60761 0
526 1 0.243913 0.567492 0
557 1 0.248352 0.592491 0
528 1 0.267108 0.576564 0
558 1 0.27196 0.601168 0
500 1 0.309508 0.568859 0
559 1 0.291274 0.585635 0
530 1 0.315008 0.592902 0
531 1 0.332949 0.57424 0
532 1 0.338773 0.598367 0
533 1 0.356166 0.580372 0
563 1 0.362262 0.605249 0
534 1 0.380299 0.586799 0
535 1 0.397523 0.569229 0
536 1 0.404389 0.593353 0
537 1 0.421174 0.574796 0
567 1 0.427382 0.600285 0
538 1 0.445467 0.581352 0
568 1 0.451086 0.605391 0
540 1 0.486983 0.571653 0
569 1 0.469727 0.589459 0
1441 1 0.494099 0.596151 0
542 1 0.0317839 0.615375 0
571 1 0.0117535 0.629576 0
573 1 0.0351217 0.639962 0
546 1 0.0755533 0.611163 0
544 1 0.0547398 0.625666 0
575 1 0.0776554 0.635793 0
574 1 0.057772 0.650419 0
577 1 0.0984079 0.621648 0
579 1 0.122139 0.631243 0
576 1 0.102135 0.646194 0
550 1 0.142134 0.616199 0
581 1 0.16433 0.627129 0
580 1 0.144632 0.642208 0
611 1 0.167152 0.652054 0
552 1 0.185498 0.612417 0
582 1 0.187839 0.636464 0
583 1 0.208909 0.621974 0
584 1 0.211536 0.64651 0
585 1 0.231601 0.631659 0
586 1 0.255088 0.640068 0
587 1 0.25071 0.616663 0
560 1 0.296729 0.609203 0
589 1 0.275689 0.625457 0
590 1 0.299645 0.63358 0
588 1 0.280322 0.650384 0
561 1 0.319924 0.616921 0
562 1 0.343964 0.622793 0
591 1 0.323411 0.640437 0
593 1 0.349259 0.646967 0
565 1 0.38592 0.610951 0
564 1 0.367163 0.630136 0
595 1 0.391385 0.636604 0
566 1 0.409212 0.617627 0
596 1 0.416688 0.64202 0
597 1 0.433532 0.623695 0
599 1 0.440933 0.648331 0
570 1 0.476353 0.613761 0
600 1 0.458169 0.629531 0
1471 1 0.482611 0.637549 0
572 1 0.0148884 0.653619 0
602 1 0.0172095 0.679124 0
603 1 0.0371991 0.664483 0
633 1 0.0408613 0.690232 0
605 1 0.0814997 0.660693 0
604 1 0.0611844 0.675394 0
606 1 0.0840317 0.686186 0
578 1 0.123949 0.656469 0
607 1 0.104379 0.671712 0
608 1 0.127072 0.681629 0
609 1 0.146189 0.666845 0
610 1 0.169241 0.676244 0
639 1 0.149728 0.692132 0
612 1 0.193335 0.685556 0
613 1 0.190578 0.660868 0
614 1 0.212701 0.671187 0
615 1 0.234648 0.656124 0
616 1 0.236557 0.680373 0
617 1 0.257775 0.664962 0
647 1 0.261663 0.68942 0
619 1 0.305004 0.658664 0
618 1 0.284314 0.675235 0
620 1 0.311854 0.682245 0
621 1 0.330378 0.663492 0
592 1 0.356259 0.671798 0
622 1 0.337444 0.689112 0
594 1 0.373754 0.654578 0
625 1 0.397796 0.660002 0
623 1 0.380134 0.678119 0
626 1 0.404126 0.685132 0
598 1 0.446823 0.673634 0
627 1 0.422578 0.666004 0
657 1 0.429788 0.691763 0
628 1 0.472026 0.679512 0
629 1 0.464133 0.655341 0
1501 1 0.489333 0.661448 0
630 1 0.495362 0.687428 0
632 1 0.0208365 0.703781 0
663 1 0.0238301 0.731093 0
634 1 0.0430028 0.715676 0
1560 1 0.000564511 0.718704 0
635 1 0.0635978 0.700729 0
636 1 0.0857561 0.711938 0
665 1 0.0649958 0.726868 0
666 1 0.0880422 0.73695 0
637 1 0.106997 0.696587 0
638 1 0.129351 0.706342 0
667 1 0.108588 0.721285 0
669 1 0.131841 0.732029 0
641 1 0.173238 0.701687 0
640 1 0.152057 0.717518 0
671 1 0.174498 0.728614 0
643 1 0.215471 0.695713 0
642 1 0.195394 0.711609 0
644 1 0.21848 0.72182 0
673 1 0.198298 0.736199 0
645 1 0.237761 0.70497 0
675 1 0.241192 0.730553 0
646 1 0.260087 0.713164 0
677 1 0.263444 0.738412 0
649 1 0.293154 0.699402 0
648 1 0.282596 0.721308 0
679 1 0.305437 0.727058 0
650 1 0.319903 0.706602 0
651 1 0.344592 0.714356 0
681 1 0.328821 0.732816 0
653 1 0.362117 0.695584 0
652 1 0.352481 0.739036 0
624 1 0.387635 0.70352 0
654 1 0.368908 0.720214 0
685 1 0.394806 0.727537 0
655 1 0.411743 0.709334 0
656 1 0.436379 0.71622 0
686 1 0.418625 0.732871 0
658 1 0.455143 0.697599 0
687 1 0.459638 0.72349 0
659 1 0.478699 0.705523 0
689 1 0.484367 0.730915 0
662 1 0.0258868 0.756596 0
691 1 0.004987 0.769332 0
661 1 0.0030466 0.74325 0
693 1 0.0275578 0.781373 0
664 1 0.0460315 0.741576 0
694 1 0.0486678 0.766724 0
695 1 0.0692544 0.752014 0
696 1 0.0716848 0.776636 0
697 1 0.0923336 0.761434 0
668 1 0.112397 0.747632 0
698 1 0.114392 0.771531 0
699 1 0.135412 0.757476 0
670 1 0.154708 0.742515 0
701 1 0.158559 0.767846 0
672 1 0.179404 0.753136 0
700 1 0.13724 0.781239 0
702 1 0.182676 0.777635 0
674 1 0.221266 0.747041 0
703 1 0.202175 0.762851 0
705 1 0.225157 0.771981 0
676 1 0.244631 0.754859 0
707 1 0.269277 0.762183 0
735 1 0.249986 0.779284 0
678 1 0.286867 0.745219 0
709 1 0.294292 0.769043 0
680 1 0.310925 0.751037 0
710 1 0.318317 0.774422 0
682 1 0.360886 0.763029 0
711 1 0.33597 0.757133 0
741 1 0.342029 0.781336 0
683 1 0.376831 0.744738 0
713 1 0.38448 0.771043 0
684 1 0.400311 0.752261 0
716 1 0.407713 0.777637 0
717 1 0.4427 0.741212 0
715 1 0.424567 0.758289 0
718 1 0.449379 0.766111 0
1591 1 0.49866 0.779235 0
690 1 0.491407 0.755432 0
688 1 0.466816 0.74887 0
719 1 0.473696 0.77287 0
692 1 0.00779926 0.797586 0
722 1 0.00582669 0.822919 0
723 1 0.0296954 0.812031 0
725 1 0.0506397 0.792412 0
726 1 0.0737785 0.800504 0
755 1 0.0718586 0.825351 0
727 1 0.0946166 0.787327 0
728 1 0.1174 0.796756 0
757 1 0.0977767 0.813599 0
729 1 0.141332 0.80454 0
730 1 0.162864 0.820926 0
731 1 0.16216 0.792435 0
704 1 0.205747 0.788992 0
732 1 0.184854 0.805439 0
734 1 0.226866 0.820567 0
733 1 0.230842 0.795531 0
736 1 0.25882 0.801856 0
706 1 0.276767 0.785603 0
737 1 0.282539 0.810142 0
708 1 0.300915 0.793197 0
738 1 0.307355 0.816158 0
739 1 0.32488 0.798544 0
742 1 0.348521 0.805578 0
740 1 0.331885 0.822934 0
712 1 0.36582 0.787976 0
714 1 0.389722 0.795333 0
743 1 0.372363 0.811706 0
745 1 0.395263 0.819993 0
746 1 0.414004 0.801059 0
747 1 0.43188 0.783494 0
748 1 0.438239 0.807946 0
777 1 0.419737 0.825902 0
749 1 0.455636 0.79096 0
720 1 0.480618 0.797182 0
750 1 0.462984 0.815364 0
1621 1 0.487381 0.821254 0
753 1 0.0238312 0.840296 0
783 1 0.0198111 0.865721 0
754 1 0.0424916 0.856863 0
752 1 0.00140921 0.848349 0
724 1 0.0476242 0.83119 0
785 1 0.0666902 0.849133 0
786 1 0.0855731 0.865849 0
756 1 0.0905518 0.842269 0
758 1 0.115166 0.833797 0
787 1 0.109544 0.859609 0
789 1 0.133502 0.852768 0
759 1 0.138942 0.828659 0
760 1 0.157153 0.844993 0
791 1 0.174392 0.862475 0
790 1 0.151078 0.870051 0
761 1 0.180199 0.838274 0
763 1 0.201975 0.826895 0
762 1 0.197987 0.85407 0
764 1 0.220503 0.844843 0
765 1 0.244212 0.83806 0
795 1 0.239783 0.862321 0
766 1 0.265484 0.854405 0
767 1 0.265444 0.826817 0
769 1 0.314495 0.841017 0
768 1 0.289558 0.835294 0
799 1 0.296123 0.857978 0
770 1 0.338026 0.848984 0
771 1 0.355231 0.82998 0
773 1 0.361484 0.855562 0
801 1 0.319539 0.866932 0
744 1 0.377962 0.837081 0
774 1 0.384807 0.86157 0
775 1 0.401688 0.843744 0
807 1 0.426396 0.84999 0
778 1 0.444088 0.832675 0
809 1 0.451132 0.856192 0
776 1 0.40913 0.867806 0
779 1 0.469597 0.838694 0
780 1 0.475758 0.863209 0
1651 1 0.493963 0.845748 0
812 1 0.014865 0.890629 0
814 1 0.0328771 0.906661 0
813 1 0.0389521 0.882141 0
784 1 0.0626577 0.874343 0
815 1 0.0570569 0.898935 0
816 1 0.0807421 0.891417 0
788 1 0.127711 0.877223 0
817 1 0.104282 0.883474 0
819 1 0.123759 0.902129 0
818 1 0.0989468 0.908163 0
821 1 0.169757 0.887023 0
820 1 0.146526 0.893748 0
851 1 0.165551 0.911349 0
793 1 0.216441 0.870853 0
792 1 0.192946 0.878385 0
823 1 0.211308 0.894727 0
822 1 0.188638 0.904266 0
794 1 0.234831 0.887468 0
796 1 0.25716 0.879073 0
827 1 0.254581 0.904934 0
825 1 0.231454 0.91193 0
797 1 0.280171 0.875338 0
798 1 0.281619 0.899492 0
800 1 0.302079 0.885226 0
829 1 0.305025 0.911312 0
831 1 0.325484 0.892516 0
772 1 0.343018 0.874066 0
802 1 0.349759 0.89807 0
803 1 0.367405 0.880241 0
804 1 0.374016 0.90411 0
805 1 0.392322 0.886183 0
835 1 0.397912 0.911912 0
806 1 0.417276 0.892999 0
808 1 0.43352 0.874162 0
839 1 0.440431 0.900121 0
1681 1 0.481577 0.887655 0
810 1 0.458241 0.881298 0
840 1 0.465552 0.905983 0
1652 1 0.499621 0.869932 0
843 1 0.0100547 0.915316 0
842 1 0.00368378 0.938885 0
844 1 0.028274 0.932227 0
875 1 0.0468393 0.948824 0
845 1 0.0519092 0.923163 0
846 1 0.0705239 0.941025 0
847 1 0.0754852 0.916431 0
848 1 0.0935029 0.93392 0
849 1 0.11756 0.926063 0
879 1 0.111898 0.951314 0
881 1 0.135436 0.943506 0
850 1 0.142035 0.918433 0
852 1 0.159902 0.93574 0
883 1 0.178469 0.952134 0
853 1 0.184353 0.928164 0
824 1 0.208833 0.920663 0
854 1 0.202765 0.9444 0
855 1 0.226428 0.937739 0
826 1 0.249065 0.929311 0
857 1 0.26866 0.945822 0
856 1 0.245004 0.954051 0
828 1 0.272969 0.922146 0
859 1 0.291694 0.936793 0
830 1 0.315557 0.934533 0
833 1 0.355888 0.921986 0
832 1 0.331264 0.916356 0
861 1 0.33891 0.94002 0
863 1 0.363193 0.947162 0
834 1 0.379899 0.929408 0
865 1 0.404836 0.935677 0
864 1 0.386554 0.953356 0
837 1 0.42354 0.91831 0
836 1 0.428613 0.94309 0
838 1 0.447808 0.924073 0
870 1 0.452931 0.948886 0
1711 1 0.488695 0.911995 0
869 1 0.471204 0.931076 0
1712 1 0.494722 0.937649 0
1741 1 0.477079 0.954796 0
873 1 0.0214853 0.956405 0
3 1 0.0347991 0.998411 0
872 1 0.0165649 0.981257 0
874 1 0.04073 0.972959 0
877 1 0.0883975 0.959046 0
5 1 0.0580321 0.990922 0
876 1 0.0644738 0.9656 0
7 1 0.0827906 0.983697 0
9 1 0.124177 0.992564 0
878 1 0.106585 0.975473 0
880 1 0.130396 0.968125 0
11 1 0.149069 0.984679 0
882 1 0.154106 0.959373 0
13 1 0.173012 0.976785 0
12 1 0.19119 0.993894 0
15 1 0.214588 0.985787 0
884 1 0.196923 0.969047 0
885 1 0.221081 0.961491 0
17 1 0.256691 0.994804 0
887 1 0.238681 0.978055 0
888 1 0.262909 0.969714 0
858 1 0.286669 0.961388 0
19 1 0.280534 0.987679 0
889 1 0.303121 0.979732 0
860 1 0.319053 0.958264 0
862 1 0.344683 0.964582 0
891 1 0.327581 0.982676 0
892 1 0.352061 0.990526 0
23 1 0.376119 0.997062 0
893 1 0.368434 0.972074 0
895 1 0.392905 0.979026 0
896 1 0.41731 0.984627 0
866 1 0.41112 0.960871 0
867 1 0.43571 0.966226 0
897 1 0.442101 0.991418 0
868 1 0.459369 0.97344 0
899 1 0.46543 0.998038 0
1771 1 0.483738 0.980939 0
931 1 0.521474 0.0359569 0
901 1 0.515195 0.011133 0
902 1 0.539109 0.0183319 0
933 1 0.545536 0.0429209 0
904 1 0.563002 0.0250968 0
906 1 0.580906 0.00777708 0
935 1 0.587183 0.0318226 0
908 1 0.604762 0.0139353 0
939 1 0.628451 0.0206739 0
937 1 0.610616 0.0381137 0
910 1 0.645911 0.00319488 0
941 1 0.652285 0.0277637 0
912 1 0.670886 0.00908128 0
942 1 0.676297 0.0344521 0
943 1 0.694076 0.0167512 0
945 1 0.717225 0.0224532 0
944 1 0.701445 0.0410814 0
914 1 0.741234 0.0242101 0
916 1 0.763952 0.0155291 0
947 1 0.757695 0.0412928 0
918 1 0.781018 0.0334032 0
919 1 0.805318 0.0260722 0
917 1 0.788179 0.00828802 0
1788 1 0.811697 0.00139326 0
920 1 0.830286 0.0179215 0
922 1 0.848559 0.0351693 0
921 1 0.853814 0.0101685 0
951 1 0.824663 0.0422262 0
923 1 0.871476 0.0268049 0
924 1 0.896314 0.0196179 0
1792 1 0.877543 0.0027487 0
954 1 0.890521 0.0437472 0
955 1 0.91433 0.036566 0
925 1 0.920481 0.0120519 0
926 1 0.939158 0.0300349 0
928 1 0.944968 0.00494987 0
930 1 0.987358 0.0132248 0
959 1 0.963426 0.022295 0
960 1 0.981334 0.0372636 0
932 1 0.527526 0.0597579 0
961 1 0.509965 0.0791835 0
60 1 0.503137 0.0540583 0
962 1 0.534371 0.0855592 0
963 1 0.551353 0.0682397 0
934 1 0.568694 0.0496914 0
965 1 0.575933 0.0738463 0
936 1 0.593374 0.056453 0
967 1 0.616612 0.0625526 0
966 1 0.599554 0.081289 0
938 1 0.634367 0.0457965 0
968 1 0.623504 0.087911 0
969 1 0.641115 0.0700822 0
940 1 0.658974 0.0522447 0
970 1 0.665536 0.0760282 0
971 1 0.683231 0.0587052 0
973 1 0.706801 0.0650095 0
972 1 0.691008 0.0831433 0
975 1 0.726622 0.0458134 0
974 1 0.729912 0.0713005 0
946 1 0.753019 0.0657162 0
977 1 0.770336 0.0826419 0
949 1 0.800692 0.0506958 0
948 1 0.776327 0.0576494 0
979 1 0.794532 0.074566 0
950 1 0.818888 0.0670848 0
980 1 0.837125 0.0834391 0
952 1 0.842743 0.059616 0
981 1 0.86126 0.0756164 0
953 1 0.86777 0.0515322 0
983 1 0.885856 0.0686243 0
984 1 0.903682 0.0865298 0
985 1 0.909519 0.0618589 0
956 1 0.933109 0.053713 0
986 1 0.927864 0.0780958 0
987 1 0.952023 0.0709426 0
957 1 0.957174 0.0462107 0
958 1 0.975491 0.0625596 0
989 1 0.994798 0.0785705 0
991 1 0.516134 0.103019 0
993 1 0.540936 0.109262 0
992 1 0.52414 0.12723 0
964 1 0.558438 0.0923543 0
994 1 0.565093 0.116821 0
995 1 0.5823 0.0987877 0
996 1 0.588973 0.123137 0
997 1 0.606331 0.105379 0
998 1 0.631169 0.111335 0
1027 1 0.612487 0.129176 0
999 1 0.648413 0.093444 0
1000 1 0.654997 0.118004 0
1001 1 0.672373 0.100075 0
1031 1 0.679042 0.124871 0
1002 1 0.696737 0.107777 0
1003 1 0.714721 0.0899558 0
1004 1 0.722039 0.112889 0
976 1 0.765228 0.106853 0
1005 1 0.74087 0.0948083 0
1035 1 0.745505 0.120671 0
978 1 0.813339 0.0909323 0
1007 1 0.789827 0.09873 0
1006 1 0.783951 0.123483 0
1008 1 0.808723 0.11537 0
1009 1 0.83303 0.107559 0
1010 1 0.851145 0.124162 0
1011 1 0.855837 0.100471 0
982 1 0.879258 0.0933584 0
1012 1 0.874371 0.11748 0
1013 1 0.898469 0.110619 0
1016 1 0.916898 0.126743 0
1017 1 0.945957 0.0954239 0
1015 1 0.922235 0.103091 0
1047 1 0.941767 0.118647 0
988 1 0.970364 0.0871422 0
1018 1 0.96551 0.111431 0
1019 1 0.988788 0.103441 0
1020 1 0.984235 0.128974 0
1022 1 0.53089 0.152544 0
1021 1 0.506109 0.145608 0
1051 1 0.513732 0.169982 0
1023 1 0.547748 0.133962 0
1024 1 0.554937 0.158592 0
1025 1 0.571436 0.140543 0
1055 1 0.579053 0.166137 0
1026 1 0.596111 0.147748 0
1028 1 0.620361 0.153645 0
1057 1 0.603712 0.171855 0
1029 1 0.637377 0.134896 0
1059 1 0.644481 0.159876 0
1030 1 0.661078 0.142048 0
1061 1 0.668188 0.167596 0
1032 1 0.686056 0.149623 0
1033 1 0.70347 0.131417 0
1063 1 0.710439 0.155988 0
1034 1 0.727578 0.137875 0
1036 1 0.752983 0.144176 0
1065 1 0.734343 0.162491 0
1066 1 0.758371 0.168481 0
1067 1 0.778385 0.151106 0
1037 1 0.803234 0.13918 0
1038 1 0.800606 0.162261 0
1039 1 0.827332 0.132619 0
1040 1 0.823291 0.157222 0
1041 1 0.845998 0.148519 0
1042 1 0.864005 0.167317 0
1014 1 0.893213 0.134886 0
1043 1 0.869409 0.14144 0
1044 1 0.88731 0.158765 0
1045 1 0.912097 0.15191 0
1046 1 0.935625 0.143841 0
1077 1 0.930678 0.167757 0
1048 1 0.953876 0.160932 0
1049 1 0.95966 0.135034 0
1050 1 0.978047 0.152966 0
151 1 0.996569 0.17051 0
1053 1 0.537561 0.177567 0
1052 1 0.52008 0.194992 0
1081 1 0.503277 0.213212 0
1083 1 0.544885 0.201849 0
1054 1 0.561972 0.183566 0
1056 1 0.586129 0.190237 0
1085 1 0.569337 0.208556 0
1058 1 0.627357 0.177574 0
1087 1 0.609797 0.196702 0
1089 1 0.633791 0.202515 0
1086 1 0.593203 0.215137 0
1060 1 0.651174 0.184926 0
1091 1 0.675183 0.191528 0
1090 1 0.658301 0.209086 0
1092 1 0.682127 0.216488 0
1062 1 0.692785 0.17433 0
1093 1 0.699692 0.199331 0
1064 1 0.716638 0.18129 0
1094 1 0.723657 0.204843 0
1095 1 0.740582 0.18687 0
1097 1 0.763964 0.193128 0
1096 1 0.747082 0.211138 0
1068 1 0.781317 0.176091 0
1098 1 0.789005 0.199168 0
1099 1 0.812685 0.207837 0
1069 1 0.815517 0.182639 0
1071 1 0.839713 0.175107 0
1070 1 0.834802 0.199526 0
1072 1 0.858711 0.192308 0
1101 1 0.853059 0.217302 0
1075 1 0.906252 0.176063 0
1073 1 0.882445 0.184138 0
1103 1 0.877176 0.20803 0
1074 1 0.900089 0.201398 0
1078 1 0.949022 0.185104 0
1076 1 0.924798 0.1927 0
1107 1 0.942774 0.209437 0
1079 1 0.97311 0.17696 0
1109 1 0.967185 0.201708 0
181 1 0.991284 0.194654 0
1082 1 0.528071 0.218705 0
1111 1 0.510602 0.237316 0
1113 1 0.534594 0.243887 0
1084 1 0.550991 0.226701 0
1114 1 0.558252 0.249746 0
1115 1 0.575501 0.23356 0
1116 1 0.582359 0.257806 0
1088 1 0.616879 0.221894 0
1117 1 0.599299 0.239511 0
1118 1 0.624276 0.245567 0
1119 1 0.64139 0.227869 0
1121 1 0.665026 0.234437 0
1120 1 0.647991 0.252774 0
1151 1 0.672486 0.258361 0
1122 1 0.688665 0.240368 0
1123 1 0.705753 0.223347 0
1124 1 0.712859 0.247929 0
1127 1 0.770859 0.217128 0
1125 1 0.729502 0.229494 0
1126 1 0.754357 0.236277 0
1155 1 0.737178 0.253622 0
1157 1 0.761678 0.260933 0
1129 1 0.79564 0.224374 0
1128 1 0.779202 0.24256 0
1159 1 0.802391 0.250029 0
1100 1 0.828896 0.225424 0
1130 1 0.826271 0.250465 0
1131 1 0.847928 0.241193 0
1132 1 0.86611 0.258935 0
1102 1 0.871769 0.233595 0
1104 1 0.895353 0.225966 0
1133 1 0.889221 0.250311 0
1105 1 0.918945 0.217846 0
1135 1 0.913419 0.242261 0
1136 1 0.932119 0.258541 0
1106 1 0.93784 0.233734 0
1110 1 0.985418 0.218621 0