ITEM: TIMESTEP
146000
ITEM: NUMBER OF ATOMS
1800
ITEM: BOX BOUNDS pp pp pp
1.3697256623697314e+00 1.6363027433762818e+02
1.3697256623697314e+00 1.6363027433762818e+02
0.0000000000000000e+00 5.5000000000000000e+00
ITEM: ATOMS id type xs ys zs
2 1 0.0107892 0.00633119 0
33 1 0.0291269 0.0236623 0
31 1 0.00597213 0.0305427 0
4 1 0.0530907 0.0149799 0
6 1 0.0763494 0.00692765 0
35 1 0.0715578 0.0313947 0
34 1 0.0480264 0.0393541 0
37 1 0.0961216 0.0232734 0
39 1 0.118864 0.0161965 0
38 1 0.114454 0.0412066 0
8 1 0.100983 -0.00139967 0
40 1 0.138059 0.0334787 0
10 1 0.142981 0.00887373 0
42 1 0.161764 0.025557 0
41 1 0.167322 0.00161266 0
73 1 0.179908 0.0426645 0
43 1 0.185534 0.0186208 0
14 1 0.210203 0.0108059 0
44 1 0.204971 0.035011 0
45 1 0.228926 0.0281135 0
16 1 0.252576 0.0210274 0
886 1 0.233679 0.00366776 0
46 1 0.269568 0.0384543 0
18 1 0.275956 0.0139711 0
49 1 0.294106 0.0324352 0
20 1 0.299341 0.00698226 0
51 1 0.317336 0.0257529 0
22 1 0.341629 0.03346 0
21 1 0.358931 0.0150554 0
890 1 0.334649 0.00811098 0
24 1 0.383756 0.0220288 0
53 1 0.36586 0.0396613 0
894 1 0.40043 0.0024465 0
25 1 0.407206 0.0268558 0
26 1 0.430783 0.0331958 0
27 1 0.424659 0.00879464 0
898 1 0.447718 0.0156503 0
29 1 0.472737 0.0239697 0
900 1 0.489727 0.00481651 0
28 1 0.455798 0.0416586 0
30 1 0.496482 0.029646 0
32 1 0.023793 0.0474733 0
62 1 0.0176359 0.0718898 0
63 1 0.0425903 0.0642028 0
65 1 0.0668437 0.0562787 0
66 1 0.0845803 0.0728283 0
64 1 0.0613086 0.0809084 0
36 1 0.09075 0.0478769 0
67 1 0.108089 0.0659937 0
69 1 0.132563 0.0579977 0
68 1 0.126696 0.0828239 0
71 1 0.155728 0.0505983 0
72 1 0.174159 0.0674673 0
70 1 0.15047 0.0761877 0
74 1 0.221459 0.0523699 0
103 1 0.19758 0.0596565 0
105 1 0.215314 0.0769307 0
101 1 0.191968 0.0838257 0
75 1 0.246186 0.0449678 0
77 1 0.263519 0.0630694 0
76 1 0.239238 0.069119 0
47 1 0.287273 0.0558832 0
48 1 0.30624 0.0709021 0
78 1 0.282217 0.0802293 0
50 1 0.323259 0.0503858 0
81 1 0.330458 0.074833 0
52 1 0.347654 0.0569377 0
82 1 0.354711 0.082278 0
55 1 0.38929 0.0455248 0
83 1 0.372283 0.0633597 0
54 1 0.397017 0.0694091 0
57 1 0.437221 0.0590829 0
85 1 0.421375 0.0778406 0
56 1 0.413955 0.0519943 0
87 1 0.445173 0.0846929 0
59 1 0.47971 0.0478808 0
58 1 0.461878 0.0658127 0
89 1 0.487112 0.0734052 0
93 1 0.0373016 0.0892382 0
990 1 0.0133583 0.0970046 0
92 1 0.0312875 0.114032 0
91 1 0.00683436 0.122317 0
94 1 0.0550161 0.105689 0
95 1 0.0795054 0.0989334 0
125 1 0.0744409 0.123027 0
96 1 0.0973521 0.115536 0
97 1 0.102525 0.0901364 0
98 1 0.120871 0.107736 0
99 1 0.144874 0.100717 0
100 1 0.168755 0.0934046 0
130 1 0.163259 0.117796 0
129 1 0.139285 0.124738 0
131 1 0.18685 0.109723 0
102 1 0.209674 0.101265 0
133 1 0.205096 0.127237 0
137 1 0.257347 0.0870829 0
104 1 0.227769 0.118512 0
106 1 0.233401 0.0947922 0
135 1 0.251389 0.11159 0
107 1 0.275584 0.10417 0
109 1 0.297791 0.113168 0
79 1 0.313821 0.094352 0
108 1 0.280435 0.13018 0
80 1 0.338025 0.0999247 0
110 1 0.322423 0.118578 0
141 1 0.346018 0.124069 0
111 1 0.362167 0.105712 0
113 1 0.379371 0.08735 0
84 1 0.404414 0.0948255 0
112 1 0.386021 0.112307 0
115 1 0.410536 0.119627 0
86 1 0.428442 0.102209 0
116 1 0.435031 0.125577 0
117 1 0.452513 0.109312 0
88 1 0.469041 0.090491 0
90 1 0.493673 0.0974362 0
119 1 0.475941 0.115812 0
122 1 0.0259518 0.138162 0
152 1 0.0210535 0.162693 0
121 1 0.00163799 0.146158 0
153 1 0.0441527 0.155117 0
123 1 0.0506207 0.130894 0
124 1 0.0685244 0.148217 0
155 1 0.0852701 0.16556 0
154 1 0.0622893 0.17219 0
127 1 0.115834 0.132509 0
126 1 0.0925487 0.140085 0
128 1 0.13319 0.149472 0
157 1 0.109747 0.157671 0
159 1 0.158339 0.142929 0
161 1 0.176565 0.160114 0
160 1 0.152747 0.166618 0
132 1 0.180761 0.134302 0
163 1 0.200285 0.153546 0
134 1 0.22345 0.145155 0
193 1 0.220362 0.1708 0
136 1 0.264844 0.148619 0
165 1 0.245411 0.135575 0
164 1 0.243959 0.160827 0
167 1 0.269151 0.172559 0
139 1 0.305545 0.136905 0
138 1 0.288659 0.154479 0
169 1 0.312396 0.160583 0
140 1 0.32943 0.142274 0
142 1 0.353565 0.147807 0
171 1 0.335848 0.166458 0
143 1 0.3702 0.130251 0
114 1 0.393317 0.137952 0
173 1 0.377111 0.156416 0
144 1 0.400656 0.163357 0
145 1 0.417664 0.144894 0
146 1 0.424718 0.168498 0
147 1 0.441357 0.150273 0
118 1 0.458263 0.132884 0
149 1 0.483327 0.140058 0
148 1 0.464593 0.157267 0
150 1 0.489236 0.164518 0
183 1 0.0394466 0.180634 0
182 1 0.0342475 0.204449 0
1080 1 0.01523 0.186979 0
211 1 0.0100136 0.210919 0
184 1 0.0586241 0.197523 0
185 1 0.0817011 0.190075 0
215 1 0.0768338 0.214402 0
158 1 0.128927 0.174209 0
186 1 0.100517 0.206475 0
156 1 0.10467 0.181692 0
187 1 0.1242 0.199225 0
189 1 0.147719 0.191256 0
191 1 0.171803 0.183419 0
190 1 0.168118 0.207202 0
188 1 0.143579 0.215969 0
162 1 0.195029 0.177011 0
221 1 0.19264 0.210148 0
192 1 0.211774 0.194807 0
195 1 0.234485 0.205371 0
166 1 0.248717 0.18553 0
196 1 0.258852 0.212037 0
168 1 0.293281 0.178903 0
197 1 0.275611 0.195828 0
199 1 0.300366 0.202351 0
170 1 0.317996 0.184638 0
172 1 0.359218 0.173543 0
201 1 0.341842 0.191215 0
200 1 0.323955 0.209895 0
202 1 0.347514 0.215345 0
203 1 0.365597 0.19883 0
174 1 0.383477 0.181255 0
204 1 0.390092 0.205102 0
175 1 0.407692 0.187743 0
177 1 0.448322 0.175187 0
205 1 0.41422 0.211021 0
176 1 0.431732 0.19388 0
178 1 0.455323 0.200702 0
179 1 0.472515 0.183096 0
180 1 0.496362 0.189897 0
209 1 0.479137 0.208422 0
212 1 0.027405 0.228707 0
241 1 0.0224825 0.253685 0
1140 1 0.00419332 0.236604 0
243 1 0.0460102 0.245228 0
213 1 0.0532271 0.221544 0
214 1 0.0707767 0.238832 0
245 1 0.0915867 0.257973 0
216 1 0.0953377 0.232466 0
217 1 0.118429 0.223679 0
247 1 0.11514 0.249387 0
218 1 0.137218 0.239184 0
219 1 0.159713 0.247567 0
220 1 0.177285 0.230502 0
222 1 0.182693 0.256101 0
194 1 0.215721 0.220372 0
223 1 0.19964 0.238199 0
224 1 0.222631 0.245195 0
225 1 0.241164 0.229259 0
227 1 0.264702 0.236473 0
226 1 0.246888 0.253207 0
198 1 0.282759 0.219895 0
228 1 0.288561 0.244293 0
229 1 0.306536 0.22735 0
230 1 0.311834 0.251906 0
231 1 0.331181 0.234412 0
232 1 0.354844 0.240168 0
261 1 0.336394 0.258245 0
233 1 0.372007 0.222884 0
234 1 0.378818 0.247099 0
235 1 0.396548 0.229099 0
265 1 0.402899 0.253745 0
207 1 0.437816 0.219043 0
206 1 0.420848 0.236315 0
237 1 0.444674 0.243371 0
236 1 0.427311 0.26033 0
208 1 0.46191 0.225671 0
210 1 0.48577 0.232989 0
239 1 0.468624 0.250504 0
240 1 0.492313 0.256553 0
242 1 0.0422752 0.269178 0
271 1 0.0362881 0.29219 0
1170 1 0.0170106 0.277303 0
1200 1 0.0135887 0.302259 0
244 1 0.0661587 0.262308 0
273 1 0.0604006 0.291451 0
275 1 0.0826156 0.280923 0
246 1 0.103541 0.294034 0
248 1 0.117575 0.273336 0
279 1 0.126372 0.301936 0
249 1 0.14031 0.263436 0
251 1 0.163596 0.271697 0
250 1 0.144864 0.286649 0
281 1 0.168611 0.295198 0
253 1 0.205835 0.264258 0
252 1 0.188114 0.280805 0
254 1 0.211303 0.288877 0
255 1 0.229498 0.271496 0
257 1 0.270253 0.261929 0
256 1 0.252899 0.280402 0
285 1 0.23484 0.296891 0
287 1 0.258299 0.30583 0
259 1 0.294199 0.268892 0
258 1 0.276125 0.288415 0
289 1 0.299966 0.2935 0
260 1 0.318546 0.276756 0
263 1 0.360399 0.264431 0
262 1 0.342128 0.283173 0
291 1 0.323903 0.301358 0
293 1 0.366695 0.288378 0
264 1 0.384111 0.271114 0
295 1 0.390473 0.295084 0
266 1 0.408514 0.277185 0
238 1 0.451277 0.268097 0
267 1 0.432125 0.284874 0
297 1 0.414662 0.301833 0
268 1 0.455628 0.291908 0
1141 1 0.498771 0.280814 0
269 1 0.474644 0.273699 0
270 1 0.479815 0.298599 0
301 1 0.0229715 0.326374 0
1230 1 0.0035455 0.341566 0
272 1 0.0439065 0.31436 0
303 1 0.0457339 0.339146 0
276 1 0.0815408 0.306196 0
274 1 0.0654742 0.324 0
305 1 0.0882093 0.332386 0
277 1 0.107422 0.317352 0
278 1 0.130506 0.327503 0
307 1 0.110457 0.342683 0
280 1 0.149479 0.311691 0
311 1 0.153233 0.33628 0
282 1 0.173384 0.32006 0
312 1 0.176882 0.344877 0
283 1 0.193786 0.306154 0
284 1 0.216219 0.313804 0
313 1 0.1973 0.330273 0
315 1 0.221381 0.338187 0
286 1 0.240041 0.321819 0
317 1 0.263484 0.330282 0
288 1 0.281735 0.312699 0
318 1 0.287824 0.337575 0
290 1 0.305486 0.318653 0
319 1 0.312159 0.342871 0
292 1 0.34846 0.307793 0
321 1 0.329801 0.324898 0
323 1 0.354941 0.331044 0
324 1 0.380689 0.337012 0
294 1 0.372782 0.313189 0
325 1 0.405012 0.344083 0
296 1 0.398335 0.319494 0
298 1 0.439168 0.309754 0
327 1 0.421856 0.326883 0
328 1 0.446354 0.333962 0
329 1 0.47022 0.341362 0
299 1 0.464275 0.31699 0
300 1 0.487543 0.322714 0
1201 1 0.494102 0.34646 0
302 1 0.0252828 0.352653 0
332 1 0.0272203 0.377185 0
331 1 0.00470648 0.366614 0
304 1 0.0691583 0.347994 0
333 1 0.0481526 0.363885 0
335 1 0.0716701 0.372512 0
334 1 0.0509542 0.387763 0
306 1 0.0914625 0.357999 0
337 1 0.0945484 0.382627 0
308 1 0.114138 0.368068 0
309 1 0.133515 0.352165 0
339 1 0.137088 0.377534 0
310 1 0.157107 0.361656 0
341 1 0.160562 0.386896 0
343 1 0.180191 0.370275 0
314 1 0.200737 0.355265 0
344 1 0.204372 0.380114 0
345 1 0.224942 0.363664 0
316 1 0.244903 0.347858 0
375 1 0.227762 0.388945 0
347 1 0.269233 0.355881 0
346 1 0.248603 0.373281 0
377 1 0.275118 0.380664 0
349 1 0.294599 0.360602 0
348 1 0.30154 0.383978 0
350 1 0.319396 0.366954 0
320 1 0.33692 0.348908 0
351 1 0.3451 0.372279 0
322 1 0.3636 0.354822 0
381 1 0.327658 0.391361 0
353 1 0.369127 0.379074 0
355 1 0.387531 0.362679 0
354 1 0.393322 0.386747 0
356 1 0.410737 0.368537 0
326 1 0.428777 0.351842 0
357 1 0.435564 0.3761 0
359 1 0.453055 0.359319 0
358 1 0.460418 0.383652 0
330 1 0.477383 0.365249 0
360 1 0.483748 0.390917 0
361 1 0.00698779 0.391872 0
363 1 0.030021 0.401921 0
362 1 0.0093457 0.416199 0
364 1 0.0329008 0.426441 0
336 1 0.0739955 0.397513 0
365 1 0.0533834 0.412461 0
366 1 0.0767574 0.421757 0
338 1 0.117728 0.392989 0
367 1 0.0974258 0.407094 0
369 1 0.119754 0.416941 0
368 1 0.099423 0.432027 0
340 1 0.141167 0.402948 0
370 1 0.14384 0.427468 0
371 1 0.164307 0.411902 0
342 1 0.183978 0.395937 0
372 1 0.186814 0.421031 0
373 1 0.207424 0.40501 0
403 1 0.209172 0.430248 0
374 1 0.231898 0.414006 0
376 1 0.250571 0.397905 0
405 1 0.254575 0.424252 0
378 1 0.273288 0.406395 0
379 1 0.309946 0.407282 0
409 1 0.292536 0.423311 0
410 1 0.316849 0.431962 0
352 1 0.352486 0.397374 0
382 1 0.358195 0.422601 0
380 1 0.334907 0.415258 0
383 1 0.375971 0.404256 0
385 1 0.399402 0.410794 0
384 1 0.381883 0.428471 0
387 1 0.417687 0.393564 0
386 1 0.423655 0.417644 0
388 1 0.441175 0.400328 0
419 1 0.447552 0.425752 0
389 1 0.465475 0.407928 0
1261 1 0.490552 0.41379 0
390 1 0.472043 0.431492 0
393 1 0.0127464 0.441216 0
423 1 0.015341 0.465631 0
394 1 0.0354776 0.451031 0
425 1 0.0394705 0.474904 0
395 1 0.0564304 0.437043 0
396 1 0.0598585 0.461005 0
397 1 0.0800801 0.446601 0
427 1 0.0824333 0.470721 0
399 1 0.123121 0.441647 0
398 1 0.103612 0.456614 0
429 1 0.12581 0.466323 0
401 1 0.166781 0.436541 0
400 1 0.1465 0.452026 0
431 1 0.169008 0.461497 0
430 1 0.148274 0.476628 0
402 1 0.189722 0.446545 0
433 1 0.21254 0.45575 0
432 1 0.192044 0.471041 0
404 1 0.231896 0.440216 0
406 1 0.254681 0.452529 0
435 1 0.235003 0.466692 0
407 1 0.274708 0.439349 0
437 1 0.278692 0.463219 0
408 1 0.298219 0.448059 0
439 1 0.301985 0.47358 0
441 1 0.321243 0.456596 0
411 1 0.340431 0.438943 0
412 1 0.345533 0.463336 0
413 1 0.364011 0.447312 0
415 1 0.405757 0.435936 0
414 1 0.387712 0.453547 0
443 1 0.369849 0.471067 0
445 1 0.394133 0.478363 0
416 1 0.411282 0.460971 0
417 1 0.430062 0.442933 0
447 1 0.437011 0.466875 0
418 1 0.455522 0.449431 0
1291 1 0.495901 0.437589 0
420 1 0.479372 0.456208 0
449 1 0.461519 0.473414 0
454 1 0.021735 0.515155 0
424 1 0.0190576 0.490682 0
455 1 0.0423198 0.500042 0
426 1 0.0620232 0.485772 0
456 1 0.0647932 0.510903 0
457 1 0.0850818 0.496103 0
487 1 0.0888458 0.520902 0
428 1 0.105203 0.480824 0
459 1 0.1282 0.490645 0
458 1 0.108511 0.505716 0
489 1 0.131088 0.516509 0
461 1 0.171864 0.486546 0
460 1 0.151414 0.501308 0
462 1 0.173611 0.511178 0
434 1 0.214693 0.48185 0
463 1 0.194111 0.49682 0
464 1 0.216332 0.507224 0
493 1 0.19601 0.521528 0
436 1 0.258837 0.477535 0
465 1 0.237496 0.491571 0
467 1 0.259914 0.501833 0
466 1 0.238865 0.516648 0
438 1 0.282086 0.488246 0
469 1 0.308483 0.498292 0
468 1 0.285945 0.51204 0
440 1 0.327991 0.48055 0
442 1 0.351892 0.487174 0
471 1 0.335115 0.505629 0
473 1 0.359361 0.513989 0
444 1 0.376158 0.496273 0
475 1 0.40124 0.502936 0
474 1 0.383535 0.520631 0
446 1 0.41879 0.484529 0
477 1 0.425824 0.50916 0
448 1 0.443344 0.490831 0
478 1 0.450032 0.515774 0
450 1 0.485863 0.481262 0
479 1 0.467742 0.49769 0
1381 1 0.491632 0.505357 0
483 1 0.0238379 0.540389 0
482 1 0.00350374 0.555617 0
485 1 0.0446944 0.525508 0
452 1 0.0014617 0.530692 0
513 1 0.0269494 0.565503 0
484 1 0.0470473 0.549948 0
486 1 0.0678952 0.534773 0
515 1 0.069955 0.559005 0
517 1 0.0916973 0.545326 0
488 1 0.110939 0.530433 0
519 1 0.113701 0.556174 0
490 1 0.133564 0.541604 0
491 1 0.153862 0.526069 0
521 1 0.155806 0.551677 0
492 1 0.175673 0.537415 0
523 1 0.179012 0.562714 0
494 1 0.198375 0.547143 0
495 1 0.217681 0.532248 0
525 1 0.220772 0.556829 0
496 1 0.240144 0.541594 0
497 1 0.260931 0.525967 0
527 1 0.263096 0.551249 0
470 1 0.316339 0.522709 0
499 1 0.303952 0.544566 0
498 1 0.282231 0.53594 0
529 1 0.284748 0.560168 0
472 1 0.340908 0.530461 0
501 1 0.327107 0.550668 0
502 1 0.349829 0.556353 0
503 1 0.367421 0.538799 0
505 1 0.390872 0.545888 0
476 1 0.407605 0.527896 0
504 1 0.373598 0.563873 0
506 1 0.41538 0.551948 0
507 1 0.432101 0.533594 0
508 1 0.43957 0.557758 0
480 1 0.474157 0.522459 0
509 1 0.457615 0.540914 0
510 1 0.480759 0.547618 0
1382 1 0.498927 0.529518 0
539 1 0.464008 0.566354 0
512 1 0.0296815 0.589837 0
511 1 0.00680321 0.580223 0
541 1 0.008861 0.604375 0
514 1 0.050764 0.575483 0
545 1 0.0731768 0.5849 0
543 1 0.0526797 0.600109 0
520 1 0.136477 0.566987 0
516 1 0.0935894 0.570149 0
518 1 0.116119 0.581363 0
547 1 0.0954552 0.596208 0
548 1 0.118201 0.606622 0
549 1 0.138478 0.592016 0
522 1 0.159339 0.577333 0
551 1 0.162305 0.602748 0
553 1 0.181111 0.587571 0
524 1 0.201364 0.572787 0
554 1 0.204745 0.598391 0
555 1 0.223796 0.582512 0
556 1 0.228358 0.60714 0
526 1 0.243312 0.56681 0
557 1 0.247835 0.591784 0
528 1 0.266404 0.57628 0
558 1 0.271039 0.601873 0
500 1 0.30859 0.569116 0
559 1 0.289395 0.584804 0
530 1 0.313245 0.592993 0
531 1 0.33276 0.574642 0
532 1 0.337261 0.599599 0
533 1 0.355954 0.581554 0
563 1 0.361518 0.605655 0
534 1 0.379287 0.588017 0
535 1 0.398213 0.569246 0
536 1 0.403451 0.594737 0
537 1 0.421842 0.577235 0
567 1 0.427955 0.601417 0
538 1 0.446472 0.582185 0
568 1 0.45227 0.608019 0
540 1 0.487667 0.571654 0
569 1 0.470571 0.58959 0
1441 1 0.494876 0.59607 0
542 1 0.0318936 0.614495 0
571 1 0.0115056 0.629878 0
573 1 0.0353166 0.640139 0
546 1 0.0762893 0.611417 0
544 1 0.0555599 0.624977 0
575 1 0.0781529 0.635993 0
574 1 0.0582586 0.650033 0
577 1 0.0987222 0.62162 0
579 1 0.120451 0.631235 0
576 1 0.100555 0.645632 0
550 1 0.141877 0.616757 0
581 1 0.165469 0.626884 0
580 1 0.144806 0.640776 0
611 1 0.168065 0.650594 0
552 1 0.185625 0.612805 0
582 1 0.18926 0.636779 0
583 1 0.209367 0.623137 0
584 1 0.213001 0.647646 0
585 1 0.233145 0.63232 0
586 1 0.25693 0.642749 0
587 1 0.251662 0.617282 0
560 1 0.294724 0.609555 0
589 1 0.275452 0.625917 0
590 1 0.299711 0.635365 0
588 1 0.281911 0.65273 0
561 1 0.318426 0.616796 0
562 1 0.342927 0.623661 0
591 1 0.324597 0.641693 0
593 1 0.348886 0.646719 0
565 1 0.385056 0.611804 0
564 1 0.367056 0.62967 0
595 1 0.391494 0.635173 0
566 1 0.409853 0.618565 0
596 1 0.417395 0.643451 0
597 1 0.434408 0.625525 0
599 1 0.44061 0.650336 0
570 1 0.476924 0.614503 0
600 1 0.458869 0.631697 0
1471 1 0.482514 0.63924 0
572 1 0.0152514 0.655131 0
602 1 0.0180254 0.680491 0
603 1 0.0381425 0.665568 0
633 1 0.0405442 0.689834 0
605 1 0.0812493 0.660745 0
604 1 0.0611819 0.674887 0
606 1 0.0834476 0.685991 0
578 1 0.124229 0.655793 0
607 1 0.104221 0.670762 0
608 1 0.127302 0.681391 0
609 1 0.147017 0.665775 0
610 1 0.170157 0.675657 0
639 1 0.150735 0.691487 0
612 1 0.192685 0.686066 0
613 1 0.19111 0.661333 0
614 1 0.214955 0.672979 0
615 1 0.236737 0.658229 0
616 1 0.23889 0.682611 0
617 1 0.261721 0.667646 0
647 1 0.266668 0.691234 0
619 1 0.306741 0.659079 0
618 1 0.288438 0.678748 0
620 1 0.314088 0.683064 0
621 1 0.331846 0.665663 0
592 1 0.356375 0.670779 0
622 1 0.338314 0.689517 0
594 1 0.374544 0.654116 0
625 1 0.398416 0.658801 0
623 1 0.381685 0.678001 0
626 1 0.405069 0.684122 0
598 1 0.446678 0.673986 0
627 1 0.42288 0.666838 0
657 1 0.42844 0.69104 0
628 1 0.471953 0.681056 0
629 1 0.465505 0.657184 0
1501 1 0.490284 0.663345 0
630 1 0.496331 0.687628 0
632 1 0.0201299 0.704983 0
663 1 0.0225962 0.731193 0
634 1 0.0421744 0.715899 0
1560 1 -9.07203e-05 0.720855 0
635 1 0.0627817 0.700578 0
636 1 0.085974 0.711402 0
665 1 0.0655894 0.726361 0
666 1 0.0888103 0.737452 0
637 1 0.10617 0.696645 0
638 1 0.129834 0.706296 0
667 1 0.109204 0.721993 0
669 1 0.132051 0.731688 0
641 1 0.17281 0.70227 0
640 1 0.152871 0.717161 0
671 1 0.175014 0.72781 0
643 1 0.213695 0.697572 0
642 1 0.194624 0.712544 0
644 1 0.217041 0.722046 0
673 1 0.197889 0.738209 0
645 1 0.235863 0.706454 0
675 1 0.239766 0.732098 0
646 1 0.257598 0.71482 0
677 1 0.262354 0.739305 0
649 1 0.297248 0.702115 0
648 1 0.280381 0.721152 0
679 1 0.304041 0.725808 0
650 1 0.321745 0.707375 0
651 1 0.345543 0.713571 0
681 1 0.327611 0.732164 0
653 1 0.363361 0.695448 0
652 1 0.352759 0.738642 0
624 1 0.387669 0.702006 0
654 1 0.370324 0.72007 0
685 1 0.395456 0.726407 0
655 1 0.411344 0.708371 0
656 1 0.435579 0.714886 0
686 1 0.419195 0.73276 0
658 1 0.45416 0.698089 0
687 1 0.460085 0.722393 0
659 1 0.478872 0.704645 0
689 1 0.485317 0.72896 0
662 1 0.0246742 0.755975 0
691 1 0.00471853 0.769581 0
661 1 0.00225218 0.744844 0
693 1 0.0275721 0.78179 0
664 1 0.044865 0.74098 0
694 1 0.0471619 0.766537 0
695 1 0.0686629 0.750662 0
696 1 0.0693571 0.776524 0
697 1 0.0906016 0.76174 0
668 1 0.111586 0.74757 0
698 1 0.112233 0.772396 0
699 1 0.133818 0.757377 0
670 1 0.154906 0.742696 0
701 1 0.158786 0.768052 0
672 1 0.178716 0.752579 0
700 1 0.137161 0.781448 0
702 1 0.181697 0.777983 0
674 1 0.220391 0.747471 0
703 1 0.201386 0.763643 0
705 1 0.224748 0.772035 0
676 1 0.244287 0.756779 0
707 1 0.267965 0.763383 0
735 1 0.248639 0.781941 0
678 1 0.285551 0.744782 0
709 1 0.293417 0.768048 0
680 1 0.310359 0.749639 0
710 1 0.317071 0.773922 0
682 1 0.359783 0.762639 0
711 1 0.335161 0.75673 0
741 1 0.341794 0.779847 0
683 1 0.37709 0.744887 0
713 1 0.384482 0.769918 0
684 1 0.400372 0.752298 0
716 1 0.408916 0.775705 0
717 1 0.443584 0.740066 0
715 1 0.425511 0.757178 0
718 1 0.450196 0.763949 0
1591 1 0.498948 0.778097 0
690 1 0.491632 0.75364 0
688 1 0.468015 0.746886 0
719 1 0.474371 0.770338 0
692 1 0.00730462 0.796192 0
722 1 0.00630786 0.82149 0
723 1 0.0278481 0.808823 0
725 1 0.0494875 0.794614 0
726 1 0.0732383 0.802262 0
755 1 0.0723783 0.825693 0
727 1 0.0922042 0.786485 0
728 1 0.116601 0.797204 0
757 1 0.096352 0.81449 0
729 1 0.139859 0.805347 0
730 1 0.161289 0.817545 0
731 1 0.16091 0.792978 0
704 1 0.203834 0.788312 0
732 1 0.184006 0.80609 0
734 1 0.227354 0.819776 0
763 1 0.203374 0.826128 0
733 1 0.227569 0.795827 0
736 1 0.254282 0.805636 0
706 1 0.273155 0.786913 0
737 1 0.28095 0.81003 0
708 1 0.299241 0.79269 0
738 1 0.306375 0.8164 0
739 1 0.323094 0.797937 0
742 1 0.349563 0.804608 0
740 1 0.331939 0.821789 0
712 1 0.366573 0.786849 0
714 1 0.39109 0.793513 0
743 1 0.373459 0.812687 0
745 1 0.397126 0.817633 0
746 1 0.415479 0.799703 0
747 1 0.432699 0.781527 0
748 1 0.438405 0.806402 0
749 1 0.455699 0.789156 0
720 1 0.479727 0.796337 0
750 1 0.462487 0.814497 0
1621 1 0.485866 0.820873 0
753 1 0.0237235 0.838584 0
783 1 0.0191447 0.86422 0
754 1 0.042502 0.856539 0
752 1 0.00131203 0.847174 0
724 1 0.0473018 0.828701 0
785 1 0.067386 0.849545 0
786 1 0.0851618 0.866358 0
756 1 0.091272 0.84221 0
758 1 0.114118 0.833992 0
787 1 0.109339 0.858925 0
789 1 0.132644 0.851954 0
759 1 0.137874 0.828175 0
760 1 0.156885 0.84244 0
791 1 0.174495 0.859913 0
761 1 0.179791 0.834277 0
762 1 0.197662 0.85144 0
764 1 0.220356 0.844507 0
765 1 0.243117 0.83784 0
795 1 0.239335 0.862676 0
766 1 0.263788 0.854141 0
767 1 0.264772 0.828131 0
769 1 0.314822 0.839614 0
768 1 0.288605 0.834111 0
799 1 0.297485 0.856821 0
770 1 0.338455 0.845647 0
771 1 0.356347 0.829595 0
773 1 0.361415 0.854038 0
801 1 0.321712 0.864292 0
744 1 0.380079 0.836239 0
774 1 0.385485 0.86016 0
775 1 0.403067 0.842601 0
777 1 0.421478 0.824427 0
807 1 0.427767 0.849602 0
778 1 0.445557 0.831942 0
809 1 0.450994 0.857284 0
776 1 0.410005 0.867903 0
779 1 0.469672 0.840188 0
780 1 0.475576 0.865462 0
1651 1 0.492971 0.846602 0
812 1 0.0136289 0.889403 0
814 1 0.0315882 0.906634 0
813 1 0.0374213 0.881485 0
784 1 0.0612748 0.873138 0
815 1 0.0552936 0.898804 0
816 1 0.0792611 0.891616 0
788 1 0.127609 0.876374 0
817 1 0.103724 0.883617 0
819 1 0.121913 0.900502 0
818 1 0.0973394 0.90907 0
790 1 0.151925 0.867974 0
821 1 0.169263 0.885385 0
820 1 0.145829 0.893209 0
851 1 0.164036 0.910217 0
793 1 0.215225 0.868357 0
792 1 0.192427 0.876875 0
823 1 0.21064 0.8935 0
822 1 0.188052 0.901861 0
794 1 0.233895 0.887199 0
796 1 0.257016 0.879198 0
827 1 0.253777 0.904653 0
825 1 0.229319 0.912433 0
797 1 0.279864 0.873265 0
798 1 0.279762 0.898327 0
800 1 0.302826 0.881878 0
829 1 0.307016 0.906952 0
831 1 0.325211 0.890117 0
772 1 0.344165 0.872377 0
802 1 0.349177 0.896566 0
803 1 0.36721 0.879446 0
804 1 0.372753 0.903695 0
805 1 0.390898 0.884913 0
835 1 0.397137 0.909952 0
806 1 0.415329 0.892519 0
808 1 0.433297 0.875294 0
839 1 0.438702 0.899253 0
1681 1 0.481801 0.889043 0
810 1 0.457924 0.882453 0
840 1 0.463854 0.905993 0
1652 1 0.499222 0.870337 0
1711 1 0.488138 0.912427 0
843 1 0.00814729 0.914388 0
842 1 0.00235628 0.939402 0
844 1 0.0266652 0.932184 0
873 1 0.0206867 0.957138 0
875 1 0.0442287 0.949727 0
845 1 0.0503683 0.923438 0
846 1 0.0680744 0.940848 0
847 1 0.0742568 0.915456 0
848 1 0.0917728 0.932676 0
849 1 0.116057 0.925126 0
879 1 0.11067 0.949065 0
881 1 0.134418 0.942804 0
850 1 0.139667 0.917451 0
852 1 0.158065 0.935355 0
883 1 0.177103 0.95253 0
853 1 0.181888 0.928137 0
824 1 0.205304 0.919354 0
854 1 0.201478 0.945213 0
855 1 0.225017 0.936637 0
826 1 0.249002 0.92905 0
857 1 0.268035 0.946268 0
856 1 0.244261 0.954742 0
828 1 0.272725 0.921701 0
859 1 0.29119 0.938806 0
830 1 0.31504 0.932708 0
833 1 0.355077 0.921369 0
832 1 0.331657 0.914497 0
861 1 0.338617 0.940476 0
863 1 0.362952 0.946768 0
834 1 0.379895 0.928201 0
865 1 0.404059 0.934701 0
864 1 0.387285 0.952909 0
837 1 0.421487 0.916782 0
836 1 0.42792 0.941338 0
838 1 0.445511 0.923838 0
870 1 0.452419 0.948313 0
869 1 0.470229 0.9304 0
1712 1 0.494395 0.937617 0
1741 1 0.476479 0.954527 0
3 1 0.0344831 0.998457 0
872 1 0.0161008 0.981845 0
874 1 0.03991 0.973199 0
877 1 0.086988 0.956826 0
5 1 0.0571651 0.990512 0
876 1 0.0635824 0.965908 0
7 1 0.0824874 0.98162 0
9 1 0.124924 0.992409 0
878 1 0.106334 0.974293 0
880 1 0.129831 0.967123 0
11 1 0.148496 0.984831 0
882 1 0.153268 0.960003 0
13 1 0.171754 0.977576 0
12 1 0.191636 0.993457 0
15 1 0.215313 0.986395 0
884 1 0.1957 0.969197 0
885 1 0.219851 0.96242 0
17 1 0.257472 0.996676 0
887 1 0.239879 0.979315 0
888 1 0.263723 0.970463 0
858 1 0.287192 0.963844 0
19 1 0.281227 0.988636 0
889 1 0.305266 0.98025 0
860 1 0.319771 0.958687 0
862 1 0.345711 0.965178 0
891 1 0.328722 0.982991 0
892 1 0.352413 0.990385 0
23 1 0.376472 0.996417 0
893 1 0.36979 0.970953 0
895 1 0.393623 0.977985 0
896 1 0.41707 0.984036 0
866 1 0.411406 0.959138 0
867 1 0.435925 0.966674 0
897 1 0.442271 0.99099 0
1771 1 0.483189 0.981006 0
899 1 0.465916 0.999184 0
868 1 0.459559 0.973717 0
931 1 0.521145 0.0357427 0
901 1 0.513933 0.0109042 0
902 1 0.538072 0.0185611 0
933 1 0.545246 0.0433823 0
904 1 0.562447 0.0256375 0
906 1 0.57796 0.0070257 0
935 1 0.585436 0.0324465 0
905 1 0.555027 0.000124452 0
908 1 0.60286 0.0141571 0
939 1 0.626753 0.0205201 0
937 1 0.610516 0.0394534 0
910 1 0.643201 0.00162549 0
941 1 0.651018 0.026605 0
912 1 0.669021 0.00892662 0
942 1 0.67539 0.0339564 0
943 1 0.692598 0.0156941 0
945 1 0.717165 0.0206933 0
944 1 0.701395 0.0398669 0
914 1 0.740411 0.0246988 0
916 1 0.764165 0.0150802 0
947 1 0.759205 0.040034 0
918 1 0.782891 0.0321092 0
919 1 0.806852 0.0252508 0
917 1 0.788258 0.00815577 0
1788 1 0.812175 0.000886909 0
920 1 0.830105 0.0188221 0
922 1 0.848998 0.0361648 0
921 1 0.853772 0.0122133 0
951 1 0.825217 0.04455 0
923 1 0.872657 0.028789 0
924 1 0.896544 0.0202242 0
1792 1 0.876427 0.00268372 0
955 1 0.914871 0.0365475 0
925 1 0.920084 0.0121943 0
926 1 0.939707 0.0294429 0
928 1 0.944172 0.00436266 0
930 1 0.987131 0.0137513 0
959 1 0.96356 0.0212271 0
960 1 0.981639 0.0377251 0
932 1 0.527948 0.060215 0
961 1 0.510982 0.0795455 0
60 1 0.50335 0.0538872 0
962 1 0.534746 0.086409 0
963 1 0.551595 0.0685898 0
934 1 0.569252 0.0515924 0
965 1 0.576844 0.0758398 0
936 1 0.592968 0.0566555 0
967 1 0.617037 0.0630795 0
966 1 0.60094 0.081218 0
938 1 0.634837 0.0451588 0
969 1 0.642474 0.0698222 0
940 1 0.659028 0.0517711 0
970 1 0.666298 0.0757455 0
971 1 0.683712 0.057655 0
973 1 0.707559 0.064456 0
972 1 0.690542 0.0829614 0
975 1 0.726848 0.0458007 0
974 1 0.731261 0.0705086 0
946 1 0.75374 0.0630815 0
977 1 0.7715 0.080261 0
949 1 0.801452 0.0496292 0
948 1 0.777597 0.0562057 0
979 1 0.795283 0.0740954 0
950 1 0.819584 0.0679095 0
980 1 0.836602 0.0851598 0
952 1 0.843756 0.0604266 0
981 1 0.86115 0.0772222 0
954 1 0.891036 0.0455836 0
953 1 0.867757 0.053632 0
983 1 0.885895 0.0698497 0
984 1 0.904561 0.0857921 0
985 1 0.909596 0.0610147 0
956 1 0.933404 0.0540676 0
986 1 0.927751 0.0782033 0
987 1 0.952421 0.0713561 0
957 1 0.958117 0.0463076 0
958 1 0.976569 0.0625153 0
989 1 0.993905 0.0801998 0
988 1 0.971158 0.0873952 0
61 1 1.00021 0.0541027 0
991 1 0.517053 0.104309 0
993 1 0.541071 0.110828 0
992 1 0.524342 0.129095 0
120 1 0.500299 0.122637 0
964 1 0.559362 0.0934587 0
994 1 0.566186 0.11722 0
995 1 0.584181 0.0999392 0
996 1 0.589822 0.123635 0
968 1 0.625003 0.0879271 0
997 1 0.607681 0.105809 0
998 1 0.631732 0.112247 0
999 1 0.649466 0.0939557 0
1000 1 0.65605 0.118567 0
1001 1 0.673198 0.100302 0
1031 1 0.68029 0.124612 0
1002 1 0.697343 0.107376 0
1003 1 0.71462 0.088727 0
1004 1 0.721106 0.112891 0
976 1 0.764685 0.103278 0
1005 1 0.739679 0.0945392 0
1035 1 0.746057 0.119813 0
978 1 0.812918 0.0917404 0
1007 1 0.788312 0.0992519 0
1006 1 0.779818 0.125507 0
1008 1 0.806379 0.116293 0
1009 1 0.83132 0.109749 0
1010 1 0.850513 0.125527 0
1011 1 0.855371 0.101373 0
982 1 0.880065 0.0939701 0
1012 1 0.874474 0.118428 0
1013 1 0.898773 0.109962 0
1016 1 0.916459 0.126588 0
1017 1 0.947547 0.0957199 0
1015 1 0.923156 0.102756 0
1047 1 0.941432 0.119372 0
1018 1 0.965331 0.112039 0
1019 1 0.989794 0.105013 0
1020 1 0.983221 0.129087 0
1022 1 0.530698 0.154232 0
1021 1 0.507286 0.146885 0
1051 1 0.512876 0.171409 0
1023 1 0.548138 0.135442 0
1024 1 0.554955 0.159396 0
1025 1 0.572653 0.14148 0
1055 1 0.579984 0.167248 0
1027 1 0.614529 0.13019 0
1026 1 0.597338 0.148196 0
1028 1 0.62077 0.154664 0
1057 1 0.603272 0.173361 0
1029 1 0.639033 0.135718 0
1059 1 0.644992 0.161497 0
1030 1 0.661891 0.142733 0
1061 1 0.669321 0.168 0
1032 1 0.686683 0.148961 0
1033 1 0.704405 0.131035 0
1063 1 0.71014 0.155592 0
1062 1 0.693471 0.173729 0
1034 1 0.728691 0.13747 0
1036 1 0.753138 0.143999 0
1065 1 0.734339 0.162027 0
1066 1 0.757794 0.169338 0
1067 1 0.777464 0.153294 0
1037 1 0.801346 0.140022 0
1038 1 0.799694 0.16397 0
1039 1 0.825968 0.133788 0
1040 1 0.822939 0.157126 0
1041 1 0.846022 0.150037 0
1042 1 0.864869 0.167199 0
1014 1 0.893559 0.135199 0
1043 1 0.869748 0.142981 0
1044 1 0.888141 0.159269 0
1045 1 0.912791 0.15228 0
1046 1 0.93574 0.143766 0
1077 1 0.930747 0.169565 0
1048 1 0.954074 0.161434 0
1049 1 0.960258 0.13649 0
1050 1 0.978191 0.15411 0
151 1 0.996415 0.170462 0
1053 1 0.537186 0.178089 0
1052 1 0.520702 0.196243 0
1081 1 0.503311 0.214145 0
1083 1 0.544116 0.202829 0
1054 1 0.561631 0.184751 0
1056 1 0.586879 0.191474 0
1085 1 0.568917 0.208811 0
1058 1 0.627536 0.17936 0
1087 1 0.610542 0.198396 0
1089 1 0.634974 0.204331 0
1086 1 0.593112 0.215686 0
1060 1 0.652386 0.186387 0
1091 1 0.675981 0.191746 0
1090 1 0.659222 0.210273 0
1092 1 0.682434 0.216808 0
1093 1 0.699298 0.19852 0
1064 1 0.717012 0.181096 0
1094 1 0.724136 0.204521 0
1095 1 0.74035 0.186774 0
1097 1 0.763893 0.194762 0
1096 1 0.747463 0.212995 0
1068 1 0.780927 0.178103 0
1098 1 0.788328 0.20099 0
1099 1 0.812076 0.205936 0
1069 1 0.817184 0.181121 0
1071 1 0.841075 0.175767 0
1070 1 0.836432 0.200219 0
1072 1 0.860551 0.192319 0
1101 1 0.85406 0.217123 0
1075 1 0.907325 0.176618 0
1073 1 0.883275 0.184344 0
1103 1 0.87859 0.209102 0
1074 1 0.901288 0.200925 0
1078 1 0.949004 0.185874 0
1076 1 0.92521 0.194409 0
1107 1 0.943675 0.210539 0
1079 1 0.971743 0.178373 0
1109 1 0.968069 0.202832 0
181 1 0.991302 0.194933 0
1082 1 0.526977 0.221059 0
1111 1 0.51012 0.239229 0
1113 1 0.534652 0.244822 0
1084 1 0.551132 0.22665 0
1114 1 0.558662 0.251883 0
1115 1 0.5751 0.232948 0
1116 1 0.58256 0.257644 0
1088 1 0.616738 0.222203 0
1117 1 0.599197 0.238876 0
1118 1 0.623553 0.246002 0
1119 1 0.64143 0.22858 0
1121 1 0.665615 0.234938 0
1120 1 0.647244 0.252174 0
1151 1 0.673073 0.258129 0
1122 1 0.690822 0.240763 0
1123 1 0.706811 0.22221 0
1124 1 0.714401 0.248832 0
1127 1 0.771302 0.219123 0
1125 1 0.730989 0.231095 0
1126 1 0.754605 0.236918 0
1155 1 0.738405 0.254611 0
1157 1 0.762681 0.261499 0
1129 1 0.796199 0.224731 0
1128 1 0.778573 0.243544 0
1159 1 0.802356 0.248858 0
1100 1 0.829911 0.223768 0
1130 1 0.826383 0.248084 0
1131 1 0.849157 0.241791 0
1132 1 0.866639 0.259601 0
1102 1 0.872185 0.233892 0
1104 1 0.896538 0.226198 0
1133 1 0.890218 0.251036 0
1105 1 0.919734 0.218753 0
1135 1 0.913958 0.243053 0
1136 1 0.931354 0.26065 0
1106 1 0.937888 0.235307 0
1110 1 0.986217 0.220263 0