ITEM: TIMESTEP
152000
ITEM: NUMBER OF ATOMS
1800
ITEM: BOX BOUNDS pp pp pp
1.2974957846376753e+00 1.6370250421536034e+02
1.2974957846376753e+00 1.6370250421536034e+02
0.0000000000000000e+00 5.5000000000000000e+00
ITEM: ATOMS id type xs ys zs
2 1 0.00916716 0.00536721 0
33 1 0.0273913 0.0229732 0
31 1 0.00449564 0.0305953 0
4 1 0.0511512 0.0146828 0
6 1 0.0752155 0.00702547 0
35 1 0.0706537 0.0323433 0
34 1 0.0470702 0.0402382 0
37 1 0.0943166 0.0247033 0
39 1 0.117042 0.0162829 0
38 1 0.11447 0.0413674 0
40 1 0.136936 0.0346688 0
10 1 0.141208 0.00816468 0
42 1 0.159844 0.0249234 0
73 1 0.179653 0.0416954 0
43 1 0.185064 0.017334 0
14 1 0.208915 0.00869423 0
44 1 0.203773 0.0342105 0
45 1 0.227982 0.0252395 0
16 1 0.251484 0.017265 0
886 1 0.232922 0.00101482 0
46 1 0.269565 0.0341029 0
75 1 0.245718 0.0421359 0
18 1 0.277027 0.00908385 0
49 1 0.29327 0.0266432 0
20 1 0.301462 0.00203955 0
51 1 0.318373 0.0268975 0
22 1 0.342418 0.0314294 0
21 1 0.359788 0.0136537 0
890 1 0.333619 0.00757599 0
24 1 0.384185 0.020734 0
53 1 0.366522 0.0378614 0
894 1 0.401411 0.0033026 0
25 1 0.408292 0.0272589 0
26 1 0.432079 0.0330095 0
27 1 0.425936 0.00917239 0
898 1 0.449951 0.0153591 0
28 1 0.456877 0.0400992 0
29 1 0.474976 0.0221423 0
900 1 0.492653 0.00423719 0
30 1 0.49962 0.0284458 0
32 1 0.0233577 0.0473754 0
62 1 0.0192573 0.0716056 0
63 1 0.0425483 0.0646739 0
65 1 0.0657699 0.0566254 0
66 1 0.0846262 0.0736332 0
64 1 0.0611708 0.0812985 0
36 1 0.0888489 0.0492867 0
67 1 0.108059 0.0666503 0
69 1 0.131956 0.0594101 0
68 1 0.126789 0.0834279 0
71 1 0.156296 0.0495536 0
72 1 0.174081 0.0663408 0
70 1 0.150858 0.0751211 0
74 1 0.221839 0.0498826 0
103 1 0.196761 0.0587493 0
105 1 0.217039 0.0746803 0
101 1 0.192621 0.0824732 0
77 1 0.264704 0.0592175 0
76 1 0.240686 0.0672197 0
137 1 0.259744 0.0839859 0
47 1 0.288616 0.0512705 0
48 1 0.30757 0.0674817 0
78 1 0.283366 0.0753619 0
50 1 0.325343 0.0506683 0
81 1 0.332006 0.0744913 0
52 1 0.349168 0.0566317 0
82 1 0.356694 0.0799425 0
55 1 0.390471 0.0449529 0
83 1 0.373838 0.0623963 0
54 1 0.398979 0.0687733 0
57 1 0.438947 0.056658 0
85 1 0.422596 0.075263 0
56 1 0.41496 0.0512022 0
87 1 0.446197 0.0827112 0
59 1 0.481831 0.0466376 0
58 1 0.463332 0.0647682 0
89 1 0.487797 0.0701433 0
93 1 0.0389121 0.0894398 0
990 1 0.0137366 0.0968891 0
92 1 0.033171 0.113621 0
91 1 0.00910928 0.122318 0
94 1 0.0565439 0.106521 0
95 1 0.0796108 0.0983668 0
125 1 0.0754111 0.123003 0
96 1 0.0986168 0.115076 0
97 1 0.103268 0.0904817 0
98 1 0.121838 0.107449 0
99 1 0.145654 0.0998991 0
100 1 0.168625 0.0915787 0
130 1 0.164519 0.115845 0
129 1 0.140291 0.124356 0
131 1 0.188 0.107371 0
102 1 0.210714 0.0997564 0
133 1 0.206706 0.124409 0
104 1 0.229571 0.115812 0
106 1 0.234497 0.0919219 0
135 1 0.25334 0.107901 0
107 1 0.27707 0.100038 0
109 1 0.298445 0.110498 0
79 1 0.31433 0.0917006 0
108 1 0.27776 0.126862 0
80 1 0.339573 0.0979419 0
110 1 0.322211 0.11719 0
141 1 0.345895 0.123459 0
111 1 0.363453 0.105382 0
113 1 0.381638 0.0866521 0
84 1 0.405601 0.0935397 0
112 1 0.387343 0.111312 0
143 1 0.369537 0.129571 0
115 1 0.411292 0.117895 0
86 1 0.428829 0.0995454 0
116 1 0.435022 0.125092 0
117 1 0.453126 0.106951 0
88 1 0.470311 0.0890188 0
90 1 0.494182 0.0944793 0
119 1 0.477405 0.113836 0
122 1 0.0279401 0.138036 0
152 1 0.0211828 0.163389 0
121 1 0.00320488 0.145856 0
153 1 0.0448564 0.154884 0
123 1 0.0512097 0.130461 0
124 1 0.0694244 0.14804 0
155 1 0.0876473 0.165465 0
154 1 0.0625326 0.172659 0
127 1 0.117133 0.132406 0
126 1 0.0932509 0.140487 0
128 1 0.135188 0.149293 0
157 1 0.112156 0.157107 0
158 1 0.128832 0.173483 0
159 1 0.158278 0.139995 0
161 1 0.176779 0.157247 0
160 1 0.153378 0.16635 0
132 1 0.182305 0.132341 0
163 1 0.201202 0.14966 0
134 1 0.225722 0.144873 0
193 1 0.219333 0.168254 0
136 1 0.265764 0.146982 0
165 1 0.24681 0.132465 0
164 1 0.245607 0.161629 0
167 1 0.271 0.170176 0
139 1 0.303828 0.134137 0
138 1 0.28902 0.153204 0
169 1 0.312356 0.159549 0
140 1 0.329314 0.141632 0
142 1 0.353238 0.149149 0
171 1 0.335736 0.16682 0
172 1 0.359102 0.173057 0
114 1 0.394004 0.136216 0
173 1 0.377539 0.155645 0
144 1 0.401415 0.160703 0
145 1 0.417728 0.142789 0
146 1 0.424592 0.167088 0
147 1 0.441847 0.149831 0
118 1 0.459795 0.131663 0
149 1 0.483045 0.138443 0
148 1 0.46579 0.155966 0
150 1 0.489305 0.162283 0
183 1 0.039682 0.180056 0
182 1 0.033904 0.203941 0
1080 1 0.0156228 0.188045 0
211 1 0.00910732 0.212626 0
184 1 0.0578473 0.196772 0
185 1 0.0816511 0.189772 0
215 1 0.0779951 0.2137 0
186 1 0.101471 0.206031 0
156 1 0.106102 0.182829 0
187 1 0.125139 0.198192 0
189 1 0.148977 0.190583 0
191 1 0.173029 0.183128 0
190 1 0.167578 0.20686 0
188 1 0.14374 0.215532 0
162 1 0.195694 0.17409 0
221 1 0.19381 0.211843 0
192 1 0.211492 0.193893 0
195 1 0.235572 0.203965 0
166 1 0.252162 0.185834 0
196 1 0.258601 0.211666 0
168 1 0.294605 0.177603 0
197 1 0.275899 0.194688 0
199 1 0.30063 0.202037 0
170 1 0.318561 0.184324 0
201 1 0.342584 0.191986 0
200 1 0.324097 0.210047 0
202 1 0.348473 0.216765 0
203 1 0.366016 0.197797 0
174 1 0.383084 0.179659 0
204 1 0.390362 0.203752 0
175 1 0.407576 0.185466 0
177 1 0.448567 0.174103 0
205 1 0.41425 0.210942 0
176 1 0.430937 0.191207 0
178 1 0.455825 0.198155 0
179 1 0.472905 0.180554 0
180 1 0.496302 0.18695 0
209 1 0.479565 0.205437 0
212 1 0.0278616 0.228395 0
241 1 0.021966 0.252906 0
1140 1 0.00385171 0.23749 0
243 1 0.0471643 0.244737 0
213 1 0.0536008 0.221261 0
214 1 0.0722402 0.238577 0
245 1 0.0893429 0.257284 0
216 1 0.0964939 0.232336 0
217 1 0.119458 0.222501 0
247 1 0.113907 0.250407 0
218 1 0.136519 0.238688 0
219 1 0.159098 0.246621 0
220 1 0.176698 0.229441 0
222 1 0.181993 0.254156 0
194 1 0.217032 0.219974 0
223 1 0.200431 0.237962 0
224 1 0.223535 0.246043 0
225 1 0.240524 0.228766 0
227 1 0.264739 0.236932 0
226 1 0.247046 0.25438 0
198 1 0.282219 0.219233 0
228 1 0.288253 0.243727 0
229 1 0.306748 0.226632 0
230 1 0.312344 0.250925 0
231 1 0.330614 0.233514 0
232 1 0.354491 0.241077 0
261 1 0.336467 0.258823 0
233 1 0.372857 0.221403 0
234 1 0.378584 0.246418 0
235 1 0.396247 0.229144 0
265 1 0.402247 0.254265 0
207 1 0.438205 0.216439 0
206 1 0.420099 0.235018 0
237 1 0.445216 0.241062 0
236 1 0.426188 0.259394 0
208 1 0.462409 0.223779 0
210 1 0.486212 0.230205 0
239 1 0.469226 0.248491 0
240 1 0.493189 0.255202 0
242 1 0.0412961 0.268199 0
271 1 0.0360758 0.291923 0
1170 1 0.0178541 0.276817 0
1200 1 0.0131595 0.302403 0
244 1 0.0649594 0.261938 0
273 1 0.0607386 0.296841 0
275 1 0.0802348 0.2816 0
246 1 0.102024 0.292389 0
248 1 0.119807 0.275676 0
279 1 0.124824 0.30209 0
249 1 0.139867 0.26235 0
251 1 0.163304 0.27091 0
250 1 0.143503 0.285846 0
281 1 0.167097 0.295094 0
253 1 0.206079 0.263005 0
252 1 0.186242 0.278844 0
254 1 0.209912 0.287755 0
255 1 0.229319 0.270644 0
257 1 0.270543 0.261188 0
256 1 0.252147 0.279277 0
285 1 0.234214 0.29624 0
259 1 0.294477 0.269795 0
258 1 0.275481 0.28574 0
289 1 0.299522 0.293579 0
260 1 0.317855 0.275482 0
263 1 0.361397 0.265674 0
262 1 0.342307 0.282842 0
291 1 0.323832 0.299836 0
293 1 0.366297 0.289861 0
264 1 0.384499 0.271907 0
295 1 0.390597 0.296679 0
266 1 0.409196 0.279089 0
238 1 0.451016 0.26534 0
267 1 0.43307 0.284157 0
297 1 0.414921 0.3029 0
268 1 0.456991 0.290688 0
1141 1 0.498798 0.279196 0
269 1 0.474509 0.27308 0
270 1 0.481655 0.297634 0
301 1 0.0203455 0.328344 0
1230 1 0.000817055 0.343914 0
272 1 0.0409029 0.314668 0
303 1 0.043723 0.338961 0
276 1 0.0830447 0.308549 0
274 1 0.0636326 0.323614 0
305 1 0.087022 0.33264 0
304 1 0.067379 0.347743 0
277 1 0.106346 0.317792 0
278 1 0.129691 0.327445 0
307 1 0.109684 0.3414 0
280 1 0.147824 0.310705 0
311 1 0.153363 0.335437 0
282 1 0.171814 0.319148 0
312 1 0.176936 0.344618 0
283 1 0.191591 0.304064 0
284 1 0.214332 0.313557 0
313 1 0.196077 0.329014 0
315 1 0.220334 0.338748 0
287 1 0.257547 0.304333 0
286 1 0.23895 0.321173 0
317 1 0.264185 0.328942 0
316 1 0.244008 0.345953 0
288 1 0.281713 0.310601 0
318 1 0.287365 0.335993 0
290 1 0.306012 0.318493 0
319 1 0.3104 0.343291 0
292 1 0.348492 0.30732 0
321 1 0.329667 0.324717 0
323 1 0.354138 0.331387 0
324 1 0.378618 0.338534 0
294 1 0.372352 0.314665 0
325 1 0.404219 0.345048 0
296 1 0.3972 0.321028 0
298 1 0.440326 0.30911 0
327 1 0.421844 0.327005 0
328 1 0.446033 0.332705 0
329 1 0.47019 0.339952 0
299 1 0.464182 0.315029 0
300 1 0.488285 0.322416 0
1201 1 0.494572 0.346336 0
302 1 0.023384 0.352846 0
332 1 0.0264299 0.377177 0
331 1 0.00398574 0.368044 0
361 1 0.0057143 0.391744 0
333 1 0.0468471 0.362873 0
335 1 0.0705895 0.371581 0
334 1 0.0502606 0.386404 0
306 1 0.0907378 0.356986 0
337 1 0.0941753 0.381933 0
308 1 0.114431 0.366445 0
309 1 0.133271 0.351164 0
338 1 0.117839 0.391319 0
339 1 0.137365 0.376122 0
310 1 0.156519 0.360264 0
341 1 0.160561 0.38573 0
343 1 0.17985 0.369587 0
314 1 0.199906 0.354712 0
344 1 0.204533 0.379536 0
345 1 0.223964 0.363878 0
375 1 0.22903 0.388152 0
347 1 0.268009 0.353871 0
346 1 0.249198 0.371938 0
377 1 0.27319 0.379526 0
349 1 0.291898 0.360269 0
348 1 0.296978 0.385374 0
350 1 0.317111 0.367159 0
320 1 0.336012 0.348951 0
351 1 0.344029 0.372627 0
322 1 0.361175 0.355253 0
353 1 0.367761 0.380173 0
355 1 0.385394 0.362887 0
354 1 0.392551 0.387215 0
356 1 0.409993 0.369608 0
326 1 0.428236 0.3523 0
357 1 0.435104 0.375774 0
359 1 0.452499 0.35687 0
358 1 0.459125 0.382236 0
330 1 0.476149 0.36431 0
360 1 0.48377 0.389131 0
363 1 0.030223 0.401153 0
362 1 0.0100353 0.416246 0
364 1 0.0337893 0.425879 0
336 1 0.0740974 0.396335 0
365 1 0.0537174 0.410673 0
366 1 0.0778419 0.421231 0
367 1 0.0980307 0.406548 0
369 1 0.121289 0.416089 0
368 1 0.10142 0.431074 0
340 1 0.140365 0.401056 0
370 1 0.144581 0.425482 0
371 1 0.164058 0.410913 0
342 1 0.184555 0.395067 0
372 1 0.188348 0.420128 0
373 1 0.209391 0.404843 0
403 1 0.211424 0.429521 0
374 1 0.23317 0.413953 0
376 1 0.252698 0.397429 0
405 1 0.255942 0.423374 0
378 1 0.277296 0.40404 0
379 1 0.310469 0.407837 0
409 1 0.293978 0.424332 0
410 1 0.316892 0.432435 0
381 1 0.326415 0.389945 0
352 1 0.350383 0.396052 0
382 1 0.358505 0.422935 0
380 1 0.334509 0.415333 0
383 1 0.374674 0.40434 0
385 1 0.398985 0.411421 0
384 1 0.382236 0.429496 0
387 1 0.416924 0.393049 0
386 1 0.42285 0.418491 0
388 1 0.441052 0.401088 0
419 1 0.448152 0.424537 0
389 1 0.465912 0.406537 0
1261 1 0.490539 0.412612 0
390 1 0.471921 0.430673 0
393 1 0.0129423 0.440485 0
423 1 0.0154863 0.464894 0
394 1 0.0360297 0.450451 0
425 1 0.0388594 0.474739 0
395 1 0.05722 0.435124 0
396 1 0.0600077 0.459712 0
397 1 0.0810061 0.445914 0
427 1 0.0820793 0.470576 0
399 1 0.125126 0.440459 0
398 1 0.103845 0.456078 0
429 1 0.126655 0.465149 0
401 1 0.167108 0.435155 0
400 1 0.147428 0.451352 0
431 1 0.169661 0.460838 0
430 1 0.15016 0.475307 0
402 1 0.189614 0.444984 0
433 1 0.212611 0.455824 0
432 1 0.192027 0.470437 0
404 1 0.233963 0.440421 0
406 1 0.254848 0.452718 0
435 1 0.235621 0.468102 0
436 1 0.258083 0.478071 0
407 1 0.275347 0.438909 0
437 1 0.277962 0.463992 0
408 1 0.298254 0.449254 0
439 1 0.303092 0.474403 0
441 1 0.321463 0.457793 0
411 1 0.340123 0.440823 0
412 1 0.347479 0.465148 0
415 1 0.406339 0.437263 0
413 1 0.364649 0.448154 0
414 1 0.388586 0.454376 0
443 1 0.370766 0.472509 0
416 1 0.413006 0.461553 0
417 1 0.430037 0.442966 0
447 1 0.437853 0.466801 0
418 1 0.455339 0.448704 0
1291 1 0.49741 0.437112 0
420 1 0.478916 0.454758 0
449 1 0.460991 0.473822 0
454 1 0.0206402 0.513633 0
424 1 0.0184276 0.489471 0
455 1 0.0410755 0.499116 0
426 1 0.0619387 0.48478 0
456 1 0.0653987 0.510358 0
457 1 0.0850009 0.494748 0
487 1 0.0879949 0.520161 0
428 1 0.105734 0.480145 0
459 1 0.128839 0.489661 0
458 1 0.108345 0.504512 0
489 1 0.131094 0.515173 0
461 1 0.171491 0.487093 0
460 1 0.151411 0.500817 0
462 1 0.174228 0.512409 0
434 1 0.214809 0.481412 0
463 1 0.195147 0.495862 0
464 1 0.217083 0.507101 0
465 1 0.237835 0.493295 0
467 1 0.26066 0.503537 0
466 1 0.239201 0.518324 0
438 1 0.282039 0.489379 0
469 1 0.306733 0.49958 0
468 1 0.285017 0.514125 0
440 1 0.327529 0.482443 0
442 1 0.352459 0.489647 0
471 1 0.332821 0.506309 0
473 1 0.358288 0.513566 0
445 1 0.395312 0.478664 0
444 1 0.376328 0.495855 0
475 1 0.401448 0.503414 0
446 1 0.420088 0.484665 0
477 1 0.425719 0.509061 0
448 1 0.444039 0.492633 0
478 1 0.449866 0.517005 0
450 1 0.484696 0.479626 0
479 1 0.468016 0.498715 0
1381 1 0.493067 0.504474 0
483 1 0.0248469 0.538415 0
482 1 0.0034826 0.552945 0
485 1 0.0444393 0.523952 0
452 1 0.000505569 0.52832 0
513 1 0.0262715 0.564775 0
484 1 0.0469529 0.55041 0
486 1 0.0665054 0.534769 0
515 1 0.0696045 0.560691 0
517 1 0.0901594 0.544404 0
488 1 0.110473 0.530355 0
519 1 0.112443 0.556074 0
490 1 0.132792 0.541667 0
491 1 0.152893 0.527479 0
521 1 0.155561 0.551576 0
492 1 0.176107 0.537647 0
523 1 0.179085 0.562864 0
493 1 0.197281 0.521964 0
494 1 0.198938 0.547618 0
495 1 0.218814 0.532889 0
525 1 0.221457 0.558353 0
496 1 0.241096 0.543711 0
497 1 0.260795 0.528561 0
527 1 0.263118 0.553638 0
470 1 0.314759 0.52419 0
499 1 0.304487 0.546147 0
498 1 0.282579 0.538796 0
529 1 0.28733 0.563205 0
472 1 0.341402 0.530895 0
501 1 0.327908 0.551225 0
502 1 0.350546 0.557938 0
474 1 0.382787 0.520315 0
503 1 0.365263 0.537741 0
505 1 0.389412 0.544409 0
476 1 0.407559 0.527322 0
504 1 0.374264 0.564132 0
506 1 0.414507 0.551807 0
507 1 0.431931 0.534102 0
508 1 0.438467 0.558173 0
480 1 0.474837 0.522513 0
509 1 0.456318 0.541068 0
510 1 0.481157 0.546772 0
1382 1 0.499454 0.528793 0
512 1 0.0299039 0.5893 0
511 1 0.00663237 0.579657 0
541 1 0.00909077 0.604817 0
514 1 0.0497585 0.57465 0
545 1 0.0732949 0.585552 0
543 1 0.0525649 0.599792 0
516 1 0.0924321 0.569566 0
518 1 0.115977 0.581015 0
547 1 0.0960245 0.595357 0
548 1 0.118226 0.605418 0
520 1 0.135445 0.566698 0
549 1 0.138305 0.592377 0
522 1 0.158346 0.576356 0
551 1 0.161364 0.601824 0
553 1 0.181544 0.586923 0
524 1 0.201975 0.573112 0
554 1 0.204995 0.59724 0
555 1 0.224806 0.583974 0
556 1 0.228662 0.608624 0
526 1 0.244161 0.568796 0
557 1 0.24802 0.593378 0
528 1 0.267561 0.578631 0
558 1 0.27112 0.602607 0
500 1 0.310426 0.570875 0
559 1 0.291222 0.587159 0
530 1 0.314661 0.594631 0
531 1 0.333624 0.576798 0
532 1 0.338669 0.601169 0
533 1 0.356492 0.582897 0
563 1 0.362251 0.607144 0
534 1 0.380739 0.589107 0
535 1 0.397756 0.569224 0
536 1 0.40414 0.595502 0
537 1 0.421425 0.576417 0
567 1 0.428719 0.601828 0
538 1 0.446283 0.582885 0
568 1 0.452493 0.607854 0
539 1 0.46322 0.564523 0
540 1 0.488028 0.571737 0
569 1 0.470099 0.588561 0
1441 1 0.494725 0.597295 0
542 1 0.0321027 0.614411 0
571 1 0.0127564 0.629597 0
573 1 0.0347967 0.639922 0
546 1 0.0751605 0.609923 0
544 1 0.055213 0.625171 0
575 1 0.0775733 0.635051 0
574 1 0.0574877 0.650557 0
577 1 0.0977412 0.620015 0
579 1 0.120746 0.631064 0
576 1 0.101242 0.645725 0
550 1 0.141648 0.61724 0
581 1 0.165143 0.628421 0
580 1 0.144026 0.641684 0
611 1 0.167342 0.652562 0
552 1 0.184557 0.61282 0
582 1 0.188638 0.638811 0
583 1 0.208291 0.622882 0
584 1 0.211761 0.648426 0
585 1 0.2332 0.634921 0
586 1 0.257565 0.64572 0
587 1 0.252159 0.619576 0
560 1 0.295204 0.611741 0
589 1 0.276237 0.628067 0
590 1 0.3018 0.636661 0
561 1 0.319435 0.619231 0
562 1 0.345049 0.62518 0
591 1 0.326536 0.642219 0
593 1 0.351349 0.649638 0
565 1 0.386682 0.613671 0
564 1 0.368436 0.631231 0
595 1 0.392077 0.638308 0
566 1 0.410581 0.619364 0
596 1 0.416185 0.643161 0
597 1 0.434697 0.626736 0
599 1 0.441764 0.649806 0
570 1 0.47633 0.613522 0
600 1 0.459712 0.631429 0
1471 1 0.483687 0.638853 0
572 1 0.0145473 0.654709 0
602 1 0.016805 0.680052 0
603 1 0.0378372 0.66575 0
633 1 0.0399475 0.690468 0
605 1 0.0805119 0.66102 0
604 1 0.0605514 0.675742 0
606 1 0.0823342 0.68643 0
578 1 0.124024 0.656647 0
607 1 0.102777 0.670888 0
608 1 0.127345 0.681851 0
609 1 0.147046 0.667612 0
610 1 0.170309 0.677641 0
639 1 0.149488 0.692012 0
612 1 0.191292 0.688672 0
613 1 0.190727 0.663323 0
614 1 0.214002 0.674765 0
615 1 0.234374 0.659249 0
616 1 0.240139 0.68205 0
617 1 0.26263 0.669924 0
588 1 0.281942 0.652842 0
647 1 0.271012 0.6943 0
619 1 0.30832 0.659649 0
618 1 0.289051 0.677957 0
620 1 0.314246 0.683787 0
621 1 0.333236 0.667336 0
592 1 0.357389 0.673522 0
622 1 0.340326 0.691212 0
594 1 0.375526 0.655558 0
625 1 0.40013 0.661247 0
623 1 0.382347 0.679264 0
626 1 0.406024 0.685795 0
598 1 0.44757 0.674413 0
627 1 0.423773 0.668064 0
657 1 0.430331 0.692602 0
628 1 0.471771 0.681445 0
629 1 0.466119 0.656779 0
1501 1 0.489368 0.663231 0
630 1 0.495644 0.687792 0
632 1 0.0198378 0.704902 0
663 1 0.0227291 0.729778 0
634 1 0.0424152 0.714949 0
1560 1 -0.000883879 0.71972 0
635 1 0.0621369 0.700394 0
636 1 0.0855392 0.710786 0
665 1 0.0649956 0.726348 0
666 1 0.0880362 0.735916 0
637 1 0.105673 0.695616 0
638 1 0.12926 0.706561 0
667 1 0.10878 0.720739 0
669 1 0.131904 0.730841 0
641 1 0.171526 0.703034 0
640 1 0.152036 0.717371 0
671 1 0.174151 0.729065 0
643 1 0.213955 0.699045 0
642 1 0.194026 0.712799 0
644 1 0.217974 0.723836 0
645 1 0.236803 0.706598 0
675 1 0.241193 0.732084 0
646 1 0.259691 0.71581 0
677 1 0.264634 0.739749 0
649 1 0.297356 0.702387 0
648 1 0.282378 0.721927 0
679 1 0.305948 0.726925 0
650 1 0.322434 0.707777 0
651 1 0.346451 0.714882 0
681 1 0.330069 0.734347 0
653 1 0.364751 0.69847 0
624 1 0.389047 0.703197 0
654 1 0.371253 0.723507 0
685 1 0.395685 0.72849 0
655 1 0.412795 0.710123 0
656 1 0.436606 0.716784 0
686 1 0.419386 0.734946 0
658 1 0.453317 0.699051 0
687 1 0.459945 0.723545 0
659 1 0.478277 0.70635 0
689 1 0.483902 0.730838 0
662 1 0.0242054 0.75655 0
691 1 0.00373024 0.770472 0
661 1 0.00264548 0.745507 0
693 1 0.0259267 0.783743 0
664 1 0.045125 0.741516 0
694 1 0.0468661 0.7678 0
695 1 0.0684812 0.75147 0
696 1 0.0697365 0.776129 0
697 1 0.0914471 0.761098 0
668 1 0.11084 0.744924 0
698 1 0.114711 0.771869 0
699 1 0.133266 0.755877 0
700 1 0.137638 0.780615 0
670 1 0.155153 0.743041 0
701 1 0.159704 0.768779 0
672 1 0.178945 0.753509 0
673 1 0.198114 0.737522 0
702 1 0.182922 0.779535 0
674 1 0.222389 0.748001 0
703 1 0.20273 0.76386 0
705 1 0.22646 0.772612 0
676 1 0.245946 0.756395 0
707 1 0.269766 0.764993 0
735 1 0.250856 0.781361 0
678 1 0.288187 0.746626 0
709 1 0.293625 0.771049 0
680 1 0.312274 0.75219 0
710 1 0.318091 0.776225 0
652 1 0.354058 0.740389 0
682 1 0.35977 0.764594 0
711 1 0.335848 0.758003 0
741 1 0.3418 0.782777 0
683 1 0.377938 0.748029 0
713 1 0.383674 0.771588 0
684 1 0.401811 0.752747 0
716 1 0.407591 0.775923 0
717 1 0.443097 0.740992 0
715 1 0.425117 0.759098 0
718 1 0.448997 0.76527 0
1591 1 0.497091 0.779059 0
690 1 0.489563 0.755225 0
688 1 0.466038 0.747897 0
719 1 0.47296 0.774021 0
692 1 0.0050676 0.796989 0
722 1 0.00459445 0.822866 0
723 1 0.02798 0.811331 0
725 1 0.0492779 0.794425 0
726 1 0.0725859 0.800158 0
755 1 0.0699182 0.823678 0
727 1 0.0917935 0.786464 0
728 1 0.113377 0.798463 0
757 1 0.0932539 0.814619 0
729 1 0.138178 0.804265 0
730 1 0.157609 0.818402 0
731 1 0.159868 0.793165 0
704 1 0.206168 0.790929 0
732 1 0.181605 0.807269 0
734 1 0.223458 0.819326 0
733 1 0.232655 0.796509 0
736 1 0.256136 0.805639 0
706 1 0.27472 0.789194 0
737 1 0.282719 0.8121 0
708 1 0.300413 0.79472 0
738 1 0.307024 0.819365 0
739 1 0.324659 0.800535 0
742 1 0.348426 0.807333 0
740 1 0.330579 0.82426 0
712 1 0.365875 0.789313 0
714 1 0.391452 0.795582 0
743 1 0.373146 0.813405 0
745 1 0.39734 0.819647 0
747 1 0.432121 0.78368 0
746 1 0.415232 0.802758 0
748 1 0.439209 0.808995 0
749 1 0.45548 0.790602 0
720 1 0.478964 0.797821 0
750 1 0.462474 0.816499 0
1621 1 0.487473 0.821937 0
753 1 0.0219743 0.83937 0
783 1 0.016962 0.864425 0
754 1 0.0403696 0.856494 0
724 1 0.0459755 0.830156 0
785 1 0.0633411 0.849365 0
786 1 0.0814806 0.867159 0
756 1 0.0871422 0.840583 0
758 1 0.110265 0.833735 0
787 1 0.105146 0.858988 0
789 1 0.128691 0.851311 0
759 1 0.134105 0.827962 0
760 1 0.153272 0.843866 0
791 1 0.171237 0.859949 0
761 1 0.176818 0.834227 0
790 1 0.147944 0.868154 0
763 1 0.199278 0.825513 0
762 1 0.193861 0.851497 0
764 1 0.218453 0.844079 0
793 1 0.213525 0.867715 0
765 1 0.242058 0.835915 0
795 1 0.238358 0.860503 0
766 1 0.262919 0.854098 0
767 1 0.265775 0.829604 0
769 1 0.315054 0.842539 0
768 1 0.289626 0.836621 0
799 1 0.297965 0.860134 0
770 1 0.339418 0.850793 0
771 1 0.355948 0.83177 0
773 1 0.362503 0.856016 0
801 1 0.321242 0.86701 0
744 1 0.379704 0.837709 0
774 1 0.387316 0.863272 0
775 1 0.404242 0.844663 0
777 1 0.421707 0.826957 0
807 1 0.42759 0.852648 0
778 1 0.444796 0.833878 0
809 1 0.45196 0.858348 0
776 1 0.410513 0.869794 0
779 1 0.469083 0.840188 0
780 1 0.476066 0.864543 0
1651 1 0.494275 0.845712 0
812 1 0.0109598 0.889827 0
814 1 0.0295555 0.906456 0
813 1 0.0341149 0.882363 0
784 1 0.0574185 0.87418 0
815 1 0.0525938 0.898943 0
816 1 0.0769306 0.892229 0
788 1 0.123622 0.876152 0
817 1 0.100112 0.883475 0
819 1 0.117939 0.901031 0
818 1 0.0942285 0.90867 0
821 1 0.165665 0.884634 0
820 1 0.142202 0.892294 0
851 1 0.160421 0.910327 0
792 1 0.189956 0.875692 0
823 1 0.207482 0.893006 0
822 1 0.183651 0.901075 0
794 1 0.23221 0.885832 0
796 1 0.255458 0.878273 0
827 1 0.250697 0.90199 0
825 1 0.22629 0.911072 0
797 1 0.279186 0.876426 0
798 1 0.282716 0.899405 0
800 1 0.30284 0.884354 0
829 1 0.305128 0.909748 0
831 1 0.326274 0.893936 0
772 1 0.344721 0.874942 0
802 1 0.350878 0.900241 0
803 1 0.369077 0.880037 0
804 1 0.373701 0.906045 0
805 1 0.392492 0.888031 0
835 1 0.398904 0.912257 0
806 1 0.417057 0.894911 0
808 1 0.434712 0.875963 0
839 1 0.44097 0.900092 0
1681 1 0.483311 0.888074 0
810 1 0.45876 0.882547 0
840 1 0.464816 0.906341 0
843 1 0.00595498 0.913683 0
844 1 0.0245287 0.932011 0
875 1 0.042804 0.949244 0
873 1 0.0188432 0.9559 0
845 1 0.0476114 0.923861 0
846 1 0.0670758 0.941694 0
847 1 0.0704486 0.916898 0
848 1 0.0904861 0.933577 0
849 1 0.11419 0.926027 0
879 1 0.108844 0.950579 0
881 1 0.133245 0.943043 0
850 1 0.137308 0.917859 0
852 1 0.156502 0.934434 0
883 1 0.174549 0.951427 0
853 1 0.179891 0.926442 0
824 1 0.202663 0.917743 0
854 1 0.198278 0.942117 0
855 1 0.223196 0.935237 0
826 1 0.246156 0.926252 0
857 1 0.265368 0.944135 0
856 1 0.242049 0.951911 0
828 1 0.268924 0.918779 0
859 1 0.290507 0.93104 0
830 1 0.315065 0.934259 0
833 1 0.356928 0.924245 0
832 1 0.33273 0.918246 0
861 1 0.340107 0.942366 0
863 1 0.364126 0.948404 0
834 1 0.382318 0.930011 0
865 1 0.406175 0.936941 0
864 1 0.387792 0.955188 0
837 1 0.423543 0.919263 0
836 1 0.430011 0.943474 0
838 1 0.44723 0.924772 0
870 1 0.453659 0.94933 0
1711 1 0.489866 0.913293 0
869 1 0.471715 0.931108 0
1712 1 0.49576 0.937798 0
1741 1 0.478394 0.957059 0
3 1 0.0325917 0.998222 0
872 1 0.0150851 0.981051 0
874 1 0.0382337 0.973053 0
877 1 0.0856829 0.958454 0
5 1 0.0571642 0.989272 0
876 1 0.0614097 0.96563 0
7 1 0.0806222 0.982616 0
8 1 0.0991857 1.00032 0
9 1 0.122853 0.991882 0
878 1 0.104078 0.974806 0
880 1 0.128404 0.967241 0
41 1 0.166141 0.999892 0
11 1 0.146895 0.983627 0
882 1 0.151763 0.958707 0
13 1 0.170798 0.976048 0
12 1 0.190107 0.992778 0
15 1 0.212793 0.984207 0
884 1 0.194069 0.967176 0
885 1 0.217784 0.959313 0
17 1 0.257024 0.992743 0
887 1 0.237926 0.976045 0
888 1 0.261761 0.968424 0
858 1 0.285853 0.95894 0
19 1 0.281295 0.985282 0
889 1 0.304205 0.976648 0
860 1 0.32129 0.958252 0
862 1 0.346218 0.96597 0
891 1 0.327884 0.98256 0
892 1 0.352091 0.990014 0
23 1 0.377654 0.997115 0
893 1 0.370537 0.972511 0
895 1 0.395471 0.978642 0
896 1 0.420399 0.985271 0
866 1 0.412515 0.961201 0
867 1 0.436503 0.967162 0
897 1 0.444646 0.991218 0
868 1 0.461015 0.973718 0
899 1 0.468349 0.99761 0
1771 1 0.485664 0.980302 0
931 1 0.523749 0.0350171 0
901 1 0.517188 0.0113571 0
902 1 0.541331 0.0172235 0
904 1 0.565578 0.0231931 0
906 1 0.58275 0.00528215 0
935 1 0.589252 0.0309581 0
933 1 0.548499 0.0415179 0
908 1 0.606672 0.0127522 0
939 1 0.630765 0.0192139 0
937 1 0.613261 0.0376254 0
910 1 0.647282 0.0019826 0
941 1 0.653787 0.0262537 0
912 1 0.67099 0.00840815 0
942 1 0.676593 0.0329517 0
943 1 0.695576 0.0146588 0
945 1 0.720641 0.0209246 0
944 1 0.701955 0.0386035 0
914 1 0.744567 0.0269722 0
916 1 0.766963 0.0196067 0
915 1 0.738305 0.00230386 0
918 1 0.783642 0.037117 0
919 1 0.806535 0.0287468 0
917 1 0.789689 0.012184 0
1788 1 0.812738 0.00402838 0
920 1 0.830911 0.020636 0
922 1 0.8483 0.0377743 0
921 1 0.854247 0.0123905 0
923 1 0.871688 0.0303766 0
924 1 0.895588 0.0214733 0
1792 1 0.877549 0.00512144 0
955 1 0.915134 0.0381084 0
925 1 0.919247 0.0133973 0
926 1 0.93908 0.029604 0
928 1 0.94278 0.00466705 0
930 1 0.985138 0.0144974 0
959 1 0.961923 0.0220655 0
960 1 0.980952 0.0392004 0
932 1 0.530395 0.0596342 0
961 1 0.511996 0.0764441 0
60 1 0.506166 0.052826 0
962 1 0.536336 0.084063 0
963 1 0.55421 0.0655034 0
934 1 0.572161 0.0477335 0
965 1 0.577608 0.0735889 0
936 1 0.595788 0.0550556 0
967 1 0.619104 0.0620099 0
966 1 0.601669 0.079199 0
938 1 0.636378 0.044261 0
969 1 0.642649 0.0684782 0
940 1 0.659678 0.0509897 0
970 1 0.666754 0.0752044 0
971 1 0.684053 0.057436 0
973 1 0.707975 0.0623133 0
972 1 0.691264 0.0808715 0
975 1 0.727021 0.0457646 0
947 1 0.759795 0.0456045 0
974 1 0.73073 0.0708355 0
946 1 0.754803 0.0699623 0
977 1 0.772508 0.0861996 0
949 1 0.801464 0.0539797 0
948 1 0.778098 0.0617491 0
979 1 0.797002 0.0787526 0
951 1 0.824895 0.0456705 0
950 1 0.819987 0.0703439 0
980 1 0.838193 0.0863108 0
952 1 0.843145 0.0622448 0
981 1 0.862479 0.0790903 0
954 1 0.890667 0.0462737 0
953 1 0.866725 0.0544804 0
983 1 0.885735 0.0702985 0
984 1 0.905333 0.0872749 0
985 1 0.909211 0.0624272 0
956 1 0.934155 0.05431 0
986 1 0.928413 0.0790731 0
987 1 0.952722 0.0715863 0
957 1 0.957023 0.0472486 0
958 1 0.977124 0.0632255 0
989 1 0.995755 0.0800525 0
61 1 1.00122 0.0552427 0
991 1 0.517492 0.101273 0
993 1 0.542362 0.108663 0
992 1 0.524141 0.12639 0
120 1 0.501309 0.120019 0
964 1 0.559552 0.0900753 0
994 1 0.566499 0.11571 0
995 1 0.583733 0.0978941 0
996 1 0.590884 0.121619 0
968 1 0.626088 0.0860855 0
997 1 0.608601 0.103608 0
998 1 0.632583 0.110283 0
1027 1 0.615721 0.127746 0
999 1 0.650046 0.0928329 0
1000 1 0.656382 0.117213 0
1001 1 0.674218 0.0989801 0
1031 1 0.680502 0.123361 0
1002 1 0.698052 0.106344 0
1003 1 0.714726 0.0886302 0
1004 1 0.72231 0.111279 0
976 1 0.765924 0.108928 0
1005 1 0.745089 0.0931324 0
1035 1 0.745154 0.119203 0
978 1 0.814841 0.0939838 0
1007 1 0.79068 0.102461 0
1006 1 0.782001 0.128616 0
1008 1 0.809037 0.11822 0
1009 1 0.833515 0.110466 0
1010 1 0.851375 0.127386 0
1011 1 0.857105 0.103173 0
982 1 0.881698 0.0941448 0
1012 1 0.875885 0.118209 0
1013 1 0.899447 0.111096 0
1016 1 0.918308 0.12868 0
1017 1 0.947351 0.0962337 0
1015 1 0.922634 0.103709 0
1047 1 0.941408 0.120125 0
988 1 0.97239 0.0880687 0
1018 1 0.965704 0.112718 0
1019 1 0.989858 0.104521 0
1020 1 0.984923 0.12886 0
1022 1 0.532634 0.151141 0
1021 1 0.507886 0.145789 0
1051 1 0.513944 0.169424 0
1023 1 0.549049 0.132999 0
1024 1 0.556311 0.159387 0
1025 1 0.573154 0.139552 0
1055 1 0.579829 0.164047 0
1026 1 0.597442 0.146113 0
1028 1 0.621011 0.153188 0
1057 1 0.602833 0.170953 0
1029 1 0.639319 0.134749 0
1059 1 0.645718 0.160435 0
1030 1 0.663699 0.141881 0
1061 1 0.669218 0.166173 0
1032 1 0.68799 0.147537 0
1033 1 0.704543 0.12959 0
1063 1 0.710608 0.155713 0
1034 1 0.729858 0.138522 0
1036 1 0.754896 0.143485 0
1065 1 0.734707 0.162401 0
1066 1 0.75765 0.170295 0
1067 1 0.778799 0.153655 0
1037 1 0.802517 0.142074 0
1038 1 0.801323 0.166357 0
1039 1 0.827833 0.134325 0
1040 1 0.823769 0.159272 0
1041 1 0.847025 0.150891 0
1042 1 0.865371 0.167997 0
1014 1 0.893936 0.135545 0
1043 1 0.870223 0.142831 0
1044 1 0.888092 0.159893 0
1045 1 0.91286 0.152987 0
1046 1 0.937343 0.144342 0
1077 1 0.931043 0.168991 0
1048 1 0.954887 0.16195 0
1049 1 0.96034 0.13613 0
1050 1 0.978802 0.153299 0
151 1 0.997195 0.17112 0
1053 1 0.538088 0.17599 0
1052 1 0.520599 0.194076 0
1081 1 0.5032 0.211275 0
1083 1 0.544375 0.201109 0
1054 1 0.56259 0.182911 0
1056 1 0.585922 0.188664 0
1085 1 0.56802 0.207327 0
1058 1 0.628388 0.178629 0
1087 1 0.609574 0.195427 0
1089 1 0.634167 0.202592 0
1086 1 0.592664 0.213238 0
1060 1 0.652273 0.183971 0
1091 1 0.675507 0.191007 0
1090 1 0.658663 0.209302 0
1062 1 0.692463 0.173578 0
1093 1 0.69865 0.198573 0
1064 1 0.715859 0.180323 0
1094 1 0.723036 0.204095 0
1092 1 0.682777 0.21799 0
1095 1 0.741426 0.187481 0
1097 1 0.765268 0.195756 0
1096 1 0.746839 0.211773 0
1127 1 0.771416 0.218737 0
1068 1 0.781524 0.178328 0
1098 1 0.789666 0.200666 0
1099 1 0.812732 0.207472 0
1069 1 0.818155 0.183665 0
1071 1 0.841905 0.176388 0
1070 1 0.836797 0.200564 0
1072 1 0.860646 0.193211 0
1101 1 0.8548 0.217394 0
1075 1 0.906497 0.176487 0
1073 1 0.882842 0.184865 0
1103 1 0.877969 0.210569 0
1074 1 0.901942 0.201153 0
1078 1 0.949535 0.186091 0
1076 1 0.925399 0.193974 0
1107 1 0.943852 0.20989 0
1079 1 0.973777 0.178029 0
1109 1 0.968072 0.202038 0
181 1 0.991603 0.195101 0
1082 1 0.527779 0.218914 0
1111 1 0.51078 0.237127 0
1113 1 0.534537 0.243969 0
1084 1 0.551268 0.225901 0
1114 1 0.558306 0.251293 0
1115 1 0.575633 0.232908 0
1116 1 0.582936 0.257881 0
1088 1 0.617353 0.220362 0
1117 1 0.600211 0.239628 0
1118 1 0.6243 0.245344 0
1119 1 0.641111 0.228121 0
1121 1 0.665609 0.234685 0
1120 1 0.647709 0.252878 0
1151 1 0.671946 0.260414 0
1122 1 0.689843 0.241447 0
1123 1 0.706325 0.223234 0
1124 1 0.713214 0.24764 0
1125 1 0.730635 0.229868 0
1126 1 0.754656 0.236101 0
1155 1 0.737908 0.253366 0
1157 1 0.762077 0.26084 0
1129 1 0.795426 0.225755 0
1128 1 0.777974 0.242449 0
1159 1 0.801854 0.248711 0
1100 1 0.831233 0.224574 0
1130 1 0.825897 0.248521 0
1131 1 0.848977 0.24186 0
1132 1 0.866132 0.259098 0
1102 1 0.871542 0.235015 0
1104 1 0.895964 0.226161 0
1133 1 0.889927 0.251134 0
1105 1 0.919638 0.218174 0
1135 1 0.913735 0.242351 0
1106 1 0.938441 0.234265 0
1136 1 0.932001 0.2586 0
1110 1 0.985645 0.218215 0
1137 1 0.956141 0.250254 0
1108 1 0.962207 0.226335 0
1139 1 0.980457 0.244287 0