ITEM: TIMESTEP
154000
ITEM: NUMBER OF ATOMS
1800
ITEM: BOX BOUNDS pp pp pp
1.3480684317026856e+00 1.6365193156829440e+02
1.3480684317026856e+00 1.6365193156829440e+02
0.0000000000000000e+00 5.5000000000000000e+00
ITEM: ATOMS id type xs ys zs
2 1 0.0100489 0.00589197 0
33 1 0.0284034 0.022657 0
31 1 0.0056788 0.0311581 0
4 1 0.0524086 0.0150659 0
6 1 0.0758654 0.00686014 0
35 1 0.0711309 0.0325482 0
34 1 0.0474803 0.0398288 0
37 1 0.0942824 0.0226873 0
39 1 0.118644 0.0161462 0
38 1 0.114134 0.0416336 0
40 1 0.138232 0.0324139 0
10 1 0.142661 0.00713191 0
42 1 0.161508 0.02461 0
73 1 0.180264 0.0422695 0
41 1 0.166913 -0.000188337 0
43 1 0.185482 0.0161506 0
14 1 0.209204 0.00903676 0
44 1 0.204157 0.0339186 0
45 1 0.228271 0.0258218 0
16 1 0.250913 0.0173532 0
886 1 0.232249 -3.11041e-05 0
46 1 0.269111 0.0338652 0
75 1 0.245998 0.0422621 0
18 1 0.27566 0.00912033 0
49 1 0.293355 0.0253902 0
20 1 0.302756 0.00224489 0
51 1 0.317494 0.024196 0
22 1 0.3422 0.0313407 0
21 1 0.360242 0.0145033 0
890 1 0.335649 0.00752806 0
24 1 0.384486 0.0214656 0
53 1 0.366155 0.0387615 0
894 1 0.401563 0.00250607 0
25 1 0.408162 0.027231 0
26 1 0.433008 0.0345969 0
27 1 0.425249 0.0096805 0
898 1 0.449974 0.0167809 0
28 1 0.457337 0.0417645 0
29 1 0.4746 0.0231189 0
900 1 0.491886 0.00525501 0
30 1 0.498957 0.0293639 0
32 1 0.0242408 0.0482557 0
62 1 0.0177801 0.0722757 0
63 1 0.0429981 0.0650034 0
65 1 0.0657853 0.0566046 0
66 1 0.0846975 0.0721175 0
64 1 0.0597863 0.0814433 0
36 1 0.089413 0.0477289 0
67 1 0.109826 0.0657113 0
69 1 0.134266 0.0579424 0
68 1 0.127623 0.0821004 0
71 1 0.156848 0.0490489 0
72 1 0.175654 0.0661988 0
70 1 0.151368 0.0754728 0
74 1 0.222846 0.0508762 0
103 1 0.19875 0.0583333 0
105 1 0.217271 0.0755844 0
101 1 0.19348 0.0836088 0
77 1 0.265143 0.0591458 0
76 1 0.241196 0.0675008 0
137 1 0.259235 0.0843164 0
47 1 0.290478 0.049548 0
48 1 0.307697 0.0681366 0
78 1 0.282835 0.0764136 0
50 1 0.323169 0.0493664 0
81 1 0.332979 0.0750781 0
52 1 0.348067 0.0566732 0
82 1 0.3566 0.0820625 0
55 1 0.391067 0.0464417 0
83 1 0.372905 0.063527 0
54 1 0.398183 0.0710813 0
57 1 0.439711 0.0590906 0
85 1 0.422313 0.076921 0
56 1 0.414597 0.0520119 0
87 1 0.44691 0.0838625 0
59 1 0.481452 0.0482491 0
58 1 0.464193 0.0659931 0
89 1 0.488126 0.0724972 0
93 1 0.0363796 0.0891751 0
990 1 0.0121424 0.0966958 0
92 1 0.0317158 0.113442 0
91 1 0.00764887 0.121214 0
94 1 0.0552049 0.105764 0
95 1 0.0799122 0.0975398 0
125 1 0.0752608 0.122055 0
123 1 0.0504414 0.129484 0
96 1 0.0980682 0.114285 0
97 1 0.103329 0.0894027 0
98 1 0.121728 0.10596 0
99 1 0.1467 0.0990562 0
100 1 0.170303 0.0910045 0
130 1 0.165001 0.116114 0
129 1 0.141111 0.123918 0
131 1 0.188829 0.10888 0
102 1 0.212109 0.0995411 0
133 1 0.207031 0.1267 0
104 1 0.229127 0.116358 0
106 1 0.235584 0.0917045 0
135 1 0.253589 0.109286 0
107 1 0.276463 0.100885 0
109 1 0.297741 0.110787 0
79 1 0.314731 0.091714 0
108 1 0.279447 0.126151 0
80 1 0.338868 0.0994014 0
110 1 0.321728 0.117328 0
141 1 0.346212 0.123288 0
111 1 0.363412 0.105818 0
113 1 0.38027 0.088094 0
84 1 0.404763 0.0946732 0
112 1 0.387182 0.112099 0
143 1 0.370096 0.129361 0
115 1 0.411474 0.118508 0
86 1 0.429229 0.100639 0
116 1 0.435632 0.125124 0
117 1 0.452583 0.107761 0
88 1 0.470521 0.0903142 0
90 1 0.494443 0.0964526 0
119 1 0.476794 0.115044 0
122 1 0.025655 0.137095 0
152 1 0.0221053 0.162787 0
121 1 0.0030996 0.146099 0
153 1 0.0461462 0.152894 0
124 1 0.0705465 0.146197 0
155 1 0.0883982 0.163464 0
154 1 0.0644742 0.170729 0
127 1 0.117238 0.130756 0
126 1 0.0937727 0.139169 0
128 1 0.135364 0.148486 0
157 1 0.111663 0.155309 0
158 1 0.129628 0.173128 0
159 1 0.160104 0.140855 0
161 1 0.177737 0.158802 0
160 1 0.153881 0.165377 0
132 1 0.183953 0.133534 0
163 1 0.200848 0.152123 0
134 1 0.224742 0.144868 0
193 1 0.221257 0.170583 0
136 1 0.265217 0.14775 0
165 1 0.246414 0.132907 0
164 1 0.244651 0.161327 0
167 1 0.270129 0.171865 0
139 1 0.304176 0.135484 0
138 1 0.287706 0.153645 0
169 1 0.311613 0.159408 0
140 1 0.32943 0.140957 0
142 1 0.353083 0.148509 0
171 1 0.335054 0.166042 0
172 1 0.358982 0.172432 0
114 1 0.394772 0.137016 0
173 1 0.377422 0.154558 0
144 1 0.401506 0.1621 0
145 1 0.418215 0.143529 0
146 1 0.42507 0.16884 0
147 1 0.441268 0.150117 0
177 1 0.448781 0.174997 0
118 1 0.459298 0.132827 0
149 1 0.483744 0.139144 0
148 1 0.466018 0.156356 0
150 1 0.490406 0.163772 0
183 1 0.0411411 0.179318 0
182 1 0.0352793 0.203328 0
1080 1 0.0167564 0.18673 0
211 1 0.0106778 0.210699 0
184 1 0.0593003 0.195352 0
185 1 0.0829221 0.188521 0
215 1 0.0777696 0.213408 0
186 1 0.101632 0.205369 0
156 1 0.106627 0.181368 0
187 1 0.124969 0.198181 0
189 1 0.149444 0.190793 0
191 1 0.172032 0.183191 0
190 1 0.167756 0.20773 0
188 1 0.144101 0.214246 0
162 1 0.196313 0.176663 0
221 1 0.192232 0.21193 0
192 1 0.211801 0.196131 0
195 1 0.235443 0.205785 0
166 1 0.250375 0.186516 0
196 1 0.25855 0.212374 0
168 1 0.294866 0.17742 0
197 1 0.275263 0.195278 0
199 1 0.299956 0.201464 0
170 1 0.318113 0.183379 0
201 1 0.341928 0.190097 0
200 1 0.323794 0.208292 0
202 1 0.347571 0.214647 0
203 1 0.365427 0.195768 0
174 1 0.382516 0.178232 0
204 1 0.389622 0.203285 0
175 1 0.407036 0.185785 0
205 1 0.413562 0.210676 0
176 1 0.431001 0.19222 0
207 1 0.436312 0.216063 0
178 1 0.455498 0.199464 0
179 1 0.472948 0.181797 0
180 1 0.497519 0.187563 0
209 1 0.479724 0.205451 0
212 1 0.0297315 0.2263 0
241 1 0.0236777 0.250473 0
1140 1 0.00539716 0.23488 0
243 1 0.0481355 0.243283 0
213 1 0.0540858 0.219793 0
214 1 0.0722052 0.237511 0
245 1 0.0896899 0.258274 0
216 1 0.0966529 0.233007 0
217 1 0.11948 0.222061 0
247 1 0.114147 0.252039 0
218 1 0.136816 0.238556 0
219 1 0.158952 0.247478 0
220 1 0.175692 0.230449 0
222 1 0.182078 0.256652 0
194 1 0.216654 0.220891 0
223 1 0.198464 0.237674 0
224 1 0.222307 0.246761 0
225 1 0.240307 0.230418 0
227 1 0.264929 0.237073 0
226 1 0.246617 0.2544 0
198 1 0.282092 0.21974 0
228 1 0.288661 0.243668 0
229 1 0.306074 0.225955 0
230 1 0.312237 0.250286 0
231 1 0.329825 0.232132 0
232 1 0.353833 0.238967 0
261 1 0.336171 0.257528 0
233 1 0.372211 0.219831 0
234 1 0.377946 0.24494 0
235 1 0.396674 0.22804 0
265 1 0.402324 0.252073 0
206 1 0.420651 0.235559 0
237 1 0.444482 0.240821 0
236 1 0.425705 0.260033 0
208 1 0.462309 0.223768 0
210 1 0.48593 0.230622 0
239 1 0.468408 0.249844 0
240 1 0.492778 0.255418 0
242 1 0.0419374 0.266752 0
271 1 0.0372368 0.290469 0
1170 1 0.0186559 0.274476 0
1200 1 0.0142 0.30038 0
244 1 0.065568 0.261079 0
273 1 0.0604558 0.297493 0
275 1 0.0804634 0.281294 0
246 1 0.101783 0.292771 0
248 1 0.118867 0.276377 0
279 1 0.124267 0.302118 0
249 1 0.139769 0.263395 0
251 1 0.162486 0.271998 0
250 1 0.143429 0.287366 0
281 1 0.166544 0.296343 0
253 1 0.204652 0.264244 0
252 1 0.185883 0.280669 0
254 1 0.209864 0.288124 0
255 1 0.22885 0.271153 0
257 1 0.270738 0.26145 0
256 1 0.251729 0.27954 0
285 1 0.233374 0.296206 0
287 1 0.257121 0.304427 0
259 1 0.294629 0.268677 0
258 1 0.275729 0.28657 0
289 1 0.299851 0.29294 0
260 1 0.31835 0.274848 0
263 1 0.360774 0.262978 0
262 1 0.342935 0.28089 0
291 1 0.323809 0.299643 0
293 1 0.367989 0.287391 0
264 1 0.384807 0.269355 0
295 1 0.391271 0.29435 0
266 1 0.409158 0.278553 0
238 1 0.450208 0.266935 0
267 1 0.433265 0.283954 0
297 1 0.41534 0.302246 0
268 1 0.45756 0.290892 0
1141 1 0.499592 0.27892 0
269 1 0.474913 0.273617 0
270 1 0.482207 0.297168 0
301 1 0.0199788 0.326758 0
1230 1 0.00254088 0.34316 0
272 1 0.0406192 0.313955 0
303 1 0.0440629 0.33819 0
276 1 0.0827009 0.307299 0
274 1 0.0638564 0.322568 0
305 1 0.087109 0.332718 0
304 1 0.0678228 0.348235 0
277 1 0.105273 0.317884 0
278 1 0.129118 0.327492 0
307 1 0.110143 0.342001 0
280 1 0.148464 0.312936 0
311 1 0.15199 0.337702 0
282 1 0.172452 0.321077 0
312 1 0.176083 0.346413 0
283 1 0.190712 0.305164 0
284 1 0.215216 0.312805 0
313 1 0.195978 0.32882 0
315 1 0.220247 0.337523 0
286 1 0.238885 0.320983 0
317 1 0.262273 0.328832 0
316 1 0.243678 0.345812 0
288 1 0.28168 0.309773 0
318 1 0.286617 0.334129 0
290 1 0.306124 0.317891 0
319 1 0.311849 0.342199 0
292 1 0.348165 0.305897 0
321 1 0.330038 0.324348 0
323 1 0.354934 0.330519 0
320 1 0.336591 0.348902 0
324 1 0.379046 0.336374 0
294 1 0.372405 0.311603 0
325 1 0.403579 0.343604 0
296 1 0.397333 0.31862 0
298 1 0.439679 0.307501 0
327 1 0.421743 0.326668 0
328 1 0.446187 0.332556 0
329 1 0.472132 0.340095 0
299 1 0.464366 0.31533 0
300 1 0.489627 0.321817 0
1201 1 0.49562 0.347166 0
302 1 0.0246788 0.353384 0
332 1 0.0270962 0.376548 0
331 1 0.00423371 0.36791 0
333 1 0.0472842 0.362608 0
335 1 0.0700755 0.372755 0
334 1 0.0498073 0.386918 0
306 1 0.0903059 0.357864 0
337 1 0.0928712 0.383191 0
308 1 0.112907 0.367368 0
309 1 0.132999 0.353196 0
338 1 0.116444 0.392344 0
339 1 0.13726 0.377333 0
310 1 0.157325 0.362394 0
341 1 0.160625 0.386213 0
343 1 0.18095 0.371681 0
314 1 0.200654 0.355784 0
344 1 0.205289 0.379818 0
345 1 0.225979 0.3624 0
375 1 0.230218 0.388993 0
347 1 0.267057 0.353403 0
346 1 0.249343 0.371522 0
377 1 0.274125 0.37771 0
349 1 0.291902 0.359766 0
348 1 0.300929 0.382669 0
350 1 0.318585 0.366352 0
351 1 0.344325 0.372199 0
322 1 0.36137 0.354704 0
381 1 0.326211 0.389167 0
353 1 0.368121 0.379043 0
355 1 0.384851 0.361103 0
354 1 0.393662 0.385517 0
356 1 0.410228 0.367283 0
326 1 0.428236 0.350821 0
357 1 0.435795 0.37505 0
359 1 0.453491 0.357016 0
358 1 0.459788 0.381722 0
330 1 0.477261 0.364891 0
360 1 0.485535 0.389887 0
361 1 0.00657257 0.392377 0
363 1 0.0299547 0.401445 0
362 1 0.00941156 0.416358 0
364 1 0.0320907 0.42614 0
336 1 0.0727918 0.397839 0
365 1 0.0519682 0.411771 0
366 1 0.0759405 0.421665 0
367 1 0.0957646 0.407744 0
369 1 0.119474 0.416547 0
368 1 0.100004 0.431924 0
340 1 0.139592 0.401927 0
370 1 0.143331 0.425903 0
371 1 0.164587 0.410828 0
342 1 0.184959 0.396324 0
372 1 0.188213 0.420759 0
373 1 0.20936 0.404814 0
403 1 0.211929 0.430171 0
374 1 0.232442 0.414548 0
376 1 0.254211 0.397528 0
405 1 0.254813 0.422715 0
378 1 0.28305 0.400862 0
379 1 0.308547 0.406237 0
409 1 0.291449 0.423725 0
410 1 0.315204 0.432051 0
352 1 0.350289 0.397373 0
382 1 0.356245 0.420601 0
380 1 0.331995 0.414216 0
383 1 0.37422 0.403061 0
385 1 0.399986 0.410273 0
384 1 0.382379 0.427046 0
415 1 0.405925 0.435032 0
387 1 0.417452 0.392274 0
386 1 0.423563 0.417849 0
388 1 0.441399 0.399825 0
419 1 0.447319 0.423821 0
389 1 0.46582 0.407551 0
1261 1 0.490448 0.413546 0
390 1 0.473603 0.432252 0
393 1 0.0117614 0.441191 0
423 1 0.0151237 0.465728 0
394 1 0.0351728 0.450409 0
425 1 0.0380803 0.475669 0
395 1 0.0553491 0.436358 0
396 1 0.0586081 0.461433 0
397 1 0.0784942 0.446339 0
427 1 0.0813568 0.471444 0
399 1 0.123555 0.441638 0
398 1 0.101894 0.4565 0
429 1 0.125448 0.465596 0
401 1 0.165898 0.435515 0
400 1 0.146829 0.450894 0
431 1 0.168708 0.460516 0
430 1 0.148152 0.475586 0
402 1 0.190142 0.444663 0
433 1 0.212722 0.455898 0
432 1 0.191512 0.469656 0
404 1 0.233836 0.44135 0
406 1 0.254382 0.453521 0
435 1 0.234609 0.468242 0
407 1 0.273701 0.439341 0
437 1 0.278669 0.464328 0
408 1 0.297459 0.44809 0
439 1 0.303592 0.473453 0
441 1 0.3211 0.456977 0
411 1 0.339141 0.439377 0
412 1 0.345872 0.463425 0
413 1 0.363325 0.44477 0
414 1 0.387163 0.451996 0
443 1 0.369914 0.469603 0
416 1 0.411042 0.458998 0
417 1 0.430128 0.441736 0
447 1 0.436676 0.466896 0
418 1 0.455455 0.449239 0
1291 1 0.497227 0.439115 0
420 1 0.480141 0.457159 0
449 1 0.461538 0.473667 0
454 1 0.021214 0.514743 0
424 1 0.018867 0.490179 0
455 1 0.0411663 0.500053 0
426 1 0.0619697 0.486253 0
456 1 0.0644628 0.51091 0
457 1 0.0850162 0.496551 0
487 1 0.0869817 0.521668 0
428 1 0.104466 0.481372 0
459 1 0.128192 0.490318 0
458 1 0.108229 0.506356 0
489 1 0.130458 0.515766 0
461 1 0.171101 0.484771 0
460 1 0.150799 0.500566 0
462 1 0.173196 0.511564 0
434 1 0.214195 0.480283 0
463 1 0.193556 0.496059 0
464 1 0.216349 0.50619 0
493 1 0.196275 0.520257 0
436 1 0.258052 0.478858 0
465 1 0.236938 0.493209 0
467 1 0.261587 0.503249 0
466 1 0.238207 0.518352 0
438 1 0.282566 0.48963 0
469 1 0.308171 0.497562 0
468 1 0.287899 0.513442 0
440 1 0.328374 0.4814 0
442 1 0.352119 0.489113 0
471 1 0.334313 0.507114 0
473 1 0.359787 0.513785 0
445 1 0.394264 0.477573 0
444 1 0.377188 0.495322 0
475 1 0.400591 0.501275 0
474 1 0.383351 0.520296 0
446 1 0.418336 0.484632 0
477 1 0.425416 0.509502 0
448 1 0.44323 0.491416 0
478 1 0.450039 0.516354 0
450 1 0.484878 0.481252 0
479 1 0.467291 0.498806 0
1381 1 0.492424 0.505155 0
483 1 0.0235351 0.538873 0
482 1 0.00384453 0.554053 0
485 1 0.0444614 0.525382 0
452 1 0.0010394 0.529551 0
513 1 0.027581 0.565039 0
484 1 0.0467647 0.550601 0
486 1 0.0668897 0.536312 0
515 1 0.0702353 0.561835 0
517 1 0.0910192 0.545763 0
488 1 0.110384 0.531588 0
519 1 0.112974 0.556823 0
490 1 0.13364 0.542112 0
491 1 0.153809 0.527034 0
521 1 0.157604 0.550848 0
492 1 0.177163 0.536415 0
523 1 0.180828 0.562635 0
494 1 0.199296 0.547772 0
495 1 0.21839 0.532375 0
525 1 0.222703 0.558024 0
496 1 0.241022 0.542993 0
497 1 0.2603 0.527559 0
527 1 0.263436 0.552839 0
470 1 0.315253 0.52313 0
499 1 0.303402 0.544871 0
498 1 0.281699 0.537795 0
529 1 0.286078 0.561986 0
472 1 0.341476 0.532014 0
501 1 0.326716 0.551557 0
502 1 0.350109 0.557447 0
503 1 0.366977 0.538979 0
505 1 0.391172 0.545291 0
476 1 0.408457 0.527124 0
504 1 0.374327 0.563278 0
506 1 0.415225 0.553133 0
507 1 0.43275 0.534551 0
508 1 0.439634 0.559538 0
480 1 0.4746 0.523165 0
509 1 0.456617 0.541706 0
510 1 0.481489 0.546613 0
1382 1 0.498586 0.528597 0
512 1 0.0296168 0.589718 0
511 1 0.00596169 0.578827 0
541 1 0.00986983 0.604086 0
514 1 0.0501859 0.576265 0
545 1 0.0734783 0.58548 0
543 1 0.0528981 0.600098 0
516 1 0.0932828 0.571767 0
518 1 0.116539 0.582026 0
547 1 0.0950885 0.596494 0
548 1 0.118632 0.606677 0
520 1 0.136733 0.566192 0
549 1 0.138543 0.593115 0
522 1 0.159567 0.57683 0
551 1 0.161804 0.601869 0
553 1 0.181559 0.587508 0
524 1 0.202591 0.573556 0
554 1 0.20466 0.597796 0
555 1 0.225084 0.584988 0
526 1 0.243996 0.568643 0
557 1 0.247746 0.593935 0
528 1 0.266702 0.577914 0
558 1 0.270506 0.60324 0
500 1 0.309058 0.569608 0
559 1 0.290411 0.587217 0
530 1 0.314338 0.593509 0
531 1 0.332648 0.576173 0
532 1 0.338651 0.60005 0
533 1 0.356822 0.582181 0
563 1 0.363074 0.607334 0
534 1 0.381002 0.589212 0
535 1 0.39837 0.570174 0
536 1 0.404564 0.594527 0
537 1 0.422127 0.577446 0
567 1 0.427502 0.602356 0
538 1 0.446307 0.583615 0
568 1 0.452256 0.608044 0
539 1 0.464973 0.56571 0
540 1 0.488473 0.571826 0
569 1 0.46937 0.589808 0
1441 1 0.493924 0.596594 0
542 1 0.0322046 0.615135 0
571 1 0.0122516 0.629678 0
573 1 0.034079 0.640618 0
546 1 0.074824 0.610835 0
544 1 0.054181 0.624945 0
575 1 0.0772499 0.636164 0
574 1 0.0572703 0.650253 0
577 1 0.0977574 0.620981 0
579 1 0.120706 0.631992 0
576 1 0.100497 0.646614 0
550 1 0.14228 0.617493 0
581 1 0.164332 0.627862 0
580 1 0.143409 0.642155 0
552 1 0.184704 0.613487 0
582 1 0.187264 0.638102 0
583 1 0.207264 0.623019 0
584 1 0.210205 0.647946 0
556 1 0.227842 0.609507 0
585 1 0.231136 0.634304 0
586 1 0.257783 0.64466 0
587 1 0.25105 0.618773 0
560 1 0.29409 0.611763 0
589 1 0.276254 0.628525 0
590 1 0.301655 0.635664 0
561 1 0.319943 0.618147 0
562 1 0.344579 0.624384 0
591 1 0.326676 0.642071 0
593 1 0.350247 0.648631 0
565 1 0.386829 0.612696 0
564 1 0.368384 0.631493 0
595 1 0.393741 0.637708 0
566 1 0.410841 0.619378 0
596 1 0.416675 0.644546 0
597 1 0.434589 0.626492 0
599 1 0.440793 0.651269 0
570 1 0.476464 0.615006 0
600 1 0.459478 0.633456 0
1471 1 0.4837 0.639394 0
572 1 0.0144014 0.655221 0
602 1 0.0164059 0.680535 0
603 1 0.0369785 0.664925 0
633 1 0.0392947 0.690147 0
605 1 0.0804002 0.660676 0
604 1 0.0597523 0.675781 0
606 1 0.0828801 0.68543 0
578 1 0.122799 0.657186 0
607 1 0.103042 0.671471 0
608 1 0.126447 0.682465 0
611 1 0.167618 0.651871 0
609 1 0.146634 0.667317 0
610 1 0.169991 0.676708 0
639 1 0.14939 0.691963 0
612 1 0.192151 0.68662 0
613 1 0.190311 0.662274 0
614 1 0.214329 0.671886 0
615 1 0.235896 0.659425 0
616 1 0.241089 0.68443 0
617 1 0.262216 0.670662 0
647 1 0.273448 0.696553 0
588 1 0.282173 0.652874 0
619 1 0.306718 0.659405 0
618 1 0.289322 0.677676 0
620 1 0.313284 0.684431 0
621 1 0.331333 0.666067 0
592 1 0.354544 0.674284 0
622 1 0.337303 0.690824 0
594 1 0.373709 0.655188 0
625 1 0.398208 0.661935 0
623 1 0.379691 0.679398 0
626 1 0.404002 0.686681 0
598 1 0.447357 0.675788 0
627 1 0.423705 0.669261 0
657 1 0.42955 0.694266 0
628 1 0.471266 0.683184 0
629 1 0.464757 0.657845 0
1501 1 0.489474 0.665154 0
630 1 0.496568 0.688738 0
632 1 0.0190802 0.704356 0
663 1 0.0226034 0.729032 0
634 1 0.0426628 0.714679 0
635 1 0.0625291 0.700558 0
636 1 0.0854031 0.711334 0
665 1 0.0647573 0.726111 0
666 1 0.0873484 0.736684 0
637 1 0.105414 0.696283 0
638 1 0.129427 0.707016 0
667 1 0.107582 0.721155 0
669 1 0.130982 0.731575 0
641 1 0.172792 0.701064 0
640 1 0.152253 0.716818 0
671 1 0.175113 0.726499 0
643 1 0.21435 0.696481 0
642 1 0.195341 0.712355 0
644 1 0.217276 0.723416 0
673 1 0.197788 0.738388 0
645 1 0.235023 0.708111 0
675 1 0.239738 0.733229 0
646 1 0.257889 0.715963 0
649 1 0.29672 0.703689 0
648 1 0.280536 0.72235 0
679 1 0.304389 0.728311 0
650 1 0.321711 0.708951 0
651 1 0.345654 0.716462 0
681 1 0.328173 0.733878 0
653 1 0.362387 0.698376 0
624 1 0.386415 0.704022 0
654 1 0.369806 0.722375 0
685 1 0.393885 0.729331 0
655 1 0.411156 0.711261 0
656 1 0.435673 0.718331 0
686 1 0.418251 0.736002 0
658 1 0.453889 0.700023 0
687 1 0.460195 0.724754 0
659 1 0.478663 0.707426 0
689 1 0.484938 0.731318 0
662 1 0.0236464 0.754433 0
691 1 0.00397834 0.769361 0
661 1 0.000816905 0.744124 0
664 1 0.0453907 0.73995 0
694 1 0.046284 0.765895 0
695 1 0.0672537 0.751146 0
696 1 0.0695512 0.775848 0
697 1 0.0892283 0.761743 0
668 1 0.109816 0.746147 0
698 1 0.113049 0.771547 0
699 1 0.132419 0.756365 0
700 1 0.136041 0.78129 0
670 1 0.155513 0.741548 0
701 1 0.156654 0.766415 0
672 1 0.177943 0.753081 0
702 1 0.181078 0.779528 0
674 1 0.220829 0.748193 0
703 1 0.200846 0.764897 0
705 1 0.224887 0.773641 0
677 1 0.263653 0.739995 0
676 1 0.244737 0.756971 0
707 1 0.268592 0.764212 0
735 1 0.251012 0.781508 0
678 1 0.287126 0.747022 0
709 1 0.29177 0.770534 0
680 1 0.31028 0.752071 0
710 1 0.317738 0.776112 0
652 1 0.352495 0.740855 0
682 1 0.359789 0.765197 0
711 1 0.335342 0.758078 0
683 1 0.376661 0.746953 0
713 1 0.384086 0.771358 0
684 1 0.401767 0.753995 0
716 1 0.407362 0.778123 0
717 1 0.443343 0.742313 0
715 1 0.424895 0.759657 0
718 1 0.448929 0.766415 0
1591 1 0.497772 0.780537 0
690 1 0.492034 0.756578 0
688 1 0.467737 0.748414 0
719 1 0.472985 0.773428 0
693 1 0.0259903 0.780938 0
692 1 0.00526933 0.794904 0
722 1 0.002156 0.8243 0
723 1 0.027833 0.808933 0
725 1 0.0478165 0.791117 0
726 1 0.0719996 0.800253 0
755 1 0.0675918 0.825565 0
727 1 0.0929257 0.787533 0
728 1 0.116047 0.797068 0
757 1 0.0950076 0.812754 0
729 1 0.138164 0.804925 0
730 1 0.158845 0.81786 0
731 1 0.160332 0.792962 0
732 1 0.183865 0.805876 0
704 1 0.205024 0.791942 0
734 1 0.223775 0.820843 0
763 1 0.19983 0.826843 0
733 1 0.232235 0.797301 0
736 1 0.25605 0.805893 0
706 1 0.274977 0.788321 0
737 1 0.282362 0.811354 0
708 1 0.299957 0.794432 0
738 1 0.307806 0.817775 0
741 1 0.342258 0.782675 0
739 1 0.325319 0.800239 0
742 1 0.348124 0.807754 0
740 1 0.330891 0.825407 0
712 1 0.366654 0.790015 0
714 1 0.390374 0.796808 0
743 1 0.372848 0.8144 0
745 1 0.396965 0.821363 0
747 1 0.431066 0.783967 0
746 1 0.413986 0.802883 0
748 1 0.437999 0.80833 0
749 1 0.454658 0.791541 0
720 1 0.48045 0.797639 0
750 1 0.462674 0.815119 0
1621 1 0.48674 0.8223 0
753 1 0.0198816 0.841266 0
783 1 0.0145481 0.866346 0
754 1 0.0394165 0.856151 0
724 1 0.0442732 0.830821 0
785 1 0.0627171 0.848996 0
786 1 0.0812794 0.866705 0
756 1 0.0868479 0.842353 0
758 1 0.109912 0.833577 0
787 1 0.104984 0.859207 0
789 1 0.128735 0.851537 0
759 1 0.134478 0.828212 0
760 1 0.153652 0.84271 0
791 1 0.170934 0.860238 0
761 1 0.176812 0.835857 0
790 1 0.147466 0.867922 0
762 1 0.194864 0.853165 0
764 1 0.217975 0.843973 0
793 1 0.213836 0.869868 0
765 1 0.241965 0.836892 0
795 1 0.236939 0.860884 0
766 1 0.261714 0.853483 0
767 1 0.265588 0.829142 0
769 1 0.313866 0.84262 0
768 1 0.289604 0.834489 0
799 1 0.296541 0.859589 0
770 1 0.33815 0.849826 0
771 1 0.356158 0.83176 0
773 1 0.362142 0.858147 0
801 1 0.320536 0.867332 0
744 1 0.379502 0.838961 0
774 1 0.386667 0.862976 0
775 1 0.40413 0.84585 0
777 1 0.420765 0.826915 0
807 1 0.427301 0.851435 0
778 1 0.445325 0.832095 0
809 1 0.451457 0.856777 0
776 1 0.410866 0.870839 0
779 1 0.468959 0.839872 0
780 1 0.475389 0.863872 0
1651 1 0.492383 0.846458 0
812 1 0.0111321 0.891714 0
814 1 0.0305984 0.907529 0
813 1 0.03413 0.881721 0
784 1 0.0569736 0.873455 0
815 1 0.0534049 0.898864 0
816 1 0.0766641 0.89079 0
788 1 0.123939 0.876091 0
817 1 0.10026 0.883475 0
819 1 0.119072 0.899768 0
818 1 0.0951404 0.908123 0
821 1 0.16634 0.884537 0
820 1 0.143489 0.892697 0
851 1 0.161817 0.909357 0
792 1 0.190253 0.8773 0
823 1 0.208533 0.894301 0
822 1 0.185107 0.902286 0
794 1 0.232348 0.886326 0
796 1 0.254839 0.877876 0
827 1 0.252811 0.902802 0
825 1 0.227919 0.910007 0
797 1 0.278059 0.87459 0
798 1 0.283363 0.899133 0
800 1 0.302758 0.884029 0
829 1 0.306425 0.909827 0
831 1 0.32571 0.892919 0
772 1 0.343877 0.873987 0
802 1 0.34965 0.899038 0
803 1 0.368867 0.881632 0
804 1 0.37464 0.90478 0
805 1 0.392538 0.887329 0
835 1 0.400211 0.911759 0
806 1 0.417306 0.893888 0
808 1 0.434996 0.875838 0
839 1 0.441553 0.900353 0
1681 1 0.482208 0.888406 0
810 1 0.45841 0.881661 0
840 1 0.465052 0.906865 0
843 1 0.00706142 0.915697 0
844 1 0.0249022 0.932408 0
875 1 0.0432643 0.949269 0
842 1 0.00156294 0.941197 0
845 1 0.0489613 0.924698 0
846 1 0.0668813 0.940726 0
847 1 0.0719068 0.915094 0
848 1 0.0909146 0.933326 0
849 1 0.115179 0.925474 0
879 1 0.109614 0.949422 0
881 1 0.133465 0.941335 0
850 1 0.138281 0.917373 0
852 1 0.15657 0.934318 0
883 1 0.176641 0.950831 0
853 1 0.180549 0.926333 0
824 1 0.204038 0.918461 0
854 1 0.199678 0.943242 0
855 1 0.222754 0.93504 0
826 1 0.246495 0.927076 0
857 1 0.267336 0.944526 0
856 1 0.242628 0.951671 0
828 1 0.27012 0.919729 0
859 1 0.290814 0.93338 0
830 1 0.314909 0.933786 0
833 1 0.357034 0.92301 0
832 1 0.331837 0.916671 0
861 1 0.338428 0.941576 0
863 1 0.363563 0.948003 0
834 1 0.381205 0.928459 0
865 1 0.404693 0.936283 0
864 1 0.387763 0.954026 0
837 1 0.423538 0.91828 0
836 1 0.429877 0.943749 0
838 1 0.447654 0.925197 0
870 1 0.45431 0.949459 0
1711 1 0.489227 0.913964 0
869 1 0.471844 0.930866 0
1712 1 0.495794 0.937578 0
1741 1 0.478531 0.955102 0
873 1 0.0198664 0.956613 0
3 1 0.0334704 0.998491 0
872 1 0.0150693 0.981304 0
874 1 0.0381498 0.973536 0
877 1 0.0866333 0.957412 0
5 1 0.0571051 0.990211 0
876 1 0.0622855 0.965813 0
7 1 0.0805926 0.981911 0
8 1 0.0997489 0.999055 0
9 1 0.123951 0.991292 0
878 1 0.104834 0.973715 0
880 1 0.129001 0.965129 0
11 1 0.147717 0.983646 0
882 1 0.152826 0.958825 0
13 1 0.171814 0.975821 0
12 1 0.190647 0.992503 0
15 1 0.213004 0.983973 0
884 1 0.194315 0.967626 0
885 1 0.217921 0.959378 0
17 1 0.256692 0.992774 0
887 1 0.238164 0.975315 0
888 1 0.261565 0.968269 0
858 1 0.286199 0.959104 0
19 1 0.281216 0.985301 0
889 1 0.304048 0.976334 0
860 1 0.320942 0.958657 0
862 1 0.34582 0.96579 0
891 1 0.327979 0.983183 0
892 1 0.352916 0.989997 0
23 1 0.377314 0.996173 0
893 1 0.370154 0.971546 0
895 1 0.394264 0.978016 0
896 1 0.419176 0.984782 0
866 1 0.411514 0.960689 0
867 1 0.436872 0.967901 0
897 1 0.443519 0.992446 0
1771 1 0.485376 0.98048 0
868 1 0.461602 0.973921 0
899 1 0.468561 0.99916 0
931 1 0.522267 0.0359733 0
901 1 0.51579 0.0103641 0
902 1 0.538973 0.0177843 0
904 1 0.562525 0.023996 0
906 1 0.580571 0.00702693 0
935 1 0.586551 0.0305996 0
933 1 0.546406 0.0427635 0
908 1 0.605326 0.0124906 0
939 1 0.629123 0.01809 0
937 1 0.610829 0.0367283 0
910 1 0.64665 -0.000301219 0
941 1 0.653368 0.0247298 0
912 1 0.671153 0.0074023 0
942 1 0.677346 0.0321854 0
943 1 0.694499 0.0145225 0
945 1 0.7184 0.0204342 0
944 1 0.700752 0.0389382 0
914 1 0.740799 0.0269264 0
916 1 0.764023 0.0189756 0
915 1 0.739713 0.00194093 0
947 1 0.759495 0.0436138 0
918 1 0.782366 0.0365538 0
919 1 0.807536 0.0287441 0
917 1 0.788955 0.0128508 0
1788 1 0.813026 0.00506564 0
920 1 0.831538 0.0215393 0
922 1 0.849921 0.0378581 0
921 1 0.855676 0.0128471 0
923 1 0.873027 0.0303868 0
924 1 0.89764 0.0221028 0
1792 1 0.878556 0.00503672 0
955 1 0.916454 0.037964 0
925 1 0.922198 0.0132271 0
926 1 0.939591 0.03021 0
928 1 0.945102 0.00512621 0
930 1 0.987052 0.0141015 0
959 1 0.962953 0.022655 0
960 1 0.981812 0.0387324 0
932 1 0.529767 0.0606402 0
961 1 0.512572 0.0781351 0
60 1 0.505136 0.0544573 0
962 1 0.536379 0.0848336 0
963 1 0.553517 0.066702 0
934 1 0.570665 0.0483176 0
965 1 0.577186 0.0726424 0
936 1 0.594506 0.0549278 0
967 1 0.618254 0.0612079 0
966 1 0.601128 0.0802693 0
968 1 0.625239 0.0859691 0
938 1 0.634999 0.0423669 0
969 1 0.642365 0.0683365 0
940 1 0.658985 0.0500213 0
970 1 0.667947 0.0755879 0
971 1 0.684139 0.0577787 0
973 1 0.70868 0.0636064 0
972 1 0.692186 0.0826543 0
975 1 0.727615 0.0478539 0
974 1 0.731328 0.0728989 0
946 1 0.754747 0.0689249 0
977 1 0.773447 0.0849794 0
949 1 0.80183 0.0528627 0
948 1 0.777553 0.06074 0
979 1 0.798283 0.0768325 0
951 1 0.826036 0.0455551 0
950 1 0.821503 0.0690945 0
980 1 0.839278 0.0866741 0
952 1 0.844969 0.0616773 0
981 1 0.864061 0.0790295 0
954 1 0.892252 0.0457092 0
953 1 0.868232 0.0547643 0
983 1 0.88708 0.0706051 0
985 1 0.910454 0.0622777 0
956 1 0.93389 0.0547627 0
986 1 0.928428 0.0794731 0
987 1 0.952754 0.0711161 0
957 1 0.957287 0.0469542 0
958 1 0.975426 0.0631074 0
989 1 0.994116 0.0795374 0
61 1 1.00051 0.055736 0
991 1 0.518509 0.103383 0
993 1 0.542915 0.108906 0
992 1 0.525563 0.128109 0
120 1 0.500988 0.120945 0
964 1 0.560421 0.0912063 0
994 1 0.56698 0.115111 0
995 1 0.584364 0.0972666 0
996 1 0.591074 0.122302 0
997 1 0.607632 0.103328 0
998 1 0.631151 0.111061 0
1027 1 0.615187 0.129337 0
999 1 0.649208 0.093103 0
1000 1 0.654917 0.11782 0
1001 1 0.672675 0.100233 0
1031 1 0.680068 0.124766 0
1002 1 0.696807 0.107101 0
1003 1 0.715819 0.0904361 0
1004 1 0.721173 0.114248 0
976 1 0.767049 0.108337 0
1005 1 0.748144 0.0921464 0
1035 1 0.74535 0.118523 0
978 1 0.816138 0.0933513 0
1007 1 0.791257 0.101522 0
1006 1 0.784912 0.125979 0
1008 1 0.809791 0.117265 0
1009 1 0.834046 0.110632 0
1010 1 0.851357 0.127634 0
1011 1 0.857554 0.103447 0
984 1 0.905046 0.0874632 0
982 1 0.881753 0.0961033 0
1012 1 0.876331 0.120322 0
1013 1 0.900505 0.112821 0
1016 1 0.919154 0.128928 0
1017 1 0.946703 0.0958513 0
1015 1 0.923649 0.104444 0
1047 1 0.942634 0.121485 0
988 1 0.970397 0.088603 0
1018 1 0.966003 0.112198 0
1019 1 0.989136 0.104616 0
1020 1 0.984418 0.129826 0
1022 1 0.532437 0.152309 0
1021 1 0.508348 0.146555 0
1051 1 0.515336 0.170175 0
1023 1 0.549574 0.133647 0
1024 1 0.556193 0.158882 0
1025 1 0.573845 0.140405 0
1055 1 0.580917 0.165466 0
1026 1 0.597894 0.146901 0
1028 1 0.621032 0.154376 0
1057 1 0.605056 0.172483 0
1029 1 0.639005 0.136562 0
1059 1 0.644653 0.160529 0
1030 1 0.662509 0.142358 0
1061 1 0.668898 0.166424 0
1032 1 0.68674 0.14753 0
1033 1 0.704001 0.130972 0
1063 1 0.710337 0.155153 0
1062 1 0.69297 0.173279 0
1034 1 0.728251 0.137463 0
1036 1 0.753162 0.143267 0
1065 1 0.734149 0.161274 0
1066 1 0.757552 0.168473 0
1067 1 0.778166 0.15217 0
1037 1 0.803691 0.141172 0
1038 1 0.799219 0.16473 0
1039 1 0.828364 0.135463 0
1040 1 0.823692 0.158952 0
1041 1 0.847326 0.151947 0
1042 1 0.865368 0.168691 0
1014 1 0.894121 0.137122 0
1043 1 0.869986 0.143909 0
1044 1 0.888763 0.160708 0
1045 1 0.913517 0.15295 0
1046 1 0.937146 0.146619 0
1077 1 0.931817 0.170036 0
1048 1 0.955775 0.16246 0
1049 1 0.961125 0.13701 0
1050 1 0.979528 0.154608 0
151 1 0.998447 0.170686 0
1053 1 0.53932 0.17655 0
1052 1 0.52147 0.193795 0
1081 1 0.503327 0.211584 0
1083 1 0.545915 0.2011 0
1054 1 0.563334 0.18315 0
1056 1 0.587071 0.18932 0
1085 1 0.570417 0.208483 0
1058 1 0.628589 0.178923 0
1087 1 0.61076 0.197164 0
1089 1 0.634998 0.202559 0
1086 1 0.593598 0.214031 0
1060 1 0.652685 0.184549 0
1091 1 0.676593 0.191413 0
1090 1 0.659357 0.209228 0
1093 1 0.700439 0.197425 0
1064 1 0.717313 0.180071 0
1094 1 0.723565 0.203668 0
1092 1 0.683106 0.216135 0
1095 1 0.741094 0.186485 0
1097 1 0.764124 0.195879 0
1096 1 0.747824 0.213096 0
1068 1 0.779417 0.177727 0
1098 1 0.788327 0.200858 0
1099 1 0.811501 0.207558 0
1069 1 0.816289 0.182865 0
1071 1 0.840864 0.176262 0
1070 1 0.835394 0.200785 0
1072 1 0.859549 0.193026 0
1101 1 0.853884 0.217631 0
1075 1 0.907182 0.177641 0
1073 1 0.883706 0.18472 0
1103 1 0.878317 0.209652 0
1074 1 0.902527 0.202448 0
1078 1 0.950652 0.187285 0
1076 1 0.926538 0.194225 0
1107 1 0.944107 0.210967 0
1079 1 0.974496 0.178527 0
1109 1 0.969577 0.201817 0
181 1 0.99247 0.194293 0
1082 1 0.527764 0.21856 0
1111 1 0.510631 0.236536 0
1113 1 0.534369 0.242941 0
1084 1 0.552188 0.224913 0
1114 1 0.557801 0.248968 0
1115 1 0.575833 0.232253 0
1116 1 0.582202 0.255554 0
1088 1 0.617926 0.2206 0
1117 1 0.5996 0.238089 0
1118 1 0.624913 0.24453 0
1119 1 0.64147 0.226119 0
1121 1 0.665832 0.23415 0
1120 1 0.6485 0.251672 0
1151 1 0.672116 0.258843 0
1122 1 0.690006 0.239658 0
1123 1 0.70719 0.222787 0
1124 1 0.712984 0.247458 0
1127 1 0.771764 0.220782 0
1125 1 0.731364 0.23114 0
1126 1 0.75492 0.238269 0
1155 1 0.736945 0.255429 0
1129 1 0.795933 0.225622 0
1128 1 0.77921 0.244067 0
1159 1 0.803043 0.250198 0
1100 1 0.829121 0.226535 0
1130 1 0.826656 0.250262 0
1131 1 0.849465 0.241388 0
1132 1 0.866031 0.259148 0
1102 1 0.872503 0.234278 0
1104 1 0.89627 0.227283 0
1133 1 0.889592 0.251102 0
1105 1 0.920758 0.219071 0
1135 1 0.914619 0.243587 0
1106 1 0.939837 0.235939 0
1136 1 0.933498 0.260195 0
1110 1 0.98765 0.217925 0
1137 1 0.958956 0.251565 0
1108 1 0.963092 0.226123 0
1139 1 0.981982 0.242805 0
1169 1 1.00018 0.260021 0