ITEM: TIMESTEP
158000
ITEM: NUMBER OF ATOMS
1800
ITEM: BOX BOUNDS pp pp pp
1.3265248902045812e+00 1.6367347510979101e+02
1.3265248902045812e+00 1.6367347510979101e+02
0.0000000000000000e+00 5.5000000000000000e+00
ITEM: ATOMS id type xs ys zs
2 1 0.0108383 0.0067849 0
33 1 0.0298763 0.0229237 0
31 1 0.0060756 0.0301772 0
4 1 0.0527294 0.0150072 0
6 1 0.0762272 0.00690763 0
35 1 0.0717242 0.0311068 0
34 1 0.047244 0.0398095 0
37 1 0.0953608 0.0236172 0
39 1 0.118878 0.0154825 0
38 1 0.113997 0.0405794 0
40 1 0.137756 0.0322062 0
10 1 0.142489 0.00781952 0
42 1 0.161261 0.0240662 0
73 1 0.180454 0.041635 0
43 1 0.185515 0.0170846 0
14 1 0.209232 0.00992588 0
44 1 0.204575 0.0342051 0
45 1 0.227557 0.0269749 0
16 1 0.251852 0.0195009 0
886 1 0.233278 0.00319935 0
46 1 0.270269 0.0369621 0
18 1 0.277069 0.0133009 0
49 1 0.293819 0.0299902 0
20 1 0.300863 0.00565945 0
51 1 0.318304 0.0272598 0
22 1 0.342433 0.032084 0
21 1 0.358402 0.014697 0
890 1 0.333562 0.00689213 0
24 1 0.383181 0.0210027 0
53 1 0.365873 0.0386609 0
894 1 0.400674 0.00283447 0
25 1 0.408105 0.0274947 0
26 1 0.430618 0.0341344 0
27 1 0.424594 0.00943172 0
898 1 0.448897 0.0158268 0
28 1 0.455063 0.0399954 0
29 1 0.473068 0.0219292 0
900 1 0.489548 0.00328386 0
30 1 0.497384 0.0285796 0
32 1 0.024395 0.0480322 0
62 1 0.0199269 0.0721203 0
63 1 0.0429562 0.0644057 0
61 1 0.0009091 0.0551395 0
65 1 0.0656053 0.0559728 0
66 1 0.0853126 0.0729946 0
64 1 0.0617561 0.081293 0
36 1 0.0892796 0.0479218 0
67 1 0.108689 0.0638579 0
69 1 0.132628 0.057324 0
68 1 0.127301 0.0816392 0
71 1 0.156385 0.0480805 0
72 1 0.174878 0.0654622 0
70 1 0.15181 0.0739406 0
74 1 0.223416 0.0518649 0
103 1 0.199735 0.0585138 0
105 1 0.217344 0.0755608 0
101 1 0.19253 0.0828649 0
75 1 0.247001 0.0435033 0
77 1 0.265714 0.0608467 0
76 1 0.242416 0.0687099 0
137 1 0.260192 0.0855423 0
47 1 0.289516 0.0541538 0
48 1 0.308673 0.0705704 0
78 1 0.283888 0.0776072 0
50 1 0.325072 0.0513401 0
81 1 0.332703 0.0749771 0
52 1 0.349134 0.0576803 0
82 1 0.356466 0.0817932 0
55 1 0.390625 0.0456324 0
83 1 0.372517 0.0636169 0
54 1 0.396083 0.069533 0
57 1 0.438926 0.0588877 0
85 1 0.42073 0.0764088 0
56 1 0.414666 0.0521214 0
87 1 0.444822 0.0827018 0
59 1 0.479314 0.0470534 0
58 1 0.462703 0.0648915 0
89 1 0.486436 0.0714425 0
93 1 0.0381476 0.090047 0
990 1 0.0145415 0.0961191 0
92 1 0.0330907 0.114041 0
91 1 0.00853943 0.121475 0
94 1 0.0574122 0.10653 0
95 1 0.0802443 0.0983432 0
125 1 0.0749941 0.124253 0
96 1 0.0981625 0.114694 0
97 1 0.103566 0.0895319 0
98 1 0.121834 0.106498 0
99 1 0.145938 0.0995007 0
100 1 0.16975 0.0920096 0
130 1 0.164463 0.116776 0
129 1 0.140172 0.123277 0
131 1 0.18807 0.108507 0
102 1 0.211141 0.100714 0
133 1 0.206378 0.125529 0
104 1 0.228846 0.117702 0
106 1 0.235224 0.0941717 0
135 1 0.254393 0.110671 0
107 1 0.277663 0.101712 0
109 1 0.299381 0.111282 0
79 1 0.316049 0.0936839 0
108 1 0.281156 0.127481 0
80 1 0.338808 0.0995218 0
110 1 0.322996 0.117602 0
141 1 0.34643 0.124289 0
111 1 0.363348 0.105577 0
113 1 0.380331 0.0876855 0
84 1 0.40461 0.0942312 0
112 1 0.387639 0.112393 0
115 1 0.411337 0.117931 0
86 1 0.428472 0.100919 0
116 1 0.434267 0.125498 0
117 1 0.451389 0.107372 0
88 1 0.470158 0.090461 0
90 1 0.494068 0.0973191 0
119 1 0.476452 0.114781 0
122 1 0.0276483 0.139574 0
152 1 0.0220276 0.163561 0
121 1 0.00408675 0.146335 0
123 1 0.0512769 0.131113 0
153 1 0.0469967 0.156389 0
124 1 0.0701347 0.147817 0
155 1 0.0887796 0.164276 0
154 1 0.064646 0.173142 0
127 1 0.116686 0.132016 0
126 1 0.093829 0.140296 0
128 1 0.135426 0.148574 0
157 1 0.11197 0.15675 0
158 1 0.130651 0.173458 0
159 1 0.158032 0.139959 0
161 1 0.177277 0.157391 0
160 1 0.154123 0.165287 0
132 1 0.182011 0.133475 0
163 1 0.201364 0.150581 0
134 1 0.224467 0.14292 0
193 1 0.219452 0.167528 0
136 1 0.266622 0.14718 0
165 1 0.246616 0.134413 0
164 1 0.244775 0.161322 0
167 1 0.270036 0.170579 0
139 1 0.305708 0.135531 0
138 1 0.289407 0.153283 0
169 1 0.312029 0.160098 0
140 1 0.329194 0.141849 0
142 1 0.353131 0.148915 0
171 1 0.334805 0.166249 0
172 1 0.359388 0.172774 0
143 1 0.370795 0.131075 0
114 1 0.394029 0.137776 0
173 1 0.377081 0.154752 0
144 1 0.401027 0.16198 0
145 1 0.418561 0.143864 0
146 1 0.42448 0.169209 0
147 1 0.441583 0.149914 0
118 1 0.459095 0.132112 0
149 1 0.4831 0.138948 0
148 1 0.465037 0.157512 0
150 1 0.489952 0.163506 0
183 1 0.0411299 0.180565 0
182 1 0.0363825 0.205088 0
1080 1 0.0175253 0.188052 0
211 1 0.0122025 0.213054 0
184 1 0.0597203 0.19715 0
185 1 0.0841981 0.190222 0
215 1 0.079343 0.21532 0
186 1 0.102452 0.206485 0
156 1 0.107442 0.182277 0
187 1 0.126127 0.198816 0
189 1 0.149833 0.190269 0
191 1 0.172905 0.181733 0
190 1 0.167691 0.205915 0
188 1 0.145132 0.215998 0
162 1 0.195093 0.173855 0
221 1 0.193126 0.211071 0
192 1 0.212191 0.194564 0
195 1 0.235277 0.203881 0
166 1 0.251869 0.186112 0
196 1 0.258766 0.211047 0
168 1 0.293918 0.177051 0
197 1 0.276972 0.19373 0
199 1 0.30071 0.201356 0
170 1 0.317679 0.184425 0
201 1 0.341649 0.1908 0
200 1 0.325057 0.208789 0
202 1 0.349471 0.216184 0
203 1 0.365589 0.197257 0
174 1 0.383357 0.179169 0
204 1 0.389567 0.204377 0
175 1 0.406721 0.186104 0
177 1 0.449143 0.17522 0
205 1 0.41377 0.211713 0
176 1 0.430834 0.193161 0
178 1 0.454166 0.198748 0
179 1 0.472353 0.181218 0
180 1 0.496116 0.187309 0
209 1 0.478208 0.206168 0
212 1 0.0303703 0.229375 0
241 1 0.0234634 0.253456 0
1140 1 0.0058512 0.236997 0
243 1 0.0489863 0.244881 0
213 1 0.0550637 0.22168 0
214 1 0.0730277 0.239252 0
245 1 0.0913205 0.258159 0
216 1 0.0968065 0.232757 0
217 1 0.119618 0.223125 0
247 1 0.115764 0.250747 0
218 1 0.137051 0.238937 0
219 1 0.160237 0.247978 0
220 1 0.176916 0.22953 0
222 1 0.183049 0.25487 0
194 1 0.21725 0.219686 0
223 1 0.199917 0.237819 0
224 1 0.223881 0.24513 0
225 1 0.24085 0.22816 0
227 1 0.265578 0.236156 0
226 1 0.247495 0.253179 0
198 1 0.282211 0.217461 0
228 1 0.289267 0.244403 0
229 1 0.304847 0.226439 0
230 1 0.312697 0.251033 0
231 1 0.331502 0.232923 0
232 1 0.354763 0.240643 0
261 1 0.336588 0.258472 0
233 1 0.372608 0.222557 0
234 1 0.37784 0.247622 0
235 1 0.395294 0.229393 0
265 1 0.402009 0.253904 0
207 1 0.438188 0.217309 0
206 1 0.420322 0.235355 0
237 1 0.444197 0.242238 0
236 1 0.425937 0.259496 0
208 1 0.46105 0.223052 0
210 1 0.485345 0.229886 0
239 1 0.468563 0.247429 0
240 1 0.492962 0.254594 0
1169 1 7.25407e-05 0.262435 0
242 1 0.0427041 0.268067 0
271 1 0.038128 0.291431 0
1170 1 0.0183226 0.278004 0
1200 1 0.0166568 0.304095 0
244 1 0.0666964 0.263436 0
273 1 0.061381 0.299527 0
275 1 0.0809603 0.283424 0
246 1 0.10305 0.293949 0
248 1 0.11976 0.27506 0
279 1 0.126429 0.302367 0
249 1 0.14061 0.263156 0
251 1 0.164928 0.272442 0
250 1 0.145709 0.287204 0
281 1 0.168881 0.29689 0
253 1 0.206466 0.262432 0
252 1 0.187858 0.279858 0
254 1 0.21144 0.287964 0
255 1 0.230117 0.270832 0
257 1 0.271186 0.261848 0
256 1 0.252642 0.278754 0
285 1 0.234318 0.295408 0
287 1 0.258291 0.303685 0
259 1 0.295095 0.268442 0
258 1 0.276526 0.286177 0
289 1 0.301017 0.29317 0
260 1 0.319214 0.276154 0
263 1 0.359814 0.264019 0
262 1 0.342144 0.282974 0
291 1 0.324091 0.300633 0
293 1 0.365503 0.288084 0
264 1 0.383506 0.272074 0
295 1 0.390807 0.295716 0
266 1 0.407751 0.277578 0
238 1 0.450228 0.265653 0
267 1 0.431249 0.283944 0
297 1 0.414909 0.301793 0
268 1 0.456274 0.290538 0
1141 1 0.498862 0.279332 0
269 1 0.474391 0.271923 0
270 1 0.480981 0.29801 0
301 1 0.0219742 0.328939 0
1230 1 0.00329711 0.34562 0
272 1 0.0423494 0.315025 0
303 1 0.0459992 0.33912 0
276 1 0.0837299 0.309163 0
274 1 0.0653174 0.323989 0
305 1 0.088275 0.333384 0
277 1 0.107547 0.317991 0
278 1 0.130609 0.32677 0
307 1 0.111975 0.34322 0
280 1 0.149726 0.311913 0
311 1 0.153564 0.337185 0
282 1 0.174041 0.321476 0
312 1 0.177438 0.346223 0
283 1 0.192503 0.305195 0
284 1 0.216324 0.313265 0
313 1 0.197823 0.329578 0
315 1 0.221082 0.338589 0
286 1 0.239622 0.322157 0
317 1 0.26364 0.328851 0
316 1 0.244706 0.347012 0
288 1 0.282044 0.311119 0
318 1 0.287325 0.336224 0
290 1 0.305164 0.318628 0
319 1 0.311386 0.342304 0
292 1 0.348445 0.307368 0
321 1 0.329805 0.325397 0
323 1 0.353671 0.330871 0
324 1 0.378548 0.338179 0
294 1 0.37324 0.311916 0
325 1 0.403307 0.343795 0
296 1 0.39667 0.320013 0
298 1 0.439203 0.308928 0
327 1 0.420632 0.326196 0
328 1 0.444448 0.332864 0
329 1 0.469291 0.339955 0
299 1 0.463332 0.315763 0
300 1 0.486899 0.321851 0
1201 1 0.493144 0.346856 0
302 1 0.0257206 0.355098 0
332 1 0.0294608 0.379186 0
331 1 0.00546977 0.36955 0
304 1 0.069168 0.348504 0
333 1 0.0491506 0.363476 0
335 1 0.0725862 0.372853 0
334 1 0.0524013 0.387535 0
306 1 0.092421 0.358332 0
337 1 0.0956507 0.38244 0
308 1 0.115687 0.368158 0
309 1 0.134635 0.352758 0
339 1 0.13949 0.377576 0
310 1 0.158373 0.361978 0
341 1 0.163191 0.386707 0
343 1 0.182503 0.370708 0
314 1 0.201931 0.35453 0
344 1 0.206611 0.380337 0
345 1 0.226342 0.364425 0
375 1 0.229529 0.390004 0
347 1 0.268889 0.354021 0
346 1 0.251106 0.373103 0
377 1 0.274986 0.377712 0
349 1 0.292427 0.360673 0
348 1 0.300772 0.384426 0
320 1 0.335904 0.34897 0
350 1 0.318503 0.366997 0
351 1 0.342997 0.371907 0
322 1 0.361454 0.355704 0
381 1 0.32699 0.390078 0
353 1 0.366607 0.379163 0
355 1 0.385078 0.362523 0
354 1 0.391788 0.386657 0
356 1 0.408516 0.368753 0
326 1 0.426676 0.350125 0
357 1 0.433675 0.375225 0
359 1 0.451139 0.357177 0
358 1 0.45714 0.381171 0
330 1 0.476663 0.364343 0
360 1 0.48205 0.38927 0
1231 1 0.500313 0.371003 0
361 1 0.00801684 0.392807 0
363 1 0.0318267 0.403336 0
362 1 0.0103616 0.416724 0
364 1 0.0342125 0.426814 0
336 1 0.0756885 0.396636 0
365 1 0.0553733 0.410971 0
366 1 0.0776522 0.421721 0
338 1 0.118902 0.39284 0
367 1 0.0985299 0.406433 0
369 1 0.121826 0.417132 0
368 1 0.100715 0.4311 0
340 1 0.143349 0.402603 0
370 1 0.143757 0.427418 0
371 1 0.165492 0.412315 0
342 1 0.186223 0.39572 0
372 1 0.188631 0.421609 0
373 1 0.209276 0.405586 0
403 1 0.210796 0.430373 0
374 1 0.231829 0.415676 0
376 1 0.256249 0.39883 0
405 1 0.254842 0.42422 0
378 1 0.28154 0.40182 0
379 1 0.310612 0.407523 0
409 1 0.292352 0.423516 0
410 1 0.316121 0.432226 0
352 1 0.350696 0.397083 0
382 1 0.358295 0.422037 0
380 1 0.333735 0.415251 0
383 1 0.375065 0.404013 0
385 1 0.398328 0.411203 0
384 1 0.382483 0.428704 0
415 1 0.404888 0.436413 0
387 1 0.415952 0.392251 0
386 1 0.422561 0.418198 0
388 1 0.440486 0.399387 0
419 1 0.447307 0.424128 0
389 1 0.464829 0.405913 0
1261 1 0.488686 0.413909 0
390 1 0.471078 0.431511 0
393 1 0.0131258 0.441566 0
423 1 0.0162455 0.46635 0
394 1 0.0367285 0.451211 0
425 1 0.0390993 0.477349 0
395 1 0.0566009 0.435438 0
396 1 0.05906 0.462051 0
397 1 0.0810595 0.446772 0
427 1 0.0819714 0.472089 0
399 1 0.122627 0.442166 0
398 1 0.102551 0.457688 0
429 1 0.1245 0.467698 0
401 1 0.165987 0.437146 0
400 1 0.145695 0.452547 0
431 1 0.168913 0.461134 0
430 1 0.148348 0.476559 0
402 1 0.18901 0.447011 0
433 1 0.211302 0.455997 0
432 1 0.190644 0.472059 0
404 1 0.233124 0.440336 0
406 1 0.25412 0.453064 0
435 1 0.233796 0.466099 0
436 1 0.256682 0.477211 0
407 1 0.273733 0.439077 0
437 1 0.27718 0.462923 0
408 1 0.297689 0.448682 0
439 1 0.300363 0.473084 0
441 1 0.321751 0.4567 0
411 1 0.340996 0.439588 0
412 1 0.346475 0.464499 0
413 1 0.36402 0.446799 0
414 1 0.387581 0.453951 0
443 1 0.369747 0.471358 0
445 1 0.393702 0.477997 0
416 1 0.412104 0.459911 0
417 1 0.429295 0.442103 0
447 1 0.436422 0.466668 0
418 1 0.452845 0.449408 0
1291 1 0.494512 0.437921 0
420 1 0.477848 0.456282 0
449 1 0.460754 0.473169 0
454 1 0.019895 0.515978 0
424 1 0.01805 0.490969 0
455 1 0.0418038 0.501884 0
426 1 0.0619006 0.487725 0
456 1 0.064179 0.511826 0
457 1 0.0844357 0.497766 0
487 1 0.0880306 0.522648 0
428 1 0.104315 0.482877 0
459 1 0.127468 0.49175 0
458 1 0.107112 0.507632 0
489 1 0.13044 0.517502 0
461 1 0.170657 0.486601 0
460 1 0.150302 0.501664 0
462 1 0.172962 0.511308 0
434 1 0.21373 0.480718 0
463 1 0.192943 0.496018 0
464 1 0.214964 0.505483 0
493 1 0.195338 0.521521 0
465 1 0.236691 0.4917 0
467 1 0.260185 0.501442 0
466 1 0.23832 0.516765 0
438 1 0.279934 0.487766 0
469 1 0.305442 0.496436 0
468 1 0.28609 0.512072 0
470 1 0.310708 0.521184 0
440 1 0.325733 0.481446 0
442 1 0.351363 0.489923 0
471 1 0.331906 0.506341 0
473 1 0.357834 0.514161 0
444 1 0.375666 0.496997 0
475 1 0.400465 0.502588 0
474 1 0.382113 0.520476 0
446 1 0.418089 0.483736 0
477 1 0.42427 0.509659 0
448 1 0.442925 0.491301 0
478 1 0.448107 0.515811 0
450 1 0.48458 0.480435 0
479 1 0.466901 0.498197 0
1381 1 0.491168 0.504331 0
483 1 0.0230002 0.540284 0
482 1 0.0010059 0.555394 0
485 1 0.0434728 0.526223 0
513 1 0.0264191 0.566176 0
484 1 0.0465816 0.551392 0
486 1 0.0664731 0.536962 0
515 1 0.0702997 0.561026 0
517 1 0.0907903 0.546964 0
488 1 0.110248 0.532409 0
519 1 0.113267 0.556759 0
490 1 0.133517 0.542077 0
491 1 0.153837 0.527429 0
521 1 0.156069 0.55236 0
492 1 0.176401 0.537424 0
523 1 0.178818 0.562234 0
494 1 0.199346 0.546644 0
495 1 0.218588 0.531434 0
525 1 0.221443 0.558159 0
496 1 0.240747 0.541559 0
497 1 0.260929 0.525749 0
527 1 0.263626 0.551585 0
499 1 0.304027 0.545006 0
498 1 0.2827 0.536214 0
529 1 0.286975 0.56103 0
472 1 0.339929 0.531624 0
501 1 0.327175 0.552762 0
502 1 0.350876 0.558234 0
503 1 0.365216 0.538183 0
505 1 0.389152 0.544586 0
476 1 0.407425 0.526859 0
504 1 0.374093 0.564489 0
506 1 0.413761 0.551426 0
507 1 0.431288 0.534252 0
508 1 0.438639 0.558575 0
480 1 0.472936 0.522242 0
509 1 0.455241 0.541342 0
510 1 0.479217 0.547096 0
1382 1 0.497769 0.529646 0
539 1 0.463082 0.565078 0
512 1 0.0290679 0.590291 0
511 1 0.00592752 0.57959 0
541 1 0.00805535 0.604621 0
514 1 0.0489346 0.575686 0
545 1 0.0712529 0.585567 0
543 1 0.0516977 0.600789 0
516 1 0.0933643 0.571938 0
518 1 0.116163 0.583139 0
547 1 0.0950147 0.597263 0
548 1 0.118219 0.608714 0
520 1 0.135714 0.56732 0
549 1 0.13831 0.593111 0
522 1 0.158936 0.578011 0
551 1 0.161448 0.602883 0
553 1 0.181826 0.587069 0
524 1 0.201307 0.571872 0
554 1 0.205075 0.597629 0
555 1 0.224369 0.582932 0
526 1 0.244119 0.566545 0
557 1 0.247511 0.592129 0
528 1 0.267578 0.575678 0
558 1 0.270561 0.601833 0
556 1 0.228831 0.608082 0
500 1 0.308882 0.56944 0
559 1 0.289885 0.58693 0
530 1 0.314419 0.592661 0
531 1 0.333367 0.576033 0
532 1 0.337603 0.600016 0
533 1 0.35648 0.582577 0
563 1 0.362162 0.606065 0
534 1 0.380834 0.587832 0
535 1 0.397595 0.56988 0
536 1 0.404406 0.594798 0
537 1 0.42167 0.575568 0
567 1 0.42878 0.60118 0
538 1 0.445132 0.581954 0
568 1 0.452516 0.607615 0
540 1 0.486878 0.57069 0
569 1 0.468873 0.588693 0
1441 1 0.493657 0.595162 0
542 1 0.0315971 0.615268 0
571 1 0.0109837 0.630245 0
573 1 0.034222 0.640498 0
546 1 0.0744591 0.610416 0
544 1 0.0537813 0.626025 0
575 1 0.0764585 0.635554 0
574 1 0.0564073 0.650905 0
577 1 0.0976539 0.62242 0
579 1 0.120581 0.633241 0
576 1 0.0998842 0.646824 0
550 1 0.141233 0.619055 0
581 1 0.165013 0.627405 0
580 1 0.143798 0.642713 0
552 1 0.184418 0.613292 0
582 1 0.188057 0.638289 0
583 1 0.207962 0.622052 0
584 1 0.21126 0.647239 0
585 1 0.23175 0.632312 0
586 1 0.255454 0.643177 0
587 1 0.252232 0.618082 0
560 1 0.294413 0.610811 0
589 1 0.275252 0.628083 0
590 1 0.300643 0.63492 0
588 1 0.281028 0.652474 0
561 1 0.318874 0.616894 0
562 1 0.343331 0.624026 0
591 1 0.324345 0.641536 0
593 1 0.34988 0.646546 0
565 1 0.386403 0.612008 0
564 1 0.368222 0.630417 0
595 1 0.392478 0.636317 0
566 1 0.411318 0.619374 0
596 1 0.41583 0.64397 0
597 1 0.435013 0.625237 0
599 1 0.441582 0.649659 0
570 1 0.4766 0.613089 0
600 1 0.458756 0.631828 0
1471 1 0.482487 0.638001 0
1442 1 0.500576 0.619848 0
572 1 0.0139265 0.6556 0
602 1 0.016723 0.680908 0
603 1 0.0360451 0.665855 0
633 1 0.0389547 0.691282 0
605 1 0.0794023 0.661244 0
604 1 0.0587507 0.676214 0
606 1 0.0817253 0.686565 0
578 1 0.121664 0.658388 0
607 1 0.102027 0.671466 0
608 1 0.123674 0.682571 0
611 1 0.166578 0.652207 0
609 1 0.144835 0.667055 0
610 1 0.167846 0.676199 0
639 1 0.146335 0.691593 0
612 1 0.190161 0.68912 0
613 1 0.1905 0.663424 0
614 1 0.21364 0.672328 0
615 1 0.234277 0.657107 0
616 1 0.237381 0.681707 0
617 1 0.262396 0.669322 0
647 1 0.271174 0.693772 0
619 1 0.307331 0.658575 0
618 1 0.288276 0.676178 0
620 1 0.313268 0.682807 0
621 1 0.331734 0.665587 0
592 1 0.356489 0.671781 0
622 1 0.338619 0.690181 0
594 1 0.374897 0.654677 0
625 1 0.398898 0.660811 0
623 1 0.379771 0.679574 0
626 1 0.405728 0.686671 0
598 1 0.447618 0.673814 0
627 1 0.423745 0.667837 0
657 1 0.429834 0.692786 0
628 1 0.471009 0.680856 0
629 1 0.464958 0.656029 0
1501 1 0.490118 0.662167 0
630 1 0.495323 0.687409 0
632 1 0.0190384 0.706387 0
663 1 0.0208596 0.730896 0
634 1 0.0414867 0.716217 0
635 1 0.0616163 0.701486 0
636 1 0.0846693 0.711842 0
665 1 0.0640899 0.726584 0
666 1 0.0867679 0.737232 0
637 1 0.104385 0.697304 0
638 1 0.127046 0.707783 0
667 1 0.106238 0.721572 0
669 1 0.129386 0.732655 0
641 1 0.168654 0.701688 0
640 1 0.14942 0.718012 0
671 1 0.172077 0.727361 0
643 1 0.213394 0.696694 0
642 1 0.192889 0.713183 0
644 1 0.215904 0.722124 0
673 1 0.195962 0.737191 0
645 1 0.235267 0.707136 0
675 1 0.2393 0.731749 0
646 1 0.257655 0.713383 0
677 1 0.26399 0.737731 0
649 1 0.295861 0.700204 0
648 1 0.281206 0.71921 0
679 1 0.305164 0.725881 0
650 1 0.321022 0.707785 0
651 1 0.345417 0.714787 0
681 1 0.328173 0.732982 0
653 1 0.362236 0.696523 0
624 1 0.387169 0.703027 0
654 1 0.36965 0.720233 0
685 1 0.393537 0.727035 0
655 1 0.412423 0.710781 0
656 1 0.435969 0.716917 0
686 1 0.418259 0.735022 0
658 1 0.454044 0.698451 0
687 1 0.460523 0.722991 0
659 1 0.478221 0.70525 0
689 1 0.484036 0.729163 0
662 1 0.0229106 0.755915 0
691 1 0.00308081 0.769776 0
661 1 0.00129745 0.744266 0
693 1 0.0249107 0.782575 0
664 1 0.0428964 0.741461 0
694 1 0.0445682 0.767762 0
695 1 0.0662286 0.75237 0
696 1 0.0678058 0.777576 0
697 1 0.088405 0.762771 0
668 1 0.109305 0.747174 0
698 1 0.1124 0.772356 0
699 1 0.133131 0.757559 0
700 1 0.13524 0.781383 0
670 1 0.152832 0.74296 0
701 1 0.157372 0.767877 0
672 1 0.177165 0.752434 0
702 1 0.181542 0.779913 0
674 1 0.219016 0.747218 0
703 1 0.19966 0.76314 0
705 1 0.223882 0.772654 0
676 1 0.242629 0.755871 0
707 1 0.267899 0.762134 0
735 1 0.249035 0.78076 0
678 1 0.287795 0.743473 0
709 1 0.292109 0.768379 0
680 1 0.310529 0.751112 0
710 1 0.316439 0.775144 0
652 1 0.351373 0.740205 0
682 1 0.359451 0.763964 0
711 1 0.335208 0.758268 0
741 1 0.342288 0.78238 0
683 1 0.376223 0.744974 0
713 1 0.383964 0.770973 0
684 1 0.400026 0.752974 0
716 1 0.408081 0.776896 0
717 1 0.443606 0.740551 0
715 1 0.42514 0.759165 0
718 1 0.448783 0.765223 0
1591 1 0.497187 0.778359 0
690 1 0.490914 0.753445 0
688 1 0.466437 0.748075 0
719 1 0.472659 0.772189 0
692 1 0.0052858 0.797198 0
722 1 0.0033019 0.822573 0
723 1 0.0249479 0.811363 0
725 1 0.0463855 0.79375 0
726 1 0.0698953 0.80231 0
727 1 0.0912257 0.788492 0
728 1 0.116278 0.797235 0
757 1 0.0932206 0.816856 0
729 1 0.139121 0.804695 0
730 1 0.160686 0.817291 0
731 1 0.160092 0.792701 0
732 1 0.18356 0.805434 0
704 1 0.203939 0.789457 0
734 1 0.224765 0.819976 0
763 1 0.200159 0.826292 0
733 1 0.231087 0.796275 0
736 1 0.257021 0.80496 0
706 1 0.273967 0.78624 0
737 1 0.282161 0.81006 0
708 1 0.298976 0.792735 0
738 1 0.307235 0.816612 0
739 1 0.324961 0.799412 0
742 1 0.348878 0.806221 0
740 1 0.33185 0.823672 0
712 1 0.36664 0.787792 0
714 1 0.390024 0.794981 0
743 1 0.373012 0.813359 0
745 1 0.396823 0.818889 0
747 1 0.431887 0.78329 0
746 1 0.414245 0.800665 0
748 1 0.437983 0.808222 0
777 1 0.420001 0.826649 0
749 1 0.455132 0.789763 0
720 1 0.479666 0.796209 0
750 1 0.462159 0.81454 0
1621 1 0.48605 0.820637 0
753 1 0.0231314 0.837997 0
783 1 0.0176988 0.865163 0
754 1 0.0416689 0.855883 0
752 1 -0.00049016 0.847368 0
755 1 0.0698024 0.827108 0
724 1 0.0456222 0.829227 0
785 1 0.06517 0.850713 0
786 1 0.0844945 0.867286 0
756 1 0.0893492 0.842273 0
758 1 0.113848 0.83454 0
787 1 0.108101 0.859822 0
789 1 0.13092 0.852184 0
759 1 0.137524 0.828063 0
760 1 0.15473 0.844265 0
791 1 0.17328 0.861656 0
761 1 0.177394 0.835542 0
790 1 0.149165 0.869102 0
762 1 0.195755 0.851206 0
764 1 0.220119 0.845785 0
793 1 0.214923 0.870235 0
765 1 0.24321 0.83724 0
795 1 0.239045 0.862479 0
766 1 0.265307 0.853095 0
767 1 0.266371 0.8279 0
769 1 0.31495 0.841082 0
768 1 0.289214 0.83338 0
799 1 0.297428 0.856196 0
770 1 0.337948 0.849085 0
771 1 0.355237 0.830658 0
773 1 0.361534 0.855285 0
801 1 0.319801 0.866243 0
744 1 0.379039 0.837446 0
774 1 0.384624 0.862959 0
775 1 0.402509 0.844076 0
776 1 0.409513 0.868529 0
807 1 0.427204 0.850269 0
778 1 0.443909 0.831721 0
809 1 0.450577 0.85706 0
779 1 0.46925 0.839188 0
780 1 0.475105 0.863293 0
1651 1 0.492899 0.844565 0
812 1 0.0134736 0.890015 0
814 1 0.0310371 0.907232 0
813 1 0.0368032 0.882247 0
784 1 0.0591588 0.874108 0
815 1 0.0550682 0.899632 0
816 1 0.0787383 0.892379 0
788 1 0.126234 0.876892 0
817 1 0.102613 0.884499 0
819 1 0.122099 0.900992 0
818 1 0.097867 0.90823 0
821 1 0.168204 0.885976 0
820 1 0.145127 0.893563 0
851 1 0.16336 0.909412 0
792 1 0.191763 0.87793 0
823 1 0.210556 0.894875 0
822 1 0.187042 0.902225 0
794 1 0.234156 0.88733 0
796 1 0.25776 0.880207 0
827 1 0.254338 0.904787 0
825 1 0.230737 0.91197 0
797 1 0.280786 0.872848 0
798 1 0.27859 0.897675 0
800 1 0.30187 0.883925 0
829 1 0.303739 0.908974 0
831 1 0.324964 0.890323 0
772 1 0.343983 0.873555 0
802 1 0.349002 0.898733 0
803 1 0.367982 0.880836 0
804 1 0.374071 0.904132 0
805 1 0.392706 0.886532 0
835 1 0.39821 0.911365 0
806 1 0.416299 0.893259 0
808 1 0.433763 0.874594 0
839 1 0.44071 0.900832 0
1681 1 0.483321 0.88869 0
810 1 0.458396 0.882458 0
840 1 0.465076 0.906298 0
1652 1 0.499462 0.869754 0
843 1 0.00831293 0.914286 0
844 1 0.0266454 0.930903 0
842 1 0.00304859 0.939941 0
875 1 0.0447479 0.947881 0
845 1 0.0504143 0.923541 0
846 1 0.0689381 0.941272 0
847 1 0.0742549 0.916935 0
848 1 0.0931052 0.93353 0
849 1 0.116963 0.925894 0
879 1 0.111647 0.95039 0
881 1 0.134332 0.943217 0
850 1 0.139989 0.918224 0
852 1 0.158683 0.933269 0
883 1 0.178168 0.951521 0
853 1 0.182241 0.927333 0
824 1 0.206542 0.918552 0
854 1 0.201194 0.943476 0
855 1 0.224913 0.935809 0
826 1 0.24959 0.929137 0
857 1 0.267534 0.945452 0
856 1 0.244513 0.952707 0
828 1 0.273592 0.921465 0
859 1 0.29085 0.938722 0
830 1 0.315022 0.933489 0
833 1 0.355668 0.922823 0
832 1 0.330891 0.914718 0
861 1 0.33826 0.940844 0
863 1 0.362567 0.946877 0
834 1 0.380654 0.928128 0
865 1 0.404936 0.935517 0
864 1 0.386846 0.953438 0
837 1 0.422332 0.91776 0
836 1 0.428826 0.942828 0
838 1 0.446949 0.924361 0
870 1 0.452744 0.948024 0
1711 1 0.490387 0.912915 0
869 1 0.471578 0.929527 0
1712 1 0.49577 0.93738 0
1741 1 0.47704 0.95484 0
873 1 0.0214945 0.955468 0
3 1 0.0349527 0.99741 0
872 1 0.0161715 0.981769 0
874 1 0.0399187 0.972522 0
877 1 0.0879464 0.957694 0
5 1 0.0589609 0.990388 0
876 1 0.0645462 0.966015 0
7 1 0.0822465 0.982184 0
8 1 0.100677 0.998987 0
9 1 0.124492 0.991591 0
878 1 0.106306 0.974406 0
880 1 0.130801 0.967647 0
41 1 0.166872 0.999982 0
11 1 0.14892 0.983525 0
882 1 0.153453 0.958928 0
13 1 0.172774 0.975496 0
12 1 0.191384 0.993621 0
15 1 0.214793 0.986243 0
884 1 0.197812 0.96911 0
885 1 0.220263 0.960455 0
17 1 0.257882 0.995446 0
887 1 0.238219 0.977499 0
888 1 0.262466 0.970071 0
858 1 0.28558 0.962465 0
19 1 0.281181 0.987336 0
889 1 0.304038 0.979181 0
860 1 0.319636 0.959597 0
862 1 0.34475 0.964418 0
891 1 0.328543 0.982858 0
892 1 0.352047 0.989341 0
23 1 0.375758 0.995616 0
893 1 0.368659 0.970368 0
895 1 0.392769 0.978412 0
896 1 0.417507 0.984324 0
866 1 0.410821 0.959697 0
867 1 0.435522 0.967016 0
897 1 0.442407 0.991261 0
868 1 0.459686 0.972336 0
899 1 0.465908 0.997532 0
1771 1 0.483839 0.979555 0
931 1 0.522683 0.0368466 0
901 1 0.515226 0.0117527 0
902 1 0.538692 0.0175256 0
904 1 0.562245 0.0245426 0
906 1 0.580334 0.00693696 0
935 1 0.587081 0.0311432 0
933 1 0.546118 0.0436392 0
905 1 0.557009 -0.000401045 0
908 1 0.604879 0.0136981 0
939 1 0.628846 0.0211755 0
937 1 0.61175 0.0387296 0
941 1 0.65331 0.0266697 0
912 1 0.669001 0.00867665 0
942 1 0.677125 0.0334352 0
910 1 0.645487 0.00295537 0
943 1 0.69358 0.0153798 0
945 1 0.717336 0.0218482 0
944 1 0.700758 0.0405401 0
914 1 0.740905 0.0265873 0
916 1 0.764105 0.0189449 0
915 1 0.745321 0.00132986 0
918 1 0.782181 0.0359398 0
919 1 0.807093 0.0286519 0
917 1 0.787588 0.0117143 0
1788 1 0.812527 0.00339096 0
920 1 0.831135 0.0194506 0
922 1 0.849781 0.0364533 0
921 1 0.854525 0.0118416 0
923 1 0.872184 0.0288488 0
924 1 0.896188 0.0205609 0
1792 1 0.878592 0.00360014 0
955 1 0.915678 0.0372672 0
925 1 0.920831 0.0133052 0
926 1 0.940052 0.0288435 0
928 1 0.944488 0.00439185 0
930 1 0.987099 0.0142968 0
959 1 0.963348 0.0210242 0
960 1 0.982778 0.0385573 0
932 1 0.527897 0.0610997 0
961 1 0.510502 0.0792512 0
60 1 0.50434 0.0539247 0
962 1 0.534296 0.0857995 0
963 1 0.552788 0.0673953 0
934 1 0.569725 0.0496801 0
965 1 0.577291 0.0740564 0
938 1 0.635501 0.0451959 0
936 1 0.595126 0.0567866 0
967 1 0.619018 0.0640105 0
966 1 0.600614 0.0808518 0
969 1 0.643208 0.0695234 0
940 1 0.659017 0.0511669 0
970 1 0.667055 0.0768425 0
971 1 0.682543 0.0579923 0
973 1 0.706697 0.0644908 0
972 1 0.690756 0.0831487 0
975 1 0.726813 0.0462038 0
947 1 0.758664 0.0444481 0
974 1 0.730781 0.0702908 0
946 1 0.755198 0.0703886 0
977 1 0.774839 0.0841414 0
949 1 0.801981 0.0519634 0
948 1 0.778508 0.0602869 0
979 1 0.798183 0.0768973 0
951 1 0.826746 0.044196 0
950 1 0.821185 0.0689458 0
980 1 0.840381 0.08491 0
952 1 0.844955 0.0609073 0
981 1 0.864638 0.0772014 0
954 1 0.89172 0.0450834 0
953 1 0.868683 0.0530172 0
983 1 0.887799 0.0697339 0
984 1 0.906642 0.0857092 0
985 1 0.911542 0.061643 0
956 1 0.934805 0.0534423 0
986 1 0.930167 0.0780347 0
987 1 0.953802 0.0700722 0
957 1 0.958638 0.046145 0
958 1 0.97763 0.0634967 0
989 1 0.995938 0.0800718 0
988 1 0.971602 0.088633 0
991 1 0.518156 0.103559 0
993 1 0.542201 0.11034 0
992 1 0.525078 0.128587 0
120 1 0.500701 0.12116 0
964 1 0.559115 0.0910828 0
994 1 0.565926 0.11625 0
995 1 0.583641 0.0983186 0
996 1 0.590208 0.123349 0
968 1 0.625597 0.0873043 0
997 1 0.608453 0.105271 0
998 1 0.632207 0.11199 0
1027 1 0.61397 0.130729 0
999 1 0.649884 0.0940237 0
1000 1 0.655923 0.118296 0
1001 1 0.673198 0.101073 0
1031 1 0.681265 0.125804 0
1002 1 0.696985 0.105843 0
1003 1 0.714301 0.0880562 0
1004 1 0.722568 0.111359 0
1033 1 0.705527 0.130339 0
976 1 0.768178 0.107564 0
1005 1 0.745192 0.093363 0
1035 1 0.746373 0.119583 0
978 1 0.816339 0.0935752 0
1007 1 0.791805 0.102096 0
1006 1 0.784259 0.126258 0
1008 1 0.810371 0.117886 0
1009 1 0.835485 0.109859 0
1010 1 0.854016 0.125766 0
1011 1 0.859526 0.10228 0
982 1 0.881975 0.0939367 0
1012 1 0.878003 0.118902 0
1013 1 0.900804 0.110589 0
1016 1 0.919559 0.127242 0
1017 1 0.94835 0.0953014 0
1015 1 0.925121 0.101743 0
1047 1 0.942787 0.119308 0
1018 1 0.967239 0.112018 0
1019 1 0.99069 0.104924 0
1020 1 0.984736 0.128837 0
1022 1 0.531607 0.151248 0
1021 1 0.507538 0.145105 0
1051 1 0.513386 0.169642 0
1023 1 0.549053 0.133739 0
1024 1 0.555493 0.157954 0
1025 1 0.57279 0.140877 0
1055 1 0.579139 0.165394 0
1026 1 0.596322 0.148384 0
1028 1 0.62116 0.154869 0
1057 1 0.60323 0.173051 0
1029 1 0.638378 0.136221 0
1059 1 0.645478 0.160555 0
1030 1 0.663232 0.142515 0
1061 1 0.670247 0.16675 0
1032 1 0.687705 0.149188 0
1063 1 0.712036 0.154729 0
1062 1 0.694078 0.172486 0
1034 1 0.729162 0.136235 0
1036 1 0.754257 0.142905 0
1065 1 0.736492 0.159747 0
1066 1 0.759268 0.168029 0
1067 1 0.779503 0.150627 0
1037 1 0.80551 0.141083 0
1038 1 0.801501 0.165667 0
1039 1 0.830248 0.133784 0
1040 1 0.825015 0.158314 0
1041 1 0.849694 0.150597 0
1042 1 0.867157 0.167761 0
1014 1 0.896301 0.136603 0
1043 1 0.873216 0.144296 0
1044 1 0.891643 0.160975 0
1045 1 0.914481 0.152836 0
1046 1 0.938712 0.144537 0
1077 1 0.933352 0.169606 0
1048 1 0.956673 0.161081 0
1049 1 0.961141 0.135476 0
1050 1 0.980208 0.1535 0
151 1 0.998958 0.170939 0
1053 1 0.536986 0.17607 0
1052 1 0.519943 0.194175 0
1081 1 0.502269 0.211815 0
1083 1 0.544732 0.201047 0
1054 1 0.561897 0.182992 0
1056 1 0.586864 0.19118 0
1085 1 0.568824 0.208381 0
1058 1 0.627829 0.17861 0
1087 1 0.610044 0.19713 0
1089 1 0.634647 0.203034 0
1086 1 0.592931 0.215098 0
1060 1 0.652653 0.18485 0
1091 1 0.677044 0.190772 0
1090 1 0.658905 0.208986 0
1093 1 0.700855 0.196556 0
1064 1 0.717645 0.179522 0
1094 1 0.724337 0.203852 0
1092 1 0.683484 0.215206 0
1095 1 0.740395 0.185737 0
1097 1 0.763983 0.193461 0
1096 1 0.748731 0.212085 0
1068 1 0.781511 0.177522 0
1098 1 0.790842 0.200223 0
1099 1 0.815274 0.207345 0
1069 1 0.818608 0.183093 0
1071 1 0.84385 0.174992 0
1070 1 0.837992 0.199235 0
1072 1 0.862463 0.192735 0
1073 1 0.887058 0.184866 0
1103 1 0.879856 0.209641 0
1074 1 0.904252 0.202303 0
1075 1 0.910403 0.178375 0
1078 1 0.952681 0.187074 0
1076 1 0.929025 0.194704 0
1107 1 0.9468 0.211653 0
1079 1 0.975034 0.177792 0
1109 1 0.971113 0.203626 0
181 1 0.993737 0.196081 0
1082 1 0.526505 0.218204 0
1111 1 0.509463 0.23607 0
1113 1 0.533305 0.24334 0
1084 1 0.55115 0.225103 0
1114 1 0.557471 0.250367 0
1115 1 0.575509 0.233194 0
1116 1 0.581028 0.256484 0
1088 1 0.61636 0.221407 0
1117 1 0.600068 0.240203 0
1118 1 0.624232 0.246109 0
1119 1 0.640704 0.228121 0
1121 1 0.664725 0.232508 0
1120 1 0.649001 0.251971 0
1151 1 0.673009 0.25808 0
1122 1 0.689862 0.239694 0
1123 1 0.706758 0.222034 0
1124 1 0.713922 0.246898 0
1125 1 0.730696 0.229013 0
1126 1 0.755908 0.235652 0
1155 1 0.738184 0.253326 0
1157 1 0.763607 0.26028 0
1127 1 0.773333 0.217188 0
1129 1 0.797426 0.223511 0
1128 1 0.78042 0.24124 0
1159 1 0.803924 0.248468 0
1101 1 0.85655 0.21698 0
1100 1 0.83344 0.224907 0
1130 1 0.827665 0.248572 0
1131 1 0.851016 0.243308 0
1132 1 0.867667 0.261302 0
1102 1 0.873971 0.234937 0
1104 1 0.898123 0.226874 0
1133 1 0.891632 0.251855 0
1105 1 0.922299 0.219421 0
1135 1 0.914985 0.243852 0
1106 1 0.940147 0.235988 0