ITEM: TIMESTEP
160000
ITEM: NUMBER OF ATOMS
1800
ITEM: BOX BOUNDS pp pp pp
1.3180810390920925e+00 1.6368191896090468e+02
1.3180810390920925e+00 1.6368191896090468e+02
0.0000000000000000e+00 5.5000000000000000e+00
ITEM: ATOMS id type xs ys zs
2 1 0.0115482 0.00510522 0
33 1 0.02988 0.0220401 0
31 1 0.00553196 0.0301638 0
4 1 0.0535842 0.0147589 0
6 1 0.0771703 0.00775198 0
35 1 0.0720116 0.0324834 0
34 1 0.048393 0.0405064 0
37 1 0.0958369 0.0248945 0
39 1 0.119444 0.0170453 0
38 1 0.114232 0.0420718 0
8 1 0.101007 0.000131559 0
40 1 0.137456 0.0339252 0
10 1 0.143307 0.0100987 0
42 1 0.161136 0.0271024 0
73 1 0.179655 0.043288 0
41 1 0.166931 0.00190607 0
43 1 0.185384 0.0188744 0
14 1 0.208534 0.0114344 0
44 1 0.204184 0.0359286 0
45 1 0.227807 0.0265319 0
16 1 0.251961 0.01906 0
886 1 0.233106 0.00294043 0
46 1 0.269563 0.0361632 0
18 1 0.275959 0.0110659 0
49 1 0.292531 0.0291286 0
20 1 0.301394 0.00366226 0
51 1 0.317236 0.0247054 0
22 1 0.341913 0.0319365 0
21 1 0.359454 0.013645 0
890 1 0.335323 0.00784878 0
24 1 0.383907 0.0207469 0
53 1 0.366493 0.0379752 0
894 1 0.402247 0.00208088 0
25 1 0.408629 0.0262535 0
26 1 0.43137 0.0327042 0
27 1 0.425327 0.0085396 0
898 1 0.449541 0.0155568 0
28 1 0.456673 0.0402108 0
29 1 0.474169 0.0216587 0
900 1 0.4908 0.0041896 0
30 1 0.498179 0.0285242 0
32 1 0.0241764 0.0463098 0
62 1 0.018487 0.0718925 0
63 1 0.0422199 0.0647059 0
61 1 0.000655858 0.0550088 0
65 1 0.0664237 0.0568114 0
66 1 0.0856469 0.0736827 0
64 1 0.0611466 0.0822867 0
36 1 0.0917951 0.0487687 0
67 1 0.108928 0.0664974 0
69 1 0.133473 0.0590987 0
68 1 0.127619 0.083953 0
71 1 0.155901 0.0507531 0
72 1 0.173346 0.0674422 0
70 1 0.150842 0.0762384 0
74 1 0.222612 0.0522422 0
103 1 0.198515 0.0598763 0
105 1 0.216623 0.0759884 0
101 1 0.192252 0.0841707 0
75 1 0.246121 0.043549 0
77 1 0.264367 0.0599984 0
76 1 0.240994 0.0683084 0
137 1 0.258714 0.0855604 0
47 1 0.28827 0.0532132 0
48 1 0.306624 0.0689519 0
78 1 0.282312 0.0781612 0
50 1 0.322956 0.0500914 0
81 1 0.331173 0.0745958 0
52 1 0.347797 0.0561224 0
82 1 0.356945 0.0811746 0
55 1 0.390389 0.0450505 0
83 1 0.372715 0.063168 0
54 1 0.396229 0.0680843 0
57 1 0.439542 0.0569931 0
85 1 0.421855 0.0749286 0
56 1 0.41433 0.0505931 0
87 1 0.445827 0.0824491 0
59 1 0.479837 0.0461194 0
58 1 0.463494 0.0646386 0
89 1 0.486782 0.0708724 0
93 1 0.0373074 0.0884459 0
990 1 0.0140514 0.096457 0
92 1 0.0321383 0.112804 0
91 1 0.00968281 0.121238 0
94 1 0.0560302 0.106529 0
95 1 0.0803509 0.0992385 0
125 1 0.0748142 0.122663 0
96 1 0.0987451 0.116267 0
97 1 0.10374 0.0911153 0
98 1 0.121887 0.108012 0
99 1 0.145333 0.101915 0
100 1 0.169948 0.0933405 0
130 1 0.164412 0.118977 0
129 1 0.140498 0.12577 0
131 1 0.187577 0.109916 0
102 1 0.210981 0.101158 0
133 1 0.205832 0.127476 0
104 1 0.228471 0.11947 0
106 1 0.235361 0.0932686 0
135 1 0.251558 0.11085 0
107 1 0.275214 0.103282 0
109 1 0.297953 0.111394 0
79 1 0.313612 0.0926393 0
108 1 0.280441 0.129528 0
80 1 0.33869 0.098605 0
110 1 0.321938 0.117431 0
141 1 0.345691 0.122821 0
111 1 0.363657 0.105533 0
113 1 0.381278 0.0868916 0
84 1 0.404821 0.0932546 0
112 1 0.38736 0.111376 0
143 1 0.369817 0.130901 0
115 1 0.412228 0.118512 0
86 1 0.429402 0.100542 0
116 1 0.435964 0.125525 0
117 1 0.453374 0.108014 0
88 1 0.470227 0.0888294 0
90 1 0.494506 0.0958149 0
119 1 0.477523 0.11381 0
122 1 0.0275167 0.138669 0
152 1 0.022473 0.163803 0
121 1 0.00458889 0.146487 0
123 1 0.0507009 0.130363 0
153 1 0.0459182 0.155372 0
124 1 0.069589 0.148522 0
155 1 0.0882502 0.164684 0
154 1 0.0647123 0.173187 0
127 1 0.117722 0.133131 0
126 1 0.0932582 0.14071 0
128 1 0.13527 0.149983 0
157 1 0.111427 0.157284 0
159 1 0.159135 0.142599 0
161 1 0.177658 0.15944 0
160 1 0.153866 0.166 0
132 1 0.182388 0.135636 0
163 1 0.201632 0.152315 0
134 1 0.224431 0.144237 0
193 1 0.221289 0.170979 0
136 1 0.265348 0.148478 0
165 1 0.246728 0.134648 0
164 1 0.243954 0.161422 0
167 1 0.271027 0.171003 0
139 1 0.304879 0.135079 0
138 1 0.289023 0.153176 0
169 1 0.311501 0.160293 0
140 1 0.328785 0.141966 0
142 1 0.353035 0.148211 0
171 1 0.334721 0.166047 0
172 1 0.359284 0.172978 0
114 1 0.394076 0.136479 0
173 1 0.377717 0.155039 0
144 1 0.40104 0.162622 0
145 1 0.41926 0.144025 0
146 1 0.425261 0.168483 0
147 1 0.44367 0.150995 0
118 1 0.459758 0.132285 0
149 1 0.483666 0.138279 0
148 1 0.466531 0.157325 0
150 1 0.489901 0.16434 0
183 1 0.0415776 0.180889 0
182 1 0.035525 0.204518 0
1080 1 0.0164894 0.187681 0
211 1 0.0118906 0.213152 0
184 1 0.0594796 0.198174 0
185 1 0.0833101 0.189762 0
215 1 0.078378 0.214798 0
158 1 0.12991 0.174443 0
186 1 0.101442 0.206522 0
156 1 0.106919 0.181749 0
187 1 0.124826 0.198711 0
189 1 0.149191 0.190797 0
191 1 0.17357 0.182947 0
190 1 0.167831 0.207932 0
188 1 0.143501 0.21533 0
162 1 0.196833 0.177175 0
221 1 0.193172 0.211908 0
192 1 0.212851 0.196358 0
195 1 0.235455 0.204808 0
166 1 0.25107 0.185511 0
196 1 0.258956 0.211582 0
168 1 0.293975 0.178261 0
197 1 0.27626 0.195187 0
199 1 0.299805 0.202721 0
170 1 0.318336 0.185571 0
201 1 0.341923 0.191557 0
200 1 0.323716 0.209857 0
202 1 0.348695 0.215178 0
203 1 0.366047 0.197715 0
174 1 0.383504 0.179883 0
204 1 0.390197 0.203795 0
175 1 0.408019 0.186052 0
177 1 0.449696 0.175412 0
205 1 0.413843 0.210316 0
176 1 0.431958 0.192707 0
178 1 0.455144 0.199557 0
179 1 0.47286 0.181638 0
180 1 0.497044 0.190056 0
209 1 0.478453 0.206791 0
212 1 0.0305612 0.229326 0
241 1 0.0241878 0.253693 0
1140 1 0.00608974 0.237228 0
243 1 0.0489976 0.245822 0
213 1 0.0541394 0.221585 0
214 1 0.0727688 0.23898 0
245 1 0.0922655 0.258161 0
216 1 0.0970819 0.234102 0
217 1 0.119081 0.223312 0
247 1 0.116624 0.252434 0
218 1 0.137253 0.238803 0
219 1 0.160035 0.246804 0
220 1 0.177774 0.230253 0
222 1 0.182661 0.254994 0
194 1 0.218038 0.221731 0
223 1 0.200925 0.237759 0
224 1 0.223144 0.246014 0
225 1 0.241464 0.230056 0
227 1 0.264962 0.236621 0
226 1 0.247761 0.254644 0
198 1 0.283287 0.22012 0
228 1 0.288231 0.244615 0
229 1 0.305984 0.227503 0
230 1 0.311159 0.251782 0
231 1 0.330527 0.233605 0
232 1 0.354302 0.238926 0
261 1 0.335925 0.257684 0
233 1 0.3724 0.222414 0
234 1 0.377895 0.247544 0
235 1 0.397029 0.228046 0
265 1 0.402463 0.253145 0
207 1 0.437384 0.216637 0
206 1 0.420797 0.236191 0
237 1 0.444177 0.242333 0
236 1 0.425606 0.260282 0
208 1 0.460978 0.225064 0
210 1 0.48595 0.231317 0
239 1 0.467407 0.249314 0
240 1 0.492163 0.255471 0
1169 1 0.000862304 0.261332 0
242 1 0.0434546 0.269821 0
271 1 0.0375043 0.293421 0
1170 1 0.0182492 0.278125 0
1200 1 0.0144119 0.30292 0
244 1 0.067461 0.264126 0
273 1 0.0611309 0.29657 0
275 1 0.0825344 0.283171 0
246 1 0.104528 0.293481 0
248 1 0.12182 0.276732 0
279 1 0.12737 0.302926 0
249 1 0.141385 0.262782 0
251 1 0.164681 0.270855 0
250 1 0.146077 0.2872 0
281 1 0.168863 0.29615 0
253 1 0.20594 0.262901 0
252 1 0.187236 0.280063 0
254 1 0.210942 0.288318 0
283 1 0.192501 0.30513 0
255 1 0.228956 0.271554 0
257 1 0.271492 0.262317 0
256 1 0.251846 0.279277 0
285 1 0.234697 0.296386 0
259 1 0.29436 0.269336 0
258 1 0.276255 0.286746 0
289 1 0.300352 0.294121 0
260 1 0.317827 0.276578 0
263 1 0.359576 0.264747 0
262 1 0.342532 0.283126 0
291 1 0.323928 0.301369 0
293 1 0.36622 0.289224 0
264 1 0.384171 0.271032 0
295 1 0.390208 0.2962 0
266 1 0.408031 0.277712 0
238 1 0.448952 0.266102 0
267 1 0.431972 0.285177 0
297 1 0.413995 0.303152 0
268 1 0.456216 0.291328 0
1141 1 0.498296 0.279458 0
269 1 0.473189 0.272609 0
270 1 0.479897 0.297494 0
301 1 0.0216466 0.327399 0
1230 1 0.00231781 0.343175 0
272 1 0.0440608 0.316409 0
303 1 0.0467872 0.340152 0
276 1 0.0838573 0.308203 0
274 1 0.0667633 0.325148 0
305 1 0.0902395 0.333532 0
277 1 0.108986 0.31838 0
278 1 0.130957 0.327654 0
307 1 0.112429 0.343351 0
280 1 0.150603 0.312053 0
311 1 0.154447 0.336764 0
282 1 0.174279 0.321281 0
312 1 0.177949 0.3459 0
284 1 0.215924 0.312702 0
313 1 0.198164 0.329122 0
315 1 0.220953 0.337519 0
287 1 0.25844 0.303577 0
286 1 0.239826 0.321428 0
317 1 0.26376 0.32813 0
316 1 0.24449 0.345625 0
288 1 0.281295 0.31149 0
318 1 0.288127 0.3368 0
290 1 0.305139 0.318218 0
319 1 0.311938 0.343625 0
292 1 0.348425 0.307167 0
321 1 0.33055 0.32576 0
323 1 0.355195 0.331757 0
324 1 0.379503 0.338143 0
294 1 0.371767 0.313203 0
325 1 0.403379 0.346061 0
296 1 0.396857 0.320399 0
298 1 0.4387 0.309221 0
327 1 0.421006 0.327898 0
328 1 0.445006 0.333851 0
329 1 0.469707 0.340558 0
299 1 0.463246 0.316858 0
300 1 0.487526 0.321981 0
1201 1 0.493516 0.347161 0
302 1 0.0262431 0.354172 0
332 1 0.0278908 0.379051 0
331 1 0.00518082 0.368454 0
304 1 0.0700848 0.349096 0
333 1 0.0486214 0.363762 0
335 1 0.0715184 0.374127 0
334 1 0.05127 0.38894 0
306 1 0.0922527 0.358976 0
337 1 0.0940975 0.383372 0
308 1 0.114458 0.368466 0
309 1 0.13486 0.352573 0
339 1 0.137467 0.377047 0
310 1 0.15785 0.361069 0
341 1 0.161421 0.385396 0
343 1 0.18108 0.369915 0
314 1 0.20206 0.35339 0
344 1 0.205531 0.377811 0
345 1 0.22528 0.362235 0
375 1 0.228551 0.387187 0
347 1 0.268248 0.353525 0
346 1 0.24873 0.371618 0
377 1 0.273172 0.377964 0
349 1 0.292988 0.360915 0
348 1 0.298345 0.384964 0
350 1 0.317603 0.36848 0
320 1 0.337103 0.349372 0
351 1 0.343466 0.374191 0
322 1 0.361795 0.356621 0
381 1 0.325317 0.390952 0
353 1 0.367266 0.380568 0
355 1 0.385722 0.363639 0
354 1 0.392709 0.388234 0
356 1 0.410409 0.37039 0
326 1 0.427944 0.351631 0
357 1 0.434169 0.376406 0
359 1 0.452438 0.357453 0
358 1 0.457943 0.382202 0
330 1 0.476762 0.365011 0
360 1 0.483888 0.388309 0
361 1 0.00710753 0.39288 0
363 1 0.0306338 0.404045 0
362 1 0.00889393 0.417173 0
364 1 0.0331805 0.428881 0
336 1 0.0740788 0.398265 0
365 1 0.0526945 0.414098 0
366 1 0.0769805 0.423668 0
338 1 0.117044 0.392463 0
367 1 0.0974071 0.408119 0
369 1 0.12027 0.417396 0
368 1 0.100413 0.432664 0
340 1 0.141356 0.401641 0
370 1 0.144356 0.42609 0
371 1 0.164525 0.409586 0
342 1 0.185424 0.394115 0
372 1 0.189148 0.419944 0
373 1 0.20801 0.403813 0
403 1 0.212548 0.429798 0
374 1 0.232517 0.412399 0
376 1 0.251815 0.396373 0
405 1 0.255964 0.421372 0
378 1 0.276659 0.404556 0
379 1 0.307543 0.40769 0
409 1 0.290054 0.42452 0
410 1 0.314566 0.430967 0
352 1 0.349319 0.397281 0
382 1 0.356554 0.421925 0
380 1 0.33199 0.415003 0
383 1 0.374132 0.403946 0
385 1 0.398036 0.412601 0
384 1 0.380552 0.428819 0
387 1 0.416346 0.394553 0
386 1 0.422366 0.419655 0
388 1 0.441257 0.400561 0
419 1 0.446677 0.425807 0
389 1 0.46553 0.407507 0
1261 1 0.489514 0.413455 0
390 1 0.471989 0.43174 0
393 1 0.0123557 0.442072 0
423 1 0.014449 0.466975 0
394 1 0.0353581 0.452715 0
425 1 0.0386377 0.477216 0
395 1 0.0559908 0.438515 0
396 1 0.0588208 0.462488 0
397 1 0.0804159 0.448128 0
427 1 0.0816967 0.472644 0
399 1 0.124308 0.441819 0
398 1 0.104171 0.457679 0
429 1 0.127663 0.466591 0
401 1 0.168862 0.434329 0
400 1 0.148053 0.45028 0
431 1 0.171223 0.459422 0
430 1 0.150708 0.475878 0
402 1 0.19169 0.444975 0
433 1 0.21452 0.455342 0
432 1 0.193593 0.471964 0
404 1 0.236008 0.43758 0
406 1 0.253473 0.454381 0
435 1 0.234806 0.468917 0
407 1 0.272187 0.439852 0
437 1 0.277053 0.46386 0
408 1 0.296705 0.448443 0
439 1 0.300368 0.473267 0
441 1 0.320449 0.457974 0
411 1 0.338824 0.440105 0
412 1 0.344434 0.465168 0
413 1 0.361863 0.447817 0
415 1 0.403517 0.436425 0
414 1 0.385554 0.454018 0
443 1 0.368681 0.472523 0
416 1 0.410159 0.461127 0
417 1 0.428184 0.443457 0
447 1 0.43486 0.466964 0
418 1 0.452971 0.450081 0
1291 1 0.49558 0.437261 0
420 1 0.477122 0.455918 0
449 1 0.460174 0.473916 0
454 1 0.0208935 0.516716 0
424 1 0.0168208 0.491759 0
455 1 0.0413941 0.501336 0
426 1 0.0612966 0.486898 0
456 1 0.0629685 0.511072 0
457 1 0.0848316 0.497541 0
428 1 0.105886 0.481856 0
459 1 0.128519 0.491993 0
458 1 0.108194 0.506817 0
489 1 0.130612 0.516502 0
461 1 0.171676 0.486575 0
460 1 0.150926 0.50169 0
462 1 0.173606 0.512528 0
434 1 0.215042 0.483481 0
463 1 0.193679 0.497619 0
464 1 0.216014 0.507432 0
436 1 0.256698 0.479053 0
465 1 0.237357 0.49375 0
467 1 0.260848 0.503508 0
466 1 0.238139 0.51794 0
438 1 0.280501 0.488823 0
469 1 0.303758 0.498218 0
468 1 0.283963 0.514214 0
470 1 0.30948 0.522728 0
440 1 0.324864 0.483054 0
442 1 0.349837 0.490599 0
471 1 0.329589 0.507484 0
473 1 0.357748 0.515257 0
445 1 0.393021 0.478588 0
444 1 0.374545 0.496825 0
475 1 0.400468 0.501925 0
474 1 0.383851 0.520946 0
446 1 0.417892 0.484673 0
477 1 0.424214 0.508619 0
448 1 0.44221 0.491515 0
478 1 0.448409 0.515888 0
450 1 0.484563 0.479407 0
479 1 0.466542 0.497854 0
1381 1 0.490821 0.503392 0
483 1 0.0235413 0.541416 0
482 1 0.00291003 0.556841 0
485 1 0.0429634 0.526453 0
487 1 0.0869552 0.522348 0
484 1 0.0461787 0.551064 0
486 1 0.0661256 0.536338 0
515 1 0.0683379 0.561191 0
517 1 0.088613 0.547197 0
488 1 0.109428 0.531405 0
519 1 0.111836 0.55638 0
490 1 0.132439 0.542101 0
491 1 0.152786 0.52743 0
521 1 0.155674 0.552223 0
492 1 0.176365 0.538062 0
523 1 0.178353 0.562401 0
493 1 0.195919 0.522404 0
494 1 0.19971 0.547996 0
495 1 0.218591 0.532547 0
525 1 0.221104 0.559007 0
496 1 0.240146 0.54384 0
497 1 0.260236 0.527714 0
527 1 0.262774 0.553731 0
499 1 0.302805 0.546768 0
498 1 0.281551 0.537239 0
529 1 0.284969 0.5634 0
472 1 0.340106 0.531488 0
501 1 0.326689 0.552181 0
502 1 0.349645 0.558087 0
503 1 0.366339 0.538806 0
505 1 0.390087 0.544897 0
476 1 0.407801 0.526649 0
504 1 0.373455 0.563034 0
506 1 0.414038 0.552278 0
507 1 0.431553 0.533871 0
508 1 0.43925 0.55804 0
480 1 0.474003 0.52169 0
509 1 0.4567 0.540152 0
510 1 0.480895 0.545903 0
1382 1 0.49759 0.528041 0
539 1 0.463826 0.563295 0
513 1 0.0259889 0.566018 0
512 1 0.0274606 0.591284 0
511 1 0.00502765 0.581177 0
541 1 0.00643399 0.605205 0
514 1 0.0478955 0.576603 0
545 1 0.0708038 0.58682 0
543 1 0.0504495 0.601649 0
516 1 0.0911641 0.571699 0
518 1 0.114818 0.582312 0
547 1 0.0935138 0.596583 0
548 1 0.116584 0.606931 0
520 1 0.135584 0.567903 0
549 1 0.13705 0.592736 0
522 1 0.15806 0.577329 0
551 1 0.160573 0.602337 0
553 1 0.180516 0.586737 0
524 1 0.200726 0.573278 0
554 1 0.203299 0.598209 0
555 1 0.224103 0.584238 0
556 1 0.227295 0.609027 0
526 1 0.243409 0.569807 0
557 1 0.247052 0.594289 0
528 1 0.266571 0.579156 0
558 1 0.270984 0.603986 0
500 1 0.308976 0.569517 0
559 1 0.289536 0.587251 0
530 1 0.313149 0.593851 0
531 1 0.3325 0.575276 0
532 1 0.338274 0.599575 0
533 1 0.356975 0.581673 0
563 1 0.361487 0.606475 0
534 1 0.381014 0.586793 0
535 1 0.397202 0.56944 0
536 1 0.404866 0.593212 0
537 1 0.421976 0.576368 0
567 1 0.428209 0.600669 0
538 1 0.445767 0.581823 0
568 1 0.45277 0.605887 0
540 1 0.488715 0.570337 0
569 1 0.47002 0.587365 0
1441 1 0.493511 0.594806 0
542 1 0.030423 0.615789 0
571 1 0.00940247 0.631144 0
573 1 0.0331179 0.641209 0
546 1 0.0739429 0.611503 0
544 1 0.0533245 0.626842 0
575 1 0.076825 0.636756 0
574 1 0.0565006 0.651764 0
577 1 0.0966672 0.621538 0
579 1 0.118985 0.632068 0
576 1 0.0988577 0.64747 0
550 1 0.139819 0.617534 0
581 1 0.162759 0.626681 0
580 1 0.142761 0.642329 0
552 1 0.183275 0.612525 0
582 1 0.185775 0.638031 0
583 1 0.206461 0.622938 0
584 1 0.210007 0.647495 0
585 1 0.230739 0.634011 0
586 1 0.256266 0.645838 0
587 1 0.252632 0.619537 0
560 1 0.295071 0.610387 0
589 1 0.276629 0.627885 0
590 1 0.301272 0.635969 0
588 1 0.282111 0.651844 0
561 1 0.318691 0.618286 0
562 1 0.342735 0.624142 0
591 1 0.325026 0.642344 0
593 1 0.349765 0.648333 0
565 1 0.38665 0.611956 0
564 1 0.367209 0.630025 0
595 1 0.392182 0.637008 0
566 1 0.410031 0.618089 0
596 1 0.415995 0.642876 0
597 1 0.43467 0.624198 0
599 1 0.441875 0.649127 0
570 1 0.476062 0.612179 0
600 1 0.45999 0.630131 0
1471 1 0.48395 0.637675 0
572 1 0.0123373 0.655035 0
602 1 0.0145909 0.679953 0
603 1 0.0359985 0.666014 0
633 1 0.0371669 0.690563 0
605 1 0.0787029 0.662579 0
604 1 0.0586656 0.677677 0
606 1 0.0821737 0.6871 0
578 1 0.12184 0.658388 0
607 1 0.102029 0.672163 0
608 1 0.124936 0.683218 0
611 1 0.1658 0.652636 0
609 1 0.145037 0.66751 0
610 1 0.167573 0.676526 0
639 1 0.148353 0.691459 0
612 1 0.190665 0.687629 0
613 1 0.189859 0.662658 0
614 1 0.213134 0.671922 0
615 1 0.234699 0.65939 0
616 1 0.240958 0.682943 0
617 1 0.263421 0.670212 0
647 1 0.272634 0.693072 0
619 1 0.306767 0.659575 0
618 1 0.289215 0.676027 0
620 1 0.313657 0.683815 0
621 1 0.331586 0.66608 0
592 1 0.356989 0.672473 0
622 1 0.338465 0.690621 0
653 1 0.363113 0.696 0
594 1 0.374084 0.653553 0
625 1 0.398323 0.660718 0
623 1 0.381422 0.677974 0
626 1 0.406011 0.68441 0
598 1 0.448295 0.672782 0
627 1 0.422688 0.66625 0
657 1 0.430338 0.690312 0
628 1 0.472676 0.680545 0
629 1 0.466597 0.655613 0
1501 1 0.490399 0.663057 0
630 1 0.496308 0.687791 0
632 1 0.0182081 0.705342 0
663 1 0.0206155 0.730286 0
634 1 0.0409042 0.716803 0
635 1 0.0606847 0.70115 0
636 1 0.0848697 0.711276 0
665 1 0.0642171 0.726355 0
666 1 0.088648 0.736495 0
637 1 0.105383 0.696937 0
638 1 0.129253 0.708074 0
667 1 0.107916 0.721261 0
669 1 0.132423 0.732636 0
641 1 0.170801 0.701467 0
640 1 0.151474 0.717151 0
671 1 0.173803 0.72798 0
643 1 0.213132 0.697505 0
642 1 0.193534 0.71337 0
644 1 0.216981 0.722418 0
673 1 0.197589 0.738553 0
645 1 0.235675 0.706753 0
675 1 0.240438 0.730803 0
646 1 0.2577 0.714208 0
677 1 0.264161 0.737835 0
649 1 0.296531 0.701397 0
648 1 0.281104 0.719355 0
679 1 0.304755 0.724806 0
650 1 0.320779 0.707021 0
651 1 0.345144 0.713981 0
681 1 0.327958 0.731963 0
652 1 0.353003 0.737957 0
624 1 0.388831 0.702452 0
654 1 0.370443 0.71969 0
685 1 0.395134 0.726629 0
655 1 0.413366 0.708295 0
656 1 0.436874 0.715023 0
686 1 0.419187 0.732723 0
658 1 0.454626 0.696953 0
687 1 0.460671 0.721099 0
659 1 0.478292 0.70474 0
689 1 0.484714 0.728819 0
662 1 0.0242721 0.755903 0
691 1 0.00488014 0.770887 0
661 1 0.000542626 0.743979 0
693 1 0.0283231 0.782648 0
664 1 0.0434275 0.74032 0
694 1 0.0472627 0.766862 0
695 1 0.0675121 0.751494 0
696 1 0.0711358 0.77635 0
697 1 0.0903101 0.762096 0
668 1 0.111237 0.7476 0
698 1 0.114085 0.772318 0
699 1 0.13471 0.757804 0
700 1 0.137819 0.782147 0
670 1 0.154277 0.743598 0
701 1 0.158426 0.768679 0
672 1 0.177832 0.754095 0
702 1 0.182169 0.779537 0
674 1 0.220896 0.746999 0
703 1 0.200916 0.764172 0
705 1 0.22467 0.770728 0
676 1 0.244997 0.755444 0
707 1 0.269081 0.761798 0
735 1 0.250935 0.779764 0
678 1 0.287666 0.743921 0
709 1 0.292349 0.768428 0
680 1 0.310975 0.749864 0
710 1 0.316196 0.774295 0
682 1 0.358819 0.761869 0
711 1 0.335529 0.755536 0
741 1 0.341073 0.77962 0
683 1 0.377588 0.74427 0
713 1 0.383175 0.768582 0
684 1 0.400641 0.75105 0
716 1 0.407551 0.774762 0
717 1 0.443504 0.739264 0
715 1 0.425075 0.757405 0
718 1 0.449736 0.764473 0
747 1 0.431929 0.78123 0
1591 1 0.497654 0.777667 0
690 1 0.491054 0.753494 0
688 1 0.46681 0.747212 0
719 1 0.473601 0.771506 0
692 1 0.00775898 0.796811 0
722 1 0.00716096 0.82117 0
723 1 0.031069 0.811366 0
725 1 0.0509339 0.792471 0
726 1 0.0738455 0.801094 0
755 1 0.0731428 0.825934 0
727 1 0.0940425 0.788571 0
728 1 0.117446 0.798212 0
757 1 0.0958157 0.815158 0
729 1 0.141749 0.80564 0
730 1 0.16175 0.81963 0
731 1 0.162339 0.792726 0
732 1 0.183033 0.805547 0
704 1 0.205675 0.788455 0
734 1 0.228221 0.819499 0
733 1 0.230938 0.794567 0
736 1 0.256147 0.804044 0
706 1 0.274496 0.786314 0
737 1 0.282567 0.810152 0
708 1 0.2993 0.792129 0
738 1 0.306376 0.816764 0
739 1 0.324045 0.797888 0
742 1 0.348002 0.804274 0
740 1 0.330948 0.822528 0
712 1 0.365355 0.787366 0
714 1 0.390412 0.792926 0
743 1 0.372597 0.811576 0
745 1 0.396918 0.817961 0
746 1 0.414586 0.79978 0
748 1 0.438332 0.807283 0
777 1 0.420597 0.825336 0
749 1 0.455907 0.789445 0
720 1 0.480263 0.79554 0
750 1 0.462776 0.812508 0
1621 1 0.486992 0.819788 0
753 1 0.0250339 0.838776 0
783 1 0.0180803 0.864227 0
754 1 0.0425922 0.857972 0
724 1 0.0482633 0.832161 0
785 1 0.0668232 0.850239 0
786 1 0.0857671 0.866744 0
756 1 0.0916287 0.84246 0
758 1 0.113863 0.832674 0
787 1 0.109554 0.860156 0
789 1 0.131869 0.852451 0
759 1 0.137863 0.828986 0
760 1 0.156478 0.845205 0
791 1 0.175636 0.860519 0
761 1 0.179889 0.834937 0
763 1 0.202603 0.826043 0
762 1 0.197748 0.852198 0
764 1 0.220456 0.844638 0
793 1 0.215421 0.869806 0
765 1 0.244601 0.83734 0
795 1 0.239019 0.86079 0
766 1 0.264791 0.853114 0
767 1 0.266425 0.828 0
769 1 0.314479 0.840128 0
768 1 0.289416 0.835654 0
799 1 0.298118 0.858572 0
770 1 0.337513 0.847504 0
771 1 0.355013 0.829732 0
773 1 0.362049 0.853729 0
801 1 0.320256 0.865845 0
744 1 0.379258 0.835359 0
774 1 0.385627 0.861552 0
775 1 0.402437 0.843456 0
776 1 0.410147 0.868283 0
807 1 0.427996 0.849242 0
778 1 0.444827 0.831572 0
809 1 0.451349 0.857106 0
779 1 0.469477 0.837133 0
780 1 0.47465 0.863467 0
1651 1 0.492134 0.844846 0
812 1 0.0127936 0.890783 0
814 1 0.0324012 0.906147 0
813 1 0.0361119 0.881744 0
784 1 0.0605037 0.874687 0
815 1 0.0561006 0.899329 0
816 1 0.0792395 0.892414 0
788 1 0.126957 0.877102 0
817 1 0.103241 0.884186 0
819 1 0.122367 0.90144 0
818 1 0.0984334 0.908095 0
790 1 0.150621 0.869248 0
821 1 0.168456 0.886333 0
820 1 0.145773 0.893856 0
851 1 0.163536 0.911456 0
792 1 0.192109 0.878629 0
823 1 0.211627 0.89639 0
822 1 0.187554 0.9029 0
794 1 0.234529 0.887737 0
796 1 0.256193 0.877375 0
827 1 0.255444 0.903889 0
825 1 0.23064 0.911845 0
797 1 0.279824 0.873125 0
798 1 0.281238 0.897705 0
800 1 0.302149 0.883062 0
829 1 0.307989 0.90807 0
831 1 0.326549 0.890244 0
772 1 0.34437 0.871956 0
802 1 0.349632 0.896862 0
803 1 0.368607 0.878432 0
804 1 0.373131 0.903263 0
805 1 0.391723 0.886089 0
835 1 0.398264 0.910466 0
806 1 0.415913 0.89219 0
808 1 0.43337 0.874159 0
839 1 0.439966 0.899109 0
1681 1 0.482035 0.887894 0
810 1 0.457591 0.881554 0
840 1 0.464388 0.905526 0
1711 1 0.489046 0.912462 0
843 1 0.00881195 0.914809 0
844 1 0.0269382 0.932108 0
842 1 0.00232785 0.939088 0
875 1 0.0455374 0.948676 0
873 1 0.0210386 0.956569 0
845 1 0.0506176 0.924151 0
846 1 0.0694769 0.941128 0
847 1 0.0748291 0.916454 0
848 1 0.092808 0.933065 0
849 1 0.116666 0.926388 0
879 1 0.111013 0.950916 0
881 1 0.135192 0.943498 0
850 1 0.14041 0.918685 0
852 1 0.159051 0.935741 0
883 1 0.177784 0.952343 0
853 1 0.182896 0.928471 0
824 1 0.207099 0.920782 0
854 1 0.201086 0.945445 0
855 1 0.225383 0.937206 0
826 1 0.249154 0.928339 0
857 1 0.267674 0.945501 0
856 1 0.243838 0.953413 0
828 1 0.272715 0.921423 0
859 1 0.291624 0.936481 0
830 1 0.315612 0.9333 0
833 1 0.356848 0.922698 0
832 1 0.332148 0.915251 0
861 1 0.338188 0.940064 0
863 1 0.362843 0.947163 0
834 1 0.381713 0.929178 0
865 1 0.40537 0.935902 0
864 1 0.388075 0.953183 0
837 1 0.422178 0.91735 0
836 1 0.429492 0.941752 0
838 1 0.446696 0.923123 0
870 1 0.453034 0.94754 0
869 1 0.470212 0.929838 0
1712 1 0.494936 0.937402 0
1741 1 0.476816 0.954865 0
3 1 0.0346691 0.997405 0
872 1 0.0164216 0.980514 0
874 1 0.0393011 0.973195 0
877 1 0.0871926 0.957283 0
5 1 0.0586907 0.989864 0
876 1 0.0634104 0.965894 0
7 1 0.0819012 0.982392 0
9 1 0.124984 0.992424 0
878 1 0.105288 0.975508 0
880 1 0.130414 0.968173 0
11 1 0.148454 0.98458 0
882 1 0.153542 0.960395 0
13 1 0.17264 0.977208 0
12 1 0.19109 0.993876 0
15 1 0.215047 0.986626 0
884 1 0.196884 0.969948 0
885 1 0.220044 0.961985 0
17 1 0.257249 0.994188 0
887 1 0.239052 0.978111 0
888 1 0.263403 0.96985 0
858 1 0.285841 0.961723 0
19 1 0.281956 0.986706 0
889 1 0.305016 0.978016 0
860 1 0.319829 0.957898 0
862 1 0.344539 0.963337 0
891 1 0.328499 0.982758 0
892 1 0.35231 0.989546 0
23 1 0.377821 0.996173 0
893 1 0.369947 0.971202 0
895 1 0.394 0.977899 0
897 1 0.443155 0.989641 0
896 1 0.418856 0.983932 0
866 1 0.412225 0.960293 0
867 1 0.436771 0.965495 0
1771 1 0.484925 0.979455 0
899 1 0.467993 0.997258 0
868 1 0.461431 0.973111 0
931 1 0.52215 0.0345234 0
901 1 0.514926 0.0106878 0
902 1 0.538891 0.0168363 0
904 1 0.563083 0.0234237 0
906 1 0.580887 0.00640964 0
935 1 0.587227 0.0297096 0
933 1 0.545903 0.0412949 0
908 1 0.604768 0.0131671 0
939 1 0.628036 0.0207997 0
937 1 0.610299 0.0374876 0
941 1 0.651473 0.0275035 0
912 1 0.668757 0.00996479 0
942 1 0.676472 0.0338883 0
910 1 0.645308 0.00297625 0
943 1 0.693606 0.0168047 0
945 1 0.718119 0.022881 0
944 1 0.701641 0.041083 0
914 1 0.741352 0.0278431 0
916 1 0.76453 0.0180761 0
915 1 0.742399 0.00295576 0
947 1 0.761058 0.0426459 0
918 1 0.784169 0.0345806 0
919 1 0.80892 0.0263786 0
917 1 0.789445 0.010309 0
1788 1 0.81286 0.00202561 0
920 1 0.832458 0.0191329 0
922 1 0.851222 0.0359477 0
921 1 0.85602 0.0105573 0
923 1 0.873882 0.0285519 0
924 1 0.897529 0.0203588 0
1792 1 0.879898 0.00397216 0
955 1 0.916233 0.0370771 0
925 1 0.920734 0.0120175 0
926 1 0.939876 0.0293473 0
928 1 0.944577 0.00440147 0
930 1 0.987971 0.0121697 0
959 1 0.963991 0.020852 0
960 1 0.982806 0.0372979 0
932 1 0.52847 0.0604822 0
961 1 0.510392 0.0772937 0
60 1 0.504142 0.0524126 0
962 1 0.534469 0.0854605 0
963 1 0.552262 0.065552 0
934 1 0.5692 0.0487209 0
965 1 0.575064 0.0737144 0
938 1 0.6342 0.0453465 0
936 1 0.593363 0.0557424 0
967 1 0.61709 0.0626475 0
966 1 0.59908 0.0811756 0
969 1 0.641882 0.0692818 0
940 1 0.65951 0.0519759 0
970 1 0.665214 0.0760313 0
971 1 0.683686 0.0582335 0
973 1 0.707061 0.0653364 0
972 1 0.689702 0.0830256 0
975 1 0.72691 0.0470189 0
974 1 0.730843 0.0713883 0
946 1 0.755621 0.0681194 0
977 1 0.773532 0.0842818 0
949 1 0.80269 0.0508846 0
948 1 0.779563 0.0596754 0
979 1 0.798049 0.0758098 0
951 1 0.826134 0.0438482 0
950 1 0.821952 0.0682185 0
980 1 0.840091 0.0842034 0
952 1 0.845627 0.0600319 0
981 1 0.86458 0.077559 0
954 1 0.892381 0.0449507 0
953 1 0.868796 0.0528647 0
983 1 0.888368 0.0693676 0
984 1 0.907067 0.087149 0
985 1 0.91218 0.0625143 0
956 1 0.936685 0.0538977 0
986 1 0.9305 0.0785635 0
987 1 0.953917 0.0713818 0
957 1 0.959853 0.0460256 0
958 1 0.977184 0.063177 0
989 1 0.996238 0.080053 0
991 1 0.517749 0.103741 0
993 1 0.541347 0.110223 0
992 1 0.524896 0.127822 0
120 1 0.5007 0.121246 0
964 1 0.558373 0.0923366 0
994 1 0.564762 0.116545 0
995 1 0.582105 0.0981221 0
996 1 0.590127 0.124064 0
968 1 0.623502 0.0860568 0
997 1 0.606755 0.105084 0
998 1 0.630769 0.110477 0
1027 1 0.614186 0.129256 0
999 1 0.647815 0.0940831 0
1000 1 0.654803 0.118023 0
1001 1 0.673053 0.100273 0
1031 1 0.679546 0.125735 0
1002 1 0.697784 0.108374 0
1003 1 0.714698 0.0904052 0
1004 1 0.720825 0.115173 0
976 1 0.768329 0.109528 0
1005 1 0.74904 0.0920254 0
1035 1 0.744926 0.118254 0
978 1 0.815396 0.0929893 0
1007 1 0.792375 0.100913 0
1006 1 0.786545 0.125465 0
1008 1 0.811059 0.117583 0
1009 1 0.834369 0.108271 0
1010 1 0.85392 0.124516 0
1011 1 0.858547 0.101243 0
982 1 0.88299 0.0940637 0
1012 1 0.877852 0.118301 0
1013 1 0.900703 0.111094 0
1016 1 0.919329 0.127768 0
1017 1 0.948108 0.0963327 0
1015 1 0.924962 0.103854 0
1047 1 0.943039 0.120444 0
988 1 0.972703 0.0885119 0
1018 1 0.967639 0.113749 0
1019 1 0.991042 0.105106 0
1020 1 0.986659 0.129967 0
1022 1 0.530574 0.15275 0
1021 1 0.507552 0.145942 0
1051 1 0.513137 0.172167 0
1023 1 0.548701 0.135629 0
1024 1 0.55542 0.159621 0
1025 1 0.572537 0.141477 0
1055 1 0.579281 0.165948 0
1026 1 0.597499 0.147519 0
1028 1 0.621473 0.153842 0
1057 1 0.60428 0.171641 0
1029 1 0.638004 0.135455 0
1059 1 0.645434 0.160346 0
1030 1 0.662803 0.143324 0
1061 1 0.670358 0.167801 0
1033 1 0.703771 0.132708 0
1032 1 0.686582 0.150057 0
1063 1 0.712011 0.155632 0
1062 1 0.693895 0.174372 0
1034 1 0.729566 0.137864 0
1036 1 0.754564 0.142984 0
1065 1 0.735563 0.162095 0
1066 1 0.759581 0.167663 0
1067 1 0.780639 0.151014 0
1037 1 0.806642 0.142031 0
1038 1 0.802328 0.165422 0
1039 1 0.83068 0.133243 0
1040 1 0.825717 0.158367 0
1041 1 0.848516 0.150469 0
1042 1 0.866395 0.167638 0
1014 1 0.896189 0.136184 0
1043 1 0.87276 0.143584 0
1044 1 0.890217 0.160239 0
1045 1 0.914166 0.153319 0
1046 1 0.937612 0.145009 0
1077 1 0.933075 0.170051 0
1048 1 0.957178 0.162968 0
1049 1 0.961143 0.13792 0
1050 1 0.980112 0.15438 0
151 1 0.998082 0.170812 0
1053 1 0.537352 0.177677 0
1052 1 0.521079 0.195987 0
1081 1 0.503362 0.213714 0
1083 1 0.544892 0.201422 0
1054 1 0.562274 0.184056 0
1056 1 0.586415 0.190333 0
1085 1 0.568892 0.208776 0
1058 1 0.628747 0.179123 0
1087 1 0.611158 0.195936 0
1089 1 0.635248 0.203653 0
1086 1 0.59356 0.213829 0
1060 1 0.652788 0.185816 0
1091 1 0.676369 0.192892 0
1090 1 0.659116 0.210128 0
1093 1 0.70198 0.198545 0
1064 1 0.718136 0.181052 0
1094 1 0.725822 0.204525 0
1092 1 0.683728 0.215552 0
1095 1 0.741844 0.186561 0
1097 1 0.764941 0.194197 0
1096 1 0.748627 0.212035 0
1068 1 0.781686 0.176356 0
1098 1 0.78962 0.199893 0
1099 1 0.814278 0.206154 0
1069 1 0.819312 0.182909 0
1071 1 0.843273 0.17569 0
1070 1 0.838131 0.199617 0
1072 1 0.861412 0.193367 0
1101 1 0.854969 0.218455 0
1073 1 0.884582 0.185693 0
1103 1 0.878775 0.210165 0
1074 1 0.902632 0.201231 0
1075 1 0.908824 0.177454 0
1078 1 0.951038 0.186849 0
1076 1 0.927189 0.195085 0
1107 1 0.946113 0.210958 0
1079 1 0.975345 0.1802 0
1109 1 0.969539 0.20442 0
181 1 0.993492 0.196881 0
1082 1 0.528389 0.219594 0
1111 1 0.509935 0.237369 0
1113 1 0.534043 0.244001 0
1084 1 0.551587 0.225876 0
1114 1 0.55803 0.250562 0
1115 1 0.576365 0.232092 0
1116 1 0.58218 0.256558 0
1088 1 0.6179 0.220992 0
1117 1 0.600143 0.237747 0
1118 1 0.624376 0.245458 0
1119 1 0.641441 0.226951 0
1121 1 0.666232 0.23374 0
1120 1 0.647885 0.250791 0
1151 1 0.673094 0.258253 0
1122 1 0.690582 0.240642 0
1123 1 0.707614 0.22283 0
1124 1 0.714296 0.246763 0
1125 1 0.731877 0.230103 0
1126 1 0.756118 0.236536 0
1155 1 0.738434 0.254241 0
1157 1 0.763071 0.259922 0
1127 1 0.773141 0.218023 0
1129 1 0.797983 0.224198 0
1128 1 0.780385 0.241491 0
1159 1 0.803267 0.248468 0
1100 1 0.830942 0.225288 0
1130 1 0.826951 0.249957 0
1131 1 0.850157 0.24276 0
1132 1 0.86883 0.259824 0
1102 1 0.873094 0.235067 0
1104 1 0.897547 0.226707 0
1133 1 0.892395 0.250743 0
1105 1 0.921375 0.219172 0
1135 1 0.915991 0.243955 0
1106 1 0.939111 0.236367 0
1136 1 0.934241 0.261373 0
1110 1 0.987421 0.221073 0
1137 1 0.957558 0.253367 0
1108 1 0.963797 0.228556 0
1139 1 0.982154 0.245454 0
1112 1 0.516352 0.261869 0