ITEM: TIMESTEP
166000
ITEM: NUMBER OF ATOMS
1800
ITEM: BOX BOUNDS pp pp pp
1.3586097893514335e+00 1.6364139021064722e+02
1.3586097893514335e+00 1.6364139021064722e+02
0.0000000000000000e+00 5.5000000000000000e+00
ITEM: ATOMS id type xs ys zs
2 1 0.0118235 0.00659046 0
33 1 0.0302977 0.0241934 0
31 1 0.00572546 0.0307352 0
4 1 0.0532458 0.0156296 0
6 1 0.0776951 0.0083247 0
35 1 0.0722432 0.0324247 0
34 1 0.0487412 0.0403598 0
37 1 0.0964214 0.0248242 0
39 1 0.119798 0.0172063 0
38 1 0.11494 0.0420885 0
8 1 0.101617 0.000747662 0
40 1 0.138722 0.033867 0
10 1 0.1425 0.00906356 0
42 1 0.161634 0.025625 0
41 1 0.16721 0.000949702 0
73 1 0.180413 0.0432553 0
43 1 0.186217 0.0180621 0
14 1 0.210198 0.0109557 0
44 1 0.204395 0.0357616 0
45 1 0.228475 0.027995 0
16 1 0.25178 0.0200621 0
886 1 0.23389 0.0030972 0
46 1 0.269951 0.0379484 0
18 1 0.275994 0.014136 0
49 1 0.294125 0.0314899 0
20 1 0.299571 0.00759221 0
51 1 0.318054 0.0265527 0
22 1 0.341496 0.0331937 0
21 1 0.360161 0.0150479 0
890 1 0.335361 0.0092476 0
24 1 0.383972 0.0208376 0
53 1 0.366459 0.0397958 0
894 1 0.400554 0.00265395 0
25 1 0.408414 0.02666 0
26 1 0.433 0.0322184 0
27 1 0.42568 0.00929736 0
898 1 0.450674 0.0154109 0
28 1 0.457074 0.0402947 0
29 1 0.473972 0.0214918 0
900 1 0.491569 0.00341414 0
30 1 0.498064 0.0283164 0
32 1 0.0241548 0.047683 0
62 1 0.0192573 0.0726274 0
63 1 0.0425782 0.0642133 0
61 1 0.00036098 0.0560328 0
65 1 0.0669948 0.0567099 0
66 1 0.084776 0.0739069 0
64 1 0.0614315 0.080565 0
36 1 0.0910724 0.0482727 0
67 1 0.108277 0.0662475 0
69 1 0.133083 0.0580199 0
68 1 0.12664 0.0833107 0
71 1 0.156794 0.0510115 0
72 1 0.175418 0.0673194 0
70 1 0.150718 0.0756111 0
74 1 0.222927 0.0524856 0
103 1 0.198662 0.0600712 0
105 1 0.216601 0.0773519 0
101 1 0.193116 0.0843629 0
75 1 0.246113 0.0454387 0
77 1 0.264603 0.0631846 0
76 1 0.240523 0.0696728 0
47 1 0.288201 0.0556706 0
48 1 0.307381 0.0718691 0
78 1 0.283237 0.0798787 0
50 1 0.325006 0.0513017 0
81 1 0.332052 0.0762016 0
52 1 0.348827 0.0574865 0
82 1 0.357193 0.0822136 0
55 1 0.391348 0.0444384 0
83 1 0.373925 0.0644746 0
54 1 0.398633 0.0693812 0
57 1 0.439858 0.058266 0
85 1 0.42316 0.0758228 0
56 1 0.415721 0.0508531 0
87 1 0.446382 0.083295 0
59 1 0.481722 0.046472 0
58 1 0.464119 0.0653323 0
89 1 0.4881 0.0707595 0
93 1 0.037734 0.0888587 0
990 1 0.0134278 0.0969929 0
92 1 0.0315965 0.113485 0
91 1 0.00817912 0.122609 0
94 1 0.0554881 0.106056 0
95 1 0.0785217 0.0982302 0
125 1 0.0736809 0.122797 0
123 1 0.0492028 0.130583 0
96 1 0.0976746 0.115283 0
97 1 0.102796 0.0908609 0
98 1 0.121203 0.107272 0
99 1 0.145585 0.0997944 0
100 1 0.169637 0.0926834 0
130 1 0.163602 0.117101 0
129 1 0.139641 0.124468 0
131 1 0.188213 0.110046 0
102 1 0.211703 0.101127 0
133 1 0.206868 0.12625 0
137 1 0.25946 0.0869484 0
104 1 0.229637 0.11811 0
106 1 0.235301 0.0938845 0
135 1 0.254798 0.111871 0
107 1 0.277611 0.102844 0
109 1 0.299028 0.112442 0
79 1 0.314107 0.093907 0
108 1 0.28047 0.128358 0
80 1 0.338959 0.0997159 0
110 1 0.322208 0.117885 0
141 1 0.345106 0.124509 0
111 1 0.364072 0.107063 0
113 1 0.381541 0.088311 0
84 1 0.406165 0.0940187 0
112 1 0.388256 0.112113 0
115 1 0.412419 0.118777 0
86 1 0.429292 0.1014 0
116 1 0.436463 0.125684 0
117 1 0.454836 0.106862 0
88 1 0.470929 0.0893128 0
90 1 0.495221 0.0955827 0
119 1 0.477647 0.114202 0
122 1 0.0264619 0.138943 0
152 1 0.0213991 0.16323 0
121 1 0.00277747 0.147054 0
153 1 0.045151 0.15522 0
124 1 0.0687449 0.147651 0
155 1 0.0872197 0.164343 0
154 1 0.0636433 0.172738 0
127 1 0.116249 0.131807 0
126 1 0.0929784 0.139895 0
128 1 0.134612 0.14929 0
157 1 0.110843 0.156921 0
158 1 0.1296 0.173017 0
159 1 0.158203 0.141909 0
161 1 0.17766 0.158649 0
160 1 0.153763 0.166641 0
132 1 0.182762 0.134103 0
163 1 0.201398 0.151615 0
134 1 0.224144 0.144501 0
193 1 0.221578 0.169394 0
136 1 0.266154 0.148112 0
165 1 0.247042 0.135085 0
164 1 0.244766 0.160052 0
167 1 0.270139 0.171055 0
139 1 0.305378 0.135368 0
138 1 0.288626 0.15341 0
169 1 0.311743 0.159171 0
140 1 0.32807 0.141481 0
142 1 0.352755 0.148256 0
171 1 0.335482 0.165757 0
172 1 0.359324 0.172149 0
143 1 0.370521 0.131199 0
114 1 0.394429 0.137051 0
173 1 0.376341 0.154994 0
144 1 0.401324 0.16105 0
145 1 0.419068 0.142652 0
146 1 0.42434 0.167623 0
147 1 0.442549 0.149879 0
177 1 0.448505 0.173935 0
118 1 0.460603 0.131724 0
149 1 0.485209 0.138681 0
148 1 0.467256 0.156469 0
150 1 0.49039 0.163111 0
183 1 0.0397534 0.18039 0
182 1 0.0344556 0.204912 0
1080 1 0.0153981 0.187156 0
211 1 0.00987365 0.212187 0
184 1 0.0581353 0.196844 0
185 1 0.0812665 0.189258 0
215 1 0.075992 0.2137 0
186 1 0.0994988 0.205785 0
156 1 0.10482 0.182369 0
187 1 0.123544 0.198157 0
189 1 0.147346 0.190711 0
191 1 0.172977 0.183236 0
190 1 0.165821 0.207736 0
188 1 0.141548 0.214715 0
162 1 0.19561 0.175193 0
221 1 0.190813 0.206641 0
192 1 0.212483 0.193525 0
195 1 0.23423 0.204581 0
166 1 0.25024 0.185278 0
196 1 0.25749 0.212028 0
168 1 0.293684 0.177862 0
197 1 0.276258 0.195175 0
199 1 0.299597 0.20226 0
170 1 0.317095 0.183821 0
201 1 0.341089 0.190292 0
200 1 0.324126 0.208871 0
202 1 0.347366 0.214754 0
203 1 0.365364 0.197032 0
174 1 0.383551 0.179034 0
204 1 0.388599 0.203669 0
175 1 0.406964 0.185897 0
205 1 0.413226 0.211238 0
176 1 0.430486 0.19165 0
207 1 0.437227 0.216455 0
178 1 0.455404 0.199653 0
179 1 0.473254 0.181622 0
180 1 0.497615 0.18809 0
209 1 0.479006 0.205434 0
212 1 0.0276561 0.22928 0
241 1 0.02188 0.253536 0
1140 1 0.00393628 0.237063 0
243 1 0.0463132 0.244595 0
213 1 0.0527488 0.221191 0
214 1 0.0710018 0.238545 0
245 1 0.0891957 0.257399 0
216 1 0.0946489 0.23145 0
217 1 0.117604 0.221755 0
247 1 0.115279 0.252127 0
218 1 0.135513 0.238301 0
219 1 0.158005 0.247599 0
220 1 0.175773 0.230175 0
222 1 0.181489 0.255939 0
194 1 0.21443 0.21964 0
223 1 0.199022 0.238418 0
224 1 0.221759 0.246844 0
225 1 0.238568 0.229221 0
227 1 0.263442 0.236309 0
226 1 0.246578 0.254298 0
198 1 0.281 0.219314 0
228 1 0.287065 0.244482 0
229 1 0.3055 0.22659 0
230 1 0.311541 0.250698 0
231 1 0.329398 0.233722 0
232 1 0.35294 0.239914 0
261 1 0.335265 0.257724 0
233 1 0.371281 0.221708 0
234 1 0.376392 0.246151 0
235 1 0.395303 0.228213 0
265 1 0.401916 0.251905 0
206 1 0.420543 0.23501 0
237 1 0.445216 0.24145 0
236 1 0.426346 0.259265 0
208 1 0.462748 0.223929 0
210 1 0.485977 0.229881 0
239 1 0.467919 0.248749 0
240 1 0.492087 0.25485 0
242 1 0.0419745 0.26791 0
271 1 0.037154 0.29086 0
1170 1 0.0171746 0.277238 0
1200 1 0.0143918 0.302466 0
244 1 0.0650232 0.262039 0
273 1 0.0613094 0.297911 0
275 1 0.0805667 0.281925 0
246 1 0.102094 0.293423 0
248 1 0.120281 0.277378 0
279 1 0.125499 0.302759 0
249 1 0.138916 0.262664 0
251 1 0.162477 0.2717 0
250 1 0.143438 0.28713 0
281 1 0.167713 0.296685 0
253 1 0.204457 0.26446 0
252 1 0.186137 0.280702 0
254 1 0.209669 0.289714 0
255 1 0.2282 0.272032 0
257 1 0.269322 0.262122 0
256 1 0.251663 0.280352 0
285 1 0.233502 0.296916 0
259 1 0.294232 0.268918 0
258 1 0.275361 0.286367 0
289 1 0.299664 0.29288 0
260 1 0.317444 0.275708 0
263 1 0.359082 0.264209 0
262 1 0.342266 0.282616 0
291 1 0.323595 0.299679 0
293 1 0.366101 0.289367 0
264 1 0.384507 0.270305 0
295 1 0.390867 0.294833 0
266 1 0.408335 0.276963 0
238 1 0.451115 0.266364 0
267 1 0.432352 0.283748 0
297 1 0.414497 0.301124 0
268 1 0.455755 0.29063 0
1141 1 0.498383 0.27962 0
269 1 0.475227 0.27344 0
270 1 0.481828 0.296896 0
301 1 0.0181061 0.325877 0
272 1 0.0395337 0.314049 0
303 1 0.0423422 0.337927 0
276 1 0.0832806 0.308612 0
274 1 0.0630224 0.323667 0
305 1 0.0854297 0.333225 0
277 1 0.107127 0.317988 0
278 1 0.129548 0.328098 0
307 1 0.10894 0.343596 0
280 1 0.148596 0.311594 0
311 1 0.152688 0.337034 0
282 1 0.172527 0.322171 0
312 1 0.175397 0.347811 0
283 1 0.191551 0.305897 0
284 1 0.214738 0.314036 0
313 1 0.195952 0.331202 0
315 1 0.219188 0.339161 0
287 1 0.257175 0.304763 0
286 1 0.238606 0.322526 0
317 1 0.262989 0.328973 0
316 1 0.243116 0.346114 0
288 1 0.282446 0.310176 0
318 1 0.286781 0.336135 0
290 1 0.306416 0.318149 0
319 1 0.311905 0.342582 0
292 1 0.349283 0.307453 0
321 1 0.330005 0.325027 0
323 1 0.355087 0.330751 0
324 1 0.378786 0.337969 0
294 1 0.373078 0.313366 0
325 1 0.403994 0.343 0
296 1 0.397199 0.319328 0
298 1 0.439956 0.307794 0
327 1 0.421779 0.325614 0
328 1 0.445699 0.331679 0
329 1 0.470078 0.338758 0
299 1 0.464212 0.314656 0
300 1 0.487674 0.321509 0
1201 1 0.494818 0.346698 0
302 1 0.0210827 0.35193 0
332 1 0.0246966 0.376413 0
331 1 0.000134441 0.3653 0
361 1 0.00526601 0.39112 0
304 1 0.066174 0.347868 0
333 1 0.0456988 0.361702 0
335 1 0.0684469 0.372827 0
334 1 0.0485757 0.386955 0
306 1 0.0884385 0.357824 0
337 1 0.0925389 0.382334 0
308 1 0.112753 0.367241 0
309 1 0.132888 0.352488 0
339 1 0.135981 0.377334 0
310 1 0.155744 0.362956 0
341 1 0.159717 0.387744 0
343 1 0.179459 0.371925 0
314 1 0.199988 0.356142 0
344 1 0.20497 0.380428 0
345 1 0.224899 0.363549 0
375 1 0.228733 0.38881 0
347 1 0.268564 0.353361 0
346 1 0.249594 0.370412 0
377 1 0.275148 0.377456 0
349 1 0.29392 0.359425 0
348 1 0.300379 0.383311 0
350 1 0.318474 0.366197 0
320 1 0.336684 0.3492 0
351 1 0.343572 0.372799 0
322 1 0.361057 0.355266 0
381 1 0.326299 0.389841 0
353 1 0.36784 0.37928 0
355 1 0.385836 0.361795 0
354 1 0.391401 0.385186 0
356 1 0.40969 0.368644 0
326 1 0.427658 0.349558 0
357 1 0.434183 0.375386 0
359 1 0.450899 0.357183 0
358 1 0.458916 0.381254 0
330 1 0.476675 0.364348 0
360 1 0.483278 0.388129 0
363 1 0.0285676 0.400983 0
362 1 0.00850947 0.416143 0
364 1 0.0309714 0.425491 0
336 1 0.0716447 0.396854 0
365 1 0.0508086 0.412109 0
366 1 0.07456 0.421664 0
338 1 0.115527 0.392124 0
367 1 0.0948179 0.405998 0
369 1 0.118137 0.415937 0
368 1 0.0982777 0.430651 0
340 1 0.139031 0.402548 0
370 1 0.141762 0.427141 0
371 1 0.162531 0.411593 0
342 1 0.183508 0.395835 0
372 1 0.186304 0.419719 0
373 1 0.207175 0.405078 0
403 1 0.209512 0.430696 0
374 1 0.237803 0.412435 0
376 1 0.25603 0.394678 0
405 1 0.263223 0.418406 0
378 1 0.281799 0.401468 0
379 1 0.308737 0.408183 0
409 1 0.291603 0.424853 0
410 1 0.314269 0.432343 0
352 1 0.349533 0.397319 0
382 1 0.357328 0.421589 0
380 1 0.332674 0.415364 0
383 1 0.374175 0.404231 0
385 1 0.398266 0.409939 0
384 1 0.381449 0.42824 0
415 1 0.405265 0.434101 0
387 1 0.41619 0.392021 0
386 1 0.42357 0.417747 0
388 1 0.441198 0.399888 0
419 1 0.447439 0.424543 0
389 1 0.46481 0.405848 0
1261 1 0.489584 0.412235 0
390 1 0.47122 0.430381 0
393 1 0.0111416 0.4411 0
423 1 0.0138354 0.465739 0
394 1 0.033825 0.450679 0
425 1 0.037765 0.474756 0
395 1 0.0540737 0.43693 0
396 1 0.0573144 0.461103 0
397 1 0.0779462 0.446163 0
427 1 0.0804182 0.470535 0
399 1 0.121325 0.441735 0
398 1 0.1003 0.455884 0
429 1 0.123889 0.466543 0
401 1 0.165008 0.436336 0
400 1 0.144542 0.452459 0
431 1 0.16801 0.462203 0
430 1 0.147649 0.476862 0
402 1 0.188148 0.445851 0
433 1 0.211094 0.456018 0
432 1 0.191155 0.471119 0
404 1 0.231799 0.440441 0
406 1 0.25332 0.455373 0
435 1 0.232855 0.468515 0
407 1 0.27254 0.440856 0
437 1 0.276922 0.465415 0
408 1 0.296242 0.449136 0
439 1 0.302991 0.475176 0
441 1 0.321214 0.457425 0
411 1 0.339498 0.439433 0
412 1 0.345343 0.464154 0
413 1 0.363653 0.446973 0
414 1 0.387442 0.453247 0
443 1 0.369169 0.471758 0
445 1 0.394121 0.477216 0
416 1 0.411447 0.459377 0
417 1 0.429281 0.441693 0
447 1 0.43578 0.466136 0
418 1 0.453215 0.448511 0
1291 1 0.495308 0.436637 0
420 1 0.477795 0.454786 0
449 1 0.460443 0.472075 0
454 1 0.0216942 0.514933 0
424 1 0.0177089 0.491236 0
455 1 0.0415912 0.50055 0
426 1 0.0608571 0.485506 0
456 1 0.0650034 0.511858 0
457 1 0.083778 0.495499 0
487 1 0.0879931 0.521693 0
428 1 0.103955 0.480991 0
459 1 0.126984 0.491295 0
458 1 0.107312 0.506155 0
489 1 0.130537 0.517133 0
461 1 0.170061 0.486502 0
460 1 0.150037 0.501667 0
462 1 0.172734 0.512299 0
434 1 0.212547 0.482355 0
463 1 0.19178 0.4967 0
464 1 0.215376 0.506479 0
436 1 0.257089 0.480021 0
465 1 0.235913 0.492265 0
467 1 0.259921 0.50389 0
466 1 0.238422 0.518447 0
438 1 0.281459 0.489031 0
469 1 0.308051 0.499989 0
468 1 0.285362 0.512851 0
440 1 0.326564 0.482538 0
442 1 0.351568 0.488868 0
471 1 0.333587 0.507383 0
473 1 0.359306 0.513771 0
444 1 0.376306 0.495387 0
475 1 0.400477 0.501823 0
474 1 0.383338 0.519168 0
446 1 0.417987 0.483878 0
477 1 0.424967 0.508123 0
448 1 0.441474 0.490202 0
478 1 0.449936 0.515029 0
450 1 0.483828 0.47916 0
479 1 0.466467 0.496492 0
1381 1 0.490153 0.503652 0
480 1 0.472997 0.521655 0
483 1 0.0239338 0.54104 0
482 1 0.00350094 0.555738 0
485 1 0.0437661 0.525442 0
452 1 0.000532236 0.530391 0
484 1 0.0466009 0.551121 0
486 1 0.068009 0.536748 0
515 1 0.070307 0.562683 0
517 1 0.0909938 0.547522 0
488 1 0.110481 0.532744 0
519 1 0.112906 0.557941 0
490 1 0.133123 0.54234 0
491 1 0.152217 0.526714 0
521 1 0.155041 0.552336 0
492 1 0.175091 0.536801 0
523 1 0.178516 0.562306 0
493 1 0.195754 0.522546 0
494 1 0.198151 0.547351 0
495 1 0.218249 0.53305 0
525 1 0.221341 0.558734 0
496 1 0.240635 0.542973 0
497 1 0.260084 0.528707 0
527 1 0.262905 0.554215 0
470 1 0.315851 0.523885 0
499 1 0.304817 0.545685 0
498 1 0.281535 0.5375 0
529 1 0.286141 0.561974 0
472 1 0.342475 0.531711 0
501 1 0.327353 0.551762 0
502 1 0.350793 0.556688 0
503 1 0.366893 0.538496 0
505 1 0.390606 0.544936 0
476 1 0.407754 0.527332 0
504 1 0.374421 0.563364 0
506 1 0.415109 0.55212 0
507 1 0.432134 0.533558 0
508 1 0.438539 0.558655 0
509 1 0.455442 0.540649 0
510 1 0.479585 0.546406 0
1382 1 0.497519 0.527923 0
513 1 0.0263916 0.565863 0
512 1 0.0299355 0.590327 0
511 1 0.00568652 0.580766 0
541 1 0.00900196 0.605374 0
514 1 0.0502745 0.576775 0
545 1 0.0718926 0.587896 0
543 1 0.0521273 0.601339 0
516 1 0.0929446 0.572879 0
518 1 0.115073 0.583237 0
547 1 0.0954783 0.597651 0
548 1 0.118237 0.607248 0
520 1 0.136394 0.568369 0
549 1 0.138417 0.593561 0
522 1 0.158374 0.578298 0
551 1 0.161357 0.60328 0
553 1 0.181217 0.588249 0
524 1 0.201357 0.573602 0
554 1 0.205746 0.598697 0
555 1 0.224046 0.583572 0
526 1 0.243922 0.568601 0
557 1 0.247227 0.594211 0
528 1 0.266369 0.579254 0
558 1 0.270527 0.603602 0
500 1 0.309777 0.569207 0
559 1 0.291223 0.586345 0
530 1 0.315338 0.594171 0
531 1 0.334015 0.575313 0
532 1 0.338955 0.599562 0
533 1 0.357157 0.581609 0
563 1 0.362865 0.606539 0
534 1 0.380496 0.587893 0
535 1 0.398307 0.570885 0
536 1 0.404193 0.595276 0
537 1 0.421512 0.577119 0
567 1 0.428241 0.600901 0
538 1 0.445455 0.583645 0
568 1 0.451653 0.608269 0
539 1 0.462987 0.565133 0
540 1 0.487505 0.57088 0
569 1 0.469965 0.589252 0
1441 1 0.49435 0.595164 0
542 1 0.0320033 0.615985 0
571 1 0.0126075 0.629459 0
573 1 0.0345327 0.640765 0
546 1 0.0750691 0.612251 0
544 1 0.0550088 0.626938 0
575 1 0.0782517 0.637473 0
577 1 0.0978375 0.623048 0
579 1 0.121065 0.632676 0
576 1 0.101 0.647375 0
550 1 0.140576 0.618101 0
581 1 0.163919 0.627861 0
580 1 0.144017 0.643093 0
552 1 0.184547 0.612564 0
582 1 0.187553 0.637575 0
583 1 0.208144 0.624394 0
584 1 0.210866 0.648524 0
556 1 0.22746 0.609105 0
585 1 0.231077 0.633321 0
586 1 0.255383 0.643184 0
587 1 0.251459 0.618972 0
560 1 0.295244 0.610571 0
589 1 0.277029 0.627819 0
590 1 0.300361 0.636032 0
561 1 0.318723 0.618341 0
562 1 0.343747 0.624191 0
591 1 0.325487 0.642219 0
593 1 0.34989 0.648711 0
565 1 0.385979 0.612936 0
564 1 0.36811 0.631143 0
595 1 0.391952 0.637403 0
566 1 0.410602 0.619975 0
596 1 0.416193 0.644063 0
597 1 0.434265 0.625828 0
599 1 0.441658 0.650417 0
570 1 0.476552 0.613252 0
600 1 0.458607 0.631819 0
1471 1 0.482378 0.637817 0
572 1 0.014047 0.655094 0
602 1 0.0163821 0.680973 0
603 1 0.0364623 0.66743 0
633 1 0.0395177 0.691595 0
574 1 0.0568795 0.652134 0
605 1 0.0798205 0.661765 0
604 1 0.0597585 0.676888 0
606 1 0.0833122 0.687775 0
578 1 0.123914 0.657334 0
607 1 0.103791 0.673644 0
608 1 0.12657 0.683631 0
611 1 0.16684 0.652017 0
609 1 0.145779 0.667813 0
610 1 0.169714 0.677188 0
639 1 0.149708 0.693217 0
612 1 0.191775 0.688218 0
613 1 0.190287 0.662675 0
614 1 0.213667 0.673944 0
615 1 0.235658 0.658032 0
616 1 0.238909 0.68263 0
617 1 0.261379 0.669148 0
647 1 0.270997 0.694247 0
588 1 0.281281 0.652506 0
619 1 0.307 0.659786 0
618 1 0.288894 0.677247 0
620 1 0.313614 0.684183 0
621 1 0.331329 0.667072 0
592 1 0.357722 0.673542 0
622 1 0.338002 0.690667 0
594 1 0.373685 0.655061 0
625 1 0.398257 0.661705 0
623 1 0.38125 0.678912 0
626 1 0.406006 0.684419 0
598 1 0.447633 0.674026 0
627 1 0.423898 0.667005 0
657 1 0.429536 0.691728 0
628 1 0.472009 0.680519 0
629 1 0.465716 0.656147 0
1501 1 0.488714 0.662871 0
630 1 0.495979 0.686909 0
632 1 0.018963 0.705803 0
663 1 0.0211433 0.73132 0
634 1 0.0417742 0.718003 0
635 1 0.0626391 0.701772 0
636 1 0.0863087 0.712902 0
665 1 0.0650808 0.7263 0
666 1 0.0874302 0.738225 0
637 1 0.106392 0.697961 0
638 1 0.12909 0.708466 0
667 1 0.109194 0.723065 0
669 1 0.132382 0.73318 0
641 1 0.172001 0.703477 0
640 1 0.152641 0.71895 0
671 1 0.175826 0.728616 0
643 1 0.214105 0.698051 0
642 1 0.194966 0.713444 0
644 1 0.217303 0.723979 0
645 1 0.236952 0.707097 0
675 1 0.24007 0.731982 0
646 1 0.259509 0.715835 0
649 1 0.297123 0.702348 0
648 1 0.282145 0.721717 0
679 1 0.305446 0.728018 0
650 1 0.321656 0.708559 0
651 1 0.346457 0.71614 0
681 1 0.329582 0.733612 0
653 1 0.362995 0.697249 0
624 1 0.388211 0.703954 0
654 1 0.370367 0.721032 0
685 1 0.395341 0.727272 0
655 1 0.412165 0.709396 0
656 1 0.435516 0.716062 0
686 1 0.419165 0.734293 0
658 1 0.454131 0.697752 0
687 1 0.460492 0.722035 0
659 1 0.478521 0.703923 0
689 1 0.484426 0.729382 0
662 1 0.0227665 0.756369 0
691 1 0.00359415 0.771478 0
664 1 0.0443925 0.743542 0
694 1 0.0463376 0.768043 0
695 1 0.0675245 0.752749 0
696 1 0.0694679 0.777077 0
697 1 0.0906471 0.762867 0
668 1 0.110601 0.747907 0
698 1 0.112862 0.773743 0
699 1 0.133483 0.757446 0
700 1 0.135464 0.782242 0
670 1 0.155106 0.743978 0
701 1 0.157808 0.76866 0
672 1 0.178113 0.755052 0
702 1 0.181047 0.779569 0
673 1 0.197573 0.739698 0
674 1 0.221076 0.748564 0
703 1 0.201359 0.764963 0
705 1 0.226053 0.77271 0
677 1 0.263841 0.73979 0
676 1 0.245651 0.756542 0
707 1 0.26967 0.764196 0
735 1 0.249353 0.781312 0
678 1 0.287599 0.74603 0
709 1 0.293233 0.769928 0
680 1 0.311041 0.751882 0
710 1 0.319355 0.774748 0
652 1 0.353663 0.740332 0
682 1 0.362019 0.764071 0
711 1 0.336485 0.758242 0
741 1 0.343984 0.781682 0
683 1 0.378831 0.74478 0
713 1 0.385082 0.770606 0
684 1 0.402182 0.752125 0
716 1 0.409276 0.776703 0
717 1 0.443281 0.741222 0
715 1 0.426336 0.75883 0
718 1 0.450074 0.766027 0
1591 1 0.497428 0.777983 0
690 1 0.491065 0.753576 0
688 1 0.466635 0.746669 0
719 1 0.473557 0.770659 0
693 1 0.0266956 0.783501 0
692 1 0.00624364 0.79717 0
722 1 0.00469764 0.822873 0
723 1 0.0274917 0.813624 0
725 1 0.0489086 0.79301 0
726 1 0.0724192 0.80217 0
727 1 0.0920199 0.787875 0
728 1 0.115238 0.798998 0
757 1 0.0936056 0.814424 0
729 1 0.138309 0.805815 0
730 1 0.160169 0.819367 0
731 1 0.160461 0.794187 0
732 1 0.183204 0.807529 0
704 1 0.204464 0.790396 0
763 1 0.202785 0.825124 0
734 1 0.228691 0.821708 0
733 1 0.230275 0.796994 0
736 1 0.253523 0.805946 0
706 1 0.274082 0.788579 0
737 1 0.28354 0.811528 0
708 1 0.301185 0.793575 0
738 1 0.308245 0.817883 0
739 1 0.325571 0.799383 0
742 1 0.349544 0.806688 0
740 1 0.331754 0.823768 0
712 1 0.367785 0.789454 0
714 1 0.392086 0.794081 0
743 1 0.374216 0.81286 0
745 1 0.398919 0.820765 0
747 1 0.431865 0.783482 0
746 1 0.415185 0.80241 0
748 1 0.439854 0.808754 0
749 1 0.45636 0.790385 0
720 1 0.480248 0.795064 0
750 1 0.464491 0.815068 0
1621 1 0.488281 0.821456 0
753 1 0.0235877 0.840787 0
783 1 0.0179621 0.866172 0
754 1 0.0413036 0.858347 0
755 1 0.0711387 0.826508 0
724 1 0.046577 0.831992 0
785 1 0.0654685 0.850677 0
786 1 0.0852739 0.867664 0
756 1 0.0892001 0.842755 0
758 1 0.112338 0.833425 0
787 1 0.108531 0.858944 0
789 1 0.132532 0.852625 0
759 1 0.136834 0.829316 0
760 1 0.156739 0.844362 0
791 1 0.174693 0.860864 0
761 1 0.179535 0.835194 0
790 1 0.150573 0.869063 0
762 1 0.198066 0.853064 0
764 1 0.22145 0.845107 0
765 1 0.245748 0.8393 0
795 1 0.24024 0.863076 0
766 1 0.26654 0.854491 0
767 1 0.267425 0.828933 0
769 1 0.313422 0.842721 0
768 1 0.29098 0.835629 0
799 1 0.296612 0.859646 0
770 1 0.33804 0.849079 0
771 1 0.355724 0.830904 0
801 1 0.320425 0.86728 0
773 1 0.362551 0.855761 0
744 1 0.381154 0.837322 0
774 1 0.38714 0.862066 0
775 1 0.404952 0.844977 0
777 1 0.422383 0.826795 0
776 1 0.410347 0.869687 0
807 1 0.428601 0.85275 0
778 1 0.445939 0.833962 0
809 1 0.453318 0.857903 0
779 1 0.471033 0.839637 0
780 1 0.476626 0.865105 0
1651 1 0.494044 0.846532 0
812 1 0.0134051 0.892267 0
814 1 0.0321283 0.907995 0
813 1 0.0366467 0.883042 0
784 1 0.061335 0.874792 0
815 1 0.0561229 0.899641 0
816 1 0.0806634 0.892364 0
788 1 0.127282 0.876747 0
817 1 0.104111 0.883773 0
819 1 0.121939 0.90173 0
818 1 0.0988873 0.910362 0
821 1 0.168815 0.885779 0
820 1 0.14544 0.89364 0
851 1 0.163959 0.910284 0
793 1 0.21609 0.869646 0
792 1 0.192894 0.87841 0
823 1 0.211097 0.89533 0
822 1 0.187558 0.903075 0
794 1 0.234256 0.887739 0
796 1 0.257477 0.880858 0
827 1 0.255898 0.905184 0
825 1 0.230249 0.911325 0
797 1 0.280934 0.87736 0
798 1 0.282509 0.900901 0
800 1 0.303197 0.885156 0
829 1 0.306687 0.911098 0
831 1 0.326554 0.892387 0
772 1 0.345124 0.874324 0
802 1 0.351291 0.898347 0
803 1 0.36946 0.881002 0
804 1 0.375889 0.905122 0
805 1 0.393167 0.886946 0
835 1 0.398845 0.910882 0
806 1 0.416564 0.893857 0
808 1 0.434481 0.875929 0
839 1 0.440711 0.900589 0
1681 1 0.483295 0.888969 0
810 1 0.458814 0.882288 0
840 1 0.465097 0.906592 0
1711 1 0.492255 0.912769 0
843 1 0.00681913 0.915961 0
844 1 0.0262309 0.932315 0
842 1 0.00215628 0.940046 0
875 1 0.0449448 0.948239 0
845 1 0.0507734 0.923649 0
846 1 0.0690774 0.941086 0
847 1 0.0750137 0.916664 0
848 1 0.0930031 0.934173 0
849 1 0.117632 0.92691 0
879 1 0.111968 0.951699 0
881 1 0.135675 0.943512 0
850 1 0.140247 0.917708 0
852 1 0.158515 0.934909 0
883 1 0.177762 0.95212 0
853 1 0.182009 0.927626 0
824 1 0.206511 0.9194 0
854 1 0.202724 0.94348 0
855 1 0.225956 0.936979 0
826 1 0.248771 0.92882 0
857 1 0.268731 0.946383 0
856 1 0.245647 0.954565 0
828 1 0.271999 0.922158 0
859 1 0.291575 0.937834 0
830 1 0.31568 0.93477 0
833 1 0.357717 0.922672 0
832 1 0.33251 0.916782 0
861 1 0.339796 0.941407 0
863 1 0.364452 0.947125 0
834 1 0.382428 0.929477 0
865 1 0.406965 0.935683 0
864 1 0.389868 0.954101 0
837 1 0.423264 0.917312 0
836 1 0.431071 0.943787 0
838 1 0.447312 0.924934 0
870 1 0.455351 0.948921 0
869 1 0.473002 0.930777 0
1712 1 0.49694 0.937597 0
1741 1 0.479846 0.955204 0
3 1 0.0351607 0.99845 0
873 1 0.0217528 0.956698 0
872 1 0.0171076 0.981345 0
874 1 0.0407912 0.973648 0
877 1 0.0879923 0.958268 0
5 1 0.0589755 0.990875 0
876 1 0.0641804 0.965419 0
7 1 0.0824352 0.983468 0
9 1 0.125169 0.992093 0
878 1 0.10579 0.976384 0
880 1 0.129719 0.968303 0
11 1 0.149243 0.983922 0
882 1 0.154704 0.960524 0
13 1 0.174337 0.9763 0
12 1 0.192051 0.992173 0
15 1 0.215713 0.985359 0
884 1 0.197233 0.96808 0
885 1 0.221669 0.961141 0
17 1 0.257609 0.995682 0
887 1 0.239638 0.978632 0
888 1 0.264701 0.971874 0
858 1 0.288279 0.963588 0
19 1 0.282466 0.989735 0
889 1 0.305552 0.981879 0
860 1 0.321356 0.959423 0
862 1 0.347345 0.96589 0
891 1 0.330057 0.983211 0
892 1 0.353529 0.991052 0
23 1 0.377317 0.996191 0
893 1 0.371515 0.97165 0
895 1 0.395379 0.978644 0
897 1 0.443582 0.991463 0
896 1 0.419792 0.985082 0
866 1 0.414375 0.961038 0
867 1 0.43798 0.967713 0
868 1 0.461892 0.973559 0
899 1 0.46744 0.997141 0
1771 1 0.485506 0.979124 0
931 1 0.52146 0.0345954 0
901 1 0.516133 0.0102366 0
902 1 0.540903 0.0164343 0
933 1 0.546823 0.0407869 0
904 1 0.565187 0.0232374 0
906 1 0.582646 0.00488364 0
935 1 0.588281 0.0287922 0
908 1 0.605937 0.0116898 0
939 1 0.629549 0.0183217 0
937 1 0.611874 0.0361105 0
938 1 0.63558 0.0425516 0
941 1 0.653919 0.0249459 0
912 1 0.672168 0.00734291 0
942 1 0.677379 0.0318589 0
910 1 0.647771 0.00102725 0
943 1 0.695293 0.0145352 0
945 1 0.719148 0.0207161 0
944 1 0.701533 0.0394922 0
914 1 0.742976 0.0244492 0
916 1 0.766002 0.0172815 0
915 1 0.742839 0.000125537 0
947 1 0.760098 0.0406303 0
918 1 0.783937 0.0330225 0
919 1 0.807347 0.0261578 0
917 1 0.789172 0.00924298 0
1788 1 0.812761 0.00240531 0
920 1 0.830626 0.0186412 0
922 1 0.849734 0.0362179 0
921 1 0.854792 0.0115703 0
951 1 0.825493 0.0435795 0
923 1 0.873063 0.0284244 0
924 1 0.897537 0.0207755 0
1792 1 0.878994 0.00446588 0
955 1 0.915879 0.0384952 0
925 1 0.921313 0.013837 0
926 1 0.939781 0.0296099 0
928 1 0.945192 0.00459238 0
930 1 0.987602 0.0141332 0
959 1 0.964259 0.0231727 0
960 1 0.982508 0.0389995 0
932 1 0.529242 0.0589175 0
961 1 0.51145 0.0771382 0
60 1 0.505217 0.0531046 0
962 1 0.535763 0.0833305 0
963 1 0.553137 0.065329 0
934 1 0.570773 0.0476117 0
965 1 0.577062 0.0723782 0
936 1 0.594592 0.0532374 0
967 1 0.617715 0.0613809 0
966 1 0.60071 0.0784261 0
968 1 0.623947 0.0851275 0
969 1 0.64167 0.0668163 0
940 1 0.65994 0.050189 0
970 1 0.666249 0.0742974 0
971 1 0.684386 0.0572828 0
973 1 0.707975 0.0629927 0
972 1 0.690595 0.0813733 0
975 1 0.727987 0.0453159 0
974 1 0.731623 0.0700201 0
946 1 0.754781 0.0644215 0
977 1 0.772034 0.0816325 0
949 1 0.801975 0.0500872 0
948 1 0.778375 0.057131 0
979 1 0.796335 0.0746977 0
950 1 0.820781 0.067447 0
980 1 0.83851 0.0847927 0
952 1 0.843499 0.0601692 0
981 1 0.862215 0.0770921 0
954 1 0.891572 0.0455045 0
953 1 0.86821 0.0533419 0
983 1 0.886537 0.0694788 0
984 1 0.904487 0.0869767 0
985 1 0.910235 0.0622997 0
956 1 0.934663 0.0537818 0
986 1 0.929225 0.0782257 0
987 1 0.952925 0.0715218 0
957 1 0.958045 0.0468178 0
958 1 0.976212 0.063692 0
989 1 0.994891 0.0804428 0
991 1 0.519018 0.101797 0
993 1 0.542241 0.10786 0
992 1 0.525999 0.12736 0
120 1 0.501149 0.120158 0
964 1 0.559372 0.09019 0
994 1 0.566156 0.115158 0
995 1 0.583937 0.0969143 0
996 1 0.590829 0.122457 0
997 1 0.607449 0.103776 0
998 1 0.631768 0.110275 0
1027 1 0.614215 0.128158 0
999 1 0.6482 0.0920037 0
1000 1 0.656589 0.116801 0
1001 1 0.672949 0.0985948 0
1031 1 0.679883 0.123843 0
1002 1 0.697262 0.105643 0
1003 1 0.714554 0.0878617 0
1004 1 0.721452 0.112553 0
1033 1 0.703833 0.130094 0
976 1 0.766075 0.105458 0
1005 1 0.740647 0.0935221 0
1035 1 0.745759 0.11919 0
978 1 0.814282 0.0923436 0
1007 1 0.790139 0.100396 0
1006 1 0.783556 0.124948 0
1008 1 0.808694 0.116596 0
1009 1 0.832915 0.109278 0
1010 1 0.851668 0.12612 0
1011 1 0.856496 0.101788 0
982 1 0.880548 0.0939639 0
1012 1 0.87522 0.11772 0
1013 1 0.899697 0.111163 0
1016 1 0.917487 0.128329 0
1017 1 0.947132 0.0953618 0
1015 1 0.923197 0.102988 0
1047 1 0.941467 0.120092 0
988 1 0.972008 0.0883266 0
1018 1 0.965115 0.112757 0
1019 1 0.989896 0.105676 0
1020 1 0.984421 0.130375 0
1022 1 0.532772 0.152481 0
1021 1 0.509199 0.145026 0
1051 1 0.514466 0.169725 0
1023 1 0.549266 0.133925 0
1024 1 0.55635 0.158793 0
1025 1 0.573594 0.140035 0
1055 1 0.579996 0.164469 0
1026 1 0.597386 0.146353 0
1028 1 0.621834 0.153384 0
1057 1 0.603505 0.170531 0
1029 1 0.638618 0.134865 0
1059 1 0.646211 0.159352 0
1030 1 0.663279 0.141506 0
1061 1 0.669779 0.166332 0
1032 1 0.686282 0.148116 0
1063 1 0.710738 0.15372 0
1062 1 0.693206 0.172161 0
1034 1 0.728318 0.136888 0
1036 1 0.750921 0.143954 0
1065 1 0.733753 0.161412 0
1066 1 0.757312 0.168092 0
1067 1 0.776944 0.149798 0
1037 1 0.802793 0.140222 0
1038 1 0.798744 0.163572 0
1039 1 0.826805 0.133791 0
1040 1 0.822406 0.157957 0
1041 1 0.846028 0.150256 0
1042 1 0.863578 0.16701 0
1014 1 0.893642 0.136633 0
1043 1 0.870305 0.142605 0
1044 1 0.887648 0.160493 0
1045 1 0.911837 0.152404 0
1046 1 0.93618 0.144356 0
1077 1 0.930209 0.168581 0
1048 1 0.954381 0.161105 0
1049 1 0.960202 0.136473 0
1050 1 0.97844 0.154494 0
151 1 0.997248 0.170886 0
1053 1 0.538403 0.176813 0
1052 1 0.521404 0.19503 0
1081 1 0.50331 0.212022 0
1083 1 0.545823 0.201027 0
1054 1 0.563728 0.18324 0
1056 1 0.587502 0.189819 0
1085 1 0.570174 0.207606 0
1058 1 0.628521 0.177282 0
1087 1 0.611301 0.19515 0
1089 1 0.634738 0.202382 0
1086 1 0.594819 0.214685 0
1060 1 0.652315 0.184514 0
1091 1 0.675685 0.190209 0
1090 1 0.658394 0.208531 0
1093 1 0.699228 0.197843 0
1064 1 0.717066 0.179476 0
1094 1 0.722577 0.205212 0
1092 1 0.681665 0.215041 0
1095 1 0.740742 0.187933 0
1097 1 0.763943 0.194077 0
1096 1 0.746943 0.212145 0
1068 1 0.779722 0.176132 0
1098 1 0.78772 0.20026 0
1099 1 0.811107 0.205642 0
1069 1 0.815876 0.181577 0
1071 1 0.840313 0.174675 0
1070 1 0.83487 0.198032 0
1072 1 0.858231 0.192242 0
1101 1 0.852906 0.215994 0
1073 1 0.881076 0.184014 0
1103 1 0.87623 0.209281 0
1074 1 0.901097 0.201824 0
1075 1 0.90509 0.177502 0
1078 1 0.949205 0.184928 0
1076 1 0.925212 0.193245 0
1107 1 0.943957 0.210207 0
1079 1 0.972487 0.177845 0
1109 1 0.967955 0.202735 0
181 1 0.991386 0.194636 0
1082 1 0.528346 0.21902 0
1111 1 0.510841 0.236523 0
1113 1 0.534352 0.243407 0
1084 1 0.552646 0.225032 0
1114 1 0.558097 0.250152 0
1115 1 0.576492 0.23297 0
1116 1 0.582055 0.256928 0
1088 1 0.617774 0.220561 0
1117 1 0.600999 0.238978 0
1118 1 0.624833 0.245011 0
1119 1 0.642072 0.227177 0
1121 1 0.665665 0.233339 0
1120 1 0.648249 0.252184 0
1151 1 0.671473 0.258452 0
1122 1 0.68895 0.240783 0
1123 1 0.70494 0.222406 0
1124 1 0.712963 0.248055 0
1125 1 0.72917 0.229884 0
1126 1 0.753653 0.235442 0
1155 1 0.737371 0.253892 0
1127 1 0.770645 0.217911 0
1129 1 0.794852 0.224828 0
1128 1 0.776769 0.242027 0
1159 1 0.801195 0.248239 0
1100 1 0.82934 0.223873 0
1130 1 0.825519 0.247708 0
1131 1 0.847827 0.240049 0
1132 1 0.864806 0.258483 0
1102 1 0.871001 0.233586 0
1104 1 0.895357 0.225575 0
1133 1 0.8893 0.250522 0
1105 1 0.920608 0.217688 0
1135 1 0.913126 0.242392 0
1106 1 0.937328 0.23548 0
1136 1 0.931435 0.25929 0
1110 1 0.985681 0.219588 0
1137 1 0.955548 0.251927 0
1108 1 0.962259 0.226943 0
1139 1 0.979904 0.24376 0
1112 1 0.516388 0.261281 0
1142 1 0.522704 0.28585 0
1143 1 0.540302 0.267801 0
1144 1 0.54669 0.291916 0