ITEM: TIMESTEP
168000
ITEM: NUMBER OF ATOMS
1800
ITEM: BOX BOUNDS pp pp pp
1.3844658540752306e+00 1.6361553414592365e+02
1.3844658540752306e+00 1.6361553414592365e+02
0.0000000000000000e+00 5.5000000000000000e+00
ITEM: ATOMS id type xs ys zs
2 1 0.0098397 0.00680116 0
33 1 0.0291381 0.0235559 0
31 1 0.00516701 0.031171 0
4 1 0.0526873 0.0157603 0
6 1 0.0774538 0.00772888 0
35 1 0.071448 0.0313685 0
34 1 0.047582 0.0407715 0
37 1 0.0949202 0.0254003 0
39 1 0.119082 0.0168202 0
38 1 0.113505 0.0420428 0
8 1 0.100257 0.000328074 0
40 1 0.137051 0.0337585 0
10 1 0.142681 0.00805845 0
42 1 0.160045 0.0254753 0
41 1 0.166269 0.00138374 0
73 1 0.178503 0.0422556 0
43 1 0.183708 0.0191036 0
14 1 0.208479 0.0123393 0
44 1 0.203577 0.0354705 0
45 1 0.228258 0.0278667 0
16 1 0.25232 0.019202 0
886 1 0.232971 0.00371836 0
46 1 0.27118 0.0366771 0
18 1 0.277599 0.0126049 0
49 1 0.294687 0.0298252 0
20 1 0.30331 0.00548616 0
51 1 0.319253 0.0259142 0
22 1 0.343249 0.0330224 0
21 1 0.361508 0.0153688 0
890 1 0.336837 0.00944266 0
24 1 0.385133 0.021672 0
53 1 0.367357 0.0401576 0
894 1 0.401019 0.0046494 0
25 1 0.409538 0.0283205 0
26 1 0.434413 0.0348953 0
27 1 0.4262 0.0106584 0
898 1 0.450419 0.0165117 0
28 1 0.458588 0.0405015 0
29 1 0.47408 0.0218563 0
900 1 0.492721 0.00352658 0
30 1 0.499192 0.0285324 0
32 1 0.0237921 0.0478631 0
62 1 0.0180669 0.0723415 0
63 1 0.0426683 0.0646451 0
61 1 0.000499655 0.0553558 0
65 1 0.0662941 0.0569577 0
66 1 0.0846184 0.0741042 0
64 1 0.0606564 0.0818271 0
36 1 0.0897252 0.0492644 0
67 1 0.10752 0.0660966 0
69 1 0.132127 0.0589166 0
68 1 0.126177 0.0825393 0
71 1 0.155452 0.050315 0
72 1 0.174289 0.0680506 0
70 1 0.150516 0.0755377 0
74 1 0.223306 0.0513761 0
103 1 0.197392 0.059449 0
105 1 0.216518 0.0763025 0
101 1 0.192558 0.085362 0
75 1 0.247103 0.044082 0
77 1 0.265515 0.0611842 0
76 1 0.241026 0.0691417 0
47 1 0.28919 0.0537316 0
48 1 0.307972 0.0700104 0
78 1 0.28352 0.0783267 0
50 1 0.324987 0.051261 0
81 1 0.33257 0.076188 0
52 1 0.349061 0.0573028 0
82 1 0.356542 0.0815941 0
55 1 0.39189 0.0454537 0
83 1 0.373778 0.064058 0
54 1 0.397696 0.0701326 0
57 1 0.439856 0.0593982 0
85 1 0.423016 0.0771614 0
56 1 0.416392 0.0514462 0
87 1 0.447143 0.0835484 0
59 1 0.481827 0.0480314 0
58 1 0.463659 0.0656645 0
89 1 0.48832 0.0717724 0
93 1 0.0360767 0.0890003 0
990 1 0.012715 0.096775 0
92 1 0.0313673 0.114114 0
91 1 0.00731152 0.121961 0
94 1 0.0550654 0.106283 0
95 1 0.0787852 0.0986931 0
125 1 0.0735358 0.123004 0
123 1 0.0503128 0.130509 0
96 1 0.0967346 0.115577 0
97 1 0.10187 0.0909854 0
98 1 0.121447 0.107328 0
99 1 0.144427 0.100002 0
100 1 0.168079 0.0933286 0
130 1 0.163009 0.117612 0
129 1 0.139422 0.124867 0
131 1 0.187029 0.110113 0
102 1 0.210194 0.102461 0
133 1 0.205384 0.127527 0
137 1 0.258198 0.0854085 0
104 1 0.228346 0.117575 0
106 1 0.234436 0.0933749 0
135 1 0.252431 0.1115 0
107 1 0.275436 0.102467 0
109 1 0.298298 0.111787 0
79 1 0.314464 0.0937147 0
108 1 0.280406 0.128981 0
80 1 0.339426 0.099616 0
110 1 0.322441 0.117734 0
141 1 0.346105 0.125352 0
111 1 0.363137 0.106671 0
113 1 0.380932 0.0889591 0
84 1 0.404201 0.0949836 0
112 1 0.387607 0.113549 0
115 1 0.411467 0.118837 0
86 1 0.428338 0.101424 0
116 1 0.436279 0.126102 0
117 1 0.453208 0.107374 0
88 1 0.470771 0.0900516 0
90 1 0.49381 0.0967656 0
119 1 0.476331 0.114033 0
122 1 0.0256571 0.138591 0
152 1 0.0199969 0.163136 0
121 1 0.00243272 0.146646 0
153 1 0.0444197 0.154373 0
124 1 0.0693888 0.148448 0
155 1 0.0872289 0.164834 0
154 1 0.0630208 0.171603 0
127 1 0.115718 0.131821 0
126 1 0.0923889 0.140723 0
128 1 0.133895 0.150287 0
157 1 0.111055 0.157057 0
158 1 0.129382 0.174594 0
159 1 0.158199 0.142145 0
161 1 0.175612 0.160022 0
160 1 0.152212 0.165773 0
132 1 0.181399 0.134524 0
163 1 0.19924 0.152183 0
134 1 0.222612 0.145231 0
193 1 0.218166 0.169792 0
136 1 0.263793 0.147501 0
165 1 0.243994 0.134966 0
164 1 0.242903 0.161471 0
167 1 0.269302 0.171702 0
139 1 0.305567 0.135405 0
138 1 0.287658 0.153717 0
169 1 0.311299 0.160322 0
140 1 0.328285 0.141795 0
142 1 0.353094 0.149849 0
171 1 0.335472 0.166124 0
172 1 0.359826 0.173222 0
143 1 0.369995 0.131411 0
114 1 0.393881 0.137082 0
173 1 0.377051 0.155274 0
144 1 0.402122 0.162221 0
145 1 0.418118 0.142971 0
146 1 0.425399 0.167895 0
147 1 0.442144 0.150342 0
177 1 0.448903 0.174181 0
118 1 0.459508 0.132187 0
149 1 0.483764 0.138171 0
148 1 0.466589 0.156214 0
150 1 0.489876 0.162963 0
183 1 0.0390759 0.179668 0
182 1 0.0342046 0.203181 0
1080 1 0.0151152 0.187549 0
211 1 0.00958043 0.211626 0
184 1 0.0578886 0.196164 0
185 1 0.0815233 0.189384 0
215 1 0.0763648 0.214612 0
186 1 0.100558 0.206767 0
156 1 0.104818 0.181704 0
187 1 0.123329 0.199013 0
189 1 0.147618 0.191095 0
191 1 0.171127 0.184074 0
190 1 0.166248 0.208547 0
188 1 0.142282 0.214446 0
162 1 0.194581 0.177743 0
221 1 0.191675 0.208191 0
192 1 0.213703 0.194235 0
195 1 0.235152 0.204414 0
166 1 0.251504 0.186755 0
196 1 0.257782 0.213007 0
168 1 0.293699 0.177876 0
197 1 0.275894 0.195636 0
199 1 0.299689 0.202048 0
170 1 0.318384 0.184516 0
201 1 0.341174 0.191419 0
200 1 0.323736 0.208925 0
202 1 0.348063 0.214729 0
203 1 0.365511 0.196879 0
174 1 0.383812 0.179284 0
204 1 0.389681 0.20415 0
175 1 0.407373 0.185788 0
205 1 0.41475 0.211232 0
176 1 0.430776 0.191972 0
207 1 0.437701 0.216878 0
178 1 0.455064 0.198229 0
179 1 0.473162 0.180426 0
180 1 0.496693 0.187489 0
209 1 0.479699 0.205339 0
212 1 0.0282871 0.227673 0
241 1 0.0230483 0.251494 0
1140 1 0.00414267 0.23543 0
243 1 0.0471226 0.244652 0
213 1 0.0525092 0.220848 0
214 1 0.0720629 0.238919 0
245 1 0.0903512 0.258034 0
216 1 0.0954496 0.231197 0
217 1 0.119022 0.223296 0
247 1 0.114156 0.249948 0
218 1 0.136702 0.238259 0
219 1 0.159188 0.247533 0
220 1 0.176954 0.230151 0
222 1 0.182156 0.255551 0
194 1 0.215547 0.220437 0
223 1 0.199577 0.238585 0
224 1 0.22284 0.247105 0
225 1 0.238981 0.229526 0
227 1 0.263707 0.236783 0
226 1 0.246358 0.254347 0
198 1 0.282711 0.219796 0
228 1 0.287231 0.243832 0
229 1 0.306201 0.226188 0
230 1 0.312178 0.250177 0
231 1 0.330225 0.232861 0
232 1 0.35397 0.240289 0
261 1 0.336013 0.256866 0
233 1 0.371677 0.221997 0
234 1 0.378037 0.246155 0
235 1 0.396587 0.228322 0
265 1 0.403616 0.253249 0
206 1 0.42049 0.235324 0
237 1 0.445063 0.240626 0
236 1 0.426576 0.259686 0
208 1 0.462311 0.222337 0
210 1 0.485314 0.229416 0
239 1 0.468375 0.247518 0
240 1 0.492117 0.254121 0
242 1 0.0414247 0.267656 0
271 1 0.0364718 0.290159 0
1170 1 0.0174351 0.27631 0
1200 1 0.0150671 0.302562 0
244 1 0.0653072 0.262013 0
273 1 0.0596693 0.297284 0
275 1 0.0798439 0.281628 0
246 1 0.101258 0.293296 0
248 1 0.119933 0.275768 0
279 1 0.124863 0.302015 0
249 1 0.139608 0.262225 0
251 1 0.162683 0.271352 0
250 1 0.143186 0.28601 0
281 1 0.16687 0.295743 0
253 1 0.204844 0.263766 0
252 1 0.186304 0.280282 0
254 1 0.20992 0.287729 0
255 1 0.228133 0.271323 0
257 1 0.269825 0.26106 0
256 1 0.252213 0.278544 0
285 1 0.233899 0.295234 0
259 1 0.294512 0.268321 0
258 1 0.276129 0.285419 0
289 1 0.30089 0.291841 0
260 1 0.318514 0.274624 0
263 1 0.360106 0.263966 0
262 1 0.341713 0.281595 0
291 1 0.323887 0.299015 0
293 1 0.366856 0.288209 0
264 1 0.384657 0.269534 0
295 1 0.39105 0.294728 0
266 1 0.408583 0.277189 0
238 1 0.450044 0.265095 0
267 1 0.432834 0.284445 0
297 1 0.41411 0.301537 0
268 1 0.456699 0.289719 0
1141 1 0.497952 0.277879 0
269 1 0.474341 0.271712 0
270 1 0.481682 0.295477 0
301 1 0.0178178 0.327831 0
272 1 0.0381767 0.313798 0
303 1 0.0416739 0.338206 0
276 1 0.0817162 0.307884 0
274 1 0.0621729 0.322386 0
305 1 0.0841344 0.332979 0
277 1 0.104412 0.317438 0
278 1 0.127573 0.326901 0
307 1 0.108419 0.342383 0
280 1 0.1474 0.311466 0
311 1 0.152126 0.335594 0
282 1 0.171735 0.320792 0
312 1 0.176158 0.345556 0
283 1 0.191427 0.304925 0
284 1 0.214393 0.31255 0
313 1 0.195951 0.32934 0
315 1 0.219034 0.337021 0
287 1 0.258103 0.302514 0
286 1 0.238908 0.319942 0
317 1 0.262607 0.327463 0
316 1 0.242732 0.344706 0
288 1 0.282074 0.309777 0
318 1 0.287266 0.334035 0
290 1 0.306225 0.316799 0
319 1 0.311879 0.341242 0
292 1 0.349389 0.304873 0
321 1 0.330205 0.322971 0
323 1 0.354074 0.329908 0
324 1 0.37959 0.336706 0
294 1 0.372008 0.312935 0
325 1 0.403704 0.343908 0
296 1 0.396731 0.319514 0
298 1 0.439341 0.307428 0
327 1 0.421874 0.326411 0
328 1 0.44591 0.331952 0
329 1 0.469579 0.337915 0
299 1 0.463462 0.313926 0
300 1 0.487554 0.32068 0
1201 1 0.493292 0.344297 0
302 1 0.0207562 0.352034 0
332 1 0.0244995 0.375795 0
331 1 0.000546919 0.366673 0
361 1 0.00477602 0.391358 0
304 1 0.0645149 0.347033 0
333 1 0.0450773 0.362278 0
335 1 0.0682455 0.372435 0
334 1 0.0481663 0.387402 0
306 1 0.0883963 0.358163 0
337 1 0.0925142 0.382007 0
308 1 0.112942 0.366942 0
309 1 0.132475 0.350898 0
339 1 0.136737 0.376131 0
310 1 0.155987 0.360024 0
341 1 0.159871 0.386227 0
343 1 0.180243 0.370528 0
314 1 0.200553 0.355284 0
344 1 0.206102 0.380371 0
345 1 0.224493 0.363277 0
375 1 0.230068 0.388339 0
347 1 0.267138 0.351692 0
346 1 0.249083 0.370742 0
377 1 0.273613 0.377347 0
349 1 0.292365 0.359009 0
348 1 0.2989 0.382391 0
350 1 0.319356 0.365229 0
320 1 0.336275 0.347478 0
351 1 0.344044 0.3718 0
322 1 0.362421 0.354766 0
381 1 0.326396 0.388696 0
353 1 0.367593 0.379262 0
355 1 0.385737 0.361803 0
354 1 0.391317 0.386109 0
356 1 0.409516 0.368821 0
326 1 0.427683 0.350413 0
357 1 0.434459 0.375171 0
359 1 0.451599 0.356269 0
358 1 0.458432 0.380212 0
330 1 0.476768 0.363616 0
360 1 0.48333 0.386921 0
363 1 0.0279988 0.400708 0
362 1 0.0083079 0.416026 0
364 1 0.0312975 0.426034 0
336 1 0.0729743 0.397403 0
365 1 0.0520343 0.411787 0
366 1 0.0747991 0.421652 0
338 1 0.115559 0.391549 0
367 1 0.0959313 0.406966 0
369 1 0.1187 0.415705 0
368 1 0.0991231 0.430817 0
340 1 0.139485 0.401598 0
370 1 0.141874 0.42663 0
371 1 0.163163 0.411245 0
342 1 0.18405 0.394733 0
372 1 0.186987 0.419485 0
373 1 0.210567 0.405638 0
403 1 0.209105 0.431397 0
374 1 0.234552 0.415297 0
376 1 0.253403 0.396003 0
405 1 0.26275 0.418429 0
378 1 0.281608 0.400464 0
379 1 0.307523 0.406049 0
409 1 0.290635 0.423908 0
410 1 0.314049 0.43101 0
352 1 0.349553 0.3972 0
382 1 0.356828 0.42266 0
380 1 0.332205 0.414301 0
383 1 0.373489 0.404871 0
385 1 0.398409 0.4107 0
384 1 0.380794 0.429058 0
415 1 0.405119 0.434021 0
387 1 0.415703 0.392372 0
386 1 0.42312 0.417235 0
388 1 0.440463 0.399927 0
419 1 0.447021 0.424186 0
389 1 0.465505 0.405763 0
1261 1 0.48979 0.41213 0
390 1 0.471634 0.430005 0
393 1 0.011065 0.441177 0
423 1 0.0152936 0.464934 0
394 1 0.0345188 0.4506 0
425 1 0.0379569 0.474689 0
395 1 0.0549776 0.436644 0
396 1 0.0580202 0.46065 0
397 1 0.0780554 0.446027 0
427 1 0.0812409 0.47069 0
399 1 0.12188 0.442221 0
398 1 0.10147 0.456526 0
429 1 0.124481 0.467853 0
401 1 0.165274 0.436025 0
400 1 0.145843 0.452186 0
431 1 0.169194 0.461867 0
430 1 0.148269 0.476881 0
402 1 0.189332 0.445149 0
433 1 0.211072 0.456736 0
432 1 0.191411 0.472296 0
404 1 0.231827 0.440557 0
406 1 0.253568 0.453644 0
435 1 0.233156 0.468716 0
407 1 0.274374 0.440616 0
437 1 0.278017 0.465149 0
408 1 0.297151 0.449238 0
439 1 0.302079 0.473854 0
441 1 0.320165 0.455862 0
411 1 0.338108 0.43912 0
412 1 0.34384 0.464456 0
413 1 0.361811 0.44715 0
414 1 0.388563 0.452835 0
443 1 0.369398 0.47065 0
445 1 0.39528 0.476904 0
416 1 0.412911 0.459331 0
417 1 0.430036 0.441288 0
447 1 0.43688 0.466457 0
418 1 0.454866 0.448871 0
1291 1 0.495608 0.436489 0
420 1 0.478847 0.4543 0
449 1 0.462362 0.471892 0
454 1 0.0207594 0.514399 0
424 1 0.0179823 0.489911 0
455 1 0.040387 0.501002 0
426 1 0.0616057 0.485621 0
456 1 0.0649272 0.510506 0
457 1 0.0846678 0.496316 0
487 1 0.0876363 0.521379 0
428 1 0.104485 0.481683 0
459 1 0.127763 0.491704 0
458 1 0.107444 0.506584 0
489 1 0.130208 0.516255 0
461 1 0.171724 0.486209 0
460 1 0.1508 0.501348 0
462 1 0.174128 0.512096 0
434 1 0.213792 0.482641 0
463 1 0.193676 0.497073 0
464 1 0.215889 0.507079 0
436 1 0.257822 0.478627 0
465 1 0.237449 0.49244 0
467 1 0.260126 0.502654 0
466 1 0.237651 0.51702 0
438 1 0.281978 0.488561 0
469 1 0.306992 0.499322 0
468 1 0.283767 0.512553 0
440 1 0.326247 0.482317 0
442 1 0.350848 0.488266 0
471 1 0.333891 0.506712 0
473 1 0.357645 0.513591 0
444 1 0.376546 0.495183 0
475 1 0.401117 0.502334 0
474 1 0.38297 0.520457 0
446 1 0.418773 0.484651 0
477 1 0.425568 0.508202 0
448 1 0.442762 0.490473 0
478 1 0.45047 0.514654 0
450 1 0.485476 0.479291 0
479 1 0.468942 0.496945 0
1381 1 0.492364 0.504087 0
480 1 0.47466 0.521573 0
483 1 0.0236787 0.540173 0
482 1 0.00359269 0.555949 0
485 1 0.0431445 0.525079 0
452 1 0.000446725 0.530085 0
484 1 0.0455207 0.550986 0
486 1 0.0669723 0.535777 0
515 1 0.0691472 0.560626 0
517 1 0.0892844 0.545474 0
488 1 0.110261 0.531607 0
519 1 0.111428 0.556156 0
490 1 0.132723 0.541257 0
491 1 0.153063 0.527131 0
521 1 0.155525 0.551856 0
492 1 0.176764 0.53656 0
523 1 0.178208 0.561816 0
493 1 0.196534 0.522174 0
494 1 0.198258 0.54797 0
495 1 0.218685 0.531815 0
525 1 0.220837 0.55771 0
496 1 0.240569 0.542488 0
497 1 0.259332 0.527228 0
527 1 0.263124 0.551768 0
470 1 0.315373 0.522895 0
499 1 0.30457 0.544803 0
498 1 0.281376 0.536112 0
529 1 0.284962 0.561563 0
472 1 0.340222 0.531206 0
501 1 0.326443 0.551844 0
502 1 0.349539 0.558696 0
503 1 0.364719 0.538178 0
505 1 0.390209 0.544686 0
476 1 0.407391 0.526237 0
504 1 0.373476 0.563826 0
506 1 0.414055 0.550649 0
507 1 0.432444 0.53281 0
508 1 0.438477 0.556914 0
509 1 0.456939 0.539704 0
510 1 0.481482 0.546437 0
1382 1 0.498935 0.528357 0
513 1 0.0263354 0.566074 0
512 1 0.0292994 0.59129 0
511 1 0.00489118 0.580248 0
541 1 0.00901884 0.605048 0
514 1 0.049028 0.576871 0
545 1 0.0720426 0.586596 0
543 1 0.0519919 0.60139 0
516 1 0.0919331 0.571257 0
518 1 0.115295 0.580964 0
547 1 0.0956752 0.595885 0
548 1 0.118568 0.605941 0
520 1 0.135355 0.56591 0
549 1 0.137733 0.591518 0
522 1 0.158462 0.577815 0
551 1 0.160859 0.602861 0
553 1 0.181345 0.588287 0
524 1 0.201339 0.574269 0
554 1 0.20447 0.599471 0
555 1 0.223306 0.584075 0
526 1 0.244411 0.567626 0
557 1 0.247122 0.593016 0
528 1 0.266694 0.577764 0
558 1 0.270157 0.602782 0
500 1 0.308155 0.569269 0
559 1 0.289909 0.586594 0
530 1 0.313567 0.593645 0
531 1 0.33196 0.577195 0
532 1 0.337503 0.602098 0
533 1 0.356548 0.582656 0
563 1 0.36308 0.606344 0
534 1 0.380259 0.588515 0
535 1 0.397113 0.570026 0
536 1 0.404411 0.59335 0
537 1 0.421355 0.575603 0
567 1 0.428283 0.600185 0
538 1 0.445993 0.581926 0
568 1 0.451361 0.605895 0
539 1 0.463801 0.563819 0
540 1 0.487111 0.570588 0
569 1 0.469843 0.588683 0
1441 1 0.493923 0.594789 0
542 1 0.0318052 0.616483 0
571 1 0.0115753 0.629891 0
573 1 0.0338414 0.64065 0
546 1 0.0753318 0.612329 0
544 1 0.0544686 0.626822 0
575 1 0.0782842 0.636663 0
577 1 0.0982246 0.62173 0
579 1 0.120643 0.633154 0
576 1 0.101119 0.646575 0
550 1 0.141041 0.617578 0
581 1 0.164356 0.627879 0
580 1 0.143324 0.643541 0
552 1 0.183919 0.612926 0
582 1 0.186795 0.637849 0
583 1 0.207937 0.624333 0
584 1 0.211731 0.649277 0
556 1 0.228134 0.609001 0
585 1 0.231807 0.633917 0
586 1 0.256192 0.642971 0
587 1 0.250942 0.618616 0
560 1 0.295091 0.611118 0
589 1 0.274797 0.627482 0
590 1 0.299669 0.636462 0
561 1 0.318624 0.618912 0
562 1 0.342564 0.625838 0
591 1 0.32442 0.643371 0
593 1 0.350232 0.64828 0
565 1 0.386598 0.611887 0
564 1 0.36761 0.630642 0
595 1 0.391775 0.636519 0
566 1 0.409839 0.618543 0
596 1 0.416354 0.643181 0
597 1 0.433669 0.624821 0
599 1 0.4401 0.649709 0
570 1 0.476146 0.612624 0
600 1 0.457711 0.630544 0
1471 1 0.481969 0.63744 0
572 1 0.0147501 0.656168 0
602 1 0.0170983 0.680848 0
603 1 0.0372655 0.667255 0
633 1 0.041299 0.691997 0
574 1 0.0574581 0.65105 0
605 1 0.0806259 0.660823 0
604 1 0.0600301 0.675776 0
606 1 0.082504 0.687027 0
578 1 0.123624 0.659202 0
607 1 0.102579 0.67283 0
608 1 0.125443 0.683829 0
611 1 0.166272 0.652845 0
609 1 0.145706 0.669163 0
610 1 0.169159 0.678081 0
639 1 0.148893 0.694106 0
612 1 0.191239 0.688281 0
613 1 0.189704 0.663261 0
614 1 0.215167 0.67439 0
615 1 0.235271 0.658407 0
616 1 0.237992 0.683495 0
617 1 0.260528 0.669608 0
647 1 0.270688 0.695003 0
588 1 0.279369 0.653251 0
619 1 0.30609 0.660157 0
618 1 0.287602 0.677127 0
620 1 0.313036 0.683463 0
621 1 0.331747 0.667096 0
592 1 0.356657 0.672921 0
622 1 0.338003 0.690506 0
594 1 0.373626 0.654949 0
625 1 0.399146 0.660856 0
623 1 0.381819 0.67933 0
626 1 0.406244 0.686034 0
598 1 0.446049 0.674548 0
627 1 0.422697 0.668177 0
657 1 0.429483 0.692643 0
628 1 0.471429 0.680475 0
629 1 0.463793 0.656398 0
1501 1 0.48796 0.66163 0
630 1 0.496063 0.68717 0
632 1 0.0202595 0.705543 0
663 1 0.0233321 0.731245 0
634 1 0.0431518 0.717776 0
635 1 0.063307 0.702366 0
636 1 0.0843907 0.712684 0
665 1 0.0658078 0.728825 0
666 1 0.0880401 0.738632 0
637 1 0.105673 0.698482 0
638 1 0.12814 0.708542 0
667 1 0.107601 0.723208 0
669 1 0.130718 0.733317 0
641 1 0.171647 0.703472 0
640 1 0.150713 0.718953 0
671 1 0.173722 0.728122 0
643 1 0.213577 0.698866 0
642 1 0.193375 0.713559 0
644 1 0.216993 0.724097 0
645 1 0.235757 0.70757 0
675 1 0.238808 0.733389 0
646 1 0.257346 0.716683 0
649 1 0.29576 0.702595 0
648 1 0.280132 0.722768 0
679 1 0.303723 0.72695 0
650 1 0.320657 0.707409 0
651 1 0.344311 0.714369 0
681 1 0.328242 0.733927 0
653 1 0.362756 0.69706 0
624 1 0.387977 0.703772 0
654 1 0.369846 0.721126 0
685 1 0.394272 0.728078 0
655 1 0.413129 0.711281 0
656 1 0.436363 0.718136 0
686 1 0.419161 0.736229 0
658 1 0.453077 0.698553 0
687 1 0.461444 0.722522 0
659 1 0.478715 0.70465 0
689 1 0.485415 0.729553 0
662 1 0.0246766 0.755888 0
691 1 0.00560197 0.770057 0
664 1 0.0457987 0.742789 0
694 1 0.0477477 0.76817 0
695 1 0.0685239 0.753998 0
696 1 0.0702072 0.778044 0
697 1 0.091353 0.76362 0
668 1 0.110591 0.748276 0
698 1 0.114708 0.773417 0
699 1 0.133636 0.757371 0
700 1 0.136874 0.782206 0
670 1 0.154014 0.743876 0
701 1 0.157259 0.768447 0
672 1 0.176756 0.754275 0
702 1 0.181878 0.780636 0
673 1 0.197043 0.739083 0
674 1 0.221055 0.749334 0
703 1 0.200637 0.763986 0
705 1 0.224929 0.773325 0
677 1 0.262408 0.740821 0
676 1 0.244178 0.757766 0
707 1 0.268532 0.764477 0
735 1 0.250643 0.781277 0
678 1 0.286277 0.747063 0
709 1 0.293337 0.770561 0
680 1 0.310248 0.751418 0
710 1 0.317891 0.775814 0
652 1 0.352161 0.739629 0
682 1 0.359116 0.764087 0
711 1 0.334778 0.758479 0
741 1 0.341695 0.781988 0
683 1 0.376305 0.745742 0
713 1 0.382185 0.770183 0
684 1 0.400838 0.752866 0
716 1 0.406698 0.777252 0
717 1 0.444297 0.74189 0
715 1 0.425912 0.760308 0
718 1 0.449728 0.766216 0
1591 1 0.498087 0.77911 0
690 1 0.492554 0.754463 0
688 1 0.468069 0.748335 0
719 1 0.474312 0.772846 0
693 1 0.0280748 0.782315 0
692 1 0.00894356 0.796977 0
722 1 0.00519864 0.822767 0
723 1 0.0286986 0.813025 0
725 1 0.0496279 0.795151 0
726 1 0.0727846 0.802512 0
727 1 0.0931025 0.78869 0
728 1 0.11556 0.799339 0
757 1 0.0960696 0.815767 0
729 1 0.139015 0.805787 0
730 1 0.160469 0.819096 0
731 1 0.161034 0.794386 0
732 1 0.18324 0.807898 0
704 1 0.205588 0.789604 0
763 1 0.202606 0.825433 0
734 1 0.227386 0.820977 0
733 1 0.231431 0.797431 0
736 1 0.25573 0.807223 0
706 1 0.27388 0.788984 0
737 1 0.283469 0.812169 0
708 1 0.300175 0.794465 0
738 1 0.307482 0.818708 0
739 1 0.324412 0.800722 0
742 1 0.348215 0.80784 0
740 1 0.330955 0.825933 0
712 1 0.366726 0.788826 0
714 1 0.390397 0.795528 0
743 1 0.371993 0.813143 0
745 1 0.397247 0.820051 0
747 1 0.431468 0.784336 0
746 1 0.414834 0.801801 0
748 1 0.438491 0.808749 0
749 1 0.456226 0.790541 0
720 1 0.480099 0.79707 0
750 1 0.463126 0.815025 0
1621 1 0.488017 0.82149 0
753 1 0.0232986 0.839735 0
783 1 0.0185926 0.865658 0
754 1 0.0418671 0.857131 0
755 1 0.0716511 0.826355 0
724 1 0.0469344 0.831862 0
785 1 0.0656106 0.850893 0
786 1 0.0842493 0.867983 0
756 1 0.0892275 0.843628 0
758 1 0.112697 0.835233 0
787 1 0.108301 0.8611 0
789 1 0.132657 0.85266 0
759 1 0.137241 0.829131 0
760 1 0.156193 0.84445 0
791 1 0.17484 0.861513 0
761 1 0.179344 0.835313 0
790 1 0.151021 0.869934 0
762 1 0.197635 0.852298 0
764 1 0.220969 0.844779 0
765 1 0.245208 0.838567 0
795 1 0.239394 0.862557 0
766 1 0.265077 0.856286 0
767 1 0.266928 0.829584 0
769 1 0.315062 0.843457 0
768 1 0.290228 0.837006 0
799 1 0.29788 0.860481 0
770 1 0.339633 0.850357 0
771 1 0.35579 0.831686 0
801 1 0.322484 0.868291 0
773 1 0.362685 0.857222 0
744 1 0.379862 0.839192 0
774 1 0.38628 0.863352 0
775 1 0.403997 0.845107 0
777 1 0.421038 0.827184 0
776 1 0.410352 0.869213 0
807 1 0.428148 0.851193 0
778 1 0.446019 0.832453 0
809 1 0.45171 0.856541 0
779 1 0.470712 0.83915 0
780 1 0.475601 0.862984 0
1651 1 0.493729 0.845647 0
812 1 0.0146723 0.89165 0
814 1 0.0323985 0.908429 0
813 1 0.0374542 0.882143 0
784 1 0.0606853 0.875198 0
815 1 0.0552001 0.899281 0
816 1 0.0797882 0.892621 0
788 1 0.126667 0.877483 0
817 1 0.102714 0.88489 0
819 1 0.121743 0.902048 0
818 1 0.0981457 0.90958 0
821 1 0.169539 0.886771 0
820 1 0.145262 0.893503 0
851 1 0.164292 0.910647 0
793 1 0.216878 0.87 0
792 1 0.192856 0.878187 0
823 1 0.212094 0.895284 0
822 1 0.188797 0.90303 0
794 1 0.234592 0.887832 0
796 1 0.257183 0.880668 0
827 1 0.256906 0.904677 0
825 1 0.23149 0.911804 0
797 1 0.280505 0.876494 0
798 1 0.285601 0.900796 0
800 1 0.304726 0.884552 0
829 1 0.309013 0.909724 0
831 1 0.328091 0.893557 0
772 1 0.346228 0.875619 0
802 1 0.352157 0.899709 0
803 1 0.369849 0.881748 0
804 1 0.375914 0.906565 0
805 1 0.393637 0.887847 0
835 1 0.399471 0.911455 0
806 1 0.417868 0.893437 0
808 1 0.435425 0.875505 0
839 1 0.441359 0.899537 0
1681 1 0.482905 0.888143 0
810 1 0.45937 0.881282 0
840 1 0.464769 0.905384 0
1711 1 0.489964 0.912972 0
843 1 0.0090673 0.916024 0
844 1 0.027047 0.933127 0
842 1 0.00236921 0.940704 0
875 1 0.0450923 0.950389 0
845 1 0.0503577 0.92485 0
846 1 0.0686198 0.941001 0
847 1 0.0743089 0.916289 0
848 1 0.0927921 0.933744 0
849 1 0.116817 0.926735 0
879 1 0.111443 0.950889 0
881 1 0.135812 0.942975 0
850 1 0.140137 0.91809 0
852 1 0.159428 0.935357 0
883 1 0.177627 0.952439 0
853 1 0.182483 0.927525 0
824 1 0.206812 0.920309 0
854 1 0.202274 0.944789 0
855 1 0.225583 0.936707 0
826 1 0.25013 0.92934 0
857 1 0.268002 0.946581 0
856 1 0.244744 0.953915 0
828 1 0.274019 0.922604 0
859 1 0.291446 0.938996 0
830 1 0.315654 0.935366 0
833 1 0.358242 0.924802 0
832 1 0.333507 0.91835 0
861 1 0.341013 0.943213 0
863 1 0.364926 0.948779 0
834 1 0.3822 0.930691 0
865 1 0.40609 0.936527 0
864 1 0.388669 0.955337 0
837 1 0.422918 0.917814 0
836 1 0.430969 0.943378 0
838 1 0.446355 0.923921 0
870 1 0.454464 0.949085 0
869 1 0.470973 0.929561 0
1712 1 0.495274 0.937349 0
1741 1 0.47818 0.955337 0
3 1 0.0348131 0.998213 0
873 1 0.0210859 0.957535 0
872 1 0.0158456 0.982069 0
874 1 0.0400178 0.974031 0
877 1 0.0870234 0.958151 0
5 1 0.0583376 0.991694 0
876 1 0.063559 0.966726 0
7 1 0.0821801 0.983258 0
9 1 0.124335 0.991154 0
878 1 0.10569 0.975157 0
880 1 0.130377 0.967092 0
11 1 0.148714 0.984514 0
882 1 0.15467 0.960437 0
13 1 0.173177 0.977326 0
12 1 0.189779 0.995271 0
15 1 0.213382 0.987442 0
884 1 0.197005 0.969436 0
885 1 0.221654 0.961171 0
17 1 0.25755 0.994767 0
887 1 0.238275 0.9794 0
888 1 0.262894 0.97123 0
858 1 0.286247 0.962993 0
19 1 0.282201 0.988254 0
889 1 0.304868 0.979113 0
860 1 0.322618 0.960002 0
862 1 0.347016 0.967723 0
891 1 0.328278 0.985225 0
892 1 0.354181 0.991011 0
23 1 0.37773 0.996763 0
893 1 0.371254 0.973745 0
895 1 0.394971 0.97931 0
897 1 0.443717 0.992428 0
896 1 0.419007 0.986384 0
866 1 0.41272 0.961384 0
867 1 0.435949 0.96831 0
868 1 0.460083 0.973814 0
899 1 0.468004 0.998244 0
1771 1 0.484416 0.979218 0
931 1 0.522989 0.0351315 0
901 1 0.516703 0.01018 0
902 1 0.540782 0.0167121 0
933 1 0.547558 0.0416126 0
904 1 0.564671 0.0239279 0
906 1 0.581955 0.00559898 0
935 1 0.589258 0.0297483 0
908 1 0.605918 0.0114239 0
939 1 0.629436 0.0184128 0
937 1 0.613473 0.0362609 0
938 1 0.636348 0.0435766 0
941 1 0.653756 0.0253409 0
912 1 0.671417 0.00663825 0
942 1 0.677523 0.0321727 0
910 1 0.646923 -0.000229605 0
943 1 0.694264 0.014586 0
945 1 0.717899 0.0206487 0
944 1 0.701137 0.0385113 0
914 1 0.742111 0.0243998 0
916 1 0.764841 0.0170026 0
915 1 0.746418 -0.000468711 0
947 1 0.759157 0.0413616 0
918 1 0.783416 0.0336808 0
919 1 0.806266 0.0261793 0
917 1 0.788792 0.0094912 0
1788 1 0.813083 0.00170081 0
920 1 0.830396 0.0187858 0
922 1 0.849375 0.0349074 0
921 1 0.854551 0.0107454 0
951 1 0.824869 0.0431011 0
923 1 0.872781 0.0276133 0
924 1 0.897108 0.020895 0
1792 1 0.878775 0.00372155 0
955 1 0.915958 0.0376105 0
925 1 0.920611 0.0129133 0
926 1 0.939114 0.029947 0
928 1 0.943897 0.00528479 0
930 1 0.986073 0.0145399 0
959 1 0.962729 0.0218098 0
960 1 0.981416 0.0387296 0
932 1 0.530388 0.0604914 0
961 1 0.512092 0.0785199 0
60 1 0.506307 0.0536443 0
962 1 0.537118 0.0842674 0
963 1 0.554623 0.066364 0
934 1 0.571952 0.0482066 0
965 1 0.578319 0.0727898 0
936 1 0.595982 0.0551039 0
967 1 0.619428 0.0606313 0
966 1 0.602314 0.0794047 0
968 1 0.625965 0.0859308 0
969 1 0.642994 0.0676157 0
940 1 0.659859 0.0492945 0
970 1 0.667459 0.0745751 0
971 1 0.683885 0.0566921 0
973 1 0.707898 0.0629638 0
972 1 0.691402 0.0813562 0
975 1 0.725931 0.0450371 0
974 1 0.7309 0.07121 0
946 1 0.754064 0.065814 0
977 1 0.772142 0.0827122 0
949 1 0.801096 0.0506784 0
948 1 0.777691 0.05812 0
979 1 0.795774 0.0762662 0
950 1 0.819813 0.0673543 0
980 1 0.838558 0.0835376 0
952 1 0.8438 0.0590324 0
981 1 0.862662 0.0762852 0
954 1 0.891879 0.0441381 0
953 1 0.868317 0.051679 0
983 1 0.8865 0.0683682 0
984 1 0.904754 0.0868273 0
985 1 0.909626 0.0620794 0
956 1 0.934482 0.0539711 0
986 1 0.927746 0.0782123 0
987 1 0.951873 0.0707496 0
957 1 0.957952 0.0466504 0
958 1 0.977105 0.0635371 0
989 1 0.994499 0.0809931 0
991 1 0.51916 0.102202 0
993 1 0.542686 0.108545 0
992 1 0.525589 0.126428 0
120 1 0.50038 0.12074 0
964 1 0.560636 0.0905047 0
994 1 0.566671 0.114316 0
995 1 0.584791 0.0980387 0
996 1 0.591056 0.121673 0
997 1 0.609155 0.104828 0
998 1 0.632528 0.110559 0
1027 1 0.614365 0.129459 0
999 1 0.649915 0.0927551 0
1000 1 0.656064 0.117656 0
1001 1 0.674112 0.0997341 0
1031 1 0.679655 0.12446 0
1002 1 0.697731 0.106927 0
1003 1 0.715409 0.0893939 0
1004 1 0.722665 0.112796 0
1033 1 0.704048 0.130599 0
976 1 0.765444 0.105883 0
1005 1 0.74269 0.0936824 0
1035 1 0.745344 0.119711 0
978 1 0.814913 0.0921845 0
1007 1 0.790175 0.100322 0
1006 1 0.782291 0.124087 0
1008 1 0.809154 0.116079 0
1009 1 0.833897 0.108761 0
1010 1 0.852004 0.125319 0
1011 1 0.857631 0.101527 0
982 1 0.880922 0.0933415 0
1012 1 0.875692 0.118485 0
1013 1 0.899129 0.110863 0
1016 1 0.918194 0.127547 0
1017 1 0.947138 0.0953054 0
1015 1 0.923855 0.103264 0
1047 1 0.94228 0.119667 0
988 1 0.970536 0.0878587 0
1018 1 0.965468 0.112371 0
1019 1 0.989079 0.104842 0
1020 1 0.984125 0.129626 0
1022 1 0.531256 0.150651 0
1021 1 0.507221 0.144533 0
1051 1 0.514516 0.168938 0
1023 1 0.548861 0.132928 0
1024 1 0.555118 0.157267 0
1025 1 0.573067 0.139305 0
1055 1 0.580088 0.164171 0
1026 1 0.59735 0.146246 0
1028 1 0.620753 0.153864 0
1057 1 0.603339 0.171511 0
1029 1 0.638529 0.135514 0
1059 1 0.645411 0.16067 0
1030 1 0.661931 0.142071 0
1061 1 0.669135 0.167458 0
1032 1 0.68608 0.148652 0
1063 1 0.710333 0.15468 0
1062 1 0.693303 0.171696 0
1034 1 0.727973 0.137922 0
1036 1 0.753656 0.143785 0
1065 1 0.733995 0.161178 0
1066 1 0.758889 0.168329 0
1067 1 0.778909 0.14916 0
1037 1 0.802643 0.139517 0
1038 1 0.80065 0.164066 0
1039 1 0.827356 0.132884 0
1040 1 0.823609 0.157434 0
1041 1 0.846827 0.149501 0
1042 1 0.865542 0.166155 0
1014 1 0.894909 0.135725 0
1043 1 0.869799 0.14202 0
1044 1 0.888405 0.159309 0
1045 1 0.912989 0.152948 0
1046 1 0.936608 0.14453 0
1077 1 0.931276 0.169679 0
1048 1 0.954711 0.162548 0
1049 1 0.960109 0.136827 0
1050 1 0.977925 0.154665 0
151 1 0.995637 0.171661 0
1053 1 0.538287 0.175844 0
1052 1 0.521047 0.194711 0
1081 1 0.504203 0.211784 0
1083 1 0.54509 0.199875 0
1054 1 0.562485 0.182768 0
1056 1 0.585925 0.188174 0
1085 1 0.568906 0.207436 0
1058 1 0.627458 0.178478 0
1087 1 0.60954 0.196199 0
1089 1 0.633715 0.20271 0
1086 1 0.593189 0.213849 0
1060 1 0.65127 0.18559 0
1091 1 0.675874 0.191345 0
1090 1 0.657922 0.209601 0
1093 1 0.69921 0.197219 0
1064 1 0.716982 0.17925 0
1094 1 0.722702 0.204367 0
1092 1 0.681688 0.21619 0
1095 1 0.740417 0.185591 0
1097 1 0.763911 0.193274 0
1096 1 0.746303 0.210835 0
1068 1 0.781444 0.176649 0
1098 1 0.789146 0.199005 0
1099 1 0.812313 0.205699 0
1069 1 0.817846 0.181814 0
1071 1 0.841887 0.174607 0
1070 1 0.835847 0.198818 0
1072 1 0.859128 0.191593 0
1101 1 0.85369 0.217178 0
1073 1 0.882604 0.184862 0
1103 1 0.876657 0.209829 0
1074 1 0.901489 0.201227 0
1075 1 0.906303 0.177603 0
1078 1 0.948401 0.186723 0
1076 1 0.924815 0.193777 0
1107 1 0.942751 0.211681 0
1079 1 0.972102 0.179538 0
1109 1 0.966642 0.204466 0
181 1 0.990379 0.195806 0
1082 1 0.527644 0.218542 0
1111 1 0.509642 0.236494 0
1113 1 0.533297 0.243445 0
1084 1 0.551477 0.225209 0
1114 1 0.55788 0.249887 0
1115 1 0.575639 0.232075 0
1116 1 0.581769 0.25663 0
1088 1 0.616349 0.220403 0
1117 1 0.599283 0.238408 0
1118 1 0.623144 0.245585 0
1119 1 0.641103 0.228238 0
1121 1 0.665489 0.234643 0
1120 1 0.647176 0.252083 0
1151 1 0.671723 0.259426 0
1122 1 0.689224 0.24066 0
1123 1 0.70507 0.222657 0
1124 1 0.713373 0.247717 0
1125 1 0.729481 0.228955 0
1126 1 0.753282 0.236158 0
1155 1 0.737924 0.254326 0
1127 1 0.770846 0.218082 0
1129 1 0.795913 0.224822 0
1128 1 0.778081 0.242408 0
1159 1 0.801749 0.248412 0
1100 1 0.830148 0.224499 0
1130 1 0.826015 0.250551 0
1131 1 0.8481 0.241771 0
1132 1 0.864625 0.259479 0
1102 1 0.871922 0.233925 0
1104 1 0.896023 0.225963 0
1133 1 0.889334 0.251549 0
1105 1 0.918944 0.218273 0
1135 1 0.913224 0.243092 0
1106 1 0.936809 0.236466 0
1136 1 0.933164 0.261185 0
1110 1 0.985658 0.219884 0
1137 1 0.956699 0.252972 0
1108 1 0.961734 0.228213 0
1139 1 0.980547 0.244877 0
1112 1 0.515756 0.260216 0
1142 1 0.522504 0.284833 0