ITEM: TIMESTEP
176000
ITEM: NUMBER OF ATOMS
1800
ITEM: BOX BOUNDS pp pp pp
1.3354006288836757e+00 1.6366459937111529e+02
1.3354006288836757e+00 1.6366459937111529e+02
0.0000000000000000e+00 5.5000000000000000e+00
ITEM: ATOMS id type xs ys zs
2 1 0.0114101 0.00533749 0
33 1 0.0301513 0.0221655 0
31 1 0.00709157 0.0300267 0
4 1 0.0533551 0.0147546 0
6 1 0.0765455 0.006406 0
35 1 0.071485 0.030729 0
34 1 0.048039 0.0391924 0
37 1 0.0953655 0.0236565 0
39 1 0.118582 0.0156442 0
38 1 0.11396 0.0404644 0
40 1 0.136914 0.0321584 0
10 1 0.142441 0.00779368 0
42 1 0.160232 0.0241134 0
73 1 0.177746 0.0413536 0
43 1 0.184052 0.0165167 0
14 1 0.208013 0.0095335 0
44 1 0.20142 0.0336735 0
45 1 0.226949 0.0269738 0
16 1 0.251669 0.0199427 0
886 1 0.233141 0.00290133 0
46 1 0.269844 0.0363205 0
18 1 0.276214 0.0117114 0
49 1 0.293672 0.0291069 0
20 1 0.30079 0.00434641 0
51 1 0.317737 0.0256629 0
22 1 0.342282 0.031585 0
21 1 0.359621 0.0143458 0
890 1 0.335238 0.00779759 0
24 1 0.384285 0.0209734 0
53 1 0.365637 0.0383141 0
894 1 0.401416 0.00354157 0
25 1 0.407724 0.0281024 0
26 1 0.43229 0.0346618 0
27 1 0.425724 0.0105926 0
898 1 0.450394 0.0167906 0
28 1 0.456394 0.0410048 0
29 1 0.473492 0.0223744 0
900 1 0.490667 0.00414664 0
30 1 0.4977 0.0289686 0
32 1 0.0249918 0.0472466 0
62 1 0.0200833 0.0714698 0
63 1 0.0434386 0.0636885 0
61 1 0.000286747 0.0546967 0
65 1 0.0668002 0.0549493 0
66 1 0.0850776 0.0724065 0
64 1 0.062689 0.0808126 0
36 1 0.0899989 0.0478407 0
67 1 0.108105 0.065473 0
69 1 0.131875 0.0580717 0
68 1 0.127085 0.0824158 0
71 1 0.15513 0.0486209 0
72 1 0.173975 0.0647496 0
70 1 0.150515 0.0739816 0
74 1 0.222175 0.05147 0
103 1 0.19682 0.0578948 0
105 1 0.216533 0.0754589 0
101 1 0.192784 0.0822993 0
75 1 0.246152 0.0437933 0
77 1 0.264221 0.0614797 0
76 1 0.240369 0.0686715 0
137 1 0.259283 0.0858215 0
47 1 0.28709 0.053341 0
48 1 0.307656 0.0689732 0
78 1 0.283184 0.0785497 0
50 1 0.323085 0.0496573 0
81 1 0.331476 0.075039 0
52 1 0.347685 0.0559081 0
82 1 0.357137 0.0812115 0
55 1 0.390401 0.0454712 0
83 1 0.37315 0.0625756 0
54 1 0.397246 0.0701584 0
57 1 0.438411 0.0588349 0
85 1 0.420561 0.0759235 0
56 1 0.414774 0.052007 0
87 1 0.444419 0.0829533 0
59 1 0.481057 0.0471785 0
58 1 0.463735 0.0654213 0
89 1 0.488025 0.0738953 0
93 1 0.0388156 0.0880748 0
990 1 0.0155394 0.0951789 0
92 1 0.0327304 0.113058 0
91 1 0.00937355 0.121544 0
94 1 0.0567391 0.10544 0
95 1 0.0805548 0.0979652 0
125 1 0.074331 0.122031 0
123 1 0.0513818 0.130125 0
96 1 0.0985507 0.115516 0
97 1 0.103631 0.0900867 0
98 1 0.122618 0.107473 0
99 1 0.145753 0.0995327 0
100 1 0.169804 0.0902771 0
130 1 0.164765 0.116156 0
129 1 0.141193 0.123441 0
131 1 0.187893 0.108487 0
102 1 0.210758 0.100367 0
133 1 0.206486 0.126311 0
104 1 0.229049 0.117046 0
106 1 0.234397 0.0923006 0
135 1 0.25382 0.1096 0
107 1 0.276946 0.102729 0
109 1 0.300038 0.11231 0
79 1 0.314299 0.0930455 0
108 1 0.281048 0.127078 0
80 1 0.339072 0.0997043 0
110 1 0.323242 0.11871 0
141 1 0.3474 0.124276 0
113 1 0.380008 0.0877671 0
111 1 0.363221 0.105901 0
84 1 0.403597 0.0947019 0
112 1 0.386692 0.112182 0
115 1 0.411567 0.118941 0
86 1 0.427565 0.100651 0
116 1 0.435932 0.125156 0
117 1 0.452237 0.107133 0
88 1 0.468777 0.0899576 0
90 1 0.49552 0.0974593 0
119 1 0.476885 0.114609 0
122 1 0.0285473 0.13871 0
152 1 0.0227691 0.162124 0
121 1 0.00429275 0.145541 0
153 1 0.0462524 0.154408 0
124 1 0.0694629 0.147759 0
155 1 0.0884758 0.16388 0
154 1 0.0640214 0.17167 0
127 1 0.117123 0.131876 0
126 1 0.093279 0.139317 0
128 1 0.135855 0.147875 0
157 1 0.112054 0.15619 0
158 1 0.131313 0.173162 0
159 1 0.159978 0.140813 0
161 1 0.178566 0.157927 0
160 1 0.154669 0.164848 0
132 1 0.183189 0.134063 0
163 1 0.202471 0.152246 0
134 1 0.22573 0.145315 0
193 1 0.223338 0.17161 0
136 1 0.26663 0.146874 0
165 1 0.247536 0.13364 0
164 1 0.246775 0.161563 0
167 1 0.27146 0.171418 0
139 1 0.305985 0.135695 0
138 1 0.289344 0.153647 0
169 1 0.311873 0.160742 0
140 1 0.329478 0.142997 0
142 1 0.353628 0.149357 0
171 1 0.335278 0.168019 0
143 1 0.370685 0.13169 0
114 1 0.394385 0.136654 0
173 1 0.377345 0.156359 0
144 1 0.402115 0.162224 0
145 1 0.418062 0.144109 0
146 1 0.424968 0.168524 0
147 1 0.441925 0.150659 0
118 1 0.4597 0.132369 0
149 1 0.483501 0.138666 0
148 1 0.466352 0.156979 0
150 1 0.491093 0.163703 0
183 1 0.0409505 0.178902 0
182 1 0.0361716 0.203449 0
1080 1 0.0172929 0.186652 0
211 1 0.0123887 0.211215 0
184 1 0.0596668 0.196219 0
185 1 0.0831532 0.18776 0
215 1 0.0788798 0.21228 0
186 1 0.102821 0.204662 0
156 1 0.107559 0.180299 0
187 1 0.126522 0.19779 0
189 1 0.150121 0.189194 0
191 1 0.173567 0.181551 0
190 1 0.17026 0.206424 0
188 1 0.14629 0.214187 0
162 1 0.198103 0.176196 0
221 1 0.19464 0.212952 0
192 1 0.212967 0.195617 0
195 1 0.235756 0.204157 0
166 1 0.253076 0.186608 0
196 1 0.258909 0.212705 0
168 1 0.294429 0.178955 0
197 1 0.277306 0.195854 0
199 1 0.300531 0.203727 0
172 1 0.359094 0.174768 0
170 1 0.317795 0.185169 0
201 1 0.341441 0.192186 0
200 1 0.323968 0.210108 0
202 1 0.348137 0.216446 0
203 1 0.366117 0.198727 0
174 1 0.384371 0.180353 0
204 1 0.390894 0.204971 0
175 1 0.40786 0.186635 0
177 1 0.449725 0.173943 0
205 1 0.415164 0.211945 0
176 1 0.432141 0.193125 0
178 1 0.455622 0.199007 0
179 1 0.473163 0.182574 0
180 1 0.496831 0.187466 0
209 1 0.48033 0.206371 0
212 1 0.0301088 0.228056 0
241 1 0.0249164 0.252262 0
1140 1 0.00608248 0.23577 0
1169 1 0.00197005 0.259885 0
243 1 0.0489628 0.24328 0
213 1 0.0536045 0.219378 0
214 1 0.0729971 0.236565 0
244 1 0.0676068 0.261351 0
245 1 0.0914238 0.254184 0
216 1 0.0963099 0.230126 0
217 1 0.11983 0.222318 0
247 1 0.116517 0.249277 0
218 1 0.138739 0.23764 0
219 1 0.160247 0.247738 0
220 1 0.176991 0.230363 0
222 1 0.183264 0.255619 0
194 1 0.217718 0.22071 0
223 1 0.199929 0.23851 0
224 1 0.223616 0.246568 0
225 1 0.240804 0.228847 0
227 1 0.263885 0.237788 0
226 1 0.246563 0.255164 0
198 1 0.282062 0.220893 0
228 1 0.287607 0.245266 0
229 1 0.305938 0.228004 0
230 1 0.31125 0.251634 0
231 1 0.330031 0.233963 0
232 1 0.354013 0.240441 0
261 1 0.335861 0.258362 0
233 1 0.372101 0.222435 0
234 1 0.377853 0.247015 0
235 1 0.39661 0.228725 0
265 1 0.402606 0.253262 0
207 1 0.438778 0.217318 0
206 1 0.420715 0.236452 0
237 1 0.444541 0.241604 0
236 1 0.426514 0.260663 0
208 1 0.463325 0.223356 0
210 1 0.486858 0.230807 0
239 1 0.46862 0.248904 0
240 1 0.492733 0.255471 0
242 1 0.0429914 0.267994 0
271 1 0.0375289 0.290293 0
1170 1 0.0182164 0.27673 0
1200 1 0.0160787 0.301359 0
273 1 0.0615663 0.295908 0
275 1 0.0817321 0.280531 0
246 1 0.102579 0.292597 0
248 1 0.120681 0.27617 0
279 1 0.126182 0.30198 0
249 1 0.139289 0.262104 0
251 1 0.163851 0.271949 0
250 1 0.144555 0.286788 0
281 1 0.16795 0.296325 0
253 1 0.206063 0.265087 0
252 1 0.187639 0.281228 0
254 1 0.211009 0.289901 0
257 1 0.270639 0.263292 0
255 1 0.228674 0.272889 0
256 1 0.252906 0.280634 0
285 1 0.234376 0.29804 0
259 1 0.294357 0.26945 0
258 1 0.277132 0.287778 0
289 1 0.300975 0.29416 0
260 1 0.318214 0.276395 0
263 1 0.360019 0.264721 0
262 1 0.342617 0.281675 0
291 1 0.32451 0.300319 0
293 1 0.366381 0.289348 0
264 1 0.383849 0.271101 0
295 1 0.391572 0.296064 0
266 1 0.408652 0.277597 0
238 1 0.449796 0.266141 0
267 1 0.43299 0.28413 0
297 1 0.415501 0.301308 0
268 1 0.456541 0.290135 0
1141 1 0.498472 0.279735 0
269 1 0.473963 0.272733 0
270 1 0.48101 0.297038 0
301 1 0.0191297 0.325937 0
272 1 0.040392 0.314061 0
303 1 0.0428631 0.33763 0
276 1 0.0837802 0.307154 0
274 1 0.0633863 0.322507 0
305 1 0.0865132 0.332004 0
304 1 0.066458 0.34715 0
277 1 0.106659 0.317919 0
278 1 0.130204 0.327267 0
307 1 0.109938 0.342512 0
280 1 0.149301 0.312057 0
311 1 0.152469 0.336755 0
282 1 0.173315 0.321397 0
312 1 0.175382 0.346053 0
283 1 0.191944 0.305515 0
284 1 0.216233 0.314824 0
313 1 0.196751 0.330254 0
315 1 0.219917 0.339535 0
287 1 0.258395 0.305327 0
286 1 0.239783 0.323612 0
317 1 0.264199 0.32938 0
288 1 0.282197 0.31199 0
318 1 0.287448 0.336399 0
290 1 0.306728 0.317968 0
319 1 0.311581 0.342168 0
292 1 0.349639 0.30754 0
321 1 0.330107 0.325476 0
323 1 0.354436 0.332003 0
324 1 0.378838 0.33676 0
294 1 0.373114 0.313489 0
325 1 0.403544 0.343942 0
296 1 0.397716 0.319443 0
298 1 0.439434 0.308644 0
327 1 0.422087 0.325769 0
328 1 0.445014 0.333726 0
329 1 0.46939 0.339477 0
299 1 0.463025 0.314638 0
300 1 0.486275 0.322107 0
1201 1 0.494172 0.346235 0
302 1 0.0219143 0.351216 0
332 1 0.0259947 0.37606 0
331 1 0.00189691 0.365112 0
333 1 0.0468219 0.361657 0
361 1 0.00422599 0.389258 0
335 1 0.0694332 0.371112 0
334 1 0.0489976 0.385666 0
306 1 0.0895831 0.356836 0
337 1 0.0921061 0.381978 0
308 1 0.112654 0.367698 0
309 1 0.133391 0.352361 0
339 1 0.136255 0.377032 0
310 1 0.157689 0.362238 0
341 1 0.160128 0.386312 0
343 1 0.180668 0.370897 0
314 1 0.199944 0.354961 0
344 1 0.203866 0.379798 0
345 1 0.224096 0.364544 0
316 1 0.243456 0.348386 0
375 1 0.226871 0.389382 0
347 1 0.267664 0.354892 0
346 1 0.247949 0.37352 0
377 1 0.273762 0.379565 0
349 1 0.292489 0.3602 0
348 1 0.29804 0.383691 0
350 1 0.317866 0.366715 0
320 1 0.336478 0.349495 0
351 1 0.344126 0.372447 0
322 1 0.362623 0.355496 0
381 1 0.3265 0.389555 0
353 1 0.368111 0.379004 0
355 1 0.38634 0.362124 0
354 1 0.391635 0.386368 0
356 1 0.409894 0.368465 0
326 1 0.427273 0.350786 0
357 1 0.43388 0.374838 0
359 1 0.4522 0.357146 0
358 1 0.458674 0.380908 0
330 1 0.477049 0.363808 0
360 1 0.48242 0.388491 0
363 1 0.0277704 0.400357 0
362 1 0.0071007 0.414172 0
364 1 0.0313434 0.425222 0
336 1 0.0710069 0.395848 0
365 1 0.050656 0.41055 0
366 1 0.0746297 0.419706 0
395 1 0.0554971 0.434968 0
338 1 0.116067 0.392343 0
367 1 0.0956699 0.406602 0
369 1 0.118675 0.416507 0
368 1 0.0980819 0.430862 0
340 1 0.138856 0.401139 0
370 1 0.141769 0.425033 0
371 1 0.161867 0.410861 0
342 1 0.184288 0.394969 0
372 1 0.185097 0.420509 0
373 1 0.206151 0.404441 0
403 1 0.207439 0.429727 0
374 1 0.228289 0.414799 0
376 1 0.250447 0.398337 0
405 1 0.251027 0.423564 0
378 1 0.274237 0.403929 0
379 1 0.308904 0.406597 0
409 1 0.290971 0.422119 0
410 1 0.314891 0.431119 0
352 1 0.350775 0.39688 0
382 1 0.35648 0.42163 0
380 1 0.333039 0.414214 0
383 1 0.374561 0.404458 0
385 1 0.399219 0.410463 0
384 1 0.381049 0.428153 0
387 1 0.416811 0.392858 0
386 1 0.423707 0.416425 0
388 1 0.441003 0.398716 0
419 1 0.446672 0.424255 0
389 1 0.464337 0.405788 0
1261 1 0.488193 0.412562 0
390 1 0.470716 0.430072 0
393 1 0.0108855 0.439215 0
423 1 0.0144201 0.464576 0
394 1 0.0349227 0.449919 0
425 1 0.0376961 0.475081 0
396 1 0.0578081 0.459655 0
397 1 0.0777108 0.444917 0
427 1 0.0804391 0.470539 0
399 1 0.121617 0.440534 0
398 1 0.100578 0.455114 0
429 1 0.123942 0.4655 0
401 1 0.164131 0.435574 0
400 1 0.143878 0.450744 0
431 1 0.166843 0.460662 0
430 1 0.147624 0.475775 0
402 1 0.187355 0.445565 0
433 1 0.209967 0.45539 0
432 1 0.190784 0.47064 0
404 1 0.229769 0.439731 0
406 1 0.251735 0.450789 0
435 1 0.233133 0.466451 0
436 1 0.256805 0.476187 0
407 1 0.272089 0.437276 0
437 1 0.277174 0.46175 0
408 1 0.295674 0.446142 0
439 1 0.300164 0.471339 0
441 1 0.319286 0.455848 0
411 1 0.338795 0.438945 0
412 1 0.345084 0.462716 0
413 1 0.362944 0.445649 0
415 1 0.405465 0.435196 0
414 1 0.387427 0.452382 0
443 1 0.367955 0.471235 0
445 1 0.393039 0.47696 0
416 1 0.411631 0.459391 0
417 1 0.428956 0.441552 0
447 1 0.435403 0.466013 0
418 1 0.453428 0.448361 0
1291 1 0.494899 0.436173 0
420 1 0.477616 0.455451 0
449 1 0.459859 0.47235 0
454 1 0.0201582 0.515482 0
424 1 0.0175196 0.490112 0
455 1 0.0399718 0.500203 0
426 1 0.0602023 0.484884 0
456 1 0.0627166 0.509484 0
457 1 0.0831208 0.495187 0
487 1 0.087373 0.520437 0
428 1 0.103595 0.479872 0
459 1 0.127526 0.489804 0
458 1 0.106864 0.505214 0
489 1 0.130782 0.514354 0
461 1 0.170515 0.485114 0
460 1 0.150495 0.500241 0
462 1 0.174152 0.510282 0
434 1 0.213662 0.480852 0
463 1 0.192801 0.495764 0
464 1 0.216589 0.506382 0
465 1 0.237392 0.49112 0
467 1 0.260644 0.501114 0
466 1 0.23956 0.515386 0
438 1 0.280606 0.486416 0
469 1 0.305942 0.495185 0
468 1 0.285026 0.510341 0
470 1 0.308943 0.520017 0
440 1 0.325996 0.479528 0
442 1 0.349658 0.487779 0
471 1 0.329043 0.504134 0
473 1 0.356798 0.513112 0
444 1 0.37469 0.495889 0
475 1 0.399269 0.500789 0
474 1 0.382457 0.519932 0
446 1 0.417206 0.483783 0
477 1 0.424339 0.508777 0
448 1 0.44127 0.490524 0
478 1 0.448776 0.514597 0
450 1 0.484548 0.48091 0
479 1 0.466094 0.496744 0
1381 1 0.491493 0.505007 0
480 1 0.472705 0.521364 0
483 1 0.0235312 0.540419 0
482 1 0.00319894 0.554076 0
485 1 0.0430347 0.525756 0
513 1 0.0259917 0.565123 0
484 1 0.0469466 0.549684 0
486 1 0.0662763 0.534116 0
515 1 0.0696716 0.559257 0
517 1 0.0906927 0.544662 0
488 1 0.110748 0.530034 0
519 1 0.11347 0.555012 0
490 1 0.134065 0.539168 0
520 1 0.137658 0.566122 0
491 1 0.153776 0.524636 0
521 1 0.15647 0.549592 0
492 1 0.176023 0.536037 0
523 1 0.179682 0.561978 0
493 1 0.196947 0.52061 0
494 1 0.200549 0.547104 0
495 1 0.219752 0.532478 0
525 1 0.22306 0.557871 0
496 1 0.241517 0.541974 0
497 1 0.261449 0.525913 0
527 1 0.26412 0.55225 0
499 1 0.305959 0.544567 0
498 1 0.283352 0.53567 0
529 1 0.28736 0.560923 0
472 1 0.337099 0.529092 0
501 1 0.328108 0.552842 0
502 1 0.350744 0.558091 0
503 1 0.364539 0.537752 0
505 1 0.389305 0.543748 0
476 1 0.406989 0.526642 0
504 1 0.374739 0.563552 0
506 1 0.41334 0.551074 0
507 1 0.431284 0.53278 0
508 1 0.43748 0.557839 0
509 1 0.45521 0.540616 0
510 1 0.479626 0.546173 0
1382 1 0.497763 0.529153 0
539 1 0.46178 0.56419 0
512 1 0.0288185 0.589562 0
511 1 0.00522047 0.579165 0
541 1 0.00846946 0.605044 0
514 1 0.0494764 0.574482 0
545 1 0.0734636 0.584088 0
543 1 0.051932 0.600233 0
516 1 0.093049 0.569698 0
518 1 0.115756 0.579929 0
547 1 0.0962866 0.595478 0
548 1 0.118677 0.605964 0
549 1 0.138608 0.591317 0
522 1 0.159949 0.576676 0
551 1 0.161888 0.601175 0
553 1 0.18233 0.587428 0
524 1 0.202882 0.57264 0
554 1 0.205709 0.596701 0
555 1 0.225533 0.582963 0
526 1 0.245442 0.568308 0
557 1 0.249888 0.592944 0
528 1 0.26843 0.577247 0
556 1 0.228908 0.607128 0
558 1 0.27254 0.60238 0
500 1 0.309993 0.569606 0
559 1 0.291752 0.58526 0
530 1 0.315602 0.593784 0
531 1 0.333422 0.576944 0
532 1 0.339131 0.600304 0
533 1 0.357387 0.58216 0
563 1 0.363046 0.607076 0
534 1 0.381736 0.588556 0
535 1 0.39835 0.570465 0
536 1 0.404755 0.595679 0
537 1 0.421599 0.576936 0
567 1 0.429098 0.600393 0
538 1 0.446467 0.582326 0
568 1 0.452342 0.607799 0
540 1 0.485965 0.570252 0
569 1 0.469187 0.589168 0
1441 1 0.492981 0.595691 0
542 1 0.0313768 0.613896 0
571 1 0.0114932 0.629674 0
573 1 0.0356017 0.63883 0
546 1 0.0755776 0.61067 0
544 1 0.0553267 0.624601 0
575 1 0.0780434 0.634875 0
574 1 0.0586289 0.64916 0
577 1 0.098729 0.62073 0
579 1 0.120884 0.63085 0
576 1 0.100683 0.646078 0
550 1 0.141813 0.616937 0
581 1 0.165538 0.626638 0
580 1 0.143334 0.642457 0
611 1 0.167405 0.65185 0
552 1 0.184922 0.611721 0
582 1 0.18791 0.637368 0
583 1 0.20732 0.621311 0
584 1 0.211131 0.647033 0
585 1 0.231009 0.632005 0
586 1 0.256391 0.642362 0
587 1 0.252169 0.617868 0
560 1 0.296921 0.610114 0
589 1 0.27588 0.626076 0
590 1 0.300165 0.634768 0
561 1 0.320384 0.61827 0
562 1 0.344805 0.624414 0
591 1 0.324663 0.642553 0
593 1 0.349971 0.647916 0
565 1 0.386955 0.613013 0
564 1 0.368354 0.630498 0
595 1 0.392757 0.636602 0
566 1 0.411424 0.619077 0
596 1 0.41639 0.643584 0
597 1 0.434753 0.62679 0
599 1 0.440964 0.650677 0
570 1 0.475452 0.614329 0
600 1 0.45875 0.632728 0
1471 1 0.482873 0.638872 0
572 1 0.0142804 0.654616 0
602 1 0.0166281 0.679406 0
603 1 0.0371936 0.664203 0
633 1 0.0394287 0.689958 0
605 1 0.0807122 0.660485 0
604 1 0.0599189 0.675271 0
606 1 0.0825547 0.68499 0
578 1 0.123623 0.656307 0
607 1 0.103472 0.670009 0
608 1 0.127412 0.681642 0
609 1 0.146371 0.666832 0
610 1 0.169345 0.677294 0
639 1 0.149368 0.692374 0
612 1 0.191038 0.68658 0
613 1 0.190885 0.66172 0
614 1 0.214881 0.671438 0
615 1 0.235815 0.656824 0
616 1 0.237397 0.681522 0
617 1 0.260885 0.668592 0
647 1 0.272286 0.69465 0
588 1 0.280646 0.651718 0
619 1 0.307186 0.659686 0
618 1 0.288683 0.677013 0
620 1 0.312944 0.683129 0
621 1 0.331272 0.666677 0
592 1 0.35585 0.672385 0
622 1 0.338684 0.68988 0
594 1 0.375075 0.654707 0
625 1 0.399805 0.660729 0
623 1 0.381574 0.678409 0
626 1 0.405354 0.684174 0
598 1 0.448106 0.674624 0
627 1 0.424243 0.66836 0
657 1 0.430386 0.692642 0
628 1 0.47185 0.680188 0
629 1 0.465686 0.656596 0
1501 1 0.489464 0.662507 0
630 1 0.495699 0.687646 0
632 1 0.0194176 0.70413 0
663 1 0.0220336 0.729754 0
634 1 0.0425226 0.715031 0
635 1 0.0628015 0.700656 0
636 1 0.0859783 0.710127 0
665 1 0.0654547 0.724777 0
666 1 0.088375 0.735502 0
637 1 0.105558 0.694928 0
638 1 0.128481 0.707508 0
667 1 0.108516 0.721404 0
669 1 0.131125 0.732167 0
641 1 0.172172 0.702355 0
640 1 0.151747 0.716982 0
671 1 0.175187 0.727208 0
643 1 0.214525 0.696037 0
642 1 0.194647 0.711456 0
644 1 0.216352 0.721825 0
673 1 0.196893 0.738327 0
645 1 0.235295 0.706629 0
675 1 0.239263 0.732026 0
646 1 0.257482 0.71411 0
677 1 0.263048 0.738488 0
649 1 0.297555 0.701767 0
648 1 0.281488 0.720361 0
679 1 0.304844 0.725971 0
650 1 0.322016 0.708314 0
651 1 0.346621 0.714836 0
681 1 0.329363 0.732359 0
653 1 0.363047 0.69726 0
624 1 0.388015 0.70295 0
654 1 0.371174 0.721279 0
685 1 0.394977 0.727371 0
655 1 0.412796 0.709186 0
656 1 0.435745 0.717238 0
686 1 0.4197 0.734943 0
658 1 0.454594 0.698291 0
687 1 0.461276 0.722983 0
659 1 0.478575 0.705095 0
689 1 0.485244 0.730322 0
662 1 0.0251933 0.755507 0
691 1 0.00475366 0.770492 0
661 1 0.00264148 0.745097 0
664 1 0.0453474 0.739584 0
693 1 0.0259829 0.783314 0
694 1 0.0471169 0.765981 0
695 1 0.0672494 0.750357 0
696 1 0.0701206 0.775024 0
697 1 0.0899923 0.760525 0
668 1 0.111384 0.74672 0
698 1 0.113357 0.771413 0
699 1 0.134266 0.757174 0
670 1 0.154249 0.741975 0
701 1 0.156918 0.768064 0
672 1 0.17707 0.753063 0
700 1 0.136746 0.780958 0
702 1 0.181703 0.77953 0
674 1 0.221063 0.747996 0
703 1 0.200945 0.763717 0
705 1 0.225236 0.771271 0
676 1 0.244828 0.756186 0
707 1 0.268767 0.762989 0
735 1 0.250424 0.780195 0
678 1 0.287773 0.744999 0
709 1 0.293421 0.769494 0
680 1 0.311465 0.750858 0
710 1 0.318915 0.775106 0
652 1 0.353225 0.739608 0
682 1 0.36094 0.764328 0
711 1 0.336903 0.757859 0
683 1 0.378116 0.745651 0
713 1 0.384039 0.771026 0
684 1 0.402277 0.752604 0
716 1 0.408076 0.776763 0
717 1 0.443196 0.742743 0
715 1 0.426306 0.759828 0
718 1 0.449568 0.765953 0
1591 1 0.498555 0.778485 0
690 1 0.491748 0.75442 0
688 1 0.467458 0.747289 0
719 1 0.473332 0.771963 0
692 1 0.00561652 0.797476 0
722 1 0.0042648 0.822687 0
723 1 0.0284795 0.80968 0
725 1 0.0497807 0.791708 0
726 1 0.0738366 0.79883 0
755 1 0.0703792 0.823027 0
727 1 0.0937938 0.785365 0
728 1 0.116398 0.796655 0
757 1 0.0949572 0.813506 0
729 1 0.139709 0.805052 0
730 1 0.162284 0.817696 0
731 1 0.161148 0.792791 0
732 1 0.184327 0.804478 0
704 1 0.206406 0.788705 0
734 1 0.226343 0.820249 0
763 1 0.201578 0.823519 0
733 1 0.23207 0.796143 0
736 1 0.256988 0.803634 0
706 1 0.275091 0.786942 0
737 1 0.283543 0.80992 0
708 1 0.299979 0.792911 0
738 1 0.307268 0.817038 0
741 1 0.342966 0.781415 0
739 1 0.325556 0.799687 0
742 1 0.349726 0.806387 0
740 1 0.332757 0.82339 0
712 1 0.367206 0.788955 0
714 1 0.391277 0.794598 0
743 1 0.374313 0.812441 0
745 1 0.397985 0.819596 0
747 1 0.432316 0.783877 0
746 1 0.415617 0.801522 0
748 1 0.43968 0.807743 0
777 1 0.422267 0.825348 0
749 1 0.456784 0.790597 0
720 1 0.480663 0.797035 0
750 1 0.46324 0.81507 0
1621 1 0.4865 0.821966 0
753 1 0.0236267 0.838182 0
783 1 0.0184802 0.864992 0
754 1 0.0422996 0.855154 0
724 1 0.0458954 0.828399 0
785 1 0.0649438 0.846941 0
786 1 0.0836524 0.864228 0
756 1 0.0891947 0.839899 0
758 1 0.114838 0.832171 0
787 1 0.10905 0.857472 0
789 1 0.132585 0.852026 0
759 1 0.138594 0.828094 0
760 1 0.157019 0.842937 0
791 1 0.174369 0.860761 0
761 1 0.180219 0.834925 0
790 1 0.150588 0.868363 0
762 1 0.198088 0.852471 0
764 1 0.219768 0.843633 0
765 1 0.24427 0.836273 0
795 1 0.240979 0.861295 0
766 1 0.26764 0.850658 0
767 1 0.266051 0.826119 0
769 1 0.315499 0.840734 0
768 1 0.290186 0.834047 0
799 1 0.298258 0.85725 0
770 1 0.338782 0.847731 0
771 1 0.357226 0.830686 0
801 1 0.321381 0.866559 0
773 1 0.362437 0.856559 0
744 1 0.380436 0.837748 0
774 1 0.386845 0.862674 0
775 1 0.404766 0.843977 0
776 1 0.411353 0.868912 0
807 1 0.42744 0.850261 0
778 1 0.445634 0.83196 0
809 1 0.451507 0.856308 0
779 1 0.46937 0.838795 0
780 1 0.475606 0.863721 0
1651 1 0.493478 0.847509 0
812 1 0.0133917 0.889092 0
814 1 0.0322101 0.905081 0
813 1 0.0367608 0.880732 0
784 1 0.0603236 0.872217 0
815 1 0.0554636 0.89728 0
816 1 0.0786409 0.890047 0
788 1 0.12717 0.87548 0
817 1 0.101669 0.881717 0
819 1 0.122241 0.900337 0
818 1 0.0976187 0.906618 0
821 1 0.169543 0.884927 0
820 1 0.145782 0.892617 0
851 1 0.163924 0.909978 0
793 1 0.216796 0.869698 0
792 1 0.192803 0.877314 0
823 1 0.211208 0.894489 0
822 1 0.187477 0.902462 0
794 1 0.234158 0.887351 0
796 1 0.256873 0.879404 0
827 1 0.255319 0.903338 0
825 1 0.231523 0.91211 0
797 1 0.27918 0.87222 0
798 1 0.279933 0.897189 0
800 1 0.301245 0.883141 0
829 1 0.305866 0.91033 0
831 1 0.326374 0.890895 0
772 1 0.344707 0.873326 0
802 1 0.350109 0.898213 0
803 1 0.368376 0.880154 0
804 1 0.374695 0.904033 0
805 1 0.393126 0.887005 0
835 1 0.398759 0.911248 0
806 1 0.416689 0.893147 0
808 1 0.43546 0.875723 0
839 1 0.441215 0.899588 0
1681 1 0.482056 0.889893 0
810 1 0.458427 0.881622 0
840 1 0.464187 0.906338 0
843 1 0.00944448 0.91449 0
844 1 0.0270193 0.931174 0
842 1 0.00323174 0.939005 0
873 1 0.0224541 0.955233 0
875 1 0.0455126 0.947801 0
845 1 0.0504852 0.922473 0
846 1 0.0694134 0.939433 0
847 1 0.074105 0.914928 0
848 1 0.0922527 0.931024 0
849 1 0.11586 0.924182 0
879 1 0.111628 0.949015 0
881 1 0.134597 0.941368 0
850 1 0.139953 0.917183 0
852 1 0.158858 0.934228 0
883 1 0.178523 0.95034 0
853 1 0.183217 0.925952 0
824 1 0.207162 0.919609 0
854 1 0.202434 0.94365 0
855 1 0.225819 0.936518 0
826 1 0.250599 0.928926 0
857 1 0.268026 0.94661 0
856 1 0.243945 0.954181 0
828 1 0.273394 0.921432 0
859 1 0.290864 0.93787 0
830 1 0.315011 0.934283 0
833 1 0.356197 0.922523 0
832 1 0.331573 0.915031 0
861 1 0.339507 0.940516 0
863 1 0.363138 0.946885 0
834 1 0.38109 0.928622 0
865 1 0.405207 0.934414 0
864 1 0.387706 0.952911 0
837 1 0.42294 0.917003 0
836 1 0.429018 0.942447 0
838 1 0.446136 0.924306 0
870 1 0.453188 0.948676 0
1711 1 0.48863 0.914486 0
869 1 0.470704 0.931089 0
1712 1 0.495527 0.938365 0
1741 1 0.477848 0.955542 0
3 1 0.0356966 0.997381 0
872 1 0.0171706 0.98084 0
874 1 0.0409835 0.972247 0
877 1 0.0880574 0.956795 0
5 1 0.0589617 0.988952 0
876 1 0.064391 0.963982 0
7 1 0.0823447 0.982209 0
8 1 0.100742 0.999194 0
9 1 0.123491 0.990335 0
878 1 0.105152 0.973661 0
880 1 0.129199 0.965969 0
41 1 0.166554 0.999403 0
11 1 0.148153 0.983329 0
882 1 0.153797 0.958237 0
13 1 0.172211 0.974302 0
12 1 0.189832 0.991395 0
15 1 0.214022 0.985062 0
884 1 0.196266 0.967528 0
885 1 0.220408 0.961007 0
17 1 0.256936 0.995131 0
887 1 0.238277 0.97792 0
888 1 0.263134 0.971221 0
858 1 0.287116 0.962623 0
19 1 0.281164 0.987516 0
889 1 0.305604 0.979484 0
860 1 0.320087 0.958915 0
862 1 0.345694 0.965179 0
891 1 0.328696 0.983025 0
892 1 0.352837 0.990724 0
23 1 0.37788 0.996153 0
893 1 0.370302 0.970774 0
895 1 0.394286 0.977625 0
867 1 0.436158 0.967564 0
866 1 0.411751 0.959825 0
897 1 0.443043 0.992033 0
896 1 0.419026 0.98543 0
868 1 0.460057 0.973005 0
899 1 0.466982 0.997381 0
1771 1 0.483775 0.979799 0
931 1 0.521044 0.0354409 0
901 1 0.515033 0.0106253 0
902 1 0.53914 0.0180593 0
933 1 0.546035 0.0426227 0
904 1 0.56252 0.0248076 0
906 1 0.581027 0.00648949 0
935 1 0.587134 0.031137 0
908 1 0.604878 0.0126336 0
939 1 0.62976 0.0200627 0
937 1 0.611618 0.0369859 0
941 1 0.653883 0.0279616 0
912 1 0.670797 0.008877 0
942 1 0.678427 0.0343751 0
910 1 0.646127 0.00303319 0
943 1 0.694879 0.015038 0
945 1 0.718292 0.0225929 0
944 1 0.702651 0.0408746 0
914 1 0.741572 0.0261649 0
916 1 0.765251 0.0185889 0
947 1 0.759992 0.0430681 0
915 1 0.74415 0.000304688 0
918 1 0.784252 0.0352821 0
919 1 0.807752 0.0275415 0
917 1 0.788153 0.0112773 0
1788 1 0.811906 0.00305111 0
920 1 0.832203 0.0193882 0
922 1 0.85016 0.0360473 0
921 1 0.855892 0.0117487 0
923 1 0.873694 0.0286164 0
924 1 0.898873 0.0213639 0
1792 1 0.879977 0.00548589 0
955 1 0.917204 0.0372995 0
925 1 0.921471 0.012363 0
926 1 0.940396 0.0296349 0
928 1 0.944836 0.00438088 0
930 1 0.98793 0.0133256 0
959 1 0.96382 0.0209124 0
960 1 0.982375 0.0372694 0
932 1 0.528559 0.0606289 0
961 1 0.512112 0.0785455 0
60 1 0.503856 0.0547983 0
962 1 0.53658 0.0857796 0
963 1 0.55278 0.0671033 0
934 1 0.570533 0.0496294 0
965 1 0.57731 0.0739182 0
936 1 0.595 0.0566177 0
967 1 0.618491 0.0628517 0
966 1 0.600904 0.0802938 0
938 1 0.635265 0.0454658 0
969 1 0.64271 0.0698636 0
940 1 0.660494 0.0521239 0
970 1 0.667559 0.0767693 0
971 1 0.684463 0.0592332 0
973 1 0.708273 0.0646755 0
972 1 0.691021 0.0834304 0
975 1 0.727971 0.0469687 0
974 1 0.731449 0.071344 0
946 1 0.755537 0.0672984 0
977 1 0.773437 0.085021 0
949 1 0.802083 0.0525783 0
948 1 0.778557 0.060609 0
979 1 0.797323 0.0762033 0
951 1 0.826281 0.0434296 0
950 1 0.822376 0.0680198 0
980 1 0.840283 0.084911 0
952 1 0.846066 0.0605241 0
981 1 0.863956 0.0771585 0
954 1 0.89307 0.0451504 0
953 1 0.869726 0.0531414 0
983 1 0.888149 0.0692501 0
985 1 0.911687 0.060915 0
956 1 0.935269 0.0540731 0
986 1 0.929046 0.0786837 0
987 1 0.954173 0.070496 0
957 1 0.959482 0.0455299 0
958 1 0.976966 0.0622585 0
989 1 0.995967 0.078912 0
988 1 0.972893 0.0877445 0
991 1 0.518928 0.104125 0
993 1 0.543275 0.110737 0
992 1 0.525336 0.128379 0
120 1 0.501836 0.121626 0
964 1 0.559916 0.0923373 0
994 1 0.566987 0.11738 0
995 1 0.584822 0.0983083 0
996 1 0.590569 0.124048 0
968 1 0.624813 0.0872005 0
997 1 0.608307 0.106025 0
998 1 0.63244 0.11256 0
999 1 0.650383 0.0951288 0
1000 1 0.657077 0.119019 0
1001 1 0.673812 0.100159 0
1031 1 0.680136 0.124874 0
1002 1 0.697336 0.108114 0
1003 1 0.714789 0.0899453 0
1004 1 0.722198 0.113986 0
976 1 0.767896 0.108957 0
1005 1 0.748516 0.0914451 0
1035 1 0.745897 0.119237 0
978 1 0.816693 0.0923349 0
1007 1 0.79148 0.101768 0
1006 1 0.786608 0.127365 0
1008 1 0.810506 0.117313 0
1009 1 0.835196 0.109163 0
1010 1 0.852894 0.126541 0
1011 1 0.858751 0.101557 0
984 1 0.906184 0.0853935 0
982 1 0.882819 0.0946839 0
1012 1 0.876738 0.119557 0
1013 1 0.900918 0.111419 0
1016 1 0.919369 0.12747 0
1017 1 0.948722 0.0940625 0
1015 1 0.923836 0.102995 0
1047 1 0.943554 0.119071 0
1018 1 0.967323 0.112459 0
1019 1 0.991571 0.103394 0
1020 1 0.985833 0.128608 0
1022 1 0.531777 0.152741 0
1021 1 0.507809 0.146438 0
1051 1 0.515444 0.17086 0
1023 1 0.549516 0.134807 0
1024 1 0.555941 0.1596 0
1025 1 0.573295 0.141865 0
1055 1 0.579928 0.166177 0
1027 1 0.614537 0.131069 0
1026 1 0.597142 0.148897 0
1028 1 0.622158 0.155332 0
1057 1 0.604903 0.17318 0
1029 1 0.639284 0.136942 0
1059 1 0.646071 0.161786 0
1030 1 0.663694 0.143144 0
1061 1 0.670976 0.167637 0
1033 1 0.705361 0.131209 0
1032 1 0.688103 0.149584 0
1063 1 0.711881 0.155872 0
1034 1 0.730048 0.138055 0
1036 1 0.755158 0.143432 0
1065 1 0.736308 0.162529 0
1066 1 0.759281 0.169398 0
1067 1 0.779843 0.152397 0
1037 1 0.806112 0.14241 0
1038 1 0.80167 0.16568 0
1039 1 0.829488 0.134556 0
1040 1 0.825116 0.158979 0
1041 1 0.847477 0.150921 0
1042 1 0.86751 0.167829 0
1014 1 0.895843 0.135925 0
1043 1 0.871426 0.143522 0
1044 1 0.890288 0.160521 0
1045 1 0.914697 0.152703 0
1046 1 0.938335 0.143436 0
1077 1 0.932953 0.169266 0
1048 1 0.956923 0.160669 0
1049 1 0.961814 0.136667 0
1050 1 0.980807 0.152618 0
151 1 0.998983 0.170288 0
1053 1 0.539485 0.177219 0
1052 1 0.522039 0.19566 0
1081 1 0.503497 0.21238 0
1083 1 0.545819 0.202264 0
1054 1 0.562976 0.185392 0
1056 1 0.587296 0.190896 0
1085 1 0.56937 0.209654 0
1058 1 0.628784 0.179856 0
1087 1 0.610976 0.197846 0
1089 1 0.635484 0.204417 0
1086 1 0.593112 0.216187 0
1060 1 0.653044 0.186208 0
1091 1 0.677043 0.192694 0
1090 1 0.659287 0.211597 0
1062 1 0.694899 0.174956 0
1093 1 0.701753 0.200414 0
1064 1 0.718678 0.181246 0
1094 1 0.72617 0.205815 0
1092 1 0.683691 0.217339 0
1095 1 0.742853 0.188107 0
1097 1 0.766309 0.197239 0
1096 1 0.749539 0.214727 0
1068 1 0.782056 0.178962 0
1098 1 0.79112 0.202959 0
1099 1 0.81508 0.208189 0
1069 1 0.818319 0.183981 0
1071 1 0.843158 0.176095 0
1070 1 0.83811 0.201789 0
1072 1 0.861385 0.19335 0
1073 1 0.884918 0.185594 0
1103 1 0.879907 0.210452 0
1074 1 0.90271 0.20164 0
1075 1 0.908845 0.177211 0
1078 1 0.950876 0.185879 0
1076 1 0.926666 0.193209 0
1107 1 0.945243 0.210597 0
1079 1 0.974598 0.178508 0
1109 1 0.969829 0.202855 0
181 1 0.99349 0.195102 0
1082 1 0.527345 0.219078 0
1111 1 0.510036 0.237315 0
1113 1 0.535139 0.243987 0
1084 1 0.551852 0.226485 0
1114 1 0.557521 0.251049 0
1115 1 0.575832 0.233999 0
1116 1 0.583045 0.25842 0
1088 1 0.617322 0.222094 0
1117 1 0.600616 0.241094 0
1118 1 0.624526 0.248181 0
1119 1 0.642208 0.228988 0
1121 1 0.667054 0.236015 0
1120 1 0.64926 0.253848 0
1151 1 0.673813 0.26035 0
1122 1 0.691305 0.241973 0
1123 1 0.708613 0.224153 0
1124 1 0.71534 0.250025 0
1125 1 0.732394 0.232619 0
1126 1 0.757039 0.239076 0
1155 1 0.739746 0.256674 0
1127 1 0.773751 0.220202 0
1129 1 0.79981 0.227588 0
1128 1 0.782146 0.244909 0
1159 1 0.807073 0.250999 0
1101 1 0.855665 0.218053 0
1100 1 0.824968 0.231939 0
1130 1 0.83204 0.257467 0
1131 1 0.849906 0.241751 0
1102 1 0.873601 0.235786 0
1104 1 0.897671 0.226641 0
1133 1 0.891553 0.251481 0
1132 1 0.866213 0.260998 0
1105 1 0.921381 0.218524 0
1135 1 0.915719 0.242628 0
1106 1 0.939919 0.235222 0
1136 1 0.935036 0.258724 0
1110 1 0.987429 0.220536 0
1137 1 0.958511 0.25171 0
1108 1 0.963722 0.227188 0
1139 1 0.983023 0.24436 0
1112 1 0.516869 0.261277 0
1142 1 0.522498 0.286349 0
1143 1 0.540944 0.26878 0