ITEM: TIMESTEP
18000
ITEM: NUMBER OF ATOMS
1800
ITEM: BOX BOUNDS pp pp pp
1.6460267656859173e-01 1.6483539732343363e+02
1.6460267656859173e-01 1.6483539732343363e+02
0.0000000000000000e+00 5.5000000000000000e+00
ITEM: ATOMS id type xs ys zs
2 1 0.0168312 0.011113 0
3 1 0.041021 0.00488168 0
33 1 0.035883 0.0282965 0
31 1 0.0122614 0.034078 0
4 1 0.0598701 0.0209484 0
6 1 0.0831337 0.014704 0
35 1 0.0772018 0.0391575 0
8 1 0.105228 0.00744994 0
37 1 0.0999918 0.0321723 0
39 1 0.1245 0.024946 0
10 1 0.147347 0.0138452 0
41 1 0.16922 0.0241822 0
40 1 0.148311 0.0381906 0
11 1 0.167441 0.000266985 0
12 1 0.190355 0.00992073 0
43 1 0.192774 0.0330818 0
14 1 0.214173 0.0201919 0
45 1 0.237773 0.03004 0
16 1 0.260001 0.0207182 0
886 1 0.240794 0.00373446 0
47 1 0.280176 0.0439171 0
18 1 0.285177 0.0165367 0
20 1 0.310646 0.0124554 0
49 1 0.303131 0.0357104 0
51 1 0.329688 0.0294728 0
22 1 0.354361 0.0227037 0
21 1 0.335438 0.00643924 0
24 1 0.381087 0.016874 0
25 1 0.407362 0.0168897 0
55 1 0.397292 0.0417413 0
53 1 0.37265 0.0387432 0
26 1 0.434853 0.0334687 0
27 1 0.429749 0.0053052 0
898 1 0.452343 0.0154749 0
28 1 0.458182 0.0415343 0
29 1 0.475842 0.0242199 0
900 1 0.494971 0.00641926 0
30 1 0.499772 0.0306688 0
32 1 0.0295979 0.0508309 0
62 1 0.0254644 0.0745562 0
61 1 0.0068137 0.0595113 0
990 1 0.00244951 0.0826948 0
63 1 0.0467189 0.0675477 0
34 1 0.0531747 0.0446908 0
65 1 0.0705342 0.0633419 0
66 1 0.0837785 0.0834317 0
36 1 0.0946998 0.0573011 0
38 1 0.118509 0.0499738 0
67 1 0.106656 0.0773984 0
69 1 0.129491 0.0711718 0
71 1 0.151513 0.0630136 0
42 1 0.17162 0.0488808 0
72 1 0.171363 0.0770678 0
44 1 0.217006 0.0454833 0
73 1 0.19572 0.0568825 0
74 1 0.217699 0.0701864 0
103 1 0.195608 0.0796285 0
46 1 0.256322 0.0453094 0
75 1 0.24024 0.0627236 0
77 1 0.264247 0.0697045 0
48 1 0.298385 0.0604487 0
78 1 0.286237 0.0840569 0
79 1 0.312238 0.084386 0
50 1 0.321772 0.0539159 0
81 1 0.334945 0.073781 0
52 1 0.353168 0.0538562 0
82 1 0.358577 0.0789404 0
83 1 0.377696 0.0627633 0
54 1 0.401237 0.067938 0
113 1 0.381653 0.0868894 0
57 1 0.441198 0.0589635 0
85 1 0.423829 0.0757814 0
56 1 0.418572 0.0504529 0
87 1 0.446699 0.0829432 0
59 1 0.481236 0.0483315 0
58 1 0.464244 0.0664391 0
89 1 0.488829 0.0723724 0
92 1 0.0229546 0.117337 0
93 1 0.0336238 0.0961455 0
94 1 0.0510389 0.112148 0
64 1 0.059363 0.0887239 0
95 1 0.0759059 0.106078 0
96 1 0.0909159 0.12453 0
68 1 0.123386 0.0952987 0
97 1 0.0998381 0.101806 0
98 1 0.115027 0.120719 0
99 1 0.138291 0.115688 0
70 1 0.147427 0.0893004 0
100 1 0.160775 0.109995 0
101 1 0.182705 0.0996781 0
131 1 0.179289 0.12627 0
102 1 0.201473 0.113819 0
105 1 0.21498 0.0934032 0
76 1 0.23749 0.0868344 0
106 1 0.229906 0.113345 0
107 1 0.263787 0.094519 0
137 1 0.25452 0.117029 0
108 1 0.282394 0.123163 0
109 1 0.301139 0.105714 0
80 1 0.339277 0.0972469 0
110 1 0.323625 0.115022 0
141 1 0.346981 0.121092 0
111 1 0.363261 0.103777 0
84 1 0.406035 0.093251 0
112 1 0.388499 0.109684 0
143 1 0.369971 0.128213 0
115 1 0.410815 0.116844 0
86 1 0.429872 0.100383 0
116 1 0.434617 0.12455 0
117 1 0.452746 0.108523 0
88 1 0.47031 0.0905358 0
90 1 0.494175 0.096937 0
119 1 0.476204 0.113714 0
122 1 0.0195554 0.141206 0
123 1 0.0421719 0.134017 0
153 1 0.0386437 0.159047 0
152 1 0.0164064 0.16411 0
124 1 0.0621437 0.154542 0
125 1 0.0672734 0.130256 0
126 1 0.0849953 0.147869 0
155 1 0.0790111 0.173298 0
127 1 0.108943 0.144005 0
128 1 0.125503 0.161678 0
129 1 0.132613 0.138968 0
157 1 0.10207 0.16732 0
159 1 0.149692 0.158848 0
130 1 0.155622 0.133907 0
132 1 0.174455 0.150741 0
104 1 0.215996 0.132479 0
133 1 0.197087 0.145694 0
163 1 0.19328 0.17064 0
134 1 0.220988 0.156026 0
135 1 0.239218 0.136692 0
136 1 0.263538 0.142885 0
165 1 0.245907 0.159954 0
167 1 0.269973 0.167554 0
139 1 0.305081 0.131175 0
138 1 0.288441 0.149128 0
169 1 0.311317 0.155715 0
140 1 0.328866 0.137633 0
142 1 0.352229 0.145955 0
171 1 0.335057 0.162807 0
172 1 0.359334 0.169154 0
114 1 0.394031 0.134151 0
173 1 0.376741 0.152961 0
144 1 0.40076 0.159759 0
145 1 0.417348 0.142117 0
146 1 0.423807 0.166131 0
147 1 0.441224 0.149538 0
177 1 0.448379 0.171833 0
118 1 0.458187 0.132083 0
149 1 0.483909 0.137773 0
148 1 0.465688 0.154793 0
150 1 0.491115 0.160831 0
183 1 0.0298667 0.184099 0
182 1 0.0214205 0.208807 0
184 1 0.0451505 0.203132 0
154 1 0.0537537 0.177781 0
185 1 0.070185 0.196368 0
186 1 0.0878971 0.214157 0
156 1 0.0945052 0.19109 0
158 1 0.118509 0.185277 0
187 1 0.111594 0.208851 0
189 1 0.133706 0.203128 0
161 1 0.168658 0.174428 0
160 1 0.142297 0.180288 0
191 1 0.160277 0.196934 0
221 1 0.17466 0.216435 0
162 1 0.184346 0.193403 0
193 1 0.211356 0.195029 0
192 1 0.197816 0.214878 0
164 1 0.229893 0.178794 0
195 1 0.236657 0.201736 0
166 1 0.254552 0.185446 0
196 1 0.261705 0.208891 0
168 1 0.294202 0.174055 0
197 1 0.278361 0.192405 0
199 1 0.302145 0.198208 0
198 1 0.284666 0.215229 0
170 1 0.318525 0.180432 0
201 1 0.34246 0.185234 0
200 1 0.32514 0.204606 0
202 1 0.348928 0.211827 0
203 1 0.364937 0.19411 0
174 1 0.383315 0.177214 0
204 1 0.388255 0.20075 0
175 1 0.406382 0.183806 0
205 1 0.41321 0.208188 0
176 1 0.431945 0.190801 0
207 1 0.437187 0.213927 0
178 1 0.455219 0.1957 0
179 1 0.47373 0.178437 0
180 1 0.497087 0.186169 0
209 1 0.478844 0.202987 0
213 1 0.0386673 0.226374 0
212 1 0.01502 0.233467 0
243 1 0.0318335 0.251208 0
241 1 0.00697215 0.257503 0
215 1 0.0630171 0.220098 0
216 1 0.0798168 0.23919 0
214 1 0.0557189 0.243834 0
188 1 0.127922 0.227085 0
217 1 0.10324 0.233544 0
218 1 0.120656 0.249769 0
247 1 0.0971381 0.257574 0
219 1 0.145379 0.244428 0
190 1 0.151146 0.220222 0
220 1 0.168665 0.238514 0
222 1 0.184825 0.256626 0
223 1 0.20044 0.238671 0
194 1 0.220483 0.220421 0
224 1 0.226161 0.246014 0
225 1 0.243391 0.227227 0
227 1 0.267241 0.233186 0
226 1 0.249688 0.250665 0
257 1 0.273274 0.257098 0
228 1 0.291449 0.239519 0
229 1 0.307456 0.222321 0
230 1 0.314425 0.245721 0
231 1 0.331999 0.229209 0
232 1 0.355279 0.237533 0
261 1 0.337599 0.253795 0
263 1 0.360587 0.261077 0
233 1 0.372631 0.21954 0
234 1 0.378149 0.243469 0
235 1 0.396221 0.22714 0
265 1 0.402665 0.251698 0
236 1 0.426566 0.25743 0
206 1 0.420209 0.23393 0
237 1 0.443858 0.237849 0
208 1 0.460724 0.220709 0
210 1 0.483792 0.227322 0
239 1 0.466348 0.245411 0
240 1 0.491338 0.252374 0
242 1 0.02507 0.275468 0
273 1 0.0425745 0.291774 0
271 1 0.0182367 0.301976 0
245 1 0.0725262 0.263286 0
244 1 0.0482572 0.268442 0
275 1 0.0667834 0.286052 0
246 1 0.0907723 0.281627 0
248 1 0.114052 0.274966 0
277 1 0.108553 0.300152 0
279 1 0.132749 0.294041 0
249 1 0.13779 0.268129 0
250 1 0.154849 0.285143 0
251 1 0.160825 0.261502 0
281 1 0.175081 0.298548 0
252 1 0.192573 0.279826 0
253 1 0.208584 0.262775 0
254 1 0.216095 0.286381 0
283 1 0.198931 0.304077 0
255 1 0.232688 0.269384 0
256 1 0.256528 0.275473 0
285 1 0.238383 0.292833 0
287 1 0.262126 0.300114 0
258 1 0.279849 0.280594 0
259 1 0.297717 0.262964 0
289 1 0.303235 0.288614 0
260 1 0.319718 0.271368 0
262 1 0.343803 0.278578 0
291 1 0.326065 0.29587 0
292 1 0.349295 0.303155 0
264 1 0.38464 0.268571 0
293 1 0.36646 0.285089 0
295 1 0.390967 0.291774 0
266 1 0.410082 0.275577 0
238 1 0.450362 0.262502 0
267 1 0.432943 0.281601 0
297 1 0.416262 0.299294 0
268 1 0.455927 0.286705 0
1141 1 0.497495 0.276502 0
269 1 0.47364 0.270558 0
270 1 0.478936 0.294446 0
272 1 0.0390465 0.314929 0
301 1 0.0187034 0.326446 0
1230 1 0.00152362 0.344369 0
303 1 0.0453015 0.337713 0
276 1 0.0840944 0.304062 0
274 1 0.0638454 0.319269 0
305 1 0.0903787 0.329233 0
304 1 0.0697867 0.34312 0
278 1 0.129287 0.319889 0
307 1 0.112525 0.338353 0
309 1 0.135533 0.345953 0
280 1 0.152113 0.309396 0
311 1 0.155639 0.333211 0
282 1 0.17729 0.32255 0
284 1 0.221966 0.310663 0
313 1 0.201589 0.327744 0
312 1 0.185498 0.344669 0
315 1 0.228142 0.333826 0
286 1 0.245853 0.317446 0
317 1 0.272251 0.324647 0
316 1 0.25395 0.341589 0
288 1 0.285338 0.304157 0
290 1 0.308299 0.315229 0
319 1 0.297419 0.336858 0
318 1 0.276627 0.348852 0
321 1 0.324893 0.332784 0
323 1 0.348552 0.326579 0
294 1 0.371725 0.310261 0
325 1 0.388782 0.336533 0
324 1 0.366404 0.343918 0
296 1 0.396352 0.314258 0
298 1 0.436819 0.315241 0
327 1 0.415874 0.328781 0
329 1 0.455703 0.336754 0
299 1 0.46065 0.310382 0
300 1 0.484712 0.317882 0
1201 1 0.491468 0.34068 0
302 1 0.0255671 0.352352 0
332 1 0.0306141 0.376723 0
331 1 0.00770116 0.369808 0
333 1 0.0490199 0.360784 0
335 1 0.0735253 0.369477 0
334 1 0.054482 0.385395 0
306 1 0.0923922 0.353981 0
337 1 0.0972802 0.377657 0
308 1 0.116117 0.362044 0
338 1 0.122615 0.384961 0
339 1 0.140756 0.369462 0
310 1 0.161523 0.356961 0
341 1 0.171616 0.380976 0
343 1 0.194431 0.368853 0
314 1 0.210012 0.350611 0
344 1 0.21942 0.379788 0
345 1 0.235032 0.357134 0
347 1 0.270232 0.371667 0
346 1 0.244951 0.378367 0
349 1 0.294388 0.363817 0
348 1 0.286929 0.388533 0
350 1 0.310539 0.381038 0
320 1 0.317263 0.356211 0
322 1 0.341897 0.35179 0
351 1 0.334012 0.374986 0
353 1 0.360407 0.366767 0
355 1 0.384154 0.361262 0
354 1 0.377116 0.384009 0
356 1 0.401266 0.378009 0
326 1 0.406355 0.352347 0
328 1 0.433328 0.347218 0
357 1 0.426328 0.370262 0
359 1 0.450367 0.364582 0
358 1 0.443295 0.387699 0
330 1 0.472714 0.354615 0
1231 1 0.495891 0.365259 0
360 1 0.47224 0.378759 0
363 1 0.0347132 0.401887 0
361 1 0.0114438 0.3938 0
362 1 0.0162298 0.417052 0
364 1 0.0401382 0.426962 0
336 1 0.078118 0.393623 0
365 1 0.0587988 0.409875 0
366 1 0.0830052 0.418892 0
395 1 0.0644811 0.433674 0
367 1 0.102435 0.40132 0
369 1 0.124819 0.41021 0
368 1 0.106075 0.427166 0
399 1 0.127894 0.435397 0
340 1 0.14894 0.392675 0
370 1 0.147548 0.417753 0
371 1 0.171375 0.404868 0
401 1 0.169023 0.42863 0
342 1 0.195864 0.394941 0
372 1 0.191196 0.418572 0
373 1 0.214804 0.408967 0
375 1 0.238628 0.402004 0
374 1 0.233015 0.426065 0
377 1 0.261934 0.394991 0
376 1 0.257086 0.419186 0
378 1 0.280965 0.412107 0
379 1 0.304596 0.404715 0
409 1 0.298239 0.429371 0
352 1 0.351851 0.390616 0
381 1 0.327437 0.398049 0
382 1 0.345766 0.415017 0
380 1 0.322029 0.422589 0
413 1 0.36412 0.431743 0
383 1 0.370602 0.406915 0
385 1 0.393879 0.401411 0
384 1 0.387908 0.42425 0
387 1 0.418963 0.395131 0
388 1 0.434298 0.413186 0
386 1 0.411227 0.418588 0
419 1 0.453443 0.43089 0
389 1 0.45754 0.40819 0
1261 1 0.4808 0.40126 0
390 1 0.476222 0.424604 0
393 1 0.0210081 0.442557 0
423 1 0.0260353 0.466492 0
394 1 0.0448215 0.450978 0
392 1 0.000852775 0.45771 0
396 1 0.0681721 0.459118 0
425 1 0.04999 0.476043 0
397 1 0.0876198 0.443477 0
427 1 0.0915611 0.469469 0
398 1 0.110407 0.453437 0
428 1 0.115463 0.4768 0
429 1 0.133819 0.460707 0
400 1 0.154512 0.449204 0
431 1 0.172366 0.467295 0
403 1 0.208536 0.434827 0
402 1 0.186933 0.445881 0
433 1 0.206731 0.460563 0
404 1 0.22799 0.450969 0
405 1 0.251924 0.444599 0
406 1 0.268862 0.462237 0
435 1 0.242548 0.470923 0
407 1 0.275054 0.436765 0
408 1 0.292497 0.453765 0
410 1 0.315558 0.447144 0
437 1 0.287328 0.477499 0
439 1 0.30973 0.47124 0
411 1 0.340103 0.439385 0
412 1 0.358534 0.455779 0
441 1 0.333062 0.464698 0
415 1 0.406083 0.442564 0
414 1 0.381675 0.449186 0
445 1 0.399518 0.466131 0
443 1 0.37607 0.47387 0
417 1 0.429469 0.436619 0
418 1 0.44737 0.454364 0
416 1 0.424675 0.460557 0
1291 1 0.496862 0.43735 0
420 1 0.473554 0.448419 0
1321 1 0.493166 0.462151 0
449 1 0.464232 0.471294 0
422 1 0.00576744 0.48347 0
453 1 0.00601901 0.508276 0
454 1 0.0304175 0.516481 0
424 1 0.0293969 0.490011 0
426 1 0.0725458 0.486666 0
455 1 0.0512306 0.50158 0
456 1 0.0766652 0.511722 0
457 1 0.0961573 0.494101 0
459 1 0.129493 0.496599 0
458 1 0.110917 0.513818 0
430 1 0.150391 0.481672 0
461 1 0.172077 0.492632 0
460 1 0.151391 0.507821 0
462 1 0.176125 0.517624 0
434 1 0.219802 0.481959 0
432 1 0.19364 0.480061 0
463 1 0.196234 0.503665 0
464 1 0.218542 0.513073 0
436 1 0.261769 0.485623 0
465 1 0.239323 0.498318 0
467 1 0.261506 0.512226 0
438 1 0.281188 0.500088 0
469 1 0.304878 0.507022 0
442 1 0.352151 0.479097 0
440 1 0.32869 0.491138 0
470 1 0.32934 0.515969 0
471 1 0.350319 0.502608 0
444 1 0.392753 0.491655 0
473 1 0.372998 0.510915 0
474 1 0.39584 0.520189 0
447 1 0.44154 0.479201 0
475 1 0.415275 0.507292 0
446 1 0.418563 0.48402 0
477 1 0.438348 0.514431 0
448 1 0.458138 0.497838 0
450 1 0.483176 0.483862 0
479 1 0.479789 0.508467 0
452 1 0.00956168 0.533328 0
483 1 0.031838 0.542922 0
482 1 0.00893604 0.557406 0
485 1 0.0509154 0.528504 0
484 1 0.051983 0.555474 0
486 1 0.0730882 0.542996 0
489 1 0.133108 0.523196 0
487 1 0.0934189 0.529465 0
488 1 0.114324 0.540379 0
517 1 0.0951262 0.554882 0
519 1 0.118379 0.567035 0
490 1 0.136793 0.550087 0
491 1 0.155397 0.532696 0
521 1 0.159071 0.562578 0
492 1 0.17827 0.544472 0
493 1 0.197178 0.529987 0
494 1 0.201177 0.555753 0
495 1 0.22045 0.54037 0
525 1 0.223961 0.564848 0
466 1 0.240325 0.523763 0
496 1 0.243818 0.548317 0
497 1 0.263797 0.535501 0
527 1 0.268015 0.55956 0
468 1 0.28494 0.523692 0
499 1 0.309305 0.531493 0
498 1 0.289158 0.547249 0
500 1 0.31407 0.55587 0
472 1 0.353875 0.526232 0
501 1 0.333259 0.540973 0
502 1 0.356031 0.550884 0
503 1 0.377022 0.535875 0
505 1 0.399485 0.545193 0
504 1 0.379729 0.560757 0
476 1 0.41869 0.530714 0
507 1 0.44185 0.538892 0
506 1 0.422778 0.554671 0
508 1 0.444478 0.563233 0
478 1 0.461457 0.524086 0
480 1 0.483498 0.535046 0
509 1 0.464591 0.549167 0
510 1 0.488252 0.558257 0
513 1 0.0314435 0.568518 0
512 1 0.0325651 0.593622 0
511 1 0.010197 0.58205 0
541 1 0.0106972 0.606762 0
514 1 0.0539034 0.582188 0
515 1 0.073862 0.567925 0
545 1 0.0746284 0.595063 0
543 1 0.0529391 0.607191 0
516 1 0.0952926 0.582397 0
518 1 0.118842 0.593089 0
549 1 0.142053 0.604291 0
520 1 0.1414 0.579814 0
522 1 0.163772 0.587256 0
523 1 0.181734 0.56964 0
524 1 0.204626 0.579897 0
553 1 0.18635 0.59635 0
554 1 0.209548 0.604329 0
526 1 0.248577 0.573384 0
555 1 0.228563 0.588694 0
557 1 0.252583 0.597831 0
528 1 0.272669 0.583136 0
529 1 0.292372 0.570346 0
558 1 0.276398 0.606772 0
559 1 0.298347 0.592986 0
530 1 0.319458 0.580438 0
531 1 0.338755 0.567687 0
532 1 0.341072 0.592872 0
533 1 0.360565 0.576766 0
561 1 0.322041 0.60822 0
563 1 0.36492 0.601199 0
534 1 0.383083 0.585351 0
535 1 0.402622 0.57019 0
536 1 0.406932 0.594795 0
537 1 0.425128 0.579142 0
567 1 0.429486 0.603413 0
538 1 0.448116 0.588482 0
539 1 0.468393 0.572842 0
540 1 0.490293 0.582383 0
569 1 0.470687 0.59681 0
1441 1 0.493079 0.606571 0
542 1 0.0315487 0.619535 0
571 1 0.0107239 0.631375 0
573 1 0.0329958 0.643723 0
544 1 0.0546811 0.631848 0
546 1 0.0758092 0.620024 0
575 1 0.073749 0.645315 0
547 1 0.0976621 0.608186 0
548 1 0.123809 0.622183 0
577 1 0.0970175 0.634457 0
579 1 0.12897 0.645009 0
551 1 0.165717 0.612324 0
550 1 0.14749 0.628157 0
581 1 0.172524 0.637595 0
552 1 0.189716 0.619583 0
582 1 0.195429 0.645162 0
583 1 0.213774 0.628074 0
556 1 0.233596 0.612849 0
585 1 0.237829 0.637948 0
586 1 0.262793 0.646289 0
587 1 0.256636 0.622463 0
560 1 0.298629 0.615996 0
589 1 0.280565 0.630425 0
590 1 0.304666 0.638056 0
562 1 0.346141 0.618013 0
591 1 0.327384 0.631955 0
593 1 0.349635 0.643582 0
565 1 0.389419 0.611242 0
564 1 0.368697 0.62625 0
595 1 0.390907 0.63593 0
566 1 0.412868 0.619878 0
596 1 0.41506 0.643587 0
597 1 0.435963 0.632246 0
568 1 0.452421 0.61371 0
570 1 0.474514 0.621017 0
599 1 0.458756 0.639685 0
600 1 0.483732 0.641958 0
572 1 0.0116908 0.655341 0
602 1 0.0096028 0.678449 0
603 1 0.0328759 0.671037 0
574 1 0.0526441 0.659096 0
605 1 0.0738991 0.671632 0
604 1 0.0535359 0.685773 0
576 1 0.0942636 0.657678 0
578 1 0.116705 0.666916 0
607 1 0.0978423 0.682228 0
608 1 0.120624 0.690807 0
580 1 0.152425 0.653348 0
609 1 0.139501 0.672683 0
611 1 0.178257 0.663219 0
610 1 0.161421 0.681122 0
584 1 0.218996 0.653281 0
612 1 0.185341 0.688218 0
613 1 0.202151 0.670404 0
643 1 0.208988 0.694929 0
614 1 0.227262 0.679169 0
615 1 0.244565 0.661964 0
616 1 0.250834 0.687559 0
617 1 0.269051 0.670969 0
588 1 0.285556 0.653495 0
619 1 0.309633 0.661268 0
618 1 0.293044 0.677988 0
620 1 0.31683 0.685392 0
647 1 0.275357 0.6957 0
621 1 0.333628 0.664273 0
592 1 0.356512 0.671413 0
622 1 0.340548 0.689838 0
594 1 0.372592 0.651457 0
625 1 0.396643 0.659237 0
623 1 0.380251 0.676139 0
626 1 0.414133 0.693536 0
598 1 0.443183 0.659825 0
627 1 0.419997 0.669903 0
657 1 0.437898 0.686936 0
628 1 0.461869 0.683723 0
629 1 0.469969 0.661345 0
630 1 0.487992 0.682291 0
1501 1 0.49792 0.660307 0
633 1 0.0372824 0.703679 0
632 1 0.0127195 0.70048 0
663 1 0.0172261 0.723291 0
634 1 0.0412511 0.72922 0
606 1 0.0777132 0.69635 0
635 1 0.0593102 0.71246 0
665 1 0.0651888 0.737416 0
636 1 0.0835522 0.721655 0
637 1 0.10263 0.707156 0
638 1 0.125043 0.714788 0
667 1 0.10735 0.730939 0
669 1 0.131594 0.738462 0
639 1 0.143789 0.697929 0
641 1 0.167137 0.705228 0
640 1 0.148383 0.721765 0
671 1 0.172563 0.728094 0
642 1 0.189931 0.712427 0
673 1 0.196441 0.735405 0
644 1 0.213767 0.719187 0
645 1 0.232817 0.703744 0
675 1 0.239111 0.727923 0
646 1 0.257792 0.711951 0
677 1 0.262844 0.736291 0
649 1 0.299775 0.702939 0
648 1 0.281919 0.720463 0
679 1 0.306426 0.729333 0
650 1 0.322537 0.709932 0
651 1 0.347216 0.713795 0
652 1 0.354857 0.736251 0
653 1 0.364775 0.695765 0
624 1 0.388349 0.699873 0
655 1 0.404363 0.718236 0
654 1 0.373694 0.71929 0
656 1 0.429659 0.711425 0
687 1 0.445922 0.73077 0
686 1 0.421619 0.73489 0
658 1 0.453517 0.70631 0
659 1 0.477382 0.704386 0
660 1 0.493254 0.723954 0
689 1 0.469599 0.729564 0
662 1 0.0224924 0.746186 0
691 1 0.00226681 0.763151 0
693 1 0.0273438 0.771731 0
664 1 0.0464175 0.754622 0
666 1 0.0882972 0.745887 0
695 1 0.0715189 0.762326 0
694 1 0.052923 0.779195 0
697 1 0.0942121 0.769045 0
668 1 0.112988 0.75439 0
698 1 0.118617 0.77705 0
699 1 0.137458 0.761864 0
670 1 0.154965 0.744755 0
701 1 0.161034 0.769136 0
672 1 0.178775 0.751615 0
702 1 0.183181 0.776598 0
674 1 0.219682 0.742707 0
703 1 0.202083 0.759592 0
705 1 0.225942 0.76829 0
704 1 0.206892 0.783738 0
676 1 0.243591 0.751873 0
706 1 0.250154 0.777102 0
707 1 0.26688 0.760304 0
678 1 0.28571 0.744405 0
680 1 0.307281 0.753788 0
709 1 0.288342 0.768675 0
681 1 0.329408 0.73877 0
682 1 0.348274 0.760746 0
711 1 0.32609 0.769843 0
685 1 0.396792 0.740898 0
683 1 0.373745 0.751445 0
713 1 0.368442 0.776707 0
684 1 0.392172 0.767803 0
715 1 0.416015 0.758315 0
717 1 0.439178 0.753489 0
718 1 0.446566 0.776348 0
716 1 0.411359 0.781575 0
690 1 0.486817 0.760952 0
688 1 0.463693 0.75492 0
719 1 0.470263 0.780596 0
692 1 0.00716388 0.787081 0
722 1 0.0150989 0.811156 0
723 1 0.0343803 0.795495 0
724 1 0.0403169 0.819749 0
696 1 0.0755921 0.787285 0
725 1 0.0587318 0.80336 0
726 1 0.0823332 0.811321 0
727 1 0.100235 0.793403 0
728 1 0.124402 0.799909 0
757 1 0.105182 0.817361 0
700 1 0.141958 0.785533 0
729 1 0.148411 0.810345 0
730 1 0.170968 0.821066 0
731 1 0.164903 0.794055 0
732 1 0.187876 0.801315 0
733 1 0.211427 0.806509 0
735 1 0.232176 0.792445 0
736 1 0.233202 0.816234 0
737 1 0.254448 0.802242 0
710 1 0.305931 0.784059 0
708 1 0.279787 0.791608 0
738 1 0.276682 0.815658 0
739 1 0.301733 0.807385 0
712 1 0.344167 0.78522 0
740 1 0.321246 0.822039 0
741 1 0.324907 0.797994 0
742 1 0.34339 0.812379 0
744 1 0.363707 0.825387 0
714 1 0.387755 0.791663 0
743 1 0.36529 0.800673 0
745 1 0.388127 0.816392 0
746 1 0.410769 0.806963 0
747 1 0.43058 0.794523 0
748 1 0.433224 0.819042 0
749 1 0.454756 0.799297 0
1591 1 0.49417 0.785364 0
720 1 0.479011 0.804136 0
750 1 0.459874 0.823091 0
752 1 0.00450353 0.85174 0
753 1 0.0218281 0.834747 0
783 1 0.0278834 0.85872 0
754 1 0.0462781 0.842771 0
755 1 0.0634962 0.827712 0
785 1 0.0724502 0.851212 0
784 1 0.0519069 0.865937 0
756 1 0.0909977 0.836083 0
759 1 0.128961 0.824981 0
758 1 0.118813 0.849093 0
787 1 0.097043 0.861336 0
789 1 0.143482 0.860288 0
760 1 0.150531 0.833977 0
761 1 0.167842 0.850247 0
763 1 0.188686 0.839044 0
734 1 0.212096 0.829961 0
762 1 0.188432 0.863662 0
764 1 0.210145 0.852704 0
767 1 0.254256 0.828461 0
765 1 0.233113 0.841165 0
795 1 0.233267 0.865484 0
766 1 0.253989 0.853663 0
797 1 0.275203 0.866627 0
769 1 0.298667 0.832263 0
768 1 0.275678 0.84093 0
799 1 0.297065 0.856881 0
770 1 0.318559 0.846561 0
771 1 0.340077 0.836802 0
772 1 0.33951 0.8624 0
773 1 0.35985 0.850067 0
775 1 0.383199 0.840026 0
774 1 0.379223 0.863266 0
776 1 0.402259 0.854998 0
777 1 0.4114 0.832669 0
778 1 0.44058 0.842898 0
809 1 0.451292 0.866525 0
807 1 0.426708 0.864924 0
1621 1 0.486854 0.828568 0
1651 1 0.497429 0.851405 0
779 1 0.467688 0.846905 0
782 1 0.00900106 0.87653 0
813 1 0.0348185 0.880881 0
812 1 0.0203829 0.899732 0
814 1 0.0406104 0.914159 0
786 1 0.075989 0.875297 0
815 1 0.0576854 0.891125 0
816 1 0.0791721 0.901246 0
788 1 0.121898 0.872716 0
817 1 0.0993675 0.885 0
819 1 0.11991 0.89858 0
818 1 0.101001 0.913503 0
791 1 0.164875 0.873701 0
790 1 0.143103 0.886178 0
821 1 0.163607 0.899389 0
820 1 0.142417 0.911465 0
792 1 0.185384 0.887251 0
793 1 0.208855 0.876917 0
823 1 0.207697 0.901371 0
794 1 0.231273 0.88925 0
796 1 0.254159 0.877852 0
827 1 0.251933 0.901862 0
798 1 0.274502 0.891951 0
800 1 0.295963 0.881312 0
829 1 0.296109 0.906303 0
801 1 0.3182 0.872824 0
831 1 0.320312 0.896719 0
802 1 0.344793 0.891975 0
833 1 0.362617 0.91001 0
805 1 0.396874 0.878564 0
803 1 0.370099 0.886386 0
804 1 0.386575 0.903399 0
806 1 0.41221 0.897305 0
808 1 0.436656 0.887925 0
839 1 0.45094 0.909067 0
780 1 0.47971 0.869553 0
1681 1 0.489964 0.892676 0
810 1 0.463907 0.888565 0
840 1 0.474782 0.911651 0
842 1 0.0108723 0.947047 0
843 1 0.0150482 0.922893 0
844 1 0.0335407 0.940216 0
845 1 0.0567874 0.932013 0
846 1 0.0769471 0.949326 0
847 1 0.0799736 0.925287 0
848 1 0.100124 0.937833 0
849 1 0.122392 0.923215 0
879 1 0.120781 0.950739 0
850 1 0.142277 0.936837 0
851 1 0.162684 0.924428 0
852 1 0.16335 0.949544 0
822 1 0.184758 0.911419 0
824 1 0.206106 0.925409 0
853 1 0.184439 0.936124 0
854 1 0.207918 0.949162 0
828 1 0.272314 0.915503 0
825 1 0.229443 0.913897 0
855 1 0.229436 0.939068 0
826 1 0.250069 0.926553 0
856 1 0.249325 0.953267 0
857 1 0.268959 0.940083 0
858 1 0.286804 0.954591 0
859 1 0.292416 0.930361 0
860 1 0.309689 0.946104 0
830 1 0.315004 0.922121 0
832 1 0.338916 0.915945 0
861 1 0.333061 0.940613 0
863 1 0.356678 0.933355 0
835 1 0.403982 0.921912 0
834 1 0.379819 0.926644 0
864 1 0.374563 0.952349 0
865 1 0.39791 0.945597 0
837 1 0.427932 0.916175 0
838 1 0.444943 0.932802 0
836 1 0.421777 0.940461 0
870 1 0.463446 0.948914 0
869 1 0.481754 0.934795 0
1711 1 0.499305 0.915834 0
872 1 0.0234083 0.988331 0
873 1 0.0296941 0.964078 0
871 1 0.00619925 0.970853 0
1 1 -0.000759388 0.994441 0
875 1 0.0527258 0.95639 0
5 1 0.0651853 0.997712 0
874 1 0.0476163 0.98048 0
876 1 0.0719615 0.972135 0
7 1 0.0897684 0.988736 0
9 1 0.128117 1.00014 0
877 1 0.0980035 0.963175 0
878 1 0.120945 0.975972 0
880 1 0.146575 0.986676 0
881 1 0.143313 0.96242 0
882 1 0.165812 0.974208 0
15 1 0.210006 0.996806 0
13 1 0.186375 0.985562 0
883 1 0.186234 0.959853 0
884 1 0.206597 0.973313 0
885 1 0.22843 0.963861 0
17 1 0.267939 0.997947 0
887 1 0.250124 0.979389 0
888 1 0.275027 0.974921 0
19 1 0.29354 0.99385 0
889 1 0.302878 0.971155 0
23 1 0.36206 1.00087 0
862 1 0.350628 0.957958 0
891 1 0.327019 0.96527 0
890 1 0.318208 0.989137 0
892 1 0.343559 0.983031 0
893 1 0.36809 0.975823 0
895 1 0.392932 0.971077 0
894 1 0.386808 0.994554 0
896 1 0.412153 0.989375 0
867 1 0.440937 0.957845 0
897 1 0.436019 0.982081 0
866 1 0.416903 0.965633 0
899 1 0.47069 0.998734 0
868 1 0.462747 0.973536 0
1741 1 0.485971 0.957694 0
1771 1 0.490571 0.981536 0
931 1 0.525542 0.035459 0
901 1 0.517818 0.0124866 0
902 1 0.543386 0.0178238 0
933 1 0.548955 0.0423372 0
904 1 0.56831 0.0247341 0
906 1 0.586605 0.00699625 0
935 1 0.591014 0.0331906 0
908 1 0.609273 0.0135826 0
937 1 0.616078 0.0389791 0
939 1 0.634324 0.0216097 0
910 1 0.653336 0.00558769 0
941 1 0.658353 0.0303366 0
912 1 0.677056 0.0134241 0
942 1 0.681402 0.0373605 0
943 1 0.700652 0.0211953 0
914 1 0.718737 0.00632037 0
945 1 0.726588 0.0292348 0
916 1 0.756391 0.00866228 0
947 1 0.75289 0.0337588 0
918 1 0.776588 0.0232142 0
919 1 0.800107 0.0143152 0
949 1 0.79725 0.0371587 0
951 1 0.820288 0.0287837 0
920 1 0.824381 0.00450273 0
922 1 0.843538 0.0222327 0
953 1 0.862234 0.0410268 0
923 1 0.866845 0.0151999 0
924 1 0.889508 0.00613163 0
954 1 0.885076 0.0315523 0
955 1 0.908058 0.0233478 0
926 1 0.930178 0.0158285 0
928 1 0.952445 0.00861521 0
957 1 0.944904 0.0358959 0
930 1 0.993152 0.017541 0
959 1 0.969604 0.0275632 0
929 1 0.976157 0.00146793 0
932 1 0.528814 0.0601244 0
962 1 0.537014 0.0848776 0
961 1 0.51202 0.0794175 0
60 1 0.505049 0.0544947 0
963 1 0.555583 0.0679122 0
934 1 0.572065 0.049484 0
965 1 0.579571 0.075122 0
936 1 0.595242 0.0566408 0
966 1 0.602047 0.0806924 0
967 1 0.620755 0.0630966 0
938 1 0.639812 0.0465442 0
969 1 0.644009 0.071032 0
940 1 0.662622 0.0542985 0
970 1 0.667585 0.0791006 0
971 1 0.685975 0.0607128 0
944 1 0.705786 0.0457291 0
973 1 0.708087 0.0703919 0
975 1 0.730305 0.0527794 0
974 1 0.731783 0.076698 0
976 1 0.754276 0.0833681 0
946 1 0.753853 0.0589827 0
948 1 0.775112 0.0475711 0
977 1 0.774947 0.072707 0
979 1 0.795964 0.062779 0
978 1 0.795475 0.0884616 0
980 1 0.817853 0.0791433 0
950 1 0.817289 0.0543783 0
981 1 0.841237 0.0705131 0
952 1 0.839676 0.0461585 0
983 1 0.87064 0.0657705 0
985 1 0.892562 0.0544336 0
984 1 0.888999 0.0836968 0
956 1 0.917655 0.0458119 0
986 1 0.911903 0.070727 0
987 1 0.937679 0.060282 0
1017 1 0.935075 0.085669 0
960 1 0.98864 0.0433286 0
988 1 0.959203 0.0758252 0
958 1 0.963433 0.0519812 0
989 1 0.982555 0.0677449 0
991 1 0.519522 0.104034 0
992 1 0.525871 0.127157 0
993 1 0.543307 0.109801 0
120 1 0.501006 0.12105 0
964 1 0.562185 0.0920245 0
994 1 0.566581 0.115933 0
995 1 0.585038 0.098943 0
996 1 0.591109 0.122469 0
968 1 0.626172 0.0875085 0
997 1 0.608769 0.104737 0
998 1 0.631765 0.112895 0
1027 1 0.615143 0.130699 0
999 1 0.650161 0.0956235 0
1000 1 0.655212 0.119946 0
1001 1 0.673024 0.103353 0
1031 1 0.678835 0.127999 0
972 1 0.690379 0.0855315 0
1002 1 0.695932 0.110914 0
1003 1 0.713928 0.0938475 0
1004 1 0.719951 0.118064 0
1005 1 0.738591 0.101832 0
1006 1 0.766068 0.119965 0
1035 1 0.74344 0.124514 0
1007 1 0.773655 0.0969307 0
1008 1 0.790452 0.113262 0
1009 1 0.813361 0.104474 0
982 1 0.862613 0.0891579 0
1010 1 0.830449 0.120992 0
1011 1 0.837643 0.0968789 0
1012 1 0.85432 0.114309 0
1013 1 0.878975 0.10831 0
1014 1 0.89058 0.128934 0
1015 1 0.911933 0.0956573 0
1016 1 0.913012 0.120603 0
1047 1 0.935386 0.110428 0
1049 1 0.95436 0.125826 0
91 1 1.00017 0.106316 0
1018 1 0.956293 0.100781 0
1019 1 0.979524 0.0914724 0
1020 1 0.976317 0.116468 0
121 1 0.996422 0.131598 0
1022 1 0.531445 0.152105 0
1051 1 0.513695 0.169208 0
1021 1 0.508542 0.144387 0
1023 1 0.5504 0.133893 0
1024 1 0.555369 0.15817 0
1025 1 0.573483 0.140841 0
1055 1 0.578837 0.165488 0
1026 1 0.597205 0.146748 0
1028 1 0.6205 0.155326 0
1057 1 0.601493 0.172448 0
1029 1 0.637895 0.136658 0
1059 1 0.642879 0.160449 0
1030 1 0.661301 0.144113 0
1061 1 0.667252 0.167692 0
1032 1 0.684891 0.151366 0
1033 1 0.702336 0.134329 0
1063 1 0.708724 0.159115 0
1034 1 0.725883 0.141358 0
1036 1 0.75102 0.148604 0
1065 1 0.732802 0.165825 0
1066 1 0.755136 0.173009 0
1039 1 0.806621 0.12937 0
1067 1 0.774572 0.159822 0
1037 1 0.782943 0.137008 0
1038 1 0.797866 0.156026 0
1069 1 0.814503 0.17289 0
1040 1 0.821716 0.147998 0
1071 1 0.838177 0.164781 0
1041 1 0.844382 0.1408 0
1042 1 0.862052 0.157754 0
1043 1 0.868022 0.134611 0
1044 1 0.886543 0.153135 0
1075 1 0.90294 0.17035 0
1045 1 0.90887 0.145391 0
1046 1 0.932434 0.136728 0
1048 1 0.951612 0.154243 0
1077 1 0.926773 0.161082 0
1050 1 0.973508 0.142152 0
151 1 0.993878 0.155395 0
1053 1 0.538395 0.177208 0
1052 1 0.519831 0.192862 0
1081 1 0.501439 0.211014 0
1083 1 0.542945 0.202117 0
1054 1 0.562347 0.183288 0
1056 1 0.584712 0.189863 0
1085 1 0.567658 0.208432 0
1086 1 0.591469 0.213936 0
1058 1 0.625724 0.178783 0
1087 1 0.60897 0.195983 0
1089 1 0.633497 0.202115 0
1060 1 0.649496 0.18436 0
1091 1 0.672335 0.19286 0
1090 1 0.655352 0.210478 0
1092 1 0.679021 0.217107 0
1062 1 0.690291 0.175095 0
1093 1 0.696454 0.199606 0
1064 1 0.71457 0.182159 0
1094 1 0.719687 0.206888 0
1095 1 0.736867 0.190127 0
1097 1 0.762664 0.196328 0
1096 1 0.743363 0.215044 0
1068 1 0.789452 0.18 0
1098 1 0.784824 0.203778 0
1099 1 0.808537 0.196693 0
1100 1 0.826009 0.21423 0
1070 1 0.831269 0.189289 0
1072 1 0.8555 0.182417 0
1101 1 0.848576 0.206604 0
1073 1 0.878781 0.176498 0
1103 1 0.871579 0.201337 0
1074 1 0.895134 0.195587 0
1105 1 0.908899 0.215489 0
1078 1 0.944422 0.182198 0
1076 1 0.91941 0.189007 0
1107 1 0.933072 0.20863 0
1079 1 0.972115 0.175223 0
1080 1 0.996714 0.178385 0
1109 1 0.957398 0.203105 0
181 1 0.981372 0.198386 0
211 1 0.998155 0.216702 0
1082 1 0.524741 0.218531 0
1111 1 0.507785 0.234919 0
1113 1 0.531779 0.241795 0
1112 1 0.514225 0.25926 0
1084 1 0.548961 0.224884 0
1114 1 0.555505 0.249341 0
1115 1 0.573921 0.231393 0
1116 1 0.580054 0.255449 0
1088 1 0.615625 0.221747 0
1117 1 0.597828 0.238257 0
1118 1 0.621644 0.245817 0
1119 1 0.63834 0.228171 0
1121 1 0.662517 0.234323 0
1120 1 0.643447 0.252639 0
1151 1 0.666953 0.258991 0
1122 1 0.685176 0.241728 0
1123 1 0.702617 0.224154 0
1124 1 0.709344 0.248153 0
1125 1 0.726028 0.23163 0
1126 1 0.750832 0.238281 0
1155 1 0.73375 0.255022 0
1127 1 0.767384 0.220204 0
1129 1 0.792351 0.226974 0
1128 1 0.773986 0.244205 0
1159 1 0.798198 0.251036 0
1130 1 0.815958 0.235582 0
1131 1 0.840516 0.237089 0
1161 1 0.824431 0.258178 0
1102 1 0.863472 0.226168 0
1104 1 0.886517 0.221125 0
1133 1 0.878258 0.244773 0
1135 1 0.902003 0.239335 0
1108 1 0.950004 0.227753 0
1136 1 0.918553 0.256883 0
1106 1 0.925574 0.232847 0
1137 1 0.942492 0.251638 0
1110 1 0.974034 0.220902 0
1139 1 0.966454 0.246794 0
1140 1 0.990742 0.239586 0
1142 1 0.521382 0.282846 0
1143 1 0.537753 0.266379 0
1144 1 0.545176 0.289715 0