ITEM: TIMESTEP
184000
ITEM: NUMBER OF ATOMS
1800
ITEM: BOX BOUNDS pp pp pp
1.3809466204700414e+00 1.6361905337952999e+02
1.3809466204700414e+00 1.6361905337952999e+02
0.0000000000000000e+00 5.5000000000000000e+00
ITEM: ATOMS id type xs ys zs
2 1 0.012154 0.00394938 0
33 1 0.0301554 0.0213492 0
31 1 0.00678261 0.0285668 0
4 1 0.0532033 0.0129744 0
6 1 0.0769098 0.00516357 0
35 1 0.0712565 0.0304005 0
34 1 0.047809 0.038273 0
37 1 0.0967515 0.0207392 0
39 1 0.120062 0.0141256 0
38 1 0.115477 0.0402235 0
40 1 0.138049 0.0311256 0
10 1 0.143598 0.00637301 0
42 1 0.163266 0.0228278 0
73 1 0.181863 0.0394164 0
43 1 0.18671 0.0145583 0
14 1 0.209931 0.0063394 0
44 1 0.205597 0.0312075 0
45 1 0.228828 0.0225452 0
16 1 0.253244 0.0140066 0
75 1 0.247863 0.0386396 0
46 1 0.271732 0.0299975 0
18 1 0.276067 0.00530241 0
49 1 0.2945 0.0205931 0
20 1 0.311687 0.00267665 0
51 1 0.318078 0.0288696 0
22 1 0.343755 0.0338549 0
21 1 0.36072 0.0153223 0
890 1 0.3356 0.00997075 0
24 1 0.384825 0.0221108 0
53 1 0.368716 0.0397155 0
894 1 0.401361 0.00326459 0
25 1 0.410271 0.0285562 0
26 1 0.434703 0.0351629 0
27 1 0.426077 0.00861166 0
898 1 0.451724 0.0157266 0
28 1 0.458326 0.0403719 0
29 1 0.475893 0.0229385 0
900 1 0.49272 0.00544431 0
30 1 0.499084 0.0308148 0
32 1 0.0246237 0.0461222 0
62 1 0.019737 0.0711098 0
63 1 0.0432803 0.0628902 0
61 1 0.000945184 0.0542307 0
65 1 0.0676164 0.0552301 0
66 1 0.0867848 0.071833 0
64 1 0.0632114 0.0795459 0
36 1 0.0917702 0.0466724 0
67 1 0.110109 0.0652777 0
69 1 0.134387 0.0566377 0
68 1 0.130545 0.0814696 0
71 1 0.157871 0.0472588 0
72 1 0.176666 0.0638793 0
70 1 0.154261 0.0721838 0
74 1 0.224824 0.0471408 0
103 1 0.201301 0.0550024 0
105 1 0.220521 0.0716842 0
101 1 0.196995 0.0794449 0
77 1 0.267628 0.0544947 0
76 1 0.243683 0.0629237 0
137 1 0.261822 0.079223 0
47 1 0.298237 0.0455983 0
48 1 0.310549 0.0693755 0
78 1 0.286035 0.0706907 0
50 1 0.327455 0.0514369 0
81 1 0.333875 0.0748796 0
52 1 0.351724 0.0574604 0
82 1 0.358086 0.0817911 0
55 1 0.393077 0.0464878 0
83 1 0.375938 0.0645923 0
54 1 0.399978 0.0709484 0
57 1 0.44067 0.0595964 0
85 1 0.423288 0.077774 0
56 1 0.416898 0.0528003 0
87 1 0.448326 0.0846778 0
59 1 0.482179 0.0486471 0
58 1 0.46474 0.067144 0
89 1 0.488854 0.073101 0
93 1 0.039667 0.0876941 0
990 1 0.0148186 0.0948443 0
92 1 0.0338288 0.11136 0
91 1 0.00943745 0.119387 0
94 1 0.0580018 0.104722 0
95 1 0.0823254 0.0966873 0
125 1 0.0765401 0.121038 0
123 1 0.0530287 0.128799 0
96 1 0.100841 0.113053 0
97 1 0.106087 0.0890604 0
98 1 0.124941 0.10594 0
127 1 0.11984 0.130696 0
99 1 0.148893 0.0981725 0
100 1 0.172924 0.087928 0
130 1 0.166704 0.113863 0
129 1 0.143601 0.122936 0
131 1 0.191514 0.105114 0
102 1 0.214717 0.0969886 0
133 1 0.212337 0.122029 0
104 1 0.234218 0.111345 0
106 1 0.23867 0.0870676 0
135 1 0.258854 0.104346 0
165 1 0.251262 0.128069 0
107 1 0.281977 0.0958395 0
109 1 0.298871 0.112981 0
79 1 0.31523 0.0929946 0
108 1 0.275834 0.122028 0
80 1 0.340489 0.100038 0
110 1 0.323519 0.116743 0
141 1 0.347759 0.124251 0
111 1 0.36512 0.106127 0
113 1 0.382766 0.0888159 0
84 1 0.406266 0.0961387 0
112 1 0.389032 0.113098 0
115 1 0.412577 0.120755 0
86 1 0.430551 0.102035 0
116 1 0.436478 0.126517 0
117 1 0.454551 0.10979 0
88 1 0.472051 0.092038 0
90 1 0.496727 0.0973981 0
119 1 0.478934 0.116471 0
122 1 0.0286228 0.135811 0
152 1 0.0230741 0.159891 0
121 1 0.00474395 0.143682 0
153 1 0.0471445 0.153555 0
124 1 0.0714667 0.145568 0
155 1 0.0907036 0.16268 0
154 1 0.0658879 0.170172 0
126 1 0.0955552 0.137492 0
157 1 0.114786 0.155354 0
158 1 0.133225 0.171282 0
128 1 0.138622 0.147074 0
159 1 0.16225 0.139437 0
160 1 0.158084 0.163884 0
161 1 0.181687 0.154719 0
132 1 0.186166 0.129747 0
163 1 0.205424 0.14631 0
162 1 0.202813 0.172294 0
134 1 0.229773 0.1394 0
136 1 0.267037 0.146172 0
164 1 0.246595 0.160366 0
167 1 0.270703 0.170155 0
139 1 0.306189 0.136808 0
138 1 0.288834 0.153901 0
169 1 0.312357 0.160787 0
140 1 0.3293 0.14249 0
142 1 0.353457 0.149605 0
171 1 0.335779 0.166917 0
143 1 0.370944 0.131371 0
114 1 0.39478 0.139172 0
173 1 0.377633 0.15653 0
144 1 0.401379 0.163489 0
145 1 0.418665 0.145275 0
146 1 0.425741 0.169527 0
147 1 0.442958 0.151602 0
118 1 0.46089 0.134214 0
149 1 0.484798 0.139894 0
148 1 0.466987 0.158061 0
150 1 0.491098 0.164486 0
183 1 0.0413596 0.177764 0
182 1 0.0354048 0.201833 0
1080 1 0.017591 0.184545 0
211 1 0.0116111 0.208364 0
184 1 0.0600914 0.194342 0
185 1 0.0837588 0.186226 0
215 1 0.0781929 0.21028 0
213 1 0.0541973 0.218598 0
186 1 0.102856 0.203613 0
156 1 0.109762 0.17983 0
187 1 0.128224 0.195734 0
189 1 0.15234 0.187828 0
191 1 0.1781 0.180079 0
190 1 0.170601 0.20384 0
188 1 0.146742 0.212697 0
193 1 0.22892 0.178395 0
221 1 0.194283 0.213327 0
192 1 0.211467 0.195517 0
195 1 0.235057 0.202718 0
166 1 0.253077 0.186495 0
196 1 0.258069 0.21347 0
168 1 0.293949 0.177949 0
197 1 0.276873 0.195972 0
199 1 0.300488 0.202591 0
172 1 0.36038 0.174074 0
170 1 0.317957 0.184961 0
201 1 0.342155 0.191393 0
200 1 0.32384 0.209536 0
202 1 0.347796 0.216549 0
203 1 0.366264 0.198952 0
174 1 0.383944 0.18128 0
204 1 0.389809 0.205781 0
175 1 0.408149 0.187734 0
177 1 0.449788 0.176234 0
205 1 0.414523 0.212678 0
176 1 0.432175 0.194248 0
178 1 0.456265 0.20063 0
179 1 0.474279 0.182605 0
180 1 0.498258 0.18925 0
209 1 0.481078 0.207934 0
212 1 0.0305629 0.226202 0
241 1 0.0260621 0.250332 0
1140 1 0.00691627 0.232908 0
1169 1 0.00139457 0.257144 0
243 1 0.0497894 0.242611 0
214 1 0.0733964 0.234087 0
244 1 0.0702164 0.25875 0
245 1 0.0942123 0.260094 0
216 1 0.0968383 0.228165 0
217 1 0.120682 0.220209 0
247 1 0.114763 0.24639 0
218 1 0.138201 0.236041 0
219 1 0.159592 0.246593 0
220 1 0.175266 0.228912 0
222 1 0.182383 0.253779 0
194 1 0.218308 0.22135 0
223 1 0.200655 0.237803 0
224 1 0.223531 0.247146 0
225 1 0.241201 0.230911 0
227 1 0.264901 0.237613 0
226 1 0.247619 0.255129 0
198 1 0.282382 0.220135 0
228 1 0.28776 0.244958 0
229 1 0.306177 0.227492 0
230 1 0.311474 0.251925 0
231 1 0.330158 0.235321 0
232 1 0.353632 0.24105 0
261 1 0.335765 0.259336 0
233 1 0.37146 0.223798 0
234 1 0.376951 0.247605 0
235 1 0.395369 0.229965 0
265 1 0.400638 0.255472 0
207 1 0.438807 0.219436 0
206 1 0.419171 0.237574 0
237 1 0.442945 0.244697 0
208 1 0.462448 0.224751 0
210 1 0.487098 0.233118 0
239 1 0.468356 0.249633 0
240 1 0.492201 0.257119 0
242 1 0.045602 0.266619 0
271 1 0.036368 0.288346 0
1170 1 0.0177409 0.274618 0
1200 1 0.0145879 0.299649 0
273 1 0.058945 0.297019 0
275 1 0.0794107 0.280953 0
246 1 0.101894 0.290683 0
248 1 0.116229 0.271764 0
279 1 0.123651 0.301074 0
249 1 0.137774 0.259862 0
251 1 0.16211 0.27032 0
250 1 0.141568 0.284758 0
281 1 0.166435 0.294281 0
253 1 0.205104 0.263417 0
252 1 0.185376 0.278513 0
254 1 0.209466 0.288694 0
283 1 0.190251 0.30349 0
257 1 0.270856 0.262978 0
255 1 0.228829 0.271964 0
256 1 0.252261 0.280268 0
285 1 0.233392 0.296553 0
259 1 0.294531 0.270607 0
258 1 0.276078 0.287741 0
289 1 0.298837 0.294627 0
260 1 0.317897 0.277463 0
263 1 0.359706 0.265609 0
262 1 0.342317 0.283417 0
291 1 0.323327 0.301384 0
293 1 0.365125 0.290532 0
264 1 0.383114 0.273798 0
295 1 0.390138 0.297705 0
266 1 0.408092 0.279632 0
236 1 0.424522 0.261229 0
238 1 0.449552 0.268088 0
267 1 0.43234 0.286016 0
268 1 0.456347 0.29289 0
269 1 0.474489 0.275027 0
270 1 0.481573 0.299207 0
1141 1 0.498653 0.280433 0
301 1 0.0175415 0.324264 0
272 1 0.0381958 0.311398 0
303 1 0.0403498 0.335959 0
276 1 0.0818519 0.306217 0
274 1 0.0617407 0.320844 0
305 1 0.0844376 0.330543 0
304 1 0.0636499 0.345503 0
277 1 0.104724 0.316601 0
278 1 0.127926 0.324794 0
307 1 0.108329 0.340352 0
280 1 0.146996 0.309629 0
311 1 0.150943 0.334611 0
282 1 0.170591 0.318982 0
312 1 0.173889 0.343806 0
284 1 0.213726 0.313212 0
313 1 0.194176 0.328429 0
315 1 0.217882 0.338809 0
287 1 0.257343 0.305555 0
286 1 0.237364 0.321603 0
317 1 0.261518 0.330242 0
316 1 0.242171 0.346288 0
288 1 0.280295 0.312909 0
318 1 0.286585 0.338009 0
290 1 0.304821 0.320374 0
319 1 0.310492 0.34479 0
292 1 0.347285 0.308201 0
321 1 0.32898 0.325287 0
323 1 0.353603 0.331662 0
324 1 0.378276 0.339536 0
294 1 0.372249 0.315189 0
325 1 0.402693 0.346676 0
296 1 0.396848 0.322871 0
297 1 0.414341 0.304008 0
298 1 0.439022 0.310768 0
327 1 0.421125 0.328002 0
328 1 0.444818 0.334918 0
329 1 0.469033 0.340973 0
299 1 0.463903 0.317165 0
300 1 0.487718 0.323545 0
1201 1 0.493108 0.34782 0
302 1 0.0204571 0.349642 0
332 1 0.0235307 0.374313 0
361 1 0.00314023 0.389596 0
333 1 0.0440567 0.360943 0
331 1 0.000160068 0.364738 0
335 1 0.0665634 0.370663 0
334 1 0.0472379 0.385472 0
306 1 0.0864582 0.355178 0
337 1 0.0903321 0.38004 0
308 1 0.109509 0.364471 0
309 1 0.131335 0.34968 0
338 1 0.114279 0.388937 0
339 1 0.134316 0.374063 0
310 1 0.154431 0.359784 0
341 1 0.158051 0.383251 0
343 1 0.177829 0.369209 0
314 1 0.197863 0.353305 0
344 1 0.201982 0.378043 0
345 1 0.223284 0.362775 0
375 1 0.224832 0.387015 0
347 1 0.267636 0.354789 0
346 1 0.24763 0.370592 0
377 1 0.271597 0.380234 0
349 1 0.291018 0.362528 0
348 1 0.295557 0.386173 0
350 1 0.316358 0.36822 0
320 1 0.335039 0.34926 0
351 1 0.342843 0.372612 0
322 1 0.360246 0.356161 0
381 1 0.327325 0.390997 0
353 1 0.367876 0.381695 0
355 1 0.385111 0.363482 0
354 1 0.392523 0.387327 0
356 1 0.410094 0.370171 0
326 1 0.427579 0.353322 0
357 1 0.433783 0.376879 0
359 1 0.451581 0.358455 0
358 1 0.45889 0.383185 0
330 1 0.476313 0.365905 0
360 1 0.483058 0.390911 0
363 1 0.026621 0.399 0
362 1 0.00696628 0.414413 0
364 1 0.0301861 0.424694 0
336 1 0.0708469 0.394635 0
365 1 0.0498662 0.409468 0
366 1 0.0736988 0.419201 0
395 1 0.0533652 0.43506 0
367 1 0.0938067 0.404412 0
369 1 0.11696 0.413328 0
368 1 0.0975471 0.429371 0
340 1 0.137021 0.398466 0
370 1 0.139653 0.423415 0
371 1 0.160133 0.40837 0
401 1 0.163165 0.433253 0
342 1 0.181004 0.393454 0
372 1 0.18338 0.418137 0
373 1 0.203817 0.402213 0
403 1 0.207008 0.427023 0
374 1 0.227907 0.412012 0
376 1 0.248177 0.396201 0
405 1 0.250111 0.422743 0
378 1 0.270692 0.407048 0
379 1 0.309566 0.406688 0
409 1 0.290105 0.422082 0
410 1 0.314592 0.43082 0
352 1 0.351111 0.398655 0
382 1 0.357034 0.42333 0
380 1 0.33381 0.415825 0
383 1 0.375053 0.405401 0
385 1 0.39865 0.411783 0
384 1 0.380767 0.43058 0
387 1 0.416012 0.394622 0
386 1 0.422667 0.419293 0
388 1 0.440843 0.401147 0
419 1 0.447388 0.425857 0
389 1 0.465941 0.408512 0
1261 1 0.489775 0.415327 0
390 1 0.47037 0.432295 0
393 1 0.00905936 0.438599 0
423 1 0.0121406 0.464175 0
394 1 0.0323043 0.449588 0
425 1 0.0358605 0.473973 0
396 1 0.0550972 0.459652 0
397 1 0.0770276 0.443091 0
427 1 0.0785342 0.468177 0
399 1 0.12083 0.438474 0
398 1 0.0991702 0.453209 0
429 1 0.12231 0.463923 0
400 1 0.143313 0.449272 0
431 1 0.165924 0.458044 0
430 1 0.146024 0.473739 0
402 1 0.187292 0.44292 0
433 1 0.209861 0.452583 0
432 1 0.190544 0.468179 0
404 1 0.230054 0.43836 0
406 1 0.252059 0.450751 0
435 1 0.23195 0.46463 0
436 1 0.255147 0.475794 0
407 1 0.271942 0.437467 0
437 1 0.275883 0.461814 0
408 1 0.294977 0.446546 0
439 1 0.29994 0.471117 0
441 1 0.319409 0.455976 0
411 1 0.338115 0.440896 0
412 1 0.343221 0.466278 0
413 1 0.362486 0.44841 0
415 1 0.40555 0.437243 0
414 1 0.387633 0.454995 0
443 1 0.367561 0.472599 0
416 1 0.411423 0.46219 0
417 1 0.429613 0.444106 0
447 1 0.435415 0.46927 0
418 1 0.453551 0.451505 0
1291 1 0.494914 0.439627 0
420 1 0.47761 0.457112 0
449 1 0.459618 0.476143 0
454 1 0.0182692 0.513663 0
424 1 0.0158599 0.488757 0
455 1 0.0392402 0.499342 0
426 1 0.0594398 0.48373 0
456 1 0.0613204 0.50927 0
457 1 0.082084 0.494633 0
487 1 0.0857783 0.518492 0
428 1 0.102586 0.478613 0
459 1 0.125965 0.487931 0
458 1 0.106171 0.503208 0
489 1 0.129649 0.51442 0
461 1 0.168987 0.484532 0
460 1 0.148485 0.498808 0
462 1 0.171863 0.508987 0
434 1 0.212811 0.479883 0
463 1 0.192152 0.494244 0
464 1 0.214936 0.504998 0
493 1 0.194464 0.520241 0
465 1 0.234659 0.491033 0
467 1 0.257873 0.500309 0
466 1 0.237502 0.515768 0
438 1 0.279327 0.485726 0
469 1 0.303599 0.496342 0
468 1 0.281457 0.509993 0
470 1 0.306031 0.521531 0
440 1 0.323867 0.482406 0
442 1 0.348619 0.491258 0
471 1 0.329725 0.507928 0
473 1 0.355963 0.514176 0
445 1 0.392442 0.478704 0
444 1 0.375366 0.497068 0
475 1 0.400133 0.503858 0
474 1 0.381653 0.520282 0
446 1 0.417552 0.486537 0
477 1 0.424198 0.511541 0
448 1 0.441726 0.493401 0
478 1 0.449817 0.516797 0
450 1 0.483643 0.481863 0
479 1 0.466913 0.500008 0
1381 1 0.490913 0.505615 0
483 1 0.0214957 0.538666 0
482 1 0.000751993 0.553495 0
485 1 0.0418488 0.524704 0
513 1 0.0241351 0.563001 0
484 1 0.0450872 0.548967 0
486 1 0.0656764 0.534028 0
515 1 0.0676663 0.558501 0
517 1 0.0893739 0.543163 0
488 1 0.1089 0.527901 0
519 1 0.111808 0.55377 0
490 1 0.132588 0.538967 0
520 1 0.133778 0.564735 0
491 1 0.153321 0.524173 0
521 1 0.155275 0.549508 0
492 1 0.175131 0.535496 0
523 1 0.177252 0.56145 0
494 1 0.198113 0.545526 0
495 1 0.217307 0.530303 0
525 1 0.220765 0.555486 0
496 1 0.239987 0.539934 0
497 1 0.260373 0.524454 0
527 1 0.262842 0.549898 0
499 1 0.303915 0.545482 0
498 1 0.282089 0.534591 0
529 1 0.284944 0.560308 0
472 1 0.338735 0.533188 0
501 1 0.325742 0.553985 0
502 1 0.34933 0.559174 0
503 1 0.363724 0.539563 0
505 1 0.387592 0.545235 0
476 1 0.407009 0.528167 0
504 1 0.37184 0.565429 0
506 1 0.413559 0.552811 0
507 1 0.431602 0.535502 0
508 1 0.437463 0.559626 0
480 1 0.474193 0.524281 0
509 1 0.455257 0.541268 0
510 1 0.480287 0.548092 0
1382 1 0.498556 0.530199 0
512 1 0.0276213 0.587687 0
511 1 0.00386822 0.578148 0
541 1 0.00786295 0.603 0
514 1 0.0473708 0.573404 0
545 1 0.070099 0.583452 0
543 1 0.0505691 0.599046 0
516 1 0.0913059 0.568131 0
518 1 0.113305 0.579224 0
547 1 0.0915955 0.594645 0
548 1 0.115739 0.603487 0
549 1 0.136294 0.589137 0
522 1 0.156355 0.575075 0
551 1 0.159078 0.600894 0
553 1 0.179822 0.586202 0
524 1 0.200262 0.571806 0
554 1 0.205311 0.596102 0
555 1 0.225069 0.581653 0
556 1 0.228294 0.606197 0
526 1 0.243944 0.565555 0
557 1 0.248131 0.591026 0
528 1 0.266587 0.575862 0
558 1 0.27121 0.601563 0
500 1 0.307435 0.570094 0
559 1 0.28919 0.585138 0
530 1 0.313371 0.593841 0
531 1 0.331737 0.577695 0
532 1 0.337267 0.602103 0
533 1 0.355273 0.583552 0
563 1 0.360226 0.608279 0
534 1 0.379037 0.590552 0
535 1 0.39602 0.571463 0
536 1 0.402706 0.596898 0
537 1 0.420133 0.577326 0
567 1 0.426647 0.601372 0
538 1 0.444577 0.583677 0
539 1 0.461899 0.565843 0
540 1 0.486881 0.571538 0
569 1 0.469332 0.589813 0
1441 1 0.493157 0.596236 0
542 1 0.0303835 0.613188 0
571 1 0.0100833 0.628522 0
573 1 0.0330842 0.638803 0
546 1 0.0722352 0.609337 0
544 1 0.0538174 0.625256 0
575 1 0.0763403 0.63474 0
574 1 0.0563696 0.649735 0
577 1 0.0961264 0.619442 0
579 1 0.118743 0.62971 0
576 1 0.0994843 0.644335 0
550 1 0.13803 0.615608 0
581 1 0.162501 0.625579 0
580 1 0.141733 0.639688 0
611 1 0.166668 0.650203 0
552 1 0.183663 0.610357 0
582 1 0.186564 0.634867 0
583 1 0.20743 0.620556 0
584 1 0.209676 0.646187 0
585 1 0.230921 0.631725 0
586 1 0.254265 0.64254 0
587 1 0.25156 0.616096 0
560 1 0.294325 0.610758 0
589 1 0.275308 0.627531 0
590 1 0.298503 0.635252 0
588 1 0.279416 0.652309 0
561 1 0.318351 0.618485 0
562 1 0.34344 0.626117 0
591 1 0.323924 0.641982 0
593 1 0.348173 0.65072 0
565 1 0.384405 0.614794 0
564 1 0.366993 0.631779 0
595 1 0.391666 0.639002 0
566 1 0.409501 0.621006 0
568 1 0.451959 0.607437 0
596 1 0.416504 0.644584 0
597 1 0.434231 0.62598 0
599 1 0.440932 0.650762 0
570 1 0.475865 0.614657 0
600 1 0.457907 0.632282 0
1471 1 0.481591 0.638502 0
1442 1 0.499934 0.619969 0
572 1 0.0127327 0.653807 0
602 1 0.0164891 0.679086 0
603 1 0.0362835 0.664661 0
633 1 0.0396197 0.689958 0
605 1 0.0800721 0.659958 0
604 1 0.0598803 0.674156 0
606 1 0.0829341 0.68502 0
578 1 0.122841 0.655063 0
607 1 0.103077 0.669435 0
608 1 0.126667 0.679662 0
637 1 0.106028 0.694831 0
609 1 0.146364 0.665034 0
610 1 0.169862 0.676247 0
639 1 0.149122 0.690556 0
612 1 0.192071 0.685507 0
613 1 0.189421 0.659327 0
614 1 0.212179 0.671405 0
643 1 0.213646 0.695668 0
615 1 0.232848 0.65653 0
616 1 0.236337 0.680826 0
617 1 0.258941 0.666771 0
647 1 0.263562 0.690383 0
619 1 0.303749 0.659834 0
618 1 0.284986 0.677493 0
620 1 0.311949 0.684813 0
621 1 0.329633 0.667448 0
592 1 0.354517 0.673411 0
622 1 0.336707 0.690945 0
594 1 0.373405 0.655276 0
625 1 0.39987 0.662071 0
623 1 0.380925 0.678749 0
626 1 0.405216 0.686607 0
598 1 0.44801 0.675903 0
627 1 0.423477 0.669632 0
657 1 0.430014 0.694447 0
628 1 0.471489 0.682719 0
629 1 0.464201 0.657421 0
1501 1 0.488126 0.663977 0
630 1 0.495511 0.689211 0
632 1 0.0189539 0.7045 0
663 1 0.0219766 0.729636 0
634 1 0.0414767 0.714256 0
635 1 0.0626908 0.699343 0
636 1 0.0852535 0.709308 0
665 1 0.0640031 0.724576 0
666 1 0.0868067 0.735162 0
638 1 0.128256 0.70569 0
667 1 0.108321 0.722074 0
669 1 0.131694 0.730448 0
641 1 0.172291 0.701205 0
640 1 0.151488 0.715214 0
671 1 0.17306 0.72685 0
642 1 0.193906 0.711554 0
644 1 0.216612 0.721241 0
673 1 0.196425 0.737623 0
645 1 0.235803 0.705224 0
675 1 0.238477 0.731817 0
646 1 0.256975 0.715159 0
649 1 0.292463 0.701718 0
648 1 0.279572 0.72347 0
679 1 0.302803 0.727596 0
650 1 0.319152 0.709239 0
651 1 0.342992 0.714809 0
681 1 0.326696 0.734041 0
653 1 0.36057 0.697273 0
624 1 0.385646 0.703739 0
654 1 0.367542 0.720933 0
685 1 0.391923 0.728509 0
655 1 0.410579 0.711642 0
656 1 0.435829 0.718047 0
686 1 0.417199 0.734571 0
658 1 0.454094 0.700991 0
687 1 0.460949 0.725375 0
659 1 0.47832 0.707706 0
689 1 0.484842 0.732146 0
662 1 0.0244706 0.754757 0
691 1 0.00507746 0.769521 0
664 1 0.0443539 0.740425 0
693 1 0.0263055 0.781584 0
661 1 0.00176236 0.743089 0
694 1 0.0467932 0.766765 0
695 1 0.0669032 0.751251 0
696 1 0.0689391 0.776276 0
697 1 0.0895272 0.761057 0
668 1 0.109843 0.746581 0
698 1 0.111368 0.772378 0
699 1 0.132879 0.755167 0
700 1 0.135733 0.778723 0
670 1 0.153765 0.741683 0
701 1 0.156517 0.766017 0
672 1 0.176114 0.752481 0
702 1 0.180666 0.777826 0
674 1 0.219105 0.746734 0
703 1 0.199634 0.762017 0
705 1 0.223837 0.771585 0
677 1 0.261964 0.740709 0
676 1 0.242493 0.756099 0
707 1 0.267498 0.765342 0
735 1 0.248129 0.780584 0
678 1 0.285543 0.747515 0
709 1 0.290965 0.772023 0
680 1 0.309568 0.751947 0
710 1 0.31593 0.777145 0
652 1 0.350049 0.739264 0
682 1 0.357922 0.764684 0
711 1 0.332821 0.757973 0
741 1 0.341365 0.782946 0
683 1 0.373905 0.746121 0
713 1 0.382354 0.770064 0
684 1 0.399925 0.752616 0
716 1 0.406808 0.776915 0
717 1 0.443005 0.742305 0
715 1 0.424434 0.759076 0
718 1 0.450001 0.766005 0
1591 1 0.497326 0.779537 0
690 1 0.491111 0.755966 0
688 1 0.467979 0.748613 0
719 1 0.473401 0.773363 0
692 1 0.0056913 0.796437 0
722 1 0.00622104 0.821875 0
723 1 0.0293884 0.813181 0
725 1 0.0488186 0.791893 0
726 1 0.0711972 0.800832 0
755 1 0.0700548 0.824359 0
727 1 0.0918692 0.788047 0
728 1 0.114783 0.796623 0
757 1 0.0932929 0.813328 0
729 1 0.137445 0.802679 0
730 1 0.159367 0.816761 0
731 1 0.159354 0.792057 0
732 1 0.181684 0.804805 0
704 1 0.202963 0.790416 0
734 1 0.222795 0.818447 0
763 1 0.199148 0.825025 0
733 1 0.229295 0.795024 0
736 1 0.252859 0.807922 0
706 1 0.272846 0.790147 0
737 1 0.281703 0.81292 0
708 1 0.299818 0.795048 0
738 1 0.306557 0.81845 0
739 1 0.324454 0.80112 0
742 1 0.348449 0.806807 0
740 1 0.331081 0.825634 0
712 1 0.36579 0.788576 0
714 1 0.389748 0.795684 0
743 1 0.372912 0.813666 0
745 1 0.39679 0.819774 0
747 1 0.432199 0.781837 0
746 1 0.415538 0.801016 0
748 1 0.439197 0.808576 0
749 1 0.456223 0.791055 0
720 1 0.480701 0.797149 0
750 1 0.462764 0.815488 0
1621 1 0.486982 0.821071 0
753 1 0.0239842 0.840138 0
783 1 0.0184843 0.864431 0
754 1 0.0419263 0.856729 0
752 1 -0.000369064 0.848074 0
724 1 0.0467462 0.83165 0
785 1 0.0646535 0.848653 0
786 1 0.0836148 0.865952 0
756 1 0.0877041 0.840509 0
759 1 0.135362 0.827003 0
758 1 0.111738 0.832018 0
787 1 0.106772 0.857862 0
789 1 0.129782 0.850458 0
760 1 0.154318 0.842445 0
791 1 0.172595 0.859263 0
761 1 0.177164 0.833445 0
790 1 0.148363 0.866915 0
762 1 0.19578 0.850625 0
764 1 0.218718 0.842576 0
793 1 0.214605 0.867066 0
765 1 0.242199 0.832578 0
795 1 0.237472 0.857705 0
766 1 0.271507 0.855207 0
767 1 0.266196 0.830644 0
769 1 0.314333 0.843466 0
768 1 0.290269 0.837054 0
799 1 0.296935 0.861369 0
770 1 0.338869 0.849655 0
771 1 0.355903 0.831792 0
801 1 0.322311 0.867652 0
773 1 0.363119 0.856548 0
744 1 0.379427 0.838125 0
774 1 0.387128 0.86246 0
775 1 0.403022 0.845029 0
777 1 0.421429 0.826665 0
807 1 0.427038 0.851745 0
778 1 0.445568 0.833246 0
809 1 0.452493 0.856996 0
776 1 0.411022 0.869601 0
779 1 0.470426 0.838538 0
780 1 0.476633 0.865263 0
1651 1 0.494099 0.845965 0
812 1 0.0122717 0.888914 0
814 1 0.0314528 0.905578 0
813 1 0.0366083 0.882221 0
784 1 0.0599095 0.87317 0
815 1 0.0550837 0.898482 0
816 1 0.0788696 0.890735 0
788 1 0.125531 0.874664 0
817 1 0.102067 0.882145 0
819 1 0.120044 0.898749 0
818 1 0.0970003 0.907959 0
821 1 0.167772 0.883358 0
820 1 0.143843 0.890625 0
851 1 0.162837 0.907188 0
792 1 0.191574 0.874824 0
823 1 0.210299 0.89176 0
822 1 0.186797 0.89937 0
794 1 0.233393 0.882786 0
796 1 0.256136 0.874608 0
827 1 0.252756 0.900193 0
825 1 0.228565 0.908315 0
797 1 0.280359 0.880763 0
798 1 0.288115 0.903643 0
800 1 0.304758 0.884886 0
829 1 0.311115 0.910957 0
831 1 0.328519 0.892185 0
772 1 0.346047 0.874131 0
802 1 0.352352 0.897616 0
803 1 0.370076 0.880489 0
804 1 0.375887 0.905832 0
805 1 0.393806 0.887434 0
835 1 0.39972 0.911656 0
806 1 0.417217 0.893531 0
808 1 0.436183 0.876822 0
839 1 0.441177 0.901145 0
1681 1 0.482614 0.889814 0
810 1 0.459289 0.882646 0
840 1 0.465124 0.907669 0
843 1 0.008204 0.913206 0
844 1 0.0262647 0.93025 0
842 1 0.00256177 0.938384 0
873 1 0.0210331 0.954266 0
875 1 0.0450963 0.947166 0
845 1 0.0496555 0.922964 0
846 1 0.068616 0.939832 0
847 1 0.0735095 0.915881 0
848 1 0.0920741 0.931801 0
849 1 0.115449 0.923872 0
879 1 0.110207 0.948366 0
881 1 0.134121 0.940638 0
850 1 0.13916 0.915056 0
852 1 0.157856 0.931693 0
883 1 0.176886 0.948759 0
853 1 0.180671 0.923941 0
824 1 0.205119 0.916259 0
854 1 0.200234 0.941306 0
855 1 0.223666 0.932172 0
826 1 0.246602 0.92428 0
857 1 0.267968 0.942259 0
856 1 0.243608 0.948268 0
828 1 0.270099 0.918377 0
859 1 0.291437 0.929801 0
830 1 0.316876 0.934216 0
858 1 0.289819 0.957351 0
833 1 0.357929 0.923831 0
832 1 0.334944 0.91666 0
861 1 0.340232 0.94237 0
863 1 0.364226 0.94815 0
834 1 0.382115 0.930504 0
865 1 0.406297 0.936434 0
864 1 0.388934 0.954273 0
837 1 0.423843 0.918007 0
836 1 0.43029 0.942586 0
838 1 0.447559 0.92585 0
870 1 0.455553 0.949185 0
1711 1 0.490323 0.914545 0
869 1 0.472243 0.930939 0
1712 1 0.496521 0.938077 0
1741 1 0.479236 0.95656 0
3 1 0.0345875 0.99583 0
872 1 0.0165272 0.978977 0
874 1 0.0395134 0.970647 0
877 1 0.0873561 0.955937 0
5 1 0.0581653 0.98806 0
876 1 0.0633977 0.963936 0
7 1 0.0824485 0.979864 0
8 1 0.101527 0.997419 0
9 1 0.12496 0.98952 0
878 1 0.106049 0.973335 0
880 1 0.129496 0.964954 0
41 1 0.166951 0.998395 0
11 1 0.148697 0.981378 0
882 1 0.153357 0.9559 0
13 1 0.171826 0.973481 0
12 1 0.189737 0.989702 0
15 1 0.214193 0.981996 0
884 1 0.196679 0.965767 0
885 1 0.220063 0.95661 0
886 1 0.233573 0.998846 0
17 1 0.256903 0.989679 0
887 1 0.237475 0.973816 0
888 1 0.261501 0.965954 0
19 1 0.280181 0.981116 0
889 1 0.304644 0.977938 0
860 1 0.321197 0.958839 0
862 1 0.345616 0.967006 0
891 1 0.328834 0.984718 0
892 1 0.353108 0.990496 0
23 1 0.377469 0.997471 0
893 1 0.369476 0.972024 0
895 1 0.394345 0.978394 0
867 1 0.436582 0.967997 0
866 1 0.412972 0.960911 0
897 1 0.444218 0.992302 0
896 1 0.418867 0.985252 0
899 1 0.468366 0.998468 0
1771 1 0.485017 0.981034 0
868 1 0.461668 0.97378 0
931 1 0.523973 0.0374443 0
901 1 0.517045 0.0135431 0
902 1 0.541278 0.0193461 0
904 1 0.565113 0.0260259 0
906 1 0.581717 0.00814991 0
935 1 0.590014 0.0328711 0
905 1 0.557856 0.00172056 0
908 1 0.606387 0.0151123 0
939 1 0.630687 0.021881 0
937 1 0.613635 0.0396484 0
941 1 0.655049 0.0273552 0
912 1 0.671553 0.00912852 0
942 1 0.679146 0.0348901 0
910 1 0.647033 0.0044193 0
943 1 0.69589 0.0152112 0
945 1 0.719916 0.0216359 0
944 1 0.70359 0.0400324 0
914 1 0.743251 0.0248157 0
916 1 0.766029 0.017018 0
947 1 0.759906 0.0416148 0
918 1 0.784834 0.0338277 0
919 1 0.808303 0.0257564 0
917 1 0.789909 0.00916339 0
1788 1 0.81415 0.0019253 0
920 1 0.832591 0.017928 0
922 1 0.851257 0.0347765 0
921 1 0.855412 0.0100815 0
951 1 0.827491 0.0420331 0
923 1 0.875533 0.0272692 0
924 1 0.899089 0.0206574 0
1792 1 0.880126 0.00315662 0
955 1 0.917154 0.0370476 0
925 1 0.921869 0.0131591 0
926 1 0.941165 0.0292024 0
928 1 0.946186 0.00485587 0
930 1 0.988245 0.0125612 0
959 1 0.965262 0.0211416 0
960 1 0.983005 0.0379357 0
932 1 0.53098 0.0622402 0
961 1 0.513444 0.0797727 0
60 1 0.504807 0.0558957 0
962 1 0.537328 0.0867325 0
933 1 0.548199 0.0441005 0
963 1 0.554521 0.0678305 0
934 1 0.572741 0.050688 0
965 1 0.579189 0.0752757 0
936 1 0.596361 0.0579815 0
967 1 0.620245 0.0633796 0
966 1 0.603891 0.0820635 0
938 1 0.637774 0.0455637 0
969 1 0.644323 0.0700245 0
940 1 0.66161 0.0524099 0
970 1 0.66942 0.0772322 0
971 1 0.68629 0.0592007 0
973 1 0.710135 0.0644973 0
972 1 0.69402 0.0832769 0
975 1 0.727854 0.046135 0
974 1 0.732823 0.0713456 0
946 1 0.755855 0.0663635 0
977 1 0.774119 0.0823512 0
949 1 0.804323 0.0504324 0
948 1 0.779147 0.0578298 0
979 1 0.797399 0.07446 0
950 1 0.822472 0.066508 0
952 1 0.845729 0.0592134 0
980 1 0.840302 0.0834632 0
954 1 0.89328 0.0447998 0
981 1 0.864224 0.076683 0
953 1 0.869896 0.0519744 0
983 1 0.888217 0.0689769 0
984 1 0.905964 0.0861109 0
985 1 0.911739 0.0620634 0
956 1 0.935297 0.0543075 0
986 1 0.929986 0.0780953 0
987 1 0.954172 0.0701695 0
957 1 0.95913 0.0453811 0
958 1 0.977641 0.0619608 0
989 1 0.99588 0.0789439 0
991 1 0.520907 0.10517 0
993 1 0.545412 0.111365 0
992 1 0.527362 0.130169 0
120 1 0.503418 0.123635 0
964 1 0.562194 0.0923789 0
994 1 0.570568 0.117366 0
995 1 0.586738 0.0995297 0
996 1 0.593337 0.124499 0
968 1 0.628207 0.0882194 0
997 1 0.610587 0.105634 0
998 1 0.633546 0.113508 0
1027 1 0.616645 0.131744 0
999 1 0.652747 0.0955102 0
1000 1 0.658462 0.119 0
1001 1 0.676648 0.102243 0
1031 1 0.683201 0.12639 0
1002 1 0.700569 0.108898 0
1003 1 0.717642 0.0905103 0
1004 1 0.724365 0.114292 0
976 1 0.767901 0.106486 0
1005 1 0.744337 0.0935675 0
1035 1 0.747524 0.119304 0
978 1 0.816331 0.0913602 0
1007 1 0.792224 0.0988542 0
1006 1 0.785813 0.124866 0
1008 1 0.810668 0.11572 0
1009 1 0.834284 0.108539 0
1010 1 0.85274 0.126009 0
1011 1 0.858357 0.101221 0
982 1 0.882186 0.0940965 0
1012 1 0.876384 0.118579 0
1013 1 0.900267 0.11126 0
1016 1 0.918395 0.127623 0
1017 1 0.947897 0.0947186 0
1015 1 0.923883 0.102554 0
1047 1 0.941985 0.119462 0
988 1 0.971944 0.0870963 0
1018 1 0.966447 0.111772 0
1019 1 0.99106 0.103602 0
1020 1 0.984828 0.12859 0
1022 1 0.533615 0.154017 0
1021 1 0.509545 0.148186 0
1051 1 0.516566 0.172481 0
1023 1 0.551895 0.136113 0
1024 1 0.558095 0.159927 0
1025 1 0.575109 0.142183 0
1055 1 0.58209 0.166416 0
1026 1 0.599537 0.148556 0
1028 1 0.62393 0.15556 0
1057 1 0.605825 0.173928 0
1029 1 0.642005 0.137173 0
1059 1 0.648214 0.161574 0
1030 1 0.665732 0.144168 0
1061 1 0.671629 0.168789 0
1033 1 0.707422 0.132727 0
1032 1 0.690055 0.15092 0
1063 1 0.713845 0.157004 0
1034 1 0.731286 0.138503 0
1036 1 0.755892 0.14243 0
1065 1 0.737972 0.161809 0
1066 1 0.761635 0.168218 0
1067 1 0.779777 0.151127 0
1037 1 0.80501 0.140232 0
1038 1 0.80269 0.163753 0
1039 1 0.828011 0.13218 0
1040 1 0.825803 0.156553 0
1041 1 0.848593 0.149794 0
1042 1 0.866879 0.167249 0
1014 1 0.894387 0.135641 0
1043 1 0.871807 0.142872 0
1044 1 0.890053 0.160581 0
1045 1 0.913962 0.152322 0
1046 1 0.937599 0.144068 0
1077 1 0.932388 0.168836 0
1048 1 0.956202 0.160636 0
1049 1 0.961439 0.135834 0
1050 1 0.979827 0.15277 0
151 1 0.998875 0.168655 0
1053 1 0.539831 0.177843 0
1052 1 0.522124 0.196901 0
1081 1 0.503893 0.214511 0
1083 1 0.547265 0.20208 0
1054 1 0.564586 0.183938 0
1056 1 0.587831 0.190645 0
1085 1 0.570966 0.208969 0
1058 1 0.630092 0.180765 0
1087 1 0.612206 0.197815 0
1086 1 0.594512 0.215273 0
1089 1 0.637054 0.204244 0
1060 1 0.654679 0.187575 0
1091 1 0.678657 0.19289 0
1090 1 0.661346 0.211317 0
1062 1 0.695935 0.175276 0
1093 1 0.703141 0.198966 0
1064 1 0.721676 0.18064 0
1094 1 0.727713 0.20439 0
1092 1 0.684774 0.217618 0
1095 1 0.745534 0.186688 0
1097 1 0.768585 0.195817 0
1096 1 0.751766 0.213361 0
1068 1 0.78488 0.178693 0
1098 1 0.792823 0.202103 0
1099 1 0.815555 0.208984 0
1069 1 0.817272 0.183504 0
1071 1 0.843374 0.174218 0
1070 1 0.837306 0.197598 0
1072 1 0.861291 0.191185 0
1101 1 0.855788 0.215302 0
1073 1 0.885751 0.185169 0
1103 1 0.879332 0.208838 0
1074 1 0.903337 0.201103 0
1075 1 0.909509 0.17641 0
1078 1 0.950314 0.185547 0
1076 1 0.926833 0.193774 0
1107 1 0.945419 0.209224 0
1079 1 0.973681 0.177361 0
1109 1 0.970065 0.200931 0
181 1 0.993084 0.192515 0
1110 1 0.988543 0.217449 0
1082 1 0.528281 0.220779 0
1111 1 0.510817 0.238381 0
1113 1 0.535054 0.245094 0
1084 1 0.551939 0.226853 0
1114 1 0.559432 0.250953 0
1115 1 0.576703 0.233243 0
1116 1 0.583036 0.257807 0
1088 1 0.618527 0.221793 0
1117 1 0.601995 0.240884 0
1118 1 0.62543 0.24751 0
1119 1 0.642143 0.229779 0
1121 1 0.666772 0.235976 0
1120 1 0.649718 0.253834 0
1151 1 0.673288 0.259674 0
1122 1 0.691489 0.240863 0
1123 1 0.710189 0.222399 0
1124 1 0.716126 0.248875 0
1125 1 0.733687 0.231154 0
1126 1 0.757878 0.237758 0
1155 1 0.740201 0.25571 0
1127 1 0.775077 0.219952 0
1129 1 0.800007 0.226709 0
1128 1 0.782573 0.244036 0
1159 1 0.807452 0.250622 0
1100 1 0.82532 0.232537 0
1130 1 0.831799 0.255908 0
1131 1 0.849899 0.239786 0
1102 1 0.873528 0.233279 0
1104 1 0.897676 0.225408 0
1133 1 0.891205 0.2507 0
1105 1 0.921953 0.218747 0
1135 1 0.916027 0.242921 0
1106 1 0.940196 0.234715 0
1136 1 0.935149 0.258705 0
1137 1 0.959786 0.249659 0
1108 1 0.964221 0.225277 0
1139 1 0.983106 0.241832 0