ITEM: TIMESTEP
186000
ITEM: NUMBER OF ATOMS
1800
ITEM: BOX BOUNDS pp pp pp
1.3584419903751837e+00 1.6364155800962442e+02
1.3584419903751837e+00 1.6364155800962442e+02
0.0000000000000000e+00 5.5000000000000000e+00
ITEM: ATOMS id type xs ys zs
2 1 0.0117152 0.00555227 0
33 1 0.0299474 0.0224395 0
31 1 0.00653209 0.0298513 0
4 1 0.0538245 0.0154492 0
6 1 0.0788396 0.00609298 0
35 1 0.073937 0.030456 0
34 1 0.048631 0.0393426 0
37 1 0.0971935 0.0226768 0
39 1 0.120797 0.0145376 0
38 1 0.115672 0.038688 0
40 1 0.139254 0.0308504 0
10 1 0.144367 0.00632507 0
42 1 0.162626 0.0220798 0
73 1 0.181521 0.0381594 0
43 1 0.18558 0.0145901 0
14 1 0.210287 0.00568385 0
44 1 0.20487 0.0301376 0
45 1 0.22937 0.0221215 0
16 1 0.253333 0.0138971 0
75 1 0.24774 0.0380644 0
46 1 0.272562 0.0301736 0
18 1 0.277336 0.00528155 0
49 1 0.296157 0.0232396 0
20 1 0.3118 0.00145973 0
51 1 0.319479 0.0272562 0
22 1 0.342595 0.0337621 0
21 1 0.360696 0.0151621 0
890 1 0.336092 0.00865541 0
24 1 0.384944 0.0219057 0
53 1 0.36649 0.0390872 0
894 1 0.401747 0.00449515 0
25 1 0.409634 0.0290701 0
26 1 0.433179 0.0354388 0
27 1 0.42678 0.0113072 0
898 1 0.451243 0.0180497 0
28 1 0.457453 0.0424544 0
29 1 0.475122 0.0238966 0
900 1 0.492918 0.0060359 0
30 1 0.499404 0.0302227 0
32 1 0.026055 0.0466406 0
62 1 0.0212406 0.0706467 0
63 1 0.0447286 0.0636384 0
61 1 0.0011762 0.0546564 0
65 1 0.0682023 0.0551012 0
66 1 0.0866372 0.07169 0
64 1 0.0632608 0.0803915 0
36 1 0.0916329 0.0485964 0
67 1 0.111177 0.0641153 0
69 1 0.133706 0.0560184 0
68 1 0.129515 0.0810308 0
71 1 0.15721 0.0478454 0
72 1 0.176428 0.0623496 0
70 1 0.153777 0.0720131 0
74 1 0.224108 0.0475694 0
103 1 0.199975 0.0548305 0
105 1 0.218585 0.0725276 0
101 1 0.195324 0.0805557 0
77 1 0.265473 0.0539027 0
76 1 0.242225 0.0628434 0
137 1 0.260936 0.078624 0
47 1 0.299926 0.0488658 0
48 1 0.309184 0.0717467 0
78 1 0.283873 0.0702508 0
50 1 0.326445 0.0518698 0
81 1 0.333295 0.07706 0
52 1 0.349529 0.0586523 0
82 1 0.357419 0.08293 0
55 1 0.39102 0.0468661 0
83 1 0.373846 0.0644907 0
54 1 0.397798 0.0707747 0
57 1 0.439048 0.0596724 0
85 1 0.421769 0.0763581 0
56 1 0.4157 0.0524907 0
87 1 0.445798 0.0848347 0
59 1 0.480886 0.0482381 0
58 1 0.463067 0.0672552 0
89 1 0.48724 0.0727876 0
93 1 0.0394671 0.0881371 0
990 1 0.0157232 0.0947103 0
92 1 0.0341709 0.111642 0
91 1 0.0101568 0.119191 0
94 1 0.0577008 0.105168 0
95 1 0.0820143 0.096228 0
125 1 0.0767375 0.120728 0
123 1 0.0530507 0.128882 0
96 1 0.100985 0.111946 0
97 1 0.105547 0.088483 0
98 1 0.124606 0.105064 0
127 1 0.119917 0.128985 0
99 1 0.147984 0.0963955 0
100 1 0.172247 0.0881969 0
130 1 0.166754 0.113554 0
129 1 0.143176 0.120641 0
131 1 0.190281 0.105368 0
102 1 0.214015 0.0977545 0
133 1 0.210173 0.12195 0
132 1 0.186364 0.130238 0
104 1 0.23346 0.112569 0
106 1 0.237625 0.0870234 0
135 1 0.257206 0.102974 0
165 1 0.252415 0.12668 0
107 1 0.280863 0.0955128 0
109 1 0.298876 0.111879 0
79 1 0.317173 0.0961109 0
108 1 0.276826 0.122169 0
80 1 0.341535 0.101812 0
110 1 0.323782 0.118977 0
141 1 0.347576 0.125881 0
111 1 0.364763 0.107445 0
113 1 0.380787 0.0894903 0
84 1 0.404921 0.0958951 0
112 1 0.388616 0.114422 0
115 1 0.412552 0.119989 0
86 1 0.429429 0.102533 0
116 1 0.436097 0.12753 0
117 1 0.452898 0.109887 0
88 1 0.470118 0.0912615 0
90 1 0.494752 0.097854 0
119 1 0.476646 0.116439 0
122 1 0.0284891 0.135853 0
152 1 0.024373 0.160228 0
121 1 0.00577395 0.144296 0
151 1 0.00112308 0.168771 0
153 1 0.0477141 0.153554 0
124 1 0.0721047 0.145471 0
154 1 0.0671909 0.169836 0
155 1 0.091795 0.160923 0
126 1 0.0962864 0.135981 0
157 1 0.115444 0.152771 0
158 1 0.134183 0.170244 0
128 1 0.138917 0.145835 0
159 1 0.162798 0.138233 0
160 1 0.158407 0.162952 0
161 1 0.182211 0.155103 0
163 1 0.206632 0.146889 0
162 1 0.201122 0.171644 0
134 1 0.230672 0.137086 0
136 1 0.266251 0.146252 0
164 1 0.247281 0.161232 0
167 1 0.270852 0.170012 0
139 1 0.30666 0.135429 0
138 1 0.28942 0.153092 0
169 1 0.312368 0.161094 0
140 1 0.329656 0.144105 0
142 1 0.353589 0.149911 0
171 1 0.336067 0.167797 0
143 1 0.371092 0.132247 0
114 1 0.395655 0.138607 0
173 1 0.3779 0.156274 0
144 1 0.40082 0.163078 0
145 1 0.41893 0.145106 0
146 1 0.424541 0.169552 0
147 1 0.442216 0.152344 0
118 1 0.459369 0.134574 0
149 1 0.48363 0.141027 0
148 1 0.46617 0.159396 0
150 1 0.489817 0.165033 0
183 1 0.0425657 0.177623 0
182 1 0.0368088 0.20325 0
1080 1 0.0197943 0.18603 0
211 1 0.0128499 0.211158 0
184 1 0.0621367 0.194781 0
185 1 0.0864324 0.185797 0
215 1 0.0810906 0.210193 0
186 1 0.104011 0.20252 0
156 1 0.110732 0.17785 0
187 1 0.128545 0.194255 0
189 1 0.152319 0.186846 0
191 1 0.178352 0.179818 0
190 1 0.170111 0.203533 0
188 1 0.145905 0.21217 0
221 1 0.193406 0.212073 0
192 1 0.211647 0.194677 0
193 1 0.227495 0.17571 0
195 1 0.234649 0.201895 0
166 1 0.253197 0.185681 0
196 1 0.25745 0.211161 0
168 1 0.294706 0.178582 0
197 1 0.275785 0.195505 0
199 1 0.300292 0.203395 0
170 1 0.3183 0.186145 0
172 1 0.359634 0.174687 0
201 1 0.343089 0.192566 0
200 1 0.324367 0.210042 0
202 1 0.348096 0.217255 0
203 1 0.366258 0.199686 0
174 1 0.383473 0.181275 0
204 1 0.390414 0.206096 0
175 1 0.406926 0.187948 0
177 1 0.448386 0.177073 0
205 1 0.414082 0.21274 0
176 1 0.431192 0.194414 0
178 1 0.455323 0.201907 0
179 1 0.47323 0.183036 0
180 1 0.497256 0.189832 0
209 1 0.479719 0.20734 0
212 1 0.0310885 0.228101 0
241 1 0.0259025 0.252787 0
1140 1 0.00688443 0.235184 0
1169 1 0.00101048 0.258782 0
213 1 0.0559336 0.218206 0
243 1 0.0506598 0.242744 0
214 1 0.0752753 0.234804 0
244 1 0.0704948 0.257882 0
216 1 0.100063 0.228716 0
217 1 0.122534 0.218605 0
247 1 0.117542 0.249564 0
218 1 0.137902 0.236438 0
219 1 0.159551 0.24592 0
220 1 0.175656 0.227988 0
249 1 0.140546 0.261251 0
222 1 0.182438 0.253464 0
194 1 0.218038 0.219916 0
223 1 0.199603 0.236177 0
224 1 0.22222 0.246128 0
225 1 0.240443 0.228412 0
227 1 0.264263 0.23579 0
226 1 0.24683 0.253467 0
198 1 0.281794 0.219657 0
228 1 0.287678 0.24473 0
229 1 0.306069 0.22774 0
230 1 0.310958 0.253063 0
231 1 0.329782 0.234802 0
232 1 0.354449 0.241139 0
261 1 0.335402 0.258971 0
233 1 0.372103 0.22338 0
234 1 0.378787 0.247062 0
235 1 0.396286 0.229839 0
265 1 0.401936 0.254377 0
207 1 0.437155 0.219171 0
206 1 0.420138 0.23807 0
237 1 0.444085 0.243117 0
208 1 0.462312 0.225464 0
210 1 0.486831 0.232639 0
239 1 0.468941 0.250195 0
240 1 0.49281 0.257461 0
271 1 0.036493 0.288147 0
1170 1 0.0168018 0.276003 0
1200 1 0.0153798 0.301722 0
242 1 0.0467837 0.266356 0
273 1 0.0591099 0.296862 0
275 1 0.0782159 0.281538 0
245 1 0.0971489 0.265479 0
246 1 0.101369 0.289825 0
248 1 0.120182 0.274132 0
279 1 0.124574 0.300234 0
251 1 0.163675 0.270136 0
250 1 0.143247 0.28525 0
281 1 0.166978 0.294671 0
253 1 0.204895 0.262962 0
252 1 0.186092 0.278681 0
254 1 0.209358 0.286818 0
283 1 0.19075 0.304058 0
257 1 0.269482 0.261098 0
255 1 0.227833 0.271073 0
256 1 0.251079 0.278509 0
285 1 0.233424 0.296171 0
259 1 0.292823 0.270051 0
258 1 0.275111 0.287084 0
289 1 0.29831 0.29487 0
260 1 0.317095 0.27773 0
263 1 0.359939 0.265574 0
262 1 0.342087 0.283869 0
291 1 0.323075 0.302388 0
293 1 0.366744 0.289116 0
264 1 0.384099 0.272511 0
295 1 0.390645 0.296549 0
266 1 0.407681 0.278525 0
236 1 0.42698 0.261276 0
238 1 0.451057 0.267933 0
267 1 0.433533 0.285347 0
297 1 0.415569 0.302938 0
268 1 0.457499 0.292808 0
269 1 0.475044 0.274161 0
270 1 0.482033 0.298666 0
1141 1 0.499031 0.280724 0
301 1 0.0173863 0.326223 0
272 1 0.0382569 0.312368 0
303 1 0.0417159 0.336169 0
276 1 0.0816224 0.306336 0
274 1 0.0618519 0.321016 0
305 1 0.084824 0.329997 0
304 1 0.0650157 0.346255 0
277 1 0.105876 0.3144 0
278 1 0.128598 0.325732 0
307 1 0.107063 0.34003 0
280 1 0.148069 0.309974 0
311 1 0.150941 0.334597 0
282 1 0.170825 0.319441 0
312 1 0.174527 0.343961 0
284 1 0.213617 0.312637 0
313 1 0.194467 0.328738 0
315 1 0.218621 0.338543 0
287 1 0.256657 0.304569 0
286 1 0.238284 0.321479 0
317 1 0.26113 0.330186 0
316 1 0.241921 0.346891 0
288 1 0.280078 0.312627 0
318 1 0.284631 0.337769 0
290 1 0.304449 0.31985 0
319 1 0.309077 0.344257 0
292 1 0.347023 0.308535 0
321 1 0.328174 0.326803 0
323 1 0.353831 0.333006 0
324 1 0.378776 0.338135 0
294 1 0.372075 0.313915 0
325 1 0.402591 0.344804 0
296 1 0.397112 0.320873 0
298 1 0.43906 0.309476 0
327 1 0.421034 0.327331 0
328 1 0.445718 0.333904 0
329 1 0.469556 0.341468 0
299 1 0.463743 0.316763 0
300 1 0.487305 0.323975 0
302 1 0.0210659 0.350783 0
332 1 0.0239982 0.374519 0
361 1 0.00314798 0.388672 0
333 1 0.0445719 0.361319 0
331 1 0.000675297 0.364141 0
335 1 0.0681879 0.370401 0
334 1 0.0470459 0.385168 0
306 1 0.0876062 0.354844 0
337 1 0.0912481 0.380172 0
308 1 0.110606 0.364411 0
309 1 0.131834 0.350267 0
338 1 0.114661 0.390214 0
339 1 0.134449 0.374127 0
310 1 0.155426 0.358952 0
341 1 0.15844 0.383777 0
343 1 0.17777 0.369001 0
314 1 0.19847 0.353518 0
344 1 0.20136 0.378218 0
345 1 0.220983 0.363096 0
375 1 0.22522 0.388381 0
347 1 0.26579 0.355195 0
346 1 0.247308 0.37163 0
377 1 0.270626 0.381474 0
349 1 0.289132 0.362956 0
348 1 0.294399 0.387237 0
350 1 0.314381 0.368347 0
320 1 0.334037 0.350931 0
351 1 0.343596 0.374227 0
322 1 0.360388 0.357126 0
381 1 0.326905 0.390911 0
353 1 0.368043 0.381173 0
355 1 0.384346 0.361956 0
354 1 0.392585 0.387524 0
356 1 0.408799 0.368576 0
326 1 0.427445 0.351565 0
357 1 0.432962 0.376603 0
359 1 0.450664 0.359226 0
1201 1 0.49378 0.348715 0
358 1 0.458062 0.382869 0
330 1 0.476299 0.366197 0
360 1 0.482751 0.390227 0
363 1 0.026511 0.399181 0
362 1 0.00630638 0.413051 0
364 1 0.0294076 0.423491 0
336 1 0.0710309 0.394986 0
365 1 0.0503236 0.409533 0
366 1 0.0740229 0.420055 0
395 1 0.0524833 0.434313 0
367 1 0.0944461 0.405015 0
369 1 0.118267 0.414699 0
368 1 0.0967457 0.430259 0
340 1 0.137832 0.399417 0
370 1 0.140732 0.424366 0
371 1 0.161501 0.409161 0
401 1 0.163095 0.433849 0
342 1 0.182263 0.394441 0
372 1 0.184468 0.419493 0
373 1 0.20524 0.403333 0
403 1 0.207229 0.428418 0
374 1 0.228201 0.414006 0
376 1 0.249274 0.396686 0
405 1 0.250616 0.423877 0
378 1 0.271949 0.406922 0
379 1 0.309264 0.406196 0
409 1 0.290945 0.422596 0
410 1 0.314193 0.432786 0
352 1 0.350406 0.399126 0
382 1 0.355501 0.423538 0
380 1 0.332445 0.416039 0
383 1 0.374106 0.40588 0
385 1 0.397635 0.412759 0
384 1 0.379619 0.43056 0
387 1 0.416051 0.395534 0
386 1 0.420761 0.419899 0
388 1 0.439982 0.401507 0
419 1 0.445285 0.426485 0
389 1 0.464655 0.40788 0
1261 1 0.488682 0.415403 0
390 1 0.47006 0.432244 0
393 1 0.0091951 0.437875 0
423 1 0.0125265 0.462677 0
394 1 0.0327495 0.448568 0
425 1 0.036462 0.473071 0
396 1 0.0568913 0.458783 0
397 1 0.0771585 0.444293 0
427 1 0.0807152 0.469264 0
399 1 0.119989 0.439014 0
398 1 0.0998755 0.454538 0
429 1 0.122868 0.46489 0
400 1 0.144398 0.449139 0
431 1 0.166505 0.459639 0
430 1 0.145245 0.475231 0
402 1 0.186196 0.444482 0
433 1 0.209052 0.45397 0
432 1 0.18906 0.471 0
404 1 0.230178 0.43908 0
406 1 0.252029 0.449902 0
435 1 0.231583 0.464856 0
436 1 0.254431 0.474622 0
407 1 0.272594 0.437366 0
437 1 0.27494 0.461962 0
408 1 0.295022 0.447585 0
439 1 0.299548 0.472328 0
441 1 0.318532 0.457503 0
411 1 0.338183 0.441785 0
412 1 0.342219 0.466682 0
413 1 0.360707 0.449693 0
415 1 0.40412 0.438387 0
414 1 0.384947 0.454355 0
443 1 0.366198 0.473387 0
416 1 0.410308 0.461519 0
417 1 0.428466 0.445025 0
447 1 0.43476 0.469506 0
418 1 0.45339 0.450076 0
1291 1 0.495454 0.439564 0
420 1 0.477431 0.457143 0
449 1 0.459514 0.475628 0
454 1 0.0193512 0.512693 0
424 1 0.0163731 0.4877 0
455 1 0.0391954 0.49857 0
426 1 0.0603141 0.484329 0
456 1 0.0621179 0.509852 0
457 1 0.0836145 0.494402 0
487 1 0.08532 0.519608 0
428 1 0.102903 0.479463 0
459 1 0.124308 0.489522 0
458 1 0.105663 0.50505 0
489 1 0.128002 0.515342 0
461 1 0.168044 0.484615 0
460 1 0.147793 0.499679 0
462 1 0.170585 0.510147 0
434 1 0.211709 0.479141 0
463 1 0.191705 0.494809 0
464 1 0.214942 0.504832 0
493 1 0.194143 0.520103 0
465 1 0.234017 0.48995 0
467 1 0.257801 0.499544 0
466 1 0.238173 0.514323 0
438 1 0.278401 0.485816 0
469 1 0.302495 0.496416 0
468 1 0.280633 0.509995 0
470 1 0.304098 0.520859 0
440 1 0.32349 0.481915 0
442 1 0.348197 0.491796 0
471 1 0.32749 0.506397 0
473 1 0.355564 0.515708 0
445 1 0.391621 0.477899 0
444 1 0.374583 0.497373 0
475 1 0.398604 0.504902 0
474 1 0.380688 0.521222 0
446 1 0.415904 0.486373 0
477 1 0.423907 0.510742 0
448 1 0.440316 0.492869 0
478 1 0.447935 0.516111 0
450 1 0.484567 0.481069 0
479 1 0.465612 0.499195 0
1381 1 0.490352 0.505707 0
483 1 0.0211052 0.53795 0
482 1 0.00116905 0.55424 0
485 1 0.0413201 0.523781 0
513 1 0.0241832 0.56329 0
484 1 0.044409 0.549692 0
486 1 0.0641522 0.535097 0
515 1 0.067836 0.559617 0
517 1 0.0886861 0.544643 0
488 1 0.107776 0.529632 0
519 1 0.112076 0.554858 0
490 1 0.131255 0.539739 0
520 1 0.135009 0.565296 0
491 1 0.151332 0.525028 0
521 1 0.154507 0.548979 0
492 1 0.174725 0.534945 0
523 1 0.178092 0.559745 0
494 1 0.198567 0.544745 0
495 1 0.217983 0.530125 0
525 1 0.220607 0.55494 0
496 1 0.240246 0.54061 0
497 1 0.259911 0.524604 0
527 1 0.262912 0.551021 0
499 1 0.304088 0.54577 0
498 1 0.281577 0.535135 0
529 1 0.285069 0.56138 0
472 1 0.334688 0.529628 0
501 1 0.326936 0.553072 0
502 1 0.349883 0.560164 0
503 1 0.363551 0.539628 0
505 1 0.388707 0.547355 0
476 1 0.405454 0.528119 0
506 1 0.413442 0.551524 0
507 1 0.43083 0.534414 0
508 1 0.437514 0.559531 0
509 1 0.454143 0.540375 0
480 1 0.471848 0.523572 0
510 1 0.478408 0.548603 0
1382 1 0.49702 0.530103 0
512 1 0.0282751 0.589005 0
511 1 0.00407127 0.579119 0
541 1 0.00877653 0.60395 0
514 1 0.0485792 0.574456 0
545 1 0.071099 0.584801 0
543 1 0.0518267 0.599575 0
516 1 0.0922499 0.569379 0
518 1 0.115509 0.579559 0
547 1 0.0947075 0.594154 0
548 1 0.119282 0.60463 0
549 1 0.139072 0.589783 0
522 1 0.15855 0.573692 0
551 1 0.161535 0.601401 0
553 1 0.18096 0.585881 0
524 1 0.200005 0.570665 0
554 1 0.203957 0.595505 0
555 1 0.223157 0.580633 0
556 1 0.22696 0.60598 0
526 1 0.243514 0.566169 0
557 1 0.246407 0.591741 0
528 1 0.265411 0.576546 0
558 1 0.270057 0.60145 0
500 1 0.308808 0.569407 0
559 1 0.289171 0.585475 0
530 1 0.313218 0.594007 0
531 1 0.332068 0.577325 0
532 1 0.336636 0.602634 0
533 1 0.355002 0.584362 0
563 1 0.360632 0.608611 0
504 1 0.373331 0.565558 0
534 1 0.379256 0.589868 0
535 1 0.3967 0.572404 0
536 1 0.40348 0.596325 0
537 1 0.421194 0.578053 0
567 1 0.426966 0.602225 0
538 1 0.444951 0.585984 0
539 1 0.461443 0.566073 0
540 1 0.485175 0.572686 0
569 1 0.468537 0.591143 0
1441 1 0.492214 0.598668 0
542 1 0.0316085 0.61378 0
571 1 0.0104092 0.628679 0
573 1 0.0325424 0.638839 0
546 1 0.0743158 0.609753 0
544 1 0.0538324 0.624765 0
575 1 0.0771763 0.633951 0
574 1 0.056287 0.649054 0
577 1 0.0978636 0.6185 0
579 1 0.12118 0.628895 0
576 1 0.100735 0.644321 0
550 1 0.142077 0.616216 0
581 1 0.163831 0.627231 0
580 1 0.143587 0.641332 0
611 1 0.166593 0.651955 0
552 1 0.183789 0.610855 0
582 1 0.186348 0.636407 0
583 1 0.207823 0.622104 0
584 1 0.210354 0.646816 0
585 1 0.230842 0.63157 0
586 1 0.25396 0.641881 0
587 1 0.250677 0.617272 0
560 1 0.294012 0.610555 0
589 1 0.273958 0.626631 0
590 1 0.29844 0.635169 0
561 1 0.318344 0.61936 0
562 1 0.341618 0.626067 0
591 1 0.322872 0.643284 0
593 1 0.34806 0.651094 0
565 1 0.384611 0.614176 0
564 1 0.366275 0.632947 0
595 1 0.391121 0.638736 0
566 1 0.40898 0.620057 0
568 1 0.451796 0.609928 0
596 1 0.415189 0.644471 0
597 1 0.433219 0.625758 0
599 1 0.439093 0.650381 0
570 1 0.475116 0.616475 0
600 1 0.457036 0.634315 0
1471 1 0.481784 0.640121 0
1442 1 0.499326 0.622583 0
572 1 0.0132602 0.65367 0
602 1 0.0171674 0.678288 0
603 1 0.0359694 0.663551 0
633 1 0.0399452 0.688718 0
605 1 0.0796143 0.658134 0
604 1 0.0599046 0.673721 0
606 1 0.0827304 0.683241 0
578 1 0.1229 0.654607 0
607 1 0.10247 0.669319 0
608 1 0.124801 0.679446 0
637 1 0.104771 0.694433 0
609 1 0.14599 0.666087 0
610 1 0.168454 0.676572 0
639 1 0.147321 0.689967 0
612 1 0.192384 0.686085 0
613 1 0.188883 0.660753 0
614 1 0.212009 0.6713 0
615 1 0.233606 0.656389 0
616 1 0.235957 0.680932 0
617 1 0.258605 0.66738 0
647 1 0.259739 0.692099 0
588 1 0.27909 0.652886 0
619 1 0.303652 0.660544 0
618 1 0.283288 0.678461 0
620 1 0.313196 0.685285 0
621 1 0.329805 0.667178 0
592 1 0.355155 0.675424 0
622 1 0.337387 0.691665 0
594 1 0.373043 0.656504 0
625 1 0.396945 0.662471 0
623 1 0.380181 0.680267 0
626 1 0.403795 0.686368 0
598 1 0.446309 0.67497 0
627 1 0.42068 0.668512 0
657 1 0.427882 0.693675 0
628 1 0.470711 0.681483 0
629 1 0.463818 0.657434 0
1501 1 0.488879 0.664276 0
630 1 0.495921 0.688442 0
632 1 0.0188054 0.70427 0
663 1 0.0214101 0.728593 0
634 1 0.0419032 0.713588 0
635 1 0.0633304 0.698078 0
636 1 0.0854078 0.708987 0
665 1 0.0650534 0.723162 0
666 1 0.0875932 0.734896 0
638 1 0.128088 0.704849 0
667 1 0.108276 0.720287 0
669 1 0.131021 0.730098 0
641 1 0.172012 0.700603 0
640 1 0.151786 0.715032 0
671 1 0.174147 0.726056 0
643 1 0.214734 0.69606 0
642 1 0.194601 0.710727 0
644 1 0.217225 0.721491 0
673 1 0.196651 0.736022 0
645 1 0.236744 0.705984 0
675 1 0.239703 0.731216 0
646 1 0.258052 0.716049 0
649 1 0.295741 0.702655 0
648 1 0.281184 0.722347 0
679 1 0.303776 0.728487 0
650 1 0.320906 0.709691 0
651 1 0.346053 0.717462 0
681 1 0.328077 0.735372 0
653 1 0.362416 0.699034 0
624 1 0.386563 0.705365 0
654 1 0.369737 0.723538 0
685 1 0.394751 0.730874 0
655 1 0.410729 0.711981 0
656 1 0.434806 0.718342 0
686 1 0.418496 0.735965 0
658 1 0.451955 0.700101 0
687 1 0.460005 0.723747 0
659 1 0.476875 0.705807 0
689 1 0.484295 0.729951 0
662 1 0.0244794 0.753924 0
691 1 0.00517877 0.768847 0
664 1 0.0442849 0.738883 0
693 1 0.0272231 0.781954 0
661 1 0.00170994 0.742957 0
694 1 0.0470301 0.764936 0
695 1 0.0672243 0.748711 0
696 1 0.0698615 0.773787 0
697 1 0.0909081 0.759873 0
668 1 0.111191 0.74517 0
698 1 0.113501 0.770566 0
699 1 0.134881 0.755442 0
700 1 0.136662 0.78 0
670 1 0.15469 0.740253 0
701 1 0.157872 0.767546 0
672 1 0.176782 0.752506 0
702 1 0.180979 0.778531 0
674 1 0.21926 0.745874 0
703 1 0.199608 0.762524 0
705 1 0.223736 0.770766 0
677 1 0.263838 0.740603 0
676 1 0.244539 0.757449 0
707 1 0.269923 0.764961 0
735 1 0.251044 0.78177 0
678 1 0.287513 0.747362 0
709 1 0.29309 0.771961 0
680 1 0.310795 0.753835 0
710 1 0.317263 0.777516 0
652 1 0.3535 0.741613 0
682 1 0.359753 0.765859 0
711 1 0.335413 0.759431 0
683 1 0.377537 0.748434 0
713 1 0.384114 0.77246 0
684 1 0.401512 0.754955 0
716 1 0.408304 0.779816 0
717 1 0.442893 0.742618 0
715 1 0.425661 0.761569 0
718 1 0.449342 0.766773 0
1591 1 0.497288 0.779395 0
690 1 0.490492 0.754705 0
688 1 0.467253 0.747192 0
719 1 0.474023 0.772612 0
692 1 0.00508444 0.794472 0
722 1 0.00514832 0.820881 0
723 1 0.027924 0.809362 0
725 1 0.0496658 0.792542 0
726 1 0.0726519 0.79905 0
755 1 0.069817 0.823069 0
727 1 0.0926741 0.784426 0
728 1 0.1142 0.79614 0
757 1 0.0948614 0.814085 0
729 1 0.137499 0.803266 0
730 1 0.159148 0.817013 0
731 1 0.159512 0.792125 0
732 1 0.182319 0.805285 0
704 1 0.204846 0.789137 0
734 1 0.223491 0.816997 0
763 1 0.199404 0.82374 0
733 1 0.23136 0.79476 0
736 1 0.256543 0.809595 0
706 1 0.273882 0.789315 0
737 1 0.282782 0.813554 0
708 1 0.300065 0.795373 0
738 1 0.30719 0.820253 0
741 1 0.341954 0.784251 0
739 1 0.323939 0.801918 0
742 1 0.347922 0.807343 0
712 1 0.36585 0.789398 0
714 1 0.389919 0.797218 0
743 1 0.371683 0.814474 0
745 1 0.395449 0.820692 0
747 1 0.433359 0.785735 0
746 1 0.4154 0.803932 0
748 1 0.438591 0.810041 0
749 1 0.455968 0.791736 0
720 1 0.480391 0.797069 0
750 1 0.463709 0.8158 0
1621 1 0.488039 0.822139 0
753 1 0.0232534 0.839216 0
783 1 0.0173529 0.864669 0
754 1 0.0413166 0.855334 0
724 1 0.0455898 0.82765 0
785 1 0.0638184 0.84665 0
786 1 0.0823058 0.865022 0
756 1 0.0881827 0.839642 0
759 1 0.135003 0.826135 0
758 1 0.112085 0.833263 0
787 1 0.106467 0.857331 0
789 1 0.130599 0.850783 0
760 1 0.154129 0.841747 0
791 1 0.173497 0.859069 0
761 1 0.176341 0.833084 0
790 1 0.149575 0.866636 0
762 1 0.195346 0.84953 0
764 1 0.218657 0.842329 0
793 1 0.215034 0.866084 0
765 1 0.242477 0.833113 0
795 1 0.238262 0.858901 0
766 1 0.272619 0.856684 0
767 1 0.266524 0.833399 0
769 1 0.314499 0.844611 0
768 1 0.290442 0.8381 0
799 1 0.296868 0.861683 0
740 1 0.330406 0.825324 0
770 1 0.337573 0.850387 0
771 1 0.354109 0.831833 0
801 1 0.322195 0.868156 0
773 1 0.361933 0.858227 0
744 1 0.377959 0.838686 0
774 1 0.386817 0.863758 0
775 1 0.402579 0.845065 0
777 1 0.420328 0.828049 0
807 1 0.42782 0.85263 0
778 1 0.445367 0.834002 0
809 1 0.452022 0.85813 0
779 1 0.469835 0.839513 0
780 1 0.475464 0.865489 0
1651 1 0.4936 0.847068 0
812 1 0.0123901 0.890166 0
814 1 0.0316232 0.906077 0
813 1 0.035836 0.881138 0
784 1 0.0589769 0.873363 0
815 1 0.0543413 0.897507 0
816 1 0.0781491 0.889702 0
788 1 0.125531 0.874646 0
817 1 0.100981 0.882264 0
819 1 0.120175 0.899343 0
818 1 0.0961018 0.906634 0
821 1 0.168266 0.883174 0
820 1 0.14412 0.891468 0
851 1 0.163526 0.907909 0
792 1 0.192567 0.874842 0
823 1 0.210267 0.891569 0
822 1 0.18708 0.899009 0
794 1 0.232546 0.883555 0
796 1 0.256167 0.875937 0
827 1 0.251621 0.899904 0
825 1 0.228191 0.907549 0
797 1 0.280336 0.879373 0
798 1 0.288618 0.902665 0
800 1 0.305519 0.885499 0
829 1 0.311009 0.912575 0
831 1 0.328067 0.894957 0
772 1 0.345422 0.876579 0
802 1 0.35236 0.899924 0
803 1 0.369499 0.881545 0
804 1 0.376128 0.906785 0
805 1 0.393586 0.888441 0
835 1 0.399566 0.912724 0
776 1 0.410412 0.869919 0
806 1 0.41691 0.894498 0
808 1 0.434923 0.876428 0
839 1 0.441485 0.901466 0
1681 1 0.482766 0.889754 0
810 1 0.459087 0.882668 0
840 1 0.46536 0.907701 0
843 1 0.00846713 0.915077 0
844 1 0.0273579 0.931584 0
842 1 0.00352886 0.93994 0
873 1 0.022485 0.956571 0
875 1 0.0465147 0.949305 0
845 1 0.0502507 0.922344 0
846 1 0.0691618 0.939914 0
847 1 0.073282 0.914473 0
877 1 0.0872413 0.956393 0
848 1 0.0921784 0.931326 0
849 1 0.115244 0.924281 0
879 1 0.110787 0.947808 0
881 1 0.134651 0.939993 0
850 1 0.140045 0.915987 0
852 1 0.158315 0.93249 0
883 1 0.176957 0.948871 0
853 1 0.181365 0.924818 0
824 1 0.204542 0.915551 0
854 1 0.201296 0.941064 0
855 1 0.223433 0.931833 0
826 1 0.246722 0.924676 0
857 1 0.267883 0.941776 0
856 1 0.243619 0.949449 0
828 1 0.269664 0.916525 0
859 1 0.29103 0.929815 0
830 1 0.314858 0.936882 0
858 1 0.289252 0.955519 0
833 1 0.358331 0.92372 0
832 1 0.334665 0.919029 0
861 1 0.341226 0.942514 0
863 1 0.366324 0.948941 0
834 1 0.38259 0.930618 0
865 1 0.407276 0.936854 0
864 1 0.390586 0.954402 0
837 1 0.423326 0.919002 0
836 1 0.430619 0.944307 0
838 1 0.447616 0.927547 0
870 1 0.45573 0.949862 0
1711 1 0.490035 0.91324 0
869 1 0.472851 0.931701 0
1712 1 0.496736 0.938244 0
1741 1 0.479005 0.956015 0
3 1 0.0355808 0.99792 0
872 1 0.0181054 0.981588 0
874 1 0.0410465 0.972984 0
5 1 0.0592006 0.9905 0
876 1 0.0642864 0.966019 0
7 1 0.0832944 0.981896 0
8 1 0.102408 0.997419 0
9 1 0.125527 0.989779 0
878 1 0.106439 0.972374 0
880 1 0.129858 0.965173 0
41 1 0.167736 0.998143 0
11 1 0.149054 0.98137 0
882 1 0.153047 0.956633 0
13 1 0.17206 0.97299 0
12 1 0.191095 0.990561 0
15 1 0.215548 0.981272 0
884 1 0.196717 0.965542 0
885 1 0.220711 0.957 0
886 1 0.234543 0.997425 0
17 1 0.257682 0.989977 0
887 1 0.239268 0.973421 0
888 1 0.263238 0.965957 0
19 1 0.282329 0.980805 0
889 1 0.30541 0.9761 0
860 1 0.323616 0.959712 0
862 1 0.347765 0.966011 0
891 1 0.329919 0.98454 0
892 1 0.354224 0.990027 0
23 1 0.37779 0.997869 0
893 1 0.372014 0.972563 0
895 1 0.396419 0.980036 0
867 1 0.438104 0.968413 0
866 1 0.413834 0.962587 0
897 1 0.443616 0.99257 0
896 1 0.420147 0.986796 0
868 1 0.462659 0.974221 0
899 1 0.468077 0.999775 0
1771 1 0.484976 0.980292 0
931 1 0.523796 0.0376314 0
901 1 0.516771 0.0125416 0
902 1 0.540939 0.0196747 0
904 1 0.564688 0.0265908 0
906 1 0.582134 0.00840615 0
935 1 0.588701 0.0326778 0
905 1 0.557957 0.00071042 0
908 1 0.605663 0.0135611 0
939 1 0.629811 0.0196561 0
937 1 0.61214 0.0388045 0
941 1 0.654261 0.0284389 0
912 1 0.670897 0.00915862 0
942 1 0.678668 0.0347079 0
910 1 0.647638 0.00177817 0
943 1 0.694604 0.0162737 0
945 1 0.719607 0.0219327 0
944 1 0.703136 0.0395329 0
914 1 0.743329 0.0244088 0
916 1 0.766369 0.017309 0
947 1 0.760696 0.0416203 0
918 1 0.783475 0.0337387 0
919 1 0.809139 0.0270293 0
917 1 0.790163 0.00910468 0
1788 1 0.813805 0.00197117 0
920 1 0.831767 0.0184793 0
922 1 0.850367 0.0355849 0
921 1 0.855451 0.0107167 0
951 1 0.826894 0.0439033 0
923 1 0.874138 0.0276954 0
924 1 0.89777 0.0197295 0
1792 1 0.879062 0.00411308 0
955 1 0.915706 0.0363043 0
925 1 0.921605 0.0121967 0
926 1 0.939387 0.0298623 0
928 1 0.945576 0.00527922 0
930 1 0.987855 0.0136466 0
959 1 0.963251 0.0213115 0
960 1 0.982603 0.0377449 0
932 1 0.530408 0.0626395 0
961 1 0.512419 0.0794729 0
60 1 0.504226 0.0543311 0
933 1 0.547125 0.0440348 0
963 1 0.554247 0.0685598 0
934 1 0.571425 0.0509788 0
965 1 0.578257 0.0756285 0
936 1 0.594714 0.0575489 0
967 1 0.6193 0.0635963 0
966 1 0.601639 0.0816135 0
938 1 0.636423 0.0447177 0
969 1 0.64291 0.068646 0
940 1 0.660824 0.0525498 0
970 1 0.666869 0.0771112 0
971 1 0.685063 0.0586255 0
973 1 0.709088 0.06428 0
972 1 0.69199 0.081821 0
975 1 0.727741 0.0462191 0
974 1 0.73251 0.0709626 0
946 1 0.756368 0.0660609 0
977 1 0.773327 0.0833 0
949 1 0.803589 0.0505925 0
948 1 0.779762 0.0586914 0
979 1 0.797847 0.0768132 0
950 1 0.82156 0.0692721 0
952 1 0.845398 0.0598822 0
980 1 0.840966 0.0852112 0
954 1 0.892631 0.0441766 0
981 1 0.864119 0.0762574 0
953 1 0.869529 0.052236 0
983 1 0.887983 0.0676288 0
984 1 0.907194 0.0851834 0
985 1 0.912043 0.0617332 0
956 1 0.935427 0.0534143 0
986 1 0.930512 0.0777512 0
987 1 0.954395 0.0697287 0
957 1 0.960122 0.0450266 0
958 1 0.978507 0.0618011 0
989 1 0.997932 0.0788095 0
988 1 0.973058 0.0864091 0
962 1 0.53677 0.0871919 0
991 1 0.519468 0.104472 0
993 1 0.54251 0.112287 0
992 1 0.525238 0.129752 0
120 1 0.501451 0.123534 0
964 1 0.560569 0.0932326 0
994 1 0.567491 0.117623 0
995 1 0.584377 0.100052 0
996 1 0.591222 0.124954 0
968 1 0.625278 0.0885888 0
997 1 0.608314 0.106904 0
998 1 0.632191 0.112414 0
999 1 0.650226 0.0946488 0
1000 1 0.657756 0.118528 0
1001 1 0.675814 0.101127 0
1031 1 0.683733 0.125009 0
1002 1 0.701285 0.107966 0
1003 1 0.716929 0.089096 0
1004 1 0.72714 0.113163 0
976 1 0.768545 0.10709 0
1005 1 0.744782 0.0930614 0
1035 1 0.750132 0.122442 0
978 1 0.81632 0.0932232 0
1007 1 0.792225 0.100908 0
1006 1 0.786416 0.12532 0
1008 1 0.811238 0.117278 0
1009 1 0.834984 0.10909 0
1010 1 0.854062 0.12543 0
1011 1 0.860615 0.100706 0
982 1 0.883919 0.0928589 0
1012 1 0.878195 0.118484 0
1013 1 0.90198 0.110151 0
1016 1 0.919956 0.126429 0
1017 1 0.949433 0.0941766 0
1015 1 0.925884 0.101537 0
1047 1 0.943921 0.118687 0
1018 1 0.967731 0.111593 0
1019 1 0.991605 0.103089 0
1020 1 0.986896 0.128077 0
1022 1 0.532928 0.154289 0
1021 1 0.50822 0.147448 0
1051 1 0.514325 0.17264 0
1023 1 0.550417 0.136234 0
1024 1 0.556366 0.159988 0
1025 1 0.574164 0.141814 0
1055 1 0.580439 0.166512 0
1027 1 0.615311 0.131442 0
1026 1 0.598678 0.149552 0
1028 1 0.6228 0.155196 0
1057 1 0.605 0.172685 0
1029 1 0.639929 0.136833 0
1059 1 0.647338 0.160778 0
1030 1 0.664886 0.142509 0
1061 1 0.671677 0.166848 0
1033 1 0.707514 0.131406 0
1032 1 0.689702 0.149352 0
1063 1 0.71394 0.156955 0
1034 1 0.731268 0.138918 0
1036 1 0.754796 0.146579 0
1065 1 0.736652 0.163913 0
1066 1 0.761176 0.170092 0
1067 1 0.780843 0.150414 0
1037 1 0.805485 0.140908 0
1038 1 0.802395 0.164813 0
1039 1 0.82985 0.134215 0
1040 1 0.825518 0.157894 0
1041 1 0.848741 0.150131 0
1042 1 0.866781 0.166915 0
1014 1 0.896492 0.134249 0
1043 1 0.872491 0.142756 0
1044 1 0.890669 0.158667 0
1045 1 0.914322 0.151314 0
1046 1 0.938494 0.1428 0
1077 1 0.933648 0.167117 0
1048 1 0.957353 0.159803 0
1049 1 0.962137 0.135817 0
1050 1 0.981833 0.152549 0
1053 1 0.538976 0.178561 0
1052 1 0.521884 0.196119 0
1081 1 0.504172 0.214209 0
1083 1 0.546493 0.203009 0
1054 1 0.563833 0.184137 0
1056 1 0.588109 0.192036 0
1085 1 0.569386 0.209368 0
1058 1 0.629746 0.180511 0
1087 1 0.612087 0.19689 0
1086 1 0.595342 0.216582 0
1089 1 0.636849 0.204114 0
1060 1 0.654243 0.18584 0
1091 1 0.678067 0.193496 0
1090 1 0.66083 0.2116 0
1062 1 0.694967 0.173892 0
1093 1 0.702402 0.199519 0
1064 1 0.719401 0.182201 0
1094 1 0.726949 0.206212 0
1095 1 0.743592 0.187568 0
1097 1 0.76726 0.197078 0
1096 1 0.750045 0.213116 0
1068 1 0.78306 0.178485 0
1098 1 0.79217 0.202352 0
1099 1 0.815846 0.207941 0
1069 1 0.819856 0.182483 0
1071 1 0.844078 0.174622 0
1070 1 0.83712 0.198447 0
1072 1 0.861346 0.192098 0
1101 1 0.85385 0.217336 0
1073 1 0.885141 0.184151 0
1103 1 0.878862 0.208836 0
1074 1 0.902794 0.199966 0
1075 1 0.909364 0.175058 0
1078 1 0.951587 0.184127 0
1076 1 0.928109 0.19081 0
1107 1 0.945895 0.208772 0
1105 1 0.920994 0.216078 0
1079 1 0.976821 0.17795 0
1109 1 0.970855 0.201136 0
181 1 0.995136 0.193696 0
1082 1 0.528696 0.220914 0
1111 1 0.510768 0.238711 0
1113 1 0.535031 0.245536 0
1084 1 0.552335 0.227892 0
1114 1 0.55915 0.252415 0
1115 1 0.576653 0.234351 0
1116 1 0.584434 0.25837 0
1088 1 0.619406 0.22199 0
1117 1 0.602657 0.240346 0
1118 1 0.626591 0.246437 0
1119 1 0.643556 0.22879 0
1121 1 0.667758 0.236014 0
1120 1 0.650023 0.253265 0
1151 1 0.674045 0.259861 0
1092 1 0.685602 0.218547 0
1122 1 0.69191 0.242174 0
1123 1 0.709984 0.223925 0
1124 1 0.716571 0.248737 0
1125 1 0.733375 0.231298 0
1126 1 0.757343 0.236757 0
1155 1 0.741393 0.255966 0
1127 1 0.775211 0.220381 0
1129 1 0.800533 0.226765 0
1128 1 0.781861 0.243997 0
1159 1 0.806334 0.250622 0
1100 1 0.825187 0.232312 0
1130 1 0.831875 0.259049 0
1131 1 0.848237 0.240949 0
1102 1 0.872302 0.233379 0
1104 1 0.896455 0.22498 0
1133 1 0.892376 0.248938 0
1135 1 0.915693 0.240233 0
1106 1 0.939924 0.231973 0
1136 1 0.934009 0.257011 0
1110 1 0.989239 0.218754 0
1137 1 0.958663 0.249468 0
1108 1 0.965084 0.225464 0
1139 1 0.981802 0.243325 0
1112 1 0.517209 0.263163 0
1142 1 0.523523 0.288173 0
1143 1 0.541453 0.271228 0
1144 1 0.547732 0.2951 0