ITEM: TIMESTEP
204000
ITEM: NUMBER OF ATOMS
1800
ITEM: BOX BOUNDS pp pp pp
1.3859330986067278e+00 1.6361406690138813e+02
1.3859330986067278e+00 1.6361406690138813e+02
0.0000000000000000e+00 5.5000000000000000e+00
ITEM: ATOMS id type xs ys zs
2 1 0.0106438 0.00589189 0
33 1 0.0291533 0.0221177 0
31 1 0.00600315 0.0299858 0
4 1 0.0529439 0.0145751 0
6 1 0.0771205 0.00795996 0
35 1 0.0719554 0.0314867 0
34 1 0.0472154 0.0389206 0
37 1 0.0963602 0.0232441 0
39 1 0.120202 0.0137604 0
38 1 0.115571 0.0389322 0
40 1 0.13937 0.031008 0
10 1 0.143376 0.00707001 0
42 1 0.163214 0.0235032 0
73 1 0.181985 0.0406085 0
43 1 0.186407 0.0161355 0
14 1 0.209546 0.0076337 0
44 1 0.205093 0.032773 0
45 1 0.228101 0.0237905 0
16 1 0.251894 0.0161686 0
75 1 0.246535 0.0411191 0
46 1 0.27106 0.0317002 0
18 1 0.276242 0.00622364 0
49 1 0.293911 0.0232623 0
20 1 0.309683 0.00102926 0
51 1 0.317684 0.0264146 0
22 1 0.342322 0.0331174 0
21 1 0.359373 0.0139959 0
890 1 0.334074 0.00811415 0
24 1 0.38306 0.0202676 0
53 1 0.366228 0.0382197 0
894 1 0.401276 0.00192393 0
25 1 0.407087 0.0263153 0
26 1 0.431917 0.0335039 0
27 1 0.425338 0.00915786 0
898 1 0.449186 0.0160381 0
28 1 0.455731 0.0401958 0
29 1 0.473259 0.0222941 0
900 1 0.490264 0.00447812 0
30 1 0.497472 0.0287521 0
32 1 0.0240183 0.0467804 0
62 1 0.0190079 0.0712465 0
63 1 0.043567 0.0631058 0
61 1 0.000192689 0.0551773 0
65 1 0.0668491 0.0548076 0
66 1 0.0850917 0.0720369 0
64 1 0.0622609 0.0800534 0
36 1 0.0910517 0.0476464 0
67 1 0.109981 0.0638135 0
69 1 0.134241 0.0564972 0
68 1 0.128773 0.081265 0
71 1 0.15807 0.0481671 0
72 1 0.175483 0.0651519 0
70 1 0.152305 0.0726166 0
74 1 0.223553 0.0491817 0
103 1 0.199831 0.0573199 0
105 1 0.218322 0.0736854 0
101 1 0.193612 0.0835608 0
77 1 0.265055 0.0568675 0
76 1 0.241788 0.0657329 0
137 1 0.259878 0.0823672 0
47 1 0.28906 0.0490725 0
48 1 0.306622 0.0694007 0
78 1 0.282966 0.0743669 0
50 1 0.323386 0.051346 0
81 1 0.330739 0.0763117 0
52 1 0.347759 0.0586571 0
82 1 0.356235 0.0823568 0
55 1 0.390491 0.0451534 0
83 1 0.373187 0.0631297 0
54 1 0.396505 0.0695973 0
57 1 0.438528 0.0586442 0
85 1 0.420409 0.077184 0
56 1 0.413963 0.0523226 0
87 1 0.445606 0.0830102 0
59 1 0.479311 0.0463993 0
58 1 0.461808 0.0643734 0
89 1 0.487127 0.0724324 0
93 1 0.0390544 0.0877877 0
990 1 0.0147468 0.0968259 0
92 1 0.0334301 0.112758 0
91 1 0.00853687 0.120635 0
94 1 0.05696 0.105285 0
95 1 0.0803267 0.0977121 0
125 1 0.0751251 0.121135 0
123 1 0.051015 0.129859 0
96 1 0.0996245 0.113462 0
97 1 0.105132 0.0886295 0
98 1 0.122759 0.105326 0
99 1 0.14726 0.0979161 0
100 1 0.170842 0.0912908 0
130 1 0.16639 0.116193 0
129 1 0.142511 0.123067 0
131 1 0.188986 0.107554 0
102 1 0.213125 0.0991161 0
133 1 0.207335 0.123259 0
104 1 0.23099 0.114791 0
106 1 0.237005 0.0901216 0
135 1 0.255828 0.105875 0
107 1 0.279555 0.0988797 0
109 1 0.298625 0.112889 0
79 1 0.313647 0.0936854 0
108 1 0.275646 0.123328 0
80 1 0.338961 0.100548 0
110 1 0.322125 0.118429 0
141 1 0.345794 0.125028 0
111 1 0.362664 0.10636 0
113 1 0.380387 0.0879544 0
84 1 0.403569 0.095613 0
112 1 0.386011 0.113052 0
115 1 0.410195 0.119815 0
86 1 0.427924 0.10147 0
116 1 0.435022 0.125929 0
117 1 0.451877 0.108692 0
88 1 0.469844 0.0908513 0
90 1 0.494046 0.0978966 0
119 1 0.476491 0.115594 0
120 1 0.500922 0.121889 0
122 1 0.0276597 0.13684 0
152 1 0.0238905 0.162378 0
121 1 0.00495507 0.145096 0
153 1 0.0463074 0.154516 0
124 1 0.069778 0.145465 0
154 1 0.0653189 0.170206 0
155 1 0.0886404 0.162142 0
127 1 0.117878 0.130548 0
126 1 0.0936967 0.137832 0
157 1 0.113643 0.155238 0
158 1 0.133183 0.172186 0
128 1 0.136769 0.147387 0
159 1 0.16068 0.140228 0
160 1 0.157238 0.164709 0
161 1 0.180457 0.156191 0
132 1 0.184361 0.132105 0
163 1 0.204286 0.149247 0
162 1 0.199259 0.173664 0
165 1 0.2503 0.129306 0
134 1 0.227133 0.139888 0
136 1 0.265046 0.147582 0
164 1 0.244409 0.160097 0
167 1 0.268518 0.172507 0
139 1 0.303595 0.137622 0
138 1 0.287073 0.15614 0
169 1 0.310835 0.161588 0
140 1 0.327658 0.142249 0
142 1 0.351677 0.150018 0
171 1 0.334207 0.167267 0
172 1 0.358479 0.175168 0
143 1 0.368964 0.132254 0
114 1 0.392495 0.138115 0
173 1 0.376032 0.156974 0
144 1 0.401086 0.162651 0
145 1 0.417818 0.144084 0
146 1 0.424494 0.169628 0
147 1 0.441642 0.151893 0
118 1 0.457965 0.13312 0
149 1 0.482791 0.139919 0
148 1 0.465533 0.157668 0
150 1 0.489487 0.164442 0
183 1 0.0424569 0.178479 0
182 1 0.0366449 0.203223 0
1080 1 0.0191506 0.186331 0
211 1 0.0132 0.210521 0
184 1 0.060314 0.195879 0
185 1 0.0834169 0.186756 0
215 1 0.0793202 0.211641 0
186 1 0.102757 0.203604 0
156 1 0.108823 0.179608 0
187 1 0.127892 0.196286 0
189 1 0.151334 0.189724 0
191 1 0.176076 0.182376 0
190 1 0.169316 0.206548 0
188 1 0.145514 0.214719 0
221 1 0.193369 0.212846 0
192 1 0.21109 0.196218 0
193 1 0.225382 0.17593 0
195 1 0.234285 0.204786 0
166 1 0.248927 0.185651 0
196 1 0.2576 0.212365 0
168 1 0.293625 0.179353 0
197 1 0.275625 0.195914 0
199 1 0.299594 0.203218 0
170 1 0.317716 0.185758 0
201 1 0.340992 0.192113 0
200 1 0.323319 0.210027 0
202 1 0.346831 0.216491 0
203 1 0.365407 0.199203 0
174 1 0.383347 0.181032 0
204 1 0.389439 0.206408 0
175 1 0.406941 0.187653 0
177 1 0.448451 0.17584 0
205 1 0.41338 0.211843 0
176 1 0.43155 0.193515 0
178 1 0.455059 0.200734 0
179 1 0.472189 0.182014 0
180 1 0.495882 0.18822 0
209 1 0.479256 0.206776 0
212 1 0.0306831 0.229834 0
241 1 0.026837 0.258117 0
1140 1 0.00739789 0.233952 0
1169 1 0.00175057 0.257455 0
213 1 0.054461 0.219907 0
243 1 0.0506054 0.244534 0
214 1 0.0735252 0.235115 0
244 1 0.0734084 0.259393 0
216 1 0.0978413 0.230825 0
217 1 0.120524 0.220668 0
247 1 0.115411 0.249516 0
218 1 0.137096 0.237458 0
219 1 0.158569 0.247107 0
220 1 0.175588 0.230243 0
222 1 0.180833 0.255629 0
194 1 0.21637 0.220712 0
223 1 0.198913 0.238819 0
224 1 0.221482 0.246576 0
225 1 0.23929 0.230123 0
227 1 0.263433 0.236865 0
226 1 0.245687 0.254971 0
198 1 0.281807 0.220014 0
228 1 0.287 0.245037 0
229 1 0.305114 0.227178 0
230 1 0.311046 0.251811 0
231 1 0.329107 0.234686 0
232 1 0.352461 0.240884 0
261 1 0.335426 0.258903 0
233 1 0.370529 0.223789 0
234 1 0.377294 0.247888 0
235 1 0.39475 0.230228 0
265 1 0.402562 0.254625 0
207 1 0.43716 0.218134 0
206 1 0.418947 0.236829 0
237 1 0.443657 0.242355 0
236 1 0.427142 0.261251 0
208 1 0.461442 0.224357 0
210 1 0.484951 0.231223 0
239 1 0.467661 0.248828 0
240 1 0.4919 0.256362 0
271 1 0.0339932 0.289123 0
1170 1 0.0121319 0.278812 0
1200 1 0.0139164 0.303333 0
242 1 0.0496923 0.26962 0
273 1 0.0572012 0.2961 0
275 1 0.0775047 0.28272 0
245 1 0.0970402 0.267587 0
246 1 0.100299 0.291578 0
248 1 0.11937 0.276997 0
279 1 0.123984 0.302178 0
249 1 0.138124 0.261727 0
251 1 0.162415 0.270917 0
250 1 0.142729 0.28609 0
281 1 0.16594 0.295642 0
253 1 0.204466 0.263399 0
252 1 0.185995 0.279407 0
254 1 0.209444 0.288273 0
257 1 0.26893 0.261787 0
255 1 0.228414 0.272564 0
256 1 0.25143 0.279852 0
285 1 0.232139 0.297459 0
259 1 0.293706 0.269194 0
258 1 0.27474 0.286432 0
289 1 0.298347 0.293829 0
260 1 0.317257 0.27735 0
263 1 0.359729 0.264735 0
262 1 0.341531 0.283862 0
291 1 0.323194 0.301266 0
293 1 0.365424 0.28996 0
264 1 0.38345 0.273704 0
295 1 0.390158 0.296878 0
266 1 0.408157 0.278281 0
238 1 0.451288 0.266999 0
267 1 0.43336 0.285333 0
297 1 0.415347 0.303437 0
268 1 0.457043 0.291605 0
269 1 0.474939 0.274315 0
270 1 0.481016 0.297734 0
1141 1 0.498871 0.280374 0
301 1 0.0176564 0.327733 0
272 1 0.0380909 0.312837 0
303 1 0.04089 0.337259 0
276 1 0.0807766 0.306817 0
274 1 0.0606178 0.32137 0
305 1 0.084719 0.331266 0
304 1 0.0647739 0.346444 0
277 1 0.104112 0.316737 0
278 1 0.128525 0.326649 0
307 1 0.108169 0.340826 0
280 1 0.147233 0.31105 0
311 1 0.150886 0.336982 0
282 1 0.170607 0.320509 0
312 1 0.174769 0.345632 0
283 1 0.189419 0.304605 0
284 1 0.213248 0.313626 0
313 1 0.194012 0.330196 0
315 1 0.217711 0.338671 0
287 1 0.256227 0.305913 0
286 1 0.237211 0.322496 0
317 1 0.262533 0.331206 0
316 1 0.242534 0.347434 0
288 1 0.280183 0.311633 0
318 1 0.286731 0.336624 0
290 1 0.305092 0.318068 0
319 1 0.311098 0.343447 0
292 1 0.3477 0.30841 0
321 1 0.329957 0.326105 0
323 1 0.35419 0.332112 0
324 1 0.37963 0.338378 0
294 1 0.372539 0.314184 0
325 1 0.404326 0.34541 0
296 1 0.397175 0.320442 0
298 1 0.438624 0.309399 0
327 1 0.42128 0.326964 0
328 1 0.44568 0.333668 0
329 1 0.469815 0.340842 0
299 1 0.462961 0.316506 0
300 1 0.486748 0.322806 0
1201 1 0.495293 0.346706 0
302 1 0.020777 0.352862 0
332 1 0.0242946 0.377339 0
333 1 0.0449394 0.361311 0
361 1 0.00344569 0.391592 0
335 1 0.0680459 0.371178 0
334 1 0.0470209 0.385981 0
306 1 0.0880511 0.356166 0
337 1 0.0911574 0.380855 0
308 1 0.110466 0.365245 0
309 1 0.130067 0.351394 0
339 1 0.13438 0.375703 0
338 1 0.113988 0.390129 0
310 1 0.153696 0.361075 0
341 1 0.157965 0.385898 0
343 1 0.177434 0.369363 0
314 1 0.198681 0.353941 0
344 1 0.201734 0.378458 0
345 1 0.222368 0.363447 0
375 1 0.225441 0.388736 0
347 1 0.267835 0.355489 0
346 1 0.24567 0.371802 0
377 1 0.272757 0.380865 0
349 1 0.291803 0.362342 0
348 1 0.299103 0.385942 0
350 1 0.317292 0.366469 0
320 1 0.336165 0.349722 0
351 1 0.342944 0.372722 0
322 1 0.361438 0.355669 0
381 1 0.325583 0.389436 0
353 1 0.367532 0.379964 0
355 1 0.385899 0.362469 0
354 1 0.391579 0.386777 0
356 1 0.410383 0.369447 0
326 1 0.428295 0.350977 0
357 1 0.434134 0.375757 0
359 1 0.452377 0.357852 0
358 1 0.458333 0.382287 0
330 1 0.475932 0.365405 0
360 1 0.482322 0.389132 0
363 1 0.0274485 0.402024 0
362 1 0.00674456 0.416555 0
364 1 0.0300761 0.425597 0
336 1 0.069812 0.395487 0
365 1 0.0498743 0.411522 0
366 1 0.0730993 0.420432 0
367 1 0.0938861 0.405749 0
369 1 0.118151 0.415926 0
368 1 0.0983631 0.430217 0
340 1 0.137106 0.400556 0
370 1 0.141628 0.425362 0
371 1 0.161361 0.410065 0
401 1 0.164922 0.434067 0
342 1 0.181991 0.393666 0
372 1 0.184628 0.417681 0
373 1 0.205772 0.403567 0
403 1 0.208511 0.428436 0
374 1 0.228304 0.413922 0
376 1 0.248314 0.396865 0
405 1 0.251106 0.423876 0
378 1 0.270824 0.408929 0
379 1 0.310849 0.408101 0
409 1 0.292508 0.4217 0
410 1 0.316141 0.431781 0
352 1 0.350583 0.397709 0
382 1 0.35848 0.422705 0
380 1 0.333345 0.414119 0
383 1 0.374968 0.405117 0
385 1 0.399045 0.411467 0
384 1 0.382253 0.429538 0
387 1 0.41662 0.393047 0
386 1 0.422847 0.41886 0
388 1 0.440779 0.40062 0
419 1 0.447133 0.424885 0
389 1 0.466076 0.407319 0
1261 1 0.490022 0.413542 0
390 1 0.472996 0.432011 0
393 1 0.00994673 0.440382 0
423 1 0.014235 0.464851 0
394 1 0.0333346 0.449072 0
425 1 0.0377993 0.474091 0
395 1 0.0538569 0.435941 0
396 1 0.0572476 0.459425 0
397 1 0.0773258 0.44475 0
427 1 0.0802385 0.469117 0
399 1 0.121616 0.440194 0
398 1 0.100732 0.454845 0
429 1 0.12481 0.464696 0
400 1 0.144758 0.449933 0
431 1 0.168071 0.459395 0
430 1 0.146487 0.474517 0
402 1 0.187218 0.442421 0
433 1 0.210208 0.453272 0
432 1 0.190277 0.468405 0
434 1 0.213673 0.478179 0
404 1 0.23149 0.439545 0
406 1 0.25371 0.448991 0
435 1 0.233373 0.464259 0
436 1 0.256763 0.474191 0
407 1 0.273451 0.434762 0
437 1 0.275573 0.460278 0
408 1 0.297331 0.447641 0
439 1 0.301618 0.471797 0
441 1 0.32136 0.456653 0
411 1 0.339726 0.439492 0
412 1 0.345763 0.463613 0
413 1 0.364818 0.446672 0
415 1 0.406554 0.436529 0
414 1 0.388584 0.453501 0
443 1 0.370917 0.470366 0
445 1 0.395108 0.478057 0
416 1 0.412859 0.460954 0
417 1 0.430269 0.443593 0
447 1 0.436141 0.467327 0
418 1 0.455548 0.449631 0
1291 1 0.497348 0.437324 0
420 1 0.479017 0.455787 0
449 1 0.461692 0.473713 0
454 1 0.0213763 0.515243 0
424 1 0.017705 0.489868 0
455 1 0.0407185 0.500334 0
426 1 0.0600762 0.484731 0
456 1 0.0642796 0.509919 0
457 1 0.0840236 0.494324 0
487 1 0.087188 0.520102 0
428 1 0.10439 0.478437 0
459 1 0.127215 0.489712 0
458 1 0.107293 0.505139 0
489 1 0.129707 0.514874 0
461 1 0.170345 0.484039 0
460 1 0.150548 0.499114 0
462 1 0.173642 0.508898 0
463 1 0.194072 0.494047 0
464 1 0.216471 0.503691 0
493 1 0.195426 0.51875 0
465 1 0.235803 0.489522 0
467 1 0.260145 0.498149 0
466 1 0.239707 0.513204 0
438 1 0.280808 0.483772 0
469 1 0.307012 0.496946 0
468 1 0.284576 0.50863 0
470 1 0.313552 0.520754 0
440 1 0.32699 0.481611 0
442 1 0.352602 0.487378 0
471 1 0.333871 0.505651 0
473 1 0.358209 0.512248 0
444 1 0.37588 0.494984 0
475 1 0.400602 0.503063 0
474 1 0.383236 0.520552 0
446 1 0.419051 0.485036 0
477 1 0.425644 0.509075 0
448 1 0.442645 0.491525 0
478 1 0.449736 0.516849 0
450 1 0.485328 0.4814 0
479 1 0.467209 0.498835 0
1381 1 0.491686 0.505357 0
483 1 0.0245316 0.539515 0
482 1 0.00407629 0.55543 0
485 1 0.0446013 0.524508 0
513 1 0.0277658 0.565189 0
452 1 0.000685056 0.529154 0
484 1 0.0477164 0.550742 0
486 1 0.0671604 0.535648 0
515 1 0.0707406 0.560206 0
517 1 0.0903698 0.545365 0
488 1 0.10965 0.530169 0
519 1 0.113956 0.554786 0
490 1 0.133636 0.539175 0
520 1 0.136863 0.564638 0
491 1 0.153267 0.523848 0
521 1 0.156225 0.548735 0
492 1 0.176442 0.534383 0
523 1 0.178636 0.558854 0
494 1 0.199076 0.544083 0
495 1 0.219012 0.528866 0
525 1 0.222594 0.555263 0
496 1 0.24238 0.538734 0
497 1 0.263261 0.523268 0
527 1 0.265399 0.548101 0
526 1 0.246158 0.56485 0
499 1 0.306011 0.543392 0
498 1 0.285018 0.532905 0
529 1 0.28671 0.558948 0
472 1 0.341674 0.530631 0
501 1 0.32806 0.551205 0
502 1 0.350841 0.557069 0
503 1 0.365285 0.537609 0
505 1 0.389525 0.544871 0
476 1 0.40755 0.527807 0
504 1 0.373527 0.562816 0
506 1 0.414429 0.552142 0
507 1 0.431221 0.533199 0
508 1 0.437778 0.55842 0
509 1 0.456572 0.540256 0
480 1 0.474223 0.52254 0
510 1 0.480651 0.54721 0
1382 1 0.498571 0.529176 0
539 1 0.461932 0.565207 0
512 1 0.0306341 0.59049 0
511 1 0.00711953 0.580407 0
541 1 0.0094596 0.604877 0
514 1 0.0510813 0.575604 0
545 1 0.0727721 0.585615 0
543 1 0.05275 0.600737 0
516 1 0.092948 0.569821 0
518 1 0.115831 0.579951 0
547 1 0.0957554 0.595412 0
548 1 0.118948 0.605343 0
549 1 0.138781 0.589396 0
522 1 0.159468 0.574828 0
551 1 0.162396 0.599567 0
553 1 0.182882 0.583782 0
524 1 0.201454 0.568651 0
554 1 0.205796 0.59447 0
555 1 0.225588 0.579926 0
556 1 0.228187 0.604046 0
557 1 0.248963 0.589994 0
528 1 0.26764 0.574151 0
558 1 0.271156 0.600077 0
500 1 0.309685 0.568187 0
559 1 0.290308 0.584735 0
530 1 0.313654 0.59265 0
531 1 0.332512 0.575123 0
532 1 0.338344 0.599014 0
533 1 0.356402 0.581626 0
563 1 0.362059 0.605424 0
534 1 0.379601 0.58712 0
535 1 0.396581 0.56919 0
536 1 0.403412 0.593498 0
537 1 0.420703 0.576183 0
567 1 0.427317 0.600506 0
538 1 0.444984 0.582899 0
568 1 0.451028 0.607606 0
540 1 0.486603 0.571294 0
569 1 0.468515 0.589589 0
1441 1 0.493671 0.596087 0
542 1 0.0327902 0.615463 0
571 1 0.0126984 0.629167 0
573 1 0.0356606 0.639779 0
546 1 0.0745879 0.610865 0
544 1 0.0554137 0.626138 0
575 1 0.0784296 0.634894 0
574 1 0.0589212 0.650195 0
577 1 0.09923 0.6198 0
579 1 0.122257 0.630224 0
576 1 0.101606 0.644706 0
550 1 0.142811 0.615048 0
581 1 0.165815 0.624303 0
580 1 0.145234 0.639176 0
611 1 0.168245 0.649092 0
552 1 0.186149 0.609082 0
582 1 0.189347 0.634374 0
583 1 0.208899 0.618935 0
584 1 0.212463 0.645322 0
585 1 0.232062 0.630285 0
586 1 0.255423 0.640292 0
587 1 0.251984 0.615544 0
560 1 0.294577 0.608963 0
589 1 0.274628 0.624869 0
590 1 0.301395 0.634698 0
588 1 0.280247 0.649274 0
561 1 0.319411 0.617299 0
562 1 0.343595 0.623118 0
591 1 0.326161 0.641401 0
593 1 0.350686 0.64826 0
565 1 0.385391 0.611205 0
564 1 0.368119 0.628951 0
595 1 0.391642 0.635063 0
566 1 0.409531 0.618444 0
596 1 0.416528 0.64186 0
597 1 0.43376 0.624828 0
599 1 0.441252 0.649007 0
570 1 0.475635 0.613556 0
600 1 0.458369 0.631065 0
1471 1 0.482848 0.637838 0
572 1 0.016089 0.654608 0
602 1 0.0193332 0.68002 0
603 1 0.0389622 0.665291 0
633 1 0.0412758 0.690161 0
605 1 0.0816531 0.659673 0
604 1 0.0624349 0.6757 0
606 1 0.0852989 0.685419 0
578 1 0.124423 0.654287 0
607 1 0.105026 0.669143 0
608 1 0.127488 0.679816 0
637 1 0.107162 0.695023 0
609 1 0.148224 0.664893 0
610 1 0.170948 0.674406 0
639 1 0.150512 0.689214 0
612 1 0.193609 0.683886 0
613 1 0.191675 0.658674 0
614 1 0.215755 0.669309 0
643 1 0.216354 0.694188 0
615 1 0.236319 0.655021 0
616 1 0.238267 0.679148 0
617 1 0.259636 0.665195 0
647 1 0.262513 0.689073 0
619 1 0.307084 0.658607 0
618 1 0.284749 0.674763 0
620 1 0.314386 0.681941 0
621 1 0.331809 0.665058 0
592 1 0.357106 0.671923 0
622 1 0.33903 0.688433 0
594 1 0.374116 0.653304 0
625 1 0.39887 0.659107 0
623 1 0.382088 0.676977 0
626 1 0.406462 0.684238 0
653 1 0.364591 0.69581 0
598 1 0.447844 0.673407 0
627 1 0.422798 0.665482 0
657 1 0.430578 0.69075 0
628 1 0.471907 0.680137 0
629 1 0.465574 0.655475 0
1501 1 0.489739 0.662374 0
630 1 0.496272 0.686489 0
632 1 0.0216634 0.705797 0
663 1 0.0247317 0.731395 0
634 1 0.0445448 0.715889 0
1560 1 0.00120615 0.720541 0
635 1 0.0645529 0.700131 0
636 1 0.0870994 0.711373 0
665 1 0.0667614 0.725338 0
666 1 0.089859 0.736226 0
638 1 0.130393 0.705036 0
667 1 0.110285 0.72005 0
669 1 0.132388 0.729975 0
641 1 0.173869 0.699431 0
640 1 0.152969 0.713922 0
671 1 0.175497 0.725897 0
642 1 0.195992 0.708944 0
644 1 0.218122 0.719794 0
673 1 0.198098 0.735122 0
645 1 0.238644 0.703701 0
675 1 0.24007 0.729303 0
646 1 0.259713 0.713907 0
677 1 0.263833 0.737708 0
649 1 0.297285 0.69992 0
648 1 0.282439 0.720249 0
679 1 0.305663 0.725403 0
650 1 0.321756 0.705997 0
651 1 0.345607 0.712384 0
681 1 0.329265 0.731256 0
652 1 0.353299 0.736069 0
624 1 0.389078 0.701196 0
654 1 0.370475 0.719381 0
685 1 0.394801 0.725382 0
655 1 0.413325 0.708272 0
656 1 0.437631 0.714547 0
686 1 0.420126 0.733547 0
658 1 0.455135 0.6972 0
687 1 0.460736 0.721484 0
659 1 0.47869 0.704724 0
689 1 0.484229 0.729033 0
662 1 0.0267075 0.757045 0
691 1 0.00701283 0.770818 0
661 1 0.00423357 0.745618 0
664 1 0.0467877 0.740569 0
694 1 0.0483115 0.767306 0
695 1 0.0688134 0.751048 0
696 1 0.0714693 0.775171 0
697 1 0.092702 0.760363 0
668 1 0.11253 0.746118 0
698 1 0.115806 0.771417 0
699 1 0.136072 0.75563 0
700 1 0.139568 0.779723 0
670 1 0.155347 0.739777 0
701 1 0.159301 0.765546 0
672 1 0.179132 0.749831 0
702 1 0.182384 0.77705 0
674 1 0.221293 0.744497 0
703 1 0.202506 0.761234 0
705 1 0.226574 0.769987 0
676 1 0.246087 0.754263 0
707 1 0.270755 0.761479 0
735 1 0.250943 0.777346 0
678 1 0.287754 0.743617 0
709 1 0.294554 0.766474 0
680 1 0.312289 0.749815 0
710 1 0.319157 0.773768 0
682 1 0.360482 0.762083 0
711 1 0.337482 0.754896 0
741 1 0.34288 0.780072 0
683 1 0.377159 0.743387 0
713 1 0.384275 0.768705 0
684 1 0.401577 0.750371 0
716 1 0.40804 0.773852 0
717 1 0.444216 0.740335 0
715 1 0.426703 0.757279 0
718 1 0.449727 0.765651 0
1591 1 0.497587 0.779068 0
690 1 0.49159 0.753949 0
688 1 0.467564 0.747908 0
719 1 0.473433 0.772433 0
693 1 0.02843 0.783275 0
692 1 0.00746204 0.797655 0
722 1 0.00542181 0.823488 0
723 1 0.0292018 0.810159 0
725 1 0.0503943 0.794093 0
726 1 0.0739289 0.799944 0
755 1 0.0701322 0.82465 0
727 1 0.0953432 0.787231 0
728 1 0.115581 0.803802 0
757 1 0.0938005 0.815129 0
759 1 0.135004 0.826572 0
729 1 0.139769 0.803326 0
730 1 0.160458 0.81578 0
731 1 0.162153 0.790748 0
732 1 0.185098 0.805247 0
704 1 0.20634 0.786122 0
734 1 0.216633 0.810062 0
763 1 0.198992 0.825559 0
733 1 0.233982 0.794367 0
736 1 0.257255 0.802258 0
765 1 0.23868 0.819427 0
706 1 0.275604 0.785471 0
737 1 0.281144 0.808824 0
708 1 0.299998 0.791636 0
738 1 0.306066 0.8159 0
739 1 0.32461 0.798367 0
742 1 0.348186 0.803826 0
740 1 0.330055 0.822352 0
712 1 0.367076 0.786481 0
714 1 0.390775 0.792982 0
743 1 0.372932 0.81075 0
745 1 0.396029 0.81771 0
747 1 0.431587 0.781824 0
746 1 0.41493 0.800323 0
748 1 0.438193 0.807203 0
777 1 0.420054 0.825152 0
749 1 0.455821 0.789988 0
720 1 0.480238 0.797042 0
750 1 0.461402 0.815026 0
1621 1 0.486083 0.821391 0
753 1 0.0230629 0.841552 0
783 1 0.0175455 0.865932 0
754 1 0.0421841 0.857441 0
724 1 0.0458039 0.831449 0
785 1 0.0653844 0.848677 0
786 1 0.0832249 0.866371 0
756 1 0.088621 0.841233 0
758 1 0.111589 0.832926 0
787 1 0.108003 0.857327 0
789 1 0.131217 0.850426 0
760 1 0.153973 0.842024 0
791 1 0.172257 0.858957 0
761 1 0.176426 0.833357 0
790 1 0.149083 0.867185 0
762 1 0.197262 0.849532 0
764 1 0.22075 0.838515 0
793 1 0.216535 0.865415 0
795 1 0.245686 0.844378 0
767 1 0.264416 0.826959 0
766 1 0.269391 0.850588 0
796 1 0.252557 0.868406 0
769 1 0.31287 0.839655 0
768 1 0.288178 0.833416 0
799 1 0.295188 0.858201 0
770 1 0.337019 0.84641 0
771 1 0.354182 0.828675 0
773 1 0.361306 0.853463 0
801 1 0.320245 0.864146 0
744 1 0.379356 0.836646 0
774 1 0.385563 0.861202 0
775 1 0.403202 0.842607 0
807 1 0.426937 0.85059 0
778 1 0.44448 0.832186 0
809 1 0.451282 0.857847 0
776 1 0.409853 0.867946 0
779 1 0.467899 0.839689 0
780 1 0.475147 0.863713 0
1651 1 0.492604 0.845921 0
812 1 0.0128433 0.890308 0
814 1 0.0303095 0.907551 0
813 1 0.0365832 0.882136 0
784 1 0.06032 0.874246 0
815 1 0.0555308 0.898324 0
816 1 0.0785705 0.890975 0
788 1 0.126078 0.874665 0
817 1 0.102221 0.882075 0
819 1 0.120122 0.899754 0
818 1 0.0962996 0.908531 0
821 1 0.168061 0.883733 0
820 1 0.143734 0.89101 0
851 1 0.162271 0.907926 0
792 1 0.191262 0.874476 0
823 1 0.210327 0.891159 0
822 1 0.185191 0.900004 0
794 1 0.233845 0.88437 0
827 1 0.258169 0.894055 0
825 1 0.228921 0.908996 0
797 1 0.27706 0.875578 0
798 1 0.2856 0.899451 0
800 1 0.302707 0.882447 0
829 1 0.308268 0.90796 0
831 1 0.326879 0.890522 0
772 1 0.343578 0.872165 0
802 1 0.349772 0.897663 0
803 1 0.368115 0.879129 0
804 1 0.375944 0.904349 0
805 1 0.39181 0.885292 0
835 1 0.399821 0.910349 0
806 1 0.416002 0.892088 0
808 1 0.433476 0.874936 0
839 1 0.44011 0.899357 0
1681 1 0.48182 0.889131 0
810 1 0.457395 0.882043 0
840 1 0.464527 0.906261 0
1652 1 0.499224 0.86971 0
843 1 0.00655472 0.915609 0
844 1 0.0266721 0.93108 0
842 1 0.00198436 0.939621 0
875 1 0.044851 0.948825 0
847 1 0.0731953 0.916077 0
845 1 0.0492861 0.924052 0
846 1 0.0675874 0.940487 0
848 1 0.0916485 0.933169 0
849 1 0.115304 0.924667 0
879 1 0.110763 0.950127 0
881 1 0.134546 0.94082 0
850 1 0.138536 0.916107 0
852 1 0.157101 0.933033 0
883 1 0.177249 0.949762 0
853 1 0.181194 0.924081 0
824 1 0.204711 0.915143 0
854 1 0.200247 0.941561 0
855 1 0.222971 0.933245 0
826 1 0.246567 0.925195 0
857 1 0.266457 0.940474 0
856 1 0.243275 0.949947 0
828 1 0.26843 0.916688 0
859 1 0.290516 0.92867 0
830 1 0.315898 0.931952 0
833 1 0.357607 0.921546 0
832 1 0.332335 0.914879 0
861 1 0.339064 0.939513 0
863 1 0.363713 0.946061 0
834 1 0.381444 0.928451 0
865 1 0.405056 0.935376 0
864 1 0.387813 0.95301 0
837 1 0.423154 0.917348 0
836 1 0.428747 0.942106 0
838 1 0.447603 0.92474 0
870 1 0.453632 0.949135 0
1711 1 0.488259 0.912764 0
869 1 0.471428 0.932616 0
1712 1 0.495739 0.936115 0
1741 1 0.477876 0.956403 0
873 1 0.0210331 0.956489 0
3 1 0.0346707 0.997761 0
872 1 0.0157582 0.98145 0
874 1 0.0401939 0.972911 0
877 1 0.0866168 0.957842 0
5 1 0.0588634 0.990437 0
876 1 0.0635796 0.96483 0
7 1 0.0824041 0.982274 0
8 1 0.100394 0.998742 0
9 1 0.124539 0.989542 0
878 1 0.10522 0.973618 0
880 1 0.129911 0.964581 0
882 1 0.153975 0.957739 0
41 1 0.166661 0.999793 0
11 1 0.148154 0.982421 0
13 1 0.171685 0.975221 0
885 1 0.219696 0.957959 0
12 1 0.190437 0.991003 0
15 1 0.213994 0.982528 0
884 1 0.19593 0.966645 0
886 1 0.233191 0.998921 0
17 1 0.256875 0.991604 0
887 1 0.238718 0.974496 0
888 1 0.262829 0.965669 0
858 1 0.286503 0.955678 0
19 1 0.281799 0.981807 0
889 1 0.305349 0.975935 0
860 1 0.322238 0.957921 0
862 1 0.346459 0.964315 0
891 1 0.328676 0.984161 0
892 1 0.353115 0.98905 0
23 1 0.376761 0.995078 0
893 1 0.370614 0.97135 0
895 1 0.394569 0.977786 0
896 1 0.419088 0.984081 0
867 1 0.435758 0.966526 0
866 1 0.411443 0.960064 0
897 1 0.44216 0.991358 0
899 1 0.465996 0.997834 0
1771 1 0.483523 0.979679 0
868 1 0.459787 0.973631 0
931 1 0.521003 0.0362789 0
901 1 0.514689 0.0111154 0
902 1 0.538396 0.0179239 0
933 1 0.545431 0.0423665 0
904 1 0.562314 0.0244458 0
906 1 0.580669 0.00590406 0
935 1 0.586725 0.0299059 0
908 1 0.604292 0.0134015 0
939 1 0.628194 0.0193314 0
937 1 0.610176 0.0373276 0
941 1 0.652111 0.0269303 0
912 1 0.669435 0.00876975 0
942 1 0.676244 0.0337762 0
910 1 0.645512 0.00203928 0
943 1 0.693655 0.0169386 0
945 1 0.717277 0.0217608 0
944 1 0.700833 0.0407941 0
914 1 0.740639 0.0283549 0
916 1 0.765001 0.0203932 0
915 1 0.74277 0.00404132 0
918 1 0.783776 0.0369428 0
919 1 0.807387 0.0292806 0
917 1 0.788967 0.0127906 0
1788 1 0.811751 0.00470774 0
920 1 0.830718 0.0216179 0
922 1 0.848613 0.037839 0
921 1 0.853425 0.0132881 0
923 1 0.872946 0.0310893 0
924 1 0.896118 0.0219277 0
1792 1 0.877519 0.00640785 0
955 1 0.91579 0.0382459 0
925 1 0.920091 0.0141417 0
926 1 0.939589 0.0304043 0
928 1 0.943946 0.00578204 0
930 1 0.986894 0.0141875 0
959 1 0.963295 0.0220184 0
960 1 0.982082 0.0383596 0
932 1 0.527685 0.0598954 0
961 1 0.510513 0.0787505 0
60 1 0.503182 0.0534257 0
962 1 0.535297 0.0837549 0
963 1 0.552709 0.0664591 0
934 1 0.569433 0.0476464 0
965 1 0.576393 0.0741284 0
936 1 0.592918 0.055828 0
967 1 0.617391 0.0626157 0
966 1 0.600316 0.0806452 0
938 1 0.634372 0.0442318 0
968 1 0.624678 0.0872514 0
969 1 0.64173 0.0684423 0
940 1 0.658897 0.0510428 0
970 1 0.665135 0.0754696 0
971 1 0.683812 0.0581164 0
973 1 0.707387 0.065599 0
972 1 0.689597 0.0820118 0
975 1 0.724076 0.0471778 0
947 1 0.759909 0.0453966 0
974 1 0.731009 0.07194 0
946 1 0.755531 0.0707086 0
977 1 0.775313 0.0857216 0
949 1 0.802769 0.0538611 0
948 1 0.779304 0.0610648 0
979 1 0.798392 0.0789375 0
951 1 0.825793 0.0465422 0
950 1 0.821388 0.0706727 0
952 1 0.845208 0.0620726 0
980 1 0.840812 0.0873635 0
981 1 0.863941 0.0787301 0
954 1 0.892461 0.0460133 0
953 1 0.868121 0.0543525 0
983 1 0.88727 0.0713248 0
985 1 0.911041 0.0640633 0
956 1 0.93433 0.0549892 0
986 1 0.929688 0.0799186 0
987 1 0.952866 0.0717042 0
957 1 0.957353 0.0463121 0
958 1 0.976845 0.0632009 0
989 1 0.995836 0.0802469 0
991 1 0.518021 0.10275 0
993 1 0.542255 0.109261 0
992 1 0.524698 0.128582 0
964 1 0.559078 0.091523 0
994 1 0.56638 0.11602 0
995 1 0.58351 0.0984774 0
996 1 0.589692 0.123395 0
997 1 0.606898 0.105603 0
998 1 0.631267 0.110873 0
1027 1 0.614109 0.130085 0
999 1 0.648741 0.0934202 0
1000 1 0.656499 0.117929 0
1001 1 0.672863 0.100247 0
1031 1 0.679985 0.12452 0
1002 1 0.697653 0.107524 0
1003 1 0.714853 0.089278 0
1004 1 0.721551 0.11331 0
976 1 0.76804 0.108615 0
1005 1 0.745245 0.0940084 0
1035 1 0.745595 0.119604 0
978 1 0.816916 0.0948523 0
1007 1 0.792471 0.102972 0
1006 1 0.785015 0.126434 0
1008 1 0.810651 0.119087 0
1009 1 0.834873 0.111336 0
1010 1 0.854007 0.127908 0
1011 1 0.858323 0.103596 0
984 1 0.906229 0.0890256 0
982 1 0.881885 0.0957665 0
1012 1 0.877994 0.119704 0
1013 1 0.900638 0.113207 0
1016 1 0.920393 0.130153 0
1017 1 0.947728 0.0959938 0
1015 1 0.924142 0.105482 0
1047 1 0.94361 0.120235 0
988 1 0.970466 0.0882333 0
1018 1 0.966248 0.112453 0
1019 1 0.990059 0.104421 0
1020 1 0.985474 0.128908 0
1022 1 0.531432 0.152469 0
1021 1 0.506186 0.146065 0
1051 1 0.513448 0.169697 0
1023 1 0.549521 0.134674 0
1024 1 0.555954 0.159526 0
1025 1 0.57245 0.140696 0
1055 1 0.580688 0.165259 0
1026 1 0.596967 0.147278 0
1028 1 0.621837 0.15372 0
1057 1 0.605687 0.172157 0
1029 1 0.639016 0.135594 0
1059 1 0.645043 0.160467 0
1030 1 0.663124 0.142982 0
1061 1 0.669943 0.167553 0
1033 1 0.704506 0.13154 0
1032 1 0.686819 0.150441 0
1063 1 0.710446 0.156317 0
1034 1 0.72938 0.138009 0
1036 1 0.75352 0.144712 0
1065 1 0.735326 0.1623 0
1066 1 0.758743 0.169414 0
1067 1 0.780338 0.152274 0
1037 1 0.805 0.142864 0
1038 1 0.801035 0.166739 0
1039 1 0.828815 0.135653 0
1040 1 0.823749 0.159208 0
1041 1 0.846991 0.151708 0
1042 1 0.867051 0.168128 0
1014 1 0.896297 0.137555 0
1043 1 0.871898 0.143987 0
1044 1 0.890788 0.161485 0
1045 1 0.914652 0.154234 0
1046 1 0.938535 0.145607 0
1077 1 0.932836 0.170224 0
1048 1 0.957261 0.161876 0
1049 1 0.961202 0.137015 0
1050 1 0.981283 0.152669 0
151 1 1.00039 0.169882 0
1053 1 0.537668 0.176483 0
1052 1 0.519797 0.194983 0
1081 1 0.502489 0.213176 0
1083 1 0.544194 0.200994 0
1054 1 0.562119 0.183189 0
1056 1 0.586778 0.189821 0
1085 1 0.569269 0.207312 0
1058 1 0.628944 0.179275 0
1087 1 0.611289 0.19616 0
1086 1 0.593243 0.214865 0
1089 1 0.635598 0.203736 0
1060 1 0.652865 0.185523 0
1091 1 0.676597 0.19217 0
1090 1 0.659013 0.210322 0
1062 1 0.694145 0.174452 0
1093 1 0.700724 0.199415 0
1064 1 0.718965 0.180858 0
1094 1 0.724223 0.205995 0
1092 1 0.682928 0.217738 0
1095 1 0.741976 0.188679 0
1097 1 0.765326 0.195869 0
1096 1 0.748945 0.214231 0
1068 1 0.780728 0.178823 0
1098 1 0.790737 0.202444 0
1099 1 0.815413 0.209315 0
1069 1 0.817697 0.184589 0
1071 1 0.84269 0.17616 0
1070 1 0.83703 0.199766 0
1072 1 0.860967 0.194565 0
1073 1 0.884576 0.186026 0
1103 1 0.879492 0.210631 0
1074 1 0.903243 0.202491 0
1075 1 0.908366 0.178186 0
1078 1 0.952238 0.185531 0
1076 1 0.927947 0.194067 0
1107 1 0.946496 0.209999 0
1079 1 0.976777 0.177539 0
1109 1 0.970489 0.2023 0
181 1 0.995047 0.193567 0
1110 1 0.98779 0.219114 0
1082 1 0.527892 0.219267 0
1111 1 0.509685 0.237265 0
1113 1 0.533863 0.243661 0
1084 1 0.551721 0.226851 0
1114 1 0.558492 0.251071 0
1115 1 0.576049 0.232776 0
1116 1 0.581895 0.257452 0
1088 1 0.61687 0.221332 0
1117 1 0.600071 0.239845 0
1118 1 0.624002 0.245818 0
1119 1 0.642023 0.227767 0
1121 1 0.666071 0.235436 0
1120 1 0.64899 0.252842 0
1151 1 0.672688 0.25992 0
1122 1 0.690318 0.243078 0
1123 1 0.706834 0.22416 0
1124 1 0.714268 0.248716 0
1125 1 0.731645 0.230544 0
1126 1 0.756582 0.237189 0
1155 1 0.738931 0.254953 0
1127 1 0.773468 0.220031 0
1129 1 0.797871 0.226634 0
1128 1 0.780441 0.243945 0
1159 1 0.806171 0.249725 0
1101 1 0.854533 0.218944 0
1100 1 0.824487 0.232696 0
1130 1 0.830196 0.257675 0
1131 1 0.85024 0.243718 0
1102 1 0.873777 0.235442 0
1104 1 0.897963 0.226467 0
1133 1 0.892705 0.251175 0
1105 1 0.922851 0.217684 0
1135 1 0.917077 0.241966 0
1106 1 0.941844 0.233869 0
1136 1 0.936331 0.257598 0
1137 1 0.959937 0.250577 0
1108 1 0.96493 0.226167 0
1139 1 0.983097 0.243032 0
1112 1 0.516109 0.262428 0