ITEM: TIMESTEP
214000
ITEM: NUMBER OF ATOMS
1800
ITEM: BOX BOUNDS pp pp pp
1.4260004723436452e+00 1.6357399952765354e+02
1.4260004723436452e+00 1.6357399952765354e+02
0.0000000000000000e+00 5.5000000000000000e+00
ITEM: ATOMS id type xs ys zs
2 1 0.0121675 0.00553668 0
33 1 0.0309866 0.0222129 0
31 1 0.0069521 0.0306886 0
4 1 0.0548777 0.0130829 0
6 1 0.0790674 0.00560203 0
35 1 0.0734081 0.0298664 0
34 1 0.049286 0.0381388 0
37 1 0.0975405 0.0227708 0
39 1 0.120843 0.0140825 0
38 1 0.115663 0.0392758 0
40 1 0.138545 0.0310932 0
10 1 0.143661 0.00677676 0
42 1 0.162919 0.0228979 0
73 1 0.181114 0.0393155 0
43 1 0.185485 0.0151845 0
14 1 0.209259 0.0067689 0
44 1 0.204509 0.031774 0
45 1 0.228172 0.0246458 0
16 1 0.252267 0.016569 0
75 1 0.24717 0.0406195 0
46 1 0.271242 0.0322756 0
18 1 0.276592 0.00792253 0
49 1 0.294758 0.0244729 0
20 1 0.308463 0.00308629 0
51 1 0.319193 0.0273884 0
22 1 0.342833 0.0328967 0
21 1 0.358644 0.0136924 0
890 1 0.334032 0.00757688 0
24 1 0.382173 0.021113 0
53 1 0.365933 0.039846 0
894 1 0.399202 0.00348187 0
25 1 0.407131 0.0273744 0
26 1 0.431282 0.0340927 0
27 1 0.425602 0.0101282 0
898 1 0.450752 0.0173184 0
28 1 0.45728 0.0417434 0
29 1 0.474573 0.0238654 0
900 1 0.492379 0.00637345 0
30 1 0.497654 0.0311089 0
32 1 0.0247542 0.046714 0
62 1 0.0207037 0.0706438 0
63 1 0.0444545 0.0627788 0
61 1 0.0002074 0.054817 0
93 1 0.03991 0.0879509 0
65 1 0.0686231 0.0552455 0
66 1 0.087768 0.0721383 0
64 1 0.0640528 0.0795499 0
36 1 0.0917732 0.0463457 0
67 1 0.111904 0.0643573 0
69 1 0.13505 0.0561046 0
68 1 0.129519 0.080482 0
71 1 0.158416 0.0471771 0
72 1 0.176152 0.064963 0
70 1 0.153014 0.0726951 0
74 1 0.223477 0.0486156 0
103 1 0.199413 0.0559833 0
105 1 0.218472 0.0733741 0
101 1 0.194738 0.0815063 0
77 1 0.267059 0.0560903 0
76 1 0.242475 0.0653085 0
137 1 0.260688 0.0812793 0
47 1 0.293556 0.0492612 0
48 1 0.307769 0.0700008 0
78 1 0.283663 0.0727911 0
50 1 0.325226 0.0529373 0
81 1 0.331909 0.0758927 0
52 1 0.349625 0.0578032 0
82 1 0.354986 0.0824921 0
55 1 0.390562 0.0456663 0
83 1 0.373942 0.0644875 0
54 1 0.397829 0.0706238 0
57 1 0.438822 0.0589219 0
85 1 0.421882 0.0762938 0
56 1 0.414626 0.0519548 0
87 1 0.445973 0.0831359 0
59 1 0.48167 0.0488576 0
58 1 0.463682 0.0661965 0
89 1 0.487809 0.0735291 0
990 1 0.0156318 0.0942819 0
92 1 0.0341927 0.112245 0
91 1 0.0106882 0.11889 0
94 1 0.0579161 0.104586 0
95 1 0.0824202 0.0962445 0
125 1 0.0758966 0.121275 0
123 1 0.0535202 0.129428 0
96 1 0.100534 0.113582 0
97 1 0.105978 0.0889274 0
98 1 0.123983 0.105658 0
99 1 0.147527 0.097407 0
100 1 0.171271 0.0902828 0
130 1 0.16783 0.115353 0
129 1 0.14363 0.122567 0
131 1 0.190429 0.105765 0
102 1 0.213573 0.0975385 0
133 1 0.20944 0.123204 0
104 1 0.232066 0.114641 0
106 1 0.23644 0.0898173 0
135 1 0.255466 0.105698 0
165 1 0.249971 0.129256 0
107 1 0.279954 0.0974798 0
109 1 0.297638 0.113559 0
79 1 0.315146 0.0946675 0
108 1 0.274343 0.123162 0
80 1 0.338592 0.101253 0
110 1 0.320647 0.118661 0
141 1 0.345274 0.125397 0
111 1 0.362895 0.107053 0
113 1 0.379782 0.0898147 0
84 1 0.404591 0.0946103 0
112 1 0.387844 0.113723 0
115 1 0.412514 0.120569 0
86 1 0.428446 0.100854 0
116 1 0.435932 0.126058 0
117 1 0.452649 0.108219 0
88 1 0.470998 0.0919444 0
90 1 0.495588 0.0977641 0
119 1 0.47809 0.115051 0
122 1 0.0299164 0.136997 0
152 1 0.0250058 0.16086 0
121 1 0.0054904 0.143485 0
153 1 0.0489654 0.154413 0
124 1 0.0727934 0.146876 0
154 1 0.0681663 0.170516 0
127 1 0.119338 0.129876 0
155 1 0.0916015 0.162138 0
126 1 0.0952498 0.138171 0
157 1 0.114498 0.155318 0
158 1 0.133899 0.171854 0
128 1 0.13811 0.146827 0
159 1 0.162946 0.14002 0
160 1 0.157274 0.164055 0
161 1 0.181663 0.157067 0
132 1 0.185936 0.131212 0
163 1 0.204581 0.147692 0
162 1 0.201099 0.173746 0
134 1 0.227937 0.141267 0
136 1 0.265868 0.146856 0
164 1 0.246383 0.160666 0
167 1 0.26935 0.171641 0
139 1 0.303381 0.136725 0
138 1 0.288264 0.155324 0
169 1 0.311593 0.161118 0
140 1 0.327647 0.142969 0
142 1 0.35219 0.149467 0
171 1 0.335982 0.167143 0
143 1 0.370304 0.131258 0
114 1 0.394852 0.138537 0
173 1 0.376826 0.155911 0
144 1 0.400265 0.16214 0
145 1 0.419322 0.144481 0
146 1 0.425973 0.168597 0
147 1 0.44361 0.150363 0
118 1 0.460086 0.131986 0
149 1 0.486659 0.139118 0
148 1 0.467234 0.155942 0
150 1 0.492142 0.163826 0
183 1 0.0423863 0.178531 0
182 1 0.0375575 0.202728 0
1080 1 0.0196436 0.185126 0
211 1 0.0138151 0.209249 0
184 1 0.0627317 0.194469 0
185 1 0.0866965 0.186266 0
215 1 0.0807306 0.210747 0
186 1 0.104685 0.203681 0
156 1 0.110045 0.179811 0
187 1 0.128459 0.197172 0
189 1 0.152318 0.188575 0
191 1 0.176375 0.181227 0
190 1 0.170434 0.205564 0
188 1 0.147494 0.214581 0
221 1 0.193357 0.213689 0
192 1 0.210106 0.196428 0
193 1 0.227207 0.178833 0
195 1 0.234517 0.203844 0
166 1 0.25124 0.186865 0
196 1 0.25788 0.213266 0
168 1 0.293875 0.179166 0
197 1 0.274539 0.195867 0
199 1 0.299949 0.202413 0
170 1 0.317344 0.185402 0
172 1 0.359459 0.173696 0
201 1 0.3414 0.191311 0
200 1 0.323491 0.210344 0
202 1 0.347796 0.215518 0
203 1 0.365257 0.197652 0
174 1 0.383492 0.180337 0
204 1 0.389149 0.204677 0
175 1 0.407826 0.186572 0
177 1 0.450813 0.174738 0
205 1 0.414741 0.21086 0
176 1 0.432325 0.192899 0
178 1 0.456502 0.199548 0
179 1 0.474527 0.181487 0
180 1 0.498418 0.188062 0
209 1 0.480238 0.206154 0
212 1 0.0325941 0.228444 0
1140 1 0.00952411 0.233131 0
1169 1 0.00539036 0.256616 0
213 1 0.0558905 0.218471 0
243 1 0.0525995 0.246326 0
214 1 0.0742977 0.235081 0
244 1 0.0732945 0.259454 0
216 1 0.0990209 0.228756 0
217 1 0.121725 0.220217 0
247 1 0.115314 0.250021 0
218 1 0.137619 0.238406 0
219 1 0.158935 0.248577 0
220 1 0.175325 0.231582 0
222 1 0.181778 0.256746 0
194 1 0.216872 0.221277 0
223 1 0.19901 0.239069 0
224 1 0.222721 0.247211 0
225 1 0.2402 0.230339 0
227 1 0.264097 0.237842 0
226 1 0.246658 0.254717 0
198 1 0.282249 0.22026 0
228 1 0.288675 0.244457 0
229 1 0.305983 0.226251 0
230 1 0.312737 0.250799 0
231 1 0.330642 0.234108 0
232 1 0.354797 0.239692 0
261 1 0.336859 0.258138 0
233 1 0.372104 0.221801 0
234 1 0.378492 0.24698 0
235 1 0.396866 0.22842 0
265 1 0.403629 0.251881 0
207 1 0.438957 0.217136 0
206 1 0.421752 0.234915 0
237 1 0.445191 0.242368 0
236 1 0.427826 0.2597 0
208 1 0.463251 0.223917 0
210 1 0.487445 0.230796 0
239 1 0.469377 0.24892 0
240 1 0.493783 0.254885 0
241 1 0.0309049 0.261271 0
271 1 0.0351727 0.288735 0
1170 1 0.0131649 0.279037 0
1200 1 0.0155186 0.303727 0
242 1 0.0536257 0.273503 0
273 1 0.0580698 0.299055 0
275 1 0.0778031 0.284367 0
245 1 0.0969384 0.268124 0
246 1 0.101391 0.293187 0
248 1 0.120634 0.277545 0
279 1 0.124946 0.30246 0
249 1 0.13962 0.262977 0
251 1 0.16335 0.272416 0
250 1 0.143871 0.28762 0
281 1 0.16766 0.296989 0
253 1 0.204671 0.264673 0
252 1 0.186542 0.281438 0
254 1 0.209284 0.289858 0
255 1 0.228179 0.271578 0
257 1 0.270518 0.262613 0
256 1 0.251513 0.279991 0
285 1 0.233186 0.297176 0
259 1 0.294358 0.268549 0
258 1 0.276216 0.286586 0
289 1 0.299655 0.294043 0
260 1 0.317588 0.275727 0
263 1 0.361243 0.263428 0
262 1 0.342351 0.282202 0
291 1 0.324577 0.300802 0
293 1 0.367043 0.288237 0
264 1 0.385979 0.270772 0
295 1 0.391518 0.294429 0
266 1 0.410292 0.277709 0
238 1 0.451697 0.266336 0
267 1 0.434679 0.284535 0
297 1 0.416612 0.301771 0
268 1 0.458222 0.290337 0
269 1 0.476763 0.273783 0
270 1 0.483371 0.2977 0
301 1 0.0195333 0.329203 0
272 1 0.0391159 0.314455 0
303 1 0.0428716 0.338866 0
276 1 0.0819886 0.307919 0
274 1 0.0626014 0.32345 0
305 1 0.0857584 0.333349 0
304 1 0.0663906 0.348459 0
277 1 0.105745 0.317015 0
278 1 0.128503 0.327067 0
307 1 0.108285 0.341699 0
280 1 0.148279 0.312293 0
311 1 0.150775 0.337775 0
282 1 0.172069 0.321867 0
312 1 0.175156 0.346409 0
283 1 0.190898 0.306258 0
284 1 0.215042 0.313886 0
313 1 0.195992 0.331038 0
315 1 0.219844 0.339006 0
287 1 0.257622 0.303463 0
286 1 0.23911 0.322355 0
317 1 0.26307 0.3286 0
288 1 0.281461 0.312208 0
318 1 0.288977 0.336926 0
290 1 0.306357 0.318143 0
319 1 0.313301 0.343109 0
292 1 0.34851 0.306365 0
321 1 0.33058 0.324152 0
323 1 0.354758 0.330748 0
320 1 0.337631 0.348555 0
324 1 0.380874 0.337586 0
294 1 0.373991 0.313206 0
325 1 0.405511 0.343665 0
296 1 0.398766 0.318887 0
298 1 0.440538 0.309203 0
327 1 0.423525 0.326256 0
328 1 0.446934 0.333543 0
329 1 0.470795 0.340246 0
299 1 0.464373 0.314826 0
300 1 0.488117 0.322112 0
1201 1 0.49531 0.346218 0
302 1 0.0222144 0.353026 0
332 1 0.0250438 0.377261 0
331 1 0.000410122 0.366301 0
333 1 0.0459915 0.362433 0
335 1 0.0686179 0.372792 0
334 1 0.0485041 0.386643 0
306 1 0.0890504 0.357925 0
337 1 0.092621 0.382065 0
308 1 0.111734 0.366609 0
309 1 0.132302 0.353033 0
339 1 0.135197 0.377512 0
310 1 0.155118 0.362335 0
341 1 0.158785 0.386203 0
343 1 0.179681 0.371374 0
314 1 0.200369 0.356067 0
344 1 0.20392 0.380182 0
345 1 0.225288 0.36418 0
316 1 0.244665 0.347302 0
375 1 0.227352 0.388936 0
347 1 0.269178 0.353609 0
346 1 0.249191 0.371972 0
377 1 0.274119 0.378871 0
349 1 0.294071 0.361313 0
348 1 0.300469 0.384978 0
350 1 0.318973 0.366043 0
351 1 0.344098 0.371362 0
322 1 0.362038 0.354368 0
381 1 0.32636 0.389394 0
353 1 0.368929 0.378561 0
355 1 0.386398 0.361214 0
354 1 0.393117 0.385392 0
356 1 0.410908 0.367722 0
326 1 0.429536 0.350383 0
357 1 0.434105 0.374652 0
359 1 0.453352 0.357164 0
358 1 0.458424 0.381625 0
330 1 0.477465 0.364029 0
360 1 0.483875 0.388661 0
361 1 0.00460229 0.3907 0
363 1 0.0278754 0.401739 0
362 1 0.0069676 0.415436 0
364 1 0.029878 0.42561 0
336 1 0.0715789 0.397481 0
365 1 0.0508587 0.411096 0
366 1 0.0740235 0.42192 0
338 1 0.115396 0.39201 0
367 1 0.0945536 0.40695 0
369 1 0.118546 0.417046 0
368 1 0.0982609 0.430757 0
340 1 0.138614 0.401851 0
370 1 0.142369 0.425758 0
371 1 0.16301 0.411484 0
342 1 0.182823 0.396225 0
372 1 0.18521 0.420803 0
373 1 0.205938 0.405727 0
403 1 0.209051 0.42994 0
374 1 0.229461 0.414714 0
376 1 0.250128 0.397782 0
405 1 0.252891 0.423249 0
378 1 0.274439 0.404114 0
379 1 0.309569 0.407797 0
409 1 0.291865 0.423821 0
410 1 0.315219 0.431778 0
352 1 0.350492 0.396258 0
382 1 0.356999 0.422078 0
380 1 0.333984 0.415862 0
383 1 0.374537 0.403896 0
385 1 0.397659 0.410409 0
384 1 0.380363 0.428091 0
387 1 0.416355 0.393176 0
386 1 0.422382 0.41742 0
388 1 0.440204 0.399133 0
419 1 0.447902 0.424032 0
389 1 0.465218 0.405708 0
1261 1 0.489036 0.413132 0
390 1 0.471435 0.431412 0
393 1 0.00961885 0.440589 0
423 1 0.0127857 0.465488 0
394 1 0.0326934 0.450151 0
425 1 0.0371712 0.474431 0
395 1 0.0540126 0.436288 0
396 1 0.0570895 0.460443 0
397 1 0.0773475 0.446866 0
427 1 0.0800941 0.471352 0
399 1 0.122323 0.441255 0
398 1 0.10156 0.455503 0
429 1 0.124769 0.465873 0
401 1 0.164893 0.436383 0
400 1 0.144761 0.450592 0
431 1 0.168257 0.46142 0
430 1 0.146878 0.475595 0
402 1 0.188989 0.445196 0
433 1 0.211618 0.455395 0
432 1 0.191121 0.471682 0
404 1 0.231655 0.439323 0
406 1 0.252967 0.451355 0
435 1 0.233518 0.465569 0
436 1 0.2555 0.476174 0
407 1 0.272732 0.4381 0
437 1 0.277019 0.463163 0
408 1 0.297289 0.449477 0
439 1 0.300592 0.47405 0
441 1 0.31991 0.457693 0
411 1 0.338518 0.440377 0
412 1 0.343747 0.464222 0
413 1 0.362382 0.446668 0
415 1 0.40453 0.435132 0
414 1 0.387144 0.453539 0
443 1 0.366877 0.470811 0
445 1 0.392365 0.477506 0
416 1 0.410624 0.459866 0
417 1 0.428574 0.441237 0
447 1 0.434996 0.465865 0
418 1 0.452742 0.448248 0
1291 1 0.495288 0.43742 0
420 1 0.477437 0.454893 0
449 1 0.458548 0.473013 0
454 1 0.0184754 0.514525 0
424 1 0.0159227 0.490104 0
455 1 0.0380826 0.50033 0
426 1 0.059661 0.485848 0
456 1 0.0614137 0.510403 0
457 1 0.0817088 0.4957 0
487 1 0.0848898 0.520792 0
428 1 0.10336 0.480148 0
459 1 0.125537 0.491634 0
458 1 0.10513 0.506033 0
489 1 0.129299 0.516342 0
461 1 0.170192 0.486495 0
460 1 0.1493 0.501132 0
462 1 0.17241 0.511597 0
434 1 0.213405 0.481328 0
463 1 0.193222 0.497303 0
464 1 0.216043 0.506339 0
493 1 0.195289 0.522527 0
465 1 0.236703 0.491213 0
467 1 0.259111 0.500811 0
466 1 0.237394 0.51587 0
438 1 0.281111 0.487204 0
469 1 0.305443 0.498766 0
468 1 0.282608 0.511562 0
440 1 0.324565 0.482684 0
442 1 0.349645 0.488963 0
471 1 0.331362 0.506643 0
473 1 0.356515 0.513107 0
444 1 0.375622 0.49597 0
475 1 0.399123 0.501653 0
474 1 0.380512 0.520777 0
446 1 0.417323 0.483686 0
477 1 0.422922 0.508822 0
448 1 0.440927 0.490699 0
478 1 0.447368 0.514667 0
450 1 0.483415 0.47873 0
479 1 0.465027 0.497323 0
1381 1 0.489832 0.503263 0
483 1 0.0226191 0.538527 0
482 1 0.0019846 0.553955 0
485 1 0.0420839 0.525188 0
484 1 0.0458757 0.54986 0
513 1 0.0249638 0.56364 0
486 1 0.0648752 0.535438 0
515 1 0.0687251 0.559835 0
517 1 0.0886451 0.545676 0
488 1 0.109064 0.531125 0
519 1 0.111584 0.556024 0
490 1 0.132497 0.542073 0
491 1 0.152579 0.527063 0
521 1 0.155147 0.552199 0
492 1 0.174388 0.537559 0
523 1 0.177724 0.562925 0
494 1 0.196857 0.547391 0
495 1 0.217965 0.53124 0
525 1 0.219904 0.557938 0
496 1 0.239598 0.541266 0
497 1 0.260022 0.524827 0
527 1 0.261951 0.551348 0
499 1 0.303329 0.545723 0
498 1 0.282014 0.536567 0
529 1 0.284777 0.561451 0
470 1 0.312556 0.522896 0
472 1 0.338484 0.53044 0
501 1 0.326817 0.551895 0
502 1 0.348734 0.560029 0
503 1 0.363714 0.538502 0
505 1 0.38823 0.544943 0
504 1 0.372708 0.564615 0
476 1 0.405293 0.526673 0
506 1 0.412525 0.551428 0
507 1 0.429712 0.533317 0
508 1 0.437361 0.556903 0
480 1 0.471934 0.521494 0
509 1 0.453898 0.539037 0
510 1 0.47834 0.545184 0
1382 1 0.496287 0.528108 0
512 1 0.0274904 0.588517 0
511 1 0.00428581 0.578992 0
541 1 0.00786645 0.603082 0
514 1 0.0483559 0.574408 0
545 1 0.0707941 0.585694 0
543 1 0.0510524 0.599677 0
516 1 0.0909649 0.570989 0
520 1 0.134508 0.566727 0
518 1 0.114319 0.580954 0
547 1 0.0932151 0.595117 0
548 1 0.116117 0.605574 0
549 1 0.136761 0.591459 0
522 1 0.157215 0.577292 0
551 1 0.159444 0.601826 0
553 1 0.179922 0.587375 0
524 1 0.200432 0.572852 0
554 1 0.203051 0.597297 0
555 1 0.223263 0.582895 0
556 1 0.227457 0.608539 0
526 1 0.242122 0.567569 0
557 1 0.246692 0.592253 0
528 1 0.26592 0.577231 0
558 1 0.270098 0.602897 0
500 1 0.307965 0.570479 0
559 1 0.289825 0.586949 0
530 1 0.312983 0.594961 0
531 1 0.331379 0.577108 0
532 1 0.336816 0.601815 0
533 1 0.354269 0.583703 0
563 1 0.360312 0.608216 0
534 1 0.378255 0.590504 0
535 1 0.396703 0.571161 0
536 1 0.401676 0.595437 0
537 1 0.420634 0.575453 0
567 1 0.42552 0.599881 0
538 1 0.443874 0.582514 0
568 1 0.45033 0.607397 0
539 1 0.460983 0.562488 0
540 1 0.485188 0.570017 0
569 1 0.467641 0.588681 0
1441 1 0.491309 0.596062 0
542 1 0.0302372 0.614034 0
571 1 0.00969024 0.628461 0
573 1 0.0325969 0.639892 0
546 1 0.0729626 0.610758 0
544 1 0.0529319 0.624454 0
575 1 0.0767214 0.636031 0
574 1 0.0561948 0.649924 0
577 1 0.0964776 0.620533 0
579 1 0.118563 0.631304 0
576 1 0.0987478 0.645464 0
550 1 0.139136 0.616652 0
581 1 0.162733 0.627644 0
580 1 0.142307 0.64058 0
552 1 0.182107 0.611794 0
582 1 0.186211 0.636169 0
583 1 0.206504 0.62236 0
584 1 0.2092 0.64764 0
585 1 0.229807 0.633242 0
586 1 0.255354 0.644229 0
587 1 0.249958 0.618255 0
560 1 0.295588 0.611589 0
589 1 0.275321 0.628158 0
590 1 0.30072 0.636131 0
588 1 0.282214 0.653181 0
561 1 0.318947 0.61934 0
562 1 0.343151 0.625622 0
591 1 0.325549 0.643658 0
593 1 0.349926 0.649547 0
565 1 0.384819 0.614152 0
564 1 0.367897 0.63263 0
595 1 0.392133 0.638327 0
566 1 0.409125 0.620259 0
596 1 0.415906 0.645089 0
597 1 0.433111 0.625682 0
599 1 0.439463 0.652346 0
570 1 0.474095 0.615269 0
600 1 0.456567 0.632739 0
1471 1 0.480668 0.638918 0
1442 1 0.498062 0.620499 0
572 1 0.0120288 0.654378 0
602 1 0.0155028 0.679805 0
603 1 0.0362254 0.665254 0
633 1 0.0389885 0.689842 0
605 1 0.0791687 0.660358 0
604 1 0.0594693 0.675093 0
606 1 0.081553 0.685725 0
578 1 0.121956 0.656584 0
607 1 0.102102 0.67079 0
608 1 0.124247 0.682433 0
611 1 0.164797 0.652266 0
609 1 0.145077 0.665844 0
610 1 0.168081 0.676343 0
639 1 0.147585 0.6911 0
612 1 0.190325 0.68758 0
613 1 0.187986 0.662355 0
614 1 0.211613 0.672297 0
615 1 0.233435 0.658398 0
616 1 0.234698 0.683127 0
617 1 0.260073 0.669985 0
619 1 0.30704 0.660402 0
618 1 0.289872 0.67668 0
620 1 0.313849 0.685383 0
621 1 0.332313 0.668062 0
592 1 0.356949 0.673832 0
622 1 0.339233 0.691835 0
594 1 0.374523 0.657342 0
625 1 0.398303 0.663485 0
623 1 0.380863 0.681334 0
626 1 0.404737 0.687278 0
598 1 0.446496 0.676548 0
627 1 0.422527 0.669347 0
657 1 0.429021 0.694126 0
628 1 0.470483 0.681632 0
629 1 0.463615 0.658071 0
1501 1 0.487659 0.662831 0
630 1 0.494342 0.687395 0
632 1 0.0187062 0.704058 0
663 1 0.0203493 0.729551 0
634 1 0.0408525 0.715083 0
635 1 0.0617456 0.700375 0
636 1 0.0840973 0.711106 0
665 1 0.0644149 0.725487 0
666 1 0.0866594 0.736055 0
637 1 0.10422 0.697533 0
638 1 0.126988 0.707318 0
667 1 0.106922 0.722439 0
669 1 0.129164 0.732406 0
641 1 0.169514 0.701899 0
640 1 0.149538 0.717291 0
671 1 0.172817 0.726174 0
643 1 0.212439 0.697072 0
642 1 0.193079 0.712484 0
644 1 0.214692 0.722661 0
673 1 0.195359 0.738112 0
645 1 0.234419 0.706873 0
675 1 0.238461 0.731511 0
646 1 0.256919 0.714496 0
677 1 0.261761 0.739414 0
647 1 0.271217 0.694094 0
649 1 0.29676 0.702993 0
648 1 0.279697 0.720603 0
679 1 0.304942 0.72606 0
650 1 0.321822 0.709361 0
651 1 0.346276 0.715865 0
681 1 0.329152 0.733457 0
653 1 0.363568 0.698228 0
624 1 0.387721 0.704707 0
654 1 0.370425 0.72201 0
685 1 0.39335 0.729346 0
655 1 0.411202 0.71144 0
656 1 0.436031 0.718046 0
686 1 0.418403 0.735432 0
658 1 0.453637 0.700195 0
687 1 0.459865 0.724073 0
659 1 0.477337 0.706293 0
689 1 0.483594 0.731372 0
662 1 0.0236649 0.75543 0
691 1 0.00470474 0.770545 0
661 1 0.000441332 0.744091 0
664 1 0.0438964 0.740477 0
693 1 0.0261071 0.783413 0
694 1 0.0460133 0.76566 0
695 1 0.0666559 0.751133 0
696 1 0.0700682 0.776817 0
697 1 0.0900888 0.762122 0
668 1 0.109102 0.747597 0
698 1 0.1122 0.772842 0
699 1 0.133211 0.756126 0
700 1 0.13502 0.780525 0
670 1 0.153899 0.742133 0
701 1 0.156551 0.767805 0
672 1 0.177142 0.753815 0
702 1 0.180035 0.779226 0
674 1 0.219636 0.74738 0
703 1 0.200233 0.764084 0
705 1 0.224619 0.773231 0
676 1 0.243695 0.756153 0
707 1 0.269094 0.763336 0
735 1 0.251846 0.77939 0
678 1 0.286884 0.74495 0
709 1 0.29386 0.768969 0
680 1 0.31156 0.751773 0
710 1 0.317881 0.775952 0
652 1 0.353003 0.741038 0
682 1 0.360558 0.765602 0
711 1 0.335444 0.758676 0
741 1 0.342658 0.783728 0
683 1 0.377741 0.747646 0
713 1 0.384444 0.772594 0
684 1 0.401581 0.754528 0
716 1 0.40835 0.7783 0
717 1 0.443649 0.742096 0
715 1 0.426384 0.760076 0
718 1 0.450225 0.766624 0
1591 1 0.498405 0.780872 0
690 1 0.491823 0.756484 0
688 1 0.46751 0.749024 0
719 1 0.474889 0.773362 0
692 1 0.00476108 0.797516 0
722 1 0.00331959 0.822595 0
723 1 0.02672 0.810708 0
725 1 0.049184 0.7915 0
726 1 0.0721829 0.80141 0
755 1 0.0676424 0.825076 0
727 1 0.0927969 0.788016 0
728 1 0.113065 0.807322 0
757 1 0.0910157 0.816571 0
729 1 0.138253 0.803655 0
730 1 0.159025 0.817414 0
731 1 0.159632 0.792916 0
732 1 0.182203 0.804348 0
704 1 0.203289 0.7904 0
734 1 0.216294 0.810598 0
763 1 0.197309 0.824487 0
733 1 0.234316 0.795519 0
736 1 0.258607 0.803837 0
765 1 0.239163 0.820818 0
706 1 0.276181 0.786723 0
737 1 0.282976 0.810799 0
708 1 0.300055 0.793129 0
738 1 0.307283 0.817509 0
739 1 0.324296 0.800303 0
742 1 0.348076 0.807256 0
740 1 0.33153 0.824813 0
712 1 0.366231 0.789419 0
714 1 0.390677 0.796773 0
743 1 0.372649 0.813909 0
745 1 0.397216 0.8214 0
747 1 0.432505 0.784825 0
746 1 0.414351 0.802197 0
748 1 0.439426 0.809294 0
749 1 0.456258 0.791725 0
720 1 0.481435 0.798161 0
750 1 0.463854 0.81571 0
1621 1 0.48779 0.822924 0
753 1 0.0204574 0.84087 0
783 1 0.0162366 0.866096 0
754 1 0.0392118 0.857359 0
724 1 0.0444519 0.831964 0
785 1 0.0624435 0.84975 0
786 1 0.0810052 0.866843 0
756 1 0.0856844 0.842731 0
759 1 0.133221 0.826971 0
758 1 0.108789 0.833908 0
787 1 0.10503 0.85945 0
789 1 0.128996 0.850985 0
760 1 0.153207 0.842348 0
791 1 0.173569 0.859675 0
761 1 0.176154 0.83527 0
790 1 0.149281 0.866646 0
762 1 0.198698 0.84999 0
764 1 0.220661 0.836815 0
793 1 0.220566 0.863443 0
795 1 0.245393 0.845546 0
767 1 0.263996 0.82823 0
766 1 0.271763 0.852307 0
769 1 0.312765 0.841254 0
768 1 0.288824 0.835255 0
799 1 0.296096 0.859523 0
770 1 0.336755 0.8494 0
771 1 0.355512 0.831329 0
773 1 0.361407 0.856527 0
801 1 0.320059 0.865616 0
744 1 0.379075 0.837877 0
774 1 0.384762 0.863898 0
775 1 0.403082 0.846264 0
777 1 0.421229 0.826468 0
807 1 0.426939 0.851012 0
778 1 0.445409 0.833745 0
809 1 0.452001 0.859129 0
779 1 0.469221 0.839956 0
780 1 0.476459 0.864645 0
1651 1 0.493902 0.847532 0
812 1 0.0117113 0.890855 0
814 1 0.0293512 0.907251 0
813 1 0.0350049 0.882302 0
784 1 0.0579141 0.873913 0
815 1 0.0533008 0.89878 0
816 1 0.0769322 0.890708 0
788 1 0.124543 0.87523 0
817 1 0.100832 0.883356 0
819 1 0.121245 0.899063 0
818 1 0.0953682 0.906736 0
821 1 0.168121 0.883442 0
820 1 0.144841 0.891421 0
851 1 0.163069 0.907027 0
792 1 0.193766 0.874702 0
823 1 0.211635 0.891988 0
822 1 0.187596 0.899481 0
796 1 0.254904 0.869037 0
825 1 0.230779 0.909107 0
794 1 0.235223 0.88399 0
827 1 0.258379 0.894618 0
797 1 0.277567 0.876568 0
798 1 0.284299 0.899956 0
800 1 0.302331 0.883198 0
829 1 0.307059 0.910111 0
831 1 0.325798 0.891331 0
772 1 0.343979 0.872815 0
802 1 0.349792 0.899057 0
803 1 0.36663 0.881466 0
804 1 0.374184 0.905034 0
805 1 0.392146 0.888262 0
835 1 0.399638 0.912491 0
776 1 0.410102 0.870183 0
806 1 0.417365 0.894125 0
808 1 0.434299 0.875957 0
839 1 0.440931 0.899937 0
1681 1 0.483607 0.888984 0
810 1 0.458842 0.8825 0
840 1 0.465671 0.907187 0
843 1 0.00671719 0.915195 0
844 1 0.0254292 0.932324 0
842 1 0.00152184 0.940666 0
875 1 0.0445892 0.948144 0
873 1 0.0210519 0.95632 0
847 1 0.0722198 0.915691 0
845 1 0.0489812 0.922793 0
846 1 0.0682403 0.939403 0
848 1 0.0916426 0.932027 0
849 1 0.115383 0.923373 0
879 1 0.110762 0.94831 0
881 1 0.134843 0.940755 0
850 1 0.139323 0.915988 0
852 1 0.158448 0.931622 0
883 1 0.176718 0.947867 0
853 1 0.183409 0.923717 0
824 1 0.206365 0.916147 0
854 1 0.200887 0.941402 0
855 1 0.223672 0.933936 0
826 1 0.246883 0.927513 0
857 1 0.268332 0.944265 0
856 1 0.244363 0.951324 0
828 1 0.26898 0.918384 0
859 1 0.2891 0.929998 0
830 1 0.313395 0.93496 0
858 1 0.291438 0.955936 0
833 1 0.356116 0.922808 0
832 1 0.331527 0.916513 0
861 1 0.337129 0.940115 0
863 1 0.361859 0.946723 0
834 1 0.380814 0.92912 0
865 1 0.405803 0.93749 0
864 1 0.386474 0.954033 0
837 1 0.423848 0.918516 0
836 1 0.430022 0.94396 0
838 1 0.447996 0.925322 0
870 1 0.454555 0.950402 0
1711 1 0.489368 0.914461 0
869 1 0.471468 0.932553 0
1712 1 0.49625 0.938749 0
3 1 0.0357419 0.997464 0
872 1 0.0166958 0.980012 0
874 1 0.0400184 0.973333 0
877 1 0.0873684 0.956313 0
5 1 0.0598518 0.989311 0
876 1 0.0636473 0.964281 0
7 1 0.0827627 0.981296 0
8 1 0.101168 0.997068 0
9 1 0.125298 0.990138 0
878 1 0.106788 0.973026 0
880 1 0.129039 0.96474 0
882 1 0.153029 0.956419 0
41 1 0.167208 0.998348 0
11 1 0.148737 0.981338 0
13 1 0.171406 0.972751 0
885 1 0.219934 0.958185 0
12 1 0.18955 0.990171 0
15 1 0.213613 0.981801 0
884 1 0.194727 0.965393 0
886 1 0.232089 0.999576 0
17 1 0.256974 0.992788 0
887 1 0.238151 0.975318 0
888 1 0.263076 0.967869 0
19 1 0.280599 0.984279 0
889 1 0.303438 0.978069 0
860 1 0.31974 0.95889 0
862 1 0.344854 0.964122 0
891 1 0.327674 0.983524 0
892 1 0.351702 0.98869 0
23 1 0.375214 0.995597 0
893 1 0.369081 0.971156 0
895 1 0.394149 0.978769 0
896 1 0.418266 0.985889 0
867 1 0.437298 0.968738 0
866 1 0.411828 0.9614 0
897 1 0.443509 0.992732 0
868 1 0.461139 0.975188 0
899 1 0.467526 0.999822 0
1771 1 0.48541 0.982039 0
1741 1 0.478506 0.957098 0
931 1 0.522504 0.03795 0
901 1 0.515509 0.0132328 0
902 1 0.539885 0.0186625 0
904 1 0.564718 0.0248165 0
906 1 0.580779 0.00640253 0
935 1 0.589486 0.0314794 0
905 1 0.557091 0.00025292 0
908 1 0.604847 0.0126991 0
939 1 0.630408 0.0188726 0
937 1 0.614204 0.038217 0
941 1 0.654551 0.0264705 0
912 1 0.671757 0.00673962 0
942 1 0.678369 0.0318543 0
910 1 0.647289 0.00097563 0
943 1 0.695494 0.0141709 0
945 1 0.719565 0.0188772 0
944 1 0.703238 0.0389879 0
914 1 0.742593 0.0257412 0
916 1 0.766151 0.0190347 0
915 1 0.739603 0.00060033 0
918 1 0.785323 0.0358699 0
919 1 0.809256 0.0277898 0
917 1 0.790417 0.0121719 0
1788 1 0.813092 0.00282939 0
920 1 0.831484 0.0190463 0
922 1 0.850788 0.0359934 0
921 1 0.856127 0.0125641 0
923 1 0.874662 0.0283894 0
924 1 0.898593 0.0202868 0
1792 1 0.87942 0.00408708 0
955 1 0.916489 0.0367266 0
925 1 0.921693 0.0128134 0
926 1 0.939433 0.0294412 0
928 1 0.945305 0.00383121 0
930 1 0.98811 0.0142022 0
959 1 0.963943 0.0209449 0
960 1 0.983391 0.0386248 0
932 1 0.530858 0.0611525 0
961 1 0.512867 0.0793421 0
60 1 0.505159 0.0557034 0
962 1 0.53669 0.0853429 0
933 1 0.547916 0.0430359 0
963 1 0.555493 0.0681051 0
934 1 0.572583 0.049817 0
965 1 0.579041 0.0746623 0
936 1 0.596918 0.0559259 0
967 1 0.620477 0.0622919 0
966 1 0.604079 0.0803946 0
968 1 0.628073 0.0861901 0
938 1 0.638152 0.0448448 0
969 1 0.645151 0.068838 0
940 1 0.661992 0.0506544 0
970 1 0.669289 0.0755907 0
971 1 0.686198 0.0578376 0
973 1 0.710149 0.0632532 0
972 1 0.694504 0.0830542 0
975 1 0.727396 0.0455442 0
947 1 0.760667 0.0435032 0
974 1 0.734075 0.0700698 0
946 1 0.757902 0.0684163 0
977 1 0.775866 0.0837764 0
949 1 0.804262 0.0528473 0
948 1 0.781155 0.0592376 0
979 1 0.799056 0.0770359 0
951 1 0.828442 0.0446435 0
950 1 0.822777 0.0694418 0
952 1 0.846921 0.0612547 0
980 1 0.841604 0.0852513 0
981 1 0.864392 0.0778606 0
954 1 0.893621 0.0443285 0
953 1 0.869989 0.0521143 0
983 1 0.888089 0.0692569 0
984 1 0.906952 0.0851174 0
985 1 0.912011 0.0608224 0
956 1 0.935455 0.0541688 0
986 1 0.930558 0.0785263 0
987 1 0.953795 0.0698332 0
957 1 0.958961 0.04515 0
958 1 0.97698 0.0628137 0
989 1 0.995935 0.0787544 0
988 1 0.972016 0.0870797 0
991 1 0.519919 0.104471 0
993 1 0.545009 0.11006 0
992 1 0.528269 0.12849 0
120 1 0.50318 0.121931 0
964 1 0.562081 0.0921648 0
994 1 0.568541 0.116746 0
995 1 0.586273 0.0983981 0
996 1 0.591965 0.123259 0
997 1 0.611098 0.105227 0
998 1 0.634876 0.110546 0
1027 1 0.616953 0.128684 0
999 1 0.652015 0.0937133 0
1000 1 0.658569 0.117755 0
1001 1 0.677244 0.101503 0
1031 1 0.683397 0.125432 0
1002 1 0.701406 0.10662 0
1003 1 0.718586 0.0890349 0
1004 1 0.725787 0.112713 0
976 1 0.769562 0.108636 0
1005 1 0.745161 0.0933189 0
1035 1 0.748492 0.121122 0
978 1 0.817289 0.0932384 0
1007 1 0.793845 0.101629 0
1006 1 0.787943 0.12734 0
1008 1 0.812205 0.117323 0
1009 1 0.836373 0.109787 0
1010 1 0.854976 0.126675 0
1011 1 0.860096 0.102825 0
982 1 0.883455 0.0939485 0
1012 1 0.879001 0.119038 0
1013 1 0.90178 0.110649 0
1016 1 0.920224 0.127002 0
1017 1 0.948381 0.0951308 0
1015 1 0.925344 0.102777 0
1047 1 0.944315 0.119639 0
1018 1 0.967114 0.111428 0
1019 1 0.992013 0.102445 0
1020 1 0.986147 0.126367 0
1022 1 0.534178 0.152784 0
1021 1 0.509971 0.146695 0
1051 1 0.516525 0.170312 0
1023 1 0.552319 0.135301 0
1024 1 0.55803 0.159192 0
1025 1 0.576495 0.141494 0
1055 1 0.581514 0.16624 0
1026 1 0.600103 0.147748 0
1028 1 0.623931 0.154218 0
1057 1 0.605686 0.172596 0
1029 1 0.641809 0.13602 0
1059 1 0.648208 0.161344 0
1030 1 0.665324 0.142415 0
1061 1 0.672663 0.168646 0
1033 1 0.707719 0.133256 0
1032 1 0.689822 0.150662 0
1063 1 0.71378 0.156735 0
1062 1 0.697313 0.175112 0
1034 1 0.730933 0.138668 0
1036 1 0.756554 0.145132 0
1065 1 0.738112 0.162841 0
1066 1 0.761875 0.169653 0
1067 1 0.781456 0.153446 0
1037 1 0.809099 0.141897 0
1038 1 0.804391 0.16624 0
1039 1 0.832108 0.133877 0
1040 1 0.827133 0.158986 0
1041 1 0.850598 0.151125 0
1042 1 0.869336 0.16844 0
1014 1 0.897016 0.135876 0
1043 1 0.87349 0.14314 0
1044 1 0.893011 0.159827 0
1045 1 0.916255 0.152119 0
1046 1 0.939437 0.143904 0
1077 1 0.934757 0.169055 0
1048 1 0.958658 0.160564 0
1049 1 0.963168 0.136132 0
1050 1 0.982762 0.15195 0
151 1 1.00086 0.16791 0
1053 1 0.540071 0.177074 0
1052 1 0.522802 0.19489 0
1081 1 0.503939 0.212672 0
1083 1 0.54627 0.201665 0
1054 1 0.564088 0.183762 0
1056 1 0.588752 0.1915 0
1085 1 0.571671 0.209272 0
1058 1 0.631137 0.179344 0
1087 1 0.613362 0.197012 0
1086 1 0.595527 0.215707 0
1089 1 0.637691 0.203389 0
1060 1 0.655188 0.185943 0
1091 1 0.680497 0.193092 0
1090 1 0.661751 0.210023 0
1093 1 0.704711 0.198888 0
1064 1 0.721458 0.181173 0
1094 1 0.728641 0.206299 0
1092 1 0.686657 0.217078 0
1095 1 0.745549 0.18814 0
1097 1 0.768256 0.197107 0
1096 1 0.751822 0.214285 0
1068 1 0.784087 0.178951 0
1098 1 0.792017 0.202707 0
1099 1 0.816789 0.208657 0
1069 1 0.820505 0.184435 0
1071 1 0.844791 0.1761 0
1070 1 0.839806 0.200213 0
1072 1 0.863683 0.192791 0
1073 1 0.887419 0.184848 0
1103 1 0.881522 0.210404 0
1074 1 0.905324 0.201141 0
1075 1 0.911054 0.175898 0
1078 1 0.953947 0.185004 0
1076 1 0.929385 0.193254 0
1107 1 0.94864 0.209464 0
1079 1 0.978392 0.17573 0
1109 1 0.972578 0.200165 0
181 1 0.99577 0.193204 0
1110 1 0.9904 0.217128 0
1082 1 0.529334 0.21992 0
1111 1 0.511279 0.237861 0
1113 1 0.535831 0.243906 0
1084 1 0.55288 0.225859 0
1114 1 0.559718 0.250325 0
1115 1 0.577671 0.233309 0
1116 1 0.584806 0.257488 0
1088 1 0.619707 0.221143 0
1117 1 0.601401 0.23946 0
1118 1 0.626709 0.244696 0
1119 1 0.644362 0.226803 0
1121 1 0.668634 0.234532 0
1120 1 0.65096 0.252411 0
1151 1 0.676145 0.259216 0
1122 1 0.692971 0.241898 0
1123 1 0.711032 0.223733 0
1124 1 0.717613 0.248428 0
1125 1 0.734298 0.231128 0
1126 1 0.758938 0.237771 0
1155 1 0.741577 0.254941 0
1127 1 0.776335 0.221039 0
1129 1 0.799692 0.226322 0
1128 1 0.783067 0.244546 0
1159 1 0.807758 0.25015 0
1101 1 0.857238 0.217915 0
1100 1 0.824807 0.231819 0
1130 1 0.832264 0.255769 0
1131 1 0.85279 0.241564 0
1102 1 0.876925 0.234773 0
1104 1 0.901417 0.225845 0
1133 1 0.895656 0.250351 0
1132 1 0.871357 0.259566 0
1105 1 0.925124 0.216744 0
1135 1 0.920519 0.241194 0
1106 1 0.943373 0.233569 0
1136 1 0.938788 0.258148 0
1137 1 0.962001 0.249823 0
1108 1 0.967086 0.225187 0
1139 1 0.985774 0.24162 0
1112 1 0.517922 0.262256 0