ITEM: TIMESTEP
22000
ITEM: NUMBER OF ATOMS
1800
ITEM: BOX BOUNDS pp pp pp
3.9612746995518933e-01 1.6460387253004700e+02
3.9612746995518933e-01 1.6460387253004700e+02
0.0000000000000000e+00 5.5000000000000000e+00
ITEM: ATOMS id type xs ys zs
2 1 0.0148659 0.0107237 0
3 1 0.0389721 0.00323598 0
33 1 0.0332705 0.0273042 0
31 1 0.010641 0.0349661 0
4 1 0.0565121 0.0209603 0
6 1 0.0795 0.0143645 0
35 1 0.0750894 0.0382711 0
34 1 0.0515163 0.0447113 0
8 1 0.103973 0.0105908 0
37 1 0.0986749 0.033451 0
39 1 0.123546 0.0278278 0
9 1 0.126545 0.00351408 0
10 1 0.146856 0.0154948 0
41 1 0.170722 0.0267913 0
40 1 0.148639 0.0409268 0
11 1 0.167196 0.00184265 0
12 1 0.194077 0.0113372 0
43 1 0.19659 0.0345885 0
14 1 0.217806 0.0224626 0
45 1 0.240368 0.0359417 0
16 1 0.261719 0.0238818 0
886 1 0.240211 0.0108664 0
18 1 0.285353 0.0171071 0
20 1 0.309267 0.0111935 0
49 1 0.304219 0.0359379 0
51 1 0.327407 0.0262958 0
22 1 0.351044 0.027311 0
21 1 0.338911 0.00618779 0
23 1 0.363693 0.00387919 0
24 1 0.384344 0.020106 0
25 1 0.409851 0.0257518 0
53 1 0.37001 0.0402039 0
26 1 0.435188 0.0324649 0
27 1 0.427861 0.0093532 0
898 1 0.453326 0.0144559 0
28 1 0.459056 0.0383905 0
29 1 0.477241 0.0221227 0
900 1 0.496595 0.00535617 0
32 1 0.0280432 0.0506001 0
62 1 0.0220072 0.0743075 0
61 1 0.00462645 0.0583651 0
990 1 0.000692387 0.0838992 0
63 1 0.0444271 0.0685704 0
65 1 0.067016 0.0639429 0
66 1 0.0828186 0.0814148 0
36 1 0.0917357 0.0570041 0
38 1 0.115759 0.0521492 0
67 1 0.106203 0.0763318 0
69 1 0.130754 0.0708132 0
71 1 0.154551 0.0658711 0
42 1 0.173464 0.0509611 0
72 1 0.170965 0.0840127 0
44 1 0.219043 0.0476961 0
73 1 0.198177 0.0579037 0
74 1 0.220551 0.0718681 0
103 1 0.197804 0.0820199 0
46 1 0.2636 0.0476701 0
75 1 0.241871 0.059574 0
77 1 0.269136 0.0711647 0
47 1 0.287711 0.0542811 0
48 1 0.308801 0.0671575 0
78 1 0.291381 0.0841574 0
50 1 0.326606 0.0501144 0
81 1 0.332475 0.0722866 0
52 1 0.351208 0.0550246 0
82 1 0.355879 0.078567 0
55 1 0.394153 0.0450048 0
83 1 0.376003 0.063599 0
54 1 0.400976 0.0684231 0
113 1 0.382528 0.086571 0
57 1 0.441915 0.0569857 0
85 1 0.424423 0.074365 0
56 1 0.418064 0.0509073 0
87 1 0.448266 0.0811042 0
59 1 0.484312 0.0459998 0
58 1 0.465415 0.0622879 0
89 1 0.489078 0.0701115 0
92 1 0.0231752 0.117851 0
93 1 0.0320199 0.0951597 0
1741 1 0.486276 0.957685 0
94 1 0.049363 0.11177 0
64 1 0.0576548 0.0881805 0
95 1 0.0748019 0.106457 0
125 1 0.0669078 0.130192 0
96 1 0.090545 0.12468 0
68 1 0.122768 0.0943242 0
97 1 0.0996917 0.10026 0
98 1 0.115463 0.119278 0
99 1 0.139646 0.112093 0
70 1 0.146649 0.0892476 0
100 1 0.163039 0.107397 0
131 1 0.178515 0.125954 0
101 1 0.187772 0.103422 0
102 1 0.205452 0.119392 0
105 1 0.216157 0.0972786 0
76 1 0.239922 0.0870841 0
106 1 0.232291 0.114801 0
107 1 0.266955 0.0958601 0
137 1 0.257853 0.117759 0
79 1 0.315325 0.0905502 0
108 1 0.282011 0.124914 0
109 1 0.298956 0.10672 0
80 1 0.340781 0.0962963 0
110 1 0.322687 0.114246 0
141 1 0.345759 0.119563 0
111 1 0.364107 0.102732 0
84 1 0.40693 0.0912095 0
112 1 0.388935 0.109349 0
143 1 0.370276 0.127653 0
115 1 0.4133 0.115248 0
86 1 0.431048 0.0983972 0
116 1 0.436326 0.123798 0
117 1 0.454019 0.105938 0
88 1 0.471381 0.0877312 0
90 1 0.494802 0.0951541 0
119 1 0.477047 0.112373 0
122 1 0.0184012 0.143042 0
123 1 0.0434312 0.135544 0
153 1 0.0365753 0.159889 0
152 1 0.0133628 0.167056 0
124 1 0.0606708 0.153535 0
126 1 0.0856223 0.148404 0
155 1 0.0773731 0.171687 0
127 1 0.108676 0.142481 0
128 1 0.125078 0.161759 0
129 1 0.13232 0.137126 0
157 1 0.101619 0.166189 0
159 1 0.148567 0.154441 0
130 1 0.15568 0.130418 0
132 1 0.172122 0.149189 0
161 1 0.166168 0.17285 0
104 1 0.219561 0.138105 0
133 1 0.195659 0.141926 0
163 1 0.190269 0.166765 0
134 1 0.212763 0.160679 0
135 1 0.243076 0.137234 0
136 1 0.266013 0.142661 0
165 1 0.248008 0.160641 0
167 1 0.270824 0.16665 0
139 1 0.30537 0.132477 0
138 1 0.288527 0.150093 0
169 1 0.311752 0.155485 0
168 1 0.294961 0.174854 0
140 1 0.329569 0.138165 0
142 1 0.352725 0.144738 0
171 1 0.334787 0.162916 0
172 1 0.358294 0.168518 0
114 1 0.394756 0.132231 0
173 1 0.377085 0.150448 0
144 1 0.40079 0.156913 0
145 1 0.418268 0.139797 0
146 1 0.424833 0.164686 0
147 1 0.442424 0.147654 0
177 1 0.448707 0.171714 0
118 1 0.459747 0.130057 0
149 1 0.484282 0.136816 0
148 1 0.465461 0.154745 0
150 1 0.490864 0.161032 0
183 1 0.0316018 0.185125 0
182 1 0.0242462 0.207972 0
1080 1 0.00751638 0.189407 0
184 1 0.0478725 0.203061 0
154 1 0.05416 0.177667 0
185 1 0.0714263 0.195557 0
186 1 0.0873464 0.215038 0
156 1 0.0940741 0.190431 0
158 1 0.11772 0.184521 0
187 1 0.110618 0.208864 0
189 1 0.135892 0.201869 0
160 1 0.142419 0.178613 0
191 1 0.160235 0.197023 0
221 1 0.177524 0.214191 0
162 1 0.18351 0.190256 0
193 1 0.207128 0.18405 0
192 1 0.201083 0.207041 0
164 1 0.230694 0.178283 0
195 1 0.233699 0.20227 0
166 1 0.253354 0.185008 0
196 1 0.257393 0.209134 0
197 1 0.276611 0.191826 0
199 1 0.301021 0.198719 0
198 1 0.281795 0.215888 0
170 1 0.318483 0.181339 0
201 1 0.342201 0.186915 0
200 1 0.324149 0.204801 0
202 1 0.347111 0.210898 0
203 1 0.36571 0.192876 0
174 1 0.383619 0.17512 0
204 1 0.388933 0.199141 0
175 1 0.405916 0.182728 0
233 1 0.37095 0.216328 0
205 1 0.412565 0.205685 0
176 1 0.431439 0.188895 0
207 1 0.437383 0.212266 0
178 1 0.455385 0.195862 0
179 1 0.472584 0.179045 0
180 1 0.495238 0.185255 0
209 1 0.478082 0.203566 0
213 1 0.0405731 0.226347 0
212 1 0.0172656 0.232376 0
243 1 0.0338865 0.250098 0
241 1 0.0102815 0.256774 0
215 1 0.0642143 0.220372 0
216 1 0.0805809 0.238812 0
214 1 0.0576385 0.244065 0
188 1 0.129497 0.225624 0
217 1 0.103394 0.232462 0
218 1 0.121883 0.248571 0
247 1 0.0977996 0.258227 0
219 1 0.146026 0.243474 0
190 1 0.152973 0.220394 0
220 1 0.170086 0.237044 0
222 1 0.184295 0.255486 0
223 1 0.194658 0.233121 0
194 1 0.218472 0.222068 0
224 1 0.221712 0.245765 0
225 1 0.241 0.226273 0
227 1 0.263749 0.234272 0
226 1 0.245335 0.253031 0
257 1 0.269646 0.258171 0
228 1 0.288002 0.239726 0
229 1 0.306019 0.222126 0
230 1 0.310988 0.247095 0
231 1 0.328618 0.229067 0
232 1 0.352938 0.234029 0
261 1 0.335491 0.25299 0
263 1 0.359464 0.258246 0
234 1 0.377003 0.240789 0
235 1 0.39423 0.222094 0
265 1 0.400529 0.245956 0
236 1 0.425116 0.254226 0
206 1 0.419648 0.230816 0
237 1 0.442939 0.237797 0
208 1 0.46086 0.220162 0
210 1 0.483868 0.226717 0
239 1 0.467166 0.244432 0
240 1 0.490512 0.252006 0
242 1 0.0273646 0.273893 0
273 1 0.0420413 0.292169 0
271 1 0.0215404 0.304224 0
1170 1 0.00444032 0.281534 0
245 1 0.0749708 0.263111 0
244 1 0.0512597 0.267429 0
275 1 0.0661467 0.286764 0
246 1 0.0907681 0.283767 0
248 1 0.113428 0.278978 0
277 1 0.105268 0.303754 0
279 1 0.129163 0.300961 0
249 1 0.137032 0.2667 0
250 1 0.149373 0.286457 0
251 1 0.160802 0.264022 0
281 1 0.170364 0.297729 0
253 1 0.206087 0.265081 0
252 1 0.186049 0.279914 0
254 1 0.210631 0.288489 0
283 1 0.19319 0.30615 0
255 1 0.228856 0.270753 0
256 1 0.252009 0.276132 0
285 1 0.234947 0.295188 0
287 1 0.258746 0.299005 0
258 1 0.275876 0.281205 0
259 1 0.294457 0.264324 0
289 1 0.300664 0.287156 0
260 1 0.318702 0.269786 0
262 1 0.34207 0.275375 0
291 1 0.324022 0.294238 0
292 1 0.348227 0.299451 0
264 1 0.383466 0.263728 0
293 1 0.36597 0.281242 0
295 1 0.389063 0.287796 0
266 1 0.406736 0.271163 0
238 1 0.448984 0.262222 0
267 1 0.430948 0.278188 0
297 1 0.412833 0.29727 0
268 1 0.453609 0.289277 0
1141 1 0.495156 0.27715 0
269 1 0.471259 0.269945 0
270 1 0.477479 0.295441 0
272 1 0.0452108 0.315924 0
301 1 0.025384 0.330493 0
1230 1 0.00516893 0.345929 0
276 1 0.0815018 0.306066 0
303 1 0.0491898 0.340636 0
274 1 0.0679156 0.324869 0
304 1 0.0727556 0.349515 0
305 1 0.0919269 0.328928 0
278 1 0.131092 0.32764 0
307 1 0.112349 0.343027 0
280 1 0.151401 0.311555 0
311 1 0.154243 0.336945 0
282 1 0.175329 0.322166 0
312 1 0.177412 0.346915 0
284 1 0.216652 0.312077 0
313 1 0.198714 0.329599 0
315 1 0.222943 0.336283 0
286 1 0.240427 0.318623 0
317 1 0.265204 0.321365 0
288 1 0.282302 0.304568 0
290 1 0.305508 0.312723 0
319 1 0.296553 0.336152 0
318 1 0.272759 0.344517 0
321 1 0.323282 0.329448 0
323 1 0.346085 0.322773 0
324 1 0.363059 0.339488 0
294 1 0.368656 0.31355 0
325 1 0.387065 0.333814 0
296 1 0.392594 0.311371 0
298 1 0.435687 0.320303 0
327 1 0.411597 0.327383 0
328 1 0.428403 0.344351 0
329 1 0.452361 0.337592 0
299 1 0.459904 0.313996 0
300 1 0.48449 0.318959 0
1201 1 0.491583 0.342687 0
302 1 0.0295055 0.354231 0
332 1 0.0329137 0.378931 0
331 1 0.0100791 0.369804 0
333 1 0.0521789 0.365066 0
335 1 0.0746806 0.374355 0
334 1 0.0554685 0.389767 0
306 1 0.0955184 0.360507 0
337 1 0.0999865 0.385194 0
308 1 0.119374 0.370741 0
309 1 0.13573 0.353245 0
339 1 0.141642 0.382893 0
310 1 0.159697 0.365421 0
341 1 0.165085 0.389614 0
343 1 0.183734 0.372393 0
314 1 0.200787 0.353409 0
344 1 0.212021 0.381931 0
345 1 0.223972 0.36061 0
316 1 0.248247 0.350878 0
347 1 0.268045 0.368218 0
346 1 0.244539 0.375712 0
349 1 0.290926 0.361056 0
348 1 0.285992 0.385318 0
350 1 0.30922 0.37848 0
320 1 0.315039 0.353203 0
322 1 0.340402 0.347077 0
351 1 0.33283 0.370817 0
353 1 0.357435 0.364113 0
352 1 0.350175 0.388023 0
355 1 0.381099 0.357716 0
354 1 0.374019 0.382334 0
356 1 0.398747 0.375596 0
326 1 0.404583 0.35124 0
357 1 0.422871 0.36845 0
359 1 0.445613 0.36142 0
358 1 0.441192 0.38543 0
330 1 0.469926 0.355315 0
1231 1 0.493547 0.366268 0
360 1 0.464531 0.378732 0
363 1 0.0359627 0.403967 0
361 1 0.011788 0.394415 0
362 1 0.0171465 0.418253 0
364 1 0.0408847 0.428974 0
336 1 0.0795155 0.399071 0
365 1 0.0589141 0.413945 0
366 1 0.0808705 0.42431 0
338 1 0.122305 0.397342 0
367 1 0.102103 0.411582 0
369 1 0.124549 0.421692 0
368 1 0.10498 0.436608 0
340 1 0.144766 0.408865 0
370 1 0.146448 0.433424 0
371 1 0.167842 0.415748 0
342 1 0.188315 0.398417 0
372 1 0.189977 0.424416 0
373 1 0.209683 0.409577 0
375 1 0.234528 0.398662 0
374 1 0.230807 0.423744 0
377 1 0.262178 0.392005 0
376 1 0.254196 0.414384 0
378 1 0.27935 0.408836 0
379 1 0.303302 0.402631 0
409 1 0.298062 0.425108 0
407 1 0.274439 0.431653 0
381 1 0.327344 0.395298 0
382 1 0.345304 0.413013 0
380 1 0.322477 0.420358 0
413 1 0.363769 0.430549 0
383 1 0.36919 0.405731 0
385 1 0.393321 0.399519 0
384 1 0.386736 0.423847 0
387 1 0.416519 0.39141 0
388 1 0.434917 0.408992 0
386 1 0.411568 0.415442 0
419 1 0.452395 0.428289 0
417 1 0.429539 0.434344 0
389 1 0.457929 0.403136 0
1261 1 0.480688 0.397347 0
390 1 0.47586 0.421038 0
393 1 0.0211186 0.44284 0
423 1 0.0223492 0.469332 0
392 1 0.000869624 0.456705 0
394 1 0.0428074 0.453522 0
395 1 0.0632461 0.439123 0
396 1 0.0644398 0.464466 0
397 1 0.084664 0.450201 0
427 1 0.0875874 0.474696 0
399 1 0.128244 0.448012 0
398 1 0.10904 0.461196 0
429 1 0.129958 0.475096 0
401 1 0.169346 0.441358 0
400 1 0.15019 0.459532 0
431 1 0.172618 0.468147 0
403 1 0.210555 0.437782 0
402 1 0.191052 0.452479 0
433 1 0.213159 0.463883 0
404 1 0.231144 0.448894 0
405 1 0.251692 0.438598 0
406 1 0.266627 0.457297 0
435 1 0.239972 0.472191 0
408 1 0.292298 0.448918 0
410 1 0.315915 0.442952 0
437 1 0.286479 0.472314 0
439 1 0.310197 0.468475 0
411 1 0.340346 0.437781 0
412 1 0.357869 0.453958 0
441 1 0.332587 0.460661 0
442 1 0.351591 0.477089 0
415 1 0.404686 0.440723 0
414 1 0.381198 0.447589 0
445 1 0.399556 0.465407 0
443 1 0.376521 0.472751 0
418 1 0.446595 0.451767 0
416 1 0.422721 0.457427 0
447 1 0.441376 0.475354 0
1291 1 0.493429 0.437985 0
420 1 0.47067 0.445639 0
1321 1 0.501563 0.461732 0
449 1 0.466587 0.470944 0
422 1 0.00215515 0.482922 0
453 1 0.00271728 0.507043 0
454 1 0.0247853 0.518628 0
424 1 0.0249793 0.493116 0
425 1 0.0457003 0.48036 0
426 1 0.0676962 0.48939 0
455 1 0.0469128 0.505079 0
456 1 0.0690692 0.516101 0
457 1 0.0904637 0.502123 0
428 1 0.109394 0.486282 0
459 1 0.132733 0.498354 0
458 1 0.112643 0.513116 0
430 1 0.153615 0.483828 0
461 1 0.175031 0.493475 0
460 1 0.15539 0.509036 0
462 1 0.178876 0.517465 0
434 1 0.219452 0.488117 0
432 1 0.194702 0.47769 0
463 1 0.198713 0.503023 0
464 1 0.220725 0.513485 0
436 1 0.263149 0.484461 0
465 1 0.242667 0.498542 0
467 1 0.26381 0.509745 0
438 1 0.284559 0.496045 0
469 1 0.30915 0.498324 0
468 1 0.287352 0.520155 0
440 1 0.329345 0.485661 0
470 1 0.329676 0.514229 0
471 1 0.349414 0.502006 0
444 1 0.39266 0.491137 0
473 1 0.3731 0.50937 0
474 1 0.39451 0.51895 0
475 1 0.413385 0.504805 0
446 1 0.41734 0.48151 0
477 1 0.436428 0.510884 0
448 1 0.456049 0.495625 0
450 1 0.489187 0.484158 0
479 1 0.477669 0.505367 0
478 1 0.459433 0.520837 0
452 1 0.00352445 0.532222 0
483 1 0.0258104 0.543276 0
482 1 0.00599512 0.556676 0
485 1 0.0470964 0.53085 0
484 1 0.049239 0.555089 0
486 1 0.0707049 0.540319 0
487 1 0.0913457 0.527136 0
515 1 0.0728366 0.565027 0
489 1 0.13519 0.523857 0
488 1 0.114319 0.538375 0
517 1 0.0940776 0.551407 0
519 1 0.116922 0.563531 0
490 1 0.136445 0.548239 0
491 1 0.157777 0.533837 0
521 1 0.159906 0.559012 0
492 1 0.181433 0.542436 0
493 1 0.200861 0.527154 0
494 1 0.203394 0.552786 0
495 1 0.22378 0.537445 0
525 1 0.225981 0.56241 0
466 1 0.243207 0.52308 0
496 1 0.24613 0.547098 0
497 1 0.267212 0.533858 0
527 1 0.268688 0.557597 0
499 1 0.309374 0.52758 0
498 1 0.290543 0.543904 0
500 1 0.312841 0.554081 0
472 1 0.353728 0.525155 0
501 1 0.332442 0.538763 0
502 1 0.354735 0.550498 0
503 1 0.375276 0.53581 0
505 1 0.397615 0.544946 0
504 1 0.377605 0.55986 0
476 1 0.417116 0.528192 0
507 1 0.440112 0.536092 0
506 1 0.420796 0.552418 0
508 1 0.443111 0.560883 0
480 1 0.482001 0.530458 0
509 1 0.46274 0.545642 0
510 1 0.486573 0.554415 0
513 1 0.0279182 0.567529 0
512 1 0.0301504 0.591928 0
511 1 0.00643232 0.581214 0
541 1 0.00829017 0.60551 0
514 1 0.0516066 0.578732 0
545 1 0.0751338 0.589363 0
543 1 0.0537384 0.602344 0
516 1 0.0962088 0.576505 0
518 1 0.11863 0.58816 0
547 1 0.0976815 0.602583 0
549 1 0.144427 0.597933 0
520 1 0.139484 0.573675 0
522 1 0.163965 0.583056 0
523 1 0.182245 0.566728 0
524 1 0.206299 0.577367 0
553 1 0.187653 0.592611 0
554 1 0.210578 0.603907 0
526 1 0.247951 0.571999 0
555 1 0.229089 0.587697 0
557 1 0.251655 0.596824 0
528 1 0.270734 0.581631 0
529 1 0.29256 0.568203 0
558 1 0.2742 0.605996 0
559 1 0.293929 0.591221 0
530 1 0.316087 0.5797 0
531 1 0.335658 0.564454 0
532 1 0.339674 0.590811 0
533 1 0.358141 0.575433 0
561 1 0.321689 0.607341 0
563 1 0.361991 0.601975 0
534 1 0.380987 0.586253 0
535 1 0.399152 0.569148 0
536 1 0.403426 0.593397 0
537 1 0.422737 0.577822 0
567 1 0.426652 0.601468 0
538 1 0.445615 0.585071 0
539 1 0.466117 0.570544 0
540 1 0.490927 0.578492 0
569 1 0.46847 0.59434 0
1441 1 0.490742 0.602514 0
542 1 0.0300834 0.617415 0
571 1 0.0099217 0.629575 0
573 1 0.0325757 0.64241 0
544 1 0.0529591 0.627669 0
546 1 0.074952 0.612777 0
575 1 0.0756567 0.635906 0
574 1 0.0567178 0.652632 0
548 1 0.125063 0.613759 0
577 1 0.101798 0.629812 0
579 1 0.125209 0.638926 0
551 1 0.16851 0.608681 0
550 1 0.14824 0.623451 0
581 1 0.17073 0.634432 0
580 1 0.149052 0.648523 0
552 1 0.189737 0.618968 0
582 1 0.195311 0.64351 0
583 1 0.214411 0.627853 0
556 1 0.23357 0.612572 0
585 1 0.237302 0.638035 0
586 1 0.260729 0.645972 0
587 1 0.256185 0.621488 0
560 1 0.298212 0.614066 0
589 1 0.279316 0.629535 0
590 1 0.301918 0.636925 0
562 1 0.342693 0.620915 0
591 1 0.325096 0.639046 0
593 1 0.349308 0.646321 0
565 1 0.384646 0.611103 0
564 1 0.366648 0.628461 0
595 1 0.389882 0.635858 0
566 1 0.408171 0.618453 0
596 1 0.413387 0.642925 0
597 1 0.432695 0.626978 0
568 1 0.449969 0.609721 0
570 1 0.471814 0.618905 0
599 1 0.455135 0.637217 0
600 1 0.479762 0.641237 0
572 1 0.0112301 0.653716 0
602 1 0.0136022 0.677262 0
603 1 0.0358825 0.66726 0
605 1 0.0733494 0.67103 0
604 1 0.0525681 0.687065 0
606 1 0.0769 0.695143 0
576 1 0.0916356 0.653653 0
578 1 0.11558 0.661664 0
607 1 0.0969762 0.678662 0
608 1 0.119793 0.687626 0
609 1 0.138322 0.671126 0
611 1 0.177022 0.659717 0
610 1 0.161205 0.678619 0
584 1 0.219095 0.65359 0
612 1 0.183913 0.68741 0
613 1 0.199646 0.66879 0
643 1 0.208002 0.695553 0
614 1 0.224569 0.678394 0
615 1 0.242876 0.661232 0
616 1 0.248948 0.686181 0
617 1 0.266158 0.669758 0
647 1 0.272236 0.69375 0
588 1 0.284779 0.653885 0
619 1 0.307946 0.659682 0
618 1 0.289782 0.677464 0
620 1 0.314614 0.682297 0
621 1 0.332085 0.664192 0
592 1 0.355652 0.67159 0
622 1 0.33812 0.689122 0
594 1 0.372355 0.652414 0
625 1 0.396804 0.660962 0
623 1 0.379448 0.678421 0
626 1 0.409755 0.692697 0
598 1 0.44437 0.662052 0
627 1 0.42027 0.666494 0
657 1 0.434173 0.686461 0
628 1 0.459576 0.683922 0
629 1 0.469163 0.662307 0
630 1 0.48589 0.681941 0
1501 1 0.495683 0.659496 0
633 1 0.0378563 0.705792 0
632 1 0.0145436 0.70105 0
663 1 0.0179331 0.724004 0
634 1 0.0411937 0.730081 0
635 1 0.0601656 0.713428 0
665 1 0.0647461 0.737661 0
636 1 0.0839189 0.7195 0
637 1 0.100849 0.702891 0
638 1 0.123887 0.711754 0
667 1 0.106118 0.729102 0
669 1 0.129203 0.736779 0
639 1 0.143284 0.695466 0
641 1 0.166554 0.703945 0
640 1 0.147792 0.720557 0
671 1 0.171527 0.728631 0
642 1 0.189653 0.711739 0
673 1 0.195818 0.73633 0
644 1 0.213561 0.719928 0
645 1 0.23112 0.702611 0
675 1 0.237142 0.727729 0
646 1 0.254444 0.710723 0
677 1 0.260934 0.73506 0
649 1 0.296555 0.700432 0
648 1 0.278554 0.717864 0
679 1 0.301949 0.724326 0
653 1 0.362687 0.69623 0
650 1 0.320323 0.706134 0
651 1 0.343436 0.714429 0
652 1 0.350252 0.738079 0
681 1 0.325994 0.730931 0
624 1 0.386305 0.702125 0
655 1 0.403042 0.717763 0
654 1 0.371535 0.72314 0
656 1 0.426716 0.710951 0
687 1 0.443244 0.729336 0
686 1 0.419486 0.73472 0
658 1 0.451506 0.70544 0
659 1 0.47676 0.704905 0
660 1 0.491864 0.724327 0
689 1 0.467928 0.728857 0
662 1 0.0231073 0.748459 0
691 1 0.00433888 0.764638 0
693 1 0.0275075 0.773164 0
664 1 0.0465563 0.754491 0
666 1 0.0875409 0.745474 0
695 1 0.0708301 0.762128 0
694 1 0.0511082 0.779959 0
697 1 0.0937377 0.770487 0
668 1 0.111019 0.753213 0
698 1 0.117581 0.778474 0
699 1 0.134915 0.761774 0
670 1 0.153408 0.744805 0
701 1 0.158184 0.768383 0
672 1 0.177244 0.752743 0
702 1 0.181081 0.778408 0
674 1 0.220375 0.743976 0
703 1 0.200547 0.759862 0
705 1 0.223758 0.768535 0
676 1 0.242879 0.753046 0
706 1 0.259109 0.781424 0
707 1 0.266909 0.75876 0
678 1 0.284308 0.74121 0
680 1 0.308409 0.748983 0
709 1 0.290286 0.765718 0
682 1 0.349279 0.762211 0
711 1 0.324043 0.768223 0
685 1 0.393359 0.741305 0
683 1 0.370685 0.751199 0
713 1 0.368366 0.777096 0
684 1 0.390667 0.765987 0
715 1 0.413431 0.758429 0
717 1 0.437287 0.752062 0
718 1 0.447099 0.774859 0
690 1 0.487185 0.759261 0
688 1 0.461773 0.754187 0
719 1 0.471613 0.777727 0
692 1 0.00871766 0.78874 0
722 1 0.0127331 0.814542 0
723 1 0.0338375 0.796768 0
724 1 0.0386801 0.820998 0
696 1 0.0748106 0.786336 0
725 1 0.0570699 0.804298 0
726 1 0.081934 0.810709 0
727 1 0.0995076 0.794954 0
728 1 0.123905 0.802807 0
757 1 0.104572 0.819216 0
700 1 0.143314 0.786714 0
729 1 0.147016 0.812361 0
730 1 0.170742 0.823177 0
731 1 0.167172 0.797253 0
704 1 0.204983 0.784283 0
732 1 0.19047 0.805681 0
733 1 0.215834 0.805605 0
735 1 0.235098 0.79101 0
736 1 0.237075 0.816572 0
737 1 0.25741 0.805549 0
710 1 0.306363 0.784331 0
708 1 0.281366 0.793455 0
738 1 0.278629 0.819149 0
739 1 0.302686 0.809531 0
712 1 0.345706 0.786675 0
740 1 0.32284 0.823484 0
741 1 0.324119 0.799609 0
742 1 0.344128 0.81275 0
714 1 0.388437 0.792334 0
743 1 0.366474 0.801969 0
745 1 0.387899 0.817269 0
716 1 0.410309 0.782432 0
746 1 0.410888 0.806863 0
747 1 0.431475 0.794677 0
748 1 0.432359 0.819537 0
749 1 0.456644 0.797389 0
1591 1 0.49682 0.784916 0
720 1 0.480377 0.802694 0
750 1 0.463478 0.821065 0
752 1 0.00401315 0.853553 0
753 1 0.021632 0.837431 0
783 1 0.0293 0.861063 0
754 1 0.0463394 0.844266 0
755 1 0.0641053 0.828334 0
785 1 0.0733352 0.852894 0
784 1 0.0537312 0.867578 0
756 1 0.091565 0.838782 0
759 1 0.12723 0.827144 0
758 1 0.115325 0.84784 0
787 1 0.096503 0.862536 0
789 1 0.143647 0.861194 0
760 1 0.149836 0.835898 0
761 1 0.168955 0.850686 0
763 1 0.190475 0.839509 0
734 1 0.211804 0.828564 0
762 1 0.189043 0.864738 0
764 1 0.211082 0.852923 0
767 1 0.257075 0.831666 0
765 1 0.233813 0.84083 0
795 1 0.232626 0.864847 0
766 1 0.255404 0.855134 0
797 1 0.276489 0.868726 0
769 1 0.29926 0.833349 0
768 1 0.277699 0.8446 0
799 1 0.299437 0.858263 0
770 1 0.320294 0.847499 0
771 1 0.343066 0.837898 0
772 1 0.343287 0.863824 0
773 1 0.363749 0.851431 0
744 1 0.365311 0.826873 0
775 1 0.385809 0.841698 0
774 1 0.382535 0.866723 0
776 1 0.405249 0.856845 0
777 1 0.407762 0.83206 0
778 1 0.446202 0.841159 0
807 1 0.430127 0.857801 0
809 1 0.454923 0.864141 0
1621 1 0.487136 0.826938 0
1651 1 0.496087 0.85113 0
779 1 0.471529 0.84527 0
780 1 0.479718 0.869047 0
782 1 0.00643371 0.87763 0
813 1 0.035991 0.883788 0
812 1 0.0178355 0.898823 0
786 1 0.0773897 0.876715 0
815 1 0.0584226 0.89388 0
816 1 0.0811572 0.899915 0
788 1 0.121366 0.873257 0
817 1 0.101388 0.887538 0
819 1 0.121959 0.899786 0
818 1 0.101152 0.913145 0
791 1 0.166491 0.875958 0
790 1 0.143328 0.885436 0
821 1 0.165338 0.90043 0
792 1 0.187697 0.889007 0
793 1 0.210406 0.877182 0
823 1 0.208613 0.902196 0
794 1 0.230653 0.889947 0
796 1 0.25262 0.879679 0
827 1 0.25141 0.903363 0
798 1 0.274975 0.892256 0
800 1 0.29834 0.883026 0
829 1 0.295723 0.907165 0
831 1 0.32042 0.89809 0
801 1 0.320235 0.872365 0
802 1 0.345808 0.894669 0
833 1 0.364751 0.911847 0
805 1 0.40037 0.882229 0
803 1 0.371286 0.888185 0
804 1 0.389141 0.905923 0
806 1 0.416482 0.900557 0
808 1 0.436129 0.881512 0
839 1 0.446909 0.905131 0
1681 1 0.487668 0.892992 0
810 1 0.463014 0.886614 0
840 1 0.470187 0.910614 0
814 1 0.0387272 0.913522 0
842 1 0.00903331 0.946356 0
843 1 0.0143273 0.922634 0
844 1 0.0331649 0.939101 0
845 1 0.0558795 0.930516 0
846 1 0.0764224 0.948061 0
847 1 0.079571 0.923953 0
848 1 0.100319 0.937598 0
849 1 0.123311 0.926131 0
879 1 0.120513 0.950754 0
820 1 0.144593 0.912222 0
850 1 0.143522 0.939561 0
851 1 0.164815 0.925737 0
852 1 0.164971 0.950122 0
822 1 0.186763 0.913228 0
824 1 0.208352 0.926435 0
853 1 0.186308 0.937619 0
854 1 0.207586 0.951053 0
825 1 0.229914 0.914312 0
855 1 0.229004 0.940333 0
826 1 0.250216 0.928185 0
857 1 0.269549 0.941879 0
828 1 0.272633 0.917411 0
859 1 0.291927 0.931883 0
860 1 0.310273 0.948594 0
830 1 0.315284 0.92489 0
832 1 0.340148 0.91845 0
861 1 0.333697 0.942093 0
863 1 0.357407 0.935488 0
835 1 0.405732 0.925182 0
834 1 0.381224 0.930312 0
864 1 0.374836 0.955021 0
865 1 0.39895 0.949426 0
837 1 0.429276 0.920795 0
838 1 0.451538 0.932642 0
836 1 0.422806 0.944603 0
870 1 0.463663 0.953517 0
869 1 0.476438 0.934019 0
1711 1 0.494521 0.917226 0
872 1 0.0214026 0.986848 0
873 1 0.0279307 0.96248 0
871 1 0.00310698 0.970143 0
875 1 0.0517487 0.95564 0
5 1 0.064626 0.995006 0
874 1 0.046298 0.979445 0
876 1 0.0715585 0.97126 0
7 1 0.0914396 0.987745 0
877 1 0.0978157 0.963135 0
878 1 0.119585 0.979573 0
880 1 0.144886 0.989066 0
881 1 0.142093 0.964217 0
882 1 0.164699 0.974809 0
15 1 0.219127 0.997888 0
13 1 0.186239 0.987732 0
883 1 0.185576 0.962485 0
884 1 0.207676 0.975412 0
856 1 0.251796 0.959053 0
885 1 0.22901 0.965673 0
17 1 0.263728 0.999768 0
887 1 0.243957 0.98516 0
888 1 0.269974 0.975318 0
858 1 0.286911 0.957303 0
19 1 0.288936 0.99291 0
889 1 0.304403 0.973487 0
862 1 0.352382 0.960158 0
891 1 0.328582 0.965983 0
890 1 0.321758 0.989602 0
892 1 0.345316 0.98312 0
893 1 0.368651 0.978668 0
895 1 0.392666 0.972592 0
894 1 0.386397 0.995283 0
896 1 0.410942 0.991587 0
867 1 0.440316 0.961583 0
897 1 0.435282 0.986941 0
866 1 0.417488 0.968822 0
899 1 0.472958 0.998195 0
868 1 0.45849 0.977828 0
1771 1 0.491469 0.981287 0
1200 1 0.00256922 0.321523 0
931 1 0.524697 0.0367792 0
901 1 0.520446 0.0124801 0
902 1 0.545099 0.0199244 0
30 1 0.501578 0.0297647 0
904 1 0.568477 0.0258286 0
906 1 0.586965 0.00922727 0
905 1 0.5621 0.0019557 0
935 1 0.592052 0.0344969 0
908 1 0.609757 0.0169474 0
937 1 0.615041 0.0420299 0
939 1 0.633618 0.024961 0
910 1 0.651693 0.00777034 0
941 1 0.657352 0.0319404 0
912 1 0.674799 0.0141504 0
942 1 0.680483 0.0381384 0
943 1 0.699787 0.0219895 0
914 1 0.71705 0.00300043 0
945 1 0.724576 0.0277397 0
916 1 0.75429 0.00670498 0
947 1 0.750247 0.0345427 0
918 1 0.774537 0.0223232 0
919 1 0.797145 0.0129041 0
949 1 0.79555 0.0373326 0
951 1 0.817904 0.0284167 0
920 1 0.820836 0.00533398 0
922 1 0.840445 0.0221097 0
953 1 0.860044 0.0403663 0
923 1 0.863543 0.0142974 0
924 1 0.887259 0.00768169 0
954 1 0.88172 0.0315745 0
955 1 0.904193 0.0254537 0
926 1 0.926512 0.0175428 0
928 1 0.950205 0.00988036 0
957 1 0.943832 0.0344321 0
925 1 0.9099 0.000445935 0
930 1 0.992331 0.0179071 0
959 1 0.967737 0.0253924 0
929 1 0.973992 0.0018347 0
960 1 0.986614 0.0431765 0
932 1 0.53166 0.0613208 0
962 1 0.537082 0.0855746 0
961 1 0.512772 0.0780751 0
60 1 0.507619 0.0535864 0
933 1 0.550065 0.0433088 0
963 1 0.55505 0.067899 0
934 1 0.573326 0.0496912 0
965 1 0.578277 0.0745061 0
936 1 0.597514 0.0592264 0
966 1 0.602366 0.0842091 0
967 1 0.620846 0.0664063 0
938 1 0.638286 0.0493399 0
969 1 0.644547 0.0737112 0
940 1 0.66244 0.0557301 0
970 1 0.667857 0.0807882 0
971 1 0.685884 0.0623268 0
944 1 0.704306 0.0467249 0
973 1 0.709568 0.0710649 0
975 1 0.728356 0.0516435 0
974 1 0.732098 0.0769341 0
976 1 0.754268 0.0859418 0
946 1 0.750063 0.0611488 0
948 1 0.77262 0.0459504 0
977 1 0.771134 0.0705604 0
979 1 0.792195 0.0619328 0
950 1 0.813711 0.0534299 0
978 1 0.800798 0.0848678 0
980 1 0.823396 0.0775145 0
981 1 0.849263 0.0680144 0
952 1 0.836743 0.0462616 0
983 1 0.873379 0.060559 0
985 1 0.896783 0.0503467 0
984 1 0.891299 0.0775832 0
982 1 0.867277 0.0852378 0
956 1 0.921458 0.0433672 0
986 1 0.915318 0.0679915 0
987 1 0.941274 0.0599982 0
1017 1 0.935313 0.0850763 0
988 1 0.959867 0.0759637 0
958 1 0.963308 0.0502959 0
989 1 0.982444 0.0675141 0
991 1 0.518926 0.102652 0
992 1 0.525108 0.126914 0
993 1 0.542422 0.109972 0
120 1 0.501246 0.118298 0
964 1 0.560508 0.0917895 0
994 1 0.566257 0.118952 0
995 1 0.584334 0.101449 0
996 1 0.590029 0.1255 0
968 1 0.626219 0.0906895 0
997 1 0.60948 0.109221 0
998 1 0.632329 0.116051 0
999 1 0.650138 0.0972489 0
1000 1 0.655988 0.121921 0
1001 1 0.673565 0.104375 0
972 1 0.691101 0.0872625 0
1002 1 0.696406 0.111296 0
1003 1 0.713972 0.0941514 0
1004 1 0.720461 0.118279 0
1005 1 0.736987 0.101687 0
1006 1 0.767191 0.11617 0
1035 1 0.744199 0.124491 0
1007 1 0.777588 0.0943957 0
1008 1 0.794357 0.109958 0
1009 1 0.818747 0.102235 0
1039 1 0.81052 0.127366 0
1010 1 0.83704 0.118451 0
1011 1 0.842511 0.0919159 0
1012 1 0.860741 0.110241 0
1013 1 0.887001 0.100844 0
1014 1 0.89014 0.125617 0
1015 1 0.911474 0.0931237 0
1016 1 0.911741 0.117282 0
1047 1 0.934306 0.109466 0
1049 1 0.953644 0.12582 0
1018 1 0.956002 0.100609 0
1019 1 0.978636 0.0923508 0
1020 1 0.976433 0.117357 0
1022 1 0.531449 0.151521 0
1051 1 0.513858 0.169148 0
1021 1 0.50842 0.143952 0
1023 1 0.549445 0.135499 0
1024 1 0.555321 0.159788 0
1025 1 0.572867 0.142757 0
1055 1 0.577793 0.167069 0
1027 1 0.614762 0.133284 0
1026 1 0.596486 0.14931 0
1028 1 0.620042 0.156886 0
1057 1 0.602385 0.17345 0
1031 1 0.679688 0.128004 0
1029 1 0.639143 0.139674 0
1059 1 0.64437 0.163453 0
1030 1 0.662339 0.146123 0
1061 1 0.669048 0.170869 0
1032 1 0.686225 0.152314 0
1033 1 0.703599 0.135736 0
1063 1 0.709014 0.159938 0
1034 1 0.726662 0.142679 0
1036 1 0.752761 0.147663 0
1065 1 0.733123 0.166113 0
1066 1 0.75722 0.173345 0
1067 1 0.775212 0.156777 0
1037 1 0.7856 0.133779 0
1038 1 0.798875 0.153992 0
1069 1 0.81484 0.17144 0
1040 1 0.822558 0.147751 0
1071 1 0.838738 0.165722 0
1041 1 0.845486 0.141931 0
1042 1 0.862923 0.159604 0
1043 1 0.867489 0.133862 0
1044 1 0.886002 0.150369 0
1075 1 0.905045 0.168791 0
1045 1 0.90896 0.14415 0
1046 1 0.93091 0.133844 0
1048 1 0.950838 0.152385 0
1077 1 0.927209 0.159702 0
121 1 0.99582 0.133011 0
1050 1 0.973787 0.142185 0
151 1 0.990591 0.159669 0
1079 1 0.968249 0.171691 0
1053 1 0.537822 0.176573 0
1052 1 0.519826 0.193028 0
1081 1 0.501953 0.209272 0
1083 1 0.543221 0.200379 0
1054 1 0.561146 0.184148 0
1056 1 0.584655 0.190553 0
1085 1 0.567009 0.208074 0
1086 1 0.590425 0.21486 0
1058 1 0.626661 0.180931 0
1087 1 0.608428 0.197508 0
1089 1 0.63266 0.205329 0
1060 1 0.650674 0.187016 0
1091 1 0.675161 0.194062 0
1090 1 0.657587 0.211595 0
1062 1 0.692637 0.177491 0
1093 1 0.698941 0.201765 0
1064 1 0.716282 0.184222 0
1094 1 0.722398 0.208392 0
1095 1 0.739601 0.190388 0
1097 1 0.763001 0.196995 0
1096 1 0.74522 0.214939 0
1068 1 0.791314 0.177802 0
1098 1 0.78749 0.202172 0
1099 1 0.80957 0.194688 0
1100 1 0.826357 0.212035 0
1070 1 0.833076 0.189138 0
1072 1 0.856821 0.183606 0
1101 1 0.85002 0.206741 0
1073 1 0.880816 0.17647 0
1103 1 0.873467 0.201449 0
1074 1 0.897667 0.194717 0
1105 1 0.911338 0.214406 0
1078 1 0.944189 0.17799 0
1076 1 0.921609 0.186037 0
1107 1 0.934601 0.206119 0
1109 1 0.958871 0.197633 0
181 1 0.983027 0.191577 0
211 1 0.999842 0.213057 0
1082 1 0.524738 0.21735 0
1111 1 0.508082 0.234563 0
1113 1 0.531564 0.241608 0
1112 1 0.513227 0.260367 0
1084 1 0.550077 0.225886 0
1114 1 0.555087 0.249363 0
1115 1 0.573569 0.232017 0
1116 1 0.579732 0.255664 0
1088 1 0.615023 0.222119 0
1117 1 0.598125 0.238854 0
1118 1 0.62144 0.246196 0
1092 1 0.680647 0.218428 0
1119 1 0.639879 0.229383 0
1121 1 0.663413 0.236303 0
1120 1 0.643864 0.253163 0
1151 1 0.669164 0.260636 0
1122 1 0.686572 0.242846 0
1123 1 0.704203 0.226288 0
1124 1 0.709455 0.250711 0
1125 1 0.728186 0.23308 0
1126 1 0.751957 0.238501 0
1155 1 0.734663 0.256832 0
1127 1 0.769759 0.220954 0
1129 1 0.79336 0.225184 0
1128 1 0.776689 0.244453 0
1159 1 0.799688 0.250157 0
1130 1 0.815993 0.232963 0
1131 1 0.840512 0.232621 0
1161 1 0.826122 0.254856 0
1132 1 0.852385 0.256855 0
1102 1 0.864467 0.226569 0
1104 1 0.887849 0.220388 0
1133 1 0.879928 0.244481 0
1135 1 0.904665 0.23846 0
1108 1 0.952175 0.224146 0
1136 1 0.921548 0.254896 0
1106 1 0.928884 0.231301 0
1137 1 0.946727 0.249151 0
1110 1 0.97636 0.219136 0
1139 1 0.970043 0.24318 0