ITEM: TIMESTEP
24000
ITEM: NUMBER OF ATOMS
1800
ITEM: BOX BOUNDS pp pp pp
5.3661196170467917e-01 1.6446338803829661e+02
5.3661196170467917e-01 1.6446338803829661e+02
0.0000000000000000e+00 5.5000000000000000e+00
ITEM: ATOMS id type xs ys zs
2 1 0.0156793 0.0105133 0
3 1 0.0395325 0.00432069 0
33 1 0.0333079 0.02788 0
31 1 0.00996828 0.0349408 0
4 1 0.0574696 0.0211036 0
6 1 0.0812399 0.0152267 0
35 1 0.0754071 0.0384203 0
8 1 0.104003 0.00994885 0
37 1 0.0990517 0.0326868 0
39 1 0.12541 0.0289381 0
9 1 0.127621 0.00389214 0
10 1 0.148557 0.0150432 0
41 1 0.172613 0.0249804 0
40 1 0.151059 0.0401792 0
11 1 0.16897 0.000993169 0
12 1 0.19501 0.0101179 0
43 1 0.196423 0.0334338 0
14 1 0.218304 0.022995 0
45 1 0.240268 0.0367939 0
16 1 0.260501 0.0229279 0
886 1 0.239494 0.00958097 0
17 1 0.263478 -0.00115422 0
18 1 0.282918 0.0164066 0
20 1 0.305008 0.00642571 0
49 1 0.30081 0.0397549 0
51 1 0.320749 0.0255972 0
22 1 0.34445 0.0321267 0
21 1 0.339229 0.00897962 0
23 1 0.364892 0.0106073 0
24 1 0.388944 0.0186105 0
53 1 0.368941 0.0345036 0
25 1 0.412559 0.0247341 0
26 1 0.436404 0.0338378 0
27 1 0.430114 0.00833123 0
898 1 0.453617 0.016765 0
28 1 0.460049 0.0420597 0
29 1 0.476209 0.0234362 0
900 1 0.493813 0.00656052 0
899 1 0.470349 -0.00213508 0
32 1 0.0274472 0.0510632 0
62 1 0.0215398 0.0751195 0
61 1 0.00336319 0.0590902 0
63 1 0.043794 0.0689654 0
34 1 0.0514407 0.0449496 0
65 1 0.0678855 0.0633821 0
66 1 0.083575 0.0817366 0
36 1 0.0911649 0.0575555 0
38 1 0.114762 0.0511219 0
67 1 0.107931 0.0746878 0
69 1 0.131659 0.0697542 0
71 1 0.156076 0.0642439 0
42 1 0.174379 0.0486467 0
72 1 0.173276 0.0825028 0
44 1 0.2192 0.0485691 0
73 1 0.19638 0.0569681 0
74 1 0.221401 0.0728999 0
103 1 0.198256 0.0806843 0
46 1 0.262775 0.0481686 0
75 1 0.242162 0.0622189 0
77 1 0.263946 0.0784894 0
47 1 0.283309 0.0602367 0
48 1 0.30744 0.064504 0
78 1 0.292526 0.0830854 0
50 1 0.326565 0.049585 0
81 1 0.333513 0.0730162 0
52 1 0.35258 0.0551333 0
82 1 0.357662 0.0786922 0
55 1 0.394299 0.0417479 0
83 1 0.376963 0.0596843 0
54 1 0.400648 0.0665935 0
113 1 0.38183 0.0841497 0
57 1 0.441286 0.0578154 0
85 1 0.42381 0.0746277 0
56 1 0.417866 0.0499487 0
87 1 0.448083 0.0816781 0
59 1 0.483947 0.047638 0
58 1 0.464916 0.0647564 0
89 1 0.489116 0.0712029 0
92 1 0.026796 0.117908 0
93 1 0.0348393 0.0952496 0
94 1 0.0519014 0.111979 0
64 1 0.059087 0.0876082 0
95 1 0.0758759 0.105253 0
96 1 0.0924306 0.124572 0
68 1 0.123857 0.093577 0
97 1 0.0994521 0.0999507 0
98 1 0.116239 0.117602 0
99 1 0.140398 0.111904 0
70 1 0.147937 0.0872779 0
100 1 0.164464 0.106359 0
131 1 0.181022 0.124445 0
130 1 0.157596 0.129865 0
101 1 0.188922 0.101949 0
102 1 0.205057 0.119169 0
105 1 0.215457 0.0974837 0
76 1 0.2413 0.0899576 0
106 1 0.232895 0.115195 0
137 1 0.257355 0.116319 0
107 1 0.276039 0.1012 0
79 1 0.315631 0.0888966 0
108 1 0.281521 0.125364 0
109 1 0.300322 0.10709 0
80 1 0.340627 0.0960461 0
110 1 0.322914 0.113974 0
141 1 0.346521 0.119558 0
111 1 0.36405 0.102518 0
84 1 0.405593 0.0908921 0
112 1 0.387334 0.108882 0
143 1 0.370931 0.127469 0
115 1 0.411398 0.116828 0
86 1 0.430714 0.0989482 0
116 1 0.436138 0.123102 0
117 1 0.454507 0.106452 0
88 1 0.470719 0.0881478 0
90 1 0.495481 0.0954228 0
119 1 0.478277 0.11242 0
118 1 0.459985 0.130121 0
122 1 0.0180105 0.141689 0
123 1 0.0427723 0.136274 0
153 1 0.036515 0.160306 0
152 1 0.0138441 0.166626 0
125 1 0.0673439 0.130309 0
124 1 0.0604068 0.154089 0
126 1 0.084135 0.147592 0
155 1 0.0777139 0.172087 0
127 1 0.108779 0.142383 0
128 1 0.126157 0.159074 0
129 1 0.132929 0.135471 0
157 1 0.101471 0.166184 0
159 1 0.1499 0.154308 0
132 1 0.173315 0.148555 0
161 1 0.166419 0.172103 0
104 1 0.219418 0.137058 0
133 1 0.196508 0.142857 0
163 1 0.190891 0.1669 0
134 1 0.214396 0.161765 0
135 1 0.242757 0.137496 0
136 1 0.26494 0.144254 0
165 1 0.245173 0.161992 0
167 1 0.268997 0.168107 0
139 1 0.304989 0.131579 0
138 1 0.287706 0.149883 0
169 1 0.311918 0.155015 0
140 1 0.329001 0.137685 0
142 1 0.35234 0.145012 0
171 1 0.335875 0.162079 0
172 1 0.359887 0.168587 0
114 1 0.394643 0.135113 0
173 1 0.377704 0.151943 0
144 1 0.401156 0.158556 0
145 1 0.418264 0.139875 0
146 1 0.425192 0.164497 0
147 1 0.442053 0.147956 0
177 1 0.448919 0.171044 0
149 1 0.483915 0.136313 0
148 1 0.465907 0.153471 0
150 1 0.490316 0.160705 0
183 1 0.0311007 0.185483 0
182 1 0.0243356 0.209418 0
1080 1 0.00756474 0.190564 0
211 1 0.000299747 0.213703 0
184 1 0.0486037 0.203661 0
154 1 0.054485 0.179549 0
185 1 0.0720476 0.196858 0
186 1 0.0887443 0.214074 0
156 1 0.0957955 0.190382 0
158 1 0.119383 0.183283 0
187 1 0.112443 0.208935 0
189 1 0.135561 0.20199 0
160 1 0.142349 0.178111 0
191 1 0.159212 0.196134 0
221 1 0.175278 0.215303 0
162 1 0.182766 0.190353 0
193 1 0.206595 0.185843 0
192 1 0.19849 0.208615 0
164 1 0.229565 0.180604 0
195 1 0.233603 0.205624 0
166 1 0.252551 0.186104 0
196 1 0.258854 0.210484 0
168 1 0.294252 0.173601 0
197 1 0.276984 0.191733 0
199 1 0.301919 0.198608 0
198 1 0.283227 0.214882 0
170 1 0.318982 0.179945 0
201 1 0.343105 0.186728 0
200 1 0.326288 0.203225 0
202 1 0.349413 0.210914 0
203 1 0.366294 0.193236 0
174 1 0.383935 0.175661 0
204 1 0.390025 0.200015 0
175 1 0.407237 0.182623 0
233 1 0.37216 0.217417 0
205 1 0.413458 0.206139 0
176 1 0.431936 0.189473 0
207 1 0.438412 0.213183 0
178 1 0.45524 0.196266 0
179 1 0.472644 0.177379 0
180 1 0.495306 0.18649 0
209 1 0.478249 0.204219 0
213 1 0.0411739 0.227486 0
212 1 0.017798 0.232973 0
243 1 0.035112 0.250995 0
241 1 0.0101666 0.25738 0
215 1 0.0650295 0.221117 0
216 1 0.0816748 0.239466 0
214 1 0.0585399 0.244824 0
188 1 0.12944 0.226092 0
217 1 0.105443 0.233518 0
218 1 0.122627 0.250268 0
247 1 0.0991213 0.258427 0
219 1 0.145848 0.244991 0
190 1 0.152305 0.219758 0
220 1 0.168792 0.238918 0
222 1 0.185038 0.256128 0
223 1 0.193816 0.23294 0
194 1 0.216704 0.223612 0
224 1 0.222653 0.247101 0
225 1 0.240065 0.22938 0
227 1 0.264658 0.233745 0
226 1 0.247303 0.252795 0
257 1 0.270617 0.258672 0
228 1 0.288616 0.239607 0
229 1 0.307142 0.222414 0
230 1 0.312979 0.245752 0
231 1 0.330909 0.227679 0
232 1 0.353323 0.235406 0
261 1 0.33672 0.252636 0
263 1 0.360655 0.25822 0
234 1 0.3785 0.240763 0
235 1 0.396082 0.223074 0
265 1 0.402166 0.247783 0
236 1 0.425405 0.254508 0
206 1 0.42069 0.230442 0
237 1 0.443124 0.238305 0
208 1 0.460916 0.221479 0
210 1 0.484147 0.227359 0
239 1 0.467303 0.244754 0
240 1 0.491145 0.251879 0
242 1 0.0280205 0.275657 0
273 1 0.044584 0.293042 0
1170 1 0.00120172 0.282532 0
245 1 0.0750299 0.263069 0
244 1 0.0521706 0.268865 0
275 1 0.0685417 0.286822 0
246 1 0.0923175 0.284389 0
248 1 0.116634 0.282384 0
279 1 0.129922 0.305686 0
249 1 0.139284 0.269582 0
250 1 0.149832 0.290994 0
251 1 0.16295 0.269629 0
281 1 0.171479 0.301203 0
253 1 0.206445 0.26442 0
252 1 0.186303 0.281279 0
254 1 0.209979 0.289701 0
255 1 0.229133 0.271389 0
256 1 0.252858 0.276136 0
285 1 0.234467 0.295993 0
287 1 0.258387 0.299352 0
258 1 0.277385 0.281364 0
259 1 0.295619 0.262673 0
289 1 0.301611 0.28685 0
260 1 0.319752 0.26998 0
262 1 0.34322 0.275343 0
291 1 0.325601 0.294069 0
292 1 0.349121 0.299221 0
264 1 0.385066 0.264504 0
293 1 0.367093 0.281707 0
295 1 0.390602 0.288137 0
266 1 0.409129 0.272504 0
238 1 0.449573 0.261449 0
267 1 0.431988 0.282222 0
297 1 0.414825 0.299375 0
268 1 0.455655 0.285781 0
1141 1 0.496488 0.276814 0
269 1 0.473138 0.268857 0
270 1 0.47791 0.293982 0
271 1 0.0234689 0.304348 0
1200 1 0.00405797 0.320569 0
301 1 0.0261547 0.331279 0
1230 1 0.00554132 0.346086 0
272 1 0.0456982 0.317275 0
276 1 0.0821208 0.307289 0
303 1 0.0499064 0.342123 0
274 1 0.0686974 0.32775 0
277 1 0.106023 0.306 0
305 1 0.0964377 0.331066 0
278 1 0.130784 0.330918 0
307 1 0.113729 0.348142 0
280 1 0.15192 0.315991 0
311 1 0.153644 0.340069 0
282 1 0.173847 0.325967 0
283 1 0.193936 0.310982 0
284 1 0.217546 0.313241 0
313 1 0.198913 0.33534 0
315 1 0.222934 0.338307 0
286 1 0.240502 0.320992 0
317 1 0.264321 0.32212 0
318 1 0.273077 0.343427 0
288 1 0.283325 0.306406 0
290 1 0.307743 0.310623 0
319 1 0.294114 0.331918 0
321 1 0.320071 0.330566 0
323 1 0.344311 0.323604 0
322 1 0.338426 0.346276 0
324 1 0.362176 0.340141 0
294 1 0.368145 0.316794 0
325 1 0.386125 0.334282 0
296 1 0.392037 0.311374 0
298 1 0.434308 0.315597 0
327 1 0.41159 0.325361 0
328 1 0.429933 0.342468 0
329 1 0.45413 0.335666 0
299 1 0.459074 0.310887 0
300 1 0.482827 0.31829 0
1201 1 0.489955 0.342885 0
302 1 0.0288327 0.355896 0
332 1 0.0324747 0.379855 0
331 1 0.010357 0.370222 0
304 1 0.0727681 0.352717 0
333 1 0.0514774 0.366495 0
335 1 0.0743321 0.377522 0
306 1 0.0945746 0.364025 0
337 1 0.0979788 0.387998 0
308 1 0.118423 0.371181 0
309 1 0.137456 0.357223 0
312 1 0.177448 0.349517 0
339 1 0.139804 0.381861 0
310 1 0.159739 0.36614 0
343 1 0.181566 0.375758 0
341 1 0.163665 0.39076 0
314 1 0.199939 0.359809 0
344 1 0.207034 0.38501 0
345 1 0.223511 0.362627 0
316 1 0.246225 0.346628 0
347 1 0.266852 0.36653 0
346 1 0.243642 0.3737 0
377 1 0.261199 0.389951 0
349 1 0.290744 0.35877 0
348 1 0.285325 0.383064 0
350 1 0.309483 0.376826 0
320 1 0.314851 0.353545 0
351 1 0.332632 0.370362 0
353 1 0.357128 0.363348 0
352 1 0.35078 0.386314 0
355 1 0.380841 0.357262 0
354 1 0.375053 0.381485 0
356 1 0.399633 0.374271 0
326 1 0.405612 0.349208 0
357 1 0.422732 0.367093 0
359 1 0.446365 0.36128 0
358 1 0.440124 0.385026 0
330 1 0.470507 0.357113 0
1231 1 0.49429 0.367178 0
360 1 0.464023 0.380806 0
363 1 0.0353712 0.40547 0
361 1 0.0126958 0.395467 0
362 1 0.0147133 0.420215 0
364 1 0.0392818 0.430071 0
334 1 0.0539671 0.391542 0
336 1 0.0777073 0.401463 0
365 1 0.0602364 0.416912 0
366 1 0.0810771 0.428297 0
338 1 0.120842 0.397099 0
367 1 0.0995852 0.413157 0
369 1 0.123608 0.421909 0
340 1 0.144773 0.405908 0
370 1 0.147857 0.430316 0
371 1 0.168264 0.415659 0
342 1 0.186665 0.399122 0
372 1 0.190164 0.425588 0
373 1 0.211132 0.40932 0
375 1 0.23607 0.398014 0
374 1 0.2315 0.423897 0
376 1 0.255703 0.413583 0
378 1 0.279913 0.406824 0
379 1 0.303716 0.400598 0
409 1 0.298431 0.424227 0
407 1 0.275373 0.431116 0
381 1 0.327636 0.39385 0
382 1 0.345057 0.410753 0
380 1 0.321742 0.417981 0
413 1 0.362373 0.428249 0
383 1 0.368364 0.403877 0
385 1 0.393765 0.39807 0
384 1 0.3853 0.42227 0
387 1 0.416662 0.391692 0
388 1 0.434663 0.410101 0
386 1 0.410649 0.415554 0
419 1 0.451676 0.42905 0
389 1 0.457467 0.404935 0
1261 1 0.481449 0.397613 0
390 1 0.476507 0.421667 0
393 1 0.0180738 0.443927 0
423 1 0.0194701 0.469251 0
394 1 0.0393556 0.455929 0
395 1 0.0607699 0.441369 0
396 1 0.063118 0.466978 0
397 1 0.0838405 0.451451 0
427 1 0.0863639 0.476482 0
368 1 0.104465 0.436679 0
399 1 0.127683 0.444434 0
398 1 0.107265 0.461634 0
429 1 0.129219 0.470172 0
401 1 0.170414 0.440468 0
400 1 0.149464 0.454878 0
431 1 0.17196 0.465771 0
403 1 0.210619 0.437593 0
402 1 0.192148 0.453168 0
433 1 0.214587 0.464416 0
404 1 0.232382 0.448964 0
405 1 0.252576 0.437478 0
406 1 0.265898 0.457645 0
435 1 0.238468 0.472763 0
408 1 0.291861 0.448854 0
410 1 0.314463 0.441841 0
437 1 0.285033 0.472481 0
439 1 0.308376 0.468594 0
411 1 0.338685 0.434692 0
412 1 0.355448 0.451845 0
441 1 0.331119 0.459185 0
442 1 0.348182 0.476255 0
415 1 0.402865 0.439811 0
414 1 0.379596 0.447163 0
445 1 0.397263 0.464262 0
443 1 0.373653 0.472115 0
417 1 0.427985 0.433718 0
418 1 0.447415 0.452746 0
416 1 0.422153 0.457014 0
447 1 0.437831 0.47514 0
1291 1 0.495758 0.436131 0
420 1 0.472667 0.447756 0
449 1 0.462664 0.47266 0
453 1 0.00128316 0.50721 0
454 1 0.0246103 0.517408 0
424 1 0.0219629 0.493955 0
425 1 0.0418147 0.480746 0
455 1 0.0461024 0.50424 0
426 1 0.0666025 0.490693 0
456 1 0.068825 0.515016 0
457 1 0.0880286 0.500867 0
428 1 0.109693 0.48548 0
459 1 0.131273 0.495487 0
458 1 0.111423 0.512068 0
489 1 0.135356 0.523127 0
430 1 0.15055 0.481472 0
461 1 0.173426 0.491444 0
460 1 0.153696 0.506878 0
462 1 0.176233 0.51792 0
432 1 0.194479 0.478236 0
434 1 0.21634 0.487903 0
463 1 0.196751 0.502864 0
464 1 0.219991 0.51261 0
436 1 0.260147 0.483593 0
465 1 0.239923 0.497653 0
467 1 0.261345 0.509194 0
438 1 0.281765 0.495074 0
469 1 0.305674 0.503216 0
468 1 0.285687 0.518628 0
440 1 0.325658 0.48715 0
470 1 0.328793 0.513362 0
471 1 0.347698 0.498967 0
444 1 0.390631 0.491555 0
473 1 0.370858 0.506533 0
474 1 0.392367 0.517927 0
475 1 0.412396 0.50536 0
446 1 0.414496 0.481604 0
477 1 0.435588 0.513266 0
448 1 0.451614 0.495003 0
450 1 0.486538 0.478951 0
479 1 0.474151 0.500931 0
478 1 0.458189 0.519807 0
1381 1 0.496847 0.508743 0
452 1 0.00486416 0.531494 0
483 1 0.0275993 0.542319 0
482 1 0.00660133 0.555726 0
485 1 0.0484773 0.529275 0
484 1 0.0497107 0.554744 0
486 1 0.070995 0.540541 0
487 1 0.0907204 0.525732 0
488 1 0.113559 0.537423 0
517 1 0.0935702 0.550702 0
519 1 0.116267 0.561711 0
490 1 0.136265 0.547486 0
491 1 0.157493 0.533689 0
521 1 0.158338 0.557961 0
492 1 0.180151 0.543116 0
493 1 0.200255 0.52865 0
494 1 0.201615 0.554053 0
495 1 0.223335 0.538223 0
525 1 0.225834 0.56276 0
466 1 0.241774 0.522716 0
496 1 0.246485 0.546804 0
497 1 0.266111 0.533498 0
527 1 0.268974 0.557153 0
499 1 0.308577 0.529007 0
498 1 0.289155 0.543102 0
500 1 0.312515 0.553508 0
472 1 0.351266 0.52375 0
501 1 0.331177 0.537945 0
502 1 0.354143 0.547879 0
531 1 0.335367 0.564023 0
503 1 0.372984 0.532939 0
505 1 0.395551 0.543799 0
504 1 0.376762 0.558901 0
476 1 0.415374 0.528974 0
507 1 0.439502 0.536955 0
506 1 0.419276 0.552052 0
508 1 0.443162 0.56112 0
480 1 0.481559 0.52746 0
509 1 0.463091 0.544233 0
510 1 0.486538 0.551305 0
513 1 0.0297332 0.56686 0
512 1 0.0299335 0.590959 0
511 1 0.00854643 0.579279 0
541 1 0.010071 0.604201 0
515 1 0.0737282 0.565959 0
514 1 0.0531099 0.578921 0
545 1 0.074953 0.590377 0
543 1 0.0544978 0.602792 0
516 1 0.0960651 0.575291 0
518 1 0.117336 0.588124 0
547 1 0.0979713 0.602057 0
549 1 0.139881 0.599003 0
520 1 0.13794 0.573902 0
522 1 0.160441 0.583931 0
551 1 0.163928 0.609125 0
523 1 0.181204 0.568325 0
524 1 0.204872 0.57813 0
553 1 0.184203 0.592582 0
554 1 0.208496 0.602241 0
526 1 0.24892 0.571176 0
555 1 0.227911 0.587278 0
557 1 0.251812 0.595352 0
528 1 0.271869 0.581192 0
529 1 0.292141 0.567226 0
558 1 0.275816 0.605247 0
559 1 0.295824 0.590965 0
530 1 0.315635 0.578298 0
532 1 0.339038 0.58875 0
533 1 0.357546 0.57368 0
561 1 0.318881 0.601994 0
563 1 0.361652 0.600603 0
534 1 0.381078 0.583005 0
535 1 0.39976 0.56822 0
536 1 0.403876 0.593496 0
565 1 0.385581 0.610054 0
537 1 0.422683 0.576882 0
567 1 0.427399 0.601489 0
538 1 0.4456 0.585486 0
539 1 0.466951 0.568501 0
540 1 0.49115 0.575446 0
569 1 0.468833 0.593237 0
1441 1 0.492054 0.598743 0
542 1 0.032619 0.615088 0
571 1 0.0114109 0.628342 0
573 1 0.0323545 0.640501 0
544 1 0.0531708 0.628495 0
546 1 0.0759839 0.615158 0
575 1 0.0738855 0.639967 0
548 1 0.120112 0.613942 0
577 1 0.0995115 0.629095 0
579 1 0.125107 0.640397 0
550 1 0.14392 0.624977 0
581 1 0.16864 0.633269 0
580 1 0.150191 0.649823 0
552 1 0.188812 0.618418 0
582 1 0.193808 0.642492 0
583 1 0.212496 0.627273 0
556 1 0.232584 0.611829 0
585 1 0.236344 0.634931 0
586 1 0.260604 0.644239 0
587 1 0.2558 0.620086 0
560 1 0.298196 0.614638 0
589 1 0.278856 0.629517 0
590 1 0.302168 0.638164 0
562 1 0.341514 0.616464 0
591 1 0.326874 0.637668 0
593 1 0.350746 0.645379 0
564 1 0.365974 0.625392 0
595 1 0.391899 0.635117 0
566 1 0.409433 0.617531 0
596 1 0.416414 0.643139 0
597 1 0.433625 0.6264 0
568 1 0.451682 0.609895 0
599 1 0.455008 0.640027 0
570 1 0.475034 0.617144 0
600 1 0.480056 0.640559 0
572 1 0.0116876 0.65307 0
602 1 0.0104877 0.677575 0
603 1 0.033703 0.667813 0
574 1 0.0538429 0.654168 0
605 1 0.0721915 0.671132 0
604 1 0.0538871 0.688535 0
576 1 0.0930577 0.65361 0
578 1 0.114409 0.663199 0
607 1 0.0956469 0.679556 0
608 1 0.119543 0.686948 0
609 1 0.137947 0.670221 0
611 1 0.175319 0.657859 0
610 1 0.160048 0.677904 0
584 1 0.21876 0.651709 0
612 1 0.183075 0.686171 0
613 1 0.200377 0.667217 0
643 1 0.206237 0.693283 0
614 1 0.224973 0.676547 0
615 1 0.242344 0.659928 0
616 1 0.248305 0.685649 0
617 1 0.266154 0.66973 0
647 1 0.272507 0.69378 0
588 1 0.283695 0.653364 0
619 1 0.308522 0.661724 0
618 1 0.290339 0.677902 0
620 1 0.31442 0.684459 0
621 1 0.332677 0.664362 0
592 1 0.356404 0.670382 0
622 1 0.338953 0.689035 0
653 1 0.362173 0.69486 0
594 1 0.374267 0.653024 0
625 1 0.397569 0.659415 0
623 1 0.380255 0.677469 0
626 1 0.407639 0.691215 0
598 1 0.443928 0.663864 0
627 1 0.420519 0.668341 0
657 1 0.436043 0.687075 0
628 1 0.46103 0.684986 0
629 1 0.46904 0.661799 0
630 1 0.48553 0.680556 0
1501 1 0.496138 0.659183 0
633 1 0.0360646 0.706577 0
632 1 0.0135277 0.701299 0
663 1 0.0167544 0.725118 0
634 1 0.0410559 0.731607 0
606 1 0.0770245 0.69676 0
635 1 0.0593444 0.715317 0
665 1 0.0649723 0.739501 0
636 1 0.0821397 0.721381 0
637 1 0.100178 0.703738 0
638 1 0.1243 0.712015 0
667 1 0.105333 0.72847 0
669 1 0.128601 0.736797 0
639 1 0.14192 0.694447 0
641 1 0.165268 0.702496 0
640 1 0.147361 0.719505 0
671 1 0.170208 0.727197 0
642 1 0.188264 0.710675 0
673 1 0.195182 0.734261 0
644 1 0.212516 0.717137 0
645 1 0.230578 0.701451 0
675 1 0.235461 0.72591 0
646 1 0.254266 0.70924 0
677 1 0.259942 0.733852 0
649 1 0.297854 0.702031 0
648 1 0.279465 0.71862 0
679 1 0.303871 0.728024 0
650 1 0.321809 0.708916 0
651 1 0.34599 0.713485 0
652 1 0.352715 0.736575 0
681 1 0.327504 0.73434 0
624 1 0.385228 0.701698 0
655 1 0.403483 0.717119 0
654 1 0.374813 0.724019 0
656 1 0.427586 0.71059 0
687 1 0.445096 0.729244 0
686 1 0.421166 0.734127 0
658 1 0.453166 0.707753 0
659 1 0.477611 0.703574 0
660 1 0.493721 0.721609 0
689 1 0.469494 0.729163 0
662 1 0.0231432 0.748235 0
691 1 0.00321792 0.764847 0
693 1 0.0284864 0.772974 0
664 1 0.0473615 0.755767 0
666 1 0.0884295 0.745993 0
695 1 0.0708689 0.762732 0
694 1 0.0511552 0.781047 0
697 1 0.0941054 0.770359 0
668 1 0.111247 0.753536 0
698 1 0.11817 0.77782 0
699 1 0.135355 0.760476 0
670 1 0.153346 0.744787 0
701 1 0.158845 0.76805 0
672 1 0.177714 0.75168 0
702 1 0.182314 0.77548 0
674 1 0.218469 0.741851 0
703 1 0.201173 0.759 0
705 1 0.224225 0.766449 0
676 1 0.24076 0.749363 0
706 1 0.259443 0.781848 0
707 1 0.263732 0.757902 0
678 1 0.284564 0.742445 0
680 1 0.30792 0.755393 0
709 1 0.285318 0.768781 0
682 1 0.346178 0.762062 0
711 1 0.325779 0.773688 0
685 1 0.393929 0.739478 0
683 1 0.37122 0.751742 0
713 1 0.367584 0.775744 0
684 1 0.390551 0.766242 0
715 1 0.412659 0.756376 0
717 1 0.436933 0.75339 0
718 1 0.448928 0.774697 0
716 1 0.41065 0.781452 0
690 1 0.489584 0.758659 0
688 1 0.462284 0.753484 0
719 1 0.472733 0.777491 0
1591 1 0.497346 0.782843 0
692 1 0.00974732 0.789118 0
722 1 0.0143124 0.813538 0
723 1 0.0333124 0.797794 0
724 1 0.0389137 0.821714 0
696 1 0.0766105 0.787253 0
725 1 0.0578728 0.804398 0
726 1 0.0819907 0.812 0
727 1 0.099236 0.794444 0
728 1 0.12303 0.801669 0
757 1 0.105203 0.818657 0
759 1 0.127283 0.825302 0
700 1 0.141328 0.78403 0
729 1 0.146726 0.808959 0
730 1 0.170282 0.818945 0
731 1 0.165572 0.792338 0
704 1 0.205729 0.78232 0
732 1 0.189457 0.801723 0
733 1 0.215515 0.804575 0
735 1 0.236435 0.789725 0
736 1 0.236117 0.816694 0
737 1 0.258247 0.806157 0
710 1 0.30401 0.784572 0
708 1 0.281181 0.793715 0
738 1 0.27918 0.818543 0
739 1 0.301883 0.80899 0
712 1 0.346038 0.78701 0
740 1 0.322804 0.824275 0
741 1 0.324372 0.80009 0
742 1 0.345511 0.813442 0
714 1 0.388446 0.790627 0
743 1 0.367185 0.801706 0
745 1 0.388206 0.815804 0
746 1 0.411898 0.806388 0
747 1 0.43267 0.792382 0
748 1 0.43424 0.81734 0
749 1 0.455825 0.79745 0
720 1 0.480966 0.801161 0
750 1 0.464087 0.820997 0
1621 1 0.488863 0.824674 0
752 1 0.00247001 0.853656 0
753 1 0.0208765 0.83715 0
783 1 0.026512 0.863384 0
754 1 0.0450602 0.845336 0
755 1 0.0636311 0.829108 0
785 1 0.0702039 0.852996 0
756 1 0.0877154 0.835456 0
758 1 0.116411 0.846285 0
787 1 0.0950987 0.859763 0
789 1 0.145689 0.858884 0
760 1 0.149922 0.834636 0
761 1 0.168363 0.848466 0
763 1 0.189562 0.836391 0
734 1 0.214156 0.828287 0
762 1 0.190603 0.863517 0
764 1 0.212367 0.85223 0
767 1 0.257203 0.830979 0
765 1 0.236196 0.842651 0
795 1 0.232572 0.866387 0
766 1 0.256495 0.856161 0
797 1 0.276837 0.868789 0
769 1 0.300615 0.834408 0
768 1 0.278115 0.844482 0
799 1 0.298934 0.859659 0
770 1 0.321247 0.848865 0
771 1 0.343075 0.837916 0
772 1 0.342437 0.86335 0
773 1 0.363268 0.851114 0
744 1 0.365712 0.82701 0
775 1 0.385927 0.840048 0
774 1 0.382153 0.864401 0
776 1 0.405273 0.856727 0
777 1 0.411671 0.832489 0
778 1 0.446312 0.838355 0
807 1 0.429277 0.854642 0
809 1 0.453302 0.86111 0
1651 1 0.495496 0.848309 0
779 1 0.471284 0.843212 0
780 1 0.478499 0.866199 0
782 1 0.00396724 0.87796 0
813 1 0.0356886 0.885613 0
812 1 0.0165215 0.899397 0
814 1 0.0375365 0.912469 0
784 1 0.0531789 0.869345 0
786 1 0.0760371 0.877649 0
815 1 0.0589347 0.894869 0
816 1 0.0820442 0.90101 0
788 1 0.12228 0.872818 0
817 1 0.100351 0.884204 0
819 1 0.123628 0.897974 0
818 1 0.103954 0.91149 0
791 1 0.167694 0.873915 0
790 1 0.145865 0.885933 0
821 1 0.165731 0.900403 0
792 1 0.188488 0.88904 0
793 1 0.210373 0.877529 0
823 1 0.209114 0.902627 0
822 1 0.186204 0.914232 0
794 1 0.231096 0.890749 0
796 1 0.253564 0.879242 0
827 1 0.251426 0.904435 0
798 1 0.274056 0.894018 0
800 1 0.297429 0.883741 0
829 1 0.297691 0.909073 0
831 1 0.321607 0.901091 0
801 1 0.320873 0.87675 0
802 1 0.346324 0.889762 0
833 1 0.365993 0.91085 0
805 1 0.400644 0.882013 0
803 1 0.373474 0.887246 0
804 1 0.39224 0.905802 0
806 1 0.418339 0.899127 0
808 1 0.434348 0.879403 0
839 1 0.446153 0.902292 0
1681 1 0.486797 0.889988 0
810 1 0.462359 0.884872 0
840 1 0.470464 0.908115 0
842 1 0.0100578 0.946549 0
843 1 0.0145582 0.922793 0
844 1 0.0354473 0.937114 0
845 1 0.058231 0.929337 0
846 1 0.0776447 0.948519 0
847 1 0.0836159 0.924449 0
875 1 0.0533373 0.953744 0
848 1 0.100922 0.94098 0
849 1 0.122766 0.926282 0
879 1 0.121941 0.951645 0
820 1 0.14343 0.913192 0
850 1 0.14364 0.939262 0
851 1 0.163712 0.925244 0
852 1 0.165975 0.950562 0
824 1 0.209254 0.92667 0
853 1 0.187443 0.93813 0
854 1 0.207757 0.951533 0
825 1 0.230448 0.915584 0
855 1 0.229248 0.941397 0
826 1 0.250299 0.928917 0
857 1 0.270478 0.942524 0
828 1 0.272935 0.917513 0
859 1 0.293285 0.933048 0
860 1 0.31208 0.949132 0
830 1 0.317019 0.925521 0
832 1 0.341175 0.916846 0
861 1 0.336081 0.940968 0
863 1 0.359527 0.934121 0
835 1 0.406583 0.925929 0
834 1 0.382813 0.929722 0
864 1 0.376221 0.952764 0
865 1 0.399897 0.948468 0
837 1 0.430294 0.920356 0
838 1 0.454985 0.925799 0
836 1 0.423452 0.943655 0
870 1 0.461277 0.950249 0
869 1 0.478522 0.932626 0
1711 1 0.495394 0.914273 0
872 1 0.0220678 0.986837 0
873 1 0.0292786 0.961691 0
871 1 0.00331751 0.970972 0
5 1 0.0636671 0.996412 0
874 1 0.0470481 0.979658 0
876 1 0.0716038 0.972281 0
7 1 0.0889232 0.990801 0
877 1 0.0973638 0.96617 0
878 1 0.122159 0.978425 0
880 1 0.145222 0.98813 0
881 1 0.144157 0.963431 0
882 1 0.165376 0.975062 0
15 1 0.217663 0.998038 0
13 1 0.187439 0.986811 0
883 1 0.186833 0.962693 0
884 1 0.207809 0.975971 0
856 1 0.250899 0.956579 0
885 1 0.229046 0.964876 0
887 1 0.245785 0.98312 0
888 1 0.269113 0.973801 0
858 1 0.288387 0.95818 0
19 1 0.286754 0.990466 0
889 1 0.305217 0.974425 0
862 1 0.352167 0.959315 0
891 1 0.328901 0.965705 0
890 1 0.322669 0.991528 0
892 1 0.34617 0.983806 0
893 1 0.368526 0.977337 0
895 1 0.392204 0.971397 0
894 1 0.38518 0.994136 0
896 1 0.410016 0.99303 0
867 1 0.439929 0.960483 0
897 1 0.436101 0.984307 0
866 1 0.41652 0.968559 0
868 1 0.461816 0.975341 0
1741 1 0.484645 0.957991 0
1771 1 0.488847 0.981006 0
931 1 0.525408 0.0380722 0
901 1 0.519694 0.0132149 0
902 1 0.543471 0.0200318 0
30 1 0.501733 0.0307632 0
904 1 0.566849 0.0282873 0
906 1 0.584025 0.00950859 0
905 1 0.560711 0.0021928 0
935 1 0.590261 0.0339234 0
908 1 0.60715 0.0170555 0
937 1 0.613451 0.0423615 0
939 1 0.631659 0.0250343 0
909 1 0.626083 0.00165317 0
910 1 0.651156 0.00866085 0
941 1 0.656003 0.0319801 0
912 1 0.674514 0.015319 0
942 1 0.679251 0.0387243 0
943 1 0.697779 0.0229769 0
914 1 0.717455 0.00433062 0
945 1 0.721682 0.0287599 0
916 1 0.751126 0.00348605 0
947 1 0.748064 0.0288614 0
918 1 0.771494 0.0204182 0
919 1 0.795251 0.0137359 0
949 1 0.791587 0.0371857 0
951 1 0.815714 0.0318993 0
920 1 0.818778 0.00740313 0
922 1 0.838652 0.0241109 0
953 1 0.857457 0.0412926 0
923 1 0.860656 0.0151515 0
924 1 0.884678 0.00788558 0
954 1 0.878988 0.032736 0
955 1 0.9018 0.0260652 0
925 1 0.907369 0.00110549 0
926 1 0.926346 0.0176717 0
928 1 0.950081 0.00998124 0
957 1 0.94463 0.0344988 0
956 1 0.922327 0.0420761 0
930 1 0.992272 0.01819 0
959 1 0.968431 0.0262618 0
929 1 0.973799 0.00206943 0
932 1 0.531745 0.0629051 0
962 1 0.537632 0.0870969 0
961 1 0.513147 0.0793545 0
60 1 0.507463 0.0551071 0
933 1 0.548372 0.0447223 0
963 1 0.555178 0.0697838 0
934 1 0.572947 0.0525138 0
965 1 0.57867 0.076764 0
936 1 0.596215 0.0591809 0
966 1 0.602817 0.0839192 0
967 1 0.620265 0.065681 0
938 1 0.637655 0.0488797 0
969 1 0.645115 0.0723999 0
940 1 0.662433 0.0555778 0
970 1 0.668692 0.0811095 0
971 1 0.684678 0.0635408 0
944 1 0.70208 0.0461276 0
973 1 0.708206 0.0721124 0
975 1 0.724453 0.0547209 0
972 1 0.691764 0.0890458 0
974 1 0.733642 0.0782902 0
946 1 0.747478 0.0549673 0
948 1 0.768375 0.0444307 0
977 1 0.76705 0.0689857 0
979 1 0.789054 0.0628055 0
950 1 0.8117 0.0561824 0
978 1 0.805565 0.0813694 0
980 1 0.830405 0.073495 0
981 1 0.852574 0.064505 0
952 1 0.834549 0.0488936 0
983 1 0.875609 0.0583599 0
985 1 0.89986 0.0506844 0
984 1 0.894143 0.0750982 0
982 1 0.871476 0.0827916 0
986 1 0.917712 0.0679353 0
987 1 0.940398 0.0601519 0
1017 1 0.935968 0.0852692 0
960 1 0.986409 0.041347 0
988 1 0.9588 0.0760213 0
958 1 0.962548 0.0505257 0
989 1 0.980959 0.0680308 0
990 1 0.999624 0.0848627 0
991 1 0.518869 0.103247 0
992 1 0.525094 0.127526 0
993 1 0.543344 0.110974 0
120 1 0.501869 0.120262 0
964 1 0.560575 0.0936779 0
994 1 0.567783 0.11802 0
995 1 0.584699 0.100153 0
996 1 0.590442 0.124343 0
968 1 0.626492 0.0895374 0
997 1 0.608512 0.107344 0
998 1 0.632633 0.11469 0
999 1 0.650387 0.0966382 0
1000 1 0.65664 0.122302 0
1001 1 0.673187 0.10505 0
1031 1 0.679891 0.129199 0
1002 1 0.696358 0.112545 0
1003 1 0.714644 0.096381 0
1004 1 0.720412 0.120819 0
976 1 0.757527 0.090877 0
1005 1 0.737297 0.103475 0
1006 1 0.769874 0.110556 0
1035 1 0.747848 0.125813 0
1007 1 0.782692 0.0882645 0
1008 1 0.800069 0.10585 0
1039 1 0.821341 0.122313 0
1009 1 0.824155 0.0976813 0
1010 1 0.843688 0.114682 0
1011 1 0.847865 0.0891127 0
1012 1 0.865937 0.106856 0
1013 1 0.888434 0.0991488 0
1014 1 0.885502 0.124474 0
1016 1 0.909429 0.117031 0
1015 1 0.913063 0.0930968 0
1047 1 0.932107 0.110004 0
1049 1 0.953014 0.127218 0
1018 1 0.954695 0.101555 0
1019 1 0.976975 0.0936263 0
1020 1 0.975444 0.117344 0
91 1 0.999868 0.11026 0
1022 1 0.531826 0.152512 0
1051 1 0.513083 0.168475 0
1021 1 0.507809 0.144602 0
1023 1 0.550097 0.135013 0
1024 1 0.556298 0.158909 0
1025 1 0.573395 0.141842 0
1055 1 0.579707 0.167005 0
1027 1 0.615016 0.13257 0
1026 1 0.597534 0.148685 0
1028 1 0.621087 0.15675 0
1029 1 0.638643 0.139056 0
1059 1 0.643875 0.163972 0
1030 1 0.661748 0.146484 0
1061 1 0.666776 0.171004 0
1032 1 0.685699 0.153598 0
1033 1 0.702768 0.136935 0
1063 1 0.7087 0.161311 0
1034 1 0.725868 0.143714 0
1036 1 0.748655 0.150127 0
1065 1 0.731827 0.16773 0
1066 1 0.756316 0.174346 0
1067 1 0.772221 0.150476 0
1037 1 0.791216 0.130887 0
1038 1 0.794672 0.157348 0
1069 1 0.812552 0.1734 0
1040 1 0.816432 0.147667 0
1071 1 0.835103 0.164737 0
1041 1 0.838974 0.14023 0
1042 1 0.858197 0.156953 0
1043 1 0.862221 0.132136 0
1044 1 0.881944 0.149007 0
1075 1 0.900955 0.166248 0
1045 1 0.906113 0.142556 0
1073 1 0.877308 0.17354 0
1046 1 0.93018 0.135571 0
1048 1 0.949695 0.154169 0
1077 1 0.925064 0.160193 0
121 1 0.994753 0.134355 0
1050 1 0.971841 0.143975 0
151 1 0.991057 0.158977 0
1079 1 0.968347 0.173072 0
1053 1 0.538945 0.177053 0
1052 1 0.519811 0.192348 0
1081 1 0.502539 0.210721 0
1083 1 0.543123 0.200979 0
1054 1 0.561388 0.183141 0
1056 1 0.585251 0.190535 0
1085 1 0.56746 0.207265 0
1057 1 0.602518 0.173535 0
1086 1 0.591072 0.214907 0
1058 1 0.626131 0.180745 0
1087 1 0.608956 0.19816 0
1089 1 0.632528 0.206093 0
1060 1 0.649845 0.189285 0
1091 1 0.674218 0.19568 0
1090 1 0.656464 0.21288 0
1062 1 0.691115 0.178245 0
1093 1 0.698902 0.202216 0
1064 1 0.715879 0.185348 0
1094 1 0.72409 0.209425 0
1095 1 0.740002 0.191526 0
1097 1 0.764033 0.197838 0
1096 1 0.746746 0.216377 0
1068 1 0.781697 0.178582 0
1098 1 0.78629 0.204314 0
1099 1 0.809063 0.197162 0
1100 1 0.825977 0.214063 0
1070 1 0.831534 0.188888 0
1072 1 0.853848 0.181192 0
1101 1 0.849134 0.205964 0
1103 1 0.871103 0.197642 0
1074 1 0.895277 0.191075 0
1104 1 0.889414 0.214642 0
1105 1 0.912303 0.208846 0
1078 1 0.943095 0.177787 0
1076 1 0.918638 0.184014 0
1107 1 0.936149 0.202909 0
1109 1 0.959998 0.197966 0
181 1 0.984036 0.193541 0
1082 1 0.525182 0.218372 0
1111 1 0.508396 0.23543 0
1113 1 0.532962 0.243217 0
1112 1 0.514272 0.259891 0
1084 1 0.550683 0.226416 0
1114 1 0.557508 0.250609 0
1115 1 0.574897 0.232574 0
1116 1 0.581814 0.259028 0
1088 1 0.615953 0.223636 0
1117 1 0.598273 0.239916 0
1118 1 0.622196 0.24775 0
1092 1 0.68013 0.219913 0
1119 1 0.63987 0.230876 0
1121 1 0.662948 0.236933 0
1120 1 0.645919 0.256065 0
1151 1 0.67072 0.261262 0
1122 1 0.687649 0.24422 0
1123 1 0.704434 0.226171 0
1124 1 0.711449 0.250731 0
1125 1 0.729281 0.233609 0
1126 1 0.753706 0.239933 0
1155 1 0.73577 0.256758 0
1127 1 0.770955 0.222277 0
1129 1 0.795507 0.228175 0
1128 1 0.777735 0.246599 0
1159 1 0.801984 0.253041 0
1130 1 0.818949 0.236981 0
1131 1 0.844561 0.232348 0
1161 1 0.827517 0.258568 0
1132 1 0.854677 0.255306 0
1102 1 0.866502 0.222918 0
1133 1 0.880512 0.243432 0
1135 1 0.904236 0.234285 0
1108 1 0.953306 0.222194 0
1136 1 0.921514 0.251464 0
1106 1 0.927998 0.226976 0
1137 1 0.94562 0.244389 0
1110 1 0.97636 0.217702 0
1139 1 0.97004 0.24203 0
1140 1 0.993925 0.237659 0