ITEM: TIMESTEP
152000
ITEM: NUMBER OF ATOMS
1800
ITEM: BOX BOUNDS pp pp pp
1.2034355600489164e+00 1.6379656443995677e+02
1.2034355600489164e+00 1.6379656443995677e+02
0.0000000000000000e+00 5.5000000000000000e+00
ITEM: ATOMS id type xs ys zs
2 1 0.0266291 0.00967597 0
31 1 0.0201929 0.0347088 0
33 1 0.0448489 0.0271451 0
930 1 0.00280128 0.0168646 0
3 1 0.050971 0.002402 0
4 1 0.0687106 0.019125 0
35 1 0.0865569 0.037273 0
34 1 0.0630174 0.0443586 0
6 1 0.0927011 0.0123423 0
8 1 0.11672 0.00513095 0
37 1 0.110772 0.0292886 0
39 1 0.13482 0.0212854 0
10 1 0.158812 0.0138898 0
41 1 0.176999 0.0322278 0
40 1 0.152881 0.0391736 0
12 1 0.181619 0.00834215 0
14 1 0.201016 0.0253221 0
15 1 0.223712 0.0189823 0
13 1 0.205695 0.00140341 0
45 1 0.219062 0.043527 0
16 1 0.248069 0.0122789 0
46 1 0.242306 0.0360648 0
47 1 0.266232 0.0309516 0
18 1 0.271599 0.0064737 0
49 1 0.289476 0.0245391 0
50 1 0.307503 0.0421842 0
20 1 0.313584 0.0192603 0
51 1 0.331861 0.0362371 0
22 1 0.355729 0.0292641 0
21 1 0.337295 0.0121916 0
23 1 0.36207 0.00446088 0
24 1 0.379628 0.0227835 0
55 1 0.39727 0.0396682 0
25 1 0.404099 0.0161509 0
26 1 0.433724 0.0347763 0
27 1 0.42848 0.00953032 0
898 1 0.453296 0.0161668 0
28 1 0.458359 0.0403876 0
29 1 0.476849 0.0221311 0
900 1 0.494739 0.00629711 0
32 1 0.0379593 0.0507208 0
62 1 0.0317425 0.0751129 0
61 1 0.0127601 0.059011 0
990 1 0.00848894 0.0821459 0
63 1 0.0559465 0.0679796 0
65 1 0.0800656 0.0605698 0
66 1 0.0736513 0.0847524 0
38 1 0.128345 0.0459087 0
36 1 0.104103 0.0540135 0
67 1 0.0970509 0.078553 0
69 1 0.121915 0.0706723 0
71 1 0.146386 0.0627813 0
42 1 0.171116 0.0563871 0
72 1 0.163947 0.0800534 0
70 1 0.140083 0.0877928 0
43 1 0.195116 0.0487944 0
44 1 0.211643 0.0675622 0
73 1 0.188162 0.0732289 0
74 1 0.229534 0.0848139 0
75 1 0.236422 0.0609928 0
77 1 0.259942 0.0546452 0
76 1 0.253698 0.0790298 0
48 1 0.284234 0.0489846 0
78 1 0.277529 0.073322 0
79 1 0.300653 0.0667978 0
109 1 0.295868 0.091187 0
80 1 0.319806 0.0842864 0
81 1 0.325017 0.059989 0
52 1 0.35056 0.0539467 0
82 1 0.344374 0.0772595 0
53 1 0.374196 0.0483041 0
83 1 0.3686 0.0725397 0
54 1 0.393736 0.0639728 0
84 1 0.388588 0.0876558 0
85 1 0.412838 0.0814115 0
57 1 0.441702 0.0589195 0
56 1 0.416522 0.0543626 0
87 1 0.445064 0.0829252 0
59 1 0.484035 0.0471774 0
58 1 0.46549 0.0647863 0
89 1 0.489393 0.0729328 0
88 1 0.469406 0.0892013 0
92 1 0.0183114 0.123217 0
93 1 0.0254855 0.099647 0
94 1 0.0427313 0.116255 0
91 1 0.000187406 0.105887 0
64 1 0.0492041 0.0922983 0
95 1 0.0667136 0.10846 0
96 1 0.0847397 0.126203 0
125 1 0.0606295 0.133358 0
97 1 0.0910382 0.101753 0
68 1 0.116066 0.0948361 0
98 1 0.110195 0.118695 0
99 1 0.133589 0.112941 0
129 1 0.12679 0.136307 0
100 1 0.158392 0.105083 0
131 1 0.175632 0.122594 0
130 1 0.151746 0.129025 0
101 1 0.181763 0.0979771 0
103 1 0.205075 0.0919343 0
102 1 0.199763 0.115651 0
105 1 0.223162 0.108642 0
104 1 0.216342 0.133204 0
106 1 0.247786 0.102903 0
137 1 0.266304 0.121559 0
135 1 0.240198 0.126678 0
107 1 0.270989 0.097022 0
108 1 0.28905 0.113412 0
110 1 0.314282 0.111548 0
139 1 0.303291 0.133724 0
111 1 0.337557 0.100227 0
141 1 0.344838 0.123109 0
113 1 0.364388 0.0984382 0
143 1 0.368914 0.129344 0
112 1 0.386568 0.111891 0
114 1 0.392835 0.136117 0
115 1 0.410389 0.118683 0
86 1 0.427993 0.100763 0
116 1 0.433817 0.124596 0
117 1 0.451924 0.107842 0
118 1 0.45839 0.131103 0
90 1 0.493646 0.0961375 0
119 1 0.47546 0.112651 0
123 1 0.035796 0.139788 0
122 1 0.0122061 0.147667 0
153 1 0.0296487 0.16473 0
152 1 0.00596119 0.172686 0
124 1 0.0539069 0.157009 0
126 1 0.0783966 0.150541 0
155 1 0.0711365 0.17453 0
127 1 0.102662 0.142672 0
128 1 0.11985 0.160268 0
157 1 0.0956144 0.167247 0
159 1 0.145314 0.152654 0
132 1 0.169054 0.146784 0
161 1 0.162403 0.170675 0
160 1 0.138082 0.176916 0
133 1 0.192196 0.140228 0
163 1 0.187024 0.163512 0
134 1 0.210157 0.157159 0
193 1 0.203852 0.181193 0
164 1 0.227094 0.174125 0
136 1 0.258607 0.14472 0
165 1 0.233741 0.15047 0
167 1 0.267571 0.168029 0
138 1 0.284277 0.148947 0
169 1 0.308906 0.157473 0
168 1 0.291312 0.174984 0
140 1 0.326566 0.139901 0
142 1 0.350441 0.147795 0
171 1 0.332318 0.164766 0
172 1 0.355989 0.172412 0
144 1 0.398175 0.160068 0
173 1 0.374344 0.154337 0
174 1 0.380029 0.178386 0
145 1 0.417522 0.143808 0
146 1 0.422314 0.166816 0
147 1 0.441277 0.148351 0
177 1 0.446862 0.172921 0
149 1 0.483063 0.137083 0
148 1 0.465823 0.155386 0
150 1 0.489437 0.161771 0
179 1 0.47044 0.179554 0
183 1 0.0241426 0.189506 0
182 1 0.0191371 0.215263 0
184 1 0.0426043 0.207406 0
181 1 -0.000211812 0.197555 0
154 1 0.0467629 0.181555 0
185 1 0.0655812 0.198503 0
186 1 0.0834015 0.215511 0
215 1 0.0605771 0.224251 0
156 1 0.0892711 0.191965 0
158 1 0.113573 0.183674 0
187 1 0.107361 0.208687 0
189 1 0.130715 0.201865 0
188 1 0.125463 0.22636 0
191 1 0.155438 0.194394 0
190 1 0.148752 0.218778 0
221 1 0.173527 0.211184 0
162 1 0.179953 0.187752 0
192 1 0.197547 0.204688 0
194 1 0.212934 0.222442 0
195 1 0.228837 0.201027 0
166 1 0.248593 0.185174 0
196 1 0.253586 0.209325 0
197 1 0.272654 0.19286 0
170 1 0.314462 0.182954 0
199 1 0.296966 0.200235 0
198 1 0.277776 0.217334 0
229 1 0.302019 0.224406 0
201 1 0.338465 0.189792 0
200 1 0.320935 0.207729 0
202 1 0.345404 0.214526 0
203 1 0.362306 0.196575 0
175 1 0.403939 0.184247 0
233 1 0.368213 0.221065 0
204 1 0.385525 0.202719 0
235 1 0.392945 0.225612 0
205 1 0.410765 0.2079 0
176 1 0.427873 0.191014 0
207 1 0.435002 0.215057 0
178 1 0.452853 0.197927 0
180 1 0.495185 0.187609 0
208 1 0.459884 0.221608 0
209 1 0.477648 0.204595 0
212 1 0.0128344 0.239277 0
213 1 0.0367839 0.23285 0
243 1 0.0310409 0.256875 0
241 1 0.00718609 0.265284 0
216 1 0.0781995 0.241515 0
214 1 0.0543816 0.249446 0
245 1 0.0718339 0.266508 0
217 1 0.101289 0.232443 0
218 1 0.11818 0.249956 0
247 1 0.0961602 0.261233 0
249 1 0.135511 0.266276 0
219 1 0.144096 0.243056 0
220 1 0.167912 0.234971 0
222 1 0.176161 0.256672 0
251 1 0.158191 0.272016 0
223 1 0.193535 0.237661 0
253 1 0.199792 0.263607 0
224 1 0.217174 0.245997 0
255 1 0.223806 0.270669 0
225 1 0.235884 0.228501 0
227 1 0.259509 0.234108 0
226 1 0.242297 0.252834 0
257 1 0.265956 0.257726 0
228 1 0.283958 0.241744 0
230 1 0.307984 0.24852 0
259 1 0.289163 0.265509 0
231 1 0.326257 0.231384 0
232 1 0.350885 0.23848 0
261 1 0.331561 0.255566 0
263 1 0.355048 0.262087 0
234 1 0.373782 0.244848 0
265 1 0.399162 0.249393 0
264 1 0.379965 0.268204 0
206 1 0.418336 0.233244 0
237 1 0.442156 0.239805 0
236 1 0.422842 0.257497 0
238 1 0.447642 0.263569 0
210 1 0.483897 0.228745 0
239 1 0.466263 0.24676 0
240 1 0.489773 0.252801 0
269 1 0.472057 0.270353 0
242 1 0.0254206 0.282413 0
271 1 0.0176977 0.305765 0
273 1 0.0453136 0.29938 0
1170 1 0.000968066 0.289173 0
244 1 0.0492308 0.274845 0
275 1 0.0705244 0.290034 0
276 1 0.0770107 0.313061 0
246 1 0.0951516 0.295178 0
248 1 0.114066 0.279213 0
279 1 0.119662 0.304938 0
250 1 0.138506 0.289619 0
281 1 0.162551 0.296057 0
280 1 0.143922 0.313217 0
252 1 0.181962 0.280623 0
254 1 0.205637 0.287183 0
283 1 0.186821 0.304455 0
284 1 0.210659 0.311362 0
256 1 0.247423 0.276973 0
285 1 0.230061 0.294849 0
287 1 0.252986 0.300954 0
258 1 0.271101 0.283648 0
288 1 0.277298 0.306669 0
289 1 0.295082 0.289609 0
260 1 0.313608 0.272535 0
290 1 0.301462 0.313751 0
262 1 0.337356 0.27936 0
291 1 0.318747 0.296775 0
292 1 0.343301 0.303772 0
293 1 0.360781 0.285853 0
266 1 0.403142 0.274553 0
295 1 0.38608 0.292774 0
294 1 0.366845 0.30946 0
296 1 0.391893 0.316098 0
267 1 0.428387 0.281716 0
297 1 0.409677 0.298669 0
298 1 0.435259 0.304707 0
268 1 0.452838 0.287369 0
270 1 0.476676 0.293933 0
299 1 0.459296 0.311171 0
1141 1 0.495745 0.276641 0
300 1 0.483768 0.317297 0
272 1 0.0354477 0.321885 0
301 1 0.0124332 0.335142 0
303 1 0.0393802 0.346559 0
302 1 0.0184427 0.361293 0
274 1 0.0583094 0.330653 0
304 1 0.0627847 0.355545 0
305 1 0.0812403 0.338552 0
306 1 0.0860463 0.363115 0
277 1 0.100147 0.320608 0
278 1 0.124018 0.32971 0
307 1 0.104267 0.345247 0
309 1 0.129196 0.353242 0
282 1 0.168269 0.321148 0
311 1 0.148046 0.337246 0
312 1 0.172066 0.34526 0
310 1 0.152567 0.360645 0
313 1 0.191821 0.328512 0
314 1 0.195599 0.353019 0
315 1 0.216127 0.33686 0
345 1 0.221226 0.360137 0
286 1 0.236256 0.319096 0
317 1 0.259383 0.324715 0
316 1 0.240067 0.343499 0
318 1 0.264247 0.348849 0
319 1 0.282612 0.330917 0
320 1 0.305699 0.3391 0
349 1 0.287292 0.357061 0
350 1 0.31148 0.364061 0
321 1 0.324577 0.322217 0
322 1 0.329836 0.346196 0
323 1 0.348393 0.32749 0
353 1 0.354299 0.351719 0
324 1 0.372727 0.332685 0
325 1 0.398142 0.340779 0
355 1 0.37885 0.357228 0
326 1 0.423702 0.346299 0
327 1 0.416309 0.323166 0
328 1 0.440997 0.328252 0
359 1 0.44763 0.352728 0
329 1 0.466209 0.334923 0
1201 1 0.489014 0.342289 0
330 1 0.471664 0.360008 0
332 1 0.0234444 0.386046 0
361 1 0.00494721 0.403086 0
333 1 0.0434098 0.371217 0
334 1 0.0467155 0.395501 0
335 1 0.0668542 0.380448 0
336 1 0.072158 0.403586 0
337 1 0.0912614 0.38722 0
308 1 0.109686 0.369792 0
338 1 0.114874 0.394041 0
339 1 0.134009 0.377701 0
340 1 0.137939 0.402469 0
341 1 0.157189 0.384974 0
343 1 0.176694 0.369856 0
342 1 0.182694 0.393545 0
344 1 0.202636 0.376566 0
373 1 0.207168 0.400723 0
346 1 0.227563 0.383955 0
347 1 0.245198 0.367287 0
377 1 0.251093 0.390993 0
348 1 0.269281 0.374219 0
375 1 0.231053 0.407695 0
376 1 0.275221 0.39884 0
378 1 0.293673 0.381148 0
409 1 0.298762 0.40592 0
379 1 0.317948 0.387841 0
351 1 0.336962 0.37089 0
381 1 0.344349 0.395117 0
352 1 0.361929 0.375625 0
382 1 0.367978 0.400925 0
354 1 0.386469 0.381385 0
383 1 0.393026 0.404879 0
356 1 0.40534 0.363767 0
385 1 0.411375 0.387958 0
357 1 0.428987 0.37065 0
387 1 0.435661 0.39437 0
358 1 0.45317 0.377135 0
360 1 0.478456 0.384089 0
1231 1 0.495055 0.366176 0
389 1 0.459819 0.401091 0
1261 1 0.484577 0.408697 0
363 1 0.0288242 0.411534 0
362 1 0.00879625 0.427409 0
364 1 0.032853 0.436121 0
393 1 0.0146149 0.452372 0
365 1 0.0532037 0.419323 0
366 1 0.0771617 0.427825 0
395 1 0.0581359 0.443531 0
397 1 0.081999 0.452385 0
367 1 0.0957532 0.411328 0
369 1 0.119235 0.419327 0
368 1 0.101528 0.435835 0
399 1 0.12537 0.44355 0
371 1 0.163286 0.408725 0
370 1 0.143812 0.426025 0
401 1 0.168119 0.433416 0
400 1 0.148729 0.450653 0
372 1 0.188137 0.417344 0
403 1 0.192451 0.441269 0
374 1 0.211859 0.424973 0
433 1 0.216346 0.449115 0
404 1 0.235919 0.432402 0
405 1 0.255723 0.414247 0
406 1 0.259596 0.43923 0
407 1 0.27967 0.42325 0
408 1 0.303383 0.430262 0
437 1 0.284061 0.447583 0
410 1 0.327744 0.436476 0
380 1 0.323746 0.412077 0
411 1 0.346979 0.421429 0
412 1 0.363738 0.452313 0
413 1 0.373205 0.42753 0
384 1 0.397849 0.428382 0
414 1 0.388478 0.450339 0
415 1 0.414967 0.445496 0
388 1 0.442555 0.417908 0
386 1 0.41743 0.413023 0
417 1 0.441138 0.441832 0
419 1 0.464759 0.430655 0
390 1 0.491035 0.432639 0
420 1 0.476809 0.453458 0
423 1 0.0196443 0.476774 0
394 1 0.0383419 0.460298 0
425 1 0.0434728 0.484878 0
453 1 0.00025654 0.493668 0
396 1 0.0616943 0.46835 0
426 1 0.0677702 0.493006 0
427 1 0.0862597 0.475909 0
398 1 0.106334 0.46007 0
428 1 0.109678 0.483871 0
429 1 0.130182 0.467105 0
430 1 0.134979 0.491084 0
431 1 0.153772 0.474086 0
461 1 0.177585 0.480962 0
402 1 0.172564 0.457022 0
432 1 0.196175 0.464759 0
434 1 0.220839 0.473312 0
463 1 0.200697 0.489402 0
464 1 0.224763 0.49787 0
435 1 0.239901 0.456221 0
465 1 0.244471 0.480847 0
436 1 0.263835 0.462975 0
467 1 0.267113 0.487801 0
438 1 0.286543 0.471099 0
439 1 0.310821 0.456583 0
469 1 0.308603 0.481185 0
468 1 0.290329 0.496963 0
441 1 0.340152 0.457487 0
440 1 0.332638 0.480692 0
442 1 0.356317 0.476629 0
473 1 0.370972 0.4966 0
443 1 0.379851 0.47293 0
445 1 0.405344 0.468967 0
444 1 0.395794 0.49169 0
447 1 0.444418 0.484452 0
418 1 0.454386 0.462018 0
416 1 0.429863 0.464191 0
446 1 0.420705 0.488714 0
1321 1 0.493002 0.476721 0
449 1 0.469249 0.48086 0
450 1 0.484704 0.499022 0
452 1 0.00583988 0.518114 0
454 1 0.0293192 0.525558 0
483 1 0.011772 0.543118 0
424 1 0.0237468 0.501576 0
455 1 0.0475468 0.508937 0
485 1 0.0523962 0.53378 0
456 1 0.0718571 0.5168 0
487 1 0.0778444 0.540283 0
458 1 0.0970521 0.524905 0
459 1 0.115863 0.508074 0
488 1 0.120724 0.53217 0
457 1 0.0912875 0.500551 0
489 1 0.139757 0.516254 0
491 1 0.163761 0.522909 0
490 1 0.145071 0.540422 0
460 1 0.158934 0.498248 0
462 1 0.182909 0.506553 0
493 1 0.206519 0.514016 0
492 1 0.18779 0.53177 0
494 1 0.211433 0.53954 0
495 1 0.229265 0.522753 0
466 1 0.247644 0.505342 0
496 1 0.252923 0.530531 0
497 1 0.271061 0.512722 0
498 1 0.294273 0.521606 0
527 1 0.276923 0.538313 0
501 1 0.317231 0.5278 0
499 1 0.321497 0.503589 0
470 1 0.339821 0.522835 0
472 1 0.362609 0.520521 0
471 1 0.347478 0.499503 0
503 1 0.378776 0.540651 0
474 1 0.386915 0.515659 0
476 1 0.402861 0.534935 0
475 1 0.411315 0.511299 0
507 1 0.427222 0.530634 0
478 1 0.452139 0.526421 0
477 1 0.435477 0.507724 0
1381 1 0.492247 0.540448 0
479 1 0.476592 0.522648 0
448 1 0.460259 0.503523 0
513 1 0.0157742 0.568041 0
484 1 0.034369 0.55112 0
514 1 0.0396877 0.574503 0
486 1 0.0582276 0.55682 0
515 1 0.0821778 0.56488 0
543 1 0.0647631 0.582111 0
517 1 0.102579 0.548443 0
519 1 0.125997 0.556774 0
516 1 0.106358 0.57238 0
518 1 0.131096 0.582 0
520 1 0.15048 0.564593 0
521 1 0.168977 0.547413 0
522 1 0.174015 0.573062 0
549 1 0.154913 0.589246 0
523 1 0.192057 0.556342 0
524 1 0.214981 0.564175 0
553 1 0.197171 0.580797 0
554 1 0.22117 0.588337 0
525 1 0.234466 0.547507 0
526 1 0.258584 0.555383 0
555 1 0.239477 0.572566 0
557 1 0.263386 0.579679 0
528 1 0.282536 0.563317 0
529 1 0.301418 0.545975 0
559 1 0.3093 0.569374 0
558 1 0.286893 0.587402 0
502 1 0.353366 0.543541 0
500 1 0.328033 0.549206 0
531 1 0.34498 0.566983 0
533 1 0.360867 0.586666 0
505 1 0.394015 0.559723 0
504 1 0.369363 0.563004 0
534 1 0.385046 0.582282 0
535 1 0.410696 0.578491 0
509 1 0.443327 0.549258 0
506 1 0.418577 0.554513 0
508 1 0.435389 0.573448 0
480 1 0.467952 0.545492 0
510 1 0.483461 0.564166 0
539 1 0.459637 0.568684 0
540 1 0.474925 0.588018 0
512 1 0.0222219 0.591925 0
571 1 0.0273934 0.616124 0
1500 1 0.00774148 0.632824 0
541 1 0.00234958 0.608292 0
542 1 0.0461266 0.598373 0
545 1 0.0889549 0.589218 0
573 1 0.0505876 0.623269 0
544 1 0.0703339 0.606812 0
575 1 0.0749803 0.630901 0
546 1 0.0941712 0.614494 0
547 1 0.11238 0.598658 0
577 1 0.117423 0.623396 0
548 1 0.136931 0.60623 0
550 1 0.160774 0.614405 0
551 1 0.179373 0.597034 0
579 1 0.141202 0.630299 0
581 1 0.184207 0.621781 0
552 1 0.203096 0.605421 0
583 1 0.226345 0.613052 0
582 1 0.208903 0.629713 0
556 1 0.244568 0.597439 0
587 1 0.269487 0.604657 0
585 1 0.251066 0.622008 0
586 1 0.273904 0.629064 0
560 1 0.310187 0.594013 0
589 1 0.297364 0.615351 0
530 1 0.33473 0.590428 0
532 1 0.350305 0.609795 0
561 1 0.324296 0.61411 0
562 1 0.341383 0.633645 0
563 1 0.376121 0.605895 0
565 1 0.391341 0.626158 0
564 1 0.366279 0.628509 0
536 1 0.400705 0.601421 0
538 1 0.450917 0.592776 0
537 1 0.425271 0.597688 0
566 1 0.416048 0.620627 0
567 1 0.442117 0.616481 0
568 1 0.457426 0.634994 0
1441 1 0.490964 0.606076 0
569 1 0.466974 0.611852 0
570 1 0.483432 0.629239 0
572 1 0.0320425 0.640204 0
602 1 0.0137696 0.656937 0
603 1 0.036906 0.664856 0
574 1 0.0559795 0.647424 0
605 1 0.0795889 0.656644 0
604 1 0.0615767 0.673441 0
606 1 0.0857455 0.680642 0
576 1 0.100071 0.64068 0
578 1 0.123161 0.648218 0
607 1 0.104444 0.665189 0
608 1 0.128151 0.6725 0
609 1 0.147427 0.655316 0
580 1 0.165591 0.638684 0
610 1 0.171857 0.66312 0
639 1 0.15287 0.679569 0
611 1 0.190239 0.646087 0
613 1 0.213867 0.655263 0
612 1 0.195065 0.67139 0
643 1 0.220537 0.681749 0
584 1 0.232178 0.63819 0
614 1 0.236849 0.662906 0
615 1 0.257028 0.646469 0
616 1 0.259342 0.670944 0
617 1 0.283133 0.664117 0
588 1 0.293144 0.642601 0
619 1 0.308641 0.661575 0
590 1 0.316516 0.637584 0
591 1 0.332926 0.65623 0
621 1 0.349401 0.676174 0
620 1 0.324752 0.680304 0
593 1 0.357585 0.652238 0
592 1 0.373479 0.672578 0
594 1 0.382043 0.648928 0
625 1 0.398654 0.66799 0
595 1 0.407489 0.643929 0
597 1 0.432154 0.639345 0
596 1 0.423269 0.662189 0
599 1 0.450135 0.657632 0
598 1 0.440114 0.680694 0
1501 1 0.489928 0.672348 0
600 1 0.475189 0.652676 0
629 1 0.465543 0.676025 0
1471 1 0.49986 0.648891 0
632 1 0.0179354 0.681213 0
633 1 0.0416891 0.689702 0
663 1 0.0234033 0.705904 0
661 1 0.00518463 0.722542 0
1560 1 -0.000448712 0.69765 0
634 1 0.0475377 0.713589 0
635 1 0.066165 0.697546 0
636 1 0.0911457 0.704533 0
665 1 0.0724965 0.72104 0
637 1 0.10966 0.688801 0
638 1 0.133777 0.696204 0
667 1 0.115138 0.712665 0
669 1 0.138908 0.720691 0
641 1 0.176298 0.688575 0
640 1 0.157743 0.704641 0
671 1 0.181767 0.71296 0
642 1 0.200837 0.696744 0
644 1 0.225768 0.706418 0
673 1 0.207218 0.722496 0
645 1 0.248904 0.69424 0
646 1 0.265703 0.714329 0
675 1 0.242794 0.724532 0
618 1 0.299938 0.685197 0
647 1 0.276012 0.688682 0
648 1 0.290633 0.708714 0
649 1 0.316135 0.70412 0
650 1 0.331924 0.722692 0
622 1 0.340098 0.700386 0
651 1 0.35696 0.718817 0
653 1 0.364552 0.696 0
623 1 0.389485 0.69093 0
624 1 0.381643 0.714127 0
626 1 0.406272 0.708919 0
627 1 0.415844 0.685538 0
657 1 0.432429 0.703824 0
658 1 0.447722 0.723246 0
630 1 0.481908 0.695314 0
628 1 0.456568 0.699308 0
659 1 0.472584 0.717772 0
1531 1 0.49885 0.714528 0
662 1 0.0289005 0.729862 0
691 1 0.00996824 0.74715 0
693 1 0.0345146 0.754165 0
664 1 0.0535147 0.737579 0
695 1 0.0771052 0.744469 0
694 1 0.0589452 0.762098 0
696 1 0.0825362 0.767202 0
666 1 0.097359 0.729296 0
697 1 0.102293 0.753213 0
668 1 0.12142 0.738291 0
698 1 0.12508 0.765297 0
699 1 0.14476 0.745426 0
670 1 0.16332 0.728498 0
701 1 0.173682 0.758499 0
700 1 0.149561 0.768269 0
672 1 0.185951 0.736652 0
703 1 0.204193 0.753123 0
674 1 0.22594 0.741196 0
705 1 0.224603 0.767237 0
676 1 0.246206 0.755067 0
707 1 0.272545 0.755635 0
679 1 0.307251 0.728254 0
677 1 0.282391 0.73299 0
678 1 0.299018 0.752339 0
680 1 0.314824 0.771078 0
681 1 0.323849 0.746853 0
652 1 0.348388 0.741886 0
682 1 0.339895 0.766151 0
683 1 0.36411 0.760583 0
655 1 0.397909 0.732195 0
654 1 0.372653 0.737793 0
685 1 0.390263 0.754912 0
656 1 0.422585 0.727304 0
686 1 0.414415 0.750918 0
687 1 0.438767 0.745814 0
717 1 0.429992 0.769207 0
688 1 0.455536 0.764323 0
660 1 0.489071 0.737095 0
689 1 0.464754 0.741381 0
690 1 0.480652 0.761403 0
692 1 0.0146414 0.771357 0
722 1 0.00509184 0.811051 0
723 1 0.0390703 0.777589 0
724 1 0.0288713 0.80061 0
725 1 0.0558404 0.795078 0
726 1 0.0808298 0.790962 0
755 1 0.073921 0.813987 0
727 1 0.103579 0.779963 0
728 1 0.122507 0.798198 0
757 1 0.0990748 0.806797 0
729 1 0.146637 0.79327 0
731 1 0.169352 0.783473 0
732 1 0.165033 0.809458 0
730 1 0.139966 0.817189 0
702 1 0.193647 0.775031 0
704 1 0.213165 0.789741 0
733 1 0.189396 0.800876 0
734 1 0.206478 0.819157 0
735 1 0.239829 0.787417 0
706 1 0.263438 0.779371 0
737 1 0.256302 0.804833 0
736 1 0.23099 0.811531 0
709 1 0.289247 0.775054 0
708 1 0.280301 0.798368 0
710 1 0.306178 0.793809 0
739 1 0.299167 0.817982 0
713 1 0.357397 0.784013 0
711 1 0.330356 0.789946 0
712 1 0.34871 0.807206 0
741 1 0.323685 0.812897 0
715 1 0.404976 0.774894 0
684 1 0.381301 0.778585 0
714 1 0.373699 0.802446 0
716 1 0.397541 0.797804 0
718 1 0.448457 0.787918 0
746 1 0.414856 0.815546 0
747 1 0.423868 0.792182 0
748 1 0.43977 0.811795 0
719 1 0.472135 0.783659 0
720 1 0.489055 0.801843 0
749 1 0.464404 0.807559 0
751 1 0.000711898 0.835091 0
752 1 0.0196697 0.850876 0
753 1 0.0250507 0.82686 0
783 1 0.0425028 0.843754 0
754 1 0.04877 0.81844 0
785 1 0.06624 0.83751 0
787 1 0.0866853 0.855662 0
784 1 0.0613356 0.861537 0
756 1 0.0908254 0.831422 0
759 1 0.11622 0.823384 0
758 1 0.109416 0.848517 0
760 1 0.133992 0.841623 0
761 1 0.158387 0.833554 0
762 1 0.176407 0.8513 0
791 1 0.152227 0.859279 0
763 1 0.182723 0.826728 0
764 1 0.200878 0.844535 0
765 1 0.225278 0.835742 0
795 1 0.219079 0.860563 0
767 1 0.249382 0.829078 0
766 1 0.243629 0.853285 0
768 1 0.267516 0.847065 0
738 1 0.273664 0.823109 0
769 1 0.29238 0.842479 0
770 1 0.309649 0.860913 0
740 1 0.316565 0.836365 0
742 1 0.340891 0.830649 0
771 1 0.333184 0.855021 0
773 1 0.357713 0.849639 0
743 1 0.36547 0.82574 0
745 1 0.390684 0.821091 0
744 1 0.382465 0.844627 0
776 1 0.400243 0.862201 0
775 1 0.407319 0.838808 0
777 1 0.431056 0.83414 0
778 1 0.425541 0.858022 0
779 1 0.455037 0.831938 0
809 1 0.45676 0.857736 0
1621 1 0.494029 0.824823 0
750 1 0.47678 0.841661 0
782 1 0.0127019 0.876031 0
813 1 0.0376424 0.868304 0
812 1 0.0314424 0.893261 0
811 1 0.00739145 0.900789 0
815 1 0.0548137 0.886323 0
786 1 0.0796602 0.88025 0
816 1 0.0731784 0.90432 0
817 1 0.0978658 0.896883 0
788 1 0.103408 0.873282 0
819 1 0.121718 0.890148 0
789 1 0.127188 0.865636 0
790 1 0.145647 0.883147 0
792 1 0.17021 0.876245 0
821 1 0.163563 0.901007 0
820 1 0.139115 0.907874 0
793 1 0.195003 0.867947 0
823 1 0.188633 0.892857 0
794 1 0.212762 0.884668 0
797 1 0.261068 0.87213 0
796 1 0.236734 0.878042 0
825 1 0.23 0.903347 0
827 1 0.253867 0.896133 0
799 1 0.285185 0.866518 0
798 1 0.278737 0.89209 0
800 1 0.301931 0.884816 0
829 1 0.295889 0.909633 0
831 1 0.320024 0.902662 0
772 1 0.350586 0.872701 0
801 1 0.326975 0.878292 0
802 1 0.344621 0.898039 0
774 1 0.375029 0.866997 0
803 1 0.36827 0.891097 0
805 1 0.392107 0.885792 0
806 1 0.409339 0.904091 0
807 1 0.416759 0.880161 0
808 1 0.440789 0.877709 0
839 1 0.446803 0.901535 0
780 1 0.483048 0.865676 0
810 1 0.465418 0.883107 0
1681 1 0.488962 0.890647 0
840 1 0.470911 0.907893 0
841 1 0.00145266 0.925713 0
842 1 0.0196192 0.942336 0
843 1 0.0249706 0.918157 0
844 1 0.0437815 0.935276 0
814 1 0.0494316 0.911175 0
845 1 0.0683144 0.928364 0
846 1 0.0856167 0.94567 0
875 1 0.0625227 0.952728 0
847 1 0.0914759 0.921401 0
818 1 0.115436 0.915043 0
848 1 0.109387 0.939748 0
849 1 0.133841 0.932004 0
850 1 0.151576 0.94953 0
851 1 0.158035 0.924782 0
852 1 0.175719 0.94099 0
822 1 0.182474 0.91745 0
824 1 0.205812 0.910123 0
853 1 0.19945 0.934888 0
855 1 0.222816 0.927967 0
854 1 0.217084 0.952445 0
826 1 0.247129 0.921099 0
856 1 0.24177 0.946304 0
857 1 0.265858 0.939377 0
828 1 0.271501 0.915553 0
859 1 0.28962 0.934229 0
860 1 0.306778 0.952029 0
830 1 0.313451 0.927928 0
832 1 0.337237 0.921758 0
861 1 0.331039 0.945646 0
863 1 0.355053 0.938989 0
833 1 0.362246 0.915458 0
804 1 0.386033 0.90985 0
834 1 0.380071 0.933153 0
865 1 0.398703 0.950934 0
835 1 0.404665 0.927944 0
837 1 0.428179 0.919299 0
836 1 0.425311 0.944363 0
838 1 0.452057 0.925942 0
869 1 0.476796 0.932352 0
870 1 0.458844 0.950866 0
1711 1 0.494665 0.914457 0
872 1 0.0324695 0.985092 0
873 1 0.0379655 0.959233 0
871 1 0.0139164 0.966679 0
1 1 0.00894774 0.992351 0
874 1 0.0562907 0.977074 0
876 1 0.0804564 0.970461 0
5 1 0.0734575 0.994598 0
879 1 0.126803 0.956537 0
7 1 0.098099 0.988681 0
877 1 0.103959 0.964991 0
878 1 0.122043 0.980667 0
880 1 0.145474 0.972459 0
881 1 0.169572 0.966234 0
11 1 0.164256 0.990411 0
9 1 0.140098 0.996517 0
882 1 0.187386 0.984093 0
883 1 0.194074 0.959196 0
884 1 0.210627 0.977082 0
885 1 0.234915 0.97057 0
886 1 0.228881 0.994779 0
17 1 0.252841 0.988539 0
887 1 0.259058 0.963829 0
19 1 0.295731 1.00062 0
858 1 0.283388 0.958521 0
888 1 0.277481 0.98271 0
889 1 0.300709 0.975636 0
862 1 0.349122 0.963202 0
890 1 0.319459 0.994383 0
891 1 0.325223 0.969757 0
892 1 0.343551 0.987776 0
864 1 0.373944 0.955876 0
893 1 0.367522 0.980164 0
895 1 0.391825 0.974539 0
894 1 0.38582 0.99835 0
896 1 0.410771 0.991831 0
866 1 0.416324 0.967826 0
897 1 0.444722 0.991517 0
867 1 0.440644 0.966027 0
868 1 0.463983 0.974624 0
1771 1 0.488721 0.981571 0
899 1 0.469509 0.998302 0
1741 1 0.482708 0.95698 0
902 1 0.543876 0.0195675 0
931 1 0.525051 0.0368155 0
901 1 0.519283 0.0125355 0
30 1 0.500811 0.0307796 0
933 1 0.549276 0.0435595 0
904 1 0.568129 0.0264589 0
906 1 0.585321 0.00819048 0
905 1 0.561789 0.00243666 0
935 1 0.591868 0.0327699 0
908 1 0.609137 0.0145654 0
937 1 0.616086 0.0402742 0
939 1 0.634115 0.0231275 0
941 1 0.656988 0.0285883 0
912 1 0.675275 0.0111996 0
910 1 0.651884 0.00321696 0
942 1 0.681659 0.035227 0
943 1 0.711203 0.0147019 0
944 1 0.705613 0.0408151 0
975 1 0.728899 0.033033 0
945 1 0.735294 0.0092801 0
916 1 0.760301 0.00292962 0
947 1 0.752691 0.0260264 0
948 1 0.772067 0.0427915 0
918 1 0.779449 0.018999 0
919 1 0.803056 0.0125393 0
949 1 0.796029 0.0369329 0
951 1 0.820726 0.0285637 0
920 1 0.828489 0.00437024 0
922 1 0.845662 0.0214421 0
952 1 0.840146 0.0455243 0
953 1 0.86364 0.0379506 0
923 1 0.869788 0.0149402 0
924 1 0.893918 0.0065065 0
954 1 0.88854 0.0312399 0
955 1 0.912232 0.0243092 0
926 1 0.935826 0.0152902 0
957 1 0.953983 0.0322134 0
928 1 0.960104 0.00727547 0
959 1 0.977613 0.0243617 0
960 1 0.995281 0.041785 0
932 1 0.53148 0.0615897 0
962 1 0.537635 0.0848567 0
961 1 0.512384 0.0784957 0
60 1 0.507704 0.054942 0
934 1 0.574316 0.0496685 0
963 1 0.556027 0.0680997 0
965 1 0.579827 0.074954 0
936 1 0.597318 0.0575896 0
966 1 0.604126 0.0817114 0
967 1 0.622212 0.0648934 0
968 1 0.628544 0.0890506 0
938 1 0.640025 0.0464552 0
940 1 0.663766 0.0524715 0
969 1 0.646486 0.0707524 0
970 1 0.670835 0.0769987 0
971 1 0.687398 0.0593053 0
972 1 0.693779 0.0844073 0
973 1 0.723527 0.0585881 0
1003 1 0.718642 0.0868529 0
974 1 0.742393 0.0757143 0
946 1 0.746972 0.0504977 0
977 1 0.766006 0.0670393 0
1007 1 0.761926 0.0908372 0
979 1 0.790566 0.0609489 0
980 1 0.809359 0.0770527 0
978 1 0.785191 0.0851763 0
950 1 0.815302 0.0526534 0
981 1 0.833996 0.0694646 0
983 1 0.857872 0.0621522 0
982 1 0.851216 0.0862904 0
956 1 0.906066 0.0492418 0
985 1 0.882067 0.0546426 0
984 1 0.875058 0.0790512 0
986 1 0.900541 0.0728058 0
987 1 0.945681 0.0556732 0
1017 1 0.93925 0.0800662 0
988 1 0.964796 0.0723399 0
958 1 0.971598 0.0491365 0
989 1 0.989103 0.0664366 0
1019 1 0.982285 0.0896582 0
991 1 0.519035 0.102743 0
992 1 0.525043 0.127233 0
120 1 0.500629 0.12013 0
993 1 0.543555 0.110256 0
964 1 0.562452 0.092818 0
994 1 0.568655 0.117304 0
995 1 0.586216 0.0998625 0
1023 1 0.548828 0.134602 0
996 1 0.592016 0.124254 0
997 1 0.610747 0.106173 0
1027 1 0.615929 0.129863 0
998 1 0.6348 0.113813 0
999 1 0.653287 0.0953619 0
1000 1 0.659264 0.119699 0
1001 1 0.676433 0.101842 0
1031 1 0.683953 0.127052 0
1002 1 0.702185 0.108754 0
1004 1 0.72528 0.119675 0
1033 1 0.707689 0.136679 0
976 1 0.739982 0.0999963 0
1005 1 0.749879 0.124547 0
1037 1 0.774274 0.13297 0
1008 1 0.779347 0.109339 0
1009 1 0.803556 0.100904 0
1039 1 0.79717 0.125991 0
1010 1 0.820872 0.118199 0
1011 1 0.827013 0.0937016 0
1012 1 0.844985 0.11108 0
1041 1 0.83887 0.135504 0
1043 1 0.862919 0.12852 0
1013 1 0.869012 0.103214 0
1014 1 0.886931 0.120499 0
1015 1 0.892341 0.0966285 0
1016 1 0.910468 0.112391 0
1047 1 0.934957 0.104423 0
1046 1 0.928594 0.130491 0
1049 1 0.952338 0.121634 0
1018 1 0.958341 0.0958694 0
1020 1 0.975852 0.113827 0
121 1 0.994171 0.131053 0
1022 1 0.531879 0.151657 0
1053 1 0.53787 0.175327 0
1051 1 0.513133 0.168972 0
1021 1 0.506974 0.143715 0
1025 1 0.573557 0.141421 0
1024 1 0.556386 0.158648 0
1055 1 0.579972 0.165851 0
1026 1 0.598328 0.148769 0
1028 1 0.623301 0.153989 0
1057 1 0.605152 0.171732 0
1058 1 0.629431 0.178708 0
1029 1 0.641207 0.137299 0
1030 1 0.665069 0.144072 0
1059 1 0.647424 0.162387 0
1061 1 0.671233 0.168233 0
1032 1 0.690018 0.15278 0
1063 1 0.715405 0.160216 0
1062 1 0.697596 0.176306 0
1035 1 0.734107 0.143572 0
1006 1 0.757434 0.151041 0
1036 1 0.739081 0.168179 0
1067 1 0.76269 0.174787 0
1038 1 0.780971 0.156541 0
1069 1 0.80619 0.165291 0
1068 1 0.786952 0.180223 0
1040 1 0.815042 0.14221 0
1071 1 0.832639 0.160111 0
1042 1 0.857393 0.152824 0
1072 1 0.850692 0.175982 0
1045 1 0.90517 0.137461 0
1044 1 0.881206 0.144041 0
1075 1 0.899352 0.161512 0
1073 1 0.875951 0.168396 0
1048 1 0.946808 0.146575 0
1077 1 0.92297 0.153458 0
1078 1 0.94071 0.170588 0
1076 1 0.917759 0.178132 0
1050 1 0.970119 0.139114 0
1079 1 0.96447 0.163085 0
151 1 0.988786 0.155549 0
1080 1 0.982227 0.180017 0
1052 1 0.519052 0.192724 0
1082 1 0.525229 0.217447 0
1081 1 0.502111 0.211517 0
1083 1 0.544105 0.199174 0
1054 1 0.562059 0.182384 0
1084 1 0.549305 0.224319 0
1056 1 0.586323 0.189832 0
1085 1 0.568326 0.206402 0
1086 1 0.592447 0.213889 0
1087 1 0.61056 0.195931 0
1088 1 0.617001 0.22023 0
1089 1 0.63565 0.20263 0
1060 1 0.653362 0.185919 0
1091 1 0.678872 0.193027 0
1090 1 0.660372 0.209951 0
1034 1 0.721141 0.184787 0
1092 1 0.684854 0.217509 0
1093 1 0.702078 0.200972 0
1123 1 0.707865 0.22536 0
1064 1 0.726853 0.209395 0
1065 1 0.744881 0.191533 0
1066 1 0.768674 0.199058 0
1095 1 0.750833 0.216173 0
1097 1 0.775282 0.223306 0
1099 1 0.793454 0.204859 0
1100 1 0.819891 0.210762 0
1070 1 0.826808 0.184635 0
1101 1 0.845466 0.200522 0
1131 1 0.840677 0.224322 0
1102 1 0.863751 0.216833 0
1103 1 0.869414 0.192378 0
1074 1 0.893856 0.18571 0
1104 1 0.887377 0.209821 0
1105 1 0.911168 0.203013 0
1107 1 0.936141 0.195071 0
1106 1 0.92931 0.220295 0
1108 1 0.953116 0.212256 0
1109 1 0.959365 0.187103 0
1110 1 0.976335 0.204462 0
211 1 0.995116 0.222651 0
1111 1 0.507681 0.23584 0
1113 1 0.532036 0.242109 0
1112 1 0.514701 0.259252 0
1143 1 0.538785 0.266325 0
1115 1 0.5739 0.231332 0
1114 1 0.556257 0.247939 0
1116 1 0.580133 0.255447 0
1117 1 0.598648 0.238062 0
1118 1 0.622811 0.244408 0
1147 1 0.605845 0.262417 0
1149 1 0.630222 0.26885 0
1119 1 0.641187 0.227526 0
1121 1 0.666944 0.234664 0
1120 1 0.647881 0.252029 0
1151 1 0.671804 0.259183 0
1122 1 0.690301 0.242656 0
1124 1 0.714468 0.250075 0
1153 1 0.696101 0.266893 0
1094 1 0.732673 0.232726 0
1096 1 0.756465 0.240579 0
1125 1 0.738071 0.256701 0
1126 1 0.76242 0.265015 0
1098 1 0.799119 0.229819 0
1127 1 0.780289 0.247791 0
1129 1 0.804028 0.255042 0
1128 1 0.786439 0.271602 0
1130 1 0.82163 0.238264 0
1161 1 0.829362 0.262051 0
1162 1 0.853101 0.26705 0
1132 1 0.858118 0.242101 0
1135 1 0.906149 0.227768 0
1133 1 0.882953 0.235302 0
1163 1 0.87611 0.259074 0
1134 1 0.900891 0.253172 0