ITEM: TIMESTEP
4000
ITEM: NUMBER OF ATOMS
1800
ITEM: BOX BOUNDS pp pp pp
-6.1827058428276871e-01 1.6561827058428310e+02
-6.1827058428276871e-01 1.6561827058428310e+02
0.0000000000000000e+00 5.5000000000000000e+00
ITEM: ATOMS id type xs ys zs
2 1 0.0112955 0.0134187 0
3 1 0.0367141 0.00507563 0
33 1 0.029122 0.0288938 0
31 1 0.002171 0.036569 0
4 1 0.0523505 0.0222749 0
35 1 0.0707045 0.037283 0
5 1 0.0643565 0.0017255 0
6 1 0.0840217 0.0167422 0
34 1 0.0469585 0.0452723 0
8 1 0.10929 0.0182998 0
37 1 0.0968864 0.0381709 0
9 1 0.130368 0.0081748 0
39 1 0.12934 0.0334252 0
10 1 0.150652 0.0206927 0
41 1 0.172086 0.0319082 0
11 1 0.166228 0.00162959 0
40 1 0.151507 0.0463252 0
12 1 0.187667 0.0141922 0
43 1 0.196892 0.0382547 0
14 1 0.211084 0.0188671 0
15 1 0.228423 0.00265435 0
45 1 0.234575 0.0260321 0
16 1 0.254835 0.0129971 0
47 1 0.27162 0.0357072 0
18 1 0.279453 0.0130806 0
20 1 0.315277 0.0115108 0
49 1 0.296288 0.0304055 0
51 1 0.334427 0.0267775 0
22 1 0.357443 0.0182602 0
21 1 0.338901 0.0022968 0
53 1 0.370284 0.0390818 0
24 1 0.380414 0.0101388 0
55 1 0.394241 0.0297171 0
25 1 0.403895 0.00670561 0
26 1 0.421747 0.0226037 0
28 1 0.445019 0.0162959 0
57 1 0.437142 0.0407951 0
56 1 0.412872 0.0450533 0
29 1 0.466652 0.00281641 0
30 1 0.487395 0.0177584 0
59 1 0.466113 0.0300075 0
32 1 0.0205815 0.0510439 0
62 1 0.0146444 0.074181 0
63 1 0.0374319 0.0678017 0
36 1 0.0827145 0.0576717 0
65 1 0.0607582 0.0654369 0
66 1 0.0773422 0.0827233 0
64 1 0.0494311 0.0879491 0
38 1 0.11602 0.0543079 0
67 1 0.0999939 0.0729821 0
68 1 0.119949 0.0858117 0
69 1 0.136815 0.0680124 0
71 1 0.160489 0.069604 0
42 1 0.179273 0.0547513 0
70 1 0.149914 0.0916903 0
72 1 0.182515 0.0792208 0
73 1 0.201971 0.0633113 0
44 1 0.220501 0.0456831 0
74 1 0.219256 0.08078 0
75 1 0.236295 0.0645022 0
46 1 0.249419 0.0447416 0
77 1 0.260995 0.0662654 0
76 1 0.244911 0.0870656 0
48 1 0.285688 0.0544076 0
50 1 0.317061 0.0444901 0
79 1 0.305829 0.0685995 0
78 1 0.282676 0.0785592 0
81 1 0.329825 0.0657902 0
52 1 0.346759 0.0479215 0
82 1 0.347737 0.0823176 0
80 1 0.3188 0.0898051 0
83 1 0.366899 0.0644689 0
54 1 0.389363 0.0540103 0
84 1 0.386976 0.0799617 0
85 1 0.408073 0.0690791 0
87 1 0.432412 0.0648227 0
88 1 0.454664 0.0779355 0
86 1 0.417916 0.090298 0
58 1 0.456828 0.053508 0
60 1 0.489021 0.0458282 0
89 1 0.476089 0.066257 0
961 1 0.49858 0.0734718 0
90 1 0.48092 0.0897475 0
92 1 0.0205293 0.119905 0
93 1 0.0243695 0.0956571 0
91 1 0.000696599 0.105935 0
94 1 0.043228 0.111228 0
123 1 0.0394402 0.135016 0
95 1 0.0672544 0.103305 0
96 1 0.0858383 0.118241 0
125 1 0.0619934 0.126982 0
97 1 0.0974259 0.0963282 0
98 1 0.110157 0.117166 0
99 1 0.130764 0.106989 0
129 1 0.131829 0.131495 0
100 1 0.152442 0.11777 0
101 1 0.172815 0.102337 0
131 1 0.172856 0.130862 0
102 1 0.192479 0.117144 0
103 1 0.200106 0.0949835 0
104 1 0.214028 0.126216 0
105 1 0.223457 0.104248 0
106 1 0.246667 0.110994 0
107 1 0.269417 0.0991318 0
135 1 0.23748 0.134235 0
137 1 0.261224 0.129879 0
108 1 0.282888 0.120629 0
109 1 0.295869 0.100161 0
110 1 0.317458 0.117764 0
111 1 0.337828 0.105196 0
112 1 0.358159 0.117555 0
141 1 0.338309 0.131531 0
113 1 0.368718 0.0958846 0
114 1 0.382268 0.121974 0
115 1 0.39741 0.10366 0
145 1 0.405629 0.12882 0
116 1 0.42336 0.113353 0
117 1 0.440956 0.0976249 0
118 1 0.446721 0.121442 0
119 1 0.464241 0.105899 0
120 1 0.48759 0.113651 0
149 1 0.469613 0.128835 0
1021 1 0.492218 0.137464 0
122 1 0.0180817 0.145499 0
153 1 0.0313092 0.166183 0
124 1 0.0530432 0.154666 0
126 1 0.0767668 0.14489 0
155 1 0.0720255 0.167982 0
154 1 0.0521 0.180536 0
127 1 0.0998291 0.138858 0
128 1 0.118871 0.153375 0
157 1 0.0958068 0.163359 0
158 1 0.116893 0.177932 0
159 1 0.139822 0.165336 0
130 1 0.153117 0.145001 0
132 1 0.175529 0.155411 0
161 1 0.16739 0.177864 0
133 1 0.19499 0.140622 0
134 1 0.218858 0.15074 0
163 1 0.198958 0.164122 0
164 1 0.216034 0.180966 0
136 1 0.252928 0.151916 0
165 1 0.235418 0.168012 0
167 1 0.267826 0.171208 0
138 1 0.278421 0.147581 0
139 1 0.301147 0.136022 0
169 1 0.300254 0.160118 0
140 1 0.32197 0.14958 0
142 1 0.347836 0.154727 0
171 1 0.330564 0.171568 0
172 1 0.355678 0.178602 0
143 1 0.366198 0.140094 0
144 1 0.389807 0.146494 0
173 1 0.372879 0.163013 0
175 1 0.395967 0.17029 0
146 1 0.413875 0.154871 0
147 1 0.429157 0.137208 0
148 1 0.452494 0.145433 0
177 1 0.438099 0.164869 0
176 1 0.418944 0.179778 0
150 1 0.475529 0.153748 0
179 1 0.462377 0.172464 0
180 1 0.48628 0.179407 0
1051 1 0.500041 0.160088 0
152 1 0.0120393 0.182021 0
183 1 0.0325485 0.194286 0
449 1 0.464749 0.467656 0
182 1 0.020083 0.215142 0
184 1 0.0436126 0.215735 0
185 1 0.0635123 0.202413 0
156 1 0.0827752 0.188503 0
186 1 0.0848389 0.213896 0
187 1 0.103569 0.198715 0
189 1 0.126269 0.200714 0
188 1 0.115054 0.221821 0
160 1 0.145495 0.188116 0
191 1 0.164319 0.202022 0
190 1 0.143893 0.216149 0
221 1 0.166782 0.2264 0
162 1 0.189904 0.185949 0
193 1 0.207292 0.202581 0
192 1 0.185854 0.211697 0
194 1 0.218496 0.223098 0
195 1 0.231065 0.201234 0
166 1 0.250952 0.188012 0
197 1 0.272977 0.198417 0
196 1 0.253861 0.213191 0
168 1 0.290128 0.181593 0
170 1 0.313507 0.188843 0
199 1 0.296171 0.205394 0
198 1 0.279816 0.222409 0
201 1 0.338348 0.194381 0
203 1 0.361524 0.20212 0
200 1 0.320133 0.210403 0
202 1 0.3432 0.217909 0
174 1 0.381994 0.189406 0
205 1 0.405584 0.199314 0
233 1 0.365693 0.225783 0
204 1 0.385726 0.213239 0
178 1 0.445726 0.18808 0
207 1 0.428935 0.203493 0
206 1 0.417636 0.22401 0
208 1 0.451763 0.212699 0
1081 1 0.496695 0.201775 0
209 1 0.470471 0.197581 0
210 1 0.483637 0.221624 0
212 1 0.00922935 0.249024 0
213 1 0.0313788 0.236151 0
243 1 0.0303426 0.259222 0
211 1 -0.000958574 0.227196 0
215 1 0.0640109 0.227534 0
216 1 0.0761515 0.247688 0
214 1 0.0528303 0.250859 0
245 1 0.0698542 0.270886 0
217 1 0.0966448 0.23689 0
219 1 0.133724 0.237937 0
218 1 0.115726 0.253676 0
247 1 0.0936786 0.262652 0
220 1 0.155517 0.24752 0
222 1 0.17974 0.250079 0
249 1 0.13756 0.26648 0
251 1 0.165617 0.26966 0
223 1 0.196997 0.233988 0
224 1 0.219026 0.247387 0
253 1 0.201133 0.264946 0
225 1 0.239569 0.233985 0
227 1 0.263337 0.239707 0
226 1 0.247252 0.257238 0
255 1 0.22759 0.270473 0
257 1 0.271127 0.262455 0
228 1 0.288681 0.245687 0
229 1 0.304767 0.228496 0
230 1 0.311885 0.253091 0
259 1 0.294522 0.268867 0
231 1 0.327577 0.235179 0
232 1 0.350587 0.243919 0
261 1 0.336378 0.262331 0
235 1 0.395988 0.234232 0
234 1 0.37583 0.247131 0
263 1 0.362811 0.266753 0
265 1 0.397074 0.258297 0
237 1 0.43999 0.234257 0
236 1 0.419541 0.249088 0
267 1 0.433291 0.270089 0
239 1 0.463911 0.234567 0
240 1 0.486056 0.248005 0
238 1 0.452291 0.256153 0
269 1 0.473302 0.269356 0
1141 1 0.498071 0.274013 0
242 1 0.0209154 0.281058 0
272 1 0.0239297 0.317969 0
273 1 0.0370259 0.298565 0
271 1 0.0076669 0.300312 0
244 1 0.0465333 0.276424 0
246 1 0.0878816 0.286211 0
275 1 0.0617177 0.296782 0
276 1 0.0822691 0.310081 0
248 1 0.112154 0.278476 0
277 1 0.105504 0.303062 0
279 1 0.128563 0.295962 0
250 1 0.151012 0.288015 0
280 1 0.147409 0.312417 0
281 1 0.171195 0.302829 0
252 1 0.18641 0.283933 0
254 1 0.213073 0.288768 0
283 1 0.197172 0.30524 0
284 1 0.219967 0.314724 0
256 1 0.253223 0.27974 0
285 1 0.236202 0.297188 0
287 1 0.259944 0.303096 0
258 1 0.276974 0.286055 0
260 1 0.317376 0.27604 0
288 1 0.28394 0.309846 0
289 1 0.300362 0.292003 0
290 1 0.308216 0.313794 0
262 1 0.345818 0.284061 0
291 1 0.325908 0.297775 0
292 1 0.346867 0.307921 0
264 1 0.385004 0.279009 0
293 1 0.371405 0.299615 0
295 1 0.399488 0.299646 0
266 1 0.410306 0.277605 0
268 1 0.453748 0.28346 0
296 1 0.417116 0.31626 0
297 1 0.428691 0.29398 0
298 1 0.441592 0.315678 0
270 1 0.482433 0.292294 0
299 1 0.462737 0.305485 0
300 1 0.487145 0.316202 0
302 1 0.0133543 0.353964 0
303 1 0.0328952 0.339804 0
301 1 0.00488748 0.331434 0
274 1 0.0489179 0.320775 0
304 1 0.0552929 0.348571 0
305 1 0.0712143 0.330772 0
306 1 0.0882165 0.347787 0
278 1 0.123567 0.319865 0
307 1 0.100964 0.32761 0
308 1 0.112394 0.351176 0
339 1 0.135536 0.359085 0
311 1 0.162749 0.330865 0
309 1 0.139942 0.336139 0
310 1 0.158799 0.35455 0
312 1 0.182068 0.347054 0
282 1 0.184493 0.323484 0
313 1 0.205585 0.334414 0
314 1 0.211964 0.357513 0
286 1 0.244196 0.321243 0
317 1 0.26753 0.327233 0
315 1 0.229254 0.340665 0
316 1 0.253017 0.346913 0
318 1 0.278786 0.348262 0
319 1 0.298322 0.334967 0
349 1 0.298987 0.359318 0
321 1 0.329832 0.325792 0
323 1 0.362965 0.324403 0
320 1 0.32274 0.350229 0
322 1 0.34714 0.343641 0
294 1 0.386218 0.319892 0
324 1 0.376562 0.343923 0
325 1 0.402088 0.337986 0
326 1 0.416756 0.356719 0
327 1 0.429428 0.33709 0
328 1 0.450789 0.348506 0
329 1 0.466041 0.329965 0
1201 1 0.495078 0.340101 0
330 1 0.475325 0.353437 0
333 1 0.0369995 0.36423 0
332 1 0.0182651 0.378562 0
363 1 0.0359824 0.396515 0
361 1 0.00556411 0.399227 0
335 1 0.0717547 0.365417 0
334 1 0.0548375 0.382166 0
336 1 0.0795051 0.38858 0
365 1 0.0628657 0.405622 0
337 1 0.0956834 0.370312 0
338 1 0.119404 0.375753 0
367 1 0.103323 0.394039 0
369 1 0.126686 0.398918 0
341 1 0.168452 0.376143 0
340 1 0.143906 0.38161 0
371 1 0.162741 0.399892 0
343 1 0.19112 0.368393 0
342 1 0.186585 0.390816 0
373 1 0.205676 0.404808 0
344 1 0.212441 0.381661 0
345 1 0.235318 0.363621 0
347 1 0.264503 0.368204 0
346 1 0.246142 0.384381 0
375 1 0.229015 0.400154 0
377 1 0.267488 0.393644 0
348 1 0.288078 0.381282 0
350 1 0.311918 0.379189 0
379 1 0.303244 0.402449 0
351 1 0.335356 0.371694 0
353 1 0.359878 0.364638 0
381 1 0.328307 0.396834 0
352 1 0.352979 0.38894 0
355 1 0.392441 0.361373 0
383 1 0.371269 0.404807 0
354 1 0.378121 0.381082 0
385 1 0.394715 0.399318 0
357 1 0.43454 0.373151 0
356 1 0.408809 0.379734 0
358 1 0.45023 0.392343 0
387 1 0.426335 0.396043 0
1231 1 0.498917 0.364233 0
359 1 0.458738 0.370544 0
1261 1 0.492435 0.401116 0
360 1 0.480638 0.38001 0
389 1 0.469229 0.40642 0
362 1 0.0230179 0.416418 0
391 1 0.00449284 0.431659 0
393 1 0.0299689 0.439519 0
364 1 0.0469047 0.422992 0
366 1 0.0874316 0.412008 0
394 1 0.0534122 0.446754 0
395 1 0.0710474 0.429509 0
396 1 0.0793297 0.452266 0
368 1 0.115932 0.420327 0
397 1 0.0967862 0.434761 0
398 1 0.114613 0.452838 0
399 1 0.13375 0.43708 0
370 1 0.144022 0.415281 0
400 1 0.156035 0.448101 0
401 1 0.164941 0.426414 0
402 1 0.180295 0.447923 0
372 1 0.183944 0.414026 0
403 1 0.199352 0.431974 0
374 1 0.221176 0.422204 0
404 1 0.219914 0.445966 0
376 1 0.250511 0.41103 0
405 1 0.241277 0.435443 0
407 1 0.26473 0.430438 0
378 1 0.281172 0.41298 0
408 1 0.280154 0.448639 0
409 1 0.297029 0.431038 0
410 1 0.314901 0.446726 0
380 1 0.319207 0.420267 0
411 1 0.337658 0.436058 0
382 1 0.345671 0.413315 0
412 1 0.356672 0.45099 0
413 1 0.364564 0.428188 0
384 1 0.388786 0.422451 0
414 1 0.381472 0.446244 0
415 1 0.404562 0.440494 0
386 1 0.413398 0.416447 0
388 1 0.442149 0.415473 0
417 1 0.428476 0.435506 0
418 1 0.449128 0.448877 0
390 1 0.486084 0.424903 0
419 1 0.462682 0.429538 0
420 1 0.479128 0.448261 0
392 1 0.0122754 0.454847 0
422 1 0.0153278 0.478366 0
423 1 0.035683 0.46483 0
453 1 0.0262853 0.499184 0
451 1 0.00207931 0.49882 0
424 1 0.0466686 0.487732 0
425 1 0.0619997 0.469537 0
426 1 0.0816997 0.486593 0
427 1 0.0980841 0.469753 0
428 1 0.12101 0.478984 0
429 1 0.13786 0.462054 0
457 1 0.105399 0.497841 0
430 1 0.146412 0.485953 0
431 1 0.164879 0.470099 0
461 1 0.170186 0.495352 0
432 1 0.187779 0.479358 0
433 1 0.201532 0.460372 0
434 1 0.212398 0.481518 0
406 1 0.256046 0.454918 0
465 1 0.233322 0.492532 0
435 1 0.232243 0.466134 0
467 1 0.267011 0.498418 0
436 1 0.252311 0.47926 0
437 1 0.274364 0.47196 0
438 1 0.2906 0.489136 0
440 1 0.318242 0.480035 0
439 1 0.298171 0.465543 0
441 1 0.334043 0.460764 0
442 1 0.348678 0.479472 0
443 1 0.370931 0.46912 0
445 1 0.395044 0.468651 0
444 1 0.382342 0.490266 0
475 1 0.404589 0.499502 0
416 1 0.421005 0.457545 0
446 1 0.419345 0.481447 0
447 1 0.440673 0.47057 0
448 1 0.451919 0.490866 0
479 1 0.475416 0.496845 0
450 1 0.486716 0.475707 0
452 1 0.0154677 0.520349 0
483 1 0.0334521 0.536379 0
454 1 0.0446806 0.514322 0
485 1 0.0650694 0.529222 0
455 1 0.0661086 0.503912 0
456 1 0.0883354 0.517212 0
458 1 0.11453 0.522145 0
487 1 0.0997217 0.540097 0
459 1 0.130457 0.504755 0
489 1 0.139154 0.531501 0
460 1 0.154373 0.513004 0
491 1 0.163654 0.536933 0
462 1 0.17971 0.518806 0
463 1 0.19747 0.502355 0
493 1 0.202892 0.527226 0
464 1 0.2211 0.512286 0
466 1 0.246501 0.513579 0
495 1 0.232811 0.534526 0
497 1 0.266466 0.526257 0
468 1 0.286541 0.512775 0
469 1 0.308824 0.503478 0
499 1 0.301374 0.53171 0
498 1 0.281564 0.545193 0
470 1 0.323469 0.522486 0
471 1 0.333851 0.499855 0
472 1 0.347691 0.521654 0
501 1 0.33557 0.542411 0
473 1 0.359695 0.500817 0
503 1 0.369456 0.532859 0
474 1 0.384898 0.514106 0
505 1 0.394165 0.536293 0
476 1 0.414156 0.520952 0
507 1 0.43792 0.527823 0
477 1 0.429388 0.502475 0
478 1 0.457192 0.514447 0
480 1 0.479788 0.520825 0
509 1 0.462595 0.537294 0
1351 1 0.499996 0.503643 0
482 1 0.00913529 0.549221 0
512 1 0.021935 0.582621 0
513 1 0.0304469 0.559965 0
484 1 0.0529323 0.551736 0
486 1 0.0778144 0.550087 0
514 1 0.0462329 0.578338 0
515 1 0.0691504 0.57197 0
516 1 0.088189 0.585709 0
488 1 0.123154 0.549256 0
517 1 0.100064 0.564811 0
519 1 0.130627 0.572335 0
518 1 0.112274 0.587067 0
490 1 0.147381 0.554852 0
520 1 0.154341 0.579598 0
521 1 0.171174 0.562981 0
522 1 0.179057 0.586278 0
492 1 0.18739 0.544986 0
523 1 0.196826 0.569844 0
494 1 0.211561 0.550089 0
524 1 0.219747 0.579891 0
525 1 0.234203 0.559672 0
496 1 0.254296 0.547791 0
526 1 0.250733 0.578234 0
527 1 0.270552 0.566107 0
500 1 0.314448 0.553493 0
529 1 0.2943 0.566406 0
530 1 0.315988 0.577313 0
528 1 0.281514 0.587257 0
531 1 0.337511 0.566604 0
502 1 0.356914 0.552741 0
532 1 0.347379 0.588339 0
533 1 0.366612 0.575341 0
504 1 0.3805 0.556099 0
535 1 0.403892 0.561851 0
534 1 0.388555 0.583866 0
506 1 0.420208 0.54505 0
508 1 0.443808 0.552053 0
537 1 0.429154 0.570565 0
538 1 0.451445 0.581224 0
536 1 0.412567 0.58793 0
510 1 0.48683 0.549442 0
539 1 0.465693 0.56141 0
540 1 0.483572 0.576627 0
541 1 0.0031227 0.59657 0
542 1 0.0188942 0.614829 0
543 1 0.0380848 0.601163 0
571 1 0.00505508 0.633854 0
544 1 0.0484634 0.6232 0
545 1 0.062136 0.596626 0
546 1 0.0752616 0.615513 0
547 1 0.0980642 0.607138 0
548 1 0.121199 0.612255 0
577 1 0.105038 0.629826 0
549 1 0.137863 0.595768 0
550 1 0.144316 0.618358 0
551 1 0.163523 0.604211 0
581 1 0.16531 0.629943 0
552 1 0.185604 0.616149 0
553 1 0.201292 0.595957 0
554 1 0.219892 0.612815 0
583 1 0.205416 0.631698 0
555 1 0.237402 0.597307 0
556 1 0.246291 0.619944 0
557 1 0.261469 0.601388 0
587 1 0.269145 0.629475 0
558 1 0.284021 0.611446 0
559 1 0.303621 0.59809 0
560 1 0.313785 0.620407 0
589 1 0.293415 0.633939 0
561 1 0.327346 0.599848 0
562 1 0.348189 0.611328 0
591 1 0.335285 0.631333 0
593 1 0.358849 0.632187 0
563 1 0.370195 0.600487 0
564 1 0.380176 0.621985 0
565 1 0.398149 0.60724 0
595 1 0.400849 0.633493 0
566 1 0.420253 0.618254 0
567 1 0.434258 0.598869 0
597 1 0.440156 0.632062 0
568 1 0.456387 0.615425 0
569 1 0.47083 0.597117 0
570 1 0.481508 0.620752 0
1441 1 0.49508 0.598618 0
573 1 0.0285665 0.637202 0
572 1 0.0141646 0.656883 0
603 1 0.0345793 0.671252 0
575 1 0.0671207 0.638471 0
574 1 0.0478346 0.651844 0
605 1 0.0700315 0.66294 0
576 1 0.0890001 0.648234 0
578 1 0.112639 0.651951 0
579 1 0.130688 0.637196 0
607 1 0.0996107 0.670749 0
609 1 0.1321 0.665363 0
580 1 0.152084 0.650539 0
611 1 0.173648 0.664532 0
610 1 0.153757 0.677019 0
582 1 0.185782 0.644681 0
584 1 0.214375 0.654255 0
613 1 0.196714 0.670116 0
614 1 0.220105 0.679824 0
585 1 0.230136 0.636611 0
586 1 0.253089 0.646326 0
615 1 0.236992 0.663547 0
617 1 0.261095 0.668919 0
588 1 0.27881 0.653144 0
590 1 0.314977 0.644022 0
619 1 0.303853 0.664276 0
618 1 0.284539 0.676991 0
621 1 0.328 0.663673 0
592 1 0.349136 0.653074 0
622 1 0.347601 0.677275 0
594 1 0.379409 0.645518 0
625 1 0.401028 0.659281 0
623 1 0.369907 0.666806 0
596 1 0.421016 0.645443 0
598 1 0.44569 0.655901 0
627 1 0.42566 0.668435 0
599 1 0.463452 0.638996 0
600 1 0.485873 0.646401 0
629 1 0.468584 0.663607 0
630 1 0.485157 0.681013 0
602 1 0.0146751 0.683242 0
633 1 0.0356013 0.69567 0
632 1 0.0153366 0.710488 0
604 1 0.0564602 0.682456 0
606 1 0.081136 0.684806 0
635 1 0.0671373 0.703677 0
634 1 0.0477814 0.716442 0
636 1 0.0821248 0.722139 0
608 1 0.118102 0.686736 0
637 1 0.0985676 0.703707 0
638 1 0.122301 0.712142 0
639 1 0.141015 0.697213 0
641 1 0.164273 0.704796 0
640 1 0.14706 0.720989 0
612 1 0.180827 0.688158 0
643 1 0.20516 0.697677 0
642 1 0.188034 0.71381 0
644 1 0.213449 0.721371 0
616 1 0.246325 0.687547 0
645 1 0.230588 0.70492 0
647 1 0.270401 0.695399 0
646 1 0.254422 0.713084 0
620 1 0.31791 0.686022 0
649 1 0.295742 0.699582 0
648 1 0.279403 0.718722 0
650 1 0.317939 0.709639 0
651 1 0.339878 0.700007 0
652 1 0.352164 0.7208 0
653 1 0.362767 0.695742 0
624 1 0.384388 0.686094 0
655 1 0.398604 0.705901 0
654 1 0.376573 0.715079 0
626 1 0.407833 0.683503 0
657 1 0.429632 0.693698 0
656 1 0.4202 0.717451 0
658 1 0.448028 0.709456 0
628 1 0.453392 0.683834 0
1531 1 0.498206 0.701734 0
659 1 0.472242 0.702506 0
660 1 0.486625 0.722666 0
662 1 0.0177916 0.751235 0
663 1 0.0292869 0.730835 0
693 1 0.0292268 0.771926 0
691 1 0.00386405 0.769999 0
664 1 0.0440195 0.752759 0
665 1 0.0626305 0.736467 0
666 1 0.0882966 0.745651 0
695 1 0.0694178 0.759737 0
667 1 0.105995 0.729347 0
669 1 0.129469 0.73671 0
668 1 0.111963 0.752689 0
697 1 0.0939484 0.768895 0
699 1 0.134674 0.760703 0
670 1 0.153564 0.746745 0
671 1 0.170141 0.729758 0
701 1 0.161289 0.771005 0
672 1 0.177589 0.753414 0
673 1 0.195215 0.736655 0
674 1 0.219375 0.745137 0
703 1 0.200572 0.760315 0
675 1 0.238559 0.730748 0
677 1 0.264081 0.737351 0
676 1 0.248428 0.754851 0
705 1 0.228179 0.768243 0
707 1 0.271326 0.765462 0
679 1 0.302503 0.727589 0
678 1 0.286773 0.745708 0
680 1 0.311722 0.751148 0
709 1 0.295251 0.769285 0
681 1 0.328872 0.732057 0
711 1 0.330126 0.768223 0
682 1 0.34641 0.748812 0
683 1 0.369212 0.738099 0
684 1 0.387641 0.753077 0
685 1 0.395662 0.729915 0
713 1 0.365949 0.764344 0
715 1 0.40874 0.76407 0
686 1 0.416739 0.741435 0
687 1 0.439288 0.733475 0
688 1 0.456545 0.751586 0
717 1 0.432512 0.759793 0
689 1 0.463253 0.727854 0
690 1 0.479668 0.746675 0
719 1 0.474026 0.769807 0
1591 1 0.498399 0.765672 0
692 1 0.0141346 0.791133 0
722 1 0.023159 0.813048 0
723 1 0.0373273 0.794483 0
694 1 0.053048 0.776846 0
696 1 0.0763164 0.784298 0
725 1 0.0592904 0.800797 0
726 1 0.0793564 0.812587 0
698 1 0.116197 0.781352 0
727 1 0.0970365 0.794935 0
728 1 0.114229 0.812594 0
700 1 0.140483 0.783266 0
729 1 0.137206 0.806013 0
731 1 0.160992 0.794878 0
732 1 0.179819 0.809893 0
702 1 0.183327 0.783877 0
704 1 0.208912 0.782326 0
733 1 0.203128 0.804594 0
706 1 0.250313 0.779101 0
735 1 0.230044 0.794411 0
736 1 0.242786 0.8156 0
737 1 0.26094 0.800145 0
708 1 0.28371 0.791401 0
710 1 0.312869 0.786527 0
738 1 0.277993 0.818368 0
739 1 0.300328 0.808462 0
712 1 0.350584 0.783592 0
741 1 0.333687 0.801238 0
742 1 0.355279 0.814266 0
714 1 0.388268 0.777199 0
743 1 0.372143 0.795999 0
745 1 0.396998 0.801031 0
716 1 0.418084 0.785232 0
718 1 0.45084 0.775314 0
746 1 0.419965 0.808474 0
747 1 0.439754 0.795959 0
748 1 0.450843 0.818138 0
720 1 0.488168 0.789187 0
1621 1 0.50032 0.809097 0
749 1 0.464082 0.795629 0
750 1 0.476557 0.816812 0
751 1 0.0045984 0.827943 0
752 1 0.0113776 0.852952 0
753 1 0.0277412 0.836289 0
724 1 0.0475992 0.82279 0
755 1 0.0704826 0.836138 0
754 1 0.0481209 0.848547 0
785 1 0.068042 0.862134 0
756 1 0.0888439 0.851568 0
757 1 0.096582 0.829194 0
759 1 0.131711 0.830841 0
758 1 0.112945 0.847752 0
789 1 0.134787 0.858044 0
730 1 0.156989 0.818726 0
760 1 0.152916 0.842667 0
761 1 0.174863 0.834927 0
763 1 0.197081 0.8272 0
734 1 0.220257 0.821879 0
762 1 0.187201 0.85555 0
764 1 0.210448 0.846587 0
767 1 0.258692 0.833164 0
765 1 0.235121 0.839733 0
795 1 0.22746 0.863029 0
766 1 0.252375 0.855663 0
768 1 0.2775 0.848677 0
769 1 0.298184 0.833262 0
799 1 0.298093 0.85934 0
740 1 0.319926 0.821551 0
770 1 0.318631 0.846687 0
771 1 0.340388 0.833833 0
772 1 0.349653 0.856093 0
744 1 0.380169 0.819355 0
775 1 0.404177 0.825523 0
773 1 0.364366 0.83781 0
774 1 0.387805 0.84309 0
777 1 0.42974 0.830354 0
776 1 0.414884 0.848685 0
778 1 0.441999 0.851647 0
779 1 0.464737 0.83868 0
780 1 0.487522 0.851672 0
783 1 0.0326493 0.868958 0
782 1 0.0148512 0.886461 0
813 1 0.0366075 0.897245 0
784 1 0.054916 0.881655 0
815 1 0.0646522 0.904203 0
786 1 0.0807583 0.884083 0
787 1 0.101964 0.87107 0
788 1 0.124781 0.88022 0
817 1 0.105246 0.894678 0
819 1 0.134621 0.903063 0
791 1 0.164775 0.863288 0
790 1 0.148671 0.881277 0
821 1 0.16153 0.901585 0
792 1 0.178692 0.884227 0
793 1 0.204344 0.872111 0
823 1 0.200858 0.896297 0
794 1 0.222738 0.886667 0
797 1 0.269224 0.871725 0
796 1 0.245226 0.878636 0
825 1 0.236612 0.905266 0
827 1 0.260303 0.896436 0
798 1 0.286815 0.88729 0
800 1 0.30892 0.880502 0
829 1 0.304877 0.90422 0
801 1 0.329578 0.868685 0
831 1 0.327988 0.894256 0
802 1 0.349521 0.881359 0
803 1 0.372231 0.866626 0
805 1 0.396999 0.865313 0
833 1 0.362886 0.901442 0
804 1 0.384142 0.89049 0
835 1 0.40325 0.909327 0
807 1 0.425868 0.8708 0
806 1 0.408047 0.886202 0
808 1 0.448921 0.881287 0
837 1 0.429075 0.897864 0
1681 1 0.499091 0.872526 0
809 1 0.465109 0.862844 0
810 1 0.477953 0.884446 0
839 1 0.463902 0.903633 0
812 1 0.0170036 0.912082 0
842 1 0.0108599 0.950945 0
843 1 0.0265603 0.933604 0
816 1 0.0875414 0.911434 0
814 1 0.0473879 0.920286 0
844 1 0.0480062 0.944827 0
845 1 0.0699422 0.931273 0
818 1 0.113323 0.917328 0
847 1 0.0957931 0.933886 0
848 1 0.112409 0.951826 0
849 1 0.129227 0.934906 0
820 1 0.149389 0.922279 0
850 1 0.15004 0.94688 0
851 1 0.171402 0.93429 0
822 1 0.183342 0.912975 0
853 1 0.19511 0.938326 0
824 1 0.21002 0.918786 0
854 1 0.216633 0.94876 0
855 1 0.232049 0.930569 0
826 1 0.254455 0.920027 0
856 1 0.253052 0.944141 0
828 1 0.279718 0.909983 0
857 1 0.273321 0.933558 0
858 1 0.289703 0.950326 0
859 1 0.296311 0.92716 0
860 1 0.31314 0.943923 0
830 1 0.320158 0.921756 0
832 1 0.342125 0.913079 0
861 1 0.337617 0.937808 0
862 1 0.354831 0.954348 0
863 1 0.359717 0.929433 0
834 1 0.380248 0.918298 0
864 1 0.377996 0.945092 0
865 1 0.398912 0.933907 0
838 1 0.444726 0.91683 0
836 1 0.422228 0.923778 0
866 1 0.4175 0.948205 0
867 1 0.440995 0.940891 0
840 1 0.485998 0.914644 0
1741 1 0.4969 0.939806 0
869 1 0.465274 0.930609 0
870 1 0.477042 0.952718 0
872 1 0.019292 0.989583 0
873 1 0.0298378 0.966279 0
871 1 0.00221793 0.973024 0
846 1 0.0846306 0.954799 0
874 1 0.0476698 0.983124 0
875 1 0.0623232 0.963707 0
876 1 0.0781773 0.982194 0
877 1 0.100534 0.972509 0
878 1 0.121021 0.985525 0
7 1 0.0988424 0.996939 0
879 1 0.133725 0.964737 0
852 1 0.179737 0.956714 0
880 1 0.144951 0.988801 0
881 1 0.159212 0.969462 0
882 1 0.180922 0.981819 0
883 1 0.20098 0.968017 0
13 1 0.203343 0.994924 0
884 1 0.221682 0.979557 0
885 1 0.237038 0.961434 0
886 1 0.245289 0.985313 0
17 1 0.2684 0.991618 0
887 1 0.26081 0.966934 0
888 1 0.284382 0.974029 0
889 1 0.306895 0.967886 0
19 1 0.296889 0.994865 0
890 1 0.32189 0.985921 0
891 1 0.330006 0.960355 0
892 1 0.345581 0.977974 0
23 1 0.363395 0.993131 0
893 1 0.37307 0.969545 0
895 1 0.396047 0.961423 0
894 1 0.389142 0.986822 0
898 1 0.448386 0.985403 0
897 1 0.43203 0.96682 0
896 1 0.41137 0.980024 0
27 1 0.42746 0.998456 0
1771 1 0.495287 0.968372 0
868 1 0.4549 0.960746 0
899 1 0.471722 0.977457 0
900 1 0.489632 0.992452 0
661 1 0.00162075 0.733356 0
902 1 0.529494 0.0167546 0
933 1 0.532224 0.0408739 0
931 1 0.508757 0.0310059 0
901 1 0.509009 0.00637524 0
904 1 0.550824 0.0251924 0
935 1 0.57403 0.0316319 0
906 1 0.588738 0.0133728 0
905 1 0.56556 0.00547285 0
908 1 0.612683 0.0213262 0
937 1 0.596231 0.0382213 0
909 1 0.629705 0.00537636 0
938 1 0.620461 0.045335 0
939 1 0.637452 0.0283676 0
910 1 0.653423 0.0108877 0
941 1 0.663311 0.0372554 0
912 1 0.676177 0.0176604 0
913 1 0.697217 0.00492179 0
943 1 0.697508 0.0282506 0
914 1 0.719185 0.0188338 0
945 1 0.733919 0.0389654 0
916 1 0.750622 0.013269 0
947 1 0.758758 0.0355756 0
918 1 0.778018 0.0218966 0
919 1 0.796037 0.00631031 0
949 1 0.800667 0.0320257 0
920 1 0.820019 0.0156246 0
951 1 0.834537 0.0355446 0
922 1 0.845334 0.0137669 0
953 1 0.860175 0.0339647 0
924 1 0.882204 0.0181769 0
925 1 0.904227 0.00402778 0
955 1 0.903751 0.0295747 0
954 1 0.883362 0.0431885 0
926 1 0.925328 0.0166345 0
928 1 0.948337 0.00852787 0
957 1 0.934589 0.0397655 0
930 1 0.984703 0.0210047 0
959 1 0.959578 0.0291345 0
929 1 0.971216 0.00184228 0
932 1 0.512735 0.0550113 0
962 1 0.521836 0.0802335 0
963 1 0.53903 0.0637228 0
964 1 0.544309 0.0876268 0
934 1 0.556198 0.0478763 0
936 1 0.579252 0.0549537 0
965 1 0.562754 0.0716925 0
966 1 0.587178 0.0803743 0
967 1 0.603626 0.0626635 0
969 1 0.627981 0.0698591 0
968 1 0.611706 0.0870432 0
940 1 0.644473 0.0521971 0
970 1 0.651097 0.0781015 0
971 1 0.666907 0.0607253 0
972 1 0.676144 0.0825038 0
942 1 0.687657 0.0500287 0
973 1 0.702311 0.0702153 0
944 1 0.711575 0.0473975 0
975 1 0.727028 0.0650648 0
974 1 0.720454 0.0879963 0
946 1 0.749775 0.0571765 0
976 1 0.745108 0.0805074 0
977 1 0.768867 0.0715966 0
948 1 0.779931 0.0466376 0
950 1 0.81624 0.0528298 0
979 1 0.793511 0.0654809 0
980 1 0.809165 0.0829013 0
978 1 0.785156 0.0889849 0
981 1 0.831045 0.0730457 0
952 1 0.847838 0.0553139 0
982 1 0.853652 0.0821422 0
983 1 0.87028 0.0641328 0
985 1 0.893894 0.0657824 0
984 1 0.882232 0.0865339 0
986 1 0.914293 0.079479 0
956 1 0.913704 0.0520046 0
958 1 0.954512 0.0536429 0
987 1 0.9338 0.0655299 0
988 1 0.949597 0.0845608 0
61 1 0.995723 0.0597683 0
960 1 0.977922 0.0445994 0
989 1 0.973024 0.0695982 0
990 1 0.993345 0.0834221 0
991 1 0.504565 0.096653 0
992 1 0.510478 0.122678 0
993 1 0.527161 0.104813 0
1023 1 0.534586 0.1277 0
994 1 0.551324 0.111317 0
995 1 0.568311 0.0949506 0
996 1 0.575912 0.1176 0
997 1 0.596479 0.104855 0
998 1 0.620348 0.116011 0
999 1 0.634421 0.0950973 0
1027 1 0.599489 0.129045 0
1000 1 0.644931 0.117978 0
1001 1 0.6625 0.101457 0
1031 1 0.666775 0.129261 0
1002 1 0.686099 0.115136 0
1003 1 0.697356 0.0933744 0
1004 1 0.71089 0.113712 0
1033 1 0.697969 0.136737 0
1005 1 0.738375 0.103632 0
1006 1 0.755114 0.12058 0
1007 1 0.76217 0.0964234 0
1035 1 0.732064 0.126851 0
1008 1 0.778929 0.112941 0
1009 1 0.802583 0.106074 0
1039 1 0.796322 0.129416 0
1010 1 0.820224 0.121997 0
1011 1 0.827997 0.0977722 0
1012 1 0.843458 0.115464 0
1043 1 0.862515 0.130403 0
1013 1 0.864592 0.104071 0
1014 1 0.884275 0.118507 0
1015 1 0.902046 0.100793 0
1016 1 0.915787 0.121124 0
1017 1 0.929529 0.0999091 0
1018 1 0.953262 0.109654 0
1047 1 0.938785 0.12918 0
1019 1 0.971893 0.0938323 0
1020 1 0.979171 0.116767 0
121 1 0.999346 0.130514 0
1049 1 0.961749 0.133105 0
1022 1 0.519924 0.146745 0
1053 1 0.531644 0.170663 0
1052 1 0.511154 0.182677 0
1025 1 0.564725 0.138207 0
1024 1 0.543959 0.150284 0
1055 1 0.566594 0.162515 0
1026 1 0.587038 0.149734 0
1028 1 0.612133 0.151549 0
1029 1 0.632282 0.138842 0
1059 1 0.634779 0.16439 0
1057 1 0.600313 0.172348 0
1030 1 0.654254 0.149916 0
1032 1 0.678392 0.15225 0
1061 1 0.665006 0.172709 0
1063 1 0.701398 0.160976 0
1034 1 0.721519 0.147895 0
1036 1 0.748568 0.145336 0
1065 1 0.735487 0.167865 0
1037 1 0.772602 0.13641 0
1067 1 0.767875 0.159823 0
1066 1 0.756471 0.180131 0
1038 1 0.790944 0.152764 0
1040 1 0.813858 0.146084 0
1069 1 0.80569 0.170296 0
1071 1 0.830849 0.161981 0
1041 1 0.837345 0.138373 0
1042 1 0.854601 0.154972 0
1045 1 0.898443 0.138288 0
1044 1 0.878645 0.150912 0
1075 1 0.902592 0.162158 0
1073 1 0.869571 0.172719 0
1046 1 0.921215 0.145231 0
1048 1 0.947629 0.152924 0
1077 1 0.928847 0.167537 0
1078 1 0.949506 0.179005 0
1050 1 0.981445 0.145606 0
1079 1 0.969099 0.165839 0
151 1 0.99985 0.161126 0
1083 1 0.533736 0.195401 0
1082 1 0.51943 0.214264 0
1084 1 0.545895 0.218068 0
1054 1 0.554138 0.182871 0
1056 1 0.579291 0.184372 0
1085 1 0.566588 0.204763 0
1086 1 0.588178 0.216656 0
1058 1 0.62203 0.184619 0
1087 1 0.601491 0.197122 0
1089 1 0.631303 0.207397 0
1088 1 0.612934 0.221725 0
1060 1 0.646495 0.188612 0
1091 1 0.671122 0.197032 0
1090 1 0.657413 0.217627 0
1092 1 0.681778 0.219693 0
1062 1 0.690151 0.182067 0
1093 1 0.700839 0.204926 0
1064 1 0.714944 0.183409 0
1094 1 0.723957 0.214595 0
1095 1 0.738433 0.195288 0
1097 1 0.765864 0.202942 0
1096 1 0.74779 0.219576 0
1068 1 0.781398 0.181 0
1099 1 0.802021 0.193945 0
1098 1 0.788175 0.212489 0
1100 1 0.812676 0.216205 0
1070 1 0.823509 0.185217 0
1072 1 0.846866 0.181532 0
1101 1 0.836355 0.205059 0
1102 1 0.856352 0.2181 0
1103 1 0.865946 0.196265 0
1074 1 0.88911 0.186352 0
1105 1 0.902886 0.206012 0
1104 1 0.880459 0.215142 0
1076 1 0.913361 0.184632 0
1107 1 0.933994 0.197147 0
1106 1 0.922545 0.219064 0
1108 1 0.952202 0.214166 0
1080 1 0.987059 0.182152 0
1109 1 0.966812 0.194465 0
1110 1 0.978342 0.215611 0
1111 1 0.505085 0.232761 0
1113 1 0.530136 0.236646 0
1112 1 0.514059 0.255337 0
1143 1 0.536858 0.264819 0
1114 1 0.552566 0.24749 0
1115 1 0.569166 0.230824 0
1116 1 0.576985 0.253934 0
1145 1 0.560893 0.27212 0
1117 1 0.595401 0.239164 0
1119 1 0.638468 0.231158 0
1118 1 0.620262 0.245792 0
1147 1 0.602729 0.261621 0
1149 1 0.629349 0.268767 0
1121 1 0.669981 0.240881 0
1120 1 0.649418 0.254525 0
1151 1 0.6732 0.265224 0
1122 1 0.692496 0.250024 0
1123 1 0.704788 0.22948 0
1124 1 0.716036 0.255845 0
1125 1 0.731199 0.237428 0
1126 1 0.755067 0.24591 0
1127 1 0.770597 0.228199 0
1155 1 0.738701 0.262435 0
1157 1 0.763298 0.269695 0
1128 1 0.779119 0.251263 0
1129 1 0.798452 0.23504 0
1159 1 0.802236 0.260134 0
1130 1 0.820907 0.246792 0
1131 1 0.833988 0.228041 0
1132 1 0.8472 0.247635 0
1161 1 0.8324 0.268039 0
1133 1 0.870466 0.237229 0
1135 1 0.899689 0.229836 0
1163 1 0.866285 0.261132 0
1134 1 0.889637 0.251021 0
1165 1 0.90415 0.269388 0