ITEM: TIMESTEP
106000
ITEM: NUMBER OF ATOMS
1800
ITEM: BOX BOUNDS pp pp pp
1.0642499226693474e+00 1.6393575007733335e+02
1.0642499226693474e+00 1.6393575007733335e+02
0.0000000000000000e+00 5.5000000000000000e+00
ITEM: ATOMS id type xs ys zs
2 1 0.0112145 0.0144359 0
3 1 0.036181 0.00870782 0
33 1 0.0277723 0.0319324 0
31 1 0.00460461 0.0381401 0
4 1 0.053318 0.0266177 0
6 1 0.07688 0.0205895 0
5 1 0.0599412 0.00179112 0
35 1 0.069876 0.0449696 0
8 1 0.100607 0.0137401 0
37 1 0.093236 0.0384423 0
9 1 0.124562 0.00949001 0
39 1 0.117059 0.0332184 0
10 1 0.141364 0.0276593 0
12 1 0.164188 0.0222157 0
11 1 0.147692 0.00404674 0
41 1 0.182451 0.041296 0
14 1 0.206328 0.0359285 0
15 1 0.213588 0.0113975 0
13 1 0.189451 0.0173936 0
16 1 0.254164 0.0235481 0
886 1 0.237401 0.00571469 0
47 1 0.271133 0.0403475 0
18 1 0.278192 0.0157435 0
49 1 0.295085 0.0328463 0
19 1 0.302129 0.00922852 0
20 1 0.319974 0.0262864 0
51 1 0.337364 0.0426061 0
21 1 0.345826 0.0190959 0
890 1 0.327291 0.00272009 0
22 1 0.364362 0.0363967 0
24 1 0.388559 0.0298632 0
23 1 0.369904 0.013449 0
894 1 0.394705 0.00657978 0
25 1 0.413417 0.023738 0
26 1 0.43161 0.0409757 0
27 1 0.448537 0.0235087 0
897 1 0.441393 -2.08019e-05 0
29 1 0.473684 0.0281378 0
900 1 0.489645 0.00986549 0
898 1 0.465074 0.00495759 0
30 1 0.497529 0.0341332 0
32 1 0.0206082 0.0566909 0
62 1 0.0139579 0.0812692 0
63 1 0.0374421 0.0750399 0
34 1 0.0446315 0.0497217 0
65 1 0.0614945 0.0690277 0
66 1 0.0783547 0.0873257 0
36 1 0.0858196 0.0633487 0
38 1 0.110715 0.0572429 0
67 1 0.102744 0.081237 0
68 1 0.126968 0.0757781 0
69 1 0.134684 0.0523593 0
40 1 0.15889 0.0466136 0
71 1 0.151421 0.0701366 0
42 1 0.174891 0.0650648 0
72 1 0.167187 0.0891598 0
43 1 0.199442 0.0597168 0
44 1 0.216064 0.0778468 0
73 1 0.192729 0.0840919 0
45 1 0.223694 0.053458 0
46 1 0.248304 0.0477032 0
75 1 0.241915 0.0713054 0
77 1 0.265572 0.064552 0
76 1 0.258889 0.0891453 0
48 1 0.289063 0.0579364 0
79 1 0.306394 0.0749437 0
78 1 0.28355 0.0832625 0
50 1 0.314087 0.0499544 0
81 1 0.330996 0.0674912 0
52 1 0.355486 0.0592351 0
82 1 0.349275 0.0834967 0
55 1 0.407588 0.0503154 0
53 1 0.382978 0.0535937 0
83 1 0.372907 0.0750183 0
54 1 0.398153 0.0743463 0
57 1 0.440784 0.0641845 0
56 1 0.422497 0.0808936 0
87 1 0.448286 0.0879728 0
28 1 0.45667 0.0464609 0
59 1 0.481427 0.0520375 0
58 1 0.46471 0.0702243 0
89 1 0.488898 0.0753465 0
92 1 0.024154 0.124747 0
93 1 0.0302397 0.0992211 0
91 1 0.00669327 0.106002 0
64 1 0.053816 0.0931779 0
94 1 0.047403 0.11759 0
95 1 0.0718288 0.110905 0
96 1 0.0869879 0.130065 0
97 1 0.0961524 0.105953 0
98 1 0.112033 0.125887 0
99 1 0.120157 0.101248 0
100 1 0.136009 0.119511 0
70 1 0.143273 0.09396 0
101 1 0.161465 0.112894 0
103 1 0.184769 0.107057 0
102 1 0.194556 0.128611 0
105 1 0.2109 0.106976 0
104 1 0.217432 0.135635 0
74 1 0.23519 0.0940492 0
106 1 0.234207 0.118163 0
137 1 0.258313 0.123236 0
109 1 0.302027 0.101395 0
107 1 0.27691 0.106655 0
108 1 0.282395 0.130657 0
80 1 0.324527 0.0919262 0
110 1 0.322557 0.120727 0
111 1 0.342855 0.107103 0
141 1 0.34845 0.130051 0
84 1 0.384664 0.0955018 0
113 1 0.366278 0.111653 0
112 1 0.390727 0.118471 0
85 1 0.407762 0.0994908 0
115 1 0.414294 0.12375 0
86 1 0.431325 0.105126 0
116 1 0.438167 0.129998 0
117 1 0.454729 0.112434 0
88 1 0.472501 0.0937198 0
119 1 0.478918 0.118017 0
90 1 0.495849 0.0997529 0
118 1 0.462995 0.135328 0
122 1 0.0157328 0.148775 0
153 1 0.0321367 0.166661 0
152 1 0.00721281 0.171886 0
123 1 0.0402143 0.142772 0
125 1 0.0643249 0.136534 0
124 1 0.0566144 0.161423 0
126 1 0.080922 0.156625 0
155 1 0.0732092 0.17983 0
127 1 0.104376 0.150054 0
128 1 0.120527 0.167697 0
157 1 0.0976494 0.175988 0
129 1 0.129733 0.144167 0
130 1 0.153648 0.136333 0
159 1 0.158067 0.160558 0
131 1 0.176533 0.145086 0
160 1 0.141064 0.180181 0
132 1 0.182183 0.169728 0
133 1 0.200223 0.153 0
163 1 0.206404 0.17702 0
134 1 0.224139 0.159337 0
135 1 0.242324 0.142505 0
136 1 0.265803 0.148122 0
165 1 0.248134 0.165798 0
167 1 0.271779 0.1736 0
139 1 0.30558 0.137808 0
138 1 0.28866 0.154855 0
169 1 0.313202 0.163441 0
168 1 0.295111 0.179128 0
140 1 0.32873 0.145211 0
142 1 0.354957 0.152882 0
171 1 0.336761 0.169195 0
172 1 0.360724 0.176208 0
143 1 0.372516 0.135341 0
114 1 0.396805 0.141993 0
144 1 0.403781 0.165534 0
173 1 0.379436 0.158966 0
145 1 0.420743 0.148028 0
146 1 0.42838 0.171503 0
147 1 0.445428 0.153509 0
177 1 0.451993 0.177428 0
149 1 0.487473 0.141808 0
148 1 0.469815 0.158702 0
150 1 0.492761 0.165766 0
183 1 0.0239287 0.189684 0
182 1 0.0161182 0.213947 0
184 1 0.0408561 0.208871 0
181 1 -0.00015327 0.195991 0
154 1 0.0486524 0.185692 0
185 1 0.0670861 0.203294 0
215 1 0.0570575 0.226586 0
186 1 0.0825796 0.227468 0
156 1 0.0924534 0.20261 0
158 1 0.1172 0.193738 0
187 1 0.126683 0.218789 0
161 1 0.164379 0.18727 0
189 1 0.145363 0.20406 0
191 1 0.170258 0.211141 0
162 1 0.188267 0.194183 0
193 1 0.211668 0.203068 0
192 1 0.193548 0.219535 0
194 1 0.217219 0.226761 0
164 1 0.230167 0.183317 0
195 1 0.235752 0.209648 0
166 1 0.253588 0.190645 0
196 1 0.260088 0.21562 0
197 1 0.277202 0.197792 0
199 1 0.30048 0.204539 0
198 1 0.283546 0.221871 0
170 1 0.319742 0.187756 0
201 1 0.34386 0.193885 0
200 1 0.324575 0.211817 0
202 1 0.350046 0.217633 0
174 1 0.38623 0.18217 0
203 1 0.367957 0.200507 0
204 1 0.393136 0.207369 0
233 1 0.374847 0.224946 0
175 1 0.410592 0.189438 0
205 1 0.417179 0.213823 0
176 1 0.434782 0.195189 0
207 1 0.440491 0.218968 0
179 1 0.475708 0.183404 0
178 1 0.458268 0.201537 0
209 1 0.481669 0.207615 0
208 1 0.46519 0.226132 0
212 1 0.0248166 0.25654 0
211 1 0.0088261 0.237965 0
213 1 0.0339001 0.232415 0
243 1 0.0490127 0.262839 0
214 1 0.0681942 0.24831 0
245 1 0.0740599 0.271993 0
216 1 0.0912106 0.25355 0
217 1 0.109256 0.237491 0
218 1 0.114897 0.262626 0
188 1 0.133391 0.244147 0
190 1 0.151745 0.228089 0
219 1 0.139149 0.268953 0
221 1 0.175563 0.235564 0
220 1 0.156796 0.252316 0
222 1 0.180655 0.259665 0
223 1 0.198943 0.24365 0
253 1 0.204206 0.267052 0
224 1 0.223088 0.249806 0
225 1 0.241523 0.232797 0
227 1 0.266142 0.239399 0
226 1 0.248608 0.256815 0
257 1 0.272765 0.263808 0
229 1 0.307933 0.229187 0
228 1 0.290484 0.246724 0
230 1 0.315043 0.253257 0
259 1 0.296989 0.27107 0
231 1 0.332421 0.23539 0
232 1 0.35608 0.241445 0
261 1 0.338587 0.260066 0
263 1 0.363348 0.266431 0
235 1 0.400024 0.231166 0
234 1 0.380489 0.248801 0
265 1 0.406735 0.255115 0
206 1 0.423467 0.238479 0
237 1 0.448242 0.244321 0
236 1 0.430114 0.261765 0
238 1 0.454797 0.268371 0
210 1 0.488484 0.231208 0
239 1 0.471938 0.250699 0
240 1 0.496738 0.25546 0
241 1 0.00684388 0.273067 0
242 1 0.0305981 0.280769 0
273 1 0.0370923 0.305068 0
271 1 0.0126771 0.297553 0
244 1 0.0548366 0.287783 0
246 1 0.0782803 0.295582 0
275 1 0.0607398 0.312103 0
247 1 0.0975814 0.279765 0
249 1 0.121541 0.286887 0
248 1 0.10315 0.303661 0
279 1 0.127184 0.311099 0
251 1 0.162633 0.27672 0
250 1 0.14499 0.293197 0
281 1 0.169063 0.300688 0
280 1 0.151118 0.317541 0
252 1 0.187401 0.283745 0
254 1 0.211449 0.290822 0
283 1 0.193863 0.308192 0
284 1 0.217915 0.314207 0
255 1 0.229512 0.273927 0
256 1 0.254772 0.281107 0
285 1 0.236214 0.296908 0
287 1 0.261521 0.305076 0
258 1 0.278575 0.287908 0
288 1 0.284689 0.312528 0
289 1 0.302551 0.294782 0
260 1 0.32136 0.277241 0
262 1 0.346035 0.283968 0
291 1 0.326998 0.30147 0
292 1 0.351211 0.308474 0
264 1 0.387462 0.27274 0
293 1 0.369781 0.290104 0
295 1 0.394647 0.296536 0
294 1 0.377056 0.314487 0
266 1 0.412022 0.278986 0
267 1 0.435197 0.285868 0
297 1 0.418448 0.303902 0
298 1 0.443013 0.309639 0
269 1 0.478659 0.273805 0
268 1 0.460117 0.29266 0
270 1 0.484646 0.299117 0
299 1 0.467993 0.315865 0
1200 1 0.0190231 0.322462 0
272 1 0.0430592 0.329611 0
301 1 0.024684 0.347432 0
1230 1 0.00606552 0.364408 0
276 1 0.0840852 0.321278 0
303 1 0.0482021 0.355011 0
274 1 0.0662029 0.338524 0
304 1 0.0727757 0.362476 0
305 1 0.0907524 0.345958 0
277 1 0.109062 0.32787 0
278 1 0.132751 0.335046 0
307 1 0.11539 0.351564 0
282 1 0.175279 0.324797 0
309 1 0.139635 0.358954 0
311 1 0.157386 0.341759 0
312 1 0.182189 0.349053 0
313 1 0.199811 0.331894 0
314 1 0.206043 0.355366 0
315 1 0.223957 0.338468 0
286 1 0.242044 0.321114 0
317 1 0.266771 0.328839 0
316 1 0.247584 0.34592 0
318 1 0.272346 0.352925 0
290 1 0.308831 0.319666 0
319 1 0.290917 0.336707 0
349 1 0.29695 0.359946 0
320 1 0.315653 0.343515 0
321 1 0.333557 0.325844 0
323 1 0.358239 0.331547 0
322 1 0.340511 0.349986 0
324 1 0.363997 0.356484 0
296 1 0.400543 0.321866 0
325 1 0.382202 0.338554 0
326 1 0.406867 0.345889 0
355 1 0.388956 0.362828 0
327 1 0.424549 0.327179 0
328 1 0.432173 0.35105 0
329 1 0.449233 0.333487 0
359 1 0.457597 0.357564 0
300 1 0.492335 0.322987 0
330 1 0.47467 0.340045 0
1201 1 0.49882 0.346458 0
302 1 0.0301801 0.371883 0
332 1 0.0369458 0.395686 0
331 1 0.0121398 0.388682 0
333 1 0.0543173 0.379503 0
335 1 0.0783585 0.387696 0
334 1 0.0607235 0.404917 0
306 1 0.0975887 0.369721 0
308 1 0.121511 0.376485 0
337 1 0.103437 0.394014 0
338 1 0.128111 0.399861 0
310 1 0.162978 0.36597 0
339 1 0.145661 0.383198 0
341 1 0.169234 0.390248 0
340 1 0.151955 0.407692 0
343 1 0.187264 0.373106 0
342 1 0.194847 0.397354 0
344 1 0.21171 0.380382 0
373 1 0.218371 0.405429 0
345 1 0.230391 0.362697 0
347 1 0.25498 0.370819 0
346 1 0.235963 0.387387 0
377 1 0.261155 0.394679 0
348 1 0.278838 0.37701 0
350 1 0.303253 0.384841 0
378 1 0.284301 0.401065 0
379 1 0.309733 0.408211 0
351 1 0.320689 0.366986 0
381 1 0.328387 0.390583 0
353 1 0.3465 0.373659 0
352 1 0.354081 0.397089 0
354 1 0.372066 0.380981 0
385 1 0.3799 0.405233 0
356 1 0.396513 0.387082 0
387 1 0.420932 0.39426 0
357 1 0.413934 0.368933 0
358 1 0.438417 0.375107 0
388 1 0.445275 0.399812 0
360 1 0.481774 0.364317 0
389 1 0.46267 0.381727 0
1232 1 0.487625 0.389846 0
1261 1 0.469696 0.406948 0
361 1 0.0187852 0.412546 0
362 1 0.0234774 0.436724 0
363 1 0.0420326 0.420601 0
392 1 0.0062101 0.454007 0
336 1 0.0848916 0.410932 0
364 1 0.0485448 0.444342 0
365 1 0.0674696 0.429458 0
395 1 0.0726071 0.453291 0
366 1 0.0917405 0.434742 0
367 1 0.109401 0.418255 0
368 1 0.116212 0.44156 0
369 1 0.133645 0.423916 0
371 1 0.175724 0.414189 0
399 1 0.140251 0.448734 0
370 1 0.158045 0.432379 0
401 1 0.181414 0.439169 0
372 1 0.199836 0.422072 0
403 1 0.205713 0.446022 0
374 1 0.223568 0.429738 0
375 1 0.242842 0.411091 0
376 1 0.265935 0.418438 0
405 1 0.247302 0.435083 0
404 1 0.22874 0.453428 0
407 1 0.271708 0.442191 0
409 1 0.290831 0.424977 0
410 1 0.29811 0.448017 0
380 1 0.317265 0.431148 0
382 1 0.335022 0.414484 0
383 1 0.360605 0.42148 0
413 1 0.342381 0.439383 0
386 1 0.403305 0.411422 0
384 1 0.38617 0.429191 0
414 1 0.366183 0.447206 0
415 1 0.391723 0.453894 0
417 1 0.40995 0.436602 0
418 1 0.434204 0.44365 0
419 1 0.428078 0.418507 0
390 1 0.451437 0.424687 0
420 1 0.457671 0.450254 0
1262 1 0.493615 0.413842 0
1291 1 0.476307 0.431582 0
393 1 0.0302792 0.461343 0
422 1 0.0117541 0.478407 0
423 1 0.0353472 0.486244 0
394 1 0.0537648 0.469432 0
396 1 0.0781132 0.476782 0
425 1 0.0596079 0.494078 0
397 1 0.0966891 0.459451 0
398 1 0.121697 0.465598 0
427 1 0.103166 0.482687 0
428 1 0.126706 0.48957 0
400 1 0.164297 0.457184 0
429 1 0.146095 0.474389 0
431 1 0.170425 0.481887 0
430 1 0.15132 0.498373 0
402 1 0.187556 0.463715 0
432 1 0.193795 0.489497 0
433 1 0.210974 0.471634 0
434 1 0.216988 0.495886 0
406 1 0.253781 0.459 0
435 1 0.235574 0.478437 0
436 1 0.261165 0.482732 0
408 1 0.279819 0.464734 0
439 1 0.284996 0.489411 0
440 1 0.310861 0.496809 0
441 1 0.305142 0.472888 0
411 1 0.322244 0.455219 0
412 1 0.348007 0.463586 0
442 1 0.329376 0.479338 0
473 1 0.35429 0.48744 0
443 1 0.373597 0.472332 0
445 1 0.397434 0.479251 0
444 1 0.377831 0.496785 0
446 1 0.421401 0.487239 0
416 1 0.415406 0.462323 0
447 1 0.439119 0.4692 0
448 1 0.444947 0.494034 0
449 1 0.463664 0.474458 0
450 1 0.489807 0.479418 0
1321 1 0.482431 0.45516 0
479 1 0.4722 0.498112 0
454 1 0.0245442 0.527182 0
453 1 0.0180075 0.503907 0
424 1 0.0418676 0.510468 0
483 1 0.00644476 0.543351 0
485 1 0.048263 0.535051 0
455 1 0.0661086 0.519155 0
486 1 0.0726874 0.543433 0
456 1 0.0909119 0.525923 0
426 1 0.0834063 0.501116 0
457 1 0.108183 0.507336 0
459 1 0.132627 0.514424 0
458 1 0.115218 0.532949 0
489 1 0.138106 0.540619 0
460 1 0.156201 0.523371 0
461 1 0.175083 0.50707 0
462 1 0.18083 0.530762 0
493 1 0.206284 0.538746 0
463 1 0.199543 0.514632 0
464 1 0.223759 0.52105 0
466 1 0.248067 0.528852 0
465 1 0.241901 0.503333 0
437 1 0.265945 0.505625 0
467 1 0.272306 0.528532 0
468 1 0.295455 0.536884 0
438 1 0.291138 0.512923 0
469 1 0.31456 0.520759 0
470 1 0.337223 0.528625 0
472 1 0.358307 0.51185 0
471 1 0.33515 0.504075 0
503 1 0.360307 0.537087 0
499 1 0.318773 0.544546 0
474 1 0.381429 0.521349 0
475 1 0.401803 0.505046 0
476 1 0.405144 0.530791 0
477 1 0.428148 0.514359 0
507 1 0.428668 0.542182 0
478 1 0.454672 0.516871 0
480 1 0.465883 0.539232 0
1381 1 0.483087 0.521451 0
510 1 0.490195 0.545364 0
1351 1 0.498466 0.502415 0
482 1 0.0118506 0.567606 0
513 1 0.0302375 0.551331 0
514 1 0.0358103 0.575896 0
484 1 0.053607 0.559683 0
515 1 0.0772865 0.56826 0
545 1 0.058995 0.584992 0
487 1 0.0966258 0.549844 0
488 1 0.119359 0.557923 0
517 1 0.100762 0.575005 0
519 1 0.125012 0.581927 0
491 1 0.16224 0.547901 0
490 1 0.143498 0.564464 0
520 1 0.148567 0.589443 0
521 1 0.167699 0.572755 0
492 1 0.187669 0.556208 0
523 1 0.193082 0.581551 0
494 1 0.211482 0.564188 0
495 1 0.230135 0.54739 0
525 1 0.234018 0.575701 0
496 1 0.254266 0.561542 0
526 1 0.256926 0.588157 0
497 1 0.275841 0.551688 0
527 1 0.278606 0.57518 0
498 1 0.298814 0.560913 0
529 1 0.30194 0.585061 0
500 1 0.322139 0.569617 0
501 1 0.341401 0.553127 0
531 1 0.343441 0.579037 0
502 1 0.3642 0.562387 0
505 1 0.383876 0.546035 0
504 1 0.385471 0.572732 0
533 1 0.36495 0.589634 0
506 1 0.405783 0.558229 0
535 1 0.407759 0.585262 0
508 1 0.428472 0.568252 0
509 1 0.448974 0.557045 0
539 1 0.455293 0.581949 0
540 1 0.472288 0.56337 0
1441 1 0.497288 0.568675 0
569 1 0.480129 0.587267 0
512 1 0.017956 0.591932 0
542 1 0.0238916 0.617958 0
543 1 0.0409121 0.600977 0
571 1 0.00376545 0.632916 0
544 1 0.0462379 0.628195 0
546 1 0.0638101 0.611186 0
516 1 0.082901 0.593897 0
547 1 0.0877437 0.619042 0
575 1 0.0690531 0.636409 0
518 1 0.105553 0.601597 0
548 1 0.12909 0.606975 0
577 1 0.112305 0.626885 0
522 1 0.172801 0.596962 0
549 1 0.152554 0.613062 0
551 1 0.175387 0.622033 0
524 1 0.215837 0.591452 0
553 1 0.196437 0.606194 0
552 1 0.197486 0.632034 0
554 1 0.218409 0.618008 0
555 1 0.237929 0.603852 0
556 1 0.240804 0.629306 0
557 1 0.26007 0.613408 0
528 1 0.280403 0.599177 0
559 1 0.303144 0.609527 0
558 1 0.284137 0.625013 0
530 1 0.323562 0.595468 0
561 1 0.325807 0.620036 0
532 1 0.345971 0.60493 0
562 1 0.347869 0.630276 0
563 1 0.367459 0.615387 0
534 1 0.387114 0.599222 0
565 1 0.389882 0.624419 0
536 1 0.409171 0.609637 0
537 1 0.433784 0.593315 0
567 1 0.43136 0.618289 0
568 1 0.453326 0.62747 0
566 1 0.41324 0.635535 0
538 1 0.465488 0.606247 0
570 1 0.490073 0.611691 0
600 1 0.476148 0.631315 0
1501 1 0.499537 0.636167 0
573 1 0.0269494 0.642843 0
603 1 0.0306468 0.667793 0
572 1 0.00765652 0.657995 0
574 1 0.0508094 0.653043 0
604 1 0.0529175 0.679652 0
605 1 0.0738115 0.661697 0
576 1 0.0928102 0.644894 0
607 1 0.0927593 0.677636 0
578 1 0.111435 0.662201 0
579 1 0.131733 0.64672 0
609 1 0.13451 0.672517 0
550 1 0.154619 0.637142 0
581 1 0.177164 0.647039 0
580 1 0.156359 0.661838 0
611 1 0.179718 0.671848 0
583 1 0.219389 0.642821 0
582 1 0.200048 0.656995 0
584 1 0.222867 0.667673 0
587 1 0.264555 0.639461 0
585 1 0.242954 0.653914 0
586 1 0.265952 0.664154 0
615 1 0.245105 0.678791 0
560 1 0.306495 0.634371 0
589 1 0.286895 0.650676 0
588 1 0.289015 0.675389 0
590 1 0.30883 0.660013 0
591 1 0.328648 0.646188 0
593 1 0.351392 0.656871 0
621 1 0.330962 0.67069 0
592 1 0.353999 0.682321 0
564 1 0.371159 0.640697 0
594 1 0.373987 0.666986 0
595 1 0.393112 0.650026 0
625 1 0.397296 0.674825 0
596 1 0.417139 0.659709 0
597 1 0.435409 0.644565 0
598 1 0.441097 0.667486 0
599 1 0.459018 0.650448 0
629 1 0.483072 0.655616 0
628 1 0.465605 0.67411 0
630 1 0.489638 0.679444 0
602 1 0.0103997 0.682456 0
633 1 0.0323667 0.693992 0
632 1 0.0109055 0.70871 0
634 1 0.0325348 0.720709 0
606 1 0.0737247 0.691872 0
635 1 0.0530592 0.706207 0
636 1 0.0751627 0.716609 0
637 1 0.0959849 0.703139 0
608 1 0.115529 0.688166 0
638 1 0.117842 0.714125 0
639 1 0.138303 0.699377 0
640 1 0.140091 0.725279 0
610 1 0.159071 0.686188 0
641 1 0.160615 0.711675 0
612 1 0.181171 0.697243 0
642 1 0.182897 0.722263 0
613 1 0.202198 0.682346 0
614 1 0.22395 0.692448 0
643 1 0.20294 0.708084 0
645 1 0.225794 0.716755 0
617 1 0.267287 0.687918 0
616 1 0.246927 0.70246 0
647 1 0.269169 0.712545 0
619 1 0.311764 0.685372 0
618 1 0.290425 0.699283 0
620 1 0.314707 0.709966 0
649 1 0.292508 0.723785 0
622 1 0.334713 0.696241 0
651 1 0.338268 0.721596 0
653 1 0.358943 0.708274 0
623 1 0.377863 0.691586 0
624 1 0.382729 0.716273 0
626 1 0.40223 0.69927 0
655 1 0.409282 0.722635 0
627 1 0.421415 0.684339 0
657 1 0.446586 0.690951 0
656 1 0.429129 0.708238 0
658 1 0.453767 0.715864 0
659 1 0.472078 0.697552 0
1531 1 0.497294 0.703084 0
660 1 0.477962 0.721009 0
662 1 0.0127055 0.758867 0
663 1 0.0115228 0.734293 0
664 1 0.033475 0.745537 0
694 1 0.0340584 0.770744 0
665 1 0.0548131 0.732347 0
666 1 0.0758745 0.743939 0
695 1 0.0553893 0.758074 0
697 1 0.0782582 0.769023 0
667 1 0.0972006 0.728144 0
669 1 0.119818 0.739408 0
668 1 0.0987116 0.754037 0
699 1 0.12099 0.764599 0
670 1 0.141814 0.751251 0
671 1 0.162467 0.735781 0
672 1 0.163913 0.762164 0
673 1 0.184113 0.747234 0
644 1 0.204838 0.733132 0
674 1 0.207263 0.758485 0
703 1 0.186875 0.772268 0
675 1 0.228362 0.741999 0
646 1 0.248555 0.727886 0
705 1 0.22929 0.768925 0
677 1 0.249738 0.75324 0
648 1 0.270318 0.738339 0
678 1 0.273234 0.763072 0
650 1 0.316046 0.734481 0
679 1 0.293246 0.748719 0
681 1 0.316838 0.758313 0
652 1 0.338685 0.746776 0
683 1 0.359248 0.762498 0
654 1 0.361522 0.735303 0
685 1 0.381876 0.753862 0
715 1 0.4012 0.771289 0
686 1 0.404926 0.746535 0
687 1 0.430541 0.735878 0
717 1 0.423826 0.761076 0
688 1 0.449082 0.76043 0
689 1 0.461552 0.73926 0
690 1 0.487449 0.745085 0
719 1 0.473347 0.765011 0
1591 1 0.497508 0.769233 0
693 1 0.0132793 0.784809 0
692 1 0.0144331 0.809787 0
723 1 0.0354959 0.795584 0
696 1 0.0567984 0.782644 0
725 1 0.0582175 0.807845 0
727 1 0.0792971 0.793332 0
698 1 0.100199 0.779668 0
728 1 0.101304 0.804718 0
729 1 0.123567 0.815561 0
700 1 0.122288 0.791008 0
701 1 0.14316 0.776214 0
702 1 0.166277 0.786406 0
731 1 0.145408 0.801218 0
732 1 0.167385 0.811939 0
704 1 0.210235 0.784372 0
733 1 0.188769 0.797324 0
735 1 0.212488 0.809305 0
706 1 0.233463 0.795322 0
676 1 0.25151 0.77752 0
707 1 0.264146 0.797555 0
680 1 0.31182 0.78157 0
709 1 0.286026 0.786426 0
708 1 0.283418 0.81216 0
710 1 0.307597 0.805011 0
682 1 0.336 0.771902 0
711 1 0.331051 0.796905 0
712 1 0.349678 0.812821 0
713 1 0.354436 0.787954 0
684 1 0.378382 0.778734 0
714 1 0.396618 0.795434 0
743 1 0.372988 0.804226 0
716 1 0.422029 0.785959 0
747 1 0.439983 0.803764 0
746 1 0.416498 0.810804 0
718 1 0.456516 0.785027 0
720 1 0.481341 0.788814 0
749 1 0.465692 0.808146 0
1621 1 0.490736 0.812509 0
722 1 0.0366288 0.819491 0
751 1 0.0180067 0.835612 0
752 1 0.0136498 0.859763 0
753 1 0.0379404 0.850229 0
726 1 0.0802852 0.818592 0
724 1 0.0572311 0.832772 0
755 1 0.081085 0.843959 0
754 1 0.060159 0.859281 0
756 1 0.103137 0.854879 0
757 1 0.101964 0.830594 0
759 1 0.124434 0.841371 0
730 1 0.145373 0.826374 0
760 1 0.147373 0.851459 0
761 1 0.167156 0.836526 0
763 1 0.19025 0.822028 0
734 1 0.210809 0.833861 0
762 1 0.188163 0.846699 0
764 1 0.207807 0.858979 0
737 1 0.259473 0.820654 0
736 1 0.235425 0.824819 0
767 1 0.253418 0.84379 0
765 1 0.230576 0.849935 0
768 1 0.272115 0.860529 0
739 1 0.301915 0.829428 0
738 1 0.277902 0.837029 0
769 1 0.296192 0.852923 0
741 1 0.325796 0.821748 0
740 1 0.320075 0.846054 0
771 1 0.339163 0.862762 0
742 1 0.344513 0.837839 0
773 1 0.364235 0.854399 0
745 1 0.392476 0.820472 0
744 1 0.36915 0.829343 0
774 1 0.388338 0.846113 0
775 1 0.411046 0.834938 0
777 1 0.431937 0.84639 0
748 1 0.448853 0.826578 0
750 1 0.473648 0.83128 0
779 1 0.456481 0.850239 0
780 1 0.480976 0.854326 0
1651 1 0.498267 0.835264 0
783 1 0.032854 0.875182 0
782 1 0.00641882 0.882844 0
813 1 0.0239676 0.89912 0
785 1 0.0823731 0.869213 0
784 1 0.060186 0.884467 0
786 1 0.0844254 0.893939 0
758 1 0.126305 0.865738 0
787 1 0.10607 0.878644 0
788 1 0.129168 0.890288 0
817 1 0.107773 0.902425 0
791 1 0.171082 0.863433 0
789 1 0.15088 0.876679 0
819 1 0.150484 0.902722 0
790 1 0.172265 0.890905 0
792 1 0.196668 0.881737 0
793 1 0.21702 0.899391 0
823 1 0.193003 0.906931 0
795 1 0.224933 0.875626 0
766 1 0.24785 0.86731 0
796 1 0.243489 0.892672 0
797 1 0.267603 0.884533 0
827 1 0.261682 0.908998 0
799 1 0.290549 0.877393 0
798 1 0.286923 0.901813 0
800 1 0.309897 0.894543 0
770 1 0.315069 0.869836 0
801 1 0.33335 0.886261 0
802 1 0.352283 0.904659 0
772 1 0.358258 0.878831 0
803 1 0.381865 0.871548 0
805 1 0.399131 0.888237 0
804 1 0.376298 0.896701 0
776 1 0.410018 0.862967 0
778 1 0.440368 0.869096 0
807 1 0.423189 0.88684 0
808 1 0.448505 0.893362 0
809 1 0.464478 0.873208 0
1681 1 0.489708 0.87691 0
810 1 0.473303 0.896844 0
1711 1 0.497764 0.900697 0
842 1 0.00880667 0.947747 0
843 1 0.0159663 0.924075 0
844 1 0.0325595 0.942047 0
814 1 0.0402217 0.918556 0
815 1 0.0649051 0.909913 0
816 1 0.0819815 0.929968 0
845 1 0.0570203 0.935198 0
846 1 0.0743041 0.953406 0
818 1 0.129574 0.917125 0
847 1 0.106451 0.92623 0
849 1 0.124558 0.942396 0
848 1 0.0982435 0.94912 0
821 1 0.170144 0.917182 0
820 1 0.148828 0.934783 0
851 1 0.16599 0.952825 0
794 1 0.212096 0.922965 0
824 1 0.208506 0.946729 0
822 1 0.18828 0.932389 0
825 1 0.235868 0.915277 0
855 1 0.231775 0.939721 0
826 1 0.255497 0.932034 0
857 1 0.274599 0.949872 0
829 1 0.303565 0.918371 0
828 1 0.279696 0.92521 0
859 1 0.298738 0.944187 0
831 1 0.328088 0.911325 0
830 1 0.322477 0.935576 0
832 1 0.346281 0.92936 0
861 1 0.340114 0.95459 0
863 1 0.363493 0.947222 0
806 1 0.396119 0.914047 0
833 1 0.370457 0.921851 0
834 1 0.38898 0.939468 0
837 1 0.430325 0.91054 0
835 1 0.414528 0.932076 0
838 1 0.440522 0.933452 0
836 1 0.427104 0.953459 0
839 1 0.457901 0.915795 0
840 1 0.481795 0.920323 0
1741 1 0.490042 0.944742 0
869 1 0.465541 0.938853 0
872 1 0.018485 0.990224 0
873 1 0.0260617 0.966315 0
871 1 0.00122542 0.971387 0
874 1 0.0424439 0.984534 0
875 1 0.0505118 0.959779 0
876 1 0.0673633 0.977654 0
7 1 0.0837485 0.995967 0
877 1 0.091038 0.972408 0
878 1 0.108405 0.990449 0
879 1 0.115277 0.966428 0
880 1 0.132089 0.984212 0
850 1 0.141372 0.959961 0
881 1 0.155814 0.980055 0
852 1 0.179568 0.974694 0
882 1 0.171992 0.999141 0
853 1 0.20342 0.970562 0
883 1 0.195726 0.993677 0
884 1 0.220405 0.987309 0
854 1 0.227362 0.963608 0
856 1 0.250154 0.955947 0
885 1 0.244513 0.980808 0
17 1 0.261926 0.998655 0
887 1 0.267573 0.973558 0
860 1 0.316624 0.960689 0
858 1 0.292067 0.967676 0
888 1 0.284959 0.991611 0
889 1 0.308808 0.986216 0
862 1 0.357553 0.97139 0
891 1 0.333615 0.978551 0
892 1 0.351175 0.994952 0
865 1 0.404602 0.958102 0
864 1 0.380996 0.964487 0
893 1 0.375607 0.989769 0
895 1 0.399246 0.982193 0
867 1 0.450404 0.957409 0
866 1 0.43053 0.978383 0
896 1 0.417872 1.00006 0
870 1 0.473491 0.963186 0
1771 1 0.498359 0.968035 0
868 1 0.457053 0.981503 0
899 1 0.48196 0.985947 0
902 1 0.5383 0.019575 0
931 1 0.521358 0.0385604 0
901 1 0.51439 0.0153324 0
904 1 0.562472 0.0248754 0
906 1 0.579484 0.00589912 0
935 1 0.586713 0.0308544 0
933 1 0.545777 0.043304 0
905 1 0.555215 0.00118447 0
908 1 0.602986 0.0123122 0
937 1 0.611488 0.0361612 0
939 1 0.628674 0.0190402 0
938 1 0.635309 0.0426031 0
940 1 0.651792 0.023597 0
971 1 0.676488 0.0296211 0
942 1 0.669342 0.005154 0
943 1 0.693567 0.010038 0
944 1 0.700351 0.0356505 0
945 1 0.716906 0.0183619 0
947 1 0.741342 0.013107 0
948 1 0.758698 0.0309705 0
918 1 0.766033 0.00699992 0
946 1 0.733507 0.0368501 0
919 1 0.789918 0.00101309 0
949 1 0.782826 0.0245369 0
920 1 0.807276 0.0192158 0
979 1 0.799407 0.0436953 0
951 1 0.8312 0.0140058 0
952 1 0.847794 0.0321283 0
922 1 0.854529 0.00845229 0
950 1 0.823624 0.0376678 0
953 1 0.872665 0.0255929 0
955 1 0.896532 0.0204886 0
924 1 0.87906 0.00233827 0
954 1 0.888945 0.0445857 0
926 1 0.921125 0.0147279 0
928 1 0.945707 0.00948994 0
957 1 0.938736 0.0338994 0
956 1 0.913999 0.0387049 0
930 1 0.987153 0.0204804 0
959 1 0.961693 0.027903 0
929 1 0.970595 0.00247309 0
932 1 0.5297 0.0632288 0
962 1 0.537615 0.0869818 0
961 1 0.512952 0.0811525 0
60 1 0.505524 0.0576453 0
934 1 0.569585 0.0503479 0
963 1 0.554481 0.0680115 0
965 1 0.57853 0.0749627 0
936 1 0.594199 0.0551023 0
966 1 0.602177 0.0793119 0
967 1 0.618975 0.0607684 0
968 1 0.626953 0.0848413 0
970 1 0.659282 0.0476293 0
969 1 0.643913 0.0666957 0
972 1 0.66741 0.0731453 0
973 1 0.682662 0.0547278 0
975 1 0.706011 0.0600319 0
1003 1 0.690682 0.0796257 0
1004 1 0.716642 0.0830384 0
974 1 0.729797 0.0616622 0
976 1 0.752092 0.0548174 0
1005 1 0.742365 0.0823471 0
1007 1 0.768345 0.07348 0
977 1 0.775664 0.0484466 0
978 1 0.792149 0.0677461 0
1009 1 0.809372 0.0853541 0
980 1 0.816801 0.0614427 0
981 1 0.84031 0.0564989 0
1011 1 0.832871 0.0800103 0
982 1 0.857968 0.0748553 0
983 1 0.864319 0.0504945 0
984 1 0.882118 0.0689083 0
1015 1 0.899233 0.0873606 0
985 1 0.906154 0.0623606 0
986 1 0.923563 0.0810394 0
987 1 0.93091 0.0578658 0
988 1 0.947853 0.07574 0
960 1 0.98001 0.0452554 0
958 1 0.955224 0.0523379 0
989 1 0.972475 0.0697596 0
990 1 0.989492 0.0884042 0
61 1 0.996287 0.0635969 0
991 1 0.519753 0.104818 0
992 1 0.528173 0.128734 0
120 1 0.503496 0.123059 0
993 1 0.544391 0.110604 0
964 1 0.561191 0.0931769 0
994 1 0.569292 0.116556 0
995 1 0.585987 0.0983896 0
1023 1 0.552341 0.134232 0
996 1 0.593437 0.122862 0
997 1 0.61044 0.104519 0
1027 1 0.618754 0.128849 0
998 1 0.634495 0.109283 0
999 1 0.651533 0.091515 0
1000 1 0.658568 0.115545 0
1001 1 0.674948 0.0983809 0
1029 1 0.642093 0.13341 0
1031 1 0.683797 0.121208 0
1002 1 0.699924 0.102862 0
1033 1 0.708061 0.127678 0
1006 1 0.761197 0.0974505 0
1035 1 0.731715 0.105328 0
1036 1 0.752655 0.120988 0
1034 1 0.732431 0.132197 0
1037 1 0.777486 0.115338 0
1008 1 0.785312 0.0914694 0
1039 1 0.801889 0.10965 0
1038 1 0.793452 0.133344 0
1040 1 0.818067 0.127898 0
1010 1 0.825246 0.104263 0
1012 1 0.850331 0.098388 0
1041 1 0.842403 0.121915 0
1043 1 0.867329 0.116623 0
1013 1 0.874565 0.093191 0
1014 1 0.892028 0.111141 0
1044 1 0.884491 0.13608 0
1016 1 0.908939 0.129426 0
1017 1 0.916249 0.105514 0
1018 1 0.940384 0.0991595 0
1047 1 0.932934 0.123429 0
1019 1 0.964293 0.0934537 0
1020 1 0.982151 0.112227 0
1049 1 0.957539 0.118277 0
121 1 0.999655 0.129985 0
1050 1 0.974093 0.135261 0
1022 1 0.535557 0.152281 0
1053 1 0.541561 0.176509 0
1051 1 0.517066 0.172303 0
1021 1 0.510887 0.148255 0
1025 1 0.577278 0.141432 0
1024 1 0.55897 0.158574 0
1055 1 0.584676 0.165112 0
1054 1 0.566284 0.182454 0
1026 1 0.602614 0.146688 0
1028 1 0.626483 0.153525 0
1057 1 0.609093 0.170495 0
1058 1 0.633177 0.177462 0
1059 1 0.650015 0.158704 0
1030 1 0.6668 0.139533 0
1061 1 0.674381 0.164615 0
1032 1 0.690377 0.144933 0
1063 1 0.714858 0.151286 0
1062 1 0.698302 0.170142 0
1064 1 0.722525 0.17445 0
1065 1 0.739602 0.157304 0
1066 1 0.763669 0.163718 0
1067 1 0.769846 0.139365 0
1095 1 0.747714 0.181495 0
1068 1 0.786685 0.157425 0
1069 1 0.810558 0.151733 0
1099 1 0.803322 0.176291 0
1071 1 0.834893 0.146986 0
1070 1 0.827518 0.170509 0
1072 1 0.85266 0.164786 0
1042 1 0.86053 0.140521 0
1073 1 0.876846 0.159388 0
1045 1 0.90138 0.153584 0
1074 1 0.892995 0.177495 0
1075 1 0.917765 0.171232 0
1046 1 0.925186 0.148016 0
1077 1 0.942754 0.165078 0
1048 1 0.950205 0.14194 0
1079 1 0.967335 0.158788 0
151 1 0.991413 0.153143 0
1080 1 0.982962 0.176863 0
1052 1 0.523766 0.19518 0
1082 1 0.530758 0.219144 0
1081 1 0.506716 0.214214 0
180 1 0.499325 0.190103 0
1083 1 0.548179 0.199919 0
1085 1 0.572757 0.205505 0
1084 1 0.555283 0.224197 0
1056 1 0.591007 0.188366 0
1086 1 0.597902 0.212117 0
1087 1 0.615822 0.194464 0
1088 1 0.622117 0.218724 0
1060 1 0.658125 0.183149 0
1089 1 0.640805 0.200945 0
1090 1 0.665503 0.207555 0
1119 1 0.647278 0.22435 0
1091 1 0.681912 0.188599 0
1092 1 0.690005 0.213447 0
1093 1 0.707137 0.193458 0
1123 1 0.715409 0.217524 0
1094 1 0.731742 0.199274 0
1096 1 0.758223 0.203302 0
1125 1 0.740193 0.221862 0
1127 1 0.782678 0.210692 0
1097 1 0.77661 0.184652 0
1098 1 0.807006 0.216372 0
1100 1 0.820551 0.194852 0
1101 1 0.844536 0.189292 0
1129 1 0.83686 0.21422 0
1102 1 0.861075 0.207431 0
1103 1 0.868439 0.1829 0
1104 1 0.884665 0.200613 0
1133 1 0.901015 0.219308 0
1105 1 0.908672 0.196562 0
1076 1 0.93332 0.189416 0
1135 1 0.92516 0.215467 0
1107 1 0.950206 0.20741 0
1078 1 0.958209 0.184587 0
1109 1 0.975746 0.20051 0
1110 1 0.992785 0.219634 0
1108 1 0.968227 0.225609 0
1111 1 0.514037 0.237479 0
1113 1 0.538062 0.242831 0
1112 1 0.520103 0.261867 0
1143 1 0.54484 0.267324 0
1114 1 0.5631 0.248167 0
1115 1 0.581614 0.230092 0
1116 1 0.588023 0.254345 0
1145 1 0.569984 0.27243 0
1117 1 0.605775 0.23637 0
1118 1 0.630587 0.242438 0
1147 1 0.613504 0.260048 0
1149 1 0.637423 0.266766 0
1121 1 0.671936 0.230912 0
1120 1 0.654474 0.248197 0
1151 1 0.679754 0.25442 0
1150 1 0.662741 0.2725 0
1122 1 0.69811 0.2367 0
1124 1 0.722697 0.241212 0
1153 1 0.704068 0.26091 0
1126 1 0.764836 0.230025 0
1154 1 0.728394 0.265517 0
1155 1 0.746493 0.247344 0
1157 1 0.772081 0.253242 0
1156 1 0.753821 0.270677 0
1128 1 0.790209 0.234429 0
1159 1 0.814045 0.240412 0
1158 1 0.79641 0.258519 0
1160 1 0.82185 0.265129 0
1131 1 0.859894 0.231633 0
1130 1 0.839691 0.246423 0
1191 1 0.846616 0.272014 0
1161 1 0.865194 0.254431 0
1132 1 0.88482 0.238021 0