ITEM: TIMESTEP
182000
ITEM: NUMBER OF ATOMS
1800
ITEM: BOX BOUNDS pp pp pp
1.0379379271469986e+00 1.6396206207285417e+02
1.0379379271469986e+00 1.6396206207285417e+02
0.0000000000000000e+00 5.5000000000000000e+00
ITEM: ATOMS id type xs ys zs
33 1 0.0270008 0.0198996 0
31 1 0.00287307 0.023685 0
34 1 0.0421456 0.0391875 0
32 1 0.0189898 0.0437313 0
4 1 0.0507082 0.0157819 0
5 1 0.0764132 0.010972 0
35 1 0.0660619 0.0351624 0
6 1 0.0896739 0.0326409 0
8 1 0.108597 0.0194256 0
39 1 0.130441 0.0311623 0
9 1 0.127211 0.00515765 0
10 1 0.150238 0.015672 0
41 1 0.173513 0.0264355 0
40 1 0.15357 0.0413807 0
11 1 0.17022 0.00103228 0
12 1 0.192721 0.0116644 0
43 1 0.19587 0.0364653 0
14 1 0.215703 0.0217879 0
15 1 0.236373 0.00579645 0
45 1 0.238288 0.0307536 0
16 1 0.259783 0.0155086 0
46 1 0.259815 0.0403615 0
18 1 0.282862 0.0247737 0
49 1 0.306974 0.0339324 0
20 1 0.303717 0.00935605 0
51 1 0.329256 0.0189678 0
22 1 0.354954 0.0257611 0
52 1 0.33972 0.0441233 0
21 1 0.347599 0.00128755 0
23 1 0.372293 0.00608734 0
24 1 0.380795 0.0315256 0
55 1 0.405981 0.0363686 0
894 1 0.396834 0.0122524 0
25 1 0.422253 0.0183702 0
26 1 0.430423 0.0422133 0
27 1 0.447718 0.0246186 0
897 1 0.439901 0.000584347 0
30 1 0.496867 0.0357532 0
29 1 0.473293 0.0291021 0
900 1 0.490793 0.0107135 0
898 1 0.464852 0.00691946 0
62 1 0.0111414 0.0671278 0
63 1 0.036473 0.0640004 0
93 1 0.029826 0.08747 0
36 1 0.0872813 0.0563791 0
65 1 0.0622261 0.0598424 0
66 1 0.0802639 0.0788791 0
64 1 0.0540202 0.0835304 0
37 1 0.109995 0.0464276 0
38 1 0.109899 0.0704854 0
69 1 0.132044 0.0560537 0
68 1 0.135569 0.0807337 0
71 1 0.15488 0.0661735 0
42 1 0.175567 0.0512004 0
72 1 0.176843 0.0767138 0
44 1 0.217764 0.0464265 0
73 1 0.197899 0.0621832 0
74 1 0.219946 0.0713225 0
103 1 0.200606 0.0870241 0
75 1 0.239906 0.055606 0
77 1 0.262274 0.0665721 0
76 1 0.243134 0.0819761 0
47 1 0.281337 0.0497337 0
48 1 0.285203 0.0743513 0
79 1 0.308829 0.0822429 0
50 1 0.30318 0.0583368 0
81 1 0.326101 0.0646461 0
82 1 0.349669 0.0684922 0
80 1 0.332354 0.0886523 0
53 1 0.364657 0.0487765 0
83 1 0.373424 0.0732361 0
54 1 0.389746 0.0541669 0
84 1 0.397094 0.0784849 0
57 1 0.438046 0.0655044 0
56 1 0.413709 0.0603902 0
85 1 0.421237 0.0844433 0
87 1 0.446629 0.0902418 0
28 1 0.455848 0.048068 0
59 1 0.479907 0.0536389 0
58 1 0.462573 0.0711698 0
89 1 0.487316 0.0779007 0
92 1 0.0221862 0.11175 0
91 1 0.0045786 0.0910771 0
123 1 0.0387505 0.130471 0
122 1 0.0145918 0.13484 0
94 1 0.0467045 0.10729 0
95 1 0.0706588 0.102511 0
96 1 0.0873413 0.123672 0
125 1 0.0631395 0.12669 0
97 1 0.0937024 0.100068 0
67 1 0.11646 0.0943549 0
98 1 0.112946 0.118974 0
70 1 0.157494 0.0924129 0
99 1 0.136215 0.10773 0
129 1 0.139057 0.133158 0
100 1 0.159409 0.11819 0
101 1 0.180753 0.103122 0
131 1 0.183825 0.127645 0
102 1 0.203907 0.111981 0
105 1 0.222613 0.0964045 0
104 1 0.226472 0.121687 0
107 1 0.266512 0.0909254 0
106 1 0.24644 0.10638 0
135 1 0.24946 0.130984 0
137 1 0.269815 0.116182 0
78 1 0.289642 0.0985533 0
108 1 0.293066 0.123126 0
109 1 0.31284 0.106259 0
139 1 0.317095 0.130395 0
111 1 0.356111 0.0926179 0
110 1 0.337894 0.113068 0
141 1 0.362867 0.116621 0
113 1 0.379723 0.0970571 0
112 1 0.404044 0.102921 0
143 1 0.386676 0.120769 0
115 1 0.413801 0.126365 0
86 1 0.42963 0.107798 0
116 1 0.438341 0.131332 0
117 1 0.454692 0.11354 0
88 1 0.471392 0.0958155 0
90 1 0.497057 0.101701 0
119 1 0.479486 0.119299 0
153 1 0.0309254 0.154129 0
152 1 0.0057547 0.158186 0
183 1 0.0223774 0.177306 0
154 1 0.0471404 0.173403 0
124 1 0.0554095 0.150881 0
126 1 0.0801161 0.146914 0
155 1 0.072268 0.170517 0
127 1 0.10431 0.14217 0
128 1 0.120792 0.160496 0
157 1 0.0963299 0.165022 0
159 1 0.144776 0.159724 0
130 1 0.16439 0.144027 0
161 1 0.168059 0.169281 0
133 1 0.206154 0.137524 0
132 1 0.188025 0.153389 0
163 1 0.211952 0.163454 0
162 1 0.190789 0.179058 0
134 1 0.229043 0.147061 0
164 1 0.234768 0.172062 0
165 1 0.254448 0.15628 0
166 1 0.25795 0.181121 0
136 1 0.27362 0.140414 0
167 1 0.277552 0.165651 0
138 1 0.297497 0.147858 0
168 1 0.301105 0.172195 0
169 1 0.320669 0.155117 0
140 1 0.343649 0.136861 0
171 1 0.343977 0.164261 0
170 1 0.324586 0.180831 0
172 1 0.364721 0.177224 0
142 1 0.369443 0.139921 0
114 1 0.397235 0.144011 0
144 1 0.405239 0.167228 0
173 1 0.38084 0.160789 0
145 1 0.421952 0.149756 0
146 1 0.429151 0.173825 0
147 1 0.445872 0.155634 0
177 1 0.452961 0.180539 0
118 1 0.462229 0.137266 0
149 1 0.486674 0.143885 0
148 1 0.46925 0.161711 0
150 1 0.494123 0.168187 0
182 1 0.0135729 0.200374 0
184 1 0.0392452 0.19766 0
213 1 0.0307804 0.220564 0
212 1 0.00646446 0.223949 0
185 1 0.0638606 0.193107 0
156 1 0.088117 0.189172 0
186 1 0.0797661 0.212381 0
215 1 0.0552646 0.216946 0
158 1 0.11228 0.184537 0
189 1 0.12876 0.202717 0
187 1 0.105157 0.209032 0
160 1 0.148127 0.185588 0
191 1 0.172062 0.194501 0
190 1 0.152043 0.210384 0
221 1 0.176323 0.219331 0
193 1 0.21645 0.187624 0
192 1 0.195823 0.203712 0
194 1 0.219489 0.212228 0
195 1 0.239689 0.197344 0
196 1 0.262858 0.2061 0
225 1 0.243928 0.220849 0
197 1 0.281277 0.188989 0
199 1 0.305095 0.197244 0
198 1 0.286728 0.21478 0
229 1 0.310044 0.223402 0
201 1 0.346325 0.191662 0
200 1 0.327811 0.207396 0
202 1 0.351792 0.215948 0
174 1 0.388364 0.184946 0
203 1 0.369901 0.20083 0
233 1 0.374843 0.225136 0
204 1 0.393972 0.208459 0
175 1 0.411949 0.191209 0
205 1 0.416999 0.215301 0
176 1 0.434533 0.198281 0
207 1 0.441289 0.221994 0
179 1 0.476546 0.186121 0
178 1 0.458902 0.204017 0
209 1 0.48296 0.2105 0
243 1 0.0224578 0.243565 0
244 1 0.0382417 0.265831 0
242 1 0.0134827 0.266495 0
214 1 0.0467062 0.240949 0
216 1 0.0708232 0.23717 0
245 1 0.0630105 0.261833 0
247 1 0.0872634 0.257298 0
188 1 0.133303 0.227758 0
217 1 0.0949739 0.231713 0
218 1 0.114486 0.24545 0
249 1 0.121409 0.269931 0
219 1 0.139563 0.252278 0
220 1 0.157306 0.234762 0
251 1 0.163985 0.260951 0
222 1 0.181384 0.243924 0
223 1 0.200163 0.227917 0
224 1 0.224461 0.236394 0
253 1 0.206372 0.252814 0
252 1 0.18736 0.269405 0
255 1 0.231265 0.261511 0
227 1 0.268317 0.230533 0
226 1 0.248261 0.244855 0
256 1 0.254326 0.270146 0
257 1 0.272839 0.255282 0
228 1 0.292231 0.239398 0
230 1 0.315251 0.248572 0
259 1 0.296097 0.264321 0
231 1 0.333535 0.232532 0
232 1 0.356653 0.241268 0
261 1 0.338723 0.25685 0
263 1 0.362987 0.264583 0
235 1 0.399828 0.232065 0
234 1 0.382243 0.248395 0
265 1 0.40577 0.256769 0
206 1 0.423746 0.238089 0
236 1 0.430025 0.262908 0
237 1 0.448801 0.245834 0
238 1 0.454115 0.270555 0
208 1 0.465645 0.227884 0
210 1 0.489705 0.23497 0
239 1 0.471927 0.252888 0
240 1 0.494752 0.260558 0
273 1 0.033443 0.292278 0
1170 1 0.0065597 0.291268 0
271 1 0.0185378 0.31434 0
272 1 0.0437564 0.317342 0
246 1 0.0786343 0.281652 0
275 1 0.0599994 0.299141 0
276 1 0.0856571 0.305614 0
248 1 0.103888 0.286229 0
277 1 0.108883 0.311467 0
279 1 0.127688 0.293844 0
278 1 0.133434 0.318223 0
250 1 0.145448 0.27718 0
280 1 0.151935 0.302498 0
281 1 0.169712 0.285594 0
282 1 0.176819 0.309908 0
254 1 0.212773 0.277723 0
283 1 0.193767 0.292463 0
284 1 0.217248 0.303561 0
313 1 0.198563 0.318636 0
285 1 0.23483 0.286684 0
287 1 0.258336 0.296149 0
286 1 0.239514 0.312415 0
258 1 0.277141 0.280276 0
288 1 0.281118 0.304295 0
289 1 0.30013 0.288491 0
290 1 0.305441 0.312695 0
260 1 0.319467 0.273043 0
262 1 0.344303 0.280285 0
291 1 0.325244 0.297653 0
292 1 0.348429 0.306008 0
264 1 0.386848 0.273347 0
293 1 0.367235 0.289629 0
295 1 0.392052 0.297976 0
294 1 0.372933 0.314211 0
266 1 0.410593 0.280658 0
267 1 0.435378 0.287852 0
297 1 0.416268 0.30462 0
298 1 0.440759 0.311877 0
268 1 0.459403 0.29531 0
269 1 0.477668 0.278542 0
270 1 0.483432 0.302815 0
301 1 0.0274204 0.339654 0
1230 1 0.0100154 0.358579 0
1200 1 0.00338797 0.334868 0
302 1 0.0343404 0.363563 0
303 1 0.0513347 0.3429 0
274 1 0.0676589 0.323499 0
304 1 0.0751119 0.349035 0
305 1 0.0923548 0.329973 0
306 1 0.0989373 0.354609 0
307 1 0.116094 0.336027 0
308 1 0.122375 0.360094 0
309 1 0.140876 0.343043 0
311 1 0.158142 0.326463 0
310 1 0.16467 0.352387 0
312 1 0.181859 0.335919 0
314 1 0.202169 0.349567 0
315 1 0.220581 0.329136 0
345 1 0.226606 0.354481 0
317 1 0.262645 0.320708 0
316 1 0.243947 0.337084 0
318 1 0.268612 0.345857 0
319 1 0.286815 0.329085 0
320 1 0.308979 0.359912 0
321 1 0.310462 0.336464 0
323 1 0.329591 0.322217 0
322 1 0.332682 0.348583 0
324 1 0.353285 0.331516 0
296 1 0.39788 0.321808 0
325 1 0.37857 0.338016 0
355 1 0.376766 0.361664 0
326 1 0.400434 0.35352 0
327 1 0.421765 0.327988 0
328 1 0.426046 0.351851 0
329 1 0.446367 0.338096 0
359 1 0.447545 0.363582 0
299 1 0.464273 0.321165 0
300 1 0.488227 0.327781 0
1201 1 0.494498 0.352038 0
330 1 0.470978 0.346956 0
332 1 0.0420829 0.386804 0
331 1 0.0178465 0.382113 0
361 1 0.0254153 0.405487 0
1290 1 0.000432076 0.400586 0
333 1 0.0588641 0.367551 0
335 1 0.083076 0.37244 0
334 1 0.0653706 0.391139 0
336 1 0.0900152 0.397082 0
337 1 0.107303 0.378969 0
338 1 0.131112 0.385322 0
367 1 0.114563 0.403159 0
339 1 0.145989 0.366838 0
341 1 0.155974 0.389427 0
369 1 0.13958 0.408072 0
342 1 0.181963 0.39453 0
343 1 0.184184 0.369434 0
344 1 0.20956 0.374238 0
373 1 0.205767 0.399173 0
375 1 0.230262 0.402894 0
347 1 0.259333 0.370279 0
346 1 0.234037 0.378967 0
377 1 0.254453 0.395007 0
349 1 0.284131 0.364146 0
348 1 0.278068 0.388283 0
350 1 0.303046 0.382693 0
379 1 0.297192 0.406411 0
353 1 0.351575 0.367281 0
381 1 0.321333 0.398866 0
351 1 0.327945 0.374484 0
352 1 0.345484 0.392252 0
354 1 0.369701 0.38606 0
385 1 0.387136 0.404053 0
356 1 0.393205 0.379234 0
387 1 0.410409 0.397646 0
357 1 0.418213 0.374669 0
358 1 0.439761 0.387411 0
389 1 0.456034 0.406334 0
1231 1 0.487859 0.376336 0
360 1 0.463947 0.382155 0
1232 1 0.481513 0.400838 0
362 1 0.0322893 0.429451 0
392 1 0.0164312 0.448652 0
391 1 0.00844339 0.424418 0
393 1 0.041812 0.452983 0
363 1 0.0493313 0.410365 0
364 1 0.0570763 0.434021 0
365 1 0.0733487 0.415016 0
395 1 0.0808203 0.439391 0
366 1 0.0973759 0.420859 0
397 1 0.106037 0.443611 0
368 1 0.123061 0.425863 0
399 1 0.130799 0.449392 0
340 1 0.164893 0.413604 0
370 1 0.147952 0.432035 0
401 1 0.172639 0.437588 0
371 1 0.189365 0.418521 0
372 1 0.196438 0.442781 0
403 1 0.22002 0.447649 0
374 1 0.213775 0.423204 0
376 1 0.24919 0.419348 0
405 1 0.243803 0.44402 0
407 1 0.267021 0.43634 0
378 1 0.273068 0.41253 0
409 1 0.290421 0.431148 0
410 1 0.309431 0.446891 0
380 1 0.315835 0.421878 0
382 1 0.339479 0.416078 0
411 1 0.33261 0.440562 0
413 1 0.357005 0.4341 0
383 1 0.363196 0.409698 0
384 1 0.380595 0.42799 0
414 1 0.37409 0.450966 0
415 1 0.399129 0.445152 0
386 1 0.404742 0.421895 0
388 1 0.429844 0.414076 0
417 1 0.423486 0.438085 0
419 1 0.448612 0.430976 0
1291 1 0.492791 0.442383 0
1261 1 0.475646 0.424487 0
390 1 0.467863 0.448067 0
421 1 0.000439468 0.467595 0
451 1 0.00867496 0.490144 0
422 1 0.0247939 0.472443 0
453 1 0.0321821 0.495448 0
423 1 0.0488798 0.477812 0
394 1 0.0652184 0.45953 0
425 1 0.0735501 0.483933 0
396 1 0.0892602 0.462634 0
398 1 0.113551 0.467365 0
427 1 0.0971741 0.485227 0
428 1 0.121319 0.49128 0
400 1 0.15544 0.456165 0
429 1 0.137959 0.473589 0
431 1 0.162205 0.480057 0
430 1 0.146056 0.497581 0
402 1 0.179515 0.461485 0
432 1 0.186068 0.485473 0
433 1 0.205422 0.468675 0
434 1 0.208501 0.493819 0
406 1 0.261646 0.461481 0
404 1 0.236606 0.466857 0
435 1 0.231463 0.492027 0
436 1 0.255192 0.484323 0
408 1 0.285479 0.454894 0
437 1 0.27891 0.479037 0
438 1 0.296258 0.496139 0
439 1 0.302829 0.472289 0
473 1 0.363209 0.499582 0
440 1 0.320084 0.488557 0
412 1 0.350585 0.458327 0
441 1 0.326252 0.464796 0
442 1 0.344546 0.482709 0
443 1 0.369107 0.475148 0
445 1 0.392523 0.468651 0
444 1 0.387403 0.493513 0
418 1 0.441779 0.455541 0
447 1 0.436377 0.479278 0
446 1 0.411358 0.486706 0
416 1 0.417463 0.462649 0
420 1 0.4606 0.473261 0
449 1 0.455124 0.496474 0
450 1 0.479696 0.489582 0
1321 1 0.485486 0.465903 0
452 1 0.0160454 0.513638 0
483 1 0.023344 0.538599 0
454 1 0.0409132 0.519929 0
455 1 0.0650893 0.528752 0
426 1 0.0790242 0.50891 0
456 1 0.0887227 0.542039 0
424 1 0.0558534 0.501029 0
458 1 0.110117 0.530404 0
459 1 0.127678 0.514175 0
457 1 0.103262 0.507922 0
489 1 0.131822 0.538864 0
460 1 0.151217 0.5221 0
462 1 0.173913 0.529676 0
461 1 0.168989 0.504555 0
463 1 0.193587 0.51299 0
495 1 0.220837 0.540716 0
464 1 0.223154 0.515548 0
493 1 0.196944 0.538278 0
466 1 0.243746 0.53415 0
497 1 0.266787 0.528233 0
465 1 0.248838 0.509249 0
467 1 0.272136 0.504069 0
468 1 0.289356 0.521226 0
499 1 0.30881 0.537967 0
469 1 0.313549 0.514457 0
498 1 0.284439 0.544426 0
470 1 0.332359 0.531392 0
472 1 0.356223 0.523356 0
471 1 0.337863 0.507009 0
503 1 0.374085 0.541403 0
474 1 0.380844 0.517256 0
475 1 0.40528 0.511369 0
476 1 0.398867 0.535553 0
477 1 0.423345 0.528631 0
478 1 0.447639 0.521519 0
448 1 0.428764 0.504225 0
480 1 0.465888 0.539187 0
479 1 0.472396 0.514931 0
1381 1 0.489903 0.532045 0
1351 1 0.49727 0.506621 0
482 1 0.00537007 0.555176 0
513 1 0.0280635 0.563382 0
541 1 0.00849673 0.579661 0
512 1 0.0305294 0.588522 0
485 1 0.0468789 0.54721 0
486 1 0.0692731 0.557034 0
484 1 0.0505468 0.572387 0
515 1 0.0722655 0.583089 0
487 1 0.0914666 0.567598 0
488 1 0.111621 0.554322 0
519 1 0.115259 0.578191 0
490 1 0.135364 0.563013 0
491 1 0.155382 0.54636 0
520 1 0.139338 0.587213 0
521 1 0.15917 0.571405 0
492 1 0.178352 0.55521 0
523 1 0.183058 0.580664 0
494 1 0.209175 0.562991 0
524 1 0.205483 0.589217 0
525 1 0.229743 0.582143 0
496 1 0.236635 0.558965 0
526 1 0.254763 0.576532 0
527 1 0.260284 0.552692 0
528 1 0.279002 0.568838 0
529 1 0.302961 0.5615 0
559 1 0.296997 0.586387 0
501 1 0.350382 0.548525 0
530 1 0.3206 0.579191 0
500 1 0.326684 0.555318 0
531 1 0.344582 0.572266 0
502 1 0.368525 0.566171 0
505 1 0.391898 0.558613 0
504 1 0.385621 0.584673 0
535 1 0.409066 0.577327 0
507 1 0.441714 0.54561 0
506 1 0.416421 0.553102 0
508 1 0.433698 0.570634 0
539 1 0.451751 0.587556 0
509 1 0.458221 0.563323 0
510 1 0.482683 0.556518 0
540 1 0.476601 0.580179 0
542 1 0.0109539 0.604864 0
571 1 0.012516 0.629615 0
543 1 0.0338451 0.613679 0
514 1 0.0531467 0.597533 0
516 1 0.0768897 0.607386 0
545 1 0.0574928 0.62221 0
546 1 0.0801725 0.63316 0
517 1 0.0959634 0.592321 0
518 1 0.119765 0.602576 0
547 1 0.0996091 0.618249 0
548 1 0.122978 0.627135 0
522 1 0.162338 0.595893 0
549 1 0.142374 0.611607 0
551 1 0.165106 0.620916 0
553 1 0.184949 0.604847 0
552 1 0.187632 0.632262 0
554 1 0.205189 0.616642 0
555 1 0.226075 0.605672 0
556 1 0.242287 0.62457 0
557 1 0.249799 0.601083 0
587 1 0.268261 0.618243 0
558 1 0.273096 0.593636 0
560 1 0.291051 0.610747 0
591 1 0.308707 0.629321 0
561 1 0.31416 0.603656 0
589 1 0.285068 0.636074 0
533 1 0.361219 0.591071 0
532 1 0.337238 0.597607 0
562 1 0.333136 0.622544 0
563 1 0.356839 0.615381 0
534 1 0.380174 0.608202 0
565 1 0.374305 0.632005 0
536 1 0.404037 0.600877 0
566 1 0.398014 0.625935 0
537 1 0.427674 0.594255 0
567 1 0.421431 0.618695 0
538 1 0.445944 0.612363 0
597 1 0.438586 0.636235 0
568 1 0.462931 0.629303 0
569 1 0.470054 0.605256 0
570 1 0.487406 0.62302 0
1441 1 0.492655 0.598263 0
544 1 0.0371074 0.638159 0
573 1 0.0177618 0.654588 0
574 1 0.0399634 0.664213 0
603 1 0.0213314 0.679368 0
575 1 0.0597765 0.647528 0
605 1 0.0634758 0.673525 0
576 1 0.0830767 0.658581 0
577 1 0.103517 0.642449 0
578 1 0.10644 0.668642 0
579 1 0.126082 0.65268 0
609 1 0.129627 0.677725 0
550 1 0.145767 0.637509 0
581 1 0.168058 0.646844 0
580 1 0.149369 0.66328 0
611 1 0.172165 0.673187 0
583 1 0.213228 0.640753 0
582 1 0.190455 0.656216 0
584 1 0.213519 0.665331 0
585 1 0.236309 0.651211 0
586 1 0.260343 0.642829 0
615 1 0.234381 0.676309 0
617 1 0.256363 0.666734 0
588 1 0.279262 0.659995 0
590 1 0.303293 0.652568 0
619 1 0.297886 0.677831 0
564 1 0.350971 0.638811 0
593 1 0.327117 0.646321 0
621 1 0.320836 0.669863 0
592 1 0.34533 0.66298 0
594 1 0.368362 0.656226 0
595 1 0.391783 0.649847 0
625 1 0.385668 0.674965 0
627 1 0.409377 0.667644 0
596 1 0.415413 0.643766 0
598 1 0.433044 0.659955 0
628 1 0.44995 0.678006 0
599 1 0.456447 0.654325 0
600 1 0.479456 0.647244 0
629 1 0.474076 0.672138 0
1501 1 0.497245 0.664359 0
633 1 0.0242083 0.704103 0
632 1 0.00167015 0.718981 0
604 1 0.0439216 0.688962 0
602 1 0.00205555 0.694176 0
607 1 0.0862929 0.682764 0
635 1 0.0466029 0.713543 0
606 1 0.0665186 0.698165 0
636 1 0.069377 0.723952 0
637 1 0.0892257 0.709302 0
608 1 0.108663 0.693176 0
638 1 0.111759 0.718073 0
639 1 0.131716 0.703055 0
610 1 0.151521 0.688281 0
641 1 0.15441 0.713673 0
612 1 0.174309 0.697272 0
642 1 0.176619 0.72301 0
613 1 0.194923 0.681857 0
614 1 0.21749 0.692971 0
643 1 0.197067 0.708042 0
645 1 0.219263 0.718507 0
616 1 0.251518 0.691738 0
646 1 0.243207 0.714286 0
647 1 0.267501 0.709239 0
618 1 0.274288 0.68468 0
649 1 0.291216 0.702773 0
650 1 0.308957 0.719556 0
620 1 0.315139 0.695032 0
648 1 0.284942 0.726865 0
623 1 0.362081 0.681057 0
622 1 0.338341 0.688251 0
651 1 0.332214 0.712434 0
653 1 0.356029 0.705812 0
624 1 0.380234 0.69928 0
655 1 0.397603 0.717224 0
654 1 0.374033 0.723121 0
626 1 0.403609 0.691854 0
657 1 0.426651 0.685801 0
656 1 0.421197 0.710134 0
658 1 0.444063 0.70339 0
630 1 0.491125 0.6886 0
659 1 0.46724 0.695944 0
660 1 0.486355 0.71288 0
689 1 0.462363 0.720027 0
634 1 0.0267765 0.728081 0
662 1 0.0110838 0.767422 0
663 1 0.00802906 0.742743 0
664 1 0.0308023 0.752676 0
665 1 0.0492361 0.738538 0
666 1 0.0724235 0.748878 0
695 1 0.0532744 0.76375 0
640 1 0.134566 0.728176 0
667 1 0.0922882 0.733675 0
669 1 0.114591 0.74342 0
668 1 0.0954112 0.758927 0
699 1 0.117294 0.768464 0
670 1 0.137454 0.753337 0
671 1 0.157386 0.738805 0
672 1 0.160347 0.76298 0
673 1 0.18047 0.748419 0
644 1 0.199684 0.732643 0
674 1 0.204576 0.756691 0
675 1 0.225912 0.742495 0
705 1 0.228632 0.766832 0
677 1 0.260256 0.733384 0
676 1 0.253518 0.757196 0
679 1 0.30199 0.744723 0
678 1 0.277444 0.751241 0
709 1 0.296211 0.769002 0
680 1 0.320259 0.762159 0
652 1 0.350774 0.729595 0
681 1 0.32669 0.737629 0
682 1 0.345476 0.755318 0
683 1 0.368364 0.748107 0
685 1 0.392192 0.741123 0
684 1 0.387059 0.76576 0
687 1 0.438896 0.728301 0
715 1 0.410076 0.758496 0
686 1 0.415461 0.734512 0
717 1 0.433353 0.752326 0
718 1 0.452246 0.768864 0
688 1 0.457264 0.744693 0
690 1 0.480996 0.737467 0
719 1 0.475734 0.761488 0
1591 1 0.498107 0.771251 0
694 1 0.0326365 0.778156 0
693 1 0.0121792 0.792381 0
723 1 0.0338267 0.803709 0
692 1 0.0142143 0.818931 0
697 1 0.0750109 0.774115 0
696 1 0.0550501 0.789681 0
725 1 0.0571823 0.814333 0
727 1 0.0778356 0.798976 0
698 1 0.097796 0.783489 0
728 1 0.101367 0.807767 0
700 1 0.120789 0.793365 0
701 1 0.140406 0.778819 0
731 1 0.143608 0.803108 0
732 1 0.166618 0.812407 0
702 1 0.162922 0.788252 0
703 1 0.183379 0.77281 0
704 1 0.206818 0.781102 0
733 1 0.185889 0.79731 0
734 1 0.208341 0.807165 0
735 1 0.227932 0.792083 0
706 1 0.249134 0.781146 0
737 1 0.26579 0.801121 0
736 1 0.233205 0.816103 0
707 1 0.272411 0.775148 0
708 1 0.289934 0.792794 0
739 1 0.307374 0.810891 0
710 1 0.313401 0.786653 0
738 1 0.283724 0.817851 0
713 1 0.363065 0.773498 0
711 1 0.338182 0.77912 0
741 1 0.331709 0.803203 0
712 1 0.356708 0.797126 0
743 1 0.380639 0.78995 0
745 1 0.399434 0.807472 0
744 1 0.374586 0.814217 0
714 1 0.404667 0.783502 0
716 1 0.428774 0.777161 0
747 1 0.446889 0.794299 0
746 1 0.422845 0.801966 0
1621 1 0.490566 0.813903 0
720 1 0.478627 0.787071 0
749 1 0.465679 0.80979 0
722 1 0.0374051 0.828275 0
751 1 0.0184581 0.843252 0
753 1 0.0397201 0.855448 0
726 1 0.0803624 0.823155 0
724 1 0.0597903 0.839406 0
755 1 0.0826187 0.849372 0
729 1 0.123988 0.818067 0
756 1 0.106356 0.859 0
757 1 0.101997 0.833619 0
759 1 0.125082 0.843174 0
730 1 0.147301 0.828431 0
760 1 0.149997 0.853384 0
761 1 0.17035 0.83716 0
791 1 0.173015 0.861881 0
763 1 0.189679 0.821972 0
762 1 0.194621 0.846828 0
764 1 0.212779 0.831525 0
795 1 0.217008 0.856649 0
767 1 0.258139 0.826376 0
765 1 0.235593 0.840795 0
766 1 0.258149 0.85222 0
768 1 0.27913 0.842224 0
769 1 0.303522 0.835694 0
799 1 0.29528 0.859207 0
770 1 0.321591 0.853724 0
740 1 0.326813 0.828619 0
771 1 0.345782 0.846755 0
742 1 0.351007 0.821481 0
773 1 0.369206 0.838363 0
774 1 0.393425 0.831699 0
803 1 0.385991 0.856806 0
748 1 0.442639 0.821092 0
776 1 0.409602 0.850423 0
775 1 0.417647 0.826053 0
777 1 0.434192 0.844245 0
750 1 0.474095 0.83263 0
779 1 0.457245 0.850738 0
780 1 0.481529 0.856121 0
1651 1 0.49875 0.838154 0
752 1 0.0167364 0.868504 0
783 1 0.041938 0.879689 0
782 1 0.00420578 0.89043 0
813 1 0.0449984 0.904839 0
754 1 0.0625523 0.864124 0
785 1 0.0864193 0.873603 0
784 1 0.0657147 0.888156 0
786 1 0.0885652 0.898449 0
758 1 0.129944 0.867739 0
787 1 0.109709 0.883008 0
788 1 0.133331 0.892202 0
817 1 0.112079 0.906126 0
789 1 0.153119 0.877277 0
790 1 0.156131 0.901669 0
792 1 0.176189 0.88645 0
793 1 0.196716 0.871459 0
823 1 0.199311 0.895461 0
794 1 0.219909 0.881341 0
824 1 0.22237 0.905568 0
796 1 0.239775 0.86698 0
825 1 0.243826 0.892059 0
827 1 0.266734 0.899799 0
797 1 0.264804 0.875988 0
798 1 0.288451 0.885515 0
829 1 0.308605 0.900687 0
800 1 0.314162 0.877647 0
772 1 0.363194 0.863813 0
801 1 0.338938 0.870523 0
831 1 0.331934 0.894532 0
802 1 0.356995 0.888092 0
805 1 0.404543 0.874384 0
804 1 0.381323 0.881584 0
833 1 0.375789 0.905789 0
806 1 0.400387 0.900563 0
778 1 0.438516 0.868471 0
807 1 0.423978 0.888862 0
808 1 0.448932 0.892983 0
809 1 0.465672 0.874666 0
810 1 0.4735 0.897175 0
1681 1 0.489932 0.880034 0
1711 1 0.497984 0.903743 0
812 1 0.0211499 0.908913 0
843 1 0.0116712 0.932368 0
814 1 0.0370623 0.929048 0
873 1 0.0283411 0.951936 0
815 1 0.0682153 0.912627 0
844 1 0.0531258 0.94918 0
845 1 0.0736122 0.937208 0
816 1 0.0924949 0.921647 0
847 1 0.0958229 0.946523 0
818 1 0.115927 0.9306 0
819 1 0.13709 0.91712 0
849 1 0.1407 0.941348 0
820 1 0.160091 0.925646 0
850 1 0.163963 0.951304 0
821 1 0.180263 0.911133 0
851 1 0.183024 0.936168 0
822 1 0.202986 0.921417 0
853 1 0.207409 0.946496 0
855 1 0.226983 0.930727 0
826 1 0.246422 0.915918 0
856 1 0.249664 0.940479 0
857 1 0.269222 0.926532 0
828 1 0.287725 0.911308 0
887 1 0.273435 0.950917 0
859 1 0.293493 0.935651 0
860 1 0.319361 0.943329 0
830 1 0.326346 0.918812 0
832 1 0.351327 0.912301 0
861 1 0.343255 0.936702 0
863 1 0.36842 0.934247 0
834 1 0.391793 0.924149 0
865 1 0.399687 0.947751 0
837 1 0.432477 0.911945 0
835 1 0.415845 0.930302 0
838 1 0.440779 0.935269 0
836 1 0.424353 0.95393 0
839 1 0.457639 0.915679 0
1741 1 0.490154 0.944804 0
840 1 0.48217 0.922219 0
869 1 0.465211 0.939437 0
872 1 0.0193545 0.97562 0
871 1 0.00277656 0.95645 0
3 1 0.0347909 0.996498 0
875 1 0.044274 0.97213 0
2 1 0.0104246 0.999155 0
846 1 0.0747471 0.962319 0
876 1 0.0822086 0.98723 0
874 1 0.0593504 0.992999 0
848 1 0.119938 0.954804 0
7 1 0.105387 0.995757 0
877 1 0.0998451 0.970837 0
878 1 0.124313 0.979713 0
879 1 0.144761 0.965749 0
880 1 0.147255 0.990925 0
881 1 0.167056 0.97609 0
852 1 0.187548 0.960657 0
882 1 0.189168 0.986471 0
883 1 0.209417 0.971911 0
13 1 0.212669 0.99572 0
854 1 0.230749 0.955655 0
884 1 0.233657 0.981227 0
885 1 0.253558 0.965426 0
886 1 0.255752 0.989664 0
858 1 0.296381 0.960868 0
888 1 0.276462 0.975593 0
19 1 0.299913 0.985379 0
17 1 0.279511 1.00009 0
889 1 0.319465 0.96942 0
862 1 0.358092 0.956962 0
890 1 0.323476 0.994399 0
891 1 0.342087 0.977115 0
892 1 0.365679 0.982762 0
864 1 0.382258 0.964675 0
893 1 0.389629 0.988527 0
895 1 0.408302 0.971897 0
866 1 0.433027 0.976944 0
867 1 0.448745 0.958456 0
896 1 0.415051 0.994415 0
1771 1 0.498516 0.968807 0
870 1 0.473906 0.963806 0
868 1 0.457191 0.983095 0
899 1 0.481728 0.988296 0
902 1 0.538391 0.0228079 0
931 1 0.522035 0.0405257 0
901 1 0.514755 0.0154961 0
904 1 0.562737 0.0283488 0
935 1 0.586312 0.0328325 0
906 1 0.578575 0.00956464 0
905 1 0.554944 0.00489253 0
908 1 0.603192 0.0141415 0
937 1 0.61216 0.0375988 0
939 1 0.628759 0.0207483 0
938 1 0.63585 0.0437949 0
941 1 0.652767 0.0257839 0
912 1 0.669407 0.007306 0
942 1 0.678593 0.0311381 0
910 1 0.645353 0.00140569 0
943 1 0.696186 0.0138506 0
944 1 0.701805 0.0383383 0
945 1 0.723264 0.0183955 0
975 1 0.726175 0.0441945 0
947 1 0.747749 0.0316927 0
918 1 0.756304 0.00749973 0
948 1 0.772829 0.0259872 0
919 1 0.78147 0.00203556 0
949 1 0.798228 0.0208603 0
950 1 0.814185 0.0393612 0
979 1 0.789576 0.0444256 0
920 1 0.823333 0.0154134 0
951 1 0.838487 0.034096 0
922 1 0.846874 0.00952499 0
953 1 0.863238 0.0277297 0
924 1 0.87242 0.00477278 0
955 1 0.888407 0.0231207 0
956 1 0.904666 0.0424477 0
926 1 0.912326 0.0191981 0
928 1 0.937473 0.0142988 0
957 1 0.928921 0.0379326 0
959 1 0.953031 0.034077 0
930 1 0.986787 0.00549197 0
929 1 0.961911 0.0103649 0
960 1 0.978478 0.0295938 0
932 1 0.529953 0.0655347 0
962 1 0.536097 0.0897713 0
961 1 0.51243 0.0819545 0
60 1 0.504466 0.0592512 0
933 1 0.545997 0.0460991 0
963 1 0.553932 0.0714282 0
934 1 0.570974 0.0525986 0
965 1 0.578073 0.0766811 0
936 1 0.595526 0.0571197 0
966 1 0.602408 0.0813622 0
967 1 0.618976 0.0626237 0
968 1 0.626541 0.0872653 0
940 1 0.65915 0.0507623 0
969 1 0.642716 0.0693714 0
970 1 0.667072 0.0747251 0
971 1 0.682898 0.0548184 0
972 1 0.690797 0.0823512 0
973 1 0.708446 0.0620854 0
1003 1 0.715364 0.0870972 0
946 1 0.764768 0.0492591 0
974 1 0.732855 0.0687817 0
976 1 0.756852 0.0734148 0
977 1 0.781449 0.0674879 0
980 1 0.806181 0.0634254 0
978 1 0.798164 0.0872981 0
981 1 0.831206 0.0580334 0
982 1 0.8478 0.0767727 0
1011 1 0.82369 0.0817638 0
952 1 0.855711 0.0520038 0
954 1 0.880599 0.0469581 0
983 1 0.87223 0.0701256 0
985 1 0.897121 0.0661965 0
1015 1 0.888828 0.0903687 0
987 1 0.921791 0.0624337 0
958 1 0.946348 0.057105 0
988 1 0.938465 0.0810894 0
986 1 0.913752 0.0859213 0
61 1 0.994669 0.0484022 0
989 1 0.970672 0.0525935 0
990 1 0.986599 0.0722404 0
1019 1 0.961564 0.075949 0
991 1 0.520326 0.108015 0
992 1 0.527355 0.133204 0
993 1 0.544824 0.113606 0
120 1 0.503603 0.126375 0
964 1 0.561259 0.0946215 0
994 1 0.568758 0.119388 0
995 1 0.585162 0.101502 0
996 1 0.592599 0.125027 0
997 1 0.609306 0.106129 0
998 1 0.632706 0.111678 0
1027 1 0.616853 0.130826 0
999 1 0.650257 0.0939148 0
1000 1 0.658282 0.119727 0
1001 1 0.674641 0.100086 0
1031 1 0.683459 0.125269 0
1002 1 0.698352 0.105587 0
1004 1 0.721924 0.10985 0
1033 1 0.70808 0.131847 0
1005 1 0.741794 0.0921434 0
1006 1 0.768019 0.115222 0
1035 1 0.744752 0.118053 0
1007 1 0.77402 0.091872 0
1008 1 0.791713 0.111711 0
1039 1 0.80856 0.128904 0
1009 1 0.816124 0.104428 0
1037 1 0.783519 0.135226 0
1010 1 0.833506 0.124423 0
1012 1 0.857885 0.118611 0
1013 1 0.84059 0.100528 0
984 1 0.865097 0.0946782 0
1014 1 0.881498 0.113984 0
1016 1 0.906178 0.109374 0
1045 1 0.898139 0.133539 0
1017 1 0.931103 0.10481 0
1049 1 0.948033 0.123429 0
1047 1 0.922946 0.128103 0
1018 1 0.955237 0.100213 0
1020 1 0.980318 0.0959665 0
1050 1 0.972777 0.119413 0
121 1 0.997655 0.115021 0
1022 1 0.535106 0.15598 0
1051 1 0.517687 0.174841 0
1021 1 0.511129 0.150411 0
1053 1 0.541753 0.180417 0
1023 1 0.552046 0.137916 0
1024 1 0.558747 0.162153 0
1025 1 0.576033 0.143323 0
1055 1 0.582539 0.167927 0
1026 1 0.600571 0.150354 0
1028 1 0.624936 0.155646 0
1057 1 0.606795 0.175071 0
1058 1 0.630617 0.179365 0
1029 1 0.640581 0.137038 0
1059 1 0.648491 0.161518 0
1030 1 0.665618 0.143698 0
1061 1 0.672376 0.167996 0
1032 1 0.69052 0.149899 0
1063 1 0.715652 0.157186 0
1062 1 0.695529 0.173954 0
1064 1 0.719825 0.181674 0
1034 1 0.733095 0.139105 0
1036 1 0.757985 0.138256 0
1065 1 0.746729 0.160942 0
1066 1 0.7661 0.181286 0
1067 1 0.772649 0.158247 0
1038 1 0.800898 0.152531 0
1069 1 0.816534 0.17195 0
1068 1 0.790682 0.175848 0
1040 1 0.825001 0.147453 0
1041 1 0.849024 0.142672 0
1071 1 0.840283 0.167446 0
1042 1 0.86518 0.161504 0
1043 1 0.874108 0.138355 0
1044 1 0.89016 0.157102 0
1075 1 0.907202 0.175404 0
1073 1 0.882072 0.180038 0
1046 1 0.914553 0.152172 0
1048 1 0.939383 0.146905 0
1077 1 0.931708 0.170507 0
1078 1 0.956187 0.166153 0
1079 1 0.964902 0.14298 0
1080 1 0.980955 0.162122 0
151 1 0.98877 0.138078 0
181 1 0.997027 0.181675 0
1052 1 0.523481 0.199413 0
1082 1 0.530471 0.222527 0
1081 1 0.507454 0.218161 0
180 1 0.500211 0.19283 0
1083 1 0.547873 0.204815 0
1054 1 0.565229 0.187776 0
1056 1 0.58881 0.192619 0
1085 1 0.571566 0.211365 0
1086 1 0.595357 0.217214 0
1087 1 0.613203 0.198959 0
1088 1 0.619358 0.223102 0
1089 1 0.637023 0.204698 0
1060 1 0.654399 0.186715 0
1091 1 0.678848 0.192855 0
1090 1 0.660788 0.21129 0
1092 1 0.684027 0.217428 0
1093 1 0.702568 0.198712 0
1123 1 0.707925 0.22363 0
1094 1 0.726479 0.206346 0
1095 1 0.743225 0.187232 0
1096 1 0.75981 0.205249 0
1097 1 0.784568 0.201382 0
1099 1 0.808072 0.194581 0
1098 1 0.80145 0.219504 0
1127 1 0.777408 0.224185 0
1072 1 0.858147 0.18467 0
1100 1 0.825899 0.213842 0
1070 1 0.832442 0.190497 0
1101 1 0.850508 0.207604 0
1103 1 0.874934 0.202959 0
1074 1 0.899554 0.198219 0
1104 1 0.891285 0.221736 0
1105 1 0.916175 0.217528 0
1076 1 0.924241 0.194104 0
1107 1 0.947626 0.1901 0
1108 1 0.941143 0.213427 0
1109 1 0.972532 0.185869 0
1110 1 0.964979 0.208243 0
211 1 0.989469 0.204457 0
1111 1 0.513567 0.241827 0
1113 1 0.536864 0.248468 0
1112 1 0.519491 0.265699 0
1084 1 0.553712 0.229577 0
1114 1 0.561124 0.254098 0
1115 1 0.578485 0.236442 0
1116 1 0.584275 0.260705 0
1117 1 0.601728 0.242276 0
1118 1 0.625593 0.247405 0
1147 1 0.608228 0.265779 0
1149 1 0.631224 0.272755 0
1119 1 0.642989 0.229134 0
1121 1 0.666734 0.235144 0
1120 1 0.649426 0.25377 0
1151 1 0.67379 0.259535 0
1122 1 0.691304 0.241851 0
1124 1 0.715934 0.250034 0
1153 1 0.698237 0.264986 0
1125 1 0.730598 0.231527 0
1126 1 0.753646 0.228498 0
1155 1 0.742676 0.25303 0
1157 1 0.767751 0.248582 0
1156 1 0.759752 0.271311 0
1128 1 0.792885 0.243403 0
1159 1 0.808686 0.261816 0
1158 1 0.7849 0.266533 0
1129 1 0.817947 0.237769 0
1131 1 0.843377 0.232567 0
1130 1 0.834308 0.25577 0
1132 1 0.859542 0.25145 0
1102 1 0.866991 0.227006 0
1133 1 0.883674 0.245721 0
1135 1 0.908275 0.240999 0