ITEM: TIMESTEP
10000
ITEM: NUMBER OF ATOMS
1800
ITEM: BOX BOUNDS pp pp pp
8.3814699641081347e-02 1.6491618530035868e+02
8.3814699641081347e-02 1.6491618530035868e+02
0.0000000000000000e+00 5.5000000000000000e+00
ITEM: ATOMS id type xs ys zs
2 1 0.0144983 0.0171376 0
3 1 0.0379425 0.0120919 0
33 1 0.0321925 0.0351793 0
31 1 0.00766037 0.0406158 0
4 1 0.0556982 0.0285435 0
5 1 0.0632439 0.00522863 0
6 1 0.07927 0.0227656 0
8 1 0.102196 0.0178187 0
37 1 0.095674 0.0406888 0
9 1 0.122195 0.00593609 0
39 1 0.122979 0.0324031 0
10 1 0.144333 0.0167125 0
41 1 0.169671 0.0242711 0
40 1 0.151197 0.0391096 0
12 1 0.186128 0.00643015 0
43 1 0.193244 0.0351454 0
14 1 0.207962 0.0154828 0
15 1 0.227461 0.000732836 0
45 1 0.230214 0.0260362 0
16 1 0.249365 0.0115411 0
46 1 0.252337 0.037654 0
47 1 0.275825 0.0388832 0
18 1 0.279659 0.0148446 0
20 1 0.31725 0.0133706 0
49 1 0.299573 0.0296936 0
51 1 0.334818 0.0313424 0
22 1 0.359361 0.0250595 0
21 1 0.34101 0.0076129 0
53 1 0.37887 0.0421555 0
24 1 0.382837 0.0163053 0
55 1 0.402408 0.0328046 0
25 1 0.405923 0.0081469 0
26 1 0.426266 0.0227311 0
28 1 0.450151 0.0155976 0
57 1 0.447919 0.0407975 0
56 1 0.422946 0.047141 0
30 1 0.492653 0.0219702 0
59 1 0.470354 0.0319424 0
29 1 0.472453 0.00638382 0
60 1 0.492952 0.0461759 0
32 1 0.0249378 0.057924 0
62 1 0.0193502 0.080952 0
63 1 0.0420197 0.0749098 0
61 1 0.00108737 0.0641 0
35 1 0.0722392 0.0463399 0
34 1 0.049181 0.0525413 0
36 1 0.088308 0.065017 0
65 1 0.0654617 0.0714203 0
66 1 0.0845065 0.0885348 0
38 1 0.111308 0.0580938 0
67 1 0.107641 0.0819865 0
68 1 0.132128 0.0796702 0
69 1 0.133815 0.0549687 0
71 1 0.15506 0.065885 0
42 1 0.173531 0.049554 0
72 1 0.175694 0.0764964 0
44 1 0.215887 0.0450438 0
73 1 0.195221 0.0605239 0
74 1 0.217756 0.0700554 0
103 1 0.198616 0.0849427 0
75 1 0.23971 0.0585777 0
77 1 0.264061 0.0622523 0
76 1 0.247043 0.0813462 0
50 1 0.318038 0.0481751 0
48 1 0.293461 0.0539766 0
78 1 0.284689 0.0763199 0
79 1 0.309822 0.0710395 0
80 1 0.325014 0.0905947 0
81 1 0.334773 0.0669496 0
52 1 0.353873 0.050321 0
82 1 0.357114 0.0848646 0
83 1 0.37463 0.0675624 0
54 1 0.399095 0.0580866 0
84 1 0.403802 0.0842935 0
85 1 0.423763 0.0707925 0
87 1 0.44927 0.0748327 0
88 1 0.471115 0.0863085 0
58 1 0.468977 0.0569276 0
89 1 0.489737 0.0705438 0
92 1 0.0283881 0.121659 0
93 1 0.0363482 0.0986862 0
91 1 0.0119822 0.103968 0
121 1 0.0048209 0.126793 0
64 1 0.0592759 0.0945101 0
94 1 0.0531792 0.117312 0
95 1 0.077872 0.111121 0
125 1 0.0695868 0.134366 0
96 1 0.0947071 0.129268 0
97 1 0.103502 0.105568 0
98 1 0.118581 0.124713 0
99 1 0.132887 0.105646 0
70 1 0.154682 0.0908103 0
100 1 0.157241 0.117516 0
101 1 0.178193 0.100973 0
131 1 0.182985 0.125593 0
102 1 0.20151 0.109706 0
104 1 0.22414 0.118975 0
105 1 0.223707 0.09356 0
106 1 0.245116 0.10598 0
107 1 0.268401 0.0939583 0
135 1 0.244837 0.133031 0
137 1 0.26544 0.119477 0
108 1 0.290647 0.116945 0
109 1 0.301297 0.0947425 0
110 1 0.320516 0.115766 0
111 1 0.343494 0.105722 0
141 1 0.349178 0.129458 0
112 1 0.367509 0.112604 0
113 1 0.381079 0.0931512 0
114 1 0.391113 0.120904 0
115 1 0.41148 0.107346 0
145 1 0.415823 0.133353 0
86 1 0.431516 0.0933424 0
116 1 0.434556 0.118524 0
117 1 0.453211 0.10278 0
118 1 0.45746 0.127867 0
90 1 0.493264 0.0964808 0
119 1 0.475566 0.1124 0
120 1 0.49825 0.12022 0
123 1 0.0442659 0.13945 0
122 1 0.0156904 0.147893 0
153 1 0.0356337 0.162027 0
152 1 0.0018684 0.179767 0
124 1 0.0604564 0.157137 0
126 1 0.0854499 0.152236 0
155 1 0.0757975 0.17471 0
154 1 0.0514937 0.181399 0
127 1 0.110923 0.147067 0
128 1 0.127617 0.164706 0
157 1 0.102153 0.169999 0
129 1 0.138637 0.140617 0
159 1 0.151245 0.161895 0
130 1 0.164445 0.141364 0
161 1 0.171294 0.174507 0
132 1 0.186575 0.151883 0
133 1 0.205477 0.135755 0
134 1 0.225318 0.150667 0
163 1 0.207422 0.167912 0
164 1 0.231136 0.176646 0
136 1 0.266575 0.143931 0
165 1 0.248618 0.160015 0
167 1 0.271289 0.170257 0
139 1 0.306601 0.13583 0
138 1 0.289631 0.153003 0
169 1 0.312137 0.161504 0
168 1 0.293911 0.178605 0
140 1 0.329843 0.143917 0
142 1 0.352864 0.152944 0
171 1 0.334917 0.169339 0
172 1 0.357695 0.176947 0
143 1 0.372122 0.137324 0
144 1 0.395583 0.147085 0
173 1 0.376202 0.161339 0
175 1 0.400342 0.172337 0
146 1 0.418684 0.157739 0
147 1 0.438358 0.143823 0
177 1 0.443592 0.168451 0
176 1 0.42432 0.182624 0
149 1 0.480427 0.136417 0
148 1 0.461621 0.152139 0
150 1 0.484709 0.160631 0
179 1 0.46712 0.178244 0
183 1 0.0262789 0.185169 0
182 1 0.014185 0.206193 0
184 1 0.0407943 0.204423 0
213 1 0.031208 0.2299 0
185 1 0.0679909 0.19908 0
186 1 0.085016 0.216278 0
215 1 0.0592856 0.221516 0
156 1 0.0914908 0.191644 0
158 1 0.12217 0.188053 0
187 1 0.108658 0.209491 0
189 1 0.137317 0.207675 0
160 1 0.149752 0.187243 0
191 1 0.171162 0.202867 0
190 1 0.156497 0.223677 0
162 1 0.191334 0.186759 0
193 1 0.213533 0.192713 0
192 1 0.195464 0.210738 0
194 1 0.218249 0.217792 0
195 1 0.235841 0.202099 0
166 1 0.252921 0.185793 0
196 1 0.259185 0.211145 0
197 1 0.276675 0.195074 0
170 1 0.317497 0.18683 0
199 1 0.299956 0.203314 0
198 1 0.282047 0.219344 0
201 1 0.339893 0.192704 0
203 1 0.362742 0.20078 0
200 1 0.322512 0.210707 0
202 1 0.345506 0.217174 0
174 1 0.380287 0.184714 0
205 1 0.409077 0.200459 0
233 1 0.368961 0.223671 0
204 1 0.386092 0.207114 0
178 1 0.447312 0.194041 0
207 1 0.431048 0.213292 0
208 1 0.455316 0.217995 0
180 1 0.490831 0.184198 0
209 1 0.473659 0.201976 0
210 1 0.481961 0.225352 0
1081 1 0.499443 0.208492 0
212 1 0.00841432 0.242537 0
243 1 0.028605 0.255292 0
241 1 0.0017432 0.267805 0
216 1 0.0770688 0.239297 0
214 1 0.0509854 0.245123 0
245 1 0.0709707 0.262599 0
244 1 0.0475425 0.269916 0
188 1 0.125084 0.227689 0
217 1 0.10141 0.233661 0
218 1 0.117847 0.250682 0
247 1 0.0951128 0.257389 0
249 1 0.136224 0.268945 0
219 1 0.141282 0.245137 0
221 1 0.180138 0.229338 0
220 1 0.1642 0.247966 0
251 1 0.167993 0.272345 0
222 1 0.186743 0.254921 0
223 1 0.203375 0.236494 0
224 1 0.226277 0.246178 0
253 1 0.208287 0.263291 0
225 1 0.241733 0.2276 0
227 1 0.264777 0.236585 0
226 1 0.248329 0.25445 0
257 1 0.271254 0.262116 0
228 1 0.287876 0.244978 0
229 1 0.305005 0.227892 0
230 1 0.311603 0.252208 0
259 1 0.294572 0.269495 0
231 1 0.328386 0.234067 0
232 1 0.352373 0.241165 0
261 1 0.334957 0.258151 0
263 1 0.358699 0.264526 0
234 1 0.375759 0.24665 0
235 1 0.392098 0.229669 0
265 1 0.400125 0.252484 0
264 1 0.382504 0.269932 0
206 1 0.416029 0.233009 0
236 1 0.423642 0.256435 0
237 1 0.440147 0.236586 0
238 1 0.44743 0.261088 0
239 1 0.464104 0.242445 0
240 1 0.488119 0.248998 0
269 1 0.470973 0.26668 0
242 1 0.0237713 0.281104 0
272 1 0.0296301 0.312628 0
273 1 0.0441428 0.293817 0
271 1 0.00798339 0.300614 0
246 1 0.089767 0.280858 0
275 1 0.0662757 0.28609 0
276 1 0.0826493 0.30422 0
274 1 0.053747 0.31721 0
248 1 0.112321 0.274185 0
277 1 0.105542 0.299541 0
279 1 0.128164 0.292904 0
278 1 0.124193 0.317305 0
250 1 0.151043 0.288582 0
280 1 0.14956 0.312961 0
281 1 0.172659 0.298113 0
252 1 0.190595 0.280344 0
254 1 0.213284 0.288368 0
283 1 0.195081 0.304698 0
284 1 0.217701 0.313525 0
255 1 0.230843 0.270613 0
256 1 0.253412 0.279698 0
285 1 0.236462 0.296104 0
287 1 0.259083 0.303954 0
258 1 0.277147 0.286816 0
260 1 0.316592 0.276081 0
288 1 0.282835 0.311664 0
289 1 0.299955 0.294105 0
290 1 0.306323 0.319132 0
262 1 0.339929 0.281344 0
291 1 0.323374 0.301239 0
292 1 0.348088 0.304873 0
293 1 0.3645 0.288178 0
295 1 0.387982 0.292911 0
266 1 0.406022 0.27623 0
296 1 0.397531 0.314486 0
294 1 0.373557 0.314078 0
267 1 0.430849 0.279683 0
268 1 0.454658 0.284268 0
297 1 0.415622 0.299016 0
298 1 0.43505 0.31397 0
1141 1 0.495379 0.273027 0
270 1 0.477902 0.290127 0
299 1 0.459228 0.307416 0
300 1 0.483163 0.313309 0
302 1 0.0192572 0.354875 0
303 1 0.0375971 0.336724 0
301 1 0.0140669 0.330702 0
333 1 0.0437299 0.361821 0
304 1 0.0601328 0.344441 0
305 1 0.076549 0.326878 0
306 1 0.085107 0.349053 0
307 1 0.101478 0.328675 0
308 1 0.110762 0.357134 0
309 1 0.128665 0.341749 0
311 1 0.153578 0.337799 0
310 1 0.160881 0.361341 0
312 1 0.17902 0.346365 0
282 1 0.172894 0.322609 0
313 1 0.197372 0.329636 0
314 1 0.202497 0.355017 0
315 1 0.220388 0.337724 0
345 1 0.227052 0.361999 0
286 1 0.240769 0.320179 0
317 1 0.264372 0.32844 0
316 1 0.244964 0.343611 0
318 1 0.271312 0.352759 0
319 1 0.288176 0.335003 0
349 1 0.29521 0.358418 0
321 1 0.330127 0.325861 0
323 1 0.353883 0.327091 0
320 1 0.317374 0.348722 0
322 1 0.342803 0.34816 0
324 1 0.371096 0.343045 0
325 1 0.394559 0.337825 0
355 1 0.387474 0.361085 0
326 1 0.411533 0.355121 0
327 1 0.417693 0.330379 0
328 1 0.440368 0.340989 0
329 1 0.463864 0.331122 0
1201 1 0.48851 0.336618 0
330 1 0.470452 0.35408 0
1231 1 0.49479 0.360147 0
332 1 0.026057 0.379668 0
363 1 0.0334395 0.405899 0
361 1 0.00953518 0.398021 0
331 1 0.00224373 0.372415 0
335 1 0.0671314 0.368394 0
334 1 0.0495139 0.386777 0
336 1 0.0734302 0.391886 0
337 1 0.0913215 0.372935 0
338 1 0.11628 0.380405 0
367 1 0.0973073 0.395949 0
369 1 0.119145 0.404537 0
339 1 0.136814 0.366713 0
341 1 0.163662 0.385354 0
340 1 0.140736 0.39345 0
371 1 0.160829 0.409086 0
343 1 0.183646 0.37122 0
342 1 0.185894 0.395906 0
344 1 0.206745 0.380139 0
375 1 0.220768 0.399854 0
347 1 0.251897 0.366017 0
346 1 0.238353 0.384575 0
377 1 0.262529 0.38781 0
348 1 0.286839 0.381571 0
350 1 0.313259 0.375386 0
379 1 0.304232 0.399264 0
378 1 0.279223 0.405253 0
353 1 0.361619 0.365441 0
351 1 0.337709 0.371565 0
381 1 0.329354 0.393823 0
352 1 0.354589 0.388831 0
383 1 0.370708 0.406748 0
354 1 0.378967 0.383941 0
385 1 0.395788 0.401907 0
356 1 0.40338 0.378834 0
357 1 0.427024 0.373853 0
358 1 0.445027 0.390852 0
387 1 0.420577 0.396848 0
359 1 0.449899 0.36583 0
1261 1 0.490497 0.406974 0
360 1 0.477577 0.377092 0
389 1 0.467421 0.398803 0
362 1 0.014644 0.425623 0
393 1 0.0248211 0.448551 0
392 1 0.000911306 0.44889 0
364 1 0.0407244 0.429498 0
365 1 0.0572757 0.410747 0
366 1 0.082144 0.415042 0
394 1 0.0521839 0.452207 0
395 1 0.0669539 0.433977 0
368 1 0.114819 0.428534 0
397 1 0.0925683 0.438585 0
398 1 0.112342 0.45371 0
399 1 0.134254 0.44298 0
370 1 0.137996 0.419195 0
401 1 0.157499 0.433826 0
402 1 0.178291 0.451019 0
372 1 0.179825 0.42442 0
373 1 0.202031 0.413856 0
403 1 0.199898 0.437861 0
374 1 0.22509 0.424007 0
404 1 0.222285 0.448032 0
376 1 0.245964 0.409859 0
405 1 0.24574 0.438373 0
407 1 0.268729 0.427881 0
406 1 0.264509 0.453627 0
408 1 0.287937 0.446123 0
409 1 0.296101 0.423106 0
410 1 0.313855 0.440051 0
380 1 0.320612 0.41653 0
411 1 0.339059 0.434288 0
382 1 0.34584 0.411075 0
412 1 0.357164 0.451945 0
413 1 0.363496 0.428991 0
384 1 0.388117 0.424674 0
414 1 0.381958 0.447489 0
415 1 0.406038 0.442586 0
386 1 0.412837 0.420007 0
388 1 0.43702 0.414323 0
417 1 0.430893 0.437919 0
418 1 0.45362 0.445425 0
390 1 0.483647 0.431225 0
419 1 0.461012 0.42267 0
420 1 0.476627 0.454304 0
422 1 0.0108674 0.469993 0
423 1 0.0352538 0.469195 0
424 1 0.0400674 0.491927 0
453 1 0.0172081 0.498494 0
396 1 0.0763816 0.457652 0
425 1 0.0624081 0.478492 0
426 1 0.0835064 0.49278 0
427 1 0.0957439 0.472245 0
428 1 0.117373 0.487157 0
429 1 0.132412 0.468686 0
400 1 0.153534 0.457042 0
430 1 0.14525 0.490099 0
431 1 0.166828 0.476052 0
461 1 0.172992 0.499781 0
432 1 0.189932 0.482005 0
433 1 0.20105 0.461263 0
434 1 0.214845 0.485577 0
435 1 0.241675 0.46253 0
465 1 0.239002 0.488349 0
436 1 0.260213 0.477484 0
467 1 0.275712 0.495506 0
437 1 0.28356 0.470368 0
438 1 0.30006 0.487389 0
439 1 0.3069 0.463516 0
471 1 0.341215 0.497953 0
440 1 0.324434 0.480244 0
441 1 0.331364 0.456973 0
442 1 0.348475 0.474897 0
443 1 0.373004 0.47018 0
445 1 0.398315 0.46575 0
444 1 0.389318 0.48866 0
473 1 0.36544 0.492941 0
416 1 0.422512 0.460652 0
446 1 0.427301 0.484804 0
447 1 0.445724 0.46829 0
448 1 0.45075 0.492895 0
449 1 0.46918 0.477012 0
479 1 0.475064 0.500696 0
450 1 0.492671 0.480967 0
11 1 0.162829 -0.000113544 0
452 1 0.0141097 0.522671 0
483 1 0.0324863 0.539808 0
454 1 0.0364572 0.515543 0
485 1 0.0569418 0.526918 0
455 1 0.061478 0.50335 0
456 1 0.0809981 0.51808 0
486 1 0.0762687 0.541222 0
458 1 0.114452 0.529481 0
459 1 0.12916 0.509337 0
457 1 0.10405 0.507465 0
489 1 0.138582 0.533244 0
460 1 0.153715 0.514322 0
491 1 0.162711 0.538348 0
462 1 0.181192 0.522301 0
463 1 0.198151 0.504117 0
493 1 0.206801 0.526287 0
464 1 0.222765 0.508432 0
492 1 0.189912 0.544977 0
466 1 0.247069 0.51178 0
495 1 0.23172 0.530947 0
496 1 0.256109 0.537771 0
497 1 0.270567 0.518569 0
468 1 0.293865 0.511561 0
499 1 0.31196 0.528418 0
498 1 0.289532 0.535491 0
469 1 0.317505 0.503734 0
470 1 0.334303 0.520533 0
472 1 0.357418 0.5155 0
501 1 0.346934 0.540269 0
503 1 0.371914 0.533538 0
474 1 0.383387 0.512191 0
505 1 0.394574 0.541944 0
475 1 0.409182 0.501795 0
476 1 0.412622 0.525469 0
507 1 0.435355 0.534088 0
477 1 0.4323 0.509218 0
478 1 0.454898 0.517285 0
480 1 0.47719 0.525693 0
509 1 0.459556 0.541356 0
482 1 0.00905671 0.547619 0
512 1 0.0310875 0.588527 0
513 1 0.0307638 0.564121 0
484 1 0.0542485 0.551652 0
514 1 0.0523746 0.575972 0
515 1 0.0774404 0.565637 0
545 1 0.0707589 0.59011 0
487 1 0.0993493 0.548573 0
516 1 0.0941435 0.590938 0
488 1 0.123526 0.553214 0
517 1 0.107736 0.571729 0
519 1 0.131903 0.577389 0
490 1 0.147012 0.558095 0
520 1 0.156618 0.58139 0
521 1 0.171561 0.561657 0
522 1 0.181117 0.584668 0
523 1 0.197656 0.567027 0
494 1 0.213941 0.549072 0
524 1 0.22101 0.572779 0
553 1 0.204553 0.590854 0
525 1 0.238523 0.555931 0
526 1 0.257508 0.571888 0
555 1 0.239077 0.588321 0
527 1 0.274684 0.555083 0
529 1 0.299368 0.560731 0
528 1 0.28141 0.578199 0
559 1 0.302829 0.590371 0
500 1 0.323515 0.550073 0
530 1 0.321352 0.575723 0
531 1 0.342669 0.566139 0
502 1 0.364294 0.555669 0
533 1 0.366695 0.57919 0
504 1 0.386053 0.564222 0
534 1 0.388788 0.588537 0
535 1 0.408354 0.572961 0
506 1 0.416297 0.550506 0
508 1 0.439588 0.557853 0
537 1 0.430388 0.581349 0
538 1 0.453159 0.588272 0
510 1 0.485053 0.54969 0
539 1 0.46223 0.565416 0
540 1 0.483909 0.574159 0
541 1 0.00916627 0.598255 0
542 1 0.0283465 0.614417 0
571 1 0.0102958 0.631475 0
543 1 0.0502666 0.602897 0
544 1 0.0483395 0.627567 0
546 1 0.0715897 0.614765 0
518 1 0.117045 0.596297 0
547 1 0.0984809 0.614229 0
548 1 0.124881 0.618935 0
549 1 0.14117 0.600247 0
550 1 0.148732 0.623637 0
551 1 0.164936 0.604121 0
581 1 0.172886 0.628712 0
552 1 0.189358 0.609282 0
554 1 0.221379 0.607388 0
583 1 0.207301 0.627022 0
556 1 0.244565 0.611365 0
557 1 0.262697 0.595481 0
587 1 0.266126 0.619955 0
585 1 0.231846 0.633419 0
558 1 0.284546 0.605297 0
560 1 0.306399 0.616446 0
589 1 0.287344 0.630558 0
532 1 0.345952 0.590343 0
561 1 0.324942 0.602006 0
562 1 0.348673 0.615366 0
591 1 0.328241 0.626924 0
563 1 0.369187 0.603149 0
564 1 0.371845 0.627969 0
565 1 0.391272 0.613943 0
536 1 0.411662 0.598097 0
566 1 0.414422 0.621883 0
567 1 0.435066 0.60583 0
597 1 0.43754 0.629865 0
568 1 0.458474 0.613215 0
569 1 0.475962 0.596664 0
570 1 0.492768 0.615362 0
573 1 0.0294622 0.643872 0
572 1 0.00681971 0.656947 0
603 1 0.0267436 0.670614 0
575 1 0.0688617 0.640169 0
574 1 0.0490582 0.656886 0
605 1 0.0710007 0.666183 0
604 1 0.050723 0.680795 0
576 1 0.090092 0.65157 0
577 1 0.108178 0.636521 0
578 1 0.11228 0.660112 0
579 1 0.131165 0.642742 0
607 1 0.0929435 0.675433 0
609 1 0.134904 0.666922 0
580 1 0.154678 0.650398 0
611 1 0.17584 0.661485 0
610 1 0.157132 0.676866 0
582 1 0.19147 0.644331 0
584 1 0.214582 0.650831 0
613 1 0.198367 0.669082 0
614 1 0.221546 0.676823 0
586 1 0.256701 0.642289 0
615 1 0.237731 0.658291 0
617 1 0.260653 0.668075 0
588 1 0.280168 0.653314 0
590 1 0.30896 0.641048 0
619 1 0.303073 0.664344 0
618 1 0.282852 0.67711 0
593 1 0.349722 0.640091 0
621 1 0.327257 0.659104 0
592 1 0.351525 0.663685 0
595 1 0.393905 0.639326 0
594 1 0.373601 0.652784 0
625 1 0.395301 0.665106 0
623 1 0.370911 0.678272 0
596 1 0.418931 0.645915 0
598 1 0.442612 0.656787 0
627 1 0.419591 0.669268 0
628 1 0.453873 0.681053 0
599 1 0.460308 0.637613 0
600 1 0.484335 0.639324 0
629 1 0.467862 0.659889 0
630 1 0.485626 0.6778 0
602 1 0.00749946 0.68896 0
633 1 0.0305402 0.694807 0
632 1 0.00636608 0.713599 0
634 1 0.0314073 0.719345 0
606 1 0.072497 0.691904 0
635 1 0.0520957 0.706208 0
636 1 0.0755559 0.71564 0
608 1 0.115814 0.684111 0
637 1 0.0963117 0.69944 0
638 1 0.119012 0.708378 0
667 1 0.0988723 0.724531 0
639 1 0.137578 0.691765 0
641 1 0.1616 0.700696 0
640 1 0.141586 0.716605 0
671 1 0.16581 0.725384 0
612 1 0.179982 0.685575 0
643 1 0.204185 0.694281 0
642 1 0.185382 0.709419 0
644 1 0.208796 0.71928 0
616 1 0.244041 0.685786 0
645 1 0.227781 0.703892 0
647 1 0.267166 0.694892 0
646 1 0.251041 0.71296 0
620 1 0.313203 0.686957 0
649 1 0.291507 0.699697 0
648 1 0.275812 0.719021 0
650 1 0.311699 0.711668 0
622 1 0.33798 0.683274 0
651 1 0.334845 0.707927 0
652 1 0.350056 0.727182 0
653 1 0.358043 0.701295 0
624 1 0.383666 0.69842 0
655 1 0.400859 0.715419 0
654 1 0.374503 0.720409 0
626 1 0.406418 0.689621 0
657 1 0.431272 0.690066 0
656 1 0.425415 0.713318 0
658 1 0.450447 0.705822 0
659 1 0.475713 0.70104 0
660 1 0.492214 0.719439 0
689 1 0.467227 0.725408 0
662 1 0.00887997 0.760138 0
663 1 0.0154267 0.737164 0
664 1 0.0317582 0.755121 0
665 1 0.0524805 0.732245 0
666 1 0.0777001 0.739951 0
695 1 0.0594562 0.75607 0
697 1 0.0838124 0.763756 0
669 1 0.122179 0.732779 0
668 1 0.103266 0.748973 0
699 1 0.126944 0.756758 0
698 1 0.107844 0.773033 0
670 1 0.146307 0.741022 0
701 1 0.151474 0.766045 0
672 1 0.16941 0.750406 0
673 1 0.189068 0.733799 0
674 1 0.21264 0.744727 0
703 1 0.192349 0.757418 0
705 1 0.220957 0.768839 0
675 1 0.232627 0.730055 0
677 1 0.257584 0.736495 0
676 1 0.241141 0.754728 0
707 1 0.264377 0.765591 0
679 1 0.301302 0.733745 0
678 1 0.280464 0.745133 0
680 1 0.315396 0.755317 0
709 1 0.290451 0.766789 0
681 1 0.325965 0.731737 0
682 1 0.343714 0.750969 0
713 1 0.362077 0.769291 0
683 1 0.367554 0.744274 0
684 1 0.385021 0.761188 0
685 1 0.39253 0.738482 0
715 1 0.409783 0.762886 0
686 1 0.41703 0.73662 0
687 1 0.443054 0.730579 0
717 1 0.433519 0.753646 0
688 1 0.458749 0.749409 0
690 1 0.482608 0.745684 0
719 1 0.473856 0.769937 0
1591 1 0.498362 0.766122 0
693 1 0.0221324 0.780722 0
692 1 0.0149854 0.804889 0
723 1 0.0381815 0.798293 0
694 1 0.0453595 0.775198 0
696 1 0.0675231 0.782136 0
725 1 0.0606591 0.80714 0
726 1 0.0844638 0.812387 0
727 1 0.0901107 0.788587 0
728 1 0.108404 0.80448 0
700 1 0.131125 0.780328 0
729 1 0.132156 0.803844 0
731 1 0.153321 0.791279 0
732 1 0.172176 0.808206 0
702 1 0.174962 0.77845 0
704 1 0.199391 0.779785 0
733 1 0.196058 0.802929 0
735 1 0.218915 0.794488 0
706 1 0.242187 0.782691 0
736 1 0.238036 0.810116 0
737 1 0.260497 0.800389 0
708 1 0.282764 0.790067 0
710 1 0.312416 0.780171 0
739 1 0.303481 0.803853 0
738 1 0.281116 0.816461 0
711 1 0.336006 0.774123 0
712 1 0.352398 0.792373 0
741 1 0.328597 0.799285 0
742 1 0.358411 0.816975 0
714 1 0.394188 0.782601 0
743 1 0.375929 0.799665 0
745 1 0.400919 0.806482 0
718 1 0.44958 0.771966 0
716 1 0.417776 0.788438 0
746 1 0.425164 0.813332 0
747 1 0.441065 0.794583 0
748 1 0.4493 0.816772 0
1621 1 0.49454 0.814109 0
720 1 0.489231 0.788913 0
749 1 0.465396 0.795789 0
722 1 0.0306334 0.822969 0
751 1 0.00958951 0.836889 0
752 1 0.0153723 0.862475 0
753 1 0.0341861 0.847617 0
724 1 0.0534233 0.831231 0
755 1 0.0776267 0.838699 0
754 1 0.0579456 0.855355 0
756 1 0.0978388 0.852437 0
757 1 0.102265 0.828566 0
759 1 0.126512 0.826924 0
758 1 0.121746 0.851468 0
730 1 0.150835 0.818543 0
760 1 0.14482 0.842635 0
761 1 0.168436 0.835122 0
791 1 0.163033 0.859272 0
763 1 0.191364 0.826612 0
734 1 0.214849 0.818709 0
762 1 0.186453 0.851434 0
764 1 0.209601 0.843369 0
795 1 0.227276 0.859407 0
767 1 0.257093 0.824924 0
765 1 0.232763 0.835205 0
766 1 0.251972 0.850653 0
768 1 0.27513 0.842679 0
769 1 0.298825 0.834263 0
799 1 0.293205 0.859139 0
770 1 0.319549 0.848736 0
740 1 0.320201 0.822779 0
771 1 0.341421 0.835739 0
772 1 0.350118 0.85813 0
744 1 0.38349 0.823444 0
775 1 0.407795 0.830388 0
773 1 0.36656 0.840456 0
774 1 0.390945 0.847184 0
777 1 0.434865 0.836609 0
776 1 0.416881 0.854239 0
778 1 0.441328 0.859746 0
750 1 0.472439 0.822082 0
779 1 0.458734 0.842833 0
780 1 0.481848 0.854789 0
783 1 0.0379094 0.871408 0
782 1 0.0181907 0.887624 0
813 1 0.0412346 0.896283 0
785 1 0.0793296 0.86779 0
784 1 0.0599646 0.882174 0
815 1 0.0639543 0.906528 0
786 1 0.0838414 0.892327 0
787 1 0.103837 0.876361 0
788 1 0.126202 0.887694 0
817 1 0.105969 0.902015 0
819 1 0.128519 0.912339 0
789 1 0.140011 0.867332 0
790 1 0.150745 0.890607 0
821 1 0.172817 0.903501 0
792 1 0.17729 0.878626 0
793 1 0.202899 0.868648 0
823 1 0.196672 0.893338 0
794 1 0.221055 0.884683 0
824 1 0.214653 0.908959 0
797 1 0.269054 0.868085 0
796 1 0.245125 0.875371 0
825 1 0.237842 0.901446 0
827 1 0.261551 0.893239 0
798 1 0.285037 0.886978 0
800 1 0.307625 0.878605 0
829 1 0.3025 0.903739 0
801 1 0.330556 0.871222 0
831 1 0.325305 0.895701 0
802 1 0.353879 0.882866 0
833 1 0.364928 0.906439 0
803 1 0.373337 0.864935 0
805 1 0.398404 0.870304 0
804 1 0.380566 0.888311 0
806 1 0.406205 0.893116 0
807 1 0.426166 0.87944 0
808 1 0.448271 0.893176 0
837 1 0.42608 0.906829 0
809 1 0.464317 0.870795 0
810 1 0.473955 0.89365 0
1681 1 0.4917 0.878215 0
1711 1 0.497418 0.902915 0
812 1 0.0222594 0.912032 0
842 1 0.0070767 0.951402 0
843 1 0.0250692 0.935604 0
814 1 0.0445131 0.92049 0
816 1 0.0860589 0.916921 0
844 1 0.047974 0.94374 0
845 1 0.0677763 0.931825 0
818 1 0.109393 0.926759 0
847 1 0.0903622 0.942852 0
849 1 0.129103 0.940575 0
820 1 0.148334 0.924883 0
850 1 0.153395 0.949326 0
851 1 0.171749 0.932275 0
822 1 0.192307 0.919111 0
853 1 0.195726 0.943005 0
854 1 0.219052 0.950067 0
855 1 0.231603 0.92571 0
826 1 0.256424 0.916374 0
856 1 0.251089 0.939661 0
828 1 0.279546 0.910986 0
857 1 0.273644 0.934387 0
858 1 0.288231 0.95407 0
859 1 0.296492 0.92815 0
860 1 0.310998 0.947816 0
830 1 0.319389 0.921289 0
832 1 0.342345 0.913273 0
861 1 0.334059 0.940563 0
863 1 0.356441 0.932491 0
835 1 0.401635 0.91648 0
834 1 0.378947 0.925548 0
864 1 0.373781 0.94891 0
865 1 0.397327 0.94141 0
838 1 0.441685 0.925368 0
836 1 0.41962 0.932624 0
867 1 0.437809 0.94956 0
839 1 0.46221 0.914114 0
1741 1 0.49606 0.944862 0
840 1 0.484556 0.923859 0
869 1 0.46133 0.939909 0
872 1 0.0198387 0.992463 0
873 1 0.0251516 0.967969 0
871 1 0.00171627 0.97515 0
874 1 0.044486 0.989884 0
846 1 0.0708958 0.95623 0
875 1 0.0498016 0.967279 0
876 1 0.0689286 0.982377 0
7 1 0.0887612 0.99751 0
848 1 0.111088 0.95692 0
877 1 0.0911421 0.97154 0
878 1 0.114695 0.982131 0
879 1 0.134249 0.964908 0
852 1 0.176572 0.957928 0
880 1 0.139748 0.990062 0
881 1 0.15789 0.973527 0
882 1 0.181173 0.983081 0
900 1 0.49358 0.99675 0
883 1 0.199683 0.966955 0
13 1 0.204795 0.991062 0
884 1 0.222424 0.975219 0
885 1 0.241329 0.960604 0
886 1 0.245485 0.983727 0
17 1 0.266564 0.995226 0
887 1 0.26532 0.959807 0
888 1 0.28254 0.977817 0
19 1 0.298412 0.997131 0
889 1 0.305597 0.971751 0
862 1 0.351682 0.957855 0
890 1 0.322476 0.989798 0
891 1 0.328895 0.96538 0
892 1 0.346222 0.983302 0
23 1 0.364283 1.00003 0
893 1 0.369087 0.974568 0
895 1 0.391687 0.966696 0
894 1 0.387318 0.991652 0
896 1 0.409852 0.983721 0
866 1 0.414636 0.958027 0
898 1 0.451495 0.990367 0
897 1 0.432594 0.974354 0
27 1 0.42954 0.999193 0
899 1 0.474523 0.981441 0
1771 1 0.498383 0.969381 0
870 1 0.476848 0.958196 0
868 1 0.45498 0.96654 0
902 1 0.535653 0.020641 0
933 1 0.539328 0.0447175 0
931 1 0.514707 0.0349269 0
901 1 0.514171 0.00981449 0
904 1 0.558334 0.0280379 0
935 1 0.581655 0.0327936 0
906 1 0.586442 0.00903746 0
905 1 0.562798 0.00365574 0
908 1 0.610836 0.0147109 0
937 1 0.60516 0.0388566 0
939 1 0.635428 0.0221128 0
938 1 0.628463 0.0453584 0
910 1 0.651066 0.00326431 0
941 1 0.659369 0.026108 0
912 1 0.676413 0.00729603 0
943 1 0.705341 0.0231293 0
942 1 0.682137 0.0315688 0
945 1 0.724681 0.0386534 0
914 1 0.727768 0.0132506 0
916 1 0.752024 0.00522999 0
947 1 0.747525 0.0292625 0
948 1 0.766774 0.0432455 0
918 1 0.771537 0.0192385 0
919 1 0.795411 0.00887884 0
949 1 0.790015 0.0354378 0
920 1 0.818084 0.0205277 0
951 1 0.828113 0.0435836 0
922 1 0.844894 0.0277817 0
923 1 0.862877 0.0114955 0
921 1 0.838704 0.00330167 0
953 1 0.867449 0.0366752 0
924 1 0.885454 0.0187978 0
925 1 0.906631 0.00184959 0
955 1 0.906968 0.027001 0
954 1 0.89112 0.043971 0
926 1 0.927623 0.0172895 0
928 1 0.949671 0.0104214 0
957 1 0.943331 0.0347855 0
930 1 0.99056 0.0226689 0
959 1 0.966813 0.0283197 0
929 1 0.972824 0.00460633 0
932 1 0.520521 0.0592339 0
962 1 0.532886 0.0880804 0
963 1 0.546553 0.0684463 0
961 1 0.511128 0.0810271 0
934 1 0.563912 0.0518356 0
936 1 0.587525 0.0566394 0
965 1 0.570432 0.0751231 0
966 1 0.594193 0.0821057 0
967 1 0.610337 0.0623629 0
969 1 0.633056 0.0691166 0
968 1 0.61769 0.08775 0
940 1 0.653174 0.0488458 0
970 1 0.655891 0.0725079 0
971 1 0.679621 0.0559121 0
972 1 0.67738 0.0808293 0
944 1 0.702431 0.0462964 0
973 1 0.699111 0.0704952 0
975 1 0.722015 0.0623131 0
974 1 0.716518 0.0870116 0
946 1 0.744366 0.0534795 0
976 1 0.740309 0.0782657 0
977 1 0.762972 0.0697793 0
950 1 0.806872 0.0529305 0
979 1 0.784539 0.0607186 0
980 1 0.804794 0.0766069 0
978 1 0.781446 0.0846522 0
981 1 0.827645 0.0680124 0
952 1 0.849575 0.0560308 0
982 1 0.848047 0.0827333 0
983 1 0.873485 0.0600582 0
985 1 0.897543 0.0681928 0
984 1 0.879406 0.0844707 0
986 1 0.92148 0.0751255 0
956 1 0.915454 0.0504706 0
987 1 0.93817 0.0585389 0
988 1 0.94853 0.0805533 0
960 1 0.984 0.0465053 0
958 1 0.960841 0.0524039 0
989 1 0.977163 0.0695299 0
990 1 0.99469 0.086385 0
991 1 0.515981 0.104787 0
992 1 0.521489 0.128833 0
993 1 0.539096 0.111635 0
1023 1 0.546111 0.135891 0
964 1 0.555535 0.0937851 0
994 1 0.56261 0.117652 0
995 1 0.57868 0.100053 0
996 1 0.585482 0.125063 0
997 1 0.601661 0.106 0
998 1 0.62489 0.111693 0
1027 1 0.609334 0.129928 0
1029 1 0.63316 0.135622 0
999 1 0.642026 0.0926918 0
1000 1 0.647651 0.115777 0
1001 1 0.667387 0.102946 0
1031 1 0.667069 0.128873 0
1002 1 0.689685 0.120497 0
1003 1 0.694754 0.0966277 0
1004 1 0.712811 0.11163 0
1033 1 0.708839 0.135917 0
1005 1 0.735512 0.102723 0
1006 1 0.754508 0.117933 0
1007 1 0.758533 0.0938126 0
1035 1 0.731946 0.127018 0
1037 1 0.773253 0.133425 0
1008 1 0.777871 0.108923 0
1009 1 0.799992 0.100898 0
1039 1 0.796278 0.125441 0
1010 1 0.81866 0.117388 0
1011 1 0.823353 0.0931363 0
1012 1 0.841634 0.10911 0
1043 1 0.864586 0.127883 0
1041 1 0.838957 0.134348 0
1013 1 0.864143 0.102821 0
1014 1 0.88685 0.110841 0
1015 1 0.902968 0.0921927 0
1045 1 0.89654 0.133749 0
1016 1 0.911799 0.1159 0
1017 1 0.928181 0.0980913 0
1018 1 0.950914 0.105721 0
1047 1 0.934713 0.12408 0
1019 1 0.970424 0.092622 0
1020 1 0.987951 0.108959 0
1049 1 0.958228 0.128618 0
1050 1 0.981869 0.133004 0
1022 1 0.528888 0.152953 0
1053 1 0.534833 0.176743 0
1051 1 0.509724 0.16828 0
1021 1 0.503564 0.145116 0
1024 1 0.55361 0.160813 0
1025 1 0.569296 0.142432 0
1055 1 0.578244 0.167031 0
1026 1 0.592951 0.148672 0
1028 1 0.616505 0.154079 0
1057 1 0.60176 0.17235 0
1058 1 0.626453 0.179217 0
1059 1 0.640316 0.160243 0
1030 1 0.662419 0.152657 0
1061 1 0.67804 0.170556 0
1032 1 0.685909 0.145248 0
1063 1 0.704416 0.159859 0
1034 1 0.727647 0.151927 0
1064 1 0.722864 0.175875 0
1036 1 0.750356 0.142395 0
1065 1 0.74625 0.166952 0
1067 1 0.769033 0.157607 0
1038 1 0.791787 0.149194 0
1040 1 0.815178 0.141847 0
1069 1 0.809462 0.166391 0
1068 1 0.786419 0.174019 0
1071 1 0.832374 0.1594 0
1042 1 0.85551 0.153628 0
1072 1 0.850511 0.177557 0
1044 1 0.87882 0.148578 0
1075 1 0.901992 0.159082 0
1073 1 0.874548 0.172063 0
1046 1 0.91919 0.141818 0
1048 1 0.943365 0.148508 0
1077 1 0.925971 0.165143 0
1078 1 0.950446 0.172219 0
1079 1 0.96716 0.153218 0
1080 1 0.975623 0.176664 0
151 1 0.991918 0.156794 0
1052 1 0.517044 0.192282 0
1083 1 0.541667 0.200086 0
1082 1 0.523641 0.215309 0
1084 1 0.548817 0.223239 0
1054 1 0.560297 0.183897 0
1056 1 0.585348 0.190772 0
1085 1 0.566895 0.206721 0
1086 1 0.591504 0.213822 0
1087 1 0.608968 0.196363 0
1088 1 0.615216 0.220639 0
1089 1 0.634382 0.201489 0
1060 1 0.654878 0.184606 0
1091 1 0.678142 0.195329 0
1090 1 0.658862 0.209624 0
1119 1 0.639969 0.225394 0
1062 1 0.699492 0.182725 0
1093 1 0.704493 0.205271 0
1092 1 0.684169 0.218468 0
1066 1 0.764561 0.18213 0
1094 1 0.727844 0.210824 0
1095 1 0.742152 0.191376 0
1096 1 0.753698 0.216335 0
1097 1 0.776847 0.202593 0
1099 1 0.802974 0.190835 0
1098 1 0.797649 0.214741 0
1127 1 0.777304 0.227474 0
1100 1 0.820085 0.207351 0
1070 1 0.826822 0.183898 0
1101 1 0.843213 0.201268 0
1102 1 0.858684 0.219462 0
1131 1 0.835052 0.225473 0
1103 1 0.866744 0.195586 0
1074 1 0.889591 0.190742 0
1105 1 0.907288 0.208363 0
1104 1 0.882954 0.214226 0
1076 1 0.911667 0.184269 0
1107 1 0.934563 0.192503 0
1106 1 0.922153 0.227906 0
1108 1 0.947007 0.219437 0
1109 1 0.960387 0.196441 0
1110 1 0.971843 0.218842 0
181 1 0.986214 0.199319 0
211 1 0.996172 0.221855 0
1111 1 0.506014 0.231832 0
1113 1 0.529902 0.239311 0
1112 1 0.512648 0.255536 0
1143 1 0.537128 0.263297 0
1114 1 0.555999 0.247112 0
1115 1 0.573148 0.230158 0
1116 1 0.579884 0.253957 0
1145 1 0.562401 0.27046 0
1117 1 0.597458 0.237703 0
1118 1 0.623542 0.244253 0
1147 1 0.604593 0.261305 0
1149 1 0.628542 0.267622 0
1121 1 0.665237 0.234281 0
1120 1 0.646756 0.250447 0
1151 1 0.670707 0.258334 0
1122 1 0.689602 0.242842 0
1123 1 0.709119 0.228274 0
1124 1 0.715802 0.250775 0
1153 1 0.69581 0.266266 0
1125 1 0.734378 0.234019 0
1126 1 0.758249 0.241921 0
1155 1 0.739835 0.258354 0
1157 1 0.7644 0.2656 0
1128 1 0.784682 0.250829 0
1129 1 0.807952 0.236729 0
1159 1 0.807492 0.261298 0
1130 1 0.828489 0.249139 0
1132 1 0.85151 0.243455 0
1161 1 0.843772 0.267411 0
1133 1 0.874933 0.237921 0
1135 1 0.898385 0.232556 0
1163 1 0.867129 0.262165 0
1134 1 0.890531 0.256534 0
1136 1 0.914227 0.251305 0
1137 1 0.937686 0.246527 0
1167 1 0.93047 0.270025 0