ITEM: TIMESTEP
94000
ITEM: NUMBER OF ATOMS
1800
ITEM: BOX BOUNDS pp pp pp
1.1423015024199970e+00 1.6385769849758049e+02
1.1423015024199970e+00 1.6385769849758049e+02
0.0000000000000000e+00 5.5000000000000000e+00
ITEM: ATOMS id type xs ys zs
2 1 0.0123413 0.0147599 0
3 1 0.0370087 0.00892444 0
33 1 0.0294245 0.033706 0
31 1 0.00607266 0.0386642 0
4 1 0.0534463 0.0264259 0
6 1 0.0766681 0.0222796 0
5 1 0.0608285 0.00248905 0
35 1 0.0706761 0.0466505 0
8 1 0.101401 0.013992 0
37 1 0.094683 0.0395938 0
9 1 0.124525 0.00984265 0
39 1 0.118982 0.033697 0
10 1 0.142525 0.0277689 0
12 1 0.166516 0.0226496 0
11 1 0.148288 0.00359762 0
40 1 0.159616 0.0462539 0
41 1 0.183878 0.0397817 0
14 1 0.208824 0.0340514 0
15 1 0.213989 0.0100179 0
13 1 0.189899 0.016098 0
16 1 0.256074 0.0206208 0
886 1 0.237581 0.00325062 0
47 1 0.274412 0.0394372 0
18 1 0.280139 0.0146778 0
49 1 0.29815 0.0314388 0
19 1 0.304507 0.00580476 0
20 1 0.323038 0.0230732 0
51 1 0.3405 0.039807 0
21 1 0.347183 0.0157244 0
22 1 0.364734 0.0335384 0
24 1 0.390634 0.0278719 0
23 1 0.37158 0.00984401 0
894 1 0.394446 0.00279435 0
25 1 0.413885 0.0207245 0
26 1 0.429973 0.0394656 0
27 1 0.447395 0.020994 0
29 1 0.472772 0.0264947 0
900 1 0.490415 0.00831669 0
898 1 0.465858 0.00303904 0
30 1 0.498232 0.0323034 0
28 1 0.45537 0.0449238 0
32 1 0.0221026 0.0577063 0
62 1 0.0153717 0.0828749 0
63 1 0.039368 0.076411 0
34 1 0.0459212 0.0514883 0
65 1 0.0637211 0.0701153 0
66 1 0.0814345 0.0888972 0
36 1 0.0888487 0.064745 0
38 1 0.112316 0.0576503 0
67 1 0.10564 0.082489 0
68 1 0.129947 0.0767629 0
69 1 0.135997 0.051914 0
71 1 0.153866 0.0703092 0
42 1 0.17796 0.0641548 0
72 1 0.171928 0.0885878 0
43 1 0.201894 0.0583876 0
44 1 0.219862 0.0763603 0
73 1 0.196235 0.0827481 0
45 1 0.2258 0.0530406 0
46 1 0.250478 0.0448972 0
75 1 0.244559 0.0702409 0
77 1 0.2684 0.0635997 0
76 1 0.261304 0.0885214 0
48 1 0.291878 0.0556995 0
79 1 0.309765 0.0724683 0
78 1 0.286152 0.0815167 0
50 1 0.317305 0.0482759 0
81 1 0.334257 0.0652952 0
52 1 0.356997 0.0581578 0
82 1 0.351616 0.0819057 0
80 1 0.326196 0.0897906 0
55 1 0.406798 0.0472667 0
53 1 0.382008 0.0517819 0
83 1 0.374439 0.0745398 0
54 1 0.399647 0.0749308 0
57 1 0.438032 0.0631806 0
56 1 0.424249 0.0829114 0
87 1 0.447974 0.08794 0
59 1 0.479944 0.0505528 0
58 1 0.463108 0.0687018 0
89 1 0.488135 0.074223 0
92 1 0.0258221 0.124392 0
93 1 0.0337361 0.0997796 0
91 1 0.00937677 0.106265 0
121 1 0.00301054 0.130364 0
64 1 0.0571838 0.0938959 0
94 1 0.050307 0.118047 0
95 1 0.0740598 0.112732 0
96 1 0.0919568 0.130296 0
97 1 0.0988382 0.106196 0
98 1 0.115242 0.124243 0
99 1 0.122262 0.100251 0
70 1 0.148153 0.0949839 0
100 1 0.139541 0.118107 0
101 1 0.16455 0.1137 0
103 1 0.188855 0.106149 0
102 1 0.196712 0.128177 0
105 1 0.213408 0.105724 0
104 1 0.220179 0.135154 0
74 1 0.2369 0.0933159 0
106 1 0.237339 0.117539 0
137 1 0.261356 0.124183 0
109 1 0.303323 0.100264 0
107 1 0.279067 0.106735 0
108 1 0.285245 0.130912 0
110 1 0.322922 0.117517 0
111 1 0.343951 0.105717 0
141 1 0.348284 0.130056 0
84 1 0.384194 0.0955897 0
113 1 0.366396 0.112905 0
112 1 0.390214 0.118523 0
85 1 0.407726 0.0999224 0
115 1 0.414038 0.124104 0
86 1 0.431535 0.106224 0
116 1 0.437633 0.130551 0
117 1 0.455544 0.112291 0
88 1 0.472023 0.0931592 0
119 1 0.479437 0.117319 0
90 1 0.496668 0.0983634 0
118 1 0.461354 0.135537 0
122 1 0.0183374 0.149408 0
153 1 0.0365635 0.166156 0
152 1 0.0120622 0.173481 0
123 1 0.0433979 0.142712 0
125 1 0.0673775 0.136357 0
124 1 0.0607704 0.160493 0
126 1 0.0845699 0.155194 0
155 1 0.0778994 0.178893 0
127 1 0.108486 0.147924 0
128 1 0.124512 0.165129 0
157 1 0.102192 0.173801 0
129 1 0.132449 0.141583 0
130 1 0.155478 0.136778 0
159 1 0.158252 0.16168 0
131 1 0.177883 0.145518 0
160 1 0.142146 0.181009 0
132 1 0.182912 0.169885 0
133 1 0.201026 0.152961 0
163 1 0.206639 0.177642 0
134 1 0.224505 0.159871 0
135 1 0.243406 0.141836 0
136 1 0.265925 0.148993 0
165 1 0.247897 0.166512 0
167 1 0.272459 0.173614 0
139 1 0.309207 0.138165 0
138 1 0.289636 0.155771 0
169 1 0.314322 0.163218 0
168 1 0.296437 0.180531 0
140 1 0.331974 0.147236 0
142 1 0.356166 0.154212 0
171 1 0.337591 0.17112 0
172 1 0.362628 0.177859 0
143 1 0.3725 0.136621 0
114 1 0.396617 0.142534 0
144 1 0.40411 0.166536 0
173 1 0.379584 0.160065 0
145 1 0.420429 0.148306 0
146 1 0.427662 0.171461 0
147 1 0.445911 0.154022 0
177 1 0.452652 0.17807 0
149 1 0.485944 0.141391 0
148 1 0.469612 0.15996 0
150 1 0.494283 0.16491 0
183 1 0.0290826 0.19057 0
182 1 0.0229727 0.21439 0
181 1 0.00548133 0.19795 0
184 1 0.0466127 0.208171 0
154 1 0.0543519 0.184783 0
185 1 0.0723049 0.203436 0
215 1 0.0635986 0.225476 0
186 1 0.0884336 0.223003 0
156 1 0.0964391 0.198378 0
158 1 0.121415 0.19551 0
187 1 0.126806 0.219556 0
161 1 0.165528 0.187219 0
189 1 0.144894 0.204668 0
191 1 0.169657 0.211578 0
162 1 0.188262 0.195145 0
193 1 0.211656 0.202264 0
192 1 0.193198 0.219175 0
194 1 0.21768 0.225366 0
164 1 0.229912 0.184222 0
195 1 0.236057 0.208256 0
166 1 0.254602 0.191574 0
196 1 0.260784 0.215462 0
197 1 0.279073 0.198365 0
199 1 0.303097 0.205089 0
198 1 0.284479 0.223041 0
170 1 0.319802 0.187614 0
201 1 0.344258 0.194131 0
200 1 0.326744 0.212187 0
202 1 0.349943 0.218794 0
174 1 0.386718 0.183935 0
203 1 0.368475 0.20129 0
233 1 0.375405 0.224949 0
204 1 0.393009 0.207238 0
175 1 0.41091 0.190146 0
205 1 0.417198 0.213724 0
176 1 0.433649 0.196016 0
207 1 0.441015 0.219687 0
179 1 0.476376 0.184021 0
178 1 0.457881 0.202356 0
209 1 0.483407 0.207924 0
208 1 0.46574 0.225918 0
212 1 0.0272386 0.258405 0
211 1 0.0160367 0.23774 0
213 1 0.0401624 0.234364 0
243 1 0.0510592 0.266009 0
214 1 0.0680984 0.249775 0
216 1 0.0918108 0.256292 0
217 1 0.108827 0.238558 0
218 1 0.1154 0.262796 0
188 1 0.132874 0.244797 0
190 1 0.150904 0.228788 0
219 1 0.139404 0.269462 0
221 1 0.175234 0.235654 0
220 1 0.157509 0.253015 0
222 1 0.180811 0.260645 0
223 1 0.199274 0.242845 0
253 1 0.205483 0.2674 0
224 1 0.223802 0.249888 0
225 1 0.242008 0.233257 0
227 1 0.266085 0.239753 0
226 1 0.247656 0.257668 0
257 1 0.272252 0.264503 0
229 1 0.308635 0.229819 0
228 1 0.290238 0.247759 0
259 1 0.296814 0.272075 0
230 1 0.315004 0.252886 0
231 1 0.332809 0.236812 0
232 1 0.357358 0.242562 0
261 1 0.340541 0.259978 0
263 1 0.364254 0.267207 0
235 1 0.39963 0.231366 0
234 1 0.38255 0.248987 0
265 1 0.406734 0.255093 0
206 1 0.424047 0.237555 0
237 1 0.448135 0.24395 0
236 1 0.430619 0.261452 0
238 1 0.455228 0.2679 0
210 1 0.490886 0.232049 0
239 1 0.473335 0.24998 0
240 1 0.497587 0.255761 0
241 1 0.0073846 0.27403 0
242 1 0.0324875 0.282014 0
273 1 0.0370091 0.305923 0
271 1 0.0124837 0.298772 0
245 1 0.0744082 0.273792 0
244 1 0.0554959 0.289996 0
246 1 0.0790889 0.298007 0
275 1 0.061203 0.314522 0
247 1 0.0978875 0.279647 0
249 1 0.122076 0.287701 0
248 1 0.103333 0.303965 0
279 1 0.127411 0.311314 0
251 1 0.163306 0.277408 0
250 1 0.145965 0.294113 0
281 1 0.169611 0.301616 0
252 1 0.187586 0.284477 0
254 1 0.212662 0.291529 0
283 1 0.195254 0.309629 0
284 1 0.218917 0.315859 0
255 1 0.230425 0.274818 0
256 1 0.254304 0.281687 0
285 1 0.236504 0.298811 0
287 1 0.262108 0.306344 0
258 1 0.280038 0.289298 0
288 1 0.286485 0.313248 0
289 1 0.304636 0.295751 0
260 1 0.322281 0.27832 0
262 1 0.347015 0.284086 0
291 1 0.330057 0.301795 0
292 1 0.354179 0.308836 0
264 1 0.38893 0.272737 0
293 1 0.371324 0.29116 0
295 1 0.395369 0.296561 0
294 1 0.37793 0.315486 0
266 1 0.413149 0.279106 0
267 1 0.437931 0.285776 0
297 1 0.420512 0.303402 0
298 1 0.443848 0.310367 0
269 1 0.480226 0.273692 0
268 1 0.462603 0.290904 0
270 1 0.486201 0.298267 0
299 1 0.468163 0.315657 0
1200 1 0.0184406 0.322753 0
272 1 0.042281 0.329771 0
301 1 0.0242131 0.347002 0
1230 1 0.00606938 0.363189 0
276 1 0.0856644 0.322441 0
303 1 0.0487384 0.354635 0
274 1 0.0670711 0.338676 0
304 1 0.0725402 0.363633 0
305 1 0.0905993 0.346586 0
277 1 0.109253 0.328403 0
278 1 0.133261 0.335927 0
307 1 0.114562 0.351857 0
280 1 0.152388 0.318565 0
282 1 0.176264 0.325684 0
309 1 0.139889 0.359596 0
311 1 0.158482 0.343001 0
312 1 0.18233 0.349709 0
313 1 0.200822 0.332822 0
314 1 0.206035 0.356959 0
315 1 0.225016 0.339282 0
286 1 0.242761 0.322575 0
317 1 0.268404 0.330584 0
316 1 0.248935 0.346529 0
290 1 0.311925 0.318771 0
318 1 0.275325 0.353676 0
319 1 0.292952 0.336247 0
349 1 0.298866 0.361093 0
320 1 0.316595 0.343808 0
321 1 0.336078 0.326547 0
323 1 0.359819 0.33385 0
322 1 0.341083 0.350835 0
324 1 0.365933 0.357382 0
296 1 0.402308 0.320352 0
325 1 0.384158 0.339908 0
326 1 0.407823 0.345674 0
327 1 0.426626 0.327493 0
328 1 0.431714 0.350623 0
329 1 0.450865 0.333544 0
359 1 0.456217 0.358359 0
300 1 0.49241 0.322678 0
330 1 0.47528 0.340798 0
1201 1 0.500162 0.346158 0
360 1 0.481018 0.364578 0
302 1 0.0301883 0.371346 0
332 1 0.03556 0.396133 0
331 1 0.0122253 0.387444 0
333 1 0.0539618 0.379929 0
335 1 0.0777148 0.387226 0
334 1 0.0597461 0.403847 0
306 1 0.0970055 0.369886 0
308 1 0.121776 0.376025 0
337 1 0.102286 0.393857 0
338 1 0.126745 0.400586 0
310 1 0.163528 0.366294 0
339 1 0.146056 0.383728 0
341 1 0.168901 0.39126 0
340 1 0.150549 0.408256 0
343 1 0.187872 0.374259 0
342 1 0.194568 0.398075 0
344 1 0.212756 0.381373 0
373 1 0.218242 0.405932 0
345 1 0.231132 0.363666 0
347 1 0.256317 0.370047 0
346 1 0.237099 0.387998 0
377 1 0.261656 0.394064 0
348 1 0.280102 0.377353 0
350 1 0.304934 0.385176 0
378 1 0.286009 0.401599 0
379 1 0.311091 0.409251 0
351 1 0.322302 0.368285 0
381 1 0.329825 0.391944 0
353 1 0.347421 0.37499 0
352 1 0.355122 0.398932 0
355 1 0.389857 0.364837 0
354 1 0.372421 0.382072 0
385 1 0.378662 0.405998 0
356 1 0.396386 0.388826 0
387 1 0.421618 0.394351 0
357 1 0.414389 0.370343 0
358 1 0.439304 0.376454 0
388 1 0.445219 0.400005 0
389 1 0.463486 0.382476 0
1232 1 0.487743 0.38774 0
1261 1 0.469781 0.406776 0
361 1 0.0169588 0.412107 0
362 1 0.0241471 0.437331 0
363 1 0.0417666 0.420792 0
392 1 0.00499994 0.453441 0
391 1 -0.000917341 0.429134 0
336 1 0.0849575 0.411604 0
364 1 0.0484243 0.445255 0
365 1 0.0664754 0.428 0
395 1 0.0719764 0.452518 0
366 1 0.0910727 0.435772 0
367 1 0.109519 0.418101 0
368 1 0.114805 0.442881 0
369 1 0.13341 0.425551 0
371 1 0.175016 0.416241 0
399 1 0.139116 0.450205 0
370 1 0.156899 0.432984 0
401 1 0.181093 0.439739 0
372 1 0.199046 0.423293 0
403 1 0.205746 0.447841 0
374 1 0.223778 0.430281 0
375 1 0.242361 0.412434 0
376 1 0.267055 0.418507 0
405 1 0.248453 0.436704 0
407 1 0.272911 0.442852 0
409 1 0.292367 0.426041 0
410 1 0.297732 0.449504 0
380 1 0.317452 0.432772 0
382 1 0.33598 0.415986 0
383 1 0.360223 0.423555 0
413 1 0.341082 0.43972 0
386 1 0.402732 0.412755 0
384 1 0.383706 0.430181 0
414 1 0.366404 0.448425 0
417 1 0.408877 0.436956 0
418 1 0.432945 0.443658 0
419 1 0.42623 0.418959 0
390 1 0.45144 0.423877 0
420 1 0.457756 0.448144 0
1262 1 0.494321 0.412447 0
1291 1 0.476443 0.430258 0
393 1 0.0293001 0.462953 0
422 1 0.00993244 0.478582 0
423 1 0.0352799 0.487337 0
394 1 0.0544417 0.470802 0
396 1 0.0786123 0.476883 0
425 1 0.060505 0.494367 0
397 1 0.097456 0.459584 0
398 1 0.12122 0.467163 0
427 1 0.102773 0.483686 0
428 1 0.127453 0.491462 0
400 1 0.162652 0.457466 0
429 1 0.146193 0.474614 0
431 1 0.169925 0.482173 0
402 1 0.187613 0.46446 0
432 1 0.193134 0.489613 0
433 1 0.21183 0.472738 0
434 1 0.217789 0.497039 0
404 1 0.229561 0.454434 0
406 1 0.254856 0.460655 0
435 1 0.235974 0.479036 0
436 1 0.260512 0.48392 0
408 1 0.279346 0.467114 0
439 1 0.285575 0.491029 0
440 1 0.310589 0.498534 0
441 1 0.30415 0.47432 0
411 1 0.322367 0.457058 0
412 1 0.347426 0.464706 0
442 1 0.32926 0.481398 0
473 1 0.353146 0.489476 0
415 1 0.391065 0.455488 0
443 1 0.37364 0.472404 0
445 1 0.39732 0.479911 0
444 1 0.377801 0.4974 0
446 1 0.421203 0.488148 0
416 1 0.415282 0.461997 0
447 1 0.439283 0.468022 0
448 1 0.445837 0.492274 0
450 1 0.489274 0.478759 0
479 1 0.470823 0.496134 0
449 1 0.463179 0.472704 0
1321 1 0.480838 0.454196 0
454 1 0.0219808 0.527092 0
453 1 0.0161446 0.50285 0
424 1 0.0416412 0.511088 0
483 1 0.00308553 0.544547 0
485 1 0.046767 0.535523 0
455 1 0.0665512 0.518799 0
426 1 0.0852051 0.500935 0
486 1 0.0707126 0.5441 0
456 1 0.0900125 0.525322 0
457 1 0.108851 0.508992 0
459 1 0.13349 0.51592 0
458 1 0.114436 0.533746 0
489 1 0.138021 0.541634 0
460 1 0.156773 0.524014 0
461 1 0.174912 0.507496 0
430 1 0.151757 0.499097 0
462 1 0.181144 0.531498 0
493 1 0.205259 0.540831 0
463 1 0.199794 0.514457 0
464 1 0.223482 0.522801 0
466 1 0.2462 0.531633 0
465 1 0.242232 0.504825 0
437 1 0.267148 0.506904 0
467 1 0.271704 0.529573 0
468 1 0.296079 0.538958 0
438 1 0.292079 0.515446 0
469 1 0.315849 0.52325 0
470 1 0.339725 0.530693 0
472 1 0.358801 0.51399 0
471 1 0.334573 0.506373 0
503 1 0.363352 0.539003 0
474 1 0.382343 0.523381 0
475 1 0.401375 0.505415 0
476 1 0.406644 0.530837 0
477 1 0.426132 0.513414 0
507 1 0.429455 0.540334 0
478 1 0.454024 0.516007 0
480 1 0.4642 0.538719 0
1381 1 0.479301 0.519606 0
1351 1 0.496567 0.503163 0
510 1 0.487948 0.543975 0
482 1 0.0097851 0.568085 0
513 1 0.0284556 0.551693 0
514 1 0.0331568 0.578348 0
484 1 0.0518637 0.560598 0
515 1 0.0751193 0.568171 0
545 1 0.056939 0.585798 0
487 1 0.0950472 0.550397 0
488 1 0.118318 0.559158 0
517 1 0.0987386 0.575322 0
519 1 0.122547 0.584752 0
491 1 0.162617 0.548321 0
490 1 0.14277 0.56494 0
520 1 0.146992 0.588489 0
521 1 0.165778 0.57283 0
492 1 0.185243 0.556852 0
523 1 0.188803 0.581482 0
494 1 0.208564 0.566581 0
495 1 0.229101 0.549364 0
525 1 0.232229 0.576756 0
496 1 0.252641 0.562531 0
526 1 0.254684 0.589246 0
497 1 0.274509 0.553345 0
527 1 0.276793 0.576852 0
498 1 0.297912 0.563222 0
529 1 0.3005 0.586382 0
499 1 0.318962 0.547075 0
500 1 0.320755 0.571978 0
501 1 0.341159 0.55639 0
531 1 0.34334 0.580509 0
502 1 0.363997 0.563935 0
505 1 0.386524 0.547944 0
504 1 0.387226 0.573225 0
533 1 0.365877 0.589357 0
535 1 0.40888 0.585299 0
506 1 0.40993 0.557362 0
508 1 0.428791 0.57137 0
509 1 0.44717 0.555961 0
539 1 0.453491 0.581725 0
540 1 0.471875 0.562907 0
1441 1 0.496179 0.568124 0
569 1 0.479756 0.586771 0
512 1 0.0148903 0.593224 0
542 1 0.0196949 0.618654 0
543 1 0.0391704 0.602928 0
544 1 0.044035 0.627474 0
571 1 -0.000901126 0.634483 0
546 1 0.0639592 0.611008 0
516 1 0.0809234 0.592531 0
547 1 0.0872349 0.622528 0
518 1 0.103098 0.601714 0
548 1 0.127343 0.609629 0
577 1 0.110757 0.631787 0
522 1 0.170035 0.597504 0
549 1 0.15179 0.612434 0
551 1 0.173575 0.622353 0
524 1 0.212545 0.591716 0
553 1 0.192588 0.605853 0
552 1 0.196062 0.631974 0
554 1 0.21462 0.617299 0
555 1 0.234517 0.603133 0
556 1 0.236931 0.627798 0
557 1 0.259618 0.61382 0
528 1 0.280129 0.600671 0
559 1 0.302543 0.610809 0
558 1 0.281667 0.624875 0
560 1 0.304187 0.6352 0
530 1 0.322949 0.596276 0
561 1 0.325777 0.62054 0
532 1 0.345548 0.604871 0
562 1 0.347246 0.631555 0
563 1 0.367043 0.615479 0
534 1 0.387284 0.599204 0
565 1 0.389941 0.625106 0
536 1 0.409277 0.609699 0
537 1 0.433038 0.596018 0
567 1 0.431275 0.619585 0
568 1 0.453461 0.626925 0
566 1 0.412354 0.635149 0
538 1 0.462751 0.60498 0
570 1 0.490433 0.6117 0
600 1 0.476328 0.631403 0
1501 1 0.500465 0.635872 0
573 1 0.0235397 0.643587 0
603 1 0.0264988 0.66949 0
572 1 0.00387201 0.659221 0
575 1 0.0675396 0.638249 0
574 1 0.0463872 0.652457 0
604 1 0.048323 0.679165 0
605 1 0.0686485 0.664224 0
576 1 0.0899173 0.648965 0
607 1 0.0917539 0.674855 0
578 1 0.111427 0.662202 0
579 1 0.131856 0.648192 0
609 1 0.134348 0.673131 0
550 1 0.152524 0.636388 0
581 1 0.17587 0.647306 0
580 1 0.155111 0.660737 0
611 1 0.178133 0.671715 0
583 1 0.218082 0.642908 0
582 1 0.198853 0.657653 0
584 1 0.22065 0.667509 0
613 1 0.200604 0.682468 0
587 1 0.260688 0.638339 0
585 1 0.240705 0.653096 0
586 1 0.264225 0.664225 0
615 1 0.243163 0.677172 0
589 1 0.284078 0.649454 0
588 1 0.287248 0.674487 0
590 1 0.306178 0.65935 0
591 1 0.326617 0.64564 0
593 1 0.350566 0.655942 0
621 1 0.330764 0.670789 0
592 1 0.353926 0.68057 0
564 1 0.370242 0.640699 0
594 1 0.37366 0.665351 0
595 1 0.392966 0.650397 0
625 1 0.397149 0.674148 0
596 1 0.416844 0.659419 0
597 1 0.435195 0.644449 0
598 1 0.440015 0.667847 0
599 1 0.458868 0.650568 0
629 1 0.482694 0.655295 0
628 1 0.465517 0.674099 0
630 1 0.489221 0.679572 0
602 1 0.00612047 0.684718 0
633 1 0.0286476 0.695186 0
632 1 0.00874983 0.709814 0
634 1 0.0302925 0.720164 0
606 1 0.071101 0.69001 0
635 1 0.0503579 0.704397 0
636 1 0.0721033 0.716025 0
637 1 0.0933043 0.701415 0
608 1 0.113419 0.688064 0
638 1 0.115689 0.712625 0
639 1 0.135834 0.698123 0
667 1 0.0944938 0.727057 0
640 1 0.136789 0.724655 0
610 1 0.157183 0.68481 0
641 1 0.15828 0.709988 0
612 1 0.179158 0.696335 0
642 1 0.181153 0.720866 0
614 1 0.223388 0.69208 0
643 1 0.20238 0.706063 0
645 1 0.224705 0.716403 0
617 1 0.266913 0.689224 0
616 1 0.245293 0.702208 0
647 1 0.268112 0.713327 0
619 1 0.310055 0.684757 0
618 1 0.28925 0.698947 0
620 1 0.31356 0.707989 0
649 1 0.290864 0.723045 0
622 1 0.33485 0.696061 0
651 1 0.336241 0.720071 0
653 1 0.359049 0.706216 0
623 1 0.377864 0.690781 0
624 1 0.382259 0.716204 0
626 1 0.400858 0.6994 0
655 1 0.40982 0.721973 0
627 1 0.420009 0.685868 0
657 1 0.447316 0.691683 0
656 1 0.43045 0.709334 0
658 1 0.453372 0.716364 0
659 1 0.471791 0.697769 0
1531 1 0.496825 0.703133 0
660 1 0.478771 0.721094 0
662 1 0.0107242 0.758992 0
663 1 0.00937805 0.734294 0
664 1 0.0311075 0.744329 0
694 1 0.0329547 0.76934 0
665 1 0.0519712 0.730487 0
666 1 0.073977 0.740998 0
695 1 0.0532016 0.755553 0
697 1 0.075429 0.767395 0
669 1 0.116353 0.738031 0
668 1 0.0958033 0.75225 0
699 1 0.118078 0.762433 0
670 1 0.140085 0.749329 0
671 1 0.160017 0.735244 0
672 1 0.161319 0.761209 0
673 1 0.181594 0.747191 0
644 1 0.203036 0.731365 0
674 1 0.205027 0.75689 0
703 1 0.184222 0.771797 0
675 1 0.226381 0.741372 0
705 1 0.226457 0.767396 0
646 1 0.246948 0.727306 0
677 1 0.248236 0.752022 0
648 1 0.269056 0.738488 0
678 1 0.270066 0.763803 0
650 1 0.314255 0.731624 0
679 1 0.290734 0.751959 0
681 1 0.315264 0.755485 0
652 1 0.337595 0.744662 0
682 1 0.335493 0.769761 0
683 1 0.358363 0.759558 0
654 1 0.359967 0.731569 0
685 1 0.380748 0.750719 0
715 1 0.400877 0.769733 0
686 1 0.404425 0.745792 0
687 1 0.433406 0.734319 0
717 1 0.42436 0.760561 0
688 1 0.447793 0.759896 0
689 1 0.462944 0.740543 0
690 1 0.488127 0.744144 0
719 1 0.472148 0.763317 0
1591 1 0.495827 0.767641 0
693 1 0.0111871 0.784281 0
692 1 0.0126065 0.808335 0
723 1 0.0335 0.794058 0
696 1 0.0541845 0.780641 0
725 1 0.0563364 0.80484 0
727 1 0.077381 0.791915 0
726 1 0.0786536 0.817152 0
698 1 0.0980729 0.777107 0
728 1 0.099732 0.802311 0
729 1 0.121725 0.813602 0
700 1 0.11998 0.78816 0
701 1 0.14038 0.774178 0
702 1 0.163384 0.785171 0
731 1 0.143059 0.799723 0
732 1 0.165569 0.8102 0
704 1 0.206871 0.782456 0
733 1 0.18666 0.796449 0
735 1 0.209891 0.807471 0
706 1 0.230237 0.793514 0
676 1 0.248668 0.775954 0
737 1 0.257127 0.815186 0
707 1 0.265612 0.792238 0
680 1 0.311528 0.779326 0
709 1 0.287371 0.781209 0
708 1 0.282488 0.809202 0
710 1 0.306351 0.802772 0
711 1 0.330513 0.79449 0
712 1 0.349442 0.810771 0
713 1 0.354135 0.785245 0
741 1 0.326017 0.819592 0
684 1 0.377248 0.776508 0
714 1 0.3971 0.794492 0
743 1 0.373211 0.80119 0
716 1 0.420089 0.786675 0
747 1 0.439678 0.801905 0
746 1 0.416664 0.812857 0
718 1 0.455486 0.782253 0
720 1 0.480881 0.787456 0
749 1 0.464051 0.806621 0
1621 1 0.489598 0.810644 0
722 1 0.0365363 0.81819 0
751 1 0.0174198 0.832299 0
752 1 0.0159358 0.858124 0
753 1 0.037253 0.845994 0
724 1 0.0577212 0.830782 0
755 1 0.0797821 0.84266 0
754 1 0.0579729 0.858656 0
756 1 0.102672 0.852193 0
757 1 0.100328 0.827122 0
759 1 0.122842 0.838358 0
730 1 0.143401 0.824219 0
760 1 0.147263 0.850485 0
761 1 0.165493 0.834307 0
763 1 0.187779 0.821073 0
734 1 0.209646 0.832577 0
762 1 0.186836 0.845505 0
764 1 0.206794 0.857276 0
736 1 0.231815 0.819908 0
767 1 0.252928 0.840212 0
765 1 0.229799 0.847515 0
768 1 0.272237 0.857206 0
739 1 0.30229 0.826466 0
738 1 0.277261 0.833403 0
769 1 0.296674 0.850583 0
740 1 0.320849 0.843531 0
771 1 0.338831 0.860238 0
742 1 0.343791 0.8363 0
773 1 0.362593 0.851984 0
745 1 0.391694 0.819844 0
744 1 0.367785 0.827729 0
774 1 0.386365 0.844424 0
775 1 0.409662 0.835899 0
777 1 0.431749 0.844195 0
748 1 0.447094 0.825219 0
776 1 0.410481 0.861805 0
750 1 0.472537 0.829491 0
779 1 0.4568 0.84814 0
780 1 0.48091 0.853467 0
1651 1 0.497305 0.834498 0
812 1 -4.78007e-05 0.906141 0
783 1 0.0369143 0.871634 0
782 1 0.00800608 0.881343 0
813 1 0.027444 0.896316 0
785 1 0.08089 0.868024 0
784 1 0.0591024 0.883868 0
786 1 0.0839932 0.892628 0
758 1 0.126011 0.863478 0
787 1 0.10418 0.87627 0
788 1 0.127006 0.887662 0
817 1 0.106729 0.901244 0
791 1 0.170357 0.863754 0
789 1 0.148591 0.875846 0
819 1 0.148155 0.90054 0
790 1 0.170845 0.889754 0
792 1 0.19694 0.880107 0
793 1 0.21622 0.896518 0
823 1 0.192291 0.904875 0
795 1 0.224254 0.873115 0
766 1 0.247922 0.865099 0
796 1 0.243486 0.889266 0
827 1 0.261415 0.905975 0
797 1 0.267195 0.880902 0
799 1 0.291253 0.87429 0
798 1 0.284713 0.899109 0
800 1 0.309265 0.891993 0
770 1 0.315263 0.867275 0
801 1 0.332576 0.885019 0
802 1 0.350595 0.901315 0
772 1 0.356331 0.877164 0
803 1 0.380316 0.869261 0
805 1 0.398454 0.884819 0
804 1 0.375267 0.89395 0
778 1 0.440507 0.867063 0
807 1 0.422804 0.88397 0
808 1 0.448923 0.890774 0
837 1 0.430676 0.909921 0
809 1 0.464975 0.871877 0
1681 1 0.489149 0.876427 0
810 1 0.472686 0.89514 0
1711 1 0.497653 0.899942 0
842 1 0.0107627 0.948367 0
843 1 0.0174964 0.922862 0
844 1 0.034292 0.941411 0
814 1 0.0406546 0.916937 0
815 1 0.0651608 0.909267 0
816 1 0.0820936 0.92874 0
845 1 0.0580047 0.933741 0
846 1 0.0752811 0.953179 0
818 1 0.128336 0.915584 0
847 1 0.106377 0.925678 0
849 1 0.124142 0.941828 0
848 1 0.0987495 0.948042 0
821 1 0.168583 0.91417 0
820 1 0.148021 0.932532 0
851 1 0.165913 0.950841 0
794 1 0.211255 0.920748 0
824 1 0.206698 0.945013 0
822 1 0.187742 0.929304 0
825 1 0.235933 0.912212 0
855 1 0.230303 0.936501 0
826 1 0.253958 0.929921 0
829 1 0.302532 0.915739 0
828 1 0.279397 0.923468 0
857 1 0.272687 0.947437 0
859 1 0.296896 0.940497 0
831 1 0.327301 0.908314 0
830 1 0.320718 0.933596 0
832 1 0.345538 0.92669 0
861 1 0.33959 0.949808 0
863 1 0.363567 0.943378 0
806 1 0.394239 0.910965 0
833 1 0.369409 0.918014 0
834 1 0.386888 0.934925 0
865 1 0.40338 0.952476 0
835 1 0.414295 0.929076 0
838 1 0.439895 0.93195 0
836 1 0.426932 0.951238 0
839 1 0.456689 0.914341 0
840 1 0.4815 0.918633 0
1741 1 0.489704 0.94213 0
869 1 0.465256 0.937512 0
872 1 0.0204172 0.990464 0
873 1 0.0275892 0.966511 0
871 1 0.00262213 0.972684 0
874 1 0.0443147 0.984165 0
875 1 0.0512649 0.95885 0
876 1 0.0679117 0.977666 0
7 1 0.0844035 0.996471 0
877 1 0.0911951 0.97207 0
878 1 0.107971 0.991011 0
879 1 0.116984 0.965219 0
880 1 0.131193 0.985852 0
850 1 0.141994 0.959023 0
881 1 0.154939 0.979751 0
882 1 0.171721 0.998251 0
852 1 0.178551 0.974153 0
853 1 0.20184 0.968407 0
883 1 0.195807 0.992188 0
884 1 0.220662 0.986113 0
854 1 0.225494 0.961556 0
856 1 0.248377 0.954214 0
885 1 0.244049 0.979104 0
17 1 0.262099 0.996193 0
887 1 0.268301 0.972403 0
860 1 0.316679 0.957732 0
858 1 0.29179 0.964088 0
888 1 0.285791 0.989264 0
889 1 0.309679 0.981517 0
862 1 0.358082 0.967679 0
891 1 0.333831 0.975289 0
892 1 0.354324 0.991997 0
890 1 0.328645 0.998268 0
864 1 0.381366 0.961149 0
893 1 0.37812 0.984817 0
895 1 0.401441 0.976446 0
867 1 0.450401 0.956835 0
866 1 0.432589 0.974487 0
896 1 0.417434 0.994827 0
897 1 0.441984 0.997129 0
868 1 0.458378 0.979806 0
1771 1 0.499261 0.966135 0
870 1 0.474319 0.960766 0
899 1 0.482591 0.984336 0
902 1 0.539097 0.0201027 0
931 1 0.522921 0.0388463 0
901 1 0.514769 0.0134771 0
904 1 0.564106 0.0253866 0
906 1 0.579774 0.0059724 0
935 1 0.587487 0.0316473 0
905 1 0.555463 0.000638019 0
933 1 0.547502 0.0441423 0
908 1 0.60363 0.012666 0
937 1 0.611595 0.036201 0
939 1 0.628644 0.0181989 0
938 1 0.635194 0.0413085 0
940 1 0.652885 0.0247379 0
971 1 0.67777 0.0294821 0
942 1 0.670354 0.00566453 0
943 1 0.701459 0.0053155 0
944 1 0.701272 0.0348654 0
945 1 0.721597 0.0213586 0
947 1 0.744845 0.0148455 0
948 1 0.762242 0.0341424 0
918 1 0.768758 0.00888319 0
946 1 0.738102 0.0385951 0
919 1 0.792743 0.00313354 0
949 1 0.786253 0.0284009 0
920 1 0.809657 0.0212665 0
951 1 0.83359 0.0154543 0
952 1 0.850134 0.0341721 0
922 1 0.858079 0.0106968 0
950 1 0.826446 0.0396544 0
953 1 0.875252 0.0280112 0
955 1 0.899002 0.0209019 0
924 1 0.881802 0.00308979 0
926 1 0.924204 0.0156211 0
928 1 0.947395 0.00890631 0
957 1 0.940474 0.0329561 0
956 1 0.916203 0.0396289 0
930 1 0.98829 0.0214223 0
959 1 0.965023 0.027391 0
929 1 0.971708 0.002743 0
960 1 0.981596 0.0458016 0
932 1 0.530324 0.0623498 0
962 1 0.537247 0.0872288 0
961 1 0.513479 0.0804757 0
60 1 0.505288 0.056999 0
934 1 0.571134 0.0490768 0
963 1 0.554798 0.0680685 0
965 1 0.579052 0.0733135 0
936 1 0.595668 0.0553241 0
966 1 0.603228 0.0788545 0
967 1 0.620222 0.0607573 0
968 1 0.627247 0.0846693 0
969 1 0.64371 0.0666043 0
970 1 0.659529 0.0476963 0
972 1 0.667123 0.0718431 0
975 1 0.707404 0.0605613 0
973 1 0.682832 0.0530641 0
1003 1 0.691957 0.0777598 0
1004 1 0.72046 0.0854436 0
974 1 0.730828 0.0630251 0
976 1 0.754403 0.0574747 0
1005 1 0.746187 0.0813959 0
1007 1 0.770227 0.0753489 0
979 1 0.803162 0.0460773 0
977 1 0.77854 0.0522651 0
978 1 0.795231 0.06996 0
1009 1 0.811906 0.087413 0
980 1 0.819653 0.0641573 0
981 1 0.843572 0.0580919 0
1011 1 0.836438 0.0821116 0
982 1 0.860855 0.0755321 0
954 1 0.892868 0.0459148 0
983 1 0.867829 0.0521425 0
984 1 0.885493 0.0704826 0
1015 1 0.901958 0.0886715 0
985 1 0.909877 0.0641461 0
986 1 0.926374 0.083108 0
987 1 0.933777 0.0583733 0
988 1 0.949151 0.0770444 0
958 1 0.957414 0.0521281 0
989 1 0.974042 0.071098 0
990 1 0.991686 0.0882111 0
61 1 0.998229 0.0647583 0
991 1 0.520662 0.105078 0
992 1 0.529518 0.129439 0
120 1 0.504964 0.12332 0
993 1 0.545621 0.110032 0
964 1 0.561893 0.091875 0
994 1 0.569348 0.115439 0
995 1 0.586337 0.0973051 0
1023 1 0.553001 0.134869 0
996 1 0.593903 0.121352 0
997 1 0.610981 0.103572 0
1027 1 0.61788 0.128232 0
998 1 0.634719 0.109841 0
999 1 0.650805 0.0913609 0
1000 1 0.659395 0.114602 0
1001 1 0.675586 0.0962816 0
1029 1 0.642828 0.133757 0
1031 1 0.683207 0.120576 0
1002 1 0.701557 0.102287 0
1033 1 0.707266 0.126558 0
1006 1 0.76269 0.0991899 0
1035 1 0.737504 0.104243 0
1036 1 0.755719 0.122979 0
1034 1 0.731914 0.130829 0
1037 1 0.780793 0.116557 0
1008 1 0.78788 0.0936917 0
1039 1 0.804619 0.111341 0
1038 1 0.796777 0.135545 0
1010 1 0.828867 0.105087 0
1012 1 0.853241 0.100825 0
1041 1 0.846051 0.124191 0
1040 1 0.821123 0.129216 0
1043 1 0.86977 0.118009 0
1013 1 0.877501 0.094779 0
1014 1 0.894513 0.112777 0
1016 1 0.911096 0.130845 0
1017 1 0.918803 0.106803 0
1018 1 0.943411 0.101019 0
1047 1 0.935969 0.125095 0
1019 1 0.96719 0.0942663 0
1020 1 0.984856 0.113286 0
1049 1 0.960131 0.118447 0
1050 1 0.977334 0.137437 0
1022 1 0.535222 0.153288 0
1053 1 0.542691 0.17714 0
1051 1 0.518676 0.170938 0
1021 1 0.511367 0.147014 0
1025 1 0.577381 0.139631 0
1024 1 0.559561 0.157918 0
1055 1 0.583963 0.163829 0
1026 1 0.60078 0.14754 0
1028 1 0.625384 0.152541 0
1057 1 0.608281 0.171708 0
1058 1 0.633256 0.1761 0
1059 1 0.649837 0.157417 0
1030 1 0.66727 0.139277 0
1061 1 0.674341 0.163048 0
1060 1 0.657943 0.182116 0
1032 1 0.690722 0.144705 0
1063 1 0.715854 0.149996 0
1062 1 0.698409 0.168931 0
1064 1 0.724312 0.173238 0
1065 1 0.743032 0.154621 0
1066 1 0.766119 0.16501 0
1067 1 0.772593 0.140374 0
1095 1 0.748211 0.181557 0
1068 1 0.790523 0.159852 0
1069 1 0.814263 0.152793 0
1099 1 0.806141 0.1785 0
1071 1 0.838198 0.148106 0
1070 1 0.830344 0.172198 0
1072 1 0.855632 0.166406 0
1042 1 0.861882 0.142761 0
1044 1 0.886593 0.13614 0
1073 1 0.879105 0.159799 0
1045 1 0.904563 0.154896 0
1074 1 0.896636 0.178471 0
1075 1 0.920914 0.173288 0
1046 1 0.929345 0.148659 0
1077 1 0.946325 0.166923 0
1048 1 0.953427 0.143616 0
1079 1 0.970468 0.16149 0
151 1 0.994678 0.154911 0
1080 1 0.98815 0.178914 0
1052 1 0.525115 0.195151 0
1082 1 0.532092 0.218225 0
1081 1 0.507664 0.212974 0
180 1 0.500405 0.188162 0
1054 1 0.56713 0.181681 0
1083 1 0.549784 0.201028 0
1085 1 0.574109 0.206314 0
1084 1 0.556376 0.224862 0
1056 1 0.591122 0.18879 0
1086 1 0.598864 0.213003 0
1087 1 0.616356 0.195054 0
1088 1 0.623285 0.219179 0
1089 1 0.641565 0.20111 0
1090 1 0.665314 0.205949 0
1119 1 0.647833 0.22486 0
1091 1 0.682733 0.187865 0
1092 1 0.689475 0.211177 0
1093 1 0.706473 0.192845 0
1123 1 0.714416 0.216474 0
1094 1 0.731186 0.199502 0
1096 1 0.757116 0.203866 0
1125 1 0.739504 0.222889 0
1127 1 0.781487 0.20988 0
1097 1 0.782173 0.184455 0
1098 1 0.805979 0.214863 0
1100 1 0.823819 0.195998 0
1101 1 0.847297 0.18913 0
1129 1 0.832006 0.220203 0
1102 1 0.86399 0.207127 0
1103 1 0.872402 0.183751 0
1104 1 0.889256 0.202698 0
1133 1 0.905865 0.220754 0
1105 1 0.91346 0.197926 0
1076 1 0.937712 0.191416 0
1135 1 0.93143 0.216166 0
1107 1 0.954895 0.209607 0
1078 1 0.963645 0.184739 0
1109 1 0.980166 0.20317 0
1110 1 0.997986 0.220902 0
1111 1 0.515141 0.237057 0
1113 1 0.539579 0.243422 0
1112 1 0.521673 0.260736 0
1143 1 0.54623 0.267119 0
1114 1 0.56384 0.249253 0
1115 1 0.581192 0.23098 0
1116 1 0.588769 0.254038 0
1117 1 0.605686 0.236509 0
1118 1 0.630307 0.242579 0
1147 1 0.612284 0.259928 0
1149 1 0.636701 0.265658 0
1121 1 0.672227 0.229339 0
1120 1 0.654751 0.248498 0
1151 1 0.679293 0.252795 0
1150 1 0.66146 0.272274 0
1122 1 0.697959 0.235143 0
1124 1 0.722323 0.242069 0
1153 1 0.704354 0.259793 0
1154 1 0.729555 0.264933 0
1126 1 0.764165 0.227971 0
1155 1 0.747017 0.246095 0
1157 1 0.77242 0.251935 0
1156 1 0.754273 0.270402 0
1128 1 0.789741 0.233686 0
1159 1 0.813332 0.239366 0
1158 1 0.797302 0.25804 0
1160 1 0.820584 0.265706 0
1131 1 0.856894 0.230087 0
1130 1 0.837195 0.245608 0
1191 1 0.8451 0.271138 0
1161 1 0.863312 0.253992 0
1132 1 0.883937 0.233859 0