ITEM: TIMESTEP
186000
ITEM: NUMBER OF ATOMS
1800
ITEM: BOX BOUNDS pp pp pp
1.0947758451753629e+00 1.6390522415483110e+02
1.0947758451753629e+00 1.6390522415483110e+02
0.0000000000000000e+00 5.5000000000000000e+00
ITEM: ATOMS id type xs ys zs
2 1 0.0115099 0.0156074 0
3 1 0.035868 0.00954468 0
33 1 0.0295732 0.03329 0
31 1 0.00515832 0.0391461 0
4 1 0.053128 0.0272343 0
6 1 0.0766175 0.0212594 0
5 1 0.0601417 0.00300265 0
35 1 0.0694004 0.0460339 0
8 1 0.100795 0.0165552 0
37 1 0.0936163 0.0395345 0
9 1 0.124615 0.0111625 0
39 1 0.118072 0.0348279 0
10 1 0.142838 0.028698 0
12 1 0.167632 0.0222296 0
11 1 0.14873 0.00408563 0
41 1 0.184713 0.0402988 0
14 1 0.208397 0.0347994 0
15 1 0.215769 0.0120862 0
13 1 0.191775 0.015931 0
16 1 0.256359 0.0226939 0
886 1 0.239242 0.00510337 0
46 1 0.250332 0.0464638 0
47 1 0.2748 0.0385954 0
18 1 0.279824 0.0141545 0
49 1 0.298221 0.0324295 0
19 1 0.303983 0.00745008 0
20 1 0.322001 0.0242373 0
51 1 0.339209 0.0423011 0
21 1 0.345512 0.0181232 0
890 1 0.328322 -0.00018062 0
22 1 0.365057 0.0330376 0
24 1 0.391069 0.0274093 0
23 1 0.370495 0.0100061 0
894 1 0.394171 0.0026872 0
55 1 0.407375 0.0451882 0
25 1 0.415592 0.0205564 0
26 1 0.432291 0.0401229 0
27 1 0.449225 0.0223871 0
29 1 0.473456 0.0281069 0
900 1 0.490415 0.00971024 0
898 1 0.466167 0.00502456 0
30 1 0.497652 0.0340212 0
32 1 0.0217414 0.0574953 0
62 1 0.0147162 0.0818573 0
63 1 0.0381472 0.0757052 0
34 1 0.0449904 0.0514867 0
65 1 0.062503 0.0697021 0
66 1 0.0796433 0.0878322 0
36 1 0.0861543 0.0649942 0
38 1 0.111044 0.0581173 0
67 1 0.103387 0.0815105 0
68 1 0.129224 0.0763493 0
69 1 0.136082 0.0527835 0
40 1 0.160433 0.0458012 0
71 1 0.153369 0.0708741 0
42 1 0.177322 0.0639988 0
72 1 0.170521 0.0888743 0
43 1 0.201683 0.0584848 0
44 1 0.219359 0.0774958 0
73 1 0.195109 0.0839312 0
45 1 0.226209 0.0520808 0
75 1 0.243592 0.0701918 0
77 1 0.267569 0.0643248 0
76 1 0.261133 0.0900927 0
48 1 0.292748 0.0566924 0
79 1 0.308754 0.0749831 0
78 1 0.285158 0.0811192 0
50 1 0.316009 0.0489456 0
81 1 0.332616 0.0671705 0
52 1 0.358171 0.0569887 0
82 1 0.352662 0.0815636 0
80 1 0.327526 0.090909 0
53 1 0.383179 0.050353 0
83 1 0.375767 0.0737376 0
54 1 0.400313 0.0714021 0
57 1 0.439718 0.0630042 0
56 1 0.423104 0.0812508 0
87 1 0.448035 0.0873129 0
28 1 0.456664 0.0460017 0
59 1 0.481651 0.0512863 0
58 1 0.463913 0.0690709 0
89 1 0.489124 0.0750082 0
92 1 0.0250083 0.123842 0
93 1 0.0320254 0.0991663 0
91 1 0.00767215 0.105041 0
64 1 0.0563529 0.0933998 0
94 1 0.0493757 0.117324 0
95 1 0.0726244 0.112126 0
96 1 0.0895841 0.130201 0
125 1 0.0658807 0.135397 0
97 1 0.0968687 0.105248 0
98 1 0.114198 0.124029 0
99 1 0.121684 0.100357 0
100 1 0.139145 0.11838 0
70 1 0.145413 0.0942122 0
101 1 0.162605 0.114236 0
103 1 0.18597 0.107023 0
102 1 0.199295 0.126923 0
105 1 0.211566 0.106888 0
104 1 0.221514 0.133828 0
74 1 0.237155 0.0934527 0
106 1 0.238532 0.117297 0
137 1 0.263219 0.123583 0
109 1 0.305289 0.101053 0
107 1 0.281553 0.106296 0
108 1 0.286589 0.132047 0
110 1 0.326337 0.120771 0
111 1 0.345964 0.10518 0
141 1 0.350296 0.129205 0
84 1 0.384489 0.0948203 0
113 1 0.369207 0.112552 0
112 1 0.392189 0.119175 0
143 1 0.373967 0.136527 0
85 1 0.407558 0.100325 0
115 1 0.415842 0.124872 0
86 1 0.431124 0.106472 0
116 1 0.439151 0.131154 0
117 1 0.45505 0.111088 0
88 1 0.471924 0.0928204 0
119 1 0.479786 0.11707 0
90 1 0.496595 0.0989005 0
122 1 0.0174846 0.146289 0
153 1 0.0350333 0.164171 0
152 1 0.0106588 0.170655 0
123 1 0.0416679 0.14101 0
124 1 0.0587357 0.15949 0
126 1 0.0830008 0.154446 0
155 1 0.0761139 0.177217 0
127 1 0.106604 0.147607 0
128 1 0.122855 0.165158 0
157 1 0.100096 0.17272 0
129 1 0.131319 0.142431 0
130 1 0.154628 0.137298 0
159 1 0.159823 0.160797 0
131 1 0.179145 0.142533 0
160 1 0.142468 0.178494 0
132 1 0.184351 0.167605 0
133 1 0.203388 0.150808 0
163 1 0.208193 0.175971 0
134 1 0.226456 0.157491 0
135 1 0.245494 0.141632 0
136 1 0.268522 0.149553 0
165 1 0.249949 0.165164 0
167 1 0.273273 0.173223 0
139 1 0.309522 0.139182 0
138 1 0.29147 0.156206 0
169 1 0.315739 0.163343 0
168 1 0.298035 0.181291 0
140 1 0.332918 0.145898 0
142 1 0.35624 0.153577 0
171 1 0.339377 0.169694 0
172 1 0.362653 0.178055 0
114 1 0.398546 0.1424 0
144 1 0.403607 0.167223 0
173 1 0.380054 0.160548 0
145 1 0.421332 0.149312 0
146 1 0.428916 0.172792 0
147 1 0.445696 0.155042 0
177 1 0.452927 0.179553 0
118 1 0.463717 0.136507 0
149 1 0.487431 0.142659 0
148 1 0.469591 0.16038 0
150 1 0.494615 0.165839 0
183 1 0.0283958 0.187245 0
182 1 0.0216508 0.210406 0
181 1 0.00386783 0.194379 0
184 1 0.0460032 0.206652 0
154 1 0.0528746 0.183611 0
185 1 0.0698559 0.20186 0
215 1 0.0622755 0.225179 0
186 1 0.088272 0.224904 0
156 1 0.094135 0.195924 0
158 1 0.120093 0.190054 0
187 1 0.128029 0.218379 0
161 1 0.166463 0.185246 0
189 1 0.146908 0.202267 0
191 1 0.171202 0.208794 0
190 1 0.153895 0.226308 0
162 1 0.1896 0.192102 0
193 1 0.21335 0.200252 0
192 1 0.195585 0.217016 0
194 1 0.219471 0.225346 0
164 1 0.231847 0.182432 0
195 1 0.236944 0.207211 0
166 1 0.255408 0.190395 0
196 1 0.261983 0.214308 0
197 1 0.280004 0.197218 0
199 1 0.303745 0.205318 0
198 1 0.28577 0.221469 0
170 1 0.321944 0.187097 0
201 1 0.344959 0.195318 0
200 1 0.3278 0.212357 0
202 1 0.35242 0.219931 0
174 1 0.386866 0.184564 0
203 1 0.369293 0.201817 0
204 1 0.392695 0.209412 0
233 1 0.37596 0.226897 0
175 1 0.41094 0.192067 0
205 1 0.418492 0.216002 0
176 1 0.435049 0.19618 0
207 1 0.443145 0.221141 0
179 1 0.476798 0.184579 0
178 1 0.459081 0.203305 0
209 1 0.486357 0.207596 0
212 1 0.0255954 0.257245 0
211 1 0.0186434 0.233623 0
213 1 0.0425201 0.239455 0
241 1 0.00553948 0.271252 0
243 1 0.0501895 0.264352 0
214 1 0.0678706 0.248678 0
245 1 0.0744026 0.271388 0
216 1 0.0925789 0.253272 0
217 1 0.110624 0.236942 0
218 1 0.117235 0.26072 0
188 1 0.135343 0.2437 0
219 1 0.140954 0.268295 0
221 1 0.177825 0.233944 0
220 1 0.159125 0.250965 0
222 1 0.182115 0.259396 0
223 1 0.200905 0.241936 0
253 1 0.207125 0.265652 0
224 1 0.224966 0.248901 0
225 1 0.24428 0.230605 0
227 1 0.267168 0.238512 0
226 1 0.249932 0.255627 0
257 1 0.274586 0.26251 0
229 1 0.309946 0.229351 0
228 1 0.291915 0.245248 0
230 1 0.315374 0.25344 0
259 1 0.298158 0.270518 0
231 1 0.333046 0.23718 0
232 1 0.358153 0.244685 0
261 1 0.339731 0.260779 0
263 1 0.36457 0.268505 0
235 1 0.400382 0.233365 0
234 1 0.38202 0.250981 0
265 1 0.406764 0.256603 0
206 1 0.425481 0.238999 0
237 1 0.44939 0.244489 0
236 1 0.431286 0.264094 0
208 1 0.468191 0.226138 0
238 1 0.456651 0.268538 0
210 1 0.491372 0.231894 0
239 1 0.473411 0.250074 0
240 1 0.49729 0.255938 0
242 1 0.0317071 0.281153 0
273 1 0.0366821 0.305149 0
271 1 0.0125944 0.297058 0
244 1 0.0560078 0.28897 0
246 1 0.0804739 0.294752 0
275 1 0.0618697 0.313031 0
247 1 0.0989171 0.278102 0
249 1 0.121896 0.285594 0
248 1 0.103634 0.302905 0
279 1 0.127367 0.309263 0
251 1 0.164202 0.275952 0
250 1 0.146464 0.29294 0
281 1 0.169969 0.299854 0
280 1 0.151981 0.316706 0
252 1 0.188492 0.282909 0
254 1 0.21231 0.290816 0
283 1 0.194908 0.307489 0
284 1 0.21943 0.314819 0
255 1 0.231013 0.273075 0
256 1 0.254639 0.280034 0
285 1 0.237064 0.29671 0
287 1 0.261749 0.303155 0
258 1 0.279531 0.286543 0
288 1 0.286674 0.311071 0
289 1 0.305118 0.294215 0
260 1 0.322698 0.277087 0
262 1 0.34645 0.284454 0
291 1 0.328603 0.301451 0
292 1 0.35319 0.308554 0
264 1 0.389578 0.274623 0
293 1 0.370215 0.291926 0
295 1 0.395051 0.298303 0
294 1 0.378061 0.31556 0
266 1 0.413354 0.281263 0
267 1 0.438239 0.288014 0
297 1 0.418667 0.304919 0
298 1 0.443608 0.311287 0
269 1 0.479454 0.274733 0
268 1 0.461759 0.2932 0
270 1 0.486263 0.299366 0
299 1 0.467672 0.31741 0
1200 1 0.0163621 0.321408 0
272 1 0.0426202 0.329456 0
301 1 0.0237704 0.345034 0
1230 1 0.00649064 0.363213 0
276 1 0.0858458 0.320082 0
303 1 0.0495591 0.352714 0
274 1 0.0669989 0.337258 0
304 1 0.0733203 0.361314 0
305 1 0.0915693 0.344101 0
277 1 0.109574 0.327443 0
278 1 0.134424 0.334056 0
307 1 0.116545 0.350569 0
282 1 0.176205 0.324306 0
309 1 0.14007 0.358834 0
311 1 0.158791 0.34153 0
312 1 0.182492 0.348739 0
313 1 0.200316 0.33142 0
314 1 0.207339 0.356629 0
315 1 0.224659 0.338873 0
286 1 0.243998 0.32025 0
317 1 0.267697 0.327645 0
316 1 0.248591 0.344364 0
345 1 0.231773 0.362815 0
290 1 0.310724 0.318691 0
318 1 0.272874 0.352251 0
319 1 0.292329 0.335579 0
349 1 0.298764 0.35961 0
320 1 0.316726 0.343577 0
321 1 0.33488 0.326472 0
323 1 0.359451 0.333787 0
322 1 0.342081 0.35055 0
324 1 0.366552 0.359691 0
296 1 0.40116 0.322707 0
325 1 0.383558 0.340496 0
326 1 0.40715 0.346835 0
327 1 0.424943 0.329799 0
328 1 0.43197 0.352905 0
329 1 0.450487 0.335611 0
1201 1 0.499406 0.347034 0
359 1 0.45637 0.359854 0
300 1 0.491275 0.322449 0
330 1 0.47395 0.341763 0
302 1 0.0308197 0.369998 0
332 1 0.0361325 0.394424 0
331 1 0.0120011 0.386749 0
333 1 0.0551738 0.378549 0
335 1 0.0798711 0.385863 0
334 1 0.0604937 0.402787 0
306 1 0.0981841 0.367436 0
308 1 0.121073 0.376462 0
337 1 0.103493 0.39336 0
338 1 0.127972 0.400421 0
310 1 0.164138 0.365573 0
339 1 0.145638 0.383034 0
341 1 0.169969 0.389863 0
340 1 0.15173 0.407119 0
343 1 0.188699 0.374345 0
342 1 0.193932 0.398274 0
344 1 0.212458 0.380761 0
373 1 0.21853 0.404796 0
347 1 0.255396 0.36975 0
346 1 0.236592 0.386946 0
377 1 0.261463 0.393466 0
348 1 0.280448 0.376761 0
350 1 0.304762 0.383102 0
378 1 0.286586 0.401936 0
379 1 0.310804 0.408873 0
351 1 0.322708 0.367413 0
381 1 0.329242 0.392807 0
353 1 0.346909 0.374408 0
352 1 0.353208 0.399508 0
355 1 0.390301 0.365771 0
354 1 0.372105 0.383267 0
385 1 0.379251 0.407712 0
356 1 0.396326 0.390135 0
387 1 0.421304 0.395055 0
357 1 0.414512 0.37102 0
358 1 0.438129 0.376867 0
388 1 0.445964 0.401056 0
360 1 0.480029 0.365952 0
389 1 0.462781 0.383291 0
1232 1 0.487565 0.389426 0
1261 1 0.469402 0.407912 0
361 1 0.0174662 0.41212 0
362 1 0.0231645 0.436036 0
363 1 0.0411907 0.419356 0
392 1 0.00476193 0.453994 0
336 1 0.0847448 0.411028 0
364 1 0.0468959 0.444122 0
365 1 0.0659866 0.427226 0
395 1 0.070836 0.451908 0
366 1 0.0904832 0.434475 0
367 1 0.108596 0.417729 0
368 1 0.114607 0.441629 0
369 1 0.133344 0.424168 0
399 1 0.137899 0.448947 0
371 1 0.175151 0.414017 0
370 1 0.156927 0.43191 0
401 1 0.180998 0.439335 0
372 1 0.199454 0.421324 0
403 1 0.205653 0.447322 0
374 1 0.223791 0.429801 0
375 1 0.24339 0.410767 0
376 1 0.267768 0.417684 0
405 1 0.249577 0.434643 0
404 1 0.230373 0.453696 0
407 1 0.27264 0.441515 0
409 1 0.292177 0.425752 0
410 1 0.298915 0.448925 0
380 1 0.317032 0.432901 0
382 1 0.335847 0.417659 0
383 1 0.360547 0.423281 0
413 1 0.344072 0.440783 0
386 1 0.403656 0.413456 0
384 1 0.385671 0.431721 0
414 1 0.367445 0.447759 0
417 1 0.409558 0.437192 0
418 1 0.435066 0.444578 0
419 1 0.42795 0.420512 0
390 1 0.452551 0.426473 0
420 1 0.458212 0.45136 0
1262 1 0.49351 0.414048 0
1291 1 0.476105 0.432327 0
393 1 0.0289181 0.46212 0
422 1 0.0105661 0.479117 0
423 1 0.0354873 0.486577 0
394 1 0.0532482 0.46983 0
396 1 0.077703 0.477154 0
425 1 0.0591988 0.493439 0
426 1 0.0843862 0.500886 0
397 1 0.0952783 0.45899 0
398 1 0.11884 0.466908 0
427 1 0.101873 0.483724 0
428 1 0.126511 0.491094 0
400 1 0.162367 0.456991 0
429 1 0.144784 0.473862 0
431 1 0.168909 0.480955 0
430 1 0.150146 0.497924 0
402 1 0.187266 0.464535 0
432 1 0.193678 0.489243 0
433 1 0.211857 0.472322 0
434 1 0.217603 0.497181 0
406 1 0.254581 0.458579 0
435 1 0.236692 0.481135 0
436 1 0.260973 0.482198 0
408 1 0.279299 0.464113 0
439 1 0.285733 0.487598 0
440 1 0.310964 0.496103 0
441 1 0.304687 0.471992 0
411 1 0.324316 0.456292 0
412 1 0.348868 0.464705 0
442 1 0.329802 0.480335 0
473 1 0.354135 0.488909 0
415 1 0.391932 0.454868 0
443 1 0.373443 0.471604 0
445 1 0.39788 0.48112 0
444 1 0.378909 0.497122 0
446 1 0.4226 0.48744 0
416 1 0.415552 0.462852 0
447 1 0.441256 0.46991 0
448 1 0.447029 0.495054 0
449 1 0.466219 0.476113 0
450 1 0.491479 0.479427 0
1321 1 0.482751 0.456634 0
454 1 0.0232195 0.528118 0
453 1 0.0172598 0.503057 0
424 1 0.0415179 0.510869 0
483 1 0.00581966 0.544761 0
485 1 0.0477324 0.534828 0
455 1 0.065173 0.517347 0
486 1 0.071101 0.543062 0
456 1 0.0890188 0.525793 0
457 1 0.107039 0.508901 0
459 1 0.13125 0.516091 0
458 1 0.11305 0.532372 0
489 1 0.13653 0.539678 0
460 1 0.155102 0.522708 0
461 1 0.173691 0.505341 0
462 1 0.179952 0.529183 0
493 1 0.203883 0.53786 0
463 1 0.199089 0.513806 0
464 1 0.223173 0.523404 0
466 1 0.248433 0.533229 0
437 1 0.266969 0.504973 0
465 1 0.24235 0.50573 0
467 1 0.271942 0.527723 0
468 1 0.295194 0.535316 0
438 1 0.291378 0.510958 0
469 1 0.315422 0.519088 0
499 1 0.318419 0.54371 0
470 1 0.338806 0.529457 0
472 1 0.358945 0.513125 0
471 1 0.335751 0.504739 0
503 1 0.361633 0.538124 0
474 1 0.383164 0.522047 0
475 1 0.402521 0.505573 0
476 1 0.406254 0.531846 0
477 1 0.428245 0.514585 0
507 1 0.429417 0.541877 0
1351 1 0.499069 0.503254 0
478 1 0.453502 0.519522 0
480 1 0.466412 0.54044 0
1381 1 0.48218 0.521641 0
479 1 0.471868 0.499816 0
482 1 0.0116512 0.569255 0
513 1 0.0291928 0.552195 0
514 1 0.034699 0.577738 0
484 1 0.0522191 0.559183 0
515 1 0.0758431 0.567924 0
545 1 0.0585873 0.587345 0
487 1 0.0951702 0.550248 0
488 1 0.118471 0.557245 0
517 1 0.100201 0.577693 0
519 1 0.124458 0.582167 0
491 1 0.16196 0.546768 0
490 1 0.142825 0.562615 0
520 1 0.147358 0.587122 0
521 1 0.166916 0.571951 0
492 1 0.18524 0.555185 0
523 1 0.190533 0.579532 0
494 1 0.209276 0.563697 0
524 1 0.213288 0.589896 0
495 1 0.228411 0.548542 0
525 1 0.232274 0.575137 0
496 1 0.250801 0.559213 0
526 1 0.255336 0.585503 0
497 1 0.274749 0.551058 0
527 1 0.277265 0.574161 0
498 1 0.298775 0.559116 0
529 1 0.300188 0.584237 0
500 1 0.321277 0.569065 0
501 1 0.341577 0.554532 0
531 1 0.343409 0.578689 0
502 1 0.364646 0.563165 0
505 1 0.383976 0.546986 0
504 1 0.386345 0.572338 0
533 1 0.366721 0.588845 0
535 1 0.409145 0.583403 0
506 1 0.405802 0.558105 0
508 1 0.429204 0.569235 0
509 1 0.450265 0.558108 0
510 1 0.490279 0.545009 0
539 1 0.454864 0.583168 0
540 1 0.474178 0.565869 0
1441 1 0.497955 0.568705 0
569 1 0.482087 0.588014 0
512 1 0.0162016 0.593247 0
542 1 0.0206224 0.619028 0
543 1 0.0399127 0.603092 0
571 1 0.00173432 0.634315 0
544 1 0.0442375 0.628779 0
546 1 0.0631956 0.612036 0
516 1 0.0823182 0.595228 0
547 1 0.0871945 0.620343 0
575 1 0.0676288 0.638529 0
518 1 0.107226 0.604721 0
548 1 0.127905 0.61969 0
577 1 0.109389 0.636439 0
522 1 0.171341 0.596056 0
549 1 0.151465 0.611045 0
551 1 0.173853 0.620256 0
550 1 0.15313 0.634497 0
553 1 0.193787 0.604828 0
552 1 0.196352 0.630625 0
554 1 0.215789 0.616057 0
555 1 0.23589 0.600772 0
556 1 0.238873 0.626037 0
557 1 0.25897 0.611623 0
587 1 0.260882 0.6368 0
528 1 0.279617 0.598423 0
559 1 0.301757 0.60884 0
558 1 0.281813 0.623447 0
560 1 0.304778 0.633893 0
530 1 0.323191 0.593769 0
561 1 0.325739 0.618935 0
532 1 0.34612 0.604074 0
562 1 0.34845 0.629512 0
563 1 0.368253 0.61372 0
534 1 0.38839 0.598286 0
565 1 0.390139 0.623745 0
536 1 0.409871 0.608302 0
537 1 0.431806 0.594277 0
567 1 0.430567 0.618379 0
568 1 0.452528 0.627233 0
566 1 0.412213 0.633403 0
538 1 0.465123 0.605357 0
570 1 0.490513 0.611046 0
600 1 0.475898 0.63061 0
573 1 0.0245944 0.643638 0
603 1 0.0272413 0.668982 0
572 1 0.00452741 0.65892 0
574 1 0.0471134 0.65436 0
604 1 0.0499205 0.679825 0
605 1 0.0694565 0.66497 0
576 1 0.0885481 0.649831 0
607 1 0.0918447 0.676594 0
578 1 0.112446 0.662981 0
579 1 0.131417 0.64681 0
609 1 0.134817 0.671775 0
581 1 0.176062 0.644961 0
580 1 0.15464 0.658386 0
611 1 0.17654 0.670017 0
583 1 0.219085 0.641212 0
582 1 0.198784 0.656104 0
584 1 0.221624 0.665914 0
613 1 0.200049 0.680092 0
585 1 0.241374 0.652047 0
586 1 0.264521 0.662944 0
615 1 0.244255 0.67714 0
589 1 0.284144 0.647782 0
588 1 0.288407 0.671997 0
590 1 0.308623 0.658846 0
591 1 0.328557 0.645145 0
593 1 0.351599 0.65491 0
621 1 0.331598 0.67057 0
592 1 0.354303 0.680979 0
564 1 0.371092 0.639508 0
594 1 0.374384 0.666519 0
595 1 0.393045 0.649868 0
625 1 0.397034 0.675446 0
596 1 0.415638 0.658438 0
597 1 0.434634 0.643134 0
598 1 0.439778 0.667376 0
1501 1 0.498706 0.636279 0
599 1 0.458091 0.651031 0
629 1 0.481714 0.655048 0
628 1 0.464051 0.675302 0
630 1 0.487618 0.679294 0
602 1 0.00777983 0.684291 0
633 1 0.0298701 0.694246 0
632 1 0.0078685 0.709986 0
634 1 0.0302287 0.719683 0
606 1 0.0720619 0.690878 0
635 1 0.0520319 0.705289 0
636 1 0.0744094 0.716262 0
637 1 0.0945451 0.702392 0
608 1 0.114519 0.686944 0
638 1 0.116666 0.712981 0
667 1 0.0965924 0.727833 0
639 1 0.136861 0.698265 0
640 1 0.138634 0.724126 0
610 1 0.157291 0.684694 0
641 1 0.159697 0.710583 0
612 1 0.179303 0.695156 0
642 1 0.182129 0.720943 0
614 1 0.223989 0.690676 0
643 1 0.202227 0.705444 0
645 1 0.224591 0.716449 0
617 1 0.267779 0.686992 0
616 1 0.245997 0.701444 0
647 1 0.26773 0.712301 0
646 1 0.247392 0.725983 0
619 1 0.310349 0.684121 0
618 1 0.288867 0.6986 0
620 1 0.312076 0.708806 0
649 1 0.291522 0.722828 0
622 1 0.333624 0.695321 0
651 1 0.336103 0.720346 0
653 1 0.357526 0.706409 0
623 1 0.377342 0.690724 0
624 1 0.380528 0.717434 0
626 1 0.401176 0.699386 0
655 1 0.406818 0.722109 0
627 1 0.420653 0.684142 0
657 1 0.44654 0.693554 0
656 1 0.426484 0.708612 0
658 1 0.4518 0.718744 0
659 1 0.470831 0.70011 0
1531 1 0.495841 0.703333 0
660 1 0.478997 0.723129 0
662 1 0.0101478 0.758705 0
663 1 0.00919837 0.733914 0
664 1 0.0315737 0.744803 0
694 1 0.0333322 0.77089 0
665 1 0.0523563 0.730778 0
666 1 0.0737803 0.741445 0
695 1 0.0538941 0.756079 0
697 1 0.0762547 0.766237 0
669 1 0.118459 0.73881 0
668 1 0.0973674 0.751639 0
699 1 0.119529 0.763226 0
670 1 0.140711 0.748569 0
671 1 0.161649 0.734571 0
672 1 0.163699 0.760241 0
673 1 0.1834 0.745946 0
644 1 0.204471 0.732509 0
674 1 0.206232 0.756415 0
703 1 0.186392 0.770239 0
675 1 0.227555 0.741767 0
705 1 0.22874 0.766481 0
677 1 0.249967 0.750592 0
648 1 0.270555 0.737055 0
678 1 0.273178 0.762906 0
679 1 0.292324 0.747467 0
681 1 0.315483 0.756053 0
650 1 0.315112 0.732353 0
652 1 0.337856 0.745173 0
683 1 0.35711 0.760326 0
682 1 0.334592 0.770296 0
654 1 0.359254 0.732994 0
685 1 0.3812 0.752506 0
686 1 0.405714 0.746699 0
715 1 0.400129 0.771422 0
687 1 0.428776 0.734666 0
717 1 0.423462 0.762909 0
688 1 0.447432 0.761412 0
689 1 0.461978 0.740832 0
690 1 0.487075 0.746191 0
719 1 0.471664 0.765482 0
1591 1 0.496643 0.770877 0
693 1 0.0115562 0.784723 0
692 1 0.0131326 0.808468 0
723 1 0.0361183 0.795851 0
696 1 0.0558397 0.781621 0
725 1 0.0583813 0.807275 0
727 1 0.0782052 0.791486 0
726 1 0.0802506 0.817384 0
698 1 0.0988887 0.777678 0
728 1 0.100157 0.802438 0
729 1 0.122421 0.813213 0
700 1 0.121454 0.788747 0
701 1 0.141815 0.773826 0
702 1 0.165419 0.784735 0
731 1 0.143956 0.799599 0
732 1 0.166025 0.810437 0
704 1 0.209522 0.782568 0
733 1 0.18846 0.795003 0
735 1 0.213556 0.807266 0
706 1 0.238234 0.796836 0
676 1 0.250918 0.774496 0
707 1 0.263785 0.794121 0
737 1 0.256422 0.81688 0
680 1 0.310289 0.779394 0
709 1 0.286702 0.784224 0
708 1 0.281776 0.809898 0
710 1 0.30527 0.802649 0
711 1 0.328978 0.794087 0
712 1 0.347331 0.810628 0
713 1 0.353798 0.786388 0
684 1 0.376908 0.778023 0
714 1 0.396498 0.795532 0
743 1 0.372561 0.803189 0
716 1 0.419045 0.788089 0
747 1 0.437704 0.803169 0
746 1 0.415895 0.813446 0
718 1 0.454584 0.784687 0
720 1 0.47985 0.788823 0
749 1 0.463131 0.808234 0
1621 1 0.486976 0.813314 0
722 1 0.0371901 0.819959 0
751 1 0.0176005 0.83395 0
752 1 0.0142434 0.858196 0
753 1 0.037162 0.8474 0
724 1 0.0588763 0.833269 0
755 1 0.0816101 0.842962 0
754 1 0.0604482 0.858088 0
756 1 0.103744 0.851805 0
757 1 0.101975 0.827414 0
759 1 0.125499 0.839638 0
730 1 0.14458 0.824667 0
760 1 0.147404 0.852068 0
761 1 0.165682 0.835221 0
791 1 0.171101 0.862882 0
763 1 0.188875 0.819606 0
734 1 0.210074 0.833128 0
762 1 0.187874 0.844207 0
764 1 0.206834 0.857747 0
736 1 0.233123 0.824302 0
767 1 0.252613 0.840781 0
765 1 0.229575 0.848516 0
768 1 0.271648 0.857474 0
739 1 0.300115 0.826702 0
738 1 0.276268 0.833512 0
769 1 0.295186 0.850895 0
741 1 0.3234 0.819133 0
740 1 0.319524 0.843422 0
771 1 0.337971 0.859681 0
742 1 0.343305 0.834897 0
773 1 0.360643 0.852468 0
745 1 0.390825 0.819974 0
744 1 0.366201 0.827672 0
774 1 0.383869 0.844679 0
775 1 0.407815 0.837609 0
777 1 0.4302 0.845913 0
748 1 0.445489 0.826797 0
779 1 0.455168 0.850419 0
750 1 0.470467 0.831711 0
780 1 0.480926 0.854857 0
1651 1 0.496155 0.835732 0
783 1 0.0362316 0.873543 0
782 1 0.00652593 0.88219 0
813 1 0.0241786 0.899351 0
785 1 0.0830738 0.867463 0
784 1 0.0609466 0.884345 0
786 1 0.0844199 0.893327 0
758 1 0.126777 0.865391 0
787 1 0.104819 0.878075 0
788 1 0.128253 0.890524 0
817 1 0.10805 0.90236 0
789 1 0.149154 0.87659 0
819 1 0.149604 0.901803 0
790 1 0.172824 0.890191 0
792 1 0.197457 0.87997 0
793 1 0.216463 0.897429 0
823 1 0.191894 0.905656 0
795 1 0.224272 0.874029 0
766 1 0.247328 0.865383 0
796 1 0.242069 0.889782 0
797 1 0.264966 0.881786 0
827 1 0.259756 0.907294 0
799 1 0.28911 0.875453 0
798 1 0.283561 0.900132 0
800 1 0.307394 0.892451 0
770 1 0.313398 0.867557 0
801 1 0.332248 0.883311 0
802 1 0.350947 0.90036 0
772 1 0.356588 0.876681 0
831 1 0.326844 0.908308 0
803 1 0.38059 0.86855 0
805 1 0.397367 0.886547 0
804 1 0.375321 0.894013 0
776 1 0.412691 0.863591 0
778 1 0.437882 0.868864 0
807 1 0.421798 0.888477 0
808 1 0.446618 0.891628 0
809 1 0.46384 0.873039 0
1681 1 0.488675 0.878279 0
810 1 0.472772 0.896223 0
1711 1 0.4969 0.901 0
842 1 0.00841423 0.949074 0
843 1 0.0166764 0.923605 0
844 1 0.0329513 0.941949 0
814 1 0.040218 0.918072 0
815 1 0.0640144 0.910037 0
816 1 0.0815482 0.929932 0
845 1 0.0578374 0.935122 0
818 1 0.127959 0.915469 0
847 1 0.105831 0.926919 0
849 1 0.124735 0.941725 0
848 1 0.0993936 0.950312 0
821 1 0.169084 0.916352 0
820 1 0.148181 0.930904 0
851 1 0.166393 0.949803 0
794 1 0.21207 0.92184 0
824 1 0.207961 0.945899 0
822 1 0.187411 0.931616 0
825 1 0.235724 0.91398 0
855 1 0.23111 0.938588 0
826 1 0.255037 0.930443 0
857 1 0.273838 0.947439 0
829 1 0.302718 0.917104 0
828 1 0.278671 0.923713 0
859 1 0.297418 0.94096 0
830 1 0.321448 0.934434 0
832 1 0.345275 0.924975 0
861 1 0.339206 0.951187 0
863 1 0.361926 0.942405 0
806 1 0.39627 0.91171 0
833 1 0.369399 0.917852 0
834 1 0.386107 0.935422 0
865 1 0.402849 0.953024 0
837 1 0.431755 0.911133 0
835 1 0.414412 0.929233 0
838 1 0.442316 0.933949 0
836 1 0.427073 0.952575 0
839 1 0.456815 0.9147 0
840 1 0.482361 0.919909 0
1741 1 0.490469 0.943204 0
869 1 0.465905 0.939292 0
872 1 0.0192125 0.991699 0
873 1 0.0255406 0.96707 0
871 1 0.0012727 0.973014 0
874 1 0.0431376 0.984825 0
846 1 0.0753955 0.954417 0
875 1 0.0504173 0.960683 0
876 1 0.0674333 0.979746 0
7 1 0.0855883 0.997349 0
877 1 0.0928535 0.973087 0
878 1 0.108532 0.991748 0
879 1 0.118223 0.966369 0
880 1 0.132274 0.986949 0
882 1 0.173399 0.997183 0
850 1 0.14232 0.959306 0
881 1 0.155415 0.979916 0
852 1 0.179518 0.973023 0
853 1 0.203829 0.969193 0
883 1 0.197084 0.991868 0
884 1 0.220854 0.987257 0
854 1 0.227481 0.962155 0
856 1 0.250278 0.955012 0
885 1 0.244764 0.979647 0
17 1 0.262802 0.997085 0
887 1 0.267872 0.972413 0
860 1 0.315055 0.958761 0
858 1 0.291402 0.964974 0
888 1 0.286242 0.988612 0
889 1 0.309888 0.982865 0
862 1 0.35654 0.968636 0
891 1 0.333193 0.975889 0
892 1 0.352274 0.993015 0
864 1 0.379407 0.959347 0
893 1 0.376211 0.984381 0
895 1 0.399277 0.977664 0
867 1 0.450184 0.958779 0
866 1 0.432411 0.97624 0
896 1 0.417037 0.995398 0
897 1 0.441197 0.999586 0
870 1 0.474299 0.963166 0
899 1 0.482443 0.985809 0
868 1 0.458029 0.981933 0
1771 1 0.499179 0.966622 0
902 1 0.538422 0.0196663 0
931 1 0.523095 0.0391934 0
901 1 0.514214 0.0159133 0
904 1 0.562608 0.0254631 0
906 1 0.579218 0.00600559 0
935 1 0.586119 0.0290147 0
905 1 0.555377 0.000375796 0
933 1 0.547422 0.0440989 0
908 1 0.602911 0.0115079 0
937 1 0.61044 0.0362564 0
939 1 0.626736 0.0174843 0
938 1 0.635215 0.0405947 0
940 1 0.652413 0.0224646 0
971 1 0.676326 0.0296711 0
942 1 0.669034 0.00523659 0
943 1 0.694421 0.00953974 0
944 1 0.699987 0.0348085 0
945 1 0.71809 0.0193099 0
947 1 0.743681 0.0141227 0
948 1 0.760201 0.0325898 0
918 1 0.768593 0.0082603 0
946 1 0.736011 0.0376218 0
919 1 0.791396 0.00293302 0
949 1 0.785215 0.0271585 0
920 1 0.80803 0.0211831 0
979 1 0.801863 0.0452973 0
951 1 0.832819 0.0155512 0
952 1 0.850107 0.033021 0
922 1 0.856728 0.00875669 0
950 1 0.825592 0.0393078 0
953 1 0.873474 0.0277856 0
955 1 0.897273 0.0211007 0
924 1 0.880237 0.00323925 0
954 1 0.890202 0.0455843 0
926 1 0.921334 0.0154273 0
928 1 0.945368 0.00898668 0
957 1 0.938534 0.0330218 0
956 1 0.91396 0.0398944 0
930 1 0.987541 0.0215988 0
959 1 0.962708 0.0276586 0
929 1 0.969441 0.00328405 0
932 1 0.531906 0.0630996 0
962 1 0.538675 0.0880538 0
961 1 0.51423 0.0821287 0
60 1 0.506765 0.0577719 0
934 1 0.571536 0.0494093 0
963 1 0.555515 0.0688343 0
965 1 0.579767 0.0744595 0
936 1 0.595433 0.0545517 0
966 1 0.602611 0.0792827 0
967 1 0.619202 0.0600052 0
968 1 0.626958 0.0849148 0
970 1 0.65944 0.0477036 0
969 1 0.643365 0.0666131 0
972 1 0.666896 0.0718672 0
999 1 0.651521 0.0914361 0
973 1 0.682938 0.0535833 0
975 1 0.706654 0.0579686 0
1003 1 0.692299 0.0775779 0
1004 1 0.71826 0.0824922 0
974 1 0.730139 0.0616295 0
976 1 0.753396 0.0572875 0
1005 1 0.744439 0.0812525 0
1007 1 0.769765 0.0747441 0
977 1 0.777705 0.050067 0
978 1 0.793667 0.0698869 0
1009 1 0.810315 0.0881618 0
980 1 0.818063 0.0639302 0
981 1 0.842005 0.0575598 0
1011 1 0.834756 0.0816657 0
982 1 0.859131 0.0763136 0
983 1 0.865847 0.0523463 0
984 1 0.883003 0.0705505 0
1015 1 0.899569 0.0880963 0
985 1 0.907141 0.0635032 0
986 1 0.924151 0.0808634 0
987 1 0.932326 0.0576416 0
988 1 0.948407 0.0752248 0
960 1 0.981147 0.0451385 0
958 1 0.955535 0.0515139 0
989 1 0.972516 0.0696259 0
990 1 0.989835 0.087434 0
61 1 0.997571 0.0631011 0
991 1 0.521741 0.105692 0
992 1 0.528603 0.128952 0
120 1 0.504188 0.123857 0
993 1 0.54572 0.111206 0
964 1 0.563352 0.0930239 0
994 1 0.569768 0.117608 0
995 1 0.58653 0.0988534 0
1023 1 0.552473 0.135111 0
996 1 0.594743 0.122783 0
997 1 0.61072 0.102993 0
1027 1 0.619111 0.128438 0
998 1 0.634442 0.109296 0
1000 1 0.659704 0.114814 0
1001 1 0.676242 0.0954618 0
1029 1 0.643033 0.132881 0
1031 1 0.684626 0.120232 0
1002 1 0.702006 0.102105 0
1033 1 0.708873 0.125913 0
1035 1 0.734227 0.106013 0
1006 1 0.762465 0.0986696 0
1036 1 0.754788 0.123359 0
1034 1 0.732512 0.132201 0
1037 1 0.779199 0.117161 0
1008 1 0.785727 0.0935525 0
1039 1 0.802821 0.112323 0
1038 1 0.79655 0.135775 0
1040 1 0.820331 0.130041 0
1010 1 0.827246 0.10601 0
1012 1 0.851318 0.100253 0
1041 1 0.843888 0.124539 0
1043 1 0.867745 0.118992 0
1013 1 0.875164 0.095642 0
1014 1 0.892516 0.113303 0
1016 1 0.911066 0.130385 0
1017 1 0.916256 0.105948 0
1018 1 0.940828 0.098934 0
1047 1 0.934699 0.123956 0
1019 1 0.966449 0.0931969 0
1020 1 0.983016 0.11216 0
1049 1 0.959185 0.116604 0
1050 1 0.975588 0.135548 0
121 1 1.0011 0.128851 0
1022 1 0.536067 0.153393 0
1053 1 0.544045 0.177222 0
1051 1 0.519424 0.172106 0
1021 1 0.51201 0.148221 0
1025 1 0.577641 0.141371 0
1024 1 0.561049 0.15996 0
1055 1 0.585569 0.165258 0
1026 1 0.602375 0.146905 0
1028 1 0.626888 0.152568 0
1057 1 0.609545 0.170736 0
1058 1 0.634053 0.176121 0
1059 1 0.651262 0.157294 0
1030 1 0.667743 0.138675 0
1061 1 0.675658 0.162734 0
1060 1 0.658368 0.181265 0
1032 1 0.692205 0.144136 0
1063 1 0.717176 0.150944 0
1062 1 0.69991 0.167548 0
1064 1 0.724098 0.174968 0
1065 1 0.741825 0.15682 0
1066 1 0.765376 0.164731 0
1067 1 0.771067 0.141524 0
1068 1 0.788991 0.159373 0
1069 1 0.813061 0.153715 0
1099 1 0.804354 0.179226 0
1071 1 0.836743 0.148429 0
1070 1 0.829446 0.173304 0
1072 1 0.854281 0.166996 0
1042 1 0.861758 0.142875 0
1044 1 0.886149 0.136417 0
1073 1 0.87894 0.160591 0
1045 1 0.90326 0.154773 0
1074 1 0.896545 0.178402 0
1075 1 0.921047 0.172812 0
1046 1 0.927447 0.148203 0
1077 1 0.945306 0.16631 0
1048 1 0.951997 0.142241 0
1079 1 0.969272 0.159499 0
151 1 0.99279 0.15294 0
1080 1 0.986133 0.177474 0
1052 1 0.527443 0.195423 0
1082 1 0.53339 0.219199 0
1081 1 0.509507 0.214993 0
180 1 0.502597 0.18945 0
1054 1 0.568306 0.183354 0
1083 1 0.550959 0.201544 0
1085 1 0.574442 0.207251 0
1084 1 0.556865 0.22544 0
1056 1 0.592769 0.190232 0
1086 1 0.599481 0.213695 0
1087 1 0.616997 0.194483 0
1088 1 0.623787 0.218502 0
1089 1 0.641188 0.200143 0
1090 1 0.664677 0.205545 0
1119 1 0.647715 0.224386 0
1091 1 0.682805 0.187292 0
1092 1 0.6908 0.212162 0
1093 1 0.707222 0.193459 0
1123 1 0.715294 0.218743 0
1095 1 0.74716 0.181606 0
1094 1 0.732142 0.200094 0
1096 1 0.758605 0.204892 0
1125 1 0.740106 0.223293 0
1097 1 0.779219 0.185292 0
1127 1 0.783359 0.210171 0
1098 1 0.80695 0.215794 0
1100 1 0.822664 0.197285 0
1101 1 0.848489 0.19223 0
1129 1 0.831354 0.221229 0
1102 1 0.867969 0.209782 0
1103 1 0.872109 0.184959 0
1104 1 0.891069 0.202045 0
1133 1 0.905813 0.220288 0
1105 1 0.914546 0.196517 0
1076 1 0.938763 0.190363 0
1135 1 0.932287 0.214523 0
1107 1 0.955763 0.208989 0
1078 1 0.962429 0.184276 0
1109 1 0.980061 0.203016 0
1110 1 0.997654 0.220668 0
1111 1 0.515125 0.23823 0
1113 1 0.540083 0.244102 0
1112 1 0.522494 0.261814 0
1143 1 0.546045 0.268248 0
1114 1 0.563033 0.250567 0
1115 1 0.580959 0.231654 0
1116 1 0.587934 0.255035 0
1117 1 0.605646 0.236857 0
1118 1 0.629459 0.242789 0
1147 1 0.61246 0.26069 0
1149 1 0.63669 0.26603 0
1121 1 0.671715 0.22908 0
1120 1 0.654082 0.248226 0
1151 1 0.678515 0.25244 0
1150 1 0.6614 0.271373 0
1122 1 0.696836 0.236354 0
1124 1 0.722392 0.241689 0
1153 1 0.703 0.260343 0
1126 1 0.764189 0.228555 0
1154 1 0.727501 0.265404 0
1155 1 0.746505 0.247349 0
1156 1 0.752357 0.270871 0
1157 1 0.771725 0.252537 0
1128 1 0.788805 0.23433 0
1159 1 0.813867 0.240319 0
1158 1 0.795518 0.258229 0
1160 1 0.820261 0.265429 0
1131 1 0.855363 0.230048 0
1130 1 0.838052 0.24798 0
1191 1 0.843639 0.271561 0
1161 1 0.864215 0.254325 0
1132 1 0.881318 0.231553 0
1163 1 0.888292 0.261887 0
1134 1 0.905654 0.244509 0