ITEM: TIMESTEP
88000
ITEM: NUMBER OF ATOMS
1800
ITEM: BOX BOUNDS pp pp pp
1.1770739065686087e+00 1.6382292609343514e+02
1.1770739065686087e+00 1.6382292609343514e+02
0.0000000000000000e+00 5.5000000000000000e+00
ITEM: ATOMS id type xs ys zs
2 1 0.0130581 0.0142161 0
3 1 0.0371198 0.00878159 0
33 1 0.0289242 0.0334415 0
31 1 0.00452302 0.0396195 0
4 1 0.0542398 0.0270125 0
6 1 0.077378 0.0207033 0
5 1 0.0608663 0.00185982 0
35 1 0.0709288 0.0445904 0
8 1 0.102189 0.0139894 0
37 1 0.0948103 0.0381477 0
9 1 0.126129 0.00715628 0
39 1 0.118635 0.0312268 0
10 1 0.142981 0.0255757 0
12 1 0.166895 0.0186272 0
40 1 0.160323 0.0434106 0
1110 1 5.26894e-05 0.220287 0
41 1 0.183854 0.0369847 0
14 1 0.207922 0.0316854 0
15 1 0.213917 0.00745844 0
13 1 0.190507 0.013183 0
16 1 0.255751 0.0200053 0
46 1 0.249778 0.043273 0
886 1 0.237683 0.00109962 0
47 1 0.273534 0.0367866 0
18 1 0.278944 0.0112856 0
49 1 0.297512 0.0295953 0
19 1 0.304004 0.00481722 0
20 1 0.322287 0.0215774 0
51 1 0.339478 0.039622 0
21 1 0.34599 0.0160564 0
22 1 0.364196 0.033854 0
24 1 0.389684 0.0285784 0
23 1 0.370568 0.00946352 0
894 1 0.394394 0.00394075 0
25 1 0.413639 0.0219464 0
26 1 0.430553 0.0413058 0
27 1 0.449134 0.0234174 0
29 1 0.473714 0.0273985 0
900 1 0.490642 0.00993558 0
898 1 0.46606 0.00442506 0
30 1 0.498262 0.0334067 0
32 1 0.0227934 0.0572623 0
62 1 0.0165529 0.0820037 0
63 1 0.0405427 0.0750582 0
34 1 0.0471353 0.0511754 0
65 1 0.0644921 0.0690145 0
66 1 0.0811591 0.0861666 0
36 1 0.088565 0.0622246 0
38 1 0.111835 0.0562752 0
67 1 0.10499 0.080325 0
68 1 0.129439 0.0741226 0
69 1 0.136232 0.0503751 0
71 1 0.154038 0.0678568 0
42 1 0.177973 0.061024 0
72 1 0.171746 0.0854139 0
43 1 0.201928 0.0551289 0
44 1 0.21909 0.0752122 0
73 1 0.195047 0.0793119 0
45 1 0.225545 0.0494668 0
75 1 0.24416 0.0677308 0
77 1 0.26845 0.0621004 0
76 1 0.261974 0.0859173 0
74 1 0.237973 0.0908841 0
48 1 0.291124 0.0543719 0
79 1 0.308569 0.0715531 0
78 1 0.285652 0.0798353 0
50 1 0.315361 0.0466771 0
81 1 0.332868 0.0641084 0
52 1 0.356172 0.0574662 0
82 1 0.350796 0.0820878 0
80 1 0.325635 0.088798 0
55 1 0.406744 0.0477068 0
53 1 0.382122 0.0512929 0
83 1 0.373321 0.0738833 0
54 1 0.398717 0.072056 0
57 1 0.440418 0.0633068 0
56 1 0.422272 0.080525 0
87 1 0.447992 0.0872005 0
28 1 0.456494 0.0458773 0
59 1 0.481548 0.0514434 0
58 1 0.465649 0.0698123 0
89 1 0.489837 0.0761549 0
92 1 0.0265682 0.125309 0
93 1 0.033186 0.0991051 0
91 1 0.00920485 0.106463 0
121 1 0.00200618 0.130857 0
64 1 0.0576401 0.0936424 0
94 1 0.0506085 0.117643 0
95 1 0.0755268 0.110257 0
125 1 0.0694875 0.13549 0
96 1 0.0927252 0.128133 0
97 1 0.0991848 0.104368 0
98 1 0.117387 0.121631 0
99 1 0.122972 0.0973301 0
70 1 0.147987 0.0913121 0
100 1 0.141563 0.11464 0
101 1 0.166557 0.109603 0
130 1 0.157895 0.131891 0
103 1 0.190174 0.103408 0
102 1 0.189748 0.127852 0
104 1 0.2146 0.129788 0
105 1 0.214151 0.100553 0
106 1 0.236191 0.115585 0
137 1 0.260292 0.120823 0
109 1 0.304029 0.101888 0
107 1 0.278823 0.104669 0
108 1 0.283551 0.129529 0
110 1 0.32306 0.119728 0
111 1 0.342992 0.105872 0
141 1 0.349667 0.128569 0
84 1 0.384645 0.0946406 0
113 1 0.366599 0.110853 0
112 1 0.390826 0.118191 0
143 1 0.373206 0.13537 0
85 1 0.407393 0.0998514 0
115 1 0.414688 0.12296 0
86 1 0.431727 0.10541 0
116 1 0.438696 0.129202 0
117 1 0.455506 0.111329 0
88 1 0.472211 0.0935275 0
119 1 0.479506 0.117376 0
90 1 0.496551 0.099244 0
118 1 0.462503 0.135763 0
122 1 0.019505 0.149374 0
153 1 0.0386292 0.165938 0
152 1 0.0125986 0.172542 0
123 1 0.0446962 0.142379 0
124 1 0.0628941 0.160594 0
126 1 0.0879095 0.154112 0
155 1 0.0805891 0.179318 0
127 1 0.110018 0.145187 0
128 1 0.127006 0.162204 0
157 1 0.104461 0.171825 0
129 1 0.134908 0.138956 0
159 1 0.152577 0.156721 0
131 1 0.175726 0.147513 0
160 1 0.142706 0.179872 0
132 1 0.18213 0.17025 0
133 1 0.199962 0.151281 0
163 1 0.205664 0.175841 0
134 1 0.222877 0.156802 0
135 1 0.239924 0.139126 0
136 1 0.264107 0.145721 0
165 1 0.246604 0.163935 0
167 1 0.270476 0.170366 0
139 1 0.306095 0.137508 0
138 1 0.288642 0.154427 0
169 1 0.313017 0.161977 0
168 1 0.294173 0.179339 0
140 1 0.331029 0.144028 0
142 1 0.355451 0.152127 0
171 1 0.338147 0.168746 0
172 1 0.362334 0.17588 0
114 1 0.397502 0.141568 0
144 1 0.403472 0.164063 0
173 1 0.379973 0.158033 0
145 1 0.421042 0.146644 0
146 1 0.428162 0.170885 0
147 1 0.445181 0.153002 0
177 1 0.45261 0.177582 0
149 1 0.487291 0.14133 0
148 1 0.469031 0.159013 0
150 1 0.493135 0.164903 0
183 1 0.0312383 0.188995 0
182 1 0.0243474 0.213817 0
181 1 0.00627242 0.196185 0
184 1 0.0472129 0.207626 0
154 1 0.0557842 0.184493 0
185 1 0.0730151 0.203008 0
215 1 0.0634791 0.224567 0
186 1 0.0886128 0.223224 0
156 1 0.0983877 0.19975 0
158 1 0.121455 0.190819 0
187 1 0.122662 0.216549 0
161 1 0.16521 0.187476 0
189 1 0.144869 0.203978 0
191 1 0.169083 0.211242 0
190 1 0.150968 0.227589 0
162 1 0.188418 0.193766 0
193 1 0.212373 0.200967 0
192 1 0.193499 0.217949 0
194 1 0.217367 0.224723 0
164 1 0.228921 0.181966 0
195 1 0.235427 0.207406 0
166 1 0.253253 0.188449 0
196 1 0.259159 0.214281 0
197 1 0.276243 0.196188 0
199 1 0.300479 0.202239 0
198 1 0.283497 0.219904 0
170 1 0.319185 0.185495 0
201 1 0.344238 0.192564 0
200 1 0.325793 0.209137 0
202 1 0.350668 0.216376 0
174 1 0.386176 0.181288 0
203 1 0.368221 0.199783 0
233 1 0.375267 0.224282 0
204 1 0.392494 0.206845 0
175 1 0.40966 0.188689 0
205 1 0.41656 0.212467 0
176 1 0.434399 0.194354 0
207 1 0.44035 0.217956 0
179 1 0.476078 0.183281 0
178 1 0.458399 0.201307 0
209 1 0.482806 0.207075 0
208 1 0.464402 0.225054 0
212 1 0.0248498 0.259301 0
211 1 0.0182888 0.236999 0
213 1 0.0432942 0.2401 0
241 1 0.00486178 0.273847 0
243 1 0.0493634 0.264542 0
214 1 0.0671407 0.248667 0
216 1 0.0913966 0.254137 0
245 1 0.0738581 0.27169 0
217 1 0.1088 0.237796 0
218 1 0.114058 0.262447 0
188 1 0.132812 0.244561 0
219 1 0.138181 0.268822 0
221 1 0.17539 0.234836 0
220 1 0.157289 0.252267 0
222 1 0.181265 0.259468 0
223 1 0.199691 0.242481 0
253 1 0.205134 0.266768 0
224 1 0.224167 0.249698 0
225 1 0.241818 0.232094 0
227 1 0.265429 0.238653 0
226 1 0.247703 0.256163 0
257 1 0.272496 0.262804 0
229 1 0.307858 0.226177 0
228 1 0.289462 0.243966 0
259 1 0.296748 0.268494 0
230 1 0.314433 0.250853 0
231 1 0.332186 0.232939 0
232 1 0.357959 0.24129 0
261 1 0.338817 0.258154 0
263 1 0.362844 0.265637 0
235 1 0.399516 0.230031 0
234 1 0.381615 0.248057 0
265 1 0.405155 0.254857 0
264 1 0.387385 0.272217 0
206 1 0.422872 0.236031 0
237 1 0.446723 0.242067 0
236 1 0.429686 0.261058 0
238 1 0.453594 0.266343 0
210 1 0.488665 0.231488 0
239 1 0.470474 0.249163 0
240 1 0.494407 0.255844 0
242 1 0.0312511 0.282156 0
273 1 0.0364919 0.305427 0
271 1 0.0131073 0.298014 0
244 1 0.0546453 0.289054 0
246 1 0.0784743 0.296617 0
275 1 0.0595106 0.313672 0
247 1 0.0963442 0.279026 0
249 1 0.120273 0.286603 0
248 1 0.101966 0.304237 0
279 1 0.126224 0.310656 0
251 1 0.162229 0.276436 0
250 1 0.144169 0.293088 0
281 1 0.168774 0.301272 0
252 1 0.186168 0.284455 0
254 1 0.211115 0.290687 0
283 1 0.194087 0.307715 0
284 1 0.218576 0.315307 0
255 1 0.228881 0.273174 0
256 1 0.253608 0.279826 0
285 1 0.23577 0.297405 0
287 1 0.260773 0.303933 0
258 1 0.279583 0.286737 0
288 1 0.285541 0.310666 0
289 1 0.30329 0.293101 0
260 1 0.321346 0.276404 0
262 1 0.345559 0.282631 0
291 1 0.327466 0.300192 0
292 1 0.351026 0.307251 0
293 1 0.369915 0.289505 0
295 1 0.394132 0.29591 0
294 1 0.377085 0.313413 0
266 1 0.412625 0.279139 0
267 1 0.435751 0.284971 0
297 1 0.418302 0.303102 0
298 1 0.441641 0.31061 0
269 1 0.476171 0.273912 0
268 1 0.459562 0.292732 0
270 1 0.484081 0.29855 0
299 1 0.466779 0.31752 0
1229 1 0.000437015 0.339667 0
1200 1 0.0187297 0.323698 0
272 1 0.0429038 0.331604 0
301 1 0.0243069 0.348142 0
276 1 0.0839212 0.320567 0
303 1 0.0486437 0.355202 0
274 1 0.0668216 0.338086 0
304 1 0.0725924 0.362166 0
305 1 0.0905147 0.345239 0
277 1 0.108938 0.327329 0
278 1 0.132521 0.33419 0
307 1 0.114349 0.351537 0
280 1 0.150286 0.317329 0
282 1 0.174401 0.324849 0
309 1 0.13831 0.358453 0
311 1 0.155743 0.341058 0
312 1 0.181513 0.348273 0
313 1 0.199867 0.3322 0
314 1 0.205916 0.355923 0
315 1 0.224724 0.33871 0
286 1 0.242621 0.321102 0
317 1 0.266945 0.327824 0
316 1 0.248306 0.345058 0
318 1 0.273164 0.352297 0
345 1 0.229348 0.362658 0
290 1 0.309223 0.317133 0
319 1 0.290974 0.335944 0
349 1 0.29702 0.359515 0
320 1 0.315265 0.341347 0
321 1 0.333818 0.324903 0
323 1 0.357956 0.331884 0
322 1 0.340438 0.349307 0
324 1 0.36365 0.356666 0
296 1 0.399955 0.32056 0
325 1 0.381647 0.338725 0
326 1 0.406212 0.345196 0
355 1 0.387492 0.362713 0
327 1 0.424098 0.328015 0
328 1 0.430498 0.352283 0
329 1 0.448977 0.333986 0
359 1 0.455559 0.357435 0
300 1 0.491918 0.322219 0
330 1 0.472844 0.340505 0
1201 1 0.498466 0.346099 0
1230 1 0.00602064 0.364871 0
302 1 0.029403 0.372091 0
332 1 0.0358913 0.397252 0
331 1 0.0115073 0.389773 0
333 1 0.0540767 0.379181 0
335 1 0.0776008 0.387452 0
334 1 0.0594928 0.404403 0
306 1 0.0963903 0.36981 0
308 1 0.120683 0.376171 0
337 1 0.10271 0.393683 0
338 1 0.126731 0.400739 0
310 1 0.163163 0.366394 0
339 1 0.145638 0.383044 0
341 1 0.169018 0.390771 0
340 1 0.151776 0.407654 0
343 1 0.187078 0.372631 0
342 1 0.192638 0.397106 0
344 1 0.210768 0.379885 0
373 1 0.216675 0.404805 0
347 1 0.253891 0.369093 0
346 1 0.235612 0.387151 0
377 1 0.260106 0.39332 0
348 1 0.278909 0.375439 0
350 1 0.302989 0.38426 0
378 1 0.284103 0.401252 0
379 1 0.308775 0.408049 0
351 1 0.321458 0.366503 0
381 1 0.326969 0.391506 0
353 1 0.345102 0.373753 0
352 1 0.351008 0.398155 0
354 1 0.369134 0.381137 0
385 1 0.377064 0.405 0
356 1 0.394363 0.387542 0
387 1 0.419071 0.393963 0
357 1 0.412408 0.370318 0
358 1 0.437135 0.375119 0
388 1 0.444033 0.399253 0
360 1 0.479989 0.363447 0
389 1 0.462543 0.382317 0
1232 1 0.486996 0.388165 0
1261 1 0.468688 0.405429 0
361 1 0.0174718 0.413945 0
362 1 0.0229039 0.437871 0
363 1 0.0417972 0.421659 0
336 1 0.0833809 0.411851 0
364 1 0.0473727 0.446607 0
365 1 0.0662359 0.429127 0
395 1 0.0724592 0.453136 0
366 1 0.0903385 0.435305 0
367 1 0.108727 0.417607 0
368 1 0.114295 0.44228 0
369 1 0.13236 0.425677 0
371 1 0.175714 0.415301 0
399 1 0.139041 0.450553 0
370 1 0.157079 0.431843 0
401 1 0.181829 0.439696 0
372 1 0.199575 0.422315 0
403 1 0.20607 0.446586 0
374 1 0.224107 0.428364 0
375 1 0.242201 0.410821 0
376 1 0.26557 0.417171 0
405 1 0.247731 0.435501 0
404 1 0.230414 0.452962 0
407 1 0.273576 0.441932 0
409 1 0.290855 0.425053 0
410 1 0.297619 0.449842 0
380 1 0.316211 0.432948 0
382 1 0.333375 0.415656 0
383 1 0.359233 0.422535 0
413 1 0.341284 0.439903 0
386 1 0.401948 0.411655 0
384 1 0.383738 0.430221 0
414 1 0.366112 0.44701 0
417 1 0.409428 0.435771 0
415 1 0.390026 0.453909 0
418 1 0.43404 0.441423 0
419 1 0.42614 0.417139 0
390 1 0.451261 0.423553 0
420 1 0.457896 0.447656 0
1262 1 0.49458 0.411909 0
1291 1 0.475803 0.429329 0
1321 1 0.481947 0.453865 0
392 1 0.0045234 0.455373 0
393 1 0.0291749 0.462588 0
422 1 0.00972656 0.479836 0
423 1 0.0351221 0.487861 0
394 1 0.0534143 0.470326 0
396 1 0.0786817 0.477255 0
425 1 0.0601148 0.49357 0
397 1 0.0972829 0.459982 0
398 1 0.121045 0.468495 0
427 1 0.103373 0.485229 0
428 1 0.127506 0.491431 0
400 1 0.163897 0.456569 0
429 1 0.145243 0.474682 0
431 1 0.169642 0.481544 0
430 1 0.152158 0.499308 0
402 1 0.188965 0.464494 0
432 1 0.193786 0.488693 0
433 1 0.211506 0.471584 0
434 1 0.217588 0.496582 0
406 1 0.254413 0.458935 0
435 1 0.235107 0.478367 0
436 1 0.258598 0.48248 0
408 1 0.278516 0.466561 0
439 1 0.285267 0.490175 0
440 1 0.310853 0.497466 0
441 1 0.304687 0.473504 0
411 1 0.322762 0.457799 0
412 1 0.347786 0.465227 0
442 1 0.32952 0.482161 0
473 1 0.353397 0.488869 0
443 1 0.371978 0.472243 0
445 1 0.395595 0.478286 0
444 1 0.378097 0.497282 0
446 1 0.420055 0.485502 0
416 1 0.415094 0.460394 0
447 1 0.44077 0.465559 0
448 1 0.445977 0.489739 0
449 1 0.464456 0.471753 0
450 1 0.489557 0.47761 0
479 1 0.472199 0.496814 0
454 1 0.0233464 0.528146 0
453 1 0.0170405 0.503494 0
424 1 0.0421081 0.512328 0
483 1 0.00513494 0.544721 0
485 1 0.0486584 0.536265 0
455 1 0.0661359 0.518472 0
426 1 0.084776 0.502299 0
456 1 0.0897676 0.526318 0
486 1 0.0721628 0.544836 0
457 1 0.109609 0.50902 0
459 1 0.133854 0.516288 0
458 1 0.115053 0.532821 0
489 1 0.139722 0.539859 0
460 1 0.158075 0.523164 0
461 1 0.175963 0.506392 0
462 1 0.181557 0.531491 0
493 1 0.206336 0.539418 0
463 1 0.199892 0.513796 0
464 1 0.223611 0.521786 0
466 1 0.24768 0.53081 0
465 1 0.240457 0.503591 0
437 1 0.265628 0.506059 0
467 1 0.271917 0.528997 0
468 1 0.295214 0.537195 0
438 1 0.290706 0.512952 0
469 1 0.315178 0.52211 0
470 1 0.338464 0.530974 0
472 1 0.359358 0.514274 0
471 1 0.335601 0.506855 0
503 1 0.361927 0.539374 0
474 1 0.383908 0.522885 0
475 1 0.40259 0.504518 0
476 1 0.409844 0.530815 0
477 1 0.428211 0.509646 0
507 1 0.435706 0.53351 0
478 1 0.453968 0.513742 0
480 1 0.46275 0.537317 0
1381 1 0.480413 0.519738 0
1351 1 0.497075 0.500938 0
510 1 0.488782 0.543732 0
482 1 0.0108077 0.568852 0
513 1 0.0297414 0.552938 0
514 1 0.0347603 0.577888 0
484 1 0.0539349 0.561841 0
515 1 0.0783789 0.568251 0
545 1 0.0607447 0.586495 0
487 1 0.0963568 0.551468 0
488 1 0.120295 0.557335 0
517 1 0.101337 0.576276 0
519 1 0.124821 0.582986 0
491 1 0.163056 0.546922 0
490 1 0.143265 0.563834 0
520 1 0.148902 0.587332 0
521 1 0.167645 0.571261 0
492 1 0.187598 0.55657 0
523 1 0.191832 0.581431 0
494 1 0.210781 0.564983 0
495 1 0.231339 0.550842 0
525 1 0.232843 0.576855 0
496 1 0.253375 0.563299 0
526 1 0.255929 0.590024 0
499 1 0.318771 0.546269 0
497 1 0.274873 0.552716 0
527 1 0.276117 0.577124 0
498 1 0.297316 0.56215 0
529 1 0.299551 0.585537 0
500 1 0.320237 0.571123 0
501 1 0.342107 0.55603 0
531 1 0.343137 0.580077 0
505 1 0.385186 0.548203 0
502 1 0.36414 0.563815 0
504 1 0.386934 0.57323 0
533 1 0.366547 0.588629 0
506 1 0.407867 0.558054 0
535 1 0.408554 0.583737 0
508 1 0.429035 0.571289 0
509 1 0.447051 0.5558 0
539 1 0.452764 0.579879 0
540 1 0.471 0.560859 0
1441 1 0.495887 0.567287 0
569 1 0.478866 0.585761 0
512 1 0.0169373 0.593419 0
542 1 0.0209484 0.618677 0
543 1 0.039519 0.601566 0
571 1 0.000664169 0.633679 0
544 1 0.0441592 0.627875 0
546 1 0.0630911 0.612053 0
516 1 0.0839131 0.596958 0
547 1 0.0871175 0.622565 0
518 1 0.109301 0.605694 0
548 1 0.129891 0.623691 0
522 1 0.172127 0.597327 0
549 1 0.15135 0.610711 0
551 1 0.173591 0.622674 0
524 1 0.213617 0.592847 0
553 1 0.193731 0.607361 0
552 1 0.196164 0.632181 0
554 1 0.21707 0.618101 0
555 1 0.236478 0.603627 0
556 1 0.239671 0.629323 0
557 1 0.259163 0.614254 0
528 1 0.280317 0.601431 0
559 1 0.302545 0.610454 0
558 1 0.282324 0.624956 0
560 1 0.305259 0.634473 0
530 1 0.322052 0.595181 0
561 1 0.325381 0.619965 0
532 1 0.344777 0.604351 0
562 1 0.347873 0.629765 0
563 1 0.368145 0.614432 0
534 1 0.388235 0.598769 0
565 1 0.390585 0.624477 0
536 1 0.410013 0.607882 0
537 1 0.432971 0.595326 0
567 1 0.430689 0.619287 0
568 1 0.452732 0.626738 0
566 1 0.412694 0.635791 0
538 1 0.461601 0.60389 0
570 1 0.486339 0.611045 0
600 1 0.474904 0.632553 0
573 1 0.023971 0.643517 0
603 1 0.0261799 0.668764 0
572 1 0.00420597 0.657979 0
574 1 0.0463903 0.653557 0
604 1 0.0486957 0.679025 0
575 1 0.0660143 0.639117 0
605 1 0.0687552 0.664938 0
576 1 0.088098 0.649135 0
577 1 0.109057 0.636406 0
607 1 0.0903641 0.677455 0
578 1 0.110387 0.662885 0
579 1 0.132463 0.649309 0
609 1 0.13428 0.673997 0
550 1 0.153094 0.634909 0
581 1 0.174658 0.646428 0
580 1 0.155413 0.660507 0
611 1 0.17852 0.6704 0
583 1 0.21897 0.642806 0
582 1 0.19859 0.65743 0
584 1 0.221673 0.667656 0
587 1 0.262105 0.638886 0
585 1 0.241361 0.654028 0
586 1 0.265496 0.663775 0
615 1 0.24511 0.678309 0
589 1 0.284764 0.649422 0
588 1 0.287502 0.674707 0
590 1 0.307694 0.659726 0
591 1 0.328251 0.645671 0
593 1 0.351447 0.654412 0
621 1 0.330318 0.669759 0
592 1 0.353918 0.678977 0
564 1 0.3715 0.640056 0
594 1 0.374 0.665465 0
595 1 0.393946 0.651029 0
625 1 0.396789 0.676479 0
596 1 0.415969 0.661366 0
597 1 0.43445 0.644413 0
598 1 0.440773 0.67014 0
1501 1 0.49815 0.635877 0
599 1 0.458115 0.651556 0
629 1 0.482039 0.65538 0
628 1 0.464594 0.67585 0
630 1 0.488887 0.680366 0
602 1 0.00699222 0.683731 0
633 1 0.028893 0.694881 0
632 1 0.00898486 0.709076 0
634 1 0.0305142 0.719903 0
606 1 0.0710133 0.691194 0
635 1 0.0506863 0.704434 0
636 1 0.0721266 0.717604 0
637 1 0.0932366 0.703374 0
608 1 0.114132 0.688215 0
638 1 0.115801 0.713086 0
639 1 0.137554 0.698469 0
640 1 0.138762 0.723855 0
610 1 0.158503 0.684806 0
641 1 0.159428 0.709634 0
612 1 0.180367 0.695415 0
642 1 0.181582 0.720223 0
613 1 0.200754 0.682336 0
614 1 0.224154 0.692838 0
643 1 0.2024 0.706361 0
645 1 0.225209 0.717448 0
617 1 0.268284 0.688317 0
616 1 0.247658 0.703098 0
647 1 0.269192 0.715422 0
619 1 0.310191 0.684769 0
618 1 0.289856 0.699886 0
620 1 0.31185 0.709658 0
649 1 0.291703 0.72497 0
622 1 0.332438 0.694134 0
651 1 0.335319 0.719876 0
653 1 0.354727 0.705101 0
623 1 0.375903 0.691396 0
624 1 0.380303 0.716267 0
626 1 0.399611 0.700327 0
655 1 0.405061 0.723639 0
627 1 0.42072 0.687632 0
657 1 0.445758 0.694182 0
656 1 0.427508 0.713906 0
658 1 0.453491 0.720639 0
659 1 0.470732 0.701029 0
1531 1 0.49634 0.704436 0
660 1 0.479602 0.723721 0
662 1 0.0103702 0.758023 0
663 1 0.00899069 0.733935 0
664 1 0.0309246 0.744738 0
694 1 0.033269 0.769654 0
665 1 0.0519142 0.731569 0
666 1 0.0746046 0.742069 0
695 1 0.0537183 0.756129 0
697 1 0.0757875 0.767243 0
667 1 0.0955659 0.728693 0
669 1 0.118232 0.738802 0
668 1 0.0964067 0.753502 0
699 1 0.118881 0.764061 0
670 1 0.139788 0.749792 0
671 1 0.16006 0.735876 0
672 1 0.162328 0.761146 0
673 1 0.1834 0.746278 0
644 1 0.203371 0.731594 0
674 1 0.204998 0.757193 0
703 1 0.184207 0.771764 0
675 1 0.22549 0.742734 0
646 1 0.248566 0.729044 0
705 1 0.22797 0.768316 0
677 1 0.248774 0.753054 0
648 1 0.270552 0.741195 0
678 1 0.272733 0.766555 0
650 1 0.314279 0.733543 0
679 1 0.293856 0.75007 0
681 1 0.317384 0.756383 0
652 1 0.339447 0.745702 0
682 1 0.337743 0.77004 0
683 1 0.361221 0.760071 0
654 1 0.35959 0.729809 0
685 1 0.384281 0.753276 0
715 1 0.402426 0.771079 0
686 1 0.407955 0.746641 0
687 1 0.433493 0.739392 0
717 1 0.425865 0.763698 0
688 1 0.450188 0.761864 0
689 1 0.464676 0.742316 0
690 1 0.488823 0.747664 0
719 1 0.473882 0.766319 0
1591 1 0.497615 0.770687 0
693 1 0.0122677 0.782342 0
692 1 0.0128954 0.806828 0
723 1 0.0344363 0.794172 0
696 1 0.0554828 0.781094 0
725 1 0.0568828 0.806309 0
727 1 0.0774395 0.792833 0
726 1 0.0792807 0.817049 0
698 1 0.0980957 0.778147 0
728 1 0.100469 0.802854 0
729 1 0.123518 0.814184 0
700 1 0.121308 0.788803 0
701 1 0.141958 0.774787 0
702 1 0.163946 0.785989 0
731 1 0.143241 0.800275 0
732 1 0.165629 0.810872 0
704 1 0.20752 0.782605 0
733 1 0.186923 0.796368 0
735 1 0.20998 0.807442 0
706 1 0.231913 0.79437 0
676 1 0.250017 0.777087 0
737 1 0.257729 0.814726 0
707 1 0.268958 0.79214 0
680 1 0.314679 0.779563 0
709 1 0.291143 0.783505 0
708 1 0.285279 0.809567 0
710 1 0.30898 0.802891 0
711 1 0.332397 0.796554 0
712 1 0.35091 0.81211 0
713 1 0.355744 0.786389 0
684 1 0.37886 0.778495 0
714 1 0.398048 0.794656 0
743 1 0.375738 0.804016 0
716 1 0.421032 0.787803 0
747 1 0.440645 0.804435 0
746 1 0.416645 0.811409 0
718 1 0.457754 0.785059 0
720 1 0.481794 0.790877 0
749 1 0.465831 0.80983 0
1621 1 0.490992 0.813342 0
722 1 0.0351294 0.818347 0
751 1 0.0150293 0.831968 0
752 1 0.0139769 0.857757 0
753 1 0.0358377 0.844733 0
724 1 0.0578827 0.831942 0
755 1 0.0796768 0.842751 0
754 1 0.0576829 0.85742 0
756 1 0.101497 0.852611 0
757 1 0.102245 0.827944 0
759 1 0.124352 0.839804 0
730 1 0.144505 0.826355 0
760 1 0.146963 0.851696 0
761 1 0.166599 0.835263 0
791 1 0.169952 0.864118 0
763 1 0.187665 0.821393 0
734 1 0.210074 0.833554 0
762 1 0.188111 0.846067 0
764 1 0.208285 0.858263 0
736 1 0.23101 0.820295 0
767 1 0.255113 0.840888 0
765 1 0.231002 0.847645 0
768 1 0.273896 0.856841 0
739 1 0.303255 0.826317 0
738 1 0.278695 0.833335 0
769 1 0.297698 0.850841 0
741 1 0.327133 0.820659 0
740 1 0.321421 0.844486 0
771 1 0.340273 0.861151 0
742 1 0.345825 0.836667 0
745 1 0.394187 0.820246 0
773 1 0.365498 0.853 0
744 1 0.369607 0.828223 0
774 1 0.389203 0.844829 0
775 1 0.412486 0.836239 0
777 1 0.433833 0.846989 0
748 1 0.449194 0.827171 0
776 1 0.410505 0.862771 0
750 1 0.475547 0.832482 0
779 1 0.458751 0.850654 0
780 1 0.484052 0.856013 0
783 1 0.035487 0.872292 0
782 1 0.00605501 0.881323 0
813 1 0.0241373 0.897576 0
785 1 0.0802068 0.86863 0
784 1 0.0592935 0.88254 0
786 1 0.0828494 0.893609 0
815 1 0.0631003 0.909508 0
758 1 0.125353 0.864173 0
787 1 0.103336 0.876659 0
788 1 0.12691 0.888571 0
817 1 0.105792 0.901119 0
789 1 0.148617 0.875833 0
819 1 0.147578 0.902104 0
790 1 0.169228 0.890163 0
792 1 0.191839 0.87732 0
793 1 0.215862 0.893019 0
823 1 0.193058 0.903605 0
766 1 0.250238 0.864598 0
795 1 0.227695 0.871903 0
796 1 0.245508 0.888507 0
827 1 0.263254 0.9052 0
797 1 0.269766 0.880729 0
799 1 0.293692 0.87521 0
798 1 0.287631 0.898746 0
800 1 0.311733 0.89157 0
770 1 0.316457 0.867781 0
801 1 0.334896 0.884631 0
802 1 0.3533 0.901608 0
772 1 0.359578 0.877223 0
803 1 0.385036 0.869458 0
805 1 0.402128 0.887514 0
804 1 0.378718 0.895847 0
778 1 0.44252 0.869728 0
807 1 0.426732 0.887319 0
808 1 0.450727 0.892761 0
809 1 0.467285 0.87355 0
1681 1 0.492153 0.879099 0
810 1 0.475398 0.896587 0
842 1 0.00850306 0.948166 0
843 1 0.0154365 0.923139 0
844 1 0.0324499 0.941451 0
814 1 0.0387679 0.916621 0
816 1 0.0799313 0.930069 0
845 1 0.0559373 0.934262 0
846 1 0.0735939 0.95428 0
818 1 0.126402 0.914603 0
847 1 0.103882 0.924832 0
849 1 0.122234 0.940188 0
848 1 0.0979426 0.948275 0
821 1 0.166937 0.916646 0
820 1 0.146223 0.930459 0
851 1 0.165121 0.949716 0
794 1 0.212831 0.918115 0
824 1 0.208906 0.941919 0
822 1 0.188445 0.928632 0
825 1 0.237808 0.912062 0
855 1 0.232589 0.935266 0
826 1 0.25762 0.929629 0
856 1 0.251114 0.953041 0
829 1 0.305281 0.916591 0
828 1 0.28139 0.922366 0
857 1 0.275867 0.946753 0
859 1 0.298972 0.940155 0
831 1 0.329493 0.908681 0
830 1 0.32379 0.932919 0
832 1 0.347508 0.925705 0
861 1 0.341692 0.950906 0
806 1 0.397309 0.912927 0
863 1 0.365622 0.94368 0
833 1 0.372298 0.91968 0
834 1 0.390062 0.937012 0
865 1 0.406046 0.955672 0
837 1 0.434022 0.911113 0
835 1 0.415665 0.929697 0
838 1 0.443568 0.933733 0
836 1 0.429174 0.952474 0
839 1 0.459187 0.915399 0
840 1 0.483628 0.920205 0
1741 1 0.492022 0.944058 0
869 1 0.467931 0.939214 0
872 1 0.0188036 0.989872 0
873 1 0.0251278 0.965165 0
871 1 0.00110016 0.972717 0
874 1 0.0429495 0.983932 0
875 1 0.0492579 0.959354 0
876 1 0.0667238 0.977685 0
7 1 0.0848357 0.997061 0
877 1 0.0909166 0.972569 0
878 1 0.108387 0.989736 0
879 1 0.11621 0.964933 0
880 1 0.132124 0.982794 0
850 1 0.140277 0.956244 0
881 1 0.155734 0.976218 0
882 1 0.173571 0.994369 0
852 1 0.180251 0.968806 0
853 1 0.203796 0.965109 0
883 1 0.197051 0.988739 0
884 1 0.22129 0.982847 0
854 1 0.227627 0.958691 0
885 1 0.24462 0.976663 0
17 1 0.26177 0.994669 0
887 1 0.268142 0.970888 0
860 1 0.317296 0.957727 0
858 1 0.29315 0.964553 0
888 1 0.286071 0.987928 0
889 1 0.310394 0.981666 0
862 1 0.358667 0.968132 0
891 1 0.334525 0.974042 0
892 1 0.352537 0.99191 0
890 1 0.328398 0.998558 0
864 1 0.382882 0.961734 0
893 1 0.376594 0.985956 0
895 1 0.400673 0.980133 0
867 1 0.451594 0.958585 0
866 1 0.433425 0.9772 0
896 1 0.418401 0.996575 0
897 1 0.442632 0.999565 0
868 1 0.458277 0.980797 0
899 1 0.483421 0.98606 0
870 1 0.475656 0.962966 0
1771 1 0.500016 0.967654 0
11 1 0.150002 0.999998 0
902 1 0.540666 0.0190737 0
931 1 0.523329 0.0377376 0
901 1 0.515664 0.0153406 0
904 1 0.565255 0.026015 0
906 1 0.580853 0.00677347 0
935 1 0.588958 0.0309427 0
905 1 0.557451 0.00114209 0
933 1 0.547839 0.0435621 0
908 1 0.604428 0.0111156 0
937 1 0.611957 0.0356888 0
939 1 0.627698 0.0164161 0
938 1 0.636425 0.0407881 0
940 1 0.651212 0.0216136 0
971 1 0.674132 0.0264834 0
942 1 0.666915 0.0026882 0
943 1 0.703366 0.00622875 0
944 1 0.697591 0.0299159 0
945 1 0.72105 0.0243807 0
947 1 0.744497 0.0182588 0
948 1 0.761077 0.0358845 0
918 1 0.767426 0.0112352 0
946 1 0.736548 0.0429734 0
919 1 0.790985 0.00428919 0
949 1 0.785317 0.0288792 0
920 1 0.808478 0.0221959 0
951 1 0.831777 0.015959 0
952 1 0.850271 0.0344098 0
922 1 0.856183 0.0107315 0
950 1 0.825973 0.0406608 0
953 1 0.8739 0.0292978 0
955 1 0.897833 0.0227514 0
924 1 0.880976 0.00514867 0
926 1 0.922064 0.0167987 0
928 1 0.946484 0.00972069 0
957 1 0.938925 0.0340164 0
956 1 0.914918 0.0408039 0
930 1 0.988815 0.0209347 0
959 1 0.963098 0.0268815 0
929 1 0.971047 0.0034728 0
932 1 0.53091 0.0622904 0
962 1 0.538163 0.0860645 0
961 1 0.51399 0.0807908 0
60 1 0.506855 0.0571235 0
934 1 0.572912 0.0499148 0
963 1 0.554979 0.0683233 0
965 1 0.579054 0.0741817 0
936 1 0.597108 0.054899 0
966 1 0.603232 0.078828 0
967 1 0.620448 0.0606128 0
968 1 0.628203 0.0836369 0
969 1 0.645235 0.0657838 0
970 1 0.660348 0.046883 0
972 1 0.671001 0.0707131 0
999 1 0.653163 0.0891326 0
975 1 0.710762 0.051766 0
973 1 0.686108 0.0521393 0
1003 1 0.69665 0.0750194 0
1004 1 0.721184 0.0890135 0
974 1 0.729327 0.0660078 0
976 1 0.753951 0.0597072 0
1005 1 0.746476 0.0848219 0
1007 1 0.770442 0.0783531 0
979 1 0.802052 0.0470604 0
977 1 0.777995 0.0543876 0
978 1 0.794925 0.0718243 0
1009 1 0.812831 0.0892593 0
980 1 0.819324 0.06509 0
981 1 0.843682 0.0589305 0
1011 1 0.837273 0.0828722 0
982 1 0.861175 0.0786784 0
954 1 0.891373 0.0470009 0
983 1 0.867243 0.0538189 0
984 1 0.884828 0.0708886 0
1015 1 0.902847 0.0894609 0
985 1 0.909291 0.0644568 0
986 1 0.925894 0.083384 0
987 1 0.93243 0.0591761 0
988 1 0.950458 0.0770858 0
960 1 0.980495 0.0449407 0
958 1 0.956281 0.0519751 0
989 1 0.974809 0.0696381 0
990 1 0.992603 0.087367 0
61 1 0.999532 0.0638561 0
991 1 0.520856 0.104634 0
992 1 0.526603 0.128744 0
120 1 0.502987 0.122481 0
993 1 0.545107 0.110384 0
964 1 0.561928 0.0918916 0
994 1 0.569315 0.117182 0
995 1 0.585846 0.0972227 0
1023 1 0.551324 0.134561 0
996 1 0.594256 0.121623 0
997 1 0.61073 0.102513 0
1027 1 0.619202 0.126171 0
998 1 0.635109 0.107764 0
1000 1 0.659582 0.113152 0
1001 1 0.677232 0.0946852 0
1029 1 0.642862 0.131674 0
1031 1 0.684594 0.119938 0
1002 1 0.700858 0.101906 0
1033 1 0.70921 0.125519 0
1006 1 0.762835 0.102029 0
1035 1 0.738035 0.108968 0
1036 1 0.757117 0.125449 0
1034 1 0.732993 0.13334 0
1037 1 0.780937 0.119885 0
1008 1 0.788282 0.0952728 0
1039 1 0.805071 0.114483 0
1010 1 0.830387 0.107867 0
1012 1 0.854969 0.102837 0
1041 1 0.847045 0.126598 0
1040 1 0.823439 0.131981 0
1043 1 0.871243 0.120044 0
1013 1 0.878575 0.0961871 0
1014 1 0.895234 0.114506 0
1016 1 0.913238 0.132543 0
1017 1 0.919484 0.108085 0
1018 1 0.943239 0.101166 0
1047 1 0.936715 0.125547 0
1019 1 0.968608 0.0949784 0
1020 1 0.985646 0.112906 0
1049 1 0.961205 0.118784 0
1022 1 0.534445 0.152599 0
1053 1 0.542623 0.17629 0
1051 1 0.518059 0.17161 0
1021 1 0.510967 0.147913 0
1025 1 0.577749 0.139974 0
1024 1 0.559743 0.158298 0
1055 1 0.584653 0.163836 0
1026 1 0.601474 0.145288 0
1028 1 0.625545 0.150422 0
1057 1 0.608195 0.169082 0
1058 1 0.632413 0.175213 0
1059 1 0.648838 0.156925 0
1030 1 0.666446 0.138732 0
1061 1 0.673686 0.163289 0
1060 1 0.65609 0.181192 0
1032 1 0.69148 0.14475 0
1063 1 0.715267 0.15083 0
1062 1 0.698531 0.169395 0
1064 1 0.722591 0.174482 0
1065 1 0.741232 0.156524 0
1066 1 0.766056 0.165262 0
1095 1 0.746829 0.180142 0
1067 1 0.775047 0.143342 0
1038 1 0.798916 0.13804 0
1068 1 0.791191 0.162388 0
1069 1 0.815312 0.157154 0
1071 1 0.839157 0.150912 0
1070 1 0.831596 0.175747 0
1072 1 0.855551 0.169331 0
1042 1 0.863681 0.145058 0
1044 1 0.888365 0.138264 0
1073 1 0.880504 0.162806 0
1074 1 0.898569 0.182026 0
1045 1 0.905451 0.157378 0
1075 1 0.923236 0.175867 0
1046 1 0.929674 0.150955 0
1077 1 0.946613 0.167705 0
1048 1 0.95233 0.144077 0
1050 1 0.977048 0.13716 0
1079 1 0.970542 0.161505 0
151 1 0.995667 0.155464 0
1080 1 0.987623 0.179436 0
1052 1 0.524634 0.195189 0
1082 1 0.529573 0.220017 0
1081 1 0.505617 0.214393 0
180 1 0.500481 0.189437 0
1054 1 0.56632 0.181832 0
1083 1 0.548753 0.201435 0
1085 1 0.572556 0.206347 0
1084 1 0.554096 0.225345 0
1056 1 0.590886 0.187854 0
1086 1 0.597422 0.212004 0
1087 1 0.615083 0.192519 0
1088 1 0.621247 0.217906 0
1089 1 0.638535 0.199481 0
1090 1 0.662615 0.205243 0
1119 1 0.645955 0.222582 0
1091 1 0.680283 0.186512 0
1092 1 0.688156 0.21032 0
1093 1 0.704671 0.192976 0
1123 1 0.713167 0.216267 0
1094 1 0.730549 0.198429 0
1096 1 0.757881 0.202796 0
1125 1 0.737986 0.222297 0
1099 1 0.804596 0.182455 0
1127 1 0.781932 0.210531 0
1097 1 0.780078 0.185541 0
1098 1 0.80728 0.218572 0
1100 1 0.824629 0.199415 0
1101 1 0.849716 0.194274 0
1129 1 0.833052 0.222428 0
1102 1 0.867681 0.210514 0
1103 1 0.873666 0.186508 0
1104 1 0.891462 0.205119 0
1133 1 0.908155 0.223402 0
1105 1 0.916309 0.200769 0
1076 1 0.940437 0.193758 0
1135 1 0.933983 0.218238 0
1107 1 0.957676 0.211918 0
1078 1 0.96389 0.186256 0
1109 1 0.982521 0.203322 0
1349 1 0.962349 0.464619 0
1111 1 0.512692 0.237927 0
1113 1 0.53716 0.243664 0
1112 1 0.518736 0.262329 0
1143 1 0.543263 0.267186 0
1114 1 0.560513 0.249186 0
1115 1 0.578646 0.23015 0
1116 1 0.586247 0.254043 0
1117 1 0.603992 0.23575 0
1118 1 0.628224 0.242271 0
1147 1 0.610912 0.259538 0
1149 1 0.635348 0.265379 0
1121 1 0.67059 0.228377 0
1120 1 0.65351 0.246452 0
1151 1 0.678951 0.254108 0
1150 1 0.65989 0.270878 0
1122 1 0.695688 0.234851 0
1124 1 0.720923 0.239888 0
1153 1 0.703778 0.259042 0
1154 1 0.727849 0.26362 0
1126 1 0.763135 0.227768 0
1155 1 0.745713 0.246925 0
1157 1 0.770154 0.252283 0
1156 1 0.753631 0.270576 0
1128 1 0.787725 0.234974 0
1159 1 0.813199 0.241998 0
1158 1 0.795917 0.259288 0
1160 1 0.821056 0.267066 0
1131 1 0.856091 0.231489 0
1130 1 0.837881 0.248394 0
1161 1 0.863111 0.255041 0
1191 1 0.845118 0.272615 0
1132 1 0.88116 0.236497 0
1163 1 0.887541 0.262125 0