ITEM: TIMESTEP
164000
ITEM: NUMBER OF ATOMS
1800
ITEM: BOX BOUNDS pp pp pp
1.2002085428205476e+00 1.6379979145718158e+02
1.2002085428205476e+00 1.6379979145718158e+02
0.0000000000000000e+00 5.5000000000000000e+00
ITEM: ATOMS id type xs ys zs
2 1 0.0122758 0.01567 0
3 1 0.0364757 0.0110529 0
33 1 0.0293364 0.0344258 0
31 1 0.00505074 0.0402839 0
4 1 0.0541881 0.0289163 0
6 1 0.0787807 0.0221482 0
5 1 0.0620447 0.00494574 0
8 1 0.102884 0.0154291 0
37 1 0.0960371 0.0391417 0
9 1 0.126283 0.00838907 0
39 1 0.120165 0.0338964 0
10 1 0.144413 0.0279959 0
12 1 0.168414 0.0222022 0
11 1 0.150658 0.00297648 0
40 1 0.160941 0.0450491 0
41 1 0.185851 0.0396613 0
14 1 0.209278 0.0333141 0
15 1 0.214926 0.00868569 0
13 1 0.191477 0.0148875 0
16 1 0.257 0.0200304 0
886 1 0.238703 0.00381198 0
46 1 0.250799 0.0445767 0
47 1 0.274385 0.038079 0
18 1 0.281144 0.0137212 0
49 1 0.298777 0.0317712 0
19 1 0.305091 0.00704878 0
20 1 0.322289 0.0250035 0
51 1 0.339706 0.0415442 0
21 1 0.347095 0.0172658 0
22 1 0.365245 0.0339969 0
24 1 0.390992 0.0268308 0
23 1 0.371509 0.0101097 0
894 1 0.395175 0.003004 0
55 1 0.407122 0.0444366 0
25 1 0.415418 0.0214518 0
26 1 0.430978 0.0408524 0
27 1 0.448096 0.0239072 0
897 1 0.442243 0.000638436 0
29 1 0.472699 0.0296446 0
900 1 0.490015 0.0107677 0
898 1 0.465247 0.00608097 0
30 1 0.497698 0.0348734 0
32 1 0.0219071 0.0583696 0
62 1 0.0138493 0.0821188 0
63 1 0.0385879 0.0765659 0
35 1 0.0713779 0.046505 0
34 1 0.046075 0.0524297 0
65 1 0.0640318 0.069722 0
66 1 0.0809493 0.0873774 0
36 1 0.0885596 0.0633004 0
38 1 0.11249 0.0573223 0
67 1 0.10524 0.0812557 0
68 1 0.130357 0.0754164 0
69 1 0.137347 0.0514194 0
71 1 0.154386 0.0692368 0
42 1 0.178259 0.062997 0
72 1 0.17219 0.0872696 0
43 1 0.202742 0.0572885 0
44 1 0.219829 0.0746485 0
73 1 0.195594 0.080186 0
45 1 0.226965 0.0504712 0
75 1 0.243632 0.0688261 0
77 1 0.268122 0.0631448 0
76 1 0.260422 0.0873972 0
48 1 0.291699 0.056387 0
79 1 0.308486 0.0729396 0
78 1 0.285475 0.0814967 0
50 1 0.316245 0.0496973 0
81 1 0.334614 0.0658313 0
52 1 0.358451 0.0576911 0
82 1 0.351589 0.0823144 0
80 1 0.325473 0.0901447 0
53 1 0.383317 0.0512197 0
83 1 0.375097 0.0744145 0
54 1 0.399371 0.0704441 0
57 1 0.439054 0.0650463 0
56 1 0.421775 0.0814054 0
87 1 0.446852 0.0884652 0
28 1 0.455848 0.0466272 0
59 1 0.480682 0.0523807 0
58 1 0.463399 0.0710244 0
89 1 0.488326 0.075989 0
92 1 0.0246988 0.123598 0
93 1 0.030789 0.0994245 0
91 1 0.00680932 0.106108 0
121 1 -9.80433e-05 0.129248 0
64 1 0.0557279 0.0932095 0
94 1 0.0496531 0.118003 0
95 1 0.073521 0.110976 0
125 1 0.0671446 0.135576 0
96 1 0.0920143 0.128793 0
97 1 0.0989073 0.104984 0
98 1 0.116374 0.123678 0
99 1 0.123547 0.0991296 0
100 1 0.140351 0.118442 0
70 1 0.148171 0.0937864 0
101 1 0.164735 0.112523 0
130 1 0.156952 0.135701 0
103 1 0.188198 0.104568 0
102 1 0.197487 0.126842 0
105 1 0.21371 0.107146 0
104 1 0.221091 0.13438 0
74 1 0.236634 0.0931295 0
106 1 0.237222 0.117637 0
137 1 0.261726 0.124274 0
109 1 0.302836 0.100042 0
107 1 0.278794 0.105221 0
108 1 0.285007 0.130445 0
110 1 0.32228 0.116939 0
111 1 0.344306 0.106005 0
141 1 0.349276 0.130031 0
84 1 0.386033 0.0949281 0
113 1 0.367562 0.111872 0
112 1 0.390503 0.118866 0
85 1 0.408296 0.101965 0
115 1 0.414356 0.125716 0
86 1 0.431488 0.107859 0
116 1 0.437779 0.131709 0
117 1 0.454943 0.113494 0
88 1 0.471944 0.0950288 0
119 1 0.479067 0.119667 0
90 1 0.49511 0.101027 0
122 1 0.0171854 0.148228 0
153 1 0.0358852 0.164236 0
152 1 0.011539 0.171771 0
123 1 0.0430916 0.141982 0
124 1 0.0601964 0.159357 0
126 1 0.0845358 0.153082 0
155 1 0.0774304 0.177702 0
127 1 0.108626 0.147261 0
128 1 0.124977 0.164582 0
157 1 0.10189 0.171986 0
129 1 0.133446 0.142291 0
159 1 0.161437 0.160779 0
131 1 0.179551 0.143314 0
160 1 0.144147 0.177635 0
132 1 0.184936 0.168191 0
133 1 0.202987 0.151646 0
163 1 0.207709 0.176293 0
134 1 0.226206 0.159773 0
135 1 0.244 0.142324 0
136 1 0.267093 0.148531 0
165 1 0.249603 0.166771 0
167 1 0.273101 0.173293 0
139 1 0.308368 0.138915 0
138 1 0.29064 0.155729 0
169 1 0.314053 0.163021 0
168 1 0.295633 0.180273 0
140 1 0.33181 0.146925 0
142 1 0.355797 0.153831 0
171 1 0.337771 0.171256 0
172 1 0.361625 0.178261 0
143 1 0.372267 0.136392 0
114 1 0.397088 0.143322 0
144 1 0.402887 0.166612 0
173 1 0.379167 0.16088 0
145 1 0.421156 0.149626 0
146 1 0.427245 0.172725 0
147 1 0.444997 0.155158 0
177 1 0.451497 0.178436 0
118 1 0.462024 0.137502 0
149 1 0.486618 0.142687 0
148 1 0.469518 0.162002 0
150 1 0.493489 0.167034 0
183 1 0.028918 0.188887 0
182 1 0.0224168 0.212226 0
181 1 0.0043662 0.195256 0
184 1 0.0465066 0.206886 0
154 1 0.053159 0.183627 0
185 1 0.0714655 0.201395 0
215 1 0.0626592 0.22442 0
186 1 0.0887052 0.22177 0
156 1 0.0974567 0.196784 0
158 1 0.12277 0.191069 0
187 1 0.12816 0.218153 0
161 1 0.165906 0.18563 0
189 1 0.146985 0.20243 0
191 1 0.170874 0.209694 0
190 1 0.152025 0.226806 0
162 1 0.189865 0.192753 0
193 1 0.213028 0.201031 0
192 1 0.194998 0.217021 0
194 1 0.219049 0.225686 0
164 1 0.232021 0.183783 0
195 1 0.236861 0.208693 0
166 1 0.255728 0.191089 0
196 1 0.261009 0.215815 0
197 1 0.278963 0.198121 0
199 1 0.302379 0.204682 0
198 1 0.284686 0.222519 0
170 1 0.319762 0.187777 0
201 1 0.34332 0.195553 0
200 1 0.326309 0.211906 0
202 1 0.350433 0.219484 0
174 1 0.385601 0.1845 0
203 1 0.367805 0.202177 0
204 1 0.392558 0.208741 0
233 1 0.374544 0.22612 0
175 1 0.409007 0.189824 0
205 1 0.415988 0.215276 0
176 1 0.433754 0.195958 0
207 1 0.441196 0.220412 0
179 1 0.476238 0.185001 0
178 1 0.458732 0.202838 0
209 1 0.482135 0.20924 0
212 1 0.0237392 0.257475 0
211 1 0.0170502 0.23487 0
213 1 0.0425577 0.240183 0
241 1 0.00397043 0.271544 0
243 1 0.0479131 0.264138 0
214 1 0.0655236 0.248428 0
245 1 0.0736031 0.270926 0
216 1 0.0916118 0.252705 0
217 1 0.110312 0.235196 0
218 1 0.115253 0.260158 0
188 1 0.133466 0.243724 0
219 1 0.139446 0.267936 0
221 1 0.176042 0.234807 0
220 1 0.157497 0.251193 0
222 1 0.181758 0.258498 0
223 1 0.20012 0.242244 0
253 1 0.206836 0.266358 0
224 1 0.224701 0.249808 0
225 1 0.242994 0.232057 0
227 1 0.26725 0.24024 0
226 1 0.248322 0.257376 0
257 1 0.272265 0.264092 0
229 1 0.308532 0.229558 0
228 1 0.290807 0.247127 0
230 1 0.315342 0.254688 0
259 1 0.296594 0.270947 0
231 1 0.331752 0.236845 0
232 1 0.356311 0.243276 0
261 1 0.338674 0.261838 0
263 1 0.362376 0.268414 0
235 1 0.398123 0.233408 0
234 1 0.379918 0.250587 0
265 1 0.404806 0.257295 0
206 1 0.422347 0.239112 0
237 1 0.446619 0.245625 0
236 1 0.428537 0.263565 0
238 1 0.454406 0.269214 0
208 1 0.464963 0.228124 0
210 1 0.488629 0.233375 0
239 1 0.471742 0.251564 0
240 1 0.49561 0.257835 0
242 1 0.0297775 0.280955 0
273 1 0.0350121 0.304399 0
271 1 0.0100946 0.296781 0
244 1 0.0549943 0.287822 0
246 1 0.0784801 0.296332 0
275 1 0.0598582 0.312407 0
247 1 0.097551 0.277648 0
249 1 0.121537 0.284557 0
248 1 0.103482 0.301599 0
279 1 0.12748 0.308761 0
251 1 0.163766 0.274926 0
250 1 0.14538 0.291963 0
281 1 0.169424 0.298323 0
280 1 0.151594 0.315729 0
252 1 0.188077 0.282043 0
254 1 0.212707 0.290294 0
283 1 0.192926 0.306109 0
284 1 0.217749 0.314429 0
255 1 0.231285 0.274574 0
256 1 0.254277 0.281763 0
285 1 0.236653 0.29905 0
287 1 0.260769 0.304912 0
258 1 0.27976 0.288531 0
288 1 0.2848 0.313749 0
289 1 0.303806 0.296455 0
260 1 0.321098 0.279244 0
262 1 0.344541 0.285833 0
291 1 0.327764 0.303178 0
292 1 0.351659 0.310831 0
264 1 0.386169 0.274277 0
293 1 0.368704 0.292154 0
295 1 0.39289 0.298258 0
294 1 0.377128 0.316609 0
266 1 0.410689 0.281037 0
267 1 0.435181 0.287556 0
297 1 0.417511 0.304809 0
298 1 0.442391 0.311511 0
269 1 0.478879 0.275634 0
268 1 0.460819 0.293327 0
270 1 0.485156 0.29932 0
299 1 0.467581 0.316763 0
1200 1 0.017082 0.320575 0
272 1 0.0418119 0.329511 0
301 1 0.0229162 0.344945 0
1230 1 0.00549586 0.362818 0
276 1 0.0855448 0.319562 0
303 1 0.0472664 0.353111 0
274 1 0.0664874 0.335848 0
304 1 0.0714281 0.359839 0
305 1 0.0909881 0.34397 0
277 1 0.10922 0.32584 0
278 1 0.133321 0.332775 0
307 1 0.115022 0.350137 0
282 1 0.175339 0.323321 0
309 1 0.138905 0.357713 0
311 1 0.157479 0.341156 0
312 1 0.18096 0.347883 0
313 1 0.1993 0.329826 0
314 1 0.206517 0.354174 0
315 1 0.224794 0.338631 0
286 1 0.242465 0.322311 0
317 1 0.266133 0.329462 0
316 1 0.248489 0.346109 0
345 1 0.23051 0.363186 0
318 1 0.273459 0.352662 0
290 1 0.310115 0.320085 0
319 1 0.292111 0.336776 0
349 1 0.297787 0.360141 0
320 1 0.315874 0.344017 0
321 1 0.334009 0.328177 0
323 1 0.359472 0.334255 0
322 1 0.340709 0.352083 0
324 1 0.365783 0.358734 0
296 1 0.40085 0.322965 0
325 1 0.383395 0.340538 0
326 1 0.407968 0.347886 0
327 1 0.42523 0.329739 0
328 1 0.431451 0.353939 0
329 1 0.448816 0.335549 0
359 1 0.456432 0.359693 0
300 1 0.492148 0.322797 0
330 1 0.473515 0.341472 0
1201 1 0.497609 0.346983 0
302 1 0.0291798 0.370363 0
332 1 0.0359732 0.394094 0
331 1 0.0110907 0.387976 0
333 1 0.0541092 0.376768 0
335 1 0.0783402 0.383751 0
334 1 0.0595301 0.400843 0
336 1 0.0837849 0.408479 0
306 1 0.0962566 0.367829 0
308 1 0.120847 0.375067 0
337 1 0.102604 0.392182 0
338 1 0.12735 0.399099 0
310 1 0.163422 0.365242 0
339 1 0.146348 0.382711 0
341 1 0.171129 0.388767 0
340 1 0.152256 0.406843 0
343 1 0.188489 0.372569 0
342 1 0.194707 0.396816 0
344 1 0.212173 0.378839 0
373 1 0.218903 0.403505 0
347 1 0.255465 0.369481 0
346 1 0.236766 0.386835 0
377 1 0.26052 0.393627 0
348 1 0.279489 0.376329 0
350 1 0.303449 0.384467 0
378 1 0.284611 0.400943 0
379 1 0.31052 0.409235 0
351 1 0.322103 0.368634 0
381 1 0.329133 0.392639 0
353 1 0.347977 0.375734 0
352 1 0.352846 0.399762 0
355 1 0.389901 0.365332 0
354 1 0.372642 0.382926 0
385 1 0.377015 0.406872 0
356 1 0.396511 0.390083 0
387 1 0.421041 0.396174 0
357 1 0.41424 0.372391 0
358 1 0.438007 0.377258 0
388 1 0.446764 0.401007 0
360 1 0.480612 0.365084 0
389 1 0.463225 0.383407 0
1232 1 0.487055 0.389255 0
1261 1 0.470357 0.407799 0
361 1 0.0167189 0.411702 0
362 1 0.025102 0.4359 0
363 1 0.0415032 0.417505 0
392 1 0.00529925 0.452121 0
364 1 0.048868 0.442819 0
365 1 0.0656902 0.425638 0
395 1 0.0725751 0.450613 0
366 1 0.090412 0.432285 0
367 1 0.108927 0.415927 0
368 1 0.114756 0.440414 0
369 1 0.132894 0.423062 0
399 1 0.13975 0.448804 0
371 1 0.176488 0.414588 0
370 1 0.157487 0.431309 0
401 1 0.181286 0.438288 0
372 1 0.200533 0.420633 0
403 1 0.205665 0.444637 0
374 1 0.22351 0.4275 0
375 1 0.242683 0.410811 0
376 1 0.266251 0.417534 0
405 1 0.248037 0.435513 0
404 1 0.230607 0.453326 0
407 1 0.272782 0.442175 0
409 1 0.291102 0.424914 0
410 1 0.297909 0.449358 0
380 1 0.316617 0.434066 0
382 1 0.335021 0.417237 0
383 1 0.359819 0.424443 0
413 1 0.340652 0.44114 0
386 1 0.403058 0.414583 0
384 1 0.383244 0.431509 0
414 1 0.365134 0.448855 0
417 1 0.408819 0.438184 0
418 1 0.433455 0.445372 0
419 1 0.42753 0.419913 0
390 1 0.45185 0.425957 0
420 1 0.457714 0.450028 0
1262 1 0.494797 0.413127 0
1291 1 0.476844 0.431353 0
393 1 0.0311014 0.460283 0
422 1 0.012303 0.476706 0
423 1 0.0360799 0.484836 0
394 1 0.054474 0.467873 0
396 1 0.0773976 0.475251 0
425 1 0.0607357 0.49218 0
397 1 0.0961662 0.457485 0
398 1 0.120605 0.465162 0
427 1 0.102422 0.481916 0
428 1 0.126152 0.489911 0
400 1 0.16371 0.456477 0
429 1 0.144918 0.473879 0
431 1 0.168778 0.480352 0
430 1 0.151069 0.496577 0
402 1 0.188064 0.462685 0
432 1 0.193635 0.487093 0
433 1 0.211746 0.470854 0
434 1 0.21765 0.49602 0
406 1 0.254089 0.459024 0
435 1 0.236584 0.477296 0
436 1 0.260892 0.481907 0
408 1 0.280136 0.46581 0
439 1 0.28496 0.489957 0
440 1 0.308664 0.497657 0
441 1 0.304042 0.473663 0
411 1 0.322364 0.457791 0
412 1 0.346782 0.465747 0
442 1 0.327825 0.482153 0
473 1 0.351887 0.49 0
415 1 0.390733 0.456127 0
443 1 0.370429 0.47308 0
445 1 0.39674 0.481007 0
444 1 0.377643 0.497285 0
446 1 0.42197 0.487016 0
416 1 0.415156 0.462331 0
447 1 0.440407 0.46847 0
448 1 0.447235 0.49293 0
449 1 0.464235 0.474872 0
479 1 0.472823 0.497784 0
1321 1 0.482336 0.456814 0
450 1 0.490848 0.479773 0
454 1 0.0239851 0.52609 0
453 1 0.0184028 0.501169 0
424 1 0.0421809 0.509262 0
483 1 0.0047066 0.543185 0
452 1 -0.000150294 0.517171 0
485 1 0.0475721 0.535234 0
455 1 0.0657836 0.517613 0
486 1 0.0703014 0.542897 0
456 1 0.0887783 0.526018 0
426 1 0.0834871 0.500509 0
457 1 0.107596 0.506883 0
459 1 0.131973 0.514163 0
458 1 0.113216 0.532862 0
489 1 0.138243 0.537693 0
460 1 0.156703 0.521546 0
461 1 0.175774 0.504144 0
462 1 0.180373 0.52815 0
493 1 0.203548 0.538017 0
463 1 0.199243 0.513059 0
464 1 0.221992 0.521728 0
466 1 0.245961 0.527896 0
465 1 0.241321 0.501437 0
437 1 0.264988 0.506189 0
467 1 0.270632 0.53016 0
468 1 0.294893 0.537718 0
438 1 0.290069 0.513626 0
469 1 0.313921 0.521519 0
470 1 0.337821 0.529938 0
472 1 0.35662 0.513522 0
471 1 0.332839 0.506158 0
503 1 0.361622 0.538119 0
474 1 0.380992 0.520786 0
475 1 0.403755 0.505052 0
476 1 0.40522 0.530912 0
477 1 0.429227 0.511411 0
507 1 0.437529 0.534675 0
478 1 0.456084 0.515755 0
480 1 0.464629 0.539971 0
1381 1 0.480868 0.521583 0
1351 1 0.497977 0.503096 0
482 1 0.0105131 0.567337 0
513 1 0.0291869 0.551033 0
514 1 0.0347057 0.576337 0
484 1 0.0526698 0.559873 0
515 1 0.0763941 0.56807 0
545 1 0.0588096 0.584745 0
487 1 0.0942118 0.549186 0
488 1 0.118768 0.559228 0
517 1 0.0998189 0.57591 0
519 1 0.123739 0.583856 0
491 1 0.161765 0.545605 0
490 1 0.143533 0.56144 0
520 1 0.14847 0.585534 0
521 1 0.166728 0.570471 0
495 1 0.227631 0.546987 0
492 1 0.18526 0.553574 0
523 1 0.19139 0.579873 0
494 1 0.209521 0.563034 0
524 1 0.215034 0.589604 0
525 1 0.235139 0.573819 0
496 1 0.25063 0.553883 0
526 1 0.257072 0.589557 0
497 1 0.274823 0.55352 0
527 1 0.277831 0.576734 0
498 1 0.297581 0.561723 0
529 1 0.302025 0.585752 0
499 1 0.31786 0.545779 0
500 1 0.321452 0.569415 0
501 1 0.341568 0.554235 0
531 1 0.344471 0.578494 0
502 1 0.36351 0.562172 0
505 1 0.384569 0.546623 0
504 1 0.385704 0.572813 0
533 1 0.366644 0.588046 0
506 1 0.405925 0.55836 0
535 1 0.408084 0.58392 0
508 1 0.429017 0.570244 0
509 1 0.44967 0.558807 0
539 1 0.454413 0.58361 0
510 1 0.489354 0.544951 0
540 1 0.472999 0.565306 0
1441 1 0.497338 0.569476 0
569 1 0.481146 0.587992 0
512 1 0.0155634 0.592196 0
542 1 0.0200443 0.616514 0
543 1 0.040112 0.600881 0
544 1 0.0438015 0.626541 0
571 1 0.00145127 0.632642 0
546 1 0.0640008 0.611141 0
516 1 0.0835553 0.59409 0
547 1 0.0873401 0.620813 0
575 1 0.0664426 0.636462 0
518 1 0.108233 0.603876 0
548 1 0.129699 0.620721 0
577 1 0.10886 0.634113 0
522 1 0.171942 0.594361 0
549 1 0.152247 0.609791 0
551 1 0.174164 0.619023 0
550 1 0.15296 0.633431 0
553 1 0.194557 0.604396 0
552 1 0.196175 0.629862 0
554 1 0.21642 0.616053 0
555 1 0.236164 0.601982 0
556 1 0.238829 0.627438 0
557 1 0.259272 0.613525 0
528 1 0.280327 0.600766 0
559 1 0.302669 0.610484 0
558 1 0.282245 0.625441 0
560 1 0.3054 0.634515 0
530 1 0.324076 0.593781 0
561 1 0.325462 0.620029 0
532 1 0.34623 0.604267 0
562 1 0.347627 0.630964 0
563 1 0.368124 0.614562 0
534 1 0.387782 0.59996 0
565 1 0.390372 0.62421 0
536 1 0.410051 0.608923 0
537 1 0.429939 0.594831 0
567 1 0.43077 0.619548 0
568 1 0.452056 0.627951 0
566 1 0.411751 0.634837 0
538 1 0.465015 0.606444 0
570 1 0.489788 0.612319 0
600 1 0.47592 0.633127 0
573 1 0.0245701 0.641356 0
603 1 0.0268796 0.667587 0
572 1 0.00410132 0.657685 0
574 1 0.046484 0.652328 0
604 1 0.0489262 0.678313 0
605 1 0.0690409 0.662838 0
576 1 0.0881183 0.648042 0
607 1 0.0909331 0.674643 0
578 1 0.111021 0.658953 0
579 1 0.131448 0.645596 0
609 1 0.133862 0.670645 0
581 1 0.175392 0.64405 0
580 1 0.155163 0.657272 0
611 1 0.176997 0.668298 0
583 1 0.217837 0.640987 0
582 1 0.197158 0.655168 0
584 1 0.220364 0.666729 0
613 1 0.19913 0.680452 0
587 1 0.261187 0.638302 0
585 1 0.240217 0.652431 0
586 1 0.263153 0.662964 0
615 1 0.242725 0.67807 0
589 1 0.283968 0.649932 0
588 1 0.285825 0.674247 0
590 1 0.307034 0.659754 0
591 1 0.327421 0.645306 0
593 1 0.350391 0.655306 0
621 1 0.330538 0.670635 0
592 1 0.353399 0.680555 0
564 1 0.370646 0.63983 0
594 1 0.373612 0.665805 0
595 1 0.39266 0.650464 0
625 1 0.396391 0.675039 0
596 1 0.415564 0.660952 0
597 1 0.434013 0.644337 0
598 1 0.439649 0.669149 0
1501 1 0.499255 0.638294 0
599 1 0.458597 0.652052 0
629 1 0.482101 0.657462 0
628 1 0.462578 0.676279 0
630 1 0.489525 0.679993 0
602 1 0.00619056 0.682948 0
633 1 0.0286116 0.693601 0
632 1 0.00823916 0.70832 0
634 1 0.0300904 0.718809 0
606 1 0.0703004 0.688936 0
635 1 0.0501444 0.704921 0
636 1 0.0735942 0.714047 0
637 1 0.093482 0.700307 0
608 1 0.113484 0.68491 0
638 1 0.116026 0.710299 0
667 1 0.0959901 0.725256 0
639 1 0.135856 0.696138 0
640 1 0.137683 0.722051 0
610 1 0.156672 0.682671 0
641 1 0.157511 0.707264 0
612 1 0.178835 0.694484 0
642 1 0.179622 0.71985 0
614 1 0.221629 0.691437 0
643 1 0.200781 0.705567 0
645 1 0.223535 0.716221 0
617 1 0.264596 0.689036 0
616 1 0.244176 0.703218 0
647 1 0.266467 0.713324 0
646 1 0.245601 0.727155 0
619 1 0.308963 0.6842 0
618 1 0.287981 0.699297 0
620 1 0.31036 0.708121 0
649 1 0.288954 0.724254 0
622 1 0.33221 0.694992 0
651 1 0.334685 0.719176 0
653 1 0.356312 0.704957 0
623 1 0.376739 0.69041 0
624 1 0.380185 0.715877 0
626 1 0.400853 0.699551 0
655 1 0.403476 0.723864 0
627 1 0.421038 0.685827 0
657 1 0.444352 0.693486 0
656 1 0.425215 0.712315 0
658 1 0.452368 0.717152 0
659 1 0.470261 0.699342 0
1531 1 0.495565 0.704151 0
660 1 0.479379 0.721826 0
662 1 0.0110496 0.757785 0
663 1 0.00975239 0.732895 0
664 1 0.0314031 0.74426 0
694 1 0.0336385 0.769391 0
665 1 0.0515106 0.730457 0
666 1 0.0744393 0.73923 0
695 1 0.0541336 0.754464 0
697 1 0.0773435 0.764142 0
669 1 0.117871 0.736098 0
668 1 0.0972951 0.750421 0
699 1 0.11931 0.762752 0
670 1 0.139244 0.747817 0
671 1 0.159846 0.733836 0
672 1 0.162327 0.758811 0
701 1 0.141008 0.772509 0
673 1 0.182015 0.744513 0
644 1 0.202853 0.729411 0
674 1 0.204219 0.754325 0
703 1 0.185169 0.769981 0
675 1 0.225105 0.741294 0
705 1 0.226461 0.765477 0
677 1 0.248193 0.751663 0
648 1 0.268614 0.738417 0
678 1 0.270445 0.765407 0
679 1 0.291825 0.749535 0
681 1 0.314587 0.756038 0
650 1 0.312639 0.732103 0
652 1 0.336265 0.746113 0
683 1 0.357363 0.760185 0
682 1 0.334956 0.770217 0
654 1 0.358177 0.731619 0
685 1 0.382781 0.752836 0
715 1 0.400772 0.771701 0
686 1 0.408836 0.747967 0
687 1 0.433709 0.737638 0
717 1 0.425119 0.765393 0
688 1 0.447436 0.758304 0
689 1 0.463112 0.740173 0
690 1 0.487526 0.74514 0
719 1 0.470991 0.764095 0
1591 1 0.494919 0.769332 0
693 1 0.0131786 0.783679 0
692 1 0.0144337 0.808783 0
723 1 0.034726 0.794891 0
696 1 0.0572063 0.779283 0
725 1 0.0577281 0.804674 0
727 1 0.0786779 0.791409 0
726 1 0.0800884 0.815928 0
698 1 0.099306 0.776421 0
728 1 0.100743 0.802193 0
729 1 0.122413 0.812278 0
700 1 0.121735 0.787323 0
702 1 0.163282 0.783919 0
731 1 0.143538 0.797677 0
732 1 0.166546 0.808612 0
704 1 0.207861 0.780591 0
733 1 0.18656 0.794818 0
735 1 0.214853 0.806554 0
706 1 0.239696 0.799123 0
676 1 0.247362 0.776235 0
707 1 0.26424 0.792292 0
737 1 0.258633 0.81713 0
680 1 0.311131 0.77943 0
709 1 0.287892 0.784324 0
708 1 0.283536 0.809918 0
710 1 0.307111 0.803716 0
711 1 0.331312 0.794823 0
712 1 0.349768 0.810611 0
713 1 0.35402 0.785876 0
684 1 0.376415 0.777358 0
714 1 0.396309 0.796681 0
743 1 0.372585 0.802585 0
716 1 0.419934 0.788877 0
747 1 0.440071 0.803058 0
746 1 0.417108 0.81305 0
718 1 0.454318 0.78257 0
720 1 0.478267 0.789307 0
749 1 0.462787 0.807985 0
1621 1 0.486967 0.812752 0
722 1 0.0377545 0.818856 0
751 1 0.0176635 0.832725 0
752 1 0.0153591 0.857659 0
753 1 0.0390187 0.845451 0
724 1 0.0600398 0.831887 0
755 1 0.0821199 0.843133 0
754 1 0.0609778 0.856845 0
756 1 0.105415 0.852704 0
757 1 0.102923 0.827875 0
759 1 0.126317 0.839079 0
730 1 0.144563 0.822862 0
760 1 0.149505 0.852119 0
761 1 0.166472 0.833132 0
763 1 0.189883 0.819088 0
734 1 0.210932 0.833086 0
762 1 0.188134 0.842734 0
764 1 0.205822 0.858819 0
736 1 0.234043 0.823921 0
767 1 0.253752 0.842123 0
765 1 0.229026 0.849315 0
768 1 0.271706 0.858164 0
739 1 0.302124 0.82752 0
738 1 0.276747 0.833817 0
769 1 0.296156 0.850237 0
741 1 0.32656 0.819061 0
740 1 0.320822 0.843266 0
771 1 0.338622 0.860198 0
742 1 0.344561 0.835129 0
773 1 0.362039 0.852853 0
745 1 0.391359 0.820318 0
744 1 0.367971 0.827555 0
774 1 0.38628 0.846333 0
775 1 0.408652 0.837931 0
777 1 0.43089 0.846407 0
748 1 0.445787 0.827144 0
750 1 0.47175 0.831314 0
779 1 0.45495 0.849967 0
780 1 0.479618 0.854462 0
1651 1 0.49617 0.835607 0
783 1 0.0350133 0.877158 0
782 1 0.00861923 0.88333 0
813 1 0.0258126 0.90032 0
812 1 0.00153581 0.906638 0
785 1 0.0839982 0.867406 0
784 1 0.0611964 0.882325 0
786 1 0.0835581 0.89228 0
815 1 0.0649446 0.908554 0
758 1 0.12821 0.864836 0
787 1 0.10669 0.876794 0
788 1 0.128302 0.890252 0
817 1 0.106618 0.900798 0
791 1 0.173197 0.864479 0
789 1 0.150433 0.876377 0
819 1 0.149528 0.901805 0
790 1 0.172733 0.890423 0
792 1 0.196036 0.882372 0
793 1 0.21793 0.89733 0
823 1 0.192805 0.906546 0
795 1 0.224923 0.873111 0
766 1 0.247867 0.865682 0
796 1 0.241917 0.890149 0
797 1 0.266582 0.881714 0
827 1 0.260824 0.906548 0
799 1 0.290435 0.874815 0
798 1 0.285534 0.899558 0
800 1 0.309433 0.892171 0
770 1 0.315079 0.867691 0
801 1 0.332779 0.885111 0
802 1 0.350555 0.902114 0
772 1 0.356852 0.877934 0
803 1 0.380386 0.870328 0
805 1 0.399008 0.886681 0
804 1 0.375275 0.894645 0
776 1 0.413433 0.865129 0
778 1 0.439462 0.86942 0
807 1 0.423422 0.888268 0
808 1 0.447785 0.892505 0
809 1 0.464224 0.87365 0
1681 1 0.48877 0.878854 0
810 1 0.473085 0.897583 0
1711 1 0.497457 0.902684 0
842 1 0.010655 0.949654 0
843 1 0.0173999 0.925495 0
844 1 0.0345751 0.943587 0
814 1 0.0418342 0.918404 0
816 1 0.0819758 0.928416 0
845 1 0.0581102 0.936597 0
846 1 0.0753693 0.953611 0
818 1 0.1287 0.915517 0
847 1 0.105911 0.925339 0
849 1 0.124645 0.941656 0
848 1 0.0989353 0.948777 0
821 1 0.169341 0.915818 0
820 1 0.149038 0.933123 0
851 1 0.167558 0.94983 0
794 1 0.213004 0.920161 0
824 1 0.207515 0.944362 0
822 1 0.186713 0.933052 0
825 1 0.237687 0.913812 0
855 1 0.231729 0.937441 0
826 1 0.256018 0.930699 0
856 1 0.250031 0.954832 0
857 1 0.273612 0.947681 0
829 1 0.3034 0.916885 0
828 1 0.280506 0.92354 0
859 1 0.298229 0.941943 0
831 1 0.327036 0.909769 0
830 1 0.322106 0.93409 0
832 1 0.345883 0.926689 0
861 1 0.340554 0.950402 0
863 1 0.364586 0.943909 0
806 1 0.396272 0.912086 0
833 1 0.370036 0.918216 0
834 1 0.388014 0.935608 0
865 1 0.403784 0.953225 0
837 1 0.43252 0.91176 0
835 1 0.414856 0.92982 0
838 1 0.440887 0.934696 0
839 1 0.457413 0.916169 0
840 1 0.481298 0.921252 0
1741 1 0.491249 0.944676 0
869 1 0.465711 0.939831 0
872 1 0.0206602 0.992111 0
873 1 0.0271156 0.967876 0
871 1 0.00315479 0.973917 0
874 1 0.0448601 0.986282 0
875 1 0.0515541 0.961544 0
876 1 0.0690288 0.979277 0
7 1 0.0856126 0.997549 0
877 1 0.0922222 0.972157 0
878 1 0.110017 0.990025 0
879 1 0.117486 0.964805 0
880 1 0.133749 0.983875 0
882 1 0.173652 0.997078 0
850 1 0.143515 0.957222 0
881 1 0.156874 0.97917 0
852 1 0.17975 0.972273 0
853 1 0.203387 0.968313 0
883 1 0.197357 0.990978 0
884 1 0.221323 0.985676 0
854 1 0.226913 0.961561 0
885 1 0.243871 0.97955 0
17 1 0.262128 0.996013 0
887 1 0.267626 0.972013 0
860 1 0.317063 0.958937 0
858 1 0.29231 0.964992 0
888 1 0.286054 0.989702 0
889 1 0.31045 0.982141 0
862 1 0.357779 0.96789 0
891 1 0.335223 0.976015 0
892 1 0.353204 0.992419 0
890 1 0.330172 0.999532 0
864 1 0.38212 0.962645 0
893 1 0.376315 0.985794 0
895 1 0.401349 0.97818 0
836 1 0.426991 0.954258 0
867 1 0.451127 0.959096 0
866 1 0.434139 0.977314 0
896 1 0.417983 0.996486 0
899 1 0.482768 0.987606 0
870 1 0.475103 0.96353 0
868 1 0.458862 0.982026 0
1771 1 0.49895 0.969624 0
902 1 0.538639 0.0218381 0
931 1 0.521751 0.0396529 0
901 1 0.514662 0.01599 0
904 1 0.563588 0.0270695 0
906 1 0.579525 0.0088384 0
935 1 0.5882 0.032187 0
905 1 0.555272 0.00300536 0
933 1 0.54664 0.045342 0
908 1 0.603582 0.0131383 0
937 1 0.611554 0.0379649 0
939 1 0.628141 0.0178077 0
938 1 0.635418 0.0430858 0
940 1 0.652621 0.0243159 0
971 1 0.677308 0.03038 0
942 1 0.670082 0.00566548 0
943 1 0.694611 0.0117977 0
944 1 0.701764 0.0369408 0
945 1 0.718519 0.0198912 0
947 1 0.743526 0.0140491 0
948 1 0.75995 0.032647 0
918 1 0.766953 0.00812118 0
946 1 0.735788 0.0382511 0
919 1 0.791612 0.00300305 0
949 1 0.784507 0.0264724 0
920 1 0.809 0.0207241 0
979 1 0.800622 0.0450479 0
951 1 0.832295 0.0149563 0
952 1 0.848997 0.0336645 0
922 1 0.856154 0.00970629 0
950 1 0.824224 0.0401098 0
953 1 0.872959 0.0284204 0
955 1 0.898226 0.0214196 0
924 1 0.879954 0.00385729 0
926 1 0.921777 0.0150953 0
928 1 0.946869 0.010066 0
957 1 0.939108 0.0343356 0
956 1 0.914609 0.0387225 0
930 1 0.987666 0.0210719 0
959 1 0.962937 0.0283485 0
929 1 0.9717 0.0024881 0
932 1 0.529702 0.0640234 0
962 1 0.537275 0.0879009 0
961 1 0.512731 0.0827403 0
60 1 0.504967 0.0588297 0
934 1 0.570866 0.0516174 0
963 1 0.554123 0.0697684 0
965 1 0.578285 0.0762147 0
936 1 0.594724 0.0572846 0
966 1 0.602971 0.0804628 0
967 1 0.620248 0.0622986 0
968 1 0.627402 0.086104 0
970 1 0.660397 0.0484858 0
969 1 0.644209 0.0676898 0
972 1 0.668314 0.0733099 0
973 1 0.683807 0.0542225 0
975 1 0.706992 0.0610943 0
1003 1 0.691886 0.0788018 0
1004 1 0.717338 0.0834792 0
974 1 0.729869 0.0617905 0
976 1 0.753325 0.0566127 0
1005 1 0.743749 0.0828246 0
1007 1 0.76965 0.0742923 0
977 1 0.777258 0.0507431 0
978 1 0.792671 0.0695469 0
1009 1 0.80989 0.0879486 0
980 1 0.817117 0.0634919 0
981 1 0.841708 0.0583402 0
1011 1 0.834099 0.082647 0
982 1 0.859752 0.0758152 0
954 1 0.890149 0.045569 0
983 1 0.866358 0.0521189 0
984 1 0.884381 0.0696005 0
1015 1 0.900641 0.0901112 0
985 1 0.908234 0.0619326 0
986 1 0.925039 0.0833436 0
987 1 0.932046 0.0580777 0
988 1 0.948992 0.0776281 0
960 1 0.980474 0.0454249 0
958 1 0.956265 0.0520534 0
989 1 0.973161 0.0697635 0
990 1 0.990251 0.0875964 0
61 1 0.997983 0.0632831 0
991 1 0.520203 0.106572 0
992 1 0.527376 0.130746 0
120 1 0.502984 0.124504 0
993 1 0.544838 0.11181 0
964 1 0.561786 0.0935459 0
994 1 0.569631 0.118374 0
995 1 0.585995 0.100126 0
996 1 0.594769 0.123213 0
997 1 0.611107 0.105392 0
1027 1 0.618995 0.12966 0
998 1 0.635794 0.110264 0
999 1 0.651609 0.0911487 0
1000 1 0.659916 0.114522 0
1001 1 0.677648 0.0969777 0
1029 1 0.643208 0.134097 0
1031 1 0.68445 0.120778 0
1002 1 0.701435 0.102411 0
1033 1 0.708497 0.126741 0
1035 1 0.730051 0.106508 0
1006 1 0.762283 0.0981139 0
1036 1 0.753708 0.122338 0
1034 1 0.732098 0.132765 0
1037 1 0.778628 0.117178 0
1008 1 0.786177 0.0936681 0
1039 1 0.802481 0.112162 0
1038 1 0.796036 0.136208 0
1040 1 0.820372 0.130269 0
1010 1 0.827079 0.105892 0
1012 1 0.851279 0.100319 0
1041 1 0.844081 0.124685 0
1043 1 0.867811 0.118619 0
1013 1 0.875875 0.0942058 0
1014 1 0.891975 0.113224 0
1016 1 0.908759 0.131375 0
1017 1 0.916249 0.108092 0
1018 1 0.941155 0.101523 0
1047 1 0.934182 0.125576 0
1019 1 0.966159 0.0947296 0
1020 1 0.983308 0.11198 0
1049 1 0.958739 0.11878 0
1022 1 0.534584 0.154447 0
1053 1 0.541228 0.178399 0
1051 1 0.516466 0.172265 0
1021 1 0.510585 0.148867 0
1023 1 0.551139 0.136352 0
1025 1 0.577737 0.14226 0
1024 1 0.559365 0.159987 0
1055 1 0.583827 0.166122 0
1026 1 0.601764 0.14792 0
1028 1 0.625641 0.15345 0
1057 1 0.608519 0.171674 0
1058 1 0.632902 0.176701 0
1059 1 0.649748 0.157883 0
1030 1 0.667763 0.139159 0
1061 1 0.673701 0.164432 0
1060 1 0.656925 0.181714 0
1032 1 0.69156 0.145332 0
1063 1 0.715404 0.151449 0
1062 1 0.698168 0.169157 0
1064 1 0.723491 0.174248 0
1065 1 0.741481 0.15526 0
1066 1 0.764341 0.164101 0
1067 1 0.770531 0.140667 0
1068 1 0.788839 0.159591 0
1069 1 0.81273 0.155053 0
1071 1 0.837092 0.149426 0
1070 1 0.828851 0.173913 0
1072 1 0.852906 0.168032 0
1042 1 0.860679 0.144072 0
1044 1 0.884532 0.137177 0
1073 1 0.877702 0.161546 0
1045 1 0.902121 0.155384 0
1074 1 0.894836 0.178905 0
1075 1 0.919553 0.172461 0
1046 1 0.926776 0.148538 0
1077 1 0.944332 0.166511 0
1048 1 0.952393 0.142191 0
1050 1 0.976555 0.136314 0
1079 1 0.968788 0.16088 0
151 1 0.99313 0.154064 0
1080 1 0.986625 0.178504 0
1052 1 0.523756 0.196647 0
1082 1 0.530326 0.220936 0
1081 1 0.505531 0.215929 0
180 1 0.500158 0.191862 0
1054 1 0.566077 0.184034 0
1083 1 0.54912 0.202222 0
1085 1 0.573875 0.208103 0
1084 1 0.555561 0.225677 0
1056 1 0.590822 0.189303 0
1086 1 0.597996 0.212691 0
1087 1 0.615901 0.194717 0
1088 1 0.622451 0.218808 0
1089 1 0.639301 0.201065 0
1090 1 0.663928 0.205498 0
1119 1 0.646796 0.224067 0
1091 1 0.682116 0.188291 0
1092 1 0.690106 0.211873 0
1093 1 0.707314 0.193681 0
1123 1 0.715285 0.218344 0
1095 1 0.747755 0.181082 0
1094 1 0.732048 0.199194 0
1096 1 0.758764 0.203548 0
1125 1 0.739818 0.221865 0
1099 1 0.803179 0.181349 0
1097 1 0.778018 0.18503 0
1127 1 0.782077 0.21101 0
1098 1 0.806559 0.216721 0
1100 1 0.822745 0.198939 0
1101 1 0.847438 0.192612 0
1129 1 0.831488 0.223944 0
1102 1 0.866643 0.209427 0
1103 1 0.870831 0.185435 0
1104 1 0.889354 0.202206 0
1133 1 0.906052 0.220804 0
1105 1 0.912421 0.196009 0
1076 1 0.93762 0.190703 0
1135 1 0.929917 0.21415 0
1107 1 0.954549 0.209311 0
1078 1 0.962616 0.184779 0
1109 1 0.979415 0.202234 0
1110 1 0.998234 0.218965 0
1111 1 0.512698 0.239648 0
1113 1 0.53736 0.245513 0
1112 1 0.521247 0.26376 0
1143 1 0.545241 0.268363 0
1114 1 0.56212 0.249516 0
1115 1 0.580181 0.231567 0
1116 1 0.586965 0.254786 0
1145 1 0.570183 0.272441 0
1117 1 0.605577 0.236456 0
1118 1 0.629629 0.241992 0
1147 1 0.612063 0.26042 0
1149 1 0.636322 0.265733 0
1121 1 0.67179 0.229772 0
1120 1 0.654688 0.24771 0
1151 1 0.678973 0.252675 0
1150 1 0.662124 0.271832 0
1122 1 0.697024 0.235101 0
1124 1 0.721788 0.241834 0
1153 1 0.703753 0.258827 0
1126 1 0.763617 0.228204 0
1154 1 0.728195 0.264698 0
1155 1 0.745924 0.246734 0
1156 1 0.752856 0.27075 0
1157 1 0.770748 0.251586 0
1128 1 0.788069 0.234683 0
1159 1 0.812683 0.240966 0
1158 1 0.79513 0.258185 0
1160 1 0.820123 0.264984 0
1131 1 0.856531 0.231674 0
1130 1 0.837395 0.247405 0
1191 1 0.845486 0.271244 0
1161 1 0.864625 0.254846 0