ITEM: TIMESTEP
128000
ITEM: NUMBER OF ATOMS
1800
ITEM: BOX BOUNDS pp pp pp
8.5939912648727557e-01 1.6414060087351780e+02
8.5939912648727557e-01 1.6414060087351780e+02
0.0000000000000000e+00 5.5000000000000000e+00
ITEM: ATOMS id type xs ys zs
2 1 0.0175078 0.00630432 0
33 1 0.0356217 0.0250812 0
31 1 0.0108397 0.0293475 0
3 1 0.04293 0.00129385 0
4 1 0.0603466 0.0213008 0
35 1 0.076403 0.0418146 0
6 1 0.0853916 0.0144707 0
8 1 0.111942 0.0166746 0
37 1 0.101186 0.0377361 0
9 1 0.134647 0.00339972 0
39 1 0.134604 0.0276712 0
10 1 0.156552 0.0153562 0
40 1 0.15909 0.0394723 0
41 1 0.179782 0.0262234 0
11 1 0.177047 0.00133029 0
12 1 0.199965 0.011438 0
43 1 0.201754 0.0372487 0
14 1 0.222149 0.0215934 0
15 1 0.244316 0.00736299 0
45 1 0.244503 0.0330339 0
16 1 0.267029 0.020335 0
46 1 0.267659 0.0457488 0
18 1 0.288067 0.0324754 0
17 1 0.287722 0.00748816 0
20 1 0.309388 0.0214601 0
51 1 0.332677 0.0354017 0
22 1 0.353111 0.0201319 0
21 1 0.330713 0.010816 0
52 1 0.357511 0.0448742 0
24 1 0.376679 0.0272587 0
55 1 0.402121 0.0343652 0
894 1 0.395238 0.0102205 0
23 1 0.37024 0.00273092 0
25 1 0.419446 0.0174706 0
26 1 0.426681 0.0411785 0
27 1 0.44306 0.0237728 0
29 1 0.468179 0.0295394 0
900 1 0.486414 0.0123188 0
30 1 0.493325 0.0363901 0
898 1 0.461614 0.00598161 0
32 1 0.0254405 0.0503098 0
62 1 0.0180517 0.0734102 0
61 1 0.00061899 0.0546865 0
63 1 0.0423702 0.0693565 0
34 1 0.051488 0.0462042 0
65 1 0.0667212 0.0663052 0
66 1 0.0838382 0.0859689 0
64 1 0.0583717 0.0896143 0
36 1 0.0909778 0.06245 0
38 1 0.115467 0.0574376 0
67 1 0.108408 0.0812687 0
68 1 0.134694 0.0767893 0
69 1 0.137583 0.0513543 0
71 1 0.157713 0.0645621 0
42 1 0.180474 0.0509609 0
72 1 0.178711 0.0763871 0
70 1 0.156084 0.0901452 0
44 1 0.224594 0.047766 0
73 1 0.202375 0.0619057 0
103 1 0.200349 0.0875049 0
74 1 0.224481 0.0718207 0
75 1 0.246736 0.0578739 0
77 1 0.268513 0.0710093 0
76 1 0.247377 0.0824804 0
49 1 0.310622 0.047045 0
47 1 0.288772 0.0578321 0
48 1 0.289583 0.0821539 0
50 1 0.312655 0.0715634 0
81 1 0.337314 0.0606621 0
82 1 0.346825 0.0846676 0
83 1 0.366461 0.0681754 0
53 1 0.383925 0.0507223 0
54 1 0.391635 0.0743374 0
56 1 0.40871 0.0574879 0
28 1 0.450587 0.0468224 0
57 1 0.434284 0.0645543 0
85 1 0.416724 0.0813018 0
87 1 0.439897 0.0889743 0
58 1 0.457512 0.0709287 0
59 1 0.475254 0.0531237 0
89 1 0.480622 0.0776795 0
60 1 0.498763 0.0607325 0
93 1 0.0341938 0.0924345 0
92 1 0.0257535 0.116166 0
91 1 0.00900226 0.0966956 0
121 1 0.000773478 0.120459 0
123 1 0.0419439 0.135791 0
94 1 0.0497878 0.112239 0
95 1 0.0748385 0.108522 0
125 1 0.0659756 0.131735 0
96 1 0.0898276 0.128647 0
97 1 0.100711 0.104518 0
98 1 0.116621 0.123818 0
99 1 0.125697 0.10021 0
100 1 0.158547 0.121444 0
101 1 0.177134 0.101834 0
131 1 0.182938 0.128676 0
102 1 0.201625 0.112272 0
105 1 0.223932 0.0960024 0
106 1 0.22581 0.120591 0
104 1 0.206852 0.136355 0
78 1 0.268763 0.095347 0
107 1 0.246497 0.106243 0
137 1 0.24899 0.129668 0
108 1 0.273001 0.133846 0
79 1 0.307866 0.0969016 0
109 1 0.289111 0.113358 0
110 1 0.314321 0.121684 0
111 1 0.356852 0.109775 0
80 1 0.331869 0.104381 0
141 1 0.339286 0.127785 0
143 1 0.363525 0.134468 0
113 1 0.373903 0.0914638 0
84 1 0.398328 0.0987245 0
112 1 0.38033 0.115402 0
115 1 0.405339 0.123321 0
86 1 0.422487 0.105853 0
116 1 0.429734 0.13073 0
117 1 0.446459 0.112944 0
88 1 0.463831 0.0954483 0
90 1 0.487789 0.101022 0
119 1 0.47098 0.118604 0
120 1 0.494736 0.125376 0
122 1 0.0169364 0.140197 0
153 1 0.0338649 0.159538 0
152 1 0.00871304 0.164611 0
124 1 0.0582384 0.155298 0
126 1 0.0827096 0.151097 0
155 1 0.0750571 0.17401 0
154 1 0.050036 0.178009 0
127 1 0.106686 0.146281 0
128 1 0.125166 0.161112 0
157 1 0.101107 0.170907 0
129 1 0.140356 0.140546 0
130 1 0.164857 0.146581 0
159 1 0.149208 0.166109 0
132 1 0.172221 0.172548 0
133 1 0.18846 0.153681 0
134 1 0.212735 0.161479 0
163 1 0.196071 0.178734 0
135 1 0.229735 0.144541 0
136 1 0.25448 0.152003 0
165 1 0.23607 0.168338 0
167 1 0.260869 0.175209 0
139 1 0.29654 0.138676 0
138 1 0.279606 0.157288 0
169 1 0.303305 0.164523 0
168 1 0.28554 0.181823 0
140 1 0.321271 0.146617 0
142 1 0.346635 0.151669 0
171 1 0.328387 0.169266 0
172 1 0.352352 0.175515 0
114 1 0.388274 0.140337 0
144 1 0.394981 0.164556 0
173 1 0.37039 0.15811 0
118 1 0.454543 0.135653 0
145 1 0.412194 0.147258 0
146 1 0.418742 0.170642 0
147 1 0.436407 0.154054 0
177 1 0.443587 0.178273 0
149 1 0.477907 0.142697 0
148 1 0.459941 0.16006 0
150 1 0.484613 0.167052 0
183 1 0.0254656 0.183678 0
182 1 0.0173155 0.207104 0
181 1 0.00117721 0.187792 0
213 1 0.0331055 0.226247 0
184 1 0.0421085 0.20237 0
185 1 0.0664916 0.197 0
215 1 0.058143 0.220829 0
156 1 0.0901274 0.19317 0
186 1 0.092462 0.218161 0
160 1 0.130449 0.184817 0
158 1 0.112853 0.202674 0
187 1 0.118916 0.227169 0
189 1 0.13666 0.208555 0
161 1 0.154612 0.19063 0
191 1 0.160371 0.214389 0
162 1 0.178575 0.19697 0
164 1 0.218993 0.185892 0
193 1 0.202273 0.203724 0
192 1 0.184226 0.221007 0
195 1 0.22667 0.210186 0
194 1 0.208853 0.227686 0
166 1 0.244051 0.191984 0
196 1 0.250776 0.215913 0
197 1 0.267785 0.198968 0
170 1 0.310479 0.188068 0
199 1 0.293228 0.205309 0
198 1 0.275287 0.222291 0
200 1 0.31754 0.211219 0
201 1 0.334898 0.193669 0
202 1 0.341929 0.217473 0
203 1 0.359419 0.199085 0
174 1 0.376985 0.182125 0
175 1 0.401032 0.188883 0
233 1 0.365085 0.223783 0
204 1 0.383501 0.20655 0
205 1 0.408122 0.21322 0
176 1 0.426169 0.195827 0
207 1 0.432448 0.219648 0
178 1 0.450795 0.202827 0
179 1 0.467506 0.185342 0
208 1 0.456789 0.227128 0
180 1 0.491679 0.191629 0
209 1 0.473818 0.209557 0
1081 1 0.498094 0.21647 0
212 1 0.00917119 0.230544 0
243 1 0.0305529 0.251132 0
241 1 0.000632981 0.253207 0
273 1 0.0156425 0.271881 0
216 1 0.0771722 0.238261 0
214 1 0.058841 0.256556 0
247 1 0.0830026 0.26216 0
188 1 0.125153 0.251133 0
217 1 0.100643 0.244756 0
218 1 0.107212 0.269248 0
190 1 0.143401 0.23255 0
221 1 0.167434 0.23915 0
220 1 0.15011 0.256495 0
222 1 0.173826 0.263302 0
223 1 0.191334 0.245093 0
224 1 0.21529 0.251607 0
253 1 0.198283 0.270217 0
225 1 0.23388 0.233639 0
227 1 0.257377 0.240083 0
226 1 0.239998 0.257633 0
257 1 0.264081 0.263754 0
229 1 0.298931 0.228935 0
228 1 0.281723 0.246239 0
230 1 0.305989 0.253002 0
259 1 0.287955 0.270367 0
231 1 0.324425 0.235315 0
232 1 0.348285 0.241405 0
261 1 0.330185 0.259 0
263 1 0.35458 0.264918 0
235 1 0.390026 0.230533 0
234 1 0.371959 0.247652 0
265 1 0.396872 0.254719 0
264 1 0.378976 0.271576 0
206 1 0.415077 0.237349 0
236 1 0.421324 0.262474 0
237 1 0.438961 0.244442 0
238 1 0.446701 0.268933 0
210 1 0.480762 0.233283 0
239 1 0.463648 0.250903 0
240 1 0.487922 0.258655 0
244 1 0.0405201 0.274983 0
271 1 0.00900733 0.314248 0
275 1 0.0240062 0.294149 0
245 1 0.0663053 0.280535 0
246 1 0.0491726 0.300335 0
276 1 0.0733501 0.303704 0
248 1 0.0909712 0.28731 0
219 1 0.132051 0.276078 0
249 1 0.114068 0.293874 0
277 1 0.0970925 0.311931 0
279 1 0.121853 0.317927 0
251 1 0.156642 0.280328 0
250 1 0.139251 0.299134 0
281 1 0.163494 0.305383 0
252 1 0.18192 0.288012 0
254 1 0.206573 0.294 0
283 1 0.18908 0.311491 0
255 1 0.222541 0.275888 0
284 1 0.213205 0.318589 0
256 1 0.247175 0.280822 0
285 1 0.229938 0.299936 0
287 1 0.253329 0.305033 0
258 1 0.271147 0.288605 0
260 1 0.313316 0.276645 0
288 1 0.27734 0.312502 0
289 1 0.295918 0.294391 0
290 1 0.302967 0.317586 0
291 1 0.320058 0.299668 0
262 1 0.337441 0.282431 0
292 1 0.344778 0.305906 0
293 1 0.361322 0.288281 0
266 1 0.403859 0.279044 0
295 1 0.386483 0.295456 0
294 1 0.368642 0.312356 0
297 1 0.411227 0.301718 0
267 1 0.429296 0.285612 0
268 1 0.453103 0.293565 0
298 1 0.434904 0.309664 0
269 1 0.470448 0.276588 0
1141 1 0.4946 0.282729 0
270 1 0.477922 0.300657 0
299 1 0.459799 0.318176 0
272 1 0.032867 0.319064 0
301 1 0.0142272 0.338167 0
303 1 0.0394513 0.34351 0
302 1 0.0220257 0.362188 0
274 1 0.0567151 0.325104 0
304 1 0.0642137 0.349506 0
305 1 0.0805658 0.330502 0
306 1 0.0878247 0.353368 0
307 1 0.104559 0.335796 0
278 1 0.128853 0.341602 0
308 1 0.112816 0.359569 0
280 1 0.146134 0.323495 0
282 1 0.171602 0.328719 0
311 1 0.154243 0.346418 0
312 1 0.178559 0.35293 0
313 1 0.195638 0.335865 0
314 1 0.202297 0.359411 0
315 1 0.219889 0.3421 0
286 1 0.236554 0.324181 0
317 1 0.260717 0.329907 0
316 1 0.244296 0.347821 0
318 1 0.268312 0.353978 0
319 1 0.285654 0.336088 0
349 1 0.293323 0.359205 0
320 1 0.309969 0.341578 0
321 1 0.326792 0.323013 0
323 1 0.351068 0.329867 0
322 1 0.333884 0.346722 0
324 1 0.357799 0.352973 0
296 1 0.39282 0.319353 0
325 1 0.374665 0.335934 0
326 1 0.399371 0.343569 0
355 1 0.381255 0.359657 0
327 1 0.416817 0.325406 0
328 1 0.423213 0.348678 0
359 1 0.44158 0.364314 0
329 1 0.443055 0.335128 0
300 1 0.483461 0.324119 0
1201 1 0.489178 0.347521 0
330 1 0.463957 0.353974 0
332 1 0.0302939 0.386327 0
361 1 0.0134485 0.405129 0
331 1 0.00570452 0.381979 0
333 1 0.0467244 0.367557 0
335 1 0.0714832 0.373463 0
334 1 0.0547742 0.39079 0
336 1 0.0800414 0.396978 0
337 1 0.0964738 0.378432 0
338 1 0.12093 0.384063 0
367 1 0.104623 0.402486 0
369 1 0.129162 0.408228 0
309 1 0.137836 0.36487 0
310 1 0.161255 0.371222 0
339 1 0.144466 0.389352 0
341 1 0.169318 0.395172 0
343 1 0.186546 0.37694 0
342 1 0.193038 0.401718 0
344 1 0.21036 0.384407 0
375 1 0.219124 0.408675 0
345 1 0.226222 0.366128 0
347 1 0.251204 0.371617 0
346 1 0.234674 0.389665 0
377 1 0.259213 0.395816 0
351 1 0.316453 0.365592 0
348 1 0.2761 0.378368 0
350 1 0.30018 0.383729 0
379 1 0.284266 0.402032 0
353 1 0.340163 0.370198 0
381 1 0.320812 0.3967 0
352 1 0.345497 0.392624 0
354 1 0.367942 0.381621 0
385 1 0.387017 0.403439 0
356 1 0.393604 0.38031 0
383 1 0.363732 0.408625 0
357 1 0.415784 0.37116 0
358 1 0.434498 0.387088 0
387 1 0.411355 0.39591 0
389 1 0.453619 0.403643 0
1231 1 0.482807 0.371613 0
360 1 0.459802 0.380194 0
1232 1 0.477522 0.39736 0
363 1 0.0385281 0.409652 0
362 1 0.0218441 0.428089 0
392 1 0.00559286 0.447013 0
393 1 0.0297664 0.451884 0
364 1 0.0458885 0.434144 0
365 1 0.0623923 0.416251 0
395 1 0.0706988 0.439609 0
366 1 0.0882004 0.420678 0
397 1 0.0955149 0.443825 0
368 1 0.112858 0.425933 0
399 1 0.120074 0.450458 0
370 1 0.136977 0.431988 0
340 1 0.153046 0.413499 0
401 1 0.160879 0.437842 0
371 1 0.177067 0.420957 0
372 1 0.185989 0.444084 0
373 1 0.201651 0.426152 0
403 1 0.210445 0.449834 0
374 1 0.227169 0.43185 0
376 1 0.242565 0.413716 0
407 1 0.251144 0.438025 0
378 1 0.265962 0.419213 0
409 1 0.288771 0.426699 0
410 1 0.308221 0.446198 0
408 1 0.28408 0.452141 0
380 1 0.313275 0.421728 0
382 1 0.338309 0.41517 0
411 1 0.33223 0.439188 0
413 1 0.356776 0.43242 0
384 1 0.381162 0.426523 0
414 1 0.374498 0.450057 0
415 1 0.399547 0.442759 0
386 1 0.405824 0.418705 0
388 1 0.430084 0.411467 0
417 1 0.423465 0.435234 0
419 1 0.447473 0.428438 0
418 1 0.441318 0.452129 0
1261 1 0.471722 0.421106 0
390 1 0.465437 0.445348 0
1291 1 0.490001 0.438002 0
1262 1 0.496192 0.413828 0
422 1 0.0136258 0.472076 0
453 1 0.0207151 0.495242 0
423 1 0.0382892 0.475882 0
394 1 0.0545745 0.458863 0
396 1 0.0788932 0.463254 0
425 1 0.062506 0.481874 0
427 1 0.0862591 0.48752 0
398 1 0.102998 0.468604 0
428 1 0.110913 0.491916 0
429 1 0.128507 0.473718 0
430 1 0.135723 0.498301 0
400 1 0.144842 0.456415 0
431 1 0.152535 0.48043 0
402 1 0.169344 0.461606 0
432 1 0.176423 0.485301 0
433 1 0.194037 0.468093 0
434 1 0.2017 0.492076 0
404 1 0.21845 0.474258 0
435 1 0.226357 0.498328 0
405 1 0.235257 0.456276 0
406 1 0.26031 0.460645 0
436 1 0.243698 0.48013 0
437 1 0.278067 0.478434 0
438 1 0.297831 0.496225 0
439 1 0.301596 0.471573 0
412 1 0.350121 0.457494 0
440 1 0.321976 0.488287 0
441 1 0.325489 0.464269 0
442 1 0.345345 0.48052 0
473 1 0.363156 0.497858 0
443 1 0.368719 0.473842 0
445 1 0.39348 0.466177 0
444 1 0.387876 0.490219 0
447 1 0.435911 0.476049 0
416 1 0.417167 0.459212 0
446 1 0.412128 0.48336 0
449 1 0.454403 0.492476 0
450 1 0.478136 0.485577 0
1321 1 0.483188 0.46169 0
420 1 0.459955 0.46871 0
424 1 0.0450946 0.499359 0
452 1 0.00483557 0.512881 0
483 1 0.012746 0.536796 0
454 1 0.0290096 0.518706 0
485 1 0.0361393 0.543395 0
841 1 0.000439021 0.920895 0
455 1 0.0528098 0.523598 0
456 1 0.0773205 0.530479 0
426 1 0.0692346 0.506275 0
458 1 0.101503 0.534482 0
459 1 0.118532 0.516523 0
457 1 0.0942427 0.511096 0
489 1 0.126708 0.540464 0
460 1 0.143032 0.522407 0
462 1 0.168852 0.528604 0
461 1 0.160419 0.50443 0
491 1 0.15184 0.546225 0
463 1 0.185236 0.510927 0
493 1 0.193483 0.53455 0
495 1 0.217424 0.541835 0
464 1 0.210132 0.516745 0
466 1 0.234895 0.523811 0
497 1 0.266962 0.526469 0
465 1 0.249509 0.504009 0
468 1 0.292435 0.52 0
499 1 0.31093 0.536905 0
498 1 0.287088 0.544295 0
469 1 0.316409 0.512582 0
467 1 0.274184 0.502835 0
470 1 0.33509 0.530021 0
472 1 0.359224 0.522937 0
471 1 0.339585 0.505978 0
474 1 0.382616 0.514051 0
476 1 0.401406 0.531464 0
503 1 0.377194 0.538962 0
475 1 0.406883 0.50769 0
477 1 0.425902 0.52462 0
478 1 0.449027 0.516044 0
507 1 0.443865 0.54143 0
448 1 0.430424 0.500407 0
480 1 0.467663 0.534035 0
479 1 0.473587 0.510021 0
1381 1 0.491664 0.525606 0
1351 1 0.497067 0.501869 0
513 1 0.0193952 0.563336 0
512 1 0.0266653 0.58749 0
484 1 0.0439771 0.567607 0
486 1 0.0599742 0.549171 0
515 1 0.0682534 0.573326 0
487 1 0.0854125 0.55481 0
517 1 0.0917795 0.580835 0
488 1 0.110067 0.558024 0
519 1 0.116286 0.581196 0
490 1 0.134398 0.563671 0
520 1 0.140939 0.586986 0
521 1 0.159304 0.570736 0
492 1 0.175955 0.552545 0
523 1 0.182576 0.577954 0
494 1 0.199512 0.558673 0
524 1 0.206659 0.584923 0
525 1 0.224301 0.566499 0
496 1 0.240938 0.547284 0
526 1 0.250542 0.575301 0
527 1 0.264019 0.552199 0
528 1 0.281815 0.569692 0
529 1 0.305794 0.561674 0
559 1 0.301229 0.585771 0
501 1 0.352953 0.54696 0
530 1 0.324675 0.577825 0
500 1 0.329824 0.553612 0
531 1 0.348376 0.570963 0
533 1 0.366794 0.588175 0
502 1 0.371435 0.563908 0
505 1 0.395204 0.555297 0
504 1 0.390489 0.580463 0
535 1 0.414002 0.572723 0
506 1 0.419079 0.548887 0
508 1 0.438301 0.565458 0
537 1 0.432018 0.589269 0
539 1 0.455527 0.582594 0
509 1 0.462016 0.557967 0
510 1 0.485315 0.550708 0
540 1 0.479144 0.574724 0
542 1 0.01448 0.609108 0
571 1 0.0076548 0.633121 0
543 1 0.0386589 0.613667 0
514 1 0.0514561 0.592573 0
516 1 0.0746931 0.60075 0
545 1 0.0616135 0.622231 0
546 1 0.085871 0.627276 0
518 1 0.122835 0.603074 0
547 1 0.0983882 0.605226 0
548 1 0.127367 0.62632 0
522 1 0.164411 0.594414 0
549 1 0.146464 0.610718 0
551 1 0.170579 0.618375 0
550 1 0.151017 0.635511 0
553 1 0.188143 0.601563 0
552 1 0.193853 0.625952 0
554 1 0.212676 0.609091 0
583 1 0.216663 0.636448 0
555 1 0.231134 0.591717 0
556 1 0.236449 0.620077 0
557 1 0.254393 0.599941 0
587 1 0.271176 0.617426 0
558 1 0.277905 0.593162 0
560 1 0.295393 0.609796 0
591 1 0.314661 0.627368 0
589 1 0.289414 0.634638 0
561 1 0.319878 0.602858 0
532 1 0.343088 0.595227 0
562 1 0.337717 0.61977 0
563 1 0.36165 0.612455 0
534 1 0.385326 0.60539 0
566 1 0.404079 0.621384 0
565 1 0.380731 0.629757 0
536 1 0.408889 0.596755 0
567 1 0.427586 0.613567 0
538 1 0.451489 0.607436 0
597 1 0.445598 0.6309 0
1441 1 0.497191 0.591046 0
568 1 0.469306 0.624354 0
569 1 0.474788 0.599592 0
570 1 0.492897 0.616507 0
544 1 0.0418345 0.637896 0
573 1 0.0232351 0.653325 0
603 1 0.0267118 0.678469 0
574 1 0.0462222 0.663116 0
575 1 0.0656013 0.64751 0
605 1 0.0695243 0.672239 0
576 1 0.0888584 0.655298 0
607 1 0.0920054 0.681925 0
577 1 0.107752 0.6401 0
578 1 0.111317 0.666229 0
579 1 0.130427 0.65087 0
609 1 0.135627 0.675187 0
581 1 0.17387 0.642794 0
580 1 0.154672 0.659678 0
611 1 0.177887 0.667888 0
582 1 0.196383 0.651738 0
584 1 0.218493 0.660612 0
613 1 0.200157 0.677189 0
585 1 0.240466 0.644272 0
586 1 0.265107 0.640661 0
615 1 0.240941 0.670234 0
617 1 0.264007 0.665844 0
588 1 0.286712 0.658651 0
590 1 0.310626 0.651384 0
619 1 0.304344 0.675748 0
564 1 0.356386 0.637013 0
593 1 0.333397 0.644747 0
621 1 0.327618 0.669044 0
592 1 0.351634 0.661333 0
594 1 0.375594 0.654003 0
595 1 0.399071 0.646942 0
625 1 0.39396 0.671308 0
623 1 0.370834 0.67825 0
596 1 0.421854 0.638399 0
627 1 0.417417 0.663781 0
598 1 0.441361 0.655329 0
657 1 0.436173 0.680387 0
628 1 0.459731 0.67334 0
599 1 0.464085 0.64778 0
600 1 0.487652 0.640292 0
629 1 0.482624 0.66495 0
602 1 0.00754385 0.697402 0
633 1 0.0309174 0.703675 0
632 1 0.0024046 0.721701 0
604 1 0.0495804 0.687841 0
606 1 0.0723067 0.697346 0
635 1 0.0534128 0.712725 0
636 1 0.0772885 0.722605 0
637 1 0.0965479 0.707314 0
608 1 0.115946 0.691294 0
638 1 0.11944 0.715323 0
610 1 0.15948 0.68423 0
639 1 0.140079 0.699779 0
640 1 0.143315 0.724064 0
641 1 0.162572 0.709112 0
612 1 0.181836 0.693604 0
642 1 0.185512 0.718503 0
614 1 0.223649 0.685298 0
643 1 0.204316 0.702514 0
644 1 0.210047 0.728141 0
645 1 0.228314 0.71086 0
616 1 0.256243 0.689825 0
646 1 0.252043 0.716251 0
618 1 0.281356 0.682914 0
647 1 0.275469 0.70793 0
649 1 0.299474 0.69953 0
648 1 0.293859 0.723956 0
650 1 0.317187 0.716517 0
620 1 0.323509 0.692686 0
622 1 0.346723 0.685463 0
651 1 0.342093 0.710478 0
652 1 0.359507 0.72666 0
653 1 0.365161 0.702094 0
624 1 0.389105 0.695435 0
655 1 0.40708 0.712183 0
654 1 0.382771 0.719415 0
626 1 0.412108 0.687781 0
656 1 0.431481 0.704279 0
687 1 0.449392 0.722025 0
658 1 0.454892 0.697548 0
659 1 0.477689 0.690355 0
660 1 0.49824 0.707318 0
689 1 0.473468 0.714345 0
634 1 0.0343569 0.728667 0
662 1 0.0141565 0.769417 0
663 1 0.014698 0.744219 0
664 1 0.0366182 0.753007 0
665 1 0.0572987 0.738576 0
666 1 0.0806638 0.747437 0
695 1 0.0610737 0.762723 0
697 1 0.0846262 0.772204 0
667 1 0.0993111 0.731525 0
669 1 0.122905 0.739471 0
668 1 0.103996 0.755902 0
699 1 0.126981 0.764239 0
671 1 0.16596 0.734238 0
670 1 0.146035 0.749394 0
672 1 0.170187 0.758174 0
673 1 0.190268 0.743222 0
674 1 0.213852 0.752457 0
703 1 0.1933 0.767896 0
675 1 0.234477 0.734678 0
705 1 0.238183 0.761578 0
677 1 0.270465 0.732475 0
676 1 0.262779 0.756216 0
679 1 0.311832 0.740236 0
678 1 0.288344 0.74836 0
709 1 0.306521 0.7652 0
707 1 0.282682 0.77273 0
680 1 0.329938 0.75855 0
681 1 0.335514 0.734867 0
682 1 0.35425 0.750725 0
683 1 0.377978 0.743971 0
684 1 0.396099 0.761767 0
685 1 0.402323 0.737829 0
713 1 0.372233 0.768068 0
686 1 0.424997 0.728924 0
715 1 0.420395 0.753713 0
717 1 0.444593 0.746544 0
716 1 0.439215 0.770697 0
718 1 0.46336 0.763866 0
688 1 0.468526 0.739373 0
690 1 0.492229 0.731337 0
719 1 0.487676 0.755138 0
694 1 0.0416337 0.777069 0
693 1 0.0220208 0.793463 0
723 1 0.045547 0.801543 0
696 1 0.065079 0.786338 0
725 1 0.0685905 0.812463 0
727 1 0.088299 0.796203 0
698 1 0.107963 0.780926 0
728 1 0.11194 0.805808 0
700 1 0.131204 0.790382 0
729 1 0.135189 0.815642 0
701 1 0.150518 0.77476 0
731 1 0.155505 0.79959 0
732 1 0.178265 0.809184 0
702 1 0.174365 0.783648 0
704 1 0.216367 0.776388 0
733 1 0.19774 0.793406 0
734 1 0.22135 0.80683 0
735 1 0.2369 0.788149 0
706 1 0.259283 0.780828 0
736 1 0.252655 0.805695 0
737 1 0.276107 0.798494 0
708 1 0.300834 0.79135 0
738 1 0.293904 0.81544 0
739 1 0.318086 0.808145 0
711 1 0.347866 0.775811 0
710 1 0.324063 0.782493 0
741 1 0.341874 0.799897 0
742 1 0.359712 0.816705 0
712 1 0.365744 0.792425 0
743 1 0.38936 0.785287 0
744 1 0.383872 0.809079 0
745 1 0.408509 0.801314 0
714 1 0.414355 0.777762 0
746 1 0.433113 0.794919 0
748 1 0.452186 0.811959 0
747 1 0.457762 0.787844 0
1621 1 0.498583 0.813922 0
720 1 0.48172 0.779826 0
749 1 0.476437 0.804399 0
692 1 0.0260836 0.817742 0
751 1 0.0292273 0.842984 0
1680 1 0.00635071 0.832082 0
722 1 0.0500113 0.827593 0
753 1 0.0542857 0.852039 0
724 1 0.0737446 0.837182 0
754 1 0.0767107 0.861779 0
726 1 0.0924132 0.82132 0
755 1 0.0964587 0.845946 0
756 1 0.119715 0.855075 0
757 1 0.115407 0.830631 0
759 1 0.13871 0.840241 0
730 1 0.158569 0.825072 0
760 1 0.162385 0.85085 0
761 1 0.181603 0.834387 0
763 1 0.200704 0.819972 0
791 1 0.185445 0.861435 0
762 1 0.20416 0.846847 0
764 1 0.222988 0.831556 0
795 1 0.237776 0.854765 0
767 1 0.270079 0.822869 0
765 1 0.24674 0.830503 0
766 1 0.263695 0.84764 0
768 1 0.287576 0.840407 0
769 1 0.311945 0.83252 0
799 1 0.30515 0.858418 0
770 1 0.330013 0.849432 0
740 1 0.336511 0.824766 0
771 1 0.354424 0.842335 0
772 1 0.3733 0.859195 0
773 1 0.376949 0.833994 0
774 1 0.402051 0.826204 0
803 1 0.396512 0.850944 0
775 1 0.425352 0.818803 0
777 1 0.443557 0.836093 0
776 1 0.419971 0.843064 0
778 1 0.441165 0.862504 0
750 1 0.47957 0.830361 0
779 1 0.463588 0.850713 0
780 1 0.4878 0.854644 0
752 1 0.0353407 0.866337 0
782 1 0.0321817 0.891356 0
812 1 0.00790035 0.897576 0
811 1 0.0131532 0.873848 0
783 1 0.0575617 0.877168 0
813 1 0.0565113 0.901029 0
784 1 0.0799375 0.886188 0
785 1 0.0992981 0.870103 0
786 1 0.102968 0.896392 0
787 1 0.122579 0.881444 0
817 1 0.125477 0.906306 0
758 1 0.142768 0.865406 0
788 1 0.145032 0.890379 0
789 1 0.16549 0.875956 0
790 1 0.168134 0.901393 0
792 1 0.189585 0.885284 0
793 1 0.209941 0.87093 0
823 1 0.211603 0.896449 0
794 1 0.233026 0.881821 0
796 1 0.257694 0.871903 0
825 1 0.254079 0.89609 0
824 1 0.233015 0.907907 0
797 1 0.281295 0.864456 0
827 1 0.277277 0.889091 0
798 1 0.299896 0.882358 0
828 1 0.293445 0.907108 0
829 1 0.317729 0.898584 0
801 1 0.347739 0.866995 0
800 1 0.323889 0.874344 0
831 1 0.3415 0.891172 0
832 1 0.36156 0.905906 0
802 1 0.366581 0.882306 0
804 1 0.390892 0.87609 0
833 1 0.385117 0.899418 0
806 1 0.410212 0.900802 0
805 1 0.415505 0.866917 0
807 1 0.430639 0.885188 0
808 1 0.454516 0.892239 0
809 1 0.472321 0.873974 0
810 1 0.47818 0.898146 0
1681 1 0.495648 0.879541 0
842 1 0.0170641 0.94073 0
843 1 0.0242562 0.91553 0
844 1 0.0403667 0.935604 0
815 1 0.0812417 0.909526 0
814 1 0.0616883 0.924882 0
845 1 0.0838599 0.93421 0
875 1 0.0598564 0.950901 0
816 1 0.104361 0.921123 0
847 1 0.107017 0.944601 0
818 1 0.127846 0.93048 0
819 1 0.148464 0.915634 0
849 1 0.151133 0.93994 0
820 1 0.170631 0.925938 0
850 1 0.173112 0.950879 0
821 1 0.191274 0.910996 0
851 1 0.192627 0.936431 0
822 1 0.213257 0.922725 0
853 1 0.21903 0.946382 0
855 1 0.239588 0.931485 0
826 1 0.270205 0.914815 0
856 1 0.264616 0.942473 0
857 1 0.287888 0.931376 0
858 1 0.308002 0.946404 0
859 1 0.312377 0.922893 0
830 1 0.335275 0.914731 0
860 1 0.331912 0.938873 0
861 1 0.354537 0.929083 0
863 1 0.377565 0.938775 0
834 1 0.395766 0.922284 0
865 1 0.401668 0.945736 0
837 1 0.435931 0.908601 0
835 1 0.419511 0.927491 0
838 1 0.443122 0.933921 0
836 1 0.425546 0.951957 0
839 1 0.460032 0.916751 0
1741 1 0.491414 0.946669 0
840 1 0.484643 0.922544 0
869 1 0.466876 0.941009 0
872 1 0.0267586 0.982467 0
873 1 0.0340523 0.958879 0
871 1 0.00972524 0.965025 0
1 1 0.00130825 0.987805 0
846 1 0.0854209 0.959253 0
874 1 0.0517489 0.976777 0
5 1 0.0674407 0.997428 0
876 1 0.0881316 0.983616 0
848 1 0.129954 0.9551 0
7 1 0.111855 0.992255 0
877 1 0.10856 0.968628 0
878 1 0.132276 0.978552 0
879 1 0.15319 0.96445 0
880 1 0.155277 0.989749 0
881 1 0.175886 0.97603 0
852 1 0.198047 0.960807 0
882 1 0.19861 0.986223 0
883 1 0.220464 0.972199 0
13 1 0.221062 0.997161 0
854 1 0.242648 0.957079 0
884 1 0.243405 0.982816 0
885 1 0.264727 0.968359 0
886 1 0.265318 0.995589 0
887 1 0.286383 0.957205 0
888 1 0.286144 0.982001 0
19 1 0.31044 0.995643 0
889 1 0.308731 0.97066 0
862 1 0.356268 0.953906 0
890 1 0.338266 0.987163 0
891 1 0.332825 0.963035 0
892 1 0.363398 0.979071 0
864 1 0.383275 0.962707 0
893 1 0.389022 0.986589 0
895 1 0.407942 0.969497 0
867 1 0.449701 0.957828 0
896 1 0.41378 0.993241 0
897 1 0.437653 1.00001 0
866 1 0.431943 0.976327 0
870 1 0.473469 0.964765 0
899 1 0.480722 0.988043 0
868 1 0.455335 0.981509 0
1771 1 0.497534 0.970322 0
902 1 0.534101 0.0254806 0
931 1 0.517677 0.0428456 0
901 1 0.51005 0.0177426 0
904 1 0.558316 0.0305622 0
935 1 0.582251 0.0369851 0
906 1 0.576674 0.0127359 0
905 1 0.551889 0.00628451 0
908 1 0.600315 0.0179249 0
937 1 0.605595 0.0433208 0
939 1 0.624451 0.0253776 0
941 1 0.648614 0.0313786 0
912 1 0.666977 0.0139132 0
942 1 0.671272 0.0393054 0
910 1 0.641382 0.00693738 0
944 1 0.689561 0.0239159 0
945 1 0.713171 0.0182093 0
975 1 0.705766 0.0441468 0
947 1 0.737731 0.0134427 0
946 1 0.730045 0.0368656 0
948 1 0.754281 0.0323463 0
918 1 0.762869 0.00930676 0
919 1 0.787367 0.0047772 0
949 1 0.779551 0.0281157 0
920 1 0.805205 0.0234192 0
1790 1 0.813283 -0.000218734 0
922 1 0.829785 0.0199437 0
924 1 0.854028 0.0134487 0
951 1 0.846525 0.0374505 0
950 1 0.8211 0.0428956 0
953 1 0.870908 0.0325091 0
955 1 0.87842 0.00868393 0
954 1 0.89552 0.0283928 0
925 1 0.902647 0.0048986 0
926 1 0.926732 0.00162736 0
957 1 0.94386 0.0201237 0
956 1 0.919603 0.025115 0
987 1 0.935962 0.0450844 0
930 1 0.993692 0.0108782 0
959 1 0.969402 0.0151171 0
960 1 0.985819 0.0343815 0
958 1 0.960616 0.0389508 0
933 1 0.541242 0.0492692 0
932 1 0.52298 0.0662516 0
961 1 0.505767 0.0836787 0
962 1 0.529333 0.0906889 0
963 1 0.548015 0.072759 0
934 1 0.565289 0.053871 0
965 1 0.571508 0.078717 0
936 1 0.588447 0.0616281 0
938 1 0.62958 0.0487218 0
966 1 0.594806 0.0861603 0
967 1 0.611556 0.0674137 0
969 1 0.6365 0.0724467 0
940 1 0.653702 0.0559241 0
970 1 0.660579 0.0801282 0
971 1 0.677016 0.062747 0
972 1 0.684948 0.0860437 0
973 1 0.701247 0.0690508 0
974 1 0.724174 0.0615722 0
976 1 0.747917 0.0562511 0
1007 1 0.764699 0.0745053 0
1005 1 0.739893 0.0791785 0
977 1 0.771292 0.0503768 0
979 1 0.7967 0.0464519 0
980 1 0.812988 0.0656765 0
978 1 0.788883 0.0703593 0
1009 1 0.805585 0.0890285 0
981 1 0.837999 0.0606796 0
982 1 0.855217 0.0791656 0
1011 1 0.830331 0.0834166 0
952 1 0.863142 0.0557921 0
983 1 0.887017 0.0520112 0
984 1 0.879117 0.0750735 0
1015 1 0.903728 0.0711786 0
985 1 0.910996 0.0482384 0
986 1 0.927488 0.0674949 0
1018 1 0.944416 0.0864595 0
988 1 0.952947 0.063084 0
1017 1 0.919671 0.0905464 0
989 1 0.976353 0.058021 0
990 1 0.992072 0.0780128 0
1019 1 0.969179 0.0835504 0
991 1 0.512163 0.108034 0
992 1 0.518766 0.132172 0
993 1 0.53601 0.114843 0
964 1 0.553679 0.0975764 0
994 1 0.560375 0.121476 0
995 1 0.577703 0.103748 0
996 1 0.58458 0.127652 0
968 1 0.619203 0.0912793 0
997 1 0.602731 0.110723 0
998 1 0.626489 0.11634 0
1027 1 0.609451 0.134887 0
999 1 0.643131 0.0973695 0
1000 1 0.649952 0.122114 0
1001 1 0.668373 0.104494 0
1031 1 0.675194 0.128336 0
1003 1 0.710602 0.0917873 0
1002 1 0.692284 0.109372 0
1004 1 0.715416 0.117266 0
1033 1 0.698817 0.13349 0
1006 1 0.756481 0.0981397 0
1035 1 0.733052 0.102308 0
1036 1 0.746395 0.123306 0
1037 1 0.771539 0.117804 0
1008 1 0.780364 0.0939328 0
1039 1 0.79636 0.113092 0
1040 1 0.811725 0.132624 0
1010 1 0.820568 0.108377 0
1012 1 0.846569 0.102698 0
1041 1 0.836895 0.127237 0
1043 1 0.861923 0.122076 0
1013 1 0.871 0.0985902 0
1014 1 0.896141 0.0945492 0
1045 1 0.88691 0.117628 0
1016 1 0.912126 0.113973 0
1047 1 0.928546 0.132871 0
1049 1 0.959131 0.106918 0
1020 1 0.984552 0.102053 0
1050 1 0.976349 0.125637 0
1023 1 0.543157 0.137873 0
1022 1 0.525892 0.156909 0
1051 1 0.508887 0.174311 0
1021 1 0.501191 0.149377 0
1053 1 0.533523 0.180666 0
1024 1 0.550157 0.162764 0
1025 1 0.567691 0.145792 0
1055 1 0.574663 0.169286 0
1026 1 0.591621 0.151694 0
1029 1 0.633582 0.140908 0
1028 1 0.616228 0.158967 0
1057 1 0.598515 0.175878 0
1058 1 0.623719 0.182282 0
1059 1 0.640766 0.163985 0
1030 1 0.657162 0.145547 0
1061 1 0.66496 0.169861 0
1032 1 0.682369 0.152279 0
1063 1 0.706519 0.157366 0
1062 1 0.690054 0.175348 0
1064 1 0.71421 0.181336 0
1034 1 0.726506 0.139276 0
1065 1 0.730643 0.163085 0
1067 1 0.762407 0.141998 0
1066 1 0.754852 0.166248 0
1038 1 0.786885 0.13785 0
1069 1 0.804657 0.155847 0
1068 1 0.779501 0.161137 0
1099 1 0.796407 0.178923 0
1071 1 0.829376 0.151188 0
1042 1 0.853837 0.145252 0
1072 1 0.845862 0.170378 0
1070 1 0.821021 0.173855 0
1044 1 0.879397 0.140404 0
1075 1 0.895255 0.160367 0
1073 1 0.870678 0.165757 0
1046 1 0.903019 0.136669 0
1048 1 0.943899 0.153174 0
1077 1 0.919357 0.155516 0
1076 1 0.911472 0.178997 0
1079 1 0.96793 0.150502 0
1080 1 0.98406 0.16852 0
151 1 0.992271 0.144839 0
1078 1 0.959178 0.174669 0
1052 1 0.516163 0.19886 0
1082 1 0.522597 0.223022 0
1083 1 0.540939 0.205326 0
1054 1 0.557172 0.187832 0
1056 1 0.582034 0.193468 0
1085 1 0.565067 0.211599 0
1086 1 0.588832 0.217631 0
1087 1 0.606381 0.199149 0
1088 1 0.613158 0.223238 0
1089 1 0.630384 0.206752 0
1060 1 0.647723 0.18888 0
1091 1 0.672001 0.19411 0
1090 1 0.655452 0.211648 0
1092 1 0.679928 0.217167 0
1093 1 0.697556 0.199272 0
1094 1 0.720834 0.204876 0
1123 1 0.704097 0.223733 0
1095 1 0.738933 0.185991 0
1096 1 0.745161 0.210549 0
1127 1 0.77065 0.215902 0
1097 1 0.769862 0.18592 0
1098 1 0.789817 0.202275 0
1100 1 0.813659 0.198379 0
1129 1 0.805271 0.222219 0
1101 1 0.837709 0.194276 0
1102 1 0.853641 0.213122 0
1131 1 0.830016 0.218148 0
1103 1 0.86251 0.18926 0
1074 1 0.886519 0.183318 0
1105 1 0.902889 0.203828 0
1104 1 0.878035 0.207781 0
1107 1 0.928449 0.198249 0
1108 1 0.94466 0.219041 0
1106 1 0.920229 0.222888 0
1109 1 0.977881 0.192257 0
1110 1 0.968491 0.214881 0
211 1 0.993137 0.212122 0
1111 1 0.504076 0.240147 0
1113 1 0.530651 0.246487 0
1112 1 0.512406 0.264133 0
1143 1 0.536081 0.271316 0
1084 1 0.548067 0.229066 0
1114 1 0.554446 0.25267 0
1115 1 0.571929 0.235637 0
1116 1 0.578183 0.258928 0
1117 1 0.596188 0.241008 0
1118 1 0.620559 0.24671 0
1147 1 0.601966 0.265824 0
1149 1 0.628305 0.27036 0
1119 1 0.638052 0.229592 0
1121 1 0.663259 0.235104 0
1120 1 0.646018 0.25298 0
1151 1 0.670119 0.258928 0
1122 1 0.687149 0.240589 0
1124 1 0.711077 0.247555 0
1153 1 0.693942 0.265324 0
1154 1 0.71852 0.271333 0
1125 1 0.72793 0.22899 0
1126 1 0.752071 0.234356 0
1155 1 0.736857 0.252765 0
1157 1 0.760727 0.259223 0
1128 1 0.775895 0.240656 0
1159 1 0.799136 0.245455 0
1158 1 0.785441 0.264653 0
1160 1 0.810689 0.267129 0
1130 1 0.821833 0.241297 0
1132 1 0.8465 0.236861 0
1161 1 0.837359 0.260393 0
1163 1 0.861752 0.25586 0
1135 1 0.89438 0.227234 0
1133 1 0.870775 0.232061 0
1134 1 0.886234 0.251014 0
1165 1 0.903671 0.269428 0
1136 1 0.91007 0.246273 0
1137 1 0.934635 0.243976 0