ITEM: TIMESTEP
148000
ITEM: NUMBER OF ATOMS
1800
ITEM: BOX BOUNDS pp pp pp
9.2046481758821130e-01 1.6407953518241320e+02
9.2046481758821130e-01 1.6407953518241320e+02
0.0000000000000000e+00 5.5000000000000000e+00
ITEM: ATOMS id type xs ys zs
2 1 0.0187246 0.00587753 0
33 1 0.0355808 0.0244406 0
31 1 0.0107113 0.0305256 0
3 1 0.0436366 0.00124227 0
4 1 0.0609461 0.019271 0
35 1 0.0774541 0.0396578 0
6 1 0.0883658 0.0134233 0
34 1 0.0534034 0.0425355 0
8 1 0.113562 0.0154922 0
37 1 0.101296 0.0353941 0
9 1 0.13491 0.00293049 0
39 1 0.135493 0.0268469 0
10 1 0.157153 0.0137946 0
40 1 0.15876 0.0379439 0
41 1 0.179639 0.0252223 0
12 1 0.20147 0.00978483 0
43 1 0.202309 0.0349431 0
14 1 0.224211 0.0208909 0
44 1 0.22474 0.0457897 0
15 1 0.245646 0.00684543 0
45 1 0.246188 0.0326834 0
16 1 0.267399 0.0199035 0
46 1 0.268638 0.0437569 0
18 1 0.289659 0.0309912 0
17 1 0.287641 0.00599193 0
20 1 0.311501 0.0201992 0
51 1 0.33469 0.0352175 0
22 1 0.354547 0.0195202 0
21 1 0.332963 0.0099349 0
52 1 0.357523 0.0436007 0
24 1 0.378698 0.0262348 0
55 1 0.401675 0.0329132 0
894 1 0.396865 0.00933224 0
23 1 0.370823 0.0021644 0
25 1 0.420514 0.0160771 0
26 1 0.427028 0.0392922 0
27 1 0.444863 0.0223206 0
29 1 0.469729 0.0280768 0
900 1 0.487522 0.010932 0
30 1 0.493685 0.0343721 0
898 1 0.462898 0.00431084 0
32 1 0.0284024 0.0475814 0
62 1 0.0201973 0.0714743 0
61 1 0.00282239 0.053619 0
63 1 0.0448827 0.0668318 0
65 1 0.0690188 0.0627936 0
66 1 0.0848561 0.0818808 0
64 1 0.0600733 0.0865978 0
36 1 0.0928922 0.0589258 0
38 1 0.116133 0.0554937 0
67 1 0.110184 0.0788833 0
68 1 0.135939 0.0737741 0
69 1 0.138996 0.0500758 0
71 1 0.158495 0.0647355 0
72 1 0.178523 0.0759772 0
42 1 0.179837 0.0500651 0
70 1 0.156693 0.0905177 0
73 1 0.202152 0.0596953 0
103 1 0.201146 0.0855221 0
74 1 0.223482 0.0713043 0
75 1 0.247703 0.0562099 0
77 1 0.268595 0.0691821 0
76 1 0.246377 0.0805869 0
49 1 0.310661 0.0449549 0
47 1 0.291425 0.0588016 0
48 1 0.290446 0.0834272 0
50 1 0.314209 0.0705592 0
81 1 0.338428 0.0607692 0
82 1 0.348724 0.0850682 0
83 1 0.365486 0.0670091 0
53 1 0.383619 0.0504807 0
54 1 0.391251 0.0747027 0
28 1 0.452555 0.045732 0
56 1 0.408477 0.0572358 0
57 1 0.435008 0.062831 0
85 1 0.416288 0.0806901 0
87 1 0.44186 0.0871587 0
58 1 0.45886 0.0696647 0
59 1 0.476421 0.0520937 0
89 1 0.482634 0.076076 0
121 1 0.00403698 0.119862 0
93 1 0.0361475 0.0906075 0
92 1 0.0276668 0.114969 0
91 1 0.0116776 0.0952214 0
123 1 0.0438869 0.133431 0
94 1 0.05231 0.110246 0
95 1 0.0766118 0.104878 0
125 1 0.0689839 0.128652 0
96 1 0.0937898 0.123864 0
97 1 0.10133 0.100977 0
98 1 0.119358 0.119432 0
99 1 0.127993 0.0963911 0
100 1 0.15686 0.118558 0
101 1 0.179357 0.102015 0
131 1 0.183446 0.127361 0
102 1 0.202811 0.110578 0
105 1 0.223708 0.0955174 0
104 1 0.208052 0.135835 0
106 1 0.226645 0.119607 0
78 1 0.268821 0.0954163 0
107 1 0.246249 0.10473 0
137 1 0.24996 0.127377 0
108 1 0.273785 0.130779 0
79 1 0.310589 0.0955396 0
109 1 0.289755 0.110551 0
110 1 0.315117 0.120636 0
111 1 0.357551 0.108717 0
80 1 0.333528 0.104415 0
141 1 0.340341 0.127926 0
143 1 0.364702 0.13345 0
113 1 0.373591 0.0910094 0
84 1 0.398318 0.0973131 0
112 1 0.381718 0.11542 0
115 1 0.405434 0.121652 0
86 1 0.422662 0.104239 0
116 1 0.429415 0.127903 0
117 1 0.447134 0.111168 0
118 1 0.454698 0.13461 0
88 1 0.466186 0.0941145 0
90 1 0.49119 0.0998232 0
119 1 0.472588 0.117809 0
120 1 0.49657 0.123642 0
122 1 0.019389 0.138478 0
153 1 0.0368353 0.157859 0
152 1 0.0116339 0.162508 0
183 1 0.0283426 0.180584 0
124 1 0.0611716 0.151938 0
126 1 0.085773 0.147571 0
155 1 0.0779645 0.171721 0
154 1 0.0534146 0.176127 0
127 1 0.11072 0.142692 0
128 1 0.126379 0.1605 0
157 1 0.102154 0.166047 0
129 1 0.138275 0.137189 0
130 1 0.165517 0.145292 0
159 1 0.149301 0.164594 0
132 1 0.172837 0.171041 0
133 1 0.188916 0.152095 0
134 1 0.214069 0.159678 0
163 1 0.196702 0.176854 0
135 1 0.232683 0.143144 0
136 1 0.256696 0.149859 0
165 1 0.238647 0.166788 0
167 1 0.26244 0.173543 0
139 1 0.296879 0.137649 0
138 1 0.279877 0.155284 0
169 1 0.304711 0.162001 0
168 1 0.286564 0.17904 0
140 1 0.321452 0.14393 0
142 1 0.347354 0.151191 0
171 1 0.328857 0.167284 0
172 1 0.354958 0.174703 0
114 1 0.389575 0.139852 0
144 1 0.395279 0.163739 0
173 1 0.37157 0.156996 0
174 1 0.37902 0.181529 0
145 1 0.413286 0.14582 0
146 1 0.419621 0.169408 0
147 1 0.437279 0.152104 0
177 1 0.443671 0.175369 0
149 1 0.479207 0.141485 0
148 1 0.461771 0.158748 0
150 1 0.486519 0.164892 0
179 1 0.469037 0.183018 0
182 1 0.020755 0.204256 0
184 1 0.0452363 0.200776 0
181 1 0.00352762 0.185429 0
213 1 0.0368607 0.224006 0
185 1 0.0700777 0.195325 0
215 1 0.0630177 0.219166 0
156 1 0.0935988 0.190269 0
186 1 0.0962386 0.219008 0
160 1 0.13234 0.183757 0
158 1 0.115141 0.201546 0
187 1 0.120613 0.225481 0
189 1 0.139495 0.208732 0
161 1 0.155732 0.189971 0
191 1 0.162581 0.214792 0
162 1 0.179686 0.195435 0
164 1 0.221194 0.184038 0
193 1 0.2046 0.201641 0
192 1 0.186525 0.220133 0
194 1 0.211708 0.226145 0
195 1 0.228554 0.20865 0
166 1 0.245647 0.190888 0
196 1 0.252726 0.215394 0
197 1 0.269025 0.196715 0
170 1 0.311999 0.185064 0
199 1 0.294502 0.202291 0
198 1 0.276608 0.220017 0
200 1 0.318923 0.208499 0
201 1 0.336017 0.190961 0
202 1 0.343045 0.215483 0
203 1 0.360439 0.198738 0
175 1 0.402083 0.188108 0
233 1 0.367383 0.221827 0
204 1 0.385017 0.205949 0
205 1 0.408427 0.211433 0
176 1 0.426449 0.193198 0
207 1 0.432919 0.217134 0
178 1 0.450327 0.199463 0
208 1 0.456415 0.22357 0
180 1 0.492562 0.190025 0
209 1 0.474597 0.208056 0
1081 1 0.499096 0.215105 0
212 1 0.0126737 0.227848 0
243 1 0.0311411 0.24779 0
241 1 0.00485712 0.251472 0
273 1 0.0184653 0.270984 0
216 1 0.0803976 0.236854 0
214 1 0.0554548 0.243071 0
247 1 0.0834207 0.261006 0
188 1 0.127425 0.249424 0
217 1 0.103203 0.243751 0
218 1 0.109707 0.267728 0
190 1 0.145025 0.23255 0
221 1 0.168215 0.238189 0
220 1 0.150961 0.256751 0
222 1 0.174901 0.262203 0
223 1 0.19408 0.244644 0
224 1 0.217996 0.250228 0
253 1 0.19947 0.268281 0
225 1 0.235148 0.232718 0
227 1 0.25942 0.238335 0
226 1 0.241636 0.256046 0
257 1 0.26511 0.263247 0
229 1 0.300828 0.226769 0
228 1 0.283197 0.244471 0
230 1 0.306651 0.250938 0
259 1 0.28881 0.268715 0
231 1 0.324697 0.233254 0
232 1 0.349294 0.238985 0
261 1 0.330352 0.256746 0
263 1 0.354125 0.262585 0
235 1 0.390869 0.228958 0
234 1 0.372406 0.245759 0
265 1 0.396978 0.252689 0
264 1 0.379291 0.26979 0
206 1 0.415016 0.235955 0
236 1 0.422529 0.259039 0
237 1 0.439321 0.241188 0
238 1 0.445722 0.26565 0
210 1 0.482021 0.231792 0
239 1 0.464474 0.248297 0
240 1 0.488454 0.256048 0
244 1 0.0434549 0.27157 0
271 1 0.0081795 0.313413 0
275 1 0.024896 0.294999 0
272 1 0.0325303 0.318467 0
245 1 0.0668258 0.279459 0
246 1 0.049877 0.299072 0
276 1 0.0746598 0.304133 0
248 1 0.0911168 0.28531 0
219 1 0.133577 0.273911 0
249 1 0.115749 0.292149 0
277 1 0.0976627 0.309828 0
279 1 0.123043 0.316386 0
251 1 0.158832 0.280368 0
250 1 0.140067 0.297394 0
281 1 0.164182 0.304394 0
252 1 0.182482 0.286413 0
254 1 0.206277 0.292287 0
283 1 0.189512 0.310568 0
255 1 0.223864 0.273995 0
284 1 0.212737 0.31761 0
256 1 0.246657 0.281529 0
285 1 0.229332 0.298536 0
287 1 0.253667 0.305038 0
258 1 0.270506 0.287149 0
260 1 0.313441 0.274908 0
288 1 0.27721 0.311619 0
289 1 0.293533 0.293039 0
290 1 0.301309 0.315927 0
291 1 0.319671 0.298348 0
262 1 0.337686 0.281132 0
292 1 0.342676 0.305072 0
293 1 0.360812 0.286541 0
266 1 0.405181 0.27653 0
295 1 0.38525 0.293436 0
294 1 0.366651 0.310555 0
296 1 0.391059 0.316906 0
297 1 0.409899 0.299761 0
267 1 0.428925 0.284441 0
268 1 0.452985 0.290477 0
298 1 0.434138 0.309217 0
269 1 0.4707 0.272843 0
1141 1 0.494279 0.27969 0
270 1 0.4766 0.29783 0
299 1 0.458246 0.314839 0
301 1 0.0157054 0.337085 0
303 1 0.0392693 0.341747 0
302 1 0.0225473 0.360748 0
274 1 0.0576227 0.322205 0
304 1 0.0644112 0.346771 0
305 1 0.0811109 0.327918 0
306 1 0.0887637 0.351877 0
307 1 0.105415 0.333071 0
278 1 0.13037 0.33976 0
308 1 0.111952 0.358101 0
280 1 0.146658 0.32254 0
282 1 0.17118 0.328768 0
311 1 0.154137 0.346116 0
312 1 0.17819 0.352899 0
313 1 0.195615 0.334544 0
314 1 0.202334 0.358969 0
315 1 0.219767 0.342046 0
286 1 0.236457 0.322906 0
317 1 0.260377 0.329034 0
316 1 0.243523 0.347384 0
318 1 0.267332 0.353317 0
319 1 0.284161 0.335178 0
349 1 0.291402 0.35879 0
320 1 0.307933 0.340192 0
321 1 0.32535 0.322417 0
323 1 0.34899 0.327891 0
322 1 0.331799 0.345614 0
324 1 0.355018 0.352745 0
325 1 0.37313 0.334082 0
326 1 0.397243 0.342296 0
355 1 0.377792 0.358136 0
327 1 0.414355 0.323322 0
328 1 0.42115 0.345587 0
359 1 0.439749 0.36027 0
329 1 0.441947 0.333931 0
300 1 0.482355 0.323304 0
1201 1 0.489233 0.345749 0
330 1 0.46413 0.348381 0
332 1 0.0301311 0.383881 0
361 1 0.0139177 0.403552 0
331 1 0.00525311 0.379627 0
363 1 0.0387357 0.407245 0
333 1 0.0471168 0.36534 0
335 1 0.0716745 0.370143 0
334 1 0.0551434 0.38908 0
336 1 0.0784656 0.394305 0
337 1 0.0965847 0.376805 0
338 1 0.12033 0.382453 0
367 1 0.103372 0.400868 0
369 1 0.127245 0.406769 0
309 1 0.138009 0.36402 0
310 1 0.161402 0.370969 0
339 1 0.144076 0.388011 0
341 1 0.168298 0.395626 0
345 1 0.226741 0.365499 0
343 1 0.185925 0.377089 0
342 1 0.192893 0.40053 0
344 1 0.209584 0.382767 0
375 1 0.217565 0.40691 0
347 1 0.250758 0.371237 0
346 1 0.233762 0.388915 0
377 1 0.257918 0.39467 0
351 1 0.314554 0.364501 0
348 1 0.275595 0.37696 0
350 1 0.299222 0.383695 0
379 1 0.282085 0.401004 0
353 1 0.337527 0.369611 0
381 1 0.321688 0.393981 0
352 1 0.345773 0.391921 0
383 1 0.364052 0.407257 0
354 1 0.367972 0.382442 0
385 1 0.3863 0.399762 0
356 1 0.392901 0.376821 0
357 1 0.414719 0.368121 0
358 1 0.433682 0.384192 0
387 1 0.410585 0.392889 0
389 1 0.452027 0.400094 0
388 1 0.428951 0.408693 0
1231 1 0.481586 0.368016 0
360 1 0.4589 0.375584 0
1232 1 0.475327 0.392999 0
362 1 0.0219295 0.426273 0
392 1 0.00582264 0.445264 0
393 1 0.0294262 0.451062 0
364 1 0.0460752 0.432236 0
365 1 0.0628421 0.413604 0
395 1 0.0709607 0.437964 0
366 1 0.0870588 0.419251 0
397 1 0.0957033 0.443399 0
368 1 0.110794 0.424817 0
399 1 0.119882 0.450119 0
370 1 0.135664 0.430609 0
340 1 0.151369 0.412819 0
401 1 0.159659 0.437388 0
371 1 0.176348 0.418759 0
372 1 0.183133 0.443023 0
373 1 0.200486 0.424831 0
403 1 0.2082 0.448537 0
374 1 0.225124 0.430978 0
376 1 0.24162 0.413771 0
407 1 0.249786 0.436892 0
378 1 0.265695 0.41901 0
409 1 0.288413 0.426417 0
410 1 0.306458 0.443681 0
408 1 0.282051 0.450689 0
380 1 0.312228 0.417765 0
382 1 0.338047 0.414177 0
411 1 0.330342 0.436798 0
413 1 0.355997 0.430934 0
384 1 0.381216 0.42474 0
414 1 0.373703 0.447968 0
415 1 0.399128 0.440802 0
386 1 0.404576 0.416556 0
417 1 0.422738 0.432886 0
419 1 0.447079 0.425155 0
418 1 0.440402 0.450192 0
1261 1 0.470735 0.417262 0
390 1 0.464513 0.442135 0
1291 1 0.488771 0.435326 0
1262 1 0.494267 0.410011 0
422 1 0.0114384 0.468671 0
453 1 0.0200932 0.493607 0
423 1 0.0363848 0.47453 0
424 1 0.0444222 0.498854 0
394 1 0.0534649 0.455917 0
396 1 0.0784008 0.462168 0
425 1 0.0611307 0.48017 0
427 1 0.0849346 0.486472 0
398 1 0.102587 0.468574 0
428 1 0.108715 0.492608 0
429 1 0.12706 0.473614 0
430 1 0.134219 0.498446 0
400 1 0.143822 0.455634 0
431 1 0.150895 0.480149 0
402 1 0.167653 0.462599 0
432 1 0.174642 0.486008 0
433 1 0.191634 0.467809 0
434 1 0.197972 0.491358 0
404 1 0.215669 0.473333 0
435 1 0.223109 0.497668 0
405 1 0.231903 0.454609 0
406 1 0.257172 0.460525 0
436 1 0.240198 0.478386 0
437 1 0.276848 0.476118 0
438 1 0.295519 0.493622 0
439 1 0.300981 0.468623 0
412 1 0.348192 0.453813 0
440 1 0.319113 0.484716 0
441 1 0.325171 0.460885 0
442 1 0.343566 0.478986 0
473 1 0.362135 0.496388 0
443 1 0.367007 0.471919 0
445 1 0.391709 0.464856 0
444 1 0.386452 0.489071 0
449 1 0.453056 0.490459 0
447 1 0.434127 0.473737 0
416 1 0.416371 0.45723 0
446 1 0.410094 0.481988 0
448 1 0.428918 0.497898 0
420 1 0.458102 0.466884 0
450 1 0.477146 0.483755 0
1321 1 0.482306 0.459611 0
1263 1 0.499412 0.385453 0
452 1 0.00415286 0.511466 0
483 1 0.0110993 0.535543 0
454 1 0.0276016 0.517392 0
485 1 0.0346924 0.541829 0
455 1 0.0515086 0.522779 0
456 1 0.0745644 0.528517 0
426 1 0.0680942 0.503961 0
458 1 0.0986686 0.5336 0
459 1 0.116039 0.515888 0
457 1 0.0918044 0.510482 0
489 1 0.123374 0.539272 0
460 1 0.140366 0.522222 0
462 1 0.164824 0.52817 0
461 1 0.158056 0.504739 0
463 1 0.18163 0.510226 0
493 1 0.188287 0.533623 0
495 1 0.212431 0.539876 0
464 1 0.206278 0.516209 0
466 1 0.230279 0.522496 0
497 1 0.266123 0.525465 0
465 1 0.247112 0.502971 0
467 1 0.271959 0.500806 0
468 1 0.290118 0.516841 0
499 1 0.307853 0.533919 0
498 1 0.284264 0.541149 0
469 1 0.314761 0.510397 0
470 1 0.332567 0.527912 0
472 1 0.356438 0.520309 0
471 1 0.337795 0.503336 0
501 1 0.351559 0.544695 0
474 1 0.380551 0.512798 0
476 1 0.39995 0.529481 0
503 1 0.375126 0.537328 0
475 1 0.405828 0.506047 0
477 1 0.423773 0.522199 0
478 1 0.448022 0.514879 0
507 1 0.441353 0.539096 0
480 1 0.46572 0.532045 0
479 1 0.470817 0.506936 0
1381 1 0.488397 0.524228 0
513 1 0.0167498 0.561166 0
512 1 0.0238808 0.586246 0
484 1 0.0414889 0.565797 0
486 1 0.0586178 0.546731 0
515 1 0.0653843 0.570566 0
487 1 0.0819468 0.55332 0
517 1 0.088797 0.576477 0
514 1 0.0485485 0.589321 0
488 1 0.10572 0.55769 0
519 1 0.11263 0.581856 0
490 1 0.129534 0.563428 0
491 1 0.147338 0.545548 0
520 1 0.137126 0.587317 0
521 1 0.154059 0.56958 0
492 1 0.171557 0.552012 0
523 1 0.178013 0.576705 0
494 1 0.194924 0.558524 0
524 1 0.201687 0.583765 0
525 1 0.218511 0.565006 0
555 1 0.225846 0.589236 0
496 1 0.236172 0.546915 0
526 1 0.24346 0.570771 0
527 1 0.259739 0.550836 0
528 1 0.278809 0.565627 0
529 1 0.303061 0.558853 0
559 1 0.298366 0.583862 0
530 1 0.322244 0.57587 0
500 1 0.326951 0.551568 0
531 1 0.345963 0.568868 0
533 1 0.364329 0.585562 0
502 1 0.369847 0.561334 0
505 1 0.393372 0.553269 0
504 1 0.388309 0.578821 0
535 1 0.411653 0.571284 0
506 1 0.41715 0.547132 0
508 1 0.435379 0.563475 0
537 1 0.43008 0.587884 0
539 1 0.453742 0.58152 0
509 1 0.45921 0.55731 0
510 1 0.483555 0.548429 0
540 1 0.477977 0.572868 0
1441 1 0.495311 0.589854 0
542 1 0.0166767 0.609871 0
571 1 0.0084038 0.633898 0
543 1 0.0403406 0.612678 0
516 1 0.0720225 0.595494 0
545 1 0.0626815 0.61993 0
546 1 0.0842816 0.631074 0
518 1 0.120317 0.604412 0
547 1 0.0963339 0.603124 0
548 1 0.126029 0.627544 0
522 1 0.160207 0.594178 0
549 1 0.143794 0.611525 0
551 1 0.167746 0.618831 0
550 1 0.149342 0.634977 0
553 1 0.185115 0.601265 0
552 1 0.19195 0.625665 0
554 1 0.20951 0.607325 0
583 1 0.215545 0.633234 0
556 1 0.233271 0.615451 0
557 1 0.25017 0.595789 0
587 1 0.268132 0.615133 0
558 1 0.274269 0.590103 0
560 1 0.29143 0.607778 0
591 1 0.312077 0.625985 0
589 1 0.28855 0.63316 0
561 1 0.316687 0.601391 0
532 1 0.341071 0.593168 0
562 1 0.335668 0.618285 0
563 1 0.359478 0.610658 0
564 1 0.354612 0.634899 0
534 1 0.382316 0.603035 0
566 1 0.401415 0.620607 0
565 1 0.378025 0.627629 0
536 1 0.405816 0.596351 0
567 1 0.424984 0.612364 0
538 1 0.448783 0.60557 0
597 1 0.443226 0.630633 0
568 1 0.467488 0.622024 0
569 1 0.472808 0.597945 0
570 1 0.490579 0.615182 0
544 1 0.0402336 0.636943 0
573 1 0.0228052 0.654462 0
603 1 0.0252379 0.677798 0
574 1 0.0454579 0.661969 0
575 1 0.0638323 0.646069 0
605 1 0.0679578 0.672178 0
576 1 0.086188 0.656524 0
577 1 0.106193 0.641739 0
578 1 0.110893 0.666697 0
579 1 0.130016 0.651312 0
609 1 0.134434 0.675534 0
581 1 0.171956 0.643854 0
580 1 0.15336 0.660251 0
611 1 0.177801 0.668257 0
582 1 0.195437 0.649429 0
584 1 0.218415 0.658025 0
613 1 0.200808 0.675859 0
585 1 0.239091 0.642092 0
586 1 0.265349 0.640601 0
615 1 0.239885 0.667774 0
617 1 0.263022 0.665735 0
588 1 0.28537 0.658127 0
590 1 0.308158 0.650322 0
619 1 0.303244 0.675501 0
593 1 0.331289 0.643221 0
621 1 0.326785 0.667074 0
592 1 0.349286 0.659362 0
594 1 0.37261 0.653027 0
595 1 0.396034 0.645388 0
625 1 0.39315 0.669202 0
623 1 0.369154 0.677448 0
596 1 0.420185 0.637085 0
627 1 0.416315 0.661672 0
598 1 0.439269 0.654905 0
657 1 0.433656 0.679253 0
628 1 0.457931 0.670461 0
599 1 0.462696 0.646601 0
600 1 0.485883 0.639146 0
629 1 0.48109 0.662294 0
602 1 0.00680984 0.697246 0
633 1 0.0306384 0.704312 0
604 1 0.048565 0.687361 0
606 1 0.0719882 0.695719 0
635 1 0.0536164 0.71185 0
636 1 0.0765779 0.720275 0
607 1 0.0911508 0.68108 0
637 1 0.0964352 0.706101 0
608 1 0.115881 0.690657 0
638 1 0.120529 0.715858 0
610 1 0.157603 0.684073 0
639 1 0.139331 0.700814 0
640 1 0.143083 0.724652 0
641 1 0.162205 0.708794 0
612 1 0.181559 0.692472 0
642 1 0.186075 0.717863 0
614 1 0.223197 0.684745 0
643 1 0.20421 0.701791 0
644 1 0.210089 0.726516 0
645 1 0.22814 0.709433 0
616 1 0.247141 0.691556 0
646 1 0.251034 0.71563 0
618 1 0.280448 0.68374 0
647 1 0.274705 0.707725 0
649 1 0.298983 0.699588 0
648 1 0.293321 0.724748 0
650 1 0.317545 0.716603 0
620 1 0.321484 0.691218 0
622 1 0.345686 0.68421 0
651 1 0.340829 0.709285 0
652 1 0.358377 0.726448 0
653 1 0.363696 0.701399 0
624 1 0.387862 0.693559 0
655 1 0.406014 0.711226 0
654 1 0.382992 0.718206 0
626 1 0.410963 0.687389 0
656 1 0.430038 0.70397 0
687 1 0.448075 0.720693 0
658 1 0.452539 0.696088 0
659 1 0.475739 0.687629 0
660 1 0.495189 0.705195 0
689 1 0.471679 0.712109 0
634 1 0.0339793 0.727741 0
662 1 0.0175105 0.767799 0
663 1 0.0142919 0.742664 0
664 1 0.0388686 0.7517 0
665 1 0.0582366 0.737204 0
666 1 0.0826603 0.745818 0
695 1 0.0628952 0.760968 0
697 1 0.0859904 0.771485 0
667 1 0.100819 0.730306 0
669 1 0.124271 0.740899 0
668 1 0.104887 0.755963 0
699 1 0.127725 0.766252 0
671 1 0.167332 0.733798 0
670 1 0.147391 0.749257 0
672 1 0.170284 0.758557 0
673 1 0.190816 0.742836 0
674 1 0.215423 0.750611 0
703 1 0.193603 0.76679 0
675 1 0.233964 0.734383 0
705 1 0.237079 0.761424 0
677 1 0.269448 0.73237 0
676 1 0.262953 0.75541 0
679 1 0.310846 0.741775 0
678 1 0.287187 0.748861 0
709 1 0.306909 0.766713 0
707 1 0.282909 0.77334 0
680 1 0.330021 0.758163 0
681 1 0.334202 0.734136 0
682 1 0.353784 0.75108 0
683 1 0.378477 0.743242 0
684 1 0.397276 0.760562 0
685 1 0.402302 0.736227 0
713 1 0.371682 0.768038 0
686 1 0.42479 0.728233 0
715 1 0.421214 0.752861 0
717 1 0.443998 0.745191 0
716 1 0.43924 0.7702 0
718 1 0.463112 0.763409 0
688 1 0.467994 0.737893 0
690 1 0.490589 0.729791 0
719 1 0.486514 0.756751 0
694 1 0.0427474 0.775736 0
693 1 0.0236083 0.791887 0
692 1 0.0262094 0.817149 0
723 1 0.0459975 0.801769 0
696 1 0.0658872 0.786272 0
725 1 0.0694608 0.810734 0
727 1 0.08938 0.796434 0
698 1 0.108581 0.780983 0
728 1 0.112826 0.80518 0
700 1 0.132253 0.790391 0
729 1 0.136139 0.815719 0
701 1 0.150552 0.774152 0
731 1 0.155122 0.800846 0
732 1 0.178445 0.808735 0
702 1 0.173791 0.78369 0
704 1 0.215646 0.775898 0
733 1 0.198152 0.79371 0
734 1 0.22184 0.80534 0
735 1 0.236528 0.787243 0
706 1 0.259457 0.780077 0
736 1 0.253155 0.804919 0
737 1 0.277168 0.79771 0
708 1 0.300278 0.789978 0
738 1 0.295198 0.814246 0
739 1 0.318445 0.807535 0
711 1 0.348031 0.774962 0
710 1 0.324664 0.782965 0
741 1 0.342945 0.799929 0
742 1 0.360594 0.816549 0
712 1 0.365837 0.792324 0
743 1 0.39024 0.784812 0
744 1 0.384277 0.809447 0
745 1 0.409197 0.800829 0
714 1 0.415647 0.777312 0
746 1 0.432904 0.794704 0
748 1 0.450971 0.812241 0
775 1 0.42707 0.818852 0
747 1 0.457522 0.7873 0
1621 1 0.497783 0.814556 0
720 1 0.482295 0.781753 0
749 1 0.474975 0.805303 0
751 1 0.0290975 0.842017 0
1680 1 0.00678568 0.8312 0
722 1 0.0493196 0.82581 0
753 1 0.0538336 0.849669 0
724 1 0.0732437 0.835039 0
754 1 0.0769686 0.859546 0
726 1 0.0927388 0.820643 0
755 1 0.0964981 0.844946 0
756 1 0.119661 0.854719 0
757 1 0.115609 0.830517 0
759 1 0.139091 0.840019 0
730 1 0.15938 0.825035 0
760 1 0.161834 0.850708 0
763 1 0.200919 0.819031 0
761 1 0.180485 0.834923 0
791 1 0.185128 0.861265 0
762 1 0.203775 0.84445 0
764 1 0.222741 0.830406 0
795 1 0.239452 0.852702 0
765 1 0.247048 0.82866 0
766 1 0.264817 0.846092 0
767 1 0.272053 0.821908 0
768 1 0.289103 0.838994 0
769 1 0.31279 0.832464 0
799 1 0.306298 0.856037 0
797 1 0.282452 0.863537 0
770 1 0.330768 0.848605 0
740 1 0.336597 0.823976 0
771 1 0.35471 0.840518 0
772 1 0.37326 0.857819 0
773 1 0.378948 0.833028 0
774 1 0.403249 0.825921 0
803 1 0.396375 0.84917 0
777 1 0.445615 0.836487 0
776 1 0.42168 0.843213 0
778 1 0.441807 0.861701 0
750 1 0.480195 0.831677 0
779 1 0.464062 0.851169 0
780 1 0.488138 0.855674 0
752 1 0.0355792 0.864849 0
782 1 0.0345009 0.889825 0
812 1 0.00724543 0.897949 0
811 1 0.0141773 0.874957 0
783 1 0.0573424 0.874546 0
813 1 0.0587072 0.900767 0
784 1 0.0799099 0.88422 0
785 1 0.0992256 0.869132 0
786 1 0.10282 0.894525 0
787 1 0.122023 0.879499 0
817 1 0.12644 0.905276 0
758 1 0.142349 0.865471 0
788 1 0.146133 0.890467 0
789 1 0.165898 0.876389 0
790 1 0.169167 0.901385 0
792 1 0.189289 0.885754 0
793 1 0.209133 0.869988 0
823 1 0.21193 0.895391 0
794 1 0.23312 0.878 0
796 1 0.258461 0.869841 0
825 1 0.253974 0.893755 0
824 1 0.233844 0.907092 0
827 1 0.276668 0.887967 0
798 1 0.300307 0.880524 0
828 1 0.294117 0.90664 0
829 1 0.318649 0.89704 0
801 1 0.349136 0.86525 0
800 1 0.32428 0.873072 0
831 1 0.343443 0.889669 0
832 1 0.361553 0.906342 0
802 1 0.367078 0.882148 0
804 1 0.391588 0.874461 0
833 1 0.385522 0.897739 0
806 1 0.410878 0.901094 0
805 1 0.415141 0.865762 0
807 1 0.430279 0.885668 0
808 1 0.454263 0.890502 0
809 1 0.47091 0.8735 0
810 1 0.477075 0.897558 0
1681 1 0.494403 0.879886 0
841 1 0.00181717 0.921314 0
842 1 0.017336 0.940391 0
843 1 0.026031 0.914975 0
844 1 0.0412278 0.934779 0
815 1 0.0825909 0.909003 0
814 1 0.0627364 0.924168 0
845 1 0.0841701 0.933474 0
875 1 0.0615252 0.949586 0
816 1 0.104657 0.919482 0
847 1 0.106409 0.944483 0
818 1 0.128094 0.928539 0
848 1 0.130391 0.952895 0
819 1 0.149313 0.915862 0
849 1 0.151269 0.939743 0
820 1 0.172463 0.925662 0
850 1 0.17478 0.950043 0
821 1 0.19193 0.910467 0
851 1 0.194838 0.935686 0
822 1 0.214703 0.920808 0
853 1 0.218538 0.945624 0
855 1 0.239007 0.93115 0
826 1 0.270451 0.914463 0
856 1 0.262705 0.941806 0
857 1 0.288658 0.931307 0
858 1 0.309327 0.946425 0
859 1 0.312681 0.921528 0
830 1 0.336748 0.913232 0
860 1 0.331209 0.936954 0
861 1 0.354135 0.930644 0
863 1 0.377347 0.938286 0
834 1 0.394347 0.920468 0
865 1 0.400877 0.943911 0
837 1 0.436075 0.908502 0
835 1 0.418076 0.92616 0
838 1 0.441862 0.933199 0
836 1 0.425183 0.950965 0
839 1 0.459862 0.915461 0
1741 1 0.49278 0.945759 0
840 1 0.485169 0.921073 0
869 1 0.467429 0.938227 0
872 1 0.0270046 0.981814 0
873 1 0.0350363 0.958755 0
871 1 0.0106432 0.963995 0
1 1 0.00233204 0.98811 0
846 1 0.0856696 0.959684 0
874 1 0.0525032 0.97653 0
5 1 0.0684212 0.995947 0
876 1 0.0898773 0.983445 0
7 1 0.112551 0.991931 0
877 1 0.109593 0.968509 0
878 1 0.133161 0.977966 0
879 1 0.153518 0.964413 0
880 1 0.155117 0.988607 0
881 1 0.176872 0.974901 0
11 1 0.177557 0.999505 0
852 1 0.198176 0.959951 0
882 1 0.199363 0.985143 0
883 1 0.220489 0.970786 0
13 1 0.222578 0.995761 0
854 1 0.242205 0.956753 0
884 1 0.243323 0.982093 0
885 1 0.265436 0.968947 0
886 1 0.266257 0.994321 0
887 1 0.287734 0.956722 0
888 1 0.288793 0.981608 0
19 1 0.311682 0.995303 0
889 1 0.311509 0.971121 0
862 1 0.357989 0.954687 0
890 1 0.336242 0.985401 0
891 1 0.334131 0.961519 0
892 1 0.361555 0.979115 0
864 1 0.381816 0.962922 0
893 1 0.389487 0.985976 0
895 1 0.40705 0.967951 0
867 1 0.449581 0.955602 0
896 1 0.413808 0.991366 0
866 1 0.43178 0.974785 0
897 1 0.438058 0.999254 0
870 1 0.472977 0.961858 0
899 1 0.480943 0.985508 0
1771 1 0.498777 0.969192 0
868 1 0.455995 0.979376 0
1351 1 0.495252 0.500336 0
902 1 0.535986 0.023385 0
931 1 0.518641 0.0421905 0
901 1 0.512514 0.0175192 0
1349 1 0.963427 0.459704 0
904 1 0.56091 0.0298323 0
935 1 0.585511 0.0362859 0
906 1 0.578059 0.0127656 0
905 1 0.554013 0.00538002 0
908 1 0.601918 0.0182803 0
937 1 0.608725 0.0420529 0
939 1 0.626446 0.024194 0
941 1 0.650885 0.0311349 0
912 1 0.668528 0.0127672 0
942 1 0.674558 0.0368429 0
910 1 0.644977 0.00637415 0
944 1 0.693991 0.0173309 0
945 1 0.716829 0.0244875 0
914 1 0.721492 0.000992034 0
947 1 0.739924 0.019241 0
946 1 0.732868 0.0436316 0
948 1 0.756912 0.037147 0
918 1 0.763583 0.0130718 0
919 1 0.789136 0.00892879 0
949 1 0.781748 0.0326458 0
920 1 0.806339 0.0278746 0
1790 1 0.813966 0.00468974 0
922 1 0.830517 0.0226685 0
924 1 0.855389 0.0183946 0
951 1 0.846929 0.0417634 0
451 1 0.996153 0.488002 0
953 1 0.871686 0.0364695 0
955 1 0.879403 0.0131696 0
954 1 0.895771 0.033331 0
925 1 0.903421 0.00877424 0
926 1 0.927849 0.00440928 0
957 1 0.944678 0.0224038 0
956 1 0.918836 0.0281666 0
930 1 0.993971 0.011649 0
959 1 0.969339 0.0162864 0
960 1 0.986868 0.0349464 0
958 1 0.96228 0.0400018 0
933 1 0.542785 0.0468852 0
932 1 0.525641 0.0652383 0
961 1 0.507923 0.0821853 0
962 1 0.532082 0.0894004 0
60 1 0.500216 0.058239 0
963 1 0.54938 0.0706643 0
934 1 0.566553 0.0543857 0
965 1 0.573751 0.0783254 0
936 1 0.591237 0.0597789 0
938 1 0.632775 0.0484483 0
966 1 0.597181 0.0844507 0
967 1 0.615608 0.0661742 0
969 1 0.640172 0.0724866 0
940 1 0.65714 0.0551007 0
970 1 0.664607 0.0798845 0
971 1 0.680539 0.061191 0
975 1 0.697797 0.0427879 0
972 1 0.688082 0.0867646 0
973 1 0.703523 0.0670128 0
974 1 0.727089 0.0685987 0
976 1 0.749895 0.0613054 0
1007 1 0.767134 0.0795681 0
1005 1 0.74466 0.0849723 0
977 1 0.774027 0.0562985 0
979 1 0.798776 0.0517787 0
980 1 0.814487 0.0720778 0
978 1 0.79086 0.0755169 0
950 1 0.822572 0.047101 0
981 1 0.83945 0.0663244 0
982 1 0.85566 0.0853339 0
1011 1 0.831542 0.0899434 0
952 1 0.86358 0.0606064 0
983 1 0.887934 0.0564835 0
984 1 0.879597 0.0804479 0
1015 1 0.904798 0.0750888 0
987 1 0.937055 0.0457658 0
985 1 0.913267 0.0517374 0
986 1 0.930164 0.0694148 0
1018 1 0.946784 0.0884483 0
988 1 0.954255 0.0639918 0
989 1 0.978878 0.058347 0
990 1 0.994905 0.0768559 0
1019 1 0.970754 0.0838465 0
991 1 0.514788 0.10624 0
992 1 0.521022 0.130333 0
993 1 0.538696 0.113143 0
964 1 0.555822 0.0956428 0
994 1 0.562804 0.119696 0
995 1 0.57975 0.102161 0
996 1 0.586394 0.1261 0
968 1 0.621978 0.0898043 0
997 1 0.604234 0.108089 0
998 1 0.627414 0.115375 0
1027 1 0.610241 0.132489 0
999 1 0.645704 0.0970388 0
1000 1 0.652133 0.121985 0
1001 1 0.66959 0.104216 0
1031 1 0.676667 0.129357 0
1003 1 0.713859 0.0914146 0
1002 1 0.693202 0.110488 0
1004 1 0.715703 0.118846 0
1006 1 0.759209 0.104388 0
1035 1 0.735202 0.106216 0
1036 1 0.747474 0.127695 0
1037 1 0.77287 0.124809 0
1009 1 0.807863 0.0951727 0
1008 1 0.783078 0.0991171 0
1039 1 0.797518 0.119283 0
1010 1 0.822265 0.113818 0
1012 1 0.847547 0.109171 0
1041 1 0.837962 0.132427 0
1043 1 0.863839 0.128011 0
1013 1 0.872275 0.104667 0
1014 1 0.896445 0.098584 0
1045 1 0.887513 0.122349 0
1017 1 0.921678 0.0925602 0
1016 1 0.91243 0.116578 0
1047 1 0.929376 0.135438 0
1049 1 0.963024 0.107611 0
1020 1 0.987628 0.101515 0
1050 1 0.979221 0.125588 0
1023 1 0.544977 0.136877 0
1022 1 0.526801 0.154926 0
1051 1 0.509601 0.171762 0
1021 1 0.503205 0.147716 0
1053 1 0.533514 0.178991 0
1024 1 0.550929 0.161506 0
1025 1 0.568908 0.144105 0
1055 1 0.575323 0.168113 0
1026 1 0.594199 0.150961 0
1029 1 0.634295 0.140065 0
1028 1 0.617128 0.157678 0
1057 1 0.599844 0.17498 0
1058 1 0.624181 0.18142 0
1059 1 0.641648 0.162898 0
1030 1 0.658953 0.145643 0
1061 1 0.665595 0.170542 0
1033 1 0.699735 0.136138 0
1032 1 0.68278 0.154308 0
1063 1 0.709548 0.159097 0
1062 1 0.691478 0.177121 0
1034 1 0.726226 0.141118 0
1065 1 0.734316 0.165913 0
1067 1 0.76502 0.147639 0
1066 1 0.758464 0.173279 0
1040 1 0.815082 0.137943 0
1038 1 0.790056 0.143347 0
1069 1 0.805771 0.161821 0
1068 1 0.781868 0.167416 0
1071 1 0.829822 0.156069 0
1042 1 0.854813 0.15045 0
1072 1 0.846205 0.174047 0
1070 1 0.822162 0.179801 0
1044 1 0.880139 0.147097 0
1075 1 0.896726 0.165418 0
1073 1 0.871172 0.170463 0
1046 1 0.904525 0.139972 0
1048 1 0.945479 0.153774 0
1077 1 0.9211 0.159969 0
1079 1 0.971053 0.148298 0
1080 1 0.987031 0.167222 0
151 1 0.996318 0.143617 0
1078 1 0.962224 0.172954 0
1052 1 0.515642 0.197107 0
1082 1 0.522906 0.221284 0
1083 1 0.540157 0.202985 0
1054 1 0.557481 0.185837 0
1056 1 0.582015 0.191763 0
1085 1 0.56485 0.20947 0
1086 1 0.589223 0.215563 0
1087 1 0.606597 0.199093 0
1088 1 0.613804 0.222414 0
1089 1 0.631202 0.205486 0
1060 1 0.649158 0.187627 0
1091 1 0.673791 0.194368 0
1090 1 0.654419 0.211361 0
1092 1 0.679428 0.21858 0
1064 1 0.71635 0.182811 0
1093 1 0.697402 0.201006 0
1094 1 0.722481 0.206269 0
1123 1 0.704141 0.225069 0
1095 1 0.740659 0.189443 0
1096 1 0.74674 0.212829 0
1127 1 0.770124 0.220917 0
1097 1 0.7665 0.196494 0
1099 1 0.798379 0.185765 0
1098 1 0.789542 0.20795 0
1100 1 0.815207 0.204711 0
1101 1 0.839141 0.198958 0
1102 1 0.855028 0.217849 0
1131 1 0.830631 0.223254 0
1103 1 0.863526 0.194438 0
1074 1 0.888272 0.188898 0
1105 1 0.904724 0.207583 0
1104 1 0.880374 0.213298 0
1076 1 0.912389 0.183865 0
1107 1 0.92914 0.201332 0
1108 1 0.947514 0.220254 0
1106 1 0.921976 0.224982 0
1109 1 0.978841 0.191039 0
1110 1 0.97197 0.214835 0
211 1 0.995722 0.208608 0
1111 1 0.506406 0.239464 0
1113 1 0.53022 0.245043 0
1112 1 0.513469 0.263295 0
1143 1 0.536945 0.269726 0
1084 1 0.547628 0.226726 0
1114 1 0.554798 0.252543 0
1115 1 0.572567 0.234652 0
1116 1 0.578929 0.258482 0
1117 1 0.596833 0.240027 0
1118 1 0.619689 0.246945 0
1147 1 0.601935 0.264749 0
1149 1 0.626879 0.270217 0
1119 1 0.637807 0.229311 0
1121 1 0.661515 0.235875 0
1120 1 0.644139 0.253156 0
1151 1 0.668894 0.259385 0
1122 1 0.68618 0.243281 0
1124 1 0.710684 0.248386 0
1153 1 0.693352 0.266012 0
1125 1 0.727756 0.23039 0
1126 1 0.751765 0.237608 0
1155 1 0.73448 0.255532 0
1157 1 0.76015 0.263255 0
1129 1 0.806454 0.227962 0
1128 1 0.776748 0.243762 0
1159 1 0.799884 0.252343 0
1158 1 0.783838 0.269721 0
1130 1 0.823793 0.247449 0
1132 1 0.848131 0.242585 0
1161 1 0.840047 0.266765 0
1163 1 0.866191 0.260943 0
1135 1 0.897433 0.230618 0
1133 1 0.873459 0.236449 0
1134 1 0.890136 0.255362 0
1136 1 0.915078 0.248622 0
1137 1 0.93949 0.244275 0