ITEM: TIMESTEP
96000
ITEM: NUMBER OF ATOMS
1800
ITEM: BOX BOUNDS pp pp pp
1.1680768539885378e+00 1.6383192314601143e+02
1.1680768539885378e+00 1.6383192314601143e+02
0.0000000000000000e+00 5.5000000000000000e+00
ITEM: ATOMS id type xs ys zs
2 1 0.0126516 0.016814 0
3 1 0.0369643 0.00979913 0
33 1 0.0303234 0.0346784 0
31 1 0.00591832 0.0418781 0
4 1 0.0540809 0.0288975 0
6 1 0.0776833 0.0226032 0
5 1 0.0603645 0.00484395 0
8 1 0.10228 0.0156295 0
37 1 0.0952511 0.0400817 0
9 1 0.126321 0.00916753 0
39 1 0.119972 0.0340369 0
10 1 0.144072 0.027564 0
12 1 0.167441 0.0210453 0
11 1 0.149931 0.00266719 0
41 1 0.184992 0.0388796 0
14 1 0.210105 0.0339536 0
15 1 0.215252 0.0095744 0
13 1 0.192184 0.0152807 0
16 1 0.255684 0.0210739 0
886 1 0.238624 0.00340158 0
47 1 0.272933 0.0386006 0
18 1 0.27966 0.013986 0
49 1 0.296825 0.0315659 0
19 1 0.302817 0.00651853 0
20 1 0.320304 0.0230309 0
51 1 0.338508 0.0405049 0
21 1 0.345547 0.0166592 0
22 1 0.363447 0.0343858 0
890 1 0.326345 0.000265534 0
24 1 0.388414 0.026625 0
23 1 0.369079 0.0108976 0
894 1 0.39304 0.0020077 0
25 1 0.413965 0.0204914 0
26 1 0.431976 0.0392371 0
27 1 0.448885 0.0218982 0
29 1 0.473123 0.0277427 0
900 1 0.489139 0.00916294 0
898 1 0.464764 0.00324586 0
30 1 0.497098 0.0326688 0
32 1 0.0227905 0.059356 0
62 1 0.0160947 0.0838379 0
63 1 0.0413521 0.0772152 0
35 1 0.0714702 0.0470934 0
34 1 0.0468619 0.0529787 0
65 1 0.0651771 0.0709774 0
66 1 0.0820892 0.0883908 0
36 1 0.0888968 0.064517 0
38 1 0.112597 0.057485 0
67 1 0.106275 0.0829576 0
68 1 0.130358 0.0766834 0
69 1 0.136924 0.0522591 0
40 1 0.161079 0.0453561 0
71 1 0.15385 0.0698513 0
42 1 0.178209 0.0629131 0
72 1 0.172145 0.0880668 0
43 1 0.202454 0.0579106 0
44 1 0.220592 0.0769868 0
73 1 0.196024 0.0818399 0
45 1 0.226003 0.0537827 0
46 1 0.249752 0.0452198 0
75 1 0.244576 0.0701999 0
77 1 0.267338 0.06337 0
76 1 0.262197 0.0885752 0
48 1 0.290661 0.0550715 0
79 1 0.308207 0.0730903 0
78 1 0.286143 0.0822456 0
50 1 0.314945 0.0480991 0
81 1 0.331533 0.0655124 0
52 1 0.355099 0.0579543 0
82 1 0.350422 0.0823905 0
80 1 0.325111 0.0908258 0
55 1 0.407203 0.0460559 0
53 1 0.381726 0.0502123 0
83 1 0.373907 0.0729156 0
54 1 0.398264 0.0693308 0
57 1 0.43937 0.0640044 0
56 1 0.421523 0.0807464 0
87 1 0.447474 0.0878004 0
28 1 0.455511 0.0453588 0
59 1 0.480497 0.0512392 0
58 1 0.463495 0.0689435 0
89 1 0.487667 0.0739939 0
92 1 0.0253539 0.126037 0
93 1 0.0338961 0.101902 0
91 1 0.00920589 0.107528 0
121 1 0.000794157 0.13126 0
64 1 0.0580195 0.0956978 0
94 1 0.0511611 0.119473 0
95 1 0.0747193 0.113633 0
96 1 0.0924241 0.131293 0
97 1 0.0989401 0.10671 0
98 1 0.116596 0.124848 0
99 1 0.123012 0.100446 0
70 1 0.148538 0.0946097 0
100 1 0.141395 0.118229 0
101 1 0.165664 0.111878 0
130 1 0.157902 0.136392 0
103 1 0.189861 0.105709 0
102 1 0.198319 0.128117 0
105 1 0.214578 0.103562 0
74 1 0.238205 0.0937678 0
106 1 0.237611 0.117721 0
137 1 0.261701 0.124106 0
109 1 0.302882 0.101432 0
107 1 0.278957 0.106553 0
108 1 0.285743 0.131712 0
110 1 0.324047 0.118635 0
111 1 0.344499 0.106302 0
141 1 0.348635 0.129674 0
84 1 0.384936 0.0941973 0
113 1 0.367762 0.111865 0
112 1 0.390512 0.118594 0
85 1 0.40788 0.0999113 0
143 1 0.373053 0.135534 0
115 1 0.415248 0.124499 0
86 1 0.431417 0.106166 0
116 1 0.438795 0.130138 0
117 1 0.455101 0.112676 0
88 1 0.471762 0.0929871 0
119 1 0.480217 0.116748 0
90 1 0.49655 0.0986395 0
118 1 0.462882 0.135535 0
122 1 0.0186534 0.149107 0
153 1 0.0365728 0.167463 0
152 1 0.0115141 0.173561 0
123 1 0.0428822 0.143211 0
125 1 0.0672125 0.13858 0
124 1 0.0612605 0.161325 0
126 1 0.0853821 0.15676 0
155 1 0.078033 0.181079 0
127 1 0.109737 0.149226 0
128 1 0.125164 0.167218 0
157 1 0.101914 0.176391 0
129 1 0.134284 0.143926 0
159 1 0.16204 0.16162 0
131 1 0.180918 0.145389 0
160 1 0.145346 0.179562 0
104 1 0.221978 0.13654 0
132 1 0.186251 0.170074 0
133 1 0.20434 0.15288 0
163 1 0.209844 0.177494 0
134 1 0.227714 0.160136 0
135 1 0.244933 0.142766 0
136 1 0.267458 0.150306 0
165 1 0.251166 0.167876 0
167 1 0.273903 0.175079 0
139 1 0.310038 0.138576 0
138 1 0.291075 0.156776 0
169 1 0.314339 0.164141 0
168 1 0.29762 0.182073 0
140 1 0.332606 0.147504 0
142 1 0.357096 0.153392 0
171 1 0.338561 0.171123 0
172 1 0.362684 0.177572 0
114 1 0.398323 0.141946 0
144 1 0.404798 0.166138 0
173 1 0.381092 0.159364 0
145 1 0.422291 0.147758 0
146 1 0.428716 0.172144 0
147 1 0.446389 0.154356 0
177 1 0.453547 0.178452 0
149 1 0.487118 0.140093 0
148 1 0.469928 0.160161 0
150 1 0.493957 0.164515 0
183 1 0.028441 0.191409 0
182 1 0.0213506 0.215115 0
181 1 0.00424529 0.197608 0
184 1 0.0454662 0.209111 0
154 1 0.0537105 0.185935 0
185 1 0.0716808 0.204738 0
215 1 0.062193 0.226932 0
186 1 0.0870797 0.226078 0
156 1 0.0969365 0.200762 0
158 1 0.12236 0.192884 0
187 1 0.127668 0.218465 0
161 1 0.168006 0.186636 0
189 1 0.14838 0.203581 0
191 1 0.171582 0.211683 0
162 1 0.191362 0.195596 0
193 1 0.214957 0.202081 0
192 1 0.195338 0.218904 0
194 1 0.219771 0.225854 0
164 1 0.233436 0.184998 0
195 1 0.238952 0.20865 0
166 1 0.256926 0.19267 0
196 1 0.263356 0.216314 0
197 1 0.28046 0.199044 0
199 1 0.304487 0.206331 0
198 1 0.287035 0.223254 0
170 1 0.321626 0.188839 0
201 1 0.346104 0.196053 0
200 1 0.32749 0.21329 0
202 1 0.351917 0.219687 0
174 1 0.387576 0.18459 0
203 1 0.369336 0.202256 0
233 1 0.375938 0.226609 0
204 1 0.393079 0.20856 0
175 1 0.41096 0.189885 0
205 1 0.417056 0.21388 0
176 1 0.435215 0.196349 0
207 1 0.44173 0.220285 0
179 1 0.476679 0.184395 0
178 1 0.459373 0.202628 0
209 1 0.483854 0.208096 0
208 1 0.466841 0.226482 0
212 1 0.0268996 0.257365 0
211 1 0.0131792 0.237381 0
213 1 0.038789 0.234449 0
241 1 0.00605415 0.271101 0
243 1 0.049994 0.265895 0
214 1 0.0680652 0.249396 0
216 1 0.0928067 0.253698 0
217 1 0.110862 0.236671 0
218 1 0.115602 0.261942 0
188 1 0.134764 0.243978 0
190 1 0.153203 0.227721 0
219 1 0.140419 0.269076 0
221 1 0.177644 0.235635 0
220 1 0.158949 0.252323 0
222 1 0.183458 0.260053 0
223 1 0.201654 0.242928 0
253 1 0.207076 0.267004 0
224 1 0.22543 0.250353 0
225 1 0.243731 0.232343 0
227 1 0.268091 0.240444 0
226 1 0.249494 0.25739 0
257 1 0.273239 0.264805 0
229 1 0.310539 0.23152 0
228 1 0.291396 0.247552 0
259 1 0.29646 0.271973 0
230 1 0.316109 0.255071 0
231 1 0.334291 0.237447 0
232 1 0.357682 0.244101 0
261 1 0.340575 0.261192 0
263 1 0.36426 0.268481 0
235 1 0.400096 0.232762 0
234 1 0.382348 0.2504 0
265 1 0.405938 0.256482 0
206 1 0.425318 0.23906 0
237 1 0.4487 0.244036 0
236 1 0.430883 0.26335 0
238 1 0.454484 0.268299 0
210 1 0.491418 0.231948 0
239 1 0.472802 0.249964 0
240 1 0.496855 0.255418 0
242 1 0.030058 0.28155 0
273 1 0.0357615 0.306777 0
271 1 0.0117297 0.297326 0
245 1 0.0730218 0.273449 0
244 1 0.0543188 0.289672 0
246 1 0.0785451 0.298171 0
275 1 0.0595411 0.314453 0
247 1 0.0965165 0.27953 0
249 1 0.121686 0.28625 0
248 1 0.103546 0.304113 0
279 1 0.127552 0.311247 0
251 1 0.164458 0.277213 0
250 1 0.145798 0.29463 0
281 1 0.169967 0.3015 0
252 1 0.188958 0.283729 0
254 1 0.21326 0.29123 0
283 1 0.194838 0.307989 0
284 1 0.218455 0.315607 0
255 1 0.231186 0.274309 0
256 1 0.255234 0.281605 0
285 1 0.236649 0.298698 0
287 1 0.260856 0.306866 0
258 1 0.279514 0.28902 0
288 1 0.284755 0.313191 0
289 1 0.303782 0.296197 0
260 1 0.321386 0.278994 0
262 1 0.345285 0.285898 0
291 1 0.326798 0.303121 0
292 1 0.3521 0.310137 0
264 1 0.388522 0.274358 0
293 1 0.370207 0.292143 0
295 1 0.394522 0.298141 0
294 1 0.377629 0.315383 0
266 1 0.412664 0.280958 0
267 1 0.437449 0.287059 0
297 1 0.419818 0.304843 0
298 1 0.444308 0.310703 0
269 1 0.479018 0.273559 0
268 1 0.461529 0.291884 0
270 1 0.486276 0.297443 0
299 1 0.469025 0.317239 0
1200 1 0.01695 0.323732 0
272 1 0.0412846 0.330958 0
301 1 0.0227508 0.347908 0
276 1 0.0843191 0.321809 0
303 1 0.0473542 0.354745 0
274 1 0.0656619 0.338146 0
304 1 0.0718562 0.362919 0
305 1 0.0905671 0.345845 0
277 1 0.109555 0.328569 0
278 1 0.133312 0.335245 0
307 1 0.114759 0.352436 0
280 1 0.151948 0.318337 0
282 1 0.176145 0.325019 0
309 1 0.139791 0.360216 0
311 1 0.157736 0.342515 0
312 1 0.180646 0.349492 0
313 1 0.200064 0.332474 0
314 1 0.205794 0.356821 0
315 1 0.224336 0.339431 0
286 1 0.242239 0.323097 0
317 1 0.266177 0.330745 0
316 1 0.248231 0.346477 0
290 1 0.309848 0.320183 0
318 1 0.273307 0.35408 0
319 1 0.291507 0.336845 0
349 1 0.297106 0.360973 0
320 1 0.315617 0.34429 0
321 1 0.333888 0.327575 0
323 1 0.359602 0.333644 0
322 1 0.34109 0.350836 0
324 1 0.365824 0.356814 0
296 1 0.402157 0.322344 0
325 1 0.384155 0.339493 0
355 1 0.390577 0.365158 0
326 1 0.408034 0.346766 0
327 1 0.426546 0.328783 0
328 1 0.432294 0.352783 0
329 1 0.450989 0.334082 0
1201 1 0.500265 0.34561 0
359 1 0.457098 0.3584 0
300 1 0.493072 0.321522 0
330 1 0.476206 0.340121 0
1230 1 0.0053066 0.364644 0
302 1 0.02969 0.371786 0
332 1 0.0342831 0.396575 0
331 1 0.0114871 0.388311 0
333 1 0.0527532 0.379399 0
335 1 0.0780179 0.387358 0
334 1 0.0595973 0.40361 0
306 1 0.0966988 0.369835 0
308 1 0.12122 0.377542 0
337 1 0.103205 0.395299 0
338 1 0.126826 0.402823 0
310 1 0.162983 0.367465 0
339 1 0.145245 0.385276 0
341 1 0.169724 0.392157 0
340 1 0.151587 0.410403 0
343 1 0.188168 0.373554 0
342 1 0.195004 0.397396 0
344 1 0.212069 0.380666 0
373 1 0.218345 0.405228 0
345 1 0.230641 0.363704 0
347 1 0.255398 0.370086 0
346 1 0.236459 0.388668 0
377 1 0.260726 0.394696 0
348 1 0.279887 0.378701 0
350 1 0.304313 0.385536 0
378 1 0.286078 0.402542 0
351 1 0.322893 0.368243 0
381 1 0.329016 0.392058 0
353 1 0.348031 0.375048 0
352 1 0.35382 0.398205 0
354 1 0.372908 0.381076 0
385 1 0.378603 0.405786 0
356 1 0.397587 0.388728 0
387 1 0.422653 0.394713 0
357 1 0.415065 0.370431 0
358 1 0.439577 0.377026 0
388 1 0.446197 0.401102 0
360 1 0.481341 0.36462 0
389 1 0.464314 0.381992 0
1232 1 0.488512 0.3892 0
1261 1 0.470923 0.406595 0
361 1 0.0164211 0.413995 0
362 1 0.0232103 0.437555 0
363 1 0.040691 0.420774 0
392 1 0.0044637 0.453912 0
336 1 0.0842183 0.411469 0
364 1 0.0474474 0.445454 0
365 1 0.0642362 0.428027 0
395 1 0.0708389 0.451485 0
366 1 0.090051 0.43525 0
367 1 0.107976 0.41882 0
368 1 0.11341 0.443631 0
369 1 0.132951 0.426907 0
371 1 0.176045 0.415995 0
399 1 0.138209 0.451434 0
370 1 0.158282 0.433902 0
401 1 0.182587 0.440802 0
372 1 0.199733 0.423526 0
403 1 0.206179 0.447825 0
374 1 0.224719 0.43042 0
375 1 0.244395 0.412558 0
376 1 0.267653 0.419111 0
405 1 0.248741 0.4362 0
379 1 0.311112 0.410155 0
407 1 0.272922 0.443323 0
409 1 0.292115 0.425784 0
410 1 0.297281 0.449523 0
380 1 0.317041 0.43397 0
382 1 0.335693 0.416965 0
383 1 0.359836 0.422801 0
413 1 0.341347 0.441074 0
386 1 0.403133 0.413133 0
384 1 0.384163 0.429951 0
414 1 0.366322 0.447635 0
417 1 0.408485 0.437804 0
418 1 0.432505 0.443538 0
419 1 0.426454 0.418736 0
390 1 0.4513 0.42522 0
1321 1 0.481956 0.45594 0
420 1 0.457549 0.449334 0
1262 1 0.495229 0.413397 0
1291 1 0.475894 0.431315 0
393 1 0.0287334 0.461659 0
422 1 0.0104981 0.477746 0
423 1 0.0348188 0.486487 0
394 1 0.0529302 0.469834 0
396 1 0.0765367 0.475252 0
425 1 0.0593384 0.493904 0
397 1 0.0954141 0.459907 0
398 1 0.119688 0.467725 0
427 1 0.100981 0.484019 0
428 1 0.124924 0.492158 0
400 1 0.162855 0.458227 0
429 1 0.144543 0.47527 0
431 1 0.168628 0.482474 0
430 1 0.149572 0.499841 0
402 1 0.187912 0.465743 0
432 1 0.192949 0.490493 0
433 1 0.211278 0.472607 0
434 1 0.217296 0.497748 0
404 1 0.230154 0.454905 0
406 1 0.254778 0.459895 0
435 1 0.235742 0.480005 0
436 1 0.260308 0.483486 0
408 1 0.279177 0.46677 0
439 1 0.284803 0.490274 0
440 1 0.308824 0.498149 0
441 1 0.303373 0.473463 0
411 1 0.322998 0.45782 0
412 1 0.34868 0.464994 0
442 1 0.329338 0.481844 0
473 1 0.353398 0.488934 0
415 1 0.390367 0.45503 0
443 1 0.372925 0.4733 0
445 1 0.397449 0.480525 0
444 1 0.377318 0.499283 0
446 1 0.421287 0.487041 0
416 1 0.414747 0.461746 0
447 1 0.439231 0.46925 0
448 1 0.445757 0.494141 0
449 1 0.465907 0.473219 0
450 1 0.489971 0.479278 0
479 1 0.471474 0.497418 0
454 1 0.0218119 0.52755 0
453 1 0.0161376 0.502436 0
424 1 0.0394298 0.510536 0
483 1 0.0036707 0.544587 0
485 1 0.0455716 0.535266 0
455 1 0.0638509 0.518285 0
426 1 0.0825839 0.500422 0
486 1 0.0688604 0.542918 0
456 1 0.0875704 0.525009 0
457 1 0.106458 0.508716 0
459 1 0.129708 0.516891 0
458 1 0.111248 0.533925 0
489 1 0.135405 0.541487 0
460 1 0.153983 0.52489 0
461 1 0.174601 0.507729 0
462 1 0.180909 0.53195 0
493 1 0.204248 0.541687 0
463 1 0.198762 0.515125 0
464 1 0.222583 0.523692 0
466 1 0.247496 0.531181 0
465 1 0.241428 0.506413 0
437 1 0.266196 0.506225 0
467 1 0.272386 0.528875 0
468 1 0.294733 0.537354 0
438 1 0.290333 0.513663 0
469 1 0.313942 0.521962 0
470 1 0.337252 0.530371 0
472 1 0.356716 0.514031 0
471 1 0.332603 0.506261 0
503 1 0.361639 0.538798 0
474 1 0.380723 0.523168 0
475 1 0.40256 0.505484 0
476 1 0.405286 0.530985 0
477 1 0.42726 0.514071 0
507 1 0.427054 0.544705 0
478 1 0.453607 0.517623 0
480 1 0.466213 0.53896 0
1381 1 0.481903 0.520551 0
1351 1 0.498303 0.502335 0
510 1 0.490014 0.545011 0
482 1 0.0096702 0.569119 0
513 1 0.0277385 0.55166 0
514 1 0.0333454 0.576255 0
484 1 0.0513526 0.559845 0
515 1 0.0753341 0.567815 0
545 1 0.057039 0.585449 0
487 1 0.0924726 0.550748 0
488 1 0.117277 0.559449 0
517 1 0.099042 0.575179 0
519 1 0.122021 0.583992 0
491 1 0.161372 0.548102 0
490 1 0.14243 0.5654 0
520 1 0.146125 0.589427 0
521 1 0.165957 0.572531 0
492 1 0.185338 0.557198 0
523 1 0.188875 0.58166 0
494 1 0.209124 0.56697 0
495 1 0.228892 0.549355 0
525 1 0.232749 0.576256 0
496 1 0.252774 0.561718 0
526 1 0.256952 0.587737 0
497 1 0.275363 0.552633 0
527 1 0.278256 0.57568 0
498 1 0.298156 0.560835 0
529 1 0.300942 0.585721 0
499 1 0.316848 0.545786 0
500 1 0.320955 0.570404 0
501 1 0.341165 0.553715 0
531 1 0.34333 0.579028 0
502 1 0.363449 0.562681 0
505 1 0.384387 0.547056 0
504 1 0.386106 0.572764 0
533 1 0.365547 0.587952 0
506 1 0.406208 0.557691 0
535 1 0.408611 0.58271 0
508 1 0.428605 0.569145 0
509 1 0.448983 0.557132 0
539 1 0.455335 0.580898 0
540 1 0.473308 0.562676 0
1441 1 0.497131 0.568889 0
569 1 0.4802 0.586035 0
512 1 0.0150938 0.593286 0
542 1 0.0201955 0.618199 0
543 1 0.038562 0.602143 0
544 1 0.0437653 0.627546 0
571 1 0.00117276 0.634342 0
546 1 0.0631026 0.611119 0
516 1 0.0811267 0.593154 0
547 1 0.0862811 0.619194 0
518 1 0.103032 0.600373 0
548 1 0.126155 0.60928 0
577 1 0.111932 0.633234 0
522 1 0.170133 0.597559 0
549 1 0.150775 0.612474 0
551 1 0.173809 0.621902 0
524 1 0.21343 0.591873 0
553 1 0.193135 0.606828 0
552 1 0.19639 0.632969 0
554 1 0.215614 0.616598 0
555 1 0.236924 0.602981 0
556 1 0.239293 0.627646 0
557 1 0.260715 0.613392 0
528 1 0.281227 0.599695 0
559 1 0.304203 0.609713 0
558 1 0.282752 0.623756 0
560 1 0.304609 0.634435 0
530 1 0.324965 0.594706 0
561 1 0.326713 0.619859 0
532 1 0.346857 0.604331 0
562 1 0.350223 0.629847 0
563 1 0.368941 0.613621 0
534 1 0.388261 0.598248 0
565 1 0.39127 0.623106 0
536 1 0.410326 0.607113 0
537 1 0.432515 0.593825 0
567 1 0.431729 0.618085 0
568 1 0.453322 0.626441 0
566 1 0.4133 0.634144 0
538 1 0.463325 0.60393 0
570 1 0.488221 0.611008 0
600 1 0.475755 0.632833 0
573 1 0.024341 0.643186 0
603 1 0.0280457 0.668396 0
572 1 0.00461787 0.658553 0
575 1 0.0676859 0.635973 0
574 1 0.0481826 0.652539 0
604 1 0.0505345 0.678394 0
605 1 0.0710023 0.661594 0
576 1 0.0901059 0.646095 0
607 1 0.0912183 0.675583 0
578 1 0.110534 0.660086 0
579 1 0.133063 0.648788 0
609 1 0.134437 0.674063 0
550 1 0.154102 0.636053 0
581 1 0.175294 0.646519 0
580 1 0.155746 0.660312 0
611 1 0.177773 0.67105 0
583 1 0.21957 0.642727 0
582 1 0.199074 0.656895 0
584 1 0.221384 0.667051 0
613 1 0.20065 0.682484 0
587 1 0.261592 0.638895 0
585 1 0.241738 0.653287 0
586 1 0.26397 0.66337 0
615 1 0.244515 0.678431 0
589 1 0.284325 0.648683 0
588 1 0.287214 0.673274 0
590 1 0.307659 0.659585 0
591 1 0.328911 0.64422 0
593 1 0.351129 0.655074 0
621 1 0.332276 0.669594 0
592 1 0.354726 0.680213 0
564 1 0.371706 0.640007 0
594 1 0.374707 0.664523 0
595 1 0.394345 0.649742 0
625 1 0.398506 0.675339 0
596 1 0.416408 0.658837 0
597 1 0.435738 0.643506 0
598 1 0.439717 0.667765 0
599 1 0.459 0.651188 0
629 1 0.483093 0.656366 0
628 1 0.463953 0.675632 0
630 1 0.489729 0.680702 0
1501 1 0.499436 0.636741 0
602 1 0.00765215 0.68315 0
633 1 0.0299384 0.693834 0
632 1 0.00902217 0.708268 0
634 1 0.0311097 0.718269 0
606 1 0.072004 0.689331 0
635 1 0.0519381 0.703983 0
636 1 0.0733233 0.715998 0
637 1 0.0938233 0.701709 0
608 1 0.113783 0.686759 0
638 1 0.115823 0.712468 0
639 1 0.136202 0.698541 0
667 1 0.0954062 0.727058 0
640 1 0.138025 0.724046 0
610 1 0.157437 0.684168 0
641 1 0.159121 0.709111 0
612 1 0.179499 0.696056 0
642 1 0.18143 0.720694 0
614 1 0.223569 0.692094 0
643 1 0.202437 0.70726 0
645 1 0.224769 0.716792 0
617 1 0.26662 0.689101 0
616 1 0.246087 0.703326 0
647 1 0.268577 0.713788 0
619 1 0.311235 0.683375 0
618 1 0.28969 0.697772 0
620 1 0.314009 0.708189 0
649 1 0.290386 0.722608 0
622 1 0.334476 0.694606 0
651 1 0.335839 0.720529 0
653 1 0.357203 0.707292 0
623 1 0.377251 0.691651 0
624 1 0.3816 0.718042 0
626 1 0.400936 0.698594 0
655 1 0.406452 0.72183 0
627 1 0.42238 0.684965 0
657 1 0.445652 0.693048 0
656 1 0.428337 0.710672 0
658 1 0.452397 0.717659 0
659 1 0.470275 0.698604 0
1531 1 0.496941 0.704367 0
660 1 0.479664 0.721027 0
662 1 0.0103427 0.757038 0
663 1 0.0107042 0.732964 0
664 1 0.0322246 0.743782 0
694 1 0.0330132 0.769738 0
665 1 0.0526852 0.729396 0
666 1 0.0742506 0.740895 0
695 1 0.0533028 0.755183 0
697 1 0.0754727 0.767041 0
669 1 0.116947 0.737527 0
668 1 0.0961437 0.752588 0
699 1 0.118831 0.763063 0
670 1 0.140327 0.748367 0
671 1 0.161141 0.735437 0
672 1 0.162761 0.760103 0
673 1 0.184286 0.745122 0
644 1 0.205079 0.731472 0
674 1 0.205818 0.755807 0
703 1 0.185695 0.770649 0
646 1 0.2476 0.728317 0
675 1 0.226963 0.742552 0
705 1 0.227148 0.766759 0
677 1 0.250585 0.752964 0
648 1 0.271238 0.738331 0
678 1 0.272065 0.766565 0
650 1 0.313475 0.732152 0
679 1 0.293387 0.748581 0
681 1 0.316318 0.755334 0
652 1 0.338298 0.745327 0
682 1 0.335158 0.770339 0
683 1 0.357688 0.760978 0
654 1 0.359233 0.731954 0
685 1 0.379754 0.750857 0
715 1 0.399773 0.769204 0
686 1 0.403777 0.744963 0
687 1 0.434329 0.735596 0
717 1 0.422811 0.759618 0
688 1 0.446685 0.758492 0
689 1 0.462452 0.740482 0
690 1 0.488004 0.744617 0
719 1 0.471506 0.764469 0
1591 1 0.495695 0.76937 0
693 1 0.0127387 0.783429 0
692 1 0.0123074 0.808288 0
723 1 0.0339672 0.794543 0
696 1 0.054959 0.781487 0
725 1 0.0563245 0.805597 0
727 1 0.0782906 0.79085 0
726 1 0.0792271 0.816199 0
698 1 0.0988135 0.777169 0
728 1 0.100316 0.801513 0
729 1 0.12263 0.812835 0
700 1 0.12135 0.787927 0
701 1 0.141397 0.773685 0
702 1 0.164827 0.784714 0
731 1 0.143935 0.800023 0
732 1 0.166023 0.810261 0
704 1 0.208393 0.782244 0
733 1 0.18772 0.796251 0
735 1 0.209983 0.808022 0
706 1 0.232757 0.795999 0
676 1 0.249035 0.777311 0
737 1 0.256627 0.817037 0
707 1 0.265149 0.79482 0
680 1 0.311396 0.778368 0
709 1 0.288147 0.785644 0
708 1 0.28363 0.810804 0
710 1 0.306473 0.80252 0
711 1 0.330317 0.794826 0
712 1 0.34893 0.810595 0
713 1 0.353237 0.786236 0
684 1 0.376094 0.777736 0
714 1 0.394775 0.793734 0
743 1 0.371868 0.802009 0
716 1 0.419072 0.784107 0
747 1 0.43655 0.801401 0
746 1 0.413425 0.809837 0
718 1 0.453854 0.782571 0
720 1 0.478993 0.78807 0
749 1 0.462092 0.806323 0
1621 1 0.488136 0.811373 0
722 1 0.0365583 0.819265 0
751 1 0.0171027 0.832881 0
752 1 0.0138526 0.8581 0
753 1 0.0371142 0.847751 0
724 1 0.0586399 0.831507 0
755 1 0.0811391 0.841563 0
754 1 0.0596631 0.85642 0
756 1 0.103444 0.852879 0
757 1 0.101492 0.826984 0
759 1 0.124478 0.838254 0
730 1 0.143908 0.824232 0
760 1 0.14656 0.849557 0
761 1 0.165634 0.8342 0
791 1 0.168486 0.860085 0
763 1 0.188559 0.820448 0
734 1 0.210062 0.833066 0
762 1 0.186885 0.843864 0
764 1 0.204957 0.85868 0
736 1 0.232803 0.821661 0
767 1 0.25297 0.841051 0
765 1 0.229066 0.848674 0
768 1 0.271264 0.858521 0
739 1 0.301501 0.826735 0
738 1 0.276248 0.833677 0
769 1 0.294881 0.850129 0
741 1 0.325663 0.819009 0
740 1 0.319365 0.843048 0
771 1 0.33817 0.859763 0
742 1 0.343692 0.836083 0
773 1 0.362095 0.851428 0
745 1 0.390358 0.818935 0
744 1 0.367295 0.826981 0
774 1 0.385436 0.843245 0
775 1 0.409001 0.834623 0
777 1 0.431192 0.844314 0
748 1 0.446451 0.824457 0
776 1 0.412486 0.86227 0
750 1 0.47205 0.830076 0
779 1 0.455842 0.848927 0
780 1 0.481334 0.853659 0
1651 1 0.497532 0.83437 0
812 1 0.0006258 0.905733 0
783 1 0.0333158 0.875058 0
782 1 0.00862054 0.88163 0
813 1 0.025623 0.900192 0
785 1 0.0821906 0.86671 0
784 1 0.0595109 0.881998 0
786 1 0.0833252 0.891874 0
758 1 0.12639 0.863622 0
787 1 0.104701 0.87753 0
788 1 0.12766 0.888598 0
817 1 0.10618 0.901959 0
789 1 0.148816 0.874842 0
819 1 0.150103 0.899928 0
790 1 0.171662 0.887118 0
792 1 0.196547 0.882502 0
793 1 0.216371 0.896822 0
823 1 0.189316 0.906945 0
795 1 0.223903 0.873819 0
766 1 0.247577 0.864891 0
796 1 0.24243 0.889956 0
827 1 0.260611 0.906997 0
797 1 0.265896 0.882774 0
799 1 0.288997 0.87448 0
798 1 0.284399 0.899264 0
800 1 0.308844 0.89156 0
770 1 0.31365 0.867029 0
801 1 0.33243 0.884382 0
802 1 0.350611 0.900548 0
772 1 0.356552 0.875871 0
831 1 0.32741 0.908101 0
803 1 0.381325 0.867233 0
805 1 0.399601 0.884786 0
804 1 0.374987 0.892362 0
778 1 0.439096 0.868181 0
807 1 0.423011 0.887635 0
808 1 0.448411 0.892385 0
809 1 0.463323 0.872689 0
1681 1 0.489718 0.877095 0
810 1 0.473683 0.895205 0
1711 1 0.498532 0.901281 0
842 1 0.0104785 0.949193 0
843 1 0.0173384 0.924223 0
844 1 0.0337479 0.942697 0
814 1 0.0419488 0.919351 0
815 1 0.0658202 0.910329 0
816 1 0.0814643 0.930855 0
845 1 0.0580998 0.937371 0
818 1 0.129078 0.91461 0
847 1 0.105754 0.926296 0
849 1 0.123291 0.942899 0
848 1 0.0991534 0.950486 0
821 1 0.166653 0.918745 0
820 1 0.14682 0.933557 0
851 1 0.165611 0.951513 0
794 1 0.211571 0.920434 0
824 1 0.208356 0.944467 0
822 1 0.186098 0.934733 0
825 1 0.236216 0.913634 0
855 1 0.232044 0.937267 0
826 1 0.255157 0.930072 0
857 1 0.274355 0.947553 0
829 1 0.302696 0.91565 0
828 1 0.279514 0.923673 0
859 1 0.298478 0.940036 0
830 1 0.322854 0.933203 0
832 1 0.346018 0.925284 0
861 1 0.340235 0.950296 0
863 1 0.362944 0.943033 0
806 1 0.394319 0.91152 0
833 1 0.369663 0.918614 0
834 1 0.387655 0.935303 0
865 1 0.402997 0.953866 0
837 1 0.431791 0.910972 0
835 1 0.413987 0.930705 0
838 1 0.441767 0.932468 0
836 1 0.426645 0.951335 0
839 1 0.457591 0.914316 0
840 1 0.481846 0.919926 0
1741 1 0.490787 0.943231 0
869 1 0.466888 0.938622 0
872 1 0.0190095 0.991805 0
873 1 0.0264979 0.968058 0
871 1 0.00231982 0.973424 0
874 1 0.0444927 0.986512 0
846 1 0.0755216 0.955631 0
875 1 0.0505868 0.962144 0
876 1 0.0688977 0.979066 0
7 1 0.0848316 0.998311 0
877 1 0.0929312 0.97382 0
878 1 0.110321 0.991199 0
879 1 0.11771 0.966814 0
880 1 0.133905 0.984824 0
850 1 0.141599 0.959027 0
881 1 0.157348 0.978347 0
882 1 0.174395 0.995925 0
852 1 0.180811 0.971766 0
853 1 0.204391 0.967955 0
883 1 0.197838 0.990937 0
884 1 0.22186 0.98564 0
854 1 0.227284 0.961751 0
856 1 0.250073 0.954563 0
885 1 0.245614 0.979268 0
17 1 0.262222 0.996674 0
887 1 0.268267 0.971985 0
860 1 0.316706 0.957627 0
858 1 0.292661 0.96446 0
888 1 0.285996 0.989346 0
889 1 0.30951 0.981801 0
862 1 0.356965 0.968078 0
891 1 0.333029 0.976515 0
892 1 0.351534 0.992999 0
864 1 0.379667 0.960905 0
893 1 0.375044 0.985669 0
895 1 0.398665 0.977464 0
867 1 0.449838 0.956144 0
866 1 0.431713 0.97538 0
896 1 0.416249 0.995122 0
897 1 0.440466 0.997751 0
1771 1 0.49858 0.966886 0
899 1 0.481627 0.986061 0
870 1 0.473814 0.961958 0
868 1 0.45688 0.979865 0
902 1 0.537946 0.0202665 0
931 1 0.52201 0.0379797 0
901 1 0.514459 0.0143593 0
904 1 0.56249 0.0253178 0
906 1 0.579244 0.00655844 0
935 1 0.58637 0.0313675 0
905 1 0.554841 0.000718099 0
933 1 0.546453 0.0433856 0
908 1 0.603598 0.0130781 0
937 1 0.611175 0.0369841 0
939 1 0.628301 0.0180503 0
938 1 0.636165 0.0413918 0
940 1 0.652319 0.0231593 0
971 1 0.677206 0.0272935 0
942 1 0.669801 0.0026987 0
943 1 0.696903 0.00538249 0
944 1 0.701468 0.0334646 0
945 1 0.719564 0.0186444 0
947 1 0.743212 0.0128645 0
948 1 0.760366 0.0308517 0
918 1 0.767825 0.0073804 0
946 1 0.735218 0.0376936 0
919 1 0.791784 0.00184471 0
949 1 0.785789 0.0260085 0
920 1 0.80916 0.0195228 0
979 1 0.801821 0.0438441 0
951 1 0.833499 0.0145143 0
952 1 0.850725 0.0323526 0
922 1 0.858571 0.00903491 0
950 1 0.825534 0.0384715 0
953 1 0.875358 0.0266075 0
955 1 0.899934 0.0209227 0
924 1 0.882844 0.00296754 0
926 1 0.924684 0.0165578 0
928 1 0.948716 0.0104609 0
957 1 0.941434 0.0352093 0
956 1 0.916159 0.0400265 0
930 1 0.988908 0.023122 0
959 1 0.966125 0.0299576 0
929 1 0.971395 0.0041391 0
932 1 0.529431 0.0617929 0
962 1 0.536674 0.0864961 0
961 1 0.512502 0.0802413 0
60 1 0.50519 0.0561387 0
934 1 0.570516 0.0493073 0
963 1 0.553723 0.0667929 0
965 1 0.577656 0.0725655 0
936 1 0.594453 0.054718 0
966 1 0.6019 0.0782777 0
967 1 0.618701 0.060841 0
968 1 0.626827 0.0849242 0
969 1 0.643407 0.0662479 0
970 1 0.660264 0.0470045 0
972 1 0.667711 0.0712072 0
975 1 0.707905 0.0568025 0
973 1 0.684226 0.0526555 0
1003 1 0.692814 0.0758546 0
1004 1 0.717325 0.0824698 0
974 1 0.73147 0.0618596 0
976 1 0.753884 0.0546247 0
1005 1 0.745784 0.0805418 0
1007 1 0.769405 0.0737683 0
977 1 0.77755 0.0491548 0
978 1 0.794375 0.0682347 0
1009 1 0.810665 0.0864739 0
980 1 0.818544 0.0624443 0
981 1 0.842961 0.0567633 0
1011 1 0.834855 0.0809556 0
982 1 0.860019 0.0746091 0
954 1 0.891695 0.0455572 0
983 1 0.86683 0.050888 0
984 1 0.88425 0.0684803 0
1015 1 0.900364 0.0877523 0
985 1 0.908606 0.0643052 0
986 1 0.925615 0.0833118 0
987 1 0.932951 0.0595536 0
988 1 0.950185 0.0771003 0
960 1 0.982837 0.0476944 0
958 1 0.958053 0.0541013 0
989 1 0.975047 0.0720282 0
990 1 0.991514 0.0894013 0
61 1 0.999016 0.0664116 0
991 1 0.520538 0.104661 0
992 1 0.527799 0.128886 0
120 1 0.504382 0.122634 0
993 1 0.544097 0.109809 0
964 1 0.561533 0.0916701 0
994 1 0.568136 0.114828 0
995 1 0.584723 0.0962651 0
1023 1 0.551169 0.133499 0
996 1 0.593343 0.121141 0
997 1 0.608472 0.102469 0
1027 1 0.617181 0.126893 0
998 1 0.634441 0.109179 0
999 1 0.651241 0.0903505 0
1000 1 0.660147 0.114215 0
1001 1 0.675855 0.0955512 0
1029 1 0.642695 0.131781 0
1031 1 0.684939 0.118739 0
1002 1 0.702193 0.100976 0
1033 1 0.708032 0.126113 0
1006 1 0.762539 0.0977589 0
1035 1 0.734981 0.105623 0
1036 1 0.754772 0.121393 0
1034 1 0.732047 0.131287 0
1037 1 0.779426 0.116303 0
1008 1 0.786929 0.0921775 0
1039 1 0.803746 0.110184 0
1038 1 0.796517 0.13436 0
1010 1 0.827145 0.104266 0
1012 1 0.852324 0.0987162 0
1041 1 0.845257 0.122204 0
1040 1 0.821185 0.128847 0
1043 1 0.869112 0.116945 0
1013 1 0.876193 0.0930203 0
1014 1 0.893055 0.111759 0
1044 1 0.886272 0.136006 0
1016 1 0.910712 0.130428 0
1017 1 0.917805 0.106504 0
1018 1 0.94313 0.10087 0
1047 1 0.935641 0.124479 0
1019 1 0.967038 0.0950483 0
1020 1 0.984607 0.113401 0
1049 1 0.960171 0.118285 0
1022 1 0.53458 0.152848 0
1053 1 0.541653 0.176723 0
1051 1 0.517975 0.170603 0
1021 1 0.511268 0.147098 0
1025 1 0.576046 0.138333 0
1024 1 0.558199 0.158141 0
1055 1 0.582513 0.163351 0
1026 1 0.599734 0.145887 0
1028 1 0.624815 0.151093 0
1057 1 0.608654 0.16949 0
1058 1 0.63312 0.174431 0
1059 1 0.650219 0.155426 0
1030 1 0.667098 0.137559 0
1061 1 0.674268 0.162462 0
1060 1 0.656701 0.179778 0
1032 1 0.690123 0.143932 0
1063 1 0.716676 0.150888 0
1062 1 0.698828 0.168586 0
1064 1 0.723608 0.174597 0
1065 1 0.740515 0.155006 0
1066 1 0.765158 0.162587 0
1067 1 0.771337 0.139157 0
1095 1 0.747795 0.179436 0
1068 1 0.788861 0.159262 0
1069 1 0.813073 0.153525 0
1099 1 0.803911 0.1795 0
1071 1 0.837534 0.1479 0
1070 1 0.828663 0.172189 0
1072 1 0.854164 0.165817 0
1042 1 0.861483 0.141589 0
1073 1 0.877952 0.15933 0
1045 1 0.903405 0.154404 0
1074 1 0.896002 0.178208 0
1075 1 0.919554 0.173269 0
1046 1 0.927518 0.150066 0
1077 1 0.943891 0.168903 0
1048 1 0.951308 0.143395 0
1050 1 0.976369 0.137315 0
1079 1 0.968418 0.161646 0
151 1 0.993431 0.154784 0
1080 1 0.987529 0.179515 0
1052 1 0.526125 0.195381 0
1082 1 0.53251 0.218352 0
1081 1 0.507932 0.212813 0
180 1 0.500417 0.1893 0
1054 1 0.566301 0.181878 0
1083 1 0.549798 0.200363 0
1085 1 0.573411 0.206651 0
1084 1 0.556948 0.224873 0
1056 1 0.589966 0.187834 0
1086 1 0.597771 0.212471 0
1087 1 0.615057 0.193859 0
1088 1 0.623058 0.21713 0
1089 1 0.640208 0.197939 0
1090 1 0.663296 0.204517 0
1119 1 0.647036 0.223669 0
1091 1 0.681005 0.186529 0
1092 1 0.689109 0.210402 0
1093 1 0.705937 0.192212 0
1123 1 0.713193 0.21577 0
1094 1 0.730705 0.197528 0
1096 1 0.757242 0.202582 0
1125 1 0.738412 0.22084 0
1127 1 0.781103 0.208424 0
1097 1 0.777154 0.183673 0
1098 1 0.805924 0.215093 0
1100 1 0.8229 0.196901 0
1101 1 0.845985 0.189472 0
1129 1 0.83288 0.221614 0
1102 1 0.863506 0.20823 0
1103 1 0.870923 0.183453 0
1104 1 0.887285 0.201654 0
1133 1 0.902015 0.221043 0
1105 1 0.911287 0.197677 0
1076 1 0.9353 0.192633 0
1135 1 0.929796 0.217437 0
1107 1 0.953898 0.210423 0
1078 1 0.961424 0.186384 0
1109 1 0.977904 0.203319 0
1110 1 0.995914 0.220824 0
1111 1 0.516252 0.236245 0
1113 1 0.539472 0.243608 0
1112 1 0.521623 0.260333 0
1143 1 0.545544 0.267344 0
1114 1 0.562987 0.249323 0
1115 1 0.58058 0.230795 0
1116 1 0.586916 0.254691 0
1117 1 0.604819 0.235749 0
1118 1 0.629738 0.241862 0
1147 1 0.611867 0.259562 0
1149 1 0.636983 0.265888 0
1121 1 0.671934 0.228728 0
1120 1 0.65436 0.247375 0
1151 1 0.679783 0.252557 0
1150 1 0.661865 0.271893 0
1122 1 0.696586 0.235007 0
1124 1 0.721714 0.240123 0
1153 1 0.704387 0.258015 0
1154 1 0.727997 0.264312 0
1126 1 0.763295 0.226503 0
1155 1 0.746537 0.244668 0
1157 1 0.770608 0.251556 0
1156 1 0.752587 0.269159 0
1128 1 0.788426 0.232661 0
1159 1 0.813978 0.240243 0
1158 1 0.795806 0.256813 0
1160 1 0.820037 0.264392 0
1131 1 0.857666 0.231721 0
1130 1 0.838007 0.247307 0
1191 1 0.845746 0.271651 0
1161 1 0.863838 0.25458 0
1132 1 0.882706 0.236187 0
1163 1 0.888144 0.261814 0