ITEM: TIMESTEP
38000
ITEM: NUMBER OF ATOMS
1800
ITEM: BOX BOUNDS pp pp pp
1.0333529393302001e+00 1.6396664706067276e+02
1.0333529393302001e+00 1.6396664706067276e+02
0.0000000000000000e+00 5.5000000000000000e+00
ITEM: ATOMS id type xs ys zs
2 1 0.0239739 0.0112609 0
33 1 0.041969 0.0279424 0
31 1 0.0178371 0.0356972 0
3 1 0.0480984 0.00388384 0
4 1 0.0670833 0.0209949 0
35 1 0.0854919 0.0372804 0
34 1 0.0608473 0.0456455 0
6 1 0.0913968 0.0127679 0
8 1 0.11523 0.00695884 0
37 1 0.109375 0.0311209 0
39 1 0.133327 0.0233018 0
10 1 0.157493 0.0167338 0
41 1 0.176296 0.0343462 0
40 1 0.150589 0.0410034 0
12 1 0.181763 0.0101472 0
14 1 0.200091 0.0258354 0
45 1 0.21838 0.0441567 0
15 1 0.224207 0.0196342 0
13 1 0.206669 0.00171848 0
16 1 0.249893 0.0136058 0
46 1 0.243797 0.0372554 0
47 1 0.267946 0.0301165 0
18 1 0.274736 0.00632316 0
49 1 0.292021 0.0238868 0
50 1 0.310468 0.0413596 0
20 1 0.31538 0.0176857 0
51 1 0.333532 0.03417 0
22 1 0.358386 0.0276675 0
21 1 0.340412 0.0101856 0
23 1 0.364597 0.00280523 0
24 1 0.381664 0.0218659 0
55 1 0.399546 0.0395727 0
25 1 0.40563 0.0156083 0
26 1 0.426508 0.0333093 0
27 1 0.429781 0.00809945 0
898 1 0.453488 0.0154628 0
28 1 0.459359 0.0385866 0
29 1 0.477796 0.0227264 0
900 1 0.495489 0.00482382 0
32 1 0.0363315 0.0523174 0
62 1 0.0316713 0.0764648 0
61 1 0.0120409 0.0600189 0
990 1 0.00680993 0.0835152 0
63 1 0.0555842 0.069517 0
65 1 0.0786941 0.0625772 0
66 1 0.0730195 0.086669 0
38 1 0.127529 0.0482374 0
36 1 0.102386 0.0559912 0
67 1 0.0970633 0.0799448 0
69 1 0.121054 0.0727452 0
70 1 0.139218 0.0893748 0
71 1 0.145134 0.0655259 0
42 1 0.168816 0.0582641 0
72 1 0.163231 0.0814298 0
43 1 0.19481 0.0500032 0
44 1 0.213192 0.0678716 0
73 1 0.188758 0.074175 0
74 1 0.231446 0.0856463 0
75 1 0.237199 0.0606118 0
77 1 0.262538 0.0541294 0
76 1 0.256341 0.0784535 0
48 1 0.286517 0.0475933 0
78 1 0.280173 0.0712737 0
79 1 0.303626 0.0650286 0
109 1 0.296995 0.0893925 0
80 1 0.320201 0.0836137 0
81 1 0.326875 0.0588884 0
52 1 0.351185 0.0504568 0
82 1 0.344376 0.0749285 0
53 1 0.375944 0.0460256 0
83 1 0.368025 0.0689636 0
54 1 0.393086 0.065902 0
84 1 0.38271 0.0879411 0
85 1 0.406195 0.0902118 0
57 1 0.441626 0.0557971 0
56 1 0.416429 0.0574662 0
87 1 0.448162 0.0805917 0
59 1 0.484075 0.0461739 0
88 1 0.472506 0.0875486 0
58 1 0.466188 0.0632557 0
89 1 0.490515 0.0701366 0
91 1 0.00162906 0.107484 0
92 1 0.0194589 0.125247 0
93 1 0.0253115 0.100386 0
94 1 0.0427668 0.118205 0
64 1 0.0488273 0.0936153 0
95 1 0.0667687 0.110941 0
96 1 0.0851899 0.127982 0
125 1 0.0608053 0.13512 0
97 1 0.0909949 0.104385 0
68 1 0.115183 0.0967001 0
98 1 0.109334 0.121102 0
99 1 0.133135 0.113158 0
100 1 0.157747 0.106098 0
131 1 0.175534 0.122676 0
130 1 0.151698 0.129948 0
101 1 0.18157 0.097937 0
103 1 0.207191 0.0929535 0
102 1 0.199525 0.116519 0
104 1 0.217958 0.133663 0
105 1 0.224875 0.109855 0
106 1 0.248663 0.104108 0
137 1 0.266475 0.121172 0
107 1 0.272512 0.0963662 0
135 1 0.241236 0.127689 0
108 1 0.290101 0.113119 0
110 1 0.315315 0.108071 0
139 1 0.305203 0.131747 0
111 1 0.339017 0.0987577 0
141 1 0.347395 0.122354 0
113 1 0.364399 0.10331 0
112 1 0.388136 0.110792 0
143 1 0.370627 0.128126 0
114 1 0.394551 0.135331 0
115 1 0.412493 0.115727 0
86 1 0.43029 0.0982069 0
116 1 0.435937 0.122453 0
117 1 0.454328 0.105564 0
118 1 0.460144 0.129705 0
90 1 0.495976 0.0945259 0
119 1 0.478344 0.112897 0
123 1 0.0370111 0.143493 0
122 1 0.0133719 0.150411 0
153 1 0.0309208 0.168495 0
152 1 0.00768648 0.175991 0
124 1 0.0543929 0.159604 0
126 1 0.0790579 0.152016 0
155 1 0.0722458 0.177648 0
129 1 0.12747 0.137467 0
127 1 0.102968 0.144857 0
128 1 0.120427 0.162509 0
157 1 0.0957107 0.170183 0
159 1 0.14509 0.15484 0
132 1 0.1694 0.148537 0
161 1 0.162444 0.171988 0
160 1 0.13881 0.178464 0
133 1 0.194064 0.140326 0
163 1 0.187305 0.16512 0
134 1 0.210809 0.158895 0
164 1 0.22947 0.17635 0
136 1 0.258496 0.145874 0
165 1 0.235287 0.15234 0
167 1 0.268517 0.167669 0
138 1 0.283299 0.146854 0
169 1 0.310441 0.15617 0
168 1 0.292535 0.173009 0
170 1 0.316697 0.180622 0
140 1 0.328995 0.138285 0
142 1 0.352599 0.146468 0
171 1 0.334305 0.163777 0
172 1 0.358204 0.17013 0
144 1 0.400445 0.159183 0
173 1 0.37657 0.152525 0
174 1 0.382819 0.176773 0
145 1 0.418171 0.140826 0
146 1 0.424209 0.164967 0
147 1 0.442345 0.147183 0
177 1 0.448875 0.171294 0
149 1 0.484738 0.136455 0
148 1 0.467243 0.153342 0
150 1 0.491925 0.162074 0
179 1 0.472927 0.178172 0
183 1 0.0253766 0.193208 0
182 1 0.0199185 0.218629 0
181 1 0.00223094 0.201036 0
184 1 0.04435 0.211527 0
154 1 0.0485642 0.18574 0
185 1 0.0662237 0.202577 0
186 1 0.083858 0.219272 0
156 1 0.0892612 0.194815 0
158 1 0.114145 0.186196 0
187 1 0.107391 0.210997 0
189 1 0.13209 0.202926 0
191 1 0.155968 0.195617 0
190 1 0.149793 0.219153 0
221 1 0.173911 0.211817 0
162 1 0.181579 0.188147 0
193 1 0.207391 0.18495 0
192 1 0.197032 0.207373 0
194 1 0.216036 0.22078 0
166 1 0.251786 0.185136 0
195 1 0.232284 0.202424 0
196 1 0.257284 0.209726 0
197 1 0.27533 0.192576 0
199 1 0.299432 0.198503 0
198 1 0.281907 0.216456 0
229 1 0.305771 0.22265 0
201 1 0.340892 0.188004 0
200 1 0.323703 0.205789 0
202 1 0.347429 0.21234 0
175 1 0.406627 0.183053 0
203 1 0.364817 0.193745 0
233 1 0.370262 0.21777 0
204 1 0.3889 0.200567 0
235 1 0.394441 0.224176 0
205 1 0.413137 0.206538 0
176 1 0.430515 0.189285 0
207 1 0.437542 0.212891 0
178 1 0.454837 0.195429 0
208 1 0.461156 0.2202 0
180 1 0.497974 0.185941 0
209 1 0.479354 0.202585 0
210 1 0.485741 0.226997 0
212 1 0.0138732 0.243588 0
213 1 0.038161 0.235595 0
243 1 0.0315258 0.25995 0
241 1 0.00835965 0.268233 0
215 1 0.061378 0.228417 0
216 1 0.0790756 0.245381 0
214 1 0.056256 0.25355 0
245 1 0.0759515 0.271112 0
188 1 0.125969 0.227406 0
217 1 0.102292 0.235842 0
218 1 0.12107 0.251094 0
247 1 0.0990638 0.262192 0
249 1 0.138671 0.267126 0
219 1 0.145273 0.243569 0
220 1 0.169207 0.234671 0
222 1 0.180196 0.255781 0
251 1 0.161917 0.271603 0
223 1 0.193904 0.232618 0
253 1 0.203115 0.260871 0
224 1 0.2203 0.244711 0
255 1 0.226899 0.26878 0
225 1 0.239978 0.227508 0
227 1 0.264055 0.233693 0
226 1 0.24497 0.251356 0
257 1 0.26935 0.258213 0
228 1 0.288152 0.240607 0
230 1 0.311866 0.246749 0
259 1 0.292495 0.264912 0
260 1 0.316367 0.271052 0
231 1 0.329844 0.229889 0
232 1 0.353391 0.236813 0
261 1 0.334754 0.253953 0
263 1 0.358151 0.260559 0
234 1 0.376293 0.241831 0
265 1 0.400516 0.248721 0
264 1 0.382057 0.266102 0
266 1 0.407471 0.271824 0
206 1 0.419938 0.230196 0
237 1 0.443055 0.236997 0
236 1 0.424694 0.254388 0
238 1 0.45091 0.261381 0
239 1 0.46793 0.243163 0
240 1 0.493406 0.250136 0
269 1 0.475726 0.267678 0
242 1 0.0253269 0.28512 0
271 1 0.0175519 0.313911 0
1170 1 0.00246784 0.29274 0
273 1 0.0427475 0.30221 0
244 1 0.0504514 0.277623 0
275 1 0.0674629 0.295242 0
276 1 0.0815068 0.314818 0
246 1 0.0934602 0.290726 0
248 1 0.117305 0.279697 0
279 1 0.122077 0.305735 0
250 1 0.141448 0.29066 0
280 1 0.146411 0.314936 0
281 1 0.164855 0.297093 0
252 1 0.184324 0.279879 0
254 1 0.208534 0.285969 0
283 1 0.18937 0.303866 0
284 1 0.213281 0.31112 0
256 1 0.24995 0.276117 0
285 1 0.23143 0.293809 0
287 1 0.256148 0.299785 0
286 1 0.237509 0.317381 0
258 1 0.273887 0.282279 0
288 1 0.280179 0.307912 0
289 1 0.29804 0.289677 0
290 1 0.304648 0.315173 0
262 1 0.340084 0.27826 0
291 1 0.322011 0.295584 0
292 1 0.347216 0.302902 0
293 1 0.364795 0.284542 0
295 1 0.388675 0.290744 0
294 1 0.371244 0.3086 0
296 1 0.395988 0.313916 0
267 1 0.431569 0.277906 0
297 1 0.413847 0.295232 0
298 1 0.438004 0.301919 0
268 1 0.45755 0.285042 0
270 1 0.481573 0.291778 0
299 1 0.463957 0.309517 0
300 1 0.487485 0.316828 0
272 1 0.039693 0.325747 0
301 1 0.0193435 0.340125 0
303 1 0.0445415 0.349419 0
1230 1 0.00144031 0.357958 0
274 1 0.0631679 0.332833 0
304 1 0.0687169 0.35725 0
305 1 0.086614 0.340762 0
277 1 0.10453 0.323177 0
278 1 0.127784 0.330447 0
307 1 0.110036 0.348345 0
309 1 0.133091 0.355209 0
282 1 0.170386 0.321576 0
311 1 0.151847 0.338312 0
310 1 0.157646 0.361697 0
312 1 0.176866 0.344619 0
313 1 0.194453 0.326983 0
314 1 0.199923 0.351593 0
315 1 0.21874 0.334018 0
345 1 0.22343 0.358791 0
317 1 0.261436 0.324699 0
316 1 0.24268 0.34125 0
318 1 0.266419 0.349005 0
319 1 0.284831 0.330902 0
349 1 0.290909 0.35568 0
320 1 0.310483 0.339298 0
321 1 0.32923 0.319949 0
322 1 0.335908 0.34443 0
323 1 0.354672 0.327648 0
353 1 0.356915 0.361599 0
324 1 0.379153 0.331586 0
325 1 0.403485 0.338014 0
355 1 0.383021 0.355455 0
326 1 0.427844 0.343337 0
327 1 0.420344 0.319199 0
328 1 0.445339 0.325446 0
359 1 0.450935 0.356469 0
329 1 0.468905 0.334205 0
1201 1 0.495926 0.341306 0
330 1 0.477901 0.357708 0
302 1 0.0265869 0.364858 0
332 1 0.030612 0.390283 0
361 1 0.0118628 0.40662 0
331 1 0.00752483 0.381389 0
333 1 0.0495856 0.373546 0
335 1 0.072744 0.381862 0
334 1 0.0543661 0.398663 0
336 1 0.0781536 0.406575 0
306 1 0.092014 0.366315 0
308 1 0.115602 0.372158 0
337 1 0.0964315 0.390277 0
338 1 0.120455 0.397248 0
339 1 0.139357 0.37874 0
341 1 0.162736 0.386262 0
340 1 0.145049 0.403554 0
343 1 0.181202 0.3692 0
342 1 0.185852 0.392994 0
344 1 0.205074 0.375809 0
373 1 0.209158 0.40004 0
347 1 0.247618 0.365457 0
375 1 0.231557 0.406791 0
346 1 0.229181 0.382748 0
377 1 0.259334 0.3869 0
348 1 0.283138 0.379559 0
350 1 0.307557 0.374519 0
379 1 0.301807 0.398132 0
378 1 0.277179 0.403844 0
351 1 0.332452 0.368342 0
381 1 0.325895 0.391905 0
352 1 0.350253 0.385443 0
354 1 0.375597 0.378344 0
385 1 0.392705 0.396488 0
356 1 0.400496 0.372734 0
383 1 0.36813 0.40254 0
357 1 0.425402 0.367274 0
358 1 0.443682 0.384108 0
387 1 0.418812 0.391083 0
388 1 0.435702 0.408249 0
1261 1 0.485741 0.396083 0
360 1 0.468061 0.379356 0
389 1 0.460215 0.401928 0
363 1 0.0359655 0.415462 0
362 1 0.0175799 0.431961 0
364 1 0.0420758 0.440308 0
392 1 0.000178787 0.449167 0
365 1 0.0597859 0.422726 0
366 1 0.0842104 0.430829 0
395 1 0.0659902 0.447008 0
367 1 0.102593 0.414524 0
369 1 0.126087 0.421298 0
368 1 0.107898 0.438267 0
399 1 0.132776 0.444983 0
371 1 0.168225 0.410568 0
370 1 0.149787 0.427356 0
401 1 0.174009 0.435195 0
400 1 0.156867 0.452087 0
372 1 0.19173 0.418291 0
403 1 0.197956 0.442437 0
374 1 0.216104 0.425202 0
404 1 0.222865 0.449104 0
376 1 0.254396 0.410197 0
405 1 0.240876 0.431393 0
407 1 0.269922 0.429003 0
406 1 0.25911 0.45253 0
408 1 0.285374 0.447305 0
409 1 0.293502 0.421633 0
410 1 0.310991 0.438746 0
382 1 0.343454 0.40991 0
380 1 0.318762 0.415597 0
411 1 0.335925 0.43293 0
412 1 0.352655 0.451062 0
413 1 0.360088 0.427754 0
384 1 0.385018 0.420051 0
414 1 0.378132 0.443733 0
415 1 0.403232 0.437424 0
386 1 0.409534 0.414385 0
417 1 0.427525 0.432008 0
418 1 0.444954 0.449096 0
419 1 0.45253 0.425659 0
390 1 0.477277 0.42068 0
420 1 0.469971 0.444299 0
1291 1 0.494287 0.438743 0
393 1 0.0230608 0.456625 0
422 1 0.00419592 0.473329 0
423 1 0.0282226 0.480067 0
453 1 0.00890036 0.496873 0
397 1 0.0897289 0.454696 0
394 1 0.0481119 0.464063 0
396 1 0.0709821 0.471863 0
425 1 0.0529361 0.48873 0
426 1 0.076074 0.495565 0
398 1 0.11451 0.461367 0
427 1 0.094155 0.478385 0
428 1 0.119628 0.485746 0
429 1 0.138033 0.468719 0
430 1 0.142407 0.493266 0
431 1 0.162032 0.476157 0
402 1 0.180463 0.460011 0
432 1 0.185973 0.483754 0
433 1 0.204427 0.465656 0
434 1 0.209819 0.490393 0
435 1 0.227962 0.472551 0
465 1 0.236081 0.49536 0
436 1 0.253193 0.477098 0
467 1 0.268153 0.496395 0
437 1 0.277387 0.470252 0
438 1 0.294967 0.48778 0
439 1 0.302725 0.463659 0
440 1 0.319963 0.481011 0
441 1 0.32734 0.457436 0
442 1 0.344862 0.474042 0
471 1 0.338958 0.497516 0
473 1 0.362852 0.490799 0
443 1 0.370325 0.467761 0
445 1 0.395915 0.46103 0
444 1 0.387027 0.484551 0
416 1 0.419858 0.455379 0
446 1 0.413051 0.478835 0
447 1 0.437659 0.47402 0
477 1 0.43072 0.497328 0
1321 1 0.487126 0.462976 0
450 1 0.480044 0.487893 0
449 1 0.462167 0.468087 0
448 1 0.455169 0.492042 0
452 1 0.0138968 0.522831 0
454 1 0.0381004 0.528607 0
424 1 0.0341906 0.50402 0
485 1 0.0614706 0.536195 0
455 1 0.0566709 0.512767 0
456 1 0.0821828 0.51891 0
487 1 0.0861324 0.543497 0
458 1 0.105659 0.526274 0
459 1 0.124036 0.510323 0
489 1 0.129585 0.534395 0
457 1 0.100506 0.501839 0
460 1 0.147727 0.516388 0
491 1 0.153308 0.540159 0
462 1 0.172459 0.523749 0
461 1 0.167934 0.500097 0
463 1 0.191627 0.507948 0
493 1 0.196642 0.531699 0
464 1 0.215546 0.514653 0
495 1 0.220452 0.538519 0
466 1 0.239054 0.520277 0
497 1 0.263613 0.523384 0
496 1 0.244579 0.544592 0
468 1 0.288218 0.511633 0
499 1 0.309424 0.529526 0
498 1 0.285091 0.535607 0
469 1 0.31265 0.50533 0
470 1 0.332786 0.521384 0
472 1 0.357263 0.514176 0
502 1 0.349942 0.538316 0
503 1 0.374823 0.532175 0
474 1 0.38105 0.508481 0
476 1 0.398323 0.525877 0
475 1 0.405172 0.50215 0
507 1 0.422869 0.521003 0
509 1 0.440782 0.539502 0
478 1 0.447322 0.51588 0
506 1 0.416542 0.544949 0
1381 1 0.489479 0.529705 0
480 1 0.46512 0.534468 0
479 1 0.472248 0.511578 0
1351 1 0.497708 0.506115 0
483 1 0.0179522 0.546021 0
513 1 0.0226625 0.570016 0
511 1 0.00369907 0.588072 0
484 1 0.0416356 0.552886 0
514 1 0.0474853 0.576702 0
486 1 0.0668767 0.559997 0
515 1 0.0738689 0.583348 0
488 1 0.110056 0.550135 0
517 1 0.0919053 0.567263 0
519 1 0.115828 0.573611 0
490 1 0.134673 0.557741 0
492 1 0.178216 0.547466 0
520 1 0.142147 0.580302 0
521 1 0.159584 0.563705 0
522 1 0.165376 0.587805 0
523 1 0.184338 0.570767 0
494 1 0.202053 0.554954 0
524 1 0.208053 0.578739 0
525 1 0.226735 0.561826 0
526 1 0.250008 0.569409 0
555 1 0.232174 0.586196 0
527 1 0.267554 0.551694 0
528 1 0.274641 0.575506 0
529 1 0.292843 0.558368 0
559 1 0.298272 0.583597 0
500 1 0.315978 0.567221 0
501 1 0.327163 0.545903 0
531 1 0.340582 0.567969 0
533 1 0.361657 0.580054 0
505 1 0.392361 0.550173 0
504 1 0.36825 0.555388 0
534 1 0.384688 0.573115 0
535 1 0.409782 0.568734 0
508 1 0.433189 0.563523 0
537 1 0.42569 0.587777 0
538 1 0.44909 0.582628 0
510 1 0.482484 0.553554 0
539 1 0.456877 0.559233 0
540 1 0.474172 0.577358 0
1411 1 0.498563 0.572391 0
512 1 0.0284304 0.594144 0
541 1 0.00973382 0.611646 0
542 1 0.0376629 0.616789 0
571 1 0.0209458 0.632943 0
543 1 0.0552307 0.59925 0
544 1 0.062028 0.623295 0
545 1 0.080091 0.607374 0
546 1 0.0863075 0.631676 0
516 1 0.0980207 0.591129 0
518 1 0.123206 0.597633 0
547 1 0.104032 0.615064 0
548 1 0.128008 0.6221 0
549 1 0.146653 0.604443 0
550 1 0.152242 0.629105 0
551 1 0.17032 0.61226 0
553 1 0.189321 0.595236 0
552 1 0.194832 0.619928 0
554 1 0.212977 0.602277 0
583 1 0.218422 0.627479 0
556 1 0.236955 0.61067 0
557 1 0.256111 0.59293 0
587 1 0.261439 0.617774 0
585 1 0.242191 0.635377 0
558 1 0.279829 0.600776 0
560 1 0.302971 0.608721 0
589 1 0.285225 0.625522 0
590 1 0.30834 0.633032 0
530 1 0.321404 0.591283 0
532 1 0.345405 0.597491 0
561 1 0.326078 0.614907 0
562 1 0.349684 0.622277 0
563 1 0.369484 0.603326 0
565 1 0.392399 0.612806 0
564 1 0.373761 0.627899 0
536 1 0.40158 0.59047 0
595 1 0.403603 0.635727 0
566 1 0.415987 0.61063 0
567 1 0.441151 0.606578 0
597 1 0.43169 0.631814 0
568 1 0.456822 0.625102 0
1441 1 0.489098 0.597199 0
569 1 0.465233 0.601172 0
570 1 0.480855 0.619905 0
1500 1 0.00264851 0.648326 0
572 1 0.0258056 0.656951 0
602 1 0.00705749 0.672341 0
573 1 0.0445018 0.640317 0
603 1 0.0311543 0.68166 0
575 1 0.0680094 0.647272 0
574 1 0.0494214 0.664412 0
605 1 0.0736215 0.67142 0
577 1 0.110028 0.639067 0
576 1 0.0918084 0.655483 0
578 1 0.115047 0.661629 0
607 1 0.0975813 0.678519 0
579 1 0.134178 0.644863 0
581 1 0.176597 0.636592 0
609 1 0.139529 0.669499 0
580 1 0.158391 0.65258 0
610 1 0.164272 0.677504 0
611 1 0.182407 0.660908 0
582 1 0.200678 0.643831 0
584 1 0.224491 0.65176 0
613 1 0.206914 0.668188 0
614 1 0.230634 0.676217 0
586 1 0.266091 0.641763 0
615 1 0.248309 0.659179 0
617 1 0.272145 0.666087 0
588 1 0.290281 0.649583 0
619 1 0.31403 0.657608 0
618 1 0.295806 0.674526 0
591 1 0.331533 0.639805 0
593 1 0.355679 0.645864 0
621 1 0.337613 0.663771 0
592 1 0.361672 0.670186 0
620 1 0.319731 0.681455 0
594 1 0.379216 0.652438 0
625 1 0.401659 0.661708 0
596 1 0.425155 0.655495 0
598 1 0.441666 0.672935 0
627 1 0.416921 0.680111 0
599 1 0.448832 0.649577 0
1501 1 0.49154 0.661944 0
600 1 0.47392 0.643076 0
629 1 0.466191 0.667261 0
1471 1 0.498803 0.638801 0
633 1 0.036816 0.706221 0
632 1 0.0131516 0.698149 0
663 1 0.0180843 0.723017 0
604 1 0.0553503 0.688289 0
606 1 0.0786943 0.694667 0
635 1 0.0604889 0.712399 0
636 1 0.0837243 0.71963 0
608 1 0.121538 0.68537 0
637 1 0.102408 0.702884 0
638 1 0.12613 0.710282 0
667 1 0.107917 0.726396 0
639 1 0.145164 0.694104 0
641 1 0.169194 0.701418 0
640 1 0.150985 0.718785 0
671 1 0.175809 0.725782 0
612 1 0.18798 0.684712 0
643 1 0.211442 0.691915 0
642 1 0.193308 0.708554 0
644 1 0.217587 0.717512 0
616 1 0.253609 0.683109 0
645 1 0.235186 0.700419 0
646 1 0.259228 0.707056 0
675 1 0.24192 0.725115 0
647 1 0.278342 0.690803 0
649 1 0.301174 0.698167 0
648 1 0.283695 0.715866 0
679 1 0.308247 0.722547 0
650 1 0.325832 0.70672 0
622 1 0.34335 0.689106 0
651 1 0.353106 0.713457 0
623 1 0.390481 0.684482 0
653 1 0.367169 0.693125 0
624 1 0.384764 0.709099 0
626 1 0.407821 0.703064 0
655 1 0.401171 0.726941 0
657 1 0.434807 0.696723 0
656 1 0.425698 0.721483 0
658 1 0.450002 0.715314 0
630 1 0.483352 0.684893 0
628 1 0.458562 0.692055 0
659 1 0.475111 0.708867 0
1531 1 0.499166 0.703477 0
634 1 0.0418559 0.730936 0
662 1 0.0237716 0.747063 0
691 1 0.00537424 0.762502 0
693 1 0.0298371 0.77092 0
664 1 0.0480242 0.754163 0
665 1 0.0650371 0.736664 0
666 1 0.0906316 0.743382 0
695 1 0.0713178 0.759746 0
697 1 0.0964661 0.768108 0
669 1 0.132277 0.733948 0
668 1 0.113942 0.751224 0
699 1 0.137488 0.756876 0
670 1 0.157476 0.742816 0
701 1 0.166045 0.766431 0
672 1 0.182507 0.749928 0
673 1 0.200614 0.733684 0
674 1 0.224363 0.741963 0
703 1 0.205691 0.75855 0
705 1 0.230282 0.766344 0
677 1 0.265355 0.732156 0
676 1 0.2483 0.748786 0
707 1 0.272465 0.75542 0
678 1 0.297425 0.747089 0
680 1 0.314455 0.767444 0
681 1 0.322421 0.742803 0
652 1 0.347701 0.737954 0
682 1 0.341143 0.761303 0
683 1 0.365108 0.755845 0
654 1 0.371862 0.730979 0
685 1 0.389788 0.749416 0
715 1 0.407053 0.769043 0
686 1 0.416609 0.745551 0
687 1 0.441988 0.739461 0
717 1 0.432683 0.763514 0
688 1 0.457427 0.758505 0
660 1 0.489955 0.728587 0
689 1 0.466441 0.732992 0
690 1 0.481475 0.752961 0
692 1 0.00981441 0.786291 0
722 1 0.0119099 0.809912 0
723 1 0.0335698 0.794982 0
694 1 0.0542099 0.780255 0
696 1 0.0779369 0.782587 0
725 1 0.0555693 0.810796 0
726 1 0.0797499 0.805066 0
698 1 0.121038 0.775813 0
727 1 0.101142 0.79229 0
728 1 0.121845 0.807385 0
700 1 0.14633 0.779046 0
729 1 0.14528 0.802812 0
731 1 0.168982 0.791331 0
732 1 0.165306 0.816041 0
702 1 0.191322 0.780093 0
704 1 0.213307 0.797708 0
733 1 0.188399 0.80575 0
735 1 0.23967 0.789312 0
706 1 0.262828 0.779288 0
737 1 0.257805 0.805674 0
736 1 0.233575 0.813235 0
709 1 0.290203 0.772828 0
708 1 0.282052 0.797846 0
710 1 0.307223 0.790851 0
739 1 0.300312 0.815773 0
713 1 0.357392 0.779492 0
711 1 0.332239 0.784621 0
712 1 0.350346 0.803136 0
741 1 0.323855 0.809105 0
684 1 0.381942 0.77387 0
714 1 0.374579 0.797822 0
745 1 0.393008 0.816356 0
716 1 0.399046 0.79208 0
718 1 0.448502 0.781769 0
746 1 0.416605 0.810949 0
747 1 0.424879 0.787423 0
748 1 0.441831 0.806191 0
1591 1 0.498551 0.773095 0
719 1 0.473876 0.776162 0
720 1 0.488975 0.796076 0
749 1 0.465662 0.799946 0
752 1 0.00982734 0.857432 0
753 1 0.0121553 0.833592 0
783 1 0.0318517 0.848414 0
724 1 0.0337172 0.821649 0
755 1 0.0762606 0.828115 0
754 1 0.0537432 0.836792 0
785 1 0.072275 0.853183 0
784 1 0.0511389 0.863979 0
757 1 0.0995499 0.818534 0
756 1 0.0948368 0.843051 0
759 1 0.117776 0.833635 0
758 1 0.114079 0.858294 0
760 1 0.137165 0.849923 0
730 1 0.141318 0.826035 0
761 1 0.160674 0.840101 0
762 1 0.181056 0.855517 0
763 1 0.18477 0.83115 0
734 1 0.208549 0.822267 0
764 1 0.204102 0.847303 0
795 1 0.222836 0.86247 0
765 1 0.22792 0.837925 0
767 1 0.251684 0.82995 0
766 1 0.246182 0.854977 0
768 1 0.269894 0.847288 0
738 1 0.27632 0.82242 0
769 1 0.294124 0.840407 0
770 1 0.312616 0.857711 0
740 1 0.31889 0.834234 0
742 1 0.343122 0.827802 0
771 1 0.336944 0.851394 0
773 1 0.360974 0.845851 0
743 1 0.367344 0.821576 0
744 1 0.384962 0.840056 0
776 1 0.402222 0.858613 0
775 1 0.40979 0.834852 0
777 1 0.434065 0.830134 0
778 1 0.426653 0.853852 0
809 1 0.450743 0.849008 0
779 1 0.458334 0.824621 0
750 1 0.475202 0.842295 0
1621 1 0.492166 0.822913 0
1651 1 0.499622 0.847341 0
782 1 0.00544195 0.88208 0
813 1 0.0281511 0.873169 0
812 1 0.0241755 0.897888 0
815 1 0.0474004 0.888913 0
786 1 0.0708957 0.881072 0
817 1 0.0896289 0.897817 0
816 1 0.0668301 0.905994 0
787 1 0.0912532 0.867989 0
788 1 0.109779 0.883322 0
819 1 0.128127 0.897254 0
789 1 0.132451 0.873163 0
791 1 0.157046 0.864381 0
790 1 0.150684 0.887982 0
792 1 0.175049 0.88018 0
821 1 0.169286 0.9035 0
793 1 0.199981 0.871299 0
823 1 0.193923 0.895417 0
794 1 0.217636 0.887645 0
797 1 0.264306 0.872434 0
796 1 0.241219 0.879781 0
825 1 0.234667 0.904757 0
827 1 0.25865 0.897548 0
799 1 0.287899 0.865068 0
798 1 0.282709 0.890512 0
800 1 0.306153 0.882292 0
829 1 0.299791 0.907841 0
772 1 0.354386 0.869921 0
801 1 0.330091 0.875802 0
831 1 0.32348 0.900786 0
802 1 0.347553 0.894346 0
774 1 0.378043 0.864067 0
803 1 0.371013 0.888468 0
805 1 0.395831 0.882421 0
804 1 0.389213 0.906298 0
806 1 0.41273 0.900297 0
807 1 0.419567 0.876807 0
808 1 0.443339 0.872972 0
839 1 0.446783 0.898651 0
780 1 0.482707 0.86556 0
810 1 0.465747 0.882496 0
1681 1 0.488992 0.889761 0
840 1 0.470948 0.907808 0
842 1 0.015261 0.947199 0
843 1 0.0197896 0.922225 0
844 1 0.0392317 0.938384 0
814 1 0.043625 0.913088 0
845 1 0.0630917 0.931316 0
846 1 0.0828213 0.946935 0
847 1 0.0873544 0.92248 0
818 1 0.110333 0.914324 0
848 1 0.107527 0.939455 0
849 1 0.131616 0.9322 0
820 1 0.146013 0.912155 0
850 1 0.152106 0.950292 0
851 1 0.163943 0.927827 0
852 1 0.180867 0.943627 0
824 1 0.210908 0.913263 0
822 1 0.187041 0.919352 0
853 1 0.204204 0.936437 0
854 1 0.221287 0.953769 0
855 1 0.228513 0.928888 0
826 1 0.252652 0.922148 0
856 1 0.245225 0.946561 0
857 1 0.269489 0.940141 0
828 1 0.275599 0.915406 0
859 1 0.292937 0.932666 0
860 1 0.310713 0.949909 0
830 1 0.317187 0.924608 0
832 1 0.341153 0.919621 0
861 1 0.334061 0.942842 0
863 1 0.358881 0.936635 0
833 1 0.365033 0.912017 0
835 1 0.406688 0.924394 0
834 1 0.382587 0.930948 0
865 1 0.400515 0.948574 0
837 1 0.42996 0.918211 0
836 1 0.42978 0.943194 0
838 1 0.453149 0.924655 0
869 1 0.476515 0.931579 0
870 1 0.457951 0.948632 0
1711 1 0.495054 0.914026 0
872 1 0.0295956 0.987601 0
873 1 0.0347134 0.963721 0
871 1 0.00943964 0.971032 0
1 1 0.00440865 0.994863 0
875 1 0.0586352 0.95547 0
874 1 0.0540527 0.979725 0
876 1 0.0790737 0.972571 0
5 1 0.0724652 0.997106 0
879 1 0.126901 0.956997 0
7 1 0.0968898 0.988908 0
877 1 0.102644 0.964387 0
878 1 0.121792 0.981347 0
9 1 0.139029 0.999696 0
880 1 0.145498 0.974613 0
881 1 0.171928 0.96655 0
11 1 0.16364 0.991404 0
882 1 0.188497 0.9856 0
883 1 0.196252 0.961909 0
884 1 0.214102 0.978025 0
885 1 0.238208 0.970828 0
886 1 0.231525 0.995774 0
17 1 0.256169 0.98952 0
887 1 0.262521 0.964644 0
858 1 0.28723 0.957361 0
888 1 0.282171 0.981691 0
889 1 0.305737 0.975318 0
19 1 0.299042 0.99961 0
862 1 0.352456 0.960421 0
890 1 0.322882 0.992676 0
891 1 0.329128 0.967533 0
892 1 0.346396 0.985658 0
864 1 0.376117 0.95493 0
893 1 0.3698 0.979093 0
895 1 0.393492 0.972697 0
894 1 0.388595 0.996616 0
866 1 0.418136 0.96521 0
896 1 0.412242 0.989843 0
897 1 0.447619 0.991418 0
867 1 0.441811 0.967957 0
899 1 0.471468 0.998685 0
868 1 0.465805 0.973688 0
1771 1 0.489475 0.980919 0
1741 1 0.48304 0.955949 0
902 1 0.542385 0.0174392 0
931 1 0.525804 0.0349952 0
901 1 0.519756 0.0110829 0
30 1 0.50177 0.0285344 0
933 1 0.549165 0.0409921 0
904 1 0.566438 0.0233977 0
906 1 0.583904 0.00519326 0
935 1 0.591219 0.0285415 0
908 1 0.608319 0.0113638 0
937 1 0.615457 0.0356387 0
939 1 0.632393 0.0173321 0
938 1 0.639345 0.0414712 0
941 1 0.656539 0.0236012 0
912 1 0.675421 0.00691445 0
942 1 0.680194 0.031346 0
943 1 0.699242 0.0139261 0
944 1 0.705309 0.0382792 0
975 1 0.729213 0.0349671 0
945 1 0.734917 0.0106029 0
916 1 0.758063 0.00262459 0
947 1 0.752828 0.0266265 0
948 1 0.772296 0.0432324 0
918 1 0.776941 0.0190776 0
919 1 0.801007 0.0120451 0
949 1 0.796189 0.0354673 0
951 1 0.820049 0.0280358 0
920 1 0.824996 0.00490056 0
922 1 0.843767 0.0219308 0
953 1 0.861833 0.0390958 0
952 1 0.838447 0.0458622 0
923 1 0.867036 0.014853 0
924 1 0.890216 0.00811701 0
954 1 0.885812 0.0319342 0
955 1 0.909407 0.0246705 0
926 1 0.932653 0.0174054 0
957 1 0.950782 0.03511 0
925 1 0.914081 0.000500423 0
930 1 0.999723 0.0199317 0
928 1 0.956247 0.0101458 0
959 1 0.974673 0.0271876 0
929 1 0.981301 0.00327022 0
960 1 0.994055 0.0438293 0
932 1 0.531714 0.0587204 0
962 1 0.5373 0.0837414 0
961 1 0.514238 0.0770156 0
60 1 0.508403 0.0525667 0
934 1 0.574133 0.0468583 0
963 1 0.555553 0.0653322 0
965 1 0.58005 0.0703404 0
964 1 0.560774 0.0891608 0
936 1 0.598331 0.0532257 0
966 1 0.603347 0.0778551 0
967 1 0.621324 0.0588097 0
968 1 0.627002 0.0823154 0
940 1 0.662577 0.0484095 0
969 1 0.644969 0.0653051 0
970 1 0.669319 0.0728274 0
999 1 0.650888 0.0892286 0
971 1 0.686313 0.0542376 0
972 1 0.693541 0.0784666 0
973 1 0.714256 0.0611709 0
1003 1 0.717171 0.0854463 0
974 1 0.739106 0.0729086 0
946 1 0.748375 0.0502611 0
977 1 0.765778 0.0668371 0
950 1 0.814035 0.0527891 0
979 1 0.790635 0.0603928 0
980 1 0.809044 0.077247 0
978 1 0.785066 0.0840752 0
981 1 0.832255 0.069352 0
983 1 0.856537 0.0633037 0
982 1 0.8514 0.0872365 0
985 1 0.88062 0.0565575 0
984 1 0.875563 0.0807286 0
986 1 0.900364 0.0725459 0
956 1 0.904718 0.0479453 0
987 1 0.944163 0.0593889 0
1017 1 0.938678 0.0832333 0
988 1 0.963171 0.0759547 0
958 1 0.968928 0.0512139 0
989 1 0.986641 0.0679639 0
991 1 0.519996 0.100949 0
992 1 0.526248 0.126176 0
993 1 0.543646 0.108558 0
120 1 0.50207 0.118575 0
994 1 0.566881 0.112802 0
995 1 0.584718 0.0956583 0
1023 1 0.549866 0.132477 0
996 1 0.590445 0.119304 0
997 1 0.608679 0.101822 0
998 1 0.632697 0.107117 0
1027 1 0.615856 0.125358 0
1029 1 0.639592 0.131888 0
1000 1 0.656776 0.113796 0
1001 1 0.674375 0.0963898 0
1031 1 0.680697 0.121285 0
1002 1 0.697421 0.103233 0
1004 1 0.720026 0.110929 0
1033 1 0.704413 0.128067 0
976 1 0.739083 0.0967748 0
1005 1 0.756187 0.11558 0
1007 1 0.761966 0.0907214 0
1035 1 0.728373 0.133722 0
1008 1 0.780231 0.108629 0
1009 1 0.803994 0.101219 0
1039 1 0.797697 0.125817 0
1037 1 0.775082 0.132604 0
1010 1 0.821922 0.118485 0
1011 1 0.827281 0.0939695 0
1012 1 0.845798 0.111788 0
1041 1 0.83871 0.135857 0
1043 1 0.863925 0.129009 0
1013 1 0.869656 0.104584 0
1014 1 0.887609 0.121038 0
1015 1 0.893699 0.097088 0
1016 1 0.91082 0.114178 0
1047 1 0.934711 0.107453 0
1046 1 0.929635 0.132081 0
1049 1 0.953275 0.124328 0
1019 1 0.982488 0.0925364 0
1018 1 0.958282 0.100109 0
1020 1 0.977521 0.116454 0
121 1 0.996042 0.132689 0
1022 1 0.532382 0.150591 0
1053 1 0.539152 0.17441 0
1051 1 0.515141 0.168579 0
1021 1 0.508468 0.143657 0
1025 1 0.572852 0.138172 0
1024 1 0.556807 0.156173 0
1055 1 0.580741 0.161894 0
1054 1 0.563044 0.17964 0
1026 1 0.597276 0.14361 0
1028 1 0.622008 0.149359 0
1057 1 0.605061 0.167246 0
1058 1 0.629386 0.174004 0
1030 1 0.663106 0.139505 0
1059 1 0.646299 0.156563 0
1061 1 0.670071 0.163218 0
1060 1 0.652802 0.180353 0
1032 1 0.687619 0.14623 0
1063 1 0.711663 0.1513 0
1062 1 0.694332 0.169849 0
1034 1 0.718811 0.175462 0
1006 1 0.752004 0.139986 0
1036 1 0.735867 0.157296 0
1067 1 0.761093 0.163141 0
1065 1 0.743057 0.18085 0
1038 1 0.792326 0.149948 0
1069 1 0.809566 0.166565 0
1068 1 0.784743 0.172475 0
1040 1 0.815366 0.142249 0
1071 1 0.833592 0.160792 0
1042 1 0.857564 0.153121 0
1072 1 0.852199 0.177711 0
1045 1 0.905663 0.139378 0
1044 1 0.881233 0.146774 0
1075 1 0.900625 0.16297 0
1073 1 0.877011 0.170658 0
1048 1 0.948532 0.148272 0
1077 1 0.92503 0.156366 0
1078 1 0.943655 0.173252 0
1076 1 0.919217 0.180079 0
1050 1 0.972732 0.140416 0
1079 1 0.967193 0.165098 0
151 1 0.990872 0.157959 0
1052 1 0.521744 0.192325 0
1082 1 0.529447 0.216449 0
1081 1 0.503866 0.20953 0
1083 1 0.546392 0.198112 0
1084 1 0.553019 0.221784 0
1056 1 0.587124 0.18547 0
1085 1 0.569909 0.203927 0
1086 1 0.594328 0.209938 0
1087 1 0.610813 0.191596 0
1088 1 0.618137 0.216758 0
1089 1 0.634624 0.198004 0
1091 1 0.676962 0.186569 0
1090 1 0.659307 0.204538 0
1119 1 0.642207 0.222906 0
1064 1 0.726237 0.198804 0
1092 1 0.683753 0.210691 0
1093 1 0.701181 0.193976 0
1123 1 0.708302 0.217853 0
1094 1 0.732128 0.223681 0
1066 1 0.766973 0.188648 0
1095 1 0.7504 0.205801 0
1097 1 0.775348 0.211447 0
1099 1 0.803702 0.192047 0
1098 1 0.799107 0.2187 0
1100 1 0.823358 0.210682 0
1070 1 0.827429 0.184815 0
1101 1 0.846382 0.201974 0
1131 1 0.842666 0.227114 0
1102 1 0.865978 0.218563 0
1103 1 0.871454 0.194694 0
1074 1 0.896204 0.1879 0
1104 1 0.890127 0.211713 0
1105 1 0.914082 0.204077 0
1107 1 0.937575 0.197534 0
1106 1 0.931417 0.221635 0
1108 1 0.954875 0.215623 0
1080 1 0.984639 0.182901 0
1109 1 0.961514 0.190254 0
1110 1 0.978855 0.207437 0
211 1 0.995329 0.226409 0
1111 1 0.511205 0.232992 0
1113 1 0.536129 0.239756 0
1112 1 0.517757 0.257065 0
1143 1 0.542026 0.263005 0
1115 1 0.577414 0.227985 0
1114 1 0.560135 0.24559 0
1116 1 0.585585 0.252046 0
1145 1 0.567122 0.269109 0
1117 1 0.601954 0.234421 0
1118 1 0.625539 0.240678 0
1147 1 0.610076 0.259915 0
1149 1 0.633654 0.266082 0
1121 1 0.666367 0.228672 0
1120 1 0.650076 0.246493 0
1151 1 0.674133 0.254468 0
1122 1 0.691225 0.235986 0
1124 1 0.715402 0.241692 0
1153 1 0.698606 0.260483 0
1154 1 0.722542 0.26639 0
1096 1 0.756883 0.228709 0
1125 1 0.739618 0.246361 0
1126 1 0.76292 0.25373 0
1155 1 0.746231 0.271196 0
1127 1 0.780671 0.234926 0
1129 1 0.803402 0.243437 0
1128 1 0.786616 0.261356 0
1159 1 0.810097 0.267711 0
1130 1 0.827857 0.247448 0