ITEM: TIMESTEP
18000
ITEM: NUMBER OF ATOMS
1800
ITEM: BOX BOUNDS pp pp pp
5.4988378637597179e-01 1.6445011621362522e+02
5.4988378637597179e-01 1.6445011621362522e+02
0.0000000000000000e+00 5.5000000000000000e+00
ITEM: ATOMS id type xs ys zs
2 1 0.0177917 0.0152325 0
3 1 0.0417483 0.00959707 0
33 1 0.0348488 0.0331385 0
31 1 0.0110023 0.0387995 0
4 1 0.0583829 0.0281389 0
5 1 0.0659668 0.00382221 0
6 1 0.0816875 0.0222993 0
8 1 0.104637 0.0175249 0
37 1 0.0994875 0.0415493 0
9 1 0.122948 0.00207343 0
39 1 0.12689 0.0272794 0
10 1 0.146151 0.0115596 0
41 1 0.16935 0.0206654 0
40 1 0.150562 0.035287 0
12 1 0.189485 0.00747462 0
43 1 0.190208 0.0334878 0
14 1 0.211438 0.0181574 0
44 1 0.21318 0.0435637 0
15 1 0.231932 0.00403362 0
45 1 0.233674 0.0289984 0
16 1 0.25434 0.0133358 0
46 1 0.255978 0.0387764 0
18 1 0.2814 0.0221096 0
49 1 0.302632 0.0352148 0
20 1 0.314439 0.0126193 0
51 1 0.330514 0.0315362 0
22 1 0.356612 0.0251522 0
21 1 0.340228 0.00717657 0
53 1 0.373521 0.0434338 0
24 1 0.381835 0.0197188 0
55 1 0.397506 0.0382007 0
25 1 0.405954 0.0151158 0
23 1 0.364774 0.00227339 0
26 1 0.422172 0.0335298 0
28 1 0.446439 0.0297552 0
27 1 0.43102 0.0106654 0
30 1 0.497268 0.0307179 0
29 1 0.470931 0.0240537 0
900 1 0.48972 0.00669785 0
898 1 0.454901 0.00388099 0
32 1 0.027941 0.0573166 0
62 1 0.0199637 0.0812708 0
63 1 0.0434621 0.0758159 0
61 1 0.00392103 0.0624527 0
35 1 0.075422 0.0462165 0
34 1 0.0514247 0.0518604 0
36 1 0.0902615 0.0654084 0
65 1 0.0669832 0.070217 0
66 1 0.0832683 0.0888783 0
38 1 0.11341 0.0620798 0
67 1 0.107358 0.0855663 0
68 1 0.131651 0.0781356 0
69 1 0.133813 0.050764 0
71 1 0.153086 0.0653746 0
42 1 0.171002 0.0490717 0
72 1 0.174279 0.0760726 0
70 1 0.152799 0.0916412 0
73 1 0.19249 0.0594401 0
74 1 0.216091 0.0697325 0
103 1 0.196509 0.0864981 0
75 1 0.235639 0.0538394 0
77 1 0.258027 0.0637886 0
76 1 0.239442 0.0785425 0
107 1 0.261403 0.089258 0
47 1 0.278833 0.0470539 0
48 1 0.279637 0.0726489 0
79 1 0.301832 0.0824671 0
50 1 0.300048 0.0581989 0
80 1 0.324666 0.0902552 0
81 1 0.323738 0.0539842 0
52 1 0.349411 0.0484403 0
82 1 0.340643 0.0715222 0
83 1 0.365575 0.0680425 0
54 1 0.393915 0.0693394 0
113 1 0.379528 0.0901872 0
57 1 0.437503 0.054196 0
56 1 0.413718 0.0560633 0
85 1 0.426563 0.0760139 0
87 1 0.449218 0.0850318 0
59 1 0.479996 0.0475773 0
58 1 0.461776 0.0635954 0
88 1 0.471427 0.0915589 0
89 1 0.486109 0.0716382 0
92 1 0.0268009 0.123128 0
93 1 0.035706 0.0996982 0
91 1 0.0114135 0.104774 0
121 1 0.00355852 0.129 0
64 1 0.0590677 0.0938957 0
94 1 0.0508124 0.118604 0
95 1 0.074734 0.112556 0
96 1 0.0910598 0.131252 0
97 1 0.0992387 0.107899 0
98 1 0.114833 0.125729 0
99 1 0.126123 0.10262 0
100 1 0.156719 0.115893 0
101 1 0.176612 0.101187 0
131 1 0.179729 0.12625 0
129 1 0.137285 0.134989 0
102 1 0.19918 0.111056 0
104 1 0.221865 0.121481 0
105 1 0.218981 0.0948227 0
133 1 0.201218 0.138676 0
106 1 0.241093 0.104478 0
135 1 0.244577 0.130377 0
137 1 0.264457 0.114778 0
78 1 0.283618 0.0979458 0
108 1 0.287607 0.12223 0
109 1 0.306675 0.106572 0
139 1 0.311312 0.129823 0
110 1 0.329682 0.112938 0
111 1 0.348588 0.0955057 0
141 1 0.351495 0.121046 0
84 1 0.406637 0.0925776 0
112 1 0.391125 0.111761 0
143 1 0.374646 0.12968 0
115 1 0.414265 0.118807 0
86 1 0.43082 0.101367 0
116 1 0.437427 0.12648 0
117 1 0.454308 0.109089 0
118 1 0.461896 0.133067 0
90 1 0.494994 0.0969324 0
119 1 0.47819 0.115118 0
123 1 0.0424388 0.141445 0
122 1 0.0177695 0.148357 0
153 1 0.0346604 0.165159 0
152 1 0.0039853 0.175374 0
125 1 0.0668532 0.135987 0
124 1 0.0589551 0.159874 0
126 1 0.0832034 0.154578 0
155 1 0.0751013 0.178247 0
127 1 0.107909 0.149331 0
128 1 0.122995 0.168601 0
157 1 0.0990945 0.173185 0
159 1 0.144634 0.158325 0
130 1 0.161262 0.141465 0
161 1 0.164311 0.174546 0
132 1 0.183544 0.155516 0
134 1 0.224997 0.14656 0
163 1 0.206205 0.164051 0
162 1 0.188911 0.181876 0
136 1 0.26861 0.139302 0
164 1 0.229672 0.172168 0
165 1 0.248052 0.154729 0
166 1 0.253116 0.179335 0
167 1 0.272448 0.163193 0
138 1 0.291518 0.146755 0
169 1 0.315215 0.155179 0
168 1 0.296516 0.171056 0
170 1 0.31957 0.178394 0
140 1 0.333875 0.137907 0
142 1 0.356655 0.146386 0
171 1 0.338797 0.162671 0
172 1 0.362038 0.16981 0
114 1 0.39726 0.136395 0
144 1 0.403068 0.160559 0
173 1 0.379619 0.15292 0
174 1 0.38546 0.177924 0
145 1 0.420678 0.143505 0
146 1 0.426799 0.167598 0
147 1 0.444132 0.150379 0
177 1 0.45062 0.174332 0
149 1 0.485104 0.138983 0
148 1 0.467354 0.157115 0
150 1 0.491473 0.163104 0
179 1 0.474508 0.180918 0
183 1 0.0258548 0.187685 0
182 1 0.0191806 0.211662 0
184 1 0.0429546 0.205849 0
154 1 0.0507825 0.183277 0
185 1 0.0669734 0.201049 0
186 1 0.0834702 0.220213 0
215 1 0.059314 0.22479 0
156 1 0.0919268 0.197192 0
158 1 0.115298 0.191886 0
187 1 0.108771 0.21628 0
189 1 0.131681 0.208892 0
160 1 0.141457 0.185907 0
191 1 0.170437 0.199515 0
190 1 0.153901 0.217311 0
221 1 0.177433 0.224362 0
193 1 0.212442 0.189102 0
192 1 0.19434 0.207349 0
194 1 0.217463 0.214537 0
195 1 0.235132 0.197425 0
196 1 0.259381 0.204409 0
225 1 0.240857 0.222024 0
197 1 0.277107 0.187897 0
199 1 0.301501 0.194503 0
198 1 0.283232 0.2115 0
229 1 0.30717 0.219107 0
201 1 0.342943 0.186545 0
200 1 0.325682 0.202775 0
202 1 0.348946 0.209938 0
231 1 0.331814 0.227859 0
203 1 0.367742 0.194638 0
233 1 0.372835 0.218157 0
204 1 0.392089 0.201405 0
235 1 0.397177 0.225449 0
175 1 0.409381 0.184837 0
205 1 0.415875 0.208341 0
176 1 0.433842 0.19159 0
207 1 0.43955 0.215219 0
178 1 0.456848 0.198572 0
208 1 0.462552 0.22313 0
180 1 0.498414 0.187452 0
209 1 0.479975 0.204671 0
213 1 0.0355717 0.230046 0
212 1 0.0121987 0.235839 0
243 1 0.0279007 0.254812 0
241 1 0.00438145 0.259611 0
244 1 0.0444034 0.272119 0
216 1 0.0754432 0.243425 0
214 1 0.0513549 0.248133 0
245 1 0.0675278 0.266259 0
188 1 0.128043 0.233449 0
217 1 0.0990767 0.238419 0
218 1 0.115929 0.255096 0
247 1 0.0921835 0.262175 0
219 1 0.14084 0.254888 0
220 1 0.159949 0.240687 0
251 1 0.16461 0.26641 0
222 1 0.182682 0.250125 0
223 1 0.200793 0.23223 0
224 1 0.22334 0.238559 0
253 1 0.206121 0.256119 0
227 1 0.26498 0.228898 0
226 1 0.247297 0.245939 0
257 1 0.271511 0.252519 0
255 1 0.229222 0.263001 0
256 1 0.252532 0.269416 0
228 1 0.289549 0.2355 0
230 1 0.31397 0.24325 0
259 1 0.294932 0.259508 0
260 1 0.318974 0.267295 0
232 1 0.355755 0.23479 0
261 1 0.337754 0.251722 0
263 1 0.361312 0.258593 0
234 1 0.379006 0.241853 0
265 1 0.40364 0.249314 0
264 1 0.385023 0.26524 0
206 1 0.421161 0.232427 0
236 1 0.42722 0.256541 0
237 1 0.444707 0.239457 0
238 1 0.450809 0.264026 0
210 1 0.48644 0.229227 0
239 1 0.468725 0.247162 0
240 1 0.491682 0.254192 0
269 1 0.47453 0.271621 0
242 1 0.0105146 0.283765 0
273 1 0.0330705 0.293204 0
271 1 0.0141129 0.308468 0
272 1 0.0379328 0.317466 0
246 1 0.0825749 0.283933 0
275 1 0.0587344 0.292195 0
276 1 0.0792906 0.306797 0
249 1 0.127662 0.275035 0
248 1 0.106143 0.286425 0
277 1 0.103828 0.310525 0
279 1 0.128123 0.300194 0
250 1 0.148493 0.285372 0
280 1 0.152994 0.309263 0
281 1 0.171723 0.29205 0
282 1 0.177047 0.31658 0
252 1 0.189303 0.274172 0
254 1 0.212969 0.281419 0
283 1 0.194936 0.298849 0
284 1 0.218041 0.305437 0
285 1 0.236331 0.287663 0
287 1 0.259967 0.294214 0
286 1 0.242012 0.312008 0
258 1 0.276332 0.276709 0
288 1 0.283019 0.301225 0
289 1 0.300668 0.283726 0
290 1 0.305735 0.308763 0
262 1 0.342679 0.27518 0
291 1 0.323697 0.291525 0
292 1 0.347145 0.299023 0
321 1 0.329036 0.316686 0
266 1 0.409838 0.273703 0
293 1 0.366375 0.283157 0
295 1 0.390216 0.288314 0
296 1 0.400405 0.311134 0
294 1 0.374261 0.308223 0
267 1 0.433335 0.280533 0
297 1 0.42403 0.30503 0
1141 1 0.497828 0.278284 0
268 1 0.456035 0.288949 0
270 1 0.480277 0.295691 0
299 1 0.461724 0.312014 0
302 1 0.0241897 0.360625 0
303 1 0.0429042 0.342021 0
301 1 0.019233 0.333493 0
1230 1 0.000995161 0.349935 0
274 1 0.0615611 0.323761 0
304 1 0.0672489 0.348358 0
305 1 0.08499 0.330041 0
306 1 0.0921661 0.352421 0
278 1 0.133379 0.325026 0
307 1 0.109572 0.334945 0
308 1 0.116803 0.357252 0
309 1 0.140447 0.348972 0
311 1 0.159365 0.333341 0
310 1 0.164965 0.357624 0
312 1 0.183222 0.340368 0
313 1 0.200592 0.323326 0
314 1 0.207319 0.347497 0
315 1 0.224733 0.32928 0
345 1 0.230991 0.353853 0
317 1 0.265465 0.318066 0
316 1 0.247947 0.335853 0
318 1 0.272011 0.342614 0
347 1 0.255394 0.360261 0
319 1 0.289454 0.326052 0
349 1 0.294509 0.352181 0
320 1 0.318302 0.347169 0
323 1 0.352594 0.321357 0
322 1 0.342239 0.343725 0
353 1 0.359732 0.362627 0
324 1 0.367607 0.339326 0
325 1 0.391041 0.333091 0
355 1 0.384244 0.35681 0
326 1 0.407688 0.351038 0
298 1 0.44009 0.323151 0
327 1 0.416572 0.32901 0
328 1 0.432815 0.346583 0
300 1 0.484832 0.320504 0
329 1 0.464734 0.336139 0
1201 1 0.490573 0.344974 0
330 1 0.471701 0.359828 0
332 1 0.0326944 0.384643 0
361 1 0.0164342 0.405513 0
331 1 0.00856106 0.381781 0
333 1 0.0499437 0.365979 0
335 1 0.0736574 0.371481 0
334 1 0.0563986 0.390551 0
336 1 0.0807869 0.394643 0
337 1 0.0983387 0.375706 0
338 1 0.122044 0.380953 0
367 1 0.10424 0.398582 0
369 1 0.127085 0.404567 0
339 1 0.145846 0.372543 0
341 1 0.170817 0.382016 0
340 1 0.150991 0.396878 0
343 1 0.188959 0.364035 0
342 1 0.194866 0.390537 0
344 1 0.212624 0.371613 0
375 1 0.21912 0.397264 0
346 1 0.236207 0.377671 0
377 1 0.261041 0.384288 0
376 1 0.243169 0.40348 0
348 1 0.286239 0.377186 0
350 1 0.310763 0.371337 0
379 1 0.303322 0.39538 0
378 1 0.2793 0.402009 0
351 1 0.334964 0.367052 0
381 1 0.327152 0.390142 0
352 1 0.351828 0.385096 0
383 1 0.368377 0.404082 0
354 1 0.376464 0.379897 0
385 1 0.391675 0.398242 0
356 1 0.400411 0.375357 0
357 1 0.423803 0.369882 0
358 1 0.441083 0.387561 0
387 1 0.416919 0.393917 0
359 1 0.448587 0.364337 0
1231 1 0.495648 0.369721 0
360 1 0.465437 0.383516 0
389 1 0.457864 0.406487 0
1232 1 0.482701 0.400143 0
363 1 0.0413499 0.409701 0
362 1 0.0251411 0.428696 0
393 1 0.0342011 0.45238 0
392 1 0.00916588 0.448796 0
364 1 0.0499899 0.433215 0
365 1 0.0657949 0.413466 0
366 1 0.0906044 0.41903 0
395 1 0.0747338 0.437178 0
397 1 0.0998867 0.442184 0
368 1 0.120013 0.42858 0
399 1 0.140851 0.44432 0
371 1 0.173718 0.409349 0
370 1 0.143999 0.420502 0
401 1 0.164869 0.43196 0
372 1 0.18824 0.436459 0
373 1 0.199946 0.414827 0
403 1 0.211938 0.441823 0
374 1 0.22527 0.421146 0
404 1 0.235239 0.448782 0
405 1 0.248572 0.427966 0
407 1 0.272556 0.426506 0
406 1 0.2632 0.449111 0
408 1 0.288238 0.444569 0
409 1 0.296212 0.419719 0
410 1 0.312252 0.438162 0
380 1 0.320157 0.41373 0
411 1 0.336138 0.4336 0
382 1 0.343177 0.408547 0
412 1 0.353026 0.451674 0
413 1 0.360964 0.427747 0
384 1 0.385164 0.422713 0
414 1 0.378199 0.446355 0
415 1 0.402194 0.441214 0
386 1 0.408159 0.416676 0
388 1 0.432485 0.412148 0
417 1 0.425196 0.434716 0
418 1 0.442067 0.452732 0
419 1 0.449964 0.428955 0
1291 1 0.492041 0.441972 0
1261 1 0.475458 0.424137 0
390 1 0.46807 0.446618 0
451 1 0.00267241 0.490296 0
422 1 0.0191177 0.472578 0
423 1 0.0440462 0.474893 0
453 1 0.027455 0.495377 0
424 1 0.0523445 0.497927 0
394 1 0.0590684 0.455726 0
396 1 0.0831195 0.459757 0
425 1 0.0678544 0.479261 0
1262 1 0.499095 0.418997 0
398 1 0.120104 0.45864 0
427 1 0.093454 0.481539 0
428 1 0.12146 0.485878 0
429 1 0.142221 0.470408 0
400 1 0.162558 0.455494 0
430 1 0.147402 0.494201 0
431 1 0.168481 0.47894 0
402 1 0.186524 0.461028 0
432 1 0.193291 0.48481 0
433 1 0.211127 0.466334 0
434 1 0.217932 0.492162 0
465 1 0.24381 0.498801 0
435 1 0.234811 0.474473 0
436 1 0.259403 0.474693 0
467 1 0.275566 0.492772 0
437 1 0.282657 0.468628 0
438 1 0.299141 0.486212 0
439 1 0.305425 0.462602 0
471 1 0.339197 0.498413 0
440 1 0.322508 0.480168 0
441 1 0.329471 0.456313 0
442 1 0.346216 0.47444 0
473 1 0.363044 0.493681 0
443 1 0.370503 0.469744 0
445 1 0.394623 0.465109 0
444 1 0.387577 0.487563 0
416 1 0.418592 0.459171 0
446 1 0.413018 0.482309 0
447 1 0.436712 0.478646 0
449 1 0.454092 0.495672 0
450 1 0.477603 0.48976 0
420 1 0.460573 0.470012 0
1321 1 0.485205 0.465545 0
452 1 0.0112486 0.513462 0
483 1 0.0188266 0.535402 0
454 1 0.0367908 0.519406 0
485 1 0.0446492 0.544778 0
455 1 0.0612445 0.520341 0
456 1 0.0861795 0.524057 0
486 1 0.0705366 0.543285 0
458 1 0.111441 0.528436 0
459 1 0.12891 0.510398 0
457 1 0.104078 0.505252 0
489 1 0.13565 0.53497 0
460 1 0.153999 0.518293 0
491 1 0.160524 0.542042 0
462 1 0.178837 0.525615 0
461 1 0.1738 0.502412 0
463 1 0.198009 0.509021 0
493 1 0.203394 0.532484 0
464 1 0.221933 0.515768 0
466 1 0.245149 0.523618 0
495 1 0.227811 0.540466 0
497 1 0.267741 0.51543 0
468 1 0.291906 0.511584 0
499 1 0.306706 0.531088 0
498 1 0.283151 0.536031 0
469 1 0.314857 0.505012 0
470 1 0.330215 0.524416 0
472 1 0.354104 0.517792 0
501 1 0.347677 0.541926 0
503 1 0.371287 0.534002 0
474 1 0.379305 0.51073 0
475 1 0.405598 0.505915 0
476 1 0.397444 0.528157 0
477 1 0.42173 0.526288 0
478 1 0.445942 0.519915 0
448 1 0.429215 0.501033 0
480 1 0.4637 0.538399 0
479 1 0.470506 0.513881 0
1381 1 0.487317 0.530818 0
1351 1 0.494615 0.506607 0
482 1 0.00181905 0.554912 0
513 1 0.0175578 0.571963 0
484 1 0.0407423 0.568795 0
514 1 0.0602681 0.586191 0
515 1 0.0767906 0.566438 0
516 1 0.0852956 0.588825 0
487 1 0.095142 0.546986 0
488 1 0.118925 0.552983 0
517 1 0.101681 0.570557 0
519 1 0.12547 0.576636 0
490 1 0.142388 0.559041 0
520 1 0.149379 0.582746 0
521 1 0.166574 0.565448 0
522 1 0.172827 0.588965 0
492 1 0.184607 0.549283 0
523 1 0.190963 0.572457 0
494 1 0.209336 0.556698 0
524 1 0.214176 0.580464 0
496 1 0.252233 0.54823 0
525 1 0.233831 0.564996 0
526 1 0.256431 0.575651 0
555 1 0.236303 0.590624 0
527 1 0.274697 0.559489 0
529 1 0.299917 0.556273 0
528 1 0.278689 0.584688 0
500 1 0.324575 0.550602 0
530 1 0.320931 0.579456 0
531 1 0.343249 0.568354 0
505 1 0.389086 0.550089 0
502 1 0.366129 0.558383 0
533 1 0.363889 0.583193 0
504 1 0.385732 0.57337 0
535 1 0.407966 0.580792 0
507 1 0.439868 0.54286 0
506 1 0.413307 0.55396 0
508 1 0.432136 0.569269 0
539 1 0.451551 0.586049 0
509 1 0.456294 0.5623 0
510 1 0.481229 0.554688 0
540 1 0.47502 0.578256 0
512 1 0.033678 0.591069 0
541 1 0.00557914 0.593029 0
542 1 0.0211222 0.612169 0
571 1 0.00757956 0.633308 0
544 1 0.0339178 0.634156 0
545 1 0.0699879 0.608176 0
543 1 0.0456662 0.612126 0
546 1 0.0796196 0.631245 0
518 1 0.109673 0.594239 0
547 1 0.095137 0.612556 0
548 1 0.119421 0.619891 0
549 1 0.136009 0.603115 0
550 1 0.14398 0.628475 0
551 1 0.160292 0.610545 0
581 1 0.170617 0.634704 0
553 1 0.195644 0.595897 0
552 1 0.192884 0.620256 0
554 1 0.216738 0.606409 0
583 1 0.216111 0.63061 0
556 1 0.238696 0.615427 0
557 1 0.258686 0.600145 0
587 1 0.26039 0.625657 0
559 1 0.301205 0.595383 0
558 1 0.280812 0.610186 0
560 1 0.302031 0.622289 0
589 1 0.281916 0.636096 0
532 1 0.342089 0.595696 0
561 1 0.322388 0.609411 0
562 1 0.344218 0.621829 0
591 1 0.323582 0.633967 0
534 1 0.386109 0.596453 0
563 1 0.36465 0.608989 0
564 1 0.365922 0.63396 0
565 1 0.386488 0.620721 0
536 1 0.40721 0.607599 0
566 1 0.407518 0.632083 0
537 1 0.428426 0.594699 0
567 1 0.42836 0.620721 0
538 1 0.44803 0.609167 0
568 1 0.461883 0.627937 0
569 1 0.469834 0.602776 0
570 1 0.485513 0.621482 0
1441 1 0.492971 0.595597 0
573 1 0.0199427 0.654194 0
603 1 0.0130895 0.67682 0
574 1 0.0432273 0.661074 0
575 1 0.0586542 0.642655 0
605 1 0.066487 0.668704 0
576 1 0.0855149 0.654329 0
607 1 0.0905026 0.678187 0
577 1 0.10341 0.637974 0
578 1 0.108746 0.66182 0
579 1 0.127602 0.645311 0
609 1 0.133424 0.66952 0
580 1 0.152367 0.652171 0
611 1 0.174991 0.660839 0
610 1 0.156442 0.677361 0
582 1 0.194065 0.645205 0
584 1 0.218316 0.655801 0
613 1 0.197623 0.670006 0
614 1 0.221205 0.68056 0
585 1 0.238921 0.640125 0
586 1 0.261698 0.650935 0
615 1 0.240849 0.665542 0
617 1 0.263739 0.674974 0
588 1 0.283764 0.661093 0
590 1 0.3038 0.647241 0
619 1 0.306384 0.673758 0
593 1 0.345016 0.646293 0
621 1 0.325004 0.658865 0
592 1 0.344893 0.671598 0
595 1 0.386164 0.646481 0
594 1 0.366131 0.659534 0
625 1 0.388147 0.671985 0
597 1 0.430954 0.644806 0
596 1 0.409037 0.655928 0
598 1 0.434217 0.669331 0
627 1 0.411963 0.679001 0
599 1 0.453915 0.653802 0
600 1 0.477934 0.645996 0
629 1 0.471717 0.670102 0
1501 1 0.496205 0.662429 0
602 1 0.00329513 0.699284 0
633 1 0.0281996 0.696536 0
634 1 0.0285884 0.721949 0
604 1 0.0485958 0.684494 0
606 1 0.0707587 0.693557 0
635 1 0.0501527 0.708425 0
636 1 0.0753387 0.717725 0
608 1 0.114629 0.685563 0
637 1 0.0954352 0.701386 0
638 1 0.11913 0.710089 0
639 1 0.137638 0.694454 0
641 1 0.161164 0.702896 0
640 1 0.142291 0.719448 0
671 1 0.16549 0.728742 0
612 1 0.17947 0.686758 0
643 1 0.202426 0.69631 0
642 1 0.183753 0.711957 0
644 1 0.206854 0.721754 0
645 1 0.224572 0.704828 0
616 1 0.244335 0.690581 0
647 1 0.267291 0.701296 0
646 1 0.247086 0.714996 0
618 1 0.285606 0.685447 0
620 1 0.31537 0.699028 0
649 1 0.291388 0.708816 0
650 1 0.308592 0.725584 0
622 1 0.34004 0.695441 0
651 1 0.332434 0.718077 0
653 1 0.357963 0.711941 0
623 1 0.364746 0.687224 0
624 1 0.381454 0.706127 0
655 1 0.398584 0.724834 0
626 1 0.405601 0.701386 0
657 1 0.429881 0.694794 0
656 1 0.422929 0.718345 0
658 1 0.447203 0.711118 0
628 1 0.452783 0.686222 0
630 1 0.490134 0.686523 0
659 1 0.471861 0.704046 0
660 1 0.488159 0.72138 0
662 1 0.000914434 0.762922 0
663 1 0.00881429 0.739581 0
664 1 0.0335758 0.745715 0
694 1 0.0383567 0.769367 0
665 1 0.0547398 0.732367 0
666 1 0.0788215 0.74128 0
695 1 0.0589934 0.756476 0
697 1 0.0813389 0.766964 0
667 1 0.0987767 0.725575 0
669 1 0.121854 0.734549 0
668 1 0.101942 0.749993 0
699 1 0.124624 0.76087 0
670 1 0.144175 0.74512 0
701 1 0.148394 0.771978 0
672 1 0.166772 0.754102 0
673 1 0.18842 0.737915 0
674 1 0.210994 0.75146 0
703 1 0.188783 0.763304 0
705 1 0.231936 0.768755 0
675 1 0.229928 0.733391 0
677 1 0.256283 0.737602 0
676 1 0.255845 0.762587 0
648 1 0.281903 0.73202 0
679 1 0.302511 0.749193 0
678 1 0.27842 0.756404 0
680 1 0.320098 0.76684 0
652 1 0.350582 0.735444 0
681 1 0.326958 0.743324 0
682 1 0.344481 0.760542 0
654 1 0.374561 0.730677 0
683 1 0.368593 0.753857 0
684 1 0.38572 0.771854 0
685 1 0.392531 0.74835 0
715 1 0.411611 0.765875 0
686 1 0.416605 0.74177 0
687 1 0.440859 0.735478 0
717 1 0.434695 0.759217 0
689 1 0.464205 0.727694 0
688 1 0.458575 0.751367 0
690 1 0.481873 0.74576 0
719 1 0.475899 0.769571 0
693 1 0.0168546 0.781058 0
692 1 0.0130097 0.805277 0
723 1 0.0378004 0.793925 0
696 1 0.0603868 0.78082 0
725 1 0.0612277 0.805341 0
727 1 0.0824541 0.791193 0
726 1 0.0847807 0.815666 0
698 1 0.104138 0.775695 0
728 1 0.105199 0.799976 0
700 1 0.126652 0.786817 0
729 1 0.126534 0.811955 0
731 1 0.150107 0.797527 0
732 1 0.173916 0.807475 0
702 1 0.171791 0.782916 0
704 1 0.208905 0.776159 0
733 1 0.198394 0.799066 0
735 1 0.226165 0.793668 0
734 1 0.218675 0.81758 0
706 1 0.249411 0.786888 0
736 1 0.243311 0.811392 0
737 1 0.266873 0.804541 0
709 1 0.296412 0.774758 0
707 1 0.272785 0.780774 0
708 1 0.290768 0.798756 0
710 1 0.31476 0.792062 0
739 1 0.309041 0.815981 0
713 1 0.362047 0.778342 0
711 1 0.337295 0.784755 0
712 1 0.355822 0.801143 0
741 1 0.33369 0.810077 0
714 1 0.403998 0.788214 0
743 1 0.380233 0.796257 0
745 1 0.413298 0.810103 0
718 1 0.452782 0.775141 0
716 1 0.429361 0.785218 0
747 1 0.451521 0.798834 0
899 1 0.484951 0.983942 0
720 1 0.492805 0.78774 0
749 1 0.475951 0.804975 0
722 1 0.037706 0.818189 0
751 1 0.0173286 0.832184 0
752 1 0.0201694 0.856969 0
753 1 0.0403998 0.842436 0
724 1 0.0623183 0.829584 0
755 1 0.0850512 0.840899 0
754 1 0.0628419 0.854665 0
756 1 0.107772 0.850848 0
757 1 0.106815 0.82509 0
759 1 0.128744 0.836164 0
758 1 0.130689 0.861713 0
730 1 0.149482 0.821931 0
760 1 0.151153 0.846649 0
761 1 0.171962 0.832917 0
791 1 0.171144 0.860907 0
763 1 0.194595 0.823212 0
762 1 0.191147 0.847706 0
764 1 0.213671 0.841708 0
795 1 0.231335 0.858685 0
767 1 0.261321 0.828855 0
765 1 0.237478 0.834707 0
766 1 0.255129 0.853119 0
738 1 0.284727 0.823037 0
768 1 0.279127 0.846727 0
769 1 0.302424 0.840826 0
799 1 0.297047 0.864109 0
770 1 0.322184 0.858096 0
740 1 0.326551 0.833742 0
771 1 0.351098 0.834305 0
772 1 0.356052 0.859411 0
742 1 0.370796 0.819865 0
744 1 0.394043 0.826969 0
773 1 0.375942 0.844469 0
774 1 0.399713 0.851973 0
746 1 0.435688 0.816977 0
775 1 0.417913 0.834878 0
777 1 0.441258 0.841056 0
776 1 0.424292 0.858396 0
748 1 0.459603 0.822623 0
750 1 0.483372 0.829285 0
779 1 0.46622 0.846441 0
780 1 0.490376 0.852178 0
783 1 0.0426716 0.867659 0
782 1 0.0223325 0.881402 0
813 1 0.0439086 0.893987 0
812 1 0.0194435 0.905451 0
785 1 0.0851582 0.865446 0
784 1 0.0649706 0.879891 0
815 1 0.0657747 0.905428 0
786 1 0.0871249 0.890959 0
787 1 0.108104 0.875352 0
788 1 0.130735 0.88776 0
817 1 0.109864 0.901987 0
789 1 0.151015 0.873368 0
790 1 0.153812 0.898685 0
792 1 0.173551 0.8845 0
793 1 0.206136 0.866657 0
823 1 0.1974 0.892337 0
794 1 0.224153 0.882255 0
824 1 0.217979 0.90594 0
797 1 0.272393 0.870421 0
796 1 0.247766 0.876632 0
825 1 0.241411 0.900984 0
827 1 0.265201 0.894663 0
798 1 0.289775 0.887606 0
800 1 0.31413 0.88241 0
829 1 0.307636 0.905372 0
801 1 0.339092 0.877202 0
831 1 0.332551 0.900104 0
802 1 0.362945 0.886379 0
803 1 0.380829 0.868498 0
805 1 0.405251 0.875572 0
804 1 0.388194 0.89364 0
806 1 0.412626 0.899946 0
778 1 0.448266 0.864242 0
807 1 0.430391 0.882408 0
808 1 0.45427 0.888217 0
809 1 0.472113 0.870547 0
810 1 0.478459 0.893387 0
1681 1 0.496073 0.875845 0
842 1 0.0110321 0.950381 0
843 1 0.0221153 0.928904 0
814 1 0.045135 0.918375 0
844 1 0.0417867 0.942883 0
816 1 0.0888824 0.915868 0
845 1 0.0675215 0.931424 0
847 1 0.093208 0.939693 0
819 1 0.133413 0.913055 0
818 1 0.113416 0.926198 0
848 1 0.115132 0.952592 0
849 1 0.136246 0.937918 0
821 1 0.176462 0.908648 0
820 1 0.156208 0.923415 0
850 1 0.158934 0.94851 0
851 1 0.178793 0.933791 0
822 1 0.197954 0.919692 0
853 1 0.201846 0.944028 0
854 1 0.225204 0.952021 0
855 1 0.231831 0.925471 0
826 1 0.258354 0.91832 0
856 1 0.250445 0.941578 0
828 1 0.283264 0.911666 0
857 1 0.276389 0.934581 0
858 1 0.293361 0.952381 0
859 1 0.300329 0.929046 0
860 1 0.31728 0.947856 0
830 1 0.324491 0.923915 0
832 1 0.348456 0.91805 0
861 1 0.3417 0.941844 0
863 1 0.365584 0.935222 0
833 1 0.372322 0.911223 0
834 1 0.389346 0.928962 0
864 1 0.381226 0.95432 0
865 1 0.404381 0.948728 0
837 1 0.436854 0.90659 0
835 1 0.414229 0.924727 0
838 1 0.447403 0.930091 0
836 1 0.427948 0.944575 0
839 1 0.462078 0.91158 0
1741 1 0.494336 0.942442 0
840 1 0.485826 0.918775 0
869 1 0.470029 0.938096 0
872 1 0.023703 0.990697 0
873 1 0.0296299 0.966131 0
871 1 0.00515385 0.973772 0
874 1 0.047662 0.986547 0
846 1 0.0752077 0.955149 0
875 1 0.0534532 0.963539 0
876 1 0.0716453 0.980454 0
7 1 0.0912886 0.995381 0
877 1 0.0954966 0.969919 0
878 1 0.118184 0.978089 0
879 1 0.138023 0.963014 0
880 1 0.142407 0.98673 0
881 1 0.161959 0.972759 0
11 1 0.16509 0.99679 0
852 1 0.181735 0.958205 0
882 1 0.184828 0.982654 0
883 1 0.205082 0.968248 0
13 1 0.208192 0.992735 0
884 1 0.227406 0.978551 0
885 1 0.246573 0.964924 0
886 1 0.250355 0.988966 0
887 1 0.269395 0.957846 0
888 1 0.284745 0.975614 0
889 1 0.309308 0.971683 0
19 1 0.298996 0.994348 0
17 1 0.275199 0.998236 0
862 1 0.357243 0.959871 0
890 1 0.324316 0.989939 0
891 1 0.333379 0.965847 0
892 1 0.348901 0.984475 0
893 1 0.373261 0.978449 0
895 1 0.398169 0.972797 0
894 1 0.389695 0.995996 0
867 1 0.448504 0.958519 0
896 1 0.413717 0.991967 0
866 1 0.42283 0.968309 0
897 1 0.437797 0.987047 0
868 1 0.460702 0.980394 0
870 1 0.476599 0.961352 0
1 1 0.000135523 0.997022 0
426 1 0.0789477 0.50201 0
902 1 0.5377 0.0183599 0
931 1 0.52045 0.0364695 0
901 1 0.514204 0.0124693 0
933 1 0.544864 0.0421998 0
904 1 0.562132 0.0234792 0
935 1 0.586284 0.0289341 0
906 1 0.579221 0.00501949 0
908 1 0.603522 0.0109771 0
937 1 0.610481 0.0339881 0
939 1 0.627556 0.0161175 0
938 1 0.634466 0.0396819 0
941 1 0.652215 0.0211489 0
912 1 0.670913 0.00468019 0
940 1 0.660199 0.0436039 0
942 1 0.68104 0.0281565 0
943 1 0.712028 0.0172968 0
944 1 0.705568 0.0408713 0
945 1 0.730451 0.0343869 0
914 1 0.73524 0.00910874 0
916 1 0.758412 0.0019746 0
947 1 0.754009 0.0267132 0
948 1 0.774081 0.0430641 0
918 1 0.777452 0.0184547 0
919 1 0.801067 0.00944228 0
949 1 0.798176 0.0359612 0
920 1 0.820154 0.0256656 0
1790 1 0.824713 0.00186391 0
951 1 0.837814 0.0416816 0
922 1 0.844859 0.0189583 0
953 1 0.865948 0.0336891 0
924 1 0.886281 0.0160607 0
954 1 0.890101 0.042429 0
955 1 0.907975 0.0273428 0
925 1 0.909462 0.00267154 0
926 1 0.929686 0.0175975 0
928 1 0.952724 0.0110761 0
957 1 0.945439 0.0350866 0
930 1 0.99406 0.0208994 0
959 1 0.969267 0.0281076 0
929 1 0.975851 0.00448749 0
932 1 0.527304 0.0605563 0
962 1 0.534316 0.084056 0
961 1 0.510399 0.07748 0
60 1 0.502834 0.0538039 0
963 1 0.551351 0.0665686 0
934 1 0.568228 0.0479439 0
965 1 0.5756 0.0726919 0
964 1 0.557942 0.0911948 0
936 1 0.591841 0.0534352 0
966 1 0.599276 0.078233 0
967 1 0.615468 0.0579174 0
968 1 0.62311 0.0837482 0
969 1 0.638586 0.0640321 0
970 1 0.661993 0.0680205 0
999 1 0.647265 0.0889043 0
972 1 0.683185 0.0768407 0
971 1 0.682989 0.0526639 0
973 1 0.704745 0.0662212 0
974 1 0.724386 0.0828563 0
975 1 0.727685 0.0586116 0
946 1 0.750891 0.0505519 0
976 1 0.74679 0.0751023 0
977 1 0.770241 0.0676661 0
950 1 0.816362 0.0526615 0
979 1 0.7932 0.0608823 0
980 1 0.812616 0.077584 0
978 1 0.789119 0.0852035 0
981 1 0.835319 0.0682346 0
952 1 0.855707 0.0562123 0
982 1 0.857479 0.0803221 0
983 1 0.877989 0.0637285 0
985 1 0.901808 0.0678353 0
984 1 0.882704 0.0864629 0
986 1 0.923931 0.0758739 0
956 1 0.917769 0.0491179 0
987 1 0.940272 0.0589622 0
988 1 0.947669 0.0830735 0
960 1 0.987192 0.0446043 0
958 1 0.963356 0.0513186 0
989 1 0.980069 0.0683012 0
990 1 0.995928 0.0863186 0
120 1 0.50174 0.121117 0
991 1 0.518183 0.102843 0
992 1 0.525792 0.127807 0
993 1 0.542378 0.109326 0
1023 1 0.549329 0.134309 0
994 1 0.565746 0.115658 0
995 1 0.581934 0.0969554 0
996 1 0.589827 0.121556 0
997 1 0.606209 0.101769 0
998 1 0.62924 0.109266 0
1027 1 0.613276 0.127469 0
1000 1 0.652829 0.112855 0
1001 1 0.674162 0.0990132 0
1031 1 0.67369 0.123819 0
1029 1 0.638601 0.133069 0
1002 1 0.69492 0.113692 0
1003 1 0.701624 0.0907586 0
1004 1 0.718652 0.107416 0
1033 1 0.711424 0.131781 0
1005 1 0.74218 0.099768 0
1006 1 0.759595 0.115999 0
1007 1 0.76549 0.091594 0
1035 1 0.736207 0.124158 0
1037 1 0.776407 0.134195 0
1008 1 0.782432 0.109101 0
1009 1 0.80722 0.101834 0
1039 1 0.799363 0.126524 0
1010 1 0.822452 0.120155 0
1011 1 0.832352 0.0943536 0
1012 1 0.845887 0.116208 0
1043 1 0.868425 0.128896 0
1013 1 0.865529 0.103277 0
1014 1 0.888504 0.109813 0
1015 1 0.906719 0.0920693 0
1045 1 0.893341 0.133898 0
1016 1 0.911165 0.117594 0
1017 1 0.929978 0.100465 0
1018 1 0.953072 0.10705 0
1047 1 0.933157 0.125479 0
1019 1 0.971433 0.0904695 0
1020 1 0.986807 0.109327 0
1049 1 0.956149 0.130862 0
1050 1 0.980246 0.132815 0
1022 1 0.532151 0.15265 0
1053 1 0.538803 0.176126 0
1051 1 0.515431 0.170281 0
1021 1 0.508982 0.145474 0
1024 1 0.556159 0.157845 0
1025 1 0.57326 0.139554 0
1055 1 0.580567 0.164164 0
1054 1 0.563179 0.181988 0
1026 1 0.597132 0.146009 0
1028 1 0.621107 0.151601 0
1057 1 0.604454 0.170649 0
1058 1 0.627606 0.177809 0
1059 1 0.644561 0.160029 0
1030 1 0.661821 0.14402 0
1061 1 0.669977 0.167205 0
1032 1 0.687341 0.143782 0
1063 1 0.707627 0.156853 0
1062 1 0.693001 0.176398 0
1034 1 0.729431 0.147798 0
1036 1 0.753181 0.141235 0
1065 1 0.745578 0.165619 0
1067 1 0.769486 0.159009 0
1038 1 0.792799 0.151522 0
1040 1 0.81629 0.144307 0
1069 1 0.809054 0.169985 0
1068 1 0.785916 0.17652 0
1041 1 0.839792 0.139894 0
1071 1 0.832761 0.163639 0
1042 1 0.856601 0.15841 0
1072 1 0.848503 0.183095 0
1044 1 0.879923 0.153492 0
1075 1 0.899942 0.168227 0
1073 1 0.872229 0.177015 0
1046 1 0.915864 0.144333 0
1048 1 0.940835 0.149373 0
1077 1 0.926387 0.169441 0
1078 1 0.950553 0.173237 0
1079 1 0.965828 0.153257 0
1080 1 0.976192 0.174788 0
151 1 0.991301 0.153989 0
1052 1 0.521485 0.194321 0
1082 1 0.527123 0.219744 0
1081 1 0.503836 0.211815 0
1083 1 0.54503 0.200463 0
1084 1 0.551282 0.225187 0
1056 1 0.587126 0.188689 0
1085 1 0.568686 0.206363 0
1086 1 0.592685 0.21257 0
1087 1 0.610412 0.195449 0
1088 1 0.616795 0.219411 0
1089 1 0.634678 0.201976 0
1060 1 0.65163 0.184071 0
1091 1 0.674849 0.192495 0
1090 1 0.65753 0.209392 0
1119 1 0.640014 0.226967 0
1064 1 0.717283 0.180369 0
1092 1 0.681263 0.216644 0
1093 1 0.699611 0.199756 0
1094 1 0.72291 0.206725 0
1123 1 0.705339 0.223961 0
1066 1 0.762933 0.182422 0
1095 1 0.739889 0.190249 0
1096 1 0.748339 0.21371 0
1127 1 0.771243 0.225367 0
1097 1 0.777001 0.201946 0
1099 1 0.80127 0.195675 0
1098 1 0.793969 0.219953 0
1100 1 0.81776 0.213326 0
1070 1 0.82491 0.188877 0
1101 1 0.841398 0.207301 0
1102 1 0.857919 0.225529 0
1103 1 0.864582 0.200941 0
1074 1 0.888509 0.194577 0
1105 1 0.905354 0.211703 0
1104 1 0.88154 0.21845 0
1076 1 0.91247 0.188789 0
1107 1 0.935962 0.195312 0
1108 1 0.948169 0.219891 0
1109 1 0.96081 0.196115 0
1110 1 0.972671 0.216767 0
181 1 0.987044 0.19606 0
211 1 0.996387 0.218304 0
1111 1 0.509172 0.237071 0
1113 1 0.532694 0.243791 0
1112 1 0.515775 0.261073 0
1143 1 0.53902 0.267819 0
1114 1 0.556539 0.249709 0
1115 1 0.57519 0.230514 0
1116 1 0.580393 0.255661 0
1117 1 0.598903 0.236772 0
1118 1 0.622217 0.243958 0
1147 1 0.60402 0.261461 0
1149 1 0.627773 0.268139 0
1121 1 0.663372 0.234393 0
1120 1 0.646065 0.251248 0
1151 1 0.670288 0.258102 0
1122 1 0.688046 0.240812 0
1124 1 0.711466 0.247863 0
1153 1 0.694276 0.265422 0
1125 1 0.729255 0.23037 0
1126 1 0.752671 0.239043 0
1155 1 0.735387 0.255532 0
1157 1 0.759544 0.262001 0
1128 1 0.786839 0.244638 0
1129 1 0.810959 0.236952 0
1159 1 0.805308 0.261294 0
1158 1 0.782903 0.270172 0
1131 1 0.834569 0.231622 0
1130 1 0.828512 0.255493 0
1132 1 0.852038 0.250227 0
1133 1 0.875209 0.242625 0
1135 1 0.899593 0.23508 0
1163 1 0.86913 0.268411 0
1134 1 0.892405 0.25948 0
1106 1 0.924144 0.226927 0
1136 1 0.917237 0.251676 0