ITEM: TIMESTEP
134000
ITEM: NUMBER OF ATOMS
1800
ITEM: BOX BOUNDS pp pp pp
1.0034747136055984e+00 1.6399652528639839e+02
1.0034747136055984e+00 1.6399652528639839e+02
0.0000000000000000e+00 5.5000000000000000e+00
ITEM: ATOMS id type xs ys zs
2 1 0.0170308 0.00719116 0
33 1 0.0347577 0.0260448 0
31 1 0.008724 0.031282 0
3 1 0.042042 0.00244451 0
4 1 0.0589694 0.0205255 0
35 1 0.0745079 0.0402882 0
6 1 0.0834665 0.0158187 0
34 1 0.0499848 0.0461437 0
8 1 0.111386 0.0159306 0
37 1 0.0982953 0.036907 0
9 1 0.133976 0.00148775 0
39 1 0.133416 0.0264154 0
10 1 0.155659 0.0131595 0
40 1 0.156621 0.0377108 0
41 1 0.177425 0.0241002 0
11 1 0.177092 -0.000519122 0
12 1 0.19942 0.0109127 0
43 1 0.199403 0.03494 0
14 1 0.221622 0.0223899 0
15 1 0.24299 0.00936435 0
45 1 0.242622 0.0342554 0
16 1 0.265061 0.0219899 0
18 1 0.287088 0.0344862 0
17 1 0.285964 0.00842528 0
20 1 0.310209 0.0225886 0
51 1 0.332541 0.0361296 0
22 1 0.35333 0.0214266 0
21 1 0.331858 0.010159 0
24 1 0.377839 0.0276517 0
55 1 0.402924 0.0336992 0
894 1 0.395287 0.0106356 0
23 1 0.369476 0.00372589 0
25 1 0.420132 0.0165264 0
26 1 0.426365 0.0413195 0
27 1 0.443815 0.0236242 0
29 1 0.469604 0.0298543 0
900 1 0.486861 0.0111906 0
30 1 0.49308 0.0351232 0
898 1 0.461462 0.00701581 0
32 1 0.0248088 0.0497688 0
62 1 0.0174575 0.0736861 0
61 1 5.58233e-05 0.0544539 0
63 1 0.0418501 0.0694053 0
65 1 0.0662405 0.0648047 0
66 1 0.0828207 0.0836562 0
64 1 0.0582915 0.0888174 0
36 1 0.0904898 0.060874 0
38 1 0.1132 0.0558843 0
67 1 0.109212 0.080059 0
68 1 0.13395 0.0744286 0
69 1 0.136491 0.050429 0
71 1 0.157218 0.0637431 0
42 1 0.178242 0.0500868 0
72 1 0.179059 0.0747272 0
70 1 0.155838 0.0882926 0
44 1 0.221377 0.0475102 0
73 1 0.200285 0.0603199 0
103 1 0.200616 0.0855279 0
74 1 0.221864 0.0720168 0
46 1 0.264614 0.0473227 0
75 1 0.243527 0.0588943 0
77 1 0.266084 0.0720505 0
76 1 0.244287 0.082878 0
49 1 0.309089 0.0476485 0
47 1 0.287865 0.0595571 0
48 1 0.287176 0.0844218 0
50 1 0.30956 0.0722721 0
52 1 0.359241 0.0450205 0
81 1 0.336765 0.0612119 0
82 1 0.34732 0.084116 0
83 1 0.36607 0.0681699 0
53 1 0.384819 0.0511399 0
54 1 0.391011 0.0756657 0
56 1 0.408258 0.058059 0
28 1 0.451408 0.0475951 0
57 1 0.432929 0.064418 0
85 1 0.41537 0.081265 0
87 1 0.440395 0.0879491 0
58 1 0.457754 0.0711751 0
59 1 0.475659 0.0533835 0
89 1 0.482221 0.0770356 0
93 1 0.0335538 0.0930613 0
92 1 0.0244023 0.117112 0
91 1 0.00820337 0.096594 0
123 1 0.0412428 0.135394 0
121 1 -8.4132e-05 0.12056 0
94 1 0.0501859 0.111802 0
95 1 0.0753311 0.106826 0
125 1 0.0661894 0.130113 0
96 1 0.0914859 0.124681 0
97 1 0.101796 0.102731 0
98 1 0.119208 0.121661 0
99 1 0.127259 0.0980337 0
100 1 0.157286 0.115082 0
101 1 0.178484 0.100651 0
131 1 0.180589 0.126342 0
102 1 0.200738 0.111261 0
105 1 0.222083 0.096702 0
106 1 0.224406 0.120324 0
78 1 0.266751 0.0969582 0
107 1 0.244375 0.106297 0
137 1 0.248307 0.12924 0
108 1 0.272083 0.131862 0
79 1 0.308377 0.0964362 0
109 1 0.288137 0.112125 0
110 1 0.312556 0.120292 0
111 1 0.356219 0.110237 0
80 1 0.332767 0.103436 0
141 1 0.337407 0.127083 0
143 1 0.362266 0.134515 0
113 1 0.372297 0.0920451 0
84 1 0.397555 0.0993419 0
112 1 0.380188 0.116163 0
115 1 0.404705 0.123661 0
86 1 0.422858 0.105647 0
116 1 0.428691 0.129801 0
117 1 0.446431 0.11212 0
118 1 0.453264 0.136087 0
88 1 0.464287 0.0951839 0
90 1 0.488712 0.100873 0
119 1 0.471483 0.118369 0
120 1 0.495634 0.123914 0
122 1 0.0171765 0.14017 0
153 1 0.0341107 0.158766 0
152 1 0.00938211 0.163299 0
124 1 0.0585427 0.154113 0
126 1 0.0825412 0.148578 0
155 1 0.0743737 0.172618 0
154 1 0.0510464 0.179303 0
127 1 0.107268 0.143476 0
128 1 0.123054 0.16079 0
157 1 0.0994695 0.16815 0
129 1 0.137502 0.140381 0
130 1 0.1635 0.144412 0
159 1 0.14708 0.164704 0
132 1 0.170098 0.171191 0
104 1 0.205199 0.13553 0
133 1 0.187732 0.153178 0
134 1 0.211417 0.161317 0
163 1 0.194706 0.178662 0
135 1 0.229421 0.144756 0
136 1 0.254906 0.151857 0
165 1 0.23664 0.169101 0
167 1 0.26032 0.17475 0
139 1 0.296057 0.13789 0
138 1 0.279675 0.155544 0
169 1 0.302422 0.162798 0
168 1 0.285022 0.180189 0
140 1 0.320397 0.144834 0
142 1 0.343829 0.151105 0
171 1 0.326942 0.168776 0
172 1 0.351506 0.174902 0
114 1 0.386063 0.140128 0
144 1 0.393704 0.164501 0
173 1 0.368928 0.15747 0
145 1 0.411652 0.147257 0
146 1 0.418541 0.171446 0
147 1 0.435193 0.154054 0
177 1 0.442697 0.177156 0
149 1 0.477778 0.142547 0
148 1 0.460086 0.159793 0
150 1 0.484262 0.16655 0
183 1 0.0253123 0.1825 0
182 1 0.0170167 0.205696 0
184 1 0.0425203 0.202079 0
181 1 0.000378428 0.187373 0
213 1 0.0336865 0.225407 0
185 1 0.0670482 0.197946 0
215 1 0.0590834 0.220891 0
156 1 0.0912297 0.191127 0
186 1 0.0924777 0.220664 0
160 1 0.129261 0.183855 0
158 1 0.112771 0.202711 0
189 1 0.136422 0.20882 0
161 1 0.15287 0.189988 0
191 1 0.159536 0.215021 0
162 1 0.177091 0.194948 0
164 1 0.218299 0.185178 0
193 1 0.201782 0.203006 0
192 1 0.183652 0.220628 0
195 1 0.226038 0.208946 0
166 1 0.243745 0.191931 0
196 1 0.249758 0.216448 0
197 1 0.267655 0.198362 0
170 1 0.308874 0.187162 0
199 1 0.292013 0.204967 0
198 1 0.274165 0.222151 0
200 1 0.315751 0.210486 0
201 1 0.333575 0.191956 0
202 1 0.33989 0.216298 0
203 1 0.357521 0.199384 0
174 1 0.374785 0.181921 0
175 1 0.399751 0.18891 0
233 1 0.365276 0.223061 0
204 1 0.382061 0.204858 0
205 1 0.407524 0.212435 0
176 1 0.425087 0.194553 0
207 1 0.431935 0.218522 0
178 1 0.44957 0.201471 0
179 1 0.467186 0.184799 0
208 1 0.456856 0.225412 0
180 1 0.491516 0.190293 0
209 1 0.474969 0.208565 0
1081 1 0.498702 0.214439 0
212 1 0.00929407 0.229932 0
243 1 0.0291346 0.250858 0
241 1 0.00212991 0.252357 0
273 1 0.0165337 0.271912 0
216 1 0.0746727 0.239688 0
214 1 0.0573016 0.257744 0
247 1 0.0827422 0.26333 0
187 1 0.118113 0.227775 0
188 1 0.124574 0.251483 0
217 1 0.0990931 0.244835 0
218 1 0.107273 0.270369 0
190 1 0.142483 0.233775 0
221 1 0.165892 0.240094 0
220 1 0.148424 0.258573 0
222 1 0.172634 0.263642 0
194 1 0.208165 0.227247 0
223 1 0.189131 0.244757 0
224 1 0.214048 0.251486 0
253 1 0.19724 0.269082 0
225 1 0.232009 0.233391 0
227 1 0.256364 0.2408 0
226 1 0.238266 0.258082 0
257 1 0.263861 0.264124 0
229 1 0.297638 0.228164 0
228 1 0.280704 0.245643 0
230 1 0.304793 0.252164 0
259 1 0.287357 0.270712 0
231 1 0.322265 0.234866 0
232 1 0.346342 0.240291 0
261 1 0.328579 0.258702 0
263 1 0.352872 0.263412 0
235 1 0.389953 0.2295 0
234 1 0.371432 0.247272 0
265 1 0.395768 0.253243 0
264 1 0.378368 0.270962 0
206 1 0.41482 0.235981 0
236 1 0.421412 0.259725 0
237 1 0.437877 0.242952 0
238 1 0.445573 0.26674 0
210 1 0.481995 0.23194 0
239 1 0.462693 0.249628 0
240 1 0.488492 0.255652 0
244 1 0.0405315 0.275589 0
271 1 0.00696337 0.313712 0
275 1 0.0237516 0.296158 0
245 1 0.0663223 0.283372 0
246 1 0.0482368 0.300255 0
276 1 0.0729561 0.306461 0
248 1 0.0903807 0.288466 0
219 1 0.13103 0.275919 0
249 1 0.114397 0.294462 0
277 1 0.0971867 0.313373 0
279 1 0.122051 0.317364 0
251 1 0.156762 0.281509 0
250 1 0.139284 0.300013 0
281 1 0.163472 0.305647 0
252 1 0.180856 0.287991 0
254 1 0.204229 0.293546 0
283 1 0.187222 0.312401 0
255 1 0.220903 0.276109 0
284 1 0.211465 0.31745 0
256 1 0.24584 0.282136 0
285 1 0.228853 0.299809 0
287 1 0.25269 0.306085 0
258 1 0.270095 0.287801 0
260 1 0.311769 0.276194 0
288 1 0.276167 0.312259 0
289 1 0.29428 0.294371 0
290 1 0.300749 0.317737 0
291 1 0.318553 0.299572 0
262 1 0.336441 0.282399 0
292 1 0.343177 0.30548 0
293 1 0.360682 0.287215 0
266 1 0.403647 0.276752 0
295 1 0.384864 0.293742 0
294 1 0.36773 0.311298 0
297 1 0.410401 0.300433 0
267 1 0.428442 0.284189 0
268 1 0.453145 0.291369 0
298 1 0.434286 0.308463 0
269 1 0.470914 0.2729 0
1141 1 0.495572 0.280553 0
270 1 0.477302 0.297766 0
299 1 0.460277 0.316435 0
272 1 0.0322004 0.319258 0
301 1 0.0141238 0.337281 0
303 1 0.0389862 0.344134 0
302 1 0.0221436 0.360725 0
274 1 0.0564723 0.324551 0
304 1 0.0627637 0.349117 0
305 1 0.0798654 0.330229 0
306 1 0.0873692 0.353925 0
307 1 0.103924 0.336413 0
278 1 0.128849 0.342171 0
308 1 0.112359 0.359992 0
280 1 0.145421 0.323909 0
282 1 0.169488 0.330302 0
311 1 0.153868 0.349948 0
312 1 0.178029 0.354752 0
313 1 0.19505 0.336664 0
314 1 0.202411 0.36033 0
315 1 0.219269 0.342309 0
286 1 0.235175 0.324159 0
317 1 0.25989 0.33045 0
316 1 0.243073 0.348626 0
318 1 0.267571 0.354778 0
319 1 0.283749 0.335924 0
349 1 0.291549 0.360093 0
320 1 0.307826 0.341014 0
321 1 0.324714 0.323306 0
323 1 0.349146 0.328223 0
322 1 0.331853 0.34672 0
324 1 0.356308 0.351347 0
296 1 0.392577 0.31671 0
325 1 0.375015 0.334931 0
326 1 0.397929 0.343 0
355 1 0.378811 0.35946 0
327 1 0.415671 0.324407 0
328 1 0.422224 0.346791 0
359 1 0.441685 0.360784 0
329 1 0.444659 0.335257 0
300 1 0.48424 0.323249 0
1201 1 0.490335 0.347049 0
330 1 0.465272 0.351196 0
332 1 0.0296643 0.385069 0
361 1 0.0143071 0.404183 0
331 1 0.00505537 0.379815 0
363 1 0.0384331 0.409366 0
333 1 0.0466839 0.367567 0
335 1 0.0704466 0.372295 0
334 1 0.0537688 0.390537 0
336 1 0.0782721 0.39611 0
337 1 0.09546 0.378133 0
338 1 0.120173 0.383634 0
367 1 0.10438 0.402734 0
369 1 0.127638 0.409493 0
309 1 0.137174 0.367086 0
310 1 0.16114 0.373751 0
339 1 0.144634 0.391495 0
341 1 0.168933 0.397356 0
343 1 0.185339 0.378491 0
342 1 0.194042 0.403027 0
344 1 0.209994 0.38411 0
375 1 0.218553 0.409597 0
345 1 0.226631 0.366427 0
347 1 0.250365 0.373645 0
346 1 0.233823 0.390704 0
377 1 0.259598 0.396147 0
351 1 0.31533 0.365439 0
348 1 0.276064 0.378542 0
350 1 0.300094 0.384813 0
379 1 0.28471 0.403572 0
353 1 0.33885 0.369253 0
381 1 0.322544 0.394402 0
352 1 0.34701 0.391703 0
354 1 0.369973 0.383151 0
385 1 0.38757 0.402167 0
356 1 0.394403 0.377577 0
383 1 0.36423 0.408458 0
357 1 0.41837 0.369912 0
358 1 0.436362 0.385201 0
387 1 0.412125 0.393618 0
389 1 0.455131 0.402201 0
1231 1 0.483894 0.370616 0
360 1 0.460096 0.376971 0
1232 1 0.478426 0.395593 0
362 1 0.0225235 0.428283 0
392 1 0.00627074 0.44647 0
393 1 0.02914 0.451529 0
364 1 0.0464738 0.433441 0
365 1 0.0626029 0.415279 0
395 1 0.0709314 0.438856 0
366 1 0.0868469 0.420205 0
397 1 0.0938852 0.445199 0
368 1 0.110852 0.427007 0
399 1 0.118036 0.451338 0
370 1 0.135446 0.43383 0
340 1 0.152254 0.415004 0
401 1 0.160726 0.439391 0
371 1 0.177359 0.421111 0
372 1 0.184278 0.4455 0
373 1 0.201564 0.426973 0
403 1 0.208739 0.451673 0
374 1 0.225622 0.43311 0
376 1 0.242039 0.415115 0
407 1 0.249847 0.438814 0
378 1 0.26679 0.421008 0
409 1 0.29076 0.427717 0
410 1 0.308279 0.445362 0
408 1 0.282877 0.452092 0
380 1 0.315589 0.420507 0
382 1 0.33854 0.414006 0
411 1 0.333346 0.438438 0
413 1 0.356701 0.432096 0
384 1 0.381638 0.425445 0
414 1 0.374744 0.449215 0
415 1 0.399739 0.44192 0
386 1 0.405758 0.416998 0
388 1 0.431297 0.409108 0
417 1 0.423157 0.433137 0
419 1 0.448683 0.426869 0
418 1 0.441173 0.449982 0
1261 1 0.472956 0.419766 0
390 1 0.466878 0.442964 0
1291 1 0.491661 0.436566 0
1262 1 0.497127 0.412 0
422 1 0.0122803 0.470172 0
453 1 0.0203108 0.494227 0
423 1 0.0368796 0.475445 0
449 1 0.452814 0.491707 0
394 1 0.0543863 0.457131 0
396 1 0.0786925 0.463946 0
425 1 0.0606702 0.4822 0
427 1 0.0854645 0.488339 0
398 1 0.102401 0.470463 0
428 1 0.109851 0.494599 0
429 1 0.125929 0.47579 0
400 1 0.143973 0.458661 0
431 1 0.151305 0.482869 0
402 1 0.168813 0.464934 0
432 1 0.176279 0.488804 0
433 1 0.193237 0.470624 0
434 1 0.201321 0.493654 0
404 1 0.21827 0.475665 0
405 1 0.233534 0.457317 0
406 1 0.258376 0.462835 0
436 1 0.243474 0.482508 0
437 1 0.278932 0.476317 0
438 1 0.296875 0.493772 0
439 1 0.302335 0.469486 0
412 1 0.350681 0.456558 0
440 1 0.32097 0.486117 0
441 1 0.327044 0.462666 0
442 1 0.345001 0.479664 0
473 1 0.363212 0.49675 0
443 1 0.368939 0.473002 0
445 1 0.393358 0.465749 0
444 1 0.387704 0.489228 0
447 1 0.435161 0.47416 0
416 1 0.417153 0.458445 0
446 1 0.411648 0.48171 0
448 1 0.428953 0.498589 0
420 1 0.460054 0.466706 0
1321 1 0.484954 0.460059 0
450 1 0.47757 0.483615 0
430 1 0.133912 0.499424 0
435 1 0.225679 0.49912 0
452 1 0.00475563 0.512286 0
483 1 0.0121734 0.536548 0
454 1 0.0280849 0.518839 0
485 1 0.0350918 0.543114 0
455 1 0.0522267 0.525721 0
456 1 0.07646 0.530931 0
426 1 0.068995 0.506952 0
458 1 0.0997173 0.536052 0
459 1 0.117471 0.518324 0
457 1 0.0924561 0.512602 0
489 1 0.124169 0.541534 0
868 1 0.455899 0.982851 0
460 1 0.141037 0.523523 0
462 1 0.165495 0.529508 0
461 1 0.158532 0.506392 0
463 1 0.183258 0.512303 0
493 1 0.191963 0.536121 0
495 1 0.214778 0.542708 0
464 1 0.208404 0.516632 0
1771 1 0.498299 0.96912 0
466 1 0.232244 0.525173 0
497 1 0.266669 0.524616 0
465 1 0.249271 0.506863 0
468 1 0.290748 0.51851 0
499 1 0.310601 0.534317 0
498 1 0.286134 0.541659 0
469 1 0.315002 0.509805 0
467 1 0.272796 0.500565 0
470 1 0.334024 0.527597 0
472 1 0.357733 0.520314 0
471 1 0.339055 0.502919 0
474 1 0.38135 0.514029 0
476 1 0.399896 0.530547 0
503 1 0.375988 0.537975 0
475 1 0.404775 0.505848 0
477 1 0.42383 0.522962 0
478 1 0.447684 0.51548 0
507 1 0.441631 0.540206 0
480 1 0.464707 0.532498 0
479 1 0.471747 0.507964 0
1381 1 0.488886 0.525886 0
1351 1 0.495767 0.500413 0
513 1 0.0189014 0.562285 0
512 1 0.0261306 0.586118 0
484 1 0.0428577 0.567136 0
486 1 0.0590711 0.54956 0
515 1 0.067599 0.572813 0
487 1 0.0841641 0.555246 0
517 1 0.0905265 0.579469 0
488 1 0.107482 0.560722 0
519 1 0.115455 0.583341 0
490 1 0.131591 0.565514 0
491 1 0.149235 0.547773 0
520 1 0.139996 0.58874 0
521 1 0.157245 0.571194 0
492 1 0.173649 0.553533 0
523 1 0.181374 0.577731 0
494 1 0.197583 0.560538 0
524 1 0.205868 0.584399 0
525 1 0.222679 0.567254 0
496 1 0.238996 0.54941 0
526 1 0.249185 0.572829 0
527 1 0.263435 0.551027 0
555 1 0.22924 0.590833 0
528 1 0.280877 0.567438 0
529 1 0.30446 0.559332 0
559 1 0.299533 0.58382 0
501 1 0.352561 0.544546 0
530 1 0.323554 0.577202 0
500 1 0.328635 0.552377 0
531 1 0.347164 0.569928 0
533 1 0.365496 0.586393 0
502 1 0.370348 0.561642 0
505 1 0.394189 0.555012 0
504 1 0.38894 0.57943 0
535 1 0.412879 0.5719 0
506 1 0.418044 0.547418 0
508 1 0.436302 0.565021 0
537 1 0.431356 0.589638 0
539 1 0.455416 0.58163 0
509 1 0.45993 0.556512 0
510 1 0.483401 0.549583 0
540 1 0.478202 0.573555 0
542 1 0.0165323 0.608239 0
571 1 0.0103629 0.633433 0
543 1 0.0408386 0.613038 0
541 1 0.00194217 0.58835 0
514 1 0.0503393 0.590483 0
516 1 0.0726766 0.598577 0
545 1 0.0641228 0.622003 0
546 1 0.0864518 0.631221 0
518 1 0.121868 0.606359 0
547 1 0.0970016 0.605029 0
548 1 0.128681 0.629194 0
522 1 0.164197 0.595129 0
549 1 0.146684 0.612622 0
551 1 0.170668 0.619097 0
553 1 0.188922 0.601686 0
552 1 0.194436 0.62682 0
554 1 0.213249 0.608303 0
583 1 0.217637 0.635461 0
556 1 0.237077 0.620471 0
557 1 0.251969 0.599847 0
587 1 0.270463 0.618172 0
558 1 0.276205 0.592566 0
560 1 0.294086 0.608959 0
591 1 0.313418 0.627455 0
589 1 0.288872 0.634903 0
561 1 0.316155 0.601602 0
532 1 0.341268 0.594579 0
562 1 0.337125 0.619553 0
563 1 0.361327 0.6113 0
564 1 0.355833 0.636764 0
534 1 0.384353 0.60413 0
566 1 0.402243 0.620797 0
565 1 0.37996 0.629173 0
536 1 0.407437 0.59672 0
567 1 0.426368 0.614028 0
538 1 0.449888 0.605686 0
597 1 0.444571 0.629561 0
1441 1 0.496943 0.59132 0
568 1 0.468194 0.622953 0
569 1 0.474015 0.599055 0
570 1 0.492218 0.615353 0
573 1 0.0250106 0.654525 0
603 1 0.0268275 0.680107 0
572 1 0.000676293 0.656158 0
544 1 0.0425362 0.637665 0
574 1 0.0473249 0.663248 0
575 1 0.0672441 0.647306 0
605 1 0.070793 0.672591 0
576 1 0.0898566 0.65853 0
577 1 0.108923 0.642979 0
578 1 0.112526 0.667739 0
579 1 0.132643 0.653298 0
607 1 0.092928 0.682306 0
550 1 0.152325 0.63628 0
609 1 0.136447 0.677777 0
581 1 0.17558 0.644275 0
580 1 0.155901 0.66212 0
611 1 0.17972 0.669423 0
582 1 0.197285 0.653 0
584 1 0.219797 0.661122 0
613 1 0.201784 0.678287 0
585 1 0.241049 0.646192 0
586 1 0.265339 0.643184 0
615 1 0.241222 0.671433 0
617 1 0.26422 0.667461 0
588 1 0.286675 0.658822 0
590 1 0.30924 0.65164 0
619 1 0.303993 0.676146 0
593 1 0.332909 0.644331 0
621 1 0.327181 0.668814 0
592 1 0.350801 0.660886 0
594 1 0.374725 0.653379 0
595 1 0.398545 0.646241 0
625 1 0.392968 0.669935 0
623 1 0.369749 0.677702 0
596 1 0.42116 0.638263 0
627 1 0.416247 0.663435 0
598 1 0.440843 0.654671 0
657 1 0.435758 0.679072 0
628 1 0.459129 0.671388 0
599 1 0.463429 0.647374 0
600 1 0.487561 0.639302 0
629 1 0.482296 0.664182 0
632 1 0.00206713 0.721755 0
602 1 0.00861421 0.698318 0
633 1 0.0329268 0.704428 0
634 1 0.0353687 0.728694 0
604 1 0.0506503 0.687117 0
606 1 0.0743562 0.697327 0
635 1 0.0555106 0.712674 0
636 1 0.0779997 0.722666 0
637 1 0.0975082 0.707212 0
608 1 0.116437 0.691957 0
638 1 0.121203 0.717549 0
610 1 0.160008 0.686281 0
639 1 0.140707 0.701751 0
640 1 0.144457 0.726497 0
641 1 0.16362 0.710398 0
612 1 0.1822 0.694623 0
642 1 0.186406 0.719317 0
614 1 0.223736 0.687825 0
643 1 0.205554 0.703326 0
645 1 0.228662 0.711494 0
616 1 0.256565 0.691407 0
646 1 0.253205 0.716603 0
618 1 0.281071 0.684049 0
647 1 0.275585 0.7088 0
649 1 0.298624 0.700845 0
648 1 0.294539 0.725815 0
650 1 0.318074 0.718029 0
620 1 0.32171 0.693625 0
622 1 0.34652 0.685571 0
651 1 0.34127 0.710095 0
653 1 0.364892 0.701852 0
624 1 0.38774 0.694815 0
655 1 0.406518 0.711603 0
654 1 0.383433 0.718622 0
626 1 0.411482 0.687573 0
656 1 0.430672 0.703966 0
687 1 0.449798 0.721736 0
658 1 0.454577 0.696986 0
659 1 0.478551 0.689012 0
660 1 0.497615 0.706926 0
689 1 0.47338 0.713845 0
662 1 0.0180497 0.769029 0
663 1 0.0153349 0.743118 0
664 1 0.0378285 0.752886 0
665 1 0.058612 0.737279 0
666 1 0.0810229 0.747427 0
695 1 0.0617431 0.76204 0
697 1 0.0855183 0.771961 0
667 1 0.100831 0.731994 0
669 1 0.124435 0.741874 0
668 1 0.105036 0.756902 0
699 1 0.12859 0.766575 0
671 1 0.166895 0.734814 0
670 1 0.14783 0.751361 0
672 1 0.170687 0.759553 0
644 1 0.209924 0.729087 0
673 1 0.19012 0.743604 0
674 1 0.216713 0.752312 0
703 1 0.195123 0.767352 0
675 1 0.235149 0.736586 0
705 1 0.238875 0.763901 0
677 1 0.270264 0.733741 0
676 1 0.262786 0.75737 0
679 1 0.312284 0.743285 0
678 1 0.288592 0.750464 0
709 1 0.307105 0.767983 0
652 1 0.359879 0.726725 0
680 1 0.330062 0.759989 0
681 1 0.335581 0.733343 0
682 1 0.35393 0.750943 0
683 1 0.378252 0.744064 0
684 1 0.396962 0.760533 0
685 1 0.402353 0.735771 0
713 1 0.372454 0.768147 0
686 1 0.425987 0.728796 0
715 1 0.420831 0.753545 0
717 1 0.444514 0.746157 0
716 1 0.438804 0.770498 0
718 1 0.462953 0.763552 0
688 1 0.468417 0.738095 0
690 1 0.491874 0.730629 0
719 1 0.486764 0.756227 0
694 1 0.0422126 0.776832 0
693 1 0.0239271 0.792698 0
723 1 0.0464533 0.802186 0
696 1 0.0655613 0.787166 0
725 1 0.0694967 0.811578 0
727 1 0.0894354 0.796824 0
698 1 0.10857 0.781266 0
728 1 0.112992 0.806535 0
700 1 0.131588 0.789981 0
729 1 0.135259 0.81526 0
701 1 0.152159 0.775697 0
731 1 0.154788 0.799737 0
732 1 0.178004 0.809097 0
702 1 0.175324 0.783727 0
704 1 0.216868 0.77754 0
733 1 0.197576 0.793251 0
734 1 0.220294 0.805203 0
735 1 0.237662 0.789008 0
706 1 0.260086 0.781066 0
736 1 0.253732 0.806786 0
707 1 0.283145 0.774693 0
737 1 0.27735 0.798898 0
708 1 0.300667 0.792961 0
738 1 0.294124 0.816542 0
739 1 0.318293 0.809586 0
711 1 0.349398 0.77636 0
710 1 0.324329 0.785417 0
741 1 0.342569 0.802311 0
742 1 0.360349 0.818385 0
712 1 0.366317 0.793729 0
743 1 0.390274 0.785799 0
744 1 0.384189 0.811181 0
745 1 0.40925 0.803279 0
714 1 0.413899 0.778223 0
746 1 0.432029 0.794636 0
748 1 0.450845 0.813745 0
747 1 0.455773 0.789111 0
1621 1 0.497044 0.815704 0
720 1 0.480794 0.781495 0
749 1 0.47433 0.806296 0
781 1 0.000959115 0.85475 0
692 1 0.0259805 0.817247 0
751 1 0.0295335 0.842621 0
1680 1 0.00686875 0.830584 0
722 1 0.048985 0.827302 0
753 1 0.0547568 0.850845 0
724 1 0.0740591 0.836132 0
754 1 0.0771995 0.860419 0
726 1 0.0928796 0.821541 0
755 1 0.0969706 0.846112 0
756 1 0.121144 0.854742 0
757 1 0.117042 0.830594 0
759 1 0.139901 0.840011 0
730 1 0.158577 0.825818 0
760 1 0.163112 0.850104 0
761 1 0.182797 0.835365 0
763 1 0.201101 0.819726 0
791 1 0.186734 0.859386 0
762 1 0.206101 0.845695 0
764 1 0.223604 0.829373 0
795 1 0.235909 0.856307 0
765 1 0.247763 0.830488 0
766 1 0.264096 0.848973 0
767 1 0.271949 0.824052 0
768 1 0.288036 0.842346 0
769 1 0.312732 0.834136 0
799 1 0.306217 0.858631 0
770 1 0.330264 0.850723 0
740 1 0.336729 0.827248 0
771 1 0.354778 0.843109 0
772 1 0.372767 0.858893 0
773 1 0.378488 0.834763 0
774 1 0.402691 0.826542 0
803 1 0.397083 0.850602 0
775 1 0.42721 0.820367 0
777 1 0.444669 0.837898 0
776 1 0.42112 0.843539 0
778 1 0.440301 0.861854 0
750 1 0.478763 0.83171 0
779 1 0.464029 0.852036 0
780 1 0.48767 0.856622 0
752 1 0.0373286 0.866182 0
782 1 0.0357693 0.892035 0
812 1 0.00957833 0.899083 0
811 1 0.0157195 0.874918 0
783 1 0.0588961 0.8765 0
813 1 0.0598795 0.900358 0
784 1 0.0813901 0.884443 0
785 1 0.101769 0.87054 0
786 1 0.103739 0.894895 0
787 1 0.123325 0.880148 0
817 1 0.127063 0.903547 0
758 1 0.143534 0.864589 0
788 1 0.146261 0.889473 0
789 1 0.16626 0.875044 0
790 1 0.169801 0.89998 0
792 1 0.190542 0.883641 0
793 1 0.210874 0.86976 0
823 1 0.212144 0.895792 0
794 1 0.234054 0.88326 0
796 1 0.257901 0.873351 0
825 1 0.254197 0.898745 0
824 1 0.232976 0.909568 0
797 1 0.283044 0.866666 0
827 1 0.277101 0.890713 0
798 1 0.300922 0.884026 0
829 1 0.318656 0.900086 0
801 1 0.348811 0.86674 0
800 1 0.325811 0.875351 0
831 1 0.343908 0.891302 0
832 1 0.363776 0.907662 0
802 1 0.367964 0.883192 0
804 1 0.392129 0.875312 0
833 1 0.386651 0.898607 0
806 1 0.41087 0.901065 0
805 1 0.415183 0.867084 0
807 1 0.430223 0.88619 0
808 1 0.453681 0.89239 0
809 1 0.471017 0.874633 0
810 1 0.477979 0.899511 0
1681 1 0.495199 0.880668 0
841 1 0.000698571 0.92164 0
842 1 0.0171534 0.941768 0
843 1 0.0258343 0.917392 0
844 1 0.0410264 0.937345 0
815 1 0.0824867 0.909778 0
814 1 0.0633084 0.926334 0
845 1 0.0857907 0.933512 0
875 1 0.0610495 0.954026 0
816 1 0.106529 0.918812 0
847 1 0.107143 0.943548 0
818 1 0.128712 0.928884 0
819 1 0.148604 0.915117 0
849 1 0.150491 0.939251 0
820 1 0.171876 0.925366 0
850 1 0.173281 0.950098 0
821 1 0.192593 0.91163 0
851 1 0.194391 0.936298 0
822 1 0.214215 0.923634 0
853 1 0.218038 0.947444 0
855 1 0.238954 0.934201 0
826 1 0.269233 0.917374 0
856 1 0.263553 0.94388 0
828 1 0.294588 0.90788 0
857 1 0.288813 0.933524 0
858 1 0.308614 0.949263 0
859 1 0.312455 0.92472 0
830 1 0.337197 0.91523 0
860 1 0.331898 0.939979 0
861 1 0.355221 0.931533 0
863 1 0.37801 0.938557 0
834 1 0.394193 0.920617 0
865 1 0.400837 0.945826 0
837 1 0.435874 0.909806 0
835 1 0.417881 0.925732 0
838 1 0.441849 0.933366 0
836 1 0.425784 0.951365 0
839 1 0.459907 0.915783 0
1741 1 0.491005 0.946172 0
840 1 0.484405 0.923125 0
869 1 0.466437 0.939427 0
872 1 0.0257543 0.983207 0
873 1 0.034121 0.960902 0
871 1 0.0084208 0.964734 0
1 1 0.000934296 0.988293 0
846 1 0.0855145 0.958235 0
874 1 0.0513799 0.977391 0
5 1 0.0665754 0.998009 0
876 1 0.0864721 0.982862 0
848 1 0.129577 0.953089 0
7 1 0.111431 0.992042 0
877 1 0.108804 0.967611 0
878 1 0.13154 0.97798 0
879 1 0.152565 0.963255 0
880 1 0.154922 0.988608 0
881 1 0.175362 0.975423 0
852 1 0.196561 0.960538 0
882 1 0.199161 0.985356 0
883 1 0.21994 0.972401 0
13 1 0.221304 0.99764 0
854 1 0.241375 0.958454 0
884 1 0.241858 0.983596 0
885 1 0.263277 0.969586 0
886 1 0.263409 0.995604 0
887 1 0.285375 0.958697 0
888 1 0.285197 0.98417 0
19 1 0.310601 0.997031 0
889 1 0.307114 0.97357 0
862 1 0.352872 0.955081 0
890 1 0.339861 0.987696 0
891 1 0.330273 0.965077 0
892 1 0.364357 0.978742 0
864 1 0.382721 0.962544 0
893 1 0.388978 0.98639 0
895 1 0.407501 0.968809 0
867 1 0.449716 0.956821 0
896 1 0.413551 0.993053 0
866 1 0.431643 0.974228 0
897 1 0.437703 0.999263 0
899 1 0.480306 0.987582 0
870 1 0.473798 0.963176 0
424 1 0.0444854 0.50034 0
902 1 0.535157 0.0234646 0
931 1 0.517818 0.0414279 0
901 1 0.51139 0.0178763 0
1349 1 0.964141 0.459948 0
904 1 0.55933 0.0305021 0
935 1 0.583817 0.0366601 0
906 1 0.577527 0.0117053 0
905 1 0.552296 0.00589952 0
908 1 0.600849 0.018184 0
937 1 0.607548 0.0429751 0
939 1 0.62454 0.0258649 0
909 1 0.618712 0.00187343 0
941 1 0.649655 0.0322537 0
912 1 0.668258 0.014185 0
942 1 0.672677 0.0386448 0
910 1 0.643393 0.00843539 0
944 1 0.6914 0.0228829 0
945 1 0.715252 0.0181495 0
975 1 0.704385 0.0448864 0
947 1 0.738876 0.0127009 0
946 1 0.730671 0.0370917 0
948 1 0.755843 0.0322227 0
918 1 0.763767 0.00840336 0
919 1 0.788132 0.00423056 0
949 1 0.779664 0.0284414 0
920 1 0.804515 0.024068 0
922 1 0.829197 0.0189774 0
924 1 0.853713 0.0142919 0
951 1 0.845097 0.0383668 0
950 1 0.820549 0.0417913 0
953 1 0.869572 0.0331582 0
955 1 0.878351 0.0103824 0
954 1 0.893948 0.0291925 0
925 1 0.903022 0.00558424 0
926 1 0.927236 0.00161996 0
957 1 0.943113 0.0210838 0
956 1 0.918292 0.025178 0
987 1 0.936162 0.0440686 0
930 1 0.992763 0.0118444 0
959 1 0.967126 0.0163187 0
960 1 0.983951 0.0348893 0
958 1 0.96008 0.0408719 0
60 1 0.499934 0.0593567 0
933 1 0.541412 0.0480615 0
932 1 0.524413 0.0647688 0
961 1 0.507025 0.0831738 0
962 1 0.531604 0.0888048 0
963 1 0.548363 0.0715197 0
934 1 0.565916 0.0542917 0
965 1 0.573069 0.0785564 0
936 1 0.589904 0.0601345 0
938 1 0.631676 0.0497843 0
966 1 0.596343 0.0843415 0
967 1 0.614175 0.067017 0
969 1 0.638218 0.0734072 0
940 1 0.655327 0.0558632 0
970 1 0.662701 0.0790906 0
971 1 0.679056 0.0619707 0
972 1 0.686015 0.0864848 0
973 1 0.702519 0.0688038 0
974 1 0.725309 0.0610979 0
976 1 0.747847 0.0555427 0
1007 1 0.764553 0.0746117 0
1005 1 0.741014 0.0794706 0
977 1 0.771592 0.0524041 0
979 1 0.796167 0.0470874 0
980 1 0.813299 0.0664994 0
978 1 0.788971 0.0697805 0
1009 1 0.804744 0.0891413 0
981 1 0.837112 0.0617504 0
982 1 0.853602 0.0816457 0
1011 1 0.829335 0.0857679 0
952 1 0.860866 0.0572521 0
983 1 0.885254 0.0529552 0
984 1 0.878225 0.077303 0
1015 1 0.90304 0.0721195 0
985 1 0.910616 0.0490924 0
986 1 0.92733 0.0676893 0
1018 1 0.943417 0.0874963 0
988 1 0.951012 0.0643255 0
1017 1 0.918949 0.0912976 0
989 1 0.975574 0.0592872 0
990 1 0.992114 0.0782665 0
1019 1 0.967976 0.0828856 0
991 1 0.513804 0.106845 0
992 1 0.519732 0.130928 0
993 1 0.538369 0.113217 0
964 1 0.555936 0.0961653 0
994 1 0.562667 0.119392 0
995 1 0.579927 0.103094 0
996 1 0.586245 0.126195 0
968 1 0.620998 0.0912113 0
997 1 0.603468 0.108053 0
998 1 0.627507 0.114861 0
1027 1 0.610479 0.13207 0
999 1 0.645498 0.0975132 0
1000 1 0.651464 0.121725 0
1001 1 0.668839 0.10452 0
1031 1 0.675705 0.1283 0
1003 1 0.71015 0.0926252 0
1002 1 0.692435 0.10998 0
1004 1 0.71575 0.116767 0
1033 1 0.699351 0.133885 0
1006 1 0.756858 0.0991449 0
1035 1 0.733224 0.101492 0
1036 1 0.745522 0.12237 0
1037 1 0.771519 0.117439 0
1008 1 0.781277 0.0942046 0
1039 1 0.797093 0.113078 0
1040 1 0.813213 0.13239 0
1010 1 0.822412 0.109084 0
1012 1 0.847414 0.10529 0
1041 1 0.838266 0.127757 0
1043 1 0.86316 0.124194 0
1013 1 0.871586 0.101255 0
1014 1 0.89508 0.0953525 0
1045 1 0.888054 0.119414 0
1016 1 0.911705 0.114895 0
1047 1 0.926927 0.13392 0
1049 1 0.959082 0.105966 0
1020 1 0.984115 0.102031 0
1050 1 0.974669 0.12632 0
1023 1 0.544623 0.137275 0
1022 1 0.526906 0.154375 0
1051 1 0.509182 0.171137 0
1021 1 0.502048 0.148126 0
1053 1 0.53272 0.178552 0
1024 1 0.551027 0.16082 0
1025 1 0.568538 0.143325 0
1055 1 0.574995 0.167038 0
1026 1 0.593774 0.150396 0
1029 1 0.635005 0.139187 0
1028 1 0.617688 0.15542 0
1057 1 0.600131 0.174665 0
1058 1 0.624381 0.179631 0
1059 1 0.641892 0.163662 0
1030 1 0.659239 0.145866 0
1061 1 0.665966 0.168832 0
1032 1 0.682859 0.151554 0
1063 1 0.707794 0.156819 0
1062 1 0.690984 0.174837 0
1064 1 0.715189 0.18082 0
1034 1 0.724909 0.13895 0
1065 1 0.733607 0.162273 0
1067 1 0.76268 0.141713 0
1066 1 0.757266 0.169087 0
1038 1 0.78819 0.137196 0
1069 1 0.804577 0.155841 0
1068 1 0.78101 0.160596 0
1099 1 0.796349 0.179877 0
1071 1 0.829712 0.15119 0
1042 1 0.854805 0.147391 0
1072 1 0.846403 0.170837 0
1070 1 0.821077 0.174602 0
1044 1 0.879442 0.142545 0
1075 1 0.895685 0.162527 0
1073 1 0.870966 0.167257 0
1046 1 0.90318 0.137858 0
1048 1 0.944308 0.153872 0
1077 1 0.919757 0.157443 0
1076 1 0.911788 0.180928 0
1079 1 0.9686 0.149855 0
1080 1 0.983862 0.168674 0
151 1 0.993099 0.144023 0
1078 1 0.959209 0.173819 0
1052 1 0.516248 0.197221 0
1082 1 0.523381 0.221069 0
1083 1 0.541098 0.20354 0
1054 1 0.557809 0.185237 0
1056 1 0.582229 0.191225 0
1085 1 0.56445 0.209162 0
1086 1 0.589168 0.214763 0
1084 1 0.546784 0.226668 0
1087 1 0.607216 0.19839 0
1088 1 0.612839 0.222163 0
1089 1 0.630713 0.204536 0
1060 1 0.648203 0.187148 0
1091 1 0.672882 0.192724 0
1090 1 0.654246 0.210044 0
1092 1 0.679016 0.216677 0
1093 1 0.698273 0.198852 0
1094 1 0.722501 0.205244 0
1123 1 0.704563 0.222617 0
1095 1 0.73977 0.186242 0
1096 1 0.745844 0.21066 0
1127 1 0.769527 0.218046 0
1097 1 0.765809 0.192679 0
1098 1 0.788455 0.203102 0
1100 1 0.813139 0.198649 0
1129 1 0.804085 0.223217 0
1101 1 0.837527 0.194427 0
1102 1 0.853737 0.214263 0
1131 1 0.829311 0.217173 0
1103 1 0.861982 0.190923 0
1074 1 0.886843 0.186502 0
1105 1 0.903649 0.204671 0
1104 1 0.879038 0.210789 0
1107 1 0.928056 0.200157 0
1108 1 0.944296 0.218889 0
1106 1 0.91922 0.22435 0
1109 1 0.97496 0.192395 0
1110 1 0.96875 0.216001 0
211 1 0.992534 0.210399 0
1111 1 0.50619 0.238095 0
1113 1 0.529885 0.244585 0
1112 1 0.512718 0.262269 0
1143 1 0.536635 0.268889 0
1114 1 0.553347 0.250772 0
1115 1 0.571427 0.233124 0
1116 1 0.578328 0.258048 0
1117 1 0.595387 0.239356 0
1118 1 0.620169 0.245718 0
1147 1 0.602186 0.26231 0
1149 1 0.626724 0.269793 0
1119 1 0.637289 0.228057 0
1121 1 0.661774 0.233309 0
1120 1 0.64439 0.251957 0
1151 1 0.6682 0.258016 0
1122 1 0.686817 0.240386 0
1124 1 0.710518 0.247217 0
1153 1 0.693942 0.263938 0
1154 1 0.71893 0.270905 0
1125 1 0.728398 0.22963 0
1126 1 0.752686 0.235924 0
1155 1 0.736174 0.253567 0
1157 1 0.760671 0.260479 0
1128 1 0.777119 0.241695 0
1159 1 0.80014 0.247499 0
1158 1 0.784918 0.266276 0
1160 1 0.811531 0.269073 0
1130 1 0.82256 0.240816 0
1132 1 0.846496 0.237547 0
1161 1 0.836173 0.261718 0
1163 1 0.860907 0.257118 0
1135 1 0.894881 0.229557 0
1133 1 0.870509 0.233825 0