ITEM: TIMESTEP
104000
ITEM: NUMBER OF ATOMS
1800
ITEM: BOX BOUNDS pp pp pp
1.1073410645389288e+00 1.6389265893546283e+02
1.1073410645389288e+00 1.6389265893546283e+02
0.0000000000000000e+00 5.5000000000000000e+00
ITEM: ATOMS id type xs ys zs
2 1 0.0110524 0.0162475 0
3 1 0.0358334 0.0100737 0
33 1 0.0280256 0.0341563 0
31 1 0.00365977 0.0402429 0
4 1 0.052556 0.0274131 0
6 1 0.0767379 0.0213603 0
5 1 0.060617 0.00290611 0
8 1 0.100253 0.0162867 0
37 1 0.0929131 0.0396281 0
9 1 0.125278 0.0108584 0
39 1 0.117408 0.0338867 0
10 1 0.141479 0.0288428 0
12 1 0.1648 0.0224066 0
11 1 0.148822 0.0041722 0
41 1 0.182776 0.0408448 0
14 1 0.207756 0.0354763 0
15 1 0.213476 0.0114681 0
13 1 0.18955 0.0169546 0
16 1 0.255083 0.0236964 0
886 1 0.237183 0.00664066 0
47 1 0.272079 0.0417406 0
18 1 0.278774 0.0166403 0
49 1 0.296022 0.0333253 0
19 1 0.302884 0.00973482 0
20 1 0.319507 0.0268026 0
51 1 0.337791 0.0436833 0
21 1 0.344375 0.0191769 0
890 1 0.325984 0.00247647 0
22 1 0.362827 0.0363219 0
24 1 0.388255 0.0298177 0
23 1 0.368151 0.0116707 0
894 1 0.392686 0.00563016 0
25 1 0.412797 0.0227606 0
26 1 0.429899 0.0413249 0
27 1 0.448464 0.0236194 0
897 1 0.441334 0.00046901 0
29 1 0.473932 0.0288447 0
900 1 0.490241 0.00979798 0
898 1 0.466165 0.0049119 0
30 1 0.499016 0.0333414 0
32 1 0.0209429 0.057649 0
62 1 0.012678 0.0818965 0
63 1 0.0369596 0.0763405 0
34 1 0.0448746 0.0523748 0
35 1 0.0696895 0.0460188 0
65 1 0.062395 0.0711744 0
66 1 0.0786457 0.0883072 0
36 1 0.0861144 0.0650505 0
38 1 0.109526 0.0578541 0
67 1 0.103328 0.0822924 0
68 1 0.126474 0.0765192 0
69 1 0.133546 0.0526315 0
40 1 0.158125 0.0474941 0
71 1 0.150177 0.0714583 0
42 1 0.174314 0.0650368 0
72 1 0.167905 0.0894641 0
43 1 0.199328 0.0588813 0
44 1 0.215273 0.0789755 0
73 1 0.191838 0.0828018 0
45 1 0.223543 0.0547495 0
46 1 0.24814 0.0476319 0
75 1 0.240687 0.0716784 0
77 1 0.265684 0.0669374 0
76 1 0.25851 0.0900292 0
48 1 0.290068 0.0600912 0
79 1 0.306873 0.0777742 0
78 1 0.283102 0.0842183 0
50 1 0.313087 0.051895 0
81 1 0.331089 0.0686343 0
52 1 0.354916 0.0605867 0
82 1 0.349518 0.0848057 0
55 1 0.405439 0.0476632 0
53 1 0.380029 0.0532608 0
83 1 0.373152 0.076355 0
54 1 0.397982 0.0732725 0
57 1 0.440084 0.0646691 0
56 1 0.422788 0.0819039 0
87 1 0.448393 0.0883581 0
28 1 0.456798 0.0463419 0
59 1 0.482975 0.0518168 0
58 1 0.465735 0.0700308 0
89 1 0.489881 0.0759183 0
92 1 0.0228742 0.123999 0
93 1 0.0295887 0.100126 0
91 1 0.00517946 0.104573 0
64 1 0.0534123 0.094548 0
94 1 0.0475168 0.119364 0
95 1 0.0716865 0.112548 0
96 1 0.0883131 0.131105 0
97 1 0.0959805 0.106475 0
98 1 0.112187 0.124061 0
99 1 0.119718 0.100457 0
70 1 0.143838 0.0953583 0
100 1 0.136604 0.118902 0
101 1 0.161235 0.114292 0
103 1 0.185152 0.105901 0
102 1 0.194837 0.127942 0
105 1 0.209215 0.102878 0
104 1 0.217878 0.135768 0
74 1 0.234809 0.0947304 0
106 1 0.23606 0.119109 0
137 1 0.259527 0.125644 0
109 1 0.301514 0.102839 0
107 1 0.27664 0.107964 0
108 1 0.28398 0.132123 0
80 1 0.324847 0.0928446 0
110 1 0.322052 0.120634 0
111 1 0.34343 0.107786 0
141 1 0.348578 0.130675 0
84 1 0.38596 0.0963635 0
113 1 0.367299 0.112609 0
112 1 0.390998 0.119326 0
85 1 0.408833 0.101594 0
115 1 0.414695 0.125324 0
86 1 0.433121 0.107014 0
116 1 0.43894 0.130863 0
117 1 0.456094 0.112926 0
88 1 0.472421 0.0937971 0
119 1 0.480163 0.118228 0
90 1 0.496241 0.100246 0
122 1 0.0156539 0.148254 0
153 1 0.0317934 0.167191 0
152 1 0.00680586 0.171622 0
123 1 0.0403289 0.142915 0
125 1 0.0645346 0.137173 0
124 1 0.057073 0.161645 0
126 1 0.0809457 0.155822 0
155 1 0.0747577 0.18035 0
127 1 0.104676 0.148163 0
128 1 0.12199 0.164518 0
157 1 0.0990299 0.174172 0
129 1 0.128859 0.141586 0
130 1 0.152214 0.137628 0
159 1 0.157072 0.161475 0
131 1 0.176699 0.144332 0
160 1 0.14032 0.180217 0
132 1 0.181142 0.168712 0
133 1 0.200091 0.152839 0
163 1 0.205266 0.177118 0
134 1 0.224262 0.160132 0
135 1 0.241851 0.143595 0
136 1 0.266381 0.149948 0
165 1 0.247532 0.167278 0
167 1 0.272576 0.17259 0
139 1 0.307516 0.139188 0
138 1 0.290717 0.156754 0
169 1 0.314509 0.163959 0
168 1 0.295893 0.181071 0
140 1 0.33084 0.147283 0
142 1 0.354851 0.154118 0
171 1 0.336494 0.172024 0
172 1 0.361396 0.1775 0
143 1 0.373064 0.136549 0
114 1 0.398026 0.142817 0
144 1 0.403852 0.166263 0
173 1 0.379187 0.159468 0
145 1 0.421427 0.148926 0
146 1 0.429402 0.17299 0
147 1 0.445793 0.154517 0
177 1 0.452891 0.177551 0
118 1 0.463587 0.136127 0
149 1 0.48765 0.141865 0
148 1 0.470674 0.158569 0
150 1 0.495274 0.165052 0
183 1 0.0241952 0.190297 0
182 1 0.0171074 0.214178 0
181 1 0.000465959 0.19607 0
184 1 0.0408348 0.2089 0
154 1 0.0497686 0.185728 0
185 1 0.0667756 0.202886 0
215 1 0.0577902 0.2256 0
186 1 0.0823725 0.224358 0
156 1 0.092117 0.198331 0
158 1 0.118548 0.196215 0
187 1 0.127348 0.220034 0
161 1 0.163974 0.185775 0
189 1 0.144546 0.203709 0
191 1 0.168568 0.210311 0
190 1 0.150953 0.227082 0
162 1 0.187178 0.193222 0
193 1 0.211706 0.200611 0
192 1 0.193911 0.216903 0
194 1 0.217725 0.226397 0
164 1 0.230228 0.184346 0
195 1 0.234514 0.208472 0
166 1 0.254291 0.191624 0
196 1 0.260277 0.214973 0
197 1 0.277577 0.197244 0
199 1 0.302139 0.205147 0
198 1 0.283975 0.221596 0
170 1 0.319645 0.188791 0
201 1 0.34435 0.195431 0
200 1 0.32575 0.212678 0
202 1 0.350357 0.218647 0
174 1 0.385957 0.183012 0
203 1 0.368721 0.201103 0
204 1 0.393013 0.208349 0
233 1 0.374123 0.225097 0
175 1 0.410098 0.190152 0
205 1 0.416765 0.21412 0
176 1 0.434801 0.195888 0
207 1 0.440936 0.2195 0
179 1 0.476564 0.18291 0
178 1 0.458488 0.201069 0
209 1 0.483173 0.206635 0
208 1 0.464937 0.225916 0
212 1 0.0243705 0.257349 0
211 1 0.00964053 0.238356 0
213 1 0.0344822 0.234827 0
243 1 0.0488981 0.263221 0
214 1 0.0680208 0.246745 0
245 1 0.073374 0.271685 0
216 1 0.0919131 0.253641 0
217 1 0.105662 0.233312 0
218 1 0.116031 0.261071 0
188 1 0.132936 0.243507 0
219 1 0.13984 0.267415 0
221 1 0.176243 0.234082 0
220 1 0.15794 0.251381 0
222 1 0.181527 0.258863 0
223 1 0.199738 0.241885 0
253 1 0.205359 0.266702 0
224 1 0.224399 0.250538 0
225 1 0.241932 0.23262 0
227 1 0.266049 0.239158 0
226 1 0.248145 0.256658 0
257 1 0.272706 0.263074 0
229 1 0.307452 0.229009 0
228 1 0.290282 0.246579 0
230 1 0.314141 0.253616 0
259 1 0.296751 0.270487 0
231 1 0.332001 0.236664 0
232 1 0.356659 0.242347 0
261 1 0.338865 0.260565 0
263 1 0.362741 0.267201 0
235 1 0.398298 0.231586 0
234 1 0.380487 0.249668 0
265 1 0.406285 0.254699 0
206 1 0.423587 0.23756 0
237 1 0.448127 0.244752 0
236 1 0.430076 0.261588 0
238 1 0.455646 0.267606 0
210 1 0.490282 0.230213 0
239 1 0.473676 0.249964 0
240 1 0.496533 0.25553 0
241 1 0.0055053 0.272944 0
242 1 0.0291979 0.2804 0
273 1 0.0362016 0.30393 0
271 1 0.0116182 0.297796 0
244 1 0.0550425 0.287445 0
246 1 0.0790955 0.294775 0
275 1 0.0600384 0.312585 0
247 1 0.0969617 0.277938 0
249 1 0.121599 0.285399 0
248 1 0.102836 0.301913 0
279 1 0.127379 0.309666 0
251 1 0.164198 0.275969 0
250 1 0.146446 0.29177 0
281 1 0.169909 0.300569 0
280 1 0.152232 0.316693 0
252 1 0.188051 0.284165 0
254 1 0.212186 0.290853 0
283 1 0.194111 0.307953 0
284 1 0.218468 0.314691 0
255 1 0.230476 0.274325 0
256 1 0.254931 0.280509 0
285 1 0.237164 0.29757 0
287 1 0.261223 0.304584 0
258 1 0.278621 0.287587 0
288 1 0.285657 0.312291 0
289 1 0.303096 0.293678 0
260 1 0.32089 0.277081 0
262 1 0.345225 0.285407 0
291 1 0.327223 0.301702 0
292 1 0.352226 0.308779 0
264 1 0.386905 0.272988 0
293 1 0.37003 0.291265 0
295 1 0.395254 0.296809 0
294 1 0.37729 0.314874 0
266 1 0.412007 0.278226 0
267 1 0.43632 0.285167 0
297 1 0.418744 0.302755 0
298 1 0.443513 0.308995 0
269 1 0.479586 0.274639 0
268 1 0.461538 0.291402 0
270 1 0.484949 0.299082 0
299 1 0.468025 0.316322 0
1200 1 0.0178347 0.322506 0
272 1 0.0417488 0.329486 0
301 1 0.0235912 0.346213 0
276 1 0.083989 0.319568 0
303 1 0.0474575 0.353138 0
274 1 0.066628 0.337352 0
304 1 0.0729128 0.360472 0
305 1 0.0908331 0.34381 0
277 1 0.108899 0.325954 0
278 1 0.133651 0.334001 0
307 1 0.114772 0.350371 0
282 1 0.175264 0.324955 0
309 1 0.139705 0.358888 0
311 1 0.157625 0.34157 0
312 1 0.181121 0.350062 0
313 1 0.199875 0.332234 0
314 1 0.206313 0.357004 0
315 1 0.22463 0.339222 0
286 1 0.243088 0.322125 0
317 1 0.268736 0.330019 0
316 1 0.248983 0.346214 0
345 1 0.230729 0.363104 0
290 1 0.309503 0.318392 0
318 1 0.273853 0.353839 0
319 1 0.292793 0.336609 0
349 1 0.298744 0.360065 0
320 1 0.316463 0.342907 0
321 1 0.334142 0.32529 0
323 1 0.359792 0.332579 0
322 1 0.341742 0.348685 0
324 1 0.366385 0.357064 0
296 1 0.401965 0.321633 0
325 1 0.384363 0.339412 0
326 1 0.408832 0.346972 0
327 1 0.426077 0.327182 0
328 1 0.432405 0.352686 0
329 1 0.449722 0.333915 0
359 1 0.456549 0.358797 0
300 1 0.492361 0.322324 0
330 1 0.474252 0.341094 0
1201 1 0.497494 0.346471 0
1230 1 0.00572217 0.362688 0
302 1 0.0295623 0.370451 0
332 1 0.0360906 0.394812 0
331 1 0.0125023 0.388335 0
333 1 0.0538228 0.377024 0
335 1 0.078124 0.384871 0
334 1 0.0600633 0.402006 0
306 1 0.0972018 0.368293 0
308 1 0.120676 0.375716 0
337 1 0.102226 0.392386 0
338 1 0.1266 0.40025 0
310 1 0.163107 0.366734 0
339 1 0.144835 0.383701 0
341 1 0.16887 0.391168 0
340 1 0.151558 0.408216 0
343 1 0.187502 0.374623 0
342 1 0.193414 0.398748 0
344 1 0.212073 0.381674 0
373 1 0.218863 0.404763 0
347 1 0.255115 0.370674 0
346 1 0.236843 0.386732 0
377 1 0.262724 0.393329 0
348 1 0.280907 0.376824 0
350 1 0.30476 0.384265 0
378 1 0.286371 0.400156 0
379 1 0.311561 0.409045 0
351 1 0.323769 0.366994 0
381 1 0.32924 0.391278 0
353 1 0.347592 0.373349 0
352 1 0.353306 0.397322 0
355 1 0.390656 0.364017 0
354 1 0.371684 0.38142 0
385 1 0.37793 0.405226 0
356 1 0.396511 0.387696 0
387 1 0.420235 0.39525 0
357 1 0.415076 0.370789 0
358 1 0.438769 0.377997 0
388 1 0.444283 0.402235 0
360 1 0.481126 0.365364 0
389 1 0.462871 0.384015 0
1232 1 0.488106 0.388928 0
1261 1 0.46948 0.407644 0
361 1 0.0177958 0.412573 0
362 1 0.0239546 0.436976 0
363 1 0.042737 0.419244 0
392 1 0.00542376 0.454139 0
336 1 0.0836966 0.409268 0
364 1 0.048214 0.443368 0
365 1 0.0664393 0.426901 0
395 1 0.0724109 0.451558 0
366 1 0.091195 0.434585 0
367 1 0.108491 0.416813 0
368 1 0.115432 0.44221 0
369 1 0.132959 0.425141 0
371 1 0.174857 0.415757 0
399 1 0.139218 0.448501 0
370 1 0.157216 0.432798 0
401 1 0.180303 0.439512 0
372 1 0.200617 0.422242 0
403 1 0.206426 0.446345 0
374 1 0.225105 0.428821 0
375 1 0.243202 0.410901 0
376 1 0.268533 0.417263 0
405 1 0.249126 0.434428 0
404 1 0.230625 0.452598 0
407 1 0.274099 0.441023 0
409 1 0.292626 0.424641 0
410 1 0.29966 0.448114 0
380 1 0.318281 0.432012 0
382 1 0.336381 0.41543 0
383 1 0.35992 0.422617 0
413 1 0.341612 0.440051 0
386 1 0.401903 0.413175 0
384 1 0.383105 0.430418 0
414 1 0.366234 0.44816 0
417 1 0.407712 0.436571 0
418 1 0.433843 0.444357 0
419 1 0.426639 0.420248 0
390 1 0.45178 0.426343 0
420 1 0.457893 0.450573 0
1262 1 0.494728 0.413105 0
1291 1 0.475931 0.431491 0
1321 1 0.482566 0.455267 0
393 1 0.0306421 0.460601 0
422 1 0.0127813 0.477697 0
423 1 0.0362138 0.485114 0
394 1 0.0546949 0.468263 0
396 1 0.079112 0.476385 0
425 1 0.0605456 0.492883 0
397 1 0.0963197 0.45927 0
398 1 0.120951 0.466832 0
427 1 0.102821 0.483665 0
428 1 0.127287 0.491826 0
400 1 0.163248 0.457179 0
429 1 0.145428 0.474847 0
431 1 0.171283 0.481286 0
430 1 0.151857 0.498531 0
402 1 0.18809 0.463427 0
432 1 0.19487 0.488016 0
433 1 0.212659 0.4701 0
434 1 0.219197 0.495284 0
406 1 0.25596 0.457654 0
435 1 0.236942 0.476999 0
436 1 0.261651 0.480836 0
408 1 0.280492 0.465133 0
439 1 0.286427 0.489006 0
440 1 0.312234 0.497476 0
441 1 0.304336 0.47277 0
411 1 0.323543 0.457325 0
412 1 0.348534 0.464269 0
442 1 0.330566 0.481056 0
473 1 0.355153 0.489161 0
415 1 0.390642 0.454146 0
443 1 0.373176 0.471635 0
445 1 0.397669 0.480662 0
444 1 0.378318 0.497525 0
446 1 0.420362 0.488994 0
416 1 0.414433 0.462562 0
447 1 0.439283 0.468483 0
448 1 0.446067 0.494048 0
479 1 0.471256 0.497871 0
450 1 0.489256 0.478597 0
449 1 0.463775 0.474897 0
454 1 0.0235123 0.526157 0
453 1 0.0175349 0.50202 0
424 1 0.0422747 0.509435 0
483 1 0.00542838 0.543097 0
485 1 0.0478739 0.534922 0
455 1 0.0662589 0.518107 0
486 1 0.0719893 0.542298 0
456 1 0.0900716 0.525445 0
426 1 0.0841783 0.50153 0
457 1 0.109542 0.509008 0
459 1 0.133867 0.516037 0
458 1 0.115423 0.534018 0
489 1 0.139715 0.540109 0
460 1 0.15736 0.523195 0
461 1 0.176147 0.506488 0
462 1 0.182304 0.530482 0
493 1 0.207086 0.539498 0
463 1 0.201176 0.513353 0
464 1 0.22442 0.521237 0
466 1 0.248732 0.52524 0
465 1 0.24215 0.500504 0
437 1 0.2668 0.50498 0
467 1 0.273037 0.528252 0
468 1 0.295842 0.536835 0
438 1 0.292463 0.512846 0
469 1 0.31573 0.521896 0
499 1 0.318642 0.54598 0
470 1 0.339097 0.528914 0
472 1 0.359138 0.514226 0
471 1 0.335646 0.505318 0
503 1 0.361134 0.538748 0
474 1 0.382405 0.522132 0
475 1 0.401298 0.505936 0
476 1 0.407254 0.533202 0
477 1 0.427191 0.514838 0
507 1 0.4304 0.542588 0
478 1 0.453232 0.518072 0
480 1 0.465575 0.538693 0
1381 1 0.481326 0.520585 0
510 1 0.489503 0.544391 0
1351 1 0.497935 0.501337 0
482 1 0.0108764 0.567654 0
513 1 0.0286678 0.550763 0
514 1 0.0346044 0.575719 0
484 1 0.0523079 0.55958 0
515 1 0.0767347 0.56701 0
545 1 0.0581787 0.584606 0
487 1 0.0954847 0.550034 0
488 1 0.119608 0.55755 0
517 1 0.0993196 0.575131 0
519 1 0.123204 0.58387 0
491 1 0.163388 0.547157 0
490 1 0.14278 0.564268 0
520 1 0.147896 0.587769 0
521 1 0.167471 0.571172 0
492 1 0.186556 0.555292 0
523 1 0.190846 0.580285 0
494 1 0.209992 0.564735 0
524 1 0.213483 0.590403 0
495 1 0.230533 0.549091 0
525 1 0.232869 0.574802 0
496 1 0.252724 0.561148 0
526 1 0.255696 0.587906 0
497 1 0.274809 0.551584 0
527 1 0.277546 0.576135 0
498 1 0.298605 0.561861 0
529 1 0.300577 0.585344 0
500 1 0.320828 0.570217 0
501 1 0.341379 0.554875 0
531 1 0.343453 0.580213 0
502 1 0.363526 0.563299 0
505 1 0.384188 0.547461 0
504 1 0.385984 0.572306 0
533 1 0.365382 0.588674 0
506 1 0.406617 0.558985 0
535 1 0.408672 0.583334 0
508 1 0.428851 0.569373 0
509 1 0.450433 0.556791 0
539 1 0.454167 0.582545 0
540 1 0.47254 0.56395 0
1441 1 0.497757 0.569198 0
569 1 0.481713 0.587346 0
512 1 0.0166795 0.592891 0
542 1 0.0228058 0.61787 0
543 1 0.040916 0.602029 0
544 1 0.0464092 0.627401 0
571 1 0.00281093 0.634473 0
546 1 0.0645594 0.609487 0
516 1 0.0824593 0.592454 0
547 1 0.0882694 0.62014 0
518 1 0.104831 0.600996 0
548 1 0.128265 0.608577 0
577 1 0.112333 0.628448 0
522 1 0.170797 0.595609 0
549 1 0.151566 0.611475 0
551 1 0.174077 0.620536 0
550 1 0.15439 0.636028 0
553 1 0.193901 0.604807 0
552 1 0.195881 0.631624 0
554 1 0.216266 0.617779 0
555 1 0.236205 0.602302 0
556 1 0.238402 0.627881 0
557 1 0.258424 0.613556 0
528 1 0.27952 0.599553 0
559 1 0.302591 0.610054 0
558 1 0.282079 0.624255 0
560 1 0.305703 0.634327 0
530 1 0.322927 0.594836 0
561 1 0.325902 0.619993 0
532 1 0.345612 0.605643 0
562 1 0.348433 0.630155 0
563 1 0.368125 0.614166 0
534 1 0.387509 0.59756 0
565 1 0.390428 0.623945 0
536 1 0.409353 0.607123 0
537 1 0.432728 0.594195 0
567 1 0.430998 0.617827 0
568 1 0.453337 0.625582 0
566 1 0.41189 0.633267 0
538 1 0.466157 0.605165 0
570 1 0.491041 0.610628 0
600 1 0.476158 0.630283 0
573 1 0.0268563 0.642924 0
603 1 0.0296405 0.66875 0
572 1 0.00776353 0.658473 0
575 1 0.0702002 0.635886 0
574 1 0.0489197 0.653722 0
604 1 0.0513951 0.680478 0
605 1 0.071589 0.662483 0
576 1 0.0928955 0.64632 0
607 1 0.092811 0.675546 0
578 1 0.113085 0.661321 0
579 1 0.133189 0.647117 0
609 1 0.134634 0.67396 0
581 1 0.175958 0.64596 0
580 1 0.154864 0.661141 0
611 1 0.177937 0.671241 0
583 1 0.218151 0.642205 0
582 1 0.197794 0.656771 0
584 1 0.220871 0.668124 0
587 1 0.261886 0.639058 0
585 1 0.241076 0.653025 0
586 1 0.264082 0.663289 0
615 1 0.243457 0.678565 0
589 1 0.284404 0.649224 0
588 1 0.286781 0.674548 0
590 1 0.307686 0.659881 0
591 1 0.329212 0.644704 0
593 1 0.352465 0.655907 0
621 1 0.330953 0.668985 0
592 1 0.354651 0.681574 0
564 1 0.371398 0.639593 0
594 1 0.374232 0.666496 0
595 1 0.393595 0.650242 0
625 1 0.397348 0.674612 0
596 1 0.416191 0.658319 0
597 1 0.43511 0.643085 0
598 1 0.440729 0.66743 0
599 1 0.458598 0.649531 0
629 1 0.481951 0.655016 0
628 1 0.46429 0.673038 0
630 1 0.488564 0.680391 0
602 1 0.0109644 0.68511 0
633 1 0.0315838 0.696448 0
632 1 0.0113072 0.711224 0
634 1 0.0332545 0.721635 0
606 1 0.0732425 0.690776 0
635 1 0.0530136 0.706372 0
636 1 0.0753515 0.717362 0
637 1 0.0948049 0.701158 0
608 1 0.114953 0.688027 0
638 1 0.116538 0.714567 0
639 1 0.137142 0.699275 0
640 1 0.139598 0.72534 0
610 1 0.157318 0.685814 0
641 1 0.159733 0.710889 0
612 1 0.180572 0.696548 0
642 1 0.181965 0.72163 0
613 1 0.200383 0.6823 0
614 1 0.222883 0.693341 0
643 1 0.20252 0.708163 0
645 1 0.224818 0.717468 0
617 1 0.266575 0.688286 0
616 1 0.245897 0.703179 0
647 1 0.269108 0.712983 0
619 1 0.310531 0.683869 0
618 1 0.290425 0.700045 0
620 1 0.31342 0.709258 0
649 1 0.291976 0.724053 0
622 1 0.334062 0.694249 0
651 1 0.336272 0.719951 0
653 1 0.357997 0.706838 0
623 1 0.377992 0.691456 0
624 1 0.381977 0.717291 0
626 1 0.401976 0.699575 0
655 1 0.40835 0.722459 0
627 1 0.421398 0.682763 0
657 1 0.447061 0.691079 0
656 1 0.428922 0.708382 0
658 1 0.453049 0.716853 0
659 1 0.471235 0.696916 0
1531 1 0.496985 0.70212 0
660 1 0.47998 0.719742 0
662 1 0.0125148 0.760525 0
663 1 0.0110445 0.736008 0
664 1 0.033446 0.746145 0
694 1 0.0344337 0.771244 0
665 1 0.0554581 0.731758 0
666 1 0.076251 0.743592 0
695 1 0.0558006 0.758259 0
697 1 0.0773744 0.769188 0
667 1 0.0968332 0.728701 0
669 1 0.119423 0.739869 0
668 1 0.0979864 0.753676 0
699 1 0.120388 0.765314 0
670 1 0.141136 0.750291 0
671 1 0.161786 0.736103 0
672 1 0.163724 0.761762 0
673 1 0.184485 0.746146 0
644 1 0.205475 0.732574 0
674 1 0.207628 0.757548 0
703 1 0.186828 0.772046 0
675 1 0.228183 0.742335 0
646 1 0.247858 0.727719 0
705 1 0.229763 0.76685 0
677 1 0.250567 0.752278 0
648 1 0.271099 0.737743 0
678 1 0.273572 0.766762 0
650 1 0.314965 0.733452 0
679 1 0.293629 0.749002 0
681 1 0.316757 0.756624 0
652 1 0.339184 0.745431 0
682 1 0.335862 0.771745 0
683 1 0.358268 0.759415 0
654 1 0.360736 0.732757 0
685 1 0.380148 0.750024 0
715 1 0.398753 0.771261 0
686 1 0.404706 0.745698 0
687 1 0.431427 0.735176 0
717 1 0.422112 0.762894 0
688 1 0.445566 0.756865 0
689 1 0.463868 0.739107 0
690 1 0.488377 0.744347 0
719 1 0.471185 0.763952 0
1591 1 0.495399 0.767541 0
693 1 0.0141018 0.785369 0
692 1 0.0128113 0.810667 0
723 1 0.0354118 0.797057 0
696 1 0.0563908 0.783578 0
725 1 0.0587103 0.807598 0
727 1 0.0790535 0.793875 0
698 1 0.0996001 0.77918 0
728 1 0.101061 0.805074 0
729 1 0.122947 0.814587 0
700 1 0.122036 0.790524 0
701 1 0.142986 0.775051 0
702 1 0.165261 0.785849 0
731 1 0.144568 0.800668 0
732 1 0.166643 0.810796 0
704 1 0.209414 0.78286 0
733 1 0.188872 0.796936 0
735 1 0.211139 0.809217 0
706 1 0.233206 0.794714 0
676 1 0.251079 0.777304 0
707 1 0.265789 0.795991 0
680 1 0.312018 0.780869 0
709 1 0.288189 0.78778 0
708 1 0.283935 0.813047 0
710 1 0.307182 0.804932 0
711 1 0.331116 0.796682 0
712 1 0.349819 0.811923 0
713 1 0.354175 0.78778 0
684 1 0.376859 0.778517 0
714 1 0.39649 0.795933 0
743 1 0.37271 0.803178 0
716 1 0.419415 0.787163 0
747 1 0.438939 0.801864 0
746 1 0.416874 0.813013 0
718 1 0.452788 0.781522 0
720 1 0.478481 0.786736 0
749 1 0.463161 0.806441 0
1621 1 0.487958 0.810604 0
722 1 0.0385269 0.822303 0
751 1 0.0176749 0.834579 0
752 1 0.0152647 0.859957 0
753 1 0.0380983 0.84814 0
726 1 0.0804853 0.818942 0
724 1 0.0597464 0.834525 0
755 1 0.0816308 0.845366 0
754 1 0.0596487 0.860601 0
756 1 0.104944 0.854562 0
757 1 0.103324 0.82986 0
759 1 0.125482 0.840204 0
730 1 0.145951 0.824945 0
760 1 0.148286 0.850308 0
761 1 0.168038 0.835763 0
791 1 0.171422 0.863674 0
763 1 0.189526 0.821667 0
734 1 0.211613 0.833435 0
762 1 0.18994 0.846441 0
764 1 0.209103 0.8605 0
737 1 0.259362 0.820557 0
736 1 0.233847 0.821112 0
767 1 0.255132 0.843388 0
765 1 0.231354 0.848999 0
768 1 0.272783 0.861266 0
739 1 0.302889 0.829912 0
738 1 0.278223 0.837167 0
769 1 0.296244 0.853988 0
741 1 0.32643 0.821372 0
740 1 0.321561 0.845776 0
771 1 0.339875 0.861905 0
742 1 0.345245 0.837324 0
773 1 0.363848 0.853662 0
745 1 0.391912 0.820573 0
744 1 0.368166 0.828267 0
774 1 0.387122 0.846723 0
775 1 0.409814 0.838621 0
777 1 0.432646 0.845693 0
748 1 0.447037 0.825709 0
776 1 0.411185 0.864501 0
750 1 0.472082 0.830524 0
779 1 0.456951 0.849458 0
780 1 0.480854 0.85401 0
1651 1 0.497019 0.835218 0
812 1 -0.000121299 0.907384 0
783 1 0.0359441 0.874049 0
782 1 0.00731082 0.883106 0
813 1 0.0259755 0.899447 0
785 1 0.0825462 0.87007 0
784 1 0.0591857 0.885784 0
786 1 0.0845938 0.895153 0
758 1 0.128722 0.865341 0
787 1 0.105885 0.878128 0
788 1 0.128844 0.889479 0
817 1 0.10873 0.902147 0
789 1 0.150222 0.876785 0
819 1 0.150035 0.901651 0
790 1 0.173118 0.891252 0
792 1 0.19863 0.883146 0
793 1 0.217685 0.899914 0
823 1 0.192677 0.907441 0
795 1 0.226769 0.87639 0
766 1 0.248982 0.867503 0
796 1 0.243885 0.892147 0
797 1 0.267701 0.884946 0
799 1 0.291227 0.877758 0
798 1 0.286402 0.902579 0
800 1 0.309399 0.895498 0
770 1 0.316191 0.869838 0
801 1 0.334482 0.88578 0
802 1 0.351622 0.902891 0
772 1 0.357671 0.878648 0
803 1 0.381827 0.87091 0
805 1 0.400298 0.887181 0
804 1 0.375997 0.895834 0
778 1 0.440229 0.868422 0
807 1 0.424724 0.886898 0
808 1 0.448716 0.892977 0
809 1 0.464938 0.872766 0
1681 1 0.490716 0.877514 0
810 1 0.474002 0.896346 0
1711 1 0.498657 0.901106 0
842 1 0.00934744 0.949506 0
843 1 0.0168819 0.925501 0
844 1 0.0340824 0.943545 0
814 1 0.0409994 0.919668 0
815 1 0.0649889 0.912044 0
816 1 0.0830309 0.930519 0
845 1 0.059274 0.936362 0
818 1 0.129707 0.915311 0
847 1 0.106124 0.925705 0
849 1 0.125219 0.940993 0
848 1 0.100614 0.948962 0
821 1 0.16983 0.915722 0
820 1 0.149113 0.931565 0
851 1 0.167663 0.951024 0
794 1 0.21227 0.923252 0
824 1 0.208145 0.947636 0
822 1 0.186549 0.933201 0
827 1 0.262166 0.909348 0
825 1 0.237407 0.915808 0
855 1 0.231025 0.940528 0
826 1 0.253691 0.932879 0
857 1 0.273856 0.95069 0
829 1 0.302729 0.919496 0
828 1 0.278652 0.927201 0
859 1 0.298033 0.943896 0
831 1 0.327827 0.911242 0
830 1 0.321196 0.936334 0
832 1 0.344557 0.928725 0
861 1 0.338396 0.953238 0
863 1 0.362492 0.945373 0
806 1 0.394472 0.913082 0
833 1 0.369104 0.919773 0
834 1 0.38607 0.937231 0
837 1 0.430973 0.911569 0
835 1 0.413232 0.930876 0
838 1 0.440509 0.934312 0
836 1 0.425949 0.954181 0
839 1 0.456903 0.915539 0
840 1 0.481494 0.919966 0
1741 1 0.489893 0.942989 0
869 1 0.465332 0.938884 0
872 1 0.0196867 0.991687 0
873 1 0.02641 0.968002 0
871 1 0.00257293 0.97326 0
874 1 0.0437539 0.985728 0
846 1 0.0764152 0.954989 0
875 1 0.0515093 0.959935 0
876 1 0.0675753 0.97879 0
7 1 0.0847762 0.996542 0
877 1 0.0923447 0.972677 0
878 1 0.108914 0.99223 0
879 1 0.118146 0.96562 0
880 1 0.132549 0.984576 0
850 1 0.142314 0.959453 0
881 1 0.156312 0.979945 0
852 1 0.17952 0.974331 0
882 1 0.172565 0.999249 0
853 1 0.20362 0.971234 0
883 1 0.195896 0.993547 0
884 1 0.220877 0.988253 0
854 1 0.226761 0.964953 0
856 1 0.250449 0.957526 0
885 1 0.244676 0.982155 0
17 1 0.261569 0.998889 0
887 1 0.26829 0.974989 0
860 1 0.314611 0.960401 0
858 1 0.29131 0.967301 0
888 1 0.284886 0.992055 0
889 1 0.308663 0.984993 0
862 1 0.35608 0.970271 0
891 1 0.332782 0.977465 0
892 1 0.350045 0.995059 0
865 1 0.40256 0.954501 0
864 1 0.379584 0.9632 0
893 1 0.374863 0.987326 0
895 1 0.397952 0.980458 0
867 1 0.45 0.957649 0
866 1 0.431734 0.977731 0
896 1 0.416024 0.996495 0
1771 1 0.498568 0.967118 0
868 1 0.45753 0.982079 0
899 1 0.481865 0.986497 0
870 1 0.473862 0.963002 0
902 1 0.539714 0.0203929 0
931 1 0.523022 0.0390392 0
901 1 0.515351 0.0146613 0
904 1 0.564259 0.0256155 0
906 1 0.5797 0.00677866 0
935 1 0.588274 0.0318288 0
933 1 0.547937 0.0434477 0
905 1 0.555723 0.00194878 0
908 1 0.60387 0.013057 0
937 1 0.612361 0.0369117 0
939 1 0.628467 0.0185302 0
938 1 0.635901 0.0428829 0
940 1 0.652272 0.0249795 0
971 1 0.676805 0.0285483 0
942 1 0.668904 0.00579826 0
943 1 0.693367 0.0108293 0
944 1 0.700129 0.0352986 0
945 1 0.716839 0.0186386 0
947 1 0.741303 0.0125815 0
948 1 0.759454 0.0310048 0
918 1 0.766315 0.00701679 0
946 1 0.734289 0.0362481 0
919 1 0.789682 0.00178471 0
949 1 0.783088 0.0254874 0
920 1 0.806842 0.0189183 0
979 1 0.800531 0.0425585 0
951 1 0.831141 0.0133819 0
952 1 0.847697 0.0322467 0
922 1 0.855078 0.00771046 0
950 1 0.824233 0.038361 0
953 1 0.871699 0.026163 0
955 1 0.896437 0.0206943 0
924 1 0.880152 0.0025507 0
954 1 0.889056 0.0443102 0
926 1 0.921928 0.015077 0
928 1 0.946 0.00920443 0
957 1 0.937848 0.0332829 0
956 1 0.912473 0.0389616 0
930 1 0.987033 0.0213958 0
959 1 0.962527 0.0279969 0
929 1 0.969891 0.00359699 0
932 1 0.531314 0.0625041 0
962 1 0.538817 0.0869222 0
961 1 0.51371 0.081133 0
60 1 0.507257 0.0571448 0
934 1 0.571582 0.0493185 0
963 1 0.555076 0.0677524 0
965 1 0.579387 0.073722 0
936 1 0.596164 0.0561222 0
966 1 0.604006 0.0800515 0
967 1 0.619982 0.0615048 0
968 1 0.62764 0.0854606 0
970 1 0.659452 0.0489652 0
969 1 0.644177 0.0670712 0
972 1 0.667907 0.0737871 0
999 1 0.651787 0.0928213 0
973 1 0.683526 0.0538424 0
975 1 0.70676 0.0588496 0
1003 1 0.692574 0.0792947 0
1004 1 0.717692 0.082183 0
974 1 0.730501 0.0603858 0
976 1 0.753603 0.0552438 0
1005 1 0.745201 0.079231 0
1007 1 0.769141 0.0738207 0
977 1 0.777084 0.0494303 0
978 1 0.792874 0.0671996 0
1009 1 0.809063 0.0854263 0
980 1 0.816785 0.0616034 0
981 1 0.84099 0.0560348 0
1011 1 0.833604 0.0799382 0
982 1 0.857337 0.074616 0
983 1 0.865171 0.0506599 0
984 1 0.882199 0.069336 0
1015 1 0.898792 0.0873751 0
985 1 0.905745 0.0632644 0
986 1 0.923381 0.0811059 0
987 1 0.93048 0.0569929 0
988 1 0.947464 0.0756872 0
960 1 0.979654 0.0457278 0
958 1 0.954787 0.0514166 0
989 1 0.971671 0.0697172 0
990 1 0.988812 0.0873228 0
61 1 0.996551 0.0630469 0
991 1 0.520392 0.105517 0
992 1 0.529363 0.128995 0
120 1 0.504704 0.123354 0
993 1 0.545701 0.111118 0
964 1 0.562579 0.0928034 0
994 1 0.569981 0.116439 0
995 1 0.586986 0.098495 0
1023 1 0.553068 0.135044 0
996 1 0.59381 0.123387 0
997 1 0.610903 0.10436 0
1027 1 0.618051 0.128748 0
998 1 0.635252 0.110725 0
1000 1 0.660906 0.116533 0
1001 1 0.676283 0.0978014 0
1029 1 0.642581 0.134495 0
1031 1 0.684712 0.121985 0
1002 1 0.702988 0.10214 0
1033 1 0.708695 0.126556 0
1006 1 0.760521 0.0981808 0
1035 1 0.73537 0.103308 0
1036 1 0.754833 0.122083 0
1034 1 0.732182 0.131153 0
1037 1 0.777781 0.116038 0
1008 1 0.785595 0.0916206 0
1039 1 0.802029 0.110142 0
1038 1 0.794715 0.134868 0
1010 1 0.825854 0.104181 0
1012 1 0.849886 0.0982087 0
1041 1 0.841657 0.122874 0
1040 1 0.818193 0.128919 0
1043 1 0.866308 0.116933 0
1013 1 0.87417 0.0926085 0
1014 1 0.89079 0.110815 0
1044 1 0.883197 0.135103 0
1016 1 0.906829 0.129088 0
1017 1 0.915186 0.105187 0
1018 1 0.939305 0.099233 0
1047 1 0.931149 0.123666 0
1019 1 0.96426 0.0932923 0
1020 1 0.980542 0.111476 0
1049 1 0.955974 0.116878 0
121 1 0.998385 0.128272 0
1050 1 0.972361 0.134416 0
1022 1 0.537812 0.152834 0
1053 1 0.543261 0.177206 0
1051 1 0.519252 0.170873 0
1021 1 0.512089 0.147076 0
1025 1 0.577525 0.141079 0
1024 1 0.560671 0.159284 0
1055 1 0.584547 0.165183 0
1026 1 0.601979 0.147873 0
1028 1 0.625916 0.153317 0
1057 1 0.609127 0.171138 0
1058 1 0.633235 0.176329 0
1059 1 0.65095 0.158005 0
1030 1 0.667394 0.140096 0
1061 1 0.675415 0.163869 0
1060 1 0.657625 0.181935 0
1032 1 0.692151 0.146244 0
1063 1 0.716858 0.149962 0
1062 1 0.699767 0.169015 0
1064 1 0.723948 0.173779 0
1065 1 0.740501 0.154261 0
1066 1 0.763961 0.163142 0
1067 1 0.770321 0.140311 0
1095 1 0.74873 0.181164 0
1068 1 0.788082 0.158519 0
1069 1 0.811387 0.153391 0
1099 1 0.802538 0.179195 0
1071 1 0.834996 0.147582 0
1070 1 0.826049 0.171897 0
1072 1 0.851056 0.165724 0
1042 1 0.859495 0.140763 0
1073 1 0.875432 0.158926 0
1045 1 0.899756 0.153817 0
1074 1 0.892958 0.178254 0
1075 1 0.916895 0.170815 0
1046 1 0.924075 0.147238 0
1077 1 0.940737 0.166086 0
1048 1 0.948814 0.140466 0
1079 1 0.965413 0.158297 0
151 1 0.990246 0.152709 0
1080 1 0.982512 0.176949 0
1052 1 0.525902 0.195425 0
1082 1 0.532484 0.220862 0
1081 1 0.50925 0.213307 0
180 1 0.501564 0.189308 0
1054 1 0.567089 0.183453 0
1083 1 0.55035 0.201217 0
1085 1 0.574334 0.207696 0
1084 1 0.556972 0.2259 0
1056 1 0.591539 0.18949 0
1086 1 0.598039 0.21322 0
1087 1 0.615658 0.195041 0
1088 1 0.622832 0.21866 0
1089 1 0.640106 0.200123 0
1090 1 0.664896 0.204806 0
1119 1 0.646954 0.223685 0
1091 1 0.682369 0.187361 0
1092 1 0.690551 0.211394 0
1093 1 0.707233 0.192244 0
1123 1 0.715063 0.217176 0
1094 1 0.731969 0.199003 0
1096 1 0.757428 0.20541 0
1125 1 0.739861 0.22309 0
1127 1 0.781398 0.209768 0
1097 1 0.773391 0.185492 0
1098 1 0.807263 0.217142 0
1100 1 0.820399 0.196141 0
1101 1 0.844893 0.189924 0
1129 1 0.834776 0.217508 0
1102 1 0.861853 0.207731 0
1103 1 0.868703 0.182668 0
1104 1 0.886059 0.202897 0
1133 1 0.903843 0.220179 0
1105 1 0.910058 0.195859 0
1076 1 0.93417 0.189382 0
1135 1 0.927377 0.213625 0
1107 1 0.951616 0.206572 0
1078 1 0.958305 0.182715 0
1109 1 0.975649 0.201434 0
1110 1 0.992623 0.219687 0
1108 1 0.968293 0.225403 0
1111 1 0.513974 0.237381 0
1113 1 0.539022 0.244083 0
1112 1 0.521557 0.261303 0
1143 1 0.545405 0.267702 0
1114 1 0.563102 0.250032 0
1115 1 0.580715 0.232625 0
1116 1 0.587271 0.255177 0
1117 1 0.605921 0.236874 0
1118 1 0.629616 0.241807 0
1147 1 0.612725 0.260589 0
1121 1 0.67143 0.228183 0
1149 1 0.636292 0.266126 0
1120 1 0.654653 0.247034 0
1151 1 0.678625 0.253193 0
1150 1 0.660425 0.271042 0
1122 1 0.696583 0.234629 0
1124 1 0.72139 0.240776 0
1153 1 0.704081 0.258884 0
1126 1 0.764505 0.229412 0
1154 1 0.728699 0.264901 0
1155 1 0.747193 0.247755 0
1157 1 0.772198 0.252657 0
1156 1 0.754297 0.270413 0
1128 1 0.78865 0.233716 0
1159 1 0.814439 0.240981 0
1158 1 0.797165 0.258061 0
1160 1 0.822392 0.265247 0
1131 1 0.857161 0.231432 0
1130 1 0.838267 0.247058 0
1191 1 0.846289 0.271443 0
1161 1 0.864492 0.253699 0
1132 1 0.883861 0.235856 0