ITEM: TIMESTEP
172000
ITEM: NUMBER OF ATOMS
1800
ITEM: BOX BOUNDS pp pp pp
1.2542736072252438e+00 1.6374572639278045e+02
1.2542736072252438e+00 1.6374572639278045e+02
0.0000000000000000e+00 5.5000000000000000e+00
ITEM: ATOMS id type xs ys zs
2 1 0.0238625 0.00773363 0
31 1 0.0177291 0.0328231 0
33 1 0.0414812 0.0249347 0
930 1 0.000256184 0.0151385 0
3 1 0.0483436 0.000522724 0
4 1 0.0659453 0.017727 0
35 1 0.0838887 0.0352782 0
34 1 0.0599614 0.0423238 0
6 1 0.0904551 0.0113732 0
8 1 0.114518 0.00525707 0
37 1 0.108415 0.0284165 0
39 1 0.13238 0.0225899 0
10 1 0.156451 0.0160507 0
41 1 0.174034 0.0331868 0
40 1 0.14983 0.0387743 0
12 1 0.181746 0.00960876 0
14 1 0.199558 0.027409 0
15 1 0.22431 0.0207946 0
13 1 0.206506 0.00371826 0
45 1 0.216617 0.0443472 0
16 1 0.247467 0.0142114 0
46 1 0.240638 0.039048 0
47 1 0.265226 0.0318901 0
18 1 0.271345 0.00854989 0
49 1 0.289448 0.0251252 0
50 1 0.306874 0.0433848 0
20 1 0.313187 0.0190714 0
19 1 0.295089 0.000912732 0
51 1 0.330947 0.0360466 0
22 1 0.355791 0.030537 0
21 1 0.337366 0.012474 0
23 1 0.36191 0.00723405 0
24 1 0.380296 0.0241893 0
55 1 0.398327 0.0411332 0
25 1 0.404387 0.0178005 0
26 1 0.433069 0.0363066 0
27 1 0.42838 0.0125385 0
898 1 0.45248 0.0188512 0
28 1 0.458511 0.0427169 0
29 1 0.477002 0.0254576 0
900 1 0.495988 0.00673096 0
32 1 0.0358433 0.0489904 0
62 1 0.0300546 0.0734836 0
61 1 0.0122258 0.0575345 0
990 1 0.00585384 0.0819232 0
63 1 0.0540722 0.0663416 0
65 1 0.0789552 0.0595394 0
66 1 0.0725402 0.0835686 0
38 1 0.125391 0.0462407 0
36 1 0.10135 0.0522707 0
67 1 0.0960479 0.0773409 0
69 1 0.120512 0.0700236 0
71 1 0.144486 0.0627729 0
42 1 0.167864 0.0565133 0
72 1 0.161961 0.0809228 0
70 1 0.138059 0.0878317 0
43 1 0.192529 0.0512228 0
44 1 0.210052 0.0675683 0
73 1 0.185498 0.0745206 0
74 1 0.227147 0.0861138 0
75 1 0.234183 0.062761 0
77 1 0.258117 0.0563064 0
76 1 0.251319 0.0797103 0
48 1 0.282743 0.0493288 0
78 1 0.275714 0.0731069 0
79 1 0.300902 0.0678071 0
80 1 0.318782 0.0846555 0
81 1 0.324895 0.0603969 0
52 1 0.349908 0.0548329 0
82 1 0.343795 0.0788509 0
53 1 0.37398 0.048553 0
83 1 0.367841 0.073012 0
54 1 0.393078 0.0661676 0
84 1 0.387815 0.0888248 0
85 1 0.41307 0.0816173 0
57 1 0.4405 0.060405 0
56 1 0.416355 0.0576664 0
87 1 0.447629 0.0838711 0
59 1 0.48313 0.0491661 0
58 1 0.464837 0.0662759 0
89 1 0.488513 0.0734643 0
92 1 0.0177801 0.12436 0
93 1 0.0242197 0.098651 0
94 1 0.0413403 0.115859 0
91 1 0.000749316 0.106119 0
64 1 0.0482889 0.0903152 0
95 1 0.0649854 0.107724 0
96 1 0.083289 0.126052 0
125 1 0.0596996 0.132973 0
97 1 0.0900117 0.101983 0
68 1 0.112947 0.0944289 0
98 1 0.10671 0.119525 0
99 1 0.13212 0.111901 0
100 1 0.155649 0.10448 0
131 1 0.174295 0.122344 0
130 1 0.149792 0.12942 0
101 1 0.179773 0.0985684 0
103 1 0.203529 0.0911883 0
102 1 0.197489 0.115186 0
105 1 0.222057 0.110977 0
104 1 0.215727 0.13455 0
106 1 0.245595 0.104125 0
137 1 0.26405 0.120898 0
135 1 0.239527 0.127968 0
107 1 0.269805 0.0972728 0
109 1 0.293023 0.0915849 0
108 1 0.287555 0.116181 0
110 1 0.310326 0.108266 0
139 1 0.304633 0.13322 0
111 1 0.335131 0.103526 0
141 1 0.347365 0.123344 0
113 1 0.362428 0.0974143 0
143 1 0.370226 0.131627 0
112 1 0.385814 0.113429 0
115 1 0.410265 0.118273 0
86 1 0.427634 0.101282 0
116 1 0.434377 0.12542 0
117 1 0.451269 0.108421 0
88 1 0.470303 0.09149 0
118 1 0.45795 0.133444 0
90 1 0.494372 0.0972605 0
119 1 0.474993 0.115527 0
123 1 0.0359983 0.140604 0
122 1 0.0111845 0.149083 0
153 1 0.0299242 0.165179 0
152 1 0.00678331 0.173341 0
124 1 0.0543364 0.158074 0
126 1 0.0779528 0.150517 0
155 1 0.0720589 0.175163 0
129 1 0.124914 0.135724 0
127 1 0.101713 0.143323 0
128 1 0.119463 0.160994 0
157 1 0.0958263 0.167934 0
160 1 0.137584 0.17673 0
159 1 0.142913 0.152479 0
132 1 0.167879 0.145855 0
161 1 0.162396 0.169024 0
133 1 0.191462 0.140409 0
163 1 0.186143 0.164207 0
134 1 0.209787 0.158069 0
164 1 0.227485 0.17535 0
136 1 0.258601 0.144806 0
165 1 0.234832 0.151773 0
167 1 0.267344 0.16817 0
138 1 0.284108 0.148443 0
169 1 0.310289 0.156829 0
168 1 0.291172 0.173099 0
170 1 0.314622 0.181962 0
140 1 0.328521 0.139165 0
142 1 0.352258 0.148288 0
171 1 0.333876 0.164258 0
172 1 0.357743 0.172177 0
114 1 0.393407 0.13702 0
144 1 0.39933 0.16116 0
173 1 0.376238 0.154991 0
174 1 0.381831 0.179179 0
145 1 0.417754 0.143622 0
146 1 0.42373 0.167519 0
147 1 0.440942 0.150898 0
177 1 0.44832 0.174031 0
149 1 0.482201 0.139246 0
148 1 0.465438 0.156501 0
150 1 0.489604 0.162663 0
179 1 0.472315 0.181142 0
181 1 0.000544142 0.197988 0
183 1 0.0246139 0.191093 0
182 1 0.0189122 0.215979 0
184 1 0.0417803 0.208087 0
154 1 0.0478298 0.18316 0
185 1 0.0660097 0.200309 0
186 1 0.0837998 0.216496 0
215 1 0.0604258 0.225223 0
156 1 0.0893397 0.192123 0
158 1 0.11312 0.184439 0
187 1 0.107267 0.208542 0
189 1 0.130989 0.200571 0
188 1 0.125747 0.225122 0
191 1 0.156019 0.194147 0
190 1 0.14935 0.217322 0
221 1 0.174308 0.2115 0
162 1 0.179384 0.187169 0
193 1 0.203618 0.181897 0
192 1 0.197699 0.205797 0
194 1 0.215306 0.220804 0
195 1 0.231514 0.201244 0
166 1 0.250079 0.185636 0
196 1 0.255603 0.208975 0
225 1 0.238076 0.228171 0
197 1 0.273792 0.192225 0
199 1 0.296908 0.197996 0
198 1 0.278819 0.215493 0
229 1 0.302824 0.222808 0
201 1 0.339043 0.189303 0
200 1 0.320715 0.205692 0
202 1 0.345556 0.213411 0
203 1 0.362575 0.195675 0
175 1 0.405631 0.185065 0
233 1 0.369526 0.220629 0
204 1 0.386539 0.203374 0
235 1 0.393233 0.227026 0
205 1 0.412015 0.208794 0
176 1 0.430034 0.191357 0
207 1 0.436241 0.215993 0
178 1 0.454422 0.198284 0
180 1 0.495394 0.187302 0
208 1 0.460115 0.223334 0
209 1 0.477724 0.205099 0
212 1 0.0134054 0.240673 0
213 1 0.036395 0.233019 0
243 1 0.0312849 0.257173 0
241 1 0.00683094 0.265026 0
216 1 0.0789186 0.241695 0
214 1 0.0554811 0.24977 0
245 1 0.0733396 0.265919 0
217 1 0.101805 0.232734 0
218 1 0.12022 0.248856 0
247 1 0.0972286 0.258388 0
249 1 0.137368 0.264767 0
219 1 0.143939 0.241013 0
220 1 0.167194 0.234062 0
222 1 0.178686 0.255103 0
251 1 0.160212 0.27201 0
223 1 0.192054 0.231497 0
253 1 0.200883 0.262053 0
224 1 0.218951 0.245164 0
255 1 0.225116 0.269552 0
227 1 0.26129 0.233356 0
226 1 0.243613 0.252188 0
257 1 0.267162 0.257965 0
228 1 0.284932 0.24029 0
230 1 0.309425 0.24687 0
259 1 0.291522 0.264852 0
260 1 0.314817 0.271596 0
231 1 0.327083 0.22985 0
232 1 0.350958 0.237054 0
261 1 0.334072 0.254327 0
263 1 0.357427 0.261421 0
234 1 0.375202 0.244349 0
265 1 0.399342 0.251004 0
264 1 0.381782 0.268668 0
206 1 0.417012 0.232929 0
237 1 0.440613 0.240064 0
236 1 0.423847 0.256716 0
238 1 0.447382 0.264959 0
210 1 0.483761 0.22949 0
239 1 0.465252 0.247569 0
240 1 0.489574 0.253538 0
269 1 0.472047 0.271139 0
242 1 0.0252794 0.280999 0
271 1 0.0195408 0.305257 0
273 1 0.0451366 0.297701 0
1170 1 0.00107398 0.28891 0
244 1 0.0490944 0.273412 0
275 1 0.0684812 0.289752 0
276 1 0.0762386 0.312884 0
246 1 0.094574 0.293519 0
248 1 0.115989 0.277317 0
279 1 0.119601 0.302987 0
250 1 0.140056 0.288325 0
281 1 0.164048 0.296565 0
280 1 0.144809 0.311465 0
252 1 0.182453 0.28027 0
254 1 0.206382 0.286413 0
283 1 0.188714 0.304724 0
284 1 0.212094 0.31142 0
256 1 0.248989 0.275988 0
285 1 0.230133 0.293312 0
287 1 0.254288 0.299785 0
258 1 0.273762 0.282025 0
288 1 0.278831 0.306322 0
289 1 0.297697 0.289994 0
290 1 0.303041 0.315029 0
262 1 0.339712 0.278313 0
291 1 0.321694 0.296168 0
292 1 0.346046 0.30184 0
293 1 0.363384 0.285482 0
266 1 0.405144 0.274548 0
295 1 0.38757 0.292044 0
294 1 0.369608 0.3099 0
296 1 0.394049 0.316391 0
267 1 0.429029 0.281527 0
297 1 0.411534 0.299007 0
298 1 0.435319 0.306297 0
268 1 0.453411 0.288526 0
270 1 0.477908 0.295029 0
299 1 0.460473 0.311964 0
1141 1 0.4957 0.277815 0
272 1 0.0357735 0.322284 0
301 1 0.0127518 0.333941 0
303 1 0.0387442 0.34626 0
302 1 0.0175118 0.359441 0
274 1 0.0581668 0.329441 0
304 1 0.0622094 0.353591 0
305 1 0.0818158 0.336724 0
306 1 0.0861531 0.361337 0
277 1 0.0997499 0.318732 0
278 1 0.125243 0.3273 0
307 1 0.106486 0.34416 0
309 1 0.129894 0.35217 0
282 1 0.169265 0.320933 0
311 1 0.148784 0.336084 0
312 1 0.17252 0.344415 0
310 1 0.153358 0.361094 0
313 1 0.19318 0.328095 0
314 1 0.197248 0.352281 0
315 1 0.216877 0.335642 0
345 1 0.222796 0.359424 0
286 1 0.236578 0.316696 0
317 1 0.26028 0.323603 0
316 1 0.241151 0.342408 0
318 1 0.265641 0.348001 0
319 1 0.284254 0.331276 0
320 1 0.308882 0.340244 0
349 1 0.289573 0.355944 0
350 1 0.314333 0.363852 0
321 1 0.327246 0.320764 0
322 1 0.33309 0.344644 0
323 1 0.351736 0.326984 0
353 1 0.357499 0.351203 0
324 1 0.375413 0.334499 0
325 1 0.398692 0.341817 0
355 1 0.380884 0.358896 0
326 1 0.424572 0.348049 0
327 1 0.416987 0.323424 0
328 1 0.443294 0.329497 0
359 1 0.449063 0.355151 0
300 1 0.484652 0.318716 0
329 1 0.466206 0.33643 0
1201 1 0.490715 0.34256 0
330 1 0.472608 0.360524 0
332 1 0.0241387 0.385382 0
361 1 0.00433761 0.4022 0
333 1 0.0430467 0.369856 0
334 1 0.0484281 0.394237 0
335 1 0.067962 0.37867 0
336 1 0.0714644 0.403051 0
337 1 0.091848 0.386058 0
308 1 0.111965 0.368852 0
338 1 0.115088 0.393725 0
339 1 0.135413 0.376722 0
340 1 0.139195 0.401479 0
341 1 0.159528 0.385921 0
343 1 0.178615 0.369541 0
342 1 0.183589 0.392942 0
344 1 0.20366 0.376297 0
373 1 0.208295 0.4008 0
346 1 0.228581 0.382773 0
347 1 0.247087 0.365878 0
377 1 0.252091 0.390009 0
348 1 0.270606 0.372382 0
375 1 0.231272 0.408256 0
376 1 0.275934 0.397651 0
378 1 0.295029 0.380525 0
409 1 0.299821 0.405312 0
379 1 0.319295 0.387787 0
351 1 0.338447 0.369814 0
381 1 0.342698 0.39573 0
352 1 0.363428 0.376383 0
356 1 0.406116 0.365709 0
382 1 0.367393 0.402249 0
354 1 0.387546 0.381924 0
383 1 0.391975 0.405953 0
385 1 0.41151 0.390425 0
357 1 0.430622 0.372531 0
387 1 0.436281 0.397025 0
358 1 0.455023 0.378879 0
360 1 0.478484 0.385316 0
1231 1 0.495508 0.36682 0
389 1 0.461167 0.403196 0
1261 1 0.484703 0.408419 0
363 1 0.028399 0.409465 0
362 1 0.0085708 0.427117 0
364 1 0.0313124 0.434822 0
393 1 0.0140381 0.452124 0
365 1 0.0516997 0.419975 0
366 1 0.0765015 0.427957 0
395 1 0.0576007 0.443878 0
397 1 0.0821448 0.451728 0
367 1 0.0963529 0.411281 0
369 1 0.121087 0.418313 0
368 1 0.10138 0.435459 0
399 1 0.12563 0.443745 0
371 1 0.163729 0.409631 0
370 1 0.144681 0.426959 0
401 1 0.168659 0.434116 0
400 1 0.149012 0.45144 0
372 1 0.188 0.417023 0
403 1 0.192374 0.441212 0
374 1 0.212371 0.425711 0
433 1 0.215167 0.449783 0
404 1 0.236497 0.432145 0
405 1 0.257265 0.41488 0
406 1 0.261761 0.439575 0
407 1 0.281639 0.42256 0
408 1 0.305592 0.429501 0
437 1 0.286444 0.447099 0
410 1 0.331147 0.437446 0
380 1 0.324658 0.412343 0
411 1 0.349077 0.42004 0
413 1 0.373154 0.426823 0
384 1 0.39889 0.428277 0
414 1 0.387263 0.450309 0
415 1 0.412628 0.448092 0
388 1 0.442714 0.420706 0
386 1 0.418805 0.415234 0
417 1 0.437171 0.444362 0
419 1 0.466154 0.430254 0
390 1 0.491157 0.433645 0
423 1 0.0199944 0.476409 0
394 1 0.0378384 0.459467 0
425 1 0.0442409 0.484145 0
453 1 0.000442205 0.493423 0
396 1 0.0622938 0.467576 0
426 1 0.0673494 0.492649 0
427 1 0.0872061 0.476215 0
398 1 0.106696 0.459517 0
428 1 0.110776 0.484562 0
429 1 0.128976 0.468134 0
430 1 0.134048 0.492734 0
431 1 0.152656 0.475834 0
461 1 0.176644 0.484555 0
402 1 0.171952 0.459441 0
432 1 0.195753 0.465814 0
434 1 0.219166 0.473805 0
463 1 0.200886 0.490848 0
464 1 0.224081 0.49896 0
435 1 0.239034 0.456758 0
465 1 0.242603 0.482138 0
436 1 0.261961 0.464277 0
467 1 0.265787 0.488429 0
439 1 0.31236 0.453546 0
438 1 0.284583 0.471344 0
469 1 0.307291 0.479655 0
468 1 0.288874 0.496202 0
412 1 0.36258 0.454099 0
441 1 0.338496 0.461049 0
440 1 0.330636 0.484655 0
442 1 0.353766 0.478939 0
473 1 0.370783 0.496922 0
443 1 0.378483 0.474409 0
445 1 0.403253 0.471158 0
444 1 0.395222 0.494085 0
446 1 0.420119 0.489874 0
418 1 0.453348 0.46273 0
447 1 0.444737 0.486021 0
416 1 0.428411 0.467012 0
1321 1 0.494532 0.47769 0
420 1 0.477775 0.454594 0
449 1 0.470083 0.480778 0
452 1 0.00507661 0.51716 0
454 1 0.0292486 0.526232 0
483 1 0.0108777 0.542185 0
424 1 0.0238245 0.500993 0
455 1 0.0482853 0.508679 0
485 1 0.0524594 0.534759 0
456 1 0.0708884 0.517224 0
487 1 0.0766831 0.541688 0
457 1 0.0917434 0.500582 0
458 1 0.0956569 0.525003 0
459 1 0.114686 0.50864 0
488 1 0.119284 0.532509 0
489 1 0.138275 0.517149 0
491 1 0.163062 0.524566 0
490 1 0.14442 0.540478 0
462 1 0.180993 0.508424 0
460 1 0.156866 0.500415 0
493 1 0.205762 0.514888 0
492 1 0.188014 0.532423 0
494 1 0.211768 0.539002 0
495 1 0.229481 0.522257 0
466 1 0.247151 0.505636 0
496 1 0.253266 0.530204 0
497 1 0.270725 0.513019 0
498 1 0.293531 0.519994 0
527 1 0.277557 0.538073 0
501 1 0.315339 0.527973 0
499 1 0.314557 0.503678 0
470 1 0.338957 0.526787 0
471 1 0.346722 0.502942 0
472 1 0.362956 0.521519 0
502 1 0.353368 0.546015 0
503 1 0.377663 0.541797 0
474 1 0.387341 0.517944 0
476 1 0.402128 0.538055 0
475 1 0.411109 0.513707 0
507 1 0.426327 0.532806 0
478 1 0.451125 0.527834 0
477 1 0.434996 0.509331 0
1381 1 0.493379 0.542676 0
479 1 0.477132 0.523993 0
448 1 0.461134 0.504878 0
450 1 0.485283 0.500294 0
513 1 0.0154371 0.568065 0
484 1 0.0334961 0.551029 0
514 1 0.0399707 0.575057 0
486 1 0.0583519 0.558044 0
515 1 0.0819771 0.566916 0
543 1 0.0634065 0.583506 0
517 1 0.100453 0.548948 0
519 1 0.125294 0.557718 0
516 1 0.10514 0.57375 0
518 1 0.130711 0.581902 0
520 1 0.150075 0.565497 0
521 1 0.168499 0.548426 0
522 1 0.174089 0.572633 0
549 1 0.154989 0.588811 0
523 1 0.193646 0.556598 0
524 1 0.217192 0.563712 0
553 1 0.198161 0.580579 0
554 1 0.221785 0.588175 0
525 1 0.235127 0.547132 0
526 1 0.258675 0.554217 0
555 1 0.239869 0.571492 0
557 1 0.263145 0.579818 0
529 1 0.301441 0.548463 0
528 1 0.281282 0.56289 0
559 1 0.315959 0.572353 0
558 1 0.287537 0.5856 0
500 1 0.327044 0.549378 0
531 1 0.34347 0.568413 0
533 1 0.359156 0.588132 0
530 1 0.334021 0.591074 0
505 1 0.393696 0.560845 0
504 1 0.368643 0.565004 0
534 1 0.384042 0.584705 0
535 1 0.408578 0.579634 0
509 1 0.44248 0.550697 0
506 1 0.418006 0.555814 0
508 1 0.433539 0.573719 0
480 1 0.466726 0.546451 0
510 1 0.483481 0.565143 0
539 1 0.458601 0.570902 0
540 1 0.474213 0.588672 0
512 1 0.0213667 0.591975 0
571 1 0.0263831 0.616242 0
1500 1 0.00767187 0.63255 0
541 1 0.00184124 0.607911 0
542 1 0.0444082 0.599549 0
545 1 0.0868239 0.591282 0
573 1 0.0508454 0.62415 0
544 1 0.0685341 0.607486 0
575 1 0.0752993 0.632855 0
546 1 0.0933642 0.615678 0
547 1 0.111754 0.597945 0
577 1 0.117995 0.623615 0
548 1 0.136103 0.606789 0
550 1 0.159764 0.612813 0
551 1 0.179324 0.595875 0
579 1 0.141741 0.630798 0
581 1 0.183647 0.621253 0
552 1 0.202472 0.605432 0
582 1 0.207256 0.629406 0
583 1 0.226745 0.613426 0
556 1 0.245647 0.596148 0
587 1 0.270866 0.603835 0
585 1 0.250535 0.620891 0
586 1 0.273663 0.62853 0
560 1 0.310145 0.596469 0
589 1 0.298683 0.619707 0
532 1 0.348645 0.611191 0
561 1 0.323399 0.616638 0
562 1 0.340342 0.635369 0
563 1 0.374333 0.607459 0
565 1 0.38981 0.626973 0
564 1 0.364984 0.630966 0
536 1 0.399633 0.604031 0
538 1 0.448938 0.59372 0
537 1 0.424868 0.598852 0
566 1 0.415084 0.623231 0
567 1 0.43968 0.617162 0
568 1 0.457682 0.63604 0
1441 1 0.491502 0.607145 0
569 1 0.465753 0.611648 0
570 1 0.481266 0.630894 0
572 1 0.0319703 0.640286 0
602 1 0.0139845 0.65775 0
603 1 0.0378137 0.665223 0
574 1 0.0571039 0.648221 0
605 1 0.0815462 0.657532 0
604 1 0.0626744 0.672953 0
576 1 0.0990372 0.640404 0
578 1 0.122995 0.647232 0
607 1 0.105599 0.664172 0
608 1 0.12841 0.673922 0
609 1 0.147308 0.655087 0
580 1 0.16617 0.637857 0
610 1 0.171058 0.662259 0
639 1 0.152168 0.679835 0
611 1 0.189763 0.646485 0
613 1 0.21331 0.6552 0
612 1 0.194027 0.672239 0
643 1 0.219984 0.680028 0
584 1 0.231794 0.637735 0
614 1 0.236932 0.661603 0
615 1 0.259488 0.649005 0
616 1 0.257948 0.67349 0
617 1 0.281263 0.667674 0
588 1 0.29123 0.644568 0
619 1 0.306813 0.664111 0
590 1 0.314982 0.639874 0
591 1 0.330776 0.659066 0
621 1 0.347138 0.677998 0
593 1 0.35595 0.654795 0
592 1 0.372527 0.67276 0
594 1 0.380456 0.649847 0
625 1 0.39686 0.668572 0
595 1 0.405901 0.645972 0
597 1 0.431607 0.640544 0
596 1 0.422444 0.663664 0
599 1 0.447563 0.659367 0
1501 1 0.487836 0.673677 0
600 1 0.472776 0.65407 0
629 1 0.462956 0.677707 0
1471 1 0.497225 0.650105 0
632 1 0.0184971 0.681875 0
633 1 0.0432297 0.689627 0
663 1 0.0240807 0.707034 0
661 1 0.00560004 0.723431 0
606 1 0.0868083 0.680673 0
634 1 0.0483886 0.713601 0
635 1 0.0682246 0.697071 0
665 1 0.0718475 0.721554 0
636 1 0.0913368 0.706137 0
637 1 0.110248 0.689908 0
638 1 0.133877 0.698142 0
667 1 0.115415 0.714336 0
669 1 0.139218 0.722924 0
641 1 0.175294 0.688037 0
640 1 0.157818 0.705492 0
671 1 0.181389 0.712941 0
642 1 0.199677 0.696906 0
644 1 0.223259 0.705375 0
645 1 0.246951 0.697161 0
646 1 0.263379 0.716067 0
675 1 0.239304 0.723703 0
647 1 0.273165 0.693193 0
618 1 0.297032 0.687793 0
648 1 0.288626 0.711723 0
649 1 0.313042 0.706659 0
620 1 0.322152 0.683501 0
650 1 0.329834 0.724868 0
622 1 0.337453 0.701773 0
651 1 0.35424 0.720253 0
653 1 0.363399 0.696765 0
623 1 0.388182 0.692057 0
624 1 0.379683 0.715391 0
626 1 0.405124 0.710538 0
598 1 0.437529 0.681937 0
627 1 0.413461 0.687298 0
657 1 0.429149 0.705886 0
658 1 0.446294 0.72389 0
628 1 0.453295 0.700828 0
630 1 0.47847 0.696189 0
659 1 0.470466 0.719763 0
1531 1 0.496062 0.716304 0
662 1 0.0291538 0.730929 0
691 1 0.0107101 0.748375 0
693 1 0.0339814 0.755654 0
664 1 0.0525603 0.738527 0
695 1 0.0760003 0.744911 0
694 1 0.0580059 0.762876 0
696 1 0.0821613 0.767849 0
666 1 0.0972651 0.732713 0
697 1 0.104521 0.757836 0
668 1 0.120155 0.739951 0
698 1 0.127827 0.769969 0
699 1 0.143374 0.747542 0
670 1 0.162417 0.732085 0
701 1 0.178826 0.760368 0
700 1 0.154222 0.768859 0
673 1 0.212114 0.727885 0
672 1 0.188386 0.736227 0
703 1 0.204524 0.754415 0
705 1 0.222879 0.772013 0
674 1 0.229575 0.747184 0
676 1 0.247266 0.766656 0
707 1 0.27195 0.759253 0
679 1 0.304101 0.729818 0
677 1 0.279363 0.735702 0
678 1 0.296548 0.753815 0
680 1 0.314369 0.772016 0
681 1 0.321737 0.747569 0
652 1 0.346479 0.743299 0
682 1 0.339772 0.766296 0
683 1 0.3635 0.761745 0
655 1 0.396937 0.733175 0
654 1 0.371607 0.738254 0
685 1 0.388709 0.756965 0
656 1 0.421853 0.728907 0
686 1 0.413987 0.751597 0
687 1 0.437969 0.747294 0
717 1 0.430313 0.770718 0
688 1 0.453651 0.76678 0
660 1 0.486728 0.738704 0
689 1 0.462005 0.743147 0
690 1 0.478823 0.761938 0
692 1 0.0150908 0.774197 0
722 1 0.00808949 0.811163 0
723 1 0.0397254 0.779907 0
724 1 0.0314256 0.80315 0
725 1 0.0572155 0.797073 0
726 1 0.0816429 0.791133 0
755 1 0.0748456 0.815252 0
727 1 0.105497 0.78283 0
728 1 0.123975 0.799125 0
757 1 0.10055 0.807774 0
729 1 0.147868 0.793517 0
731 1 0.173195 0.785609 0
732 1 0.165504 0.810195 0
730 1 0.141699 0.818265 0
702 1 0.198088 0.779476 0
704 1 0.216287 0.796672 0
733 1 0.190208 0.803515 0
735 1 0.24051 0.790248 0
706 1 0.265794 0.783274 0
737 1 0.258264 0.808258 0
736 1 0.233317 0.813595 0
709 1 0.289506 0.777161 0
708 1 0.28247 0.801829 0
710 1 0.307035 0.795252 0
713 1 0.355707 0.785146 0
711 1 0.331782 0.790355 0
712 1 0.348336 0.809013 0
741 1 0.324085 0.814404 0
715 1 0.405287 0.77583 0
684 1 0.380125 0.780178 0
714 1 0.372749 0.803743 0
716 1 0.396673 0.798356 0
718 1 0.4469 0.79025 0
746 1 0.414277 0.817019 0
747 1 0.421574 0.793762 0
748 1 0.438982 0.812972 0
719 1 0.47059 0.785554 0
720 1 0.487926 0.802655 0
749 1 0.464588 0.810074 0
752 1 0.0192817 0.852497 0
753 1 0.025292 0.828062 0
783 1 0.0434572 0.84486 0
751 1 0.00107223 0.835279 0
754 1 0.0501551 0.820903 0
785 1 0.0683689 0.838407 0
787 1 0.085864 0.856086 0
784 1 0.0608298 0.861763 0
756 1 0.0931854 0.831955 0
759 1 0.11776 0.825437 0
758 1 0.110935 0.849431 0
760 1 0.135014 0.843166 0
761 1 0.15934 0.835439 0
762 1 0.177434 0.852349 0
791 1 0.152393 0.859007 0
734 1 0.209569 0.821048 0
763 1 0.184022 0.828285 0
764 1 0.202311 0.845163 0
765 1 0.22704 0.83962 0
795 1 0.219974 0.862937 0
767 1 0.250103 0.831837 0
766 1 0.244396 0.857348 0
768 1 0.268211 0.850612 0
739 1 0.299395 0.820204 0
738 1 0.274606 0.827215 0
769 1 0.292537 0.84428 0
740 1 0.316485 0.838026 0
770 1 0.309927 0.862053 0
742 1 0.341026 0.832579 0
771 1 0.334042 0.857558 0
773 1 0.358095 0.850814 0
743 1 0.365264 0.827395 0
745 1 0.389883 0.821872 0
744 1 0.382057 0.845292 0
775 1 0.406199 0.839898 0
776 1 0.399111 0.863475 0
777 1 0.430762 0.835839 0
778 1 0.424371 0.858984 0
779 1 0.454718 0.83286 0
809 1 0.456876 0.858193 0
1621 1 0.494918 0.825421 0
750 1 0.476401 0.842702 0
782 1 0.0129317 0.876853 0
813 1 0.037143 0.868469 0
812 1 0.0319698 0.893017 0
811 1 0.00779304 0.90161 0
815 1 0.0560636 0.885799 0
786 1 0.080088 0.880675 0
816 1 0.0737927 0.90469 0
817 1 0.0993584 0.897136 0
788 1 0.104761 0.873477 0
819 1 0.122855 0.891262 0
789 1 0.128808 0.866633 0
790 1 0.147294 0.883655 0
792 1 0.170759 0.876491 0
821 1 0.165072 0.90172 0
820 1 0.141363 0.907747 0
793 1 0.194962 0.870262 0
823 1 0.188963 0.894608 0
794 1 0.213045 0.887126 0
797 1 0.261728 0.875514 0
796 1 0.236923 0.881805 0
825 1 0.23015 0.906387 0
827 1 0.254684 0.899254 0
799 1 0.285676 0.868964 0
798 1 0.279191 0.893074 0
800 1 0.302671 0.886684 0
831 1 0.320188 0.904524 0
772 1 0.352165 0.875053 0
801 1 0.327105 0.881342 0
802 1 0.344367 0.899035 0
774 1 0.375493 0.869328 0
803 1 0.368905 0.893361 0
805 1 0.392275 0.88773 0
806 1 0.410657 0.904993 0
807 1 0.415882 0.882175 0
808 1 0.439877 0.878115 0
839 1 0.445551 0.903101 0
780 1 0.482121 0.866293 0
810 1 0.464389 0.883835 0
1681 1 0.488221 0.890428 0
840 1 0.469576 0.908093 0
842 1 0.0191621 0.941886 0
843 1 0.0265913 0.917679 0
844 1 0.0426631 0.935301 0
841 1 0.0010081 0.924735 0
814 1 0.0500093 0.910819 0
845 1 0.0664973 0.928679 0
846 1 0.0856791 0.944938 0
875 1 0.0601341 0.951909 0
847 1 0.0922305 0.921131 0
818 1 0.116132 0.914931 0
848 1 0.109792 0.93914 0
849 1 0.133818 0.932348 0
850 1 0.152547 0.950361 0
851 1 0.158526 0.926549 0
852 1 0.175554 0.944307 0
822 1 0.182042 0.919762 0
824 1 0.206321 0.912903 0
853 1 0.198662 0.937291 0
855 1 0.223132 0.930722 0
826 1 0.248263 0.92378 0
856 1 0.241041 0.94847 0
857 1 0.265979 0.942044 0
828 1 0.271982 0.916892 0
829 1 0.296054 0.910798 0
859 1 0.289902 0.935135 0
830 1 0.313116 0.928915 0
860 1 0.307993 0.95408 0
832 1 0.337119 0.922772 0
861 1 0.332174 0.947478 0
863 1 0.355768 0.941895 0
833 1 0.361757 0.918401 0
804 1 0.386678 0.911356 0
834 1 0.380136 0.935249 0
865 1 0.399467 0.951992 0
835 1 0.404839 0.928951 0
837 1 0.428364 0.922143 0
836 1 0.425806 0.946983 0
838 1 0.452969 0.927047 0
869 1 0.477085 0.93327 0
870 1 0.458277 0.951448 0
1711 1 0.493523 0.915466 0
872 1 0.0304732 0.983789 0
873 1 0.0358329 0.960349 0
871 1 0.0127692 0.96665 0
1 1 0.00644974 0.990549 0
874 1 0.0541777 0.976614 0
876 1 0.0792029 0.968882 0
5 1 0.0725549 0.994211 0
879 1 0.128185 0.956026 0
7 1 0.0966246 0.987793 0
877 1 0.103254 0.962853 0
878 1 0.120984 0.980275 0
880 1 0.144703 0.974209 0
881 1 0.169568 0.969396 0
11 1 0.162745 0.992972 0
9 1 0.138306 0.998448 0
854 1 0.217119 0.9546 0
882 1 0.18758 0.986626 0
883 1 0.19272 0.962716 0
884 1 0.210915 0.979323 0
885 1 0.234945 0.972277 0
886 1 0.229224 0.995998 0
17 1 0.252706 0.990371 0
887 1 0.259034 0.965611 0
858 1 0.283674 0.959269 0
888 1 0.276561 0.98313 0
889 1 0.30182 0.977071 0
862 1 0.35084 0.965079 0
890 1 0.319734 0.995221 0
891 1 0.325605 0.971164 0
892 1 0.344167 0.989108 0
864 1 0.375271 0.958659 0
893 1 0.369273 0.982103 0
895 1 0.392771 0.975554 0
894 1 0.386075 0.999883 0
896 1 0.410942 0.994281 0
866 1 0.416608 0.969876 0
897 1 0.445946 0.994315 0
867 1 0.441085 0.968631 0
1771 1 0.488298 0.982693 0
1741 1 0.48367 0.958022 0
899 1 0.469531 1.00101 0
868 1 0.464893 0.976099 0
902 1 0.543304 0.0198585 0
931 1 0.525385 0.0376208 0
901 1 0.51874 0.0131766 0
30 1 0.501054 0.0319313 0
933 1 0.549408 0.0438395 0
904 1 0.567816 0.0266048 0
906 1 0.586163 0.00953007 0
905 1 0.561883 0.00180894 0
935 1 0.592214 0.0340548 0
908 1 0.610161 0.0161421 0
937 1 0.616411 0.0406233 0
939 1 0.633701 0.0215215 0
941 1 0.657514 0.028183 0
912 1 0.675751 0.0105593 0
910 1 0.651407 0.00363332 0
942 1 0.682852 0.0343428 0
943 1 0.705151 0.0147713 0
944 1 0.707303 0.0396568 0
975 1 0.730737 0.0327275 0
945 1 0.736133 0.00888153 0
916 1 0.760558 0.00164827 0
947 1 0.754608 0.0255927 0
948 1 0.773147 0.0419462 0
918 1 0.779497 0.0185893 0
919 1 0.803525 0.0112122 0
949 1 0.79782 0.0345621 0
951 1 0.821474 0.0268486 0
920 1 0.827478 0.00358704 0
922 1 0.846081 0.020722 0
952 1 0.840614 0.0454736 0
953 1 0.86427 0.0368736 0
923 1 0.869769 0.0127177 0
924 1 0.893425 0.00565814 0
954 1 0.887637 0.0299358 0
955 1 0.912406 0.0224929 0
926 1 0.93611 0.0139296 0
957 1 0.952637 0.031247 0
928 1 0.959121 0.00680887 0
959 1 0.977111 0.0229554 0
960 1 0.994062 0.040315 0
932 1 0.531777 0.0613235 0
962 1 0.537496 0.0853124 0
961 1 0.513109 0.0801237 0
60 1 0.507736 0.0556051 0
934 1 0.573249 0.0507111 0
963 1 0.555536 0.0679498 0
965 1 0.580176 0.0750887 0
936 1 0.597864 0.0578045 0
966 1 0.605621 0.0818985 0
967 1 0.622771 0.0643621 0
968 1 0.629275 0.0887513 0
938 1 0.640351 0.0467016 0
940 1 0.665078 0.052102 0
969 1 0.647044 0.0698567 0
970 1 0.670853 0.0768337 0
971 1 0.689703 0.0582047 0
972 1 0.694245 0.083029 0
973 1 0.724587 0.0581705 0
1003 1 0.718852 0.0832714 0
974 1 0.743536 0.0734599 0
946 1 0.749682 0.0496058 0
977 1 0.7689 0.0662829 0
1007 1 0.762724 0.0898439 0
979 1 0.792465 0.0591419 0
980 1 0.810219 0.0762725 0
978 1 0.786158 0.0831649 0
950 1 0.81611 0.0520813 0
981 1 0.833812 0.0697351 0
983 1 0.858014 0.0612905 0
982 1 0.85202 0.0855629 0
956 1 0.9072 0.0460689 0
985 1 0.882465 0.054219 0
984 1 0.875862 0.0785118 0
986 1 0.901232 0.0709169 0
987 1 0.94421 0.0549113 0
1017 1 0.940065 0.0797218 0
988 1 0.964185 0.072465 0
958 1 0.970255 0.0479464 0
989 1 0.98732 0.0648322 0
1019 1 0.982024 0.0895433 0
991 1 0.519655 0.103631 0
992 1 0.525037 0.12697 0
993 1 0.543749 0.109988 0
120 1 0.499833 0.121117 0
964 1 0.561718 0.0927029 0
994 1 0.568038 0.117335 0
995 1 0.586609 0.0995716 0
1023 1 0.549577 0.134153 0
996 1 0.592804 0.123345 0
997 1 0.610877 0.104859 0
1027 1 0.616012 0.129359 0
998 1 0.634922 0.112495 0
999 1 0.652868 0.0944176 0
1000 1 0.658464 0.119831 0
1001 1 0.676535 0.102177 0
1031 1 0.683281 0.126651 0
1002 1 0.700981 0.107026 0
1004 1 0.723807 0.116479 0
1033 1 0.707419 0.134273 0
976 1 0.739663 0.0979961 0
1005 1 0.75007 0.122097 0
1037 1 0.774036 0.130788 0
1008 1 0.78072 0.107019 0
1009 1 0.805084 0.100301 0
1039 1 0.797999 0.124847 0
1010 1 0.822527 0.117914 0
1011 1 0.828243 0.0935683 0
1012 1 0.84621 0.110374 0
1041 1 0.839303 0.135003 0
1043 1 0.863488 0.126096 0
1013 1 0.870199 0.102251 0
1014 1 0.888131 0.119495 0
1015 1 0.894298 0.0951136 0
1016 1 0.911094 0.112611 0
1047 1 0.933684 0.103744 0
1046 1 0.929037 0.129563 0
1049 1 0.952256 0.121134 0
1018 1 0.957936 0.0966262 0
1020 1 0.976341 0.113734 0
121 1 0.993727 0.130287 0
1022 1 0.531919 0.152372 0
1053 1 0.537251 0.176365 0
1051 1 0.513003 0.169964 0
1021 1 0.508315 0.145026 0
1025 1 0.573428 0.141265 0
1024 1 0.556272 0.15847 0
1055 1 0.581039 0.165151 0
1026 1 0.598035 0.147302 0
1028 1 0.622069 0.15369 0
1057 1 0.604605 0.171056 0
1058 1 0.628123 0.178075 0
1029 1 0.641231 0.137179 0
1030 1 0.665263 0.144425 0
1059 1 0.647029 0.161523 0
1061 1 0.671194 0.169272 0
1032 1 0.688872 0.151591 0
1063 1 0.714599 0.157991 0
1062 1 0.696382 0.175635 0
1034 1 0.720517 0.18226 0
1035 1 0.731654 0.14021 0
1006 1 0.755837 0.14708 0
1036 1 0.73882 0.164723 0
1067 1 0.763983 0.171365 0
1038 1 0.790046 0.150973 0
1069 1 0.809937 0.166811 0
1068 1 0.787878 0.17787 0
1040 1 0.815246 0.142203 0
1071 1 0.832752 0.159889 0
1042 1 0.857635 0.150723 0
1072 1 0.851236 0.175698 0
1045 1 0.905015 0.137425 0
1044 1 0.881332 0.143627 0
1075 1 0.899392 0.161088 0
1073 1 0.875368 0.16788 0
1048 1 0.947206 0.146118 0
1077 1 0.923125 0.154098 0
1078 1 0.940613 0.170703 0
1076 1 0.916868 0.17852 0
1050 1 0.970649 0.138338 0
1079 1 0.964801 0.163984 0
151 1 0.988111 0.156375 0
1080 1 0.982894 0.180129 0
1052 1 0.519865 0.193188 0
1082 1 0.52653 0.217505 0
1081 1 0.502113 0.210735 0
1083 1 0.545426 0.199323 0
1054 1 0.563199 0.182225 0
1084 1 0.550584 0.224601 0
1056 1 0.586795 0.189475 0
1085 1 0.568626 0.206936 0
1086 1 0.593261 0.213118 0
1087 1 0.610986 0.194831 0
1088 1 0.617271 0.219369 0
1089 1 0.635315 0.203062 0
1060 1 0.652396 0.186229 0
1091 1 0.67838 0.192494 0
1090 1 0.660361 0.209933 0
1119 1 0.641171 0.226812 0
1092 1 0.683415 0.217042 0
1093 1 0.70303 0.199873 0
1123 1 0.708668 0.224098 0
1064 1 0.727246 0.206259 0
1065 1 0.745471 0.189704 0
1066 1 0.770347 0.19582 0
1095 1 0.751985 0.213557 0
1097 1 0.775951 0.220361 0
1099 1 0.79543 0.20232 0
1098 1 0.799627 0.227529 0
1100 1 0.819869 0.211025 0
1070 1 0.825947 0.185669 0
1101 1 0.845374 0.199792 0
1131 1 0.841251 0.223853 0
1102 1 0.86442 0.216587 0
1103 1 0.869514 0.191723 0
1074 1 0.893312 0.186092 0
1104 1 0.88781 0.210168 0
1135 1 0.905263 0.227528 0
1105 1 0.911157 0.203188 0
1107 1 0.936013 0.195167 0
1106 1 0.929468 0.219439 0
1108 1 0.953384 0.213584 0
1109 1 0.959276 0.187963 0
1110 1 0.976638 0.205199 0
211 1 0.994984 0.222541 0
1111 1 0.509004 0.235267 0
1113 1 0.533182 0.241852 0
1112 1 0.51449 0.260093 0
1143 1 0.538765 0.26602 0
1115 1 0.575365 0.230847 0
1114 1 0.55707 0.248461 0
1116 1 0.580199 0.254594 0
1117 1 0.599433 0.23723 0
1118 1 0.623643 0.243172 0
1147 1 0.6055 0.261167 0
1149 1 0.629912 0.266934 0
1121 1 0.666333 0.233659 0
1120 1 0.647691 0.250291 0
1151 1 0.671558 0.257599 0
1122 1 0.691214 0.241495 0
1124 1 0.714687 0.24764 0
1153 1 0.695512 0.265237 0
1154 1 0.719897 0.271702 0
1094 1 0.73284 0.230513 0
1096 1 0.758441 0.236802 0
1125 1 0.739257 0.25435 0
1126 1 0.762288 0.261538 0
1127 1 0.781569 0.245651 0
1129 1 0.804375 0.253497 0
1128 1 0.787101 0.269729 0
1130 1 0.821628 0.236278 0
1161 1 0.828221 0.260627 0
1162 1 0.852925 0.26561 0
1132 1 0.859302 0.241759 0
1133 1 0.881696 0.234842 0
1163 1 0.875973 0.259298 0
1134 1 0.900515 0.251692 0