ITEM: TIMESTEP
98000
ITEM: NUMBER OF ATOMS
1800
ITEM: BOX BOUNDS pp pp pp
9.5082347034536951e-01 1.6404917652965707e+02
9.5082347034536951e-01 1.6404917652965707e+02
0.0000000000000000e+00 5.5000000000000000e+00
ITEM: ATOMS id type xs ys zs
2 1 0.0193686 0.00826931 0
33 1 0.0352439 0.0273871 0
31 1 0.0109594 0.0317996 0
3 1 0.0436449 0.00361812 0
4 1 0.0597123 0.0224796 0
6 1 0.0847888 0.0175136 0
35 1 0.0755242 0.0415581 0
8 1 0.111254 0.0150658 0
37 1 0.10014 0.0366603 0
9 1 0.133552 0.00181037 0
39 1 0.133501 0.0263918 0
10 1 0.156201 0.0120564 0
41 1 0.178009 0.0238075 0
40 1 0.15692 0.0369981 0
12 1 0.200198 0.0101252 0
43 1 0.199907 0.0354945 0
14 1 0.221519 0.0224462 0
15 1 0.243354 0.00864457 0
45 1 0.242633 0.0333129 0
16 1 0.26497 0.0208857 0
18 1 0.287637 0.0334832 0
17 1 0.286722 0.00847715 0
20 1 0.309278 0.0218732 0
51 1 0.332087 0.0343125 0
22 1 0.351855 0.0201386 0
21 1 0.329816 0.0093487 0
52 1 0.355213 0.0443072 0
24 1 0.375693 0.026571 0
55 1 0.400376 0.0318646 0
894 1 0.392942 0.00842608 0
23 1 0.367655 0.00267926 0
25 1 0.417856 0.0147383 0
26 1 0.42511 0.0383001 0
27 1 0.44258 0.0205727 0
28 1 0.449344 0.0442997 0
29 1 0.467348 0.0257943 0
900 1 0.48516 0.00815965 0
30 1 0.490987 0.0318083 0
898 1 0.460997 0.00146104 0
32 1 0.0273959 0.0519757 0
62 1 0.0189153 0.0757401 0
61 1 0.00275342 0.055916 0
63 1 0.0434733 0.0711541 0
34 1 0.0513831 0.0461143 0
65 1 0.0671127 0.0663389 0
66 1 0.0835239 0.0845681 0
64 1 0.05945 0.089993 0
36 1 0.0909283 0.0608081 0
38 1 0.114445 0.0564826 0
67 1 0.107311 0.0806352 0
68 1 0.131806 0.0739591 0
69 1 0.136997 0.0507065 0
42 1 0.177587 0.0490595 0
71 1 0.155513 0.0671703 0
72 1 0.178193 0.0746191 0
44 1 0.221052 0.0470487 0
73 1 0.199711 0.0598092 0
74 1 0.221399 0.0712056 0
103 1 0.199862 0.0850554 0
46 1 0.265843 0.0453097 0
75 1 0.243686 0.0572206 0
77 1 0.264679 0.0701657 0
76 1 0.243045 0.0814452 0
49 1 0.309409 0.0462792 0
47 1 0.28702 0.0582424 0
48 1 0.287902 0.0827563 0
50 1 0.311229 0.071981 0
81 1 0.336146 0.061091 0
82 1 0.345395 0.0847862 0
83 1 0.363531 0.0681363 0
53 1 0.381422 0.0497059 0
54 1 0.389225 0.0737274 0
56 1 0.406796 0.0553984 0
113 1 0.371785 0.0910529 0
57 1 0.43063 0.0619217 0
85 1 0.41413 0.0795253 0
87 1 0.4381 0.0853492 0
58 1 0.455591 0.0682355 0
59 1 0.472536 0.0507262 0
89 1 0.479977 0.0741277 0
60 1 0.496874 0.0559887 0
92 1 0.0267904 0.117756 0
93 1 0.0341139 0.0941417 0
91 1 0.0100801 0.0986037 0
121 1 0.00255654 0.121942 0
94 1 0.0507987 0.113123 0
95 1 0.0753542 0.108676 0
125 1 0.0681007 0.133102 0
96 1 0.0921334 0.12691 0
97 1 0.0996797 0.104101 0
98 1 0.117205 0.121901 0
99 1 0.124738 0.0983438 0
70 1 0.153253 0.0922786 0
100 1 0.157139 0.116761 0
101 1 0.177377 0.0999643 0
131 1 0.181042 0.125204 0
102 1 0.200537 0.110067 0
105 1 0.222084 0.0951521 0
106 1 0.223352 0.118626 0
104 1 0.205524 0.136218 0
78 1 0.267157 0.0957078 0
107 1 0.244518 0.105638 0
137 1 0.247466 0.128712 0
108 1 0.271707 0.133281 0
79 1 0.308279 0.0973551 0
109 1 0.288152 0.114026 0
110 1 0.313801 0.121232 0
111 1 0.354898 0.108617 0
80 1 0.331114 0.103547 0
141 1 0.338107 0.126946 0
143 1 0.361801 0.132141 0
84 1 0.395891 0.097665 0
112 1 0.379976 0.115199 0
115 1 0.403584 0.121432 0
86 1 0.420674 0.104285 0
116 1 0.427819 0.128044 0
117 1 0.444881 0.109526 0
118 1 0.452452 0.133892 0
88 1 0.462139 0.0918626 0
90 1 0.486497 0.0987575 0
119 1 0.469138 0.115951 0
120 1 0.494576 0.123768 0
123 1 0.0431326 0.136559 0
122 1 0.0187638 0.14174 0
153 1 0.0349282 0.161141 0
152 1 0.0103987 0.165808 0
124 1 0.0590447 0.155814 0
126 1 0.0852629 0.150213 0
155 1 0.0759194 0.173864 0
154 1 0.0513758 0.180414 0
127 1 0.109352 0.144725 0
128 1 0.125306 0.162786 0
157 1 0.101987 0.168374 0
129 1 0.135817 0.139813 0
130 1 0.162391 0.141635 0
159 1 0.148906 0.163277 0
132 1 0.171338 0.171873 0
133 1 0.185873 0.150621 0
134 1 0.210323 0.160989 0
163 1 0.194696 0.179452 0
135 1 0.228583 0.145558 0
136 1 0.253324 0.152034 0
165 1 0.235417 0.168667 0
167 1 0.260686 0.174537 0
139 1 0.29589 0.13867 0
138 1 0.27872 0.157032 0
169 1 0.302683 0.161696 0
168 1 0.28479 0.180706 0
140 1 0.320664 0.144945 0
142 1 0.344366 0.151179 0
171 1 0.326697 0.168707 0
172 1 0.350878 0.174546 0
114 1 0.385639 0.139282 0
144 1 0.392672 0.162828 0
173 1 0.367974 0.156499 0
174 1 0.375039 0.179941 0
145 1 0.409833 0.145417 0
146 1 0.416759 0.169079 0
147 1 0.435044 0.151633 0
177 1 0.441768 0.175469 0
149 1 0.477387 0.142013 0
148 1 0.459278 0.158331 0
150 1 0.48357 0.165643 0
179 1 0.465211 0.182637 0
183 1 0.0275706 0.184313 0
182 1 0.0202795 0.208244 0
181 1 0.00363178 0.190173 0
184 1 0.0430729 0.203837 0
213 1 0.0378237 0.227937 0
185 1 0.0678782 0.198199 0
215 1 0.060897 0.221846 0
186 1 0.0865082 0.216569 0
156 1 0.0920279 0.191337 0
160 1 0.121529 0.18614 0
158 1 0.110013 0.207369 0
189 1 0.134157 0.209157 0
161 1 0.150871 0.18926 0
191 1 0.158034 0.214872 0
162 1 0.17517 0.197581 0
164 1 0.218342 0.186246 0
193 1 0.20047 0.203243 0
192 1 0.183804 0.221925 0
195 1 0.225547 0.209779 0
166 1 0.24263 0.191922 0
196 1 0.249767 0.216449 0
197 1 0.266851 0.198774 0
170 1 0.308846 0.18662 0
199 1 0.291416 0.204609 0
198 1 0.274737 0.221722 0
200 1 0.315682 0.210734 0
201 1 0.333145 0.191951 0
202 1 0.339511 0.215849 0
203 1 0.357613 0.198857 0
175 1 0.399794 0.187127 0
233 1 0.363347 0.22319 0
204 1 0.382378 0.20531 0
205 1 0.40696 0.211139 0
176 1 0.423541 0.193037 0
207 1 0.430621 0.217462 0
178 1 0.447576 0.199592 0
208 1 0.454833 0.223507 0
180 1 0.489969 0.188725 0
209 1 0.473315 0.206863 0
1081 1 0.497002 0.214205 0
212 1 0.013098 0.232388 0
243 1 0.0298701 0.252176 0
241 1 0.00506845 0.255215 0
216 1 0.0764678 0.240701 0
214 1 0.0538474 0.246945 0
247 1 0.0829802 0.264466 0
187 1 0.118708 0.229836 0
188 1 0.125301 0.252851 0
217 1 0.100316 0.246627 0
218 1 0.107604 0.270455 0
190 1 0.141939 0.234191 0
221 1 0.166701 0.239887 0
220 1 0.150463 0.258166 0
222 1 0.17491 0.264438 0
194 1 0.208283 0.227005 0
223 1 0.190629 0.245076 0
224 1 0.21494 0.250845 0
253 1 0.198682 0.268608 0
225 1 0.231675 0.23445 0
227 1 0.256809 0.239272 0
226 1 0.239985 0.25794 0
257 1 0.263965 0.263698 0
229 1 0.298726 0.228348 0
228 1 0.281117 0.245749 0
230 1 0.30487 0.252222 0
259 1 0.287723 0.269546 0
231 1 0.322409 0.23466 0
232 1 0.346602 0.240292 0
261 1 0.329857 0.258028 0
263 1 0.354318 0.263685 0
235 1 0.388604 0.228959 0
234 1 0.371854 0.246757 0
265 1 0.396348 0.254245 0
264 1 0.378294 0.270626 0
206 1 0.413083 0.235238 0
236 1 0.420754 0.260227 0
237 1 0.436698 0.241465 0
238 1 0.445481 0.266 0
210 1 0.479656 0.231008 0
239 1 0.462046 0.247744 0
240 1 0.486378 0.254637 0
244 1 0.0417889 0.275348 0
273 1 0.0180464 0.275152 0
271 1 0.00821702 0.314173 0
275 1 0.0256552 0.298107 0
245 1 0.065532 0.282877 0
246 1 0.0496061 0.302605 0
276 1 0.0741228 0.306924 0
248 1 0.0909213 0.288772 0
219 1 0.132301 0.276573 0
249 1 0.114531 0.295189 0
277 1 0.0977396 0.313498 0
251 1 0.157232 0.282315 0
250 1 0.140074 0.300132 0
281 1 0.164287 0.306226 0
252 1 0.181899 0.287667 0
254 1 0.205524 0.292778 0
283 1 0.188424 0.31187 0
255 1 0.22266 0.274769 0
284 1 0.212185 0.317093 0
256 1 0.247464 0.281215 0
285 1 0.229849 0.297951 0
287 1 0.253322 0.30551 0
258 1 0.270609 0.288665 0
260 1 0.312251 0.275611 0
288 1 0.277058 0.312178 0
289 1 0.29494 0.293917 0
290 1 0.30168 0.316868 0
262 1 0.337032 0.281233 0
291 1 0.319784 0.299365 0
292 1 0.343885 0.305035 0
293 1 0.362073 0.288361 0
266 1 0.40346 0.278171 0
295 1 0.386376 0.295087 0
294 1 0.368823 0.311452 0
297 1 0.410686 0.301437 0
267 1 0.427752 0.283777 0
268 1 0.451853 0.290941 0
298 1 0.4355 0.309384 0
269 1 0.468687 0.272846 0
1141 1 0.493483 0.278767 0
270 1 0.47611 0.296034 0
299 1 0.458485 0.314943 0
272 1 0.0322025 0.321406 0
301 1 0.0150778 0.339554 0
303 1 0.0397714 0.345111 0
302 1 0.0232519 0.365142 0
274 1 0.05719 0.326523 0
304 1 0.0642516 0.34928 0
305 1 0.0815332 0.331708 0
306 1 0.088827 0.355644 0
279 1 0.122216 0.319214 0
307 1 0.105997 0.337379 0
308 1 0.11331 0.361202 0
278 1 0.13079 0.342159 0
280 1 0.146839 0.323798 0
282 1 0.171186 0.329392 0
311 1 0.155528 0.347867 0
312 1 0.179065 0.3531 0
313 1 0.195583 0.335633 0
314 1 0.202784 0.360221 0
315 1 0.219757 0.341067 0
286 1 0.237371 0.323482 0
317 1 0.260657 0.329663 0
316 1 0.2436 0.347717 0
318 1 0.268247 0.352962 0
319 1 0.284741 0.335717 0
349 1 0.291687 0.359311 0
320 1 0.308416 0.341378 0
321 1 0.325518 0.323677 0
323 1 0.350194 0.329299 0
322 1 0.33232 0.346958 0
324 1 0.357188 0.353088 0
296 1 0.392234 0.318677 0
325 1 0.374534 0.335126 0
326 1 0.398246 0.342612 0
355 1 0.38002 0.359153 0
327 1 0.415932 0.324584 0
328 1 0.423524 0.34684 0
359 1 0.443143 0.361612 0
329 1 0.444793 0.335206 0
300 1 0.482494 0.32111 0
1201 1 0.489186 0.344989 0
330 1 0.465241 0.351096 0
332 1 0.0320612 0.38843 0
361 1 0.0141137 0.404918 0
331 1 0.00558984 0.38201 0
333 1 0.048227 0.369239 0
335 1 0.07272 0.374658 0
334 1 0.0572101 0.393724 0
336 1 0.0817248 0.399121 0
337 1 0.0962358 0.380535 0
338 1 0.121357 0.385257 0
367 1 0.106124 0.403803 0
309 1 0.138182 0.366229 0
310 1 0.162735 0.372276 0
339 1 0.146331 0.389673 0
341 1 0.169684 0.396563 0
343 1 0.187311 0.377977 0
342 1 0.194828 0.402783 0
344 1 0.21144 0.383557 0
375 1 0.21905 0.409456 0
345 1 0.227249 0.365232 0
347 1 0.251241 0.370883 0
346 1 0.234831 0.389715 0
377 1 0.259759 0.395636 0
351 1 0.315303 0.365394 0
348 1 0.275139 0.37708 0
350 1 0.300422 0.38304 0
379 1 0.284549 0.401728 0
353 1 0.339094 0.370468 0
381 1 0.324182 0.390126 0
352 1 0.350133 0.391509 0
354 1 0.372388 0.382663 0
385 1 0.38987 0.400539 0
356 1 0.396564 0.377855 0
383 1 0.366754 0.40822 0
357 1 0.418875 0.371001 0
358 1 0.438272 0.38693 0
387 1 0.414462 0.394614 0
389 1 0.455829 0.403153 0
1231 1 0.484861 0.368494 0
360 1 0.461876 0.377235 0
1232 1 0.478518 0.394788 0
362 1 0.022689 0.428729 0
392 1 0.00601263 0.448605 0
363 1 0.0397721 0.411279 0
364 1 0.0469117 0.435454 0
365 1 0.0637243 0.416878 0
395 1 0.0713298 0.440474 0
366 1 0.0881722 0.422866 0
369 1 0.129904 0.409449 0
397 1 0.0962508 0.44628 0
368 1 0.11317 0.427647 0
399 1 0.120743 0.451431 0
370 1 0.136786 0.432738 0
340 1 0.153658 0.415151 0
401 1 0.162125 0.438868 0
371 1 0.178464 0.420259 0
372 1 0.186238 0.445597 0
373 1 0.201839 0.426847 0
403 1 0.211363 0.451738 0
374 1 0.22689 0.432075 0
376 1 0.242931 0.413204 0
407 1 0.251311 0.437115 0
378 1 0.268249 0.419356 0
409 1 0.292953 0.426043 0
410 1 0.310504 0.443387 0
408 1 0.285803 0.450713 0
380 1 0.317299 0.417222 0
382 1 0.342466 0.414099 0
411 1 0.334877 0.437499 0
413 1 0.360298 0.431572 0
384 1 0.384118 0.42449 0
414 1 0.377782 0.448561 0
415 1 0.402185 0.441426 0
386 1 0.408533 0.418019 0
388 1 0.432577 0.410632 0
417 1 0.426472 0.434863 0
419 1 0.450865 0.427226 0
418 1 0.444835 0.451923 0
1261 1 0.473996 0.419291 0
390 1 0.468687 0.444146 0
1291 1 0.491453 0.436296 0
1262 1 0.497747 0.411153 0
393 1 0.0299863 0.453893 0
422 1 0.0122843 0.47312 0
453 1 0.0208518 0.496016 0
423 1 0.0368074 0.477093 0
394 1 0.0543173 0.458727 0
396 1 0.0788798 0.464666 0
425 1 0.0622312 0.482917 0
427 1 0.0870732 0.488108 0
398 1 0.103324 0.469592 0
428 1 0.111209 0.493285 0
429 1 0.128366 0.474833 0
430 1 0.135875 0.498814 0
400 1 0.145241 0.456989 0
431 1 0.153146 0.481433 0
402 1 0.169982 0.462749 0
432 1 0.177017 0.487435 0
433 1 0.194163 0.46967 0
434 1 0.201527 0.492618 0
404 1 0.219531 0.474773 0
435 1 0.226682 0.497568 0
405 1 0.236321 0.456606 0
406 1 0.261151 0.460651 0
436 1 0.244842 0.480489 0
437 1 0.281832 0.475426 0
438 1 0.300371 0.492995 0
439 1 0.305035 0.467935 0
412 1 0.354011 0.454863 0
440 1 0.323542 0.486008 0
441 1 0.329808 0.461807 0
442 1 0.347563 0.479095 0
473 1 0.365603 0.495893 0
443 1 0.371697 0.47212 0
445 1 0.396 0.466385 0
444 1 0.389948 0.489525 0
447 1 0.438477 0.476049 0
416 1 0.419651 0.459216 0
446 1 0.414904 0.483148 0
448 1 0.432678 0.499931 0
1321 1 0.486044 0.460884 0
449 1 0.456453 0.49252 0
450 1 0.47993 0.485165 0
420 1 0.462043 0.468868 0
467 1 0.276263 0.499513 0
452 1 0.00464854 0.514864 0
483 1 0.0126691 0.538153 0
454 1 0.0297188 0.519872 0
424 1 0.0448996 0.501425 0
485 1 0.0370018 0.54438 0
455 1 0.053905 0.525438 0
456 1 0.0771801 0.530832 0
426 1 0.0702104 0.506956 0
458 1 0.100556 0.535935 0
459 1 0.118678 0.517148 0
457 1 0.0946943 0.511596 0
489 1 0.125722 0.540242 0
460 1 0.143264 0.522451 0
462 1 0.167921 0.529445 0
461 1 0.161159 0.505556 0
463 1 0.185497 0.511615 0
493 1 0.1941 0.535367 0
495 1 0.218009 0.539542 0
464 1 0.209674 0.516635 0
466 1 0.234855 0.521668 0
497 1 0.269212 0.524245 0
465 1 0.252142 0.50437 0
632 1 -8.76022e-05 0.723702 0
468 1 0.293507 0.516572 0
499 1 0.311195 0.534291 0
498 1 0.287613 0.54134 0
469 1 0.318346 0.510345 0
470 1 0.336438 0.527745 0
472 1 0.360287 0.51986 0
471 1 0.34231 0.5035 0
501 1 0.354875 0.544596 0
474 1 0.384281 0.513496 0
476 1 0.402103 0.530954 0
503 1 0.377982 0.537121 0
475 1 0.408471 0.506796 0
477 1 0.425559 0.524261 0
478 1 0.450885 0.516809 0
507 1 0.445391 0.540807 0
480 1 0.469241 0.535576 0
479 1 0.474034 0.509604 0
1381 1 0.492688 0.526914 0
1351 1 0.497475 0.502027 0
513 1 0.0198666 0.562126 0
512 1 0.0275595 0.586674 0
484 1 0.0440097 0.568355 0
541 1 0.00374645 0.580322 0
486 1 0.0618619 0.550088 0
515 1 0.0681292 0.574894 0
487 1 0.0846687 0.555889 0
517 1 0.0924129 0.580894 0
488 1 0.108968 0.558345 0
519 1 0.116612 0.581086 0
490 1 0.133602 0.563547 0
491 1 0.149584 0.545502 0
520 1 0.140789 0.586181 0
521 1 0.158099 0.569158 0
492 1 0.176076 0.552491 0
523 1 0.182574 0.57618 0
494 1 0.200934 0.559478 0
524 1 0.206778 0.583163 0
525 1 0.224738 0.565502 0
496 1 0.240439 0.546597 0
526 1 0.249333 0.571659 0
527 1 0.264288 0.549281 0
555 1 0.231559 0.590338 0
528 1 0.283109 0.565163 0
529 1 0.30715 0.558927 0
559 1 0.300955 0.582791 0
558 1 0.277297 0.590159 0
530 1 0.3252 0.575978 0
500 1 0.330497 0.552387 0
531 1 0.349613 0.569774 0
533 1 0.367602 0.58653 0
502 1 0.373737 0.562377 0
505 1 0.396834 0.554857 0
504 1 0.391357 0.579889 0
535 1 0.415519 0.572939 0
506 1 0.420366 0.548185 0
508 1 0.438291 0.564846 0
537 1 0.433667 0.590226 0
539 1 0.456716 0.582269 0
509 1 0.462972 0.558482 0
510 1 0.486885 0.552004 0
540 1 0.480322 0.576059 0
542 1 0.0104747 0.605781 0
571 1 0.00696384 0.631826 0
543 1 0.0356419 0.610575 0
544 1 0.0403692 0.635248 0
514 1 0.0519393 0.592644 0
516 1 0.0756376 0.599764 0
545 1 0.0592803 0.618529 0
546 1 0.0830849 0.626809 0
518 1 0.122155 0.603109 0
547 1 0.0980139 0.606439 0
548 1 0.126743 0.62637 0
522 1 0.164977 0.592783 0
549 1 0.146468 0.609758 0
551 1 0.170423 0.617222 0
550 1 0.149448 0.633751 0
553 1 0.189129 0.60059 0
552 1 0.194201 0.62607 0
554 1 0.213995 0.608947 0
583 1 0.218599 0.634247 0
556 1 0.239359 0.618186 0
557 1 0.254092 0.597708 0
587 1 0.272147 0.614892 0
560 1 0.296187 0.607517 0
591 1 0.313729 0.625318 0
589 1 0.290586 0.631518 0
561 1 0.319435 0.600671 0
532 1 0.342654 0.593853 0
562 1 0.336806 0.617573 0
563 1 0.360792 0.610765 0
564 1 0.355578 0.634201 0
534 1 0.385832 0.604167 0
566 1 0.40576 0.621089 0
565 1 0.380748 0.627732 0
536 1 0.410365 0.596788 0
567 1 0.42986 0.614812 0
538 1 0.452232 0.607029 0
597 1 0.4468 0.632264 0
568 1 0.47058 0.623826 0
569 1 0.475531 0.59974 0
570 1 0.493947 0.616471 0
1441 1 0.498655 0.592153 0
573 1 0.0216445 0.650749 0
603 1 0.0195898 0.677538 0
574 1 0.04548 0.659693 0
575 1 0.0639736 0.643518 0
605 1 0.0677605 0.669246 0
576 1 0.0870204 0.65398 0
607 1 0.0909384 0.679987 0
577 1 0.106495 0.639105 0
578 1 0.110922 0.66497 0
579 1 0.130644 0.649836 0
609 1 0.134056 0.674181 0
581 1 0.17345 0.641298 0
580 1 0.153929 0.658138 0
611 1 0.177355 0.666538 0
582 1 0.196256 0.650249 0
584 1 0.218585 0.658905 0
613 1 0.200086 0.675176 0
585 1 0.242712 0.644039 0
586 1 0.266556 0.638449 0
615 1 0.241236 0.668944 0
617 1 0.263501 0.662547 0
588 1 0.287106 0.655335 0
590 1 0.309651 0.649642 0
619 1 0.303973 0.674038 0
618 1 0.280218 0.679793 0
593 1 0.332103 0.642717 0
621 1 0.327512 0.667178 0
592 1 0.350556 0.65905 0
594 1 0.374546 0.652221 0
595 1 0.39838 0.645092 0
625 1 0.39272 0.66939 0
623 1 0.369154 0.677117 0
596 1 0.42281 0.638741 0
627 1 0.416879 0.663299 0
598 1 0.440985 0.65699 0
657 1 0.435682 0.68074 0
628 1 0.459342 0.674096 0
599 1 0.464601 0.648806 0
600 1 0.487613 0.640933 0
629 1 0.482691 0.666147 0
602 1 0.00593612 0.700578 0
633 1 0.0298455 0.70083 0
604 1 0.0477978 0.68484 0
606 1 0.0715235 0.695109 0
635 1 0.0521615 0.710138 0
636 1 0.0754906 0.721203 0
637 1 0.0956828 0.704795 0
608 1 0.114335 0.689166 0
638 1 0.119108 0.714015 0
610 1 0.157311 0.683393 0
639 1 0.138989 0.698638 0
640 1 0.142419 0.723965 0
641 1 0.161561 0.707364 0
612 1 0.181247 0.691719 0
642 1 0.184521 0.716684 0
614 1 0.222366 0.684501 0
643 1 0.203554 0.700572 0
644 1 0.208964 0.725222 0
645 1 0.227658 0.709563 0
616 1 0.256379 0.688595 0
646 1 0.251804 0.713295 0
647 1 0.275173 0.704273 0
649 1 0.298569 0.696803 0
650 1 0.316345 0.715555 0
648 1 0.292388 0.721621 0
620 1 0.321855 0.691682 0
622 1 0.345822 0.684149 0
651 1 0.341301 0.708153 0
652 1 0.358852 0.726188 0
653 1 0.364173 0.701766 0
624 1 0.38746 0.693712 0
655 1 0.406156 0.711624 0
654 1 0.382553 0.718227 0
626 1 0.411598 0.686928 0
656 1 0.430142 0.704918 0
687 1 0.448941 0.722911 0
658 1 0.454638 0.698185 0
659 1 0.478439 0.691414 0
660 1 0.49744 0.708947 0
689 1 0.472975 0.716401 0
634 1 0.0333344 0.726597 0
662 1 0.0103828 0.767925 0
663 1 0.0158763 0.743391 0
664 1 0.0377945 0.752887 0
665 1 0.0573501 0.736316 0
666 1 0.0800504 0.74646 0
695 1 0.0611259 0.762151 0
697 1 0.0839134 0.770798 0
667 1 0.100547 0.730059 0
669 1 0.123091 0.738332 0
668 1 0.104164 0.754705 0
699 1 0.126697 0.762612 0
671 1 0.165446 0.732935 0
670 1 0.146418 0.748071 0
672 1 0.169638 0.75679 0
673 1 0.18942 0.741802 0
674 1 0.21372 0.749512 0
703 1 0.191622 0.766632 0
675 1 0.233776 0.73367 0
705 1 0.237016 0.760248 0
677 1 0.268546 0.730099 0
676 1 0.261905 0.753829 0
679 1 0.310626 0.739428 0
678 1 0.28699 0.746792 0
709 1 0.305703 0.763551 0
707 1 0.281931 0.770544 0
680 1 0.329278 0.756222 0
681 1 0.334571 0.73272 0
682 1 0.353009 0.75004 0
683 1 0.376987 0.742154 0
684 1 0.395068 0.759175 0
685 1 0.401336 0.735832 0
713 1 0.371477 0.766256 0
686 1 0.425476 0.728546 0
715 1 0.419301 0.752532 0
717 1 0.443447 0.746813 0
716 1 0.43712 0.770854 0
718 1 0.462214 0.764465 0
688 1 0.467618 0.740616 0
690 1 0.491996 0.732922 0
719 1 0.485528 0.757948 0
694 1 0.0423802 0.776957 0
693 1 0.02385 0.791973 0
692 1 0.0262688 0.817628 0
723 1 0.0455666 0.801807 0
696 1 0.0653501 0.785943 0
725 1 0.0693895 0.810827 0
727 1 0.0886964 0.795032 0
698 1 0.108158 0.779418 0
728 1 0.112252 0.803432 0
700 1 0.131059 0.788365 0
729 1 0.135128 0.814408 0
701 1 0.149702 0.77234 0
731 1 0.154094 0.798206 0
732 1 0.177549 0.80672 0
702 1 0.172179 0.782012 0
704 1 0.215166 0.774783 0
733 1 0.196823 0.790916 0
734 1 0.220289 0.803292 0
763 1 0.199801 0.817546 0
735 1 0.236581 0.785556 0
706 1 0.259423 0.778735 0
736 1 0.252988 0.802715 0
737 1 0.276207 0.795921 0
708 1 0.300281 0.788172 0
738 1 0.294045 0.812842 0
739 1 0.317721 0.805526 0
711 1 0.34635 0.774055 0
710 1 0.323344 0.781326 0
741 1 0.340963 0.797425 0
742 1 0.359253 0.815521 0
712 1 0.365031 0.790247 0
743 1 0.388855 0.78364 0
745 1 0.407192 0.800562 0
744 1 0.382645 0.808035 0
714 1 0.413416 0.776421 0
746 1 0.431424 0.794331 0
748 1 0.448115 0.813923 0
747 1 0.454608 0.788169 0
1621 1 0.495881 0.809126 0
720 1 0.485661 0.784073 0
749 1 0.471498 0.806176 0
751 1 0.0316844 0.841216 0
1680 1 0.00817854 0.834034 0
722 1 0.0502947 0.825711 0
753 1 0.054333 0.850194 0
724 1 0.0734921 0.835773 0
754 1 0.077401 0.860514 0
726 1 0.0929946 0.819849 0
755 1 0.0970714 0.844857 0
756 1 0.12002 0.8538 0
757 1 0.116052 0.829426 0
759 1 0.138836 0.839216 0
730 1 0.158266 0.823163 0
760 1 0.162861 0.849173 0
761 1 0.181521 0.832624 0
791 1 0.18586 0.859338 0
762 1 0.20443 0.842551 0
764 1 0.222596 0.827372 0
767 1 0.270387 0.820044 0
795 1 0.232944 0.850239 0
765 1 0.247383 0.82695 0
766 1 0.26429 0.843926 0
768 1 0.288143 0.837574 0
769 1 0.312195 0.82987 0
799 1 0.306182 0.854188 0
797 1 0.281456 0.861436 0
770 1 0.329372 0.847254 0
740 1 0.336338 0.822604 0
771 1 0.353828 0.841403 0
772 1 0.371431 0.858382 0
773 1 0.377862 0.832467 0
774 1 0.401073 0.825015 0
803 1 0.394678 0.8497 0
775 1 0.424876 0.818188 0
777 1 0.441912 0.837376 0
776 1 0.418119 0.841538 0
750 1 0.479044 0.828372 0
779 1 0.463142 0.848426 0
780 1 0.486908 0.853677 0
752 1 0.0354191 0.865647 0
782 1 0.0339272 0.894613 0
812 1 0.00995513 0.900777 0
811 1 0.0143281 0.877435 0
783 1 0.057195 0.876744 0
813 1 0.0598252 0.90232 0
784 1 0.0809877 0.884311 0
815 1 0.0837587 0.908628 0
785 1 0.100743 0.869911 0
786 1 0.104318 0.894942 0
787 1 0.123421 0.879964 0
817 1 0.128108 0.903955 0
758 1 0.142292 0.863282 0
788 1 0.14722 0.889034 0
789 1 0.16661 0.874766 0
790 1 0.171082 0.900603 0
792 1 0.190771 0.884707 0
793 1 0.210872 0.86799 0
823 1 0.213703 0.894514 0
821 1 0.192722 0.911539 0
794 1 0.233357 0.878796 0
796 1 0.256124 0.86785 0
825 1 0.252429 0.892711 0
824 1 0.235877 0.909755 0
827 1 0.274834 0.88605 0
798 1 0.298751 0.87877 0
828 1 0.289959 0.905247 0
829 1 0.315443 0.896784 0
801 1 0.346966 0.865041 0
800 1 0.322961 0.871162 0
831 1 0.340818 0.888864 0
832 1 0.359616 0.905781 0
802 1 0.36487 0.881846 0
804 1 0.390058 0.874917 0
833 1 0.38361 0.898496 0
806 1 0.409231 0.901766 0
778 1 0.443864 0.864715 0
805 1 0.413642 0.864907 0
807 1 0.428035 0.884167 0
837 1 0.43336 0.908368 0
808 1 0.451401 0.889583 0
809 1 0.469192 0.872577 0
810 1 0.475798 0.895973 0
1681 1 0.493913 0.877927 0
1771 1 0.496788 0.967667 0
841 1 0.00130742 0.923628 0
842 1 0.017378 0.941278 0
843 1 0.0265013 0.918521 0
844 1 0.0414874 0.937855 0
814 1 0.0634656 0.926288 0
845 1 0.0865151 0.933168 0
875 1 0.0613667 0.953572 0
816 1 0.107768 0.918658 0
847 1 0.108808 0.942538 0
818 1 0.129561 0.927249 0
848 1 0.131492 0.952649 0
819 1 0.150019 0.914301 0
849 1 0.151702 0.939206 0
820 1 0.172133 0.925255 0
850 1 0.174075 0.949141 0
851 1 0.195258 0.936205 0
822 1 0.215394 0.92211 0
853 1 0.217215 0.946639 0
855 1 0.239342 0.934777 0
826 1 0.259505 0.919033 0
856 1 0.2633 0.943803 0
857 1 0.285246 0.931188 0
858 1 0.306459 0.944397 0
859 1 0.309882 0.920517 0
830 1 0.334301 0.912392 0
860 1 0.329535 0.936571 0
861 1 0.352946 0.928626 0
862 1 0.352987 0.953702 0
863 1 0.373836 0.939151 0
834 1 0.393008 0.92024 0
865 1 0.397978 0.944449 0
835 1 0.41571 0.9267 0
838 1 0.439942 0.93149 0
836 1 0.42232 0.949411 0
839 1 0.457737 0.91388 0
1741 1 0.490136 0.944095 0
840 1 0.482518 0.91984 0
869 1 0.465834 0.938346 0
872 1 0.027536 0.98459 0
873 1 0.0349406 0.960951 0
871 1 0.0108613 0.965527 0
1 1 0.00404481 0.989502 0
846 1 0.0861784 0.957658 0
874 1 0.0534215 0.978114 0
876 1 0.0870091 0.982235 0
5 1 0.0688476 0.999057 0
7 1 0.110798 0.990746 0
877 1 0.108971 0.966456 0
878 1 0.131768 0.977786 0
879 1 0.153191 0.962984 0
880 1 0.155019 0.987501 0
881 1 0.176498 0.973416 0
11 1 0.177453 0.998739 0
852 1 0.197349 0.960894 0
882 1 0.19882 0.985241 0
883 1 0.220481 0.973017 0
13 1 0.22157 0.997775 0
854 1 0.242161 0.959044 0
884 1 0.243477 0.982974 0
885 1 0.265023 0.969882 0
886 1 0.264847 0.996008 0
887 1 0.285638 0.956619 0
888 1 0.286042 0.98319 0
19 1 0.309242 0.994978 0
889 1 0.30676 0.969394 0
890 1 0.335804 0.984997 0
891 1 0.329107 0.960801 0
892 1 0.361513 0.977804 0
864 1 0.380045 0.961789 0
893 1 0.385875 0.985489 0
895 1 0.404374 0.968315 0
867 1 0.446366 0.955314 0
896 1 0.410996 0.991291 0
897 1 0.43591 0.996271 0
866 1 0.428875 0.97329 0
868 1 0.454202 0.978411 0
899 1 0.478971 0.984117 0
870 1 0.471575 0.961281 0
902 1 0.532512 0.02187 0
931 1 0.514592 0.0392522 0
901 1 0.508828 0.0141937 0
933 1 0.538788 0.0455145 0
904 1 0.557185 0.0272198 0
935 1 0.580592 0.034458 0
906 1 0.574487 0.0105678 0
905 1 0.550279 0.00398822 0
908 1 0.598864 0.0170358 0
937 1 0.604386 0.0409261 0
939 1 0.622184 0.0234349 0
941 1 0.645642 0.0298272 0
912 1 0.673484 0.0114796 0
942 1 0.669274 0.0354257 0
910 1 0.64 0.00615184 0
944 1 0.692372 0.0280915 0
945 1 0.716901 0.0231842 0
943 1 0.699963 0.00495386 0
1350 1 0.97171 0.485797 0
947 1 0.740818 0.0191106 0
946 1 0.733583 0.0426001 0
948 1 0.758218 0.0373148 0
918 1 0.765486 0.014821 0
919 1 0.789603 0.00948887 0
949 1 0.781906 0.0329573 0
920 1 0.806603 0.0278061 0
1790 1 0.813933 0.00467968 0
922 1 0.829588 0.0234972 0
924 1 0.854217 0.0191089 0
951 1 0.847861 0.043825 0
953 1 0.871836 0.0366197 0
955 1 0.879278 0.0132562 0
954 1 0.896549 0.0318354 0
925 1 0.905033 0.00839626 0
926 1 0.929839 0.00389197 0
957 1 0.945783 0.0222489 0
956 1 0.920981 0.0269691 0
930 1 0.994757 0.0130264 0
959 1 0.970622 0.0182622 0
960 1 0.986565 0.0363026 0
958 1 0.962282 0.0429492 0
932 1 0.521296 0.0632085 0
962 1 0.528113 0.0875343 0
961 1 0.503381 0.0810253 0
963 1 0.545308 0.069735 0
934 1 0.562976 0.0514837 0
965 1 0.568976 0.0752957 0
936 1 0.586731 0.0580256 0
938 1 0.629218 0.0474439 0
966 1 0.59284 0.0825709 0
967 1 0.610746 0.0651682 0
969 1 0.635841 0.0714702 0
968 1 0.617346 0.0887265 0
940 1 0.652897 0.0538433 0
970 1 0.659746 0.0768209 0
971 1 0.678785 0.0587587 0
972 1 0.682276 0.0840211 0
975 1 0.709096 0.0473676 0
973 1 0.702526 0.0706131 0
1003 1 0.718571 0.089835 0
974 1 0.726071 0.0664381 0
976 1 0.750718 0.0618978 0
1007 1 0.766952 0.0813091 0
1005 1 0.742315 0.0850108 0
977 1 0.774387 0.0574412 0
979 1 0.798241 0.0508823 0
980 1 0.815168 0.0709981 0
978 1 0.790566 0.0756885 0
950 1 0.823183 0.047278 0
981 1 0.839381 0.066963 0
982 1 0.856843 0.0846121 0
1011 1 0.832446 0.0901873 0
952 1 0.864627 0.0612407 0
983 1 0.887823 0.0556576 0
984 1 0.881558 0.0795588 0
1015 1 0.904627 0.0742157 0
987 1 0.93721 0.0459482 0
985 1 0.91394 0.050489 0
986 1 0.929258 0.0691592 0
1018 1 0.945562 0.0890356 0
988 1 0.953398 0.0654331 0
989 1 0.978799 0.0614824 0
990 1 0.994725 0.0800966 0
1019 1 0.969843 0.0846953 0
991 1 0.510181 0.104716 0
992 1 0.517618 0.129857 0
993 1 0.534343 0.11198 0
964 1 0.551839 0.093857 0
994 1 0.558736 0.117915 0
995 1 0.575755 0.0997601 0
996 1 0.582865 0.124173 0
997 1 0.600188 0.106346 0
998 1 0.624065 0.112592 0
1027 1 0.606899 0.130727 0
1029 1 0.630999 0.136807 0
999 1 0.641413 0.0949375 0
1000 1 0.648314 0.119294 0
1001 1 0.665101 0.101187 0
1031 1 0.672177 0.125204 0
1002 1 0.6877 0.107825 0
1004 1 0.711544 0.112304 0
1033 1 0.696287 0.13116 0
1034 1 0.725117 0.135154 0
1006 1 0.759212 0.104807 0
1035 1 0.73575 0.10881 0
1036 1 0.750621 0.129707 0
1037 1 0.775471 0.12393 0
1008 1 0.783763 0.100919 0
1009 1 0.807905 0.0952133 0
1039 1 0.800501 0.11882 0
1010 1 0.824563 0.114269 0
1012 1 0.849552 0.107552 0
1041 1 0.840887 0.13185 0
1043 1 0.865029 0.127726 0
1013 1 0.873416 0.103663 0
1014 1 0.897018 0.0983195 0
1045 1 0.888528 0.122459 0
1016 1 0.913133 0.116965 0
1017 1 0.921018 0.0925757 0
1047 1 0.930159 0.136545 0
1049 1 0.960953 0.109609 0
1020 1 0.986099 0.103468 0
1050 1 0.977691 0.127842 0
1023 1 0.54193 0.135865 0
1022 1 0.524869 0.154455 0
1053 1 0.531894 0.178681 0
1051 1 0.508133 0.171446 0
1021 1 0.500868 0.147892 0
1024 1 0.548684 0.160792 0
1025 1 0.565825 0.142185 0
1055 1 0.573253 0.16706 0
1026 1 0.589567 0.147602 0
1028 1 0.613406 0.154119 0
1057 1 0.596947 0.172226 0
1058 1 0.621363 0.178271 0
1059 1 0.638371 0.16005 0
1030 1 0.655431 0.143148 0
1061 1 0.662016 0.166788 0
1032 1 0.679046 0.148884 0
1063 1 0.705382 0.153176 0
1062 1 0.686039 0.171952 0
1064 1 0.710888 0.176979 0
1065 1 0.741853 0.154053 0
1067 1 0.767106 0.148668 0
1066 1 0.759484 0.172235 0
1095 1 0.736177 0.181012 0
1040 1 0.815448 0.138527 0
1038 1 0.791405 0.142536 0
1069 1 0.807061 0.160987 0
1068 1 0.783331 0.166175 0
1071 1 0.832125 0.156176 0
1042 1 0.857196 0.150555 0
1072 1 0.848997 0.173341 0
1070 1 0.824723 0.180021 0
1044 1 0.881746 0.146424 0
1075 1 0.896871 0.166542 0
1073 1 0.873237 0.170455 0
1046 1 0.906113 0.141765 0
1048 1 0.946112 0.155401 0
1077 1 0.921936 0.159823 0
1079 1 0.971363 0.151664 0
1080 1 0.986268 0.172108 0
151 1 0.99472 0.147141 0
1078 1 0.96178 0.175988 0
1052 1 0.513981 0.195746 0
1082 1 0.521047 0.219728 0
1083 1 0.538288 0.202816 0
1084 1 0.545348 0.226306 0
1054 1 0.556718 0.185399 0
1056 1 0.580212 0.191142 0
1085 1 0.562764 0.20892 0
1086 1 0.586917 0.213945 0
1087 1 0.603775 0.196152 0
1088 1 0.610361 0.219772 0
1089 1 0.628365 0.201866 0
1119 1 0.636102 0.225477 0
1060 1 0.644563 0.183687 0
1091 1 0.669644 0.18957 0
1090 1 0.653271 0.207468 0
1092 1 0.677435 0.213885 0
1093 1 0.693646 0.195106 0
1094 1 0.719469 0.199882 0
1123 1 0.70238 0.219142 0
1125 1 0.727266 0.224209 0
1096 1 0.746204 0.205172 0
1127 1 0.768991 0.213664 0
1097 1 0.7767 0.18996 0
1099 1 0.800204 0.184755 0
1098 1 0.79348 0.208543 0
1100 1 0.816938 0.203117 0
1129 1 0.809737 0.2269 0
1101 1 0.841656 0.198833 0
1102 1 0.858612 0.217709 0
1131 1 0.834539 0.221716 0
1103 1 0.865471 0.193966 0
1074 1 0.890176 0.189168 0
1105 1 0.907792 0.207964 0
1104 1 0.882806 0.212605 0
1076 1 0.914796 0.184247 0
1107 1 0.933002 0.202827 0
1108 1 0.948068 0.222739 0
1106 1 0.922823 0.226788 0
1109 1 0.979721 0.195307 0
1110 1 0.972532 0.218496 0
211 1 0.996477 0.213923 0
1111 1 0.503254 0.236972 0
1113 1 0.527768 0.242948 0
1112 1 0.510602 0.261425 0
1143 1 0.535163 0.267249 0
1114 1 0.552322 0.249496 0
1115 1 0.570415 0.232246 0
1116 1 0.576951 0.256118 0
1117 1 0.594795 0.238031 0
1118 1 0.61886 0.243675 0
1147 1 0.602359 0.261891 0
1149 1 0.626431 0.2672 0
1121 1 0.659108 0.231419 0
1120 1 0.643287 0.249455 0
1151 1 0.668147 0.255026 0
1122 1 0.684307 0.237053 0
1124 1 0.709367 0.243142 0
1153 1 0.691551 0.260155 0
1154 1 0.716237 0.266628 0
1126 1 0.750207 0.2307 0
1155 1 0.734023 0.248598 0
1157 1 0.757067 0.252886 0
1156 1 0.741734 0.272055 0
1128 1 0.78439 0.233255 0
1159 1 0.80289 0.250971 0
1158 1 0.78048 0.258491 0
1130 1 0.826971 0.245687 0
1132 1 0.850407 0.241097 0
1161 1 0.84098 0.265081 0
1163 1 0.865416 0.260352 0
1133 1 0.874081 0.237393 0
1135 1 0.898877 0.232054 0