ITEM: TIMESTEP
14000
ITEM: NUMBER OF ATOMS
1800
ITEM: BOX BOUNDS pp pp pp
3.7015290706617066e-01 1.6462984709293352e+02
3.7015290706617066e-01 1.6462984709293352e+02
0.0000000000000000e+00 5.5000000000000000e+00
ITEM: ATOMS id type xs ys zs
2 1 0.0149265 0.0174779 0
3 1 0.0395135 0.0122015 0
33 1 0.0319271 0.0347285 0
31 1 0.00783751 0.0407548 0
4 1 0.0568725 0.0298769 0
5 1 0.0658877 0.00619505 0
6 1 0.0813882 0.0244289 0
7 1 0.0902069 0.000221041 0
8 1 0.105928 0.0196235 0
37 1 0.0973809 0.0425021 0
9 1 0.123057 0.00204869 0
39 1 0.128155 0.0264248 0
10 1 0.146517 0.0109644 0
41 1 0.169686 0.0208527 0
40 1 0.150915 0.035565 0
12 1 0.190103 0.00723154 0
43 1 0.192001 0.0317197 0
14 1 0.21194 0.0178636 0
44 1 0.214319 0.0427922 0
15 1 0.23106 0.00270077 0
45 1 0.233693 0.02841 0
16 1 0.253074 0.0129316 0
46 1 0.256513 0.0385448 0
18 1 0.275034 0.0239642 0
49 1 0.29797 0.0324967 0
20 1 0.316192 0.015267 0
51 1 0.334754 0.0353039 0
22 1 0.359142 0.0261809 0
21 1 0.340872 0.010463 0
53 1 0.378562 0.0410473 0
24 1 0.383543 0.0181041 0
55 1 0.402803 0.0367807 0
25 1 0.406858 0.0116539 0
23 1 0.364864 0.00190136 0
26 1 0.425883 0.027187 0
28 1 0.448866 0.0219317 0
27 1 0.430916 0.00355757 0
30 1 0.494906 0.0277535 0
59 1 0.471429 0.0372509 0
29 1 0.471521 0.0135837 0
900 1 0.493446 0.00464509 0
32 1 0.0250029 0.0582278 0
62 1 0.0171823 0.0827644 0
63 1 0.0414401 0.0772945 0
61 1 0.00133233 0.0646067 0
35 1 0.0728559 0.0479121 0
34 1 0.0485552 0.0534166 0
36 1 0.0890983 0.0669587 0
65 1 0.0653581 0.0715213 0
66 1 0.0823499 0.0895854 0
38 1 0.112181 0.0614029 0
67 1 0.107415 0.084443 0
68 1 0.13159 0.0774625 0
69 1 0.132704 0.0508774 0
71 1 0.153867 0.0623658 0
42 1 0.172895 0.0468276 0
72 1 0.17511 0.0728425 0
70 1 0.154296 0.0880273 0
73 1 0.194929 0.0575842 0
74 1 0.216621 0.0691777 0
103 1 0.19662 0.0843822 0
75 1 0.236963 0.0531838 0
77 1 0.258767 0.0646936 0
76 1 0.240022 0.0791335 0
107 1 0.265741 0.0893615 0
47 1 0.27854 0.0483725 0
48 1 0.292194 0.0691411 0
79 1 0.314256 0.0779679 0
50 1 0.312369 0.0529211 0
80 1 0.335732 0.089028 0
81 1 0.335533 0.063864 0
52 1 0.356365 0.0514617 0
82 1 0.357346 0.0761069 0
83 1 0.377993 0.064758 0
54 1 0.401966 0.0623132 0
84 1 0.402383 0.0885758 0
113 1 0.377356 0.0893801 0
57 1 0.448427 0.0464943 0
56 1 0.424035 0.0522436 0
85 1 0.422339 0.0760351 0
87 1 0.447672 0.0763055 0
60 1 0.492418 0.0513636 0
58 1 0.468221 0.0613755 0
88 1 0.470276 0.0880092 0
89 1 0.489026 0.0744584 0
92 1 0.027725 0.124563 0
93 1 0.0345841 0.100287 0
91 1 0.0107798 0.106645 0
121 1 0.00382418 0.130237 0
64 1 0.0589407 0.0956888 0
94 1 0.0512214 0.118359 0
95 1 0.0752786 0.113237 0
125 1 0.0680215 0.136797 0
96 1 0.09292 0.130755 0
97 1 0.09932 0.107048 0
98 1 0.117472 0.124457 0
99 1 0.133391 0.103807 0
100 1 0.157048 0.114916 0
101 1 0.176414 0.0987028 0
131 1 0.18122 0.124071 0
102 1 0.199468 0.109131 0
104 1 0.221885 0.118666 0
105 1 0.219338 0.0938034 0
133 1 0.202735 0.135522 0
106 1 0.241976 0.103995 0
135 1 0.244892 0.128896 0
137 1 0.264394 0.11412 0
78 1 0.290072 0.0942937 0
108 1 0.287662 0.121164 0
109 1 0.312773 0.102927 0
139 1 0.31198 0.129174 0
110 1 0.333752 0.114858 0
111 1 0.357064 0.101793 0
141 1 0.354598 0.125484 0
112 1 0.385386 0.112275 0
114 1 0.399494 0.133675 0
143 1 0.376165 0.134859 0
115 1 0.413164 0.113289 0
86 1 0.432348 0.0979571 0
116 1 0.436407 0.123376 0
117 1 0.454574 0.106282 0
118 1 0.460917 0.130509 0
90 1 0.495217 0.0970914 0
119 1 0.477796 0.113093 0
123 1 0.0444085 0.142281 0
122 1 0.0207245 0.148852 0
153 1 0.0367958 0.166006 0
152 1 0.00475905 0.178222 0
124 1 0.0607807 0.160319 0
126 1 0.0849701 0.154254 0
155 1 0.0774664 0.17871 0
127 1 0.110177 0.14899 0
128 1 0.125796 0.167689 0
157 1 0.101448 0.172606 0
129 1 0.137816 0.135906 0
159 1 0.148021 0.158562 0
130 1 0.162334 0.13937 0
161 1 0.166187 0.174878 0
132 1 0.182993 0.153979 0
134 1 0.225755 0.145035 0
163 1 0.207628 0.161556 0
164 1 0.229545 0.171986 0
136 1 0.267261 0.139477 0
165 1 0.248562 0.155166 0
167 1 0.272889 0.163891 0
138 1 0.290859 0.144963 0
169 1 0.31409 0.154758 0
168 1 0.296026 0.171589 0
140 1 0.334023 0.139788 0
142 1 0.356293 0.149947 0
171 1 0.337033 0.164679 0
172 1 0.359664 0.173718 0
170 1 0.318538 0.181007 0
144 1 0.402446 0.159905 0
173 1 0.3788 0.15842 0
174 1 0.383466 0.181095 0
145 1 0.421343 0.142802 0
146 1 0.425724 0.166464 0
147 1 0.444071 0.148483 0
177 1 0.449882 0.172193 0
149 1 0.485257 0.136276 0
148 1 0.467568 0.154295 0
150 1 0.491718 0.160133 0
179 1 0.473429 0.177205 0
183 1 0.0285445 0.188493 0
182 1 0.0208741 0.211857 0
184 1 0.0448839 0.207936 0
154 1 0.0526709 0.184167 0
185 1 0.0693274 0.202092 0
186 1 0.0862343 0.21946 0
215 1 0.0616489 0.225586 0
156 1 0.093657 0.196023 0
158 1 0.118427 0.190174 0
187 1 0.110966 0.213402 0
189 1 0.135092 0.207899 0
160 1 0.143804 0.183765 0
191 1 0.163957 0.199173 0
190 1 0.149703 0.226785 0
221 1 0.174034 0.222703 0
162 1 0.188883 0.183736 0
193 1 0.211939 0.190129 0
192 1 0.193185 0.207691 0
194 1 0.217172 0.215189 0
195 1 0.235463 0.19868 0
166 1 0.253096 0.181486 0
196 1 0.259008 0.206153 0
225 1 0.241108 0.223544 0
197 1 0.276723 0.188285 0
199 1 0.299713 0.196768 0
198 1 0.282254 0.214522 0
229 1 0.306212 0.22251 0
201 1 0.341327 0.190231 0
200 1 0.323344 0.206456 0
202 1 0.347704 0.214101 0
175 1 0.408118 0.183842 0
203 1 0.365513 0.196993 0
233 1 0.371709 0.220393 0
204 1 0.391198 0.203369 0
205 1 0.41481 0.207536 0
176 1 0.432988 0.18961 0
207 1 0.438104 0.213759 0
178 1 0.456531 0.195432 0
208 1 0.46149 0.219218 0
180 1 0.497366 0.18374 0
209 1 0.48071 0.20116 0
210 1 0.485364 0.225717 0
213 1 0.0368209 0.230049 0
212 1 0.0132572 0.235919 0
243 1 0.0280774 0.254151 0
241 1 0.00296853 0.257755 0
244 1 0.0440247 0.271805 0
216 1 0.078242 0.243985 0
214 1 0.0522276 0.248122 0
245 1 0.0686745 0.266622 0
188 1 0.126522 0.2328 0
217 1 0.101955 0.237191 0
218 1 0.116787 0.255253 0
247 1 0.0932514 0.262419 0
219 1 0.14176 0.253146 0
220 1 0.164575 0.244954 0
251 1 0.165664 0.268915 0
222 1 0.185828 0.254272 0
223 1 0.199589 0.232756 0
224 1 0.223132 0.239884 0
253 1 0.208615 0.259833 0
227 1 0.264518 0.231635 0
226 1 0.246978 0.249056 0
257 1 0.26991 0.255717 0
255 1 0.230954 0.267546 0
228 1 0.287898 0.239461 0
230 1 0.311154 0.247092 0
259 1 0.293546 0.26407 0
260 1 0.317655 0.271082 0
231 1 0.329412 0.229979 0
232 1 0.353479 0.237904 0
261 1 0.335639 0.254293 0
263 1 0.359537 0.261812 0
235 1 0.396383 0.226805 0
234 1 0.377999 0.243824 0
265 1 0.401838 0.250928 0
264 1 0.383865 0.267379 0
206 1 0.420242 0.230837 0
236 1 0.425812 0.255325 0
237 1 0.443767 0.237896 0
238 1 0.449749 0.26181 0
239 1 0.467774 0.243763 0
240 1 0.491551 0.249103 0
269 1 0.474383 0.267696 0
242 1 0.0168978 0.277562 0
272 1 0.0330068 0.317086 0
273 1 0.0350046 0.293813 0
271 1 0.0111451 0.30402 0
246 1 0.0845968 0.284732 0
275 1 0.0595079 0.290493 0
276 1 0.0779904 0.307236 0
249 1 0.129744 0.274829 0
248 1 0.107956 0.283306 0
277 1 0.103098 0.307819 0
279 1 0.127594 0.299365 0
250 1 0.149254 0.286793 0
280 1 0.150192 0.310628 0
281 1 0.171186 0.293833 0
252 1 0.190046 0.277616 0
254 1 0.213216 0.28535 0
283 1 0.193947 0.301687 0
284 1 0.21735 0.30923 0
256 1 0.253586 0.274645 0
285 1 0.236407 0.291744 0
287 1 0.259664 0.299913 0
286 1 0.241127 0.316513 0
258 1 0.276689 0.282356 0
288 1 0.28349 0.306926 0
289 1 0.299915 0.289006 0
290 1 0.306832 0.313109 0
262 1 0.341401 0.277947 0
291 1 0.32473 0.295531 0
292 1 0.349196 0.300626 0
293 1 0.366932 0.285152 0
295 1 0.39016 0.290109 0
266 1 0.408684 0.274478 0
296 1 0.399899 0.31238 0
294 1 0.374789 0.310049 0
267 1 0.432898 0.280414 0
297 1 0.423634 0.302757 0
1141 1 0.498296 0.273414 0
268 1 0.45701 0.284915 0
270 1 0.480567 0.29211 0
299 1 0.462322 0.30894 0
300 1 0.485935 0.316258 0
302 1 0.0181984 0.356878 0
303 1 0.0364405 0.341362 0
301 1 0.0134133 0.331685 0
274 1 0.0566328 0.32176 0
304 1 0.0607917 0.34672 0
305 1 0.0794242 0.330462 0
306 1 0.0864715 0.352529 0
278 1 0.126744 0.323235 0
307 1 0.104412 0.333468 0
308 1 0.11126 0.357386 0
309 1 0.134629 0.347083 0
311 1 0.156137 0.333776 0
310 1 0.159655 0.357838 0
312 1 0.179228 0.342209 0
282 1 0.174342 0.317938 0
313 1 0.198033 0.325813 0
314 1 0.203334 0.350373 0
315 1 0.22193 0.333983 0
345 1 0.227111 0.35876 0
317 1 0.265189 0.323569 0
316 1 0.246294 0.340114 0
318 1 0.269923 0.347793 0
319 1 0.288585 0.331282 0
349 1 0.293007 0.35579 0
320 1 0.317077 0.349908 0
321 1 0.329408 0.321353 0
323 1 0.353619 0.324089 0
322 1 0.343179 0.345908 0
324 1 0.369801 0.341813 0
325 1 0.393987 0.335517 0
355 1 0.386807 0.359391 0
298 1 0.441157 0.32069 0
326 1 0.410828 0.353488 0
327 1 0.417778 0.328874 0
328 1 0.437275 0.345353 0
329 1 0.46394 0.333419 0
1201 1 0.491137 0.340349 0
330 1 0.472546 0.355828 0
333 1 0.0428426 0.365 0
332 1 0.0232842 0.383462 0
363 1 0.032105 0.408376 0
361 1 0.00816664 0.404826 0
335 1 0.0669632 0.370396 0
334 1 0.0477391 0.389595 0
336 1 0.0724632 0.393874 0
337 1 0.0923095 0.37555 0
338 1 0.116635 0.381018 0
367 1 0.0967782 0.399279 0
369 1 0.119746 0.40492 0
339 1 0.139335 0.370797 0
341 1 0.16328 0.382292 0
340 1 0.141727 0.394692 0
371 1 0.162218 0.40925 0
343 1 0.183232 0.36718 0
342 1 0.186025 0.392025 0
344 1 0.206455 0.375107 0
375 1 0.216848 0.396874 0
347 1 0.251367 0.363537 0
346 1 0.235461 0.381964 0
377 1 0.259835 0.386334 0
376 1 0.242164 0.405846 0
348 1 0.283813 0.38004 0
350 1 0.308761 0.374484 0
379 1 0.301849 0.398645 0
378 1 0.277029 0.40477 0
353 1 0.360295 0.364449 0
351 1 0.334438 0.368301 0
381 1 0.326293 0.391974 0
352 1 0.351646 0.386731 0
383 1 0.367955 0.404937 0
354 1 0.378036 0.381831 0
385 1 0.39415 0.400675 0
356 1 0.402453 0.377829 0
357 1 0.426119 0.3712 0
358 1 0.443247 0.388624 0
387 1 0.419073 0.395704 0
359 1 0.450996 0.365957 0
1231 1 0.494822 0.366577 0
360 1 0.47214 0.37958 0
389 1 0.462936 0.402218 0
1232 1 0.493193 0.394925 0
362 1 0.0175764 0.42781 0
393 1 0.02688 0.449924 0
364 1 0.0426631 0.431419 0
392 1 0.00195615 0.446437 0
365 1 0.0577532 0.411773 0
366 1 0.0815108 0.416568 0
395 1 0.0662004 0.435739 0
397 1 0.090121 0.439245 0
368 1 0.112925 0.429027 0
398 1 0.110325 0.453292 0
399 1 0.133059 0.442497 0
370 1 0.138076 0.418794 0
401 1 0.156252 0.433644 0
372 1 0.179731 0.426729 0
402 1 0.177974 0.45067 0
373 1 0.199073 0.412829 0
403 1 0.201173 0.437592 0
374 1 0.222298 0.421348 0
404 1 0.224237 0.445689 0
405 1 0.245114 0.432454 0
407 1 0.269089 0.428603 0
406 1 0.260748 0.45235 0
408 1 0.286279 0.446698 0
409 1 0.293888 0.422858 0
410 1 0.311499 0.439971 0
380 1 0.319134 0.416667 0
411 1 0.336182 0.434347 0
382 1 0.344074 0.410211 0
412 1 0.35337 0.45213 0
413 1 0.361476 0.428483 0
384 1 0.386797 0.424454 0
414 1 0.378944 0.4471 0
415 1 0.404007 0.441664 0
386 1 0.411124 0.418305 0
388 1 0.439041 0.413111 0
417 1 0.428158 0.435486 0
418 1 0.449424 0.448177 0
1261 1 0.48322 0.417917 0
390 1 0.47814 0.442434 0
419 1 0.459658 0.425772 0
422 1 0.0116522 0.468712 0
423 1 0.035244 0.472815 0
424 1 0.0459256 0.494243 0
453 1 0.0212528 0.497896 0
394 1 0.0526588 0.456093 0
396 1 0.0783239 0.460682 0
425 1 0.0656226 0.480814 0
426 1 0.0854957 0.495068 0
427 1 0.0987529 0.475048 0
428 1 0.120152 0.489764 0
429 1 0.130614 0.46781 0
400 1 0.152602 0.457523 0
430 1 0.146503 0.490558 0
431 1 0.166706 0.476314 0
461 1 0.172393 0.499535 0
432 1 0.190264 0.481076 0
433 1 0.204461 0.461293 0
434 1 0.214063 0.484566 0
465 1 0.2386 0.492791 0
435 1 0.23481 0.4677 0
436 1 0.25695 0.478087 0
467 1 0.272989 0.496539 0
437 1 0.279813 0.470425 0
438 1 0.296821 0.488954 0
439 1 0.303866 0.464189 0
471 1 0.338697 0.498818 0
440 1 0.320864 0.482357 0
441 1 0.32813 0.457733 0
442 1 0.346099 0.475129 0
443 1 0.370418 0.469977 0
445 1 0.396461 0.464659 0
444 1 0.387832 0.487418 0
473 1 0.363394 0.493188 0
416 1 0.421934 0.460089 0
446 1 0.422557 0.484943 0
447 1 0.444969 0.472405 0
448 1 0.444126 0.497866 0
1321 1 0.494062 0.463205 0
449 1 0.465673 0.487796 0
450 1 0.489153 0.487826 0
420 1 0.467926 0.463977 0
452 1 0.0170745 0.523517 0
483 1 0.0350682 0.541889 0
454 1 0.0400374 0.516563 0
485 1 0.0589285 0.532149 0
455 1 0.0649777 0.508832 0
456 1 0.0849371 0.524529 0
458 1 0.114946 0.530791 0
459 1 0.130976 0.511192 0
457 1 0.105641 0.509122 0
489 1 0.138894 0.535438 0
460 1 0.154864 0.516608 0
491 1 0.163625 0.54081 0
462 1 0.179905 0.522687 0
463 1 0.197047 0.504127 0
493 1 0.204369 0.528433 0
464 1 0.2209 0.509883 0
466 1 0.244359 0.516754 0
495 1 0.22817 0.535409 0
496 1 0.253856 0.540918 0
497 1 0.268182 0.5204 0
468 1 0.291778 0.513572 0
499 1 0.308228 0.532764 0
498 1 0.284311 0.538353 0
469 1 0.314911 0.506518 0
470 1 0.33152 0.524598 0
472 1 0.354916 0.516718 0
501 1 0.348319 0.542186 0
503 1 0.371965 0.532681 0
474 1 0.38174 0.510869 0
505 1 0.391828 0.544614 0
475 1 0.405766 0.503919 0
476 1 0.409403 0.529199 0
507 1 0.434034 0.538999 0
477 1 0.428111 0.514628 0
478 1 0.452366 0.522038 0
480 1 0.473433 0.534294 0
479 1 0.476149 0.509925 0
1381 1 0.496848 0.525482 0
482 1 0.00998735 0.550506 0
513 1 0.0306167 0.566243 0
512 1 0.0325813 0.592149 0
486 1 0.0773671 0.547997 0
484 1 0.0545742 0.55653 0
514 1 0.0541727 0.580206 0
515 1 0.0765784 0.571309 0
487 1 0.100628 0.550399 0
516 1 0.0900792 0.59092 0
488 1 0.12377 0.554698 0
517 1 0.106947 0.573653 0
519 1 0.131016 0.578303 0
490 1 0.146797 0.558728 0
520 1 0.1537 0.582636 0
521 1 0.170318 0.564544 0
522 1 0.176511 0.587838 0
492 1 0.187447 0.546352 0
523 1 0.193877 0.570009 0
494 1 0.211467 0.553158 0
524 1 0.217504 0.576653 0
525 1 0.236285 0.559188 0
526 1 0.255525 0.575093 0
555 1 0.237321 0.59057 0
527 1 0.272468 0.559246 0
529 1 0.297569 0.560486 0
528 1 0.279691 0.583636 0
500 1 0.324702 0.5538 0
530 1 0.324298 0.578557 0
531 1 0.34684 0.56708 0
532 1 0.347642 0.591175 0
502 1 0.369622 0.556385 0
533 1 0.369571 0.580266 0
504 1 0.391688 0.568177 0
535 1 0.413814 0.579164 0
506 1 0.414133 0.554921 0
508 1 0.436153 0.565577 0
537 1 0.435449 0.59014 0
509 1 0.455833 0.551521 0
510 1 0.492045 0.548941 0
539 1 0.45653 0.577045 0
540 1 0.479349 0.568788 0
541 1 0.00801719 0.59147 0
542 1 0.0210744 0.61293 0
571 1 0.00870843 0.633126 0
544 1 0.0339514 0.634284 0
545 1 0.0678245 0.600897 0
543 1 0.0465527 0.612551 0
546 1 0.0744084 0.625863 0
518 1 0.115259 0.596742 0
547 1 0.0968119 0.614077 0
548 1 0.122239 0.620312 0
549 1 0.139897 0.603184 0
550 1 0.147501 0.627378 0
551 1 0.165158 0.610022 0
581 1 0.172919 0.634027 0
553 1 0.199185 0.593524 0
552 1 0.194627 0.61819 0
554 1 0.219135 0.60609 0
583 1 0.220028 0.629891 0
556 1 0.24104 0.615108 0
557 1 0.260117 0.599302 0
587 1 0.263613 0.624302 0
559 1 0.303511 0.592462 0
558 1 0.282356 0.608798 0
560 1 0.305952 0.617421 0
589 1 0.28583 0.633346 0
561 1 0.326187 0.603457 0
562 1 0.348508 0.61517 0
591 1 0.328314 0.62847 0
534 1 0.391991 0.592083 0
563 1 0.369915 0.604372 0
564 1 0.370037 0.628288 0
565 1 0.391444 0.616004 0
536 1 0.414152 0.603322 0
566 1 0.412858 0.627633 0
567 1 0.435077 0.616 0
538 1 0.45517 0.602711 0
568 1 0.46314 0.624903 0
569 1 0.475441 0.592045 0
570 1 0.487253 0.614824 0
1441 1 0.49899 0.592201 0
573 1 0.0207992 0.653413 0
603 1 0.0186904 0.678328 0
574 1 0.0416507 0.662345 0
575 1 0.0571741 0.643447 0
605 1 0.0656969 0.668216 0
576 1 0.0820564 0.649378 0
607 1 0.089419 0.67676 0
577 1 0.104108 0.637097 0
578 1 0.108732 0.660993 0
579 1 0.12776 0.644146 0
609 1 0.132878 0.668599 0
580 1 0.151911 0.65219 0
611 1 0.175694 0.659023 0
610 1 0.157211 0.675693 0
582 1 0.197794 0.643054 0
584 1 0.222014 0.653802 0
613 1 0.20088 0.667309 0
614 1 0.22413 0.677956 0
585 1 0.243555 0.63922 0
586 1 0.266552 0.64903 0
615 1 0.246199 0.663984 0
617 1 0.268 0.673985 0
588 1 0.288278 0.658455 0
590 1 0.30827 0.643123 0
619 1 0.311967 0.671781 0
593 1 0.349853 0.640463 0
621 1 0.329288 0.653368 0
592 1 0.350003 0.666352 0
595 1 0.391516 0.640598 0
594 1 0.371099 0.655143 0
625 1 0.392929 0.666306 0
623 1 0.370776 0.680103 0
597 1 0.434152 0.639996 0
596 1 0.413277 0.652297 0
598 1 0.438319 0.665744 0
627 1 0.416261 0.676075 0
599 1 0.456013 0.647891 0
600 1 0.479351 0.642533 0
629 1 0.470924 0.666419 0
1501 1 0.495381 0.661359 0
602 1 0.00547044 0.699698 0
633 1 0.0291523 0.701293 0
634 1 0.0313991 0.724836 0
604 1 0.0474202 0.685059 0
606 1 0.0708155 0.69289 0
635 1 0.0514803 0.709338 0
636 1 0.0749398 0.717546 0
608 1 0.113176 0.684898 0
637 1 0.0942195 0.700911 0
638 1 0.117563 0.708829 0
667 1 0.0982264 0.726274 0
639 1 0.137364 0.692645 0
641 1 0.161255 0.699546 0
640 1 0.141287 0.715889 0
671 1 0.165573 0.724115 0
612 1 0.180938 0.683319 0
643 1 0.20427 0.692682 0
642 1 0.184276 0.708085 0
644 1 0.207761 0.716904 0
645 1 0.227553 0.702332 0
616 1 0.247189 0.688293 0
647 1 0.269345 0.69809 0
646 1 0.250127 0.713553 0
618 1 0.291183 0.684115 0
648 1 0.274034 0.725746 0
620 1 0.312967 0.697304 0
649 1 0.291443 0.70856 0
650 1 0.31095 0.722394 0
622 1 0.335491 0.686197 0
651 1 0.333537 0.713246 0
653 1 0.356639 0.704714 0
624 1 0.381409 0.702269 0
655 1 0.398656 0.720674 0
654 1 0.374289 0.725626 0
626 1 0.406081 0.698302 0
657 1 0.432123 0.693599 0
656 1 0.423271 0.716151 0
658 1 0.448679 0.710044 0
630 1 0.487515 0.685177 0
628 1 0.455817 0.685932 0
659 1 0.472915 0.705133 0
660 1 0.489872 0.723178 0
662 1 0.00413951 0.763981 0
663 1 0.0123699 0.74107 0
664 1 0.0365224 0.7486 0
694 1 0.0408455 0.771816 0
665 1 0.0566654 0.734248 0
666 1 0.0801261 0.74255 0
695 1 0.0614026 0.75931 0
697 1 0.0843576 0.76714 0
669 1 0.121771 0.732246 0
668 1 0.103982 0.750879 0
699 1 0.128021 0.755452 0
670 1 0.146457 0.739782 0
701 1 0.150682 0.76543 0
672 1 0.169392 0.748912 0
673 1 0.188996 0.732603 0
674 1 0.212219 0.742473 0
703 1 0.191977 0.756346 0
705 1 0.220891 0.765994 0
675 1 0.230725 0.727258 0
677 1 0.253383 0.737911 0
676 1 0.245373 0.760162 0
679 1 0.300037 0.745112 0
678 1 0.2739 0.751933 0
680 1 0.317864 0.763827 0
709 1 0.293631 0.768866 0
652 1 0.350274 0.732722 0
681 1 0.325945 0.74077 0
682 1 0.344653 0.757359 0
683 1 0.368366 0.750924 0
684 1 0.385452 0.769051 0
685 1 0.391352 0.744978 0
715 1 0.409516 0.762719 0
686 1 0.415808 0.739935 0
687 1 0.440991 0.733395 0
717 1 0.434081 0.755986 0
689 1 0.465657 0.728123 0
1591 1 0.49848 0.766585 0
688 1 0.458111 0.751163 0
690 1 0.482042 0.747271 0
719 1 0.473867 0.771024 0
693 1 0.0195369 0.783177 0
692 1 0.016241 0.808033 0
723 1 0.0399332 0.796675 0
696 1 0.0631217 0.783784 0
725 1 0.0625775 0.807489 0
727 1 0.0856482 0.791814 0
698 1 0.105953 0.779864 0
728 1 0.105828 0.807203 0
700 1 0.13018 0.778859 0
729 1 0.129565 0.802393 0
731 1 0.152323 0.790921 0
732 1 0.172415 0.806124 0
702 1 0.174008 0.775939 0
730 1 0.15 0.815843 0
704 1 0.199682 0.778153 0
733 1 0.195906 0.800868 0
735 1 0.219464 0.791475 0
734 1 0.215402 0.815477 0
707 1 0.267404 0.775971 0
706 1 0.242677 0.783863 0
736 1 0.238113 0.807465 0
737 1 0.261926 0.800764 0
708 1 0.285776 0.792198 0
710 1 0.310208 0.787082 0
739 1 0.304004 0.811412 0
738 1 0.280646 0.816201 0
713 1 0.360898 0.775155 0
711 1 0.33551 0.781106 0
712 1 0.353354 0.798482 0
741 1 0.327923 0.804762 0
714 1 0.402555 0.786147 0
743 1 0.37899 0.797552 0
745 1 0.406654 0.810017 0
718 1 0.449931 0.775139 0
716 1 0.425786 0.780911 0
746 1 0.430574 0.818016 0
747 1 0.44705 0.800454 0
1621 1 0.497342 0.814891 0
720 1 0.487663 0.791843 0
749 1 0.4719 0.810066 0
722 1 0.0398132 0.820175 0
751 1 0.0188515 0.832616 0
752 1 0.0187644 0.857182 0
753 1 0.0407422 0.845285 0
726 1 0.0838399 0.818847 0
724 1 0.0624178 0.832152 0
755 1 0.0830955 0.844175 0
754 1 0.0622072 0.857379 0
756 1 0.103381 0.856306 0
757 1 0.104353 0.831873 0
759 1 0.127868 0.826783 0
758 1 0.126814 0.851964 0
760 1 0.148426 0.841283 0
761 1 0.169627 0.831488 0
791 1 0.166439 0.857954 0
763 1 0.192038 0.823899 0
762 1 0.187853 0.847273 0
764 1 0.210573 0.8391 0
795 1 0.22894 0.855563 0
767 1 0.257204 0.824398 0
765 1 0.234276 0.831749 0
766 1 0.252024 0.848364 0
768 1 0.275498 0.841234 0
769 1 0.299518 0.835178 0
799 1 0.294485 0.858786 0
770 1 0.319016 0.854189 0
742 1 0.364252 0.819523 0
740 1 0.323013 0.828391 0
771 1 0.345457 0.836001 0
772 1 0.351828 0.859899 0
744 1 0.388533 0.826914 0
773 1 0.369973 0.843085 0
774 1 0.393856 0.850503 0
775 1 0.412393 0.834521 0
748 1 0.454205 0.82632 0
777 1 0.435714 0.84243 0
776 1 0.418517 0.859298 0
750 1 0.480067 0.832946 0
779 1 0.461689 0.849725 0
780 1 0.485474 0.856056 0
783 1 0.0408601 0.869182 0
782 1 0.0180058 0.881713 0
813 1 0.0421073 0.894335 0
812 1 0.0216605 0.907629 0
785 1 0.0833244 0.869833 0
784 1 0.063514 0.882941 0
815 1 0.0662814 0.907817 0
786 1 0.0861029 0.894502 0
787 1 0.106265 0.88029 0
788 1 0.129554 0.888331 0
817 1 0.109863 0.904041 0
789 1 0.145843 0.870054 0
790 1 0.153045 0.89644 0
821 1 0.176269 0.906551 0
792 1 0.172437 0.881999 0
793 1 0.205488 0.863445 0
823 1 0.19649 0.889329 0
794 1 0.223086 0.879422 0
824 1 0.216708 0.902475 0
797 1 0.270438 0.864895 0
796 1 0.246784 0.872526 0
825 1 0.240185 0.896626 0
827 1 0.263637 0.889836 0
798 1 0.286989 0.883988 0
800 1 0.310037 0.878314 0
829 1 0.304207 0.903985 0
828 1 0.280528 0.908777 0
801 1 0.33355 0.875054 0
831 1 0.328142 0.899044 0
802 1 0.355419 0.888763 0
803 1 0.375033 0.868046 0
805 1 0.398772 0.873978 0
804 1 0.382128 0.891592 0
806 1 0.406325 0.897223 0
778 1 0.443929 0.865868 0
807 1 0.42563 0.882725 0
808 1 0.44957 0.891582 0
837 1 0.42953 0.907542 0
809 1 0.468573 0.873645 0
810 1 0.478827 0.89641 0
1681 1 0.494986 0.878161 0
841 1 0.000916314 0.922879 0
842 1 0.0116819 0.951993 0
843 1 0.0239996 0.931641 0
814 1 0.0447842 0.919638 0
816 1 0.0894493 0.919071 0
844 1 0.0459129 0.944082 0
845 1 0.0679512 0.932829 0
847 1 0.0945627 0.942953 0
819 1 0.133603 0.912444 0
818 1 0.113913 0.927208 0
848 1 0.117565 0.952014 0
849 1 0.137428 0.937661 0
820 1 0.156943 0.921475 0
850 1 0.160173 0.947315 0
851 1 0.179071 0.931961 0
822 1 0.197386 0.916413 0
853 1 0.202117 0.940456 0
854 1 0.225363 0.948245 0
855 1 0.230365 0.922509 0
826 1 0.255913 0.914789 0
856 1 0.249107 0.938664 0
857 1 0.273185 0.932334 0
858 1 0.29063 0.951521 0
859 1 0.297355 0.927849 0
860 1 0.314188 0.947298 0
830 1 0.320855 0.923 0
832 1 0.344614 0.916486 0
861 1 0.336849 0.941399 0
863 1 0.360215 0.935107 0
833 1 0.367882 0.910546 0
835 1 0.406573 0.920714 0
834 1 0.383549 0.928246 0
864 1 0.376274 0.953197 0
865 1 0.399607 0.945966 0
838 1 0.44305 0.928085 0
836 1 0.422203 0.938722 0
867 1 0.44327 0.952208 0
839 1 0.460437 0.912487 0
1741 1 0.493781 0.942725 0
840 1 0.484253 0.919991 0
869 1 0.466991 0.938198 0
872 1 0.0227605 0.993304 0
873 1 0.0292407 0.969321 0
871 1 0.00570398 0.976188 0
874 1 0.0472397 0.98986 0
846 1 0.074615 0.957068 0
875 1 0.0526128 0.966972 0
876 1 0.0729631 0.981678 0
877 1 0.096999 0.969015 0
878 1 0.120519 0.977535 0
879 1 0.140907 0.962414 0
880 1 0.144926 0.986736 0
881 1 0.164409 0.971847 0
11 1 0.168195 0.996867 0
852 1 0.183894 0.956052 0
882 1 0.187073 0.981676 0
883 1 0.206186 0.965459 0
13 1 0.209148 0.993191 0
884 1 0.227618 0.978651 0
885 1 0.244787 0.962843 0
886 1 0.251655 0.987672 0
887 1 0.267079 0.955863 0
17 1 0.274206 0.999144 0
888 1 0.2814 0.975981 0
889 1 0.305311 0.972347 0
19 1 0.298819 0.99667 0
862 1 0.352849 0.959697 0
890 1 0.323567 0.99179 0
891 1 0.329038 0.967322 0
892 1 0.347109 0.984654 0
893 1 0.370403 0.977303 0
895 1 0.394042 0.970153 0
894 1 0.387876 0.994045 0
896 1 0.411778 0.987618 0
866 1 0.417559 0.962251 0
897 1 0.434699 0.979159 0
899 1 0.478617 0.985731 0
898 1 0.453782 0.996133 0
868 1 0.457443 0.971543 0
870 1 0.477987 0.960563 0
902 1 0.541151 0.0180038 0
931 1 0.515771 0.038668 0
901 1 0.516698 0.0139627 0
933 1 0.544903 0.0416113 0
904 1 0.564993 0.0235329 0
935 1 0.588533 0.0292959 0
906 1 0.582072 0.00524185 0
905 1 0.557963 0.000442863 0
908 1 0.606131 0.0112041 0
937 1 0.61241 0.0350674 0
939 1 0.629917 0.0177281 0
938 1 0.636909 0.0406897 0
941 1 0.655051 0.0203744 0
912 1 0.677684 0.00536396 0
942 1 0.681968 0.0292027 0
940 1 0.66114 0.0429836 0
943 1 0.705284 0.0196356 0
944 1 0.704468 0.045166 0
945 1 0.727074 0.0359638 0
914 1 0.729355 0.0113915 0
916 1 0.751716 0.0024082 0
947 1 0.749841 0.0276814 0
918 1 0.772233 0.0196363 0
948 1 0.769068 0.0445952 0
919 1 0.794757 0.0117813 0
949 1 0.791564 0.0368528 0
920 1 0.814305 0.0288398 0
1790 1 0.817734 0.00474387 0
951 1 0.833239 0.0443618 0
922 1 0.845615 0.0236626 0
921 1 0.840755 -0.000258061 0
923 1 0.863716 0.00644058 0
953 1 0.867667 0.0358491 0
924 1 0.885232 0.0174224 0
925 1 0.907544 0.00279023 0
955 1 0.906066 0.0300952 0
926 1 0.927031 0.01766 0
928 1 0.950883 0.0115423 0
957 1 0.94349 0.0356974 0
930 1 0.990817 0.0228966 0
959 1 0.967299 0.0295465 0
929 1 0.974502 0.0052075 0
932 1 0.528462 0.059934 0
962 1 0.535444 0.0841013 0
961 1 0.512305 0.0783401 0
963 1 0.552298 0.0652043 0
934 1 0.569076 0.0472678 0
965 1 0.576533 0.0715314 0
964 1 0.55932 0.0888483 0
936 1 0.593079 0.0530836 0
966 1 0.599866 0.0769528 0
967 1 0.615736 0.0586474 0
968 1 0.622902 0.0837178 0
969 1 0.637867 0.0654495 0
970 1 0.660614 0.0670006 0
971 1 0.68206 0.053898 0
972 1 0.680503 0.0781942 0
999 1 0.64858 0.0890526 0
973 1 0.702004 0.0684474 0
975 1 0.724027 0.0605433 0
974 1 0.720418 0.085461 0
946 1 0.746599 0.0524272 0
976 1 0.743044 0.0768848 0
977 1 0.766095 0.0685493 0
950 1 0.811367 0.0537761 0
979 1 0.788512 0.0613162 0
980 1 0.809145 0.0779714 0
978 1 0.785537 0.0855653 0
981 1 0.832609 0.0700955 0
952 1 0.853095 0.0570954 0
982 1 0.855668 0.0844442 0
954 1 0.888669 0.0486392 0
983 1 0.874613 0.0676548 0
985 1 0.898172 0.0721747 0
984 1 0.881522 0.0905535 0
986 1 0.921865 0.07877 0
956 1 0.914112 0.053179 0
987 1 0.937526 0.0599053 0
988 1 0.945767 0.0843354 0
960 1 0.983999 0.0469866 0
958 1 0.960293 0.0535651 0
989 1 0.977599 0.0702256 0
990 1 0.993607 0.0884604 0
120 1 0.502552 0.119638 0
991 1 0.519371 0.102015 0
992 1 0.527528 0.125772 0
993 1 0.544317 0.107946 0
1023 1 0.551332 0.131501 0
994 1 0.568282 0.114758 0
995 1 0.583072 0.0956053 0
996 1 0.592662 0.121357 0
997 1 0.606423 0.10168 0
998 1 0.629251 0.107563 0
1027 1 0.61661 0.127602 0
1000 1 0.651276 0.113699 0
1001 1 0.672171 0.100305 0
1031 1 0.671466 0.124888 0
1029 1 0.640731 0.1356 0
1002 1 0.693273 0.117618 0
1003 1 0.697659 0.0943613 0
1004 1 0.716085 0.109933 0
1033 1 0.710172 0.13393 0
1005 1 0.739247 0.101025 0
1006 1 0.756991 0.117822 0
1007 1 0.761854 0.0933912 0
1035 1 0.733787 0.126064 0
1037 1 0.774802 0.134778 0
1008 1 0.779831 0.109883 0
1009 1 0.804079 0.101973 0
1039 1 0.797672 0.126965 0
1010 1 0.820827 0.120337 0
1011 1 0.827481 0.0951448 0
1012 1 0.84343 0.115221 0
1043 1 0.86302 0.132967 0
1013 1 0.865568 0.108279 0
1014 1 0.888144 0.114215 0
1015 1 0.904819 0.0961045 0
1016 1 0.911987 0.120011 0
1017 1 0.928333 0.102386 0
1018 1 0.951696 0.108798 0
1047 1 0.93442 0.127594 0
1019 1 0.969476 0.0927995 0
1020 1 0.985829 0.112259 0
1049 1 0.957747 0.131913 0
1022 1 0.533302 0.149118 0
1053 1 0.540307 0.172697 0
1051 1 0.516114 0.166829 0
1021 1 0.509319 0.143054 0
1024 1 0.556851 0.155206 0
1025 1 0.57534 0.138385 0
1055 1 0.581305 0.162804 0
1054 1 0.563798 0.179762 0
1026 1 0.598843 0.145884 0
1028 1 0.622425 0.15229 0
1057 1 0.605245 0.170109 0
1058 1 0.628133 0.179175 0
1059 1 0.644648 0.162266 0
1030 1 0.662493 0.147012 0
1061 1 0.671084 0.170365 0
1032 1 0.686886 0.142599 0
1063 1 0.705263 0.157659 0
1064 1 0.720706 0.17598 0
1062 1 0.694625 0.178828 0
1034 1 0.727624 0.150216 0
1036 1 0.751106 0.142364 0
1065 1 0.745552 0.165894 0
1067 1 0.769047 0.158552 0
1038 1 0.791968 0.151245 0
1040 1 0.814978 0.14445 0
1069 1 0.809397 0.16864 0
1068 1 0.786542 0.17533 0
1041 1 0.83878 0.138601 0
1071 1 0.832364 0.162858 0
1042 1 0.855734 0.157645 0
1072 1 0.850038 0.181458 0
1045 1 0.895856 0.137359 0
1044 1 0.878971 0.153151 0
1075 1 0.89996 0.16674 0
1073 1 0.873874 0.176502 0
1046 1 0.918009 0.146919 0
1048 1 0.942288 0.151391 0
1077 1 0.926344 0.16952 0
1078 1 0.950123 0.174896 0
1050 1 0.980896 0.136849 0
1079 1 0.96545 0.155724 0
1080 1 0.97996 0.174236 0
151 1 0.996023 0.155088 0
1052 1 0.52139 0.191258 0
1083 1 0.5454 0.196946 0
1082 1 0.527667 0.214754 0
1081 1 0.503829 0.20808 0
1084 1 0.551126 0.220793 0
1056 1 0.587382 0.187988 0
1085 1 0.569033 0.203402 0
1086 1 0.593075 0.21198 0
1087 1 0.610861 0.195882 0
1088 1 0.617389 0.220245 0
1089 1 0.635771 0.202932 0
1060 1 0.652953 0.186847 0
1091 1 0.676968 0.195284 0
1090 1 0.658885 0.211563 0
1093 1 0.701128 0.201765 0
1092 1 0.682963 0.218671 0
1094 1 0.724531 0.208362 0
1123 1 0.706922 0.225379 0
1066 1 0.76307 0.182756 0
1095 1 0.74018 0.190118 0
1096 1 0.748393 0.214738 0
1127 1 0.771966 0.223276 0
1097 1 0.77934 0.200443 0
1099 1 0.802387 0.1933 0
1098 1 0.795385 0.217868 0
1100 1 0.818968 0.210545 0
1070 1 0.825912 0.186932 0
1101 1 0.842654 0.204486 0
1102 1 0.859532 0.223041 0
1103 1 0.866335 0.200073 0
1074 1 0.88951 0.194572 0
1105 1 0.907838 0.211744 0
1104 1 0.883134 0.217936 0
1076 1 0.912445 0.188476 0
1107 1 0.936077 0.197352 0
1108 1 0.948559 0.21975 0
1109 1 0.961768 0.196573 0
1110 1 0.972956 0.218238 0
181 1 0.986091 0.196856 0
211 1 0.997298 0.217624 0
1111 1 0.508999 0.232063 0
1113 1 0.533605 0.238942 0
1112 1 0.516237 0.255695 0
1143 1 0.539914 0.263415 0
1114 1 0.557167 0.245014 0
1115 1 0.574762 0.227871 0
1116 1 0.580342 0.253546 0
1145 1 0.56248 0.270333 0
1117 1 0.597991 0.236578 0
1118 1 0.622308 0.244035 0
1147 1 0.603882 0.261609 0
1149 1 0.628318 0.2679 0
1119 1 0.640814 0.227233 0
1121 1 0.664984 0.234882 0
1120 1 0.64655 0.251162 0
1151 1 0.670618 0.259265 0
1122 1 0.688309 0.242287 0
1124 1 0.711923 0.249048 0
1153 1 0.694093 0.266209 0
1125 1 0.730553 0.231784 0
1126 1 0.753994 0.239174 0
1155 1 0.736251 0.256183 0
1157 1 0.761052 0.262755 0
1128 1 0.78085 0.245591 0
1129 1 0.811676 0.234625 0
1159 1 0.805987 0.258056 0
1158 1 0.784893 0.270379 0
1131 1 0.835572 0.227896 0
1130 1 0.829007 0.251574 0
1132 1 0.852344 0.246837 0
1133 1 0.875888 0.241155 0
1135 1 0.900514 0.235256 0
1163 1 0.867366 0.265366 0
1134 1 0.8918 0.259125 0
1106 1 0.924233 0.229787 0
1136 1 0.916032 0.253585 0
1137 1 0.939724 0.248484 0