ITEM: TIMESTEP
52000
ITEM: NUMBER OF ATOMS
1800
ITEM: BOX BOUNDS pp pp pp
8.9778135909868695e-01 1.6410221864090602e+02
8.9778135909868695e-01 1.6410221864090602e+02
0.0000000000000000e+00 5.5000000000000000e+00
ITEM: ATOMS id type xs ys zs
2 1 0.0131684 0.0147789 0
3 1 0.0369504 0.00883556 0
33 1 0.0306755 0.0328115 0
31 1 0.00746682 0.0398997 0
4 1 0.0549528 0.0259042 0
6 1 0.0785736 0.0193154 0
35 1 0.0716773 0.0443061 0
5 1 0.0602413 0.00112482 0
8 1 0.102178 0.0132182 0
37 1 0.0953052 0.0376738 0
9 1 0.126363 0.00860555 0
39 1 0.119138 0.0310838 0
10 1 0.146935 0.0210074 0
40 1 0.158604 0.0419064 0
12 1 0.173626 0.00967608 0
41 1 0.180524 0.0331019 0
14 1 0.202875 0.0236446 0
15 1 0.221654 0.00883921 0
45 1 0.224924 0.0399565 0
16 1 0.255774 0.0112257 0
46 1 0.248743 0.0350042 0
47 1 0.27277 0.0287125 0
18 1 0.280774 0.005761 0
49 1 0.298452 0.0241962 0
50 1 0.315482 0.0411982 0
20 1 0.321712 0.0176372 0
51 1 0.339374 0.0354347 0
21 1 0.347147 0.012602 0
22 1 0.363622 0.0307808 0
24 1 0.388395 0.0244725 0
23 1 0.371806 0.00695589 0
55 1 0.406981 0.0458525 0
894 1 0.394759 0.000982714 0
25 1 0.413391 0.0212854 0
26 1 0.431137 0.0401446 0
27 1 0.450663 0.0243022 0
897 1 0.443175 0.00179021 0
29 1 0.475512 0.0282711 0
900 1 0.492937 0.0110652 0
898 1 0.468107 0.00582113 0
61 1 0.000384296 0.0640951 0
32 1 0.023779 0.0576045 0
62 1 0.0183491 0.0816446 0
63 1 0.0416478 0.0752281 0
34 1 0.0485672 0.0502661 0
65 1 0.0654388 0.0684602 0
66 1 0.0831314 0.0858871 0
36 1 0.0885221 0.0615876 0
38 1 0.112724 0.0549726 0
67 1 0.106763 0.0785143 0
68 1 0.130548 0.0725228 0
69 1 0.136374 0.0486008 0
71 1 0.154333 0.0657746 0
42 1 0.17874 0.0577052 0
72 1 0.172686 0.0820008 0
70 1 0.150135 0.0902273 0
43 1 0.201136 0.0481995 0
44 1 0.219408 0.0644889 0
73 1 0.196716 0.0741573 0
74 1 0.23437 0.0848904 0
75 1 0.242734 0.0587367 0
77 1 0.266614 0.0537951 0
76 1 0.259126 0.078046 0
48 1 0.290555 0.0480268 0
79 1 0.308018 0.067495 0
78 1 0.283798 0.0718083 0
81 1 0.331932 0.0599486 0
52 1 0.356749 0.053832 0
82 1 0.349079 0.0789079 0
80 1 0.325579 0.0841161 0
53 1 0.382223 0.0481995 0
83 1 0.373317 0.0717463 0
54 1 0.397805 0.0711083 0
57 1 0.441532 0.0630354 0
56 1 0.424064 0.0798777 0
87 1 0.448724 0.0873639 0
28 1 0.459689 0.0465812 0
59 1 0.483338 0.0515702 0
58 1 0.46629 0.0697367 0
89 1 0.491165 0.0756401 0
92 1 0.0296566 0.124011 0
93 1 0.0354969 0.0994163 0
91 1 0.0117111 0.105778 0
121 1 0.00497835 0.129845 0
64 1 0.0589059 0.0928075 0
94 1 0.0528813 0.116509 0
95 1 0.0764994 0.110141 0
125 1 0.0695938 0.134114 0
96 1 0.0938935 0.1263 0
97 1 0.100866 0.102227 0
98 1 0.117765 0.118729 0
99 1 0.124945 0.0958651 0
100 1 0.142967 0.11306 0
101 1 0.168458 0.106686 0
130 1 0.160306 0.13035 0
103 1 0.192121 0.0979706 0
102 1 0.199272 0.121934 0
104 1 0.222939 0.127414 0
105 1 0.21648 0.102934 0
106 1 0.242558 0.108894 0
137 1 0.266271 0.119017 0
135 1 0.247327 0.135861 0
109 1 0.301217 0.0905661 0
107 1 0.276982 0.0959477 0
108 1 0.292813 0.115855 0
139 1 0.310465 0.134667 0
110 1 0.317394 0.109366 0
111 1 0.342127 0.102826 0
141 1 0.351602 0.127284 0
84 1 0.385634 0.0925585 0
113 1 0.368478 0.108853 0
112 1 0.391858 0.116562 0
143 1 0.374699 0.133944 0
85 1 0.409004 0.0989617 0
115 1 0.415625 0.122675 0
86 1 0.432032 0.104292 0
116 1 0.439775 0.128593 0
88 1 0.474301 0.0929512 0
117 1 0.456505 0.111069 0
119 1 0.481221 0.117608 0
118 1 0.462998 0.135242 0
90 1 0.498624 0.0995475 0
122 1 0.0230397 0.148048 0
153 1 0.0404671 0.16511 0
152 1 0.0171695 0.172836 0
123 1 0.0463299 0.141069 0
124 1 0.0640965 0.158635 0
126 1 0.088793 0.150557 0
155 1 0.0825748 0.175063 0
127 1 0.111714 0.143104 0
128 1 0.128645 0.159791 0
157 1 0.106545 0.16844 0
129 1 0.13581 0.13631 0
159 1 0.163532 0.155226 0
161 1 0.169383 0.180575 0
160 1 0.147025 0.173995 0
131 1 0.182345 0.139325 0
132 1 0.186783 0.163551 0
133 1 0.205406 0.146136 0
163 1 0.210279 0.170391 0
134 1 0.229257 0.152516 0
164 1 0.233427 0.178279 0
136 1 0.270339 0.143755 0
165 1 0.251613 0.160672 0
167 1 0.274365 0.168428 0
138 1 0.293256 0.151667 0
169 1 0.315758 0.159167 0
168 1 0.29769 0.17549 0
140 1 0.333844 0.143191 0
142 1 0.358178 0.151247 0
171 1 0.339621 0.167293 0
172 1 0.36387 0.175164 0
114 1 0.398445 0.1411 0
144 1 0.404515 0.165199 0
173 1 0.381528 0.158098 0
145 1 0.422236 0.146594 0
146 1 0.429183 0.170862 0
147 1 0.445561 0.152034 0
177 1 0.4531 0.175546 0
149 1 0.488285 0.141324 0
148 1 0.471082 0.158884 0
150 1 0.496112 0.164986 0
183 1 0.0352164 0.189256 0
182 1 0.0305309 0.213425 0
181 1 0.0120471 0.197106 0
154 1 0.0590116 0.182224 0
184 1 0.0531377 0.20595 0
185 1 0.0769794 0.198953 0
215 1 0.0704239 0.222241 0
186 1 0.0947785 0.215992 0
156 1 0.101171 0.192071 0
158 1 0.125125 0.18554 0
187 1 0.1264 0.211777 0
189 1 0.14734 0.197992 0
191 1 0.171977 0.204238 0
190 1 0.153697 0.221028 0
162 1 0.192214 0.187739 0
193 1 0.214636 0.195203 0
192 1 0.196376 0.21231 0
194 1 0.21967 0.220537 0
195 1 0.23789 0.203398 0
166 1 0.256398 0.185926 0
196 1 0.261607 0.210198 0
225 1 0.243972 0.22728 0
197 1 0.280359 0.193232 0
199 1 0.30435 0.199684 0
198 1 0.28589 0.217025 0
229 1 0.310853 0.224923 0
170 1 0.321858 0.183325 0
201 1 0.345774 0.191674 0
200 1 0.328132 0.208028 0
202 1 0.35234 0.21542 0
174 1 0.387698 0.182454 0
203 1 0.370056 0.199339 0
233 1 0.376926 0.222846 0
204 1 0.394569 0.206769 0
175 1 0.412156 0.189381 0
205 1 0.419678 0.212996 0
176 1 0.436501 0.194077 0
207 1 0.443413 0.217891 0
179 1 0.477607 0.181872 0
178 1 0.460538 0.200322 0
208 1 0.467091 0.224242 0
209 1 0.484635 0.206435 0
213 1 0.0409457 0.235951 0
212 1 0.022618 0.255509 0
211 1 0.0157608 0.232037 0
243 1 0.0470037 0.262688 0
216 1 0.0885991 0.241797 0
214 1 0.0638235 0.245274 0
245 1 0.0712489 0.268835 0
217 1 0.111238 0.2327 0
218 1 0.115992 0.256288 0
188 1 0.134639 0.237869 0
219 1 0.140686 0.262814 0
221 1 0.177969 0.229212 0
220 1 0.158789 0.245816 0
251 1 0.165319 0.269591 0
222 1 0.183388 0.25339 0
223 1 0.201318 0.237947 0
224 1 0.225263 0.244662 0
253 1 0.206898 0.26205 0
227 1 0.267202 0.234398 0
226 1 0.248815 0.251448 0
255 1 0.23133 0.268466 0
257 1 0.273537 0.258777 0
228 1 0.292063 0.241064 0
230 1 0.316858 0.248124 0
259 1 0.298579 0.264551 0
260 1 0.322324 0.272308 0
231 1 0.335525 0.232273 0
232 1 0.358671 0.239652 0
261 1 0.340527 0.255893 0
235 1 0.401668 0.230575 0
263 1 0.364979 0.26347 0
234 1 0.383485 0.246818 0
265 1 0.408814 0.253878 0
264 1 0.389411 0.270244 0
206 1 0.426825 0.23586 0
237 1 0.450072 0.241857 0
236 1 0.433087 0.259841 0
238 1 0.45676 0.265994 0
210 1 0.491618 0.231107 0
239 1 0.4743 0.24839 0
240 1 0.49829 0.254277 0
269 1 0.480571 0.27286 0
242 1 0.0293037 0.279314 0
273 1 0.035813 0.302436 0
271 1 0.0106758 0.295705 0
241 1 0.00421021 0.273123 0
244 1 0.0541434 0.285681 0
246 1 0.078508 0.291724 0
275 1 0.0610391 0.308794 0
276 1 0.0853856 0.315586 0
247 1 0.0962076 0.273476 0
249 1 0.121503 0.280386 0
248 1 0.103294 0.297474 0
279 1 0.127769 0.304568 0
250 1 0.14614 0.287135 0
280 1 0.151706 0.311698 0
281 1 0.169942 0.294487 0
252 1 0.189065 0.278108 0
254 1 0.2137 0.285996 0
283 1 0.194768 0.302548 0
284 1 0.218946 0.310358 0
256 1 0.255599 0.275766 0
285 1 0.237445 0.292605 0
287 1 0.261379 0.300088 0
286 1 0.243772 0.317179 0
258 1 0.280256 0.282977 0
288 1 0.285587 0.306224 0
289 1 0.304357 0.289341 0
290 1 0.310146 0.312996 0
262 1 0.346741 0.279553 0
291 1 0.329288 0.295835 0
292 1 0.353533 0.303263 0
293 1 0.371924 0.286817 0
295 1 0.396767 0.295036 0
294 1 0.378051 0.311173 0
296 1 0.40206 0.319054 0
266 1 0.414423 0.277739 0
267 1 0.438365 0.284198 0
297 1 0.420514 0.301621 0
298 1 0.445298 0.308379 0
268 1 0.463063 0.289708 0
270 1 0.487219 0.296227 0
299 1 0.468891 0.313414 0
1200 1 0.0163947 0.320159 0
272 1 0.0428812 0.326218 0
301 1 0.0234334 0.344318 0
1230 1 0.00648801 0.362357 0
303 1 0.0482907 0.35038 0
274 1 0.0672722 0.33314 0
304 1 0.0728068 0.356334 0
305 1 0.091328 0.339658 0
277 1 0.108974 0.321515 0
306 1 0.097466 0.362889 0
278 1 0.133204 0.328203 0
307 1 0.115862 0.346308 0
282 1 0.17529 0.318533 0
309 1 0.14095 0.352643 0
311 1 0.157913 0.335176 0
310 1 0.164534 0.359986 0
312 1 0.181864 0.343533 0
313 1 0.200454 0.327419 0
314 1 0.206497 0.350771 0
315 1 0.225381 0.33394 0
345 1 0.230132 0.358263 0
317 1 0.26836 0.323841 0
316 1 0.249652 0.341374 0
318 1 0.274087 0.348113 0
319 1 0.292346 0.329536 0
349 1 0.297743 0.355036 0
320 1 0.316807 0.337147 0
351 1 0.323035 0.361843 0
321 1 0.33442 0.319803 0
323 1 0.358839 0.327709 0
322 1 0.340527 0.34468 0
324 1 0.365149 0.351525 0
325 1 0.382998 0.335773 0
355 1 0.390185 0.359133 0
326 1 0.409253 0.342891 0
327 1 0.427264 0.324826 0
328 1 0.432487 0.349458 0
329 1 0.45182 0.33283 0
359 1 0.457335 0.356343 0
300 1 0.493856 0.32055 0
1201 1 0.499309 0.344533 0
330 1 0.476059 0.337461 0
360 1 0.479953 0.362817 0
302 1 0.030125 0.368194 0
332 1 0.0380949 0.392378 0
331 1 0.014225 0.385685 0
333 1 0.0540373 0.374761 0
335 1 0.0803169 0.37963 0
334 1 0.0627094 0.397568 0
336 1 0.0866501 0.40381 0
308 1 0.122845 0.370332 0
337 1 0.105297 0.386715 0
338 1 0.128698 0.394767 0
339 1 0.147327 0.377101 0
341 1 0.1712 0.385042 0
340 1 0.1529 0.400798 0
371 1 0.176577 0.408899 0
343 1 0.188788 0.367584 0
342 1 0.194517 0.392097 0
344 1 0.211738 0.375189 0
373 1 0.217742 0.399275 0
347 1 0.25501 0.364652 0
346 1 0.235833 0.382071 0
377 1 0.259929 0.390044 0
375 1 0.24167 0.407422 0
348 1 0.278703 0.372805 0
350 1 0.30278 0.380074 0
378 1 0.28366 0.39703 0
379 1 0.309208 0.403208 0
381 1 0.327746 0.385552 0
353 1 0.346758 0.368633 0
352 1 0.351611 0.392117 0
382 1 0.333148 0.409727 0
354 1 0.371278 0.374852 0
385 1 0.376165 0.399322 0
356 1 0.395243 0.385154 0
386 1 0.401122 0.409202 0
387 1 0.419742 0.392516 0
357 1 0.41445 0.368063 0
358 1 0.438463 0.373568 0
388 1 0.444034 0.397954 0
389 1 0.46227 0.381481 0
1232 1 0.486793 0.385263 0
1262 1 0.492571 0.408134 0
361 1 0.0200607 0.410641 0
362 1 0.0274601 0.433482 0
392 1 0.0117694 0.451976 0
391 1 0.00248053 0.428601 0
363 1 0.0452419 0.415618 0
364 1 0.051699 0.440044 0
365 1 0.0700018 0.422049 0
395 1 0.0767154 0.446248 0
366 1 0.0937432 0.428707 0
367 1 0.11063 0.410951 0
368 1 0.117128 0.435293 0
397 1 0.0996905 0.452494 0
369 1 0.133844 0.41877 0
399 1 0.140004 0.44336 0
370 1 0.157691 0.425395 0
400 1 0.16329 0.449747 0
401 1 0.181797 0.433329 0
372 1 0.199321 0.416436 0
403 1 0.204662 0.44032 0
374 1 0.222925 0.42364 0
404 1 0.228599 0.449061 0
376 1 0.265266 0.414662 0
405 1 0.246845 0.432281 0
407 1 0.272585 0.43861 0
409 1 0.291387 0.420668 0
410 1 0.296616 0.446009 0
380 1 0.315139 0.426663 0
383 1 0.3574 0.41546 0
411 1 0.322246 0.448404 0
413 1 0.340932 0.433498 0
384 1 0.380195 0.42268 0
414 1 0.368421 0.446632 0
415 1 0.396037 0.439809 0
417 1 0.418085 0.428292 0
418 1 0.43652 0.444777 0
419 1 0.44281 0.421261 0
1261 1 0.466798 0.41078 0
390 1 0.461292 0.436823 0
1291 1 0.485381 0.431183 0
393 1 0.0361299 0.458456 0
422 1 0.0192311 0.475334 0
451 1 0.0035238 0.493542 0
423 1 0.0455097 0.482046 0
453 1 0.028227 0.498839 0
394 1 0.062296 0.465383 0
396 1 0.0867232 0.472334 0
425 1 0.0710598 0.490779 0
398 1 0.122312 0.459724 0
427 1 0.102751 0.493364 0
428 1 0.12556 0.483872 0
429 1 0.145575 0.467833 0
431 1 0.16936 0.47567 0
430 1 0.150948 0.492831 0
402 1 0.186055 0.458415 0
432 1 0.193896 0.484446 0
433 1 0.209503 0.465611 0
434 1 0.217773 0.492088 0
406 1 0.253443 0.455006 0
435 1 0.233262 0.47239 0
436 1 0.255642 0.479964 0
408 1 0.276721 0.464462 0
437 1 0.274088 0.493907 0
439 1 0.295066 0.480831 0
440 1 0.315535 0.495894 0
412 1 0.344701 0.458182 0
441 1 0.318806 0.471885 0
442 1 0.340216 0.482654 0
473 1 0.361271 0.495893 0
443 1 0.364745 0.471628 0
445 1 0.388561 0.4636 0
444 1 0.384919 0.488736 0
446 1 0.408695 0.478162 0
416 1 0.414596 0.454568 0
448 1 0.427679 0.494051 0
447 1 0.433716 0.469879 0
449 1 0.451602 0.48656 0
1322 1 0.499207 0.471327 0
1321 1 0.48046 0.455307 0
420 1 0.45628 0.461239 0
1351 1 0.493441 0.495099 0
450 1 0.474509 0.47853 0
452 1 0.0118936 0.517123 0
483 1 0.0199204 0.540001 0
454 1 0.0360289 0.521659 0
485 1 0.0462675 0.543356 0
455 1 0.0656091 0.527531 0
456 1 0.0913201 0.537974 0
426 1 0.0851153 0.511762 0
424 1 0.0530479 0.505988 0
459 1 0.131505 0.50743 0
457 1 0.111147 0.520747 0
489 1 0.135337 0.532397 0
460 1 0.156192 0.517393 0
462 1 0.179836 0.524498 0
491 1 0.159524 0.542042 0
461 1 0.175806 0.500368 0
493 1 0.20392 0.535056 0
464 1 0.223197 0.517657 0
463 1 0.199555 0.509598 0
495 1 0.227232 0.544905 0
466 1 0.247925 0.530383 0
467 1 0.270599 0.519072 0
497 1 0.2714 0.544428 0
465 1 0.244748 0.503369 0
468 1 0.293326 0.53279 0
499 1 0.316533 0.544086 0
438 1 0.294433 0.508005 0
469 1 0.315485 0.519308 0
470 1 0.336262 0.531465 0
472 1 0.357274 0.519545 0
503 1 0.357318 0.543383 0
471 1 0.33695 0.506802 0
474 1 0.381818 0.514853 0
475 1 0.404709 0.502312 0
476 1 0.400591 0.531445 0
477 1 0.422219 0.519047 0
478 1 0.445139 0.510696 0
507 1 0.423844 0.543758 0
480 1 0.461665 0.52777 0
479 1 0.469415 0.503678 0
1381 1 0.488496 0.519971 0
510 1 0.481529 0.543319 0
482 1 0.00376173 0.560453 0
513 1 0.0289821 0.56174 0
514 1 0.0343945 0.584367 0
486 1 0.0719437 0.552914 0
484 1 0.0530375 0.568332 0
515 1 0.0764782 0.577224 0
458 1 0.115275 0.545766 0
487 1 0.0957997 0.562539 0
488 1 0.119915 0.570643 0
517 1 0.0993991 0.587326 0
490 1 0.140498 0.556863 0
520 1 0.143396 0.582284 0
521 1 0.163737 0.565798 0
522 1 0.165922 0.590526 0
492 1 0.183079 0.549472 0
523 1 0.187135 0.574239 0
494 1 0.207791 0.560576 0
524 1 0.210156 0.586899 0
525 1 0.230023 0.571809 0
496 1 0.249589 0.557399 0
526 1 0.252349 0.583666 0
527 1 0.272805 0.569934 0
498 1 0.294182 0.557309 0
529 1 0.295015 0.582429 0
500 1 0.315834 0.568198 0
501 1 0.337577 0.556559 0
531 1 0.339523 0.579881 0
502 1 0.360378 0.56633 0
533 1 0.361499 0.590386 0
505 1 0.381248 0.549039 0
504 1 0.383486 0.57365 0
535 1 0.404749 0.583845 0
506 1 0.403671 0.558539 0
508 1 0.42661 0.569866 0
539 1 0.450194 0.580664 0
509 1 0.448122 0.554937 0
540 1 0.470009 0.565134 0
1411 1 0.499107 0.560427 0
1441 1 0.488728 0.581923 0
512 1 0.0124554 0.594752 0
542 1 0.0157915 0.620714 0
543 1 0.0379278 0.607916 0
544 1 0.0403643 0.631923 0
545 1 0.0576017 0.593505 0
546 1 0.0604826 0.617964 0
516 1 0.0795974 0.602474 0
547 1 0.0827555 0.627394 0
519 1 0.122966 0.595865 0
518 1 0.102213 0.612244 0
548 1 0.125526 0.621503 0
549 1 0.146811 0.606406 0
550 1 0.148096 0.631249 0
551 1 0.168491 0.617281 0
553 1 0.18887 0.60066 0
552 1 0.191627 0.625757 0
554 1 0.211476 0.61196 0
555 1 0.232414 0.597997 0
556 1 0.234117 0.623364 0
557 1 0.254648 0.60966 0
587 1 0.25634 0.63455 0
528 1 0.275146 0.596208 0
559 1 0.297262 0.606808 0
558 1 0.276683 0.621661 0
560 1 0.300025 0.633069 0
530 1 0.317669 0.592776 0
561 1 0.31983 0.618584 0
532 1 0.340986 0.604418 0
562 1 0.34285 0.629169 0
563 1 0.363489 0.61459 0
534 1 0.384857 0.59924 0
565 1 0.386769 0.624839 0
536 1 0.406777 0.60985 0
566 1 0.409292 0.635429 0
537 1 0.42662 0.595164 0
538 1 0.448524 0.60597 0
567 1 0.42882 0.620093 0
568 1 0.452121 0.630192 0
569 1 0.470314 0.596838 0
570 1 0.485926 0.616975 0
573 1 0.0196534 0.645938 0
603 1 0.0213788 0.671393 0
574 1 0.0416168 0.656947 0
575 1 0.0627648 0.642605 0
605 1 0.0642724 0.667184 0
576 1 0.0854683 0.652566 0
607 1 0.0872721 0.677793 0
577 1 0.104723 0.637556 0
578 1 0.108604 0.662152 0
579 1 0.128399 0.646225 0
609 1 0.132157 0.671587 0
581 1 0.171465 0.642084 0
580 1 0.152383 0.656285 0
611 1 0.174398 0.66769 0
583 1 0.214581 0.637774 0
582 1 0.194023 0.65166 0
584 1 0.216435 0.663921 0
613 1 0.196189 0.677031 0
585 1 0.235836 0.648815 0
586 1 0.259058 0.660326 0
615 1 0.239202 0.675541 0
589 1 0.279788 0.646724 0
588 1 0.282827 0.671462 0
590 1 0.302733 0.657326 0
591 1 0.32264 0.642853 0
593 1 0.346644 0.653631 0
621 1 0.326401 0.667694 0
592 1 0.348858 0.678593 0
564 1 0.36696 0.639354 0
594 1 0.369431 0.664165 0
595 1 0.389698 0.650009 0
625 1 0.392792 0.676204 0
596 1 0.412895 0.660809 0
597 1 0.432115 0.644982 0
598 1 0.436968 0.668878 0
599 1 0.455891 0.65443 0
600 1 0.474218 0.637813 0
629 1 0.479674 0.662067 0
1501 1 0.497575 0.642079 0
628 1 0.461097 0.678583 0
604 1 0.0439008 0.682235 0
602 1 0.000578037 0.685401 0
633 1 0.0237337 0.695892 0
632 1 0.00404581 0.71046 0
634 1 0.0270544 0.720382 0
606 1 0.0676594 0.692322 0
635 1 0.0475954 0.706654 0
636 1 0.0699207 0.717088 0
637 1 0.090862 0.701995 0
608 1 0.110754 0.686637 0
638 1 0.113327 0.712555 0
639 1 0.132505 0.696716 0
667 1 0.092838 0.726836 0
640 1 0.135303 0.723252 0
610 1 0.153969 0.68282 0
641 1 0.154837 0.7082 0
612 1 0.176565 0.692758 0
642 1 0.178973 0.71826 0
614 1 0.219117 0.689879 0
643 1 0.199462 0.704042 0
645 1 0.222733 0.715455 0
617 1 0.261835 0.68512 0
616 1 0.242677 0.700449 0
647 1 0.264847 0.709392 0
646 1 0.244962 0.725482 0
619 1 0.306232 0.681907 0
618 1 0.285952 0.696029 0
620 1 0.30854 0.706309 0
649 1 0.28615 0.720549 0
622 1 0.329164 0.693008 0
651 1 0.331304 0.719541 0
653 1 0.351383 0.703659 0
623 1 0.371557 0.687569 0
624 1 0.374708 0.711569 0
626 1 0.397051 0.701579 0
627 1 0.416562 0.685619 0
657 1 0.440498 0.693126 0
656 1 0.418145 0.720113 0
658 1 0.444564 0.71742 0
630 1 0.485711 0.685992 0
659 1 0.465743 0.703902 0
1531 1 0.496673 0.707159 0
660 1 0.480417 0.72423 0
662 1 0.00766243 0.759663 0
663 1 0.00511336 0.734783 0
664 1 0.0281811 0.745705 0
694 1 0.0298009 0.770477 0
665 1 0.0488191 0.731243 0
666 1 0.0710608 0.742016 0
695 1 0.0503649 0.755607 0
697 1 0.0730358 0.766036 0
669 1 0.114693 0.73792 0
668 1 0.0933279 0.751174 0
699 1 0.116387 0.762788 0
670 1 0.137174 0.748041 0
671 1 0.157928 0.732995 0
672 1 0.159973 0.758746 0
673 1 0.180731 0.744114 0
701 1 0.138931 0.773075 0
644 1 0.201032 0.729229 0
703 1 0.183169 0.770463 0
674 1 0.202695 0.755013 0
675 1 0.223124 0.741065 0
705 1 0.225649 0.765748 0
677 1 0.246967 0.750554 0
648 1 0.267291 0.735615 0
678 1 0.271706 0.759968 0
650 1 0.308725 0.730829 0
679 1 0.297385 0.753767 0
680 1 0.315727 0.772737 0
652 1 0.345959 0.741236 0
681 1 0.322841 0.749321 0
682 1 0.340344 0.765646 0
655 1 0.393825 0.727914 0
683 1 0.363612 0.76036 0
654 1 0.369915 0.735256 0
685 1 0.38835 0.752048 0
715 1 0.405591 0.769698 0
686 1 0.411615 0.744678 0
687 1 0.435773 0.739273 0
717 1 0.428782 0.76245 0
688 1 0.451851 0.759282 0
689 1 0.460224 0.73607 0
690 1 0.486288 0.748572 0
719 1 0.473047 0.76921 0
693 1 0.00948745 0.785685 0
692 1 0.0103204 0.809895 0
723 1 0.0317476 0.794787 0
696 1 0.05237 0.779665 0
725 1 0.0540998 0.803531 0
727 1 0.0746678 0.790711 0
726 1 0.0757258 0.816248 0
698 1 0.095429 0.776877 0
728 1 0.0980916 0.802281 0
729 1 0.120644 0.813172 0
700 1 0.118869 0.788288 0
702 1 0.162701 0.784251 0
731 1 0.14109 0.797862 0
732 1 0.164437 0.808954 0
704 1 0.206794 0.78003 0
733 1 0.186701 0.795001 0
735 1 0.211047 0.805526 0
676 1 0.249289 0.774638 0
706 1 0.232582 0.793919 0
737 1 0.257469 0.809626 0
707 1 0.269656 0.787596 0
709 1 0.292002 0.777419 0
708 1 0.286337 0.804357 0
710 1 0.310766 0.796317 0
711 1 0.334644 0.789535 0
712 1 0.352914 0.807653 0
741 1 0.329415 0.814265 0
713 1 0.358298 0.783697 0
684 1 0.381591 0.77672 0
714 1 0.400675 0.792836 0
743 1 0.375989 0.800606 0
745 1 0.394833 0.81704 0
716 1 0.426595 0.786283 0
747 1 0.44207 0.80594 0
746 1 0.418052 0.809776 0
718 1 0.453342 0.784085 0
720 1 0.480042 0.79252 0
749 1 0.465989 0.811637 0
1591 1 0.4969 0.773102 0
1621 1 0.489705 0.816172 0
722 1 0.0343088 0.819146 0
751 1 0.0144724 0.832901 0
752 1 0.0112423 0.857846 0
753 1 0.0344943 0.847334 0
724 1 0.0557453 0.831108 0
755 1 0.0782405 0.841761 0
754 1 0.0571692 0.855359 0
756 1 0.100605 0.852993 0
757 1 0.0994349 0.828231 0
759 1 0.122494 0.838125 0
758 1 0.12348 0.862804 0
730 1 0.143818 0.822315 0
760 1 0.144072 0.848054 0
761 1 0.165197 0.833788 0
791 1 0.165599 0.85886 0
763 1 0.187946 0.819554 0
734 1 0.210481 0.830239 0
762 1 0.18648 0.844927 0
764 1 0.209271 0.855614 0
736 1 0.233919 0.818996 0
767 1 0.255246 0.834196 0
765 1 0.231918 0.843732 0
766 1 0.25303 0.859144 0
739 1 0.305212 0.821258 0
738 1 0.279437 0.827263 0
768 1 0.276241 0.850978 0
769 1 0.300533 0.844636 0
770 1 0.318695 0.862436 0
740 1 0.325032 0.83893 0
771 1 0.342894 0.856143 0
742 1 0.348014 0.831344 0
744 1 0.371366 0.824326 0
773 1 0.366928 0.848402 0
774 1 0.390098 0.842047 0
776 1 0.408906 0.858038 0
775 1 0.414058 0.834378 0
777 1 0.433017 0.849276 0
748 1 0.449081 0.831011 0
1651 1 0.499069 0.839385 0
750 1 0.474304 0.835248 0
779 1 0.458121 0.854457 0
780 1 0.482636 0.858196 0
783 1 0.0322523 0.872562 0
782 1 0.00572587 0.881694 0
813 1 0.0239895 0.896948 0
785 1 0.0789442 0.866627 0
784 1 0.0568966 0.881215 0
786 1 0.0796065 0.891756 0
815 1 0.0593396 0.906508 0
787 1 0.101167 0.878198 0
788 1 0.124016 0.888119 0
817 1 0.101799 0.902774 0
789 1 0.144718 0.873418 0
819 1 0.14718 0.898444 0
790 1 0.166899 0.883644 0
792 1 0.188161 0.870006 0
793 1 0.209748 0.881788 0
823 1 0.188144 0.895166 0
794 1 0.211375 0.906418 0
795 1 0.229904 0.867942 0
796 1 0.248224 0.883021 0
827 1 0.264468 0.900344 0
797 1 0.271325 0.87595 0
825 1 0.237757 0.90604 0
799 1 0.295015 0.86871 0
798 1 0.289625 0.892677 0
800 1 0.312945 0.88673 0
801 1 0.336539 0.87969 0
831 1 0.330689 0.903897 0
802 1 0.355261 0.89743 0
772 1 0.360944 0.872875 0
803 1 0.385455 0.866784 0
805 1 0.403281 0.882733 0
804 1 0.379684 0.891227 0
806 1 0.39915 0.908954 0
778 1 0.442746 0.87198 0
807 1 0.426795 0.890528 0
808 1 0.450769 0.895864 0
809 1 0.466836 0.877263 0
1681 1 0.491725 0.880989 0
810 1 0.475946 0.900983 0
842 1 0.00904582 0.948323 0
843 1 0.0147874 0.924321 0
844 1 0.0331635 0.941046 0
814 1 0.0381152 0.916902 0
816 1 0.0793903 0.920523 0
845 1 0.0581016 0.932772 0
846 1 0.0792794 0.948299 0
818 1 0.125031 0.912517 0
847 1 0.103581 0.926861 0
849 1 0.126625 0.937226 0
848 1 0.106562 0.951964 0
821 1 0.168038 0.910662 0
820 1 0.147388 0.923564 0
850 1 0.14924 0.948018 0
851 1 0.170369 0.934901 0
824 1 0.211797 0.931272 0
822 1 0.190143 0.921233 0
853 1 0.192843 0.946653 0
855 1 0.235587 0.931865 0
826 1 0.258541 0.9237 0
856 1 0.253196 0.947786 0
829 1 0.306563 0.9107 0
828 1 0.282243 0.916432 0
857 1 0.277239 0.94024 0
859 1 0.301429 0.934213 0
860 1 0.318348 0.951946 0
830 1 0.32492 0.927877 0
832 1 0.349132 0.921862 0
861 1 0.342313 0.945771 0
863 1 0.365968 0.940244 0
833 1 0.373896 0.915428 0
834 1 0.39056 0.934103 0
865 1 0.405239 0.953125 0
837 1 0.433854 0.913776 0
835 1 0.415874 0.93077 0
838 1 0.443598 0.936228 0
839 1 0.459384 0.919152 0
840 1 0.48444 0.92383 0
1741 1 0.49201 0.946907 0
869 1 0.46832 0.941601 0
872 1 0.0206356 0.990587 0
873 1 0.02725 0.965035 0
871 1 0.00350033 0.972983 0
874 1 0.0436801 0.98255 0
875 1 0.0513607 0.957279 0
876 1 0.0672011 0.976906 0
7 1 0.0838434 0.995523 0
877 1 0.0909009 0.970497 0
878 1 0.107152 0.98926 0
879 1 0.127895 0.961274 0
880 1 0.131144 0.984758 0
852 1 0.172716 0.960249 0
881 1 0.15191 0.972334 0
882 1 0.173928 0.985032 0
11 1 0.152319 0.997172 0
854 1 0.215898 0.957623 0
883 1 0.195459 0.971919 0
13 1 0.196111 0.997978 0
884 1 0.217224 0.983034 0
885 1 0.240204 0.968569 0
886 1 0.239618 0.99327 0
17 1 0.263638 0.987667 0
887 1 0.271259 0.964223 0
858 1 0.294543 0.957968 0
888 1 0.287384 0.982052 0
889 1 0.312152 0.976647 0
19 1 0.304264 1.00009 0
862 1 0.358598 0.965456 0
890 1 0.329886 0.994005 0
891 1 0.334987 0.970039 0
892 1 0.354239 0.989204 0
864 1 0.38189 0.958853 0
893 1 0.377619 0.983109 0
895 1 0.402102 0.97717 0
836 1 0.428471 0.954581 0
867 1 0.452638 0.959657 0
866 1 0.435175 0.977985 0
896 1 0.41921 0.995934 0
870 1 0.476586 0.96481 0
868 1 0.459995 0.983197 0
899 1 0.484705 0.987963 0
902 1 0.541995 0.0214454 0
931 1 0.526075 0.0393516 0
901 1 0.517376 0.0161139 0
30 1 0.501098 0.0344129 0
904 1 0.566398 0.0271047 0
906 1 0.581689 0.00798519 0
905 1 0.558215 0.00273881 0
935 1 0.58947 0.0326629 0
908 1 0.605767 0.0131438 0
937 1 0.612722 0.0377745 0
939 1 0.629957 0.0198589 0
938 1 0.636406 0.043744 0
940 1 0.656777 0.0229607 0
910 1 0.644426 0.000859596 0
971 1 0.678184 0.0402916 0
942 1 0.683799 0.0162304 0
943 1 0.707114 0.00947104 0
944 1 0.701229 0.0339877 0
945 1 0.724804 0.0284389 0
914 1 0.730449 0.00351647 0
947 1 0.748631 0.0222015 0
948 1 0.765221 0.0399148 0
918 1 0.771567 0.0147878 0
919 1 0.794845 0.00931658 0
949 1 0.789123 0.0332019 0
920 1 0.811938 0.027217 0
1790 1 0.818139 0.00249477 0
951 1 0.835173 0.0196646 0
952 1 0.853633 0.0373253 0
922 1 0.858455 0.0130689 0
950 1 0.830541 0.0440602 0
953 1 0.876926 0.0308837 0
955 1 0.900697 0.0245856 0
924 1 0.882804 0.00634482 0
926 1 0.925059 0.0165468 0
928 1 0.948363 0.0105153 0
957 1 0.941699 0.035582 0
956 1 0.918708 0.0415071 0
930 1 0.989334 0.0228773 0
959 1 0.965498 0.0284357 0
929 1 0.972183 0.00375176 0
932 1 0.533218 0.0633325 0
962 1 0.540925 0.0872877 0
961 1 0.516198 0.0812848 0
60 1 0.508243 0.0573351 0
933 1 0.549703 0.0449569 0
934 1 0.573875 0.0516915 0
963 1 0.557264 0.0695127 0
965 1 0.58099 0.0766499 0
936 1 0.596811 0.0568695 0
966 1 0.606004 0.0818458 0
967 1 0.620519 0.0621554 0
968 1 0.628949 0.0888562 0
969 1 0.643702 0.0697294 0
970 1 0.658354 0.0513502 0
972 1 0.670601 0.072768 0
973 1 0.691852 0.0600723 0
1003 1 0.710471 0.0767618 0
975 1 0.716425 0.0523862 0
974 1 0.734145 0.0702808 0
946 1 0.741179 0.0467768 0
976 1 0.758762 0.0638962 0
1005 1 0.750356 0.0892355 0
1007 1 0.775 0.0828966 0
977 1 0.782179 0.058253 0
979 1 0.806689 0.0515333 0
978 1 0.800362 0.0750265 0
980 1 0.823723 0.0688103 0
981 1 0.846705 0.0628454 0
1011 1 0.841319 0.087483 0
982 1 0.864939 0.0799907 0
954 1 0.894352 0.0491179 0
983 1 0.870968 0.0563685 0
984 1 0.888132 0.0737435 0
985 1 0.912248 0.0665603 0
986 1 0.928828 0.0840641 0
987 1 0.935837 0.0592558 0
988 1 0.952566 0.0774224 0
960 1 0.983717 0.0472273 0
958 1 0.959476 0.0521204 0
989 1 0.976414 0.0714445 0
990 1 0.993812 0.0885173 0
991 1 0.52275 0.10473 0
992 1 0.530621 0.129126 0
120 1 0.505472 0.122846 0
993 1 0.547509 0.112378 0
964 1 0.564398 0.0948371 0
994 1 0.572018 0.118362 0
995 1 0.588952 0.100286 0
1023 1 0.554445 0.135809 0
996 1 0.595818 0.124165 0
997 1 0.613069 0.10707 0
1027 1 0.621161 0.129808 0
998 1 0.638364 0.111557 0
999 1 0.654265 0.0923714 0
1000 1 0.662982 0.116522 0
1001 1 0.679574 0.0968295 0
1029 1 0.645854 0.135186 0
1031 1 0.687627 0.121069 0
1002 1 0.703452 0.100663 0
1033 1 0.717983 0.120952 0
1004 1 0.726781 0.0956814 0
1006 1 0.769973 0.107663 0
1035 1 0.746238 0.113277 0
1036 1 0.763324 0.132007 0
1037 1 0.787316 0.124295 0
1008 1 0.793777 0.0995111 0
1009 1 0.818041 0.0932925 0
1039 1 0.811216 0.117726 0
1010 1 0.834943 0.111816 0
1012 1 0.858745 0.105131 0
1041 1 0.852193 0.129723 0
1015 1 0.905692 0.091275 0
1043 1 0.875444 0.122491 0
1013 1 0.881732 0.0987275 0
1014 1 0.899357 0.116116 0
1016 1 0.916897 0.133356 0
1017 1 0.922516 0.10891 0
1018 1 0.946119 0.102123 0
1047 1 0.940531 0.126821 0
1019 1 0.969215 0.0951482 0
1020 1 0.987886 0.112053 0
1049 1 0.963887 0.119223 0
1022 1 0.537369 0.15354 0
1053 1 0.543646 0.177373 0
1051 1 0.520072 0.170671 0
1021 1 0.513066 0.146639 0
1025 1 0.579277 0.141544 0
1024 1 0.561484 0.158365 0
1055 1 0.586555 0.16554 0
1026 1 0.603818 0.146922 0
1028 1 0.628081 0.153032 0
1057 1 0.610362 0.171352 0
1058 1 0.635651 0.176697 0
1059 1 0.653266 0.158437 0
1030 1 0.670745 0.139961 0
1061 1 0.677381 0.163547 0
1032 1 0.694236 0.144719 0
1063 1 0.718816 0.150969 0
1064 1 0.72651 0.175779 0
1062 1 0.702143 0.168866 0
1034 1 0.739153 0.137349 0
1065 1 0.754537 0.15675 0
1066 1 0.773175 0.174329 0
1067 1 0.779459 0.150938 0
1038 1 0.803141 0.142492 0
1068 1 0.797813 0.167381 0
1040 1 0.828497 0.136304 0
1069 1 0.820538 0.160682 0
1071 1 0.845643 0.15381 0
1070 1 0.839621 0.178502 0
1072 1 0.862673 0.171029 0
1044 1 0.89357 0.140336 0
1042 1 0.870055 0.146732 0
1073 1 0.88792 0.164364 0
1074 1 0.905628 0.181583 0
1045 1 0.911037 0.157416 0
1075 1 0.930251 0.175921 0
1046 1 0.935119 0.151619 0
1077 1 0.953361 0.168633 0
1050 1 0.981704 0.136488 0
1048 1 0.957805 0.143642 0
1079 1 0.976142 0.161227 0
1080 1 0.993687 0.177868 0
151 1 0.9992 0.154376 0
1052 1 0.526635 0.194728 0
1082 1 0.533348 0.218486 0
1081 1 0.50958 0.213141 0
180 1 0.502431 0.188529 0
1054 1 0.567823 0.18305 0
1083 1 0.550837 0.201554 0
1085 1 0.574608 0.207032 0
1084 1 0.557343 0.225043 0
1056 1 0.593194 0.189549 0
1086 1 0.599401 0.212518 0
1087 1 0.617649 0.195279 0
1088 1 0.624956 0.218302 0
1089 1 0.642847 0.200382 0
1060 1 0.660118 0.182612 0
1090 1 0.667025 0.205884 0
1119 1 0.649449 0.224115 0
1091 1 0.685494 0.187344 0
1092 1 0.692362 0.212007 0
1093 1 0.709353 0.193117 0
1123 1 0.716137 0.217221 0
1095 1 0.749666 0.181607 0
1094 1 0.733258 0.199453 0
1096 1 0.757072 0.206378 0
1125 1 0.740209 0.224379 0
1127 1 0.782585 0.214483 0
1097 1 0.79215 0.191886 0
1099 1 0.816269 0.18619 0
1098 1 0.809048 0.218506 0
1100 1 0.833414 0.204262 0
1101 1 0.857638 0.196957 0
1102 1 0.87688 0.213926 0
1103 1 0.881573 0.188356 0
1104 1 0.898896 0.205106 0
1105 1 0.923185 0.200032 0
1076 1 0.947471 0.194754 0
1078 1 0.970727 0.186286 0
1107 1 0.966594 0.215663 0
1109 1 0.987785 0.202562 0
1110 1 0.991812 0.226119 0
1111 1 0.516192 0.237066 0
1113 1 0.539923 0.24225 0
1112 1 0.522138 0.260527 0
1143 1 0.547409 0.265735 0
1114 1 0.564203 0.248167 0
1115 1 0.582055 0.2314 0
1116 1 0.588988 0.255173 0
1145 1 0.571054 0.272819 0
1117 1 0.606903 0.235904 0
1118 1 0.6315 0.242111 0
1147 1 0.613121 0.26029 0
1149 1 0.637761 0.266368 0
1121 1 0.673743 0.229075 0
1120 1 0.656585 0.247948 0
1151 1 0.680922 0.253967 0
1150 1 0.662534 0.271389 0
1122 1 0.698691 0.236066 0
1124 1 0.722786 0.242208 0
1153 1 0.70434 0.260068 0
1154 1 0.727865 0.265989 0
1126 1 0.764891 0.231163 0
1155 1 0.747376 0.248064 0
1157 1 0.771284 0.256345 0
1156 1 0.751403 0.273584 0
1128 1 0.788856 0.239037 0
1159 1 0.813488 0.244896 0
1158 1 0.796499 0.262904 0
1160 1 0.820192 0.269759 0
1131 1 0.85802 0.234107 0
1129 1 0.83212 0.228562 0
1130 1 0.838369 0.252183 0
1161 1 0.862061 0.259574 0
1133 1 0.900284 0.228047 0