ITEM: TIMESTEP
4000
ITEM: NUMBER OF ATOMS
1800
ITEM: BOX BOUNDS pp pp pp
-1.5783620004517189e+00 1.6657836200045284e+02
-1.5783620004517189e+00 1.6657836200045284e+02
0.0000000000000000e+00 5.5000000000000000e+00
ITEM: ATOMS id type xs ys zs
2 1 0.0126608 0.0136528 0
3 1 0.0389009 0.00577876 0
33 1 0.0307097 0.0274106 0
31 1 0.00269437 0.0364079 0
4 1 0.0551868 0.0229689 0
5 1 0.0626863 0.000750249 0
35 1 0.0726824 0.0393903 0
6 1 0.0817146 0.0166454 0
8 1 0.107634 0.018095 0
37 1 0.0978768 0.0395839 0
9 1 0.128311 0.00862071 0
39 1 0.128061 0.0338468 0
10 1 0.148935 0.0204965 0
11 1 0.166068 0.00287195 0
41 1 0.170966 0.0313098 0
12 1 0.188159 0.0152849 0
43 1 0.197096 0.0392546 0
14 1 0.210743 0.0196433 0
15 1 0.225298 0.000801587 0
45 1 0.234854 0.0237687 0
16 1 0.256034 0.0125799 0
47 1 0.271105 0.035301 0
18 1 0.280597 0.0138432 0
20 1 0.314741 0.0119833 0
49 1 0.296419 0.0314886 0
51 1 0.334389 0.0268348 0
22 1 0.358014 0.020587 0
53 1 0.370292 0.0420082 0
21 1 0.338835 0.00266864 0
24 1 0.380377 0.0102607 0
25 1 0.404021 0.0079464 0
55 1 0.392739 0.0307719 0
26 1 0.422191 0.0226154 0
28 1 0.446185 0.0154892 0
57 1 0.439068 0.0407071 0
27 1 0.426236 0.997485 0
29 1 0.467682 0.00431019 0
30 1 0.49069 0.0191457 0
59 1 0.466825 0.028063 0
32 1 0.0221204 0.0496252 0
62 1 0.0147505 0.0728093 0
63 1 0.0369652 0.0691743 0
34 1 0.0455143 0.0441551 0
36 1 0.0852571 0.0596654 0
65 1 0.0615702 0.0623315 0
66 1 0.0766055 0.0817276 0
38 1 0.116436 0.056216 0
67 1 0.0999742 0.0767393 0
69 1 0.135814 0.0698139 0
40 1 0.151287 0.0462247 0
71 1 0.159757 0.0684783 0
42 1 0.178334 0.0541215 0
72 1 0.181302 0.0805322 0
73 1 0.201966 0.0645974 0
44 1 0.221204 0.043642 0
74 1 0.221625 0.0811114 0
75 1 0.237517 0.0627227 0
46 1 0.248622 0.0426976 0
77 1 0.262191 0.0649192 0
48 1 0.285743 0.0552684 0
78 1 0.28282 0.0795489 0
50 1 0.316738 0.042424 0
79 1 0.306001 0.068434 0
81 1 0.330391 0.063191 0
52 1 0.347863 0.0456095 0
82 1 0.345367 0.082421 0
83 1 0.367695 0.0655275 0
54 1 0.389437 0.0551353 0
84 1 0.388019 0.0796845 0
85 1 0.410127 0.0674142 0
56 1 0.41263 0.043997 0
58 1 0.458458 0.0532397 0
87 1 0.434893 0.0660873 0
88 1 0.458119 0.0794257 0
60 1 0.489593 0.0438107 0
89 1 0.477237 0.0648049 0
961 1 0.499518 0.0746397 0
92 1 0.020207 0.120094 0
93 1 0.0218981 0.0956814 0
91 1 0.000849657 0.106453 0
94 1 0.0426783 0.109332 0
64 1 0.0523271 0.0867091 0
95 1 0.0683904 0.103904 0
96 1 0.0843293 0.120894 0
68 1 0.120319 0.0888556 0
97 1 0.0943042 0.0998247 0
98 1 0.110967 0.117179 0
70 1 0.151173 0.0938194 0
99 1 0.13255 0.107047 0
100 1 0.15349 0.11838 0
101 1 0.174689 0.103944 0
102 1 0.194834 0.115787 0
103 1 0.200392 0.0928013 0
76 1 0.244463 0.085824 0
105 1 0.220965 0.1041 0
106 1 0.24573 0.110283 0
107 1 0.267787 0.100636 0
108 1 0.283043 0.120048 0
80 1 0.320026 0.0896585 0
109 1 0.295412 0.100312 0
110 1 0.319919 0.119533 0
111 1 0.338423 0.105911 0
112 1 0.36183 0.116077 0
113 1 0.368968 0.0917492 0
86 1 0.417736 0.0917058 0
114 1 0.384106 0.124789 0
115 1 0.396266 0.104048 0
116 1 0.423557 0.113851 0
117 1 0.441267 0.0971285 0
118 1 0.446049 0.120432 0
90 1 0.479983 0.0885754 0
119 1 0.46321 0.104991 0
120 1 0.487538 0.112773 0
122 1 0.0188323 0.146851 0
123 1 0.0387224 0.134837 0
124 1 0.0537451 0.153297 0
125 1 0.060824 0.126921 0
126 1 0.0778295 0.144688 0
127 1 0.100456 0.138805 0
128 1 0.118953 0.154088 0
157 1 0.0976251 0.167997 0
129 1 0.130765 0.12943 0
159 1 0.14213 0.163465 0
130 1 0.153579 0.141514 0
131 1 0.175283 0.129193 0
132 1 0.17449 0.154647 0
133 1 0.196727 0.140056 0
163 1 0.199194 0.164973 0
104 1 0.215213 0.127352 0
134 1 0.220423 0.153875 0
135 1 0.23785 0.134338 0
136 1 0.252135 0.151872 0
137 1 0.261336 0.128617 0
138 1 0.280158 0.147006 0
139 1 0.302381 0.135082 0
140 1 0.323573 0.148534 0
169 1 0.302143 0.159461 0
141 1 0.341149 0.129622 0
142 1 0.346737 0.154433 0
143 1 0.366001 0.13936 0
173 1 0.371686 0.161738 0
144 1 0.390015 0.147771 0
145 1 0.406267 0.129982 0
146 1 0.414971 0.157011 0
147 1 0.428594 0.137487 0
148 1 0.452274 0.143326 0
177 1 0.440103 0.162842 0
1021 1 0.492205 0.138167 0
149 1 0.470106 0.128965 0
150 1 0.475957 0.154751 0
153 1 0.0316172 0.16642 0
152 1 0.0114959 0.180592 0
183 1 0.0314566 0.193555 0
1771 1 0.49305 0.968547 0
155 1 0.0721741 0.167459 0
154 1 0.0524196 0.181211 0
185 1 0.0646994 0.203229 0
156 1 0.0836689 0.188023 0
158 1 0.120062 0.178063 0
187 1 0.104565 0.197726 0
161 1 0.167501 0.179276 0
189 1 0.126615 0.202154 0
160 1 0.143217 0.186665 0
191 1 0.160384 0.204019 0
162 1 0.190654 0.186007 0
193 1 0.206685 0.204009 0
165 1 0.237637 0.17035 0
164 1 0.216578 0.181145 0
195 1 0.230985 0.203119 0
166 1 0.250153 0.189255 0
167 1 0.267391 0.172172 0
197 1 0.272933 0.196859 0
168 1 0.290401 0.179905 0
171 1 0.331884 0.172598 0
170 1 0.312599 0.187257 0
199 1 0.296649 0.204776 0
201 1 0.338112 0.195366 0
172 1 0.355977 0.178869 0
203 1 0.360449 0.202443 0
175 1 0.395049 0.170879 0
174 1 0.380601 0.189338 0
205 1 0.404441 0.198173 0
176 1 0.42152 0.179881 0
178 1 0.445734 0.189366 0
207 1 0.428932 0.203652 0
179 1 0.4614 0.171739 0
180 1 0.486604 0.179478 0
209 1 0.471057 0.197213 0
1081 1 0.494561 0.201299 0
182 1 0.0196178 0.214421 0
213 1 0.0329616 0.235062 0
184 1 0.0433348 0.213284 0
215 1 0.0616581 0.227979 0
216 1 0.075228 0.247156 0
186 1 0.0848786 0.214105 0
188 1 0.116414 0.224733 0
217 1 0.0958105 0.238353 0
190 1 0.142581 0.218944 0
219 1 0.133611 0.240797 0
220 1 0.156565 0.248325 0
221 1 0.166961 0.227106 0
192 1 0.183653 0.210195 0
223 1 0.197574 0.233345 0
194 1 0.21787 0.223778 0
224 1 0.218563 0.248519 0
225 1 0.239053 0.234104 0
196 1 0.255339 0.214437 0
198 1 0.280402 0.222572 0
227 1 0.26274 0.241166 0
228 1 0.288428 0.246475 0
200 1 0.32057 0.210185 0
229 1 0.303067 0.227083 0
231 1 0.326335 0.236954 0
202 1 0.342388 0.220376 0
233 1 0.364155 0.225312 0
232 1 0.348357 0.243551 0
204 1 0.383518 0.212778 0
234 1 0.375412 0.246562 0
235 1 0.395508 0.23339 0
236 1 0.418559 0.249375 0
206 1 0.41806 0.225043 0
208 1 0.452004 0.213224 0
237 1 0.440819 0.235435 0
210 1 0.482994 0.222816 0
239 1 0.463682 0.235381 0
240 1 0.487336 0.250461 0
212 1 0.00827666 0.248629 0
242 1 0.0228847 0.281336 0
243 1 0.0284684 0.257854 0
214 1 0.0506482 0.250592 0
244 1 0.0463532 0.275055 0
245 1 0.0683123 0.270769 0
218 1 0.116409 0.255872 0
246 1 0.0868568 0.283616 0
247 1 0.0941318 0.261404 0
248 1 0.11409 0.278494 0
249 1 0.140169 0.266447 0
250 1 0.152081 0.287874 0
251 1 0.167348 0.269464 0
222 1 0.182471 0.251177 0
252 1 0.186616 0.285265 0
253 1 0.200999 0.265706 0
226 1 0.246255 0.257179 0
254 1 0.212229 0.288012 0
255 1 0.227469 0.271788 0
256 1 0.251501 0.279712 0
257 1 0.27041 0.263009 0
258 1 0.27615 0.284823 0
230 1 0.311574 0.254448 0
259 1 0.294283 0.268933 0
260 1 0.317566 0.276044 0
261 1 0.334489 0.261089 0
262 1 0.345459 0.283521 0
263 1 0.361126 0.264907 0
264 1 0.383064 0.277541 0
265 1 0.39533 0.257693 0
266 1 0.410507 0.274402 0
238 1 0.45352 0.25684 0
267 1 0.433824 0.270356 0
268 1 0.453765 0.283964 0
297 1 0.426013 0.295101 0
1141 1 0.499111 0.276927 0
269 1 0.47319 0.269808 0
273 1 0.0384082 0.300275 0
272 1 0.0241831 0.318912 0
271 1 0.00902513 0.299384 0
301 1 0.00369249 0.330017 0
275 1 0.0611186 0.294907 0
274 1 0.0498654 0.322177 0
276 1 0.082888 0.307503 0
305 1 0.0732358 0.327758 0
277 1 0.105332 0.302158 0
278 1 0.123641 0.319114 0
307 1 0.101729 0.327678 0
279 1 0.129872 0.29645 0
280 1 0.149003 0.312612 0
311 1 0.16309 0.33079 0
281 1 0.172148 0.303254 0
283 1 0.197801 0.305839 0
282 1 0.185493 0.324007 0
313 1 0.206715 0.335161 0
285 1 0.235873 0.29684 0
284 1 0.220559 0.314852 0
286 1 0.245065 0.321527 0
287 1 0.259521 0.30269 0
317 1 0.268168 0.325992 0
288 1 0.28449 0.309318 0
289 1 0.299973 0.29067 0
291 1 0.325042 0.297617 0
290 1 0.30824 0.314199 0
321 1 0.329285 0.324765 0
293 1 0.375215 0.300231 0
292 1 0.34733 0.306613 0
323 1 0.363931 0.32113 0
295 1 0.399059 0.295994 0
294 1 0.387306 0.319602 0
296 1 0.415059 0.315806 0
298 1 0.441551 0.317492 0
270 1 0.48214 0.292376 0
299 1 0.463186 0.306719 0
300 1 0.486787 0.315271 0
329 1 0.465996 0.331285 0
303 1 0.0319856 0.339459 0
302 1 0.0114045 0.352567 0
333 1 0.0389756 0.363895 0
304 1 0.0571731 0.346061 0
335 1 0.0711713 0.365838 0
306 1 0.0859765 0.347365 0
308 1 0.113034 0.350817 0
337 1 0.0961302 0.367705 0
309 1 0.139825 0.334895 0
339 1 0.13568 0.359284 0
310 1 0.160349 0.353536 0
312 1 0.185006 0.348206 0
343 1 0.190752 0.37054 0
315 1 0.228305 0.340671 0
314 1 0.211296 0.358329 0
345 1 0.236751 0.363702 0
316 1 0.252643 0.345508 0
347 1 0.261012 0.367228 0
318 1 0.278971 0.349789 0
319 1 0.292776 0.331592 0
320 1 0.324757 0.350992 0
349 1 0.300074 0.356688 0
322 1 0.348512 0.341022 0
351 1 0.33545 0.372108 0
353 1 0.359793 0.36251 0
325 1 0.403175 0.338483 0
324 1 0.376055 0.342612 0
355 1 0.391767 0.359749 0
327 1 0.42702 0.336055 0
326 1 0.417277 0.357164 0
328 1 0.448779 0.348606 0
357 1 0.433527 0.374532 0
330 1 0.475634 0.355753 0
359 1 0.457302 0.37031 0
1201 1 0.493155 0.339702 0
1231 1 0.498842 0.363423 0
332 1 0.0194444 0.37775 0
363 1 0.037398 0.396105 0
361 1 0.0066842 0.396964 0
362 1 0.0239835 0.414867 0
334 1 0.0549993 0.381964 0
336 1 0.0784833 0.389163 0
365 1 0.0600284 0.405189 0
338 1 0.118852 0.375531 0
366 1 0.088768 0.412902 0
367 1 0.100918 0.391199 0
340 1 0.143969 0.384145 0
369 1 0.124435 0.398072 0
371 1 0.160736 0.401093 0
370 1 0.139666 0.415009 0
341 1 0.167801 0.376293 0
342 1 0.184342 0.392711 0
373 1 0.205097 0.407121 0
372 1 0.183001 0.417234 0
344 1 0.208714 0.384188 0
346 1 0.24507 0.385174 0
375 1 0.227832 0.399942 0
376 1 0.248887 0.412947 0
348 1 0.288271 0.379959 0
377 1 0.267153 0.392185 0
378 1 0.281642 0.410415 0
350 1 0.311394 0.37762 0
379 1 0.304806 0.400941 0
381 1 0.32686 0.39662 0
352 1 0.35364 0.389067 0
383 1 0.369978 0.405008 0
382 1 0.344978 0.412386 0
354 1 0.377742 0.380276 0
356 1 0.406524 0.38079 0
385 1 0.394952 0.401461 0
386 1 0.412954 0.417803 0
358 1 0.449657 0.392097 0
387 1 0.424221 0.397093 0
388 1 0.441725 0.415904 0
360 1 0.479919 0.378381 0
389 1 0.467791 0.408331 0
1261 1 0.490168 0.400826 0
391 1 0.00504853 0.428689 0
393 1 0.0286825 0.440791 0
392 1 0.00937592 0.455024 0
364 1 0.0461746 0.424851 0
395 1 0.0699613 0.427832 0
394 1 0.0538897 0.447907 0
396 1 0.0776019 0.451812 0
368 1 0.116492 0.422962 0
397 1 0.0969819 0.435356 0
398 1 0.114678 0.453011 0
399 1 0.134457 0.43783 0
401 1 0.161184 0.424301 0
400 1 0.157063 0.447243 0
403 1 0.201796 0.431052 0
402 1 0.18244 0.448124 0
374 1 0.223272 0.422596 0
405 1 0.242047 0.437045 0
404 1 0.219907 0.445089 0
407 1 0.26707 0.430469 0
406 1 0.256912 0.456846 0
408 1 0.280319 0.450048 0
380 1 0.319124 0.420374 0
409 1 0.294563 0.431307 0
410 1 0.31529 0.444343 0
411 1 0.339229 0.435669 0
413 1 0.362814 0.428616 0
412 1 0.356587 0.45117 0
384 1 0.3895 0.423241 0
415 1 0.403544 0.443918 0
414 1 0.379528 0.446359 0
417 1 0.427819 0.43494 0
418 1 0.448101 0.450202 0
390 1 0.48644 0.426575 0
419 1 0.461244 0.430125 0
420 1 0.477156 0.448247 0
1321 1 0.499794 0.454293 0
423 1 0.0367812 0.463998 0
422 1 0.0169402 0.476244 0
453 1 0.0253094 0.498377 0
451 1 0.00237219 0.496539 0
425 1 0.0626601 0.470815 0
424 1 0.0459182 0.487712 0
426 1 0.0826694 0.488067 0
427 1 0.095692 0.468744 0
428 1 0.117733 0.476982 0
457 1 0.107114 0.498451 0
429 1 0.139134 0.461949 0
430 1 0.147212 0.487643 0
431 1 0.162736 0.470582 0
433 1 0.203231 0.461532 0
461 1 0.171426 0.497563 0
432 1 0.186207 0.477205 0
435 1 0.231438 0.464251 0
434 1 0.213486 0.482449 0
465 1 0.234503 0.492199 0
436 1 0.253233 0.478901 0
437 1 0.27553 0.473126 0
467 1 0.268117 0.497878 0
438 1 0.293682 0.488528 0
439 1 0.299399 0.464023 0
440 1 0.317986 0.480395 0
441 1 0.332942 0.459986 0
443 1 0.372257 0.468259 0
442 1 0.349276 0.478674 0
445 1 0.396245 0.466237 0
444 1 0.382041 0.490619 0
475 1 0.404018 0.498865 0
416 1 0.422596 0.457589 0
446 1 0.417763 0.480053 0
447 1 0.439673 0.47131 0
448 1 0.453264 0.491363 0
449 1 0.463004 0.46823 0
450 1 0.48867 0.474816 0
479 1 0.476517 0.496029 0
452 1 0.0138501 0.518985 0
483 1 0.0316101 0.535331 0
454 1 0.043529 0.513023 0
455 1 0.0654722 0.502633 0
485 1 0.0637404 0.529036 0
456 1 0.0902475 0.516823 0
458 1 0.115696 0.522785 0
487 1 0.0991629 0.540611 0
459 1 0.130227 0.504661 0
460 1 0.152815 0.511124 0
489 1 0.139471 0.530485 0
491 1 0.163022 0.537021 0
462 1 0.179752 0.520111 0
463 1 0.195666 0.501506 0
493 1 0.203177 0.528325 0
464 1 0.219615 0.510092 0
466 1 0.246491 0.513817 0
495 1 0.229956 0.534667 0
468 1 0.287439 0.511549 0
497 1 0.266966 0.525041 0
469 1 0.309193 0.504371 0
470 1 0.325246 0.523446 0
499 1 0.302241 0.530185 0
471 1 0.3336 0.500628 0
472 1 0.34973 0.522464 0
473 1 0.359573 0.500507 0
503 1 0.370302 0.534023 0
474 1 0.385824 0.514093 0
476 1 0.41352 0.5204 0
505 1 0.394941 0.537419 0
477 1 0.429009 0.502467 0
478 1 0.458317 0.514199 0
507 1 0.438036 0.528711 0
900 1 0.491246 0.99364 0
480 1 0.481173 0.521314 0
509 1 0.462169 0.537636 0
482 1 0.00718811 0.54992 0
512 1 0.0223676 0.584341 0
513 1 0.029125 0.560871 0
484 1 0.0518125 0.552003 0
486 1 0.0779297 0.550948 0
514 1 0.0467345 0.57821 0
515 1 0.0694491 0.572426 0
488 1 0.122718 0.547009 0
517 1 0.0999724 0.566381 0
490 1 0.146527 0.555036 0
519 1 0.129562 0.57184 0
520 1 0.153545 0.579002 0
492 1 0.186556 0.545162 0
521 1 0.171474 0.56449 0
523 1 0.196085 0.570572 0
494 1 0.209962 0.551048 0
524 1 0.219023 0.579452 0
525 1 0.234706 0.560004 0
496 1 0.252518 0.545588 0
498 1 0.282428 0.543056 0
526 1 0.253356 0.577966 0
527 1 0.271137 0.563139 0
500 1 0.314675 0.554942 0
529 1 0.294907 0.5683 0
530 1 0.318053 0.576784 0
501 1 0.336635 0.543115 0
531 1 0.340216 0.567675 0
502 1 0.357809 0.55265 0
533 1 0.366135 0.574796 0
504 1 0.382511 0.557139 0
535 1 0.404931 0.56148 0
506 1 0.42186 0.54537 0
508 1 0.444982 0.554227 0
537 1 0.427464 0.570141 0
538 1 0.450105 0.578669 0
510 1 0.485871 0.548602 0
539 1 0.467652 0.562131 0
540 1 0.484268 0.577926 0
541 1 0.00188444 0.595244 0
543 1 0.0376278 0.601127 0
542 1 0.0189865 0.615004 0
545 1 0.0643688 0.594986 0
544 1 0.0486197 0.622779 0
546 1 0.0728151 0.615871 0
516 1 0.088423 0.587183 0
518 1 0.112291 0.587524 0
547 1 0.0964824 0.608558 0
548 1 0.120612 0.609259 0
549 1 0.137854 0.595483 0
551 1 0.162923 0.6053 0
550 1 0.141857 0.618442 0
522 1 0.178619 0.588066 0
553 1 0.202408 0.597382 0
552 1 0.186002 0.614815 0
555 1 0.238176 0.59489 0
554 1 0.220886 0.61151 0
556 1 0.243121 0.619741 0
557 1 0.262398 0.604949 0
528 1 0.277183 0.586194 0
558 1 0.286198 0.613175 0
559 1 0.302506 0.5944 0
561 1 0.326047 0.600934 0
560 1 0.308498 0.618954 0
532 1 0.347898 0.589105 0
563 1 0.370535 0.603075 0
562 1 0.347215 0.61191 0
534 1 0.387895 0.584167 0
565 1 0.398894 0.607428 0
564 1 0.38168 0.623002 0
536 1 0.412066 0.588777 0
567 1 0.434081 0.599325 0
566 1 0.420134 0.619579 0
568 1 0.455108 0.61611 0
569 1 0.468848 0.596467 0
570 1 0.480887 0.618347 0
1441 1 0.494763 0.599479 0
571 1 0.00616056 0.634747 0
572 1 0.0139937 0.657285 0
573 1 0.0299368 0.639072 0
574 1 0.0488823 0.655131 0
575 1 0.0654303 0.639409 0
605 1 0.0727916 0.663129 0
576 1 0.0896758 0.646407 0
577 1 0.108848 0.629487 0
578 1 0.11205 0.651777 0
579 1 0.132072 0.639591 0
580 1 0.153847 0.648763 0
581 1 0.16505 0.628516 0
609 1 0.132741 0.664012 0
582 1 0.187252 0.641762 0
583 1 0.207846 0.630528 0
611 1 0.177479 0.662558 0
584 1 0.213388 0.654333 0
585 1 0.231258 0.638984 0
615 1 0.235378 0.662617 0
586 1 0.253126 0.646357 0
587 1 0.266461 0.628767 0
588 1 0.276926 0.654565 0
589 1 0.291698 0.636387 0
590 1 0.314576 0.641333 0
619 1 0.304124 0.662303 0
621 1 0.328113 0.659804 0
591 1 0.335233 0.63146 0
592 1 0.350472 0.652411 0
593 1 0.360879 0.631045 0
594 1 0.378342 0.646935 0
595 1 0.40198 0.634584 0
625 1 0.400227 0.658343 0
596 1 0.421947 0.647059 0
597 1 0.440513 0.63313 0
598 1 0.446877 0.657045 0
599 1 0.463786 0.63848 0
600 1 0.485806 0.647414 0
629 1 0.468761 0.665428 0
602 1 0.0133801 0.684452 0
603 1 0.032759 0.672042 0
633 1 0.0369218 0.695157 0
604 1 0.056373 0.680144 0
606 1 0.0811395 0.685837 0
635 1 0.0641325 0.703009 0
607 1 0.097355 0.669763 0
608 1 0.117816 0.685046 0
637 1 0.099053 0.704619 0
610 1 0.156104 0.674045 0
639 1 0.141986 0.694442 0
641 1 0.166065 0.707988 0
612 1 0.179548 0.689365 0
613 1 0.198454 0.674404 0
643 1 0.203847 0.69662 0
614 1 0.222032 0.682536 0
616 1 0.243891 0.686873 0
645 1 0.233269 0.707606 0
617 1 0.259683 0.669849 0
618 1 0.285055 0.676104 0
647 1 0.270372 0.694165 0
620 1 0.319565 0.684054 0
649 1 0.295 0.700191 0
623 1 0.369599 0.667755 0
622 1 0.34681 0.676519 0
651 1 0.337735 0.699582 0
653 1 0.362045 0.696597 0
624 1 0.382911 0.688125 0
626 1 0.406232 0.680814 0
655 1 0.400599 0.703843 0
627 1 0.427737 0.671226 0
628 1 0.453571 0.684659 0
657 1 0.424917 0.695604 0
630 1 0.48607 0.682335 0
659 1 0.470228 0.703857 0
1531 1 0.497873 0.703425 0
632 1 0.0151371 0.708922 0
663 1 0.0278034 0.730551 0
634 1 0.0465777 0.717453 0
665 1 0.0614712 0.736861 0
636 1 0.0801462 0.722706 0
638 1 0.122461 0.710322 0
667 1 0.105256 0.727492 0
666 1 0.0901268 0.745775 0
669 1 0.12722 0.733892 0
640 1 0.146736 0.721821 0
670 1 0.153411 0.745503 0
671 1 0.171951 0.730867 0
642 1 0.189462 0.714954 0
673 1 0.195983 0.73806 0
644 1 0.212759 0.720431 0
675 1 0.239815 0.731676 0
674 1 0.220612 0.745073 0
646 1 0.256134 0.714324 0
677 1 0.265112 0.738924 0
648 1 0.280096 0.720675 0
678 1 0.287133 0.7446 0
650 1 0.317121 0.707785 0
679 1 0.302674 0.726123 0
681 1 0.328489 0.731347 0
652 1 0.353436 0.721593 0
683 1 0.371216 0.737869 0
654 1 0.378831 0.712168 0
685 1 0.393904 0.729173 0
686 1 0.414865 0.741694 0
656 1 0.420882 0.717736 0
658 1 0.44564 0.709465 0
687 1 0.440508 0.733074 0
660 1 0.487552 0.724263 0
689 1 0.463843 0.727532 0
690 1 0.480166 0.747359 0
662 1 0.0166979 0.750589 0
691 1 0.00358308 0.770293 0
693 1 0.0281718 0.771584 0
692 1 0.0143871 0.792155 0
664 1 0.0427262 0.751823 0
695 1 0.0701907 0.758519 0
694 1 0.0533264 0.775886 0
696 1 0.075156 0.786478 0
668 1 0.114011 0.753262 0
697 1 0.0917932 0.768637 0
698 1 0.114102 0.781106 0
699 1 0.136589 0.761485 0
701 1 0.159945 0.771234 0
700 1 0.138074 0.784901 0
672 1 0.177818 0.754662 0
703 1 0.202511 0.760495 0
702 1 0.181918 0.783373 0
676 1 0.247435 0.754256 0
705 1 0.229158 0.769528 0
704 1 0.209011 0.783131 0
706 1 0.251954 0.778915 0
707 1 0.270844 0.763074 0
708 1 0.284229 0.791696 0
680 1 0.310955 0.749696 0
709 1 0.296285 0.769379 0
711 1 0.328179 0.768236 0
710 1 0.31124 0.788295 0
682 1 0.347849 0.749094 0
713 1 0.366871 0.765015 0
712 1 0.349604 0.78271 0
684 1 0.389306 0.752736 0
715 1 0.411366 0.764671 0
714 1 0.38918 0.777415 0
716 1 0.41869 0.78614 0
688 1 0.457348 0.751616 0
717 1 0.434654 0.75481 0
718 1 0.449698 0.774588 0
719 1 0.47412 0.77087 0
720 1 0.487319 0.790563 0
1591 1 0.49763 0.768132 0
722 1 0.0252395 0.813386 0
723 1 0.0372214 0.793191 0
751 1 0.00602086 0.827842 0
724 1 0.0474183 0.825687 0
725 1 0.0576954 0.801753 0
726 1 0.0768453 0.814124 0
727 1 0.096174 0.796878 0
728 1 0.115028 0.812353 0
757 1 0.0963469 0.829184 0
729 1 0.138058 0.807634 0
730 1 0.157625 0.81925 0
731 1 0.160372 0.793842 0
759 1 0.130676 0.832741 0
732 1 0.180285 0.808351 0
733 1 0.203868 0.804896 0
763 1 0.196052 0.827137 0
734 1 0.219354 0.823115 0
735 1 0.231597 0.792246 0
736 1 0.240119 0.813806 0
737 1 0.260267 0.800206 0
738 1 0.277312 0.818815 0
767 1 0.257633 0.830388 0
739 1 0.299922 0.808635 0
740 1 0.321446 0.820579 0
741 1 0.33324 0.800212 0
742 1 0.35523 0.814427 0
743 1 0.37129 0.794554 0
744 1 0.380081 0.817902 0
745 1 0.398065 0.799924 0
775 1 0.403195 0.823853 0
746 1 0.420473 0.80855 0
747 1 0.440916 0.795454 0
748 1 0.452598 0.817512 0
777 1 0.43058 0.829742 0
749 1 0.463364 0.795622 0
750 1 0.478291 0.816227 0
752 1 0.0105252 0.854167 0
753 1 0.0273244 0.837344 0
783 1 0.0330912 0.86845 0
754 1 0.0477233 0.848924 0
755 1 0.0706651 0.83594 0
785 1 0.0685986 0.862611 0
756 1 0.0895473 0.852223 0
758 1 0.113214 0.84819 0
787 1 0.10203 0.871934 0
789 1 0.134699 0.858641 0
760 1 0.151736 0.842698 0
791 1 0.1649 0.862535 0
761 1 0.174431 0.837346 0
762 1 0.187475 0.857443 0
793 1 0.205977 0.871482 0
764 1 0.209638 0.845692 0
765 1 0.234803 0.839969 0
795 1 0.228881 0.861865 0
766 1 0.252506 0.854951 0
797 1 0.269495 0.871181 0
768 1 0.277701 0.844672 0
769 1 0.299037 0.83291 0
770 1 0.318467 0.845474 0
799 1 0.296841 0.857062 0
801 1 0.329982 0.869147 0
771 1 0.341183 0.834127 0
772 1 0.350287 0.855688 0
773 1 0.366172 0.837806 0
803 1 0.371378 0.866657 0
774 1 0.389207 0.8432 0
805 1 0.398928 0.86495 0
776 1 0.414294 0.848132 0
778 1 0.440749 0.852825 0
807 1 0.423118 0.870209 0
779 1 0.465619 0.838775 0
780 1 0.487411 0.8528 0
809 1 0.465266 0.863846 0
782 1 0.0150273 0.885503 0
813 1 0.0377194 0.897957 0
812 1 0.017772 0.910305 0
784 1 0.0540631 0.880386 0
786 1 0.0799286 0.882812 0
815 1 0.0636362 0.90437 0
788 1 0.125443 0.879802 0
817 1 0.107841 0.895114 0
816 1 0.0880032 0.909543 0
818 1 0.113768 0.918537 0
819 1 0.133857 0.902756 0
790 1 0.149595 0.881995 0
821 1 0.160738 0.902908 0
792 1 0.177042 0.885162 0
823 1 0.200525 0.895679 0
822 1 0.182336 0.910377 0
794 1 0.222274 0.887807 0
796 1 0.24575 0.877889 0
825 1 0.235603 0.905798 0
827 1 0.260076 0.895869 0
798 1 0.286595 0.886985 0
828 1 0.277509 0.9106 0
800 1 0.307651 0.878997 0
829 1 0.305239 0.903181 0
831 1 0.326795 0.893172 0
802 1 0.350124 0.881465 0
833 1 0.361136 0.903685 0
832 1 0.341452 0.912189 0
804 1 0.38277 0.893918 0
835 1 0.403879 0.910515 0
806 1 0.405716 0.887587 0
834 1 0.381841 0.919664 0
808 1 0.447244 0.879512 0
837 1 0.428875 0.897979 0
838 1 0.445172 0.917884 0
810 1 0.477954 0.884836 0
839 1 0.463788 0.903011 0
840 1 0.484864 0.911259 0
842 1 0.0108186 0.95076 0
843 1 0.0254739 0.93301 0
814 1 0.0474275 0.921468 0
844 1 0.0457568 0.946858 0
845 1 0.067358 0.935277 0
846 1 0.0838822 0.954658 0
847 1 0.0945584 0.93392 0
848 1 0.110448 0.951185 0
849 1 0.128502 0.937314 0
820 1 0.148224 0.923439 0
850 1 0.151112 0.947858 0
851 1 0.171312 0.933899 0
853 1 0.195118 0.940325 0
824 1 0.207333 0.919812 0
854 1 0.216336 0.950921 0
855 1 0.230675 0.930379 0
826 1 0.254052 0.92061 0
856 1 0.253759 0.944485 0
857 1 0.273783 0.934115 0
858 1 0.29012 0.949678 0
830 1 0.320697 0.921456 0
859 1 0.296172 0.92633 0
860 1 0.314027 0.943167 0
861 1 0.337156 0.938058 0
862 1 0.354161 0.95512 0
863 1 0.360623 0.927067 0
864 1 0.376673 0.944531 0
865 1 0.398768 0.936367 0
836 1 0.422798 0.924697 0
866 1 0.418386 0.948454 0
867 1 0.443596 0.942474 0
868 1 0.453553 0.965942 0
1741 1 0.495178 0.94124 0
869 1 0.467762 0.927781 0
870 1 0.473671 0.953071 0
872 1 0.0224417 0.988814 0
873 1 0.0303573 0.965529 0
871 1 0.00449977 0.973488 0
874 1 0.0463485 0.983061 0
875 1 0.0623958 0.963673 0
876 1 0.0782525 0.983617 0
7 1 0.09973 0.997456 0
877 1 0.100022 0.97289 0
878 1 0.121073 0.984575 0
879 1 0.132319 0.962799 0
880 1 0.143696 0.990748 0
881 1 0.158911 0.971674 0
852 1 0.176449 0.95701 0
13 1 0.201668 0.994121 0
882 1 0.181357 0.981615 0
883 1 0.199847 0.96686 0
885 1 0.237325 0.960254 0
886 1 0.245023 0.98779 0
884 1 0.221109 0.977488 0
17 1 0.26951 0.991511 0
888 1 0.283466 0.972473 0
887 1 0.25829 0.968496 0
19 1 0.295943 0.993163 0
891 1 0.331825 0.959776 0
890 1 0.320161 0.987802 0
889 1 0.307096 0.968425 0
23 1 0.362709 0.993921 0
893 1 0.374604 0.969004 0
892 1 0.343947 0.980583 0
895 1 0.396766 0.95976 0
894 1 0.39025 0.986603 0
896 1 0.411573 0.978011 0
898 1 0.447357 0.987116 0
897 1 0.431103 0.967521 0
899 1 0.470767 0.980429 0
1651 1 0.498309 0.832238 0
1681 1 0.497906 0.873032 0
902 1 0.531882 0.0158435 0
933 1 0.53263 0.0400671 0
931 1 0.510116 0.0318759 0
901 1 0.511238 0.00635167 0
904 1 0.552788 0.0256428 0
935 1 0.57402 0.032266 0
905 1 0.565159 0.00452205 0
906 1 0.588116 0.0123444 0
908 1 0.613018 0.0207153 0
937 1 0.59729 0.0390729 0
909 1 0.630148 0.00537756 0
939 1 0.638848 0.030278 0
910 1 0.653048 0.0110284 0
941 1 0.663895 0.0371974 0
912 1 0.674943 0.0167479 0
913 1 0.695798 0.00395241 0
943 1 0.695745 0.0278233 0
914 1 0.718245 0.0206246 0
945 1 0.732363 0.0401909 0
916 1 0.753586 0.0119658 0
947 1 0.757401 0.0356696 0
918 1 0.777213 0.0200634 0
919 1 0.796578 0.00754803 0
920 1 0.821159 0.0146956 0
949 1 0.801525 0.0321272 0
951 1 0.832385 0.0362077 0
922 1 0.844982 0.0139228 0
953 1 0.860091 0.0336226 0
924 1 0.884914 0.0177944 0
925 1 0.907566 0.00267251 0
955 1 0.905149 0.0299393 0
926 1 0.926537 0.0186847 0
928 1 0.947701 0.00667711 0
957 1 0.931369 0.0416583 0
930 1 0.983336 0.0216308 0
959 1 0.959089 0.0263129 0
929 1 0.970471 0.00165323 0
932 1 0.513482 0.05658 0
962 1 0.521817 0.0808983 0
963 1 0.536772 0.0635008 0
934 1 0.558027 0.0488895 0
936 1 0.580989 0.0548076 0
965 1 0.564845 0.071178 0
966 1 0.586064 0.0816232 0
938 1 0.620393 0.0467184 0
967 1 0.603624 0.0631702 0
969 1 0.62732 0.0705259 0
940 1 0.644654 0.0522615 0
970 1 0.649861 0.077334 0
971 1 0.666733 0.0600294 0
942 1 0.687164 0.0501612 0
972 1 0.67482 0.0825235 0
973 1 0.703427 0.0717886 0
944 1 0.710831 0.0465175 0
975 1 0.727661 0.0651491 0
976 1 0.7461 0.080139 0
946 1 0.751509 0.0570703 0
977 1 0.769054 0.0722171 0
948 1 0.780437 0.0444281 0
950 1 0.815478 0.0554334 0
979 1 0.791251 0.0640842 0
980 1 0.808489 0.0802236 0
981 1 0.832464 0.0763051 0
952 1 0.847164 0.0545738 0
982 1 0.855044 0.0829948 0
983 1 0.869829 0.063434 0
954 1 0.885018 0.0436306 0
985 1 0.893033 0.0678091 0
986 1 0.915005 0.0792059 0
956 1 0.911101 0.0544829 0
958 1 0.953952 0.053191 0
987 1 0.933969 0.0658442 0
960 1 0.977466 0.043978 0
989 1 0.973956 0.0676708 0
61 1 0.99607 0.0590003 0
991 1 0.505045 0.0975582 0
992 1 0.509499 0.123055 0
993 1 0.527957 0.105488 0
964 1 0.545559 0.0867585 0
994 1 0.551395 0.112085 0
995 1 0.565916 0.0952276 0
996 1 0.575413 0.117717 0
968 1 0.610702 0.0889764 0
997 1 0.594912 0.105785 0
998 1 0.61917 0.113932 0
999 1 0.635189 0.0946775 0
1000 1 0.644374 0.117906 0
1001 1 0.660416 0.0998965 0
1002 1 0.686753 0.115772 0
1003 1 0.695423 0.0932611 0
974 1 0.719506 0.0885539 0
1004 1 0.710516 0.113902 0
1005 1 0.73866 0.102853 0
978 1 0.785271 0.0887596 0
1006 1 0.755389 0.119684 0
1007 1 0.762728 0.0967342 0
1008 1 0.779895 0.112558 0
1009 1 0.801541 0.104772 0
1010 1 0.820501 0.122171 0
1011 1 0.825026 0.0978848 0
1012 1 0.843978 0.114765 0
1013 1 0.866057 0.104897 0
984 1 0.880026 0.0867947 0
1014 1 0.884954 0.120835 0
1015 1 0.901162 0.0991332 0
1016 1 0.913946 0.12025 0
988 1 0.949627 0.084171 0
1017 1 0.929907 0.0995842 0
1018 1 0.953573 0.108464 0
990 1 0.99354 0.082459 0
1019 1 0.972427 0.0929146 0
1020 1 0.979255 0.117023 0
1022 1 0.519755 0.14661 0
1023 1 0.533812 0.12755 0
1051 1 0.501689 0.160188 0
1024 1 0.54278 0.151139 0
1025 1 0.564313 0.138242 0
1055 1 0.569371 0.163993 0
1026 1 0.586805 0.148336 0
1027 1 0.602693 0.130074 0
1028 1 0.612478 0.152814 0
1029 1 0.631326 0.138458 0
1059 1 0.636779 0.164945 0
1030 1 0.653568 0.148315 0
1031 1 0.668282 0.129897 0
1032 1 0.677962 0.153921 0
1033 1 0.696746 0.137548 0
1063 1 0.703362 0.161504 0
1034 1 0.722647 0.146541 0
1035 1 0.732195 0.126009 0
1036 1 0.748166 0.14485 0
1037 1 0.773751 0.134932 0
1067 1 0.769025 0.15947 0
1038 1 0.790604 0.151542 0
1039 1 0.798834 0.129974 0
1040 1 0.812818 0.147761 0
1071 1 0.831898 0.161876 0
1041 1 0.83616 0.138959 0
1042 1 0.85451 0.15472 0
1043 1 0.86274 0.129565 0
1044 1 0.877367 0.148945 0
1045 1 0.899399 0.140795 0
1075 1 0.903625 0.162726 0
1046 1 0.922055 0.14422 0
1047 1 0.937751 0.126534 0
1048 1 0.945907 0.150659 0
1049 1 0.960306 0.131341 0
1050 1 0.979593 0.143329 0
121 1 0.999443 0.132152 0
151 1 0.997384 0.159538 0
1053 1 0.529191 0.170022 0
1052 1 0.510582 0.183175 0
1083 1 0.535352 0.197848 0
1054 1 0.552019 0.180054 0
1056 1 0.579309 0.186533 0
1085 1 0.56476 0.204513 0
1057 1 0.597496 0.171539 0
1058 1 0.62042 0.181157 0
1087 1 0.605539 0.199188 0
1061 1 0.662949 0.174483 0
1060 1 0.646317 0.191169 0
1091 1 0.673346 0.198744 0
1062 1 0.691066 0.181228 0
1093 1 0.698986 0.203342 0
1065 1 0.736428 0.168368 0
1064 1 0.715075 0.18413 0
1095 1 0.738456 0.193073 0
1066 1 0.758375 0.179586 0
1097 1 0.763657 0.2025 0
1068 1 0.783096 0.182775 0
1069 1 0.806002 0.17176 0
1070 1 0.824986 0.185786 0
1099 1 0.804418 0.195909 0
1073 1 0.872462 0.171365 0
1072 1 0.847884 0.179187 0
1101 1 0.838706 0.204853 0
1103 1 0.866332 0.194436 0
1074 1 0.890757 0.187709 0
1105 1 0.904679 0.207527 0
1076 1 0.915206 0.185183 0
1077 1 0.928833 0.167439 0
1078 1 0.950408 0.177104 0
1107 1 0.935673 0.196761 0
1079 1 0.969208 0.163054 0
1080 1 0.985045 0.181131 0
1109 1 0.965875 0.19446 0
1082 1 0.519775 0.215214 0
1111 1 0.504637 0.23258 0
1113 1 0.527892 0.237233 0
1084 1 0.547473 0.221155 0
1114 1 0.551131 0.246152 0
1115 1 0.569127 0.230972 0
1086 1 0.586768 0.214713 0
1088 1 0.611662 0.222968 0
1117 1 0.595014 0.238541 0
1118 1 0.620189 0.244591 0
1089 1 0.631234 0.208485 0
1090 1 0.657884 0.218473 0
1119 1 0.640006 0.232752 0
1121 1 0.670509 0.241503 0
1092 1 0.682929 0.222233 0
1122 1 0.693643 0.249439 0
1123 1 0.705199 0.228734 0
1094 1 0.724699 0.214474 0
1096 1 0.74947 0.221514 0
1125 1 0.732317 0.2371 0
1098 1 0.785559 0.208773 0
1126 1 0.755769 0.245923 0
1127 1 0.772557 0.230105 0
1100 1 0.815177 0.218219 0
1129 1 0.795634 0.234306 0
1130 1 0.818341 0.241299 0
1102 1 0.859075 0.217111 0
1131 1 0.837282 0.227746 0
1132 1 0.846869 0.249058 0
1133 1 0.871118 0.236388 0
1104 1 0.881937 0.213971 0
1135 1 0.900026 0.23024 0
1136 1 0.915355 0.247861 0
1106 1 0.923863 0.218797 0
1108 1 0.952461 0.214547 0
1137 1 0.93917 0.238225 0
1110 1 0.978449 0.215225 0
1139 1 0.964567 0.237242 0
1140 1 0.98528 0.246473 0
211 1 0.999105 0.226671 0
1112 1 0.511832 0.255674 0
1142 1 0.521708 0.282614 0
1143 1 0.535636 0.263717 0
1116 1 0.578178 0.25467 0
1144 1 0.545432 0.290304 0
1145 1 0.560138 0.272148 0
1146 1 0.586153 0.277565 0
1147 1 0.602165 0.260152 0
1148 1 0.611445 0.284029 0
1120 1 0.65048 0.255142 0
1149 1 0.629193 0.268196 0
1150 1 0.653869 0.278773 0
1151 1 0.67417 0.266765 0