ITEM: TIMESTEP
42000
ITEM: NUMBER OF ATOMS
1800
ITEM: BOX BOUNDS pp pp pp
9.0386154135048002e-01 1.6409613845864982e+02
9.0386154135048002e-01 1.6409613845864982e+02
0.0000000000000000e+00 5.5000000000000000e+00
ITEM: ATOMS id type xs ys zs
2 1 0.0156849 0.00739346 0
3 1 0.0392616 0.00128701 0
33 1 0.0319932 0.0262756 0
31 1 0.00856699 0.0327452 0
4 1 0.055423 0.0186122 0
6 1 0.0795197 0.013337 0
35 1 0.0727847 0.0363636 0
8 1 0.103084 0.0073934 0
37 1 0.096876 0.0316432 0
39 1 0.121085 0.0246875 0
9 1 0.127885 0.00102902 0
10 1 0.145171 0.0180668 0
41 1 0.170798 0.0103943 0
42 1 0.163339 0.0341188 0
40 1 0.138919 0.0415699 0
12 1 0.195291 0.00285998 0
43 1 0.189379 0.0270799 0
14 1 0.215405 0.0203688 0
45 1 0.233849 0.0381956 0
16 1 0.258253 0.0243436 0
886 1 0.23875 0.0103296 0
18 1 0.283015 0.0167951 0
49 1 0.303314 0.0331942 0
20 1 0.30602 0.00512647 0
51 1 0.325144 0.0191881 0
22 1 0.346778 0.0297025 0
21 1 0.354176 0.00617622 0
24 1 0.388864 0.0196747 0
53 1 0.370654 0.0359168 0
894 1 0.406421 0.00389451 0
25 1 0.412828 0.0277421 0
26 1 0.437284 0.0347359 0
27 1 0.430735 0.0106328 0
898 1 0.454882 0.0171391 0
28 1 0.461542 0.0419094 0
29 1 0.479038 0.0252784 0
900 1 0.497501 0.00732731 0
899 1 0.473664 0.000677068 0
32 1 0.0253214 0.0500189 0
62 1 0.0160534 0.0739219 0
61 1 0.000151348 0.0562522 0
63 1 0.0413148 0.0673533 0
34 1 0.0498136 0.0433499 0
65 1 0.0667366 0.061274 0
66 1 0.0832678 0.0788889 0
64 1 0.05833 0.0845888 0
36 1 0.090409 0.0551762 0
38 1 0.114627 0.0488852 0
67 1 0.107735 0.0724244 0
69 1 0.132302 0.0661172 0
71 1 0.156618 0.058335 0
72 1 0.173648 0.0766379 0
70 1 0.149925 0.0831776 0
44 1 0.206083 0.0446741 0
73 1 0.180621 0.0513757 0
74 1 0.221549 0.0638971 0
103 1 0.197546 0.0698663 0
46 1 0.263818 0.0494593 0
75 1 0.246473 0.0674488 0
77 1 0.269747 0.0740618 0
47 1 0.287988 0.0558592 0
48 1 0.311576 0.0640246 0
78 1 0.293122 0.0806824 0
50 1 0.327694 0.0445109 0
81 1 0.335234 0.0690093 0
52 1 0.353441 0.0536092 0
82 1 0.358645 0.0780203 0
55 1 0.394944 0.0443728 0
83 1 0.376778 0.0607325 0
54 1 0.400624 0.0682298 0
113 1 0.382213 0.0850297 0
57 1 0.443066 0.0581214 0
85 1 0.42465 0.075506 0
56 1 0.419407 0.0514648 0
87 1 0.448783 0.082169 0
59 1 0.485794 0.0494485 0
58 1 0.466851 0.0659018 0
89 1 0.49129 0.074101 0
990 1 0.00848049 0.0974181 0
92 1 0.0262424 0.11461 0
93 1 0.0329733 0.0911403 0
91 1 0.0014047 0.120235 0
94 1 0.0499406 0.108681 0
95 1 0.0755156 0.102595 0
125 1 0.0672149 0.126509 0
96 1 0.0920006 0.120994 0
68 1 0.12415 0.0901254 0
97 1 0.0994552 0.096531 0
98 1 0.116584 0.114242 0
99 1 0.141017 0.107187 0
100 1 0.166597 0.101629 0
130 1 0.156899 0.126094 0
131 1 0.182213 0.120495 0
101 1 0.190774 0.0950134 0
102 1 0.207751 0.112872 0
105 1 0.216087 0.0893389 0
76 1 0.250079 0.0927172 0
106 1 0.232481 0.110187 0
137 1 0.257818 0.115487 0
79 1 0.316132 0.0880542 0
107 1 0.275829 0.0986873 0
108 1 0.281104 0.124124 0
109 1 0.298555 0.106404 0
139 1 0.305115 0.130298 0
80 1 0.34016 0.0941239 0
110 1 0.322181 0.113385 0
141 1 0.345896 0.119312 0
111 1 0.363565 0.102491 0
84 1 0.407378 0.0927014 0
112 1 0.387463 0.109841 0
143 1 0.369831 0.126876 0
115 1 0.413693 0.116491 0
86 1 0.431102 0.099111 0
116 1 0.436621 0.124124 0
117 1 0.454362 0.107059 0
88 1 0.472421 0.0911796 0
90 1 0.497419 0.0978058 0
119 1 0.479389 0.114618 0
123 1 0.0426258 0.13237 0
122 1 0.0185384 0.138675 0
153 1 0.0354478 0.155663 0
152 1 0.0112852 0.162277 0
124 1 0.0596685 0.150157 0
126 1 0.0838853 0.145094 0
155 1 0.0770364 0.16904 0
127 1 0.107636 0.13955 0
128 1 0.125784 0.157281 0
157 1 0.10137 0.163453 0
129 1 0.132464 0.132481 0
159 1 0.150025 0.150626 0
132 1 0.173412 0.14458 0
161 1 0.16603 0.169437 0
104 1 0.219797 0.133007 0
133 1 0.197025 0.140072 0
163 1 0.189969 0.163341 0
134 1 0.214847 0.157589 0
135 1 0.242819 0.13342 0
136 1 0.264414 0.141947 0
165 1 0.245923 0.157771 0
167 1 0.268989 0.16598 0
138 1 0.287465 0.14819 0
169 1 0.310285 0.155681 0
168 1 0.293382 0.17288 0
140 1 0.328408 0.137681 0
142 1 0.352433 0.144188 0
171 1 0.33389 0.160782 0
172 1 0.359105 0.167528 0
114 1 0.395079 0.133768 0
173 1 0.376671 0.151155 0
144 1 0.40096 0.158 0
145 1 0.419195 0.14089 0
146 1 0.42549 0.165728 0
147 1 0.441811 0.148255 0
177 1 0.449886 0.172502 0
118 1 0.460611 0.130695 0
149 1 0.48535 0.13837 0
148 1 0.467178 0.155547 0
150 1 0.491091 0.163634 0
183 1 0.0298918 0.180186 0
182 1 0.0215095 0.205107 0
1080 1 0.00518325 0.185902 0
154 1 0.0538541 0.174444 0
184 1 0.0459611 0.199289 0
185 1 0.0702915 0.193222 0
186 1 0.086607 0.211995 0
215 1 0.0633443 0.217314 0
156 1 0.0936565 0.18698 0
158 1 0.11832 0.181403 0
187 1 0.111084 0.205025 0
189 1 0.135836 0.198843 0
160 1 0.142413 0.174865 0
191 1 0.159131 0.19262 0
221 1 0.177288 0.211587 0
190 1 0.152657 0.217151 0
162 1 0.182695 0.187181 0
193 1 0.206715 0.181728 0
192 1 0.20007 0.205453 0
164 1 0.230514 0.176562 0
195 1 0.233159 0.202145 0
166 1 0.252363 0.184955 0
196 1 0.257479 0.209356 0
197 1 0.275302 0.190509 0
199 1 0.299588 0.196833 0
198 1 0.281279 0.214743 0
170 1 0.316963 0.179275 0
201 1 0.341267 0.185249 0
200 1 0.323459 0.203306 0
202 1 0.347231 0.209975 0
174 1 0.383279 0.175641 0
203 1 0.364637 0.191401 0
204 1 0.389274 0.199962 0
175 1 0.407682 0.183203 0
233 1 0.370809 0.216588 0
205 1 0.413101 0.207297 0
176 1 0.431267 0.189865 0
207 1 0.436915 0.214333 0
178 1 0.454697 0.197115 0
179 1 0.473513 0.180483 0
180 1 0.496464 0.188272 0
209 1 0.478159 0.204731 0
213 1 0.0396924 0.222816 0
212 1 0.0158525 0.229002 0
243 1 0.0330515 0.246194 0
241 1 0.00919002 0.252778 0
216 1 0.0810039 0.237049 0
214 1 0.0563527 0.240792 0
188 1 0.12799 0.223116 0
217 1 0.10369 0.230105 0
218 1 0.121198 0.247129 0
247 1 0.0982077 0.255313 0
219 1 0.145543 0.241143 0
220 1 0.169169 0.234906 0
222 1 0.183812 0.254732 0
223 1 0.194485 0.231728 0
194 1 0.217485 0.222459 0
224 1 0.222357 0.246094 0
225 1 0.241299 0.2269 0
227 1 0.264133 0.233374 0
226 1 0.247327 0.251481 0
257 1 0.270328 0.257612 0
228 1 0.287682 0.239335 0
229 1 0.305856 0.220654 0
230 1 0.311544 0.244994 0
231 1 0.329244 0.226767 0
232 1 0.352977 0.233349 0
261 1 0.33535 0.25122 0
263 1 0.359108 0.257764 0
234 1 0.376567 0.240666 0
235 1 0.394936 0.223989 0
265 1 0.401268 0.247799 0
236 1 0.424277 0.255794 0
206 1 0.418769 0.23081 0
237 1 0.442385 0.238289 0
208 1 0.460632 0.22175 0
210 1 0.484231 0.229731 0
239 1 0.466611 0.246133 0
240 1 0.490062 0.254319 0
242 1 0.0226667 0.273352 0
273 1 0.0432976 0.287609 0
271 1 0.0234646 0.30092 0
1170 1 0.0015899 0.290309 0
245 1 0.0729723 0.260125 0
244 1 0.0489477 0.264539 0
275 1 0.0673573 0.290856 0
246 1 0.0904389 0.279333 0
276 1 0.0874327 0.305505 0
248 1 0.1154 0.273519 0
279 1 0.127999 0.299366 0
251 1 0.163769 0.26763 0
249 1 0.137907 0.264423 0
250 1 0.1481 0.286522 0
281 1 0.170009 0.29645 0
253 1 0.206088 0.263758 0
252 1 0.186551 0.278524 0
254 1 0.210913 0.287418 0
255 1 0.229687 0.269591 0
256 1 0.252703 0.275264 0
285 1 0.23458 0.29449 0
287 1 0.258786 0.299792 0
259 1 0.294086 0.262511 0
258 1 0.276545 0.282239 0
289 1 0.299125 0.286992 0
260 1 0.317283 0.269283 0
262 1 0.34098 0.274724 0
291 1 0.322822 0.293036 0
292 1 0.346852 0.298285 0
264 1 0.383281 0.264887 0
293 1 0.364607 0.281348 0
295 1 0.387011 0.289501 0
266 1 0.40736 0.273145 0
238 1 0.448332 0.262725 0
267 1 0.429987 0.280446 0
268 1 0.45297 0.28866 0
297 1 0.415281 0.300378 0
1141 1 0.494236 0.27913 0
269 1 0.471026 0.270853 0
270 1 0.476204 0.296705 0
301 1 0.0241078 0.325443 0
1230 1 0.00234204 0.339541 0
272 1 0.0457858 0.311239 0
1200 1 0.00219769 0.314988 0
303 1 0.0475861 0.335928 0
274 1 0.0678537 0.319999 0
305 1 0.0893941 0.33131 0
304 1 0.0692852 0.345591 0
277 1 0.109913 0.315489 0
278 1 0.130911 0.327288 0
307 1 0.111394 0.341724 0
280 1 0.151234 0.312347 0
311 1 0.155103 0.336758 0
282 1 0.174895 0.320359 0
312 1 0.178919 0.344559 0
283 1 0.192909 0.30382 0
284 1 0.216278 0.312484 0
313 1 0.198758 0.329691 0
315 1 0.223605 0.338961 0
286 1 0.239794 0.319496 0
317 1 0.262883 0.322843 0
288 1 0.28239 0.306773 0
318 1 0.277019 0.341582 0
290 1 0.306512 0.311359 0
319 1 0.299663 0.334959 0
321 1 0.324308 0.328255 0
323 1 0.348134 0.322168 0
322 1 0.340793 0.34676 0
324 1 0.364556 0.340118 0
294 1 0.369592 0.309353 0
325 1 0.387358 0.334855 0
296 1 0.393426 0.311896 0
298 1 0.434241 0.317508 0
327 1 0.412191 0.327849 0
328 1 0.430372 0.343259 0
329 1 0.463062 0.340155 0
299 1 0.457943 0.314118 0
300 1 0.481335 0.321097 0
1201 1 0.487494 0.345616 0
302 1 0.0259632 0.350496 0
332 1 0.0288769 0.375484 0
331 1 0.00542733 0.364744 0
361 1 0.00780575 0.389223 0
333 1 0.0492172 0.360127 0
335 1 0.071101 0.3708 0
334 1 0.0505039 0.385553 0
306 1 0.0920091 0.356691 0
337 1 0.0957655 0.381127 0
308 1 0.116422 0.36636 0
309 1 0.135391 0.352011 0
338 1 0.119133 0.391611 0
339 1 0.13903 0.377058 0
310 1 0.158039 0.360824 0
341 1 0.161527 0.387035 0
343 1 0.182136 0.370401 0
314 1 0.201626 0.355825 0
344 1 0.204225 0.380399 0
345 1 0.224251 0.363963 0
316 1 0.247955 0.348428 0
375 1 0.227462 0.391772 0
347 1 0.268932 0.36471 0
346 1 0.245756 0.374061 0
377 1 0.264588 0.389128 0
349 1 0.294152 0.358816 0
348 1 0.28777 0.382071 0
350 1 0.311273 0.377249 0
320 1 0.317863 0.352561 0
351 1 0.334389 0.37013 0
353 1 0.358247 0.36353 0
352 1 0.350935 0.388238 0
355 1 0.381669 0.35788 0
354 1 0.375276 0.381583 0
356 1 0.399488 0.37512 0
326 1 0.406328 0.351392 0
357 1 0.424786 0.369196 0
359 1 0.44693 0.360105 0
358 1 0.444595 0.384915 0
330 1 0.470664 0.363832 0
1231 1 0.493758 0.3706 0
360 1 0.474027 0.387889 0
363 1 0.0316126 0.400318 0
362 1 0.0108031 0.414581 0
364 1 0.0340898 0.424723 0
336 1 0.0745379 0.395495 0
365 1 0.0543624 0.410636 0
366 1 0.078485 0.421398 0
395 1 0.0586617 0.435543 0
367 1 0.0972608 0.405747 0
369 1 0.120876 0.416832 0
368 1 0.10111 0.431398 0
340 1 0.141162 0.402646 0
370 1 0.143376 0.427153 0
371 1 0.163528 0.412419 0
342 1 0.184369 0.395387 0
372 1 0.186497 0.421378 0
373 1 0.206783 0.405464 0
403 1 0.208099 0.433358 0
374 1 0.228042 0.417606 0
376 1 0.247767 0.404372 0
405 1 0.250798 0.428362 0
378 1 0.271154 0.413389 0
379 1 0.302437 0.400585 0
409 1 0.294903 0.424602 0
381 1 0.327683 0.395079 0
382 1 0.344278 0.412456 0
380 1 0.319156 0.418047 0
413 1 0.361688 0.429682 0
383 1 0.367855 0.405711 0
385 1 0.392557 0.399216 0
384 1 0.385406 0.423005 0
386 1 0.41002 0.416921 0
387 1 0.416219 0.391766 0
388 1 0.433459 0.407593 0
419 1 0.446842 0.427458 0
389 1 0.45835 0.406429 0
1261 1 0.482502 0.413061 0
390 1 0.469949 0.43463 0
1232 1 0.499058 0.394823 0
393 1 0.0140795 0.439384 0
423 1 0.0177802 0.46347 0
394 1 0.0381466 0.449609 0
425 1 0.0403562 0.474176 0
396 1 0.0607935 0.461513 0
397 1 0.0818758 0.44599 0
427 1 0.0840373 0.471257 0
399 1 0.12343 0.44208 0
398 1 0.104118 0.457486 0
429 1 0.12657 0.468038 0
401 1 0.166071 0.436874 0
400 1 0.146066 0.452423 0
431 1 0.168022 0.462632 0
430 1 0.148479 0.478174 0
402 1 0.188206 0.447264 0
433 1 0.209854 0.458044 0
432 1 0.190292 0.47264 0
404 1 0.230727 0.442556 0
406 1 0.253686 0.452737 0
435 1 0.233747 0.467753 0
436 1 0.255802 0.478772 0
407 1 0.273108 0.437928 0
437 1 0.275215 0.464403 0
408 1 0.294071 0.450001 0
410 1 0.315231 0.441923 0
439 1 0.303647 0.474868 0
411 1 0.33836 0.43611 0
412 1 0.353106 0.455467 0
441 1 0.328915 0.463313 0
415 1 0.401194 0.441115 0
414 1 0.377729 0.44834 0
445 1 0.395219 0.469161 0
443 1 0.370943 0.47243 0
417 1 0.425071 0.436168 0
418 1 0.45095 0.451527 0
416 1 0.416734 0.459187 0
447 1 0.436773 0.471402 0
1291 1 0.492562 0.439077 0
420 1 0.476093 0.457666 0
449 1 0.459922 0.475608 0
454 1 0.023222 0.513958 0
424 1 0.0198927 0.488731 0
455 1 0.0423769 0.499013 0
426 1 0.0628905 0.48501 0
456 1 0.0649404 0.510688 0
457 1 0.0856079 0.496583 0
428 1 0.105925 0.482399 0
459 1 0.128586 0.493397 0
458 1 0.108611 0.508473 0
489 1 0.131266 0.519431 0
461 1 0.171429 0.489292 0
460 1 0.151406 0.50374 0
462 1 0.174701 0.513665 0
434 1 0.212763 0.482379 0
463 1 0.194061 0.498559 0
464 1 0.217536 0.507764 0
465 1 0.235724 0.49266 0
467 1 0.259073 0.503401 0
466 1 0.239737 0.518502 0
438 1 0.281015 0.487981 0
469 1 0.303303 0.50151 0
468 1 0.281765 0.513043 0
442 1 0.346885 0.480887 0
440 1 0.323754 0.488412 0
471 1 0.341018 0.505873 0
470 1 0.321151 0.520361 0
444 1 0.382094 0.494579 0
473 1 0.363293 0.513829 0
475 1 0.403459 0.505859 0
446 1 0.417826 0.486779 0
477 1 0.42668 0.512371 0
448 1 0.443352 0.494539 0
478 1 0.45094 0.517514 0
450 1 0.484344 0.480331 0
479 1 0.468209 0.499739 0
1381 1 0.491753 0.50443 0
452 1 0.00204582 0.52867 0
483 1 0.0252122 0.539436 0
482 1 0.00416965 0.553723 0
513 1 0.027561 0.563087 0
487 1 0.0881465 0.5214 0
485 1 0.0454305 0.524893 0
484 1 0.0485289 0.549578 0
486 1 0.0686421 0.53525 0
515 1 0.0705691 0.560945 0
517 1 0.0912067 0.547355 0
488 1 0.111123 0.533237 0
519 1 0.114396 0.558947 0
490 1 0.13506 0.545256 0
491 1 0.154789 0.528679 0
521 1 0.159501 0.555396 0
492 1 0.178181 0.539015 0
493 1 0.197769 0.522495 0
494 1 0.20103 0.549762 0
495 1 0.220489 0.53365 0
525 1 0.223707 0.561027 0
496 1 0.243075 0.544004 0
497 1 0.262017 0.527847 0
527 1 0.266813 0.553026 0
499 1 0.30944 0.542195 0
498 1 0.285266 0.536346 0
529 1 0.290755 0.560258 0
472 1 0.345173 0.53092 0
501 1 0.332381 0.551012 0
502 1 0.354633 0.559337 0
474 1 0.387058 0.523164 0
503 1 0.368838 0.538376 0
505 1 0.392859 0.548183 0
476 1 0.409999 0.529932 0
507 1 0.435168 0.536432 0
506 1 0.41793 0.554185 0
508 1 0.442017 0.560376 0
480 1 0.475304 0.522933 0
509 1 0.458794 0.541694 0
510 1 0.482479 0.546452 0
1382 1 0.499251 0.527978 0
512 1 0.0290479 0.588674 0
511 1 0.0068149 0.577774 0
541 1 0.00888083 0.602389 0
514 1 0.050277 0.574406 0
545 1 0.0732183 0.587129 0
543 1 0.0515976 0.600344 0
516 1 0.0936582 0.573245 0
518 1 0.117601 0.584562 0
547 1 0.09711 0.599254 0
520 1 0.138554 0.57107 0
549 1 0.142722 0.596892 0
522 1 0.163526 0.581817 0
523 1 0.181923 0.566241 0
524 1 0.205454 0.576452 0
553 1 0.18604 0.592643 0
554 1 0.209941 0.601401 0
555 1 0.228793 0.584778 0
526 1 0.248636 0.569192 0
557 1 0.252928 0.593734 0
528 1 0.272103 0.577539 0
500 1 0.31353 0.567356 0
558 1 0.276422 0.601472 0
559 1 0.294944 0.584905 0
530 1 0.318357 0.593727 0
531 1 0.336115 0.576717 0
532 1 0.342482 0.601972 0
533 1 0.359731 0.585257 0
504 1 0.377461 0.567056 0
534 1 0.384279 0.590916 0
535 1 0.401542 0.572629 0
536 1 0.408179 0.596938 0
537 1 0.425568 0.578608 0
567 1 0.433529 0.60246 0
538 1 0.450364 0.583996 0
539 1 0.46684 0.566012 0
540 1 0.491525 0.570088 0
569 1 0.475539 0.590397 0
542 1 0.031562 0.614512 0
571 1 0.0103635 0.626554 0
573 1 0.0336851 0.638996 0
572 1 0.0127683 0.650955 0
544 1 0.0539357 0.625855 0
546 1 0.0756271 0.611682 0
575 1 0.07702 0.636288 0
574 1 0.0557025 0.650295 0
548 1 0.121086 0.608157 0
577 1 0.0973786 0.623069 0
579 1 0.121071 0.63411 0
576 1 0.0993114 0.647649 0
551 1 0.166893 0.607206 0
550 1 0.144925 0.621892 0
581 1 0.174489 0.633271 0
580 1 0.156551 0.649237 0
552 1 0.191912 0.616792 0
582 1 0.198091 0.642965 0
583 1 0.215979 0.625425 0
584 1 0.221571 0.649557 0
556 1 0.234433 0.609507 0
585 1 0.240023 0.63402 0
586 1 0.264217 0.643417 0
587 1 0.258445 0.618369 0
560 1 0.300292 0.609934 0
589 1 0.282139 0.626155 0
590 1 0.305906 0.634628 0
588 1 0.287139 0.651574 0
561 1 0.324083 0.617841 0
562 1 0.348195 0.625643 0
591 1 0.330256 0.64333 0
593 1 0.354324 0.649715 0
563 1 0.3665 0.608963 0
565 1 0.390818 0.614999 0
564 1 0.37267 0.632706 0
595 1 0.397828 0.639104 0
566 1 0.415046 0.621896 0
596 1 0.421959 0.646481 0
597 1 0.43989 0.6264 0
599 1 0.447547 0.649341 0
568 1 0.45721 0.60753 0
570 1 0.483946 0.61393 0
600 1 0.466776 0.633118 0
1471 1 0.492156 0.637551 0
602 1 0.0136556 0.674283 0
603 1 0.0361641 0.665411 0
633 1 0.0406716 0.692737 0
605 1 0.078494 0.66168 0
604 1 0.0590174 0.677084 0
606 1 0.0812582 0.688497 0
578 1 0.119847 0.658922 0
607 1 0.100002 0.673172 0
608 1 0.122215 0.683462 0
609 1 0.142118 0.668532 0
611 1 0.180932 0.660105 0
610 1 0.164807 0.677866 0
639 1 0.14596 0.693421 0
612 1 0.187877 0.685103 0
613 1 0.205719 0.667876 0
643 1 0.211086 0.692921 0
614 1 0.228591 0.676736 0
615 1 0.245747 0.660525 0
616 1 0.251729 0.684609 0
617 1 0.269559 0.668677 0
647 1 0.275522 0.693802 0
619 1 0.312161 0.659482 0
618 1 0.293896 0.677064 0
620 1 0.318017 0.684587 0
621 1 0.335915 0.66762 0
592 1 0.359503 0.675239 0
622 1 0.341828 0.693432 0
594 1 0.378513 0.657173 0
625 1 0.402664 0.662913 0
623 1 0.383579 0.681108 0
598 1 0.449474 0.672 0
627 1 0.424721 0.673174 0
657 1 0.439243 0.693151 0
628 1 0.467853 0.68783 0
629 1 0.470542 0.658342 0
630 1 0.494344 0.687984 0
1501 1 0.495728 0.662486 0
632 1 0.0168025 0.697823 0
663 1 0.0196295 0.72151 0
634 1 0.0436628 0.72361 0
635 1 0.0621217 0.70587 0
636 1 0.0853489 0.715709 0
665 1 0.0671412 0.731991 0
637 1 0.103929 0.699957 0
638 1 0.126676 0.708072 0
667 1 0.109089 0.72485 0
669 1 0.132991 0.733572 0
641 1 0.170437 0.701316 0
640 1 0.150806 0.717502 0
671 1 0.174873 0.725074 0
642 1 0.193785 0.709527 0
673 1 0.198006 0.734293 0
644 1 0.216248 0.718235 0
645 1 0.234322 0.702167 0
675 1 0.239767 0.726514 0
646 1 0.25749 0.709827 0
677 1 0.263498 0.734815 0
649 1 0.300473 0.702394 0
648 1 0.281998 0.719031 0
679 1 0.306235 0.727419 0
650 1 0.324063 0.709996 0
651 1 0.348333 0.717236 0
681 1 0.329795 0.735546 0
653 1 0.366319 0.69887 0
624 1 0.390416 0.705372 0
654 1 0.374607 0.724205 0
655 1 0.40935 0.722048 0
626 1 0.415272 0.696588 0
656 1 0.432948 0.71713 0
687 1 0.452643 0.735156 0
658 1 0.45653 0.711065 0
659 1 0.480474 0.709191 0
689 1 0.477615 0.734501 0
662 1 0.025146 0.744562 0
691 1 0.00572352 0.760494 0
693 1 0.0295345 0.7692 0
664 1 0.0482573 0.749249 0
695 1 0.0711388 0.757219 0
694 1 0.0531879 0.77554 0
666 1 0.0899898 0.740387 0
697 1 0.0948176 0.764965 0
668 1 0.113878 0.749545 0
698 1 0.119608 0.774376 0
699 1 0.137114 0.758241 0
670 1 0.157259 0.742035 0
701 1 0.161212 0.76622 0
672 1 0.180063 0.750277 0
702 1 0.184484 0.774379 0
674 1 0.22107 0.743007 0
703 1 0.203172 0.759117 0
705 1 0.226705 0.769012 0
676 1 0.244854 0.751294 0
707 1 0.267588 0.758329 0
678 1 0.28809 0.743786 0
680 1 0.312377 0.754379 0
709 1 0.291258 0.77012 0
652 1 0.354781 0.741357 0
682 1 0.354981 0.76586 0
711 1 0.330335 0.772335 0
685 1 0.400882 0.745394 0
683 1 0.377654 0.753435 0
713 1 0.374426 0.781276 0
684 1 0.395791 0.77148 0
686 1 0.427063 0.740108 0
715 1 0.418441 0.762575 0
717 1 0.443276 0.758302 0
718 1 0.452061 0.78063 0
690 1 0.492768 0.762777 0
688 1 0.467765 0.758326 0
719 1 0.476878 0.781892 0
692 1 0.0102701 0.784313 0
722 1 0.016108 0.807775 0
723 1 0.0351377 0.792269 0
724 1 0.0409841 0.81685 0
696 1 0.0773203 0.782113 0
725 1 0.0596523 0.799581 0
726 1 0.0831994 0.806889 0
755 1 0.0646982 0.824832 0
727 1 0.101191 0.789965 0
728 1 0.125862 0.798954 0
757 1 0.106956 0.815096 0
759 1 0.129619 0.824059 0
700 1 0.144372 0.782789 0
729 1 0.149204 0.807161 0
730 1 0.174242 0.819351 0
731 1 0.169865 0.794241 0
704 1 0.207033 0.784446 0
732 1 0.198507 0.811027 0
733 1 0.221691 0.80369 0
706 1 0.267687 0.782786 0
735 1 0.24284 0.791581 0
736 1 0.24144 0.817699 0
737 1 0.264741 0.807378 0
710 1 0.309281 0.786389 0
708 1 0.28803 0.796866 0
738 1 0.284568 0.8217 0
739 1 0.307054 0.812158 0
712 1 0.351278 0.791342 0
741 1 0.328804 0.800824 0
742 1 0.348784 0.81571 0
740 1 0.326325 0.827058 0
714 1 0.395026 0.796428 0
743 1 0.371121 0.806614 0
745 1 0.392135 0.820627 0
716 1 0.417365 0.786845 0
746 1 0.415397 0.811201 0
747 1 0.438565 0.801359 0
749 1 0.463574 0.802701 0
720 1 0.487763 0.805114 0
750 1 0.473071 0.824324 0
752 1 0.00430357 0.847776 0
753 1 0.0222942 0.830906 0
783 1 0.0270801 0.855472 0
754 1 0.0466126 0.841438 0
785 1 0.0708186 0.848494 0
756 1 0.0892092 0.832594 0
784 1 0.0525911 0.864562 0
758 1 0.112872 0.841387 0
787 1 0.0940079 0.857593 0
788 1 0.121248 0.867825 0
789 1 0.145592 0.855651 0
760 1 0.152963 0.831973 0
761 1 0.171896 0.847542 0
734 1 0.217702 0.827583 0
763 1 0.193392 0.836583 0
762 1 0.192552 0.862629 0
764 1 0.215231 0.851995 0
767 1 0.262217 0.832487 0
765 1 0.23849 0.841468 0
795 1 0.235443 0.867042 0
766 1 0.259426 0.856944 0
769 1 0.304563 0.837011 0
768 1 0.283049 0.847216 0
799 1 0.30171 0.862412 0
770 1 0.324743 0.851926 0
771 1 0.347074 0.841025 0
772 1 0.344158 0.866718 0
744 1 0.369665 0.830995 0
773 1 0.366619 0.857029 0
775 1 0.389275 0.846582 0
776 1 0.410387 0.861318 0
748 1 0.434794 0.8261 0
777 1 0.411699 0.83591 0
778 1 0.454724 0.839365 0
807 1 0.43409 0.853745 0
1621 1 0.497104 0.82883 0
809 1 0.459777 0.863137 0
779 1 0.478709 0.847212 0
782 1 0.00805023 0.873606 0
813 1 0.0332373 0.878625 0
812 1 0.0203251 0.897796 0
814 1 0.0406907 0.910583 0
786 1 0.075452 0.873848 0
815 1 0.0547842 0.889869 0
816 1 0.0777352 0.898614 0
817 1 0.099739 0.881115 0
819 1 0.122223 0.893342 0
818 1 0.101037 0.906824 0
791 1 0.168087 0.871772 0
790 1 0.145062 0.881694 0
821 1 0.167345 0.896328 0
820 1 0.143098 0.905682 0
792 1 0.19001 0.887606 0
793 1 0.212875 0.877732 0
823 1 0.210635 0.901982 0
822 1 0.188452 0.911567 0
794 1 0.234008 0.89261 0
796 1 0.256178 0.881232 0
827 1 0.25437 0.908036 0
797 1 0.278874 0.872016 0
798 1 0.276462 0.897147 0
800 1 0.298477 0.887243 0
829 1 0.297568 0.913218 0
831 1 0.318426 0.902053 0
801 1 0.321773 0.877285 0
802 1 0.341526 0.891568 0
833 1 0.361548 0.906737 0
803 1 0.364203 0.882418 0
774 1 0.386072 0.870957 0
804 1 0.385044 0.897392 0
835 1 0.405029 0.912008 0
805 1 0.405715 0.885365 0
806 1 0.425647 0.897392 0
808 1 0.441135 0.878834 0
839 1 0.449611 0.90487 0
780 1 0.483717 0.870811 0
1681 1 0.491721 0.894744 0
810 1 0.465866 0.887531 0
840 1 0.47354 0.911405 0
842 1 0.0111494 0.944418 0
843 1 0.0140355 0.920671 0
844 1 0.0340869 0.934788 0
845 1 0.0588227 0.929696 0
846 1 0.0774593 0.946194 0
847 1 0.0822044 0.922782 0
875 1 0.0525096 0.95335 0
848 1 0.100621 0.938661 0
849 1 0.120139 0.920636 0
850 1 0.142964 0.929954 0
851 1 0.164407 0.920326 0
852 1 0.162834 0.945331 0
881 1 0.140463 0.953727 0
824 1 0.207645 0.926636 0
853 1 0.184517 0.936066 0
854 1 0.204453 0.951754 0
855 1 0.227225 0.942339 0
825 1 0.231336 0.91785 0
826 1 0.251234 0.932753 0
857 1 0.271228 0.948526 0
828 1 0.272971 0.922992 0
859 1 0.293623 0.939264 0
860 1 0.314175 0.954114 0
830 1 0.31592 0.928721 0
832 1 0.338405 0.916522 0
861 1 0.336919 0.942225 0
863 1 0.359683 0.931161 0
862 1 0.357922 0.955798 0
834 1 0.383472 0.922841 0
864 1 0.385179 0.947823 0
865 1 0.407266 0.936937 0
837 1 0.428015 0.92146 0
836 1 0.434364 0.946372 0
838 1 0.453054 0.929533 0
870 1 0.460659 0.952263 0
869 1 0.47843 0.935146 0
1711 1 0.49748 0.918235 0
872 1 0.0217856 0.984098 0
873 1 0.0289109 0.960187 0
871 1 0.00412171 0.967947 0
5 1 0.0634407 0.995202 0
874 1 0.0458294 0.977453 0
876 1 0.0695599 0.970856 0
7 1 0.0867045 0.988514 0
879 1 0.116547 0.958884 0
877 1 0.0935558 0.964631 0
878 1 0.110316 0.983861 0
880 1 0.134444 0.97713 0
11 1 0.152366 0.994068 0
882 1 0.158567 0.970928 0
13 1 0.177528 0.98599 0
883 1 0.181991 0.961406 0
15 1 0.21911 0.993593 0
884 1 0.200636 0.977456 0
885 1 0.224512 0.967664 0
856 1 0.247753 0.957314 0
17 1 0.263876 0.999925 0
887 1 0.242834 0.984269 0
888 1 0.266288 0.973404 0
858 1 0.290932 0.964659 0
19 1 0.286772 0.98937 0
889 1 0.31105 0.979034 0
891 1 0.334494 0.968116 0
890 1 0.331388 0.994139 0
892 1 0.355432 0.981409 0
23 1 0.378973 0.996492 0
893 1 0.377191 0.970644 0
895 1 0.39936 0.980837 0
866 1 0.414281 0.96222 0
896 1 0.423544 0.986626 0
867 1 0.442154 0.969385 0
897 1 0.448025 0.993439 0
1741 1 0.484853 0.960745 0
868 1 0.466937 0.977453 0
1771 1 0.491431 0.984209 0
931 1 0.527831 0.039853 0
901 1 0.521723 0.015086 0
30 1 0.502984 0.0314953 0
902 1 0.545799 0.0225345 0
904 1 0.56914 0.0299117 0
906 1 0.58764 0.0128819 0
905 1 0.56354 0.00547143 0
935 1 0.592519 0.0373735 0
908 1 0.611786 0.0197226 0
939 1 0.636343 0.0276393 0
909 1 0.630376 0.00278595 0
910 1 0.654079 0.0115601 0
941 1 0.658745 0.0364454 0
912 1 0.677576 0.0191685 0
943 1 0.702564 0.0267079 0
914 1 0.724336 0.00999799 0
913 1 0.697309 0.00343079 0
942 1 0.681868 0.0435806 0
945 1 0.726585 0.0349286 0
916 1 0.757652 0.00412455 0
947 1 0.752525 0.0277791 0
918 1 0.776517 0.0219905 0
919 1 0.800465 0.015381 0
949 1 0.793735 0.0386897 0
951 1 0.817866 0.0317895 0
920 1 0.823811 0.00631325 0
922 1 0.840964 0.0233322 0
953 1 0.860053 0.042461 0
921 1 0.847337 -0.00193515 0
923 1 0.865499 0.017118 0
924 1 0.889514 0.00994975 0
954 1 0.884203 0.034325 0
955 1 0.907655 0.0270065 0
925 1 0.912789 0.00301693 0
926 1 0.931552 0.0214991 0
928 1 0.950956 0.00607071 0
957 1 0.951157 0.0405967 0
930 1 0.991806 0.0149343 0
959 1 0.96797 0.0226205 0
960 1 0.984434 0.0387029 0
932 1 0.532279 0.0637664 0
961 1 0.514737 0.080487 0
60 1 0.509278 0.055953 0
933 1 0.55163 0.0466756 0
963 1 0.556989 0.0713099 0
934 1 0.575548 0.0546889 0
965 1 0.580855 0.0793236 0
937 1 0.617458 0.0438103 0
936 1 0.599282 0.0618615 0
966 1 0.604654 0.0861419 0
967 1 0.622721 0.0691262 0
938 1 0.640225 0.0527146 0
969 1 0.646314 0.0770095 0
940 1 0.663776 0.0604614 0
970 1 0.669798 0.0848094 0
971 1 0.687072 0.0678016 0
944 1 0.704953 0.050987 0
973 1 0.710267 0.0754381 0
975 1 0.727129 0.0595485 0
974 1 0.740442 0.0793344 0
946 1 0.749102 0.0521183 0
977 1 0.765496 0.0702278 0
948 1 0.771481 0.0458796 0
979 1 0.788637 0.0629429 0
950 1 0.812187 0.0558474 0
978 1 0.807168 0.080065 0
980 1 0.830521 0.0725603 0
981 1 0.854535 0.0663475 0
952 1 0.836235 0.0484879 0
983 1 0.87886 0.0599201 0
985 1 0.902607 0.0514536 0
984 1 0.897217 0.0771431 0
982 1 0.873395 0.08406 0
956 1 0.925691 0.0448128 0
986 1 0.921946 0.0695943 0
987 1 0.946787 0.06543 0
988 1 0.96653 0.0838515 0
958 1 0.971404 0.0594757 0
989 1 0.991557 0.0794404 0
962 1 0.538861 0.0877008 0
991 1 0.521615 0.105166 0
992 1 0.527336 0.13004 0
120 1 0.503916 0.12199 0
993 1 0.545445 0.112274 0
964 1 0.562635 0.0951998 0
994 1 0.569505 0.119947 0
995 1 0.587023 0.10305 0
996 1 0.592084 0.128311 0
968 1 0.627519 0.0941057 0
997 1 0.610331 0.111016 0
998 1 0.633174 0.118968 0
999 1 0.6511 0.101595 0
1000 1 0.656546 0.124998 0
1001 1 0.674936 0.109134 0
972 1 0.691906 0.0923923 0
1002 1 0.697924 0.115259 0
1003 1 0.715712 0.0988627 0
1004 1 0.722873 0.123217 0
976 1 0.760539 0.0941539 0
1005 1 0.739879 0.105994 0
1035 1 0.746507 0.129848 0
1007 1 0.783757 0.0872303 0
1006 1 0.777201 0.112583 0
1008 1 0.800788 0.104539 0
1037 1 0.794261 0.129486 0
1039 1 0.819662 0.12247 0
1009 1 0.824861 0.0974027 0
1010 1 0.84308 0.115384 0
1011 1 0.848641 0.0908281 0
1012 1 0.867265 0.108263 0
1013 1 0.890956 0.101544 0
1014 1 0.886121 0.125854 0
1017 1 0.940157 0.0886023 0
1016 1 0.908741 0.119048 0
1015 1 0.916001 0.0943457 0
1047 1 0.933045 0.112777 0
1018 1 0.958169 0.106419 0
1019 1 0.982745 0.101988 0
1020 1 0.976829 0.125881 0
1022 1 0.532756 0.154542 0
1051 1 0.515096 0.17148 0
1021 1 0.5089 0.14659 0
1023 1 0.550913 0.136541 0
1024 1 0.555561 0.161344 0
1025 1 0.574002 0.145144 0
1055 1 0.579878 0.16904 0
1027 1 0.61584 0.135862 0
1026 1 0.597488 0.152602 0
1028 1 0.621267 0.161027 0
1029 1 0.639338 0.143148 0
1059 1 0.644808 0.167354 0
1030 1 0.662748 0.14977 0
1031 1 0.681234 0.133304 0
1032 1 0.687551 0.157448 0
1033 1 0.70536 0.140484 0
1063 1 0.709964 0.165423 0
1034 1 0.729399 0.146737 0
1036 1 0.753422 0.154063 0
1065 1 0.734779 0.171493 0
1067 1 0.770079 0.135804 0
1038 1 0.78667 0.154433 0
1069 1 0.808168 0.17021 0
1040 1 0.813039 0.146749 0
1071 1 0.832674 0.164058 0
1041 1 0.837133 0.139529 0
1042 1 0.856085 0.156875 0
1043 1 0.861771 0.132719 0
1044 1 0.879677 0.151002 0
1075 1 0.897728 0.167224 0
1045 1 0.90347 0.14324 0
1049 1 0.952586 0.130686 0
1046 1 0.927167 0.137438 0
1048 1 0.945198 0.154807 0
1077 1 0.921399 0.161775 0
121 1 0.994346 0.143601 0
1050 1 0.970286 0.149401 0
151 1 0.987313 0.168103 0
1079 1 0.962179 0.173955 0
1053 1 0.537634 0.178719 0
1052 1 0.519888 0.196541 0
1083 1 0.54391 0.203338 0
1081 1 0.501483 0.212618 0
1054 1 0.561482 0.185186 0
1056 1 0.584968 0.19432 0
1085 1 0.56719 0.211749 0
1057 1 0.603756 0.17725 0
1058 1 0.626997 0.184896 0
1087 1 0.608933 0.200746 0
1089 1 0.632802 0.208541 0
1061 1 0.66879 0.174308 0
1060 1 0.650837 0.191702 0
1091 1 0.674683 0.198218 0
1090 1 0.655887 0.215744 0
1062 1 0.692315 0.181988 0
1093 1 0.697971 0.206826 0
1064 1 0.715912 0.189503 0
1094 1 0.721823 0.212692 0
1066 1 0.758212 0.177937 0
1095 1 0.73995 0.195777 0
1097 1 0.763362 0.20223 0
1068 1 0.78349 0.182333 0
1098 1 0.787308 0.210362 0
1099 1 0.804472 0.194084 0
1100 1 0.818343 0.21473 0
1070 1 0.827466 0.188355 0
1072 1 0.850756 0.181966 0
1101 1 0.843917 0.206405 0
1073 1 0.874486 0.174546 0
1103 1 0.867719 0.200217 0
1074 1 0.891195 0.19253 0
1105 1 0.908634 0.210845 0
1078 1 0.938128 0.179068 0
1076 1 0.914245 0.185795 0
1107 1 0.932809 0.204008 0
1109 1 0.95602 0.197541 0
181 1 0.980443 0.19157 0
1110 1 0.972952 0.215071 0
211 1 0.997443 0.209416 0
1082 1 0.526546 0.220551 0
1111 1 0.507903 0.237197 0
1113 1 0.531025 0.24506 0
1086 1 0.591128 0.21869 0
1084 1 0.550139 0.228998 0
1114 1 0.554997 0.25299 0
1115 1 0.573109 0.235849 0
1116 1 0.579073 0.260374 0
1088 1 0.614602 0.225108 0
1117 1 0.596535 0.243356 0
1118 1 0.620269 0.250525 0
1119 1 0.637862 0.233575 0
1121 1 0.660681 0.239909 0
1120 1 0.643154 0.257876 0
1092 1 0.67953 0.223761 0
1122 1 0.685235 0.247681 0
1123 1 0.704612 0.229996 0
1124 1 0.709034 0.254105 0
1125 1 0.727952 0.237148 0
1096 1 0.744994 0.219714 0
1126 1 0.752216 0.244626 0
1127 1 0.768696 0.22707 0
1129 1 0.793944 0.233302 0
1128 1 0.775338 0.250701 0
1159 1 0.799057 0.257729 0
1130 1 0.816505 0.241166 0
1131 1 0.83808 0.230586 0
1132 1 0.851132 0.253044 0
1102 1 0.861615 0.223889 0
1104 1 0.884948 0.217392 0
1133 1 0.876723 0.243694 0
1135 1 0.901713 0.235725 0
1134 1 0.895168 0.2597 0
1108 1 0.949719 0.222666 0
1136 1 0.919768 0.252968 0
1106 1 0.925181 0.228541 0
1137 1 0.943172 0.246393 0
1139 1 0.968196 0.239241 0
1140 1 0.991542 0.233166 0
1169 1 0.985173 0.255853 0
1112 1 0.512937 0.262026 0
1142 1 0.518156 0.286495 0
1143 1 0.536188 0.268846 0