ITEM: TIMESTEP
46000
ITEM: NUMBER OF ATOMS
1800
ITEM: BOX BOUNDS pp pp pp
9.2622896387797482e-01 1.6407377103612163e+02
9.2622896387797482e-01 1.6407377103612163e+02
0.0000000000000000e+00 5.5000000000000000e+00
ITEM: ATOMS id type xs ys zs
2 1 0.0132254 0.00855663 0
3 1 0.0371279 0.00192631 0
33 1 0.0306733 0.0259352 0
31 1 0.00675827 0.0324721 0
4 1 0.0555674 0.0190781 0
6 1 0.0793024 0.0133515 0
35 1 0.0711241 0.0374072 0
8 1 0.104226 0.00613539 0
37 1 0.0964515 0.030951 0
39 1 0.120717 0.0250937 0
9 1 0.127567 0.00101015 0
10 1 0.146858 0.0180184 0
41 1 0.172131 0.0111843 0
42 1 0.165107 0.0350463 0
40 1 0.139201 0.0423037 0
12 1 0.195956 0.00335542 0
43 1 0.190867 0.0283448 0
14 1 0.215877 0.0211212 0
45 1 0.237193 0.0426829 0
16 1 0.257633 0.0244877 0
886 1 0.239225 0.00914953 0
17 1 0.262177 0.998945 0
18 1 0.280825 0.0159728 0
49 1 0.305602 0.0369823 0
20 1 0.304676 0.00766931 0
51 1 0.324387 0.0209023 0
22 1 0.348216 0.0293779 0
21 1 0.364331 0.011006 0
24 1 0.389523 0.0197955 0
53 1 0.371763 0.0371868 0
894 1 0.407523 0.00385842 0
25 1 0.413197 0.0270931 0
26 1 0.436621 0.0352671 0
27 1 0.431243 0.010071 0
898 1 0.455112 0.0180987 0
28 1 0.461126 0.0427964 0
29 1 0.477782 0.0255513 0
900 1 0.496535 0.00919604 0
899 1 0.472702 0.000930965 0
32 1 0.0232787 0.0499923 0
62 1 0.0149747 0.0734494 0
63 1 0.040891 0.0677027 0
34 1 0.0473391 0.0433714 0
65 1 0.0651804 0.0612607 0
66 1 0.0821351 0.0788831 0
64 1 0.0580213 0.0853803 0
36 1 0.0890392 0.054597 0
38 1 0.11364 0.0488581 0
67 1 0.105941 0.0719965 0
69 1 0.130155 0.066071 0
71 1 0.156621 0.0590828 0
72 1 0.171506 0.0783103 0
70 1 0.148098 0.0840224 0
73 1 0.181955 0.0537301 0
44 1 0.206251 0.0472245 0
74 1 0.220846 0.0672918 0
103 1 0.196552 0.0738712 0
46 1 0.263958 0.0489832 0
75 1 0.24501 0.066584 0
77 1 0.269357 0.0726676 0
47 1 0.288304 0.0555839 0
48 1 0.31142 0.062297 0
78 1 0.294741 0.0804934 0
50 1 0.329791 0.0459287 0
81 1 0.335335 0.0702099 0
52 1 0.354152 0.0547484 0
82 1 0.358607 0.0790074 0
55 1 0.395497 0.0443574 0
83 1 0.377896 0.0611464 0
54 1 0.401766 0.0690832 0
113 1 0.382311 0.0861434 0
57 1 0.443558 0.0594165 0
85 1 0.425791 0.0774577 0
56 1 0.4191 0.0519522 0
87 1 0.448317 0.0847644 0
59 1 0.484326 0.0507617 0
58 1 0.466881 0.0679851 0
89 1 0.489837 0.0749364 0
990 1 0.00950927 0.0971195 0
92 1 0.0266628 0.114712 0
93 1 0.0334159 0.0908521 0
91 1 0.00123999 0.12087 0
94 1 0.0505498 0.109668 0
95 1 0.0743956 0.104005 0
125 1 0.0672381 0.127358 0
96 1 0.0923292 0.12088 0
68 1 0.123134 0.0899847 0
97 1 0.0983378 0.0964121 0
98 1 0.115969 0.114654 0
99 1 0.140998 0.108382 0
100 1 0.164677 0.103017 0
130 1 0.156669 0.126633 0
131 1 0.18026 0.121317 0
101 1 0.187946 0.0962268 0
102 1 0.204255 0.11504 0
105 1 0.213744 0.0918571 0
76 1 0.250091 0.0907011 0
106 1 0.232608 0.110051 0
137 1 0.257699 0.114481 0
79 1 0.317755 0.0873816 0
107 1 0.275686 0.0974269 0
108 1 0.28123 0.12164 0
109 1 0.299798 0.105394 0
139 1 0.306604 0.128626 0
80 1 0.34125 0.0960406 0
110 1 0.323592 0.11181 0
141 1 0.347158 0.119913 0
111 1 0.364507 0.102319 0
84 1 0.407023 0.0936851 0
112 1 0.388711 0.110195 0
143 1 0.370651 0.127413 0
115 1 0.412355 0.118589 0
86 1 0.430741 0.102459 0
116 1 0.435813 0.126819 0
117 1 0.453627 0.109096 0
88 1 0.471821 0.0918347 0
90 1 0.494896 0.0996878 0
119 1 0.477471 0.116725 0
123 1 0.0429622 0.133329 0
122 1 0.0184831 0.138989 0
153 1 0.0352783 0.157667 0
152 1 0.0109081 0.162061 0
124 1 0.0601203 0.151422 0
126 1 0.0839939 0.145037 0
155 1 0.0763748 0.169077 0
127 1 0.109203 0.138947 0
128 1 0.126086 0.156357 0
157 1 0.101445 0.162744 0
129 1 0.133103 0.132284 0
159 1 0.149765 0.15059 0
132 1 0.173256 0.145335 0
161 1 0.166134 0.168906 0
104 1 0.219618 0.133842 0
133 1 0.196629 0.139066 0
163 1 0.190083 0.163034 0
134 1 0.214233 0.157883 0
135 1 0.242705 0.133123 0
136 1 0.265251 0.141231 0
165 1 0.246429 0.1574 0
167 1 0.269761 0.165494 0
138 1 0.28847 0.147016 0
169 1 0.31169 0.153818 0
168 1 0.293475 0.170977 0
140 1 0.32955 0.136643 0
142 1 0.352508 0.144771 0
171 1 0.335153 0.16225 0
172 1 0.359029 0.168135 0
114 1 0.394385 0.135045 0
173 1 0.376593 0.151154 0
144 1 0.399941 0.159149 0
145 1 0.418225 0.143698 0
146 1 0.423008 0.167949 0
147 1 0.441282 0.151769 0
118 1 0.459448 0.134216 0
149 1 0.48305 0.141042 0
148 1 0.464915 0.158094 0
150 1 0.488433 0.165185 0
183 1 0.0283298 0.180852 0
182 1 0.02205 0.203899 0
1080 1 0.00482082 0.186417 0
184 1 0.0459563 0.198567 0
154 1 0.0518341 0.174705 0
185 1 0.0693444 0.192565 0
186 1 0.0872601 0.2103 0
215 1 0.0631617 0.217331 0
156 1 0.0934691 0.186999 0
158 1 0.118644 0.180668 0
187 1 0.112022 0.204777 0
189 1 0.135782 0.200023 0
160 1 0.142249 0.175066 0
191 1 0.159142 0.193564 0
221 1 0.176432 0.210568 0
190 1 0.152987 0.217946 0
162 1 0.182927 0.187124 0
193 1 0.206163 0.181621 0
192 1 0.199682 0.205261 0
164 1 0.230103 0.176845 0
195 1 0.234467 0.201716 0
166 1 0.253026 0.183334 0
196 1 0.257948 0.2074 0
197 1 0.276467 0.189717 0
199 1 0.299462 0.196137 0
198 1 0.281162 0.214029 0
170 1 0.318015 0.178652 0
201 1 0.342043 0.186057 0
200 1 0.323382 0.203188 0
202 1 0.346229 0.210952 0
174 1 0.382847 0.175654 0
203 1 0.365424 0.192648 0
204 1 0.388404 0.201263 0
175 1 0.406078 0.184908 0
177 1 0.447996 0.175727 0
205 1 0.411989 0.209134 0
176 1 0.429806 0.191892 0
207 1 0.435309 0.21677 0
178 1 0.453096 0.200062 0
179 1 0.471094 0.182116 0
180 1 0.49504 0.189716 0
209 1 0.476965 0.206812 0
213 1 0.0392182 0.222498 0
212 1 0.0146595 0.227923 0
243 1 0.0315394 0.246314 0
241 1 0.00781621 0.25253 0
216 1 0.0807071 0.236756 0
214 1 0.0561553 0.240817 0
188 1 0.128298 0.223126 0
217 1 0.104243 0.229588 0
218 1 0.121572 0.247637 0
247 1 0.0980097 0.255109 0
219 1 0.147175 0.242832 0
220 1 0.171197 0.233628 0
222 1 0.183059 0.254115 0
223 1 0.195423 0.230824 0
194 1 0.217197 0.220133 0
224 1 0.220435 0.245052 0
225 1 0.240064 0.226252 0
227 1 0.263222 0.231919 0
226 1 0.244181 0.250259 0
257 1 0.268092 0.256109 0
228 1 0.286512 0.238413 0
229 1 0.305105 0.220379 0
230 1 0.309962 0.244842 0
231 1 0.328909 0.228408 0
232 1 0.351574 0.235503 0
261 1 0.333157 0.25254 0
263 1 0.356992 0.259133 0
233 1 0.369623 0.217215 0
234 1 0.375206 0.241939 0
235 1 0.393871 0.225797 0
265 1 0.399022 0.250199 0
236 1 0.422519 0.257744 0
206 1 0.417259 0.233199 0
237 1 0.440207 0.240953 0
208 1 0.458859 0.224066 0
210 1 0.482906 0.23032 0
239 1 0.464644 0.248592 0
240 1 0.488796 0.255802 0
242 1 0.0257351 0.269719 0
273 1 0.043563 0.286078 0
271 1 0.0214957 0.296457 0
1170 1 0.00286899 0.276777 0
245 1 0.0731398 0.260961 0
244 1 0.0486368 0.263144 0
275 1 0.0667388 0.293325 0
246 1 0.0900963 0.280184 0
248 1 0.113491 0.274364 0
279 1 0.127402 0.300697 0
251 1 0.164409 0.269539 0
249 1 0.138345 0.265806 0
250 1 0.147228 0.287699 0
281 1 0.170039 0.297029 0
253 1 0.204481 0.263485 0
252 1 0.186726 0.279927 0
254 1 0.210361 0.287408 0
255 1 0.227822 0.269134 0
256 1 0.25092 0.274506 0
285 1 0.233728 0.294259 0
287 1 0.2576 0.299063 0
259 1 0.291757 0.262409 0
258 1 0.274691 0.280616 0
289 1 0.298028 0.287344 0
260 1 0.315665 0.269512 0
288 1 0.281779 0.306461 0
262 1 0.339058 0.276731 0
291 1 0.321427 0.293627 0
292 1 0.344222 0.299957 0
293 1 0.363177 0.283947 0
264 1 0.380986 0.267445 0
295 1 0.386624 0.292031 0
266 1 0.404367 0.276082 0
238 1 0.446086 0.265338 0
267 1 0.427935 0.28296 0
268 1 0.451953 0.289741 0
297 1 0.410243 0.301011 0
1141 1 0.49395 0.279572 0
269 1 0.469675 0.272196 0
270 1 0.476622 0.296136 0
301 1 0.0229668 0.323106 0
1230 1 0.00215333 0.33788 0
1200 1 0.000227657 0.311558 0
272 1 0.0445873 0.310107 0
302 1 0.0250914 0.348662 0
303 1 0.0464287 0.334151 0
276 1 0.0874035 0.305374 0
274 1 0.0668354 0.319771 0
305 1 0.0889602 0.33085 0
304 1 0.0693679 0.345042 0
277 1 0.109258 0.316943 0
278 1 0.131615 0.327238 0
307 1 0.111434 0.341873 0
280 1 0.151283 0.313038 0
311 1 0.155295 0.33767 0
282 1 0.174268 0.321833 0
312 1 0.177734 0.347144 0
283 1 0.193006 0.304994 0
284 1 0.215968 0.313353 0
313 1 0.197596 0.32978 0
315 1 0.221048 0.338937 0
286 1 0.239507 0.319215 0
317 1 0.263447 0.322253 0
316 1 0.249881 0.344311 0
318 1 0.275101 0.343161 0
290 1 0.30617 0.312028 0
319 1 0.299443 0.33596 0
321 1 0.323537 0.329885 0
323 1 0.349053 0.324397 0
324 1 0.369014 0.339627 0
294 1 0.368023 0.309643 0
325 1 0.398727 0.341504 0
296 1 0.391118 0.317974 0
298 1 0.434062 0.306753 0
327 1 0.417466 0.324988 0
328 1 0.440579 0.33009 0
329 1 0.464465 0.338463 0
299 1 0.458491 0.312899 0
300 1 0.482538 0.321132 0
1201 1 0.488176 0.345395 0
332 1 0.0273794 0.372884 0
331 1 0.00349743 0.361929 0
361 1 0.00669358 0.387003 0
333 1 0.0479479 0.358934 0
335 1 0.0709486 0.370186 0
334 1 0.0502658 0.384129 0
306 1 0.0918033 0.356554 0
337 1 0.0946654 0.380605 0
308 1 0.115264 0.366828 0
309 1 0.134899 0.351572 0
339 1 0.138136 0.375759 0
310 1 0.158187 0.361806 0
341 1 0.161243 0.38725 0
343 1 0.182172 0.371467 0
314 1 0.201569 0.355617 0
344 1 0.204731 0.380575 0
345 1 0.225103 0.36523 0
347 1 0.267837 0.36659 0
346 1 0.245882 0.379148 0
377 1 0.267165 0.392065 0
349 1 0.292785 0.35975 0
348 1 0.288928 0.383998 0
350 1 0.311864 0.378313 0
320 1 0.316815 0.353038 0
322 1 0.341771 0.347985 0
351 1 0.334712 0.370864 0
353 1 0.358836 0.364754 0
352 1 0.352661 0.389338 0
355 1 0.383513 0.359692 0
354 1 0.377374 0.383145 0
356 1 0.402593 0.37525 0
326 1 0.423244 0.350273 0
357 1 0.428625 0.374993 0
359 1 0.446379 0.354038 0
358 1 0.452257 0.378142 0
330 1 0.471043 0.363462 0
1231 1 0.495266 0.369664 0
360 1 0.47755 0.386998 0
363 1 0.0295296 0.397282 0
362 1 0.0105159 0.412318 0
364 1 0.0331181 0.422412 0
336 1 0.0740702 0.394766 0
365 1 0.0536689 0.408102 0
366 1 0.0764867 0.418999 0
338 1 0.117306 0.390968 0
367 1 0.0969306 0.405404 0
369 1 0.1192 0.416804 0
368 1 0.0989018 0.430555 0
340 1 0.140115 0.400801 0
370 1 0.141975 0.426746 0
371 1 0.163368 0.412918 0
375 1 0.225747 0.393698 0
342 1 0.183591 0.397166 0
372 1 0.185658 0.422872 0
373 1 0.206923 0.408661 0
403 1 0.208099 0.434794 0
374 1 0.2279 0.419609 0
376 1 0.24743 0.40529 0
405 1 0.250715 0.429691 0
378 1 0.272629 0.416554 0
379 1 0.303185 0.40439 0
409 1 0.296119 0.428481 0
381 1 0.328597 0.396519 0
382 1 0.345532 0.414232 0
380 1 0.321286 0.421345 0
413 1 0.362949 0.432271 0
383 1 0.369235 0.40757 0
385 1 0.393074 0.402265 0
384 1 0.3864 0.425709 0
386 1 0.42256 0.420346 0
387 1 0.415383 0.39596 0
388 1 0.439436 0.399838 0
419 1 0.446805 0.424083 0
389 1 0.462348 0.405519 0
1261 1 0.485554 0.412073 0
390 1 0.469784 0.430867 0
393 1 0.0133492 0.436917 0
423 1 0.0170207 0.463297 0
394 1 0.0367806 0.447636 0
425 1 0.039894 0.472869 0
395 1 0.0559276 0.433268 0
396 1 0.0599561 0.458475 0
397 1 0.0796896 0.444716 0
427 1 0.0824282 0.469861 0
399 1 0.123032 0.441438 0
398 1 0.10253 0.455123 0
429 1 0.125877 0.467009 0
401 1 0.165509 0.438194 0
400 1 0.14544 0.452364 0
431 1 0.167911 0.462958 0
402 1 0.187936 0.448652 0
433 1 0.210274 0.459377 0
432 1 0.190361 0.47447 0
404 1 0.23055 0.444797 0
406 1 0.253215 0.455248 0
435 1 0.23317 0.469878 0
407 1 0.273549 0.440948 0
437 1 0.274623 0.466346 0
408 1 0.294239 0.452934 0
410 1 0.31585 0.444908 0
439 1 0.299873 0.476722 0
411 1 0.338682 0.438881 0
412 1 0.35618 0.457032 0
441 1 0.332246 0.463681 0
415 1 0.405595 0.440323 0
414 1 0.382443 0.450298 0
443 1 0.373662 0.473711 0
417 1 0.430593 0.44309 0
418 1 0.453423 0.449113 0
416 1 0.414254 0.461634 0
447 1 0.437568 0.468122 0
1291 1 0.492682 0.436937 0
420 1 0.476956 0.454954 0
449 1 0.460566 0.473895 0
450 1 0.483873 0.478957 0
454 1 0.0217936 0.513629 0
424 1 0.0195697 0.487147 0
455 1 0.0420973 0.498347 0
453 1 -4.0892e-06 0.503304 0
426 1 0.0627657 0.48399 0
456 1 0.0648707 0.508923 0
457 1 0.0850728 0.495947 0
487 1 0.0877623 0.520971 0
428 1 0.104807 0.481648 0
459 1 0.127646 0.491637 0
458 1 0.107661 0.506688 0
489 1 0.13018 0.517839 0
430 1 0.147366 0.477974 0
461 1 0.170263 0.488172 0
460 1 0.150186 0.502332 0
462 1 0.17357 0.513091 0
434 1 0.213522 0.483781 0
463 1 0.192377 0.49906 0
464 1 0.215284 0.508962 0
436 1 0.255383 0.480381 0
465 1 0.235108 0.494297 0
467 1 0.258004 0.503949 0
466 1 0.237606 0.518832 0
438 1 0.278622 0.490089 0
469 1 0.301319 0.501886 0
468 1 0.280794 0.514168 0
442 1 0.349135 0.482745 0
440 1 0.323127 0.487721 0
471 1 0.340091 0.505838 0
473 1 0.362303 0.515708 0
470 1 0.319363 0.522312 0
445 1 0.396869 0.47994 0
444 1 0.379121 0.496885 0
475 1 0.402805 0.503173 0
446 1 0.420307 0.486488 0
477 1 0.427162 0.510164 0
448 1 0.444206 0.49248 0
478 1 0.450737 0.516708 0
479 1 0.468057 0.498399 0
1381 1 0.493272 0.502443 0
480 1 0.475724 0.52167 0
452 1 0.00252389 0.527789 0
483 1 0.0243939 0.538629 0
482 1 0.00425941 0.553484 0
513 1 0.0265047 0.563098 0
485 1 0.0439309 0.523194 0
484 1 0.0470612 0.54915 0
486 1 0.0670296 0.5346 0
515 1 0.0697433 0.55886 0
517 1 0.0904724 0.545365 0
488 1 0.110439 0.531711 0
519 1 0.11373 0.557458 0
490 1 0.13416 0.54373 0
491 1 0.153732 0.529334 0
521 1 0.156755 0.554782 0
492 1 0.176596 0.541326 0
523 1 0.178299 0.566486 0
493 1 0.194935 0.525314 0
494 1 0.19921 0.551204 0
495 1 0.218026 0.53479 0
525 1 0.222556 0.559891 0
496 1 0.242106 0.54467 0
497 1 0.260484 0.528411 0
527 1 0.26429 0.554351 0
499 1 0.305941 0.543265 0
498 1 0.282358 0.538272 0
529 1 0.287735 0.561981 0
472 1 0.344155 0.531571 0
501 1 0.329088 0.549793 0
502 1 0.351638 0.557781 0
474 1 0.386481 0.522075 0
503 1 0.368378 0.540676 0
505 1 0.392536 0.546304 0
504 1 0.376617 0.564774 0
476 1 0.409468 0.527856 0
507 1 0.433648 0.534229 0
506 1 0.41689 0.551558 0
508 1 0.44262 0.55792 0
509 1 0.459006 0.539677 0
510 1 0.484414 0.544665 0
539 1 0.46757 0.563146 0
512 1 0.0289402 0.588525 0
511 1 0.00647845 0.577969 0
541 1 0.00854016 0.602903 0
514 1 0.0490881 0.573956 0
545 1 0.0725211 0.584946 0
543 1 0.0520501 0.598117 0
516 1 0.0934206 0.571398 0
518 1 0.117507 0.584052 0
547 1 0.0959714 0.596299 0
520 1 0.136051 0.569549 0
549 1 0.140442 0.595232 0
522 1 0.158622 0.580367 0
551 1 0.163801 0.606332 0
524 1 0.202171 0.576254 0
553 1 0.183384 0.591351 0
554 1 0.208246 0.60098 0
555 1 0.227153 0.586097 0
526 1 0.245785 0.569745 0
557 1 0.251168 0.593714 0
528 1 0.269672 0.578634 0
500 1 0.311771 0.567656 0
558 1 0.276661 0.602334 0
559 1 0.294445 0.585524 0
530 1 0.317694 0.592473 0
531 1 0.335292 0.575224 0
532 1 0.341697 0.598763 0
533 1 0.359914 0.582062 0
534 1 0.383933 0.587849 0
535 1 0.401454 0.570026 0
536 1 0.409324 0.593866 0
563 1 0.366218 0.605578 0
537 1 0.426663 0.576388 0
567 1 0.434249 0.599874 0
538 1 0.451165 0.581733 0
540 1 0.492092 0.568254 0
569 1 0.475892 0.586856 0
568 1 0.458727 0.605984 0
1441 1 0.499975 0.592299 0
542 1 0.0319941 0.61363 0
571 1 0.00989696 0.627476 0
573 1 0.0343571 0.638874 0
572 1 0.0124665 0.651714 0
544 1 0.0540162 0.625061 0
546 1 0.0756965 0.610388 0
575 1 0.0762971 0.635692 0
574 1 0.0561002 0.650367 0
548 1 0.118577 0.609154 0
577 1 0.0980135 0.622272 0
579 1 0.120167 0.634106 0
576 1 0.0975166 0.647788 0
550 1 0.142554 0.622003 0
581 1 0.169362 0.631112 0
552 1 0.189635 0.617375 0
582 1 0.197093 0.642441 0
583 1 0.215702 0.626027 0
584 1 0.221232 0.649946 0
556 1 0.233335 0.610104 0
585 1 0.240044 0.635389 0
586 1 0.264747 0.642769 0
587 1 0.257275 0.618258 0
560 1 0.300065 0.610098 0
589 1 0.281589 0.625869 0
590 1 0.307653 0.63398 0
588 1 0.288704 0.650637 0
561 1 0.324594 0.617064 0
562 1 0.349002 0.623262 0
591 1 0.331949 0.641954 0
593 1 0.356242 0.648649 0
565 1 0.390845 0.611458 0
564 1 0.37334 0.630257 0
595 1 0.399013 0.636047 0
566 1 0.415768 0.617262 0
596 1 0.423375 0.640658 0
597 1 0.441093 0.623653 0
599 1 0.447995 0.647722 0
570 1 0.483444 0.610782 0
600 1 0.465716 0.629316 0
1471 1 0.488492 0.635983 0
602 1 0.0135357 0.675631 0
603 1 0.0347648 0.663721 0
633 1 0.0369194 0.688882 0
605 1 0.0774166 0.661505 0
604 1 0.0569333 0.675574 0
606 1 0.0776356 0.690131 0
578 1 0.118514 0.660182 0
607 1 0.0977395 0.675242 0
608 1 0.121132 0.684569 0
580 1 0.155948 0.651489 0
609 1 0.140465 0.66979 0
611 1 0.180305 0.658815 0
610 1 0.163703 0.676638 0
639 1 0.144936 0.693192 0
612 1 0.187682 0.684035 0
613 1 0.204207 0.667109 0
643 1 0.211151 0.692916 0
614 1 0.228248 0.674847 0
615 1 0.247475 0.659022 0
616 1 0.252403 0.682692 0
617 1 0.271083 0.667125 0
647 1 0.27727 0.69108 0
619 1 0.313204 0.658828 0
618 1 0.295099 0.674618 0
620 1 0.319363 0.682775 0
621 1 0.338199 0.665538 0
592 1 0.363463 0.672327 0
622 1 0.343069 0.689482 0
594 1 0.380101 0.653582 0
625 1 0.404495 0.660291 0
623 1 0.386826 0.679189 0
598 1 0.453656 0.673293 0
627 1 0.428471 0.664806 0
657 1 0.433726 0.688716 0
626 1 0.409894 0.688014 0
628 1 0.477436 0.680864 0
629 1 0.47118 0.655844 0
1741 1 0.485949 0.959872 0
1501 1 0.496047 0.660976 0
632 1 0.014844 0.699549 0
663 1 0.018569 0.723126 0
634 1 0.0428385 0.727154 0
635 1 0.0587464 0.705836 0
636 1 0.0808893 0.715088 0
665 1 0.0661785 0.734407 0
637 1 0.0999713 0.700738 0
638 1 0.125284 0.709191 0
667 1 0.10642 0.724929 0
669 1 0.131451 0.732682 0
641 1 0.168596 0.701363 0
640 1 0.150639 0.716599 0
671 1 0.174225 0.725374 0
642 1 0.192693 0.708055 0
673 1 0.198163 0.732877 0
644 1 0.217272 0.716136 0
645 1 0.235156 0.698931 0
675 1 0.241028 0.724864 0
646 1 0.259117 0.70731 0
677 1 0.265855 0.732535 0
649 1 0.301458 0.6989 0
648 1 0.28304 0.715275 0
679 1 0.30748 0.724529 0
650 1 0.325653 0.707795 0
651 1 0.349959 0.715176 0
681 1 0.331903 0.731951 0
653 1 0.367995 0.696773 0
624 1 0.391177 0.704786 0
654 1 0.375238 0.724987 0
655 1 0.412508 0.715702 0
656 1 0.437058 0.713 0
686 1 0.426753 0.736306 0
687 1 0.456352 0.728836 0
658 1 0.457488 0.697599 0
659 1 0.480462 0.707245 0
689 1 0.485929 0.733231 0
662 1 0.0235377 0.746054 0
691 1 0.00431671 0.761695 0
693 1 0.0290466 0.76833 0
664 1 0.0478947 0.751859 0
695 1 0.0718951 0.758875 0
694 1 0.0539147 0.775296 0
666 1 0.0894318 0.741676 0
697 1 0.095372 0.766326 0
668 1 0.113761 0.750139 0
698 1 0.119724 0.77428 0
699 1 0.137737 0.757397 0
670 1 0.155545 0.741199 0
701 1 0.161307 0.765031 0
672 1 0.180171 0.749584 0
700 1 0.14492 0.782013 0
702 1 0.18481 0.773412 0
674 1 0.222716 0.741098 0
703 1 0.204091 0.757954 0
705 1 0.228122 0.767498 0
676 1 0.246451 0.749268 0
707 1 0.269867 0.756947 0
706 1 0.268187 0.780824 0
678 1 0.289226 0.740671 0
680 1 0.31339 0.752035 0
709 1 0.291983 0.769342 0
652 1 0.354854 0.739495 0
682 1 0.355082 0.763899 0
711 1 0.332832 0.774915 0
685 1 0.40222 0.740996 0
683 1 0.377905 0.751391 0
713 1 0.375619 0.778199 0
684 1 0.397154 0.767751 0
715 1 0.421358 0.75954 0
717 1 0.445148 0.752094 0
718 1 0.450606 0.775773 0
690 1 0.492671 0.760747 0
688 1 0.470016 0.752692 0
719 1 0.475382 0.779237 0
692 1 0.0103949 0.784486 0
722 1 0.0154111 0.808669 0
723 1 0.0343872 0.792 0
724 1 0.040577 0.8162 0
696 1 0.0778717 0.783257 0
725 1 0.0595466 0.800115 0
726 1 0.0837842 0.808463 0
755 1 0.0651501 0.824378 0
727 1 0.101365 0.791505 0
728 1 0.126235 0.798548 0
757 1 0.109119 0.81559 0
759 1 0.132149 0.82313 0
729 1 0.15041 0.806411 0
730 1 0.174698 0.816576 0
731 1 0.167915 0.789778 0
704 1 0.207992 0.782102 0
732 1 0.198881 0.809792 0
733 1 0.221858 0.801807 0
735 1 0.244469 0.790056 0
736 1 0.241507 0.817053 0
737 1 0.264475 0.806303 0
710 1 0.311123 0.785869 0
708 1 0.288615 0.796334 0
738 1 0.28464 0.821887 0
739 1 0.307849 0.810822 0
712 1 0.352211 0.789516 0
741 1 0.330738 0.801676 0
742 1 0.350698 0.816409 0
714 1 0.394572 0.794863 0
743 1 0.372715 0.805541 0
745 1 0.39369 0.821723 0
716 1 0.416561 0.78385 0
746 1 0.414842 0.809545 0
747 1 0.436662 0.797208 0
748 1 0.437052 0.822061 0
749 1 0.459996 0.79888 0
720 1 0.484723 0.802745 0
750 1 0.469048 0.821136 0
752 1 0.00421258 0.848965 0
753 1 0.0220381 0.832483 0
783 1 0.02762 0.857361 0
754 1 0.0455754 0.841106 0
785 1 0.0718414 0.84792 0
756 1 0.0914579 0.832896 0
784 1 0.0528107 0.864766 0
758 1 0.115979 0.841473 0
787 1 0.0960812 0.858176 0
788 1 0.122848 0.867125 0
789 1 0.146676 0.855405 0
760 1 0.154857 0.830958 0
761 1 0.172334 0.847612 0
734 1 0.218588 0.826235 0
763 1 0.194177 0.834726 0
762 1 0.193029 0.861481 0
764 1 0.215683 0.851295 0
767 1 0.26176 0.832239 0
765 1 0.238765 0.842205 0
795 1 0.235725 0.867045 0
766 1 0.259189 0.8571 0
769 1 0.304463 0.836264 0
768 1 0.281686 0.84687 0
799 1 0.301912 0.863142 0
740 1 0.327522 0.826967 0
770 1 0.324697 0.851467 0
771 1 0.347683 0.842556 0
772 1 0.344095 0.867439 0
744 1 0.369794 0.831139 0
773 1 0.36752 0.856788 0
775 1 0.39117 0.846505 0
776 1 0.410256 0.861761 0
777 1 0.414784 0.835952 0
807 1 0.435703 0.858038 0
778 1 0.453848 0.840794 0
1621 1 0.493245 0.827816 0
809 1 0.461253 0.864371 0
779 1 0.478326 0.846366 0
782 1 0.00875651 0.873782 0
813 1 0.0341924 0.880321 0
812 1 0.0176232 0.89675 0
814 1 0.0391108 0.910878 0
786 1 0.0754523 0.874548 0
815 1 0.0558499 0.890717 0
816 1 0.0787161 0.898596 0
817 1 0.0995064 0.882777 0
819 1 0.122724 0.893924 0
818 1 0.10145 0.908517 0
791 1 0.167996 0.871806 0
790 1 0.144612 0.881054 0
821 1 0.166784 0.896206 0
820 1 0.143882 0.906469 0
792 1 0.189776 0.886232 0
793 1 0.212847 0.876361 0
823 1 0.210219 0.901124 0
822 1 0.187174 0.911423 0
794 1 0.233038 0.89151 0
796 1 0.256715 0.882331 0
827 1 0.252434 0.907815 0
797 1 0.280034 0.87361 0
798 1 0.276008 0.897887 0
800 1 0.299707 0.889492 0
831 1 0.318558 0.905718 0
801 1 0.322276 0.878038 0
802 1 0.341866 0.893596 0
833 1 0.361639 0.907272 0
803 1 0.363904 0.882958 0
774 1 0.386333 0.871364 0
804 1 0.383875 0.897608 0
805 1 0.405062 0.885931 0
835 1 0.404048 0.911977 0
806 1 0.425444 0.898916 0
808 1 0.443468 0.881842 0
839 1 0.450355 0.905543 0
780 1 0.485535 0.869438 0
1681 1 0.492063 0.893873 0
810 1 0.468032 0.887382 0
840 1 0.47367 0.912353 0
842 1 0.00978283 0.944549 0
843 1 0.0139816 0.920238 0
844 1 0.0328722 0.934866 0
845 1 0.0576934 0.927564 0
846 1 0.0751683 0.947118 0
847 1 0.0823456 0.92364 0
875 1 0.0517783 0.951819 0
848 1 0.100333 0.940807 0
849 1 0.119633 0.923059 0
850 1 0.143117 0.931032 0
851 1 0.164752 0.920524 0
852 1 0.162759 0.945579 0
881 1 0.140368 0.955208 0
824 1 0.207419 0.925697 0
853 1 0.18604 0.93704 0
854 1 0.205181 0.952478 0
855 1 0.227333 0.942091 0
825 1 0.230169 0.916552 0
826 1 0.25009 0.932253 0
857 1 0.269241 0.947768 0
829 1 0.295933 0.915101 0
828 1 0.272708 0.923141 0
859 1 0.29253 0.939472 0
860 1 0.313461 0.954822 0
830 1 0.316144 0.930278 0
832 1 0.34018 0.919794 0
861 1 0.338127 0.945233 0
863 1 0.360178 0.933697 0
834 1 0.382696 0.923621 0
864 1 0.381655 0.94841 0
865 1 0.407233 0.93781 0
837 1 0.428628 0.923184 0
836 1 0.436689 0.945434 0
838 1 0.454426 0.928981 0
870 1 0.460353 0.953391 0
869 1 0.479272 0.935988 0
1711 1 0.497764 0.919029 0
872 1 0.0211943 0.984945 0
873 1 0.0279372 0.959717 0
871 1 0.00345796 0.968499 0
874 1 0.0448723 0.977114 0
5 1 0.0618044 0.994921 0
876 1 0.0692083 0.971137 0
7 1 0.0858111 0.988714 0
879 1 0.117096 0.95987 0
877 1 0.092371 0.964839 0
878 1 0.110062 0.983059 0
880 1 0.134658 0.978199 0
11 1 0.153704 0.994691 0
882 1 0.159182 0.971101 0
13 1 0.178236 0.986938 0
883 1 0.181843 0.961884 0
15 1 0.219437 0.994779 0
884 1 0.202112 0.977352 0
885 1 0.224049 0.968104 0
856 1 0.246706 0.958856 0
887 1 0.242332 0.983733 0
888 1 0.266689 0.974024 0
858 1 0.290576 0.965613 0
19 1 0.28702 0.990466 0
889 1 0.310801 0.981219 0
862 1 0.358072 0.958609 0
891 1 0.335049 0.970607 0
890 1 0.330721 0.996895 0
892 1 0.35577 0.98626 0
23 1 0.383397 0.996619 0
893 1 0.376662 0.973845 0
895 1 0.400904 0.979021 0
897 1 0.448612 0.993334 0
866 1 0.418332 0.961735 0
896 1 0.424146 0.985935 0
867 1 0.44208 0.969814 0
868 1 0.468058 0.976083 0
1771 1 0.491639 0.984748 0
1171 1 0.499771 0.304183 0
1591 1 0.500551 0.784047 0
931 1 0.525765 0.0406853 0
901 1 0.520477 0.016891 0
30 1 0.502567 0.0336755 0
902 1 0.544037 0.0246701 0
904 1 0.568202 0.0308835 0
906 1 0.586052 0.0144366 0
905 1 0.561844 0.00709547 0
935 1 0.592059 0.0388 0
908 1 0.609857 0.0216521 0
939 1 0.633357 0.0301012 0
909 1 0.629008 0.00568302 0
910 1 0.652339 0.0129829 0
941 1 0.657281 0.036455 0
912 1 0.676935 0.0194726 0
943 1 0.702222 0.0257678 0
914 1 0.723648 0.00927606 0
913 1 0.695817 0.00248413 0
945 1 0.727048 0.0338685 0
916 1 0.756947 0.00195688 0
947 1 0.750478 0.0244672 0
918 1 0.776181 0.0187281 0
919 1 0.799977 0.0107792 0
949 1 0.796317 0.0357169 0
951 1 0.82016 0.0302592 0
920 1 0.823188 0.00582687 0
922 1 0.843877 0.0241249 0
953 1 0.863718 0.0407541 0
923 1 0.866364 0.0158024 0
924 1 0.890476 0.0105154 0
954 1 0.888731 0.0361487 0
955 1 0.913137 0.0300842 0
925 1 0.912756 0.00227169 0
926 1 0.937913 0.0267328 0
928 1 0.947475 0.0050043 0
930 1 0.988684 0.0149967 0
959 1 0.964384 0.0217742 0
960 1 0.981414 0.0387733 0
932 1 0.531366 0.06493 0
961 1 0.512995 0.0817885 0
60 1 0.507918 0.0580878 0
933 1 0.549699 0.0485689 0
963 1 0.555134 0.0735475 0
934 1 0.574014 0.0560222 0
965 1 0.579206 0.0804551 0
937 1 0.615727 0.0471368 0
936 1 0.597389 0.063452 0
966 1 0.603129 0.0876719 0
967 1 0.620847 0.0710653 0
938 1 0.639147 0.054173 0
969 1 0.645226 0.079169 0
940 1 0.663307 0.0613402 0
970 1 0.669378 0.0854482 0
942 1 0.683162 0.043342 0
971 1 0.688054 0.0671476 0
944 1 0.706354 0.049953 0
973 1 0.711806 0.074699 0
975 1 0.728673 0.0584393 0
974 1 0.73809 0.0815255 0
946 1 0.750298 0.0492001 0
977 1 0.766731 0.0674767 0
948 1 0.77347 0.042731 0
979 1 0.791421 0.0604966 0
950 1 0.815156 0.0552489 0
978 1 0.809004 0.0792601 0
1007 1 0.785247 0.0847391 0
980 1 0.832631 0.0734003 0
981 1 0.856435 0.0664674 0
952 1 0.839046 0.0486642 0
983 1 0.880723 0.0605302 0
985 1 0.904651 0.0553142 0
984 1 0.898357 0.0791634 0
982 1 0.873903 0.0846862 0
956 1 0.930042 0.0491006 0
986 1 0.922161 0.0725118 0
987 1 0.947497 0.0678531 0
957 1 0.955388 0.044781 0
988 1 0.965826 0.0859216 0
958 1 0.973032 0.0620573 0
989 1 0.991184 0.079589 0
61 1 0.997969 0.0557023 0
962 1 0.536655 0.0891468 0
991 1 0.518701 0.106582 0
120 1 0.500455 0.124244 0
993 1 0.542636 0.113264 0
992 1 0.525156 0.131332 0
964 1 0.560631 0.0970482 0
994 1 0.565813 0.121172 0
995 1 0.584684 0.103662 0
996 1 0.59087 0.127443 0
968 1 0.627169 0.0951987 0
997 1 0.608393 0.111544 0
998 1 0.633259 0.11897 0
999 1 0.651838 0.102534 0
1000 1 0.656983 0.126163 0
1001 1 0.675171 0.108946 0
972 1 0.693435 0.0912864 0
1002 1 0.699728 0.116581 0
1003 1 0.718253 0.0984807 0
1004 1 0.723108 0.12333 0
976 1 0.762198 0.091732 0
1005 1 0.741877 0.106254 0
1035 1 0.746912 0.130524 0
1006 1 0.778308 0.110005 0
1008 1 0.802229 0.103941 0
1037 1 0.794436 0.128072 0
1039 1 0.818664 0.12254 0
1009 1 0.825277 0.0976004 0
1010 1 0.843111 0.115026 0
1011 1 0.849759 0.0910169 0
1012 1 0.867483 0.108005 0
1013 1 0.892279 0.102991 0
1014 1 0.884811 0.126093 0
1016 1 0.909611 0.120765 0
1017 1 0.941205 0.0913587 0
1015 1 0.916842 0.097337 0
1047 1 0.933659 0.115049 0
1018 1 0.959845 0.110113 0
1019 1 0.985208 0.102973 0
1020 1 0.976937 0.126632 0
1022 1 0.531151 0.154809 0
1051 1 0.512737 0.172534 0
1021 1 0.506853 0.148743 0
1023 1 0.54947 0.138114 0
1024 1 0.554371 0.161663 0
1025 1 0.572912 0.145226 0
1055 1 0.577673 0.168523 0
1027 1 0.613434 0.135385 0
1026 1 0.595841 0.152663 0
1028 1 0.619462 0.159392 0
1029 1 0.637536 0.142693 0
1059 1 0.644179 0.166446 0
1030 1 0.662892 0.149794 0
1031 1 0.681508 0.133607 0
1061 1 0.667985 0.174288 0
1032 1 0.686352 0.157638 0
1033 1 0.704933 0.140766 0
1063 1 0.710334 0.16527 0
1034 1 0.728445 0.14831 0
1036 1 0.754041 0.154554 0
1065 1 0.735598 0.172241 0
1067 1 0.770152 0.13502 0
1038 1 0.788093 0.151949 0
1069 1 0.805656 0.170325 0
1040 1 0.811962 0.145933 0
1071 1 0.829918 0.1636 0
1041 1 0.83606 0.139937 0
1042 1 0.85579 0.157921 0
1043 1 0.860144 0.133017 0
1044 1 0.879896 0.15072 0
1075 1 0.897587 0.168604 0
1045 1 0.904229 0.145074 0
1049 1 0.952297 0.13296 0
1046 1 0.928516 0.138847 0
1048 1 0.94581 0.157105 0
1077 1 0.921451 0.162651 0
121 1 0.993946 0.144657 0
1050 1 0.969818 0.150907 0
151 1 0.987913 0.168405 0
1053 1 0.536632 0.179364 0
1052 1 0.519358 0.196228 0
1083 1 0.54303 0.204072 0
1081 1 0.501406 0.213531 0
1054 1 0.559855 0.186081 0
1056 1 0.584485 0.192523 0
1085 1 0.567172 0.210957 0
1057 1 0.602083 0.177033 0
1058 1 0.625681 0.183573 0
1087 1 0.607983 0.20122 0
1089 1 0.631988 0.208006 0
1060 1 0.650339 0.190333 0
1091 1 0.674284 0.198515 0
1090 1 0.656009 0.215297 0
1062 1 0.692398 0.180801 0
1093 1 0.698119 0.205745 0
1064 1 0.716677 0.188504 0
1094 1 0.721518 0.213235 0
1066 1 0.759257 0.179233 0
1095 1 0.74019 0.195758 0
1097 1 0.764278 0.203547 0
1068 1 0.782834 0.186375 0
1098 1 0.787192 0.211583 0
1099 1 0.804905 0.196041 0
1100 1 0.817704 0.217425 0
1070 1 0.827503 0.187794 0
1072 1 0.850699 0.181562 0
1101 1 0.842712 0.206928 0
1073 1 0.87387 0.17484 0
1103 1 0.86848 0.199832 0
1074 1 0.891775 0.193808 0
1105 1 0.908536 0.21236 0
1078 1 0.939337 0.180986 0
1076 1 0.915311 0.186442 0
1107 1 0.932938 0.204985 0
1079 1 0.963597 0.175202 0
1109 1 0.956743 0.198796 0
181 1 0.980616 0.192767 0
1110 1 0.974171 0.21602 0
211 1 0.997998 0.210054 0
1082 1 0.525218 0.220681 0
1111 1 0.50632 0.237441 0
1113 1 0.53003 0.245473 0
1084 1 0.548725 0.22854 0
1114 1 0.553787 0.253263 0
1115 1 0.571647 0.235889 0
1116 1 0.578578 0.259813 0
1086 1 0.590465 0.218399 0
1088 1 0.613678 0.225704 0
1117 1 0.595871 0.243407 0
1118 1 0.619554 0.24976 0
1119 1 0.637072 0.231667 0
1121 1 0.660674 0.238978 0
1120 1 0.643215 0.256042 0
1092 1 0.679848 0.222319 0
1122 1 0.686025 0.24651 0
1123 1 0.703424 0.23027 0
1124 1 0.709497 0.254333 0
1125 1 0.727858 0.237392 0
1096 1 0.744995 0.220086 0
1126 1 0.750964 0.244651 0
1127 1 0.769177 0.228276 0
1155 1 0.733118 0.261742 0
1129 1 0.79433 0.235226 0
1128 1 0.775855 0.251831 0
1159 1 0.799194 0.25887 0
1130 1 0.817596 0.242523 0
1131 1 0.838647 0.231439 0
1132 1 0.8524 0.253514 0
1102 1 0.861341 0.22412 0
1104 1 0.885056 0.218069 0
1133 1 0.876575 0.244495 0
1135 1 0.900754 0.236696 0
1108 1 0.950465 0.222623 0
1136 1 0.918186 0.253674 0
1106 1 0.92526 0.229385 0
1137 1 0.942563 0.246216 0
1139 1 0.966881 0.239695 0
1140 1 0.991321 0.234073 0
1169 1 0.984641 0.257203 0
1112 1 0.512155 0.262352 0