ITEM: TIMESTEP
48000
ITEM: NUMBER OF ATOMS
1800
ITEM: BOX BOUNDS pp pp pp
9.1150991408517257e-01 1.6408849008591318e+02
9.1150991408517257e-01 1.6408849008591318e+02
0.0000000000000000e+00 5.5000000000000000e+00
ITEM: ATOMS id type xs ys zs
2 1 0.0137396 0.00738635 0
3 1 0.0379432 0.000772571 0
33 1 0.0304459 0.025215 0
31 1 0.00603415 0.0310094 0
4 1 0.0547443 0.0194506 0
6 1 0.0788977 0.0131183 0
35 1 0.0722414 0.0367691 0
34 1 0.047552 0.0432153 0
8 1 0.102643 0.00712992 0
37 1 0.0962154 0.0313029 0
39 1 0.119875 0.0248769 0
9 1 0.126092 0.000442209 0
10 1 0.143392 0.0183775 0
41 1 0.169528 0.0126273 0
42 1 0.162721 0.0363102 0
40 1 0.13786 0.0425562 0
12 1 0.194339 0.00529694 0
43 1 0.188141 0.0294648 0
14 1 0.213042 0.023095 0
16 1 0.259349 0.0248534 0
886 1 0.238391 0.0109187 0
17 1 0.262312 0.000404172 0
18 1 0.283866 0.0167626 0
49 1 0.304068 0.0338767 0
20 1 0.306635 0.00482548 0
51 1 0.325137 0.0208413 0
22 1 0.347433 0.0288609 0
21 1 0.364576 0.0111589 0
24 1 0.388712 0.0200346 0
53 1 0.370212 0.0365408 0
894 1 0.406653 0.00310052 0
25 1 0.413513 0.0273114 0
26 1 0.437118 0.0351779 0
27 1 0.431698 0.0103158 0
898 1 0.455151 0.0183361 0
29 1 0.47859 0.0261204 0
900 1 0.496921 0.0080306 0
899 1 0.472915 0.00190248 0
32 1 0.0232112 0.0489824 0
62 1 0.0149878 0.0723528 0
63 1 0.0394595 0.066716 0
65 1 0.0643744 0.0606634 0
66 1 0.081826 0.0781515 0
64 1 0.0569328 0.085162 0
36 1 0.088699 0.0545785 0
38 1 0.113443 0.0497272 0
67 1 0.10615 0.0727918 0
69 1 0.131758 0.066761 0
71 1 0.155203 0.0611254 0
72 1 0.172268 0.0778137 0
70 1 0.148223 0.085311 0
73 1 0.180478 0.0535501 0
44 1 0.205811 0.0465986 0
74 1 0.221337 0.0660641 0
103 1 0.196936 0.0718323 0
45 1 0.231102 0.042379 0
46 1 0.263297 0.0488913 0
75 1 0.244939 0.0656102 0
77 1 0.269701 0.0727362 0
47 1 0.287966 0.0544747 0
48 1 0.311083 0.0624701 0
78 1 0.293672 0.0799129 0
50 1 0.328431 0.0452903 0
81 1 0.334404 0.0700095 0
52 1 0.352573 0.0540318 0
82 1 0.358133 0.0784095 0
55 1 0.393853 0.0438859 0
83 1 0.37632 0.0614341 0
54 1 0.400551 0.0688756 0
113 1 0.381614 0.0865544 0
57 1 0.442698 0.0594085 0
85 1 0.424348 0.0767192 0
56 1 0.418397 0.0523381 0
87 1 0.448248 0.0845237 0
28 1 0.461039 0.0426094 0
59 1 0.484934 0.0504501 0
58 1 0.466131 0.0672506 0
89 1 0.490442 0.0748415 0
990 1 0.00820306 0.0961004 0
92 1 0.0255783 0.114447 0
93 1 0.0324592 0.0899941 0
91 1 0.00133876 0.12027 0
94 1 0.0487272 0.108402 0
95 1 0.0743711 0.101955 0
125 1 0.0666121 0.125256 0
96 1 0.0914299 0.119958 0
68 1 0.123517 0.0907986 0
97 1 0.0984054 0.0964245 0
98 1 0.115827 0.113783 0
99 1 0.140805 0.108701 0
100 1 0.165254 0.101971 0
130 1 0.157112 0.126689 0
131 1 0.181253 0.119711 0
101 1 0.189529 0.0951416 0
102 1 0.205205 0.113907 0
105 1 0.215121 0.0918009 0
76 1 0.250642 0.0908924 0
106 1 0.231457 0.110685 0
137 1 0.258174 0.115067 0
79 1 0.316638 0.0872551 0
107 1 0.275268 0.0977798 0
108 1 0.281905 0.122839 0
109 1 0.299439 0.105002 0
80 1 0.340219 0.0951881 0
110 1 0.323327 0.11318 0
141 1 0.34623 0.121269 0
111 1 0.363966 0.103601 0
84 1 0.405922 0.0939058 0
112 1 0.387999 0.110935 0
143 1 0.3696 0.12823 0
115 1 0.411086 0.119238 0
86 1 0.428933 0.10133 0
116 1 0.434952 0.125921 0
117 1 0.452941 0.10793 0
88 1 0.471644 0.0915049 0
90 1 0.495322 0.0989025 0
119 1 0.478085 0.115818 0
123 1 0.0423969 0.131715 0
122 1 0.0180708 0.137933 0
153 1 0.0363779 0.155119 0
152 1 0.0119456 0.160853 0
124 1 0.0605327 0.149723 0
126 1 0.0839885 0.144702 0
155 1 0.0767647 0.167938 0
154 1 0.0527202 0.174201 0
127 1 0.108957 0.137012 0
128 1 0.12496 0.156384 0
157 1 0.101453 0.162818 0
129 1 0.132414 0.131608 0
159 1 0.148273 0.150237 0
132 1 0.172711 0.144689 0
161 1 0.165241 0.168438 0
104 1 0.21951 0.132965 0
133 1 0.196091 0.139109 0
163 1 0.189437 0.163725 0
134 1 0.212402 0.156701 0
135 1 0.242548 0.132654 0
136 1 0.264235 0.141527 0
165 1 0.244681 0.158157 0
167 1 0.269228 0.165462 0
139 1 0.306018 0.129471 0
138 1 0.287543 0.148629 0
169 1 0.311188 0.155512 0
168 1 0.29297 0.173367 0
140 1 0.328221 0.138092 0
142 1 0.351132 0.14596 0
171 1 0.333377 0.163793 0
172 1 0.35695 0.17121 0
114 1 0.393152 0.135772 0
173 1 0.374699 0.152295 0
144 1 0.399161 0.159946 0
145 1 0.417191 0.143641 0
146 1 0.422358 0.167894 0
147 1 0.441249 0.150588 0
118 1 0.45934 0.131979 0
149 1 0.483003 0.140159 0
148 1 0.465249 0.157179 0
150 1 0.48828 0.164622 0
183 1 0.0285591 0.178872 0
182 1 0.0223603 0.203235 0
1080 1 0.00472381 0.185477 0
184 1 0.0462632 0.197419 0
185 1 0.0703034 0.192978 0
186 1 0.0871933 0.210972 0
215 1 0.0634632 0.216712 0
156 1 0.0938032 0.186071 0
158 1 0.118845 0.180827 0
187 1 0.111301 0.204239 0
189 1 0.134885 0.198764 0
160 1 0.142604 0.174345 0
191 1 0.159675 0.193938 0
221 1 0.175834 0.212371 0
162 1 0.183111 0.18729 0
193 1 0.205811 0.181696 0
192 1 0.199316 0.205349 0
164 1 0.228101 0.175614 0
195 1 0.229392 0.201868 0
166 1 0.251228 0.183531 0
196 1 0.254856 0.207915 0
197 1 0.273879 0.192094 0
199 1 0.29786 0.199608 0
198 1 0.280149 0.216439 0
170 1 0.316178 0.180986 0
201 1 0.339636 0.187935 0
200 1 0.321522 0.206036 0
202 1 0.34528 0.212293 0
203 1 0.363299 0.194834 0
174 1 0.381253 0.17728 0
204 1 0.386433 0.202688 0
175 1 0.40457 0.1853 0
177 1 0.445851 0.174682 0
205 1 0.409948 0.210159 0
176 1 0.428031 0.192272 0
207 1 0.43399 0.216692 0
178 1 0.451778 0.199303 0
179 1 0.46927 0.182024 0
180 1 0.49283 0.189947 0
209 1 0.475459 0.207283 0
1081 1 0.499123 0.213563 0
213 1 0.0399312 0.221205 0
212 1 0.016259 0.22747 0
243 1 0.0332914 0.244965 0
241 1 0.0094409 0.251388 0
216 1 0.0803116 0.235054 0
214 1 0.0571854 0.240579 0
245 1 0.073119 0.258751 0
188 1 0.127895 0.223103 0
217 1 0.103844 0.228646 0
218 1 0.120276 0.246747 0
247 1 0.0973605 0.254542 0
190 1 0.15194 0.216642 0
219 1 0.144257 0.24205 0
220 1 0.168996 0.235631 0
222 1 0.183405 0.255094 0
223 1 0.192888 0.230351 0
194 1 0.216244 0.222579 0
224 1 0.22343 0.245985 0
225 1 0.239517 0.227301 0
227 1 0.26303 0.233477 0
226 1 0.24618 0.253071 0
257 1 0.269659 0.259482 0
228 1 0.285815 0.240277 0
229 1 0.304253 0.223786 0
230 1 0.310277 0.247799 0
231 1 0.328087 0.229797 0
232 1 0.351617 0.236912 0
261 1 0.334319 0.255167 0
263 1 0.358157 0.262803 0
233 1 0.36903 0.21977 0
234 1 0.375334 0.244742 0
235 1 0.392806 0.227403 0
265 1 0.398759 0.251996 0
236 1 0.422253 0.259386 0
206 1 0.416333 0.23526 0
237 1 0.440257 0.241551 0
208 1 0.45737 0.224325 0
210 1 0.482212 0.230597 0
239 1 0.464217 0.248397 0
240 1 0.488042 0.25552 0
242 1 0.026731 0.2685 0
273 1 0.0412775 0.287607 0
271 1 0.0192981 0.298624 0
1170 1 0.00421586 0.276886 0
244 1 0.0500663 0.26457 0
275 1 0.0658574 0.291537 0
246 1 0.0887573 0.278862 0
276 1 0.0870493 0.30412 0
248 1 0.113128 0.27346 0
279 1 0.126489 0.300307 0
251 1 0.164376 0.270578 0
249 1 0.137235 0.264387 0
250 1 0.146236 0.28711 0
281 1 0.169754 0.295668 0
253 1 0.205695 0.263127 0
252 1 0.188213 0.279204 0
254 1 0.21072 0.288474 0
255 1 0.229186 0.270634 0
256 1 0.251789 0.277763 0
285 1 0.233657 0.296077 0
287 1 0.256729 0.301201 0
259 1 0.293268 0.265772 0
258 1 0.275337 0.283541 0
289 1 0.29935 0.290076 0
260 1 0.317165 0.273077 0
262 1 0.341456 0.279248 0
291 1 0.323537 0.296828 0
292 1 0.346543 0.30305 0
293 1 0.365081 0.287136 0
264 1 0.381798 0.26911 0
295 1 0.388283 0.294727 0
266 1 0.404786 0.277268 0
238 1 0.446243 0.265093 0
267 1 0.428737 0.283431 0
268 1 0.45358 0.289513 0
297 1 0.412531 0.301822 0
1141 1 0.496943 0.279536 0
269 1 0.470227 0.272539 0
270 1 0.477105 0.296114 0
301 1 0.0220972 0.32396 0
1230 1 0.00209714 0.339665 0
272 1 0.0421494 0.311046 0
303 1 0.045229 0.335251 0
274 1 0.0659278 0.317804 0
305 1 0.088023 0.329877 0
304 1 0.0682695 0.34414 0
277 1 0.108548 0.316135 0
278 1 0.13081 0.324557 0
307 1 0.111066 0.340011 0
280 1 0.150653 0.310866 0
311 1 0.15385 0.335352 0
282 1 0.174645 0.320772 0
312 1 0.177645 0.345916 0
283 1 0.192393 0.305421 0
284 1 0.21543 0.314632 0
313 1 0.197414 0.330992 0
315 1 0.221305 0.341653 0
286 1 0.239295 0.320636 0
317 1 0.263229 0.324931 0
316 1 0.247717 0.348157 0
288 1 0.281119 0.308093 0
318 1 0.277107 0.343319 0
290 1 0.306369 0.313117 0
319 1 0.300153 0.335956 0
321 1 0.325763 0.329275 0
323 1 0.352478 0.327792 0
324 1 0.375272 0.335204 0
294 1 0.370673 0.311312 0
325 1 0.398789 0.342856 0
296 1 0.394827 0.318328 0
298 1 0.435718 0.308156 0
327 1 0.418537 0.327269 0
328 1 0.442169 0.332974 0
329 1 0.466193 0.339062 0
299 1 0.458965 0.314268 0
300 1 0.483299 0.321191 0
1201 1 0.490198 0.345509 0
302 1 0.0256706 0.349325 0
332 1 0.0287121 0.374485 0
331 1 0.00531228 0.363351 0
361 1 0.00920591 0.388901 0
333 1 0.0480078 0.360014 0
335 1 0.0707687 0.369742 0
334 1 0.0508517 0.384481 0
306 1 0.0906952 0.354571 0
337 1 0.0938463 0.379711 0
308 1 0.113762 0.364719 0
309 1 0.133604 0.350218 0
338 1 0.116559 0.389855 0
339 1 0.137605 0.375476 0
310 1 0.157568 0.360743 0
341 1 0.160807 0.386016 0
343 1 0.180487 0.370639 0
314 1 0.200897 0.356338 0
344 1 0.203811 0.38078 0
345 1 0.223955 0.365806 0
347 1 0.270056 0.365982 0
346 1 0.245768 0.374427 0
377 1 0.265205 0.389758 0
349 1 0.294516 0.360392 0
348 1 0.287887 0.384115 0
350 1 0.310557 0.37841 0
320 1 0.317521 0.353025 0
322 1 0.341294 0.348343 0
351 1 0.333074 0.371932 0
353 1 0.357568 0.365823 0
352 1 0.350307 0.389937 0
355 1 0.3809 0.360818 0
354 1 0.374044 0.383137 0
356 1 0.406558 0.367124 0
326 1 0.424055 0.351929 0
357 1 0.432507 0.374866 0
359 1 0.447706 0.357517 0
358 1 0.456179 0.380961 0
330 1 0.472571 0.362523 0
1231 1 0.497285 0.369684 0
360 1 0.480723 0.387782 0
363 1 0.031651 0.400463 0
362 1 0.0109853 0.413833 0
364 1 0.0345819 0.425329 0
336 1 0.0734923 0.394527 0
365 1 0.0539948 0.409078 0
366 1 0.0767397 0.41949 0
395 1 0.0574137 0.434596 0
367 1 0.0967687 0.404606 0
369 1 0.120228 0.415075 0
368 1 0.10027 0.429656 0
340 1 0.13989 0.399894 0
370 1 0.142925 0.425545 0
371 1 0.162728 0.409377 0
375 1 0.227186 0.391707 0
342 1 0.183452 0.39553 0
372 1 0.185564 0.421903 0
373 1 0.206382 0.406353 0
403 1 0.207781 0.433335 0
374 1 0.227701 0.418637 0
376 1 0.247608 0.405823 0
405 1 0.250781 0.429196 0
378 1 0.272496 0.414601 0
379 1 0.303616 0.403392 0
409 1 0.2957 0.428597 0
381 1 0.327471 0.396404 0
382 1 0.345822 0.414077 0
380 1 0.322182 0.420024 0
413 1 0.363634 0.430419 0
383 1 0.369005 0.406592 0
385 1 0.392555 0.399919 0
384 1 0.387104 0.42266 0
386 1 0.420351 0.417376 0
387 1 0.41604 0.39256 0
388 1 0.439186 0.400012 0
419 1 0.446255 0.424504 0
389 1 0.463871 0.40614 0
1261 1 0.488353 0.411684 0
390 1 0.470953 0.429234 0
393 1 0.0144815 0.438027 0
423 1 0.0176785 0.464298 0
394 1 0.0371014 0.449716 0
425 1 0.0400935 0.474517 0
396 1 0.0609001 0.45954 0
397 1 0.0803239 0.444613 0
427 1 0.0835825 0.4697 0
399 1 0.122312 0.440146 0
398 1 0.103209 0.45478 0
429 1 0.126203 0.466576 0
401 1 0.16515 0.436044 0
400 1 0.145257 0.451163 0
431 1 0.168547 0.462535 0
430 1 0.147398 0.476875 0
402 1 0.18861 0.447485 0
433 1 0.210623 0.458398 0
432 1 0.190618 0.473515 0
404 1 0.230822 0.444054 0
406 1 0.252629 0.454415 0
435 1 0.233107 0.469094 0
407 1 0.273399 0.440485 0
437 1 0.274282 0.465316 0
408 1 0.294608 0.454269 0
410 1 0.316072 0.4437 0
439 1 0.301921 0.478234 0
411 1 0.339583 0.438276 0
412 1 0.358225 0.4543 0
441 1 0.333946 0.462965 0
415 1 0.406036 0.437795 0
414 1 0.383402 0.44812 0
443 1 0.372318 0.472543 0
445 1 0.397027 0.478547 0
417 1 0.430159 0.441272 0
418 1 0.454011 0.447304 0
416 1 0.414082 0.460579 0
447 1 0.437764 0.465863 0
1291 1 0.494901 0.435064 0
420 1 0.477604 0.45348 0
449 1 0.461341 0.472089 0
450 1 0.485888 0.477184 0
454 1 0.0235899 0.514236 0
424 1 0.0213246 0.489725 0
455 1 0.0437472 0.499733 0
453 1 0.00153374 0.504008 0
426 1 0.0643032 0.484584 0
456 1 0.0657005 0.510665 0
457 1 0.0864884 0.495532 0
487 1 0.0892408 0.521601 0
428 1 0.105492 0.479489 0
459 1 0.127564 0.491345 0
458 1 0.1085 0.506366 0
489 1 0.131242 0.518283 0
461 1 0.169987 0.487978 0
460 1 0.149962 0.5016 0
462 1 0.17289 0.51258 0
434 1 0.213587 0.483408 0
463 1 0.192346 0.49756 0
464 1 0.215495 0.50816 0
436 1 0.255328 0.479886 0
465 1 0.235521 0.493781 0
467 1 0.257732 0.503857 0
466 1 0.238115 0.519103 0
438 1 0.280001 0.488959 0
469 1 0.305649 0.503795 0
468 1 0.281493 0.513186 0
442 1 0.350138 0.484326 0
440 1 0.32493 0.487849 0
471 1 0.338627 0.50771 0
473 1 0.363501 0.514047 0
444 1 0.380611 0.497509 0
475 1 0.404406 0.502734 0
474 1 0.388498 0.521446 0
446 1 0.421131 0.48435 0
477 1 0.429442 0.50774 0
448 1 0.446008 0.490553 0
478 1 0.454622 0.514049 0
479 1 0.470395 0.495758 0
1381 1 0.494202 0.501794 0
480 1 0.478506 0.520245 0
452 1 0.00369242 0.529003 0
483 1 0.0266333 0.538976 0
482 1 0.00583699 0.553826 0
513 1 0.0283436 0.564238 0
485 1 0.0462497 0.524693 0
484 1 0.0495341 0.549703 0
486 1 0.0694192 0.535763 0
515 1 0.0711403 0.561158 0
517 1 0.0914747 0.546782 0
488 1 0.111679 0.532528 0
519 1 0.114216 0.558441 0
490 1 0.134231 0.544577 0
491 1 0.153579 0.529131 0
521 1 0.156808 0.555276 0
492 1 0.176232 0.540782 0
493 1 0.195102 0.524412 0
494 1 0.199844 0.549773 0
495 1 0.218399 0.534638 0
525 1 0.223278 0.559291 0
496 1 0.242048 0.544208 0
497 1 0.260817 0.528509 0
527 1 0.265254 0.553628 0
499 1 0.307139 0.545175 0
498 1 0.283527 0.536817 0
529 1 0.288795 0.561353 0
470 1 0.32154 0.525724 0
472 1 0.346943 0.532042 0
501 1 0.330444 0.549351 0
502 1 0.354165 0.556849 0
503 1 0.370777 0.538335 0
505 1 0.395344 0.544233 0
504 1 0.378535 0.562694 0
476 1 0.41245 0.526361 0
507 1 0.43738 0.531729 0
506 1 0.41941 0.550135 0
508 1 0.442673 0.55691 0
509 1 0.461053 0.538077 0
510 1 0.485206 0.545207 0
539 1 0.467287 0.563714 0
512 1 0.029105 0.58926 0
511 1 0.00623255 0.57771 0
541 1 0.00802373 0.602119 0
514 1 0.0504119 0.574982 0
545 1 0.0732586 0.586724 0
543 1 0.051366 0.599256 0
516 1 0.0938979 0.573326 0
518 1 0.117444 0.584121 0
547 1 0.0956075 0.597615 0
523 1 0.179282 0.565631 0
520 1 0.136548 0.569725 0
549 1 0.140141 0.596607 0
522 1 0.159172 0.581474 0
551 1 0.164236 0.608895 0
524 1 0.202991 0.574862 0
553 1 0.183711 0.590147 0
554 1 0.208788 0.600731 0
555 1 0.226255 0.584007 0
526 1 0.245843 0.568498 0
557 1 0.251443 0.593887 0
528 1 0.270274 0.577783 0
500 1 0.313077 0.567967 0
558 1 0.276376 0.601848 0
559 1 0.294704 0.58514 0
560 1 0.301345 0.608881 0
530 1 0.318649 0.592042 0
531 1 0.336627 0.573951 0
532 1 0.343063 0.598079 0
533 1 0.361119 0.580665 0
534 1 0.385289 0.587289 0
535 1 0.402452 0.569017 0
536 1 0.409017 0.594488 0
563 1 0.367032 0.604815 0
537 1 0.426972 0.575894 0
567 1 0.432062 0.601657 0
538 1 0.450028 0.582186 0
540 1 0.49109 0.569488 0
569 1 0.474027 0.587482 0
568 1 0.456596 0.606922 0
542 1 0.0302883 0.613345 0
571 1 0.0110836 0.627004 0
573 1 0.0327465 0.638203 0
572 1 0.0119784 0.651572 0
544 1 0.0530326 0.624809 0
546 1 0.0742373 0.611324 0
575 1 0.074977 0.636336 0
574 1 0.0542731 0.649371 0
548 1 0.1182 0.60935 0
577 1 0.0971056 0.622358 0
579 1 0.118259 0.633413 0
576 1 0.0971167 0.646753 0
550 1 0.142111 0.622662 0
581 1 0.172105 0.632795 0
580 1 0.152791 0.649198 0
552 1 0.189917 0.616101 0
582 1 0.195706 0.641237 0
583 1 0.214237 0.626543 0
584 1 0.220175 0.650514 0
556 1 0.232753 0.610621 0
585 1 0.239235 0.634685 0
586 1 0.263434 0.641776 0
587 1 0.256618 0.61865 0
589 1 0.282251 0.625071 0
590 1 0.306265 0.633137 0
588 1 0.287593 0.649674 0
561 1 0.324347 0.615412 0
562 1 0.348532 0.622011 0
591 1 0.329782 0.639581 0
593 1 0.354148 0.646887 0
565 1 0.389691 0.611473 0
564 1 0.371617 0.629906 0
595 1 0.39649 0.636161 0
566 1 0.413607 0.619477 0
596 1 0.421255 0.642706 0
597 1 0.438884 0.625114 0
599 1 0.446234 0.647356 0
570 1 0.483669 0.610957 0
600 1 0.465555 0.629869 0
1471 1 0.490737 0.63663 0
602 1 0.0142464 0.675888 0
603 1 0.03486 0.662949 0
633 1 0.0374341 0.686953 0
605 1 0.0770731 0.661421 0
604 1 0.0587036 0.675944 0
606 1 0.0787427 0.692172 0
578 1 0.116462 0.660051 0
607 1 0.0969527 0.674863 0
608 1 0.119317 0.684856 0
609 1 0.138556 0.6694 0
611 1 0.177308 0.657742 0
610 1 0.161517 0.676155 0
639 1 0.143207 0.693553 0
612 1 0.18485 0.684302 0
613 1 0.201885 0.666535 0
643 1 0.208643 0.691513 0
614 1 0.226462 0.675058 0
615 1 0.245904 0.658391 0
616 1 0.251551 0.683197 0
617 1 0.270092 0.667001 0
647 1 0.275021 0.691238 0
619 1 0.312272 0.657074 0
618 1 0.293691 0.674829 0
620 1 0.317934 0.681846 0
621 1 0.337062 0.665057 0
592 1 0.361986 0.673271 0
622 1 0.342526 0.689133 0
594 1 0.378778 0.653752 0
625 1 0.402999 0.659991 0
623 1 0.385948 0.678502 0
626 1 0.411384 0.684424 0
598 1 0.453024 0.67232 0
627 1 0.428831 0.665958 0
657 1 0.435319 0.689856 0
628 1 0.476646 0.679457 0
629 1 0.472375 0.653175 0
1501 1 0.499323 0.662529 0
630 1 0.498614 0.688446 0
632 1 0.016093 0.699632 0
663 1 0.0184461 0.723183 0
634 1 0.0421527 0.727339 0
635 1 0.0575484 0.705931 0
636 1 0.0821283 0.717491 0
665 1 0.0652249 0.73506 0
637 1 0.101125 0.702295 0
638 1 0.124984 0.710177 0
667 1 0.106801 0.726181 0
669 1 0.131729 0.735543 0
641 1 0.167255 0.701182 0
640 1 0.149898 0.717008 0
671 1 0.172682 0.726516 0
642 1 0.190949 0.708294 0
673 1 0.197572 0.734008 0
644 1 0.214291 0.716016 0
645 1 0.233744 0.700306 0
675 1 0.23991 0.724946 0
646 1 0.257206 0.708188 0
677 1 0.263773 0.732659 0
649 1 0.301752 0.700171 0
648 1 0.283577 0.716477 0
679 1 0.307523 0.726509 0
650 1 0.325264 0.707637 0
651 1 0.348943 0.715631 0
681 1 0.331488 0.735582 0
653 1 0.367712 0.696835 0
624 1 0.392907 0.702007 0
654 1 0.373916 0.722127 0
655 1 0.417469 0.707273 0
656 1 0.441598 0.715903 0
686 1 0.423363 0.732406 0
687 1 0.463918 0.728503 0
658 1 0.458963 0.697702 0
659 1 0.480722 0.707463 0
689 1 0.48819 0.734675 0
662 1 0.023412 0.746223 0
691 1 0.00440236 0.760725 0
693 1 0.0296108 0.770118 0
664 1 0.0469812 0.752158 0
695 1 0.0706218 0.758651 0
694 1 0.0530409 0.776789 0
666 1 0.0893735 0.742917 0
697 1 0.0952697 0.766639 0
668 1 0.113973 0.751267 0
698 1 0.120087 0.775923 0
699 1 0.137611 0.760011 0
670 1 0.155738 0.744528 0
701 1 0.16197 0.767865 0
672 1 0.180187 0.751453 0
702 1 0.184868 0.776297 0
674 1 0.221675 0.740146 0
703 1 0.203593 0.758295 0
705 1 0.227759 0.769077 0
676 1 0.244236 0.750119 0
707 1 0.268541 0.756709 0
706 1 0.269479 0.781219 0
678 1 0.288195 0.741105 0
680 1 0.31288 0.75248 0
709 1 0.291409 0.766978 0
652 1 0.356052 0.739304 0
682 1 0.356197 0.763891 0
711 1 0.331734 0.772698 0
685 1 0.400098 0.741808 0
683 1 0.377566 0.751664 0
713 1 0.375657 0.779069 0
684 1 0.397629 0.767922 0
715 1 0.420429 0.756029 0
717 1 0.443357 0.745605 0
718 1 0.451929 0.772303 0
716 1 0.418822 0.78027 0
690 1 0.493112 0.758845 0
688 1 0.4681 0.753931 0
719 1 0.476969 0.776748 0
692 1 0.0104771 0.78436 0
722 1 0.0163241 0.808667 0
723 1 0.0347436 0.793557 0
724 1 0.0407297 0.817138 0
696 1 0.0770895 0.783413 0
725 1 0.0586727 0.801265 0
726 1 0.0828998 0.809085 0
755 1 0.064267 0.825548 0
727 1 0.100256 0.790791 0
728 1 0.125473 0.799536 0
757 1 0.106532 0.815239 0
759 1 0.130667 0.823465 0
700 1 0.144263 0.784319 0
729 1 0.149719 0.808594 0
730 1 0.17425 0.819508 0
731 1 0.168854 0.794072 0
704 1 0.20767 0.78428 0
732 1 0.199695 0.807981 0
733 1 0.224296 0.801104 0
734 1 0.219286 0.826092 0
735 1 0.246051 0.78834 0
736 1 0.242458 0.815924 0
737 1 0.264459 0.806399 0
710 1 0.309704 0.784038 0
708 1 0.288416 0.796122 0
738 1 0.284373 0.820954 0
739 1 0.308279 0.811208 0
712 1 0.352194 0.78995 0
741 1 0.330134 0.799641 0
742 1 0.350627 0.814797 0
740 1 0.327706 0.825843 0
714 1 0.395874 0.792454 0
743 1 0.372773 0.803154 0
745 1 0.393783 0.8182 0
746 1 0.416163 0.806844 0
747 1 0.438118 0.794515 0
748 1 0.43698 0.820457 0
749 1 0.461691 0.796495 0
720 1 0.485402 0.801334 0
750 1 0.468153 0.820625 0
752 1 0.00342048 0.847775 0
753 1 0.0224802 0.832117 0
783 1 0.0270537 0.855465 0
754 1 0.0458351 0.84105 0
785 1 0.0722723 0.849425 0
784 1 0.0529899 0.86436 0
756 1 0.0898849 0.83328 0
758 1 0.113529 0.841051 0
787 1 0.095278 0.858 0
788 1 0.121483 0.86602 0
789 1 0.146371 0.856106 0
760 1 0.153209 0.832248 0
761 1 0.173748 0.845352 0
763 1 0.196225 0.834113 0
762 1 0.192468 0.860691 0
764 1 0.21531 0.851027 0
767 1 0.261998 0.830737 0
765 1 0.238851 0.841701 0
795 1 0.235471 0.866904 0
766 1 0.258967 0.85715 0
769 1 0.304508 0.834927 0
768 1 0.2808 0.845956 0
799 1 0.302126 0.860694 0
770 1 0.324876 0.851158 0
771 1 0.347253 0.841506 0
772 1 0.345549 0.866805 0
744 1 0.369822 0.829458 0
773 1 0.367521 0.855031 0
775 1 0.388902 0.844637 0
776 1 0.409132 0.85938 0
777 1 0.415013 0.834136 0
807 1 0.432874 0.853996 0
778 1 0.452007 0.839435 0
1621 1 0.492139 0.826625 0
809 1 0.457835 0.862759 0
779 1 0.476333 0.845085 0
782 1 0.00919859 0.873006 0
813 1 0.0341127 0.878185 0
812 1 0.0190155 0.895877 0
814 1 0.0402215 0.909541 0
786 1 0.0762775 0.873818 0
815 1 0.0575248 0.890058 0
816 1 0.0805793 0.8978 0
817 1 0.100851 0.882076 0
819 1 0.123446 0.892685 0
818 1 0.102143 0.907921 0
791 1 0.168887 0.869628 0
790 1 0.144853 0.880558 0
821 1 0.166498 0.895423 0
820 1 0.144032 0.90539 0
792 1 0.189968 0.886852 0
793 1 0.21279 0.87636 0
823 1 0.210541 0.901641 0
822 1 0.186496 0.912158 0
794 1 0.233776 0.892689 0
796 1 0.256461 0.882167 0
827 1 0.25362 0.908021 0
797 1 0.279661 0.871865 0
798 1 0.275663 0.897085 0
800 1 0.298913 0.886385 0
829 1 0.296182 0.91101 0
831 1 0.320065 0.901598 0
801 1 0.322725 0.876484 0
802 1 0.342221 0.891854 0
833 1 0.363026 0.906222 0
803 1 0.364096 0.881998 0
774 1 0.386853 0.870541 0
804 1 0.385222 0.896465 0
805 1 0.405965 0.884326 0
835 1 0.404858 0.911757 0
806 1 0.425116 0.899531 0
808 1 0.440644 0.879995 0
839 1 0.449103 0.904591 0
780 1 0.482393 0.868337 0
1681 1 0.490592 0.891832 0
810 1 0.465464 0.88601 0
840 1 0.472249 0.911916 0
842 1 0.0085005 0.941895 0
843 1 0.0143953 0.918503 0
844 1 0.0335549 0.933714 0
845 1 0.0571293 0.928093 0
846 1 0.0751776 0.946642 0
847 1 0.0801923 0.921879 0
875 1 0.050585 0.952007 0
848 1 0.0984128 0.939903 0
849 1 0.118118 0.925097 0
850 1 0.142144 0.93056 0
851 1 0.164036 0.920483 0
852 1 0.1622 0.945569 0
881 1 0.140391 0.954659 0
824 1 0.207614 0.927584 0
853 1 0.184877 0.937443 0
854 1 0.203998 0.953226 0
855 1 0.227323 0.9432 0
825 1 0.230803 0.917702 0
826 1 0.250445 0.933824 0
857 1 0.26984 0.948578 0
828 1 0.272554 0.922791 0
859 1 0.292506 0.938156 0
860 1 0.312231 0.952697 0
830 1 0.315589 0.926802 0
832 1 0.339282 0.917804 0
861 1 0.334871 0.943198 0
863 1 0.358965 0.932051 0
834 1 0.382178 0.921799 0
864 1 0.380323 0.946302 0
865 1 0.405994 0.936332 0
837 1 0.429546 0.923549 0
836 1 0.437549 0.946484 0
838 1 0.454744 0.928754 0
870 1 0.461103 0.953984 0
869 1 0.479253 0.936118 0
1711 1 0.496546 0.917179 0
872 1 0.0204218 0.983412 0
873 1 0.0261742 0.958285 0
871 1 0.00318208 0.965958 0
874 1 0.0444147 0.976233 0
5 1 0.0616092 0.995121 0
876 1 0.0671654 0.970255 0
7 1 0.0844339 0.989359 0
879 1 0.116347 0.958327 0
877 1 0.0913909 0.965232 0
878 1 0.108534 0.982771 0
880 1 0.133145 0.97847 0
11 1 0.152254 0.994961 0
882 1 0.157693 0.970756 0
13 1 0.176385 0.987543 0
883 1 0.180422 0.962444 0
15 1 0.217993 0.994707 0
884 1 0.199383 0.978596 0
885 1 0.223251 0.96854 0
856 1 0.246346 0.959577 0
887 1 0.241858 0.985567 0
888 1 0.266036 0.975207 0
858 1 0.289368 0.964508 0
19 1 0.28524 0.990841 0
889 1 0.309905 0.978554 0
862 1 0.355042 0.958453 0
891 1 0.331989 0.968573 0
890 1 0.3297 0.995132 0
892 1 0.355153 0.986591 0
23 1 0.382748 0.994912 0
893 1 0.37686 0.971267 0
895 1 0.400052 0.976766 0
897 1 0.44897 0.993904 0
866 1 0.417676 0.961155 0
896 1 0.424265 0.986608 0
867 1 0.442691 0.970778 0
868 1 0.468378 0.977279 0
1771 1 0.49176 0.984013 0
1741 1 0.485803 0.960477 0
931 1 0.526011 0.0405142 0
901 1 0.520568 0.0162047 0
30 1 0.502972 0.033287 0
902 1 0.543724 0.0236386 0
904 1 0.568327 0.0309243 0
906 1 0.58596 0.0139574 0
905 1 0.561808 0.00596654 0
935 1 0.591876 0.0378381 0
908 1 0.610172 0.0215411 0
939 1 0.634943 0.0296704 0
909 1 0.628007 0.00494976 0
910 1 0.652241 0.0127698 0
941 1 0.659286 0.0360985 0
912 1 0.677379 0.0204857 0
943 1 0.702634 0.0280431 0
914 1 0.727881 0.0115987 0
913 1 0.695726 0.0047186 0
945 1 0.725327 0.0379061 0
916 1 0.755621 0.00323413 0
947 1 0.749615 0.0260465 0
948 1 0.771226 0.0442135 0
918 1 0.774274 0.0196966 0
919 1 0.799954 0.0125325 0
949 1 0.79448 0.0369567 0
951 1 0.818356 0.0292134 0
920 1 0.822548 0.00380831 0
922 1 0.842156 0.0208718 0
953 1 0.861604 0.0387493 0
923 1 0.866305 0.015044 0
924 1 0.89098 0.00684529 0
954 1 0.88655 0.031172 0
955 1 0.911949 0.0303897 0
925 1 0.915892 0.00676593 0
926 1 0.937741 0.0244505 0
928 1 0.949124 0.00301501 0
930 1 0.989407 0.0140646 0
959 1 0.964406 0.0203959 0
960 1 0.981841 0.0373551 0
957 1 0.956018 0.0423712 0
932 1 0.532404 0.0648953 0
961 1 0.514473 0.0824835 0
60 1 0.508451 0.0576106 0
933 1 0.55 0.0481141 0
963 1 0.55615 0.0723769 0
934 1 0.574591 0.0549353 0
965 1 0.579667 0.0798364 0
937 1 0.616401 0.0459769 0
936 1 0.598518 0.0620634 0
967 1 0.621988 0.0701341 0
938 1 0.64083 0.0536426 0
969 1 0.647444 0.0774335 0
940 1 0.66515 0.0607171 0
970 1 0.6699 0.0858071 0
942 1 0.683382 0.0445103 0
971 1 0.687282 0.0689263 0
944 1 0.705973 0.0527763 0
973 1 0.710869 0.0781641 0
975 1 0.728553 0.0624232 0
974 1 0.735587 0.0852631 0
946 1 0.748305 0.0496492 0
977 1 0.7651 0.0677987 0
979 1 0.789125 0.0614411 0
950 1 0.813272 0.0541954 0
978 1 0.807976 0.0786166 0
1007 1 0.784188 0.0850926 0
980 1 0.832225 0.071834 0
981 1 0.856993 0.0641644 0
952 1 0.837861 0.0460197 0
983 1 0.880992 0.0578667 0
985 1 0.905457 0.0545423 0
984 1 0.899791 0.0773589 0
982 1 0.874875 0.0830461 0
956 1 0.930975 0.0481693 0
986 1 0.923408 0.0711972 0
987 1 0.948845 0.0658588 0
988 1 0.96565 0.084445 0
958 1 0.973377 0.0609976 0
989 1 0.989825 0.0790515 0
61 1 0.998201 0.055289 0
962 1 0.53766 0.0895518 0
991 1 0.519529 0.107112 0
120 1 0.501622 0.123662 0
993 1 0.543535 0.11492 0
964 1 0.561443 0.0975878 0
994 1 0.567997 0.121654 0
995 1 0.586716 0.104383 0
996 1 0.592475 0.128931 0
966 1 0.60386 0.0865066 0
968 1 0.628774 0.0950178 0
997 1 0.610058 0.112124 0
998 1 0.633749 0.120153 0
999 1 0.651738 0.10235 0
1000 1 0.657549 0.126737 0
1001 1 0.674915 0.110093 0
972 1 0.692679 0.0937488 0
1002 1 0.699194 0.118538 0
1003 1 0.717044 0.10151 0
1004 1 0.723867 0.125062 0
976 1 0.760145 0.0913361 0
1005 1 0.74134 0.108552 0
1006 1 0.776846 0.111405 0
1008 1 0.801727 0.10377 0
1037 1 0.796142 0.128221 0
1039 1 0.819759 0.120937 0
1009 1 0.82586 0.096682 0
1010 1 0.843884 0.11408 0
1011 1 0.850483 0.088966 0
1012 1 0.868683 0.107203 0
1013 1 0.893191 0.101635 0
1014 1 0.884752 0.125555 0
1016 1 0.910349 0.119618 0
1017 1 0.940837 0.0893972 0
1015 1 0.917537 0.0948505 0
1047 1 0.934514 0.113384 0
1018 1 0.958751 0.108889 0
1019 1 0.983691 0.103512 0
1020 1 0.976542 0.126684 0
992 1 0.526389 0.132521 0
1022 1 0.531113 0.156254 0
1051 1 0.511409 0.173428 0
1021 1 0.506991 0.148191 0
1023 1 0.549985 0.138808 0
1024 1 0.55465 0.162715 0
1025 1 0.573782 0.146692 0
1055 1 0.578968 0.170988 0
1027 1 0.615453 0.136857 0
1026 1 0.597393 0.153337 0
1028 1 0.621622 0.160879 0
1029 1 0.638928 0.143944 0
1059 1 0.645281 0.168134 0
1030 1 0.662804 0.151552 0
1031 1 0.680978 0.135065 0
1032 1 0.68763 0.158477 0
1033 1 0.706553 0.141634 0
1063 1 0.712304 0.165005 0
1035 1 0.748867 0.131304 0
1034 1 0.730831 0.148449 0
1036 1 0.754308 0.155046 0
1065 1 0.735721 0.172519 0
1067 1 0.773027 0.138414 0
1038 1 0.789068 0.157888 0
1069 1 0.808186 0.17159 0
1040 1 0.812668 0.146633 0
1071 1 0.832808 0.163137 0
1041 1 0.838097 0.139568 0
1042 1 0.856921 0.157928 0
1043 1 0.861089 0.132059 0
1044 1 0.879848 0.150226 0
1075 1 0.897917 0.168473 0
1045 1 0.904181 0.143672 0
1049 1 0.951751 0.132369 0
1046 1 0.927204 0.137582 0
1048 1 0.945037 0.15672 0
1077 1 0.920863 0.162443 0
121 1 0.994108 0.144369 0
1050 1 0.969777 0.15029 0
151 1 0.987819 0.167494 0
1053 1 0.535361 0.180563 0
1052 1 0.51692 0.197547 0
1083 1 0.542039 0.205157 0
1054 1 0.558815 0.187233 0
1056 1 0.584371 0.194652 0
1085 1 0.566594 0.210803 0
1057 1 0.602982 0.177731 0
1058 1 0.627775 0.185183 0
1087 1 0.609026 0.200613 0
1089 1 0.633356 0.208945 0
1061 1 0.668754 0.174952 0
1060 1 0.651729 0.191912 0
1091 1 0.674918 0.199931 0
1090 1 0.656831 0.216036 0
1062 1 0.693191 0.182118 0
1093 1 0.698977 0.207126 0
1064 1 0.717005 0.189074 0
1094 1 0.722757 0.212967 0
1066 1 0.760116 0.178411 0
1095 1 0.740915 0.196123 0
1097 1 0.764213 0.202515 0
1068 1 0.784598 0.18262 0
1098 1 0.786862 0.21114 0
1099 1 0.804616 0.196346 0
1070 1 0.826737 0.187509 0
1072 1 0.849943 0.18262 0
1101 1 0.842496 0.20753 0
1073 1 0.874271 0.176393 0
1103 1 0.866941 0.200741 0
1074 1 0.890446 0.194039 0
1105 1 0.908597 0.21127 0
1078 1 0.938639 0.180456 0
1076 1 0.915015 0.186323 0
1107 1 0.932173 0.204731 0
1079 1 0.96376 0.174538 0
1109 1 0.956454 0.198368 0
181 1 0.981475 0.192868 0
1110 1 0.974627 0.216558 0
211 1 0.999328 0.209827 0
1082 1 0.523718 0.221726 0
1111 1 0.506477 0.238564 0
1113 1 0.531652 0.244878 0
1084 1 0.548668 0.228134 0
1114 1 0.554946 0.2523 0
1115 1 0.572071 0.234353 0
1116 1 0.578938 0.25914 0
1086 1 0.591187 0.217376 0
1088 1 0.614456 0.225851 0
1117 1 0.59629 0.241466 0
1118 1 0.61989 0.250197 0
1119 1 0.638585 0.234095 0
1121 1 0.662341 0.240162 0
1120 1 0.643548 0.258196 0
1092 1 0.680696 0.223874 0
1122 1 0.686207 0.248044 0
1123 1 0.704287 0.230773 0
1124 1 0.709964 0.254579 0
1125 1 0.728349 0.23729 0
1096 1 0.746902 0.220894 0
1126 1 0.752099 0.245181 0
1127 1 0.770489 0.228483 0
1100 1 0.817485 0.217721 0
1129 1 0.795396 0.234183 0
1128 1 0.776273 0.25177 0
1159 1 0.800432 0.259177 0
1130 1 0.817979 0.242904 0
1131 1 0.839267 0.232427 0
1132 1 0.852362 0.252837 0
1102 1 0.861048 0.224838 0
1104 1 0.884395 0.218576 0
1133 1 0.877107 0.243451 0
1135 1 0.902815 0.236027 0
1134 1 0.896347 0.261321 0
1108 1 0.950413 0.221483 0
1136 1 0.920402 0.253121 0
1106 1 0.926122 0.228962 0
1137 1 0.944655 0.246034 0
1139 1 0.968036 0.240074 0
1140 1 0.991372 0.233421 0
1169 1 0.985743 0.25745 0
1112 1 0.514048 0.263054 0
1142 1 0.520598 0.286732 0
1143 1 0.537622 0.269261 0
1144 1 0.545171 0.29263 0
1171 1 0.50127 0.303045 0