ITEM: TIMESTEP
50000
ITEM: NUMBER OF ATOMS
1800
ITEM: BOX BOUNDS pp pp pp
9.0667454021144067e-01 1.6409332545978677e+02
9.0667454021144067e-01 1.6409332545978677e+02
0.0000000000000000e+00 5.5000000000000000e+00
ITEM: ATOMS id type xs ys zs
2 1 0.0137317 0.0076825 0
3 1 0.037143 0.0011494 0
33 1 0.0313817 0.0249369 0
31 1 0.00633333 0.031642 0
4 1 0.0544509 0.0186507 0
6 1 0.0785092 0.0119952 0
35 1 0.0720774 0.0365562 0
34 1 0.0473023 0.0434142 0
8 1 0.102118 0.00588862 0
37 1 0.0961772 0.0295564 0
39 1 0.120036 0.0227013 0
10 1 0.145563 0.0164058 0
41 1 0.170265 0.0104856 0
42 1 0.161797 0.0341219 0
40 1 0.137592 0.0402536 0
12 1 0.194693 0.00312391 0
43 1 0.187011 0.0278889 0
14 1 0.212212 0.0210787 0
16 1 0.260467 0.0231894 0
886 1 0.235001 0.013057 0
45 1 0.230974 0.0419702 0
18 1 0.284183 0.0141211 0
49 1 0.303225 0.0364148 0
20 1 0.306549 0.0017257 0
51 1 0.322333 0.0200949 0
22 1 0.344464 0.0297112 0
21 1 0.362204 0.0115608 0
24 1 0.386411 0.0198353 0
53 1 0.368004 0.0371549 0
894 1 0.404757 0.00307688 0
25 1 0.411226 0.0272766 0
26 1 0.435683 0.0356119 0
27 1 0.428991 0.009957 0
898 1 0.453512 0.0169348 0
29 1 0.477363 0.0248185 0
900 1 0.495974 0.00820444 0
899 1 0.472239 0.000927849 0
28 1 0.459745 0.04106 0
32 1 0.0237834 0.0489911 0
62 1 0.0155841 0.0717426 0
63 1 0.039933 0.0673019 0
65 1 0.0643881 0.060498 0
66 1 0.0821355 0.0775996 0
64 1 0.0564168 0.0847617 0
36 1 0.088228 0.0535891 0
38 1 0.113338 0.0468422 0
67 1 0.105736 0.0707105 0
69 1 0.131006 0.064677 0
71 1 0.155203 0.0592417 0
72 1 0.171907 0.0773894 0
70 1 0.148121 0.0838812 0
73 1 0.179817 0.0514772 0
44 1 0.20513 0.0459812 0
74 1 0.220581 0.0657626 0
103 1 0.195872 0.0711353 0
46 1 0.262534 0.0485166 0
75 1 0.244112 0.0649722 0
77 1 0.267533 0.0729039 0
47 1 0.285983 0.0548591 0
48 1 0.309346 0.0636031 0
78 1 0.292096 0.0803402 0
50 1 0.32607 0.0463834 0
81 1 0.332735 0.0718271 0
52 1 0.350315 0.0545691 0
82 1 0.356475 0.0795811 0
55 1 0.392043 0.0441123 0
83 1 0.374338 0.0621044 0
54 1 0.398918 0.0688 0
113 1 0.380649 0.0865465 0
57 1 0.440944 0.059579 0
85 1 0.422495 0.076208 0
56 1 0.416213 0.0521578 0
87 1 0.447802 0.0837649 0
59 1 0.484121 0.0486558 0
58 1 0.465369 0.0656644 0
89 1 0.488796 0.0737222 0
990 1 0.00738108 0.0947364 0
92 1 0.0252841 0.114291 0
93 1 0.0321776 0.0905641 0
91 1 0.00157845 0.119387 0
94 1 0.0500079 0.108254 0
95 1 0.0743563 0.101378 0
125 1 0.0670909 0.126131 0
96 1 0.0911413 0.119094 0
68 1 0.122721 0.0887182 0
97 1 0.0990023 0.0951388 0
98 1 0.115823 0.112647 0
99 1 0.140382 0.108237 0
100 1 0.164735 0.101426 0
130 1 0.157688 0.125821 0
131 1 0.180993 0.11957 0
101 1 0.189163 0.0946559 0
102 1 0.204029 0.113507 0
105 1 0.214403 0.0900239 0
76 1 0.247342 0.0894844 0
106 1 0.231008 0.110302 0
137 1 0.256559 0.112841 0
79 1 0.315155 0.0885769 0
107 1 0.274252 0.0969302 0
108 1 0.27932 0.123189 0
109 1 0.297197 0.105651 0
80 1 0.338125 0.096525 0
110 1 0.320522 0.114134 0
141 1 0.345604 0.1217 0
111 1 0.363239 0.103738 0
84 1 0.405584 0.0936635 0
112 1 0.386439 0.110531 0
143 1 0.369129 0.12878 0
115 1 0.4109 0.118222 0
86 1 0.429386 0.101096 0
116 1 0.435403 0.125725 0
117 1 0.452648 0.108139 0
88 1 0.471116 0.0912472 0
90 1 0.494787 0.098517 0
119 1 0.476622 0.115729 0
123 1 0.0426099 0.131438 0
122 1 0.0191098 0.137684 0
153 1 0.036293 0.156323 0
152 1 0.0102812 0.161016 0
124 1 0.0604728 0.149485 0
126 1 0.084174 0.143963 0
155 1 0.076671 0.16864 0
127 1 0.108664 0.137345 0
128 1 0.125073 0.157003 0
157 1 0.0999861 0.162305 0
129 1 0.132579 0.130941 0
159 1 0.148502 0.149762 0
132 1 0.17285 0.144339 0
161 1 0.165927 0.168087 0
104 1 0.219506 0.132069 0
133 1 0.196651 0.139142 0
163 1 0.190726 0.162396 0
134 1 0.215039 0.156828 0
135 1 0.24312 0.133162 0
136 1 0.264956 0.14436 0
165 1 0.24388 0.157396 0
167 1 0.268883 0.169459 0
139 1 0.302575 0.131253 0
138 1 0.287585 0.15213 0
169 1 0.311459 0.156915 0
140 1 0.327598 0.137661 0
142 1 0.351522 0.14651 0
171 1 0.333957 0.165183 0
172 1 0.357766 0.171973 0
114 1 0.392544 0.135831 0
173 1 0.374161 0.153102 0
144 1 0.398736 0.159602 0
145 1 0.417758 0.143213 0
146 1 0.423707 0.167065 0
147 1 0.442072 0.149866 0
118 1 0.459376 0.132489 0
149 1 0.483537 0.140192 0
148 1 0.466363 0.157798 0
150 1 0.489984 0.164621 0
183 1 0.028046 0.179433 0
182 1 0.0217375 0.20353 0
1080 1 0.00383863 0.185827 0
154 1 0.053516 0.173622 0
184 1 0.0454506 0.198151 0
185 1 0.0697884 0.19271 0
186 1 0.08737 0.211427 0
215 1 0.0622674 0.216669 0
156 1 0.0941471 0.187032 0
158 1 0.118257 0.180249 0
187 1 0.1111 0.204479 0
189 1 0.135012 0.1987 0
160 1 0.141687 0.173997 0
191 1 0.158914 0.192104 0
221 1 0.175523 0.210921 0
190 1 0.151731 0.216963 0
162 1 0.182481 0.186583 0
193 1 0.205686 0.181681 0
192 1 0.199416 0.205346 0
164 1 0.229869 0.178204 0
195 1 0.235374 0.204057 0
166 1 0.252346 0.186878 0
196 1 0.258462 0.211612 0
168 1 0.292984 0.176179 0
197 1 0.275772 0.193754 0
199 1 0.299281 0.200734 0
170 1 0.316181 0.182126 0
201 1 0.340214 0.189293 0
200 1 0.322867 0.207647 0
202 1 0.347615 0.213398 0
203 1 0.364534 0.195901 0
174 1 0.381518 0.177812 0
204 1 0.388047 0.202571 0
175 1 0.405743 0.184404 0
177 1 0.448518 0.174687 0
205 1 0.411889 0.209666 0
176 1 0.429292 0.19239 0
178 1 0.454021 0.198492 0
207 1 0.437049 0.216553 0
179 1 0.472313 0.181456 0
180 1 0.497035 0.189147 0
209 1 0.479072 0.206161 0
213 1 0.038677 0.222226 0
212 1 0.0159543 0.227568 0
243 1 0.0331129 0.246459 0
241 1 0.00777195 0.252171 0
216 1 0.0805365 0.235916 0
214 1 0.0562587 0.240544 0
245 1 0.0735161 0.259675 0
188 1 0.127448 0.222778 0
217 1 0.103464 0.229807 0
218 1 0.120466 0.246737 0
247 1 0.0982962 0.255809 0
219 1 0.14453 0.240166 0
220 1 0.168477 0.234719 0
222 1 0.18341 0.253152 0
223 1 0.192954 0.229472 0
194 1 0.216464 0.221694 0
224 1 0.222538 0.246658 0
225 1 0.239674 0.228842 0
227 1 0.263653 0.235902 0
226 1 0.247188 0.253565 0
257 1 0.270516 0.260156 0
198 1 0.282131 0.218095 0
228 1 0.287312 0.242553 0
229 1 0.30599 0.225512 0
230 1 0.311217 0.249508 0
231 1 0.329992 0.231366 0
232 1 0.352675 0.238433 0
261 1 0.335211 0.256273 0
233 1 0.371068 0.2211 0
234 1 0.376128 0.245303 0
235 1 0.395034 0.227295 0
265 1 0.39999 0.25106 0
236 1 0.424414 0.258329 0
206 1 0.419661 0.233601 0
237 1 0.44288 0.240852 0
208 1 0.46019 0.223386 0
210 1 0.48402 0.23045 0
239 1 0.466882 0.246833 0
240 1 0.49041 0.254662 0
242 1 0.0259264 0.270294 0
273 1 0.0422162 0.288876 0
271 1 0.0170899 0.297628 0
1170 1 0.00266357 0.277512 0
244 1 0.0499262 0.265226 0
275 1 0.0662249 0.283045 0
246 1 0.0923466 0.279882 0
248 1 0.117422 0.273417 0
279 1 0.125401 0.299545 0
251 1 0.162681 0.267315 0
249 1 0.139228 0.263168 0
250 1 0.145387 0.285403 0
281 1 0.168082 0.295871 0
253 1 0.205435 0.262759 0
252 1 0.185438 0.278021 0
254 1 0.209789 0.286645 0
283 1 0.191224 0.303495 0
255 1 0.228597 0.270537 0
256 1 0.252013 0.277578 0
285 1 0.232619 0.29523 0
287 1 0.256063 0.3021 0
259 1 0.293509 0.267456 0
258 1 0.274667 0.285177 0
289 1 0.298934 0.29154 0
260 1 0.316933 0.274126 0
263 1 0.358474 0.262368 0
262 1 0.340888 0.27997 0
291 1 0.323887 0.298856 0
293 1 0.365277 0.286789 0
264 1 0.383064 0.269527 0
295 1 0.389093 0.293951 0
266 1 0.406045 0.27595 0
238 1 0.449686 0.264533 0
267 1 0.429757 0.282373 0
268 1 0.453173 0.289418 0
297 1 0.413242 0.301129 0
1141 1 0.496853 0.279931 0
269 1 0.473021 0.272985 0
270 1 0.478203 0.29692 0
301 1 0.0209428 0.325137 0
1230 1 0.000981835 0.340111 0
272 1 0.0413828 0.312186 0
303 1 0.0449278 0.336425 0
276 1 0.0838853 0.303796 0
274 1 0.0650783 0.321053 0
305 1 0.0875578 0.331074 0
304 1 0.0679106 0.346084 0
277 1 0.106671 0.315129 0
278 1 0.129568 0.325346 0
307 1 0.111316 0.340735 0
280 1 0.148233 0.310638 0
311 1 0.152679 0.335231 0
282 1 0.171826 0.319883 0
312 1 0.175609 0.344732 0
284 1 0.214026 0.312435 0
313 1 0.195128 0.328844 0
315 1 0.220393 0.337382 0
286 1 0.238638 0.319862 0
317 1 0.261593 0.326523 0
316 1 0.249283 0.348861 0
288 1 0.281277 0.309791 0
318 1 0.277789 0.343531 0
290 1 0.306574 0.315302 0
319 1 0.301528 0.338854 0
292 1 0.347454 0.304944 0
321 1 0.328339 0.325981 0
323 1 0.354244 0.328252 0
324 1 0.37745 0.336013 0
294 1 0.371842 0.311435 0
325 1 0.401631 0.342336 0
296 1 0.395549 0.317723 0
298 1 0.436509 0.308509 0
327 1 0.419399 0.32514 0
328 1 0.444102 0.332711 0
329 1 0.467521 0.33855 0
299 1 0.460297 0.313614 0
300 1 0.484753 0.321567 0
1201 1 0.491798 0.345231 0
302 1 0.0238647 0.350193 0
332 1 0.0275483 0.375376 0
331 1 0.00441432 0.365317 0
361 1 0.00699884 0.390987 0
333 1 0.0483149 0.360724 0
335 1 0.0713678 0.370835 0
334 1 0.0508876 0.385165 0
306 1 0.0913384 0.355297 0
337 1 0.0946937 0.381359 0
308 1 0.113914 0.365678 0
309 1 0.133415 0.35143 0
338 1 0.117346 0.390633 0
339 1 0.136723 0.376061 0
310 1 0.156179 0.359881 0
341 1 0.160147 0.38479 0
343 1 0.179546 0.36976 0
314 1 0.199315 0.353538 0
344 1 0.20225 0.378835 0
345 1 0.22266 0.36431 0
375 1 0.223609 0.390494 0
347 1 0.269013 0.365982 0
346 1 0.24417 0.375529 0
377 1 0.264633 0.389529 0
349 1 0.294053 0.362992 0
348 1 0.287658 0.386708 0
350 1 0.31189 0.38013 0
320 1 0.318619 0.356059 0
322 1 0.341457 0.348335 0
351 1 0.335959 0.373106 0
353 1 0.360066 0.365206 0
352 1 0.353703 0.389631 0
355 1 0.383944 0.360311 0
354 1 0.37829 0.383998 0
356 1 0.407085 0.368017 0
326 1 0.424918 0.35121 0
357 1 0.431757 0.375308 0
359 1 0.448308 0.357472 0
358 1 0.454519 0.381401 0
330 1 0.472359 0.362791 0
1231 1 0.495961 0.370065 0
360 1 0.478675 0.386656 0
363 1 0.0321364 0.400647 0
362 1 0.0113512 0.415313 0
364 1 0.0359628 0.426418 0
336 1 0.0745599 0.394845 0
365 1 0.0550962 0.410338 0
366 1 0.0777599 0.419534 0
367 1 0.0987549 0.405774 0
369 1 0.120112 0.416437 0
368 1 0.101368 0.431375 0
340 1 0.139784 0.401354 0
370 1 0.142731 0.425859 0
371 1 0.162823 0.410075 0
342 1 0.182849 0.3942 0
372 1 0.184889 0.419986 0
373 1 0.204987 0.406171 0
403 1 0.205995 0.431645 0
374 1 0.225636 0.418144 0
376 1 0.244895 0.403264 0
405 1 0.250177 0.427422 0
378 1 0.275708 0.41194 0
379 1 0.305906 0.404333 0
409 1 0.296265 0.427708 0
381 1 0.330143 0.397654 0
382 1 0.347597 0.415456 0
380 1 0.323974 0.421584 0
413 1 0.364165 0.432524 0
383 1 0.370653 0.407909 0
385 1 0.393937 0.403069 0
384 1 0.387641 0.425456 0
386 1 0.421155 0.418682 0
387 1 0.41531 0.3941 0
388 1 0.439394 0.400764 0
419 1 0.445947 0.424303 0
389 1 0.463028 0.406123 0
1261 1 0.486433 0.411549 0
390 1 0.470123 0.430456 0
393 1 0.0164554 0.440325 0
423 1 0.0196049 0.465109 0
394 1 0.0393333 0.451405 0
425 1 0.0416464 0.476007 0
395 1 0.0590908 0.435815 0
396 1 0.061778 0.461073 0
397 1 0.0817727 0.446506 0
427 1 0.0838108 0.472656 0
399 1 0.123609 0.442042 0
398 1 0.104602 0.457903 0
429 1 0.126536 0.467399 0
401 1 0.165455 0.434973 0
400 1 0.146538 0.45213 0
431 1 0.168079 0.46107 0
430 1 0.14944 0.47791 0
402 1 0.187644 0.446458 0
433 1 0.210038 0.457885 0
432 1 0.190556 0.471888 0
404 1 0.229584 0.442212 0
406 1 0.252768 0.452253 0
435 1 0.233875 0.467399 0
436 1 0.255408 0.47844 0
407 1 0.273281 0.437919 0
437 1 0.274176 0.463155 0
408 1 0.294178 0.451995 0
410 1 0.316812 0.445414 0
439 1 0.301849 0.475739 0
411 1 0.340922 0.440535 0
412 1 0.359516 0.45603 0
441 1 0.33355 0.463376 0
415 1 0.407109 0.438352 0
414 1 0.384043 0.449592 0
443 1 0.375361 0.474115 0
417 1 0.430879 0.442499 0
418 1 0.45415 0.448055 0
416 1 0.414061 0.461301 0
447 1 0.438164 0.466543 0
1291 1 0.493648 0.435725 0
420 1 0.477961 0.45488 0
449 1 0.461541 0.472835 0
450 1 0.486328 0.478757 0
454 1 0.0238294 0.516126 0
424 1 0.0215873 0.490834 0
455 1 0.044528 0.501202 0
453 1 0.00134724 0.504681 0
426 1 0.0642771 0.486997 0
456 1 0.0668063 0.512357 0
457 1 0.0866079 0.497155 0
487 1 0.0902598 0.522731 0
428 1 0.106528 0.483468 0
459 1 0.129004 0.492404 0
458 1 0.109696 0.508193 0
489 1 0.132842 0.519083 0
461 1 0.171519 0.487519 0
460 1 0.152249 0.503854 0
462 1 0.174568 0.513055 0
434 1 0.213841 0.482699 0
463 1 0.193587 0.497686 0
464 1 0.215708 0.507955 0
465 1 0.236581 0.493737 0
467 1 0.258971 0.502536 0
466 1 0.239198 0.517365 0
438 1 0.278959 0.486646 0
469 1 0.305602 0.503692 0
468 1 0.282024 0.510512 0
442 1 0.351611 0.480632 0
440 1 0.324697 0.48707 0
471 1 0.341349 0.504825 0
473 1 0.36389 0.513502 0
445 1 0.39761 0.479043 0
444 1 0.382396 0.497422 0
475 1 0.405559 0.503864 0
446 1 0.421499 0.485477 0
477 1 0.429348 0.510353 0
448 1 0.445149 0.491049 0
478 1 0.452669 0.515453 0
479 1 0.469405 0.496558 0
1381 1 0.49309 0.501708 0
480 1 0.477068 0.520374 0
452 1 0.00344994 0.530088 0
483 1 0.0251348 0.540926 0
482 1 0.00512903 0.554906 0
513 1 0.0278647 0.565291 0
485 1 0.046622 0.525916 0
484 1 0.0484215 0.550838 0
486 1 0.0683306 0.536637 0
515 1 0.0721461 0.562342 0
517 1 0.0923585 0.547748 0
488 1 0.113142 0.533543 0
519 1 0.115626 0.558994 0
490 1 0.136048 0.544002 0
491 1 0.155785 0.529264 0
521 1 0.158271 0.55554 0
492 1 0.177912 0.539622 0
493 1 0.19734 0.523747 0
494 1 0.200306 0.549714 0
495 1 0.219799 0.534292 0
525 1 0.222998 0.558818 0
496 1 0.242853 0.543126 0
497 1 0.261344 0.526355 0
527 1 0.266698 0.550994 0
499 1 0.307653 0.54177 0
498 1 0.285216 0.534559 0
529 1 0.289815 0.558731 0
470 1 0.323381 0.521521 0
472 1 0.345931 0.53059 0
501 1 0.330682 0.549084 0
502 1 0.353182 0.557763 0
474 1 0.387275 0.521851 0
503 1 0.369446 0.539502 0
505 1 0.394712 0.546595 0
504 1 0.377488 0.563924 0
476 1 0.412442 0.527554 0
507 1 0.437554 0.534869 0
506 1 0.419535 0.551116 0
508 1 0.442923 0.558856 0
509 1 0.461293 0.540205 0
510 1 0.485077 0.545552 0
539 1 0.467637 0.563997 0
512 1 0.0295183 0.589921 0
511 1 0.00684649 0.578711 0
541 1 0.00891865 0.603931 0
514 1 0.051066 0.576101 0
545 1 0.0733112 0.587979 0
543 1 0.0525606 0.601175 0
516 1 0.0935627 0.574115 0
518 1 0.117697 0.584333 0
547 1 0.0965979 0.598943 0
523 1 0.180778 0.565089 0
520 1 0.137736 0.56968 0
549 1 0.141556 0.595913 0
522 1 0.161438 0.581312 0
551 1 0.164614 0.606682 0
524 1 0.203842 0.575172 0
553 1 0.184821 0.590685 0
554 1 0.208589 0.600086 0
555 1 0.226738 0.583383 0
526 1 0.247178 0.56826 0
557 1 0.251058 0.591794 0
528 1 0.270781 0.575957 0
556 1 0.232954 0.608184 0
500 1 0.31322 0.566905 0
558 1 0.276173 0.600209 0
559 1 0.294822 0.584173 0
530 1 0.317961 0.591993 0
531 1 0.336271 0.574535 0
532 1 0.341997 0.598957 0
533 1 0.359809 0.581983 0
534 1 0.383884 0.587183 0
535 1 0.402211 0.569388 0
563 1 0.367496 0.605729 0
536 1 0.410299 0.593921 0
537 1 0.42693 0.575531 0
567 1 0.434263 0.600673 0
538 1 0.451094 0.582749 0
540 1 0.492873 0.569797 0
569 1 0.475619 0.58819 0
568 1 0.459906 0.606924 0
1441 1 0.500536 0.593945 0
542 1 0.031743 0.614452 0
571 1 0.0120371 0.629027 0
573 1 0.0344089 0.639908 0
544 1 0.0553702 0.626426 0
546 1 0.0757888 0.612532 0
575 1 0.0768237 0.637559 0
574 1 0.0558338 0.651888 0
548 1 0.121047 0.610174 0
577 1 0.0979554 0.623875 0
579 1 0.121432 0.635317 0
576 1 0.0983947 0.648395 0
550 1 0.145865 0.623602 0
581 1 0.171048 0.6321 0
580 1 0.152043 0.648109 0
552 1 0.189662 0.61605 0
582 1 0.195808 0.640863 0
583 1 0.214486 0.62458 0
584 1 0.219526 0.648731 0
585 1 0.239451 0.632503 0
586 1 0.263259 0.6415 0
587 1 0.257524 0.616676 0
560 1 0.300481 0.608813 0
589 1 0.282509 0.625483 0
590 1 0.306125 0.633496 0
588 1 0.287872 0.649371 0
561 1 0.324494 0.616981 0
562 1 0.349898 0.623624 0
591 1 0.330761 0.640907 0
593 1 0.355346 0.647318 0
565 1 0.392118 0.610579 0
564 1 0.374539 0.629196 0
595 1 0.399794 0.635796 0
566 1 0.417297 0.617519 0
596 1 0.422865 0.642703 0
597 1 0.441621 0.62481 0
599 1 0.447717 0.648889 0
570 1 0.482829 0.613207 0
600 1 0.465999 0.630867 0
1471 1 0.490811 0.638329 0
572 1 0.0129909 0.653013 0
602 1 0.0128775 0.677239 0
603 1 0.0351141 0.66534 0
633 1 0.0385281 0.692665 0
605 1 0.0782669 0.663049 0
604 1 0.0574299 0.677717 0
606 1 0.0784619 0.690925 0
578 1 0.118803 0.660749 0
607 1 0.0994202 0.6759 0
608 1 0.12226 0.685171 0
609 1 0.141445 0.669973 0
611 1 0.178575 0.658297 0
610 1 0.163969 0.677309 0
639 1 0.145525 0.693792 0
612 1 0.187279 0.684555 0
613 1 0.203181 0.666066 0
643 1 0.210174 0.691541 0
614 1 0.226971 0.673686 0
615 1 0.245039 0.657257 0
616 1 0.25143 0.682631 0
617 1 0.26879 0.665988 0
647 1 0.274695 0.691092 0
619 1 0.312712 0.657909 0
618 1 0.293552 0.675238 0
620 1 0.31842 0.681928 0
621 1 0.338034 0.664972 0
592 1 0.362211 0.671052 0
622 1 0.342093 0.689425 0
594 1 0.380461 0.653489 0
625 1 0.404197 0.659365 0
623 1 0.386049 0.677137 0
626 1 0.409301 0.684857 0
598 1 0.452935 0.672702 0
627 1 0.428189 0.666342 0
657 1 0.432998 0.690408 0
628 1 0.477414 0.681173 0
629 1 0.471091 0.655557 0
1501 1 0.495674 0.663755 0
632 1 0.0152686 0.700611 0
663 1 0.0172686 0.724076 0
634 1 0.0418809 0.726659 0
635 1 0.0593575 0.708578 0
636 1 0.0835192 0.716212 0
665 1 0.065935 0.733865 0
637 1 0.102612 0.700784 0
638 1 0.126389 0.709485 0
667 1 0.107436 0.725706 0
669 1 0.130448 0.733247 0
641 1 0.168558 0.701306 0
640 1 0.149429 0.717466 0
671 1 0.172987 0.726044 0
642 1 0.191453 0.709648 0
673 1 0.196886 0.733925 0
644 1 0.215657 0.7164 0
645 1 0.233262 0.698634 0
675 1 0.238787 0.72585 0
646 1 0.256347 0.707733 0
677 1 0.262062 0.732661 0
649 1 0.299991 0.698674 0
648 1 0.280483 0.715932 0
679 1 0.305478 0.724559 0
650 1 0.323669 0.706711 0
651 1 0.348895 0.713433 0
681 1 0.329242 0.732147 0
652 1 0.353246 0.737554 0
653 1 0.366957 0.696229 0
624 1 0.390656 0.703073 0
654 1 0.374886 0.723807 0
685 1 0.396935 0.736875 0
655 1 0.41503 0.708625 0
656 1 0.438987 0.716613 0
686 1 0.42125 0.732955 0
687 1 0.463486 0.722998 0
658 1 0.457649 0.697561 0
659 1 0.481064 0.705399 0
689 1 0.486988 0.730506 0
662 1 0.0247153 0.746462 0
691 1 0.00590575 0.762099 0
693 1 0.029387 0.76897 0
664 1 0.0487741 0.751273 0
695 1 0.0716952 0.759643 0
694 1 0.0532584 0.77692 0
666 1 0.0891459 0.742068 0
697 1 0.0949609 0.766818 0
668 1 0.112225 0.749499 0
698 1 0.117961 0.776388 0
699 1 0.136336 0.758238 0
670 1 0.154172 0.741255 0
701 1 0.159738 0.766288 0
672 1 0.178592 0.749939 0
702 1 0.183102 0.773627 0
674 1 0.220244 0.741789 0
703 1 0.202835 0.75898 0
705 1 0.225957 0.768173 0
676 1 0.243968 0.749864 0
707 1 0.266925 0.756347 0
706 1 0.264684 0.780404 0
678 1 0.287553 0.743311 0
680 1 0.309472 0.758217 0
709 1 0.287438 0.769017 0
682 1 0.35327 0.762106 0
711 1 0.330382 0.77271 0
683 1 0.375011 0.749617 0
713 1 0.3736 0.776289 0
684 1 0.395986 0.763661 0
715 1 0.424642 0.757614 0
717 1 0.444634 0.742578 0
718 1 0.450978 0.76828 0
716 1 0.415216 0.780539 0
690 1 0.492846 0.755849 0
688 1 0.46828 0.750541 0
719 1 0.476843 0.774784 0
692 1 0.0109725 0.786188 0
722 1 0.0168556 0.809635 0
723 1 0.035031 0.793344 0
724 1 0.040824 0.817765 0
696 1 0.0766053 0.784311 0
725 1 0.0588244 0.802005 0
726 1 0.0824568 0.809442 0
755 1 0.065025 0.826103 0
727 1 0.10003 0.793395 0
728 1 0.125568 0.800075 0
757 1 0.106527 0.817058 0
759 1 0.129466 0.825254 0
700 1 0.142683 0.783378 0
729 1 0.148546 0.808705 0
730 1 0.17334 0.819143 0
731 1 0.166374 0.791678 0
704 1 0.205658 0.783696 0
732 1 0.197339 0.81015 0
733 1 0.220353 0.802558 0
735 1 0.241495 0.790207 0
736 1 0.241064 0.816108 0
737 1 0.262604 0.804758 0
710 1 0.307754 0.783212 0
708 1 0.285306 0.794056 0
738 1 0.284237 0.819103 0
739 1 0.306276 0.808422 0
712 1 0.351187 0.788158 0
741 1 0.328694 0.798079 0
742 1 0.34912 0.812837 0
740 1 0.326506 0.82331 0
714 1 0.393244 0.792453 0
743 1 0.371335 0.802201 0
745 1 0.392451 0.817352 0
746 1 0.416445 0.806167 0
747 1 0.437533 0.791162 0
748 1 0.4385 0.81699 0
749 1 0.461415 0.793865 0
720 1 0.485241 0.798663 0
750 1 0.469681 0.816692 0
1621 1 0.492871 0.825045 0
752 1 0.00409204 0.849371 0
753 1 0.0222907 0.833695 0
783 1 0.0264802 0.85828 0
754 1 0.0458431 0.841251 0
785 1 0.0695813 0.849957 0
784 1 0.0510916 0.865433 0
756 1 0.0889764 0.834755 0
758 1 0.113446 0.843091 0
787 1 0.0930134 0.858833 0
788 1 0.121178 0.866827 0
789 1 0.149341 0.856057 0
760 1 0.152686 0.83231 0
761 1 0.172014 0.846119 0
734 1 0.218737 0.826405 0
763 1 0.194321 0.835218 0
762 1 0.192288 0.861043 0
764 1 0.215609 0.851592 0
767 1 0.26218 0.831258 0
765 1 0.23954 0.841293 0
795 1 0.236084 0.865514 0
766 1 0.259248 0.855643 0
769 1 0.305362 0.834818 0
768 1 0.281595 0.845368 0
799 1 0.302004 0.859875 0
770 1 0.323997 0.850489 0
771 1 0.346844 0.838285 0
772 1 0.345632 0.863431 0
744 1 0.370201 0.827348 0
773 1 0.367281 0.851564 0
775 1 0.390541 0.842556 0
774 1 0.385771 0.867461 0
776 1 0.410756 0.858551 0
777 1 0.417046 0.831492 0
807 1 0.434719 0.853631 0
778 1 0.453215 0.836208 0
809 1 0.458924 0.861067 0
779 1 0.476631 0.8431 0
780 1 0.483882 0.867572 0
782 1 0.00736581 0.873677 0
813 1 0.0340119 0.881422 0
812 1 0.0160954 0.895878 0
814 1 0.0379456 0.909346 0
786 1 0.0738436 0.874459 0
815 1 0.0564207 0.892073 0
816 1 0.0818939 0.897371 0
817 1 0.100803 0.881777 0
819 1 0.123735 0.891995 0
818 1 0.105556 0.909238 0
791 1 0.16961 0.870982 0
790 1 0.146021 0.880077 0
821 1 0.167031 0.895297 0
820 1 0.143914 0.904494 0
792 1 0.190288 0.885713 0
793 1 0.213028 0.875657 0
823 1 0.210286 0.899839 0
822 1 0.188742 0.911164 0
794 1 0.232836 0.890338 0
796 1 0.255688 0.88063 0
827 1 0.253098 0.908235 0
797 1 0.279285 0.871613 0
798 1 0.275951 0.898217 0
800 1 0.298253 0.887623 0
831 1 0.31837 0.901923 0
801 1 0.321344 0.876533 0
802 1 0.341766 0.891228 0
833 1 0.361449 0.90536 0
803 1 0.364965 0.879396 0
804 1 0.384423 0.895263 0
805 1 0.405413 0.88294 0
835 1 0.405059 0.911106 0
806 1 0.425241 0.896776 0
808 1 0.441679 0.878455 0
839 1 0.448712 0.902617 0
1681 1 0.490171 0.89167 0
810 1 0.466809 0.884918 0
840 1 0.47305 0.910032 0
842 1 0.00732178 0.94303 0
843 1 0.0136473 0.919321 0
844 1 0.0321275 0.934658 0
845 1 0.0565325 0.926933 0
846 1 0.0747515 0.94729 0
847 1 0.08172 0.921606 0
875 1 0.0503927 0.952015 0
848 1 0.0982692 0.93975 0
849 1 0.120228 0.928724 0
850 1 0.144393 0.928309 0
851 1 0.166822 0.919477 0
852 1 0.16302 0.944676 0
881 1 0.138944 0.951627 0
824 1 0.208214 0.926207 0
853 1 0.186102 0.936348 0
854 1 0.204974 0.953075 0
855 1 0.226529 0.941903 0
825 1 0.229325 0.915871 0
826 1 0.249462 0.933018 0
857 1 0.269788 0.948236 0
828 1 0.273523 0.924171 0
829 1 0.295114 0.91256 0
859 1 0.293447 0.938615 0
860 1 0.313824 0.952052 0
830 1 0.316168 0.927842 0
832 1 0.339072 0.91724 0
861 1 0.337134 0.942689 0
863 1 0.359572 0.93163 0
834 1 0.38192 0.920098 0
864 1 0.380637 0.944782 0
865 1 0.409298 0.936615 0
837 1 0.429225 0.920087 0
836 1 0.435678 0.943875 0
838 1 0.453861 0.925974 0
870 1 0.460442 0.951699 0
869 1 0.478429 0.933826 0
1711 1 0.496838 0.916582 0
872 1 0.0195039 0.983044 0
873 1 0.0266324 0.958868 0
871 1 0.00180147 0.966951 0
874 1 0.0431843 0.976995 0
5 1 0.0600041 0.995089 0
876 1 0.0674479 0.970911 0
7 1 0.0842274 0.988251 0
9 1 0.127488 0.999904 0
879 1 0.115919 0.956396 0
877 1 0.0915271 0.964454 0
878 1 0.109008 0.98209 0
880 1 0.132578 0.975115 0
11 1 0.150482 0.991788 0
882 1 0.157329 0.968236 0
13 1 0.176243 0.987233 0
883 1 0.181022 0.961179 0
15 1 0.218393 0.994836 0
884 1 0.199099 0.978214 0
885 1 0.222613 0.970042 0
17 1 0.263179 0.998368 0
856 1 0.245578 0.957287 0
887 1 0.242468 0.983493 0
888 1 0.266713 0.973189 0
858 1 0.2895 0.964129 0
19 1 0.285957 0.988316 0
889 1 0.310599 0.977422 0
862 1 0.356588 0.956778 0
891 1 0.334626 0.969471 0
890 1 0.330534 0.995041 0
892 1 0.355561 0.985457 0
23 1 0.380958 0.994793 0
893 1 0.376425 0.971113 0
895 1 0.400194 0.978047 0
897 1 0.447697 0.992693 0
866 1 0.418418 0.961656 0
896 1 0.423619 0.985993 0
867 1 0.44206 0.96866 0
1741 1 0.485246 0.958814 0
1771 1 0.490213 0.983668 0
868 1 0.466369 0.975711 0
931 1 0.526343 0.039724 0
901 1 0.521159 0.0152313 0
30 1 0.501823 0.0318123 0
902 1 0.544987 0.0221007 0
904 1 0.569631 0.0305992 0
906 1 0.587893 0.0135098 0
905 1 0.563571 0.0062798 0
935 1 0.592681 0.0376583 0
908 1 0.611741 0.0217878 0
939 1 0.634585 0.0298848 0
909 1 0.629957 0.00531832 0
910 1 0.653354 0.0137077 0
941 1 0.658387 0.0376625 0
912 1 0.676725 0.0219826 0
943 1 0.701381 0.0288821 0
913 1 0.694673 0.00591376 0
945 1 0.726342 0.0356062 0
914 1 0.73118 0.0115142 0
916 1 0.755625 0.00377086 0
947 1 0.751014 0.0279134 0
918 1 0.77603 0.0214655 0
919 1 0.800267 0.0139096 0
949 1 0.795037 0.0387385 0
951 1 0.818354 0.0310514 0
920 1 0.823005 0.00570576 0
922 1 0.842345 0.0233007 0
953 1 0.861325 0.0412379 0
923 1 0.866657 0.0167959 0
924 1 0.891462 0.00899099 0
954 1 0.885227 0.034063 0
955 1 0.910647 0.0278413 0
925 1 0.916324 0.00364911 0
926 1 0.935324 0.0241811 0
928 1 0.946517 0.00319193 0
957 1 0.953722 0.0426489 0
930 1 0.988813 0.0138139 0
959 1 0.962554 0.0207803 0
960 1 0.981539 0.0372989 0
932 1 0.532029 0.0647572 0
961 1 0.512917 0.0816164 0
60 1 0.507158 0.0564896 0
933 1 0.55022 0.0470124 0
963 1 0.555492 0.0716523 0
934 1 0.57413 0.0548116 0
965 1 0.579199 0.0795203 0
937 1 0.616367 0.0471278 0
936 1 0.598317 0.0632993 0
967 1 0.620919 0.0713631 0
938 1 0.639859 0.0551464 0
969 1 0.645073 0.0796241 0
940 1 0.663812 0.0624715 0
970 1 0.668714 0.0862192 0
942 1 0.681603 0.0456471 0
971 1 0.686714 0.070345 0
944 1 0.704589 0.0526986 0
973 1 0.711408 0.0770683 0
948 1 0.771617 0.0453019 0
975 1 0.726969 0.0595525 0
974 1 0.737705 0.0819829 0
946 1 0.749227 0.0522552 0
977 1 0.764962 0.070324 0
979 1 0.789921 0.0633476 0
950 1 0.814183 0.0558106 0
978 1 0.807745 0.080808 0
980 1 0.83221 0.0728079 0
981 1 0.856574 0.06617 0
952 1 0.837472 0.0483694 0
983 1 0.879933 0.0590003 0
985 1 0.903894 0.0529271 0
984 1 0.897141 0.076469 0
982 1 0.873955 0.0836304 0
956 1 0.928251 0.0479819 0
986 1 0.921049 0.071749 0
987 1 0.94657 0.0657617 0
988 1 0.964469 0.0830853 0
958 1 0.971504 0.0606158 0
989 1 0.989281 0.0782861 0
61 1 0.997248 0.0554502 0
962 1 0.536941 0.0885994 0
991 1 0.518355 0.105274 0
120 1 0.499826 0.122656 0
993 1 0.542159 0.112704 0
992 1 0.5248 0.129769 0
964 1 0.561159 0.0957423 0
994 1 0.567669 0.119695 0
995 1 0.585712 0.104073 0
996 1 0.591775 0.129037 0
966 1 0.603711 0.0880962 0
968 1 0.62668 0.0957631 0
997 1 0.608995 0.11302 0
998 1 0.632858 0.120374 0
999 1 0.651138 0.103349 0
1000 1 0.657809 0.127356 0
1001 1 0.675825 0.110159 0
972 1 0.693988 0.0946015 0
1002 1 0.69937 0.117983 0
1003 1 0.718021 0.0998812 0
1004 1 0.72301 0.124229 0
976 1 0.760405 0.0940071 0
1005 1 0.741238 0.107614 0
1007 1 0.784553 0.0872749 0
1006 1 0.778352 0.11226 0
1008 1 0.802311 0.105205 0
1037 1 0.795511 0.129331 0
1039 1 0.819131 0.122191 0
1009 1 0.826205 0.0980858 0
1010 1 0.843824 0.114128 0
1011 1 0.84953 0.0893807 0
1012 1 0.868143 0.10777 0
1013 1 0.891754 0.101808 0
1014 1 0.884915 0.12545 0
1016 1 0.909589 0.119438 0
1017 1 0.939056 0.0881622 0
1015 1 0.915728 0.0950189 0
1047 1 0.933625 0.112191 0
1018 1 0.95753 0.106388 0
1019 1 0.983653 0.101631 0
1020 1 0.976474 0.124561 0
1022 1 0.532358 0.15462 0
1051 1 0.513793 0.171548 0
1021 1 0.507696 0.147165 0
1023 1 0.548467 0.136759 0
1024 1 0.555667 0.161633 0
1025 1 0.574022 0.146258 0
1055 1 0.579352 0.170743 0
1027 1 0.615451 0.136991 0
1026 1 0.596907 0.153674 0
1028 1 0.621854 0.160272 0
1029 1 0.639534 0.143958 0
1059 1 0.645813 0.168092 0
1030 1 0.663795 0.151238 0
1031 1 0.681374 0.135182 0
1032 1 0.687877 0.158224 0
1033 1 0.705811 0.141535 0
1063 1 0.711483 0.165704 0
1035 1 0.747903 0.131339 0
1034 1 0.730501 0.149696 0
1036 1 0.755339 0.155036 0
1065 1 0.736403 0.173613 0
1067 1 0.771668 0.135078 0
1038 1 0.788776 0.153425 0
1069 1 0.80807 0.169478 0
1040 1 0.813733 0.14571 0
1071 1 0.833744 0.163088 0
1041 1 0.838441 0.138628 0
1042 1 0.857218 0.155502 0
1043 1 0.862016 0.131804 0
1044 1 0.879667 0.149181 0
1075 1 0.898849 0.16775 0
1045 1 0.904099 0.143145 0
1073 1 0.874864 0.173947 0
1049 1 0.951654 0.130337 0
1046 1 0.927186 0.137004 0
1048 1 0.945792 0.155713 0
1077 1 0.921863 0.161894 0
121 1 0.993507 0.143083 0
1050 1 0.969274 0.148845 0
151 1 0.986838 0.166831 0
1079 1 0.96352 0.172854 0
1053 1 0.538486 0.178564 0
1052 1 0.520949 0.196406 0
1083 1 0.544705 0.204551 0
1081 1 0.502973 0.213054 0
1054 1 0.561988 0.187391 0
1056 1 0.585626 0.194928 0
1085 1 0.568279 0.212768 0
1057 1 0.603564 0.178126 0
1058 1 0.62766 0.185079 0
1087 1 0.609032 0.20226 0
1089 1 0.633382 0.20994 0
1061 1 0.669534 0.174783 0
1060 1 0.651567 0.191956 0
1091 1 0.675529 0.199261 0
1090 1 0.658269 0.216236 0
1062 1 0.693704 0.18262 0
1093 1 0.701081 0.206915 0
1064 1 0.718249 0.190412 0
1094 1 0.724942 0.213519 0
1066 1 0.760073 0.179405 0
1095 1 0.742486 0.196981 0
1097 1 0.765761 0.202487 0
1068 1 0.784704 0.181174 0
1098 1 0.789082 0.211244 0
1099 1 0.805325 0.193848 0
1100 1 0.817696 0.216195 0
1070 1 0.827878 0.186902 0
1072 1 0.850996 0.180491 0
1101 1 0.843332 0.205613 0
1103 1 0.86761 0.197761 0
1074 1 0.891694 0.191904 0
1105 1 0.908486 0.210308 0
1104 1 0.884657 0.216313 0
1078 1 0.939496 0.180069 0
1076 1 0.916104 0.185597 0
1107 1 0.931855 0.203393 0
1109 1 0.956768 0.197488 0
181 1 0.980487 0.191519 0
1110 1 0.97349 0.215809 0
211 1 0.997826 0.210487 0
1082 1 0.526485 0.221077 0
1111 1 0.508214 0.236884 0
1113 1 0.531407 0.24486 0
1084 1 0.55027 0.229426 0
1114 1 0.55553 0.253505 0
1115 1 0.574079 0.237568 0
1086 1 0.591941 0.220133 0
1088 1 0.615582 0.227093 0
1117 1 0.598984 0.244778 0
1118 1 0.622651 0.251116 0
1119 1 0.639827 0.234565 0
1121 1 0.664244 0.240329 0
1120 1 0.647151 0.258133 0
1092 1 0.681894 0.223465 0
1122 1 0.689275 0.2472 0
1123 1 0.706888 0.230436 0
1124 1 0.713426 0.255217 0
1125 1 0.729775 0.236758 0
1096 1 0.748674 0.22054 0
1126 1 0.753976 0.244956 0
1127 1 0.771177 0.228388 0
1129 1 0.796372 0.234657 0
1128 1 0.777614 0.25252 0
1159 1 0.800866 0.258389 0
1130 1 0.819601 0.242549 0
1131 1 0.839582 0.229732 0
1132 1 0.853692 0.251729 0
1102 1 0.862954 0.224904 0
1133 1 0.87936 0.242914 0
1135 1 0.902542 0.235634 0
1134 1 0.896723 0.260859 0
1108 1 0.949284 0.220935 0
1136 1 0.920078 0.252755 0
1106 1 0.925186 0.227607 0
1137 1 0.943754 0.246285 0
1139 1 0.967224 0.239311 0
1140 1 0.990873 0.233084 0
1169 1 0.983809 0.257504 0
1112 1 0.514432 0.261695 0
1142 1 0.51982 0.286661 0
1143 1 0.537921 0.270221 0
1144 1 0.544754 0.294366 0
1171 1 0.501728 0.303822 0
1116 1 0.579944 0.261344 0